/*--------------------------------*- C++ -*----------------------------------*\
| =========                 |                                                 |
| \\      /  F ield         | foam-extend: Open Source CFD                    |
|  \\    /   O peration     | Version:     4.0                                |
|   \\  /    A nd           | Web:         http://www.foam-extend.org         |
|    \\/     M anipulation  |                                                 |
\*---------------------------------------------------------------------------*/
FoamFile
{
    version     2.0;
    format      ascii;
    class       volScalarField;
    location    "1700";
    object      alphat;
}
// * * * * * * * * * * * * * * * * * * * * * * * * * * * * * * * * * * * * * //

dimensions      [1 -1 -1 0 0 0 0];

internalField   nonuniform List<scalar> 
34480
(
0.00188858
0.00188732
0.00188716
0.00188798
0.0018901
0.001894
0.00190153
0.00191979
0.00195905
0.00203029
0.0159303
0.0151229
0.0148234
0.0145528
0.0129291
0.00824444
0.00340697
0.00134851
0.000985116
0.00145526
0.0442728
0.042615
0.040928
0.0374833
0.0286739
0.0146838
0.00511931
0.00182892
0.00124119
0.00181217
0.0484215
0.0462645
0.0443242
0.0402855
0.0297133
0.0141642
0.0047945
0.00177589
0.00128757
0.00197784
0.0477435
0.045325
0.0435611
0.0397207
0.0288552
0.0131931
0.00440986
0.00168485
0.001299
0.00209666
0.0459935
0.0435108
0.0418513
0.0380656
0.0268414
0.0116194
0.00385922
0.00155358
0.00130538
0.00222415
0.0438633
0.041542
0.0400831
0.0364702
0.0252759
0.0105559
0.00349528
0.00146137
0.00131287
0.00233368
0.0364098
0.034719
0.0336902
0.0309434
0.0214294
0.00864142
0.00281293
0.00123992
0.0012361
0.00234067
0.0124285
0.0121091
0.0120061
0.0117295
0.00993124
0.00512577
0.00167744
0.000736785
0.000834338
0.0017864
0.00180087
0.00180079
0.00180245
0.00180572
0.0018105
0.00181661
0.00182465
0.00183589
0.00185246
0.00181375
0.00188859
0.00188673
0.00188613
0.00188664
0.0018885
0.00189194
0.00189744
0.0019069
0.0019246
0.00196543
0.0149621
0.0143277
0.0141359
0.0143189
0.0147291
0.0147763
0.0129478
0.0076445
0.00249516
0.00204564
0.0407478
0.0395199
0.0388537
0.0383156
0.0367015
0.0319892
0.0230066
0.0112955
0.00328177
0.00280296
0.0448237
0.0431551
0.042352
0.0417788
0.0399355
0.0344361
0.0242088
0.0114396
0.00330086
0.0031699
0.0446572
0.0427012
0.0419561
0.0415976
0.0401141
0.0348425
0.0244567
0.0112847
0.00323806
0.00345075
0.0434418
0.0413757
0.0406488
0.0404247
0.0392102
0.0342147
0.0239611
0.0108501
0.00316552
0.00378152
0.0418367
0.0398534
0.039217
0.0390772
0.0381009
0.0334704
0.0235415
0.0105544
0.00312901
0.00409778
0.0351443
0.0336729
0.0332046
0.0331873
0.0326788
0.0293636
0.0210972
0.00938517
0.00285433
0.0041704
0.0123667
0.0120599
0.0119989
0.0120569
0.012187
0.0120294
0.0106115
0.00545477
0.00170674
0.0028009
0.00179631
0.00179385
0.00179335
0.00179454
0.00179734
0.00180144
0.00180762
0.00181745
0.00184172
0.00188902
0.00188407
0.00188246
0.00188193
0.00188239
0.00188398
0.00188675
0.00189073
0.00189672
0.00190566
0.00191919
0.0140651
0.0136494
0.0135155
0.0136657
0.0141039
0.0147429
0.0151442
0.0142162
0.0101118
0.00583726
0.0372157
0.0362483
0.0359101
0.0360559
0.036372
0.0359512
0.0330165
0.0253641
0.0133443
0.0071005
0.0410855
0.0397818
0.0393519
0.0395775
0.0400739
0.0397206
0.0361993
0.0266183
0.01254
0.00720486
0.0413135
0.0397986
0.0393832
0.0397229
0.0405269
0.0406565
0.0373638
0.0266932
0.0114192
0.0071764
0.0405712
0.0389643
0.038529
0.038933
0.0399618
0.0405802
0.0377
0.0261773
0.0103045
0.00724749
0.0394645
0.0378986
0.0375064
0.0379149
0.0390468
0.0400253
0.0376538
0.0255316
0.00938052
0.00733082
0.0336223
0.0324598
0.032151
0.0324686
0.0334101
0.0345713
0.0334163
0.0226409
0.0079686
0.00704192
0.0122597
0.0120046
0.0119606
0.0120212
0.012217
0.0124487
0.0126043
0.0106463
0.00448845
0.00445593
0.001789
0.0017861
0.00178522
0.00178612
0.0017888
0.00179316
0.00180019
0.00181201
0.00183875
0.00189224
0.00187587
0.00187474
0.00187436
0.00187471
0.00187587
0.00187773
0.00188006
0.00188314
0.00188708
0.00189176
0.0134738
0.0132267
0.0131361
0.0132317
0.0135222
0.013977
0.0144507
0.0148663
0.0145959
0.0128626
0.0340426
0.0333594
0.0331641
0.0333663
0.0339318
0.0346098
0.034635
0.0324125
0.0256874
0.0173838
0.0376476
0.0367066
0.0364386
0.0367298
0.037538
0.0385438
0.0386015
0.0352943
0.0257923
0.0167235
0.0381936
0.0371017
0.0368338
0.0371904
0.0382034
0.0395835
0.0399771
0.0361449
0.0246326
0.0158812
0.0378715
0.036696
0.0363948
0.0367909
0.0379508
0.0396941
0.0405421
0.0363513
0.0231409
0.0153339
0.0372106
0.0360361
0.0357556
0.0361445
0.0373479
0.0392876
0.0405199
0.0360608
0.0215224
0.0148445
0.0322063
0.0313253
0.0310957
0.0313832
0.0322913
0.0339223
0.0354092
0.0319992
0.0185265
0.0137215
0.0121937
0.0119837
0.0119514
0.0119977
0.0121466
0.0123363
0.0125435
0.0126721
0.00958751
0.00831782
0.0017801
0.00177706
0.00177605
0.00177686
0.00177957
0.00178423
0.00179182
0.00180453
0.00183067
0.00187801
0.00186477
0.00186408
0.00186385
0.00186409
0.00186484
0.00186595
0.00186714
0.00186857
0.00187015
0.00187161
0.0131907
0.0130544
0.0129947
0.013054
0.013233
0.0134925
0.0137232
0.0140122
0.0142938
0.0144162
0.0315086
0.031108
0.0310018
0.0311267
0.0315099
0.0321235
0.0328103
0.0330922
0.0316409
0.0274625
0.0347751
0.0341731
0.0340042
0.0341999
0.0347953
0.0357798
0.0368802
0.0371105
0.0340959
0.0274707
0.0355171
0.034794
0.0346181
0.0348589
0.0356025
0.0368683
0.0383284
0.0385834
0.0342318
0.0263052
0.0355146
0.0347046
0.0344899
0.0347662
0.0356268
0.0371671
0.0390503
0.0394573
0.0338258
0.0253947
0.0352046
0.0343614
0.034154
0.0344308
0.0353344
0.037006
0.0391566
0.0396395
0.0328188
0.0244418
0.0309617
0.0303148
0.0301398
0.0303479
0.0310182
0.0323235
0.0341953
0.0350284
0.0289255
0.0222907
0.0121755
0.0120023
0.0119789
0.0120104
0.0121118
0.012229
0.0122999
0.0126952
0.0125727
0.0122092
0.00176977
0.00176671
0.00176564
0.00176638
0.00176906
0.0017738
0.00178144
0.00179382
0.00181653
0.00185315
0.00185132
0.00185098
0.00185086
0.00185101
0.00185145
0.00185202
0.00185253
0.00185312
0.00185369
0.00185409
0.0131481
0.0130827
0.0130456
0.0130842
0.0131955
0.0133331
0.0134248
0.01354
0.01366
0.013752
0.0297492
0.0295563
0.0295088
0.0295687
0.0297619
0.03009
0.0305451
0.0310962
0.03142
0.0310593
0.0326074
0.0322669
0.0321684
0.0322755
0.0326212
0.0332437
0.0341537
0.0351937
0.0354804
0.0339469
0.0333894
0.0329522
0.0328448
0.0329839
0.0334384
0.0342706
0.0355122
0.0369062
0.0369201
0.0340659
0.033575
0.0330521
0.0329063
0.0330782
0.0336333
0.0346867
0.0363092
0.0381511
0.0378564
0.0338483
0.0334993
0.0329243
0.0327778
0.0329567
0.0335629
0.0347337
0.0365784
0.0386897
0.0379468
0.0330994
0.0299087
0.029454
0.0293267
0.0294674
0.0299212
0.0308166
0.0322749
0.0342153
0.0337628
0.0299509
0.0122084
0.0120664
0.0120515
0.0120715
0.0121349
0.012187
0.0121395
0.0123343
0.0127453
0.013636
0.00175785
0.00175489
0.00175381
0.0017545
0.00175707
0.00176166
0.00176891
0.00178018
0.00179865
0.00182511
0.00183591
0.00183579
0.00183576
0.00183584
0.00183607
0.00183629
0.00183648
0.00183668
0.00183685
0.0018369
0.0132698
0.0132519
0.0132317
0.0132579
0.0133267
0.0133893
0.0134289
0.0134714
0.0135024
0.0134926
0.0286873
0.0286107
0.0285957
0.0286207
0.0287028
0.0288368
0.0290287
0.0292933
0.0295749
0.0297934
0.0311292
0.0309523
0.0308983
0.030951
0.031129
0.0314535
0.0319536
0.0326498
0.0333495
0.0337462
0.0318271
0.0315816
0.031521
0.0315938
0.0318442
0.0323072
0.0330424
0.0340998
0.0350944
0.0353905
0.0320817
0.0317623
0.0316681
0.0317676
0.0320982
0.0327298
0.0337645
0.0353035
0.0366607
0.0367226
0.0321325
0.0317577
0.0316593
0.0317673
0.0321478
0.0328835
0.0341067
0.0359718
0.0374791
0.0371038
0.0290745
0.0287681
0.02868
0.0287697
0.0290583
0.0296185
0.0305421
0.0321134
0.0335545
0.0335444
0.0123012
0.012184
0.0121765
0.0121877
0.012222
0.01222
0.0120989
0.012102
0.0122885
0.0129831
0.00174421
0.00174145
0.00174042
0.00174105
0.00174342
0.00174767
0.00175421
0.00176394
0.00177834
0.0017969
0.00181876
0.00181879
0.0018188
0.00181885
0.00181894
0.00181899
0.00181902
0.00181905
0.00181907
0.00181899
0.0134979
0.0135144
0.0135079
0.013526
0.0135658
0.0135906
0.0136098
0.0136264
0.0136272
0.0135853
0.028129
0.0281074
0.0281078
0.0281179
0.0281485
0.0281933
0.0282581
0.0283463
0.0284437
0.0285284
0.0302036
0.0301151
0.0300862
0.0301111
0.0301989
0.0303562
0.0305937
0.0309234
0.0312978
0.0316314
0.0307584
0.0306275
0.0305957
0.0306314
0.0307617
0.0309985
0.0313691
0.0319157
0.0325573
0.0331299
0.0310022
0.0308152
0.0307569
0.0308119
0.0309996
0.0313525
0.0319243
0.0328127
0.0338822
0.0348216
0.0310991
0.0308637
0.0308005
0.0308625
0.0310911
0.0315251
0.0322374
0.0333885
0.034774
0.0359117
0.0284635
0.0282652
0.0282074
0.0282616
0.0284348
0.0287595
0.0292739
0.0302056
0.0314625
0.0326988
0.0124598
0.0123618
0.0123605
0.0123654
0.0123779
0.0123343
0.0121773
0.0120701
0.0120497
0.0123118
0.00172872
0.00172624
0.0017253
0.00172586
0.00172798
0.00173173
0.00173737
0.0017454
0.00175627
0.00176906
0.00179998
0.00180009
0.00180014
0.00180015
0.00180017
0.00180015
0.00180013
0.0018001
0.00180006
0.00179994
0.0137985
0.0138419
0.0138471
0.0138595
0.0138774
0.0138882
0.0138991
0.0139056
0.0138957
0.013843
0.0278887
0.027891
0.0278977
0.0279021
0.0279113
0.0279235
0.0279416
0.0279651
0.0279881
0.028003
0.0296654
0.0296205
0.0296047
0.0296167
0.0296606
0.0297376
0.0298491
0.0299949
0.0301546
0.0302902
0.0300729
0.0300048
0.0299888
0.0300059
0.0300723
0.0301901
0.0303677
0.0306167
0.0309092
0.0311771
0.0302677
0.0301615
0.0301264
0.0301561
0.0302601
0.0304511
0.0307502
0.0311962
0.031755
0.0323087
0.0303629
0.0302189
0.0301797
0.030214
0.0303478
0.0305955
0.0309878
0.0316014
0.0323917
0.0331896
0.0280619
0.0279384
0.0279025
0.0279336
0.0280309
0.0282037
0.0284623
0.0289327
0.029635
0.0304934
0.0126892
0.0126052
0.0126091
0.0126096
0.0126063
0.0125335
0.012367
0.0122128
0.0120862
0.0121447
0.00171129
0.00170915
0.00170832
0.00170881
0.00171063
0.00171381
0.00171847
0.00172483
0.0017328
0.00174147
0.00177963
0.00177975
0.00177982
0.00177982
0.00177981
0.00177978
0.00177973
0.00177969
0.00177963
0.00177951
0.0141699
0.0142231
0.0142385
0.0142468
0.0142531
0.0142601
0.0142669
0.0142688
0.014254
0.0141958
0.0278366
0.0278462
0.0278552
0.0278576
0.0278592
0.0278616
0.0278652
0.0278692
0.0278705
0.0278662
0.0293741
0.0293498
0.0293408
0.029347
0.0293701
0.0294102
0.0294658
0.0295338
0.0296034
0.0296563
0.0296588
0.0296229
0.0296149
0.0296232
0.0296576
0.0297174
0.0298038
0.0299168
0.0300423
0.0301473
0.029797
0.0297373
0.0297166
0.0297326
0.02979
0.0298928
0.030048
0.0302651
0.0305284
0.0307764
0.0298701
0.0297828
0.029759
0.0297777
0.0298554
0.0299954
0.0302087
0.0305225
0.0309158
0.0312922
0.0278425
0.0277679
0.0277472
0.0277639
0.0278141
0.0278947
0.0280105
0.0282221
0.0285501
0.0289675
0.0129938
0.0129195
0.0129279
0.0129254
0.0129103
0.0128209
0.0126617
0.0124994
0.0123337
0.0123321
0.00169185
0.00169008
0.00168939
0.00168979
0.0016913
0.00169388
0.00169759
0.00170245
0.00170814
0.0017139
0.00175766
0.00175779
0.00175785
0.00175785
0.00175783
0.0017578
0.00175776
0.00175772
0.00175767
0.00175755
0.0146083
0.0146654
0.0146836
0.0146905
0.0146954
0.0147004
0.0147047
0.0147038
0.014686
0.0146237
0.0278892
0.0279001
0.0279084
0.0279107
0.0279111
0.027911
0.0279108
0.0279097
0.0279057
0.0278969
0.0292287
0.0292145
0.0292089
0.0292124
0.0292256
0.029248
0.0292781
0.0293131
0.0293468
0.0293698
0.029423
0.029403
0.0293986
0.0294029
0.0294218
0.0294539
0.0294986
0.0295533
0.0296099
0.0296537
0.0295129
0.0294792
0.0294668
0.0294757
0.0295078
0.0295639
0.0296457
0.0297531
0.0298772
0.0299889
0.0295613
0.0295078
0.0294933
0.0295038
0.0295495
0.0296294
0.0297471
0.0299095
0.030102
0.0302716
0.0277706
0.0277268
0.027716
0.0277243
0.0277466
0.0277752
0.0278179
0.0279004
0.0280348
0.0282289
0.0133784
0.0133105
0.0133229
0.0133182
0.013294
0.0132003
0.0130582
0.0129091
0.0127414
0.0127402
0.00167038
0.00166897
0.00166842
0.00166874
0.00166994
0.00167195
0.0016748
0.00167838
0.00168234
0.00168611
0.00173403
0.00173414
0.0017342
0.0017342
0.00173419
0.00173416
0.00173413
0.00173409
0.00173405
0.00173394
0.0151184
0.0151791
0.0151987
0.0152054
0.0152095
0.0152131
0.0152156
0.0152129
0.0151929
0.0151268
0.0279986
0.0280095
0.0280168
0.028019
0.0280193
0.0280189
0.0280181
0.0280162
0.0280112
0.0280015
0.0291639
0.0291551
0.0291516
0.0291537
0.0291615
0.0291747
0.0291921
0.0292116
0.0292298
0.0292412
0.0292966
0.0292844
0.0292816
0.0292841
0.0292953
0.0293141
0.0293394
0.0293687
0.0293971
0.0294181
0.0293515
0.0293321
0.0293247
0.0293297
0.0293481
0.0293796
0.0294238
0.0294789
0.0295396
0.0295939
0.0293815
0.0293478
0.0293388
0.0293451
0.0293728
0.0294199
0.0294871
0.0295746
0.029672
0.0297538
0.0278105
0.0277854
0.0277808
0.0277844
0.0277909
0.0277944
0.0278027
0.027826
0.0278709
0.0279688
0.0138494
0.0137859
0.0138023
0.0137959
0.0137635
0.0136779
0.0135582
0.013432
0.0132803
0.0133021
0.00164685
0.00164578
0.00164535
0.0016456
0.00164651
0.00164802
0.00165013
0.00165268
0.00165537
0.0016578
0.00170865
0.00170875
0.0017088
0.0017088
0.00170879
0.00170878
0.00170875
0.00170872
0.00170869
0.00170858
0.0157117
0.0157762
0.0157968
0.0158035
0.015807
0.0158096
0.0158108
0.0158068
0.0157851
0.015715
0.0281386
0.028149
0.0281554
0.0281576
0.028158
0.0281578
0.0281572
0.0281554
0.0281507
0.0281408
0.0291409
0.0291354
0.0291332
0.0291344
0.0291391
0.029147
0.0291572
0.0291686
0.029179
0.0291851
0.0292331
0.0292251
0.0292229
0.0292245
0.0292317
0.0292437
0.0292594
0.0292769
0.029293
0.0293047
0.0292654
0.0292539
0.0292493
0.0292523
0.0292632
0.0292814
0.0293061
0.0293355
0.0293667
0.0293955
0.0292855
0.0292635
0.0292577
0.0292618
0.0292794
0.0293085
0.0293487
0.0293986
0.0294511
0.0294955
0.0279304
0.0279156
0.0279148
0.0279157
0.0279139
0.0279084
0.027903
0.0279023
0.0279096
0.0279676
0.0144179
0.0143569
0.0143776
0.0143696
0.0143322
0.0142646
0.0141688
0.0140685
0.0139396
0.0139903
0.00162125
0.00162046
0.00162015
0.00162033
0.00162099
0.0016221
0.00162361
0.00162536
0.00162714
0.00162869
0.00168144
0.00168154
0.00168158
0.00168158
0.00168157
0.00168156
0.00168154
0.00168152
0.00168149
0.00168139
0.016406
0.0164746
0.0164962
0.0165028
0.0165059
0.0165077
0.0165081
0.0165031
0.0164801
0.0164058
0.0282951
0.0283049
0.0283104
0.0283124
0.028313
0.028313
0.0283127
0.0283113
0.0283072
0.0282975
0.0291378
0.0291344
0.0291332
0.0291339
0.0291365
0.029141
0.0291469
0.0291534
0.0291596
0.0291631
0.0292036
0.029198
0.0291962
0.0291972
0.0292021
0.0292102
0.0292207
0.029232
0.0292422
0.0292495
0.0292224
0.0292153
0.0292124
0.0292142
0.0292208
0.0292316
0.0292459
0.0292622
0.029279
0.0292956
0.0292399
0.0292248
0.029221
0.029224
0.0292355
0.0292545
0.0292797
0.02931
0.0293405
0.0293682
0.0281048
0.0280933
0.0280946
0.0280942
0.02809
0.0280832
0.0280743
0.0280661
0.0280598
0.0281012
0.0151135
0.0150437
0.0150663
0.0150566
0.0150276
0.0149773
0.0149049
0.0148294
0.0147243
0.0148026
0.00159358
0.00159302
0.0015928
0.00159293
0.0015934
0.00159417
0.00159521
0.00159638
0.00159753
0.0015985
0.00165233
0.00165242
0.00165245
0.00165245
0.00165245
0.00165244
0.00165242
0.00165241
0.00165239
0.00165229
0.0172274
0.0173005
0.0173228
0.0173292
0.0173321
0.0173333
0.017333
0.0173276
0.0173037
0.0172247
0.0284599
0.028469
0.0284737
0.0284754
0.028476
0.0284763
0.0284763
0.0284753
0.028472
0.0284628
0.029143
0.0291412
0.0291406
0.0291409
0.0291423
0.0291446
0.0291477
0.0291513
0.0291549
0.0291571
0.0291911
0.029187
0.0291855
0.0291862
0.0291895
0.0291952
0.0292023
0.02921
0.0292168
0.0292218
0.0292019
0.0291973
0.0291955
0.0291965
0.0292006
0.0292071
0.0292156
0.029225
0.0292345
0.0292446
0.0292213
0.0292106
0.029208
0.0292103
0.0292182
0.029231
0.0292475
0.0292668
0.0292857
0.0293052
0.0283111
0.0283003
0.0283013
0.028301
0.0282979
0.0282925
0.0282847
0.028276
0.0282666
0.0283004
0.0159624
0.0158851
0.015902
0.0158958
0.0158763
0.015842
0.0157913
0.0157377
0.0156545
0.0157557
0.00156384
0.00156345
0.0015633
0.00156339
0.00156371
0.00156423
0.00156492
0.00156567
0.00156639
0.00156699
0.00162127
0.00162135
0.00162138
0.00162138
0.00162138
0.00162137
0.00162136
0.00162135
0.00162133
0.00162123
0.0182126
0.0182909
0.0183134
0.0183196
0.0183224
0.0183232
0.0183226
0.018317
0.0182927
0.0182086
0.0286271
0.0286353
0.0286391
0.0286405
0.0286411
0.0286416
0.0286418
0.0286413
0.0286389
0.0286306
0.0291509
0.02915
0.0291498
0.0291499
0.0291505
0.0291514
0.0291528
0.0291545
0.0291566
0.0291582
0.0291859
0.0291829
0.0291816
0.029182
0.0291843
0.0291882
0.0291931
0.0291983
0.029203
0.0292065
0.0291918
0.0291888
0.0291875
0.0291881
0.0291906
0.0291946
0.0291997
0.0292053
0.0292108
0.0292172
0.0292145
0.0292069
0.0292051
0.0292068
0.0292123
0.029221
0.029232
0.0292446
0.0292567
0.0292715
0.0285303
0.02852
0.0285207
0.0285207
0.0285189
0.0285156
0.0285103
0.028504
0.0284953
0.0285246
0.017003
0.0169202
0.016931
0.0169281
0.0169172
0.0168972
0.0168663
0.016831
0.0167675
0.0168852
0.00153204
0.00153179
0.00153169
0.00153175
0.00153195
0.00153229
0.00153273
0.00153319
0.00153363
0.00153399
0.00158833
0.0015884
0.00158842
0.00158842
0.00158842
0.00158842
0.00158841
0.00158839
0.00158837
0.00158829
0.019416
0.0194999
0.0195225
0.0195282
0.0195306
0.019531
0.0195303
0.019525
0.019501
0.0194113
0.0287905
0.0287975
0.0288003
0.0288013
0.0288019
0.0288024
0.0288029
0.0288029
0.0288015
0.0287947
0.0291582
0.0291579
0.0291579
0.0291579
0.029158
0.0291583
0.0291586
0.0291593
0.0291603
0.0291617
0.0291827
0.0291805
0.0291794
0.0291796
0.0291811
0.0291836
0.0291869
0.0291904
0.0291936
0.0291962
0.0291854
0.0291834
0.0291824
0.0291827
0.0291842
0.0291867
0.0291897
0.029193
0.0291962
0.0292003
0.0292098
0.0292045
0.0292032
0.0292045
0.0292082
0.029214
0.0292211
0.0292291
0.029237
0.0292483
0.0287447
0.0287352
0.0287356
0.0287358
0.0287352
0.0287338
0.0287312
0.0287275
0.028721
0.0287462
0.0182923
0.0182065
0.0182111
0.0182109
0.0182078
0.0182008
0.0181882
0.018168
0.0181228
0.0182486
0.00149828
0.00149812
0.00149805
0.00149809
0.00149822
0.00149843
0.0014987
0.00149897
0.00149924
0.00149944
0.00155372
0.00155378
0.0015538
0.0015538
0.0015538
0.0015538
0.00155379
0.00155377
0.00155375
0.00155367
0.02092
0.0210094
0.0210319
0.0210369
0.021038
0.0210381
0.0210373
0.0210326
0.02101
0.0209148
0.0289416
0.0289468
0.0289484
0.0289489
0.0289493
0.0289499
0.0289506
0.0289511
0.0289508
0.0289464
0.0291632
0.0291631
0.0291632
0.0291633
0.0291632
0.0291631
0.029163
0.0291631
0.0291636
0.0291648
0.0291789
0.0291773
0.0291765
0.0291765
0.0291774
0.0291789
0.0291809
0.0291832
0.0291854
0.0291873
0.0291795
0.0291781
0.0291775
0.0291776
0.0291784
0.0291798
0.0291815
0.0291833
0.0291852
0.0291877
0.0292009
0.0291974
0.0291966
0.0291974
0.0291997
0.0292033
0.0292076
0.0292123
0.0292171
0.0292253
0.0289349
0.0289269
0.028927
0.0289273
0.0289274
0.0289272
0.0289263
0.0289248
0.0289205
0.0289412
0.0199136
0.0198282
0.0198256
0.0198277
0.0198317
0.0198372
0.0198426
0.0198357
0.0198104
0.0199329
0.00146274
0.00146265
0.0014626
0.00146262
0.0014627
0.00146283
0.00146299
0.00146316
0.00146332
0.00146343
0.00151765
0.00151769
0.0015177
0.0015177
0.0015177
0.00151769
0.00151769
0.00151769
0.00151767
0.00151762
0.0228577
0.0229495
0.0229693
0.0229734
0.0229742
0.0229741
0.0229732
0.0229692
0.0229493
0.0228512
0.0290681
0.0290707
0.0290711
0.029071
0.0290712
0.0290718
0.0290727
0.0290737
0.0290744
0.0290731
0.0291652
0.0291651
0.0291652
0.0291652
0.0291652
0.0291651
0.0291649
0.0291648
0.0291649
0.0291659
0.0291743
0.0291732
0.0291726
0.0291726
0.0291731
0.0291739
0.0291751
0.0291764
0.0291779
0.0291793
0.0291737
0.0291728
0.0291724
0.0291725
0.0291729
0.0291736
0.0291745
0.0291755
0.0291765
0.0291779
0.0291862
0.0291842
0.0291837
0.0291841
0.0291854
0.0291873
0.0291897
0.0291922
0.0291948
0.0291999
0.0290797
0.0290736
0.0290736
0.0290738
0.029074
0.0290742
0.0290739
0.0290735
0.0290715
0.029087
0.0220132
0.0219347
0.0219327
0.0219345
0.0219376
0.0219418
0.021946
0.0219489
0.0219499
0.0220531
0.00142556
0.0014255
0.00142547
0.00142548
0.00142553
0.00142561
0.00142571
0.00142581
0.00142593
0.00142599
0.00147926
0.00147925
0.00147924
0.00147923
0.00147923
0.00147923
0.00147924
0.00147926
0.00147928
0.0014793
0.0254662
0.0255467
0.0255604
0.0255633
0.0255639
0.0255636
0.0255625
0.0255593
0.0255445
0.0254563
0.0291564
0.0291562
0.0291555
0.029155
0.029155
0.0291555
0.0291564
0.0291576
0.0291592
0.029161
0.0291649
0.0291649
0.029165
0.029165
0.029165
0.029165
0.029165
0.029165
0.029165
0.0291653
0.0291706
0.0291699
0.0291696
0.0291696
0.0291698
0.0291703
0.029171
0.0291718
0.0291726
0.0291735
0.02917
0.0291695
0.0291692
0.0291693
0.0291695
0.02917
0.0291705
0.0291711
0.0291717
0.0291723
0.0291722
0.0291712
0.0291709
0.0291711
0.0291719
0.0291729
0.0291742
0.0291755
0.0291768
0.0291791
0.0291673
0.0291635
0.0291631
0.029163
0.029163
0.029163
0.0291629
0.029163
0.0291632
0.029173
0.0249078
0.024849
0.0248479
0.0248491
0.0248511
0.0248539
0.0248567
0.0248585
0.0248588
0.0249358
0.00138597
0.00138592
0.0013859
0.00138591
0.00138595
0.00138601
0.00138609
0.00138617
0.00138625
0.00138629
0.00234425
0.00236512
0.0023549
0.00232097
0.00141087
0.00143388
0.00143122
0.00142637
0.00188736
0.00192943
0.00192028
0.00189559
0.00227423
0.00233238
0.00231284
0.00226661
0.00262163
0.00269276
0.00266075
0.00259628
0.00296306
0.00304535
0.00300511
0.00293163
0.00324517
0.00333563
0.00329331
0.00322002
0.00341298
0.0035098
0.00346975
0.00340114
0.00304486
0.0031344
0.00309553
0.00303984
0.00237474
0.00239138
0.00235649
0.00227522
0.00202761
0.00203332
0.00203444
0.00203142
0.00235397
0.00243424
0.00233416
0.00214224
0.00330842
0.00342281
0.00329227
0.00305437
0.00407172
0.00424004
0.00408134
0.00378339
0.00485333
0.00508918
0.0048946
0.00451895
0.00582815
0.00615411
0.00591258
0.00542804
0.0067945
0.0072082
0.00690659
0.00630882
0.00749273
0.00799084
0.00763267
0.0069379
0.00591738
0.00635417
0.00600117
0.00540456
0.00218157
0.00221391
0.00220704
0.00217126
0.00193325
0.00193531
0.00193546
0.0019342
0.00406679
0.00404227
0.00405257
0.0041436
0.00499191
0.00497311
0.00499313
0.00509746
0.00549632
0.00551585
0.00553562
0.0055855
0.00601089
0.00606486
0.00606812
0.00602667
0.00675368
0.00685037
0.00681069
0.00663297
0.00751167
0.00763512
0.00752148
0.00718377
0.00805023
0.0082108
0.00802342
0.00752474
0.0061243
0.00626416
0.00608801
0.00560702
0.00204793
0.00206503
0.00206311
0.00204535
0.0018945
0.00189472
0.00189485
0.00189488
0.010241
0.00996232
0.0100982
0.0106129
0.0119486
0.0116142
0.0119169
0.0128105
0.0114412
0.0112598
0.0116319
0.012527
0.0110902
0.0110289
0.0114258
0.0122564
0.0112078
0.0112503
0.0116407
0.0123678
0.0114037
0.0115055
0.0118442
0.0124229
0.0113538
0.0115312
0.0118014
0.0121724
0.00801742
0.0082022
0.00832528
0.00836644
0.00195671
0.00196716
0.00196813
0.00196013
0.00187255
0.0018726
0.00187263
0.00187264
0.0144914
0.0144313
0.0144594
0.0145688
0.0238428
0.023519
0.0237067
0.0243338
0.0222467
0.0219545
0.022307
0.023234
0.0203816
0.020202
0.0206818
0.0217896
0.0193309
0.0193006
0.0198716
0.0210701
0.0185176
0.0185928
0.0191857
0.0203774
0.0173301
0.0175426
0.0180978
0.01911
0.010879
0.0111145
0.0113559
0.0116693
0.00189348
0.00189997
0.00190143
0.00189802
0.00185451
0.00185448
0.00185447
0.00185447
0.014087
0.0140132
0.0140037
0.0140586
0.0304046
0.0302976
0.0303235
0.0304706
0.0317985
0.0315596
0.0316501
0.0320272
0.030433
0.0301457
0.0303662
0.031025
0.0290256
0.0288078
0.029197
0.0301266
0.027449
0.0273217
0.0278365
0.0289646
0.0247742
0.0248399
0.0253972
0.0264738
0.0131724
0.0134049
0.0135805
0.0137409
0.00184557
0.00184949
0.00185077
0.00184941
0.0018372
0.00183716
0.00183713
0.00183712
0.0137853
0.0136945
0.0136768
0.0137312
0.0299163
0.0299192
0.0299334
0.0299592
0.0336758
0.0336792
0.0337116
0.0337706
0.0348253
0.0347791
0.0348401
0.0349964
0.0353466
0.0352619
0.0353984
0.0357257
0.0347081
0.0345951
0.0348274
0.0353614
0.0310982
0.0311305
0.0314425
0.0320069
0.0133149
0.0135924
0.0136535
0.0135456
0.00180724
0.00180963
0.00181058
0.00181006
0.00181927
0.00181921
0.00181918
0.00181918
0.0138649
0.0137677
0.0137475
0.0138031
0.0286253
0.0286184
0.0286213
0.0286342
0.0317594
0.0317855
0.0318029
0.0318118
0.033317
0.0333625
0.0333953
0.033417
0.0350528
0.0351262
0.0351875
0.0352387
0.0359192
0.035984
0.0360699
0.0361778
0.0326208
0.0327795
0.032906
0.0330038
0.0123916
0.0126482
0.0126886
0.0125495
0.00177442
0.00177594
0.00177657
0.00177634
0.00180021
0.00180015
0.00180012
0.00180011
0.0141241
0.0140236
0.0140025
0.0140593
0.0280678
0.0280549
0.0280535
0.0280638
0.0303412
0.0303492
0.0303543
0.0303566
0.0312804
0.0313018
0.0313147
0.0313194
0.032558
0.0326151
0.0326465
0.0326537
0.0334937
0.0335726
0.0336161
0.0336291
0.0307733
0.0309415
0.0310098
0.030986
0.0119566
0.0121814
0.012223
0.012101
0.00174435
0.00174538
0.00174579
0.00174561
0.00177978
0.00177972
0.00177969
0.00177968
0.0144823
0.0143789
0.0143571
0.0144152
0.0279207
0.0279072
0.0279049
0.0279142
0.0296739
0.029675
0.029676
0.0296769
0.0301789
0.0301842
0.0301875
0.030189
0.0308814
0.0309044
0.0309167
0.0309186
0.0314144
0.0314477
0.0314657
0.0314698
0.029041
0.0291516
0.0291915
0.0291621
0.0120317
0.0122511
0.0122927
0.0121701
0.0017155
0.00171625
0.0017165
0.00171632
0.00175783
0.00175775
0.00175772
0.00175772
0.0149175
0.0148109
0.0147883
0.014848
0.0279469
0.0279339
0.0279316
0.0279403
0.0293775
0.029377
0.0293771
0.0293777
0.029663
0.0296639
0.0296646
0.029665
0.0300322
0.0300413
0.0300461
0.0300464
0.0303003
0.0303111
0.0303174
0.0303193
0.0281841
0.0282592
0.0282837
0.0282569
0.012397
0.0126277
0.0126705
0.0125385
0.00168701
0.00168759
0.00168775
0.00168755
0.00173422
0.00173415
0.00173411
0.00173412
0.0154294
0.0153192
0.0152956
0.0153571
0.0280478
0.0280355
0.0280332
0.0280412
0.0292456
0.0292448
0.0292448
0.0292454
0.0294215
0.0294215
0.0294216
0.0294217
0.0296155
0.02962
0.0296221
0.029622
0.0297546
0.0297584
0.0297607
0.0297614
0.0278877
0.0279468
0.0279644
0.0279395
0.0129385
0.0131883
0.0132337
0.0130896
0.0016583
0.00165877
0.00165888
0.00165868
0.00170888
0.00170879
0.00170876
0.00170877
0.0160283
0.0159136
0.0158889
0.0159525
0.0281832
0.0281716
0.0281694
0.0281767
0.029188
0.0291873
0.0291873
0.0291878
0.0293065
0.0293064
0.0293064
0.0293064
0.0294085
0.0294112
0.0294125
0.0294122
0.0294908
0.0294928
0.0294939
0.029494
0.0278812
0.0279323
0.0279465
0.0279236
0.0136123
0.013885
0.0139342
0.0137766
0.00162894
0.00162935
0.00162942
0.00162922
0.0016817
0.00168161
0.00168157
0.00168158
0.0167317
0.0166117
0.0165856
0.0166517
0.0283356
0.0283248
0.0283226
0.0283293
0.0291651
0.0291645
0.0291645
0.029165
0.0292507
0.0292507
0.0292506
0.0292506
0.0293044
0.0293062
0.029307
0.0293067
0.0293644
0.0293661
0.0293669
0.0293667
0.0280203
0.0280659
0.0280782
0.0280572
0.0144103
0.0147088
0.0147624
0.0145898
0.00159861
0.00159897
0.00159901
0.00159881
0.00165261
0.00165251
0.00165247
0.00165249
0.0175656
0.017439
0.0174111
0.0174803
0.0284962
0.0284863
0.0284842
0.0284901
0.0291585
0.0291581
0.0291581
0.0291585
0.0292226
0.0292226
0.0292226
0.0292226
0.0292509
0.0292522
0.0292527
0.0292524
0.0293039
0.0293056
0.0293063
0.0293058
0.0282296
0.0282705
0.0282813
0.0282621
0.0153471
0.0156744
0.0157327
0.0155434
0.00156702
0.00156734
0.00156737
0.00156718
0.00162157
0.00162146
0.00162142
0.00162145
0.0185673
0.0184323
0.0184021
0.018475
0.0286588
0.0286499
0.0286479
0.0286531
0.0291593
0.0291589
0.029159
0.0291593
0.0292072
0.0292072
0.0292072
0.0292072
0.0292218
0.0292228
0.0292231
0.0292228
0.0292726
0.0292744
0.029275
0.0292744
0.0284668
0.0285032
0.0285126
0.028495
0.0164564
0.0168157
0.0168788
0.0166706
0.00153397
0.00153426
0.00153428
0.0015341
0.00158864
0.00158853
0.00158849
0.00158852
0.0197913
0.0196452
0.0196119
0.0196895
0.0288172
0.0288094
0.0288077
0.0288121
0.0291626
0.0291624
0.0291625
0.0291627
0.0291969
0.0291969
0.0291969
0.0291969
0.0292037
0.0292044
0.0292046
0.0292043
0.0292511
0.0292528
0.0292533
0.0292526
0.0287038
0.0287359
0.0287436
0.0287275
0.0177925
0.018186
0.0182533
0.018025
0.00149941
0.00149965
0.00149966
0.00149951
0.00155406
0.00155393
0.0015539
0.00155394
0.0213179
0.0211563
0.0211186
0.0212027
0.0289647
0.0289586
0.0289572
0.0289606
0.0291655
0.0291655
0.0291655
0.0291656
0.0291881
0.0291882
0.0291883
0.0291883
0.0291901
0.0291905
0.0291906
0.0291904
0.029229
0.0292304
0.0292308
0.0292301
0.028916
0.0289435
0.0289495
0.0289347
0.0194348
0.0198581
0.0199282
0.0196819
0.00146341
0.0014636
0.00146361
0.00146349
0.00151804
0.00151792
0.00151789
0.00151794
0.0232725
0.0230883
0.0230449
0.0231387
0.0290882
0.0290844
0.0290834
0.0290856
0.0291663
0.0291663
0.0291663
0.0291662
0.0291801
0.0291803
0.0291803
0.0291804
0.0291792
0.0291795
0.0291795
0.0291794
0.0292031
0.0292042
0.0292045
0.0292039
0.0290785
0.0291001
0.0291042
0.0290916
0.0215236
0.0219762
0.0220432
0.0217754
0.00142608
0.00142624
0.00142625
0.00142616
0.00147976
0.00147966
0.00147965
0.0014797
0.0258489
0.0256401
0.0255945
0.0257017
0.0291711
0.0291696
0.0291691
0.0291701
0.029165
0.0291649
0.0291649
0.0291648
0.0291742
0.0291743
0.0291744
0.0291744
0.0291728
0.0291729
0.0291729
0.0291729
0.0291806
0.029181
0.0291811
0.0291809
0.029175
0.0291874
0.0291892
0.0291815
0.0244731
0.0248982
0.0249477
0.024688
0.00138667
0.0013868
0.0013868
0.0013867
0.00215556
0.00203901
0.0019746
0.00194206
0.00192294
0.00191055
0.00190238
0.00189719
0.00189385
0.00189157
0.00174754
0.0015835
0.00476615
0.00942488
0.0139357
0.0171237
0.0186346
0.0187863
0.0181557
0.0172163
0.00236379
0.0025747
0.00732605
0.0155551
0.024961
0.0330834
0.0390694
0.0428731
0.0447497
0.0451361
0.00276848
0.00359777
0.00828975
0.0178428
0.0291708
0.0385236
0.0449989
0.0487296
0.0501672
0.0499585
0.00307695
0.00394196
0.00871705
0.0193473
0.0320865
0.0419675
0.0481518
0.0510053
0.0513212
0.0501101
0.00338863
0.00407077
0.00893831
0.0204189
0.0342682
0.0443123
0.0498902
0.051681
0.0509066
0.0488682
0.00363071
0.00408381
0.00896805
0.0211701
0.035898
0.0457572
0.0504364
0.0510669
0.0493426