/*--------------------------------*- C++ -*----------------------------------*\
| =========                 |                                                 |
| \\      /  F ield         | foam-extend: Open Source CFD                    |
|  \\    /   O peration     | Version:     4.0                                |
|   \\  /    A nd           | Web:         http://www.foam-extend.org         |
|    \\/     M anipulation  |                                                 |
\*---------------------------------------------------------------------------*/
FoamFile
{
    version     2.0;
    format      ascii;
    class       volScalarField;
    location    "1700";
    object      divFlux;
}
// * * * * * * * * * * * * * * * * * * * * * * * * * * * * * * * * * * * * * //

dimensions      [1 -3 -1 0 0 0 0];

internalField   nonuniform List<scalar> 
34480
(
0.000308402
0.0001168
0.000121169
0.000114563
0.000108484
0.000103507
9.95181e-05
0.000213774
0.0189729
8.94587e-05
0.000104294
5.68977e-05
5.60079e-05
5.27453e-05
5.04285e-05
4.95422e-05
4.97647e-05
4.99787e-05
0.0157619
4.80659e-05
3.2949e-05
2.13859e-05
2.07218e-05
1.98181e-05
1.96277e-05
2.03678e-05
2.15154e-05
2.22775e-05
0.00873166
2.19157e-05
1.35358e-05
9.31949e-06
8.94221e-06
8.57768e-06
8.57718e-06
9.0143e-06
9.57016e-06
9.92706e-06
0.00183186
9.86562e-06
6.16601e-06
4.39649e-06
4.1653e-06
3.97502e-06
3.96671e-06
4.16406e-06
4.40428e-06
4.56714e-06
4.65969e-06
4.60903e-06
3.04988e-06
2.21422e-06
2.06714e-06
1.95643e-06
1.9452e-06
2.03466e-06
2.142e-06
2.22544e-06
2.29709e-06
2.30282e-06
1.64099e-06
1.1968e-06
1.09488e-06
1.0236e-06
1.01082e-06
1.05364e-06
1.10934e-06
1.16447e-06
1.22816e-06
1.26176e-06
1.02404e-06
7.34988e-07
6.53658e-07
5.98538e-07
5.83692e-07
6.02799e-07
6.35789e-07
6.79775e-07
7.41265e-07
7.89879e-07
8.29324e-07
5.71617e-07
4.89933e-07
4.33034e-07
4.06084e-07
4.05043e-07
4.21871e-07
4.59109e-07
5.17675e-07
5.79323e-07
7.106e-07
4.80797e-07
4.02523e-07
3.50823e-07
3.23179e-07
3.14931e-07
3.27684e-07
3.62202e-07
4.2337e-07
4.9439e-07
0.00043497
0.000155642
0.000159944
0.000152923
0.000146037
0.000140626
0.000136921
0.000134828
0.00013431
0.00309799
0.000161932
8.53306e-05
8.38743e-05
7.97206e-05
7.68371e-05
7.57551e-05
7.6074e-05
7.75341e-05
7.98755e-05
0.00692493
5.58841e-05
3.61235e-05
3.5027e-05
3.38125e-05
3.3808e-05
3.51052e-05
3.69372e-05
3.90073e-05
4.1135e-05
0.00643056
2.53318e-05
1.7816e-05
1.71115e-05
1.65568e-05
1.67182e-05
1.75706e-05
1.86216e-05
1.97964e-05
2.10106e-05
0.00191478
1.26409e-05
9.35373e-06
8.87216e-06
8.54455e-06
8.63071e-06
9.08837e-06
9.646e-06
1.03121e-05
1.10453e-05
1.14867e-05
6.82003e-06
5.18768e-06
4.85362e-06
4.64427e-06
4.68947e-06
4.9411e-06
5.25567e-06
5.6706e-06
6.163e-06
6.4557e-06
3.98862e-06
3.06724e-06
2.81602e-06
2.66973e-06
2.69084e-06
2.84508e-06
3.05507e-06
3.36394e-06
3.75553e-06
4.01137e-06
2.74861e-06
2.07473e-06
1.86329e-06
1.73784e-06
1.73895e-06
1.84203e-06
2.00573e-06
2.27216e-06
2.63162e-06
2.89624e-06
2.51692e-06
1.84178e-06
1.59941e-06
1.45126e-06
1.3965e-06
1.43891e-06
1.56681e-06
1.80306e-06
2.1578e-06
2.46496e-06
2.3252e-06
1.68546e-06
1.44984e-06
1.30544e-06
1.24875e-06
1.27488e-06
1.39538e-06
1.6325e-06
2.00098e-06
2.36492e-06
0.000423252
0.000123674
0.000130229
0.000124846
0.000119313
0.000115278
0.000113086
0.000112896
0.000443019
0.00300559
0.000146328
6.34943e-05
6.35463e-05
6.02169e-05
5.73997e-05
5.55237e-05
5.49804e-05
5.6189e-05
0.000470364
0.00290063
4.70317e-05
2.55885e-05
2.50058e-05
2.37278e-05
2.28413e-05
2.24835e-05
2.2891e-05
2.43333e-05
0.000295154
0.00187461
1.95559e-05
1.15948e-05
1.11744e-05
1.0579e-05
1.01817e-05
1.00324e-05
1.02658e-05
1.10474e-05
1.24193e-05
1.55798e-05
8.91408e-06
5.56941e-06
5.28442e-06
4.97131e-06
4.76387e-06
4.67828e-06
4.78967e-06
5.20234e-06
5.95806e-06
7.70775e-06
4.39978e-06
2.83141e-06
2.64159e-06
2.46414e-06
2.34727e-06
2.29857e-06
2.35787e-06
2.59422e-06
3.04484e-06
4.08371e-06
2.36393e-06
1.54388e-06
1.4096e-06
1.29838e-06
1.22912e-06
1.20272e-06
1.24391e-06
1.39781e-06
1.70025e-06
2.3938e-06
1.48984e-06
9.58035e-07
8.53576e-07
7.73983e-07
7.27337e-07
7.13003e-07
7.46423e-07
8.60782e-07
1.09061e-06
1.63196e-06
1.21506e-06
7.48007e-07
6.4588e-07
5.76152e-07
5.3803e-07
5.29246e-07
5.58117e-07
6.46924e-07
8.36095e-07
1.33691e-06
9.59068e-07
5.61764e-07
4.7874e-07
4.22709e-07
3.95651e-07
3.91757e-07
4.20432e-07
4.92732e-07
6.47626e-07
1.15004e-06
0.000433215
0.000115787
0.000122655
0.000117737
0.000112623
0.000108973
0.000107091
0.000107106
1.17825e-05
0.00148952
0.000149396
6.08106e-05
6.11397e-05
5.79443e-05
5.51604e-05
5.31566e-05
5.21892e-05
5.25567e-05
0.000372273
0.00271164
4.87758e-05
2.53002e-05
2.47941e-05
2.34316e-05
2.23388e-05
2.16266e-05
2.15038e-05
2.22355e-05
0.000307588
0.00330931
2.03299e-05
1.16192e-05
1.12252e-05
1.05777e-05
1.00654e-05
9.73336e-06
9.70223e-06
1.01427e-05
0.000133059
0.00219903
9.25768e-06
5.6211e-06
5.34769e-06
5.01045e-06
4.74882e-06
4.57907e-06
4.56665e-06
4.81976e-06
4.09916e-05
0.000774115
4.56015e-06
2.87132e-06
2.6868e-06
2.49593e-06
2.35337e-06
2.26263e-06
2.26144e-06
2.41918e-06
4.32783e-05
0.000278645
2.44562e-06
1.57047e-06
1.43803e-06
1.32089e-06
1.23806e-06
1.18963e-06
1.19761e-06
1.30903e-06
1.57211e-06
0.000542339
1.52988e-06
9.74076e-07
8.70451e-07
7.86962e-07
7.34358e-07
7.08663e-07
7.23535e-07
8.12214e-07
1.01921e-06
0.000397989
1.22704e-06
7.53838e-07
6.53409e-07
5.83433e-07
5.42706e-07
5.30625e-07
5.53113e-07
6.30284e-07
8.03299e-07
1.23826e-06
9.62596e-07
5.62974e-07
4.82847e-07
4.25912e-07
3.9769e-07
3.94008e-07
4.19224e-07
4.87357e-07
6.36751e-07
1.07583e-06
0.000437778
0.000106865
0.000113891
0.000109483
0.000104766
0.000101372
9.95674e-05
9.94202e-05
2.39753e-05
0.00062479
0.000149913
5.72005e-05
5.77799e-05
5.48065e-05
5.22097e-05
5.0326e-05
4.92621e-05
4.90966e-05
0.000238948
0.00141753
4.98079e-05
2.44682e-05
2.40719e-05
2.27442e-05
2.1641e-05
2.08365e-05
2.04306e-05
2.05591e-05
0.000169641
0.00173407
2.08186e-05
1.13771e-05
1.10314e-05
1.03928e-05
9.86694e-06
9.47767e-06
9.29216e-06
9.40632e-06
1.73072e-05
0.00108133
9.47329e-06
5.54339e-06
5.29187e-06
4.95967e-06
4.69216e-06
4.49543e-06
4.40944e-06
4.49851e-06
0.000182564
9.52407e-05
4.65875e-06
2.8456e-06
2.67133e-06
2.4838e-06
2.33818e-06
2.23569e-06
2.19693e-06
2.26679e-06
0.000321312
0.000906762
2.49191e-06
1.56164e-06
1.43495e-06
1.32008e-06
1.23517e-06
1.18034e-06
1.16897e-06
1.23022e-06
7.66688e-05
0.00142122
1.5489e-06
9.67236e-07
8.68131e-07
7.86307e-07
7.32648e-07
7.03971e-07
7.08351e-07
7.67109e-07
0.000153683
0.00179718
1.22449e-06
7.41393e-07
6.46413e-07
5.77379e-07
5.36842e-07
5.2362e-07
5.42131e-07
6.05347e-07
7.46278e-07
0.00140271
9.56429e-07
5.52307e-07
4.7585e-07
4.21523e-07
3.92635e-07
3.8656e-07
4.0869e-07
4.71287e-07
6.02127e-07
0.00199968
0.000436218
9.70447e-05
0.000104045
0.000100161
9.58374e-05
9.26548e-05
9.08573e-05
9.04936e-05
9.15271e-05
6.50804e-05
0.000147701
5.28723e-05
5.3647e-05
5.09267e-05
4.85286e-05
4.67877e-05
4.57477e-05
4.54077e-05
3.05462e-05
0.000455416
4.98725e-05
2.31714e-05
2.28922e-05
2.16449e-05
2.05976e-05
1.98083e-05
1.93105e-05
1.91403e-05
9.86788e-06
0.000690479
2.09423e-05
1.0913e-05
1.06256e-05
1.00189e-05
9.51351e-06
9.12459e-06
8.87926e-06
8.80956e-06
0.000175452
0.000243937
9.53674e-06
5.36035e-06
5.13938e-06
4.82184e-06
4.56424e-06
4.36695e-06
4.25029e-06
4.23715e-06
0.000345436
0.000455958
4.68677e-06
2.76634e-06
2.60843e-06
2.42916e-06
2.28831e-06
2.18543e-06
2.13011e-06
2.14371e-06
0.000580398
0.00133052
2.5045e-06
1.52426e-06
1.40768e-06
1.29629e-06
1.21436e-06
1.16017e-06
1.13804e-06
1.16565e-06
0.000441273
0.00187932
1.54762e-06
9.45307e-07
8.51871e-07
7.73291e-07
7.20513e-07
6.91499e-07
6.90258e-07
7.27925e-07
0.000703404
0.00252675
1.20806e-06
7.18812e-07
6.30486e-07
5.63446e-07
5.25097e-07
5.09913e-07
5.23998e-07
5.76548e-07
0.00024588
0.00256632
9.42128e-07
5.3285e-07
4.62356e-07
4.09811e-07
3.81259e-07
3.74896e-07
3.93136e-07
4.47325e-07
0.000642567
0.00316321
0.000428136
8.65848e-05
9.33918e-05
9.00507e-05
8.61336e-05
8.31719e-05
8.14043e-05
8.08726e-05
8.15248e-05
7.1939e-05
0.000142842
4.79964e-05
4.89055e-05
4.64583e-05
4.42688e-05
4.26591e-05
4.16532e-05
4.12464e-05
4.59124e-05
5.01303e-05
4.88224e-05
2.1476e-05
2.13095e-05
2.0164e-05
1.91935e-05
1.84542e-05
1.79505e-05
1.76832e-05
7.69318e-05
0.000166346
2.06289e-05
1.02486e-05
1.00218e-05
9.45953e-06
8.98729e-06
8.61943e-06
8.36333e-06
8.22204e-06
0.0002559
0.00017774
9.42035e-06
5.08149e-06
4.89301e-06
4.59726e-06
4.35428e-06
4.16804e-06
4.04231e-06
3.98552e-06
0.000423582
0.000699349
4.63507e-06
2.64112e-06
2.5009e-06
2.33173e-06
2.19938e-06
2.1009e-06
2.04178e-06
2.02603e-06
0.000723548
0.00144648
2.47592e-06
1.46334e-06
1.35611e-06
1.25165e-06
1.17373e-06
1.12119e-06
1.09694e-06
1.10512e-06
0.00064618
0.00192807
1.52507e-06
9.07863e-07
8.22155e-07
7.47655e-07
6.97674e-07
6.69252e-07
6.64964e-07
6.90487e-07
0.00102205
0.0026706
1.17759e-06
6.87403e-07
6.05373e-07
5.42996e-07
5.04764e-07
4.89762e-07
5.00839e-07
5.43696e-07
0.000648875
0.00282442
9.17188e-07
5.06866e-07
4.42836e-07
3.93224e-07
3.66138e-07
3.57906e-07
3.73039e-07
4.18486e-07
0.00100571
0.00333502
0.000414443
7.59456e-05
8.24043e-05
7.95772e-05
7.60672e-05
7.33386e-05
7.16386e-05
7.09985e-05
7.13662e-05
7.55691e-05
0.000135582
4.27599e-05
4.3747e-05
4.15869e-05
3.96159e-05
3.8139e-05
3.71813e-05
3.67401e-05
4.12775e-05
6.06162e-05
4.6708e-05
1.94758e-05
1.94041e-05
1.83757e-05
1.74913e-05
1.68092e-05
1.63278e-05
1.60422e-05
8.22784e-05
3.93623e-05
1.98709e-05
9.41589e-06
9.24722e-06
8.73716e-06
8.30411e-06
7.9644e-06
7.71482e-06
7.55563e-06
0.000236565
0.000303297
9.11461e-06
4.71603e-06
4.56168e-06
4.2911e-06
4.06749e-06
3.89389e-06
3.77099e-06
3.69723e-06
0.00038419
0.000690005
4.49566e-06
2.47006e-06
2.35008e-06
2.1947e-06
2.07146e-06
1.97939e-06
1.91976e-06
1.89299e-06
0.00071415
0.00132463
2.40503e-06
1.37726e-06
1.28323e-06
1.18557e-06
1.11344e-06
1.06322e-06
1.03716e-06
1.03661e-06
0.000661922
0.00171115
1.47679e-06
8.56821e-07
7.79728e-07
7.10746e-07
6.63319e-07
6.3643e-07
6.29996e-07
6.4652e-07
0.00111048
0.00245971
1.13264e-06
6.46008e-07
5.72774e-07
5.14787e-07
4.7852e-07
4.63373e-07
4.70371e-07
5.04364e-07
0.000765042
0.00251012
8.82614e-07
4.75576e-07
4.17541e-07
3.72314e-07
3.45645e-07
3.37534e-07
3.48875e-07
3.85419e-07
0.00111889
0.00299253
0.000393098
6.49217e-05
7.10698e-05
6.88394e-05
6.58063e-05
6.33855e-05
6.18376e-05
6.11861e-05
6.1398e-05
6.46845e-05
0.00012617
3.7326e-05
3.83439e-05
3.6483e-05
3.47397e-05
3.34124e-05
3.25269e-05
3.20777e-05
3.1925e-05
5.07565e-05
4.36769e-05
1.72701e-05
1.72757e-05
1.63721e-05
1.55823e-05
1.4962e-05
1.45132e-05
1.423e-05
5.42285e-05
8.01722e-05
1.87068e-05
8.45513e-06
8.33976e-06
7.88701e-06
7.49832e-06
7.18697e-06
6.95327e-06
6.79384e-06
0.000170983
0.000274403
8.6258e-06
4.2806e-06
4.15909e-06
3.91784e-06
3.71421e-06
3.55523e-06
3.43748e-06
3.36116e-06
0.000285947
0.000546757
4.26956e-06
2.26207e-06
2.16031e-06
2.02142e-06
1.90896e-06
1.82433e-06
1.76605e-06
8.53149e-05
0.000608876
0.00106463
2.2903e-06
1.2695e-06
1.18788e-06
1.10056e-06
1.03359e-06
9.87755e-07
9.61599e-07
9.55181e-07
0.00054122
0.00132783
1.40534e-06
7.92748e-07
7.25476e-07
6.62319e-07
6.18817e-07
5.92517e-07
5.85334e-07
0.000139361
0.00103236
0.00203154
1.07165e-06
5.97252e-07
5.32633e-07
4.79168e-07
4.45871e-07
4.30559e-07
4.343e-07
4.61067e-07
0.000708137
0.00196692
8.36547e-07
4.37278e-07
3.86883e-07
3.45626e-07
3.21345e-07
3.12101e-07
3.20599e-07
9.89174e-05
0.00106243
0.00242769
0.000371601
5.4287e-05
6.00404e-05
5.83134e-05
5.56043e-05
5.33821e-05
5.19368e-05
5.12484e-05
5.11698e-05
5.31541e-05
0.000115029
3.18869e-05
3.28876e-05
3.13171e-05
2.97947e-05
2.86179e-05
2.78171e-05
2.73864e-05
2.72036e-05
2.5631e-05
3.99074e-05
1.49614e-05
1.50227e-05
1.42469e-05
1.35552e-05
1.30023e-05
1.25954e-05
1.23241e-05
2.45581e-05
6.22014e-05
1.71971e-05
7.41295e-06
7.34124e-06
6.95053e-06
6.60857e-06
6.32932e-06
6.11452e-06
5.96091e-06
9.92205e-05
0.000195534
7.97544e-06
3.79312e-06
3.70187e-06
3.49027e-06
3.31159e-06
3.16736e-06
3.05751e-06
2.981e-06
0.000184954
0.000379746
3.96473e-06
2.02205e-06
1.94105e-06
1.81794e-06
1.71827e-06
1.64093e-06
1.58628e-06
0.000138308
0.000482015
0.000789011
2.13271e-06
1.14393e-06
1.0755e-06
9.97798e-07
9.38026e-07
8.95494e-07
8.69806e-07
8.60539e-07
0.000373224
0.000919027
1.30886e-06
7.18148e-07
6.59364e-07
6.03859e-07
5.64511e-07
5.40298e-07
5.30556e-07
0.000283268
0.000886361
0.001559
9.95377e-07
5.40862e-07
4.84959e-07
4.3774e-07
4.06721e-07
3.92011e-07
3.93566e-07
4.1251e-07
0.000559933
0.00141042
7.79946e-07
3.94648e-07
3.51186e-07
3.14693e-07
2.92833e-07
2.83705e-07
2.88992e-07
0.000222899
0.000913043
0.00183508
0.000347072
4.51177e-05
5.12058e-05
5.06953e-05
4.86519e-05
4.67106e-05
4.54832e-05
4.51601e-05
4.57883e-05
4.86768e-05
0.000102043
2.65074e-05
2.75445e-05
2.63428e-05
2.50991e-05
2.41128e-05
2.34245e-05
2.30272e-05
2.2781e-05
2.11182e-05
3.55319e-05
1.26196e-05
1.27258e-05
1.20866e-05
1.1502e-05
1.10291e-05
1.06741e-05
1.04283e-05
1.0218e-05
3.53749e-05
1.54102e-05
6.33141e-06
6.2956e-06
5.96817e-06
5.67376e-06
5.43143e-06
5.24088e-06
5.09754e-06
3.72945e-05
0.000115344
7.18873e-06
3.27532e-06
3.20984e-06
3.0313e-06
2.87585e-06
2.74922e-06
2.64982e-06
2.57617e-06
0.000103461
0.000239265
3.59181e-06
1.7622e-06
1.69878e-06
1.59432e-06
1.5068e-06
1.43835e-06
1.38763e-06
0.000149007
0.000368274
0.000561319
1.93969e-06
1.00514e-06
9.49383e-07
8.81987e-07
8.30004e-07
7.91643e-07
7.67173e-07
7.55589e-07
0.000208992
0.000573435
1.19195e-06
6.34637e-07
5.86042e-07
5.3738e-07
5.0217e-07
4.80368e-07
4.08095e-06
0.000339934
0.000733527
0.00115386
9.04698e-07
4.79149e-07
4.31317e-07
3.90251e-07
3.63222e-07
3.48925e-07
3.48343e-07
3.61937e-07
0.000376195
0.000923988
7.11749e-07
3.48471e-07
3.12154e-07
2.79885e-07
2.60189e-07
2.51832e-07
2.54998e-07
0.000257862
0.000729942
0.00131512
0.000278509
1.94954e-05
2.49661e-05
2.63281e-05
2.56275e-05
2.38916e-05
2.2004e-05
2.04962e-05
1.94335e-05
1.93556e-05
9.08959e-05
2.16085e-05
2.22156e-05
2.10813e-05
1.99123e-05
1.89542e-05
1.83016e-05
1.8004e-05
1.80008e-05
1.70155e-05
3.09506e-05
1.03971e-05
1.04953e-05
9.96239e-06
9.45656e-06
9.04094e-06
8.71914e-06
8.49254e-06
8.29335e-06
1.80781e-05
1.34357e-05
5.25917e-06
5.24782e-06
4.97933e-06
4.73254e-06
4.52574e-06
4.35814e-06
4.22927e-06
4.10969e-06
5.01839e-05
6.30265e-06
2.74745e-06
2.70456e-06
2.55709e-06
2.42661e-06
2.31789e-06
2.22989e-06
2.16341e-06
4.77775e-05
0.000137142
3.16502e-06
1.49169e-06
1.44559e-06
1.35798e-06
1.2839e-06
1.22556e-06
4.91774e-06
0.000141979
0.000278143
0.000391661
1.71627e-06
8.58189e-07
8.14541e-07
7.58322e-07
7.13602e-07
6.80085e-07
6.57246e-07
6.45131e-07
6.78518e-05
0.000309077
1.05683e-06
5.45359e-07
5.06159e-07
4.65089e-07
4.35232e-07
4.15108e-07
0.000133569
0.000352116
0.000601242
0.000845258
8.02415e-07
4.12149e-07
3.74253e-07
3.38934e-07
3.15282e-07
3.02401e-07
3.00366e-07
3.0942e-07
0.000193456
0.00053491
6.35841e-07
2.98386e-07
2.6909e-07
2.42993e-07
2.25539e-07
2.17821e-07
2.19088e-07
0.0002445
0.000552856
0.000904878
0.000594102
7.52456e-05
8.00849e-05
8.22112e-05
8.45755e-05
8.50262e-05
8.2958e-05
7.8919e-05
7.38031e-05
6.88266e-05
6.55777e-05
1.58676e-05
1.76113e-05
1.78339e-05
1.77023e-05
1.73009e-05
1.67066e-05
1.60227e-05
1.52837e-05
1.33702e-05
2.55773e-05
8.12185e-06
8.28814e-06
7.96256e-06
7.64712e-06
7.3687e-06
7.13649e-06
6.95266e-06
1.8898e-05
1.46211e-05
1.13356e-05
4.21373e-06
4.22082e-06
4.01659e-06
3.82722e-06
3.66439e-06
3.53027e-06
3.42095e-06
3.31218e-06
2.90565e-06
5.35235e-06
2.22987e-06
2.20364e-06
2.0873e-06
1.98152e-06
1.89308e-06
1.81958e-06
1.76027e-06
1.76901e-05
7.23673e-05
2.70342e-06
1.22329e-06
1.18927e-06
1.1199e-06
1.05986e-06
1.00961e-06
5.14887e-05
0.000130695
0.000212901
0.000273597
1.47269e-06
7.0999e-07
6.7671e-07
6.3098e-07
5.93543e-07
5.65735e-07
5.45797e-07
5.33198e-07
5.27025e-07
0.000118386
1.49641e-05
4.5447e-07
4.23601e-07
3.89832e-07
3.65149e-07
8.66271e-05
0.000216977
0.000347074
0.000500307
0.00062717
6.91253e-07
3.45281e-07
3.14373e-07
2.85826e-07
2.66163e-07
2.54484e-07
2.51724e-07
2.56913e-07
3.19116e-05
0.000242002
5.52145e-07
2.48548e-07
2.25545e-07
2.03385e-07
1.89943e-07
1.82466e-07
1.90439e-05
0.00021067
0.00040284
0.000604351
0.000859015
0.000169062
0.000199602
0.000207169
0.000195546
0.000171822
0.000142414
0.000111376
8.04176e-05
4.88888e-05
9.32213e-05
1.73192e-05
1.35562e-05
1.07425e-05
9.56942e-06
9.37137e-06
9.60185e-06
9.87398e-06
9.72801e-06
7.95886e-06
8.85626e-05
1.1888e-05
1.91502e-05
1.87457e-05
2.04791e-05
2.42788e-05
2.97727e-05
3.06251e-05
4.05687e-05
2.21266e-05
9.21821e-06
3.27858e-06
3.28544e-06
3.11512e-06
2.95507e-06
2.82078e-06
2.70982e-06
2.62017e-06
2.53209e-06
2.16763e-06
4.37715e-06
1.74423e-06
1.72879e-06
1.63874e-06
1.55634e-06
1.48531e-06
1.42542e-06
1.37546e-06
9.38754e-06
3.88643e-05
1.77652e-05
9.65343e-07
9.42849e-07
8.88545e-07
8.40962e-07
3.14687e-05
7.88794e-05
0.000120928
0.000169095
0.000196381
1.21877e-06
5.65088e-07
5.41485e-07
5.05716e-07
4.76533e-07
4.53463e-07
4.36071e-07
4.25206e-07
4.17555e-07
4.00998e-07
7.82274e-05
0.000136479
0.000111723
0.000117775
0.000148229
0.000198713
0.000272397
0.000340856
0.00043288
0.000484373
5.74829e-07
2.78588e-07
2.54824e-07
2.31866e-07
2.15927e-07
2.06472e-07
2.02923e-07
2.06279e-07
2.16217e-07
3.15419e-05
4.64352e-07
1.99264e-07
1.81813e-07
1.64909e-07
1.53359e-07
1.47577e-07
5.61218e-05
0.000170345
0.000284624
0.000394275
0.00465564
0.000832724
0.000818963
0.000690944
0.000553242
0.000428068
0.000320449
0.000228719
0.000147725
7.05964e-05
6.19892e-05
1.37785e-06
3.37177e-06
4.17425e-06
4.17732e-06
4.60453e-06
5.93301e-06
8.60023e-06
1.33747e-05
2.0159e-05
0.000262798
0.000178413
0.000123562
9.58093e-05
7.971e-05
7.19824e-05
6.89526e-05
6.3171e-05
6.80411e-05
3.76436e-05
7.19884e-06
2.42017e-06
2.43837e-06
2.32546e-06
2.21351e-06
2.10993e-06
2.01793e-06
1.93597e-06
1.84837e-06
1.56715e-06
3.42666e-06
1.30238e-06
1.29665e-06
1.23097e-06
1.1696e-06
1.1156e-06
1.068e-06
1.77125e-06
1.64789e-05
2.83312e-05
8.74891e-05
5.95789e-05
4.34578e-05
4.24066e-05
5.28863e-05
7.02006e-05
9.29139e-05
0.000112859
0.000140201
0.00014799
9.65335e-07
4.30134e-07
4.14131e-07
3.87056e-07
3.64729e-07
3.47113e-07
3.33292e-07
3.23631e-07
3.15584e-07
2.98436e-07
4.7304e-06
0.000239168
0.000260483
0.000257291
0.00026112
0.000278908
0.000314637
0.000343487
0.000397895
0.000401971
4.58162e-07
2.15176e-07
1.97883e-07
1.80426e-07
1.67617e-07
1.60883e-07
1.56969e-07
1.58454e-07
1.64318e-07
1.81447e-07
3.74839e-07
1.52797e-07
1.39942e-07
1.27212e-07
1.18688e-07
1.13807e-07
6.23414e-05
0.000124148
0.000189495
0.000245826
0.0184141
0.00150757
0.00136622
0.00103315
0.000742067
0.000513202
0.00033553
0.000193262
7.01091e-05
4.90655e-05
0.00024049
7.23179e-05
5.81302e-05
4.65564e-05
3.55599e-05
2.46989e-05
1.33183e-05
2.30054e-07
1.6574e-05
3.85505e-05
0.000437372
0.000335354
0.000212198
0.000158055
0.000128058
0.000112993
0.000105441
9.71962e-05
0.000100003
6.17435e-05
5.14022e-06
1.686e-06
1.71087e-06
1.63872e-06
1.56723e-06
1.50739e-06
1.45485e-06
1.40652e-06
1.33903e-06
1.02095e-06
2.57639e-05
9.16819e-07
9.14935e-07
8.70655e-07
5.36137e-06
1.14558e-05
1.80889e-05
2.31483e-05
2.93372e-05
3.02612e-05
0.000106486
0.000101609
8.79681e-05
8.03007e-05
7.97827e-05
8.45335e-05
9.35407e-05
0.000101645
0.00011666
0.000115152
7.23816e-07
3.09056e-07
2.98439e-07
2.79967e-07
2.63982e-07
2.51116e-07
2.4096e-07
2.32252e-07
2.25879e-07
2.09426e-07
0.0002029
0.000260957
0.000350494
0.000352876
0.000343762
0.000342224
0.000354011
0.000360002
0.000391957
0.000367353
3.45901e-07
1.56841e-07
1.45115e-07
1.32539e-07
1.23462e-07
1.17481e-07
1.15041e-07
1.15571e-07
1.18331e-07
1.28516e-07
2.87672e-07
1.10656e-07
1.01594e-07
9.30823e-08
8.65641e-08
8.31644e-08
3.68866e-05
6.62197e-05
0.000103565
0.00013007
0.0359477
0.00135689
0.00118349
0.000854466
0.00057328
0.000358064
0.000194926
6.47096e-05
5.17717e-05
0.000170343
0.000222967
0.00015323
0.000108516
7.32117e-05
4.48564e-05
2.06142e-05
2.09298e-06
2.59562e-05
5.40963e-05
8.57109e-05
0.000608054
0.000489717
0.000283664
0.000201087
0.000158989
0.000138596
0.000127855
0.000117683
0.000115601
7.23069e-05
3.68046e-06
1.03947e-06
1.06798e-06
1.0308e-06
9.92647e-07
9.6494e-07
9.51241e-07
9.54876e-07
9.70631e-07
9.6489e-07
8.46765e-05
5.76298e-05
4.22803e-05
3.55792e-05
3.27379e-05
3.22301e-05
3.30052e-05
3.34718e-05
3.56572e-05
3.2138e-05
9.20836e-05
9.47829e-05
8.60389e-05
7.85141e-05
7.48457e-05
7.45242e-05
7.6988e-05
7.96412e-05
8.74649e-05
8.40589e-05
5.04494e-07
2.06262e-07
1.99846e-07
1.87521e-07
1.76796e-07
1.67829e-07
1.60891e-07
1.55251e-07
1.49405e-07
1.35662e-07
0.000500465
0.000214802
0.000388205
0.000407061
0.000395316
0.000384463
0.000382528
0.000377719
0.000396279
0.000358332
2.4353e-07
1.06739e-07
9.81451e-08
9.06533e-08
8.40818e-08
8.02322e-08
7.84953e-08
7.83528e-08
7.98693e-08
8.46119e-08
2.05541e-07
7.39383e-08
6.86985e-08
6.21994e-08
5.83498e-08
5.61161e-08
5.532e-08
8.36718e-06
3.21258e-05
4.10177e-05
0.0301652
0.000746512
0.000509542
0.000266096
0.000102731
2.83536e-07
6.97837e-05
0.000126311
0.000185218
0.000255824
0.000190389
0.000128385
9.21889e-05
5.88023e-05
2.99937e-05
5.48314e-06
1.66752e-05
3.89902e-05
6.39789e-05
8.85365e-05
0.000671775
0.000586422
0.000303694
0.000201086
0.000154409
0.000134928
0.000127172
0.000122417
0.000122469
8.76266e-05
2.09535e-06
6.46444e-07
6.34581e-07
5.67812e-07
4.88461e-07
4.01976e-07
3.10884e-07
2.18788e-07
1.16264e-07
1.26562e-07
7.44373e-05
5.67898e-05
4.12033e-05
3.38657e-05
2.98867e-05
2.78769e-05
2.6994e-05
2.63797e-05
2.71107e-05
2.4292e-05
5.60219e-05
5.69701e-05
5.2925e-05
4.86569e-05
4.59566e-05
4.47621e-05
4.48645e-05
4.53799e-05
4.87393e-05
4.72326e-05
3.15697e-07
1.22958e-07
1.1929e-07
1.11765e-07
1.06213e-07
1.00086e-07
9.58447e-08
9.24722e-08
8.80246e-08
7.81328e-08
0.000746987
0.000107752
0.000339639
0.000376585
0.000370104
0.000358394
0.000350862
0.00034304
0.00035215
0.000317617
1.54116e-07
6.41638e-08
6.02357e-08
5.4476e-08
5.15841e-08
4.90296e-08
4.74029e-08
4.77403e-08
4.768e-08
5.01311e-08
2.07511e-06
1.30354e-06
4.06471e-08
3.68254e-08
3.51355e-08
4.20184e-06
1.24234e-05
1.4065e-05
3.13505e-05
2.7147e-05
0.0105772
6.66623e-05
9.68307e-05
8.11099e-05
4.6526e-05
3.03406e-05
3.40227e-05
5.09982e-05
9.41966e-05
0.000144827
0.00015954
4.96097e-05
1.60596e-05
7.70193e-06
2.10754e-05
2.8691e-05
3.40384e-05
3.91487e-05
4.47649e-05
4.6335e-05
0.000341
0.000427383
0.000180663
0.000102553
6.96516e-05
5.65152e-05
5.08444e-05
4.69365e-05
4.3338e-05
2.93457e-05
1.11781e-06
2.66747e-07
3.60825e-07
4.1424e-07
4.49973e-07
4.79957e-07
5.01232e-07
5.15854e-07
5.15546e-07
4.56902e-07
3.01846e-05
2.42641e-05
1.70808e-05
1.368e-05
1.17596e-05
1.06538e-05
9.99821e-06
9.51902e-06
9.50548e-06
8.65879e-06
1.8543e-05
1.73541e-05
1.63191e-05
1.50955e-05
1.41882e-05
1.3605e-05
1.33012e-05
1.31185e-05
1.37284e-05
1.35722e-05
1.63929e-07
5.96514e-08
5.80085e-08
5.44215e-08
5.10946e-08
4.91094e-08
4.65766e-08
4.42628e-08
4.26473e-08
3.58188e-08
0.000529601
8.83517e-06
0.000178514
0.000210858
0.000210746
0.000204381
0.000198213
0.000191804
0.000191944
0.000173565
8.05599e-08
3.19808e-08
2.97069e-08
2.75449e-08
2.55398e-08
2.39492e-08
2.37364e-08
2.33331e-08
2.3714e-08
2.44185e-08
0.000236526
0.000275543
0.000229286
0.00019491
0.000173534
0.000161507
0.000155614
0.000149303
0.000155806
0.000139881
0.0341519
0.000581521
0.000444499
0.000339817
0.000253037
0.000180867
0.000121239
7.21925e-05
3.18848e-05
5.92295e-06
8.35329e-05
0.000173439
0.000120839
8.02538e-05
5.24885e-05
3.38011e-05
2.06379e-05
1.00915e-05
5.53554e-07
1.41336e-05
0.000115335
6.41134e-05
2.89677e-06
9.63908e-06
1.42606e-05
1.58999e-05
1.71045e-05
1.91149e-05
2.31614e-05
2.77326e-05
3.87467e-07
5.88969e-08
4.41965e-09
5.26158e-08
9.27268e-08
1.31578e-07
1.702e-07
2.07476e-07
2.35635e-07
2.58679e-07
1.31999e-06
1.5116e-06
7.63104e-07
4.23796e-07
2.17691e-07
7.15108e-08
6.5718e-08
2.3232e-07
5.10133e-07
1.00757e-06
8.52309e-07
5.72126e-07
5.48872e-07
4.80158e-07
4.06475e-07
3.30286e-07
2.44589e-07
1.30843e-07
5.64007e-08
4.45808e-07
5.15101e-08
1.93841e-08
1.88241e-08
1.75513e-08
1.71313e-08
1.58204e-08
1.50695e-08
1.45094e-08
1.35167e-08
1.09203e-08
3.79759e-05
1.13398e-05
1.53681e-05
2.09978e-05
2.14076e-05
2.04341e-05
1.89796e-05
1.6909e-05
1.40071e-05
7.97398e-06
2.60946e-08
1.07155e-08
9.94487e-09
8.93477e-09
8.38285e-09
8.13293e-09
7.97673e-09
8.32037e-09
7.75804e-09
7.82052e-09
0.000409405
0.000308488
0.000244952
0.000205332
0.000181998
0.000168125
0.000158907
0.000150689
0.000143087
0.000124474
0.853057
0.637782
0.77574
1.31364
0.992633
0.872472
1.00976
1.5022
1.04874
0.957424
1.11977
1.71033
0.688903
0.652623
0.768971
1.20576
0.422954
0.418047
0.500718
0.820408
0.208869
0.207133
0.252051
0.438737
0.0765274
0.075891
0.0904029
0.172554
0.000482412
0.00262603
0.0119221
0.0135532
0.011066
0.00868417
0.0354135
0.0684633
0.000605713
0.000457964
0.0237752
0.0579375
0.0724289
0.00316753
0.00025751
0.0318229
0.124887
0.00975874
0.00020942
0.0582767
0.175977
0.0189852
0.000126605
0.085214
0.143429
0.019169
7.41007e-05
0.0669675
0.102076
0.0157153
4.43542e-05
0.0459051
0.0522478
0.00904672
2.75395e-05
0.0255324
0.0121167
0.00264362
1.86557e-05
0.0097064
0.0167088
0.00237177
1.47018e-05
0.00418128
0.0261476
0.00471441
0.000636682
0.0108715
0.0246247
0.00646465
0.0028908
0.0121724
0.0394195
0.0284076
0.0276584
0.0363827
0.064584
0.0419837
0.0392423
0.0589674
0.09628
0.0606919
0.0598891
0.0950393
0.0789503
0.0472241
0.0484862
0.0807667
0.0548587
0.0318439
0.0345755
0.062029
0.0236325
0.0143425
0.0171608
0.0340325
0.00290381
0.000750915
0.00293392
0.00923192
0.0229483
0.00879168
0.00786501
0.011922
0.0311846
0.0119666
0.0123698
0.0225687
0.0311571
0.0118705
0.0135177
0.0253463
0.00457218
0.00306715
0.00268798
0.00371532
0.0104118
0.00662769
0.00573625
0.00898044
0.0201952
0.0132638
0.0122813
0.0190924
0.0195525
0.0128427
0.0126341
0.0193006
0.014664
0.00986258
0.0106383
0.0167418
0.00458848
0.00398571
0.00528364
0.00929005
0.00631403
0.00201146
0.00068099
0.000839959
0.0163836
0.00733186
0.00646181
0.00792839
0.0217751
0.00960011
0.00967075
0.0134459
0.022744
0.0102045
0.011591
0.0162026
0.00128833
0.00122041
0.00115944
0.00149958
0.00373004
0.00321906
0.00336555
0.00462263
0.00699882
0.00644711
0.0070393
0.00964149
0.00640549
0.00590219
0.00648121
0.00892879
0.00425742
0.00421024
0.0050048
0.00727439
0.000352105
0.000774876
0.00175584
0.0032944
0.00573497
0.00289181
0.00182374
0.00112258
0.011319
0.00646565
0.0055496
0.00589614
0.0149745
0.00834591
0.00807191
0.00926793
0.0166186
0.00955435
0.0103902
0.0117739
3.35331e-05
0.000110756
9.0219e-05
0.000181833
0.00103193
0.000952135
0.00105644
0.00149515
0.00239615
0.00245838
0.00295973
0.00408176
0.00197039
0.00221173
0.00275776
0.00384197
0.000857688
0.00135877
0.0020034
0.00305204
0.0014583
0.000549352
0.000147886
0.000901414
0.00420013
0.00269441
0.00195899
0.00153943
0.00734232
0.00502782
0.00434314
0.00434486
0.00972989
0.00649864
0.00621027
0.00649323
0.0109697
0.00747808
0.00794445
0.0081491
0.000268605
9.0001e-05
9.54398e-05
7.10731e-05
0.000188882
0.000225798
0.000276228
0.000436095
0.000874817
0.000977824
0.00127062
0.00183003
0.000548003
0.000795175
0.00115495
0.00170885
0.000140799
0.000270668
0.00071139
0.0012731
0.00150757
0.000916024
0.000449428
2.23655e-05
0.00303544
0.00223999
0.00176412
0.00149065
0.00492579
0.0038126
0.00336388
0.00330043
0.00641886
0.0049081
0.00469538
0.00470991
0.00717796
0.00561324
0.00584202
0.0057597
0.000271646
9.60395e-05
9.23018e-05
9.4772e-05
7.27278e-05
6.32843e-06
1.11038e-05
5.08417e-05
0.000250221
0.000325538
0.000464554
0.000719595
3.07796e-05
0.000205575
0.00040512
0.00067584
0.000401411
0.000122753
0.00014157
0.000437996
0.00128084
0.000894002
0.000600614
0.000361804
0.00219392
0.00173445
0.00143657
0.00126699
0.00342441
0.00283289
0.00254807
0.00249319
0.00419034
0.00350169
0.00335164
0.00330678
0.0047084
0.00407657
0.00417574
0.00406459
0.000229047
7.8787e-05
7.56433e-05
7.80524e-05
0.000105457
3.57924e-05
3.07449e-05
3.23712e-05
2.99105e-05
7.9589e-05
0.000137048
0.000246913
0.0001258
8.8646e-06
9.5072e-05
0.000219811
0.000399691
0.000220137
7.08243e-05
7.76487e-05
0.000991613
0.000737462
0.000558434
0.000432933
0.00154555
0.00126991
0.00108622
0.000988089
0.00239891
0.00205747
0.00187535
0.00184433
0.00269379
0.00238295
0.00227606
0.00223625
0.00312116
0.00289602
0.00292937
0.0028442
0.000178147
5.76238e-05
5.5488e-05
5.77658e-05
6.76883e-05
2.27309e-05
2.2067e-05
2.44048e-05
2.8144e-05
3.28889e-06
1.99149e-05
6.03315e-05
0.000139774
6.27016e-05
1.13776e-05
4.08465e-05
0.000312205
0.000199199
0.00011897
5.01377e-05
0.00071939
0.000551677
0.000445187
0.000385498
0.00103386
0.000871106
0.000761289
0.000707504
0.00165099
0.00144276
0.00132668
0.0013171
0.00171793
0.00157117
0.00149677
0.00147127
0.00207563
0.00200824
0.00201255
0.00195484
0.000178631
5.80843e-05
5.46386e-05
5.57518e-05
4.99515e-05
1.73582e-05
1.68947e-05
1.87926e-05
2.7604e-05
7.81326e-06
7.53916e-06
6.17869e-07
0.000106565
5.5995e-05
3.19522e-05
1.33668e-05
0.000214221
0.00014339
0.000102174
7.36725e-05
0.000504203
0.000390336
0.00032745
0.000303625
0.000658166
0.00056427
0.000500678
0.00047119
0.0011258
0.000988705
0.000914948
0.000920148
0.00107414
0.000998655
0.000948601
0.000932968
0.00137077
0.00135642
0.00135228
0.00131321
3.63105e-05
1.53428e-05
1.82066e-05
2.28542e-05
3.69665e-05
1.22701e-05
1.19442e-05
1.32411e-05
1.54455e-05
5.68078e-06
5.50625e-06
6.22421e-06
6.57021e-05
3.34969e-05
2.30804e-05
1.84545e-05
0.000131333
8.74476e-05
6.76796e-05
5.85572e-05
0.00034522
0.000265477
0.000228344
0.000223228
0.000392096
0.000341596
0.000306463
0.000288804
0.000767886
0.000669657
0.000622768
0.000637308
0.000637747
0.000596366
0.000564226
0.000553772
0.000890344
0.000890035
0.000886591
0.000858577
0.000239177
5.09983e-05
4.0557e-05
3.3669e-05
3.31299e-05
1.21707e-05
1.23556e-05
1.43709e-05
1.20117e-05
4.21632e-06
4.03613e-06
4.51679e-06