/*--------------------------------*- C++ -*----------------------------------*\
| =========                 |                                                 |
| \\      /  F ield         | foam-extend: Open Source CFD                    |
|  \\    /   O peration     | Version:     4.0                                |
|   \\  /    A nd           | Web:         http://www.foam-extend.org         |
|    \\/     M anipulation  |                                                 |
\*---------------------------------------------------------------------------*/
FoamFile
{
    version     2.0;
    format      ascii;
    class       volScalarField;
    location    "1700";
    object      epsilon;
}
// * * * * * * * * * * * * * * * * * * * * * * * * * * * * * * * * * * * * * //

dimensions      [0 2 -3 0 0 0 0];

internalField   nonuniform List<scalar> 
34480
(
4930.61
4928.59
4928.48
4929.98
4933.17
4938.32
4950.93
5004.6
5194.5
5725.87
655.368
602.057
601.145
653.125
838.692
1576.12
5100.22
22853.7
103725
382428
618.89
523.231
509.591
569.232
810.049
1829.3
7042.27
35121.5
172542
699242
524.917
439.53
427.511
485.225
733.975
1883.66
8219.82
44412.8
232212
1.01091e+06
456.748
384.904
377.493
433.281
685.027
1927.86
9178.45
52590.9
289169
1.33349e+06
392.565
332.922
326.714
378.612
628.575
1956.61
10122
61045.3
350617
1.69855e+06
353.322
302.867
298.495
346.547
591.687
1963.13
10726.4
67199.9
400336
2.0226e+06
321.418
282.189
277.807
317.624
534.376
1820.84
10351.2
66985.6
412648
2.16755e+06
460.116
436.051
433.453
458.877
597.238
1410.41
6841.75
43699.3
276000
1.49855e+06
5708.99
5709.21
5714.65
5726.6
5743.41
5763.47
5787.68
5823.64
5890.05
5958.75
4856
4853.5
4853.02
4854.5
4858.49
4865.48
4876.6
4902.73
4965.39
5185.99
512.045
479.156
473.521
487.648
532.064
648.533
1002.93
2354.98
11804.7
103673
447.147
384.067
370.373
389.78
458.578
645.871
1229.87
3567.71
21362
197670
399.736
338.806
325.36
345.074
416.556
620.334
1294.71
4290.07
30237.1
294769
365.942
311.234
300.715
319.938
390.914
599.107
1322.14
4812.76
38718.3
396496
326.4
279.047
269.259
286.56
352.373
554.344
1294.48
5181.06
47349.7
508546
302.587
260.922
252.763
268.044
329.071
521.669
1256.57
5361.8
54217.3
607787
283.153
250.03
242.368
254.002
301.685
456.827
1074.99
4828.7
54994.2
652008
432.906
411.032
405.937
413.411
443.548
531.828
848.347
2981.13
36402.5
467554
5591.53
5587.21
5587.71
5594.34
5606.01
5620.58
5639.94
5672.96
5740.61
5913.51
4770.85
4768.46
4767.72
4768.53
4771.14
4775.26
4780.07
4790.87
4814.95
4870.02
399.886
386.422
383.757
388.521
403.667
439.057
527.145
758.751
1517.37
5760.67
308.224
276.986
270.155
279.334
309.748
379.374
550.519
1030.39
2860.36
14992.9
290.352
256.535
248.87
259.45
294.615
378.546
597.362
1280.01
4409.95
28924.3
280.931
247.988
241.552
252.516
289.639
380.45
629.204
1481.57
6141.04
47812.9
261.389
231.155
224.677
235.086
270.801
361.801
625.428
1625.89
8151.38
73154.2
250.588
222.588
217.01
226.513
260.624
349.325
617.407
1724.86
10165.9
101598
243.108
220.158
214.756
222.392
249.747
322.309
550.14
1594.77
11044
122898
402.774
386.443
382.698
388.353
408.799
461.738
607.277
1235.78
7681.67
92099.2
5481.88
5474.77
5472.47
5476.04
5484.83
5496.81
5513.31
5544.08
5616.55
5801.93
4674.82
4673.33
4672.91
4673.54
4675.32
4677.59
4678.59
4681.39
4688.8
4704.92
328.462
324.325
323.503
324.603
328.695
339.069
365.099
421.676
541.376
940.73
219.371
206.114
203.267
207.311
220.705
248.999
309.146
445.347
772.389
2086.64
214.499
197.783
193.856
199.38
217.34
256.834
345.628
565.633
1169.74
4142.63
217.623
199.597
196.018
202.222
222.832
269.388
379.634
676.078
1611.34
7156.24
210.752
192.819
188.79
195.187
216.425
266.52
392.213
761.793
2117.8
11600.6
208.542
190.775
187.139
193.298
214.707
266.258
401.207
827.557
2633.65
17124.2
210.012
194.748
191.033
196.333
214.414
258.985
379.917
795.364
2861.02
21851.1
375.738
363.761
360.93
365.127
380.099
417.096
508.864
782.833
2181.29
16545.4
5359.9
5352.81
5350.25
5353.3
5361.56
5373.93
5391.06
5421.92
5488.71
5631.9
4569.41
4568.74
4568.6
4569
4569.96
4570.65
4569.33
4568.2
4568.14
4569.9
285.512
284.758
284.656
284.43
284.433
286.187
293.432
307.416
329.78
376.052
167.943
162.925
161.886
163.306
168.338
178.559
198.343
237.487
308.207
484.412
166.51
158.79
156.834
159.332
167.588
184.822
219.619
294.259
443.201
889.984
173.952
164.652
162.726
165.818
176.269
198.61
246.093
356.517
601.45
1498.21
173.645
163.463
160.977
164.525
176.265
202.499
261.525
410.97
783.883
2435.14
176.119
165.228
162.863
166.493
179.132
207.945
275.435
457.643
966.517
3640.8
183.377
173.507
170.942
174.327
185.659
212.237
276.754
463.668
1058.67
4746.57
351.406
342.809
340.628
343.519
354.069
379.337
438.265
581.629
1009.53
3814.2
5230.24
5223.3
5220.58
5223.16
5230.77
5242.84
5259.49
5287.87
5343.54
5445.87
4455.59
4455.55
4455.63
4455.85
4456.21
4455.86
4453.84
4451.75
4449.97
4448.89
259.803
259.873
259.951
259.437
258.451
258.066
259.964
263.321
268.063
275.346
139.469
137.824
137.557
137.943
139.557
142.798
148.699
159.212
175.218
203.105
137.564
134.188
133.268
134.314
137.864
144.93
157.865
182.388
222.529
303.068
145.072
140.546
139.6
141.029
145.998
156.05
175.357
215.2
286.344
458.1
147.383
141.87
140.421
142.286
148.446
161.477
187.903
247.307
364.037
701.85
151.802
145.409
143.966
145.994
153.124
168.491
200.853
278.341
444.146
1014.09
162.289
156.195
154.522
156.603
163.434
178.699
212.179
297.499
500.421
1320.53
329.525
323.631
322.025
323.978
331.324
348.615
387.12
467.672
640.001
1290.49
5092.29
5085.76
5083.05
5085.25
5092.16
5103.43
5118.92
5143.83
5186.88
5254.13
4334.08
4334.45
4334.69
4334.78
4334.76
4333.78
4331.91
4329.91
4328.09
4326.75
243.804
243.747
243.768
243.298
242.376
241.941
242.303
243.033
244.139
245.949
124.001
123.59
123.599
123.638
124.023
124.869
126.41
128.99
132.513
137.22
120.685
119.253
118.832
119.246
120.718
123.537
128.285
136.273
147.562
163.771
126.684
124.587
124.167
124.78
127.032
131.369
138.982
152.953
174.378
210.578
129.522
126.65
125.842
126.775
129.882
136.139
147.681
170.712
209.27
285.822
134.288
130.665
129.83
130.903
134.777
142.714
157.864
190.058
247.823
381.549
146.184
142.587
141.547
142.775
146.737
155.248
172.377
210.95
286.941
489.879
310.19
306.342
305.183
306.476
311.561
323.56
349.194
396.376
480.006
667.496
4945.83
4939.89
4937.35
4939.21
4945.33
4955.36
4969.1
4990.1
5022.55
5066.38
4205.39
4206.01
4206.34
4206.36
4206.11
4205.03
4203.53
4201.94
4200.5
4199.43
232.919
232.484
232.375
232.028
231.442
231.263
231.279
231.427
231.816
232.81
115.612
115.592
115.672
115.622
115.629
115.74
116.01
116.511
117.2
117.996
111.065
110.464
110.272
110.431
111.036
112.167
113.953
116.662
120.076
123.809
115.304
114.38
114.22
114.464
115.449
117.273
120.262
125.191
131.926
140.374
117.765
116.321
115.889
116.34
117.863
120.812
125.863
134.854
148.23
167.561
122.097
120.107
119.65
120.19
122.24
126.268
133.37
146.782
167.925
202.416
134.24
132.225
131.61
132.31
134.534
139.176
147.961
165.509
195.856
252.167
293.208
290.846
290.015
290.871
294.427
303.006
320.398
349.038
394.137
462.61
4790.69
4785.51
4783.23
4784.79
4790.04
4798.55
4810.23
4827.22
4851.08
4880
4069.85
4070.61
4070.99
4070.97
4070.59
4069.71
4068.61
4067.45
4066.42
4065.63
224.512
223.707
223.467
223.236
222.994
222.942
222.921
222.983
223.268
224.162
111.014
111.079
111.155
111.099
111.024
110.949
110.896
110.895
110.957
111.066
105.711
105.452
105.361
105.422
105.677
106.146
106.853
107.837
108.976
109.984
108.454
108.069
108.023
108.111
108.53
109.284
110.463
112.245
114.48
116.711
110.269
109.571
109.348
109.559
110.289
111.662
113.896
117.509
122.453
128.095
113.887
112.822
112.585
112.846
113.912
115.941
119.319
125.068
133.291
143.379
125.61
124.552
124.209
124.597
125.808
128.299
132.834
140.98
153.807
171.838
278.233
276.909
276.299
276.882
279.44
285.807
297.794
315.738
341.543
371.316
4626.86
4622.53
4620.58
4621.86
4626.2
4633.09
4642.61
4655.82
4672.91
4691.88
3927.87
3928.53
3928.93
3928.89
3928.53
3927.91
3927.15
3926.35
3925.65
3925.08
216.934
216.04
215.689
215.544
215.491
215.469
215.47
215.546
215.842
216.734
108.398
108.462
108.515
108.473
108.402
108.306
108.206
108.121
108.076
108.081
102.815
102.692
102.645
102.671
102.785
102.993
103.296
103.69
104.116
104.437
104.455
104.302
104.298
104.327
104.503
104.815
105.286
105.95
106.727
107.392
105.653
105.329
105.218
105.315
105.659
106.29
107.285
108.778
110.706
112.633
108.542
107.98
107.865
107.987
108.539
109.564
111.203
113.761
117.155
120.564
119.499
118.994
118.816
119.028
119.67
120.994
123.332
127.183
132.818
139.513
264.819
264.192
263.721
264.143
266.071
270.941
279.29
290.813
306.162
320.309
4454.47
4451.02
4449.44
4450.45
4453.88
4459.23
4466.68
4476.56
4488.46
4500.7
3779.56
3780.07
3780.41
3780.38
3780.14
3779.73
3779.22
3778.68
3778.22
3777.8
209.488
208.607
208.265
208.158
208.124
208.12
208.141
208.235
208.546
209.434
106.798
106.841
106.875
106.846
106.793
106.72
106.64
106.569
106.532
106.538
101.298
101.231
101.205
101.216
101.273
101.375
101.519
101.696
101.88
102.001
102.201
102.139
102.146
102.154
102.231
102.367
102.567
102.83
103.115
103.339
102.919
102.775
102.722
102.766
102.925
103.213
103.657
104.285
105.062
105.811
105.182
104.884
104.831
104.889
105.18
105.709
106.525
107.714
109.186
110.492
115.22
115.015
114.932
115.049
115.383
116.084
117.273
119.102
121.599
124.384
252.486
252.308
251.915
252.247
253.791
257.543
263.379
270.893
280.293
287.103
4273.81
4271.19
4269.98
4270.75
4273.34
4277.32
4282.92
4290.04
4298.09
4305.84
3625.05
3625.46
3625.72
3625.71
3625.57
3625.3
3624.96
3624.62
3624.32
3623.99
201.828
200.973
200.661
200.566
200.542
200.546
200.577
200.678
200.991
201.863
105.702
105.725
105.743
105.725
105.69
105.643
105.592
105.549
105.535
105.554
100.532
100.491
100.475
100.481
100.511
100.565
100.639
100.729
100.821
100.875
100.981
100.951
100.955
100.957
100.997
101.066
101.164
101.285
101.403
101.494
101.37
101.308
101.283
101.304
101.377
101.508
101.706
101.973
102.292
102.618
103.143
102.979
102.954
102.986
103.146
103.432
103.857
104.442
105.117
105.678
112.207
112.154
112.124
112.19
112.364
112.729
113.316
114.172
115.244
116.499
240.767
240.866
240.507
240.793
242.109
244.917
248.976
253.901
259.782
262.831
4085.3
4083.43
4082.56
4083.12
4084.95
4087.83
4091.88
4096.82
4102.09
4106.9
3464.55
3464.89
3465.09
3465.09
3465
3464.83
3464.62
3464.4
3464.21
3463.94
193.773
192.953
192.669
192.586
192.565
192.572
192.604
192.702
193.008
193.853
104.85
104.859
104.867
104.856
104.834
104.807
104.779
104.758
104.762
104.79
100.16
100.134
100.125
100.129
100.145
100.173
100.212
100.259
100.311
100.338
100.352
100.33
100.329
100.331
100.355
100.399
100.459
100.529
100.592
100.641
100.536
100.51
100.498
100.508
100.543
100.603
100.691
100.807
100.939
101.097
101.945
101.847
101.835
101.855
101.951
102.118
102.354
102.665
103
103.279
110.02
110.038
110.035
110.075
110.168
110.349
110.621
111.004
111.418
112.025
229.238
229.504
229.149
229.415
230.553
232.522
235.304
238.516
242.241
243.278
3889.51
3888.25
3887.68
3888.06
3889.28
3891.33
3894.13
3897.42
3900.75
3903.68
3298.35
3298.64
3298.8
3298.8
3298.75
3298.65
3298.51
3298.37
3298.25
3298.01
185.217
184.436
184.179
184.107
184.088
184.093
184.121
184.21
184.504
185.314
104.116
104.116
104.117
104.11
104.098
104.085
104.072
104.065
104.081
104.115
99.9899
99.9749
99.971
99.9726
99.98
99.9928
100.011
100.035
100.064
100.08
100.046
100.027
100.021
100.023
100.042
100.075
100.119
100.168
100.21
100.245
100.114
100.103
100.097
100.102
100.118
100.147
100.187
100.239
100.295
100.381
101.255
101.19
101.183
101.199
101.262
101.368
101.511
101.692
101.876
102.043
108.331
108.386
108.395
108.422
108.47
108.551
108.661
108.814
108.924
109.245
217.348
217.862
217.537
217.796
218.608
219.954
221.815
223.881
226.242
226.2
3687.19
3686.34
3685.99
3686.23
3687.06
3688.44
3690.3
3692.4
3694.42
3696.17
3126.86
3127.11
3127.22
3127.23
3127.21
3127.14
3127.06
3126.97
3126.88
3126.67
176.075
175.337
175.108
175.047
175.028
175.031
175.053
175.131
175.406
176.179
103.44
103.435
103.431
103.427
103.422
103.417
103.414
103.416
103.439
103.476
99.9215
99.9144
99.9139
99.9144
99.9162
99.9195
99.9251
99.9342
99.9504
99.9613
99.9123
99.8941
99.8863
99.8878
99.9027
99.929
99.9635
100.001
100.034
100.062
99.9196
99.9133
99.9095
99.9119
99.9207
99.9355
99.9553
99.9794
100.004
100.055
100.855
100.808
100.803
100.816
100.861
100.933
101.026
101.141
101.254
101.373
106.922
106.99
107.01
107.027
107.047
107.077
107.109
107.154
107.128
107.319
204.863
205.515
205.318
205.5
206.043
206.927
208.125
209.421
210.897
210.305
3479.1
3478.56
3478.34
3478.5
3479.04
3479.93
3481.09
3482.36
3483.52
3484.54
2950.61
2950.81
2950.9
2950.91
2950.9
2950.86
2950.81
2950.75
2950.69
2950.49
166.267
165.577
165.377
165.328
165.309
165.309
165.325
165.388
165.642
166.375
102.799
102.79
102.784
102.782
102.78
102.781
102.784
102.791
102.817
102.857
99.9046
99.9026
99.9041
99.9039
99.9025
99.9002
99.8985
99.8994
99.9073
99.9167
99.8655
99.8492
99.8408
99.8418
99.8533
99.8737
99.9003
99.9293
99.9553
99.9787
99.8451
99.8399
99.8369
99.8379
99.843
99.8516
99.8624
99.8749
99.8865
99.9193
100.608
100.573
100.568
100.579
100.611
100.661
100.725
100.802
100.876
100.97
105.658
105.722
105.745
105.756
105.764
105.771
105.767
105.766
105.687
105.818
191.611
192.314
192.219
192.341
192.684
193.231
193.952
194.737
195.62
194.801
3266.14
3265.81
3265.68
3265.78
3266.11
3266.64
3267.33
3268.05
3268.66
3269.25
2770.31
2770.48
2770.54
2770.56
2770.55
2770.53
2770.5
2770.45
2770.41
2770.23
155.698
155.06
154.889
154.853
154.837
154.836
154.845
154.893
155.12
155.811
102.186
102.176
102.168
102.166
102.167
102.171
102.177
102.187
102.212
102.255
99.9137
99.9139
99.916
99.9153
99.9125
99.908
99.9032
99.9003
99.9033
99.9131
99.8616
99.8479
99.8405
99.8409
99.8489
99.8635
99.8826
99.9037
99.9235
99.9426
99.8323
99.8276
99.825
99.8252
99.8283
99.8334
99.8396
99.8465
99.8523
99.8733
100.431
100.404
100.399
100.407
100.43
100.464
100.507
100.557
100.607
100.683
104.458
104.51
104.532
104.54
104.542
104.539
104.524
104.506
104.416
104.516
177.448
178.131
178.115
178.194
178.39
178.691
179.071
179.514
179.989
179.148
3049.36
3049.17
3049.1
3049.16
3049.35
3049.64
3050.02
3050.39
3050.67
3050.99
2586.97
2587.11
2587.16
2587.17
2587.17
2587.15
2587.13
2587.1
2587.06
2586.9
144.235
143.657
143.517
143.493
143.488
143.485
143.488
143.52
143.71
144.355
101.61
101.597
101.589
101.587
101.589
101.594
101.602
101.612
101.634
101.677
99.9327
99.9325
99.9339
99.9331
99.9303
99.926
99.9212
99.9177
99.9185
99.9292
99.8788
99.8684
99.8627
99.8626
99.8676
99.8769
99.8892
99.9031
99.9171
99.9318
99.852
99.8482
99.8461
99.8459
99.8474
99.85
99.8531
99.8564
99.8592
99.8714
100.273
100.254
100.249
100.254
100.268
100.289
100.316
100.346
100.378
100.437
103.291
103.327
103.345
103.35
103.349
103.342
103.325
103.304
103.224
103.303
162.217
162.824
162.872
162.919
163.007
163.127
163.257
163.464
163.638
162.915
2830.07
2829.98
2829.94
2829.97
2830.06
2830.21
2830.39
2830.55
2830.67
2830.82
2401.72
2401.84
2401.86
2401.87
2401.87
2401.87
2401.85
2401.83
2401.8
2401.67
131.649
131.156
131.064
131.054
131.053
131.049
131.045
131.059
131.191
131.771
101.088
101.073
101.066
101.063
101.065
101.07
101.077
101.086
101.103
101.142
99.9496
99.9477
99.9478
99.9469
99.9449
99.9421
99.9391
99.9371
99.9375
99.9482
99.9087
99.9017
99.8981
99.8978
99.9005
99.9056
99.9125
99.9206
99.9293
99.9395
99.89
99.8876
99.8862
99.8858
99.8862
99.887
99.8878
99.8886
99.8893
99.8949
100.119
100.107
100.104
100.106
100.113
100.124
100.136
100.151
100.169
100.209
102.169
102.188
102.198
102.2
102.196
102.187
102.17
102.151
102.097
102.156
145.458
145.934
145.968
146.004
146.064
146.144
146.226
146.286
146.218
145.7
2609.7
2609.66
2609.65
2609.66
2609.69
2609.73
2609.78
2609.83
2609.87
2609.94
2215.02
2215.09
2215.1
2215.1
2215.1
2215.1
2215.09
2215.09
2215.09
2215.03
117.39
117.053
117.022
117.026
117.028
117.024
117.014
117.007
117.051
117.481
100.626
100.61
100.602
100.599
100.599
100.603
100.609
100.618
100.631
100.662
99.9659
99.9636
99.963
99.9623
99.9613
99.9602
99.9592
99.9586
99.9594
99.9666
99.9508
99.9471
99.9452
99.945
99.9463
99.9487
99.9519
99.9558
99.9604
99.966
99.9405
99.9395
99.9389
99.9386
99.9384
99.9383
99.938
99.9376
99.9373
99.9386
100.01
100.004
100.002
100.003
100.006
100.01
100.014
100.02
100.027
100.045
101.124
101.126
101.129
101.127
101.122
101.112
101.1
101.087
101.068
101.11
125.765
126.048
126.065
126.086
126.118
126.161
126.203
126.227
126.178
125.837
2388.98
2388.96
2388.96
2388.97
2388.97
2388.97
2388.97
2388.96
2388.94
2388.99
7183.84
7294.09
7250.31
7043.88
658930
683852
689400
697273
1.49724e+06
1.58388e+06
1.59136e+06
1.57146e+06
2.52487e+06
2.70305e+06
2.70047e+06
2.61895e+06
3.76034e+06
4.05529e+06
4.02891e+06
3.86735e+06
5.30727e+06
5.75039e+06
5.69883e+06
5.48604e+06
6.86773e+06
7.46648e+06
7.40268e+06
7.20602e+06
7.88241e+06
8.61016e+06
8.55551e+06
8.4275e+06
5.61977e+06
6.17914e+06
6.11509e+06
6.08126e+06
7903.47
8151.19
7988.81
7569.58
5749.27
5802.03
5804.53
5765.38
308562
324660
345321
377286
689280
780764
824798
861660
1.17784e+06
1.40264e+06
1.46581e+06
1.49172e+06
1.76333e+06
2.17719e+06
2.25106e+06
2.26453e+06
2.45852e+06
3.11189e+06
3.21115e+06
3.24713e+06
3.13139e+06
4.03966e+06
4.2005e+06
4.31943e+06
3.57301e+06
4.7035e+06
4.9449e+06
5.1799e+06
2.80668e+06
3.81834e+06
4.00705e+06
4.32028e+06
7126.21
7357.79
7286.82
7066.45
4937.8
4948.74
4947.88
4938.16
21663.5
25961.6
24597.5
19966.4
61570.5
73405.2
68671.9
55724.8
128740
152818
140864
114012
228336
270488
246219
199397
372334
441852
401308
326346
545264
648427
591508
485326
702741
839284
769475
636769
584425
696801
629300
524608
6344.15
6431.44
6409.11
6313.77
4715.87
4717.99
4718.54
4717.74
1594.57
1711.45
1679.95
1545.06
4698.48
5172.33
5012.25
4434.3
11230.4
12503.6
11924.5
10212.1
22553
25249.6
23694.7
19742.1
41687.3
46914.6
43518.9
35530
68287.7
76971.4
70782
57118
97151.7
109897
100427
80415.9
83352
93753.6
84186.9
67255.4
5903.83
5945.52
5942.63
5904.7
4567.87
4568.77
4568.98
4568.45
423.33
436.238
438.478
431.566
710.161
757.033
761.509
731.333
1595.02
1736.64
1729.05
1610.08
3203.42
3528.77
3457.85
3118.08
6139.6
6822.23
6581.75
5757.11
10497.2
11691.7
11106.8
9470.71
15690.7
17552.8
16460.6
13722
13859
15395
14111.3
11584.1
5578.55
5600.58
5602.06
5586.45
4444.82
4445.57
4445.65
4445.02
275.607
278.471
279.178
277.92
226.376
231.46
233.278
232.24
385.591
403.051
407.271
400.508
674.036
717.788
722.008
696.028
1215.11
1316.33
1312.44
1233.33
2023.52
2211.15
2175.37
1991.06
3046.77
3360.05
3261.41
2904.07
2928.72
3182.89
3022.94
2663.67
5318.03
5328.81
5330.95
5325.38
4322.49
4323.21
4323.26
4322.63
241.79
243.691
244.088
243.031
140.144
140.892
141.242
141.228
175.874
178.564
179.687
179.434
243.207
250.222
252.45
250.751
368.98
386.587
390.303
383.161
549.227
582.663
585.284
565.763
795.514
854.945
852.073
807.058
984.62
1029.64
1010.15
962.382
5095.66
5100.54
5102.39
5101.14
4195.39
4196.09
4196.14
4195.54
228.106
229.821
230.159
229.149
118.195
118.33
118.383
118.36
125.859
126.305
126.528
126.555
146.037
147.263
147.804
147.783
183.417
186.925
188.189
187.626
233.8
240.352
242.102
240.311
314.625
327.197
329.13
323.565
543.011
548.676
546.156
542.46
4893.57
4895.57
4896.86
4897.05
4061.86
4062.51
4062.57
4062.01
219.5
221.153
221.48
220.505
110.892
110.947
110.955
110.917
110.351
110.422
110.459
110.468
117.77
117.979
118.089
118.121
131.719
132.53
132.882
132.848
149.886
151.244
151.784
151.741
187.367
190.312
191.157
190.492
400.183
397.21
396.463
399.12
4698.37
4699.06
4699.84
4700.32
3921.57
3922.18
3922.23
3921.72
212.203
213.801
214.122
213.183
107.87
107.918
107.922
107.882
104.487
104.493
104.496
104.496
107.577
107.599
107.613
107.625
113.661
113.883
113.983
113.974
121.965
122.218
122.357
122.433
144.585
145.292
145.555
145.49
335.337
330.258
329.479
332.894
4503.74
4503.84
4504.27
4504.73
3774.57
3775.12
3775.17
3774.7
205.062
206.602
206.913
206.012
106.339
106.386
106.392
106.354
101.99
101.988
101.986
101.984
103.359
103.352
103.348
103.351
106.201
106.281
106.314
106.3
110.768
110.782
110.809
110.86
126.732
126.866
126.919
126.912
297.604
292.096
291.191
294.507
4307.05
4306.92
4307.14
4307.49
3621.03
3621.53
3621.57
3621.15
197.663
199.141
199.442
198.58
105.371
105.417
105.423
105.387
100.854
100.852
100.85
100.849
101.49
101.482
101.477
101.477
102.819
102.859
102.872
102.858
105.717
105.688
105.686
105.715
118
117.98
117.963
117.949
271.444
265.991
265.039
268.154
4107.07
4106.9
4107.01
4107.23
3461.26
3461.7
3461.72
3461.35
189.839
191.252
191.542
190.721
104.624
104.667
104.673
104.64
100.318
100.318
100.317
100.316
100.637
100.633
100.63
100.628
101.225
101.251
101.258
101.246
103.289
103.262
103.256
103.271
113.194
113.136
113.096
113.074
250.838
245.591
244.645
247.569
3903.23
3903.1
3903.15
3903.26
3295.63
3296
3296.01
3295.69
181.5
182.846
183.125
182.346
103.966
104.007
104.012
103.982
100.065
100.065
100.065
100.064
100.245
100.243
100.241
100.24
100.47
100.489
100.493
100.483
102.072
102.056
102.05
102.056
110.242
110.182
110.137
110.106
233.005
228.016
227.106
229.852
3695.32
3695.29
3695.31
3695.31
3124.6
3124.9
3124.9
3124.62
172.578
173.857
174.124
173.389
103.349
103.386
103.392
103.364
99.9515
99.9526
99.9528
99.9519
100.065
100.064
100.063
100.062
100.12
100.133
100.136
100.128
101.426
101.42
101.417
101.416
108.202
108.153
108.109
108.068
216.48
211.779
210.923
213.495
3483.44
3483.53
3483.53
3483.45
2948.75
2948.98
2948.96
2948.74
163.004
164.215
164.472
163.784
102.757
102.792
102.797
102.772
99.9136
99.9157
99.916
99.9145
99.983
99.9831
99.9824
99.9813
99.9648
99.9743
99.9756
99.969
101.041
101.044
101.043
101.036
106.605
106.574
106.534
106.484
200.412
196.03
195.242
197.632
3267.99
3268.18
3268.19
3268.02
2768.85
2769
2768.98
2768.79
152.694
153.84
154.09
153.449
102.19
102.224
102.229
102.204
99.917
99.9202
99.9206
99.9182
99.9479
99.9486
99.9483
99.9476
99.9036
99.9099
99.9103
99.9052
100.762
100.772
100.772
100.762
105.208
105.199
105.166
105.106
184.24
180.233
179.53
181.715
3049.64
3049.92
3049.93
3049.72
2585.93
2586
2585.96
2585.83
141.546
142.637
142.881
142.285
101.648
101.68
101.685
101.662
99.9391
99.9432
99.9435
99.9404
99.9378
99.9389
99.9391
99.9386
99.889
99.8926
99.8926
99.8893
100.512
100.525
100.526
100.515
103.875
103.89
103.866
103.799
167.535
164.022
163.428
165.348
2829.46
2829.79
2829.8
2829.57
2401.16
2401.14
2401.08
2401.02
129.376
130.428
130.668
130.106
101.141
101.169
101.172
101.151
99.9603
99.9646
99.9649
99.9616
99.9452
99.9464
99.9468
99.9467
99.9026
99.904
99.9039
99.9024
100.269
100.281
100.282
100.273
102.553
102.579
102.564
102.505
149.624
146.68
146.238
147.874
2608.73
2609.1
2609.12
2608.88
2215.02
2214.86
2214.81
2214.85
115.754
116.735
116.941
116.408
100.666
100.683
100.684
100.67
99.9742
99.9769
99.977
99.9749
99.97
99.971
99.9715
99.9716
99.9404
99.9406
99.9405
99.9403
100.077
100.084
100.085
100.081
101.286
101.295
101.288
101.263
128.336
126.315
126.079
127.236
2388.2
2388.59
2388.6
2388.34
6105.79
5442.88
5173.13
5076.98
5022.16
4983.62
4958.01
4943.62
4935.65
4930.92
798283
193228
33396.1
11729.9
5299.73
2835.92
1749.18
1212.48
928.296
765.095
1.42378e+06
246951
44242.9
15126
6775.2
3636.95
2200.4
1460.49
1048.37
803.13
1.99502e+06
239416
46754.7
15014.2
6481.75
3390.54
2000.3
1297.44
912.955
688.657
2.45802e+06
252532
48920.8
14557
6096.7
3101.5
1791.71
1144.31
795.466
596.739
2.92979e+06
276323
51128.6
13970.6
5636.92
2767.79
1561.16
981.029
677.328
508.289
3.31204e+06
294900
51987.5
13158.3
5156.92
2467
1375.36
861.349
595.553
450.4
3.39615e+06
287328
47688.9
10998.9
4162.74
1946.05
1092.72
700.184
502.899
394.81
2.34148e+06
182122
27365.4
5709.88
2274.74
1237.76
857.987
671.636
568.23
506.625
6016.03
5992.74
5846.98
5822.58
5779.18
5754.9
5735.63
5725.39
5718.48
5712.54
5443.19
5175.11
5045.19
4972.61
4927.05
4897.04
4877.58
4866.02
4859.81
4855.89
180215
44891.1
13613.2
5322.75
2635.48
1567.22
1065.15
802.533
656.296
572.316
375602
86393.4
23464.3
8290.14
3888.87
2187.77
1383.94
956.323
710.925
565.875
594891
126212
30694.6
9649.77
4227.43
2261.33
1372.54
915.879
661.664
515.582
830292
164965
36417.1
10414.9
4316.62
2219.53
1310.18
857.571
610.405
472.047
1.10958e+06
207158
41741.2
10860.9
4245.96
2090.9
1198.49
768.787
542.051
418.492
1.38867e+06
244394
45342.2
10847.2
4054.43
1938.61
1095.39
699.451
493.176
382.946
1.56409e+06
258631
43986.3
9550.14
3394.59
1584.78
900.488
587.695
429.904
345.822
1.18215e+06
178701
26846.6
5248.38
1966.4
1091.28
771.638
615.233
526.648
476.332
6252.63
5952.69
5792.58
5733.76
5682.9
5652.14
5629.86
5616.26
5606.69
5598.41
4903.89
4869.06
4841.59
4818.78
4800.95
4788.04
4779.42
4774.26
4771.41
4769.37
9199.96
4176.43
2299.23
1432.97
985.516
735.942
591.284
505.026
452.3
420.468
23996.3
9564.72
4650.34
2546.93
1542.14
1010.33
712.779
538.456
431.226
364.858
45430.8
15959.8
6937.23
3410.77
1898.18
1159
771.555
555.747
428.604
352.818
73578.3
22897.4
9009.75
4055.23
2119.33
1232.18
791.736
556.651
421.565
343.326
112025
31033.7
11037.7
4547.15
2234.71
1236.75
767.062
526.242
393.51
319.01
156014
38858.6
12573.6
4793.51
2251.04
1205.65
734.601
500.517
373.448
303.545
191469
42860.3
12517.5
4384.11
1974.25
1036.42
636.13
443.008
341.754
286.193
141641
27748.8
7302.33
2546.71
1307.61
842.885
642.718
536.611
473.052
436.339
6018.11
5835.64
5711.04
5637.2
5584.12
5551
5528
5512.33
5500.75
5490.8
4712.85
4704.49
4695.31
4687.07
4680.82
4676.56
4673.91
4672.55
4672.23
4671.86
1208.18
906.68
709.013
570.57
479.328
420.826
383.239
358.525
341.835
331.546
3028.82
1919.7
1270.53
860.849
612.46
461.018
367.248
307.685
268.243
242.373
6220.48
3481.03
2057.4
1252.11
812.874
564.723
420.286
333.187
278.391
244.042
10745.4
5350.31
2877.76
1610.27
978.714
644.23
460.253
354.616
289.945
250.495
17343.2
7664.93
3760.51
1938.6
1104.98
689.053
472.604
353.767
284.448
243.644
25216.7
9944.9
4495.42
2165.2
1178.53
709.528
476.326
352.839
281.932
240.959
32097.1
11239
4657.73
2094.45
1100.34
652.619
441.542
332.981
272.797
238.116
23538.6
7364.98
2960.93
1443.08
906.026
663.568
542.646
472.716
427.966
401.497
5788.86
5660.34
5561.62
5497.73
5453.66
5424.79
5404.08
5389.23
5378.03
5368.56
4567.43
4566.21
4564.96
4563.99
4563.42
4563.17
4563.2
4563.57
4564.49
4565.34
412.768
383.025
356.721
334.926
318.491
306.443
297.593
290.964
285.884
282.626
637.796
512.615
411.78
334.556
279.796
241.995
216.114
198.215
185.28
176.224
1287.24
926.077
666.261
486.298
369.861
294.989
246.665
214.971
193.503
179.306
2275.88
1481.54
973.251
652.806
462.825
348.829
279.642
236.72
208.371
190.007
3813.7
2240.49
1346.57
830.464
548.763
390.217
299.423
245.7
212.131
191.26
5702.51
3043.44
1695.76
978.032
614.64
420.75
314.926
254.772
217.684
194.956
7458.91
3598.66
1860.54
1012.02
616.611
417.001
313.365
255.921
221.793
201.034
5660.79
2636.2
1435.8
903.997
665.846
539.391
466.895
421.258
390.025
371.148
5535.5
5459.46
5394.21
5347.82
5313.91
5289.67
5271.42
5257.72
5247.14
5238.34
4444.65
4444.77
4445.06
4445.54
4446.13
4446.77
4447.43
4448.23
4449.45
4450.89
277.905
274.913
271.44
268.012
264.993
262.432
260.278
258.432
256.81
255.5
225.937
210.9
194.983
180.671
169.164
160.396
153.873
148.987
145.062
142.102
373.136
321.837
273.242
233.349
203.647
182.296
167.118
156.263
148.301
142.778
613.155
487.99
382.031
302.886
248.809
212.62
188.493
172.261
160.551
152.476
1013.02
737.607
529.174
386.533
296.613
240.208
204.681
181.857
166.436
156.322
1521.86
1022.41
681.102
465.826
339.863
265.172
220.35
192.772
174.289
162.252
2045.08
1266.58
789.94
514.162
364.869
280.893
232.631
203.53
184.891
172.972
1813.94
1182.05
824.756
628.677
519.803
452.715
409.164
379.567
357.988
344.701
5303.19
5261.55
5221.72
5189.84
5164.42
5144.7
5129.13
5116.98
5107.37
5099.5
4322.38
4322.66
4323.11
4323.71
4324.4
4325.09
4325.74
4326.5
4327.64
4329.1
244.187
244.028
243.68
243.21
242.695
242.161
241.613
241.029
240.388
239.631
140.677
138.613
136.05
133.474
131.212
129.36
127.895
126.714
125.6
124.671
176.561
168.277
158.713
149.719
142.184
136.17
131.455
127.765
124.839
122.743
241.575
220.106
197.582
178.246
163.322
152.237
144.111
138.17
133.446
129.987
355.607
303.625
254.538
215.774
187.989
168.568
155.054
145.579
138.643
133.893
503.794
404.254
318.043
255.307
213.431
185.764
167.407
155.122
146.119
139.911
681.019
513.254
382.432
294.786
240.118
205.636
183.591
169.098
159.12
152.483
826.523
675.081
559.078
481.187
428.745
391.981
365.487
346.24
331.379
322.068
5091.66
5069.78
5045.99
5024.41
5005.72
4990.19
4977.39
4967.04
4958.66
4951.9
4195.31
4195.51
4195.85
4196.31
4196.82
4197.33
4197.8
4198.35
4199.28
4200.55
230.45
230.679
230.783
230.795
230.737
230.612
230.419
230.133
229.731
229.095
118.343
118.076
117.711
117.31
116.942
116.641
116.411
116.216
115.936
115.649
126.162
124.616
122.564
120.394
118.37
116.588
115.057
113.758
112.66
111.868
146.605
142.547
137.532
132.671
128.479
125.041
122.292
120.129
118.226
116.751
183.562
172.764
160.73
149.905
141.149
134.338
129.118
125.148
122.03
119.841
231.561
210.471
188.299
169.864
155.893
145.592
138.051
132.594
128.231
125.068
302.831
263.924
227.206
198.838
178.526
164.158
154.002
146.785
141.502
137.899
515.444
472.556
430.204
396.151
369.354
348.489
332.111
319.515
309.28
302.786
4892.43
4880.68
4866.3
4851.85
4838.43
4826.64
4816.51
4808.06
4801.03
4795.45
4061.77
4061.92
4062.13
4062.43
4062.77
4063.09
4063.36
4063.71
4064.41
4065.47
221.798
222.064
222.213
222.282
222.289
222.231
222.101
221.872
221.507
220.875
110.953
110.943
110.931
110.917
110.914
110.933
110.974
111.01
110.958
110.863
110.391
110.048
109.545
108.955
108.352
107.776
107.244
106.76
106.332
106.028
117.937
117.077
115.87
114.565
113.326
112.224
111.281
110.496
109.724
109.086
132.025
129.418
126.18
122.903
119.952
117.431
115.339
113.638
112.225
111.23
150.42
145.516
139.42
133.678
128.785
124.802
121.63
119.183
117.061
115.451
186.096
175.852