/*--------------------------------*- C++ -*----------------------------------*\
| =========                 |                                                 |
| \\      /  F ield         | foam-extend: Open Source CFD                    |
|  \\    /   O peration     | Version:     4.0                                |
|   \\  /    A nd           | Web:         http://www.foam-extend.org         |
|    \\/     M anipulation  |                                                 |
\*---------------------------------------------------------------------------*/
FoamFile
{
    version     2.0;
    format      ascii;
    class       volScalarField;
    location    "1700";
    object      k;
}
// * * * * * * * * * * * * * * * * * * * * * * * * * * * * * * * * * * * * * //

dimensions      [0 2 -2 0 0 0 0];

internalField   nonuniform List<scalar> 
34480
(
8.76716
8.76477
8.76465
8.76641
8.7702
8.7763
8.79124
8.85465
9.07724
9.68615
9.28006
8.66842
8.57581
8.85541
9.45444
10.3413
11.9404
15.854
28.7435
67.0353
15.0409
13.5716
13.1257
13.274
13.8445
14.8776
17.2115
22.9083
41.6417
101.417
14.4926
12.9656
12.5158
12.7102
13.4208
14.8355
18.0077
25.4088
49.2532
127.785
13.4294
12.0144
11.6639
11.9312
12.783
14.4933
18.2628
26.9583
55.2712
151.572
12.2204
10.9478
10.636
10.9181
11.8101
13.7039
17.9455
27.9049
61.0609
176.65
11.3274
10.2082
9.95413
10.2295
11.125
13.091
17.5931
28.4225
65.5185
198.008
9.84057
9.00499
8.80056
9.01661
9.7295
11.4
15.4945
26.1273
64.5457
205.593
6.88282
6.6145
6.56598
6.67612
7.00567
7.73037
9.73117
16.275
43.414
149.673
9.23832
9.23857
9.24443
9.25732
9.27542
9.29701
9.32303
9.3616
9.43264
9.50583
8.6785
8.67551
8.67494
8.67671
8.68146
8.68978
8.70302
8.73408
8.80834
9.06731
7.9304
7.51054
7.41727
7.57496
8.02191
8.86414
10.3056
12.1088
15.4305
41.1836
12.2368
11.1741
10.882
11.0852
11.7638
13.0248
15.2225
18.1242
23.7917
66.4263
12.1408
10.9729
10.6544
10.8977
11.7028
13.2532
16.0338
20.016
28.3928
86.188
11.5999
10.4667
10.2003
10.4766
11.3695
13.111
16.2997
21.0772
31.8431
104.297
10.8061
9.75651
9.50159
9.7757
10.6744
12.5015
15.9713
21.4581
34.8381
123.699
10.2155
9.2642
9.0475
9.30142
10.1753
12.0041
15.6115
21.5546
37.1095
140.949
9.05485
8.33357
8.14979
8.34164
9.01977
10.5179
13.6654
19.2873
35.7047
147.362
6.64521
6.39808
6.344
6.41827
6.68311
7.26824
8.61531
11.5629
22.4924
102.42
9.11117
9.10648
9.10703
9.11423
9.1269
9.14271
9.16369
9.19941
9.27241
9.45766
8.57674
8.57388
8.57299
8.57396
8.5771
8.58203
8.58779
8.60072
8.62951
8.69519
6.78314
6.57153
6.51753
6.59343
6.82482
7.27176
8.06637
9.36077
11.1373
16.4405
9.69292
9.07281
8.91959
9.08718
9.6068
10.5617
12.1766
14.5714
17.55
29.1857
9.89052
9.15279
8.96766
9.1816
9.841
11.0967
13.289
16.6432
21.1154
40.7668
9.76084
9.00613
8.84366
9.08054
9.81919
11.2629
13.866
17.942
23.7785
52.2554
9.33196
8.6051
8.43794
8.67607
9.4307
10.9768
13.8915
18.6204
26.0237
64.9012
9.01679
8.33299
8.18713
8.41001
9.15188
10.7204
13.8055
18.9584
27.7473
76.9225
8.19591
7.66804
7.53906
7.70969
8.28504
9.56791
12.2739
17.1643
26.6515
82.8752
6.37391
6.18185
6.14211
6.20314
6.41418
6.87701
7.92606
10.3694
16.6986
57.1045
8.99166
8.98389
8.98137
8.98528
8.99489
9.00798
9.026
9.05956
9.13833
9.33832
8.46126
8.45946
8.45895
8.45971
8.46187
8.46461
8.46581
8.46919
8.47813
8.49755
6.00906
5.91826
5.8912
5.92203
6.02224
6.21481
6.55159
7.13329
7.99738
9.88295
7.81001
7.49738
7.4246
7.52004
7.82149
8.38426
9.33528
10.8224
12.6598
17.0774
8.1261
7.70884
7.60527
7.74278
8.16891
8.99115
10.4246
12.7278
15.5993
23.5573
8.24857
7.79031
7.69369
7.8516
8.34993
9.33753
11.1242
14.0857
17.8846
30.127
8.08481
7.61677
7.50741
7.67451
8.20426
9.30357
11.3896
14.9964
19.8635
37.6358
7.97664
7.51276
7.41356
7.57525
8.11246
9.25838
11.525
15.5784
21.3668
44.9579
7.44588
7.07593
6.98409
7.1127
7.53683
8.48312
10.4818
14.3832
20.6514
48.7652
6.13193
5.98509
5.95526
6.00129
6.15876
6.4968
7.22553
8.986
12.9802
33.0348
8.85777
8.84997
8.84714
8.85051
8.85961
8.87323
8.89208
8.92597
8.99913
9.15497
8.33358
8.33277
8.3326
8.33308
8.33425
8.33509
8.33349
8.33211
8.33204
8.33418
5.53796
5.50353
5.49048
5.50035
5.53651
5.60523
5.72053
5.9121
6.17942
6.62214
6.56703
6.42939
6.39868
6.43895
6.57529
6.83352
7.27248
7.98307
8.88046
10.3587
6.87311
6.65661
6.60012
6.67088
6.89808
7.34063
8.11519
9.40898
11.046
14.0215
7.10301
6.84354
6.78736
6.87472
7.16024
7.72836
8.76048
10.5606
12.8857
17.7771
7.09809
6.81177
6.74023
6.84081
7.16469
7.83721
9.11688
11.4651
14.613
22.2341
7.12152
6.81904
6.75112
6.85318
7.19821
7.93032
9.37491
12.1322
15.9816
26.6467
6.81395
6.56258
6.49663
6.58281
6.86503
7.48645
8.7798
11.4754
15.6906
29.0111
5.91872
5.80794
5.78524
5.8171
5.92814
6.16047
6.63082
7.74175
10.105
19.2373
8.71434
8.70663
8.70361
8.70647
8.71493
8.72833
8.74681
8.77824
8.83975
8.95224
8.19462
8.19456
8.19466
8.19493
8.19538
8.19495
8.19247
8.1899
8.18772
8.1864
5.27059
5.25921
5.2529
5.25515
5.26644
5.28825
5.32371
5.37834
5.44789
5.53783
5.81014
5.75875
5.74912
5.76254
5.8135
5.91028
6.07277
6.33534
6.67502
7.14007
6.04379
5.94023
5.91155
5.94403
6.05221
6.26061
6.61717
7.21219
7.98824
9.10775
6.28305
6.14659
6.11688
6.16054
6.30878
6.59847
7.11288
8.02156
9.23782
11.2037
6.35171
6.18634
6.14227
6.19851
6.38156
6.75404
7.44526
8.74088
10.5391
13.804
6.44271
6.25498
6.21133
6.27153
6.47892
6.90824
7.73005
9.34111
11.6525
16.3933
6.29363
6.13092
6.08621
6.14123
6.31907
6.70006
7.46094
9.07746
11.6564
17.7672
5.7332
5.65213
5.63594
5.6573
5.73357
5.88884
6.18438
6.83644
8.10026
11.8436
8.56043
8.5531
8.55008
8.55254
8.56028
8.57291
8.59025
8.61809
8.66612
8.74085
8.04494
8.0454
8.04569
8.04581
8.04578
8.04458
8.04226
8.03978
8.03753
8.03587
5.12678
5.1234
5.11996
5.11989
5.12277
5.12915
5.13923
5.15361
5.1698
5.18593
5.37643
5.36155
5.36075
5.36361
5.37859
5.40772
5.45665
5.53427
5.63326
5.75113
5.5271
5.48029
5.46643
5.4802
5.52826
5.61894
5.76753
6.00409
6.30896
6.68095
5.72773
5.66047
5.64628
5.66627
5.73794
5.87398
6.10504
6.49933
7.0313
7.75056
5.81553
5.72463
5.69884
5.72844
5.82617
6.01925
6.36116
6.98412
7.86685
9.18706
5.92943
5.81783
5.79133
5.82468
5.9432
6.18075
6.61279
7.43997
8.65374
10.6613
5.8839
5.78357
5.75481
5.78824
5.8949
6.11677
6.53687
7.40198
8.80248
11.4695
5.57838
5.52047
5.50952
5.52328
5.57432
5.67555
5.85899
6.23101
6.89012
8.32434
8.39549
8.38877
8.38589
8.38801
8.39493
8.40627
8.42181
8.44551
8.48209
8.53137
7.88489
7.88567
7.88607
7.8861
7.88579
7.88443
7.88256
7.88057
7.87878
7.87744
5.05211
5.05091
5.04868
5.04816
5.04878
5.0508
5.05374
5.05755
5.06113
5.06356
5.1382
5.13661
5.1387
5.1383
5.14053
5.14594
5.15632
5.17378
5.19627
5.22035
5.21998
5.19944
5.19288
5.19848
5.21922
5.25757
5.31751
5.40631
5.51484
5.62711
5.36848
5.33728
5.33137
5.33981
5.37273
5.43335
5.53144
5.68822
5.89262
6.12718
5.44742
5.39969
5.38531
5.40019
5.45027
5.5463
5.70788
5.98385
6.36756
6.85613
5.55808
5.49426
5.47909
5.49656
5.5618
5.68843
5.90634
6.29807
6.86441
7.64787
5.57452
5.51591
5.49846
5.51788
5.57895
5.70271
5.92595
6.35735
7.04512
8.13473
5.45404
5.4135
5.40653
5.41513
5.44871
5.5137
5.62706
5.8379
6.18523
6.758
8.21899
8.21307
8.21046
8.21225
8.21825
8.22798
8.24133
8.26072
8.28792
8.32082
7.71455
7.7155
7.71598
7.71596
7.71548
7.71436
7.71297
7.71151
7.71021
7.70921
5.01373
5.01286
5.01119
5.01077
5.01105
5.01203
5.01326
5.01463
5.01558
5.01574
5.01167
5.01389
5.0164
5.0154
5.01405
5.01269
5.01216
5.01319
5.01567
5.01874
5.045
5.03585
5.03268
5.03495
5.04402
5.06051
5.08521
5.11916
5.15793
5.19191
5.14568
5.13201
5.13
5.13329
5.14788
5.17407
5.21476
5.27526
5.3499
5.42263
5.20555
5.18154
5.17387
5.18108
5.20596
5.25247
5.32749
5.4464
5.60482
5.77829
5.30089
5.26554
5.25733
5.26605
5.30102
5.36703
5.47537
5.65561
5.90482
6.19321
5.35073
5.31861
5.30871
5.31954
5.35286
5.41905
5.53438
5.74204
6.06186
6.4914
5.35809
5.33004
5.3259
5.33121
5.35319
5.39474
5.4648
5.58472
5.7693
6.02056
8.03053
8.02552
8.02327
8.02475
8.02976
8.03774
8.04875
8.06401
8.08372
8.10559
7.53407
7.5349
7.53542
7.53537
7.53491
7.53412
7.53314
7.53212
7.53122
7.53049
4.99328
4.99247
4.99117
4.99091
4.99124
4.992
4.9929
4.99381
4.99438
4.99429
4.94631
4.94898
4.9511
4.95028
4.94849
4.94605
4.94348
4.94124
4.93974
4.93907
4.94944
4.94503
4.94337
4.94436
4.94856
4.95611
4.967
4.98099
4.99594
5.00722
5.01314
5.00737
5.00694
5.00813
5.01452
5.0258
5.04275
5.06631
5.0936
5.11687
5.05352
5.04191
5.03796
5.04139
5.05349
5.07562
5.11023
5.16148
5.22676
5.29106
5.13042
5.11121
5.107
5.11122
5.12974
5.16387
5.21783
5.30117
5.4102
5.51811
5.19581
5.1796
5.17447
5.1803
5.19753
5.23127
5.28892
5.38655
5.53127
5.70548
5.28688
5.2675
5.26526
5.26859
5.28314
5.30998
5.35351
5.42242
5.52052
5.64027
7.8298
7.82576
7.8239
7.82509
7.82911
7.83537
7.8441
7.85567
7.86958
7.88388
7.34319
7.34386
7.34429
7.34425
7.34395
7.34341
7.34275
7.34206
7.34146
7.34092
4.98139
4.98069
4.97974
4.97959
4.97993
4.9806
4.98141
4.98221
4.98276
4.98266
4.91326
4.91546
4.91704
4.91653
4.91514
4.91315
4.91094
4.90883
4.90726
4.9064
4.89954
4.89713
4.89618
4.89666
4.8988
4.90258
4.90788
4.91433
4.92088
4.92519
4.93761
4.9351
4.93512
4.93554
4.93847
4.94358
4.95103
4.96073
4.97116
4.9793
4.96228
4.95685
4.95487
4.9565
4.96231
4.97276
4.9887
5.011
5.03827
5.0642
5.02239
5.01193
5.00985
5.01192
5.02183
5.03969
5.067
5.10654
5.15523
5.19836
5.09323
5.08602
5.08374
5.0868
5.09512
5.11131
5.13871
5.18311
5.24631
5.32146
5.23593
5.22241
5.22136
5.22359
5.23351
5.25126
5.27867
5.31894
5.37096
5.43173
7.61664
7.61353
7.61209
7.61301
7.61608
7.62081
7.62746
7.63592
7.64546
7.65464
7.14167
7.14222
7.14256
7.14254
7.14235
7.142
7.14156
7.14111
7.14072
7.14028
4.97351
4.97296
4.97232
4.97224
4.97255
4.97312
4.97381
4.9745
4.97504
4.97488
4.89674
4.89838
4.89949
4.89923
4.89832
4.89701
4.89555
4.89414
4.89318
4.89265
4.87477
4.87331
4.87274
4.873
4.87417
4.87622
4.87902
4.88233
4.88564
4.88755
4.89645
4.89516
4.89518
4.89536
4.89688
4.89954
4.90329
4.90785
4.91234
4.91573
4.91014
4.90766
4.90667
4.90747
4.91026
4.91522
4.92259
4.93243
4.94402
4.95553
4.95699
4.95108
4.95005
4.95117
4.95669
4.96642
4.98077
5.00044
5.02313
5.04206
5.0282
5.02573
5.02504
5.02662
5.03028
5.03736
5.04929
5.06826
5.09382
5.12866
5.20055
5.19093
5.19058
5.19224
5.19933
5.21146
5.22912
5.25322
5.28077
5.31356
7.39099
7.38873
7.38768
7.38836
7.39057
7.39405
7.39892
7.40488
7.41123
7.41702
6.92928
6.92974
6.93001
6.93001
6.92989
6.92967
6.92938
6.92909
6.92883
6.92847
4.96749
4.96714
4.96675
4.96672
4.96697
4.96742
4.96797
4.96852
4.96902
4.96876
4.88848
4.88967
4.89044
4.89034
4.88981
4.88905
4.88821
4.88742
4.88699
4.88675
4.86326
4.86235
4.86203
4.86217
4.86282
4.86392
4.86544
4.86722
4.86907
4.87003
4.8751
4.87421
4.87411
4.87422
4.87518
4.87686
4.87914
4.88177
4.88416
4.88598
4.88188
4.88073
4.88024
4.88064
4.88202
4.88441
4.88787
4.89231
4.89735
4.90302
4.91908
4.91549
4.91495
4.91567
4.91899
4.92466
4.9327
4.94322
4.95459
4.96412
4.98844
4.98824
4.98839
4.98921
4.99056
4.99316
4.99748
5.00456
5.01302
5.03076
5.17639
5.16939
5.16943
5.17082
5.17615
5.18473
5.19647
5.21137
5.22591
5.24501
7.15291
7.15137
7.15067
7.15114
7.15264
7.15515
7.15858
7.16261
7.1667
7.17028
6.70588
6.70627
6.70647
6.70648
6.70642
6.70627
6.70609
6.7059
6.70573
6.70541
4.96239
4.96226
4.96206
4.96207
4.96226
4.96257
4.96297
4.96339
4.96384
4.96347
4.88427
4.88516
4.88567
4.88567
4.8854
4.88502
4.88462
4.88426
4.88422
4.88417
4.85846
4.85794
4.85779
4.85786
4.85818
4.85872
4.85948
4.8604
4.86146
4.862
4.86464
4.8639
4.86368
4.86377
4.86448
4.86571
4.86733
4.86914
4.87072
4.87198
4.86745
4.86688
4.86661
4.86682
4.86753
4.86874
4.87042
4.87249
4.87476
4.87787
4.89789
4.89549
4.89516
4.89572
4.89789
4.90149
4.90636
4.91252
4.91882
4.92458
4.96448
4.9652
4.96574
4.96619
4.9665
4.96704
4.96788
4.96964
4.97061
4.98091
5.15968
5.15455
5.15481
5.15608
5.16019
5.16653
5.17465
5.18422
5.19175
5.20402
6.90267
6.90161
6.90117
6.90147
6.90251
6.90424
6.90655
6.90917
6.91169
6.91387
6.47137
6.47171
6.47187
6.47188
6.47185
6.47176
6.47164
6.47152
6.47141
6.47111
4.95778
4.95787
4.95783
4.95788
4.95801
4.95821
4.95846
4.95875
4.9592
4.95872
4.88203
4.8827
4.88302
4.88306
4.88297
4.88284
4.88273
4.88266
4.88287
4.88298
4.85697
4.85672
4.85668
4.85671
4.85682
4.857
4.85728
4.85768
4.85828
4.85862
4.85992
4.85926
4.85898
4.85905
4.85959
4.86055
4.86179
4.86315
4.86433
4.86531
4.86062
4.86028
4.86011
4.86022
4.86061
4.86126
4.86213
4.86316
4.86423
4.86611
4.88615
4.88443
4.88418
4.88464
4.88617
4.88861
4.8918
4.89571
4.89958
4.90372
4.94943
4.95038
4.95107
4.95134
4.95125
4.951
4.95043
4.95007
4.94801
4.95498
5.14753
5.14373
5.14415
5.14533
5.14862
5.15349
5.15934
5.16575
5.16941
5.17815
6.64047
6.63977
6.63949
6.63969
6.64038
6.64151
6.643
6.64461
6.64608
6.64738
6.22584
6.22613
6.22625
6.22626
6.22625
6.2262
6.22612
6.22604
6.22596
6.22568
4.9535
4.95381
4.95388
4.95397
4.95405
4.95415
4.95428
4.95445
4.95494
4.95442
4.88067
4.88117
4.88135
4.8814
4.88141
4.88145
4.88152
4.88163
4.88201
4.8823
4.85703
4.85696
4.85699
4.85699
4.85697
4.85694
4.85695
4.85705
4.85735
4.85764
4.85807
4.8575
4.85722
4.85726
4.85767
4.85839
4.85932
4.86035
4.86126
4.86206
4.85775
4.8575
4.85737
4.85742
4.85765
4.85804
4.85852
4.85907
4.85962
4.86081
4.87927
4.87796
4.87776
4.87813
4.87923
4.88095
4.88312
4.88572
4.88828
4.89156
4.93852
4.93934
4.94004
4.94024
4.94007
4.93963
4.9387
4.9377
4.9347
4.94007
5.13772
5.13493
5.13542
5.13655
5.13924
5.1431
5.14748
5.15193
5.15336
5.16013
6.36663
6.3662
6.36604
6.36617
6.3666
6.36729
6.36819
6.36912
6.36991
6.37067
5.96957
5.96982
5.9699
5.96992
5.96992
5.96988
5.96983
5.96978
5.96971
5.96945
4.94941
4.94992
4.95007
4.95021
4.95026
4.95028
4.95031
4.95039
4.95094
4.95048
4.8796
4.87994
4.87999
4.88003
4.88009
4.88022
4.8804
4.88063
4.8811
4.88158
4.85776
4.85776
4.85782
4.8578
4.85773
4.8576
4.85748
4.85743
4.85756
4.85787
4.85758
4.85712
4.85687
4.85688
4.85716
4.85767
4.85833
4.85906
4.85975
4.86039
4.85687
4.85666
4.85656
4.85658
4.85671
4.85694
4.85721
4.85752
4.85781
4.85857
4.87437
4.87338
4.8732
4.87347
4.87424
4.87541
4.87687
4.87858
4.8803
4.88296
4.9285
4.92906
4.92967
4.92985
4.92972
4.92933
4.92848
4.92749
4.92452
4.92892
5.12827
5.1263
5.12679
5.12786
5.13008
5.13319
5.13655
5.1397
5.1398
5.14524
6.08171
6.08147
6.08137
6.08146
6.0817
6.08209
6.0826
6.08308
6.08346
6.08389
5.7032
5.70341
5.70348
5.70349
5.70349
5.70347
5.70343
5.70339
5.70333
5.7031
4.94524
4.94588
4.9461
4.94628
4.94632
4.94628
4.94622
4.94621
4.94679
4.94658
4.87843
4.87855
4.87852
4.87852
4.8786
4.87876
4.87899
4.87927
4.87974
4.88044
4.85859
4.85858
4.85862
4.8586
4.85851
4.85838
4.85824
4.85815
4.8582
4.85855
4.8577
4.85735
4.85716
4.85716
4.85733
4.85765
4.85807
4.85855
4.85902
4.85951
4.85697
4.85682
4.85674
4.85673
4.8568
4.85691
4.85705
4.8572
4.85734
4.85779
4.86972
4.86901
4.86885
4.86902
4.86949
4.87021
4.8711
4.87213
4.87323
4.87527
4.91722
4.9175
4.91798
4.91812
4.91803
4.91772
4.91706
4.91624
4.91379
4.91734
5.11643
5.11515
5.1156
5.11657
5.11837
5.12081
5.12336
5.12551
5.12479
5.12904
5.78654
5.78641
5.78636
5.7864
5.78653
5.78673
5.78698
5.78719
5.78735
5.78756
5.42758
5.42775
5.42779
5.42781
5.42781
5.42779
5.42777
5.42774
5.42769
5.42751
4.93956
4.9402
4.94057
4.94081
4.94086
4.94077
4.9406
4.94044
4.94081
4.9411
4.87681
4.87669
4.87659
4.87654
4.8766
4.87675
4.87697
4.87726
4.87767
4.8785
4.85911
4.85904
4.85905
4.85902
4.85895
4.85887
4.85877
4.85871
4.85874
4.85909
4.85816
4.85792
4.8578
4.85779
4.85788
4.85805
4.85829
4.85856
4.85886
4.8592
4.8576
4.85751
4.85746
4.85745
4.85747
4.8575
4.85754
4.85758
4.85763
4.85783
4.86474
4.86429
4.86418
4.86425
4.86449
4.86485
4.86529
4.86579
4.86639
4.86776
4.90351
4.90355
4.90384
4.90389
4.90376
4.90346
4.90292
4.90228
4.90066
4.90328
5.09513
5.09442
5.09481
5.09561
5.09694
5.09872
5.10051
5.10177
5.10062
5.10344
5.48211
5.48205
5.48203
5.48205
5.48209
5.48215
5.48223
5.48229
5.48234
5.48244
5.14252
5.14263
5.14264
5.14264
5.14264
5.14264
5.14263
5.14263
5.14262
5.14253
4.92472
4.92529
4.9259
4.92623
4.92631
4.92619
4.92591
4.9255
4.92511
4.92574
4.8737
4.87335
4.87315
4.87305
4.87307
4.87318
4.87338
4.87366
4.87405
4.87487
4.85937
4.8593
4.85928
4.85925
4.85922
4.85919
4.85915
4.85914
4.85917
4.8594
4.85896
4.85884
4.85877
4.85877
4.85881
4.85889
4.85899
4.85912
4.85928
4.85946
4.85863
4.85859
4.85857
4.85856
4.85856
4.85855
4.85854
4.85853
4.85853
4.85857
4.86084
4.86065
4.86059
4.86062
4.8607
4.86084
4.86099
4.86116
4.86139
4.86203
4.88684
4.88667
4.88673
4.88668
4.8865
4.88619
4.88577
4.88535
4.88478
4.88647
5.04096
5.04067
5.04092
5.04142
5.04221
5.04325
5.04427
5.04483
5.04383
5.04488
5.16848
5.16844
5.16845
5.16845
5.16846
5.16846
5.16846
5.16845
5.16842
5.16849
11.2689
11.3839
11.3383
11.122
82.8118
84.887
85.3455
85.9938
143.129
148.599
149.066
147.821
202.78
212.211
212.076
207.787
264.453
278.107
276.9
269.447
332.744
351.017
348.916
340.176
395.129
417.773
415.39
408.001
433.148
459.414
457.468
452.895
345.68
368.254
365.705
364.355
11.4767
11.7153
11.5592
11.1511
9.7137
9.77303
9.77584
9.73183
76.0838
79.3237
80.0808
80.1997
133.884
144.796
145.894
143.727
192.893
214.512
215.043
209.145
256.117
290.946
289.995
280.046
329.483
380.228
378.453
365.583
399.571
466.574
465.609
452.586
446.069
527.542
528.588
517.404
350.522
422.873
420.966
416.134
10.7113
10.9422
10.8717
10.6514
8.77672
8.78968
8.78866
8.77715
26.541
28.9568
28.2187
25.7092
49.3594
53.7627
52.0972
47.4235
74.5814
81.3364
78.2153
70.7008
103.45
112.984
107.804
96.724
139.431
152.787
145.159
129.269
177.296
194.653
184.493
163.474
207.517
228.686
216.426
190.893
164.723
181.611
170.127
149.291
9.9126
10.0033
9.98014
9.88093
8.51174
8.51428
8.51495
8.51398
11.474
11.7232
11.6933
11.4962
21.2141
21.9401
21.8761
21.3341
31.9975
33.4823
33.2296
31.9144
44.509
46.9398
46.2747
43.7536
60.6304
64.3957
63.075
58.7602
78.0498
83.1589
80.8913
74.4491
92.5694
99.1163
95.8286
87.1382
71.9299
77.068
73.5554
65.9546
9.44846
9.49289
9.48981
9.44939
8.3327
8.3338
8.33405
8.3334
7.04228
7.13361
7.15869
7.12886
11.6785
11.9742
12.0568
11.9709
16.8713
17.4849
17.5849
17.3185
22.8361
23.8548
23.8902
23.2866
30.7117
32.3353
32.222
31.0337
39.2208
41.4538
41.0356
39.0569
46.2586
49.193
48.3755
45.3959
34.398
36.6157
35.4251
32.5451
9.09815
9.12208
9.12369
9.10673
8.18238
8.1833
8.18339
8.18262
5.60691
5.62109
5.62624
5.62452
7.45622
7.52586
7.55841
7.5598
9.93761
10.1209
10.1879
10.1629
12.8336
13.1789
13.2649
13.1645
16.7958
17.4117
17.5013
17.2336
21.045
21.941
21.9641
21.435
24.4772
25.7285
25.6266
24.6904
17.4793
18.3731
18.0184
17.0147
8.81263
8.82454
8.8269
8.82075
8.03155
8.03244
8.03251
8.03173
5.19705
5.20019
5.20103
5.20004
5.82334
5.83901
5.84757
5.84977
6.91446
6.96716
6.99222
6.99333
8.25909
8.37112
8.41532
8.40563
10.2338
10.4612
10.531
10.4821
12.3586
12.7062
12.7762
12.6571
14.0528
14.5723
14.6188
14.3544
10.2211
10.5573
10.4787
10.1873
8.56523
8.5707
8.57277
8.57137
7.87332
7.87419
7.87426
7.87351
5.0633
5.06443
5.06442
5.06349
5.23326
5.23557
5.23697
5.23762
5.6842
5.69648
5.70297
5.70435
6.26576
6.29603
6.31052
6.31204
7.19434
7.26989
7.30048
7.29475
8.21584
8.33679
8.37656
8.35781
9.06878
9.26932
9.31381
9.24827
7.33856
7.45133
7.44524
7.37906
8.33724
8.33952
8.34098
8.3412
7.70536
7.70619
7.70626
7.70555
5.01334
5.01425
5.01418
5.01325
5.0204
5.02048
5.02052
5.02055
5.20453
5.20683
5.20809
5.20846
5.45549
5.46208
5.46564
5.46675
5.88078
5.90378
5.91431
5.91415
6.35921
6.39508
6.41037
6.41059
6.80652
6.87791
6.9004
6.88562
6.19832
6.2323
6.23663
6.22607
8.11403
8.11483
8.11572
8.11628
7.52691
7.52769
7.52775
7.52709
4.99137
4.99221
4.99215
4.99127
4.93896
4.93884
4.93873
4.93864
5.00967
5.00988
5.00999
5.01005
5.12357
5.12446
5.12503
5.12541
5.32353
5.33057
5.33389
5.33379
5.5599
5.5684
5.57303
5.57505
5.81417
5.83912
5.84821
5.84389
5.69856
5.70616
5.70884
5.70958
7.88838
7.88849
7.88899
7.88952
7.33761
7.33833
7.33839
7.33778
4.97961
4.98038
4.98032
4.97948
4.90614
4.90609
4.906
4.90588
4.92543
4.92531
4.92525
4.92526
4.98035
4.9802
4.98014
4.98022
5.07677
5.07937
5.08049
5.08016
5.20674
5.20787
5.20896
5.21029
5.36637
5.37616
5.37951
5.37676
5.45414
5.45323
5.45382
5.4561
7.657
7.65684
7.65711
7.65751
7.13725
7.13791
7.13796
7.1374
4.97184
4.97253
4.97246
4.97166
4.89241
4.89241
4.89234
4.89222
4.88732
4.8872
4.88715
4.88716
4.91577
4.91557
4.91544
4.91543
4.96192
4.96322
4.96369
4.96332
5.04271
5.04227
5.04237
5.04311
5.15359
5.1585
5.15966
5.15705
5.32499
5.3217
5.32121
5.32315
7.41811
7.4179
7.41803
7.4183
6.92573
6.92631
6.92635
6.92585
4.96581
4.9664
4.9663
4.96554
4.88651
4.88653
4.88647
4.88635
4.86974
4.86965
4.86962
4.86965
4.88597
4.88584
4.88575
4.88571
4.90703
4.90785
4.90811
4.90779
4.96378
4.96327
4.96317
4.96353
5.04881
5.05207
5.05243
5.04983
5.25304
5.2495
5.2486
5.2499
7.17058
7.17043
7.17049
7.17062
6.70298
6.70348
6.7035
6.70306
4.96066
4.96114
4.96101
4.96031
4.88395
4.88397
4.88391
4.88379
4.86176
4.86171
4.8617
4.86172
4.87203
4.87197
4.87192
4.87187
4.88066
4.88124
4.8814
4.88113
4.92486
4.9246
4.9245
4.92461
4.99619
4.99884
4.99889
4.9963
5.21101
5.20797
5.207
5.20765
6.91363
6.9136
6.91362
6.91363
6.46902
6.46943
6.46944
6.46906
4.95611
4.95648
4.95632
4.95566
4.88283
4.88286
4.88281
4.88267
4.8585
4.85848
4.85848
4.85849
4.86542
4.8654
4.86537
4.86533
4.86811
4.86853
4.86863
4.86841
4.90486
4.90486
4.90482
4.90474
4.96894
4.97139
4.97131
4.9687
5.1849
5.18265
5.18174
5.18176
6.64677
6.64688
6.64689
6.64678
6.22397
6.22429
6.22428
6.22396
4.95206
4.95231
4.95213
4.95152
4.88231
4.88238
4.88234
4.88218
4.85766
4.85769
4.85769
4.85768
4.8622
4.8622
4.86218
4.86215
4.86224
4.86253
4.86259
4.8624
4.89339
4.89362
4.89362
4.8934
4.95328
4.95571
4.95559
4.95289
5.16695
5.16561
5.16485
5.16423
6.36979
6.37004
6.37005
6.36985
5.96818
5.96841
5.96836
5.9681
4.94847
4.94865
4.94845
4.94789
4.88192
4.88206
4.88203
4.88184
4.85806
4.85812
4.85813
4.85809
4.86055
4.86057
4.86057
4.86055
4.85953
4.85973
4.85975
4.85961
4.88516
4.88554
4.88558
4.88527
4.94146
4.944
4.94389
4.94109
5.15219
5.15187
5.15132
5.15005
6.08282
6.08319
6.0832
6.08292
5.70234
5.70245
5.70239
5.7022
4.94522
4.94539
4.94521
4.94468
4.88122
4.88147
4.88146
4.8812
4.85889
4.85899
4.859
4.85893
4.8597
4.85973
4.85974
4.85973
4.85836
4.85847
4.85848
4.85838
4.87749
4.87794
4.87799
4.87766
4.92865
4.93131
4.93124
4.9284
5.13589
5.13679
5.13651
5.13455
5.78639
5.78684
5.78686
5.78655
5.42738
5.42735
5.42726
5.42716
4.94102
4.9414
4.94129
4.94068
4.8796
4.87994
4.87993
4.87961
4.85949
4.8596
4.85962
4.85953
4.85937
4.85941
4.85943
4.85943
4.85809
4.85814
4.85813
4.85809
4.86959
4.86999
4.87005
4.86977
4.91184
4.91425
4.91423
4.91175
5.1094
5.11181
5.11188
5.10906
5.4814
5.48192
5.48195
5.48161
5.14313
5.14289
5.1428
5.14287
4.92736
4.92824
4.92822
4.92726
4.87563
4.87587
4.87585
4.87559
4.85964
4.85972
4.85972
4.85966
4.85959
4.85962
4.85964
4.85964
4.85863
4.85864
4.85864
4.85863
4.86303
4.86326
4.8633
4.86316
4.89061
4.89177
4.89174
4.89053
5.04775
5.05129
5.05161
5.04817
5.16797
5.16853
5.16854
5.16816
10.1125
9.36664
9.05455
8.94202
8.87753
8.83206
8.80178
8.78475
8.7753
8.76969
103.668
49.1157
35.7458
29.9512
24.5545
19.9477
16.3624
13.6892
11.7817
10.4197
160.936
70.8542
51.0904
43.7399
37.1894
31.4244
26.5929
22.7131
19.6699
17.2955
206.4
82.5852
55.9779
46.7244
39.3589
32.7644
27.2275
22.835
19.4443
16.857
242.028
88.9399
58.8212
47.9609
40.073
32.7327
26.6743
21.9531
18.3674
15.7229
278.004
94.6787
60.9685
48.2969
39.8396
31.7821
25.3489
20.4627
16.881
14.3308
307.065
98.1472
61.6843
47.7746
39.0386
30.5135
23.939
19.0714
15.5932
13.2101
315.189
93.7431
56.6226
42.2217
33.9105
25.7814
19.9204
15.7948
13.045
11.229
224.464
56.1283
30.5401
21.1134
16.2809
12.2224
9.9542
8.61258
7.8039
7.28003
9.56899
9.54429
9.3889
9.36275
9.31618
9.29006
9.26932
9.25828
9.25084
9.24443
9.36699
9.05687
8.90465
8.81904
8.7651
8.72947
8.70633
8.69258
8.68518
8.6805
53.1023
28.6726
22.5584
19.4504
16.6692
14.1982
12.1636
10.6012
9.46157
8.66942
89.9927
46.2746
35.8018
31.0217
27.182
23.51
20.2919
17.6334
15.5056
13.8866
122.252
58.6082
42.8635
35.6332
30.5496
25.7663
21.6964
18.4238
15.8742
13.988
152.543
68.7603
47.8527
38.5175
32.3821
26.6764
21.9762
18.2977
15.4859
13.4763
186.416
78.8657
52.1394
40.4712
33.2538
26.6662
21.4518
17.4946
14.591
12.5915
217.183
86.4633
54.7062
41.2441
33.3477
26.1729
20.6948
16.659
13.7698
11.8533
233.18
86.7396
51.911
37.4783
29.5725
22.573
17.5713
14.0818
11.7626
10.283
167.398
54.7489
29.0582
19.3766
14.6925
11.2251
9.27373
8.1291
7.43341
7.00281
9.81827
9.50171
9.33057
9.2673
9.21241
9.17915
9.15501
9.14026
9.12988
9.12088
8.7376
8.69619
8.66345
8.63622
8.61491
8.59945
8.58913
8.58295
8.57953
8.57708
19.9496
16.5785
14.5045
12.6857
11.1157
9.81253
8.79821
8.04935
7.51064
7.138
35.9216
28.7144
24.9271
21.6908
18.9151
16.507
14.5121
12.908
11.6328
10.671
51.0363
37.9362
31.5406
26.3502
22.2594
18.8403
16.0974
13.9485
12.2894
11.0758
66.1241
45.6894
36.6273
29.5916
24.3776
20.1245
16.813
14.2905
12.3795
11.0268
83.2188
53.3382
41.1393
32.0805
25.7323
20.6593
16.8407
14.0195
11.974
10.5811
99.1144
59.1827
44.1436
33.4527
26.3318
20.702
16.5955
13.6531
11.57
10.1994
108.409
59.7496
42.5925
30.9947
23.7598
18.2146
14.4225
11.8557
10.1699
9.09759
75.935
36.6432
23.8643
16.27
12.2237
9.6813
8.28911
7.47119
6.96257
6.64336
9.57121
9.37675
9.2428
9.16296
9.10535
9.06932
9.04424
9.02715
9.0145
9.00362
8.50918
8.49911
8.48806
8.47812
8.47058
8.46545
8.46225
8.46061
8.46022
8.45977
10.9422
10.1347
9.28543
8.44075
7.7334
7.19059
6.79176
6.50374
6.29521
6.15012
19.8688
18.0303
16.1782
14.305
12.6892
11.361
10.2997
9.46406
8.80494
8.31041
28.4779
24.6336
21.1905
17.9887
15.4009
13.329
11.7056
10.4529
9.49468
8.79964
37.2418
30.6652
25.4295
20.8621
17.3665
14.6396
12.5632
11.0097
9.84229
9.01829
47.4669
36.9672
29.5207
23.357
18.8627
15.4385
12.9146
11.0861
9.77452
8.88404
57.0636
42.0705
32.5474
25.009
19.7565
15.8292
13.0255
11.0606
9.68071
8.76959
62.7923
43.2575
32.0824
23.7076
18.232
14.3042
11.6785
9.9404
8.80257
8.06988
42.7394
26.1989
17.9689
12.7892
10.0222
8.39059
7.47274
6.91825
6.55959
6.32909
9.32658
9.18802
9.08087
9.0112
8.96297
8.93132
8.90857
8.89224
8.87992
8.8695
8.33323
8.33174
8.33023
8.32905
8.32835
8.32805
8.32808
8.32854
8.32965
8.33069
6.99915
6.7592
6.50618
6.26768
6.06929
5.91285
5.79249
5.70086
5.63154
5.58357
11.6116
10.9261
10.1522
9.37447
8.68766
8.11543
7.65631
7.29484
7.00646
6.78858
16.4401
14.9576
13.3757
11.8597
10.5723
9.5221
8.69406
8.05602
7.56789
7.21522
21.5357
18.9338
16.3571
14.011
12.1127
10.6146
9.47271
8.62405
7.98408
7.52981
27.7661
23.4416
19.5061
16.0852
13.4425
11.4213
9.93304
8.86347
8.09596
7.57225
33.7326
27.3785
22.0617
17.6391
14.3773
11.9538
10.2298
9.03364
8.18814
7.62174
37.39
28.7852
22.2576
17.1509
13.634
11.1573
9.50804
8.42124
7.70014
7.22533
24.5244
17.3308
12.8068
9.95563
8.36278
7.40446
6.82981
6.46699
6.22055
6.05888
9.05243
8.96933
8.89772
8.84664
8.8092
8.78239
8.76217
8.74698
8.73525
8.72548
8.1832
8.18335
8.18372
8.1843
8.18503
8.18582
8.18662
8.18761
8.1891
8.19087
5.60817
5.56505
5.51368
5.46147
5.41425
5.37378
5.34029
5.31335
5.29281
5.27985
7.50479
7.31394
7.0655
6.8061
6.57089
6.37276
6.21274
6.08499
5.97845
5.89555
9.9778
9.4721
8.85077
8.22754
7.67885
7.22461
6.86273
6.58046
6.36064
6.20101
12.7359
11.7738
10.6609
9.5992
8.70679
7.99563
7.45068
7.04333
6.72849
6.50072
16.3265
14.6083
12.7519
11.0598
9.69772
8.64791
7.87064
7.30853
6.89784
6.61371
19.8631
17.2438
14.5809
12.2661
10.4862
9.16006
8.2117
7.55013
7.07005
6.74031
22.116
18.4166
14.9946
12.222
10.2369
8.84136
7.90126
7.27188
6.84168
6.55081
14.3917
11.536
9.42635
8.05104
7.21538
6.67974
6.33274
6.10287
5.93857
5.82933
8.79735
8.75123
8.70702
8.67154
8.6432
8.62118
8.60378
8.59019
8.57944
8.57062
8.03244
8.03277
8.03333
8.03409
8.03494
8.03579
8.0366
8.03754
8.03895
8.04075
5.19679
5.18866
5.17899
5.16832
5.15768
5.14766
5.13875
5.13136
5.12633
5.12445
5.83888
5.79302
5.73062
5.66349
5.60114
5.54764
5.50368
5.4673
5.43353
5.4054
6.95016
6.79216
6.58433
6.36822
6.17141
6.0034
5.86479
5.7524
5.6614
5.59463
8.29788
7.96305
7.54412
7.13184
6.77519
6.48494
6.25701
6.08171
5.93897
5.83221
10.2205
9.55305
8.76868
8.03108
7.41903
6.93857
6.57427
6.30312
6.09745
5.95245
12.1897
11.1246
9.92373
8.84838
7.99499
7.34945
6.87711
6.5388
6.28138
6.09861
13.5183
11.9485
10.338
8.99795
8.0039
7.29162
6.79578
6.45176
6.20684
6.03703
9.42495
8.385
7.50643
6.88424
6.46163
6.16824
5.96313
5.82092
5.71395
5.64245
8.56182
8.53729
8.51056
8.48627
8.46521
8.4477
8.43324
8.42155
8.41208
8.40443
7.87422
7.87448
7.8749
7.87547
7.87612
7.87675
7.87733
7.87803
7.87919
7.88078
5.06301
5.06125
5.05928
5.05693
5.0543
5.05154
5.04895
5.04691
5.04618
5.04711
5.23571
5.22729
5.21555
5.20241
5.19002
5.17953
5.17123
5.16412
5.15522
5.14651
5.69452
5.65156
5.59152
5.5255
5.46191
5.40449
5.35432
5.31131
5.27486
5.24804
6.2874
6.18735
6.05362
5.9158
5.79089
5.6845
5.59701
5.52664
5.4649
5.4167
7.22114
6.98818
6.69939
6.41647
6.17122
5.97026
5.81052
5.68587
5.58675
5.51586
8.2288
7.83596
7.36064
6.91929
6.55403
6.26674
6.04677
5.88225
5.74912
5.65109
8.98445
8.36784
7.69519
7.1133
6.65994
6.32026
6.07142
5.89055
5.75616
5.6613
7.18543
6.82286
6.46871
6.18799
5.97524
5.81562
5.69608
5.60974
5.5414
5.49588
8.337
8.32365
8.30729
8.29084
8.27555
8.26209
8.25053
8.24087
8.23284
8.22646
7.70623
7.70641
7.70668
7.70706
7.70749
7.70789
7.70824
7.70868
7.70956
7.7109
5.01332
5.01257
5.01183
5.01099
5.01
5.00889
5.00785
5.00715
5.0074
5.00867
5.02007
5.01901
5.01788
5.0167
5.01593
5.01586
5.01655
5.01722
5.01574
5.01323
5.2059
5.19458
5.17773
5.15779
5.13722
5.1174
5.09898
5.08225
5.06751
5.05676
5.46136
5.43456
5.39592
5.35328
5.31204
5.27481
5.24257
5.21539
5.18921
5.1676
5.89258
5.81782
5.72084
5.6195
5.52583
5.44427
5.3756
5.31917
5.27225
5.23858
6.38034
6.25228
6.08368
5.91726
5.77037
5.64771
5.5483
5.47028
5.40273
5.35103
6.80383
6.58056
6.32391
6.08725
5.89016
5.73338
5.61194
5.51948
5.4481
5.39736
6.17778
6.04648
5.90069
5.77157
5.66397
5.57732
5.50831
5.45663
5.41355
5.3852
8.11402
8.1065
8.09644
8.08548
8.07466