/*--------------------------------*- C++ -*----------------------------------*\
| =========                 |                                                 |
| \\      /  F ield         | foam-extend: Open Source CFD                    |
|  \\    /   O peration     | Version:     4.0                                |
|   \\  /    A nd           | Web:         http://www.foam-extend.org         |
|    \\/     M anipulation  |                                                 |
\*---------------------------------------------------------------------------*/
FoamFile
{
    version     2.0;
    format      ascii;
    class       volScalarField;
    location    "1700";
    object      MaU;
}
// * * * * * * * * * * * * * * * * * * * * * * * * * * * * * * * * * * * * * //

dimensions      [0 0 0 0 0 0 0];

internalField   nonuniform List<scalar> 
34480
(
0.623746
0.624744
0.62528
0.625394
0.625089
0.624291
0.62286
0.620115
0.614022
0.608228
0.627174
0.628002
0.628464
0.628496
0.627938
0.626644
0.62464
0.621676
0.614657
0.609103
0.629369
0.630129
0.630502
0.63041
0.629674
0.628326
0.626551
0.624257
0.617221
0.612102
0.629369
0.63015
0.630592
0.630631
0.63012
0.629176
0.627902
0.626322
0.619675
0.615031
0.629834
0.63072
0.631303
0.631561
0.631374
0.630908
0.630181
0.629372
0.623511
0.619353
0.629433
0.630377
0.631045
0.631434
0.631484
0.631425
0.631233
0.631247
0.626569
0.623231
0.62964
0.630727
0.631502
0.632033
0.632293
0.632575
0.632879
0.633711
0.630479
0.627943
0.629053
0.630181
0.630914
0.63133
0.631476
0.631712
0.632167
0.633538
0.631822
0.630473
0.628808
0.630093
0.630939
0.63149
0.631812
0.632208
0.632912
0.634778
0.634332
0.632891
0.625007
0.626035
0.626076
0.625201
0.623582
0.621597
0.619697
0.619152
0.618353
0.619144
0.613854
0.615317
0.61589
0.615643
0.614499
0.612185
0.608071
0.600803
0.590093
0.576238
0.618475
0.619784
0.62031
0.620049
0.618807
0.616212
0.611671
0.603823
0.591163
0.575004
0.621553
0.622777
0.62325
0.622955
0.621639
0.618998
0.614527
0.606841
0.593337
0.575999
0.622365
0.623602
0.62414
0.623979
0.622871
0.620574
0.616503
0.609247
0.595353
0.577596
0.623511
0.624823
0.625479
0.625524
0.624717
0.622873
0.619323
0.612711
0.598913
0.581313
0.623649
0.625004
0.625741
0.625923
0.625352
0.623924
0.62092
0.615096
0.601848
0.585038
0.624304
0.625767
0.626599
0.626927
0.626573
0.625517
0.62305
0.618079
0.60576
0.590024
0.624038
0.625531
0.626332
0.626577
0.626168
0.625175
0.622999
0.618746
0.607614
0.593568
0.62404
0.625639
0.626532
0.626891
0.626661
0.625901
0.624116
0.620609
0.610735
0.59749
0.620431
0.621846
0.622183
0.621523
0.619921
0.617528
0.61407
0.609262
0.599863
0.589741
0.606231
0.607798
0.608363
0.608043
0.606802
0.604483
0.600789
0.595222
0.587149
0.576959
0.611136
0.612671
0.613229
0.612852
0.611421
0.608671
0.604096
0.596838
0.585447
0.570288
0.614486
0.616019
0.616572
0.616192
0.614697
0.611767
0.606784
0.598619
0.584601
0.564778
0.615791
0.617386
0.618017
0.61775
0.616383
0.613595
0.608607
0.600016
0.583847
0.559919
0.617413
0.619098
0.619838
0.619753
0.618617
0.616136
0.611386
0.602778
0.58511
0.557895
0.61797
0.619712
0.620538
0.620585
0.619652
0.617493
0.613087
0.604758
0.586204
0.556621
0.618986
0.620823
0.621739
0.621933
0.621201
0.619368
0.615371
0.607517
0.588652
0.557404
0.619021
0.620883
0.621784
0.621923
0.621164
0.619418
0.615692
0.608366
0.589714
0.557626
0.61928
0.621206
0.622178
0.622406
0.621778
0.620224
0.61686
0.610197
0.592189
0.5587
0.615913
0.617669
0.618228
0.617697
0.61606
0.613317
0.608806
0.601373
0.58392
0.550846
0.600675
0.602049
0.602521
0.602213
0.601122
0.59919
0.596321
0.592416
0.587457
0.581927
0.605314
0.606779
0.607289
0.606881
0.605481
0.602944
0.59902
0.593366
0.585539
0.576611
0.608511
0.610096
0.610641
0.610201
0.60865
0.605761
0.601108
0.594065
0.58347
0.570531
0.610013
0.611736
0.61237
0.611995
0.61045
0.607462
0.602414
0.594369
0.581116
0.563901
0.611903
0.613753
0.614492
0.614251
0.61283
0.609943
0.604786
0.596152
0.580648
0.559438
0.612749
0.614684
0.615509
0.615377
0.614086
0.611367
0.606266
0.597373
0.580075
0.555388
0.614039
0.61607
0.616978
0.616975
0.615839
0.613341
0.608424
0.599531
0.580954
0.553323
0.614329
0.616386
0.617291
0.617251
0.616097
0.61365
0.608866
0.600143
0.580874
0.550985
0.614811
0.616904
0.61786
0.617896
0.616847
0.614536
0.609939
0.601551
0.582255
0.54983
0.611691
0.61363
0.614298
0.613793
0.612039
0.608914
0.603552
0.594557
0.575454
0.541829
0.596815
0.597897
0.598258
0.598021
0.597207
0.595823
0.593887
0.591467
0.588713
0.585995
0.600897
0.602138
0.60257
0.602214
0.601039
0.598994
0.596009
0.592062
0.587212
0.582423
0.60364
0.605113
0.605619
0.605201
0.603785
0.601248
0.597378
0.591959
0.584713
0.577089
0.605072
0.606766
0.607378
0.606975
0.605447
0.602606
0.598065
0.591366
0.581581
0.57053
0.607001
0.608882
0.609601
0.609282
0.607765
0.604821
0.599872
0.592211
0.580035
0.565397
0.607976
0.609985
0.610797
0.610555
0.609083
0.606135
0.600959
0.592629
0.578309
0.560189
0.609413
0.611541
0.612436
0.612298
0.610919
0.608059
0.602822
0.594091
0.577988
0.556609
0.60988
0.612049
0.612953
0.61279
0.611384
0.608515
0.603238
0.59432
0.576945
0.552722
0.610533
0.612728
0.613672
0.613568
0.612237
0.609456
0.604232
0.595282
0.577275
0.549979
0.607641
0.609695
0.610443
0.609959
0.608141
0.604798
0.59905
0.589575
0.571343
0.541967
0.594174
0.594978
0.595236
0.595073
0.59452
0.59361
0.59239
0.590955
0.589438
0.587987
0.597659
0.598617
0.598955
0.598678
0.597781
0.596268
0.594161
0.591558
0.588661
0.58608
0.599831
0.601083
0.601517
0.60116
0.599975
0.59792
0.594938
0.591047
0.586358
0.581929
0.601023
0.602559
0.603112
0.602731
0.601347
0.59886
0.595088
0.589906
0.583124
0.576283
0.602817
0.604594
0.60526
0.604916
0.603444
0.600695
0.596324
0.590026
0.581103
0.571518
0.603778
0.605733
0.606501
0.606198
0.604686
0.601778
0.596964
0.589757
0.578753
0.566283
0.60525
0.607358
0.608211
0.607982
0.606493
0.603539
0.598453
0.590562
0.577676
0.562299
0.605805
0.607979
0.608856
0.608604
0.607067
0.604031
0.598743
0.590383
0.57599
0.557871
0.606576
0.60878
0.60969
0.609483
0.607986
0.604978
0.599623
0.590964
0.575593
0.554481
0.603877
0.605955
0.606738
0.60627
0.604441
0.601039
0.595294
0.58614
0.570268
0.546942
0.592359
0.592946
0.593123
0.593021
0.59267
0.592108
0.591377
0.590556
0.589725
0.588895
0.595326
0.596016
0.596263
0.596066
0.59543
0.594381
0.592976
0.591329
0.589628
0.588228
0.596929
0.59792
0.598269
0.597989
0.597066
0.595506
0.593335
0.590663
0.587714
0.585148
0.59781
0.599111
0.599584
0.599255
0.598089
0.596053
0.593101
0.589287
0.584751
0.580556
0.599353
0.600933
0.601522
0.601194
0.59987
0.597475
0.593847
0.58894
0.582662
0.576494
0.600196
0.601995
0.602692
0.602373
0.600939
0.598271
0.594076
0.588181
0.580098
0.571728
0.601609
0.603597
0.604383
0.604108
0.602631
0.599804
0.59519
0.588467
0.578644
0.567931
0.602169
0.60425
0.605073
0.604773
0.60322
0.600241
0.595302
0.587939
0.576624
0.563582
0.603005
0.605133
0.605988
0.605717
0.60417
0.601158
0.596054
0.588234
0.575831
0.560245
0.600457
0.602476
0.603255
0.602807
0.60103
0.597731
0.59231
0.584009
0.570965
0.55345
0.591081
0.591517
0.591636
0.591577
0.591365
0.591032
0.590608
0.590145
0.589681
0.58915
0.593651
0.594121
0.594293
0.594161
0.593734
0.593043
0.592144
0.591131
0.590138
0.589361
0.594754
0.595493
0.595758
0.595552
0.594874
0.59375
0.592239
0.590465
0.588632
0.587134
0.595325
0.596366
0.59675
0.596486
0.595561
0.593981
0.591778
0.589073
0.586097
0.583529
0.596565
0.597896
0.598393
0.598106
0.596987
0.595015
0.59215
0.588479
0.584172
0.580236
0.597226
0.5988
0.599407
0.599105
0.597829
0.59552
0.592051
0.587436
0.581672
0.57613
0.598518
0.600308
0.601007
0.600723
0.599352
0.596805
0.592841
0.587375
0.580135
0.572806
0.599009
0.600917
0.601664
0.601349
0.599875
0.597124
0.592762
0.586592
0.578024
0.568862
0.59987
0.601847
0.602626
0.602327
0.600828
0.597989
0.593392
0.586698
0.57709
0.565952
0.597432
0.599316
0.600057
0.599638
0.597975
0.594914
0.590038
0.582886
0.572616
0.559985
0.590148
0.590486
0.590567
0.590535
0.590411
0.590219
0.589978
0.589719
0.589453
0.589075
0.592435
0.592743
0.592859
0.592775
0.592501
0.592063
0.591505
0.590894
0.590315
0.589877
0.593131
0.593656
0.593847
0.593704
0.593229
0.592454
0.59144
0.590292
0.589165
0.588285
0.593442
0.594235
0.594533
0.594333
0.593634
0.592465
0.590883
0.58902
0.587092
0.585518
0.594373
0.595442
0.595844
0.595608
0.59471
0.593162
0.590993
0.588336
0.585431
0.58293
0.594828
0.596142
0.596651
0.596385
0.595308
0.593408
0.590662
0.587178
0.583152
0.579516
0.595968
0.597512
0.598111
0.597844
0.59664
0.594461
0.591207
0.586931
0.581723
0.576779
0.596333
0.598011
0.598666
0.598362
0.597037
0.594621
0.590946
0.585988
0.57968
0.573364
0.597194
0.598962
0.59965
0.599353
0.597976
0.595434
0.591485
0.586002
0.578788
0.571027
0.594827
0.596516
0.597193
0.596813
0.595313
0.59259
0.588389
0.582487
0.574671
0.565845
0.589439
0.589716
0.589773
0.589757
0.589686
0.589578
0.589442
0.589297
0.589138
0.588841
0.591535
0.591732
0.591809
0.591758
0.591587
0.591317
0.590979
0.590616
0.590277
0.590023
0.591913
0.59227
0.592403
0.592307
0.591987
0.591472
0.590812
0.590086
0.589398
0.588878
0.592037
0.592616
0.592837
0.592693
0.592188
0.591355
0.590256
0.589005
0.587767
0.5868
0.592682
0.593504
0.593815
0.593632
0.592943
0.591777
0.590193
0.588324
0.586391
0.584807
0.592937
0.593989
0.594399
0.594178
0.593311
0.591814
0.58972
0.587171
0.584405
0.582038
0.59392
0.5952
0.595696
0.595462
0.594454
0.592671
0.590104
0.586871
0.583197
0.579898
0.594122
0.595539
0.596093
0.595819
0.594681
0.592654
0.589682
0.585841
0.581303
0.577019
0.594976
0.596498
0.597087
0.596813
0.595607
0.593432
0.590178
0.585854
0.580577
0.575281
0.592647
0.594103
0.594697
0.594364
0.593062
0.590734
0.587253
0.582565
0.576785
0.570777
0.588882
0.58912
0.589162
0.589155
0.589115
0.589054
0.588978
0.588896
0.588796
0.588546
0.590856
0.59098
0.59103
0.591
0.590897
0.590734
0.590533
0.590317
0.590117
0.589966
0.590983
0.591218
0.591306
0.591244
0.591036
0.590704
0.590285
0.589834
0.589418
0.58911
0.590999
0.591406
0.591566
0.591467
0.591115
0.59054
0.589798
0.588974
0.588187
0.587591
0.591395
0.592003
0.592235
0.592099
0.591591
0.590745
0.589623
0.588341
0.587072
0.586072
0.591478
0.592287
0.592604
0.592431
0.591761
0.590625
0.589082
0.587268
0.585397
0.583866
0.59232
0.593341
0.593737
0.593544
0.592736
0.591336
0.589381
0.587008
0.584462
0.582283
0.592334
0.593485
0.593936
0.593703
0.592767
0.591135
0.588818
0.585939
0.582742
0.579878
0.593191
0.594455
0.594941
0.594704
0.593694
0.591908
0.589326
0.586031
0.582259
0.578706
0.590876
0.592081
0.592582
0.592301
0.591213
0.589297
0.586517
0.582921
0.578754
0.574757
0.588434
0.588646
0.588677
0.588676
0.588653
0.588619
0.588576
0.588529
0.588463
0.588242
0.590333
0.590412
0.590446
0.590429
0.590368
0.590271
0.590151
0.590024
0.589903
0.589809
0.590255
0.590404
0.59046
0.590421
0.590289
0.590081
0.589821
0.589546
0.589298
0.589116
0.590238
0.590517
0.590628
0.590563
0.590326
0.589941
0.589451
0.588918
0.588421
0.588053
0.590425
0.590858
0.591025
0.590928
0.590566
0.589972
0.5892
0.58834
0.587518
0.58689
0.590372
0.590971
0.591209
0.591078
0.59058
0.589749
0.588645
0.587386
0.586138
0.585156
0.591103
0.591888
0.592194
0.592043
0.591421
0.590361
0.58892
0.587226
0.58549
0.584063
0.590914
0.591813
0.592167
0.591978
0.59124
0.589975
0.588229
0.586136
0.583927
0.582041
0.591802
0.592815
0.593202
0.593008
0.592195
0.590787
0.588809
0.586376
0.583735
0.581387
0.589478
0.590435
0.590843
0.590614
0.589738
0.58822
0.586076
0.583406
0.580472
0.57787
0.588067
0.588259
0.588283
0.588284
0.588271
0.588253
0.588228
0.588201
0.588155
0.587955
0.589931
0.589983
0.590006
0.589997
0.589961
0.589904
0.589833
0.589757
0.589681
0.589618
0.589665
0.589756
0.58979
0.589766
0.589684
0.589556
0.589399
0.589235
0.58909
0.588984
0.589686
0.589872
0.589949
0.589907
0.589752
0.589501
0.589184
0.588844
0.588532
0.588304
0.589696
0.589994
0.59011
0.590043
0.589794
0.589389
0.588871
0.588308
0.587783
0.587392
0.589547
0.589976
0.590148
0.590053
0.589696
0.589107
0.588341
0.587487
0.586667
0.586042
0.590201
0.590785
0.591012
0.590899
0.590438
0.589664
0.588635
0.587456
0.586292
0.585366
0.589801
0.590476
0.590744
0.590597
0.590036
0.589091
0.587818
0.58634
0.584843
0.583619
0.590761
0.591546
0.591843
0.591691
0.591064
0.589994
0.58853
0.586785
0.584975
0.583441
0.588406
0.589134
0.589454
0.589274
0.588595
0.587436
0.585837
0.583916
0.581897
0.58024
0.587762
0.587939
0.587956
0.587959
0.587951
0.587941
0.587927
0.587911
0.587878
0.587695
0.589631
0.589667
0.589684
0.58968
0.589659
0.589625
0.589582
0.589535
0.589485
0.589438
0.589168
0.589221
0.58924
0.589224
0.589175
0.589098
0.589006
0.588911
0.588828
0.588769
0.589292
0.589414
0.589466
0.589441
0.589342
0.589182
0.588981
0.588767
0.588571
0.588429
0.58915
0.589348
0.589426
0.58938
0.589214
0.588946
0.588608
0.588247
0.587917
0.587677
0.588944
0.589241
0.589361
0.589295
0.589048
0.588643
0.588125
0.587559
0.587028
0.586635
0.58955
0.589969
0.590134
0.590052
0.589723
0.589176
0.588463
0.587664
0.586898
0.5863
0.58893
0.589418
0.589613
0.589503
0.589092
0.588411
0.587511
0.586497
0.585502
0.584721
0.590018
0.590606
0.590827
0.590713
0.590247
0.589464
0.588416
0.5872
0.585984
0.584993
0.587603
0.588132
0.588373
0.588238
0.587731
0.586877
0.585725
0.584384
0.583025
0.581995
0.587501
0.587661
0.587674
0.587677
0.587672
0.587667
0.587659
0.587649
0.587625
0.58746
0.589426
0.589454
0.589468
0.589466
0.589454
0.589433
0.589406
0.589375
0.589338
0.589298
0.588732
0.58876
0.588769
0.588758
0.588728
0.588683
0.588631
0.588578
0.588535
0.588505
0.589019
0.589098
0.589133
0.589119
0.589058
0.588958
0.588832
0.588699
0.588577
0.588486
0.588745
0.588872
0.588922
0.588892
0.588784
0.588611
0.588396
0.58817
0.587966
0.587823
0.588516
0.588715
0.588797
0.588752
0.588586
0.588317
0.587975
0.587609
0.587269
0.587025
0.589094
0.589385
0.589499
0.589442
0.589215
0.588842
0.588362
0.587835
0.587342
0.58696
0.588242
0.58858
0.588717
0.588638
0.588348
0.587874
0.587257
0.586579
0.585931
0.585444
0.589528
0.589955
0.590112
0.590031
0.589698
0.589146
0.588419
0.587596
0.586797
0.586161
0.587001
0.587368
0.587544
0.587446
0.587081
0.586475
0.58567
0.584763
0.583868
0.583248
0.587244
0.587387
0.587395
0.587397
0.587395
0.587392
0.587388
0.587382
0.587366
0.58722
0.589324
0.589348
0.58936
0.58936
0.589352
0.589339
0.589321
0.589298
0.589268
0.589228
0.588334
0.588346
0.588348
0.58834
0.588322
0.588297
0.588268
0.588242
0.588222
0.588212
0.588843
0.588894
0.588917
0.588909
0.588872
0.588811
0.588734
0.588652
0.588577
0.588519
0.588456
0.588535
0.588566
0.588547
0.588479
0.588371
0.588237
0.588098
0.587975
0.587891
0.588233
0.588364
0.588418
0.58839
0.588282
0.588107
0.587888
0.587654
0.58744
0.58729
0.588788
0.588981
0.589056
0.589017
0.588866
0.58862
0.588308
0.58797
0.587662
0.587422
0.587692
0.587918
0.588012
0.587957
0.58776
0.58744
0.587029
0.586587
0.58617
0.585877
0.589255
0.589556
0.589665
0.589609
0.58938
0.589004
0.588517
0.587975
0.587463
0.587055
0.586514
0.586756
0.586881
0.586813
0.58656
0.586145
0.5856
0.585005
0.584427
0.584069
0.586892
0.587014
0.587018
0.58702
0.587019
0.587018
0.587017
0.587014
0.587005
0.586881
0.589348
0.589373
0.589383
0.589385
0.58938
0.58937
0.589356
0.589337
0.589309
0.589265
0.587974
0.587976
0.587975
0.587969
0.587959
0.587945
0.58793
0.587918
0.58791
0.587913
0.588746
0.588778
0.588791
0.588786
0.588764
0.588728
0.588682
0.588634
0.58859
0.588553
0.588275
0.588323
0.588343
0.588332
0.58829
0.588224
0.588142
0.588058
0.587984
0.587936
0.588085
0.588169
0.588205
0.588188
0.58812
0.588009
0.587871
0.587725
0.587591
0.587497
0.588601
0.588722
0.588769
0.588743
0.588645
0.588487
0.588291
0.588082
0.587897
0.587752
0.587278
0.587424
0.587489
0.587454
0.587324
0.587113
0.586845
0.586562
0.586294
0.586123
0.589193
0.589399
0.589472
0.589434
0.589282
0.589035
0.588719
0.588373
0.588055
0.587789
0.586006
0.586158
0.586246
0.586199
0.586031
0.585755
0.585397
0.585017
0.584646
0.584454
0.586224
0.586319
0.586321
0.586322
0.586323
0.586323
0.586324
0.586324
0.586322
0.586227
0.589569
0.589595
0.589603
0.589604
0.5896
0.589593
0.589582
0.589567
0.589542
0.58949
0.587697
0.587698
0.5877
0.587699
0.587693
0.587685
0.587675
0.587666
0.58766
0.587666
0.588712
0.588728
0.588733
0.588728
0.588714
0.588694
0.588669
0.588643
0.588622
0.588603
0.588201
0.588232
0.588246
0.58824
0.588215
0.588175
0.588125
0.588074
0.588028
0.587998
0.588064
0.588119
0.588142
0.588132
0.58809
0.588021
0.587935
0.587844
0.587759
0.587699
0.58852
0.588589
0.588616
0.588597
0.588535
0.588437
0.588317
0.588193
0.588088
0.588007
0.587075
0.587174
0.58722
0.5872
0.587117
0.58698
0.586807
0.586623
0.586443
0.586338
0.589397
0.58953
0.589576
0.58955
0.589451
0.589292
0.589094
0.58888
0.588691
0.588517
0.585247
0.585341
0.585403
0.585373
0.585263
0.585083
0.584852
0.584613
0.584369
0.584276
0.584929
0.584994
0.584998
0.585
0.585001
0.585002
0.585002
0.585001
0.585
0.584933
0.590125
0.590142
0.590139
0.590134
0.590129
0.590125
0.590122
0.590119
0.590109
0.590059
0.587618
0.587632
0.587644
0.58765
0.587649
0.587642
0.587631
0.587615
0.587597
0.587588
0.588712
0.588714
0.588712
0.588706
0.588696
0.588685
0.588673
0.588663
0.588659
0.588656
0.588219
0.588241
0.588251
0.588249
0.588234
0.588209
0.588177
0.588143
0.588112
0.58809
0.588139
0.588176
0.588192
0.588186
0.58816
0.588116
0.588061
0.588003
0.587948
0.587906
0.588521
0.588558
0.588572
0.588558
0.588518
0.588455
0.588381
0.588307
0.58825
0.588212
0.58724
0.587317
0.587353
0.587342
0.587288
0.587198
0.587082
0.586957
0.586824
0.586737
0.589989
0.590064
0.590089
0.590068
0.590002
0.589899
0.589774
0.589645
0.589544
0.589447
0.583964
0.584028
0.584072
0.584053
0.58398
0.58386
0.583708
0.583552
0.583382
0.583335
0.583107
0.583147
0.58316
0.583167
0.583169
0.583167
0.58316
0.583147
0.58313
0.583075
0.591051
0.591022
0.590993
0.590973
0.590964
0.590965
0.590977
0.591
0.591033
0.591044
0.587802
0.587838
0.587862
0.587874
0.587876
0.58787
0.587855
0.58783
0.587794
0.587751
0.588703
0.588694
0.588687
0.58868
0.588673
0.588665
0.58866
0.588658
0.588665
0.588678
0.588274
0.588292
0.588301
0.588299
0.588289
0.588271
0.588248
0.588224
0.5882
0.58818
0.588236
0.588263
0.588275
0.58827
0.588251
0.58822
0.588181
0.588139
0.5881
0.588068
0.588542
0.588564
0.588573
0.588562
0.588532
0.588487
0.588434
0.588383
0.588347
0.588334
0.58776
0.587831
0.587862
0.587855
0.587816
0.587749
0.587664
0.587568
0.587459
0.58736
0.590947
0.590975
0.590986
0.590967
0.590917
0.590841
0.590751
0.590668
0.590621
0.590619
0.582278
0.582335
0.582368
0.582354
0.582298
0.58221
0.582098
0.581982
0.581854
0.581813
0.439172
0.418419
0.425322
0.466278
0.391396
0.368156
0.379193
0.436427
0.348212
0.321063
0.338397
0.417318
0.310148
0.280749
0.305079
0.406405
0.278675
0.248608
0.280172
0.403999
0.251576
0.222058
0.261891
0.401183
0.229862
0.202217
0.25084
0.398554
0.209479
0.185361
0.242822
0.396465
0.191538
0.173516
0.239243
0.398103
0.172077
0.162208
0.234933
0.393611
0.499246
0.489048
0.489372
0.499085
0.468755
0.456139
0.457282
0.469959
0.437883
0.421161
0.423369
0.440941
0.408869
0.387901
0.391493
0.414213
0.384214
0.358748
0.364003
0.392068
0.362173
0.331822
0.337869
0.371196
0.344295
0.308957
0.314838
0.353262
0.327855
0.28772
0.293153
0.336568
0.314315
0.270146
0.275127
0.322936
0.298955
0.252363
0.254959
0.305298
0.566647
0.564432
0.563901
0.565033
0.548884
0.545187
0.544492
0.546792
0.528901
0.523004
0.522195
0.52653
0.506668
0.498399
0.497598
0.504432
0.485676
0.474952
0.474324
0.484058
0.464604
0.451296
0.450886
0.46363
0.44567
0.429695
0.429462
0.445153
0.427038
0.408517
0.408428
0.426885
0.410781
0.39058
0.390537
0.410918
0.391868
0.372156
0.371391
0.391298
0.579114
0.57803
0.577681
0.578031
0.56948
0.568068
0.567577
0.567941
0.557621
0.555136
0.554418
0.555318
0.542853
0.539061
0.538155
0.53988
0.528421
0.52318
0.522161
0.525016
0.512861
0.506045
0.504969
0.509216
0.498262
0.489799
0.488706
0.494546
0.482952
0.472918
0.471866
0.479376
0.468732
0.457754
0.456751
0.465561
0.450894
0.440964
0.439701
0.44805
0.585983
0.585393
0.585193
0.585381
0.580151
0.57967
0.57944
0.579449
0.572672
0.571731
0.571308
0.57138
0.562572
0.560935
0.560282
0.56055
0.552617
0.550111
0.549238
0.549871
0.541325
0.537809
0.536741
0.53792
0.530597
0.525982
0.524763
0.526675
0.518816
0.513126
0.511826
0.514616
0.50765
0.501308
0.500005
0.503579
0.492901
0.487701
0.486271
0.489292
0.588563
0.588087
0.587941
0.588126
0.585112
0.5849
0.584791
0.584783
0.580027
0.579605
0.579388
0.579371
0.572806
0.572043
0.571666
0.571659
0.565754
0.564521
0.563952
0.564009
0.557438
0.55561
0.554836
0.555034
0.549612
0.547095
0.546128
0.546577
0.540717
0.537492
0.536386
0.537205
0.532299
0.528627
0.527482
0.528709
0.52039
0.517838
0.516616
0.517175
0.589688
0.589257
0.589134
0.589321
0.587801
0.587707
0.587656
0.587647
0.584263
0.584067
0.58396
0.583941
0.578896
0.578524
0.578322
0.578286
0.573694
0.573071
0.572742
0.572695
0.567344
0.566386
0.5659
0.565861
0.561504
0.560135
0.559482
0.559494
0.554707
0.552899
0.552104
0.552237
0.548553
0.546434
0.54558
0.545902
0.53888
0.537877
0.536978
0.536536
0.590019
0.589603
0.589489
0.589678
0.589142
0.589094
0.589067
0.589062
0.58668
0.586581
0.586526
0.586516
0.582665
0.582472
0.582363
0.582338
0.578768
0.578437
0.578251
0.578207
0.573808
0.573286
0.572997
0.572933
0.569371
0.56861
0.568202
0.568129
0.564095
0.56307
0.562551
0.562503
0.55969
0.558463
0.557879
0.557899
0.551648
0.551555
0.550958
0.550176
0.589973
0.589562
0.589452
0.589642
0.589757
0.58973
0.589715
0.589712
0.588037
0.587985
0.587955
0.58795
0.585041
0.584936
0.584875
0.584859
0.582121
0.581939
0.581833
0.581803
0.578229
0.577937
0.577767
0.577718
0.574865
0.574431
0.574184
0.574116
0.570721
0.570132
0.569807
0.569736
0.56758
0.566865
0.566486
0.566429
0.560761
0.561189
0.560824
0.559968
0.589745
0.589336
0.589227
0.589418
0.589952
0.589936
0.589926
0.589924
0.588736
0.588706
0.58869
0.588687
0.586521
0.58646
0.586425
0.586415
0.584337
0.584233
0.584172
0.584153
0.581292
0.581123
0.581022
0.58099
0.578788
0.578535
0.578385
0.578336
0.575508
0.575164
0.574964
0.574906
0.573305
0.572882
0.572644
0.572585
0.567428
0.56814
0.567932
0.567097
0.589445
0.589034
0.588925
0.589117
0.589921
0.58991
0.589903
0.589901
0.589027
0.58901
0.589001
0.588999
0.58742
0.587383
0.587362
0.587356
0.58579
0.585728
0.585692
0.585681
0.583418
0.583317
0.583256
0.583235
0.581613
0.581461
0.581368
0.581336
0.578987
0.578782
0.57866
0.578619
0.577521
0.577267
0.577119
0.577075
0.572375
0.573229
0.57312
0.572333
0.589127
0.588714
0.588605
0.588799
0.589777
0.589769
0.589763
0.589761
0.589067
0.589058
0.589053
0.589052
0.587944
0.587921
0.587908
0.587903
0.586717
0.586681
0.586659
0.586652
0.58488
0.584819
0.584781
0.584767
0.583646
0.583551
0.583494
0.583473
0.581503
0.581379
0.581303
0.581276
0.580644
0.580487
0.580395
0.580367
0.576064
0.576971
0.576921
0.576189
0.588819
0.588404
0.588295
0.588491
0.589593
0.589586
0.589581
0.589579
0.588956
0.588952
0.588949
0.58895
0.588233
0.588218
0.588209
0.588206
0.587286
0.587264
0.587251
0.587247
0.58587
0.585832
0.585809
0.5858
0.585099
0.585039
0.585003
0.58499
0.583291
0.583215
0.583168
0.583151
0.582954
0.582856
0.582799
0.582782
0.578807
0.579712
0.579696
0.579021
0.588534
0.588115
0.588008
0.588206
0.589415
0.589408
0.589403
0.5894
0.588756
0.588754
0.588754
0.588755
0.588381
0.58837
0.588364
0.588362
0.587614
0.587601
0.587594
0.587592
0.586527
0.586504
0.586489
0.586483
0.586127
0.58609
0.586067
0.586059
0.584522
0.584476
0.584447
0.584436
0.58466
0.584597
0.584561
0.584554
0.580829
0.581694
0.581695
0.581081
0.588265
0.587844
0.587739
0.58794
0.589274
0.589267
0.589262
0.589259
0.588502
0.588503
0.588503
0.588505
0.588453
0.588446
0.588441
0.588439
0.587786
0.58778
0.587776
0.587775
0.586958
0.586943
0.586934
0.58693
0.586848
0.586825
0.586811
0.586806
0.585327
0.585299
0.585281
0.585273
0.585922
0.58588
0.585858
0.585857
0.582291
0.583088
0.583096
0.582549
0.587982
0.58756
0.587459
0.587665
0.589201
0.589192
0.589186
0.589183
0.588217
0.588219
0.588221
0.588222
0.588496
0.588491
0.588488
0.588486
0.587871
0.587869
0.587867
0.587866
0.587247
0.587238
0.587232
0.587229
0.587352
0.587338
0.58733
0.587327
0.58581
0.585794
0.585782
0.585776
0.586874
0.586844
0.586831
0.586835
0.583292
0.583997
0.584008
0.583533
0.587587
0.587169
0.587076
0.587286
0.589231
0.589221
0.589214
0.589209
0.587923
0.587926
0.587928
0.58793
0.58854
0.588537
0.588535
0.588534
0.587925
0.587924
0.587923
0.587922
0.587468
0.587461
0.587457
0.587455
0.587713
0.587707
0.587704
0.587702
0.586082
0.586071
0.586063
0.586058
0.587645
0.587622
0.587615
0.587623
0.583847
0.584438
0.584447
0.584053
0.586855
0.586453
0.586375
0.586586
0.589445
0.589432
0.589424
0.589419
0.587674
0.587677
0.587678
0.587678
0.5886
0.588599
0.588599
0.588599
0.587989
0.587989
0.587988
0.587986
0.587675
0.587669
0.587666
0.587664
0.587995
0.587995
0.587994
0.587994
0.586295
0.586283
0.586276
0.586272
0.588398
0.588379
0.588375
0.588387
0.583831
0.584287
0.584291
0.583988
0.585441
0.585087
0.585032
0.585227
0.590005
0.58999
0.589983
0.589983
0.587576
0.587573
0.58757
0.587567
0.588667
0.58867
0.588672
0.588673
0.58808
0.588078
0.588077
0.588075
0.587883
0.587878
0.587875
0.587874
0.588224
0.588229
0.588231
0.588231
0.586651
0.58663
0.586621
0.586622
0.589371
0.589358
0.589358
0.589374
0.583018
0.583307
0.583304
0.58311
0.58337
0.583151
0.583125
0.583248
0.591021
0.591017
0.591021
0.591034
0.587692
0.587679
0.58767
0.587663
0.588705
0.588712
0.588716
0.588719
0.588166
0.588163
0.588162
0.58816
0.588046
0.588041
0.588039
0.588039
0.588367
0.588374
0.588377
0.588376
0.587197
0.58716
0.587149
0.587161
0.590691
0.590703
0.590709
0.590713
0.581536
0.581609
0.581605
0.581561
0.595219
0.603672
0.607674
0.610778
0.613903
0.616661
0.618899
0.620648
0.622015
0.623161
0.596144
0.599478
0.606903
0.611955
0.616423
0.619812
0.622278
0.624044
0.625289
0.626232
0.600007
0.596364
0.607352
0.61307
0.618355
0.621954
0.624524
0.626349
0.627604
0.628496
0.603429
0.592498
0.607114
0.612689
0.61855
0.6221
0.624657
0.626437
0.627655
0.628519
0.607928
0.590497
0.607869
0.613169
0.619473
0.622874
0.625401
0.627096
0.628224
0.629008
0.611023
0.587848
0.607616
0.612441
0.619196
0.62241
0.624951
0.626596
0.62773
0.628555
0.615031
0.586593
0.608446
0.612553
0.619711
0.62266
0.625216
0.626804
0.62791
0.628711
0.616606
0.583547
0.607456
0.610793
0.618458
0.621208
0.623926
0.625598
0.626904
0.627941
0.618276
0.582069
0.607911
0.609914
0.617723
0.620007
0.622952
0.624772
0.626279
0.627508
0.602734
0.566206
0.594694
0.597044
0.606726
0.610591
0.615236
0.618347
0.620907
0.622927
0.53781
0.559876
0.576222
0.587848
0.595812
0.601356
0.605362
0.608354
0.610663
0.612582
0.524096
0.554639
0.576726
0.590675
0.599529
0.605521
0.609765
0.612841
0.615085
0.616748
0.513835
0.551513
0.577835
0.592853
0.602308
0.608573
0.612963
0.616106
0.618344
0.61994
0.505454
0.548487
0.578014
0.593353
0.603211
0.609553
0.613952
0.617059
0.619251
0.620804
0.501003
0.547676
0.579284
0.594673
0.60482
0.611112
0.615453
0.618461
0.62055
0.622013
0.497812
0.54661
0.579701
0.594855
0.605241
0.611411
0.615694
0.618615
0.620665
0.62213
0.497419
0.547046
0.58121
0.595837
0.606386
0.612332
0.616539
0.619362
0.62135
0.622776
0.496627
0.546101
0.581167
0.595095
0.605835
0.611566
0.615799
0.61864
0.620751
0.62235
0.497122
0.546427
0.582351
0.595022
0.605558
0.610818
0.615146
0.618106
0.620385
0.622169
0.488041
0.536394
0.573069
0.585254
0.596812
0.60309
0.608609
0.612498
0.615538
0.617806
0.568932
0.575205
0.581282
0.586658
0.591242
0.595075
0.598249
0.60087
0.603062
0.604953
0.555692
0.567085
0.577272
0.5856
0.592268
0.597517
0.601613
0.604796
0.607259
0.609134
0.542609
0.559785
0.574155
0.585045
0.593356
0.599608
0.604316
0.607866
0.610522
0.612468
0.529459
0.552366
0.57072
0.583716
0.593299
0.600211
0.605272
0.609004
0.611755
0.613745
0.519541
0.547516
0.569299
0.583877
0.594378
0.601675
0.606904
0.610683
0.61343
0.615393
0.510701
0.542989
0.567712
0.583413
0.594587
0.602087
0.607396
0.611178
0.613929
0.615914
0.504678
0.540468
0.567643
0.584029
0.595657
0.60319
0.608502
0.61224
0.614962
0.616927
0.498989
0.537437
0.566676
0.583374
0.595319
0.602802
0.608143
0.611907
0.614722
0.616821
0.495285
0.536101
0.567076
0.583441
0.595274
0.602473
0.607872
0.611735
0.61468
0.616927
0.485196
0.527211
0.559393
0.575702
0.588233
0.596156
0.602371
0.606898
0.610376
0.6129
0.578749
0.581157
0.584062
0.587009
0.589787
0.5923
0.594521
0.596463
0.598177
0.599736
0.569971
0.574738
0.580153
0.585297
0.589834
0.593694
0.596916
0.599571
0.601728
0.603432
0.559453
0.567532
0.575944
0.583368
0.58959
0.594659
0.598735
0.601975
0.60451
0.606441
0.547142
0.559246
0.57099
0.580673
0.588429
0.594494
0.599216
0.602875
0.605685
0.607788
0.536454
0.55285
0.567877
0.579565
0.5886
0.595411
0.600573
0.604482
0.607438
0.609616
0.525842
0.546545
0.564692
0.578085
0.588165
0.59552
0.600985
0.605055
0.608116
0.610376
0.517313
0.542139
0.563136
0.577877
0.588757
0.596457
0.6021
0.606247
0.609355
0.611638
0.50894
0.537525
0.561062
0.576787
0.588263
0.596161
0.601942
0.60618
0.609394
0.611798
0.502429
0.534643
0.560381
0.57651
0.588187
0.596067
0.601959
0.606305
0.609625
0.612148
0.491531
0.526342
0.55353
0.570048
0.582363
0.590808
0.597275
0.602092
0.605783
0.608431
0.585245
0.586007
0.587171
0.588536
0.589971
0.591388
0.592734
0.593987
0.595167
0.59632
0.579908
0.581764
0.584284
0.587008
0.589679
0.592162
0.594389
0.596336
0.597992
0.599349
0.572372
0.575776
0.580086
0.584475
0.588566
0.592193
0.595309
0.597922
0.600063
0.601758
0.562559
0.568172
0.574741
0.580999
0.586551
0.591267
0.595177
0.598365
0.60092
0.602904
0.553442
0.561732
0.570791
0.578924
0.585839
0.59149
0.596037
0.59965
0.602494
0.604663
0.543649
0.554941
0.566598
0.576515
0.584653
0.591083
0.596132
0.60007
0.60314
0.605473
0.535202
0.54968
0.563908
0.575418
0.584593
0.591623
0.597038
0.601196
0.604411
0.606831
0.52651
0.544198
0.560872
0.573717
0.583726
0.591193