/*--------------------------------*- C++ -*----------------------------------*\
| =========                 |                                                 |
| \\      /  F ield         | foam-extend: Open Source CFD                    |
|  \\    /   O peration     | Version:     4.0                                |
|   \\  /    A nd           | Web:         http://www.foam-extend.org         |
|    \\/     M anipulation  |                                                 |
\*---------------------------------------------------------------------------*/
FoamFile
{
    version     2.0;
    format      ascii;
    class       volScalarField;
    location    "1700";
    object      p;
}
// * * * * * * * * * * * * * * * * * * * * * * * * * * * * * * * * * * * * * //

dimensions      [1 -1 -2 0 0 0 0];

internalField   nonuniform List<scalar> 
34480
(
107976
107876
107836
107851
107936
108117
108461
109143
110108
110454
107834
107735
107694
107706
107785
107962
108300
108970
110004
109978
107690
107588
107547
107550
107615
107762
108060
108662
109692
109116
107615
107511
107465
107455
107498
107601
107841
108343
109305
108153
107532
107416
107362
107335
107352
107410
107592
107990
108849
107156
107547
107432
107372
107336
107334
107355
107480
107770
108490
106272
107452
107324
107257
107209
107190
107182
107259
107450
108010
105335
107539
107416
107353
107320
107317
107319
107382
107500
107878
104738
107438
107310
107242
107204
107202
107215
107268
107329
107502
103990
107531
107416
107403
107468
107607
107798
108042
108279
108450
104453
108734
108610
108564
108589
108695
108898
109233
109761
110575
111642
108526
108394
108347
108374
108487
108713
109100
109753
110893
112496
108324
108187
108141
108162
108269
108488
108882
109588
110969
112956
108195
108054
108000
108010
108102
108295
108667
109363
110884
113123
108069
107916
107854
107846
107916
108075
108408
109060
110649
113034
108046
107892
107822
107803
107855
107980
108270
108853
110446
112862
107922
107755
107678
107645
107679
107773
108019
108527
110077
112466
107985
107823
107747
107722
107763
107858
108084
108526
109979
112249
107871
107705
107622
107590
107620
107708
107917
108310
109617
111807
107952
107797
107756
107801
107934
108147
108478
108975
110229
112215
109300
109187
109148
109176
109279
109465
109749
110151
110681
111292
109086
108954
108910
108945
109069
109300
109665
110208
111023
112030
108866
108722
108677
108713
108845
109093
109502
110151
111247
112676
108706
108553
108501
108529
108657
108904
109333
110042
111361
113171
108551
108385
108326
108340
108454
108685
109110
109838
111325
113462
108498
108329
108262
108267
108368
108579
108987
109702
111301
113689
108348
108168
108095
108087
108172
108360
108743
109431
111093
113677
108390
108213
108139
108137
108226
108411
108783
109437
111101
113794
108264
108083
108003
107992
108068
108239
108591
109221
110822
113632
108331
108159
108107
108151
108297
108549
108977
109672
111238
114046
109697
109609
109579
109602
109682
109821
110019
110272
110565
110846
109518
109401
109362
109395
109504
109699
109988
110379
110884
111404
109319
109181
109138
109174
109301
109530
109887
110401
111155
111994
109156
109002
108950
108983
109116
109365
109772
110387
111384
112569
108993
108822
108762
108786
108914
109165
109598
110280
111490
113017
108924
108746
108678
108694
108816
109062
109505
110224
111610
113448
108760
108569
108496
108501
108612
108845
109286
110020
111543
113666
108786
108597
108521
108531
108645
108878
109319
110057
111661
114009
108649
108456
108376
108378
108483
108705
109135
109874
111489
114065
108702
108516
108455
108497
108650
108928
109407
110194
111801
114519
109970
109909
109888
109904
109961
110054
110182
110334
110494
110632
109836
109744
109713
109740
109826
109974
110184
110448
110751
111027
109679
109559
109520
109553
109663
109856
110140
110517
110999
111472
109530
109387
109339
109372
109497
109723
110073
110562
111248
111970
109377
109212
109155
109183
109312
109556
109953
110531
111419
112413
109304
109128
109062
109086
109216
109468
109896
110542
111618
112885
109136
108944
108873
108888
109013
109265
109709
110403
111644
113184
109152
108960
108885
108904
109033
109290
109750
110478
111842
113625
109008
108811
108733
108746
108870
109123
109584
110338
111767
113808
109050
108859
108793
108833
108990
109281
109777
110573
112025
114263
110159
110119
110105
110116
110153
110211
110288
110375
110461
110528
110067
109999
109976
109995
110058
110163
110305
110474
110652
110801
109957
109859
109828
109854
109942
110092
110304
110569
110872
111139
109832
109709
109666
109696
109804
109995
110276
110644
111102
111536
109699
109549
109498
109526
109646
109865
110203
110666
111289
111919
109632
109468
109407
109433
109560
109799
110182
110726
111517
112359
109468
109286
109218
109239
109368
109616
110031
110641
111591
112659
109483
109296
109225
109249
109384
109644
110086
110748
111834
113119
109335
109142
109068
109088
109221
109483
109937
110642
111821
113351
109370
109181
109114
109153
109308
109597
110078
110823
112046
113763
110292
110268
110260
110266
110289
110324
110368
110417
110463
110497
110232
110185
110169
110182
110225
110295
110387
110492
110596
110677
110167
110092
110068
110088
110154
110264
110415
110593
110783
110939
110068
109968
109932
109957
110045
110196
110410
110677
110979
111244
109961
109833
109789
109814
109918
110103
110375
110730
111160
111560
109908
109762
109707
109734
109850
110061
110385
110821
111389
111943
109755
109588
109526
109550
109672
109902
110267
110776
111480
112208
109773
109600
109534
109560
109691
109938
110337
110907
111737
112641
109626
109444
109375
109399
109532
109786
110204
110824
111752
112860
109658
109479
109413
109450
109598
109872
110314
110972
111952
113211
110391
110376
110372
110375
110389
110409
110434
110461
110486
110503
110350
110320
110309
110318
110346
110391
110448
110511
110571
110616
110324
110270
110252
110266
110313
110390
110493
110610
110726
110818
110249
110171
110143
110162
110230
110344
110500
110686
110883
111047
110170
110066
110029
110050
110135
110283
110493
110754
111047
111303
110133
110009
109963
109987
110087
110264
110526
110861
111261
111627
109994
109848
109794
109817
109927
110128
110433
110840
111351
111846
110022
109867
109808
109835
109955
110176
110519
110987
111605
112234
109877
109712
109650
109675
109800
110032
110399
110918
111623
112405
109910
109746
109685
109720
109855
110103
110491
111045
111801
112695
110467
110459
110456
110458
110466
110477
110492
110506
110519
110529
110438
110419
110411
110417
110435
110462
110497
110535
110569
110595
110441
110404
110391
110401
110433
110485
110552
110627
110698
110752
110385
110327
110305
110319
110369
110452
110562
110688
110815
110916
110333
110251
110222
110239
110305
110419
110574
110760
110956
111120
110313
110212
110174
110194
110276
110419
110621
110870
111148
111388
110189
110066
110021
110041
110135
110303
110547
110860
111224
111558
110229
110097
110046
110070
110176
110365
110647
111016
111466
111896
110088
109943
109889
109914
110025
110228
110536
110952
111473
112012
110126
109981
109927
109957
110077
110293
110620
111068
111634
112252
110529
110524
110523
110524
110528
110535
110543
110551
110558
110563
110503
110492
110487
110491
110501
110518
110539
110561
110581
110595
110531
110505
110497
110503
110524
110558
110601
110648
110691
110722
110485
110444
110428
110438
110473
110531
110606
110690
110771
110834
110457
110396
110373
110386
110436
110520
110631
110760
110890
110993
110452
110373
110343
110360
110424
110534
110685
110865
111054
111210
110343
110243
110206
110224
110301
110435
110624
110856
111110
111333
110398
110289
110247
110268
110356
110512
110735
111016
111336
111626
110260
110138
110093
110114
110209
110379
110627
110949
111325
111689
110306
110183
110136
110162
110264
110445
110710
111059
111471
111890
110581
110578
110578
110578
110581
110584
110589
110593
110597
110599
110553
110547
110544
110546
110552
110562
110575
110588
110599
110608
110600
110583
110577
110582
110595
110617
110644
110672
110698
110716
110559
110531
110520
110526
110550
110589
110639
110694
110745
110784
110551
110507
110490
110500
110536
110595
110673
110760
110845
110910
110558
110499
110476
110489
110537
110619
110729
110855
110982
111083
110461
110384
110355
110369
110429
110532
110673
110841
111016
111163
110533
110447
110413
110430
110501
110623
110794
111001
111224
111416
110396
110296
110260
110278
110356
110492
110685
110925
111191
111434
110452
110352
110313
110335
110418
110564
110771
111034
111327
111606
110626
110625
110625
110625
110626
110628
110630
110633
110635
110636
110593
110589
110587
110588
110592
110598
110605
110613
110620
110625
110654
110644
110641
110643
110652
110665
110681
110698
110714
110724
110613
110594
110586
110591
110607
110632
110665
110700
110732
110757
110622
110591
110579
110586
110611
110652
110705
110762
110817
110858
110638
110595
110578
110587
110623
110681
110758
110845
110929
110993
110551
110492
110470
110481
110526
110603
110705
110823
110941
111037
110638
110573
110547
110561
110615
110708
110834
110982
111135
111260
110500
110421
110393
110408
110469
110573
110718
110893
111077
111237
110569
110490
110459
110476
110542
110655
110812
111003
111208
111390
110666
110665
110665
110665
110666
110667
110668
110670
110671
110671
110623
110621
110620
110620
110623
110626
110631
110635
110639
110643
110700
110693
110691
110693
110698
110706
110716
110726
110735
110740
110652
110640
110635
110637
110647
110664
110685
110707
110727
110743
110675
110654
110646
110651
110668
110695
110730
110767
110802
110827
110696
110666
110654
110661
110686
110726
110779
110837
110892
110933
110616
110574
110558
110566
110599
110653
110725
110806
110884
110946
110720
110672
110653
110664
110704
110772
110863
110965
111068
111148
110576
110517
110495
110506
110552
110630
110736
110859
110984
111088
110661
110601
110577
110591
110641
110725
110840
110975
111114
111232
110703
110701
110702
110702
110702
110703
110703
110704
110704
110705
110645
110644
110644
110644
110645
110647
110650
110653
110656
110658
110739
110735
110734
110735
110738
110743
110748
110754
110759
110761
110680
110672
110669
110670
110677
110687
110700
110714
110727
110737
110715
110701
110696
110699
110710
110728
110750
110774
110796
110811
110738
110718
110709
110714
110731
110758
110793
110831
110867
110892
110664
110634
110623
110628
110651
110689
110738
110792
110842
110882
110784
110750
110737
110744
110774
110821
110884
110954
111022
111071
110630
110586
110570
110578
110612
110668
110741
110826
110909
110976
110733
110690
110672
110682
110719
110779
110861
110954
111046
111121
110737
110736
110737
110736
110737
110737
110737
110737
110737
110737
110660
110659
110659
110659
110660
110661
110663
110665
110667
110670
110773
110771
110771
110771
110773
110776
110779
110782
110784
110785
110700
110694
110692
110693
110697
110703
110711
110720
110728
110734
110744
110735
110732
110734
110741
110753
110767
110781
110794
110803
110767
110753
110747
110750
110762
110780
110803
110827
110850
110865
110697
110677
110669
110673
110689
110714
110746
110781
110813
110839
110834
110811
110802
110807
110827
110860
110903
110948
110993
111022
110664
110632
110621
110627
110650
110689
110739
110796
110849
110893
110792
110762
110749
110756
110782
110825
110880
110942
111002
111049
110774
110773
110774
110774
110774
110774
110774
110774
110774
110774
110666
110665
110665
110665
110665
110666
110668
110669
110671
110674
110804
110803
110803
110804
110805
110806
110808
110809
110810
110809
110712
110709
110707
110708
110710
110714
110719
110724
110729
110733
110764
110758
110756
110758
110762
110769
110778
110786
110794
110800
110783
110775
110771
110773
110780
110791
110806
110821
110836
110845
110720
110707
110702
110705
110715
110731
110752
110774
110793
110809
110873
110858
110851
110855
110868
110890
110918
110947
110976
110993
110681
110659
110651
110655
110671
110697
110730
110766
110800
110829
110847
110827
110818
110823
110840
110869
110906
110946
110984
111012
110827
110826
110827
110827
110827
110827
110827
110827
110826
110825
110660
110659
110659
110659
110659
110660
110661
110662
110664
110667
110830
110830
110830
110830
110831
110832
110832
110833
110834
110832
110719
110717
110716
110717
110718
110721
110723
110726
110729
110732
110774
110771
110769
110770
110772
110777
110782
110787
110792
110795
110789
110783
110781
110782
110786
110794
110803
110812
110821
110827
110734
110726
110723
110725
110732
110742
110755
110768
110779
110789
110897
110887
110883
110885
110894
110908
110926
110945
110964
110973
110680
110665
110660
110662
110673
110690
110711
110734
110754
110774
110912
110899
110893
110896
110907
110926
110950
110975
111000
111016
110921
110921
110921
110921
110921
110921
110921
110920
110919
110918
110634
110633
110633
110633
110633
110633
110634
110636
110637
110641
110843
110843
110842
110842
110842
110843
110844
110845
110846
110844
110722
110721
110721
110722
110723
110724
110726
110727
110728
110729
110775
110772
110771
110772
110773
110776
110779
110783
110786
110788
110784
110780
110779
110779
110782
110787
110792
110798
110804
110808
110740
110736
110734
110736
110740
110746
110754
110762
110768
110773
110895
110888
110885
110886
110892
110901
110913
110925
110939
110945
110652
110643
110640
110642
110649
110660
110673
110687
110699
110712
111012
111003
110999
111001
111008
111020
111036
111052
111069
111077
111083
111082
111082
111082
111082
111082
111082
111082
111082
111081
110573
110573
110574
110575
110576
110576
110576
110575
110575
110577
110831
110829
110827
110826
110826
110827
110828
110830
110832
110833
110725
110725
110726
110726
110727
110728
110728
110729
110728
110728
110769
110768
110767
110767
110768
110769
110772
110774
110776
110778
110774
110771
110770
110770
110772
110775
110779
110783
110787
110790
110741
110738
110738
110739
110742
110746
110751
110756
110759
110761
110853
110847
110844
110844
110848
110854
110863
110872
110882
110889
110586
110582
110580
110582
110587
110594
110603
110611
110617
110623
111168
111162
111159
111160
111165
111174
111185
111196
111208
111213
111265
111263
111261
111261
111260
111261
111262
111263
111265
111269
110490
110495
110499
110501
110502
110502
110500
110497
110493
110486
110796
110793
110790
110789
110789
110789
110791
110793
110797
110802
110730
110731
110732
110732
110733
110733
110734
110734
110733
110732
110764
110762
110762
110762
110763
110764
110766
110768
110770
110771
110766
110764
110763
110764
110765
110768
110771
110774
110777
110780
110743
110741
110741
110741
110744
110748
110752
110756
110759
110759
110789
110783
110781
110781
110785
110790
110797
110804
110813
110822
110502
110500
110500
110501
110505
110512
110519
110525
110528
110525
111335
111330
111327
111329
111333
111340
111349
111358
111368
111372
122718
123932
123756
122482
125948
127355
126954
125333
128890
130477
129889
127899
131054
132757
131983
129714
132716
134498
133550
131077
134065
135905
134948
132354
134990
136863
136038
133376
135812
137691
137029
134330
135727
137578
137061
134369
135316
137153
136894
134356
113015
113205
113243
113124
115301
115672
115730
115440
117556
118109
118168
117658
119695
120415
120460
119706
121646
122503
122517
121504
123498
124463
124442
123214
125032
126082
126031
124643
126536
127644
127575
126079
127316
128455
128384
126836
127964
129137
129114
127615
111813
111902
111930
111903
113136
113304
113343
113276
114589
114855
114908
114778
116065
116436
116497
116284
117488
117963
118020
117703
118963
119539
119589
119155
120254
120921
120962
120408
121634
122378
122408
121741
122454
123246
123269
122507
123273
124101
124142
123324
110961
110984
110995
110995
111713
111767
111786
111779
112632
112736
112769
112744
113663
113831
113880
113825
114690
114931
114993
114894
115818
116137
116209
116053
116821
117218
117297
117072
117979
118446
118528
118230
118692
119210
119297
118934
119468
120029
120132
119729
110678
110687
110692
110693
111149
111173
111184
111183
111732
111781
111801
111797
112438
112522
112554
112543
113163
113289
113334
113310
114000
114177
114234
114190
114737
114967
115036
114962
115656
115939
116018
115907
116234
116558
116650
116506
116912
117272
117383
117215
110546
110550
110552
110553
110849
110858
110863
110865
111243
111264
111274
111276
111736
111775
111794
111796
112257
112321
112350
112350
112887
112982
113023
113018
113423
113554
113607
113591
114153
114320
114383
114353
114612
114809
114886
114842
115164
115389
115480
115423
110506
110508
110509
110509
110701
110706
110708
110709
110989
110998
111004
111005
111340
111359
111370
111373
111723
111756
111774
111778
112205
112256
112283
112288
112594
112668
112704
112708
113176
113274
113319
113318
113525
113644
113701
113694
113958
114095
114162
114149
110508
110509
110509
110509
110629
110631
110632
110633
110844
110848
110851
110852
111097
111108
111114
111116
111388
111406
111416
111420
111765
111794
111810
111815
112049
112091
112114
112121
112518
112575
112606
112612
112765
112837
112875
112879
113102
113185
113230
113232
110531
110531
110532
110532
110602
110603
110604
110604
110766
110769
110770
110771
110945
110951
110954
110956
111168
111178
111184
111186
111466
111483
111493
111496
111672
111696
111711
111716
112055
112089
112109
112115
112214
112257
112282
112288
112480
112531
112559
112564
110564
110564
110564
110564
110599
110600
110601
110601
110730
110732
110733
110733
110851
110854
110856
110857
111022
111027
111031
111033
111257
111267
111273
111276
111400
111415
111424
111428
111719
111739
111751
111756
111807
111834
111850
111854
112023
112053
112071
112076
110600
110600
110600
110600
110610
110611
110611
110611
110721
110721
110722
110722
110795
110797
110798
110799
110927
110930
110932
110933
111111
111118
111121
111123
111203
111212
111218
111220
111472
111485
111493
111496
111506
111522
111532
111535
111685
111704
111715
111719
110636
110636
110636
110636
110627
110627
110627
110627
110726
110727
110727
110727
110763
110764
110765
110766
110868
110870
110871
110872
111012
111015
111018
111019
111062
111067
111071
111073
111295
111303
111307
111309
111282
111292
111298
111301
111439
111450
111457
111460
110671
110671
110671
110671
110644
110644
110644
110644
110742
110742
110742
110742
110747
110748
110748
110749
110833
110834
110835
110835
110945
110947
110949
110949
110962
110965
110967
110968
111170
111175
111178
111179
111117
111123
111127
111129
111262
111269
111273
111275
110705
110705
110705
110704
110659
110659
110659
110660
110762
110762
110762
110762
110739
110740
110740
110740
110814
110815
110815
110816
110900
110902
110903
110903
110892
110893
110895
110896
111085
111088
111090
111091
110995
110999
111002
111003
111139
111143
111146
111147
110737
110737
110737
110737
110670
110670
110670
110671
110785
110785
110785
110785
110736
110736
110736
110737
110805
110806
110806
110806
110871
110872
110872
110873
110844
110845
110845
110846
111031
111033
111034
111035
110905
110908
110910
110910
111059
111062
111064
111064
110773
110773
110773
110773
110674
110674
110675
110675
110810
110810
110810
110809
110734
110734
110734
110734
110801
110801
110801
110801
110850
110850
110851
110851
110811
110811
110812
110812
111000
111001
111001
111002
110837
110839
110840
110840
111018
111019
111020
111021
110825
110825
110825
110825
110668
110668
110668
110669
110833
110833
110833
110832
110731
110731
110731
110731
110796
110797
110797
110797
110831
110832
110832
110832
110788
110787
110788
110788
110979
110980
110980
110980
110779
110780
110781
110781
111018
111018
111019
111020
110918
110918
110917
110917
110640
110641
110641
110642
110847
110847
110847
110847
110727
110727
110727
110727
110789
110789
110789
110790
110811
110812
110812
110812
110770
110769
110769
110769
110953
110954
110955
110955
110714
110715
110715
110715
111078
111077
111078
111079
111081
111081
111081
111081
110574
110574
110574
110574
110840
110841
110841
110841
110725
110724
110724
110724
110780
110780
110780
110780
110793
110793
110793
110793
110756
110755
110755
110756
110903
110905
110906
110905
110619
110618
110618
110618
111219
111219
111219
111220
111270
111271
111271
111272
110470
110466
110465
110465
110811
110813
110814
110815
110727
110726
110726
110726
110773
110773
110773
110773
110781
110782
110782
110782
110754
110753
110753
110754
110839
110843
110844
110843
110501
110495
110494
110497
111394
111397
111397
111395
116095
113581
111656
110368
109562
109042
108687
108437
108257
108121
117151
113969
111600
110199
109373
108848
108498
108257
108088
107963
117511
114006
111330
110008
109183
108663
108313
108070
107907
107800
117493
113902
111000
109844
109038
108552
108218
107989
107831
107724
117207
113680
110690
109664
108865
108415
108095
107880
107730
107635
116836
113551
110519
109627
108830
108419
108110
107907
107760
107657
116192
113292
110226
109474
108669
108298
107996
107802
107658
107562
115770
113315
110217
109608
108788
108452
108142
107945
107787
107665
115044
112981
109905
109475
108680
108391
108072
107870
107705
107574
115482
113678
110575
110171
109253
108860
108429
108138
107903
107702
112567
111823
111162
110609
110154
109784
109484
109244
109051
108900
114189
112824
111690
110835
110191
109708
109344
109067
108854
108695
115487
113534
111993
110917
110130
109565
109154
108852
108630
108480
116473
114022
112141
110935
110066
109468
109042
108735
108509
108355
117098
114286
112135
110852
109932
109326
108898
108595
108371
108224
117572
114534
112166
110854
109903
109305
108881
108583
108362
108208
117719
114564
112019
110713
109742
109160
108741
108451
108230
108082
117928
114766
112085
110820
109838
109276
108854
108560
108331
108162
117708
114568
111842
110684
109733
109202
108773
108473
108236
108057
118114
115081
112318
111182
110155
109551
109044
108680
108394
108164
111747
111431
111078
110738
110431
110163
109934
109740
109579
109448
112917
112276
111607
111027
110553
110170
109861
109612
109412
109257
114114
113064
112040
111217
110579
110089
109712
109421
109196
109037
115226
113741
112383
111368
110606
110044
109623
109305
109062
108889
116153
114237
112572
111402
110547
109938
109490
109159
108907
108734
117025
114709
112772
111488
110563
109927
109465
109128
108872
108690
117623
114950
112772
111410
110434
109786
109316
108977
108718
108539
118273
115313
112943
111545
110536
109884
109406
109060
108793
108596
118443
115266
112809
111449
110450
109808
109318
108963
108687
108480
118947
115685
113181
111816
110761
110066
109522
109121
108812
108570
110972
110876
110741
110588
110432
110280
110139
110013
109901
109807
111705
111477
111188
110894
110617
110366
110145
109955
109794
109665
112573
112138
111629
111151
110729
110372
110075
109830
109632
109484
113508
112819
112067
111406
110850
110399
110037
109747
109517
109344
114371
113392
112387
111555
110882
110356
109945
109625
109372
109190
115264
113979
112722
111740
110969
110387
109941
109600
109332
109135
115957
114360
112862
111752
110901
110278
109807
109452
109173
108974
116749
114860
113150
111946
111034
110383
109891
109521
109232
109015
117124
114988
113146
111908
110969
110303
109793
109410
109112
108887
117730
115417
113478
112191
111200
110492
109944
109529
109207
108957
110685
110644
110582
110507
110424
110339
110255
110177
110106
110045
111157
111061
110923
110766
110603
110445
110297
110164
110048
109950
111738
111545
111288
111014
110750
110507
110291
110102
109944
109821
112435
112109
111700
111291
110914
110582
110298
110058
109859
109704
113127
112633
112048
111497
111009
110596
110253
109971
109740
109568
113899
113210
112436
111744
111154
110671
110280
109965
109710
109516
114528
113621
112649
111826
111143
110603
110172
109832
109558
109356
115299
114168
113010
112073
111314
110726
110263
109899
109610
109389
115737
114401
113102
112089
111275
110653
110164
109784
109483
109254
116336
114821
113408
112326
111460
110801
110280
109876
109558
109310
110550
110532
110504
110466
110423
110377
110331
110285
110243
110205
110856
110813
110745
110661
110569
110474
110381
110294
110216
110148
111257
111170
111039
110885
110724
110566
110417
110281
110163
110069
111760
111606
111386
111142
110897
110665
110455
110269
110110
109981
112288
112041
111710
111361
111025
110720
110451
110219
110023
109871
112913
112553
112093
111632
111205
110830
110507
110236
110009
109832
113428
112930
112328
111753
111237
110797
110428
110124
109872
109681
114110
113463
112715
112033
111437
110941
110532
110198
109927
109715
114524
113726
112852
112080
111418
110878
110438
110085
109799
109578
115045
114109
113133
112290
111578
111002
110534
110160
109861
109625
110508
110499
110485
110465
110443
110418
110392
110366
110342
110320
110705
110683
110647
110601
110549
110493
110436
110382
110331
110286
110996
110951
110880
110792
110693
110592
110493
110400
110317
110249
111358
111279
111156
111009
110852
110695
110546
110409
110288
110188
111754
111625
111435
111216
110990
110772
110570
110389
110232
110107
112248
112055
111783
111482
111182
110902
110649
110428
110238
110084
112645
112372
112003
111613
111237
110896
110595
110338
110118
109948
113222
112854
112381
111901
111452
111055
110712
110423
110182
109989
113563
113093
112518
111957
111444
111002
110626
110315
110056
109853
113987
113425
112772
112149
111591
111114
110713
110383
110113
109896
110509
110504
110497
110487
110475
110461
110447
110433
110419
110407
110631
110619
110600
110575
110545
110513
110479
110446
110414
110386
110848
110823
110783
110731
110672
110609
110545
110483
110427
110381
111108
111065
110994
110905
110805
110701
110599
110502
110414
110340
111408
111338
111225
111087
110937
110785
110639
110505
110384
110287
111798
111691
111526
111331
111124
110921
110731
110559
110407
110281
112095
111941
111713
111453
111185
110930
110695
110487
110306
110162
112572
112361
112062
111732
111404
111099
110824
110585
110381
110213
112822
112545
112174
111779
111398
111051
110744
110482
110259
110080
113160
112827
112400
111956
111535
111158
110829
110549
110315
110125
110531
110529
110525
110520
110513
110506
110498
110490
110483
110476
110603
110597
110586
110572
110555
110536
110516
110497
110478
110460
110768
110754
110731
110701
110665
110626
110585
110546
110509
110480
110952
110927
110885
110830
110767
110700
110632
110565
110504
110451
111180
111139
111071
110983
110885
110782
110680
110583
110494
110422
111487
111425
111324
111197
111057
110914
110776
110646
110530
110431
111704
111614
111471
111298
111111
110926
110749
110588
110444
110327
112096
111972
111782
111559
111325
111098
110887
110697
110531
110391
112261
112097
111859
111588
111312
111050
110809
110598
110413
110263
112531
112333
112057
111750
111443
111155
110895
110668
110473
110312
110564
110563
110561
110558
110554
110550
110546
110542
110537
110534
110600
110597
110591
110583
110573
110563
110551
110539
110528
110517
110731
110723
110710
110691
110670
110646
110621
110596
110573
110555
110855
110840
110815
110782
110742
110699
110654
110610
110569
110532
111029
111004
110962
110907
110843
110775
110705
110637
110574
110522
111270
111233
111170
111088
110994
110896
110798
110704
110618
110543
111421
111366
111276
111162
111034
110903
110774
110653
110543
110453
111746
111671
111550
111401
111238
111075
110917
110772
110642
110530
111841
111742
111590
111407
111213
111020
110838
110673
110525
110404
112059
111941
111764
111556
111338
111125
110927
110749
110592
110460
110600
110599
110598
110597
110595
110593
110590
110588
110585
110584
110611
110609
110606
110601
110596
110590
110583
110576
110569
110562
110721
110716
110708
110697
110684
110669
110654
110638
110624
110614
110798
110789
110774
110753
110729
110701
110673
110644
110616
110591
110931
110916
110890
110855
110814
110769
110722
110676
110633
110597
111120
111097
111057
111004
110943
110876
110809
110743
110681
110626
111217
111183
111126
111051
110965
110874
110782
110694
110613
110545
111490
111444
111367
111268
111157
111042
110928
110821
110723
110636
111528
111468
111370
111249
111114
110977
110843
110719
110605
110510
111710
111638
111525
111386
111235
111083
110936
110801
110680
110576
110636
110636
110635
110634
110633
110632
110631
110630
110628
110627
110627
110626
110624
110622
110619
110615
110611
110607
110603
110598
110726
110723
110718
110712
110704
110695
110686
110676
110668
110663
110765
110760
110751
110738
110723
110706
110688
110669
110651
110635
110871
110861
110845
110823
110797
110767
110737
110706
110677
110653
111017
111003
110978
110944
110904
110860
110814
110768
110725
110686
111071
111049
111013
110964
110907
110845
110781
110719
110661
110612
111305
111277
111228
111164
111089
111010
110930
110853
110781
110717
111296
111259
111197
111116
111025
110929
110833
110743
110658
110587
111455
111411
111339
111248
111145
111038
110933
110834
110744
110665
110671
110671
110671
110670
110670
110669
110668
110668
110667
110666
110645
110644
110643
110642
110640
110638
110636
110633
110631
110627
110741
110739
110736
110732
110727
110722
110716
110711
110706
110704
110748
110745
110740
110732
110723
110712
110701
110689
110678
110667
110835
110829
110819
110805
110788
110770
110750
110730
110711
110695
110948
110939
110923
110902
110876
110847
110817
110786
110757
110730
110968
110954
110931
110899
110862
110820
110777
110735
110694
110660
111176
111159
111128
111086
111037
110984
110929
110875
110825
110778
111126
111102
111063
111010
110949
110884
110817
110753
110691
110640
111272
111245
111200
111141
111072
110999
110926
110856
110790
110733
110704
110704
110704
110704
110703
110703
110703
110702
110702
110702
110660
110660
110659
110659
110658
110656
110655
110654
110652
110649
110761
110760
110758
110755
110753
110749
110746
110743
110740
110740
110741
110739
110736
110731
110725
110719
110712
110705
110697
110690
110815
110812
110805
110797
110786
110775
110762
110749
110737
110728
110902
110897
110887
110873
110857
110838
110819
110799
110779
110761
110896
110887
110872