/*--------------------------------*- C++ -*----------------------------------*\
| =========                 |                                                 |
| \\      /  F ield         | foam-extend: Open Source CFD                    |
|  \\    /   O peration     | Version:     4.0                                |
|   \\  /    A nd           | Web:         http://www.foam-extend.org         |
|    \\/     M anipulation  |                                                 |
\*---------------------------------------------------------------------------*/
FoamFile
{
    version     2.0;
    format      ascii;
    class       surfaceScalarField;
    location    "1700";
    object      phi;
}
// * * * * * * * * * * * * * * * * * * * * * * * * * * * * * * * * * * * * * //

dimensions      [1 0 -1 0 0 0 0];

internalField   nonuniform List<scalar> 
97302
(
-0.000109787
9.51563e-07
-0.000869458
0.000878734
-0.000119601
1.14089e-06
-0.000870462
0.000879135
-0.000129524
1.20002e-06
-0.000870988
0.000879711
-0.000140126
1.13808e-06
-0.000871028
0.000880492
-0.000152233
9.46004e-07
-0.000870577
0.000881738
-0.000167327
6.13671e-07
-0.000869411
0.000883891
-0.000188498
1.14633e-07
-0.000866925
0.000887981
-0.000222751
-5.9536e-07
-0.000861299
0.000896147
-0.000271331
-1.63862e-06
-0.000851511
0.000901729
-4.39505e-06
-0.000824013
-0.000353003
0.000910081
-0.000150905
1.60215e-06
-0.00116591
0.00117601
-0.000161176
1.96436e-06
-0.00116687
0.00117632
-0.000171521
2.08296e-06
-0.00116746
0.00117692
-0.000182476
1.99113e-06
-0.00116748
0.00117759
-0.000194836
1.67384e-06
-0.00116669
0.00117832
-0.000210317
1.11983e-06
-0.00116468
0.00117966
-0.000232768
2.71537e-07
-0.00116109
0.00118338
-0.000271569
-9.66107e-07
-0.00115429
0.00119346
-0.00032835
-2.89594e-06
-0.00114199
0.00120002
-7.45785e-06
-0.00110409
-0.000432768
0.00121157
-0.000191211
1.8933e-06
-0.00146127
0.00147212
-0.000201781
2.38955e-06
-0.00146228
0.00147243
-0.0002123
2.57137e-06
-0.0014629
0.00147294
-0.000223276
2.49539e-06
-0.0014627
0.00147317
-0.000235636
2.14341e-06
-0.00146135
0.00147324
-0.000251512
1.50483e-06
-0.00145869
0.00147418
-0.000275388
5.00363e-07
-0.0014548
0.00147845
-0.000318357
-9.68294e-07
-0.00144823
0.0014912
-0.000381689
-3.35272e-06
-0.00143507
0.00149886
-9.1331e-06
-0.00138635
-0.000500685
0.00150702
-0.000231436
2.08067e-06
-0.00175262
0.00176389
-0.000242299
2.71688e-06
-0.00175386
0.00176439
-0.000253113
2.97777e-06
-0.00175474
0.00176514
-0.000264404
2.94298e-06
-0.00175474
0.00176558
-0.000277162
2.58364e-06
-0.00175356
0.00176588
-0.00029371
1.89093e-06
-0.00175113
0.00176729
-0.00031886
7.62468e-07
-0.00174757
0.00177246
-0.000364965
-8.93193e-07
-0.00174135
0.00178738
-0.000432984
-3.67948e-06
-0.00172773
0.00179608
-1.06273e-05
-0.00166788
-0.000560744
0.00179714
-0.000271562
2.31202e-06
-0.00204511
0.00205657
-0.000282594
3.0178e-06
-0.00204673
0.00205746
-0.000293577
3.31674e-06
-0.00204811
0.00205876
-0.000305063
3.29843e-06
-0.00204859
0.00205972
-0.00031811
2.93178e-06
-0.00204794
0.00206064
-0.00033516
2.20758e-06
-0.00204614
0.00206287
-0.000361317
1.0092e-06
-0.00204322
0.00206913
-0.000409959
-7.4709e-07
-0.00203769
0.00208618
-0.00048192
-3.81468e-06
-0.00202444
0.00209653
-1.1862e-05
-0.00195278
-0.000615152
0.00208725
-0.000312258
2.39769e-06
-0.0023362
0.00234795
-0.000323393
3.12925e-06
-0.00233827
0.00234929
-0.000334444
3.41616e-06
-0.00234005
0.00235101
-0.000345988
3.37021e-06
-0.00234095
0.00235242
-0.000359136
2.96926e-06
-0.00234083
0.00235394
-0.000376414
2.21298e-06
-0.00233977
0.00235705
-0.000403198
9.83447e-07
-0.00233779
0.0023646
-0.000453733
-7.85318e-07
-0.00233336
0.00238393
-0.000528999
-3.91244e-06
-0.00232161
0.00239698
-1.28316e-05
-0.00223786
-0.000665751
0.00237558
-0.000352776
2.37879e-06
-0.00262711
0.00263898
-0.000363854
3.018e-06
-0.00262978
0.00264097
-0.000374829
3.23389e-06
-0.00263213
0.00264329
-0.000386283
3.10176e-06
-0.00263349
0.00264522
-0.000399379
2.62641e-06
-0.00263395
0.00264739
-0.000416678
1.80039e-06
-0.00263372
0.00265143
-0.0004438
5.59873e-07
-0.00263286
0.00266041
-0.000495675
-1.11044e-06
-0.00263004
0.00268224
-0.000573726
-3.86131e-06
-0.00262095
0.00269895
-1.29881e-05
-0.00252487
-0.000712481
0.00266378
-0.000394567
2.02282e-06
-0.0029186
0.0029309
-0.000405697
2.47242e-06
-0.00292187
0.00293355
-0.000416671
2.50153e-06
-0.00292434
0.00293604
-0.000428076
2.1631e-06
-0.00292565
0.00293799
-0.000441038
1.49322e-06
-0.002926
0.0029401
-0.00045806
4.89982e-07
-0.00292593
0.00294426
-0.000484909
-8.18308e-07
-0.00292577
0.002954
-0.000536975
-2.36063e-06
-0.00292439
0.00297771
-0.000616492
-4.14959e-06
-0.00291866
0.00299846
-1.21401e-05
-0.00281208
-0.000755646
0.00295038
-0.000435761
1.06804e-06
-0.00320646
0.0032189
-0.000446465
1.13565e-06
-0.00321059
0.00322263
-0.000457045
8.4499e-07
-0.00321367
0.00322591
-0.000468147
1.11573e-07
-0.0032156
0.00322875
-0.000480938
-9.47844e-07
-0.00321674
0.00323197
-0.000497803
-2.30799e-06
-0.00321767
0.00323734
-0.000524506
-3.7831e-06
-0.00321893
0.0032486
-0.000576298
-5.098e-06
-0.00321984
0.00327437
-0.000655747
-5.50523e-06
-0.00321649
0.00329729
-1.0194e-05
-0.00309914
-0.000792389
0.00323384
-0.000477172
-0.00347502
0.00348803
-0.000488516
-0.00347865
0.00349113
-0.000499704
-0.00347937
0.00349141
-0.000511418
-0.00347683
0.00348866
-0.000524694
-0.00347168
0.00348401
-0.000541663
-0.00346499
0.00347965
-0.000567554
-0.00345793
0.00348004
-0.000616557
-0.003452
0.0034959
-0.000689644
-0.00344839
0.00351597
-0.00333943
-0.000818638
0.00345823
1.43997e-05
8.88724e-07
-0.000861003
5.3169e-06
1.11336e-06
-0.000862492
-3.78697e-06
1.19412e-06
-0.000863078
-1.30956e-05
1.1365e-06
-0.000862856
-2.28083e-05
9.30528e-07
-0.000861795
-3.31432e-05
5.57884e-07
-0.000859634
-4.42475e-05
-1.55682e-08
-0.000855805
-5.55403e-05
-8.68575e-07
-0.000849138
-6.62377e-05
-2.19698e-06
-0.000838617
-3.96762e-06
-0.000822363
-6.392e-05
1.54127e-05
1.51266e-06
-0.00115606
5.39474e-06
1.92884e-06
-0.00115767
-4.61305e-06
2.0826e-06
-0.00115834
-1.4928e-05
2.00351e-06
-0.00115804
-2.58153e-05
1.66961e-06
-0.00115654
-3.76373e-05
1.05863e-06
-0.00115336
-5.12308e-05
1.0886e-07
-0.00114762
-6.76393e-05
-1.29578e-06
-0.00113746
-8.82618e-05
-3.54224e-06
-0.00112002
-6.60738e-06
-0.00109107
-9.86482e-05
1.67421e-05
1.82129e-06
-0.00145022
6.01168e-06
2.38533e-06
-0.00145201
-4.62645e-06
2.6091e-06
-0.00145279
-1.55041e-05
2.54724e-06
-0.00145237
-2.69587e-05
2.16649e-06
-0.00145039
-3.97241e-05
1.44324e-06
-0.0014463
-5.55459e-05
2.85522e-07
-0.00143916
-7.71534e-05
-1.42846e-06
-0.00142649
-0.000108634
-4.28337e-06
-0.00140285
-8.39435e-06
-0.00135931
-0.000133887
1.79604e-05
2.02742e-06
-0.00174088
6.7468e-06
2.74897e-06
-0.00174301
-4.37651e-06
3.06051e-06
-0.00174406
-1.58047e-05
3.04509e-06
-0.00174381
-2.79932e-05
2.65517e-06
-0.00174186
-4.19338e-05
1.86916e-06
-0.00173762
-5.99369e-05
5.5441e-07
-0.00172983
-8.61256e-05
-1.40251e-06
-0.00171518
-0.000128051
-4.79463e-06
-0.0016853
-9.90434e-06
-0.00162542
-0.000169002
1.90773e-05
2.27233e-06
-0.00203297
7.5778e-06
3.07279e-06
-0.00203555
-3.82579e-06
3.42845e-06
-0.00203708
-1.55895e-05
3.43551e-06
-0.00203721
-2.83068e-05
3.0424e-06
-0.00203561
-4.3155e-05
2.22696e-06
-0.00203165
-6.29102e-05
8.17477e-07
-0.00202373
-9.2991e-05
-1.28976e-06
-0.00200772
-0.000144888
-5.07646e-06
-0.00197226
-1.10626e-05
-0.00189512
-0.000201394
1.97834e-05
2.39067e-06
-0.00232364
8.10721e-06
3.22597e-06
-0.00232675
-3.427e-06
3.5773e-06
-0.00232867
-1.53336e-05
3.56707e-06
-0.00232917
-2.8326e-05
3.15076e-06
-0.00232794
-4.37448e-05
2.31614e-06
-0.00232444
-6.47946e-05
8.7163e-07
-0.00231679
-9.80623e-05
-1.2764e-06
-0.0023001
-0.000159351
-5.20896e-06
-0.00226019
-1.18814e-05
-0.00216559
-0.000230798
2.01973e-05
2.36354e-06
-0.00261429
8.54413e-06
3.10493e-06
-0.00261801
-2.93988e-06
3.39059e-06
-0.00262046
-1.47857e-05
3.30698e-06
-0.00262139
-2.78365e-05
2.84906e-06
-0.0026206
-4.35433e-05
1.98747e-06
-0.00261768
-6.54889e-05
5.46802e-07
-0.00261059
-0.0001013
-1.56639e-06
-0.00259394
-0.000171268
-5.24615e-06
-0.00255095
-1.22468e-05
-0.00243897
-0.000256797
1.99398e-05
2.03166e-06
-0.00290536
8.28495e-06
2.58722e-06
-0.0029097
-3.0927e-06
2.71647e-06
-0.00291228
-1.47719e-05
2.47935e-06
-0.00291314
-2.76507e-05
1.90667e-06
-0.00291218
-4.32541e-05
9.65459e-07
-0.00290931
-6.54645e-05
-4.36542e-07
-0.00290258
-0.000102742
-2.40811e-06
-0.00288627
-0.00018011
-5.22074e-06
-0.00284131
-1.18976e-05
-0.00271313
-0.00027941
1.94082e-05
1.07339e-06
-0.00319295
8.22345e-06
1.21841e-06
-0.00319804
-2.64951e-06
1.05866e-06
-0.00320114
-1.38206e-05
4.74278e-07
-0.00320242
-2.63422e-05
-4.03795e-07
-0.00320191
-4.18497e-05
-1.58491e-06
-0.00319962
-6.44297e-05
-3.01053e-06
-0.00319377
-0.000103032
-4.67507e-06
-0.00317897
-0.000186359
-6.14847e-06
-0.00313223
-1.00738e-05
-0.00298548
-0.000301849
1.82519e-05
-0.00346123
6.81581e-06
-0.00346599
-4.10631e-06
-0.00346739
-1.52021e-05
-0.00346526
-2.74109e-05
-0.00345988
-4.23364e-05
-0.00345165
-6.38983e-05
-0.00343938
-0.00010128
-0.00341929
-0.000186005
-0.00336981
-0.00321551
-0.000319994
1.20287e-05
7.77149e-07
-0.000854331
4.42634e-06
1.0172e-06
-0.000855907
-3.29144e-06
1.10525e-06
-0.000856466
-1.10347e-05
1.04086e-06
-0.000856153
-1.86801e-05
8.17409e-07
-0.000854967
-2.59828e-05
4.19115e-07
-0.000852751
-3.23907e-05
-1.76037e-07
-0.000849221
-3.66e-05
-1.00592e-06
-0.000843922
-3.673e-05
-2.15425e-06
-0.000836332
-3.43219e-06
-0.000826686
-2.8975e-05
1.38811e-05
1.36055e-06
-0.00114755
4.856e-06
1.80064e-06
-0.00114942
-4.23049e-06
1.96378e-06
-0.00115011
-1.34692e-05
1.87326e-06
-0.00114963
-2.28662e-05
1.5075e-06
-0.00114783
-3.22706e-05
8.41947e-07
-0.00114438
-4.12816e-05
-1.76815e-07
-0.0011386
-4.87472e-05
-1.6212e-06
-0.00112937
-5.22029e-05
-3.70614e-06
-0.00111501
-6.12746e-06
-0.00109581
-4.47595e-05
1.59864e-05
1.70455e-06
-0.00144005
5.78457e-06
2.29966e-06
-0.0014423
-4.41214e-06
2.53347e-06
-0.00144317
-1.4799e-05
2.4536e-06
-0.00144256
-2.54712e-05
2.02193e-06
-0.00144024
-3.64918e-05
1.20324e-06
-0.00143564
-4.79748e-05
-9.73081e-08
-0.00142776
-5.94519e-05
-1.97739e-06
-0.00141466
-6.85128e-05
-4.8467e-06
-0.00139264
-8.36535e-06
-0.00136063
-6.49501e-05
1.76379e-05
1.96133e-06
-0.00172968
6.64731e-06
2.72501e-06
-0.00173244
-4.33536e-06
3.04865e-06
-0.0017336
-1.56207e-05
3.01059e-06
-0.00173308
-2.74544e-05
2.5566e-06
-0.00173056
-4.01661e-05
1.64899e-06
-0.00172535
-5.43166e-05
1.39779e-07
-0.00171592
-7.00982e-05
-2.09153e-06
-0.00169929
-8.58018e-05
-5.70717e-06
-0.00166873
-1.03343e-05
-0.00162102
-8.82383e-05
1.90448e-05
2.25148e-06
-0.0020211
7.54585e-06
3.10083e-06
-0.00202443
-3.92489e-06
3.47258e-06
-0.00202603
-1.57859e-05
3.4582e-06
-0.0020258
-2.84621e-05
2.99864e-06
-0.00202338
-4.25355e-05
2.05195e-06
-0.00201798
-5.90192e-05
4.15015e-07
-0.00200752
-7.89027e-05
-2.06079e-06
-0.00198787
-0.000101936
-6.30301e-06
-0.00194863
-1.19697e-05
-0.0018833
-0.000112122
1.99845e-05
2.41882e-06
-0.00231116
8.14924e-06
3.30738e-06
-0.00231512
-3.60441e-06
3.6794e-06
-0.00231712
-1.57888e-05
3.65518e-06
-0.00231718
-2.89866e-05
3.17816e-06
-0.00231492
-4.40297e-05
2.21498e-06
-0.00230956
-6.24174e-05
5.32394e-07
-0.00229852
-8.60443e-05
-2.04154e-06
-0.0022765
-0.00011687
-6.63921e-06
-0.00222903
-1.31793e-05
-0.00214502
-0.000136232
2.05379e-05
2.41503e-06
-0.00260138
8.62236e-06
3.20961e-06
-0.002606
-3.17368e-06
3.52191e-06
-0.00260851
-1.54082e-05
3.4377e-06
-0.00260894
-2.88302e-05
2.94369e-06
-0.00260694
-4.44812e-05
1.99368e-06
-0.00260181
-6.4345e-05
3.52192e-07
-0.00259055
-9.12522e-05
-2.20322e-06
-0.00256687
-0.000129973
-6.76667e-06
-0.0025121
-1.39479e-05
-0.0024089
-0.000159276
2.03623e-05
2.09439e-06
-0.00289197
8.41655e-06
2.69937e-06
-0.00289724
-3.29601e-06
2.87203e-06
-0.00289992
-1.53963e-05
2.67531e-06
-0.00290028
-2.87277e-05
2.125e-06
-0.00289803
-4.45211e-05
1.17444e-06
-0.00289269
-6.52288e-05
-3.28252e-07
-0.00288119
-9.45767e-05
-2.64825e-06
-0.00285648
-0.00014068
-6.40229e-06
-0.00279557
-1.37366e-05
-0.00267344
-0.000180578
1.97479e-05
1.14999e-06
-0.00317924
8.25517e-06
1.32745e-06
-0.00318517
-2.95707e-06
1.24755e-06
-0.00318831
-1.45145e-05
7.72495e-07
-0.00318896
-2.74181e-05
2.58168e-08
-0.0031869
-4.31417e-05
-1.01348e-06
-0.0031817
-6.46427e-05
-2.33678e-06
-0.00317027
-9.64335e-05
-4.09037e-06
-0.00314574
-0.000148891
-6.37055e-06
-0.00307981
-1.15112e-05
-0.00293602
-0.000200577
1.8585e-05
-0.00344737
7.01029e-06
-0.00345309
-4.09374e-06
-0.00345504
-1.54363e-05
-0.00345315
-2.79089e-05
-0.00344738
-4.29951e-05
-0.00343758
-6.36931e-05
-0.00342102
-9.54039e-05
-0.00339167
-0.000150673
-0.00332091
-0.00316235
-0.000215345
9.33555e-06
6.08033e-07
-0.0008495
3.46564e-06
8.51575e-07
-0.000850889
-2.58562e-06
9.43739e-07
-0.000851358
-8.54493e-06
8.77734e-07
-0.000851072
-1.41055e-05
6.52126e-07
-0.000850058
-1.88446e-05
2.58027e-07
-0.000848269
-2.212e-05
-3.11504e-07
-0.000845634
-2.28931e-05
-1.05862e-06
-0.000842091
-1.95812e-05
-1.97975e-06
-0.000837665
-2.86323e-06
-0.000832819
-1.05852e-05
1.17275e-05
1.11416e-06
-0.00114072
4.10996e-06
1.56449e-06
-0.00114252
-3.63657e-06
1.73282e-06
-0.00114316
-1.13744e-05
1.63485e-06
-0.00114265
-1.88874e-05
1.25331e-06
-0.00114092
-2.57864e-05
5.70161e-07
-0.00113779
-3.1312e-05
-4.46065e-07
-0.00113294
-3.39465e-05
-1.81746e-06
-0.00112598
-3.08509e-05
-3.60392e-06
-0.00111648
-5.41835e-06
-0.00110595
-1.81549e-05
1.44378e-05
1.48319e-06
-0.00143128
5.26145e-06
2.09473e-06
-0.00143366
-3.98198e-06
2.33137e-06
-0.00143452
-1.32929e-05
2.23092e-06
-0.00143385
-2.25649e-05
1.75696e-06
-0.00143147
-3.15029e-05
8.74759e-07
-0.00142701
-3.94294e-05
-4.93095e-07
-0.00141978
-4.47348e-05
-2.39927e-06
-0.00140877
-4.34928e-05
-5.03768e-06
-0.00139245
-7.89383e-06
-0.00137294
-2.87121e-05
1.65265e-05
1.79261e-06
-0.00171958
6.23182e-06
2.58531e-06
-0.00172264
-4.12679e-06
2.91268e-06
-0.00172382
-1.46865e-05
2.84408e-06
-0.00172313
-2.54921e-05
2.3257e-06
-0.00172032
-3.64549e-05
1.31557e-06
-0.00171483
-4.71074e-05
-3.2234e-07
-0.00170544
-5.58656e-05
-2.68032e-06
-0.00169025
-5.78776e-05
-6.18034e-06
-0.00166558
-1.01742e-05
-0.00163372
-4.28904e-05
1.82789e-05
2.13383e-06
-0.00201001
7.19894e-06
3.02148e-06
-0.00201379
-3.91414e-06
3.40078e-06
-0.00201541
-1.53364e-05
3.353e-06
-0.00201489
-2.73047e-05
2.81749e-06
-0.0020119
-3.99803e-05
1.74295e-06
-0.00200573
-5.32005e-05
-7.13219e-08
-0.00199455
-6.55986e-05
-2.77103e-06
-0.00197538
-7.19288e-05
-7.05695e-06
-0.00194142
-1.21931e-05
-0.00189457
-5.86354e-05
1.9513e-05
2.36137e-06
-0.00229924
7.88335e-06
3.29429e-06
-0.00230376
-3.72221e-06
3.67867e-06
-0.00230579
-1.57056e-05
3.62709e-06
-0.00230548
-2.84803e-05
3.07651e-06
-0.00230241
-4.24831e-05
1.97924e-06
-0.0022958
-5.79537e-05
9.10186e-08
-0.00228321
-7.39549e-05
-2.78602e-06
-0.00226048
-8.55273e-05
-7.60881e-06
-0.00221691
-1.37668e-05
-0.00215317
-7.58078e-05
2.02707e-05
2.40157e-06
-0.00258883
8.40582e-06
3.24206e-06
-0.00259408
-3.38928e-06
3.57211e-06
-0.00259661
-1.55948e-05
3.47173e-06
-0.00259658
-2.88115e-05
2.91838e-06
-0.00259357
-4.37363e-05
1.85425e-06
-0.00258676
-6.10695e-05
1.96324e-08
-0.00257314
-8.04445e-05
-2.86863e-06
-0.00254741
-9.78695e-05
-7.85617e-06
-0.00249442
-1.48959e-05
-0.00241251
-9.31371e-05
2.02514e-05
2.10913e-06
-0.00287883
8.28382e-06
2.75676e-06
-0.00288479
-3.50248e-06
2.95956e-06
-0.00288752
-1.56727e-05
2.78202e-06
-0.00288742
-2.89405e-05
2.22208e-06
-0.00288407
-4.42515e-05
1.22504e-06
-0.00287675
-6.28328e-05
-4.025e-07
-0.00286219
-8.50332e-05
-3.02146e-06
-0.00283413
-0.000108506
-7.33074e-06
-0.00277263
-1.48293e-05
-0.00267192
-0.000110095
1.97025e-05
1.19872e-06
-0.00316568
8.12992e-06
1.40396e-06
-0.00317225
-3.2174e-06
1.38898e-06
-0.00317539
-1.49052e-05
9.98915e-07
-0.00317549
-2.77858e-05
3.45654e-07
-0.00317215
-4.30382e-05
-6.07709e-07
-0.00316462
-6.25114e-05
-1.89514e-06
-0.0031493
-8.76645e-05
-3.7518e-06
-0.00311985
-0.000117049
-6.49508e-06
-0.00305126
-1.2214e-05
-0.00292903
-0.000126649
1.86144e-05
-0.00343371
7.08136e-06
-0.00344015
-4.04684e-06
-0.00344252
-1.54398e-05
-0.00344075
-2.78663e-05
-0.00343461
-4.25451e-05
-0.00342351
-6.14263e-05
-0.00340403
-8.70611e-05
-0.00336979
-0.000119677
-0.00329479
-0.00315484
-0.000139404
6.85044e-06
4.22822e-07
-0.000846154
2.57618e-06
6.5342e-07
-0.000847268
-1.89735e-06
7.44159e-07
-0.000847629
-6.2398e-06
6.81891e-07
-0.000847411
-1.01065e-05
4.70114e-07
-0.000846661
-1.30924e-05
1.07919e-07
-0.000845391
-1.47039e-05
-3.96275e-07
-0.000843626
-1.43369e-05
-1.02114e-06
-0.000841437
-1.1321e-05
-1.72094e-06
-0.00083896
-2.32915e-06
-0.000836445
-5.36582e-06
9.38952e-06
8.1953e-07
-0.00113551
3.29981e-06
1.25913e-06
-0.00113704
-2.96625e-06
1.42589e-06
-0.00113757
-9.12869e-06
1.32691e-06
-0.00113713
-1.4845e-05
9.50691e-07
-0.00113569
-1.96454e-05
2.90539e-07
-0.00113317
-2.28143e-05
-6.5861e-07
-0.00112951
-2.32482e-05
-1.87484e-06
-0.00112469
-1.92837e-05
-3.31492e-06
-0.00111885
-4.63328e-06
-0.00111317
-9.76622e-06
1.24594e-05
1.18334e-06
-0.00142411
4.59492e-06
1.79144e-06
-0.00142633
-3.40302e-06
2.0246e-06
-0.00142712
-1.13514e-05
1.90857e-06
-0.00142648
-1.8975e-05
1.41223e-06
-0.00142431
-2.58016e-05
5.11004e-07
-0.00142041
-3.09548e-05
-8.41425e-07
-0.00141445
-3.28558e-05
-2.64724e-06
-0.0014061
-2.86167e-05
-4.92636e-06
-0.00139508
-7.14193e-06
-0.00138366
-1.53891e-05
1.48956e-05
1.5272e-06
-0.00171089
5.64452e-06
2.33279e-06
-0.00171393
-3.74629e-06
2.65841e-06
-0.00171506
-1.32104e-05
2.5614e-06
-0.00171432
-2.25835e-05
1.99292e-06
-0.00171153
-3.15001e-05
9.17453e-07
-0.00170632
-3.90677e-05
-7.67608e-07
-0.00169795
-4.33537e-05
-3.10435e-06
-0.00168551
-4.00368e-05
-6.27255e-06
-0.00166755
-9.53891e-06
-0.00164751
-2.38484e-05
1.69793e-05
1.91148e-06
-0.00200009
6.67393e-06
2.82532e-06
-0.00200397
-3.73736e-06
3.20733e-06
-0.00200554
-1.43317e-05
3.12487e-06
-0.00200486
-2.51152e-05
2.51997e-06
-0.00200165
-3.59104e-05
1.34187e-06
-0.00199536
-4.59392e-05
-5.80276e-07
-0.00198471
-5.30698e-05
-3.34923e-06
-0.001968
-5.16645e-05
-7.379e-06
-0.00194172
-1.1772e-05
-0.00191036
-3.3646e-05
1.85238e-05
2.19951e-06
-0.00228827
7.43929e-06
3.16879e-06
-0.00229302
-3.69383e-06
3.56143e-06
-0.00229501
-1.50965e-05
3.47863e-06
-0.00229443
-2.69456e-05
2.85494e-06
-0.00229089
-3.93075e-05
1.63632e-06
-0.00228373
-5.16556e-05
-4.02712e-07
-0.00227104
-6.18715e-05
-3.43475e-06
-0.00225018
-6.33714e-05
-8.12401e-06
-0.00221466
-1.35888e-05
-0.00216971
-4.50151e-05
1.95183e-05
2.2968e-06
-0.00257701
8.01708e-06
3.17943e-06
-0.00258259
-3.48215e-06
3.52444e-06
-0.00258507
-1.53053e-05
3.40347e-06
-0.00258468
-2.78227e-05
2.78625e-06
-0.00258098
-4.13583e-05
1.6062e-06
-0.00257319
-5.57389e-05
-3.91612e-07
-0.00255877
-6.90355e-05
-3.48148e-06
-0.00253407
-7.42188e-05
-8.48779e-06
-0.00248888
-1.49511e-05
-0.0024285
-5.68632e-05
1.97016e-05
2.04354e-06
-0.00286628
7.99252e-06
2.73463e-06
-0.00287264
-3.6071e-06
2.96329e-06
-0.00287536
-1.55354e-05
2.79658e-06
-0.00287488
-2.82884e-05
2.21572e-06
-0.00287074
-4.24442e-05
1.15746e-06
-0.00286215
-5.83029e-05
-5.90169e-07
-0.00284613
-7.4389e-05
-3.40914e-06
-0.00281811
-8.38723e-05
-7.91076e-06
-0.00276372
-1.50063e-05
-0.00268668
-6.90526e-05
1.9278e-05
1.19853e-06
-0.00315259
7.8769e-06
1.43233e-06
-0.00315954
-3.37591e-06
1.47421e-06
-0.00316265
-1.49273e-05
1.15321e-06
-0.00316229
-2.7421e-05
5.7023e-07
-0.00315801
-4.16417e-05
-3.27473e-07
-0.00314891
-5.8387e-05
-1.60671e-06
-0.00313154
-7.72854e-05
-3.53805e-06
-0.00310083
-9.15603e-05
-6.47462e-06
-0.00303842
-1.20762e-05
-0.00294203
-8.1489e-05
1.8299e-05
-0.00342054
7.01136e-06
-0.00342743
-3.95599e-06
-0.00343008
-1.51795e-05
-0.00342838
-2.72525e-05
-0.00342197
-4.10449e-05
-0.00341004
-5.75014e-05
-0.00338918
-7.70877e-05
-0.00335374
-9.415e-05
-0.0032842
-0.00317021
-9.08565e-05
4.8173e-06
2.49677e-07
-0.000843893
1.84357e-06
4.54369e-07
-0.000844749
-1.31366e-06
5.38769e-07
-0.00084501
-4.34544e-06
4.84297e-07
-0.000844864
-6.94507e-06
2.98327e-07
-0.00084436
-8.78986e-06
-1.41488e-08
-0.000843532
-9.55059e-06
-4.34838e-07
-0.000842431
-8.9127e-06
-9.31741e-07
-0.000841143
-6.64689e-06
-1.44841e-06
-0.000839777
-1.86676e-06
-0.000838378
-2.8471e-06
7.17145e-06
5.18116e-07
-0.00113168
2.52146e-06
9.26285e-07
-0.00113286
-2.32062e-06
1.08436e-06
-0.00113327
-7.02332e-06
9.91241e-07
-0.00113294
-1.12139e-05
6.41019e-07
-0.00113184
-1.44509e-05
3.81709e-08
-0.00112999
-1.6175e-05
-8.00765e-07
-0.00112742
-1.57053e-05
-1.8274e-06
-0.00112427
-1.22604e-05
-2.95319e-06
-0.00112079
-3.909e-06
-0.00111773
-5.65333e-06
1.03378e-05
8.43972e-07
-0.00141847
3.87234e-06
1.42505e-06
-0.00142036
-2.77167e-06
1.64738e-06
-0.00142104
-9.289e-06
1.52413e-06
-0.00142049
-1.53058e-05
1.03107e-06
-0.00141868
-2.03019e-05
1.5805e-07
-0.00141553
-2.34797e-05
-1.10706e-06
-0.00141096
-2.36642e-05
-2.72463e-06
-0.00140501
-1.91497e-05
-4.61523e-06
-0.00139793
-6.31508e-06
-0.00139131
-9.09343e-06
1.2958e-05
1.19359e-06
-0.00170372
4.95346e-06
1.9898e-06
-0.00170649
-3.25625e-06
2.30701e-06
-0.00170751
-1.14312e-05
2.18909e-06
-0.00170681
-1.9244e-05
1.59541e-06
-0.00170428
-2.61801e-05
5.04337e-07
-0.00169973
-3.128e-05
-1.14258e-06
-0.00169281
-3.28903e-05
-3.33437e-06
-0.00168329
-2.80286e-05
-6.07716e-06
-0.00167095
-8.68787e-06
-0.00165862
-1.45507e-05
1.52889e-05
1.60225e-06
-0.00199154
6.02224e-06
2.52301e-06
-0.00199524
-3.42265e-06
2.9016e-06
-0.00199669
-1.2926e-05
2.78938e-06
-0.00199595
-2.22835e-05
2.1352e-06
-0.00199283
-3.10771e-05
8.97886e-07
-0.00198696
-3.82929e-05
-1.04579e-06
-0.00197759
-4.18791e-05
-3.73883e-06
-0.00196401
-3.74031e-05
-7.34861e-06
-0.00194493
-1.09876e-05
-0.00192458
-2.08808e-05
1.71074e-05
1.94072e-06
-0.00227852
6.85612e-06
2.93155e-06
-0.00228318
-3.52207e-06
3.32716e-06
-0.00228506
-1.40476e-05
3.21488e-06
-0.00228433
-2.4658e-05
2.53167e-06
-0.00228068
-3.51073e-05
1.22662e-06
-0.00227361
-4.44644e-05
-8.83406e-07
-0.00226185
-5.0443e-05
-3.91568e-06
-0.00224402
-4.72182e-05
-8.24084e-06
-0.002217
-1.29098e-05
-0.00218648
-2.85262e-05
1.83328e-05
2.10022e-06
-0.00256624
7.48559e-06
3.0157e-06
-0.00257182
-3.43815e-06
3.37198e-06
-0.00257419
-1.45751e-05
3.23069e-06
-0.00257356
-2.60436e-05
2.55783e-06
-0.00256954
-3.78111e-05
1.28574e-06
-0.00256149
-4.91457e-05
-8.11015e-07
-0.00254751
-5.76871e-05
-3.95365e-06
-0.00252549
-5.64492e-05
-8.69077e-06
-0.00248967
-1.43512e-05
-0.00244701
-3.64947e-05
1.87381e-05
1.89212e-06
-0.00285464
7.56189e-06
2.62349e-06
-0.00286107
-3.58926e-06
2.87344e-06
-0.00286371
-1.49854e-05
2.71233e-06
-0.00286297
-2.68749e-05
2.10831e-06
-0.0028584
-3.94514e-05
9.96476e-07
-0.00284928
-5.23233e-05
-8.2815e-07
-0.00283324
-6.3339e-05
-3.71092e-06
-0.00280734
-6.48651e-05
-8.09824e-06
-0.00276279
-1.44342e-05
-0.00270648
-4.49851e-05
1.84722e-05
1.14263e-06
-0.0031403
7.49864e-06
1.40342e-06
-0.00314735
-3.41708e-06
1.49365e-06
-0.00315035
-1.45613e-05
1.22713e-06
-0.00314967
-2.63439e-05
6.956e-07
-0.00314481
-3.91501e-05
-1.64851e-07
-0.00313495
-5.29323e-05
-1.43848e-06
-0.00311714
-6.63005e-05
-3.37866e-06
-0.00308779
-7.12626e-05
-6.28828e-06
-0.00303527
-1.12862e-05
-0.00296282
-5.36204e-05
1.76307e-05
-0.00340815
6.80004e-06
-0.0034152
-3.80581e-06
-0.00341798
-1.46299e-05
-0.00341633
-2.60608e-05
-0.00340984
-3.85998e-05
-0.00339767
-5.23866e-05
-0.00337683
-6.65633e-05
-0.00334294
-7.36963e-05
-0.00328336
-0.00319561
-5.95836e-05
3.2916e-06
1.05634e-07
-0.000842368
1.28873e-06
2.77401e-07
-0.000843023
-8.65825e-07
3.52293e-07
-0.000843208
-2.91967e-06
3.07667e-07
-0.000843118
-4.63229e-06
1.53523e-07
-0.000842801
-5.77054e-06
-1.02115e-07
-0.000842292
-6.13012e-06
-4.36653e-07
-0.000841634
-5.55972e-06
-8.1678e-07
-0.000840896
-4.01202e-06
-1.19043e-06
-0.000840134
-1.47661e-06
-0.000839267
-1.64642e-06
5.25114e-06
2.41832e-07
-0.00112892
1.83322e-06
6.02973e-07
-0.00112976
-1.76554e-06
7.4653e-07
-0.00113007
-5.22836e-06
6.64619e-07
-0.00112983
-8.21436e-06
3.55809e-07
-0.00112905
-1.03602e-05
-1.67118e-07
-0.00112778
-1.12722e-05
-8.74092e-07
-0.00112607
-1.05679e-05
-1.70539e-06
-0.00112408
-7.94784e-06
-2.56416e-06
-0.00112204
-3.25446e-06
-0.00112036
-3.53821e-06
8.28837e-06
5.02688e-07
-0.00141417
3.15909e-06
1.03418e-06
-0.00141566
-2.16556e-06
1.23829e-06
-0.00141621
-7.33044e-06
1.11659e-06
-0.00141578
-1.19349e-05
6.51496e-07
-0.00141437
-1.54923e-05
-1.53125e-07
-0.00141199
-1.73744e-05
-1.28137e-06
-0.00140867
-1.6823e-05
-2.66514e-06
-0.00140461
-1.29854e-05
-4.1811e-06
-0.00140015
-5.47224e-06
-0.0013963
-5.77971e-06
1.09046e-05
8.26961e-07
-0.001698
4.21405e-06
1.58842e-06
-0.00170035
-2.7245e-06
1.88938e-06
-0.00170123
-9.55833e-06
1.76036e-06
-0.00170062
-1.58676e-05
1.17043e-06
-0.00169849
-2.10944e-05
1.14745e-07
-0.00169477
-2.43895e-05
-1.42183e-06
-0.00168937
-2.45494e-05
-3.38337e-06
-0.00168241
-1.98192e-05
-5.67176e-06
-0.00167419
-7.72636e-06
-0.00166664
-9.54559e-06
1.33541e-05
1.23485e-06
-0.00198442
5.28596e-06
2.13725e-06
-0.00198772
-3.01842e-06
2.50444e-06
-0.001989
-1.12835e-05
2.37114e-06
-0.0019883
-1.91532e-05
1.69586e-06
-0.00198548
-2.6079e-05
4.53378e-07
-0.00198037
-3.10477e-05
-1.42611e-06
-0.00197262
-3.24091e-05
-3.92525e-06
-0.00196211
-2.7219e-05
-7.03386e-06
-0.00194875
-9.98503e-06
-0.00193571
-1.38275e-05
1.53664e-05
1.60524e-06
-0.00227012
6.16411e-06
2.59553e-06
-0.00227443
-3.23633e-06
2.98668e-06
-0.00227614
-1.26742e-05
2.85071e-06
-0.00227537
-2.18911e-05
2.13127e-06
-0.0022719
-3.04267e-05
7.89248e-07
-0.00226541
-3.72133e-05
-1.30275e-06
-0.00225518
-4.02464e-05
-4.19474e-06
-0.00224072
-3.52561e-05
-8.01591e-06
-0.002221
-1.18969e-05
-0.00220066
-1.9164e-05
1.67796e-05
1.82358e-06
-0.00255673
6.83141e-06
2.75526e-06
-0.00256204
-3.27152e-06
3.11682e-06
-0.00256422
-1.34769e-05
2.95866e-06
-0.00256346
-2.36771e-05
2.24749e-06
-0.00255946
-3.35593e-05
9.23492e-07
-0.00255174
-4.2104e-05
-1.19129e-06
-0.00253908
-4.70711e-05
-4.2398e-06
-0.00252048
-4.28757e-05
-8.51054e-06
-0.00249337
-1.32809e-05
-0.00246393
-2.4576e-05
1.74003e-05
1.66004e-06
-0.00284414
7.00392e-06
2.42218e-06
-0.00285034
-3.45433e-06
2.68717e-06
-0.00285282
-1.40641e-05
2.52899e-06
-0.00285193
-2.48384e-05
1.90701e-06
-0.00284729
-3.56437e-05
7.62507e-07
-0.00283832
-4.5652e-05
-1.08154e-06
-0.00282334
-5.26165e-05
-3.89066e-06
-0.00280072
-4.99937e-05
-7.91787e-06
-0.002766
-1.32836e-05
-0.00272597
-3.05015e-05
1.73041e-05
1.03101e-06
-0.00312908
6.99903e-06
1.31349e-06
-0.00313594
-3.34301e-06
1.44288e-06
-0.00313876
-1.38287e-05
1.21841e-06
-0.00313787
-2.46389e-05
7.25368e-07
-0.00313282
-3.58106e-05
-1.04748e-07
-0.00312291
-4.67348e-05
-1.35935e-06
-0.00310594
-5.55493e-05
-3.23928e-06
-0.00307963
-5.51191e-05
-5.95476e-06
-0.00303766
-1.01059e-05
-0.00298498
-3.61459e-05
1.66209e-05
-0.00339682
6.45131e-06
-0.00340372
-3.59176e-06
-0.0034065
-1.37959e-05
-0.0034049
-2.43408e-05
-0.00339857
-3.539e-05
-0.00338672
-4.65245e-05
-0.00336706
-5.61785e-05
-0.00333652
-5.73768e-05
-0.00328812
-0.0032234
-3.96935e-05
2.21232e-06
-2.97372e-09
-0.000841324
8.94032e-07
1.34872e-07
-0.00084184
-5.42547e-07
1.99144e-07
-0.000841971
-1.90593e-06
1.64593e-07
-0.000841919
-3.02081e-06
4.28201e-08
-0.000841729
-3.72712e-06
-1.57497e-07
-0.000841428
-3.90093e-06
-4.13688e-07
-0.000841047
-3.47156e-06
-6.96208e-07
-0.000840629
-2.44989e-06
-9.62539e-07
-0.000840193
-1.1577e-06
-0.000839589
-9.6995e-07
3.69624e-06
9.99095e-09
-0.00112693
1.26279e-06
3.16064e-07
-0.00112751
-1.32458e-06
4.41601e-07
-0.00112772
-3.79841e-06
3.73892e-07
-0.00112757
-5.87752e-06
1.14599e-07
-0.00112705
-7.28546e-06
-3.19063e-07
-0.00112621
-7.7604e-06
-8.91406e-07
-0.00112512
-7.09883e-06
-1.54223e-06
-0.0011239
-5.21453e-06
-2.18377e-06
-0.0011227
-2.67666e-06
-0.00112177
-2.29173e-06
6.4529e-06
1.89096e-07
-0.00141094
2.50527e-06
6.53741e-07
-0.00141205
-1.62892e-06
8.33609e-07
-0.00141247
-5.60262e-06
7.20596e-07
-0.00141215
-9.04117e-06
3.0245e-07
-0.00141112
-1.15323e-05
-4.06722e-07
-0.00140941
-1.26166e-05
-1.37248e-06
-0.00140711
-1.18379e-05
-2.51383e-06
-0.00140441
-8.82858e-06
-3.69799e-06
-0.00140165
-4.66304e-06
-0.00139939
-3.74964e-06
8.8969e-06
4.61415e-07
-0.00169356
3.47893e-06
1.16411e-06
-0.00169545
-2.20277e-06
1.44103e-06
-0.00169615
-7.7471e-06
1.31071e-06
-0.00169567
-1.2709e-05
7.51653e-07
-0.00169398
-1.65612e-05
-2.25381e-07
-0.0016911
-1.86233e-05
-1.60153e-06
-0.00168708
-1.80916e-05
-3.29054e-06
-0.00168216
-1.40517e-05
-5.14413e-06
-0.00167678
-6.72946e-06
-0.00167217
-6.45676e-06
1.13242e-05
8.4177e-07
-0.00197865
4.5123e-06
1.69836e-06
-0.00198144
-2.57065e-06
2.04524e-06
-0.00198252
-9.55105e-06
1.90113e-06
-0.00198191
-1.59911e-05
1.23536e-06
-0.00197953
-2.13078e-05
4.07926e-08
-0.00197532
-2.46113e-05
-1.70364e-06
-0.00196921
-2.4696e-05
-3.93122e-06
-0.00196138
-1.98247e-05
-6.52174e-06
-0.00195225
-8.86198e-06
-0.00194394
-9.46304e-06
1.34247e-05
1.22064e-06
-0.00226311
5.40216e-06
2.18344e-06
-0.0022669
-2.87161e-06
2.56103e-06
-0.00226839
-1.10988e-05
2.40979e-06
-0.00226765
-1.88891e-05
1.6829e-06
-0.00226456
-2.56735e-05
3.58328e-07
-0.00225894
-3.04252e-05
-1.63358e-06
-0.0022505
-3.15619e-05
-4.27887e-06
-0.00223924
-2.63163e-05
-7.53345e-06
-0.00222524
-1.06739e-05
-0.00221182
-1.33463e-05
1.49537e-05
1.48674e-06
-0.00254859
6.0842e-06
2.41185e-06
-0.0025534
-3.00615e-06
2.77059e-06
-0.00255534
-1.2104e-05
2.60147e-06
-0.00255455
-2.09287e-05
1.87568e-06
-0.00255082
-2.89894e-05
5.48312e-07
-0.00254387
-3.51944e-05
-1.5034e-06
-0.002533
-3.7653e-05
-4.33845e-06
-0.00251796
-3.24474e-05
-8.03571e-06
-0.00249807
-1.19132e-05
-0.00247805
-1.70859e-05
1.57587e-05
1.36019e-06
-0.00283493
6.34095e-06
2.13744e-06
-0.00284065
-3.21748e-06
2.40966e-06
-0.0028429
-1.28388e-05
2.25431e-06
-0.00284196
-2.2341e-05
1.62637e-06
-0.00283754
-3.13574e-05
4.80013e-07
-0.00282923
-3.88651e-05
-1.32134e-06
-0.00281602
-4.2813e-05
-3.94827e-06
-0.00279717
-3.83445e-05
-7.47183e-06
-0.00277103
-1.17995e-05
-0.00274311
-2.13191e-05
1.58233e-05
8.69287e-07