/*--------------------------------*- C++ -*----------------------------------*\
| =========                 |                                                 |
| \\      /  F ield         | foam-extend: Open Source CFD                    |
|  \\    /   O peration     | Version:     4.0                                |
|   \\  /    A nd           | Web:         http://www.foam-extend.org         |
|    \\/     M anipulation  |                                                 |
\*---------------------------------------------------------------------------*/
FoamFile
{
    version     2.0;
    format      ascii;
    class       volScalarField;
    location    "1700";
    object      T;
}
// * * * * * * * * * * * * * * * * * * * * * * * * * * * * * * * * * * * * * //

dimensions      [0 0 0 1 0 0 0];

internalField   nonuniform List<scalar> 
34480
(
278.813
278.702
278.621
278.566
278.534
278.525
278.54
278.624
278.896
278.862
278.26
278.142
278.049
277.982
277.949
277.952
277.977
278.022
278.239
277.795
278.148
278.017
277.911
277.837
277.799
277.787
277.768
277.714
277.843
277.067
278.189
278.037
277.908
277.806
277.733
277.67
277.586
277.428
277.434
276.31
278.203
278.025
277.868
277.733
277.619
277.499
277.346
277.077
276.927
275.448
278.271
278.07
277.89
277.729
277.58
277.41
277.19
276.806
276.471
274.608
278.298
278.072
277.867
277.681
277.501
277.287
277.004
276.507
275.961
273.711
278.369
278.121
277.904
277.709
277.521
277.292
276.975
276.394
275.638
272.969
278.426
278.157
277.922
277.709
277.496
277.24
276.88
276.215
275.25
272.226
279.242
278.961
278.758
278.616
278.511
278.391
278.181
277.655
276.65
273.195
279.346
279.253
279.217
279.233
279.305
279.452
279.712
280.169
280.838
281.708
278.695
278.611
278.578
278.595
278.676
278.843
279.134
279.632
280.425
281.446
278.489
278.411
278.381
278.401
278.488
278.66
278.949
279.439
280.29
281.406
278.436
278.357
278.323
278.334
278.408
278.558
278.823
279.288
280.169
281.332
278.362
278.277
278.236
278.234
278.288
278.41
278.643
279.069
279.95
281.128
278.352
278.265
278.218
278.208
278.246
278.342
278.54
278.918
279.77
280.925
278.31
278.215
278.162
278.142
278.167
278.238
278.402
278.727
279.526
280.64
278.327
278.231
278.18
278.165
278.193
278.26
278.404
278.683
279.409
280.433
278.343
278.24
278.183
278.16
278.175
278.227
278.346
278.577
279.223
280.167
279.108
279.017
278.996
279.039
279.142
279.296
279.516
279.821
280.417
281.086
279.819
279.72
279.685
279.705
279.783
279.929
280.16
280.506
281.005
281.628
279.162
279.064
279.029
279.053
279.144
279.318
279.608
280.064
280.771
281.7
278.941
278.842
278.807
278.832
278.928
279.115
279.432
279.948
280.819
282.033
278.857
278.755
278.714
278.732
278.82
278.999
279.318
279.862
280.868
282.334
278.753
278.645
278.597
278.603
278.677
278.837
279.142
279.689
280.793
282.465
278.717
278.605
278.552
278.549
278.61
278.75
279.034
279.565
280.728
282.553
278.652
278.534
278.475
278.463
278.51
278.63
278.888
279.392
280.579
282.518
278.65
278.53
278.472
278.464
278.513
278.626
278.868
279.338
280.514
282.513
278.649
278.525
278.462
278.448
278.489
278.59
278.808
279.237
280.376
282.454
279.381
279.269
279.233
279.268
279.373
279.548
279.833
280.301
281.385
283.383
280.157
280.072
280.042
280.061
280.13
280.25
280.428
280.67
280.975
281.314
279.529
279.436
279.404
279.43
279.518
279.678
279.924
280.277
280.762
281.31
279.319
279.218
279.183
279.211
279.31
279.493
279.787
280.228
280.884
281.676
279.223
279.113
279.073
279.097
279.196
279.386
279.705
280.21
281.031
282.08
279.103
278.985
278.938
278.954
279.045
279.229
279.556
280.1
281.061
282.352
279.049
278.926
278.873
278.882
278.964
279.138
279.463
280.025
281.098
282.599
278.967
278.837
278.779
278.78
278.853
279.013
279.327
279.891
281.046
282.728
278.949
278.818
278.76
278.762
278.837
278.994
279.299
279.853
281.052
282.871
278.933
278.8
278.738
278.736
278.804
278.952
279.246
279.779
280.983
282.951
279.633
279.51
279.467
279.5
279.612
279.81
280.148
280.71
281.884
283.884
280.387
280.32
280.297
280.312
280.363
280.448
280.568
280.717
280.886
281.053
279.805
279.728
279.701
279.723
279.796
279.924
280.111
280.357
280.657
280.952
279.625
279.532
279.5
279.526
279.616
279.775
280.018
280.356
280.804
281.272
279.534
279.427
279.389
279.414
279.511
279.69
279.975
280.394
280.998
281.672
279.413
279.294
279.248
279.268
279.365
279.551
279.863
280.342
281.094
281.984
279.351
279.224
279.172
279.188
279.281
279.468
279.795
280.317
281.201
282.3
279.26
279.125
279.068
279.077
279.165
279.347
279.678
280.227
281.222
282.517
279.232
279.094
279.036
279.046
279.136
279.319
279.653
280.213
281.287
282.75
279.204
279.065
279.005
279.011
279.096
279.274
279.605
280.169
281.283
282.927
279.871
279.742
279.694
279.725
279.841
280.052
280.412
281.001
282.115
283.856
280.539
280.489
280.473
280.483
280.517
280.573
280.648
280.736
280.829
280.918
280.007
279.947
279.926
279.944
280
280.094
280.225
280.387
280.566
280.726
279.863
279.785
279.757
279.78
279.854
279.983
280.169
280.411
280.701
280.973
279.788
279.692
279.657
279.681
279.768
279.924
280.16
280.482
280.9
281.319
279.676
279.564
279.522
279.544
279.636
279.809
280.083
280.475
281.025
281.61
279.615
279.492
279.444
279.463
279.558
279.741
280.043
280.492
281.17
281.928
279.523
279.39
279.336
279.35
279.444
279.631
279.951
280.443
281.237
282.169
279.489
279.351
279.296
279.312
279.409
279.601
279.933
280.455
281.341
282.435
279.454
279.314
279.257
279.27
279.365
279.555
279.893
280.435
281.381
282.652
280.09
279.959
279.909
279.939
280.055
280.269
280.627
281.194
282.161
283.546
280.638
280.601
280.59
280.597
280.618
280.653
280.698
280.748
280.799
280.85
280.152
280.109
280.094
280.106
280.145
280.211
280.298
280.4
280.506
280.592
280.044
279.982
279.96
279.978
280.036
280.133
280.268
280.434
280.616
280.774
279.989
279.907
279.878
279.898
279.971
280.099
280.282
280.519
280.799
281.056
279.893
279.793
279.757
279.777
279.86
280.01
280.236
280.541
280.928
281.305
279.84
279.727
279.683
279.703
279.793
279.96
280.222
280.588
281.086
281.595
279.751
279.626
279.577
279.594
279.687
279.865
280.153
280.571
281.175
281.826
279.717
279.586
279.534
279.553
279.651
279.838
280.147
280.605
281.3
282.089
279.678
279.544
279.49
279.507
279.605
279.794
280.115
280.601
281.363
282.304
280.284
280.157
280.108
280.137
280.248
280.455
280.792
281.304
282.098
283.143
280.702
280.675
280.668
280.672
280.685
280.705
280.731
280.759
280.788
280.82
280.256
280.226
280.216
280.224
280.25
280.293
280.349
280.412
280.473
280.522
280.18
280.133
280.117
280.13
280.172
280.242
280.336
280.446
280.559
280.652
280.144
280.079
280.055
280.071
280.129
280.227
280.364
280.532
280.715
280.873
280.066
279.983
279.952
279.97
280.04
280.163
280.341
280.569
280.834
281.075
280.025
279.927
279.889
279.908
279.988
280.132
280.348
280.633
280.988
281.326
279.945
279.833
279.789
279.807
279.893
280.052
280.299
280.637
281.082
281.529
279.915
279.795
279.748
279.768
279.861
280.033
280.305
280.687
281.212
281.769
279.873
279.749
279.701
279.719
279.814
279.992
280.279
280.694
281.284
281.959
280.451
280.333
280.287
280.313
280.417
280.608
280.911
281.351
281.976
282.734
280.744
280.724
280.719
280.721
280.728
280.74
280.754
280.77
280.786
280.81
280.331
280.311
280.304
280.309
280.326
280.353
280.388
280.426
280.462
280.489
280.28
280.248
280.236
280.245
280.274
280.322
280.385
280.456
280.526
280.58
280.261
280.211
280.193
280.205
280.249
280.321
280.419
280.535
280.654
280.751
280.203
280.136
280.111
280.126
280.182
280.278
280.413
280.577
280.756
280.91
280.175
280.093
280.061
280.077
280.145
280.263
280.433
280.649
280.896
281.119
280.104
280.007
279.97
279.987
280.062
280.198
280.4
280.664
280.984
281.286
280.082
279.977
279.936
279.955
280.038
280.188
280.417
280.723
281.11
281.495
280.04
279.929
279.886
279.905
279.991
280.15
280.396
280.736
281.179
281.651
280.59
280.485
280.443
280.466
280.56
280.729
280.989
281.352
281.829
282.361
280.772
280.755
280.751
280.752
280.756
280.763
280.771
280.78
280.79
280.808
280.386
280.373
280.369
280.372
280.382
280.399
280.42
280.443
280.464
280.479
280.356
280.334
280.325
280.331
280.351
280.383
280.424
280.469
280.512
280.544
280.348
280.312
280.298
280.307
280.338
280.39
280.458
280.536
280.612
280.672
280.308
280.257
280.237
280.249
280.292
280.364
280.462
280.578
280.697
280.794
280.292
280.227
280.201
280.215
280.269
280.362
280.491
280.649
280.819
280.964
280.231
280.151
280.12
280.135
280.198
280.309
280.468
280.668
280.894
281.096
280.219
280.131
280.096
280.113
280.184
280.31
280.495
280.732
281.011
281.272
280.177
280.082
280.045
280.062
280.138
280.273
280.476
280.743
281.068
281.391
280.701
280.61
280.573
280.594
280.675
280.819
281.034
281.322
281.675
282.039
280.788
280.774
280.771
280.772
280.774
280.778
280.782
280.787
280.793
280.809
280.427
280.419
280.416
280.418
280.424
280.435
280.447
280.46
280.473
280.482
280.413
280.399
280.393
280.397
280.41
280.431
280.457
280.484
280.51
280.529
280.412
280.387
280.377
280.383
280.405
280.44
280.486
280.537
280.586
280.623
280.388
280.35
280.335
280.344
280.375
280.428
280.497
280.576
280.655
280.716
280.382
280.332
280.313
280.323
280.365
280.435
280.531
280.643
280.758
280.852
280.33
280.267
280.242
280.254
280.304
280.391
280.512
280.659
280.816
280.949
280.33
280.259
280.231
280.245
280.303
280.404
280.548
280.725
280.922
281.097
280.287
280.208
280.178
280.193
280.256
280.367
280.527
280.731
280.963
281.18
280.784
280.709
280.678
280.696
280.763
280.882
281.053
281.274
281.529
281.772
280.797
280.784
280.783
280.783
280.784
280.786
280.789
280.791
280.795
280.809
280.459
280.454
280.452
280.453
280.457
280.463
280.47
280.478
280.485
280.491
280.458
280.449
280.446
280.448
280.456
280.469
280.485
280.502
280.518
280.529
280.459
280.442
280.435
280.439
280.454
280.478
280.508
280.541
280.571
280.594
280.448
280.421
280.41
280.416
280.439
280.476
280.523
280.576
280.627
280.666
280.451
280.414
280.399
280.407
280.438
280.489
280.558
280.635
280.712
280.773
280.406
280.357
280.338
280.347
280.386
280.452
280.541
280.645
280.752
280.84
280.418
280.362
280.34
280.352
280.398
280.476
280.584
280.713
280.849
280.965
280.372
280.309
280.285
280.297
280.348
280.435
280.558
280.708
280.871
281.015
280.842
280.783
280.758
280.772
280.826
280.92
281.052
281.216
281.396
281.554
280.8
280.788
280.787
280.787
280.788
280.789
280.79
280.792
280.795
280.807
280.483
280.48
280.478
280.479
280.481
280.485
280.489
280.494
280.498
280.502
280.495
280.489
280.487
280.489
280.494
280.502
280.511
280.521
280.53
280.537
280.493
280.482
280.477
280.48
280.489
280.505
280.524
280.545
280.565
280.579
280.493
280.474
280.467
280.471
280.487
280.512
280.544
280.578
280.611
280.635
280.502
280.475
280.465
280.471
280.493
280.529
280.576
280.629
280.68
280.718
280.461
280.425
280.411
280.418
280.447
280.495
280.558
280.631
280.703
280.76
280.487
280.445
280.428
280.437
280.472
280.531
280.609
280.7
280.792
280.868
280.435
280.387
280.368
280.378
280.417
280.483
280.574
280.681
280.793
280.887
280.879
280.834
280.814
280.825
280.867
280.938
281.037
281.155
281.279
281.38
280.798
280.787
280.786
280.786
280.786
280.787
280.788
280.789
280.791
280.802
280.501
280.499
280.497
280.498
280.499
280.501
280.504
280.507
280.51
280.513
280.525
280.522
280.521
280.522
280.525
280.53
280.536
280.541
280.546
280.55
280.518
280.51
280.507
280.508
280.515
280.524
280.537
280.55
280.562
280.571
280.526
280.514
280.509
280.512
280.522
280.539
280.56
280.582
280.603
280.617
280.539
280.521
280.513
280.517
280.533
280.558
280.59
280.625
280.657
280.682
280.502
280.476
280.466
280.471
280.491
280.525
280.569
280.618
280.665
280.702
280.54
280.51
280.498
280.505
280.53
280.573
280.628
280.691
280.752
280.8
280.48
280.444
280.43
280.437
280.466
280.514
280.579
280.654
280.729
280.79
280.896
280.864
280.849
280.857
280.889
280.941
281.012
281.094
281.178
281.241
280.792
280.782
280.781
280.781
280.781
280.781
280.782
280.782
280.784
280.794
280.513
280.511
280.51
280.51
280.511
280.512
280.514
280.516
280.518
280.521
280.552
280.551
280.55
280.551
280.553
280.555
280.559
280.562
280.565
280.566
280.535
280.53
280.527
280.528
280.532
280.538
280.546
280.554
280.562
280.567
280.551
280.544
280.541
280.542
280.549
280.56
280.573
280.587
280.6
280.608
280.566
280.553
280.548
280.551
280.561
280.578
280.599
280.622
280.643
280.658
280.53
280.512
280.505
280.508
280.522
280.545
280.575
280.608
280.638
280.662
280.583
280.562
280.554
280.558
280.576
280.606
280.644
280.685
280.725
280.755
280.509
280.483
280.473
280.478
280.499
280.533
280.578
280.629
280.678
280.717
280.9
280.877
280.867
280.873
280.895
280.932
280.982
281.038
281.093
281.13
280.784
280.775
280.774
280.774
280.774
280.774
280.775
280.775
280.776
280.785
280.518
280.517
280.516
280.516
280.517
280.517
280.519
280.52
280.522
280.524
280.577
280.576
280.576
280.577
280.578
280.579
280.581
280.583
280.584
280.584
280.545
280.542
280.541
280.541
280.544
280.547
280.552
280.557
280.562
280.565
280.569
280.564
280.562
280.564
280.568
280.575
280.583
280.591
280.599
280.604
280.583
280.575
280.572
280.573
280.58
280.591
280.604
280.619
280.632
280.641
280.549
280.537
280.532
280.535
280.544
280.559
280.578
280.599
280.618
280.633
280.617
280.603
280.597
280.6
280.613
280.632
280.658
280.685
280.71
280.729
280.525
280.506
280.499
280.503
280.517
280.54
280.57
280.604
280.636
280.661
280.894
280.88
280.872
280.876
280.892
280.917
280.951
280.987
281.023
281.045
280.78
280.773
280.772
280.772
280.772
280.772
280.772
280.773
280.773
280.781
280.516
280.515
280.514
280.514
280.514
280.515
280.516
280.517
280.519
280.521
280.599
280.599
280.599
280.599
280.6
280.601
280.602
280.603
280.603
280.603
280.551
280.549
280.549
280.549
280.55
280.553
280.555
280.558
280.561
280.563
280.58
280.577
280.576
280.577
280.58
280.584
280.589
280.594
280.598
280.601
280.592
280.587
280.585
280.586
280.59
280.597
280.605
280.614
280.623
280.628
280.56
280.553
280.55
280.552
280.558
280.567
280.579
280.592
280.604
280.613
280.642
280.633
280.629
280.631
280.639
280.652
280.669
280.686
280.703
280.713
280.527
280.515
280.51
280.512
280.522
280.537
280.557
280.578
280.598
280.614
280.888
280.879
280.873
280.876
280.887
280.904
280.926
280.949
280.972
280.984
280.795
280.789
280.789
280.788
280.788
280.788
280.788
280.788
280.788
280.794
280.502
280.5
280.5
280.5
280.5
280.5
280.501
280.502
280.504
280.507
280.616
280.616
280.616
280.616
280.616
280.617
280.618
280.618
280.618
280.618
280.553
280.552
280.552
280.552
280.553
280.555
280.556
280.558
280.559
280.56
280.585
280.583
280.582
280.583
280.584
280.587
280.59
280.593
280.596
280.598
280.593
280.59
280.589
280.589
280.592
280.596
280.601
280.607
280.612
280.616
280.565
280.561
280.559
280.561
280.564
280.57
280.578
280.586
280.592
280.597
280.655
280.648
280.646
280.647
280.652
280.66
280.671
280.682
280.694
280.7
280.514
280.505
280.503
280.504
280.51
280.52
280.532
280.546
280.557
280.568
280.895
280.89
280.886
280.888
280.894
280.905
280.92
280.934
280.949
280.955
280.846
280.842
280.842
280.841
280.841
280.841
280.841
280.841
280.841
280.846
280.467
280.466
280.466
280.466
280.467
280.467
280.467
280.467
280.468
280.471
280.621
280.62
280.619
280.619
280.619
280.62
280.62
280.621
280.622
280.623
280.553
280.553
280.553
280.554
280.554
280.555
280.556
280.556
280.557
280.557
280.584
280.583
280.582
280.582
280.583
280.585
280.586
280.589
280.59
280.592
280.589
280.587
280.586
280.586
280.588
280.59
280.594
280.597
280.601
280.603
280.565
280.563
280.562
280.563
280.565
280.569
280.574
280.578
280.582
280.584
280.644
280.64
280.637
280.638
280.641
280.647
280.654
280.662
280.67
280.675
280.476
280.471
280.47
280.471
280.475
280.482
280.489
280.497
280.503
280.509
280.932
280.928
280.926
280.927
280.931
280.939
280.948
280.958
280.968
280.971
280.928
280.925
280.924
280.924
280.924
280.924
280.924
280.925
280.926
280.93
280.409
280.411
280.413
280.414
280.414
280.414
280.414
280.412
280.41
280.409
280.61
280.607
280.606
280.605
280.605
280.605
280.606
280.608
280.61
280.613
280.554
280.555
280.555
280.555
280.556
280.556
280.557
280.557
280.556
280.556
280.58
280.579
280.579
280.579
280.58
280.581
280.582
280.584
280.585
280.586
280.583
280.581
280.58
280.581
280.582
280.584
280.586
280.589
280.591
280.593
280.564
280.563
280.562
280.563
280.565
280.567
280.571
280.574
280.576
280.577
280.612
280.608
280.606
280.606
280.609
280.613
280.618
280.624
280.631
280.637
280.416
280.414
280.413
280.415
280.418
280.422
280.428
280.433
280.436
280.436
280.992
280.988
280.986
280.987
280.99
280.996
281.003
281.01
281.018
281.02
289.475
291.232
291.497
289.908
290.64
292.77
293.179
291.519
292.301
294.928
295.462
293.49
293.583
296.65
297.318
295.136
294.527
298.004
298.814
296.491
295.275
299.131
300.1
297.906
295.821
300.038
301.198
299.33
296.293
300.833
302.2
300.709
296.507
301.348
302.928
301.862
297.066
302.097
303.944
303.462
286.162
286.709
286.69
286.166
287.459
288.102
288.041
287.388
289.063
289.867
289.756
288.897
290.504
291.454
291.283
290.232
291.68
292.771
292.534
291.299
292.701
293.93
293.669
292.275
293.508
294.867
294.617
293.089
294.204
295.668
295.441
293.802
294.642
296.17
295.971
294.267
295.427
296.929
296.84
295.19
282.253
282.387
282.418
282.349
282.981
283.2
283.24
283.103
284.148
284.486
284.53
284.281
285.416
285.874
285.914
285.534
286.579
287.153
287.18
286.658
287.715
288.401
288.413
287.753
288.706
289.501
289.501
288.715
289.645
290.532
290.523
289.632
290.404
291.331
291.321
290.379
291.648
292.504
292.533
291.669
281.485
281.551
281.572
281.551
281.743
281.828
281.858
281.836
282.452
282.6
282.642
282.588
283.328
283.549
283.601
283.501
284.17
284.469
284.526
284.362
285.06
285.44
285.497
285.26
285.878
286.339
286.395
286.075
286.715
287.247
287.299
286.898
287.47
288.036
288.083
287.628
288.814
289.306
289.366
288.953
281.053
281.089
281.101
281.09
281.091
281.12
281.134
281.134
281.541
281.598
281.624
281.62
282.153
282.251
282.29
282.274
282.749
282.897
282.948
282.91
283.416
283.621
283.682
283.613
284.041
284.305
284.374
284.264
284.716
285.036
285.108
284.95
285.353
285.702
285.772
285.575
286.605
286.883
286.959
286.798
280.882
280.912
280.921
280.909
280.785
280.798
280.805
280.805
281.09
281.116
281.129
281.13
281.531
281.577
281.6
281.601
281.958
282.033
282.067
282.063
282.458
282.567
282.613
282.601
282.924
283.072
283.128
283.102
283.447
283.634
283.698
283.65
283.949
284.159
284.224
284.153
285.07
285.213
285.281
285.25
280.8
280.827
280.834
280.823
280.618
280.624
280.627
280.628
280.829
280.841
280.848
280.849
281.158
281.181
281.193
281.195
281.476
281.513
281.533
281.536
281.861
281.918
281.948
281.95
282.212
282.294
282.333
282.332
282.619
282.726
282.773
282.765
282.998
283.122
283.171
283.153
283.995
284.052
284.104
284.129
280.766
280.792
280.799
280.787
280.535
280.538
280.539
280.54
280.68
280.686
280.689
280.69
280.926
280.938
280.945
280.946
281.165
281.185
281.197
281.199
281.468
281.499
281.517
281.521
281.737
281.783
281.807
281.812
282.056
282.117
282.148
282.151
282.335
282.408
282.442
282.441
283.228
283.233
283.268
283.314
280.754
280.779
280.786
280.774
280.496
280.498
280.499
280.499
280.596
280.599
280.601
280.601
280.78
280.787
280.79
280.791
280.96
280.971
280.977
280.979
281.198
281.216
281.226
281.229
281.403
281.429
281.444
281.448
281.655
281.691
281.71
281.715
281.86
281.902
281.925
281.929
282.665
282.639
282.661
282.712
280.751
280.777
280.784
280.772
280.483
280.485
280.485
280.485
280.552
280.554
280.555
280.555
280.689
280.693
280.695
280.695
280.823
280.83
280.833
280.835
281.01
281.02
281.027
281.029
281.163
281.179
281.188
281.191
281.364
281.385
281.397
281.401
281.512
281.537
281.551
281.555
282.241
282.198
282.21
282.261
280.753
280.778
280.785
280.773
280.485
280.485
280.486
280.486
280.534
280.535
280.536
280.536
280.633
280.636
280.637
280.637
280.734
280.738
280.74
280.741
280.88
280.886
280.89
280.891
280.99
281
281.005
281.007
281.152
281.164
281.172
281.174
281.253
281.268
281.277
281.28
281.916
281.864
281.871
281.919
280.754
280.779
280.786
280.774
280.493
280.494
280.494
280.494
280.532
280.532
280.533
280.533
280.601
280.602
280.603
280.603
280.677
280.679
280.68
280.681
280.79
280.794
280.796
280.797
280.866
280.871
280.875
280.876
280.998
281.005
281.01
281.012
281.061
281.07
281.076
281.078
281.664
281.609
281.612
281.657
280.753
280.779
280.786
280.773
280.504
280.504
280.505
280.505
280.539
280.539
280.539
280.539
280.583
280.584
280.585
280.585
280.642
280.643
280.644
280.644
280.729
280.731
280.733
280.733
280.776
280.78
280.782
280.783
280.888
280.893
280.895
280.897
280.918
280.923
280.927
280.928
281.467
281.412
281.413
281.454
280.75
280.776
280.782
280.77
280.514
280.515
280.515
280.515
280.551
280.551
280.551
280.551
280.574
280.575
280.575
280.575
280.621
280.622
280.623
280.623
280.688
280.69
280.691
280.691
280.713
280.715
280.717
280.717
280.812
280.815
280.817
280.817
280.811
280.815
280.817
280.818
281.312
281.259
281.259
281.297
280.744
280.77
280.777
280.764
280.522
280.523
280.523
280.523
280.567
280.567
280.567
280.566
280.569
280.57
280.57
280.57
280.611
280.611
280.611
280.611
280.662
280.663
280.663
280.663
280.669
280.67
280.671
280.671
280.763
280.764
280.765
280.766
280.732
280.735
280.736
280.736
281.189
281.14
281.14
281.173
280.738
280.764
280.77
280.757
280.526
280.526
280.527
280.527
280.584
280.584
280.584
280.584
280.567
280.567
280.567
280.567
280.605
280.606
280.606
280.606
280.644
280.644
280.645
280.645
280.637
280.638
280.639
280.639
280.733
280.734
280.734
280.735
280.672
280.674
280.674
280.674
281.092
281.049
281.048
281.078
280.737
280.763
280.768
280.755
280.523
280.524
280.524
280.525
280.602
280.602
280.602
280.602
280.564
280.564
280.564
280.564
280.602
280.602
280.602
280.602
280.63
280.631
280.631
280.631
280.615
280.616
280.616
280.616
280.716
280.717
280.717
280.717
280.623
280.624
280.625
280.624
281.021
280.984
280.984
281.008
280.755
280.78
280.785
280.772
280.509
280.51
280.511
280.511
280.618
280.617
280.617
280.617
280.56
280.56
280.56
280.56
280.598
280.598
280.598
280.598
280.617
280.618
280.618
280.618
280.598
280.598
280.598
280.598
280.703
280.703
280.704
280.704
280.576
280.577
280.577
280.576
280.982
280.954
280.954
280.973
280.814
280.836
280.839
280.827
280.474
280.475
280.476
280.476
280.624
280.624
280.624
280.624
280.556
280.556
280.556
280.556
280.593
280.593
280.593
280.593
280.605
280.605
280.605
280.605
280.584
280.583
280.583
280.583
280.681
280.682
280.683
280.682
280.514
280.515
280.515
280.514
280.99
280.973
280.973
280.985
280.911
280.925
280.927
280.919
280.411
280.411
280.411
280.41
280.616
280.617
280.618
280.618
280.554
280.553
280.553
280.553
280.587
280.587
280.587
280.588
280.595
280.595
280.595
280.595
280.575
280.574
280.574
280.574
280.647
280.649
280.65
280.649
280.432
280.431
280.431
280.43
281.037
281.033
281.033
281.035
282.184
280.884
280.341
279.994
279.7
279.458
279.266
279.114
278.993
278.888
282.329
281.09
280.256
279.732
279.315
279.007
278.78
278.609
278.48
278.375
282.903
281.596
280.466
279.826
279.326
278.979
278.725
278.534
278.391
278.277
283.498
282.132
280.733
280.029
279.464
279.093
278.819
278.614
278.459
278.333
283.976
282.586
280.942
280.188
279.563
279.172
278.88
278.663
278.497
278.363
284.525
283.079
281.212
280.422
279.737
279.328
279.015
278.783
278.602
278.451
285.007
283.478
281.412
280.599
279.857
279.435
279.101
278.854
278.659
278.498
285.572
283.967
281.715
280.886
280.085
279.646
279.282
279.012
278.789
278.596
286.021
284.359
281.927
281.123
280.288
279.844
279.444
279.144
278.893
278.675
287.754
286.09
283.503
282.645
281.684
281.115
280.591
280.188
279.853
279.558
283.981
282.671
281.684
280.971
280.478
280.132
279.881
279.693
279.547
279.426
284.428
282.641
281.31
280.45
279.897
279.519
279.25
279.054
278.911
278.805
285.023
282.829
281.241
280.311
279.717
279.319
279.039
278.838
278.695
278.592
285.511
283.016
281.235
280.282
279.66
279.257
278.976
278.777
278.636
278.536
285.778
283.071
281.161
280.201
279.559
279.158
278.88
278.687
278.552
278.458
285.977
283.141
281.139
280.191
279.533
279.139
278.864
278.676
278.545
278.45
286.022
283.123
281.049
280.131
279.46
279.08
278.81
278.628
278.5
278.408
286.078
283.181
281.052
280.177
279.495
279.129
278.857
278.675
278.539
278.436
286.036
283.17
280.994
280.199
279.532
279.196
278.918
278.727
278.58
278.464
286.945
284.231
282.059
281.315
280.6
280.207
279.86
279.614
279.421
279.276
282.113
281.734
281.364
281.034
280.752
280.515
280.318
280.154
280.017
279.899
282.574
281.892
281.274
280.763
280.349
280.021
279.764
279.563
279.407
279.289
283.347
282.33
281.463
280.795
280.279
279.886
279.589
279.363
279.194
279.07
284.117
282.777
281.677
280.88
280.284
279.85
279.529
279.292
279.116
278.988
284.692
283.069
281.767
280.873
280.219
279.759
279.427
279.185
279.009
278.883
285.2
283.34
281.867
280.904
280.207
279.733
279.396
279.154
278.977
278.85
285.548
283.492
281.874
280.868
280.141
279.664
279.326
279.086
278.911
278.785
285.87
283.67
281.933
280.908
280.162
279.688
279.348
279.107
278.927
278.792
286.074
283.756
281.92
280.916
280.178
279.724
279.38
279.133
278.944
278.8
287.062
284.74
282.866
281.885
281.118
280.627
280.238
279.953
279.734
279.573
281.507
281.36
281.183
281.002
280.831
280.676
280.539
280.419
280.313
280.215
281.713
281.424
281.093
280.777
280.497
280.257
280.056
279.89
279.754
279.647
282.342
281.857
281.347
280.892
280.507
280.191
279.936
279.732
279.572
279.45
283.075
282.358
281.651
281.06
280.581
280.203
279.907
279.676
279.498
279.365
283.703
282.742
281.843
281.13
280.572
280.147
279.822
279.575
279.388
279.249
284.319
283.118
282.038
281.223
280.6
280.141
279.797
279.539
279.345
279.201
284.808
283.379
282.134
281.237
280.565
280.083
279.727
279.464
279.266
279.121
285.281
283.65
282.259
281.304
280.595
280.101
279.737
279.469
279.264
279.111
285.65
283.827
282.312
281.334
280.614
280.122
279.751
279.476
279.265
279.104
286.696
284.77
283.196
282.211
281.462
280.942
280.54
280.239
280.007
279.84
281.098
281.052
280.981
280.897
280.809
280.722
280.639
280.561
280.488
280.417
281.106
280.992
280.837
280.669
280.504
280.35
280.212
280.091
279.987
279.902
281.559
281.352
281.089
280.819
280.567
280.342
280.147
279.984
279.85
279.743
282.153
281.815
281.417
281.034
280.692
280.4
280.156
279.957
279.796
279.671
282.699
282.205
281.659
281.163
280.737
280.387
280.103
279.877
279.698
279.561
283.278
282.612
281.914
281.312
280.812
280.413
280.098
279.851
279.657
279.51
283.772
282.926
282.078
281.38
280.816
280.38
280.042
279.78
279.577
279.424
284.274
283.249
282.261
281.484
280.87
280.407
280.051
279.778
279.566
279.404
284.691
283.485
282.371
281.543
280.9
280.423
280.055
279.773
279.554
279.385
285.729
284.4
283.215
282.355
281.681
281.18
280.789
280.488
280.254
280.085
280.925
280.907
280.875
280.834
280.787
280.739
280.691
280.643
280.596
280.545
280.794
280.743
280.667
280.576
280.481
280.386
280.296
280.214
280.141
280.079
281.109
281.012
280.873
280.716
280.558
280.407
280.27
280.149
280.046
279.961
281.561
281.396
281.173
280.935
280.705
280.494
280.309
280.149
280.016
279.909
281.992
281.738
281.416
281.089
280.784
280.516
280.287
280.095
279.938
279.814
282.482
282.121
281.688
281.269
280.893
280.572
280.305
280.086
279.908
279.769
282.916
282.434
281.882
281.374
280.932
280.566
280.268
280.027
279.835
279.686
283.378
282.765
282.096
281.508
281.01
280.608
280.285
280.027
279.822
279.662
283.771
283.016
282.238
281.589
281.051
280.626
280.285
280.016
279.802
279.635
284.755
283.895
283.047
282.355
281.784
281.335
280.975
280.69
280.465
280.302
280.841
280.835
280.82
280.799
280.775
280.749
280.722
280.694
280.663
280.627
280.624
280.599
280.561
280.512
280.458
280.401
280.345
280.292
280.244
280.202
280.84
280.792
280.717
280.628
280.531
280.434
280.342
280.257
280.182
280.119
281.18
281.096
280.971
280.826
280.677
280.532
280.398
280.278
280.175
280.089
281.509
281.376
281.188
280.979
280.77
280.575
280.4
280.248
280.118
280.013
281.905
281.71
281.446
281.166
280.897
280.653
280.439
280.256
280.103
279.979
282.261
281.99
281.642
281.288
280.959
280.669
280.42
280.212
280.04
279.904
282.655
282.298
281.861
281.437
281.054
280.724
280.447
280.218
280.031
279.882
282.989
282.533
282.013
281.53
281.104
280.747
280.449
280.206
280.008
279.852
283.894
283.364
282.784
282.257
281.799
281.418
281.102
280.845
280.638
280.486
280.806
280.804
280.797
280.787
280.774
280.759
280.744
280.728
280.708
280.681
280.538
280.525
280.505
280.478
280.447
280.413
280.379
280.346
280.315
280.288
280.685
280.66
280.619
280.567
280.508
280.447
280.387
280.33
280.278
280.234
280.939
280.894
280.822
280.735
280.64
280.543
280.45
280.364
280.287
280.221
281.187
281.114
281.003
280.871
280.732
280.596
280.467
280.351
280.25
280.165
281.502
281.393
281.232
281.049
280.862
280.683
280.519
280.374
280.249
280.145
281.782
281.628
281.41
281.171
280.933
280.713
280.516
280.344
280.198
280.08
282.105
281.896
281.617
281.321
281.037
280.779
280.553
280.359
280.196
280.064
282.37
282.1
281.76
281.414
281.091
280.804
280.557
280.347
280.173
280.033
283.192
282.874
282.487
282.104
281.751
281.442
281.177
280.956
280.773
280.638
280.793
280.794
280.791
280.785
280.778
280.77
280.762
280.752
280.739
280.717
280.498
280.491
280.48
280.465
280.447
280.428
280.407
280.387
280.368
280.351
280.599
280.584
280.561
280.531
280.496
280.458
280.419
280.382
280.348
280.317
280.787
280.762
280.72
280.667
280.607
280.544
280.481
280.421
280.366
280.318
280.973
280.931
280.865
280.782
280.69
280.597
280.506
280.421
280.345
280.28
281.22
281.157
281.059
280.941
280.813
280.686
280.565
280.454
280.356
280.273
281.434
281.345
281.209
281.05
280.883
280.721
280.57
280.434
280.316
280.218
281.693
281.571
281.393
281.192
280.987
280.792
280.615
280.458
280.323
280.211
281.896
281.736
281.517
281.277
281.039
280.818
280.62
280.448
280.3
280.179
282.639
282.45
282.197
281.927
281.665