/*--------------------------------*- C++ -*----------------------------------*\
| =========                 |                                                 |
| \\      /  F ield         | foam-extend: Open Source CFD                    |
|  \\    /   O peration     | Version:     4.0                                |
|   \\  /    A nd           | Web:         http://www.foam-extend.org         |
|    \\/     M anipulation  |                                                 |
\*---------------------------------------------------------------------------*/
FoamFile
{
    version     2.0;
    format      ascii;
    class       volScalarField;
    location    "1750";
    object      alphat;
}
// * * * * * * * * * * * * * * * * * * * * * * * * * * * * * * * * * * * * * //

dimensions      [1 -1 -1 0 0 0 0];

internalField   nonuniform List<scalar> 
34480
(
0.00188855
0.0018873
0.00188713
0.00188796
0.00189008
0.00189398
0.00190151
0.00191977
0.00195902
0.00203024
0.0159252
0.0151176
0.0148183
0.0145481
0.0129251
0.008242
0.00340603
0.0013482
0.000984936
0.00145501
0.0442646
0.0426066
0.0409197
0.0374753
0.028666
0.014678
0.0051172
0.00182843
0.00124106
0.00181206
0.0484139
0.0462565
0.0443162
0.0402777
0.0297053
0.0141586
0.00479254
0.00177544
0.00128751
0.00197789
0.0477378
0.0453187
0.0435546
0.0397143
0.0288487
0.0131887
0.00440828
0.00168448
0.00129897
0.00209678
0.0459896
0.0435062
0.0418465
0.0380608
0.0268367
0.0116164
0.00385811
0.00155329
0.00130534
0.00222425
0.0438607
0.0415387
0.0400796
0.0364669
0.0252728
0.0105539
0.00349452
0.00146115
0.0013128
0.00233372
0.0364079
0.0347167
0.0336879
0.0309414
0.0214277
0.00864033
0.00281248
0.00123974
0.00123596
0.00234057
0.0124284
0.012109
0.012006
0.0117295
0.0099314
0.00512587
0.00167736
0.000736708
0.000834208
0.00178619
0.00180092
0.00180083
0.0018025
0.00180578
0.00181056
0.00181667
0.0018247
0.00183594
0.0018525
0.00181379
0.00188858
0.00188672
0.00188612
0.00188663
0.00188849
0.00189194
0.00189744
0.00190689
0.00192459
0.0019654
0.0149573
0.0143226
0.0141308
0.014314
0.0147246
0.0147732
0.0129463
0.00764367
0.00249486
0.00204521
0.0407404
0.0395121
0.038846
0.0383084
0.0366949
0.0319838
0.0230026
0.0112935
0.00328137
0.00280271
0.044817
0.0431479
0.0423446
0.0417717
0.039929
0.0344304
0.0242045
0.0114375
0.00330058
0.00316997
0.0446521
0.0426954
0.04195
0.0415916
0.0401083
0.0348373
0.0244527
0.0112828
0.00323788
0.00345103
0.0434382
0.0413714
0.0406442
0.04042
0.0392055
0.0342104
0.0239578
0.0108486
0.00316537
0.00378183
0.0418342
0.0398503
0.0392136
0.0390736
0.0380972
0.0334667
0.0235387
0.0105533
0.00312886
0.00409797
0.0351426
0.0336708
0.0332024
0.033185
0.0326763
0.0293611
0.0210954
0.00938455
0.0028541
0.00417025
0.0123666
0.0120598
0.0119988
0.0120568
0.0121869
0.0120297
0.0106115
0.00545484
0.00170659
0.00280049
0.00179634
0.00179388
0.00179339
0.00179458
0.00179738
0.00180149
0.00180766
0.00181749
0.00184176
0.00188906
0.00188407
0.00188246
0.00188193
0.00188239
0.00188398
0.00188675
0.00189073
0.00189673
0.00190566
0.00191919
0.014061
0.0136448
0.0135108
0.0136612
0.0140997
0.0147399
0.0151428
0.0142153
0.0101115
0.00583659
0.0372094
0.0362416
0.0359032
0.0360494
0.0363661
0.0359464
0.0330132
0.0253621
0.0133437
0.00709978
0.0410799
0.0397757
0.0393456
0.0395713
0.0400681
0.0397156
0.0361955
0.026616
0.0125395
0.00720477
0.0413093
0.0397936
0.0393779
0.0397176
0.0405216
0.0406517
0.03736
0.026691
0.0114188
0.00717689
0.0405682
0.0389606
0.038525
0.0389288
0.0399574
0.0405759
0.0376965
0.0261754
0.0103043
0.00724826
0.0394624
0.0378959
0.0375034
0.0379116
0.0390431
0.0400214
0.0376507
0.0255302
0.00938043
0.00733158
0.0336209
0.032458
0.0321491
0.0324665
0.0334076
0.0345685
0.0334141
0.0226402
0.00796856
0.00704227
0.0122598
0.0120046
0.0119606
0.0120212
0.0122169
0.0124492
0.0126043
0.0106465
0.00448856
0.00445576
0.00178902
0.00178612
0.00178525
0.00178614
0.00178883
0.00179319
0.00180022
0.00181204
0.00183878
0.00189228
0.00187587
0.00187474
0.00187436
0.00187471
0.00187587
0.00187774
0.00188007
0.00188315
0.00188709
0.00189177
0.0134704
0.0132227
0.013132
0.0132278
0.0135187
0.0139747
0.0144496
0.0148654
0.0145955
0.0128622
0.0340376
0.033354
0.0331585
0.0333609
0.0339269
0.0346057
0.0346322
0.0324109
0.0256871
0.0173832
0.0376432
0.0367017
0.0364334
0.0367247
0.0375331
0.0385394
0.0385982
0.0352925
0.0257922
0.0167234
0.0381902
0.0370976
0.0368294
0.037186
0.0381989
0.0395792
0.0399736
0.036143
0.0246326
0.015882
0.0378691
0.036693
0.0363915
0.0367875
0.0379471
0.0396903
0.0405388
0.0363495
0.023141
0.0153353
0.0372089
0.0360338
0.0357531
0.0361418
0.0373448
0.0392841
0.0405166
0.0360592
0.0215226
0.0148461
0.0322052
0.031324
0.0310942
0.0313816
0.0322893
0.0339199
0.0354069
0.0319982
0.018527
0.0137228
0.0121938
0.0119837
0.0119514
0.0119977
0.0121466
0.0123369
0.0125437
0.0126721
0.00958793
0.00831832
0.00178011
0.00177707
0.00177606
0.00177687
0.00177958
0.00178425
0.00179184
0.00180455
0.00183069
0.00187804
0.00186478
0.00186409
0.00186386
0.0018641
0.00186485
0.00186596
0.00186715
0.00186858
0.00187016
0.00187163
0.0131882
0.013051
0.0129911
0.0130507
0.0132302
0.013491
0.0137225
0.0140116
0.0142934
0.0144157
0.0315049
0.0311039
0.0309975
0.0311225
0.0315061
0.0321203
0.032808
0.033091
0.0316406
0.0274622
0.0347718
0.0341694
0.0340003
0.034196
0.0347916
0.0357764
0.0368774
0.037109
0.034096
0.0274707
0.0355145
0.0347909
0.0346147
0.0348555
0.0355991
0.0368649
0.0383254
0.0385817
0.0342321
0.026306
0.0355128
0.0347022
0.0344873
0.0347635
0.0356239
0.037164
0.0390474
0.0394556
0.0338262
0.0253963
0.0352033
0.0343596
0.034152
0.0344286
0.035332
0.0370031
0.0391537
0.0396377
0.0328191
0.0244438
0.030961
0.0303138
0.0301387
0.0303467
0.0310167
0.0323217
0.0341934
0.0350271
0.0289261
0.0222928
0.0121756
0.0120023
0.0119789
0.0120104
0.0121118
0.0122297
0.0123003
0.0126953
0.012573
0.0122101
0.00176977
0.00176671
0.00176564
0.00176639
0.00176907
0.00177381
0.00178145
0.00179383
0.00181654
0.00185316
0.00185133
0.00185098
0.00185087
0.00185101
0.00185145
0.00185203
0.00185254
0.00185313
0.00185371
0.0018541
0.0131463
0.01308
0.0130425
0.0130815
0.0131933
0.0133324
0.0134243
0.0135396
0.0136597
0.0137517
0.0297466
0.0295533
0.0295057
0.0295657
0.0297591
0.0300878
0.0305434
0.0310952
0.0314198
0.0310591
0.032605
0.0322642
0.0321654
0.0322726
0.0326184
0.0332412
0.0341515
0.0351925
0.0354805
0.033947
0.0333875
0.0329498
0.0328422
0.0329813
0.0334358
0.034268
0.0355098
0.0369047
0.0369203
0.0340664
0.0335736
0.0330502
0.0329043
0.0330761
0.0336311
0.0346844
0.0363069
0.0381495
0.0378567
0.0338495
0.0334982
0.0329228
0.0327762
0.032955
0.033561
0.0347315
0.036576
0.0386879
0.0379469
0.0331011
0.0299082
0.0294532
0.0293259
0.0294665
0.0299201
0.0308153
0.0322735
0.0342141
0.0337632
0.0299529
0.0122086
0.0120665
0.0120516
0.0120715
0.012135
0.0121877
0.0121399
0.0123345
0.0127455
0.0136367
0.00175785
0.00175489
0.00175381
0.0017545
0.00175707
0.00176166
0.00176891
0.00178018
0.00179865
0.00182512
0.00183592
0.0018358
0.00183576
0.00183585
0.00183608
0.0018363
0.00183649
0.00183669
0.00183686
0.00183691
0.0132687
0.0132497
0.0132292
0.0132558
0.0133251
0.0133888
0.0134286
0.0134712
0.0135022
0.0134925
0.0286856
0.0286087
0.0285935
0.0286186
0.0287009
0.0288353
0.0290275
0.0292925
0.0295748
0.0297932
0.0311276
0.0309504
0.0308961
0.0309489
0.031127
0.0314517
0.0319521
0.0326488
0.0333496
0.0337463
0.0318257
0.0315798
0.0315191
0.0315918
0.0318422
0.0323053
0.0330406
0.0340985
0.0350944
0.0353908
0.0320807
0.0317609
0.0316665
0.031766
0.0320966
0.0327281
0.0337627
0.0353021
0.0366607
0.0367232
0.0321317
0.0317565
0.031658
0.031766
0.0321464
0.0328818
0.0341049
0.0359701
0.0374789
0.0371047
0.0290742
0.0287675
0.0286794
0.0287691
0.0290576
0.0296177
0.0305412
0.0321124
0.0335546
0.0335457
0.0123014
0.0121842
0.0121766
0.0121878
0.0122221
0.0122207
0.0120994
0.0121024
0.0122888
0.0129837
0.0017442
0.00174144
0.00174041
0.00174104
0.00174341
0.00174766
0.0017542
0.00176393
0.00177834
0.0017969
0.00181877
0.00181879
0.0018188
0.00181885
0.00181894
0.00181899
0.00181903
0.00181906
0.00181907
0.001819
0.0134975
0.0135129
0.013506
0.0135245
0.0135648
0.0135903
0.0136096
0.0136261
0.013627
0.0135852
0.028128
0.0281061
0.0281063
0.0281164
0.0281472
0.0281923
0.0282572
0.0283457
0.0284435
0.0285283
0.0302026
0.0301137
0.0300846
0.0301096
0.0301974
0.0303549
0.0305925
0.0309226
0.0312976
0.0316315
0.0307575
0.0306262
0.0305942
0.0306299
0.0307602
0.030997
0.0313678
0.0319147
0.0325571
0.03313
0.0310014
0.0308142
0.0307557
0.0308107
0.0309984
0.0313512
0.0319229
0.0328115
0.0338819
0.0348219
0.0310984
0.0308627
0.0307995
0.0308614
0.0310899
0.0315238
0.032236
0.033387
0.0347734
0.035912
0.0284633
0.0282649
0.028207
0.0282612
0.0284343
0.028759
0.0292733
0.0302049
0.0314625
0.0326995
0.0124601
0.0123619
0.0123606
0.0123655
0.0123781
0.012335
0.0121779
0.0120705
0.0120501
0.0123124
0.0017287
0.00172622
0.00172528
0.00172584
0.00172797
0.00173172
0.00173736
0.00174539
0.00175626
0.00176905
0.00179998
0.00180009
0.00180013
0.00180015
0.00180017
0.00180015
0.00180013
0.0018001
0.00180005
0.00179994
0.0137983
0.013841
0.0138457
0.0138585
0.0138771
0.013888
0.0138988
0.0139054
0.0138956
0.013843
0.0278881
0.0278902
0.0278967
0.0279012
0.0279105
0.0279227
0.0279409
0.0279645
0.0279879
0.0280029
0.0296647
0.0296194
0.0296036
0.0296156
0.0296595
0.0297365
0.0298482
0.0299941
0.0301542
0.03029
0.0300722
0.0300037
0.0299876
0.0300047
0.0300711
0.0301889
0.0303666
0.0306157
0.0309088
0.031177
0.0302671
0.0301606
0.0301255
0.0301551
0.0302591
0.0304501
0.0307491
0.0311952
0.0317545
0.0323087
0.0303623
0.030218
0.0301788
0.030213
0.0303468
0.0305944
0.0309866
0.0316001
0.032391
0.0331894
0.0280619
0.0279381
0.0279022
0.0279332
0.0280305
0.0282034
0.0284619
0.0289322
0.0296349
0.0304938
0.0126896
0.0126054
0.0126092
0.0126097
0.0126065
0.0125341
0.0123676
0.0122133
0.0120866
0.0121452
0.00171126
0.00170913
0.0017083
0.00170879
0.00171061
0.00171379
0.00171845
0.00172481
0.00173279
0.00174145
0.00177962
0.00177974
0.00177981
0.00177981
0.0017798
0.00177977
0.00177973
0.00177968
0.00177963
0.0017795
0.0141697
0.0142228
0.0142376
0.0142465
0.0142528
0.0142599
0.0142666
0.0142685
0.0142538
0.0141957
0.0278361
0.0278456
0.0278545
0.0278569
0.0278586
0.0278609
0.0278646
0.0278687
0.0278701
0.0278659
0.0293735
0.029349
0.0293398
0.029346
0.0293692
0.0294093
0.029465
0.0295331
0.029603
0.029656
0.0296582
0.029622
0.0296139
0.0296222
0.0296566
0.0297164
0.0298028
0.0299159
0.0300418
0.030147
0.0297965
0.0297366
0.0297157
0.0297317
0.0297891
0.0298919
0.030047
0.0302642
0.0305278
0.0307761
0.0298695
0.029782
0.0297581
0.0297768
0.0298545
0.0299944
0.0302076
0.0305214
0.0309151
0.0312918
0.0278425
0.0277677
0.0277469
0.0277637
0.0278138
0.0278945
0.0280102
0.0282217
0.0285499
0.0289676
0.0129942
0.0129197
0.012928
0.0129255
0.0129106
0.0128215
0.0126622
0.0124998
0.0123341
0.0123326
0.00169183
0.00169006
0.00168936
0.00168977
0.00169128
0.00169386
0.00169757
0.00170242
0.00170812
0.00171388
0.00175765
0.00175777
0.00175783
0.00175783
0.00175782
0.00175779
0.00175775
0.0017577
0.00175765
0.00175753
0.0146081
0.0146651
0.0146833
0.0146902
0.0146951
0.0147001
0.0147044
0.0147035
0.0146858
0.0146236
0.0278888
0.0278996
0.0279078
0.02791
0.0279104
0.0279104
0.0279102
0.0279092
0.0279053
0.0278966
0.0292281
0.0292137
0.0292081
0.0292116
0.0292248
0.0292472
0.0292773
0.0293123
0.0293462
0.0293694
0.0294224
0.0294022
0.0293977
0.029402
0.0294209
0.029453
0.0294977
0.0295524
0.0296093
0.0296532
0.0295123
0.0294784
0.0294661
0.0294749
0.029507
0.0295631
0.0296448
0.0297522
0.0298766
0.0299885
0.0295606
0.029507
0.0294924
0.0295029
0.0295486
0.0296285
0.0297461
0.0299084
0.0301011
0.0302711
0.0277706
0.0277266
0.0277158
0.0277241
0.0277464
0.0277751
0.0278176
0.0279
0.0280346
0.0282288
0.0133788
0.0133108
0.013323
0.0133183
0.0132944
0.0132008
0.0130586
0.0129095
0.0127418
0.0127406
0.00167035
0.00166894
0.00166839
0.00166871
0.00166991
0.00167192
0.00167477
0.00167835
0.00168231
0.00168608
0.00173401
0.00173412
0.00173418
0.00173418
0.00173417
0.00173414
0.00173411
0.00173407
0.00173403
0.00173392
0.0151182
0.0151788
0.0151983
0.0152051
0.0152092
0.0152128
0.0152153
0.0152126
0.0151927
0.0151266
0.0279982
0.0280089
0.0280162
0.0280184
0.0280187
0.0280183
0.0280175
0.0280156
0.0280108
0.0280011
0.0291633
0.0291544
0.0291508
0.0291529
0.0291608
0.029174
0.0291913
0.0292109
0.0292292
0.0292406
0.0292959
0.0292836
0.0292807
0.0292832
0.0292944
0.0293132
0.0293385
0.0293678
0.0293964
0.0294175
0.0293508
0.0293313
0.0293239
0.029329
0.0293473
0.0293787
0.029423
0.029478
0.0295388
0.0295933
0.0293807
0.0293469
0.0293379
0.0293442
0.0293719
0.0294189
0.029486
0.0295735
0.029671
0.0297532
0.0278105
0.0277852
0.0277806
0.0277842
0.0277907
0.0277942
0.0278024
0.0278256
0.0278707
0.0279687
0.01385
0.0137862
0.0138024
0.013796
0.013764
0.0136784
0.0135585
0.0134323
0.0132806
0.0133024
0.00164682
0.00164574
0.00164532
0.00164556
0.00164647
0.00164799
0.0016501
0.00165265
0.00165534
0.00165777
0.00170862
0.00170873
0.00170878
0.00170878
0.00170877
0.00170875
0.00170873
0.0017087
0.00170867
0.00170856
0.0157114
0.0157758
0.0157964
0.0158031
0.0158066
0.0158092
0.0158105
0.0158064
0.0157848
0.0157148
0.0281381
0.0281484
0.0281548
0.0281569
0.0281574
0.0281572
0.0281565
0.0281548
0.0281501
0.0281403
0.0291402
0.0291346
0.0291324
0.0291336
0.0291383
0.0291462
0.0291564
0.0291678
0.0291783
0.0291845
0.0292324
0.0292243
0.029222
0.0292236
0.0292308
0.0292428
0.0292585
0.029276
0.0292922
0.0293041
0.0292647
0.0292532
0.0292486
0.0292516
0.0292624
0.0292805
0.0293052
0.0293346
0.0293659
0.0293948
0.0292847
0.0292626
0.0292568
0.029261
0.0292785
0.0293075
0.0293476
0.0293975
0.0294501
0.0294947
0.0279302
0.0279154
0.0279146
0.0279155
0.0279137
0.0279082
0.0279027
0.0279019
0.0279093
0.0279674
0.0144183
0.0143574
0.0143778
0.0143698
0.0143325
0.0142649
0.0141691
0.0140688
0.0139399
0.0139906
0.00162122
0.00162043
0.00162012
0.0016203
0.00162096
0.00162207
0.00162357
0.00162533
0.00162711
0.00162866
0.00168141
0.00168151
0.00168155
0.00168155
0.00168155
0.00168153
0.00168151
0.00168149
0.00168147
0.00168136
0.0164057
0.0164742
0.0164957
0.0165023
0.0165055
0.0165073
0.0165077
0.0165027
0.0164798
0.0164056
0.0282946
0.0283043
0.0283098
0.0283118
0.0283123
0.0283124
0.0283121
0.0283107
0.0283066
0.028297
0.029137
0.0291337
0.0291324
0.0291331
0.0291358
0.0291402
0.029146
0.0291526
0.0291589
0.0291624
0.0292029
0.0291972
0.0291953
0.0291964
0.0292013
0.0292094
0.0292198
0.0292311
0.0292413
0.0292488
0.0292216
0.0292145
0.0292116
0.0292134
0.02922
0.0292308
0.029245
0.0292613
0.0292782
0.0292948
0.029239
0.0292239
0.0292201
0.0292231
0.0292346
0.0292535
0.0292787
0.0293089
0.0293395
0.0293674
0.0281046
0.028093
0.0280943
0.0280939
0.0280897
0.0280829
0.0280739
0.0280657
0.0280594
0.0281008
0.0151137
0.015044
0.0150666
0.0150568
0.0150278
0.0149775
0.0149051
0.0148297
0.0147245
0.0148028
0.00159355
0.00159298
0.00159277
0.00159289
0.00159336
0.00159414
0.00159518
0.00159635
0.00159749
0.00159846
0.0016523
0.00165239
0.00165242
0.00165242
0.00165242
0.00165241
0.0016524
0.00165238
0.00165236
0.00165226
0.017227
0.0173
0.0173221
0.0173285
0.0173316
0.0173329
0.0173326
0.0173272
0.0173034
0.0172245
0.0284593
0.0284683
0.028473
0.0284747
0.0284754
0.0284756
0.0284756
0.0284747
0.0284714
0.0284623
0.0291423
0.0291404
0.0291398
0.0291401
0.0291415
0.0291438
0.0291468
0.0291504
0.0291541
0.0291564
0.0291903
0.0291862
0.0291846
0.0291853
0.0291887
0.0291943
0.0292015
0.0292091
0.029216
0.0292211
0.0292011
0.0291966
0.0291947
0.0291958
0.0291998
0.0292063
0.0292147
0.0292241
0.0292336
0.0292438
0.0292204
0.0292097
0.0292071
0.0292094
0.0292173
0.02923
0.0292464
0.0292657
0.0292847
0.0293043
0.0283108
0.0282999
0.028301
0.0283007
0.0282976
0.0282921
0.0282842
0.0282756
0.0282661
0.0282999
0.0159625
0.0158852
0.015902
0.0158958
0.0158764
0.015842
0.0157913
0.0157378
0.0156546
0.0157558
0.0015638
0.00156342
0.00156327
0.00156336
0.00156368
0.0015642
0.00156489
0.00156564
0.00156636
0.00156695
0.00162124
0.00162132
0.00162135
0.00162135
0.00162135
0.00162134
0.00162133
0.00162132
0.0016213
0.0016212
0.0182122
0.0182904
0.0183126
0.0183187
0.0183219
0.0183227
0.0183221
0.0183166
0.0182923
0.0182083
0.0286265
0.0286346
0.0286384
0.0286398
0.0286405
0.0286409
0.0286411
0.0286407
0.0286383
0.02863
0.0291501
0.0291492
0.029149
0.0291492
0.0291497
0.0291507
0.029152
0.0291537
0.0291558
0.0291574
0.0291851
0.0291821
0.0291808
0.0291812
0.0291835
0.0291873
0.0291922
0.0291974
0.0292022
0.0292058
0.0291911
0.029188
0.0291868
0.0291874
0.0291898
0.0291938
0.0291989
0.0292044
0.02921
0.0292164
0.0292136
0.029206
0.0292042
0.0292059
0.0292114
0.0292201
0.029231
0.0292436
0.0292557
0.0292706
0.0285299
0.0285196
0.0285203
0.0285203
0.0285185
0.0285152
0.0285099
0.0285035
0.0284949
0.0285241
0.0170029
0.0169201
0.016931
0.016928
0.0169171
0.0168971
0.0168662
0.016831
0.0167675
0.0168852
0.00153201
0.00153176
0.00153165
0.00153171
0.00153192
0.00153226
0.0015327
0.00153316
0.0015336
0.00153396
0.0015883
0.00158837
0.00158839
0.00158839
0.00158839
0.00158839
0.00158838
0.00158837
0.00158835
0.00158826
0.0194156
0.0194995
0.0195219
0.0195276
0.0195301
0.0195306
0.0195298
0.0195245
0.0195006
0.0194109
0.0287899
0.0287969
0.0287996
0.0288007
0.0288012
0.0288018
0.0288023
0.0288023
0.0288009
0.0287941
0.0291575
0.0291571
0.0291572
0.0291572
0.0291573
0.0291575
0.0291579
0.0291585
0.0291596
0.029161
0.0291819
0.0291798
0.0291787
0.0291789
0.0291803
0.0291829
0.0291861
0.0291896
0.0291928
0.0291954
0.0291847
0.0291826
0.0291817
0.029182
0.0291835
0.0291859
0.0291889
0.0291922
0.0291955
0.0291996
0.0292089
0.0292037
0.0292024
0.0292037
0.0292074
0.0292131
0.0292202
0.0292282
0.029236
0.0292474
0.0287443
0.0287348
0.0287352
0.0287354
0.0287348
0.0287334
0.0287307
0.028727
0.0287205
0.0287457
0.0182919
0.0182061
0.0182108
0.0182106
0.0182075
0.0182005
0.0181878
0.0181678
0.0181227
0.0182485
0.00149825
0.00149809
0.00149802
0.00149806
0.00149819
0.0014984
0.00149867
0.00149895
0.00149921
0.00149941
0.0015537
0.00155376
0.00155377
0.00155378
0.00155378
0.00155377
0.00155376
0.00155375
0.00155373
0.00155365
0.0209196
0.021009
0.0210314
0.0210365
0.0210376
0.0210377
0.0210369
0.0210322
0.0210096
0.0209145
0.028941
0.0289462
0.0289478
0.0289483
0.0289487
0.0289493
0.02895
0.0289506
0.0289502
0.0289459
0.0291626
0.0291625
0.0291626
0.0291626
0.0291626
0.0291625
0.0291624
0.0291625
0.0291629
0.0291642
0.0291782
0.0291767
0.0291758
0.0291759
0.0291767
0.0291783
0.0291803
0.0291825
0.0291847
0.0291867
0.0291788
0.0291775
0.0291768
0.029177
0.0291778
0.0291791
0.0291808
0.0291827
0.0291846
0.0291871
0.0292001
0.0291967
0.0291958
0.0291966
0.029199
0.0292025
0.0292068
0.0292115
0.0292163
0.0292245
0.0289345
0.0289264
0.0289265
0.0289269
0.028927
0.0289268
0.0289259
0.0289243
0.02892
0.0289408
0.0199129
0.0198276
0.019825
0.0198271
0.0198311
0.0198366
0.019842
0.0198354
0.0198101
0.0199325
0.00146272
0.00146262
0.00146257
0.0014626
0.00146267
0.0014628
0.00146297
0.00146313
0.0014633
0.0014634
0.00151763
0.00151767
0.00151768
0.00151768
0.00151768
0.00151767
0.00151767
0.00151767
0.00151765
0.0015176
0.0228573
0.0229492
0.0229689
0.022973
0.0229738
0.0229737
0.0229728
0.0229688
0.022949
0.0228509
0.0290676
0.0290702
0.0290706
0.0290705
0.0290707
0.0290713
0.0290722
0.0290732
0.0290739
0.0290727
0.0291647
0.0291646
0.0291647
0.0291647
0.0291647
0.0291646
0.0291644
0.0291643
0.0291644
0.0291654
0.0291737
0.0291726
0.0291721
0.029172
0.0291725
0.0291734
0.0291746
0.0291759
0.0291773
0.0291787
0.0291732
0.0291723
0.0291719
0.029172
0.0291724
0.0291731
0.029174
0.029175
0.029176
0.0291773
0.0291856
0.0291836
0.0291831
0.0291835
0.0291848
0.0291867
0.029189
0.0291915
0.0291941
0.0291993
0.0290793
0.0290732
0.0290732
0.0290734
0.0290736
0.0290737
0.0290735
0.0290731
0.0290711
0.0290866
0.0220126
0.0219342
0.0219322
0.0219339
0.021937
0.0219412
0.0219454
0.0219484
0.0219493
0.0220524
0.00142554
0.00142548
0.00142545
0.00142546
0.00142551
0.00142559
0.00142569
0.00142579
0.00142591
0.00142597
0.00147924
0.00147924
0.00147922
0.00147922
0.00147921
0.00147922
0.00147923
0.00147924
0.00147927
0.00147929
0.0254659
0.0255464
0.0255602
0.025563
0.0255636
0.0255633
0.0255622
0.025559
0.0255442
0.025456
0.0291561
0.0291558
0.0291551
0.0291546
0.0291547
0.0291551
0.029156
0.0291573
0.0291589
0.0291607
0.0291646
0.0291646
0.0291646
0.0291647
0.0291647
0.0291647
0.0291647
0.0291646
0.0291646
0.029165
0.0291702
0.0291695
0.0291692
0.0291692
0.0291695
0.02917
0.0291706
0.0291714
0.0291723
0.0291732
0.0291696
0.0291691
0.0291689
0.0291689
0.0291692
0.0291696
0.0291702
0.0291708
0.0291713
0.029172
0.0291718
0.0291708
0.0291705
0.0291707
0.0291714
0.0291725
0.0291737
0.029175
0.0291763
0.0291786
0.029167
0.0291632
0.0291628
0.0291627
0.0291627
0.0291627
0.0291626
0.0291627
0.0291628
0.0291727
0.0249073
0.0248486
0.0248475
0.0248486
0.0248507
0.0248534
0.0248562
0.024858
0.0248583
0.0249352
0.00138596
0.00138591
0.00138588
0.0013859
0.00138593
0.001386
0.00138607
0.00138615
0.00138623
0.00138628
0.00234421
0.00236508
0.00235486
0.00232094
0.00141086
0.00143388
0.00143124
0.00142638
0.00188743
0.00192951
0.00192037
0.00189567
0.00227433
0.0023325
0.00231297
0.00226673
0.00262174
0.00269289
0.00266089
0.00259642
0.00296316
0.00304546
0.00300522
0.00293174
0.00324524
0.00333571
0.00329338
0.00322009
0.00341299
0.00350981
0.00346975
0.00340114
0.00304478
0.00313432
0.00309544
0.00303976
0.00237476
0.00239141
0.00235651
0.00227526
0.00202759
0.00203331
0.00203442
0.0020314
0.0023539
0.00243425
0.00233425
0.00214236
0.00330862
0.00342312
0.00329264
0.00305474
0.00407209
0.00424049
0.00408183
0.00378387
0.00485373
0.00508965
0.00489507
0.00451941
0.00582843
0.00615443
0.0059129
0.00542836
0.00679455
0.00720828
0.00690667
0.00630892
0.00749237
0.0079905
0.00763233
0.00693762
0.00591664
0.00635343
0.0060005
0.00540399
0.0021816
0.00221394
0.00220707
0.0021713
0.00193325
0.0019353
0.00193546
0.0019342
0.00406653
0.00404215
0.00405258
0.00414366
0.00499194
0.00497333
0.00499346
0.00509782
0.00549665
0.0055163
0.00553614
0.00558603
0.00601139
0.00606541
0.0060687
0.00602723
0.00675416
0.00685085
0.00681121
0.00663348
0.00751197
0.00763539
0.0075218
0.00718409
0.00805005
0.00821059
0.0080233
0.00752466
0.00612373
0.00626357
0.0060876
0.00560671
0.00204796
0.00206507
0.00206315
0.00204539
0.0018945
0.00189473
0.00189486
0.00189489
0.0102407
0.0099622
0.0100982
0.010613
0.0119484
0.0116143
0.0119172
0.0128108
0.0114414
0.0112603
0.0116325
0.0125275
0.0110908
0.0110296
0.0114265
0.012257
0.0112085
0.0112509
0.0116413
0.0123683
0.0114043
0.011506
0.0118446
0.0124232
0.0113539
0.0115311
0.0118013
0.0121722
0.00801712
0.00820179
0.00832495
0.0083661
0.00195674
0.00196718
0.00196816
0.00196016
0.00187256
0.00187261
0.00187264
0.00187266
0.0144914
0.0144315
0.0144596
0.014569
0.0238425
0.0235189
0.0237067
0.0243339
0.0222468
0.0219547
0.0223073
0.0232343
0.0203821
0.0202025
0.0206824
0.02179
0.0193317
0.0193012
0.0198721
0.0210705
0.0185183
0.0185932
0.019186
0.0203773
0.0173302
0.0175423
0.0180973
0.0191093
0.0108788
0.0111141
0.0113555
0.0116688
0.0018935
0.00189999
0.00190145
0.00189804
0.00185452
0.00185449
0.00185448
0.00185448
0.0140871
0.0140134
0.0140039
0.0140589
0.0304047
0.0302978
0.0303238
0.030471
0.0317986
0.0315598
0.0316504
0.0320274
0.0304333
0.030146
0.0303664
0.0310251
0.029026
0.0288081
0.0291971
0.0301265
0.0274494
0.0273217
0.0278362
0.0289641
0.024774
0.0248392
0.0253962
0.0264727
0.0131723
0.0134045
0.01358
0.0137405
0.00184558
0.0018495
0.00185077
0.00184942
0.00183721
0.00183717
0.00183714
0.00183713
0.0137854
0.0136947
0.013677
0.0137314
0.0299165
0.0299195
0.0299338
0.0299596
0.033676
0.0336794
0.0337119
0.0337709
0.0348254
0.0347791
0.0348402
0.0349964
0.0353465
0.0352617
0.035398
0.0357252
0.0347079
0.0345946
0.0348266
0.0353604
0.0310976
0.0311294
0.0314411
0.0320055
0.0133147
0.0135919
0.0136529
0.0135451
0.00180724
0.00180963
0.00181058
0.00181006
0.00181927
0.00181922
0.00181919
0.00181918
0.0138649
0.0137677
0.0137476
0.0138032
0.0286253
0.0286185
0.0286214
0.0286344
0.0317593
0.0317855
0.0318029
0.0318118
0.0333169
0.0333622
0.033395
0.0334166
0.0350524
0.0351255
0.0351867
0.0352379
0.0359184
0.0359829
0.0360686
0.0361765
0.0326198
0.032778
0.0329042
0.0330021
0.0123913
0.0126477
0.012688
0.012549
0.00177441
0.00177593
0.00177656
0.00177633
0.00180021
0.00180015
0.00180012
0.00180011
0.0141241
0.0140237
0.0140026
0.0140593
0.0280677
0.0280549
0.0280535
0.0280637
0.030341
0.030349
0.0303541
0.0303564
0.03128
0.0313014
0.0313142
0.0313188
0.0325573
0.0326143
0.0326455
0.0326527
0.0334926
0.0335712
0.0336146
0.0336275
0.030772
0.0309397
0.0310079
0.0309842
0.0119564
0.012181
0.0122226
0.0121007
0.00174434
0.00174536
0.00174577
0.00174559
0.00177978
0.00177971
0.00177968
0.00177967
0.0144823
0.0143789
0.0143571
0.0144152
0.0279205
0.027907
0.0279048
0.0279141
0.0296735
0.0296746
0.0296756
0.0296765
0.0301784
0.0301837
0.030187
0.0301884
0.0308807
0.0309036
0.0309158
0.0309176
0.0314133
0.0314464
0.0314642
0.0314683
0.0290398
0.02915
0.0291897
0.0291604
0.0120316
0.0122509
0.0122924
0.0121699
0.00171548
0.00171622
0.00171648
0.0017163
0.00175781
0.00175774
0.00175771
0.00175771
0.0149174
0.0148109
0.0147883
0.0148479
0.0279467
0.0279337
0.0279314
0.02794
0.0293771
0.0293766
0.0293767
0.0293773
0.0296625
0.0296633
0.029664
0.0296643
0.0300315
0.0300405
0.0300451
0.0300454
0.0302992
0.0303099
0.0303161
0.030318
0.028183
0.0282579
0.0282822
0.0282555
0.012397
0.0126276
0.0126703
0.0125384
0.00168698
0.00168756
0.00168772
0.00168753
0.0017342
0.00173413
0.00173409
0.0017341
0.0154293
0.0153191
0.0152955
0.015357
0.0280474
0.0280351
0.0280329
0.0280409
0.029245
0.0292443
0.0292443
0.0292448
0.0294209
0.0294209
0.029421
0.0294211
0.0296147
0.0296191
0.0296212
0.029621
0.0297537
0.0297574
0.0297596
0.0297603
0.0278867
0.0279456
0.0279631
0.0279382
0.0129385
0.0131882
0.0132336
0.0130896
0.00165826
0.00165874
0.00165884
0.00165864
0.00170885
0.00170877
0.00170873
0.00170874
0.0160281
0.0159135
0.0158888
0.0159524
0.0281828
0.0281712
0.028169
0.0281763
0.0291875
0.0291868
0.0291867
0.0291873
0.0293058
0.0293058
0.0293057
0.0293057
0.0294078
0.0294104
0.0294116
0.0294113
0.0294899
0.0294918
0.0294929
0.029493
0.0278803
0.0279312
0.0279454
0.0279225
0.0136123
0.0138849
0.0139341
0.0137765
0.00162891
0.00162932
0.00162939
0.00162918
0.00168167
0.00168158
0.00168154
0.00168156
0.0167315
0.0166115
0.0165854
0.0166515
0.0283352
0.0283244
0.0283222
0.0283289
0.0291645
0.0291639
0.0291639
0.0291644
0.02925
0.02925
0.0292499
0.0292499
0.0293036
0.0293054
0.0293062
0.0293059
0.0293635
0.0293652
0.0293659
0.0293657
0.0280195
0.0280649
0.0280772
0.0280563
0.0144102
0.0147087
0.0147623
0.0145897
0.00159857
0.00159893
0.00159898
0.00159878
0.00165258
0.00165248
0.00165244
0.00165246
0.0175654
0.0174388
0.0174109
0.0174801
0.0284957
0.0284858
0.0284837
0.0284896
0.0291579
0.0291574
0.0291574
0.0291578
0.029222
0.029222
0.0292219
0.0292219
0.0292501
0.0292514
0.0292519
0.0292516
0.029303
0.0293047
0.0293054
0.0293049
0.0282288
0.0282696
0.0282804
0.0282612
0.015347
0.0156743
0.0157326
0.0155433
0.00156698
0.0015673
0.00156733
0.00156714
0.00162154
0.00162143
0.00162139
0.00162142
0.018567
0.0184321
0.0184019
0.0184747
0.0286583
0.0286494
0.0286474
0.0286526
0.0291586
0.0291583
0.0291583
0.0291587
0.0292065
0.0292065
0.0292065
0.0292065
0.029221
0.029222
0.0292223
0.029222
0.0292718
0.0292736
0.0292741
0.0292735
0.028466
0.0285024
0.0285117
0.0284942
0.0164562
0.0168155
0.0168786
0.0166705
0.00153394
0.00153422
0.00153424
0.00153407
0.00158861
0.0015885
0.00158846
0.00158849
0.019791
0.0196449
0.0196116
0.0196892
0.0288167
0.0288089
0.0288072
0.0288117
0.0291619
0.0291618
0.0291618
0.029162
0.0291962
0.0291963
0.0291963
0.0291963
0.029203
0.0292036
0.0292038
0.0292035
0.0292503
0.029252
0.0292525
0.0292518
0.0287031
0.0287351
0.0287429
0.0287268
0.0177921
0.0181855
0.0182529
0.0180246
0.00149938
0.00149962
0.00149963
0.00149948
0.00155403
0.00155391
0.00155387
0.00155391
0.0213176
0.021156
0.0211183
0.0212024
0.0289642
0.0289581
0.0289567
0.0289601
0.0291649
0.0291649
0.0291649
0.029165
0.0291875
0.0291876
0.0291877
0.0291877
0.0291894
0.0291898
0.0291899
0.0291897
0.0292282
0.0292297
0.02923
0.0292293
0.0289154
0.0289428
0.0289488
0.0289341
0.0194341
0.0198574
0.0199274
0.0196812
0.00146338
0.00146357
0.00146359
0.00146347
0.00151802
0.0015179
0.00151787
0.00151792
0.0232722
0.023088
0.0230446
0.0231384
0.0290878
0.029084
0.029083
0.0290852
0.0291658
0.0291658
0.0291658
0.0291658
0.0291796
0.0291797
0.0291798
0.0291798
0.0291786
0.0291789
0.0291789
0.0291788
0.0292025
0.0292036
0.0292038
0.0292032
0.029078
0.0290997
0.0291037
0.0290911
0.0215228
0.0219754
0.0220425
0.0217746
0.00142606
0.00142622
0.00142623
0.00142614
0.00147974
0.00147964
0.00147963
0.00147969
0.0258487
0.0256399
0.0255943
0.0257015
0.0291709
0.0291693
0.0291688
0.0291698
0.0291646
0.0291646
0.0291645
0.0291645
0.0291738
0.0291739
0.029174
0.0291741
0.0291724
0.0291725
0.0291725
0.0291725
0.0291801
0.0291805
0.0291807
0.0291805
0.0291747
0.0291871
0.0291889
0.0291812
0.0244725
0.0248975
0.0249471
0.0246874
0.00138665
0.00138678
0.00138678
0.00138668
0.00215551
0.00203897
0.00197457
0.00194203
0.00192291
0.00191053
0.00190235
0.00189717
0.00189383
0.00189155
0.00174761
0.00158366
0.00476651
0.00942491
0.0139351
0.0171225
0.0186327
0.0187836
0.018152
0.0172119
0.00236403
0.00257512
0.00732658
0.0155549
0.0249595
0.0330807
0.0390653
0.0428676
0.044743
0.0451285
0.00276879
0.00359822
0.00829005
0.0178422
0.029169
0.0385209
0.0449952
0.0487248
0.0501614
0.0499517
0.00307725
0.00394226
0.0087168
0.0193462
0.032085
0.0419657
0.0481495
0.0510022
0.0513174
0.0501054
0.00338884
0.00407082
0.00893751
0.0204174
0.0342673
0.0443119
0.0498896
0.0516797
0.0509047
0.0488654
0.00363078
0.00408358
0.00896675
0.0211685
0.0358982
0.0457584
0.0504375
0.0510673
0.0493422
0.0468104