/*--------------------------------*- C++ -*----------------------------------*\
| =========                 |                                                 |
| \\      /  F ield         | foam-extend: Open Source CFD                    |
|  \\    /   O peration     | Version:     4.0                                |
|   \\  /    A nd           | Web:         http://www.foam-extend.org         |
|    \\/     M anipulation  |                                                 |
\*---------------------------------------------------------------------------*/
FoamFile
{
    version     2.0;
    format      ascii;
    class       volScalarField;
    location    "1750";
    object      divFlux;
}
// * * * * * * * * * * * * * * * * * * * * * * * * * * * * * * * * * * * * * //

dimensions      [1 -3 -1 0 0 0 0];

internalField   nonuniform List<scalar> 
34480
(
0.000299104
0.000168694
0.000186419
0.000137281
0.000113273
0.000105147
0.000101189
0.000714564
0.0111934
9.12339e-05
5.26926e-05
8.0399e-05
5.70286e-05
5.02177e-05
4.89174e-05
4.83362e-05
4.83045e-05
4.83436e-05
0.00074305
4.66044e-05
4.20418e-05
6.72927e-05
3.43599e-07
2.03685e-05
1.85481e-05
1.83952e-05
1.953e-05
2.02822e-05
0.00368761
1.9953e-05
5.93139e-06
2.17902e-05
5.75834e-07
1.01062e-05
6.76984e-06
7.68172e-06
8.17172e-06
8.46145e-06
0.00167214
8.36061e-06
5.5342e-06
1.17341e-05
1.63077e-06
5.11114e-06
2.5613e-06
3.39573e-06
3.50969e-06
3.61645e-06
3.66803e-06
3.59138e-06
5.80202e-06
9.63866e-07
2.49326e-06
1.22601e-06
1.38031e-06
1.53329e-06
1.5641e-06
1.61908e-06
1.64669e-06
1.61439e-06
1.48785e-08
1.50119e-06
4.36913e-07
7.19058e-07
6.6438e-07
7.10454e-07
7.34076e-07
7.60244e-07
7.77248e-07
7.69052e-07
1.01879e-06
6.6942e-08
5.46853e-07
2.90494e-07
3.61423e-07
3.53771e-07
3.72511e-07
3.8534e-07
3.99269e-07
4.01148e-07
5.72653e-07
3.57307e-07
2.14018e-07
1.83944e-07
2.31138e-07
2.01147e-07
2.16392e-07
2.21932e-07
2.33387e-07
2.40135e-07
7.18218e-07
2.57275e-06
1.03449e-06
1.99314e-08
1.87019e-07
1.40207e-07
1.48798e-07
1.54449e-07
1.65942e-07
1.76863e-07
0.00185793
4.22752e-05
0.000127801
0.000162305
0.000153092
0.000142822
0.000137345
0.000135243
0.000135296
0.000128468
2.68786e-05
0.000104278
9.22024e-05
7.65011e-05
7.28824e-05
7.26866e-05
7.31546e-05
7.44659e-05
7.67781e-05
0.00271889
0.000339757
0.000163039
8.74625e-06
2.95177e-05
3.2043e-05
3.17691e-05
3.31713e-05
3.51539e-05
3.71091e-05
0.00484457
0.000146307
7.57983e-05
6.60869e-06
1.92036e-05
1.36909e-05
1.46887e-05
1.56664e-05
1.66442e-05
1.76054e-05
0.00221372
0.000131079
5.58017e-05
1.1763e-05
1.28079e-05
5.53105e-06
7.11858e-06
7.57417e-06
7.98697e-06
8.47201e-06
8.71077e-06
2.55585e-05
4.77365e-06
5.23964e-06
3.72155e-06
2.89791e-06
3.69067e-06
3.73321e-06
3.96461e-06
4.22433e-06
4.32034e-06
2.04183e-05
7.29713e-06
4.42044e-07
2.07216e-06
1.6021e-06
1.88361e-06
1.91967e-06
2.06038e-06
2.21297e-06
2.26354e-06
2.38931e-05
3.97635e-06
2.46026e-06
5.37722e-07
1.10168e-06
1.01155e-06
1.0892e-06
1.17065e-06
1.27441e-06
1.31544e-06
2.74909e-05
4.0062e-06
1.35627e-06
9.89371e-08
9.64008e-07
6.11513e-07
7.41661e-07
7.75234e-07
8.57752e-07
9.0845e-07
0.000419152
8.37796e-05
2.21343e-05
5.97636e-06
2.46062e-06
1.07234e-07
6.62534e-07
6.23417e-07
7.05093e-07
7.68742e-07
0.00160965
0.000125806
6.22699e-05
0.000121084
0.000125016
0.000118092
0.000112909
0.000111523
0.000227859
0.000368653
8.0321e-05
4.86269e-05
7.43476e-05
5.93932e-05
5.34772e-05
5.20527e-05
5.19172e-05
5.31032e-05
4.50887e-05
0.00131141
0.000233622
0.000137835
9.21898e-06
1.78156e-05
2.14871e-05
2.03315e-05
2.03075e-05
2.16522e-05
0.000204719
0.00157783
7.4855e-05
5.98181e-05
7.04948e-06
1.22038e-05
8.5088e-06
8.32176e-06
8.56819e-06
9.2404e-06
1.03608e-05
1.29386e-05
5.73972e-05
3.89932e-05
9.25961e-06
8.07727e-06
3.01777e-06
3.62984e-06
3.77929e-06
4.04935e-06
4.59012e-06
5.85306e-06
1.66651e-05
4.13102e-06
3.22447e-06
1.98525e-06
1.4283e-06
1.74528e-06
1.70029e-06
1.84413e-06
2.12364e-06
2.75892e-06
5.61396e-06
3.58142e-06
3.27916e-07
9.7706e-07
7.57291e-07
8.18404e-07
8.04192e-07
8.85148e-07
1.03443e-06
1.37674e-06
6.60062e-06
1.48655e-06
9.54749e-07
3.11003e-07
4.59298e-07
4.13008e-07
4.23145e-07
4.68762e-07
5.56392e-07
7.64121e-07
2.07216e-05
5.16906e-06
4.15564e-07
3.74346e-07
2.85862e-07
2.61167e-07
2.78158e-07
2.99829e-07
3.55015e-07
5.10617e-07
5.70187e-05
2.04433e-05
4.30622e-06
8.79935e-07
4.83954e-07
1.11963e-07
2.03303e-07
2.04392e-07
2.44881e-07
3.87789e-07
0.00165724
7.72244e-05
3.91291e-05
9.14504e-05
0.00010705
0.00010828
0.000106138
0.000105068
0.000111759
0.000306298
0.00017843
4.80835e-06
6.74443e-05
5.90297e-05
5.16587e-05
4.90603e-05
4.8496e-05
4.90441e-05
9.16369e-05
0.00149279
0.000229687
0.000120684
2.02958e-05
1.57737e-05
2.0046e-05
1.95278e-05
1.89822e-05
1.96014e-05
0.000308539
0.00327264
7.97885e-05
6.12845e-05
5.05039e-06
1.0591e-05
8.63588e-06
8.10527e-06
8.04616e-06
8.42894e-06
0.000443674
0.00374738
5.92608e-05
4.09737e-05
9.31532e-06
7.41189e-06
3.36806e-06
3.48471e-06
3.58436e-06
3.75028e-06
0.000258493
0.00349963
1.61568e-05
3.17658e-06
2.48199e-06
2.28132e-06
1.42784e-06
1.68759e-06
1.64318e-06
1.72606e-06
9.27094e-05
0.00292286
4.04888e-06
3.00928e-06
4.74013e-07
9.91831e-07
7.53864e-07
8.11126e-07
7.83068e-07
8.35054e-07
9.63977e-07
0.00163049
5.69145e-06
1.14503e-06
9.07041e-07
3.39956e-07
4.54441e-07
4.17003e-07
4.15973e-07
4.48146e-07
5.27218e-07
0.000810735
1.49699e-05
3.90897e-06
7.86098e-08
2.94327e-07
3.05404e-07
2.65982e-07
2.78029e-07
2.97807e-07
3.47871e-07
4.82393e-07
3.66776e-05
1.30814e-05
2.95847e-06
5.1107e-07
3.77658e-07
1.45498e-07
1.98937e-07
2.07649e-07
2.46669e-07
3.72125e-07
0.00150582
4.21716e-05
6.80819e-05
8.02387e-05
8.88654e-05
9.30303e-05
9.44403e-05
9.53289e-05
8.68223e-05
0.000200866
0.000322933
3.64151e-05
5.30987e-05
5.5805e-05
4.94957e-05
4.59712e-05
4.49143e-05
4.5027e-05
0.000128468
0.00105287
0.000212681
9.36835e-05
3.07215e-05
1.52265e-05
1.82965e-05
1.8584e-05
1.79286e-05
1.79465e-05
0.000314795
0.00221841
8.94865e-05
6.16833e-05
2.00196e-06
8.95137e-06
8.42978e-06
7.93428e-06
7.67497e-06
7.76161e-06
0.000456062
0.00283824
6.66127e-05
4.38738e-05
8.88063e-06
6.44039e-06
3.64576e-06
3.40313e-06
3.43535e-06
3.49553e-06
0.00040854
0.00306694
1.51058e-05
1.79817e-06
1.62377e-06
2.46245e-06
1.46387e-06
1.63104e-06
1.60195e-06
1.62398e-06
0.000438894
0.00313335
3.0266e-06
2.60323e-06
5.27277e-07
1.01683e-06
7.45458e-07
7.99528e-07
7.70668e-07
7.91429e-07
8.3769e-05
0.00265084
4.98885e-06
8.91436e-07
8.44347e-07
3.68018e-07
4.43716e-07
4.20035e-07
4.10384e-07
4.28453e-07
0.000149695
0.00255588
1.02307e-05
2.71479e-06
1.92169e-07
2.35537e-07
3.12131e-07
2.66586e-07
2.74643e-07
2.91038e-07
3.30082e-07
0.00179466
2.40139e-05
8.46261e-06
2.07428e-06
2.75512e-07
3.05427e-07
1.6432e-07
1.92382e-07
2.04559e-07
2.38324e-07
0.00251745
0.000759392
0.000135377
0.000119375
9.60812e-05
8.63872e-05
8.35527e-05
8.32116e-05
8.39112e-05
8.54775e-05
2.32947e-05
0.000487743
6.37804e-05
3.5088e-05
4.91231e-05
4.65468e-05
4.28934e-05
4.11705e-05
4.08968e-05
6.68981e-05
0.000546271
0.000166617
5.53292e-05
3.83309e-05
1.60789e-05
1.65174e-05
1.7308e-05
1.68166e-05
1.65448e-05
0.000245118
0.00134802
9.93823e-05
5.95935e-05
1.71287e-06
7.62695e-06
7.87658e-06
7.63546e-06
7.32024e-06
7.22053e-06
0.000392135
0.00186374
7.77947e-05
4.70615e-05
7.89057e-06
5.28463e-06
3.75577e-06
3.32856e-06
3.28629e-06
3.28106e-06
0.000416837
0.00218478
1.32733e-05
6.25931e-08
7.77324e-07
2.4875e-06
1.5109e-06
1.56809e-06
1.54991e-06
1.54097e-06
0.000523347
0.00246152
2.38795e-06
2.36601e-06
4.8756e-07
1.0368e-06
7.36059e-07
7.78477e-07
7.55394e-07
7.55536e-07
0.000340257
0.00234438
4.42403e-06
7.02761e-07
7.71319e-07
3.92802e-07
4.25697e-07
4.14307e-07
4.04064e-07
4.11699e-07
0.00050296
0.00258407
6.72152e-06
1.76652e-06
3.75544e-07
1.97764e-07
3.06277e-07
2.64833e-07
2.67899e-07
2.80393e-07
0.000171849
0.0024453
1.62667e-05
5.65501e-06
1.51154e-06
1.27731e-07
2.54773e-07
1.72721e-07
1.8489e-07
1.98145e-07
0.000451167
0.00301201
6.48377e-05
0.000118521
0.000118619
9.89975e-05
8.5361e-05
7.8118e-05
7.49809e-05
7.42366e-05
7.49901e-05
5.49906e-05
0.00062293
6.82163e-05
1.88443e-05
3.87232e-05
4.14902e-05
3.94048e-05
3.74325e-05
3.66901e-05
8.47338e-06
0.000225807
7.73577e-05
5.71013e-06
4.1119e-05
1.77372e-05
1.49104e-05
1.57134e-05
1.54904e-05
1.51497e-05
0.000140905
0.00074827
0.000105222
5.39412e-05
5.46927e-06
6.84663e-06
7.09444e-06
7.13706e-06
6.8873e-06
6.70442e-06
0.000265682
0.00112151
9.16345e-05
4.99549e-05
6.3075e-06
4.09537e-06
3.6588e-06
3.21543e-06
3.11462e-06
3.07047e-06
0.00031444
0.00138433
1.04844e-05
1.95354e-06
5.84475e-08
2.34481e-06
1.54108e-06
1.49394e-06
1.47805e-06
1.45757e-06
0.000441183
0.00166306
2.08426e-06
2.3081e-06
3.69391e-07
1.03397e-06
7.24653e-07
7.43153e-07
7.29647e-07
7.20611e-07
0.000352819
0.00166198
3.971e-06
5.55507e-07
6.83152e-07
4.13251e-07
4.04763e-07
4.01421e-07
3.91987e-07
3.93199e-07
0.00053393
0.00197749
4.22968e-06
1.06771e-06
4.81454e-07
1.78955e-07
2.89405e-07
2.58458e-07
2.57921e-07
2.68299e-07
0.000338333
0.00201128
1.15653e-05
3.96066e-06
1.1482e-06
3.11277e-08
2.16538e-07
1.73852e-07
1.76119e-07
1.87308e-07
0.000534448
0.00239951
0.000110965
6.61436e-05
8.19866e-05
7.9084e-05
7.32019e-05
6.83084e-05
6.53876e-05
6.42329e-05
6.43444e-05
6.80001e-05
0.000659108
4.54709e-05
1.27633e-05
2.76924e-05
3.38234e-05
3.44861e-05
3.33058e-05
3.24535e-05
2.73311e-05
5.61255e-05
6.61765e-05
5.33639e-05
3.7747e-05
1.94832e-05
1.35659e-05
1.38709e-05
1.39047e-05
1.36318e-05
5.5328e-05
0.000350353
0.000102857
4.41867e-05
8.44016e-06
6.65635e-06
6.2578e-06
6.43303e-06
6.32404e-06
6.13956e-06
0.00013863
0.000593666
0.000107081
5.19873e-05
4.19495e-06
3.02964e-06
3.36726e-06
3.03447e-06
2.9034e-06
2.83832e-06
0.00018022
0.000776985
6.64167e-06
4.12485e-06
4.35538e-07
2.05995e-06
1.52413e-06
1.40968e-06
1.38422e-06
1.35978e-06
0.000289244
0.00100157
2.15548e-06
2.43777e-06
2.05471e-07
9.91248e-07
7.10657e-07
6.98835e-07
6.8964e-07
6.78825e-07
0.000247333
0.00102319
3.59423e-06
4.20877e-07
5.76878e-07
4.26019e-07
3.82276e-07
3.80434e-07
3.73203e-07
3.72708e-07
0.000407552
0.00130117
2.48855e-06
5.67025e-07
5.28533e-07
1.75361e-07
2.66716e-07
2.4812e-07
2.44571e-07
2.51894e-07
0.000287333
0.00131315
8.71172e-06
2.93044e-06
8.99602e-07
3.51235e-08
1.85286e-07
1.69294e-07
1.66797e-07
1.76145e-07
0.000432505
0.00159489
0.000285226
4.6796e-05
5.90521e-05
6.06741e-05
5.94052e-05
5.70924e-05
5.51994e-05
5.43846e-05
5.46676e-05
5.79709e-05
0.000531676
5.04011e-06
2.20649e-05
2.20864e-05
2.60264e-05
2.83587e-05
2.84596e-05
2.79837e-05
2.76677e-05
1.10851e-05
0.000271129
0.000118865
2.74792e-05
2.06904e-05
1.26422e-05
1.19462e-05
1.20954e-05
1.19669e-05
1.04202e-05
0.000138566
8.85166e-05
3.0577e-05
9.75366e-06
6.9168e-06
5.56768e-06
5.60137e-06
5.62052e-06
5.49534e-06
5.51297e-05
0.000272153
0.000122854
5.26249e-05
1.73665e-06
2.22929e-06
2.94162e-06
2.76464e-06
2.64784e-06
2.57445e-06
7.91914e-05
0.000376388
1.78284e-06
6.26689e-06
6.31603e-07
1.685e-06
1.4419e-06
1.30972e-06
1.27065e-06
5.00059e-06
0.000150267
0.000525226
2.67483e-06
2.74888e-06
3.69474e-08
8.99405e-07
6.86978e-07
6.4668e-07
6.37166e-07
6.27169e-07
0.000125996
0.000531678
3.23649e-06
2.69165e-07
4.50407e-07
4.23365e-07
3.59671e-07
3.52617e-07
3.47505e-07
1.8279e-05
0.000243069
0.000732837
1.27723e-06
2.15488e-07
5.25709e-07
1.80426e-07
2.40955e-07
2.32892e-07
2.27548e-07
2.32985e-07
0.000175967
0.000720309
6.9574e-06
2.28402e-06
7.10337e-07
8.31104e-08
1.58638e-07
1.59426e-07
1.55443e-07
1.65461e-05
0.000275468
0.000913934
0.00042052
4.40473e-05
4.97156e-05
4.90358e-05
4.85703e-05
4.73832e-05
4.59264e-05
4.49048e-05
4.4527e-05
4.61819e-05
0.000247043
2.78884e-05
4.00407e-05
2.44231e-05
2.12947e-05
2.26057e-05
2.33662e-05
2.34419e-05
2.33527e-05
2.20207e-05
0.000539665
0.000186673
9.73459e-06
2.04832e-05
1.22431e-05
1.02345e-05
1.01926e-05
1.01893e-05
6.33579e-06
4.1756e-05
5.99387e-05
1.4338e-05
8.62864e-06
7.23283e-06
5.16278e-06
4.78296e-06
4.82171e-06
4.77482e-06
1.24591e-05
0.00010388
0.00013726
5.14492e-05
7.48569e-07
1.77453e-06
2.48311e-06
2.42249e-06
2.34269e-06
2.27853e-06
2.28545e-05
0.000152802
3.84593e-06
8.13756e-06
5.11453e-07
1.29963e-06
1.29574e-06
1.18516e-06
1.13984e-06
3.71994e-06
5.50334e-05
0.000231816
3.70559e-06
3.20447e-06
8.13678e-08
7.60506e-07
6.43787e-07
5.90114e-07
5.75251e-07
5.65482e-07
4.12013e-05
0.000219931
2.82736e-06
7.02371e-08
3.13501e-07
4.00347e-07
3.35385e-07
3.20986e-07
3.15877e-07
9.65285e-06
0.000105269
0.00033998
4.33842e-07
2.06287e-08
4.82842e-07
1.8851e-07
2.13351e-07
2.12962e-07
2.08361e-07
2.10672e-07
7.48021e-05
0.000323357
5.84708e-06
1.85067e-06
5.48302e-07
1.18329e-07
1.36348e-07
1.44723e-07
1.4207e-07
1.45571e-05
0.000131411
0.000439668
0.000328101
3.84478e-05
4.0635e-05
3.75181e-05
3.71672e-05
3.72957e-05
3.70781e-05
3.68993e-05
3.71535e-05
3.9044e-05
6.50223e-05
2.95348e-05
5.17144e-05
3.07199e-05
2.04e-05
1.85746e-05
1.86953e-05
1.88326e-05
1.87747e-05
1.74008e-05
0.000865927
0.000250244
1.54369e-05
1.7461e-05
1.20691e-05
9.0035e-06
8.4336e-06
8.40301e-06
8.33025e-06
5.45266e-06
1.81737e-05
1.98149e-06
4.70204e-06
6.95726e-06
5.00011e-06
4.12888e-06
4.01687e-06
4.00487e-06
2.82867e-06
2.73492e-05
0.00014832
4.82956e-05
2.85014e-06
1.6177e-06
2.09072e-06
2.05585e-06
2.00167e-06
1.95604e-06
1.18005e-06
4.49197e-05
9.72779e-06
9.46428e-06
1.29911e-07
9.74564e-07
1.10828e-06
1.03741e-06
9.95438e-07
1.67554e-05
1.59272e-06
7.20209e-05
5.25767e-06
3.71759e-06
1.05855e-07
5.97874e-07
5.77601e-07
5.2606e-07
5.07604e-07
4.96633e-07
4.28084e-07
5.64357e-05
2.28135e-06
1.93057e-07
1.85989e-07
3.54064e-07
3.0655e-07
2.8656e-07
9.3772e-07
1.97138e-05
7.85147e-06
0.000103947
1.35871e-07
1.5647e-07
4.06718e-07
1.92716e-07
1.87836e-07
1.88881e-07
1.85527e-07
1.86852e-07
9.78144e-06
9.65271e-05
5.08996e-06
1.52344e-06
3.98484e-07
1.40817e-07
1.18286e-07
1.27619e-07
1.26459e-07
7.8003e-06
2.6251e-05
0.000151224
0.000310727
3.8152e-05
3.9149e-05
3.26446e-05
2.99173e-05
2.93552e-05
2.91422e-05
2.89239e-05
2.87875e-05
2.95158e-05
0.000230265
6.23861e-06
4.42998e-05
3.30754e-05
2.09537e-05
1.65546e-05
1.55164e-05
1.53842e-05
1.54028e-05
1.43687e-05
0.00122672
0.000299205
4.57808e-05
1.01747e-05
1.11872e-05
8.21345e-06
7.06117e-06
6.79572e-06
6.69134e-06
3.83935e-06
2.96539e-05
1.43659e-05
1.40596e-06
5.40768e-06
4.76692e-06
3.69668e-06
3.33428e-06
3.26015e-06
3.20409e-06
1.52279e-07
0.000154139
4.34517e-05
4.19931e-06
1.57923e-06
1.79769e-06
1.72837e-06
1.65917e-06
1.6215e-06
6.79776e-06
1.3937e-06
1.5041e-05
1.00065e-05
3.81046e-07
7.52236e-07
9.15794e-07
8.77266e-07
2.15375e-06
2.81511e-05
3.22587e-05
7.11756e-06
7.21874e-06
4.15993e-06
1.96905e-08
4.41518e-07
4.91075e-07
4.55139e-07
4.34742e-07
4.23927e-07
7.6522e-06
9.82375e-06
1.5213e-06
5.11765e-07
9.0373e-08
2.88245e-07
2.71099e-07
2.50092e-07
2.8091e-05
5.23879e-05
5.62474e-05
2.56664e-05
4.68271e-07
1.94501e-07
3.08748e-07
1.86492e-07
1.64053e-07
1.63344e-07
1.60824e-07
1.60674e-07
1.52008e-05
7.49951e-06
4.49567e-06
1.23309e-06
2.5427e-07
1.4761e-07
1.06472e-07
1.08286e-07
1.09587e-07
3.03319e-05
3.79293e-05
2.82959e-06
0.000215096
2.36933e-05
2.88192e-05
2.31018e-05
1.9191e-05
1.78892e-05
1.76431e-05
1.78207e-05
1.82866e-05
1.95016e-05
0.000137821
5.7856e-05
1.91442e-05
2.60115e-05
1.8325e-05
1.38096e-05
1.21353e-05
1.16064e-05
1.13989e-05
1.03714e-05
0.00156803
0.000320018
7.51895e-05
1.53797e-06
8.25629e-06
7.16772e-06
5.95401e-06
5.47251e-06
7.83561e-06
5.00037e-06
6.74351e-05
1.80284e-05
7.59999e-06
2.34855e-06
3.93362e-06
3.29642e-06
2.80828e-06
2.61929e-06
2.53183e-06
2.26358e-06
0.000153654
3.77355e-05
4.69837e-06
1.41351e-06
1.52841e-06
1.45682e-06
1.35889e-06
1.30527e-06
5.03705e-06
1.07972e-05
1.87489e-05
9.65223e-06
8.47656e-07
6.13974e-07
7.42257e-07
7.23167e-07
1.83887e-05
3.76115e-05
4.82457e-05
4.25618e-05
9.29403e-06
4.37796e-06
1.56854e-07
3.18926e-07
3.959e-07
3.79186e-07
3.61157e-07
3.4983e-07
3.41473e-07
1.87965e-05
5.54811e-06
8.48157e-07
4.90988e-08
2.15771e-07
2.26595e-07
3.00907e-05
6.30253e-05
8.40089e-05
9.9296e-05
9.34221e-05
5.64939e-07
1.38869e-07
2.05961e-07
1.68528e-07
1.41906e-07
1.37342e-07
1.3545e-07
1.34184e-07
5.98111e-06
3.18165e-05
3.92225e-06
9.36018e-07
1.2289e-07
1.36619e-07
9.51783e-08
9.13285e-08
5.21448e-06
4.6286e-05
7.00431e-05
7.25333e-05
0.000280727
3.46041e-05
4.51296e-05
4.20465e-05
3.78791e-05
3.52151e-05
3.3141e-05
3.10411e-05
2.87679e-05
2.65779e-05
0.000118151
9.02021e-05
5.53174e-06
1.54269e-05
1.41215e-05
1.1339e-05
9.97797e-06
9.48987e-06
9.3182e-06
8.49889e-06
0.00186023
0.000295282
8.35381e-05
5.59829e-06
1.21697e-05
1.51968e-05
1.61364e-05
1.47306e-05
1.63298e-05
7.79087e-06
7.02929e-05
9.4543e-06
1.03889e-05
1.24895e-06
2.2586e-06
2.59606e-06
2.30768e-06
2.09001e-06
1.96485e-06
1.67351e-06
0.000147412
3.22949e-05
4.71454e-06
1.03711e-06
1.14873e-06
1.17776e-06
1.09869e-06
1.03138e-06
3.86384e-06
1.17142e-05
9.08786e-06
8.49875e-06
1.13901e-06
5.09458e-07
5.78913e-07
1.54586e-05
3.42397e-05
4.66805e-05
5.79081e-05
5.74539e-05
1.09909e-05
4.23471e-06
3.60707e-07
2.4289e-07
3.03682e-07
3.02834e-07
2.89998e-07
2.78226e-07
2.69924e-07
2.5445e-07
1.0551e-05
7.47749e-05
6.27645e-05
6.16903e-05
7.00706e-05
8.40878e-05
0.000103487
0.000116775
0.000133893
0.000131581
4.11718e-07
6.37261e-09
1.2016e-07
1.36729e-07
1.18514e-07
1.1219e-07
1.09544e-07
1.08931e-07
1.09254e-07
8.03687e-06
3.25684e-06
6.14591e-07
2.13697e-08
1.06198e-07
8.37783e-08
7.48015e-08
2.02343e-05
5.48003e-05
8.10575e-05
9.52005e-05
0.000324646
5.67271e-05
5.26849e-05
5.14439e-05
4.87044e-05
4.24425e-05
3.39871e-05
2.46809e-05
1.51002e-05
5.01969e-06
0.000296276
8.62199e-05
1.56702e-05
7.77742e-06
9.58834e-06
7.86804e-06
6.6862e-06
6.13461e-06
5.69291e-06
4.49008e-06
0.00204223
8.96e-05
1.92993e-06
4.30114e-05
4.76231e-05
4.38641e-05
4.01222e-05
3.48259e-05
3.50941e-05
1.76585e-05
1.26452e-05
9.86192e-06
6.85213e-06
3.25622e-06
3.73125e-07
1.52895e-06
1.64942e-06
1.54893e-06
1.44386e-06
1.19485e-06
0.000137653
2.78916e-05
4.91874e-06
7.19609e-07
6.78176e-07
8.22532e-07
8.23451e-07
1.11353e-06
8.24069e-06
1.28541e-05
4.21701e-05
4.93896e-05
3.09516e-05
2.77044e-05
3.2297e-05
4.00261e-05
4.95702e-05
5.65486e-05
6.62372e-05
6.5054e-05
1.16867e-05
3.67079e-06
5.16454e-07
2.05636e-07
2.22133e-07
2.27816e-07
2.21418e-07
2.12766e-07
2.03913e-07
1.88487e-07
0.000127614
0.00012956
0.000158278
0.000151385
0.000144319
0.000144101
0.000152582
0.000157229
0.000172596
0.000163452
2.81656e-08
1.62848e-07
6.73259e-08
9.93616e-08
9.37374e-08
8.74982e-08
8.51735e-08
8.40187e-08
8.36287e-08
8.86854e-08
2.42555e-06
2.8104e-07
3.21707e-08
6.60461e-08
6.73934e-08
6.00244e-08
2.90483e-05
5.4221e-05
7.7408e-05
9.22444e-05
0.00161579
0.000220534
0.000229618
0.00019811
0.00015907
0.000122715
9.1469e-05
6.48715e-05
4.13526e-05
1.89619e-05
0.000176306
7.25813e-05
2.08587e-05
6.87592e-07
4.49734e-06
4.03717e-06
3.72894e-06
4.44701e-06
6.23317e-06
8.53826e-06
0.00196815
0.000148313
0.000107315
0.000101926
9.14545e-05
8.24811e-05
7.60899e-05
6.84742e-05
6.82291e-05
3.90417e-05
0.000109355
3.10064e-05
1.9818e-06
2.14354e-06
4.87318e-07
6.58759e-07
1.02569e-06
1.05664e-06
9.93551e-07
8.0715e-07
0.000106317
2.40476e-05
5.55582e-06
8.64038e-07
3.5076e-06
7.9539e-06
1.24314e-05
1.55207e-05
1.91873e-05
1.91069e-05
6.68585e-05
8.41834e-05
6.83412e-05
5.95336e-05
5.68727e-05
5.8144e-05
6.23169e-05
6.58222e-05
7.3758e-05
7.06482e-05
1.08312e-05
2.74785e-06
5.56781e-07
1.94285e-07
1.61753e-07
1.61873e-07
1.5826e-07
1.52347e-07
1.45752e-07
1.32194e-07
0.000323455
0.000146663
0.000239836
0.000240815
0.000227403
0.000218542
0.000218816
0.000216245
0.000229505
0.000208648
4.87878e-07
3.05079e-07
5.2508e-08
6.63531e-08
6.73569e-08
6.48752e-08
6.26025e-08
6.11106e-08
6.12222e-08
6.27552e-08
1.42577e-06
1.24229e-08
2.63284e-08
3.08144e-08
4.53078e-08
4.44004e-08
2.19229e-05
3.81323e-05
5.76831e-05
6.94627e-05
0.00545644
0.000418542
0.000372033
0.000272536
0.000189719
0.000126993
7.9482e-05
4.19081e-05
9.49199e-06
2.18435e-05
0.00010606
2.31232e-05
2.09521e-06
1.51152e-05
1.62033e-05
1.24313e-05
7.2918e-06
1.76431e-06
4.4286e-06
1.16816e-05
0.00171144
0.000419222
0.000235989
0.00017651
0.000148268
0.000134919
0.00012802
0.000120761
0.000121796
7.99199e-05
0.000251904
4.19006e-05
1.02342e-05
6.07118e-07
3.64285e-07
1.25468e-07
5.05544e-07
6.51139e-07
6.56759e-07
4.95929e-07
3.23794e-05
7.29345e-05
4.43946e-05
3.32545e-05
2.9442e-05
2.87185e-05
2.93457e-05
2.97146e-05
3.169e-05
2.83831e-05
7.48158e-05
8.8289e-05
7.7741e-05
6.9609e-05
6.55148e-05
6.46263e-05
6.63119e-05
6.82635e-05
7.48276e-05
7.14347e-05
8.2433e-06
1.65574e-06
4.40881e-07
1.68336e-07
1.17864e-07
1.08232e-07
1.04794e-07
1.01373e-07
9.63031e-08
8.45365e-08
0.00057322
0.000145638
0.000319984
0.000338607
0.000325906
0.000313292
0.000308399
0.000301879
0.00031446
0.000281452
9.37517e-07
3.54629e-07
6.14249e-08
4.35639e-08
4.556e-08
4.39916e-08
4.25918e-08
4.18141e-08
4.11271e-08
4.15947e-08
3.84664e-07
1.92539e-07
1.99014e-08
1.61469e-08
2.61392e-08
2.85749e-08
2.84204e-08
6.13665e-06
2.41053e-05
3.03547e-05
0.0111226
0.000229165
0.000197956
0.000144068
9.77787e-05
6.13824e-05
3.24678e-05
7.83954e-06
1.57735e-05
4.09079e-05
8.73041e-05
7.7212e-05
5.50694e-05
3.3156e-05
1.73537e-05
6.48904e-06
1.70845e-06
9.09394e-06
1.70721e-05
2.53e-05
0.00128568
0.000658676
0.000355563
0.000248813
0.000203736
0.0001862
0.000179535
0.000174544
0.000177317
0.000128617
0.00033056
3.88521e-05
1.41858e-05
3.65715e-06
7.43544e-07
1.80239e-07
1.9821e-07
2.99982e-07
3.74429e-07
3.6832e-07
7.23508e-06
7.59272e-05
5.19036e-05
4.11176e-05
3.62002e-05
3.42232e-05
3.37612e-05
3.36405e-05
3.53368e-05
3.21115e-05
6.4237e-05
6.67242e-05
6.11635e-05
5.64493e-05
5.38611e-05
5.31048e-05
5.39209e-05
5.5281e-05
6.03134e-05
5.90244e-05
4.46193e-06
7.49277e-07
2.37462e-07
1.0527e-07
7.35183e-08
6.48292e-08
6.17218e-08
5.90267e-08
5.58309e-08
4.78065e-08
0.000707553
0.000149571
0.000380051
0.000416641
0.000410266
0.000399138
0.000392811
0.000386422
0.000399637
0.000362017
1.06586e-06
2.82947e-07
6.30071e-08
2.98467e-08
2.75573e-08
2.68343e-08
2.5786e-08
2.52558e-08
2.481e-08
2.45738e-08
7.58224e-07
7.52745e-07
5.67513e-08
2.21681e-08
1.72529e-08
4.0476e-06
1.2879e-05
1.46729e-05
3.32714e-05
2.8807e-05
0.00379174
0.000747898
0.000588167
0.000446478
0.000357153
0.000295135
0.000249708
0.000222015
0.000178167
0.000137915
4.12038e-05
3.77942e-05
1.83304e-05
7.39376e-06
1.79831e-06
2.02411e-06
5.56362e-06
9.4729e-06
1.40951e-05
1.82248e-05
0.000382205
0.000612737
0.000336154
0.000241877
0.000202743
0.000188041
0.000183295
0.000181882
0.000186789
0.000153242
0.000297913
2.17878e-05
9.38763e-06
3.42342e-06
1.22632e-06
4.58578e-07
1.91759e-07
8.88919e-08
2.92541e-08
6.67035e-08
1.12284e-05
4.32962e-05
3.15913e-05
2.62226e-05
2.3638e-05
2.25235e-05
2.22415e-05
2.23347e-05
2.37521e-05
2.29546e-05
3.59485e-05
3.19378e-05
2.97346e-05
2.8116e-05
2.7264e-05
2.70325e-05
2.73667e-05
2.80365e-05
3.07414e-05
3.16893e-05
1.05899e-06
3.16576e-07
1.21877e-07
6.03497e-08
4.12782e-08
3.49119e-08
3.12838e-08
2.9504e-08
2.78474e-08
2.29251e-08
0.000362481
0.000176175
0.00034297
0.000374204
0.000373894
0.000368152
0.000363861
0.000359996
0.000370689
0.000344803
7.34057e-07
1.35798e-07
3.75144e-08
1.68249e-08
1.39909e-08
1.31396e-08
1.29491e-08
1.24003e-08
1.23667e-08
1.15797e-08
0.000340873
0.000380832
0.000332417
0.000298141
0.000276794
0.000265131
0.000260562
0.000253969
0.00026928
0.000246381
0.000571771
0.00121405
0.00102226
0.000880126
0.000772869
0.000689081
0.000621155
0.000564456
0.000510053
0.000485625
0.000130858
2.15948e-05
1.25395e-05
7.08457e-06
4.8482e-06
4.18511e-06
4.31266e-06
4.87608e-06
5.63964e-06
5.61178e-06
0.000457425
0.000174838
0.00010724
9.06984e-05
8.4633e-05
8.2672e-05
8.20597e-05
8.18735e-05
8.30699e-05
7.92079e-05
0.000126309
6.89362e-06
2.64983e-06
9.47648e-07
3.45668e-07
1.49476e-07
9.30609e-08
7.79596e-08
7.20413e-08
3.98533e-08
8.68052e-06
1.04956e-05
8.07699e-06
7.00144e-06
6.49521e-06
6.27423e-06
6.23061e-06
6.31403e-06
6.86453e-06
7.62469e-06
7.76092e-06
6.41692e-06
5.97479e-06
5.74362e-06
5.61299e-06
5.54419e-06
5.55085e-06
5.64481e-06
6.3497e-06
7.41306e-06
5.75239e-08
9.24914e-08
4.04101e-08
2.07078e-08
1.38985e-08
1.10857e-08
1.00802e-08
9.5966e-09
9.27841e-09
8.32384e-09
9.6175e-05
0.000121814
0.000146857
0.000151743
0.000151781
0.000150709
0.000149693
0.000148639
0.000152256
0.000147792
1.2803e-07
4.00398e-08
1.36104e-08
6.76876e-09
4.58193e-09
4.42573e-09
3.99878e-09
4.62358e-09
3.94671e-09
3.97795e-09
0.00106732
0.000967751
0.000901986
0.000861541
0.000836956
0.000821705
0.00081148
0.000801601
0.000801097
0.000752897
0.193115
0.191402
0.273514
0.521341
0.509865
0.482261
0.583687
0.894661
0.851489
0.793289
0.937911
1.43376
0.759126
0.71429
0.83352
1.2826
0.702049
0.67049
0.77512
1.22314
0.619095
0.577013
0.689454
1.13667
0.552446
0.492062
0.628868
1.0919
0.485044
0.416068
0.570404
1.03136
0.422981
0.361264
0.525787
0.97456
0.365776
0.317946
0.500326
0.936608
0.0202708
0.000905073
0.000261232
0.0132483
0.0676274
0.00554818
0.000203084
0.0364652
0.145501
0.0159431
0.000113782
0.0730514
0.160437
0.0211822
6.10273e-05
0.0720475
0.175901
0.0258467
3.27631e-05
0.0693961
0.179011
0.0280531
1.7642e-05
0.067421
0.179969
0.0287006
9.87065e-06
0.0709317
0.176233
0.0292507
6.16215e-06
0.0728057
0.170613
0.0316818
0.00438151
0.0742313
0.163878
0.0420602
0.0187088
0.0734025
0.0123377
0.0103083
0.0112114
0.0160946
0.0379985
0.0261319
0.0256339
0.0400532
0.0852065
0.0543045
0.0541187
0.0865635
0.0958845
0.0560297
0.0564166
0.0924131
0.106663
0.0575707
0.058792
0.100069
0.109994
0.0553613
0.0571359
0.100248
0.112133
0.0528452
0.0554642
0.10127
0.111734
0.0498181
0.0531844
0.100273
0.109135
0.0448503
0.0497694
0.0979239
0.105871
0.0418346
0.0492277
0.0950788
0.0015829
0.00125833
0.00119971
0.00181493
0.00695724
0.00465423
0.00420469
0.00681377
0.0198694
0.0130391
0.0120768
0.018781
0.0272406
0.0171049
0.0162057
0.0240402
0.0349999
0.020885
0.0204244
0.0297786
0.0404056
0.0229335
0.0229069
0.0330499
0.0448921
0.0241711
0.0246445
0.0359351
0.0483676
0.0250212
0.0260163
0.038252
0.0493493
0.0236076
0.0258849
0.0390786
0.0494071
0.0234336
0.0280157
0.0408686
0.000517121
0.000630352
0.00063821
0.00088454
0.00306259
0.00271565
0.00290392
0.00405502
0.00803754
0.00721193
0.00771165
0.0104097
0.0110526
0.0093148
0.00950672
0.0124239
0.0145411
0.0114853
0.011503
0.0148213
0.0173805
0.0128264
0.0127138
0.0161026
0.0199034
0.013741
0.0136401
0.0171828
0.0224085
0.0146452
0.0146837
0.0183874
0.0240218
0.0145409
0.0153614
0.0192384
0.0256765
0.0156648
0.018028
0.0215018
8.1026e-05
6.9386e-05
5.74537e-05
0.000136139
0.00116444
0.0010411
0.00113445
0.0015835
0.00340661
0.00324775
0.0036958
0.00490872
0.00475879
0.00445912
0.00484589
0.00616015
0.00627812
0.00570941
0.00602569
0.00750016
0.00760269
0.00657913
0.00675656
0.00820997
0.00876442
0.00719554
0.00726853
0.00866748
0.0101989
0.00794054
0.00797273
0.00933685
0.0114822
0.00832857
0.0087075
0.00996725
0.012601
0.00912675
0.0102833
0.0111589
0.000222248
7.21222e-05
8.19944e-05
5.12896e-05
0.000431951
0.000389855
0.000425903
0.000619392
0.00164514
0.0015768
0.00184172
0.00247973
0.00235922
0.00229214
0.00258181
0.00328081
0.00308412
0.00299991
0.00330369
0.00408847
0.00370275
0.00350537
0.00374782
0.0045153
0.00416193
0.00382267
0.00399665
0.00469484
0.00490016
0.00430782
0.00442064
0.00507874
0.00566626
0.00471456
0.00494739
0.00545738
0.00622137
0.00518016
0.00573138
0.00600581
0.000241122
8.57837e-05
8.25756e-05
8.48654e-05
9.63908e-05
9.20718e-05
9.89002e-05
0.000168748
0.000727898
0.000681493
0.000805929
0.00111821
0.00115356
0.00112655
0.00128978
0.00165479
0.00154588
0.00154083
0.00173905
0.00216971
0.0018866
0.00185776
0.00204435
0.00248284
0.00206573
0.00201379
0.00217108
0.00255788
0.00245144
0.00231389
0.00243527
0.00280161
0.0027603
0.00252351
0.00266615
0.00291031
0.00305655
0.00282932
0.00309803
0.00322519
0.000203277
7.07497e-05
6.80734e-05
7.03056e-05
2.31288e-05
7.96047e-06
1.00825e-05
1.00631e-05
0.000289183
0.000254842
0.000304589
0.000454919
0.000533542
0.000520594
0.00060402
0.000788195
0.000741541
0.000752388
0.00086653
0.0010966
0.000941249
0.000952455
0.00107341
0.00132427
0.00100396
0.00102138
0.00113145
0.00134792
0.00121243
0.00120097
0.00129583
0.00151
0.00128643
0.00125894
0.0013423
0.00147362
0.00147088
0.00147155
0.00160551
0.00168222
0.000154941
5.13186e-05
4.9383e-05
5.13349e-05
5.18856e-05
1.95723e-05
1.90065e-05
2.09828e-05
8.82703e-05
6.30734e-05
7.57215e-05
0.000144272
0.000223761
0.000217593
0.000256747
0.000344568
0.000324592
0.000335573
0.000396514
0.000513865
0.000433175
0.000451236
0.000523918
0.000663412
0.000440171
0.000469532
0.00053816
0.000653661
0.000549919
0.000570069
0.000635726
0.000760646
0.000553046
0.000572251
0.000621795
0.000695609
0.000660955
0.000701384
0.000770636
0.000820268
0.000130546
4.23413e-05
4.07293e-05
4.2476e-05
4.04206e-05
1.38542e-05
1.34647e-05
1.49435e-05
7.79281e-06
6.46462e-06
6.31896e-06
1.51435e-05
7.9277e-05
7.78745e-05
9.44913e-05
0.000132823
0.000122698
0.000131576
0.000162341
0.000219397
0.000172455
0.000189586
0.000232101
0.000307848
0.000157025
0.000182143
0.000222395
0.000280377
0.000204617
0.000228592
0.000272236
0.000343987
0.000195296
0.000217039
0.000246984
0.000287659
0.000248384
0.000281045
0.00031875
0.000350424
9.85305e-05
3.02649e-05
2.87093e-05
2.97562e-05
3.21444e-05
1.10736e-05
1.08543e-05
1.21304e-05
1.25296e-05
4.75741e-06
4.70343e-06
5.48168e-06
1.84656e-05
2.02358e-05
2.61231e-05
3.99045e-05
3.32011e-05
4.03713e-05
5.47893e-05
8.03264e-05
4.51221e-05
6.07698e-05
8.54206e-05
0.000124884
2.84584e-05
4.62228e-05
6.85333e-05
9.52946e-05
3.21669e-05
5.43127e-05
8.30464e-05
0.000122734
3.21003e-05
4.78094e-05
6.56777e-05
8.67317e-05
4.67866e-05
6.63083e-05
8.74555e-05
0.000107343
5.59944e-05
1.90864e-05
1.92662e-05
2.13037e-05
2.15665e-05
6.8661e-06
6.74711e-06
7.62213e-06
9.35365e-06
3.49981e-06
3.53867e-06
4.23799e-06
1.7105e-06
1.44026e-06
2.74179e-06
5.49262e-06
2.24859e-07
6.16651e-06
1.22506e-05