/*--------------------------------*- C++ -*----------------------------------*\
| =========                 |                                                 |
| \\      /  F ield         | foam-extend: Open Source CFD                    |
|  \\    /   O peration     | Version:     4.0                                |
|   \\  /    A nd           | Web:         http://www.foam-extend.org         |
|    \\/     M anipulation  |                                                 |
\*---------------------------------------------------------------------------*/
FoamFile
{
    version     2.0;
    format      ascii;
    class       volScalarField;
    location    "1750";
    object      epsilon;
}
// * * * * * * * * * * * * * * * * * * * * * * * * * * * * * * * * * * * * * //

dimensions      [0 2 -3 0 0 0 0];

internalField   nonuniform List<scalar> 
34480
(
4930.69
4928.67
4928.56
4930.05
4933.26
4938.41
4951.03
5004.65
5194.47
5725.7
655.168
601.915
601.014
652.985
838.518
1575.87
5099.76
22852.2
103718
382402
618.519
522.912
509.288
568.924
809.705
1828.89
7041.83
35121.5
172545
699262
524.631
439.274
427.262
484.965
733.666
1883.24
8219.24
44412.6
232217
1.01095e+06
456.553
384.72
377.306
433.077
684.764
1927.44
9177.58
52588.8
289167
1.33352e+06
392.439
332.796
326.582
378.46
628.364
1956.21
10120.8
61041
350603
1.69853e+06
353.242
302.779
298.4
346.434
591.52
1962.77
10725.1
67194
400312
2.02254e+06
321.363
282.125
277.737
317.543
534.253
1820.54
10350
66978.9
412615
2.16744e+06
460.075
436.003
433.401
458.817
597.144
1410.18
6840.75
43693.4
275966
1.49839e+06
5708.97
5709.22
5714.67
5726.62
5743.44
5763.51
5787.71
5823.65
5890.04
5958.67
4856.09
4853.58
4853.09
4854.58
4858.58
4865.58
4876.71
4902.82
4965.45
5185.94
511.917
479.071
473.445
487.568
531.965
648.388
1002.69
2354.51
11802.7
103655
446.881
383.835
370.151
389.558
458.337
645.581
1229.46
3567.08
21360.7
197663
399.523
338.611
325.169
344.878
416.333
620.044
1294.25
4289.26
30235.9
294771
365.793
311.09
300.568
319.781
390.726
598.84
1321.66
4811.73
38715.9
396498
326.303
278.947
269.154
286.444
352.227
554.121
1294.02
5179.86
47345
508536
302.526
260.852
252.687
267.958
328.959
521.489
1256.17
5360.53
54210.3
607759
283.112
249.981
242.315
253.942
301.606
456.698
1074.69
4827.54
54985.3
651956
432.873
410.993
405.895
413.365
443.488
531.723
848.162
2980.42
36394.8
467490
5591.5
5587.19
5587.71
5594.35
5606.02
5620.6
5639.95
5672.96
5740.61
5913.46
4770.94
4768.54
4767.8
4768.61
4771.23
4775.37
4780.19
4790.98
4815.04
4870.09
399.821
386.385
383.725
388.487
403.622
438.984
527.028
758.594
1517.03
5759.14
308.057
276.835
270.007
279.187
309.594
379.202
550.315
1030.14
2859.96
14991.3
290.21
256.399
248.735
259.312
294.464
378.367
597.124
1279.68
4409.51
28923.8
280.828
247.884
241.445
252.403
289.509
380.281
628.951
1481.16
6140.41
47813.3
261.322
231.082
224.6
235.001
270.699
361.659
625.187
1625.42
8150.3
73153.3
250.545
222.537
216.954
226.449
260.544
349.207
617.189
1724.36
10164.3
101593
243.081
220.124
214.718
222.349
249.692
322.225
549.972
1594.31
11041.7
122885
402.749
386.413
382.666
388.317
408.755
461.654
607.153
1235.48
7679.66
92082.3
5481.83
5474.74
5472.44
5476.02
5484.82
5496.8
5513.31
5544.07
5616.54
5801.9
4674.91
4673.41
4672.98
4673.61
4675.41
4677.7
4678.71
4681.51
4688.92
4705.02
328.436
324.319
323.501
324.598
328.682
339.033
365.042
421.618
541.296
940.489
219.274
206.022
203.175
207.22
220.612
248.902
309.044
445.247
772.288
2086.33
214.411
197.695
193.767
199.29
217.244
256.728
345.503
565.497
1169.64
4142.51
217.557
199.526
195.944
202.144
222.746
269.285
379.498
675.902
1611.19
7156.38
210.708
192.769
188.736
195.129
216.356
266.43
392.079
761.584
2117.54
11600.7
208.514
190.739
187.099
193.254
214.652
266.181
401.08
827.327
2633.25
17123.9
209.995
194.725
191.008
196.304
214.376
258.929
379.815
795.149
2860.44
21849.2
375.717
363.737
360.905
365.099
380.065
417.027
508.773
782.674
2180.79
16542.5
5359.84
5352.76
5350.21
5353.27
5361.53
5373.91
5391.04
5421.9
5488.69
5631.87
4569.5
4568.81
4568.67
4569.07
4570.03
4570.75
4569.44
4568.31
4568.25
4570.01
285.507
284.769
284.67
284.441
284.437
286.166
293.403
307.393
329.76
376.007
167.888
162.87
161.831
163.251
168.285
178.506
198.293
237.447
308.184
484.36
166.457
158.734
156.776
159.275
167.529
184.762
219.556
294.203
443.182
889.98
173.911
164.605
162.675
165.767
176.214
198.549
246.022
356.44
601.419
1498.28
173.618
163.429
160.94
164.486
176.221
202.445
261.454
410.876
783.818
2435.25
176.101
165.203
162.836
166.463
179.096
207.897
275.363
457.534
966.4
3640.86
183.367
173.492
170.926
174.308
185.635
212.201
276.694
463.561
1058.5
4746.32
351.387
342.789
340.607
343.497
354.041
379.28
438.195
581.529
1009.36
3813.68
5230.17
5223.24
5220.53
5223.11
5230.72
5242.81
5259.46
5287.84
5343.51
5445.84
4455.67
4455.61
4455.69
4455.91
4456.28
4455.95
4453.93
4451.84
4450.07
4448.99
259.804
259.89
259.973
259.454
258.46
258.048
259.948
263.309
268.057
275.333
139.438
137.792
137.524
137.91
139.525
142.768
148.672
159.193
175.212
203.093
137.534
134.153
133.23
134.277
137.829
144.895
157.832
182.363
222.527
303.074
145.047
140.515
139.567
140.995
145.964
156.015
175.319
215.165
286.339
458.13
147.366
141.847
140.397
142.261
148.419
161.445
187.864
247.264
364.021
701.9
151.791
145.393
143.947
145.974
153.1
168.462
200.813
278.287
444.108
1014.13
162.284
156.186
154.512
156.592
163.419
178.677
212.144
297.443
500.361
1320.51
329.507
323.613
322.007
323.96
331.3
348.567
387.064
467.6
639.917
1290.38
5092.22
5085.69
5082.99
5085.19
5092.1
5103.39
5118.87
5143.78
5186.84
5254.09
4334.15
4334.51
4334.74
4334.84
4334.82
4333.86
4331.99
4329.99
4328.17
4326.83
243.805
243.764
243.79
243.315
242.384
241.93
242.293
243.026
244.136
245.944
123.984
123.571
123.579
123.618
124.004
124.851
126.395
128.979
132.51
137.216
120.667
119.231
118.809
119.223
120.696
123.516
128.267
136.26
147.562
163.774
126.67
124.567
124.145
124.758
127.011
131.348
138.961
152.935
174.377
210.591
129.513
126.636
125.826
126.76
129.866
136.12
147.66
170.691
209.266
285.842
134.281
130.654
129.818
130.89
134.762
142.695
157.84
190.03
247.809
381.569
146.182
142.582
141.541
142.768
146.729
155.234
172.356
210.92
286.916
489.88
310.172
306.324
305.167
306.459
311.539
323.517
349.146
396.319
479.948
667.458
4945.75
4939.82
4937.28
4939.15
4945.26
4955.3
4969.05
4990.05
5022.5
5066.34
4205.45
4206.05
4206.37
4206.4
4206.16
4205.08
4203.59
4202
4200.56
4199.49
232.913
232.496
232.393
232.04
231.444
231.255
231.273
231.423
231.813
232.807
115.603
115.581
115.66
115.61
115.617
115.729
116.001
116.505
117.198
117.995
111.055
110.45
110.258
110.417
111.023
112.154
113.942
116.654
120.076
123.81
115.296
114.368
114.206
114.45
115.436
117.26
120.249
125.181
131.925
140.38
117.76
116.313
115.879
116.33
117.853
120.801
125.851
134.843
148.228
167.57
122.093
120.099
119.641
120.181
122.23
126.256
133.356
146.765
167.918
202.425
134.24
132.223
131.607
132.307
134.529
139.168
147.948
165.491
195.843
252.169
293.188
290.828
289.999
290.854
294.405
302.967
320.356
348.99
394.09
462.583
4790.61
4785.43
4783.15
4784.72
4789.97
4798.49
4810.17
4827.16
4851.02
4879.94
4069.9
4070.64
4071.01
4071
4070.63
4069.75
4068.65
4067.49
4066.46
4065.68
224.508
223.712
223.479
223.24
222.988
222.936
222.916
222.979
223.266
224.16
111.009
111.072
111.148
111.092
111.016
110.942
110.89
110.89
110.956
111.065
105.706
105.444
105.352
105.413
105.669
106.138
106.846
107.832
108.975
109.985
108.45
108.061
108.014
108.103
108.522
109.276
110.455
112.238
114.479
116.713
110.268
109.566
109.342
109.554
110.283
111.655
113.889
117.503
122.452
128.099
113.885
112.817
112.58
112.84
113.905
115.933
119.31
125.057
133.286
143.383
125.611
124.551
124.208
124.596
125.806
128.294
132.825
140.969
153.799
171.839
278.211
276.889
276.282
276.865
279.418
285.772
297.755
315.694
341.5
371.289
4626.78
4622.45
4620.51
4621.79
4626.13
4633.02
4642.55
4655.76
4672.85
4691.82
3927.9
3928.55
3928.95
3928.91
3928.56
3927.93
3927.17
3926.37
3925.67
3925.1
216.931
216.036
215.693
215.54
215.486
215.465
215.466
215.542
215.839
216.732
108.396
108.458
108.51
108.468
108.397
108.302
108.202
108.118
108.075
108.081
102.813
102.687
102.64
102.665
102.78
102.988
103.291
103.686
104.115
104.437
104.452
104.297
104.293
104.321
104.497
104.809
105.281
105.946
106.726
107.393
105.653
105.326
105.215
105.312
105.655
106.286
107.281
108.773
110.706
112.635
108.541
107.977
107.861
107.983
108.535
109.559
111.196
113.754
117.151
120.567
119.5
118.994
118.816
119.028
119.669
120.991
123.327
127.175
132.813
139.514
264.795
264.17
263.703
264.124
266.047
270.907
279.253
290.772
306.121
320.281
4454.39
4450.94
4449.36
4450.38
4453.81
4459.16
4466.61
4476.5
4488.39
4500.64
3779.57
3780.08
3780.41
3780.38
3780.15
3779.73
3779.22
3778.69
3778.23
3777.81
209.485
208.603
208.262
208.154
208.12
208.116
208.137
208.231
208.543
209.433
106.796
106.839
106.872
106.843
106.79
106.717
106.637
106.567
106.531
106.538
101.297
101.228
101.201
101.213
101.27
101.371
101.515
101.693
101.879
102
102.2
102.136
102.142
102.15
102.227
102.363
102.563
102.827
103.114
103.339
102.919
102.774
102.72
102.764
102.923
103.211
103.654
104.282
105.061
105.813
105.181
104.882
104.828
104.886
105.176
105.705
106.52
107.708
109.183
110.493
115.221
115.015
114.933
115.05
115.383
116.082
117.269
119.097
121.595
124.384
252.459
252.285
251.895
252.228
253.764
257.511
263.345
270.856
280.255
287.074
4273.73
4271.12
4269.91
4270.68
4273.27
4277.25
4282.85
4289.98
4298.02
4305.77
3625.04
3625.46
3625.71
3625.7
3625.56
3625.29
3624.96
3624.61
3624.31
3623.99
201.825
200.969
200.658
200.563
200.538
200.542
200.573
200.674
200.988
201.861
105.701
105.724
105.741
105.723
105.688
105.641
105.59
105.547
105.534
105.554
100.531
100.489
100.473
100.479
100.509
100.563
100.637
100.727
100.82
100.874
100.98
100.949
100.952
100.955
100.994
101.063
101.16
101.282
101.402
101.494
101.37
101.308
101.282
101.303
101.376
101.507
101.704
101.971
102.292
102.619
103.142
102.977
102.952
102.983
103.144
103.429
103.853
104.437
105.114
105.678
112.208
112.155
112.125
112.191
112.363
112.728
113.313
114.168
115.241
116.5
240.738
240.841
240.485
240.772
242.081
244.888
248.944
253.866
259.746
262.802
4085.23
4083.36
4082.49
4083.05
4084.89
4087.77
4091.81
4096.76
4102.02
4106.83
3464.53
3464.88
3465.07
3465.07
3464.99
3464.82
3464.61
3464.39
3464.19
3463.93
193.771
192.949
192.666
192.583
192.561
192.568
192.6
192.697
193.005
193.85
104.85
104.858
104.866
104.854
104.833
104.806
104.778
104.756
104.761
104.79
100.159
100.133
100.124
100.127
100.143
100.171
100.21
100.257
100.31
100.338
100.351
100.329
100.327
100.329
100.354
100.397
100.457
100.526
100.59
100.641
100.536
100.51
100.498
100.508
100.542
100.602
100.689
100.805
100.939
101.098
101.944
101.845
101.833
101.853
101.949
102.115
102.351
102.661
102.997
103.278
110.021
110.039
110.036
110.075
110.168
110.348
110.62
111.001
111.415
112.025
229.21
229.477
229.126
229.392
230.526
232.494
235.275
238.484
242.207
243.25
3889.44
3888.18
3887.61
3887.99
3889.22
3891.27
3894.07
3897.36
3900.69
3903.62
3298.33
3298.62
3298.77
3298.78
3298.73
3298.63
3298.49
3298.35
3298.23
3297.99
185.213
184.432
184.177
184.104
184.084
184.089
184.117
184.206
184.5
185.312
104.116
104.115
104.116
104.109
104.097
104.084
104.071
104.064
104.08
104.115
99.9894
99.974
99.97
99.9715
99.9789
99.9916
100.01
100.033
100.063
100.08
100.046
100.026
100.02
100.022
100.04
100.073
100.117
100.166
100.209
100.245
100.114
100.103
100.097
100.102
100.118
100.146
100.186
100.237
100.294
100.381
101.253
101.188
101.181
101.197
101.26
101.365
101.508
101.688
101.873
102.042
108.332
108.386
108.396
108.422
108.47
108.55
108.66
108.812
108.922
109.245
217.322
217.837
217.513
217.772
218.584
219.929
221.789
223.851
226.212
226.172
3687.13
3686.28
3685.93
3686.17
3687.01
3688.39
3690.24
3692.34
3694.36
3696.11
3126.84
3127.08
3127.19
3127.2
3127.18
3127.12
3127.03
3126.94
3126.86
3126.65
176.071
175.333
175.106
175.045
175.024
175.027
175.049
175.126
175.402
176.177
103.44
103.434
103.43
103.426
103.421
103.416
103.413
103.415
103.438
103.476
99.921
99.9137
99.9132
99.9136
99.9154
99.9185
99.924
99.9331
99.9495
99.9608
99.9115
99.893
99.8851
99.8866
99.9013
99.9275
99.9618
99.9995
100.033
100.062
99.9197
99.9131
99.9093
99.9117
99.9203
99.9348
99.9543
99.9782
100.003
100.055
100.853
100.806
100.801
100.814
100.859
100.93
101.023
101.138
101.251
101.371
106.923
106.991
107.011
107.027
107.048
107.077
107.108
107.153
107.127
107.319
204.84
205.493
205.297
205.478
206.021
206.905
208.101
209.395
210.869
210.28
3479.05
3478.51
3478.29
3478.45
3478.99
3479.88
3481.05
3482.31
3483.47
3484.49
2950.58
2950.79
2950.87
2950.88
2950.87
2950.83
2950.78
2950.72
2950.66
2950.47
166.264
165.573
165.376
165.327
165.305
165.305
165.32
165.384
165.638
166.373
102.798
102.79
102.783
102.781
102.779
102.78
102.783
102.79
102.816
102.857
99.9041
99.902
99.9035
99.9032
99.9018
99.8994
99.8977
99.8985
99.9064
99.9161
99.8646
99.8481
99.8398
99.8408
99.8521
99.8724
99.8988
99.9278
99.954
99.9781
99.8449
99.8396
99.8366
99.8376
99.8426
99.851
99.8615
99.8739
99.8857
99.9191
100.606
100.571
100.566
100.577
100.609
100.659
100.722
100.799
100.873
100.968
105.658
105.723
105.746
105.757
105.765
105.771
105.767
105.765
105.687
105.818
191.591
192.295
192.2
192.323
192.666
193.212
193.933
194.715
195.597
194.778
3266.09
3265.77
3265.64
3265.74
3266.07
3266.6
3267.29
3268.01
3268.62
3269.2
2770.29
2770.46
2770.52
2770.53
2770.53
2770.51
2770.47
2770.43
2770.39
2770.21
155.695
155.056
154.886
154.85
154.833
154.831
154.84
154.889
155.116
155.809
102.186
102.175
102.167
102.165
102.166
102.17
102.177
102.186
102.212
102.255
99.9132
99.9134
99.9154
99.9148
99.9119
99.9074
99.9025
99.8995
99.9025
99.9124
99.8607
99.847
99.8396
99.8399
99.8479
99.8624
99.8814
99.9024
99.9223
99.9419
99.8321
99.8273
99.8246
99.8249
99.8279
99.8329
99.8389
99.8456
99.8516
99.8731
100.429
100.402
100.398
100.406
100.428
100.462
100.505
100.555
100.605
100.681
104.459
104.511
104.533
104.541
104.543
104.54
104.524
104.506
104.416
104.517
177.433
178.116
178.101
178.179
178.375
178.676
179.056
179.496
179.969
179.128
3049.32
3049.14
3049.07
3049.13
3049.32
3049.61
3049.99
3050.35
3050.64
3050.96
2586.95
2587.1
2587.14
2587.15
2587.15
2587.14
2587.11
2587.08
2587.04
2586.88
144.231
143.653
143.513
143.489
143.484
143.481
143.484
143.516
143.706
144.353
101.609
101.596
101.589
101.587
101.588
101.593
101.601
101.612
101.633
101.677
99.9322
99.9321
99.9335
99.9326
99.9298
99.9255
99.9206
99.9171
99.9178
99.9285
99.878
99.8675
99.8619
99.8618
99.8667
99.876
99.8882
99.9021
99.9161
99.9312
99.8517
99.8478
99.8457
99.8455
99.847
99.8496
99.8526
99.8557
99.8585
99.8712
100.272
100.252
100.248
100.253
100.267
100.288
100.314
100.344
100.376
100.435
103.292
103.328
103.346
103.351
103.35
103.343
103.325
103.304
103.225
103.304
162.206
162.814
162.862
162.909
162.996
163.117
163.246
163.45
163.623
162.9
2830.05
2829.96
2829.92
2829.95
2830.04
2830.19
2830.37
2830.53
2830.64
2830.8
2401.71
2401.83
2401.85
2401.86
2401.86
2401.85
2401.84
2401.82
2401.78
2401.66
131.646
131.153
131.061
131.051
131.05
131.046
131.042
131.055
131.187
131.769
101.087
101.072
101.065
101.062
101.064
101.069
101.076
101.085
101.102
101.142
99.9492
99.9473
99.9475
99.9466
99.9446
99.9418
99.9388
99.9367
99.937
99.9475
99.908
99.9011
99.8974
99.8972
99.8998
99.9049
99.9118
99.9198
99.9286
99.939
99.8897
99.8873
99.8859
99.8855
99.8859
99.8866
99.8874
99.8881
99.8889
99.8947
100.118
100.106
100.103
100.105
100.112
100.122
100.135
100.15
100.168
100.207
102.169
102.188
102.199
102.201
102.197
102.187
102.17
102.151
102.097
102.157
145.449
145.925
145.96
145.996
146.056
146.136
146.217
146.277
146.209
145.689
2609.68
2609.64
2609.63
2609.64
2609.67
2609.71
2609.77
2609.81
2609.85
2609.92
2215.02
2215.08
2215.09
2215.09
2215.09
2215.09
2215.09
2215.08
2215.08
2215.02
117.388
117.051
117.02
117.025
117.027
117.022
117.012
117.005
117.049
117.478
100.625
100.609
100.601
100.598
100.599
100.602
100.608
100.617
100.63
100.662
99.9657
99.9635
99.9629
99.9621
99.9612
99.9601
99.959
99.9585
99.9592
99.9661
99.9504
99.9467
99.9449
99.9447
99.9459
99.9483
99.9515
99.9554
99.96
99.9656
99.9404
99.9394
99.9387
99.9384
99.9383
99.9381
99.9378
99.9374
99.9371
99.9385
100.009
100.003
100.002
100.003
100.005
100.009
100.014
100.019
100.026
100.044
101.125
101.127
101.129
101.128
101.122
101.113
101.1
101.087
101.069
101.111
125.76
126.042
126.06
126.081
126.113
126.156
126.198
126.222
126.172
125.831
2388.97
2388.95
2388.96
2388.96
2388.96
2388.96
2388.96
2388.96
2388.94
2388.98
7183.68
7293.95
7250.18
7043.71
658942
683880
689435
697296
1.49737e+06
1.58405e+06
1.59155e+06
1.57163e+06
2.52508e+06
2.70332e+06
2.70076e+06
2.61924e+06
3.76053e+06
4.05556e+06
4.02922e+06
3.86768e+06
5.30737e+06
5.75056e+06
5.69904e+06
5.48629e+06
6.86769e+06
7.46651e+06
7.40272e+06
7.20615e+06
7.88215e+06
8.60994e+06
8.55525e+06
8.42737e+06
5.61923e+06
6.17857e+06
6.11445e+06
6.08072e+06
7903.31
8151.02
7988.64
7569.46
5749.22
5802
5804.51
5765.35
308554
324666
345330
377284
689312
780822
824864
861711
1.1779e+06
1.40274e+06
1.46593e+06
1.49182e+06
1.76339e+06
2.17731e+06
2.2512e+06
2.26466e+06
2.45855e+06
3.11201e+06
3.21127e+06
3.24722e+06
3.13139e+06
4.03976e+06
4.20057e+06
4.31947e+06
3.57294e+06
4.70354e+06
4.94484e+06
5.17983e+06
2.80649e+06
3.8182e+06
4.00676e+06
4.31999e+06
7126.02
7357.55
7286.57
7066.26
4937.86
4948.81
4947.95
4938.24
21662.7
25962.2
24598.5
19966.6
61573.9
73412.4
68679.9
55730.3
128750
152835
140881
114025
228350
270513
246245
199419
372347
441880
401334
326371
545268
648451
591526
485348
702720
839284
769466
636772
584373
696764
629252
524580
6344.08
6431.36
6409.03
6313.72
4715.97
4718.09
4718.64
4717.84
1594.5
1711.53
1680.1
1545.16
4698.78
5173.02
5013.08
4434.96
11231.4
12505.4
11926.5
10213.7
22554.8
25252.6
23698
19744.9
41689.4
46918.3
43523
35533.7
68288.8
76974.6
70785.8
57122.2
97148.1
109896
100427
80418
83343.1
93746.8
84181.5
67253.6
5903.79
5945.48
5942.59
5904.67
4567.97
4568.87
4569.08
4568.55
423.325
436.257
438.512
431.599
710.215
757.142
761.647
731.461
1595.18
1736.9
1729.36
1610.36
3203.71
3529.2
3458.34
3118.53
6139.94
6822.74
6582.34
5757.71
10497.3
11692
11107.3
9471.33
15690
17552.3
16460.4
13722.2
13857.4
15393.5
14110.2
11583.6
5578.52
5600.54
5602.03
5586.42
4444.91
4445.66
4445.74
4445.11
275.604
278.474
279.186
277.929
226.383
231.476
233.301
232.265
385.618
403.091
407.321
400.56
674.081
717.848
722.079
696.101
1215.15
1316.37
1312.5
1233.4
2023.5
2211.13
2175.37
1991.09
3046.54
3359.79
3261.18
2903.91
2928.34
3182.47
3022.57
2663.43
5317.99
5328.77
5330.91
5325.34
4322.57
4323.29
4323.34
4322.71
241.787
243.691
244.09
243.033
140.144
140.894
141.246
141.233
175.878
178.57
179.695
179.442
243.212
250.227
252.456
250.758
368.976
386.577
390.291
383.153
549.197
582.618
585.235
565.721
795.419
854.818
851.94
806.944
984.497
1029.48
1009.99
962.256
5095.62
5100.5
5102.35
5101.1
4195.45
4196.15
4196.2
4195.6
228.103
229.82
230.158
229.149
118.194
118.33
118.384
118.361
125.858
126.305
126.528
126.555
146.035
147.26
147.8
147.779
183.409
186.913
188.174
187.612
233.781
240.323
242.068
240.279
314.579
327.134
329.059
323.501
542.953
548.597
546.071
542.385
4893.52
4895.53
4896.81
4897
4061.9
4062.56
4062.62
4062.06
219.498
221.151
221.479
220.505
110.891
110.947
110.955
110.917
110.35
110.421
110.458
110.466
117.768
117.976
118.085
118.116
131.713
132.52
132.871
132.837
149.874
151.227
151.763
151.72
187.343
190.278
191.117
190.455
400.145
397.162
396.41
399.069
4698.32
4699.01
4699.78
4700.27
3921.61
3922.22
3922.27
3921.75
212.201
213.8
214.121
213.182
107.87
107.918
107.922
107.882
104.486
104.492
104.494
104.494
107.575
107.596
107.609
107.621
113.656
113.876
113.975
113.966
121.958
122.207
122.344
122.419
144.57
145.271
145.531
145.467
335.308
330.224
329.441
332.856
4503.68
4503.78
4504.21
4504.66
3774.59
3775.14
3775.19
3774.72
205.06
206.6
206.912
206.011
106.339
106.386
106.392
106.354
101.989
101.987
101.984
101.983
103.358
103.35
103.346
103.348
106.198
106.276
106.308
106.294
110.763
110.775
110.8
110.851
126.723
126.852
126.903
126.897
297.58
292.069
291.162
294.475
4306.99
4306.86
4307.08
4307.42
3621.04
3621.54
3621.58
3621.15
197.662
199.14
199.441
198.579
105.371
105.417
105.423
105.388
100.853
100.851
100.849
100.848
101.489
101.481
101.476
101.475
102.816
102.856
102.868
102.854
105.713
105.683
105.68
105.709
117.994
117.971
117.952
117.939
271.422
265.969
265.014
268.127
4107.01
4106.84
4106.95
4107.17
3461.26
3461.69
3461.72
3461.35
189.838
191.251
191.541
190.72
104.624
104.668
104.674
104.641
100.318
100.317
100.316
100.315
100.637
100.632
100.629
100.627
101.223
101.249
101.255
101.243
103.287
103.259
103.252
103.267
113.19
113.13
113.089
113.067
250.818
245.571
244.624
247.545
3903.17
3903.04
3903.09
3903.2
3295.62
3295.99
3296
3295.68
181.499
182.845
183.123
182.345
103.967
104.007
104.013
103.983
100.064
100.064
100.064
100.063
100.245
100.243
100.24
100.239
100.469
100.487
100.491
100.481
102.071
102.054
102.048
102.053
110.239
110.178
110.132
110.101
232.985
227.997
227.087
229.83
3695.26
3695.23
3695.25
3695.26
3124.58
3124.88
3124.88
3124.6
172.577
173.855
174.122
173.388
103.349
103.387
103.392
103.365
99.9511
99.9522
99.9523
99.9513
100.065
100.064
100.063
100.061
100.119
100.132
100.134
100.126
101.424
101.419
101.415
101.414
108.2
108.15
108.106
108.065
216.462
211.762
210.905
213.474
3483.39
3483.48
3483.49
3483.4
2948.73
2948.96
2948.95
2948.72
163.003
164.214
164.471
163.782
102.757
102.793
102.798
102.772
99.9132
99.9153
99.9155
99.9139
99.9827
99.9828
99.982
99.9807
99.9641
99.9733
99.9745
99.9678
101.04
101.043
101.041
101.035
106.605
106.573
106.533
106.483
200.394
196.014
195.225
197.614
3267.94
3268.13
3268.14
3267.98
2768.83
2768.98
2768.96
2768.77
152.693
153.839
154.089
153.447
102.191
102.225
102.229
102.205
99.9165
99.9198
99.9201
99.9177
99.9476
99.9482
99.9479
99.947
99.9031
99.9091
99.9095
99.9044
100.761
100.771
100.77
100.761
105.208
105.199
105.166
105.106
184.224
180.218
179.515
181.699
3049.61
3049.89
3049.9
3049.69
2585.91
2585.98
2585.94
2585.81
141.544
142.636
142.88
142.283
101.649
101.681
101.685
101.662
99.9385
99.9427
99.9431
99.9399
99.9374
99.9385
99.9386
99.938
99.8886
99.8921
99.892
99.8887
100.511
100.524
100.524
100.514
103.876
103.891
103.866
103.799
167.523
164.01
163.416
165.335
2829.43
2829.76
2829.77
2829.55
2401.15
2401.13
2401.07
2401
129.375
130.427
130.667
130.105
101.141
101.169
101.172
101.151
99.9597
99.9641
99.9645
99.9612
99.9448
99.946
99.9464
99.9462
99.9024
99.9037
99.9035
99.9021
100.267
100.28
100.281
100.272
102.554
102.58
102.565
102.506
149.613
146.669
146.227
147.863
2608.71
2609.08
2609.1
2608.86
2215.01
2214.85
2214.8
2214.84
115.753
116.734
116.94
116.407
100.667
100.683
100.684
100.67
99.9737
99.9764
99.9767
99.9746
99.9697
99.9706
99.9711
99.9712
99.9402
99.9404
99.9403
99.94
100.077
100.083
100.085
100.08
101.288
101.296
101.289
101.264
128.328
126.307
126.071
127.228
2388.19
2388.58
2388.59
2388.33
6105.62
5442.82
5173.12
5077
5022.19
4983.68
4958.08
4943.72
4935.75
4931
798275
193224
33395.8
11729
5298.87
2835.22
1748.62
1212.03
927.927
764.802
1.42387e+06
246968
44245.1
15125.5
6774.3
3636.13
2199.72
1459.92
1047.87
802.695
1.99518e+06
239446
46758
15014
6481.05
3389.9
1999.78
1297.02
912.599
688.338
2.45822e+06
252561
48924.4
14557
6096.28
3101.1
1791.39
1144.04
795.244
596.534
2.92998e+06
276350
51132.3
13970.9
5636.83
2767.66
1561.02
980.896
677.209
508.17
3.31223e+06
294929
51992
13159.1
5157.23
2467.12
1375.38
861.319
595.506
450.337
3.39631e+06
287356
47693.5
10999.8
4163.2
1946.25
1092.78
700.185
502.875
394.77
2.34149e+06
182136
27368.2
5710.4
2274.93
1237.8
857.973
671.598
568.185
506.593
6015.89
5992.69
5846.94
5822.55
5779.16
5754.87
5735.61
5725.37
5718.46
5712.52
5443.17
5175.16
5045.25
4972.69
4927.14
4897.13
4877.68
4866.14
4859.92
4855.99
180206
44888.5
13612.5
5322.29
2635.08
1566.87
1064.84
802.266
656.069
572.127
375621
86398.2
23465.4
8290.08
3888.48
2187.33
1383.54
955.959
710.595
565.571
594943
126225
30697.4
9650.02
4227.11
2260.95
1372.2
915.588
661.411
515.35
830373
164986
36421.1
10415.3
4316.42
2219.27
1309.96
857.378
610.243
471.896
1.10966e+06
207182
41745.8
10861.4
4245.93
2090.79
1198.38
768.683
541.961
418.403
1.38877e+06
244422
45347.7
10848
4054.64
1938.68
1095.39
699.424
493.142
382.902
1.56416e+06
258658
43991.5
9551
3394.89
1584.9
900.526
587.691
429.888
345.796
1.18215e+06
178713
26849.5
5248.88
1966.52
1091.3
771.616
615.194
526.603
476.306
6252.54
5952.63
5792.53
5733.72
5682.86
5652.1
5629.82
5616.23
5606.66
5598.37
4903.97
4869.16
4841.69
4818.89
4801.07
4788.15
4779.55
4774.39
4771.52
4769.47
9199.43
4176.18
2299.13
1432.87
985.398
735.812
591.151
504.893
452.184
420.37
23998
9565.45
4650.65
2546.96
1542.02
1010.15
712.592
538.267
431.041
364.678
45436.4
15962.1
6937.99
3410.88
1898.06
1158.82
771.378
555.581
428.452
352.672
73588.9
22901
9010.75
4055.36
2119.23
1232.04
791.607
556.534
421.463
343.228
112040
31038.1
11038.7
4547.26
2234.65
1236.68
766.988
526.172
393.451
318.951
156031
38863.5
12574.6
4793.7
2251.09
1205.66
734.588
500.492
373.423
303.516
191483
42864.2
12518.2
4384.29
1974.33
1036.46
636.136
442.997
341.742
286.177
141644
27750.4
7302.72
2546.81
1307.64
842.869
642.686
536.57
473.011
436.318
6018.06
5835.59
5710.99
5637.15
5584.07
5550.96
5527.95
5512.29
5500.71
5490.74
4712.96
4704.6
4695.43
4687.19
4680.94
4676.69
4674.03
4672.68
4672.35
4671.96
1208.16
906.665
709.016
570.561
479.299
420.782
383.184
358.462
341.776
331.5
3029.09
1919.89
1270.65
860.891
612.436
460.957
367.168
307.595
268.147
242.273
6221.35
3481.59
2057.67
1252.18
812.837
564.649
420.202
333.101
278.307
243.956
10747.1
5351.22
2878.1
1610.32
978.668
644.162
460.184
354.551
289.886
250.436
17345.7
7666.05
3760.82
1938.62
1104.94
689
472.557
353.724
284.411
243.608
25219.9
9946.11
4495.7
2165.23
1178.52
709.511
476.307
352.819
281.916
240.941
32099.8
11239.9
4657.88
2094.46
1100.34
652.612
441.53
332.968
272.787
238.107
23539.8
7365.31
2961
1443.08
906.004
663.533
542.607
472.674
427.926
401.479
5788.82
5660.3
5561.57
5497.68
5453.61
5424.73
5404.03
5389.17
5377.97
5368.5
4567.54
4566.32
4565.08
4564.11
4563.53
4563.29
4563.31
4563.69
4564.6
4565.44
412.783
383.04
356.736
334.931
318.484
306.426
297.568
290.932
285.85
282.605
637.877
512.686
411.835
334.58
279.791
241.972
216.078
198.171
185.231
176.17
1287.44
926.245
666.356
486.323
369.845
294.956
246.624
214.927
193.457
179.258
2276.24
1481.79
973.356
652.816
462.799
348.793
279.606
236.684
208.338
189.973
3814.21
2240.79
1346.65
830.448
548.726
390.182
299.393
245.673
212.11
191.239
5703.14
3043.75
1695.81
978.007
614.61
420.726
314.907
254.756
217.674
194.946
7459.36
3598.83
1860.53
1011.98
616.58
416.98
313.349
255.908
221.786
201.03
5660.96
2636.24
1435.77
903.959
665.804
539.347
466.851
421.217
389.987
371.13
5535.46
5459.42
5394.16
5347.77
5313.86
5289.61
5271.35
5257.65
5247.08
5238.27
4444.75
4444.87
4445.17
4445.64
4446.24
4446.88
4447.53
4448.33
4449.55
4450.98
277.912
274.923
271.449
268.015
264.99
262.424
260.266
258.416
256.791
255.489
225.958
210.923
195.002
180.679
169.161
160.384
153.855
148.965
145.036
142.074
373.183
321.884
273.269
233.353
203.637
182.278
167.096
156.24
148.277
142.752
613.23
488.056
382.056
302.88
248.791
212.599
188.473
172.241
160.533
152.457
1013.11
737.675
529.182
386.511
296.587
240.185
204.661
181.84
166.424
156.31
1521.94
1022.46
681.09
465.793
339.835
265.151
220.334
192.76
174.283
162.247
2045.08
1266.58
789.896
514.117
364.837
280.871
232.616
203.519
184.885
172.97
1813.9
1182.02
824.707
628.626
519.754
452.668
409.12
379.525
357.951
344.682
5303.15
5261.5
5221.67
5189.78
5164.36
5144.63
5129.06
5116.91
5107.31
5099.43
4322.47
4322.74
4323.19
4323.8
4324.49
4325.17
4325.83
4326.59
4327.73
4329.18
244.19
244.032
243.684
243.212
242.693
242.157
241.607
241.02
240.378
239.62
140.682
138.62
136.056
133.475
131.208
129.352
127.885
126.702
125.587
124.656
176.57
168.288
158.719
149.716
142.176
136.159
131.442
127.752
124.826
122.729
241.586
220.119
197.583
178.237
163.309
152.223
144.099
138.159
133.437
129.977
355.611
303.633
254.528
215.756
187.97
168.553
155.041
145.569
138.637
133.888
503.782
404.25
318.021
255.281
213.409
185.748
167.395
155.113
146.115
139.908
680.966
513.225
382.394
294.751
240.092
205.618
183.577
169.089
159.116
152.483
826.467
675.036
559.025
481.135
428.695
391.934
365.443
346.2
331.343
322.048
5091.6
5069.73
5045.93
5024.35
5005.65
4990.12
4977.32
4966.97
4958.59
4951.82
4195.37
4195.58
4195.92
4196.37
4196.89
4197.39
4197.86
4198.42
4199.35
4200.62
230.451
230.681
230.785
230.795
230.735
230.61
230.415
230.129
229.726
229.089
118.344
118.078
117.713
117.31
116.939
116.636
116.406
116.209
115.929
115.641
126.163
124.618
122.562
120.389
118.363
116.58
115.049
113.75
112.653
111.861
146.603
142.546
137.527
132.663
128.469
125.032
122.284
120.123
118.222
116.746
183.553
172.759
160.719
149.892
141.137
134.327
129.11
125.142
122.026
119.839
231.541
210.458
188.281
169.845
155.877
145.58
138.042
132.587
128.228
125.067
302.792
263.9
227.18
198.814
178.507
164.143
153.991
146.778
141.499
137.9
515.395
472.51
430.153
396.1
369.306
348.443
332.068
319.475
309.245
302.762
4892.37
4880.61
4866.24
4851.78
4838.36
4826.56
4816.44
4807.98
4800.95
4795.37
4061.82
4061.96
4062.18
4062.48
4062.82
4063.13
4063.41
4063.75
4064.45
4065.51
221.798
222.065
222.213
222.282
222.288
222.23
222.099
221.87
221.504
220.872
110.953
110.943
110.931
110.915
110.912
110.93
110.971
111.007
110.955
110.859
110.389
110.047
109.542
108.95
108.347
107.771
107.238
106.755
106.328
106.025
117.933
117.074
115.864
114.558
113.32
112.217
111.275
110.492
109.722
109.085
132.016
129.412
126.172
122.893
119.943
117.424
115.333
113.634
112.224
111.23
150.405
145.505
139.408
133.666
128.774
124.792
121.623
119.178
117.059