/*--------------------------------*- C++ -*----------------------------------*\
| =========                 |                                                 |
| \\      /  F ield         | foam-extend: Open Source CFD                    |
|  \\    /   O peration     | Version:     4.0                                |
|   \\  /    A nd           | Web:         http://www.foam-extend.org         |
|    \\/     M anipulation  |                                                 |
\*---------------------------------------------------------------------------*/
FoamFile
{
    version     2.0;
    format      ascii;
    class       volScalarField;
    location    "1750";
    object      MaU;
}
// * * * * * * * * * * * * * * * * * * * * * * * * * * * * * * * * * * * * * //

dimensions      [0 0 0 0 0 0 0];

internalField   nonuniform List<scalar> 
34480
(
0.623734
0.624731
0.625267
0.625381
0.625076
0.624278
0.622847
0.620103
0.61401
0.608219
0.62716
0.627987
0.628449
0.628482
0.627924
0.626631
0.624628
0.621665
0.614648
0.609098
0.629356
0.630115
0.630488
0.630396
0.629661
0.628314
0.62654
0.624247
0.617212
0.612098
0.62936
0.630139
0.630582
0.63062
0.63011
0.629166
0.627892
0.626314
0.619667
0.615026
0.629832
0.630715
0.631297
0.631554
0.631367
0.630901
0.630174
0.629366
0.623504
0.619348
0.629438
0.630379
0.631045
0.631432
0.631481
0.631421
0.631229
0.631243
0.626564
0.623227
0.629652
0.630734
0.631507
0.632035
0.632293
0.632574
0.632878
0.63371
0.630478
0.627941
0.629069
0.630192
0.630921
0.631334
0.631478
0.631714
0.632169
0.633541
0.631824
0.630473
0.628824
0.630104
0.630947
0.631495
0.631816
0.632212
0.632916
0.634784
0.634338
0.632894
0.625024
0.626047
0.626083
0.625206
0.623587
0.621602
0.619704
0.61916
0.61836
0.619148
0.613841
0.615303
0.615876
0.615628
0.614485
0.61217
0.608057
0.600789
0.59008
0.576227
0.618461
0.61977
0.620295
0.620034
0.618793
0.616198
0.611658
0.603811
0.591154
0.574998
0.62154
0.622764
0.623237
0.622942
0.621627
0.618986
0.614516
0.606831
0.593328
0.575994
0.622358
0.623593
0.624131
0.623969
0.622862
0.620565
0.616494
0.609239
0.595346
0.577591
0.62351
0.62482
0.625475
0.62552
0.624712
0.622868
0.619318
0.612706
0.598909
0.581309
0.623656
0.625009
0.625744
0.625924
0.625352
0.623923
0.620919
0.615094
0.601847
0.585037
0.624317
0.625777
0.626607
0.626932
0.626576
0.62552
0.623052
0.618082
0.605761
0.590024
0.624056
0.625545
0.626343
0.626585
0.626175
0.625181
0.623005
0.618751
0.607619
0.59357
0.624059
0.625654
0.626544
0.6269
0.626669
0.625909
0.624124
0.620617
0.610743
0.597495
0.62045
0.621862
0.622195
0.621532
0.61993
0.617537
0.614079
0.609272
0.599873
0.589747
0.606217
0.607784
0.608349
0.608029
0.606788
0.604469
0.600775
0.595208
0.587136
0.576948
0.611123
0.612657
0.613215
0.612838
0.611407
0.608658
0.604084
0.596826
0.585437
0.570281
0.614475
0.616007
0.61656
0.61618
0.614685
0.611756
0.606774
0.59861
0.584594
0.564773
0.615785
0.617379
0.618009
0.617742
0.616376
0.613587
0.6086
0.60001
0.583842
0.559916
0.617414
0.619098
0.619837
0.619751
0.618614
0.616133
0.611383
0.602775
0.585108
0.557894
0.617978
0.619718
0.620542
0.620589
0.619654
0.617494
0.613089
0.60476
0.586205
0.556622
0.619002
0.620835
0.621749
0.621941
0.621208
0.619374
0.615377
0.607523
0.588656
0.557407
0.61904
0.620899
0.621798
0.621934
0.621174
0.619427
0.615701
0.608375
0.589722
0.557631
0.619302
0.621224
0.622192
0.622419
0.621789
0.620235
0.616871
0.610208
0.592199
0.558708
0.615935
0.617687
0.618244
0.617711
0.616072
0.613329
0.608818
0.601385
0.583931
0.550855
0.600662
0.602036
0.602508
0.6022
0.601109
0.599178
0.596308
0.592404
0.587445
0.581916
0.605302
0.606767
0.607277
0.606868
0.605469
0.602932
0.599009
0.593355
0.585529
0.576605
0.608502
0.610086
0.610632
0.610191
0.60864
0.605751
0.601099
0.594057
0.583463
0.570527
0.610009
0.611732
0.612365
0.61199
0.610445
0.607457
0.602409
0.594364
0.581113
0.563899
0.611906
0.613755
0.614493
0.614252
0.61283
0.609943
0.604786
0.596152
0.580649
0.559439
0.61276
0.614693
0.615516
0.615383
0.614091
0.611372
0.606271
0.597378
0.580079
0.555392
0.614055
0.616084
0.61699
0.616985
0.615849
0.61335
0.608432
0.599539
0.580962
0.553329
0.61435
0.616405
0.617307
0.617266
0.616109
0.613662
0.608877
0.600154
0.580885
0.550994
0.614834
0.616924
0.617878
0.617912
0.616861
0.61455
0.609953
0.601564
0.582268
0.54984
0.611716
0.613651
0.614317
0.61381
0.612055
0.608929
0.603567
0.594572
0.575469
0.541841
0.596804
0.597887
0.598247
0.59801
0.597196
0.595813
0.593877
0.591456
0.588703
0.585985
0.600888
0.602128
0.60256
0.602204
0.601029
0.598984
0.596
0.592053
0.587205
0.582418
0.603634
0.605107
0.605612
0.605194
0.603778
0.601241
0.597372
0.591954
0.584708
0.577087
0.60507
0.606765
0.607376
0.606973
0.605445
0.602604
0.598063
0.591364
0.58158
0.57053
0.607007
0.608886
0.609605
0.609285
0.607767
0.604824
0.599875
0.592214
0.580038
0.565401
0.607988
0.609996
0.610807
0.610564
0.609091
0.606142
0.600966
0.592636
0.578316
0.560195
0.609431
0.611558
0.61245
0.612311
0.610931
0.608071
0.602833
0.594102
0.577999
0.556618
0.609902
0.612069
0.612972
0.612807
0.611399
0.60853
0.603252
0.594334
0.576959
0.552733
0.610558
0.61275
0.613693
0.613587
0.612255
0.609472
0.604249
0.595298
0.577291
0.549993
0.607668
0.609718
0.610464
0.609979
0.60816
0.604816
0.599068
0.589593
0.571361
0.541983
0.594166
0.59497
0.595228
0.595065
0.594512
0.593602
0.592382
0.590947
0.589431
0.58798
0.597652
0.59861
0.598947
0.59867
0.597774
0.59626
0.594154
0.591551
0.588656
0.586077
0.599827
0.601079
0.601513
0.601156
0.599971
0.597916
0.594934
0.591043
0.586356
0.581929
0.601025
0.60256
0.603113
0.602731
0.601347
0.598861
0.595089
0.589906
0.583126
0.576286
0.602824
0.604601
0.605267
0.604922
0.60345
0.600701
0.596329
0.590032
0.581109
0.571524
0.603792
0.605746
0.606513
0.60621
0.604697
0.601788
0.596974
0.589767
0.578763
0.566293
0.60527
0.607377
0.608228
0.607998
0.606508
0.603553
0.598467
0.590576
0.577689
0.562311
0.605829
0.608001
0.608876
0.608623
0.607085
0.604049
0.59876
0.590399
0.576006
0.557886
0.606602
0.608805
0.609713
0.609504
0.608007
0.604997
0.599642
0.590983
0.575611
0.554498
0.603905
0.605981
0.606763
0.606293
0.604462
0.60106
0.595315
0.586161
0.570287
0.546962
0.592355
0.592942
0.593118
0.593016
0.592666
0.592103
0.591373
0.590552
0.58972
0.58889
0.595323
0.596012
0.596259
0.596062
0.595425
0.594377
0.592972
0.591326
0.589625
0.588227
0.596929
0.597919
0.598268
0.597988
0.597065
0.595505
0.593334
0.590663
0.587715
0.58515
0.597814
0.599115
0.599588
0.599258
0.598093
0.596056
0.593104
0.589291
0.584756
0.580561
0.599363
0.600943
0.601531
0.601203
0.599879
0.597483
0.593855
0.588948
0.582671
0.576503
0.600212
0.60201
0.602707
0.602387
0.600953
0.598284
0.594089
0.588194
0.580111
0.57174
0.601631
0.603617
0.604402
0.604126
0.602649
0.59982
0.595206
0.588484
0.57866
0.567946
0.602194
0.604274
0.605096
0.604794
0.60324
0.600261
0.595322
0.587958
0.576642
0.5636
0.603032
0.60516
0.606013
0.60574
0.604193
0.601179
0.596075
0.588255
0.575852
0.560265
0.600487
0.602504
0.603282
0.602832
0.601054
0.597754
0.592333
0.584032
0.570987
0.553472
0.59108
0.591516
0.591635
0.591576
0.591364
0.591031
0.590607
0.590144
0.58968
0.589148
0.59365
0.59412
0.594293
0.59416
0.593734
0.593042
0.592144
0.591131
0.590138
0.589363
0.594757
0.595496
0.595761
0.595555
0.594877
0.593753
0.592242
0.590468
0.588635
0.587139
0.595332
0.596373
0.596757
0.596493
0.595567
0.593988
0.591785
0.58908
0.586104
0.583537
0.596578
0.597908
0.598406
0.598118
0.596998
0.595026
0.592162
0.58849
0.584184
0.580247
0.597244
0.598817
0.599424
0.599121
0.597845
0.595536
0.592067
0.587452
0.581688
0.576144
0.598541
0.60033
0.601028
0.600743
0.599371
0.596824
0.59286
0.587394
0.580153
0.572824
0.599035
0.600942
0.601688
0.601372
0.599898
0.597145
0.592784
0.586614
0.578045
0.568882
0.599899
0.601875
0.602653
0.602353
0.600853
0.598013
0.593416
0.586721
0.577113
0.565975
0.597463
0.599345
0.600085
0.599665
0.598001
0.594939
0.590064
0.582911
0.572641
0.56001
0.590151
0.590489
0.59057
0.590538
0.590415
0.590223
0.589981
0.589722
0.589456
0.589077
0.592438
0.592746
0.592862
0.592778
0.592504
0.592065
0.591508
0.590898
0.590319
0.589882
0.593137
0.593662
0.593853
0.59371
0.593235
0.59246
0.591447
0.590299
0.589172
0.588292
0.593452
0.594245
0.594543
0.594343
0.593644
0.592474
0.590893
0.589031
0.587102
0.585528
0.594388
0.595457
0.595859
0.595623
0.594724
0.593176
0.591007
0.58835
0.585445
0.582944
0.594848
0.596162
0.59667
0.596404
0.595327
0.593426
0.59068
0.587196
0.583169
0.579533
0.595991
0.597535
0.598134
0.597866
0.596661
0.594482
0.591229
0.586952
0.581744
0.576799
0.59636
0.598038
0.598692
0.598387
0.597061
0.594645
0.59097
0.586012
0.579703
0.573386
0.597224
0.598991
0.599678
0.59938
0.598003
0.59546
0.591511
0.586027
0.578814
0.571052
0.594859
0.596547
0.597223
0.596842
0.595342
0.592618
0.588417
0.582515
0.574699
0.565872
0.589446
0.589723
0.58978
0.589764
0.589693
0.589585
0.589449
0.589304
0.589145
0.588847
0.591542
0.591739
0.591815
0.591764
0.591594
0.591324
0.590986
0.590623
0.590284
0.590031
0.591922
0.59228
0.592412
0.592316
0.591997
0.591481
0.590822
0.590095
0.589408
0.588888
0.59205
0.592629
0.59285
0.592706
0.592201
0.591367
0.590269
0.589018
0.58778
0.586813
0.592699
0.593521
0.593833
0.593649
0.59296
0.591794
0.590209
0.588341
0.586408
0.584823
0.592959
0.594011
0.59442
0.594199
0.593332
0.591834
0.589741
0.587191
0.584425
0.582056
0.593945
0.595225
0.59572
0.595486
0.594477
0.592694
0.590128
0.586894
0.58322
0.57992
0.59415
0.595567
0.59612
0.595846
0.594707
0.59268
0.589707
0.585866
0.581328
0.577043
0.595006
0.596528
0.597116
0.596841
0.595635
0.593459
0.590205
0.585881
0.580605
0.575308
0.59268
0.594135
0.594728
0.594394
0.593092
0.590763
0.587282
0.582594
0.576815
0.570806
0.588893
0.589131
0.589173
0.589166
0.589126
0.589066
0.588989
0.588907
0.588807
0.588556
0.590865
0.59099
0.59104
0.59101
0.590907
0.590745
0.590543
0.590328
0.590128
0.589977
0.590995
0.59123
0.591318
0.591257
0.591048
0.590716
0.590298
0.589847
0.589431
0.589123
0.591014
0.591422
0.591582
0.591483
0.591131
0.590556
0.589813
0.58899
0.588203
0.587606
0.591414
0.592023
0.592255
0.592119
0.59161
0.590764
0.589642
0.58836
0.587091
0.58609
0.591501
0.59231
0.592628
0.592454
0.591784
0.590648
0.589105
0.58729
0.585419
0.583886
0.592346
0.593367
0.593763
0.59357
0.592762
0.591361
0.589406
0.587033
0.584487
0.582306
0.592362
0.593514
0.593964
0.593731
0.592795
0.591162
0.588845
0.585966
0.582769
0.579904
0.593222
0.594486
0.594971
0.594734
0.593723
0.591937
0.589355
0.58606
0.582288
0.578734
0.590909
0.592113
0.592614
0.592332
0.591244
0.589328
0.586548
0.582952
0.578785
0.574788
0.588448
0.588661
0.588692
0.58869
0.588667
0.588634
0.588591
0.588544
0.588478
0.588256
0.590346
0.590425
0.590459
0.590442
0.590381
0.590284
0.590165
0.590037
0.589917
0.589822
0.590269
0.590419
0.590475
0.590436
0.590305
0.590096
0.589837
0.589562
0.589313
0.589131
0.590256
0.590535
0.590647
0.590581
0.590344
0.589959
0.58947
0.588937
0.588439
0.58807
0.590446
0.59088
0.591047
0.590949
0.590588
0.589993
0.589221
0.588362
0.587539
0.586909
0.590396
0.590996
0.591233
0.591102
0.590604
0.589773
0.58867
0.587411
0.586162
0.585178
0.59113
0.591916
0.592221
0.59207
0.591447
0.590387
0.588947
0.587252
0.585516
0.584088
0.590944
0.591843
0.592196
0.592007
0.591268
0.590003
0.588257
0.586164
0.583956
0.582067
0.591833
0.592847
0.593233
0.593038
0.592226
0.590817
0.588839
0.586406
0.583766
0.581416
0.589512
0.590468
0.590875
0.590646
0.589769
0.588252
0.586107
0.583437
0.580504
0.577902
0.588085
0.588277
0.588301
0.588302
0.588289
0.588271
0.588246
0.588219
0.588173
0.587972
0.589946
0.589999
0.590023
0.590013
0.589977
0.58992
0.589849
0.589773
0.589698
0.589634
0.589682
0.589774
0.589808
0.589783
0.589702
0.589574
0.589417
0.589253
0.589107
0.589
0.589706
0.589893
0.58997
0.589928
0.589773
0.589522
0.589205
0.588865
0.588552
0.588323
0.589719
0.590018
0.590133
0.590066
0.589817
0.589412
0.588895
0.588331
0.587806
0.587413
0.589573
0.590002
0.590174
0.590079
0.589722
0.589133
0.588367
0.587513
0.586693
0.586065
0.590229
0.590813
0.59104
0.590927
0.590466
0.589691
0.588662
0.587484
0.58632
0.585391
0.589831
0.590506
0.590774
0.590626
0.590065
0.58912
0.587847
0.586369
0.584873
0.583646
0.590793
0.591577
0.591874
0.591722
0.591094
0.590024
0.58856
0.586816
0.585005
0.583471
0.58844
0.589167
0.589486
0.589307
0.588627
0.587468
0.585869
0.583948
0.581929
0.580272
0.587783
0.587959
0.587977
0.587979
0.587972
0.587962
0.587948
0.587931
0.587898
0.587715
0.589648
0.589685
0.589703
0.589698
0.589677
0.589643
0.589601
0.589553
0.589503
0.589455
0.589187
0.589241
0.58926
0.589244
0.589195
0.589118
0.589026
0.588931
0.588848
0.588787
0.589313
0.589436
0.589488
0.589464
0.589365
0.589204
0.589003
0.588789
0.588593
0.588448
0.589174
0.589373
0.58945
0.589405
0.589238
0.58897
0.588633
0.588271
0.587941
0.587699
0.58897
0.589268
0.589388
0.589322
0.589074
0.58867
0.588152
0.587586
0.587055
0.586659
0.589579
0.589998
0.590162
0.59008
0.589751
0.589204
0.588491
0.587692
0.586926
0.586326
0.58896
0.589448
0.589643
0.589532
0.589122
0.588441
0.587541
0.586527
0.585532
0.584749
0.59005
0.590638
0.590858
0.590744
0.590278
0.589495
0.588447
0.587231
0.586016
0.585023
0.587636
0.588165
0.588406
0.588271
0.587763
0.58691
0.585757
0.584416
0.583058
0.582028
0.587523
0.587683
0.587696
0.587699
0.587695
0.587689
0.587681
0.587672
0.587648
0.587482
0.589445
0.589474
0.589488
0.589487
0.589474
0.589453
0.589426
0.589395
0.589358
0.589316
0.588752
0.588781
0.58879
0.588779
0.588749
0.588705
0.588652
0.5886
0.588556
0.588524
0.589041
0.589122
0.589157
0.589143
0.589082
0.588982
0.588856
0.588722
0.5886
0.588507
0.58877
0.588897
0.588947
0.588917
0.588809
0.588637
0.588422
0.588195
0.587992
0.587845
0.588542
0.588742
0.588824
0.58878
0.588614
0.588344
0.588003
0.587636
0.587296
0.587049
0.589123
0.589413
0.589527
0.58947
0.589243
0.58887
0.588391
0.587864
0.58737
0.586987
0.588272
0.58861
0.588747
0.588668
0.588378
0.587903
0.587287
0.586609
0.585961
0.585472
0.589559
0.589986
0.590143
0.590062
0.589729
0.589176
0.58845
0.587627
0.586828
0.586191
0.587034
0.5874
0.587577
0.587478
0.587113
0.586507
0.585702
0.584795
0.583901
0.583281
0.587267
0.58741
0.587418
0.587421
0.587419
0.587416
0.587412
0.587406
0.587389
0.587242
0.589343
0.589369
0.589381
0.589381
0.589373
0.58936
0.589342
0.589319
0.589288
0.589247
0.588355
0.588368
0.58837
0.588362
0.588344
0.588319
0.588291
0.588264
0.588243
0.588231
0.588866
0.588918
0.588941
0.588934
0.588896
0.588835
0.588758
0.588676
0.588601
0.58854
0.588481
0.58856
0.588592
0.588573
0.588504
0.588396
0.588263
0.588124
0.588
0.587914
0.58826
0.588391
0.588445
0.588417
0.588309
0.588134
0.587915
0.587682
0.587468
0.587314
0.588816
0.589009
0.589085
0.589046
0.588894
0.588648
0.588337
0.587999
0.58769
0.587448
0.587722
0.587947
0.588041
0.587987
0.587789
0.587469
0.587058
0.586617
0.5862
0.585905
0.589285
0.589587
0.589696
0.589639
0.589411
0.589034
0.588548
0.588006
0.587494
0.587084
0.586546
0.586788
0.586913
0.586844
0.586592
0.586176
0.585632
0.585037
0.584458
0.584101
0.586915
0.587037
0.587042
0.587044
0.587043
0.587042
0.58704
0.587038
0.587028
0.586904
0.589368
0.589393
0.589405
0.589406
0.589401
0.589391
0.589377
0.589358
0.58933
0.589284
0.587995
0.587998
0.587998
0.587992
0.587981
0.587967
0.587952
0.58794
0.587932
0.587932
0.588769
0.588802
0.588815
0.58881
0.588788
0.588752
0.588706
0.588658
0.588613
0.588574
0.5883
0.588349
0.588369
0.588357
0.588316
0.588249
0.588168
0.588084
0.588009
0.587959
0.588111
0.588196
0.588232
0.588215
0.588146
0.588036
0.587898
0.587752
0.587617
0.587522
0.588629
0.58875
0.588797
0.58877
0.588672
0.588515
0.588319
0.58811
0.587925
0.587778
0.587306
0.587453
0.587517
0.587482
0.587352
0.587142
0.586874
0.586591
0.586323
0.58615
0.589223
0.589429
0.589502
0.589464
0.589312
0.589064
0.588749
0.588403
0.588085
0.587818
0.586037
0.586189
0.586276
0.58623
0.586061
0.585785
0.585427
0.585048
0.584677
0.584485
0.586246
0.586342
0.586344
0.586345
0.586345
0.586346
0.586347
0.586347
0.586344
0.586249
0.589588
0.589615
0.589623
0.589624
0.589621
0.589613
0.589603
0.589587
0.589562
0.589507
0.587718
0.587719
0.587722
0.58772
0.587715
0.587706
0.587697
0.587688
0.587681
0.587685
0.588734
0.588751
0.588756
0.588751
0.588737
0.588717
0.588692
0.588666
0.588645
0.588623
0.588225
0.588257
0.588271
0.588265
0.58824
0.5882
0.58815
0.588098
0.588052
0.58802
0.588089
0.588144
0.588168
0.588158
0.588116
0.588047
0.587961
0.58787
0.587785
0.587723
0.588546
0.588616
0.588643
0.588624
0.588562
0.588464
0.588344
0.588219
0.588114
0.588032
0.587103
0.587202
0.587248
0.587227
0.587144
0.587008
0.586834
0.586651
0.586471
0.586365
0.589425
0.589559
0.589605
0.589578
0.589479
0.589321
0.589122
0.588908
0.588719
0.588545
0.585277
0.585371
0.585432
0.585402
0.585292
0.585113
0.584881
0.584642
0.584399
0.584305
0.584949
0.585015
0.585018
0.585021
0.585022
0.585023
0.585022
0.585021
0.585021
0.584953
0.590143
0.590161
0.590158
0.590153
0.590148
0.590144
0.590141
0.590138
0.590127
0.590076
0.587638
0.587651
0.587664
0.58767
0.587669
0.587662
0.587651
0.587635
0.587617
0.587605
0.588733
0.588736
0.588733
0.588727
0.588718
0.588706
0.588694
0.588684
0.58868
0.588675
0.588241
0.588263
0.588274
0.588272
0.588257
0.588231
0.5882
0.588166
0.588135
0.588111
0.588163
0.5882
0.588216
0.58821
0.588183
0.58814
0.588085
0.588027
0.587972
0.587928
0.588545
0.588583
0.588597
0.588583
0.588543
0.58848
0.588406
0.588332
0.588275
0.588236
0.587265
0.587343
0.587379
0.587368
0.587314
0.587224
0.587108
0.586983
0.58685
0.586762
0.590015
0.59009
0.590116
0.590095
0.590029
0.589926
0.5898
0.589672
0.589571
0.589474
0.583992
0.584055
0.5841
0.58408
0.584007
0.583888
0.583735
0.583579
0.583409
0.583362
0.583125
0.583166
0.583178
0.583185
0.583187
0.583185
0.583178
0.583165
0.583149
0.583093
0.591067
0.591039
0.591009
0.59099
0.590981
0.590982
0.590994
0.591016
0.59105
0.591059
0.587819
0.587856
0.58788
0.587892
0.587894
0.587888
0.587872
0.587848
0.587811
0.587767
0.588722
0.588713
0.588706
0.5887
0.588692
0.588685
0.588679
0.588677
0.588683
0.588695
0.588294
0.588312
0.588321
0.58832
0.588309
0.588291
0.588269
0.588244
0.588219
0.588199
0.588258
0.588285
0.588296
0.588292
0.588273
0.588241
0.588202
0.588161
0.588121
0.588088
0.588564
0.588587
0.588595
0.588585
0.588555
0.58851
0.588456
0.588405
0.588369
0.588355
0.587783
0.587855
0.587886
0.587879
0.58784
0.587773
0.587687
0.587591
0.587482
0.587383
0.590971
0.590999
0.591011
0.590992
0.590941
0.590865
0.590776
0.590692
0.590645
0.590643
0.582303
0.58236
0.582393
0.582379
0.582324
0.582235
0.582123
0.582007
0.581879
0.581837
0.439164
0.418412
0.425316
0.466271
0.391394
0.368155
0.379193
0.436426
0.348211
0.321063
0.338398
0.417319
0.310147
0.280749
0.30508
0.406406
0.278674
0.248608
0.280173
0.404
0.251575
0.222058
0.261893
0.401191
0.229861
0.202218
0.250843
0.398565
0.209478
0.185363
0.242826
0.396478
0.191538
0.173518
0.239247
0.398117
0.172078
0.162211
0.234937
0.393624
0.499239
0.489041
0.489366
0.499078
0.468754
0.456139
0.457283
0.469959
0.437883
0.421162
0.42337
0.440942
0.408869
0.387902
0.391494
0.414213
0.384214
0.358748
0.364005
0.39207
0.362173
0.331823
0.337873
0.371201
0.344295
0.308958
0.314843
0.353269
0.327856
0.28772
0.293159
0.336576
0.314316
0.270147
0.275134
0.322945
0.298956
0.252364
0.254965
0.305307
0.566638
0.564423
0.563892
0.565024
0.548882
0.545186
0.544491
0.54679
0.528901
0.523005
0.522196
0.526531
0.506669
0.4984
0.4976
0.504434
0.485678
0.474955
0.474327
0.484061
0.464608
0.4513
0.450891
0.463636
0.445675
0.4297
0.429468
0.44516
0.427044
0.408523
0.408435
0.426894
0.410787
0.390588
0.390546
0.410928
0.391875
0.372163
0.3714
0.391309
0.579104
0.578022
0.577673
0.578022
0.569478
0.568067
0.567577
0.567939
0.557622
0.555138
0.55442
0.555319
0.542855
0.539064
0.538159
0.539883
0.528425
0.523185
0.522166
0.525021
0.512867
0.506052
0.504976
0.509223
0.49827
0.489807
0.488716
0.494556
0.482961
0.472928
0.471876
0.479387
0.468743
0.457765
0.456763
0.465574
0.450906
0.440976
0.439713
0.448064
0.585975
0.585385
0.585185
0.585372
0.58015
0.579671
0.579441
0.579449
0.572675
0.571735
0.571312
0.571383
0.562576
0.56094
0.560287
0.560554
0.552624
0.550119
0.549246
0.549878
0.541334
0.537819
0.536751
0.53793
0.530608
0.525994
0.524775
0.526688
0.518829
0.513139
0.51184
0.514631
0.507664
0.501322
0.50002
0.503595
0.492917
0.487717
0.486288
0.489309
0.588556
0.588081
0.587935
0.58812
0.585113
0.584903
0.584794
0.584785
0.580032
0.579611
0.579394
0.579376
0.572813
0.572051
0.571673
0.571666
0.565763
0.564531
0.563962
0.564018
0.55745
0.555623
0.554849
0.555047
0.549626
0.547109
0.546143
0.546592
0.540733
0.537509
0.536403
0.537223
0.532316
0.528645
0.5275
0.528728
0.520409
0.517857
0.516636
0.517196
0.589684
0.589253
0.58913
0.589317
0.587805
0.587712
0.587661
0.587651
0.58427
0.584075
0.583968
0.583948
0.578905
0.578534
0.578332
0.578296
0.573705
0.573084
0.572755
0.572707
0.567358
0.566401
0.565915
0.565876
0.56152
0.560153
0.5595
0.559511
0.554726
0.552918
0.552123
0.552257
0.548572
0.546454
0.5456
0.545923
0.538902
0.5379
0.537001
0.53656
0.590018
0.589602
0.589488
0.589677
0.589148
0.589101
0.589075
0.589069
0.586689
0.586591
0.586536
0.586525
0.582676
0.582484
0.582375
0.582349
0.578781
0.578451
0.578265
0.578221
0.573824
0.573303
0.573014
0.57295
0.569389
0.568628
0.568221
0.568148
0.564115
0.563091
0.562572
0.562525
0.559711
0.558484
0.5579
0.557921
0.551674
0.551581
0.550983
0.550202
0.589975
0.589565
0.589454
0.589644
0.589766
0.58974
0.589725
0.589721
0.588048
0.587997
0.587967
0.587961
0.585054
0.584949
0.584889
0.584872
0.582136
0.581955
0.581849
0.581819
0.578247
0.577955
0.577785
0.577736
0.574885
0.574451
0.574204
0.574136
0.570742
0.570153
0.569829
0.569758
0.567603
0.566887
0.566508
0.566452
0.560789
0.561217
0.560851
0.559997
0.589751
0.589341
0.589232
0.589423
0.589963
0.589948
0.589938
0.589935
0.588749
0.58872
0.588704
0.5887
0.586535
0.586475
0.58644
0.586429
0.584354
0.58425
0.584189
0.58417
0.581311
0.581142
0.581041
0.581008
0.578809
0.578556
0.578405
0.578357
0.57553
0.575186
0.574986
0.574929
0.573329
0.572906
0.572667
0.572609
0.567457
0.568169
0.567962
0.567127
0.589453
0.589043
0.588934
0.589126
0.589934
0.589923
0.589916
0.589914
0.589041
0.589025
0.589016
0.589014
0.587436
0.5874
0.587378
0.587371
0.585807
0.585746
0.58571
0.585698
0.583437
0.583337
0.583275
0.583254
0.581634
0.581481
0.581389
0.581357
0.57901
0.578805
0.578682
0.578642
0.577546
0.577291
0.577143
0.5771
0.572406
0.573259
0.573151
0.572364
0.589138
0.588725
0.588616
0.58881
0.589792
0.589783
0.589778
0.589776
0.589083
0.589074
0.589069
0.589068
0.587961
0.587938
0.587925
0.58792
0.586736
0.586699
0.586677
0.58667
0.5849
0.584838
0.5848
0.584787
0.583667
0.583572
0.583515
0.583494
0.581526
0.581401
0.581325
0.581299
0.580669
0.580511
0.58042
0.580392
0.576096
0.577003
0.576953
0.576221
0.588833
0.588417
0.588309
0.588504
0.589609
0.589602
0.589597
0.589594
0.588973
0.588968
0.588966
0.588966
0.58825
0.588235
0.588226
0.588223
0.587305
0.587283
0.58727
0.587266
0.58589
0.585852
0.585828
0.585819
0.58512
0.58506
0.585024
0.585011
0.583314
0.583237
0.58319
0.583173
0.58298
0.58288
0.582823
0.582808
0.57884
0.579744
0.579728
0.579054
0.58855
0.588131
0.588023
0.588221
0.589431
0.589424
0.589419
0.589417
0.588773
0.588771
0.58877
0.588771
0.588398
0.588388
0.588381
0.588379
0.587632
0.587619
0.587612
0.58761
0.586547
0.586523
0.586508
0.586502
0.586149
0.58611
0.586087
0.586079
0.584545
0.584498
0.584469
0.584458
0.584685
0.584621
0.584585
0.584579
0.580862
0.581727
0.581727
0.581114
0.588283
0.587861
0.587755
0.587957
0.589291
0.589284
0.589278
0.589275
0.588519
0.588519
0.58852
0.588521
0.588471
0.588463
0.588458
0.588456
0.587805
0.587797
0.587793
0.587792
0.586977
0.586961
0.586952
0.586948
0.586869
0.586844
0.58683
0.586826
0.585349
0.58532
0.585302
0.585295
0.585947
0.585903
0.585882
0.585881
0.582323
0.58312
0.583128
0.582581
0.588
0.587577
0.587476
0.587683
0.589217
0.589208
0.589202
0.589198
0.588233
0.588234
0.588236
0.588238
0.588513
0.588507
0.588503
0.588502
0.587889
0.587885
0.587883
0.587883
0.587266
0.587255
0.587249
0.587247
0.587372
0.587357
0.587349
0.587347
0.585832
0.585813
0.585802
0.585798
0.586898
0.586867
0.586854
0.586859
0.583324
0.584029
0.584039
0.583565
0.587606
0.587187
0.587094
0.587305
0.589246
0.589236
0.589228
0.589224
0.587938
0.587941
0.587943
0.587944
0.588556
0.588551
0.588549
0.588549
0.587942
0.587939
0.587938
0.587938
0.587486
0.587478
0.587473
0.587472
0.587733
0.587725
0.587721
0.587721
0.586103
0.58609
0.586082
0.586079
0.587669
0.587644
0.587637
0.587646
0.583877
0.584468
0.584477
0.584083
0.586873
0.586471
0.586392
0.586604
0.589459
0.589445
0.589436
0.589432
0.587688
0.58769
0.58769
0.587691
0.588614
0.588612
0.588612
0.588613
0.588005
0.588003
0.588002
0.588001
0.587692
0.587685
0.587681
0.587681
0.588013
0.588012
0.588011
0.588012
0.586315
0.586302
0.586294
0.586292
0.588421
0.588401
0.588397
0.58841
0.58386
0.584316
0.58432
0.584017
0.585458
0.585104
0.585048
0.585244
0.590017
0.590001
0.589994
0.589994
0.587588
0.587584
0.587581
0.587578
0.58868
0.588682
0.588684
0.588686
0.588094
0.588091
0.58809
0.588089
0.5879
0.587893
0.58789
0.58789
0.588242
0.588246
0.588248
0.588248
0.58667
0.586648
0.586639
0.586642
0.589393
0.589379
0.589379
0.589396
0.583045
0.583333
0.583331
0.583137
0.583387
0.583166
0.58314
0.583265
0.591032
0.591027
0.591031
0.591044
0.587703
0.587689
0.58768
0.587673
0.588718
0.588723
0.588727
0.588731
0.58818
0.588176
0.588174
0.588174
0.588062
0.588055
0.588053
0.588055
0.588384
0.588391
0.588393
0.588393
0.587216
0.587178
0.587167
0.58718
0.590712
0.590723
0.590729
0.590734
0.58156
0.581634
0.581629
0.581586
0.595212
0.603664
0.607665
0.610768
0.613893
0.61665
0.618888
0.620636
0.622002
0.623148
0.596142
0.599476
0.606899
0.611949
0.616415
0.619802
0.622267
0.624032
0.625277
0.626219
0.600007
0.596362
0.607348
0.613064
0.618348
0.621946
0.624515
0.626339
0.627592
0.628483
0.60343
0.592498
0.607113
0.612686
0.618547
0.622096
0.624653
0.626431
0.627648
0.628512
0.607932
0.590499
0.607872
0.613172
0.619476
0.622876
0.625403
0.627097
0.628224
0.629008
0.61103
0.587855
0.607625
0.61245
0.619206
0.622421
0.624961
0.626606
0.627738
0.628562
0.615042
0.586603
0.60846
0.612569
0.619729
0.622679
0.625235
0.626822
0.627927
0.628726
0.61662
0.58356
0.607475
0.610815
0.618482
0.621234
0.623951
0.625621
0.626925
0.627961
0.618293
0.582085
0.607931
0.609937
0.617748
0.620032
0.622978
0.624796
0.626302
0.627528
0.602752
0.566222
0.594714
0.597066
0.60675
0.610616
0.615261
0.618371
0.62093
0.622947
0.537802
0.559866
0.57621
0.587836
0.5958
0.601343
0.605349
0.608341
0.610649
0.612568
0.524093
0.554635
0.576719
0.590667
0.59952
0.605511
0.609754
0.61283
0.615073
0.616735
0.513833
0.55151
0.577831
0.592848
0.602301
0.608565
0.612955
0.616097
0.618334
0.619929
0.505454
0.548486
0.578012
0.593351
0.603209
0.60955
0.613948
0.617054
0.619245
0.620797
0.501005
0.547678
0.579287
0.594677
0.604824
0.611116
0.615456
0.618463
0.620552
0.622014
0.497817
0.546616
0.57971
0.594865
0.605252
0.611422
0.615705
0.618626
0.620674
0.622139
0.497428
0.547056
0.581224
0.595854
0.606404
0.612352
0.616558
0.61938
0.621368
0.622792
0.496639
0.546116
0.581186
0.595116
0.605859
0.611591
0.615824
0.618664
0.620774
0.622371
0.497137
0.546444
0.582372
0.595045
0.605584
0.610844
0.615173
0.618131
0.620408
0.622191
0.488057
0.536411
0.57309
0.585278
0.596838
0.603117
0.608636
0.612524
0.615563
0.617829
0.568922
0.575194
0.58127
0.586645
0.591229
0.595062
0.598235
0.600856
0.603049
0.604939
0.555688
0.56708
0.577265
0.585592
0.592259
0.597508
0.601603
0.604785
0.607247
0.609122
0.542608
0.559782
0.574151
0.58504
0.59335
0.599601
0.604309
0.607859
0.610513
0.612458
0.529459
0.552365
0.570719
0.583714
0.593297
0.600209
0.60527
0.609001
0.611751
0.61374
0.519544
0.547519
0.569303
0.583881
0.594382
0.601679
0.606908
0.610686
0.613433
0.615396
0.510707
0.542997
0.567721
0.583424
0.594599
0.6021
0.607408
0.611189
0.61394
0.615924
0.504687
0.54048
0.567658
0.584046
0.595676
0.60321
0.608521
0.612259
0.61498
0.616944
0.499002
0.537453
0.566696
0.583396
0.595343
0.602827
0.608168
0.611932
0.614746
0.616843
0.495301
0.53612
0.567098
0.583466
0.5953
0.6025
0.607899
0.611761
0.614705
0.616951
0.485213
0.52723
0.559416
0.575727
0.58826
0.596184
0.602399
0.606926
0.610402
0.612925
0.578738
0.581146
0.58405
0.586997
0.589775
0.592287
0.594509
0.596451
0.598164
0.599724
0.569968
0.574733
0.580147
0.58529
0.589826
0.593686
0.596907
0.599562
0.601718
0.603421
0.559453
0.56753
0.57594
0.583364
0.589586
0.594655
0.598729
0.601969
0.604504
0.606434
0.547143
0.559246
0.57099
0.580673
0.588429
0.594494
0.599215
0.602873
0.605683
0.607785
0.536458
0.552854
0.567882
0.579571
0.588605
0.595417
0.600579
0.604487
0.607443
0.60962
0.525849
0.546554
0.564703
0.578097
0.588177
0.595533
0.600998
0.605067
0.608128
0.610387
0.517323
0.542153
0.563152
0.577895
0.588777
0.596477
0.60212
0.606267
0.609373
0.611656
0.508953
0.537542
0.561082
0.57681
0.588287
0.596187
0.601967
0.606205
0.609417
0.61182
0.502445
0.534663
0.560403
0.576536
0.588213
0.596094
0.601987
0.606332
0.609652
0.612173
0.491549
0.526363
0.553554
0.570075
0.582392
0.590837
0.597305
0.602121
0.605811
0.608458
0.585236
0.585997
0.58716
0.588525
0.58996
0.591377
0.592723
0.593976
0.595156
0.596309
0.579905
0.58176
0.584278
0.587002
0.589673
0.592155
0.594382
0.596329
0.597984
0.599341
0.572373
0.575775
0.580084
0.584473
0.588564
0.592191
0.595306
0.597919
0.600059
0.601753
0.562562
0.568174
0.574742
0.581001
0.586553
0.591268
0.595178
0.598366
0.60092
0.602904
0.553448
0.561738
0.570797
0.578931
0.585846
0.591498
0.596044
0.599657
0.602501
0.604669
0.543658
0.554952
0.56661
0.576528
0.584667
0.591097
0.596146
0.600084
0.603153
0.605486
0.535214
0.549695
0.563925
0.575437
0.584613
0.591643
0.597059
0.601216
0.60443
0.60685
0.526526
0.544217
0.560894
0.57374
0.58375
0.591219
0.596915
0.601259
0.604625
0.60718