/*--------------------------------*- C++ -*----------------------------------*\
| =========                 |                                                 |
| \\      /  F ield         | foam-extend: Open Source CFD                    |
|  \\    /   O peration     | Version:     4.0                                |
|   \\  /    A nd           | Web:         http://www.foam-extend.org         |
|    \\/     M anipulation  |                                                 |
\*---------------------------------------------------------------------------*/
FoamFile
{
    version     2.0;
    format      ascii;
    class       volScalarField;
    location    "1750";
    object      p;
}
// * * * * * * * * * * * * * * * * * * * * * * * * * * * * * * * * * * * * * //

dimensions      [1 -1 -2 0 0 0 0];

internalField   nonuniform List<scalar> 
34480
(
107975
107875
107835
107850
107935
108117
108460
109142
110107
110453
107834
107734
107694
107706
107785
107962
108300
108970
110003
109977
107691
107588
107548
107551
107616
107763
108061
108663
109692
109117
107616
107512
107466
107456
107499
107602
107842
108344
109307
108154
107533
107418
107364
107337
107354
107412
107594
107992
108851
107158
107548
107434
107374
107338
107336
107357
107482
107772
108492
106275
107453
107326
107259
107211
107193
107184
107261
107453
108012
105337
107540
107418
107356
107323
107320
107322
107384
107503
107881
104741
107440
107312
107244
107207
107205
107217
107271
107332
107504
103993
107533
107418
107405
107471
107610
107801
108045
108281
108452
104456
108734
108609
108564
108589
108694
108897
109233
109761
110575
111641
108527
108395
108348
108374
108488
108713
109100
109753
110893
112496
108325
108188
108142
108163
108270
108489
108883
109589
110970
112956
108196
108055
108001
108011
108103
108296
108668
109364
110885
113124
108070
107917
107855
107847
107918
108076
108410
109062
110651
113036
108047
107893
107823
107805
107857
107982
108272
108855
110448
112864
107923
107757
107679
107647
107681
107775
108020
108529
110078
112468
107986
107824
107748
107724
107765
107860
108086
108528
109981
112251
107872
107706
107623
107592
107622
107710
107919
108312
109618
111810
107953
107799
107758
107803
107936
108149
108480
108977
110231
112217
109300
109187
109148
109176
109279
109465
109749
110151
110681
111292
109086
108954
108910
108945
109070
109301
109665
110208
111023
112030
108866
108723
108678
108714
108845
109094
109503
110152
111248
112676
108707
108554
108502
108530
108658
108905
109334
110043
111362
113172
108552
108386
108327
108341
108455
108687
109111
109839
111326
113463
108498
108330
108263
108268
108369
108580
108988
109704
111303
113690
108348
108169
108096
108088
108174
108361
108745
109432
111094
113678
108390
108214
108140
108138
108227
108412
108784
109439
111102
113796
108265
108084
108004
107993
108069
108240
108592
109222
110824
113633
108332
108160
108108
108152
108298
108551
108978
109674
111240
114048
109697
109609
109579
109602
109682
109821
110019
110272
110565
110846
109518
109402
109363
109395
109505
109699
109988
110379
110885
111404
109320
109182
109139
109175
109301
109531
109888
110401
111155
111994
109156
109002
108951
108984
109116
109366
109773
110387
111384
112570
108994
108822
108763
108786
108915
109166
109599
110281
111491
113018
108924
108746
108679
108695
108817
109063
109506
110224
111611
113449
108760
108570
108496
108501
108613
108846
109286
110021
111544
113667
108786
108597
108522
108531
108645
108878
109320
110058
111662
114010
108649
108456
108376
108379
108483
108706
109136
109875
111490
114066
108702
108516
108456
108497
108650
108928
109408
110195
111802
114520
109971
109909
109888
109905
109961
110055
110182
110334
110494
110632
109837
109745
109713
109740
109827
109975
110184
110448
110752
111028
109680
109559
109521
109553
109663
109856
110140
110518
111000
111472
109531
109388
109340
109373
109498
109724
110074
110563
111249
111971
109377
109212
109155
109183
109313
109557
109953
110532
111420
112413
109304
109128
109062
109086
109216
109468
109896
110542
111618
112885
109135
108944
108872
108888
109013
109265
109710
110404
111644
113184
109152
108960
108885
108904
109033
109291
109751
110478
111843
113626
109007
108811
108733
108746
108870
109123
109584
110338
111767
113809
109049
108858
108793
108833
108990
109281
109777
110573
112025
114264
110159
110119
110105
110116
110153
110212
110289
110375
110461
110528
110067
110000
109976
109996
110059
110164
110306
110475
110653
110801
109957
109860
109828
109854
109942
110092
110305
110569
110872
111140
109832
109709
109666
109696
109804
109995
110276
110644
111102
111536
109699
109549
109498
109526
109646
109865
110203
110666
111289
111919
109632
109467
109406
109433
109560
109799
110182
110726
111517
112359
109468
109285
109218
109239
109367
109616
110031
110641
111591
112659
109482
109296
109224
109248
109383
109644
110085
110748
111834
113119
109334
109142
109067
109088
109221
109483
109936
110642
111821
113351
109369
109181
109114
109153
109308
109597
110077
110823
112046
113763
110292
110268
110260
110266
110289
110324
110368
110417
110463
110497
110232
110185
110169
110182
110225
110295
110387
110492
110596
110677
110167
110092
110068
110087
110154
110264
110414
110593
110782
110939
110068
109967
109932
109957
110044
110196
110410
110677
110979
111244
109961
109833
109788
109814
109918
110102
110375
110729
111159
111560
109907
109761
109707
109733
109849
110061
110385
110821
111388
111943
109754
109587
109526
109549
109671
109901
110266
110775
111479
112208
109772
109599
109533
109559
109690
109937
110336
110907
111737
112641
109625
109443
109374
109398
109531
109785
110203
110824
111751
112860
109657
109477
109412
109449
109597
109871
110313
110971
111951
113210
110391
110376
110371
110375
110388
110409
110434
110461
110485
110503
110350
110320
110309
110318
110346
110391
110448
110511
110571
110616
110324
110270
110251
110265
110313
110390
110492
110609
110726
110817
110248
110170
110142
110161
110229
110343
110499
110686
110883
111046
110169
110065
110028
110050
110135
110282
110493
110753
111046
111302
110132
110008
109962
109986
110086
110263
110525
110860
111260
111626
109993
109846
109793
109816
109926
110127
110432
110839
111350
111845
110020
109866
109807
109833
109954
110175
110518
110986
111604
112232
109875
109710
109648
109674
109799
110031
110398
110917
111622
112404
109909
109745
109684
109718
109854
110102
110490
111044
111800
112694
110467
110458
110456
110458
110465
110477
110491
110506
110519
110528
110437
110418
110411
110416
110434
110462
110497
110534
110569
110594
110441
110403
110390
110400
110432
110484
110552
110626
110697
110751
110384
110326
110304
110318
110368
110451
110561
110687
110814
110915
110331
110250
110220
110238
110304
110417
110573
110759
110955
111118
110311
110210
110172
110193
110274
110417
110620
110869
111146
111387
110187
110064
110019
110040
110134
110301
110546
110859
111222
111556
110227
110095
110044
110069
110174
110363
110646
111015
111464
111895
110086
109941
109888
109912
110023
110226
110534
110950
111471
112010
110124
109979
109925
109956
110075
110291
110619
111066
111632
112250
110528
110523
110522
110523
110527
110534
110542
110550
110557
110562
110502
110491
110486
110489
110500
110517
110538
110560
110580
110594
110529
110504
110495
110502
110523
110557
110600
110647
110690
110721
110484
110442
110427
110437
110472
110530
110605
110689
110770
110832
110456
110394
110372
110385
110435
110518
110630
110759
110888
110992
110450
110371
110341
110358
110422
110532
110683
110863
111052
111209
110341
110241
110204
110222
110299
110433
110622
110854
111108
111331
110396
110287
110245
110266
110354
110510
110733
111014
111334
111624
110257
110136
110090
110112
110207
110377
110625
110947
111323
111687
110303
110181
110134
110160
110262
110443
110708
111057
111469
111888
110580
110577
110577
110577
110580
110583
110587
110592
110595
110598
110552
110545
110543
110545
110551
110561
110573
110586
110598
110606
110598
110582
110576
110580
110594
110615
110642
110670
110696
110714
110557
110529
110518
110524
110549
110588
110638
110692
110744
110782
110549
110505
110489
110498
110534
110593
110671
110758
110843
110908
110556
110497
110474
110487
110535
110617
110727
110853
110980
111080
110459
110381
110353
110367
110427
110530
110671
110839
111013
111160
110530
110444
110410
110428
110499
110621
110792
110999
111222
111414
110393
110294
110257
110276
110353
110489
110682
110923
111189
111432
110449
110349
110311
110332
110416
110561
110769
111031
111325
111604
110625
110623
110623
110623
110624
110626
110629
110631
110633
110634
110591
110587
110585
110587
110590
110596
110604
110611
110618
110623
110653
110642
110639
110641
110650
110663
110679
110697
110712
110722
110611
110592
110584
110589
110605
110630
110663
110698
110730
110754
110620
110589
110577
110584
110609
110650
110703
110760
110815
110855
110635
110592
110576
110585
110620
110679
110756
110842
110927
110991
110548
110490
110468
110479
110524
110600
110702
110821
110938
111034
110636
110570
110544
110558
110613
110706
110832
110980
111133
111257
110497
110419
110390
110405
110466
110571
110716
110891
111075
111235
110566
110487
110457
110474
110540
110653
110810
111001
111205
111388
110664
110663
110663
110663
110664
110665
110666
110668
110669
110669
110621
110619
110618
110618
110621
110624
110629
110633
110637
110641
110698
110691
110689
110691
110696
110704
110714
110724
110733
110738
110650
110637
110632
110635
110645
110662
110682
110705
110725
110740
110673
110652
110644
110649
110666
110693
110728
110765
110799
110824
110694
110664
110652
110658
110683
110724
110777
110834
110889
110930
110614
110571
110555
110563
110596
110651
110722
110803
110881
110943
110718
110670
110650
110661
110702
110770
110860
110963
111066
111145
110573
110514
110492
110503
110550
110628
110733
110856
110981
111085
110658
110598
110575
110588
110638
110722
110837
110973
111111
111229
110700
110699
110700
110700
110700
110701
110701
110702
110702
110702
110643
110642
110641
110642
110643
110645
110648
110651
110653
110656
110736
110733
110731
110733
110736
110740
110746
110752
110756
110759
110678
110670
110666
110668
110674
110684
110698
110712
110724
110734
110712
110699
110694
110697
110708
110726
110748
110772
110793
110808
110735
110715
110707
110711
110728
110756
110791
110829
110864
110889
110661
110631
110620
110625
110648
110686
110735
110789
110839
110880
110781
110748
110734
110742
110771
110819
110882
110951
111019
111068
110627
110583
110567
110575
110609
110665
110739
110823
110906
110974
110730
110687
110669
110679
110716
110777
110858
110951
111043
111118
110735
110734
110734
110734
110734
110735
110735
110735
110735
110735
110658
110657
110656
110657
110657
110659
110661
110663
110665
110667
110770
110769
110768
110769
110771
110774
110777
110779
110782
110782
110697
110692
110689
110690
110694
110701
110709
110717
110725
110732
110741
110733
110730
110731
110739
110750
110764
110779
110792
110801
110764
110750
110745
110748
110759
110777
110800
110824
110847
110862
110694
110674
110666
110670
110686
110711
110743
110778
110810
110836
110831
110809
110799
110804
110824
110857
110900
110945
110990
111019
110661
110629
110618
110624
110647
110686
110736
110793
110846
110890
110790
110759
110747
110754
110779
110822
110878
110939
110999
111046
110772
110771
110772
110772
110772
110772
110772
110772
110772
110771
110664
110663
110663
110662
110663
110664
110665
110667
110669
110671
110801
110801
110801
110801
110802
110804
110806
110807
110808
110807
110710
110706
110705
110705
110708
110711
110716
110722
110726
110731
110761
110756
110754
110755
110759
110766
110775
110784
110792
110797
110781
110772
110768
110770
110777
110789
110803
110819
110833
110843
110717
110704
110699
110702
110712
110729
110749
110771
110790
110806
110870
110855
110848
110852
110865
110887
110915
110945
110973
110990
110678
110656
110648
110652
110668
110694
110727
110764
110797
110826
110844
110824
110815
110820
110837
110866
110903
110943
110981
111009
110825
110824
110825
110825
110825
110825
110825
110824
110824
110823
110658
110657
110657
110656
110657
110657
110659
110660
110662
110665
110827
110827
110827
110828
110828
110829
110830
110831
110831
110829
110717
110715
110714
110714
110716
110718
110721
110724
110726
110729
110771
110768
110767
110767
110770
110774
110779
110785
110790
110793
110786
110781
110778
110779
110784
110791
110800
110810
110819
110825
110731
110724
110721
110723
110729
110740
110752
110765
110776
110786
110894
110885
110880
110882
110891
110905
110923
110942
110961
110970
110677
110662
110657
110660
110670
110687
110708
110731
110752
110771
110909
110896
110890
110893
110904
110923
110947
110972
110998
111013
110919
110919
110919
110919
110919
110919
110919
110918
110917
110916
110632
110631
110631
110630
110631
110631
110632
110633
110635
110639
110841
110841
110840
110840
110840
110841
110842
110843
110843
110842
110720
110719
110719
110720
110721
110722
110723
110725
110725
110727
110772
110770
110769
110769
110771
110774
110777
110780
110784
110786
110782
110778
110776
110777
110780
110784
110790
110796
110802
110806
110737
110733
110732
110733
110737
110744
110752
110759
110765
110770
110893
110886
110882
110884
110889
110898
110910
110923
110936
110942
110650
110641
110638
110640
110646
110657
110670
110684
110696
110709
111009
111001
110996
110998
111006
111018
111034
111050
111067
111075
111081
111081
111081
111080
111080
111080
111080
111080
111080
111080
110571
110571
110572
110573
110574
110574
110574
110573
110573
110575
110829
110827
110825
110825
110824
110825
110826
110828
110830
110832
110723
110723
110724
110724
110725
110726
110726
110727
110726
110726
110767
110765
110765
110765
110766
110767
110770
110772
110774
110776
110772
110769
110768
110768
110770
110773
110777
110781
110785
110788
110738
110736
110735
110736
110739
110744
110749
110754
110757
110759
110850
110844
110841
110842
110846
110852
110860
110870
110880
110887
110584
110579
110578
110580
110584
110592
110600
110609
110615
110621
111166
111160
111156
111158
111163
111172
111182
111193
111206
111211
111264
111261
111260
111259
111259
111259
111260
111262
111264
111268
110488
110494
110497
110500
110501
110500
110499
110496
110491
110485
110795
110791
110789
110788
110787
110788
110789
110792
110795
110800
110729
110730
110730
110731
110731
110732
110732
110732
110732
110730
110762
110761
110760
110760
110761
110763
110764
110766
110768
110770
110765
110763
110762
110762
110764
110766
110769
110772
110776
110778
110741
110739
110739
110740
110742
110746
110750
110754
110757
110758
110788
110781
110779
110779
110783
110788
110795
110803
110811
110820
110500
110498
110498
110499
110503
110510
110517
110523
110526
110523
111333
111328
111325
111327
111331
111338
111347
111356
111366
111370
122717
123930
123755
122481
125948
127354
126954
125332
128890
130477
129889
127899
131056
132758
131984
129715
132718
134499
133552
131078
134067
135908
134951
132356
134992
136866
136040
133379
135815
137695
137032
134333
135731
137582
137064
134372
135319
137157
136897
134360
113015
113205
113243
113123
115301
115672
115730
115440
117557
118110
118168
117659
119696
120416
120461
119707
121648
122504
122518
121506
123500
124465
124444
123215
125034
126084
126033
124646
126539
127647
127578
126081
127319
128458
128387
126839
127967
129140
129117
127618
111813
111902
111930
111903
113136
113304
113344
113277
114589
114856
114908
114778
116066
116437
116498
116285
117489
117964
118022
117704
118965
119540
119590
119156
120256
120923
120964
120410
121636
122380
122410
121743
122457
123248
123271
122509
123275
124103
124144
123326
110961
110984
110995
110995
111714
111767
111787
111780
112633
112737
112770
112745
113664
113832
113881
113826
114691
114932
114994
114895
115819
116138
116210
116054
116822
117219
117298
117073
117980
118448
118530
118231
118693
119211
119298
118935
119470
120030
120134
119730
110678
110688
110693
110693
111150
111173
111184
111184
111733
111782
111801
111797
112439
112523
112554
112543
113164
113290
113334
113311
114001
114177
114235
114190
114737
114967
115037
114962
115657
115940
116019
115907
116235
116559
116651
116507
116912
117273
117383
117216
110546
110550
110553
110553
110849
110859
110864
110865
111244
111264
111274
111276
111736
111775
111794
111796
112257
112321
112350
112350
112887
112982
113023
113018
113423
113554
113606
113591
114152
114320
114383
114353
114612
114809
114886
114842
115164
115389
115481
115424
110506
110508
110509
110509
110701
110706
110708
110709
110989
110998
111004
111005
111340
111359
111370
111373
111723
111756
111774
111778
112204
112256
112282
112287
112594
112668
112704
112707
113175
113273
113319
113317
113524
113644
113701
113694
113958
114095
114161
114149
110507
110508
110509
110509
110628
110631
110632
110633
110843
110848
110851
110852
111097
111107
111113
111115
111387
111405
111415
111419
111764
111793
111809
111814
112048
112090
112113
112120
112517
112574
112604
112611
112764
112836
112874
112878
113101
113184
113229
113231
110530
110531
110531
110531
110601
110602
110603
110603
110765
110768
110769
110770
110944
110950
110953
110955
111166
111176
111182
111185
111465
111481
111491
111495
111670
111695
111709
111715
112054
112087
112107
112113
112212
112256
112280
112286
112479
112529
112558
112563
110563
110563
110563
110563
110598
110599
110599
110600
110729
110731
110731
110732
110849
110853
110855
110856
111020
111026
111029
111031
111255
111265
111271
111274
111398
111413
111422
111426
111717
111737
111749
111754
111805
111832
111848
111852
112021
112051
112069
112074
110599
110599
110599
110599
110609
110609
110609
110610
110719
110720
110720
110720
110793
110795
110796
110797
110925
110928
110930
110931
111109
111115
111119
111121
111201
111210
111215
111218
111470
111483
111490
111493
111503
111520
111530
111533
111683
111702
111713
111716
110635
110635
110635
110635
110625
110625
110625
110625
110725
110725
110725
110725
110761
110762
110763
110764
110866
110867
110869
110870
111009
111013
111015
111017
111059
111065
111068
111070
111292
111300
111305
111307
111279
111290
111296
111298
111436
111448
111455
111457
110669
110669
110669
110669
110642
110642
110642
110642
110739
110739
110739
110739
110744
110745
110746
110746
110831
110832
110832
110833
110942
110944
110946
110947
110959
110962
110964
110966
111167
111172
111175
111176
111114
111120
111124
111126
111259
111266
111271
111272
110702
110702
110702
110702
110657
110657
110657
110657
110760
110760
110759
110759
110737
110737
110738
110738
110812
110812
110813
110813
110897
110899
110900
110900
110889
110891
110892
110893
111082
111085
111087
111088
110992
110997
110999
111000
111136
111140
111143
111144
110735
110735
110735
110735
110668
110668
110668
110668
110783
110783
110783
110782
110733
110733
110734
110734
110803
110803
110803
110803
110868
110869
110870
110870
110841
110842
110843
110843
111028
111030
111031
111032
110903
110905
110907
110908
111056
111059
111061
111061
110771
110771
110771
110771
110672
110672
110672
110673
110807
110807
110807
110807
110731
110731
110731
110732
110798
110798
110798
110798
110847
110848
110848
110848
110808
110808
110809
110809
110997
110998
110999
110999
110834
110836
110837
110837
111015
111016
111017
111018
110823
110823
110823
110822
110665
110665
110666
110666
110830
110830
110830
110830
110728
110728
110728
110729
110794
110794
110794
110794
110828
110829
110829
110829
110785
110785
110785
110785
110976
110977
110978
110978
110776
110777
110778
110778
111015
111015
111016
111017
110916
110916
110915
110915
110638
110638
110639
110639
110845
110845
110845
110844
110725
110725
110725
110725
110787
110787
110787
110787
110809
110810
110810
110810
110767
110766
110766
110767
110950
110952
110952
110952
110711
110712
110712
110713
111075
111075
111075
111077
111079
111079
111079
111079
110572
110572
110572
110572
110838
110839
110839
110839
110723
110722
110722
110722
110778
110778
110778
110778
110790
110791
110791
110791
110754
110753
110753
110754
110900
110903
110904
110903
110616
110616
110616
110616
111217
111217
111217
111218
111269
111269
111270
111270
110468
110465
110464
110464
110810
110812
110813
110813
110726
110725
110725
110725
110771
110772
110772
110772
110780
110780
110780
110780
110753
110752
110751
110752
110838
110842
110843
110841
110499
110493
110492
110495
111392
111395
111395
111393
116094
113579
111655
110367
109561
109041
108686
108436
108256
108120
117150
113969
111600
110199
109373
108847
108498
108256
108088
107962
117511
114006
111330
110008
109183
108663
108313
108071
107908
107801
117494
113903
111001
109845
109039
108553
108219
107990
107832
107725
117208
113681
110691
109665
108867
108416
108097
107881
107732
107637
116837
113553
110521
109629
108831
108420
108112
107908
107761
107658
116194
113295
110229
109476
108671
108300
107997
107804
107659
107563
115772
113317
110219
109610
108790
108454
108144
107946
107789
107667
115046
112984
109907
109478
108682
108393
108074
107872
107707
107576
115485
113681
110578
110174
109255
108863
108431
108140
107904
107704
112567
111822
111161
110608
110153
109783
109484
109243
109050
108900
114189
112824
111690
110835
110191
109708
109344
109067
108855
108695
115487
113535
111993
110918
110131
109565
109155
108853
108631
108481
116474
114022
112142
110936
110067
109469
109044
108736
108511
108356
117099
114287
112136
110853
109933
109327
108899
108596
108372
108225
117573
114535
112168
110855
109905
109306
108882
108585
108363
108209
117721
114566
112021
110714
109744
109162
108742
108452
108231
108083
117931
114768
112087
110821
109840
109277
108855
108561
108332
108163
117710
114571
111844
110686
109734
109203
108774
108474
108237
108058
118116
115084
112320
111184
110157
109552
109045
108681
108395
108165
111747
111431
111078
110738
110431
110163
109934
109740
109579
109448
112917
112277
111607
111027
110553
110171
109862
109613
109412
109257
114115
113065
112040
111218
110579
110090
109713
109421
109197
109038
115227
113742
112384
111369
110607
110045
109624
109306
109063
108890
116155
114238
112573
111403
110548
109939
109491
109160
108908
108735
117027
114711
112773
111489
110564
109928
109466
109129
108873
108690
117624
114951
112773
111411
110435
109786
109316
108978
108719
108539
118274
115315
112945
111546
110537
109885
109406
109060
108793
108596
118445
115268
112811
111451
110451
109809
109319
108963
108687
108481
118949
115687
113183
111818
110762
110067
109523
109122
108812
108570
110973
110876
110741
110589
110432
110280
110140
110013
109901
109808
111705
111477
111189
110895
110617
110366
110146
109955
109795
109665
112573
112138
111630
111151
110730
110373
110076
109831
109633
109485
113508
112819
112067
111406
110851
110400
110037
109748
109517
109345
114372
113393
112387
111555
110883
110357
109946
109626
109373
109191
115265
113980
112723
111741
110970
110387
109942
109600
109333
109136
115958
114361
112862
111753
110901
110278
109807
109452
109173
108974
116750
114861
113150
111947
111034
110383
109891
109521
109232
109015
117126
114989
113147
111908
110969
110303
109793
109411
109112
108887
117731
115418
113479
112192
111201
110493
109944
109529
109207
108957
110685
110645
110583
110507
110424
110339
110256
110178
110106
110045
111157
111061
110923
110766
110603
110445
110298
110165
110048
109951
111738
111546
111288
111015
110750
110507
110291
110103
109944
109822
112436
112110
111700
111291
110914
110583
110298
110059
109860
109705
113128
112634
112049
111497
111009
110597
110253
109972
109741
109569
113900
113211
112436
111744
111154
110671
110280
109965
109710
109516
114529
113621
112649
111826
111143
110603
110172
109831
109557
109356
115299
114169
113010
112073
111314
110726
110262
109899
109610
109389
115737
114402
113102
112089
111275
110653
110163
109784
109483
109254
116336
114822
113408
112326
111460
110800
110280
109875
109558
109310
110550
110532
110504
110466
110423
110378
110331
110286
110243
110205
110856
110813
110745
110662
110569
110474
110382
110295
110216
110148
111258
111170
111039
110886
110724
110566
110417
110282
110163
110069
111761
111606
111386
111142
110897
110665
110455
110269
110110
109981
112288
112041
111710
111361
111025
110720
110450
110219
110022
109871
112913
112552
112093
111632
111205
110829
110507
110235
110009
109831
113428
112930
112327
111752
111237
110797
110427
110123
109871
109680
114110
113462
112715
112032
111436
110940
110531
110197
109926
109714
114524
113726
112852
112079
111417
110878
110437
110084
109798
109577
115045
114109
113133
112290
111578
111002
110534
110159
109860
109624
110507
110499
110485
110465
110443
110418
110392
110366
110342
110320
110705
110683
110647
110601
110549
110493
110436
110382
110331
110287
110996
110951
110880
110792
110693
110592
110493
110400
110317
110249
111358
111279
111156
111009
110852
110695
110546
110409
110288
110187
111753
111625
111435
111216
110990
110771
110569
110389
110231
110107
112247
112055
111782
111481
111182
110901
110648
110427
110237
110083
112645
112371
112002
111612
111236
110895
110594
110337
110117
109947
113221
112853
112380
111900
111451
111054
110711
110422
110181
109988
113562
113092
112518
111956
111443
111000
110624
110313
110055
109852
113986
113424
112771
112148
111590
111113
110712
110382
110111
109895
110508
110504
110496
110486
110474
110461
110447
110433
110419
110406
110630
110619
110600
110575
110545
110512
110479
110445
110414
110386
110847
110823
110783
110731
110672
110608
110545
110483
110427
110381
111108
111065
110994
110904
110804
110700
110598
110502
110414
110339
111408
111337
111224
111086
110936
110784
110638
110504
110383
110286
111797
111690
111525
111330
111123
110920
110730
110558
110406
110280
112094
111940
111712
111451
111184
110928
110694
110486
110304
110160
112570
112359
112060
111731
111403
111097
110823
110583
110379
110211
112821
112544
112173
111778
111396
111049
110742
110481
110257
110079
113159
112826
112398
111955
111534
111156
110827
110548
110314
110123
110531
110528
110524
110519
110513
110505
110498
110490
110482
110475
110602
110596
110586
110571
110554
110536
110516
110496
110477
110459
110767
110753
110730
110700
110664
110625
110585
110545
110508
110479
110951
110926
110884
110829
110766
110699
110631
110564
110503
110449
111179
111138
111069
110982
110884
110780
110678
110582
110493
110420
111486
111424
111322
111195
111055
110913
110774
110645
110528
110430
111703
111612
111469
111296
111110
110924
110747
110586
110442
110326
112094
111970
111780
111557
111324
111096
110885
110695
110529
110389
112259
112095
111857
111586
111310
111048
110807
110596
110411
110261
112529
112332
112056
111748
111441
111153
110893
110666
110471
110310
110563
110562
110560
110557
110553
110549
110545
110541
110536
110533
110599
110596
110590
110582
110572
110562
110550
110538
110527
110516
110730
110722
110708
110690
110669
110645
110620
110595
110571
110553
110854
110839
110814
110780
110741
110698
110653
110609
110567
110530
111027
111003
110961
110906
110842
110773
110703
110635
110572
110520
111268
111231
111168
111086
110992
110894
110796
110702
110616
110541
111419
111364
111274
111160
111032
110901
110772
110651
110541
110450
111743
111669
111548
111399
111236
111072
110915
110770
110640
110528
111839
111740
111588
111405
111210
111018
110836
110671
110523
110402
112057
111939
111762
111554
111335
111123
110924
110746
110590
110458
110599
110598
110597
110595
110593
110591
110589
110587
110584
110582
110609
110608
110604
110600
110594
110588
110581
110575
110568
110561
110719
110714
110706
110695
110682
110668
110653
110637
110623
110612
110796
110787
110772
110751
110727
110699
110671
110642
110614
110589
110929
110914
110888
110853
110812
110767
110720
110674
110631
110595
111117
111095
111055
111002
110941
110874
110806
110740
110679
110624
111215
111181
111123
111048
110962
110871
110780
110692
110610
110543
111487
111441
111364
111266
111155
111040
110926
110818
110720
110634
111525
111465
111368
111246
111112
110974
110840
110716
110602
110507
111708
111636
111523
111384
111233
111080
110933
110798
110677
110574
110635
110634
110633
110633
110632
110630
110629
110628
110626
110626
110625
110624
110623
110620
110617
110613
110610
110606
110601
110597
110724
110721
110716
110710
110702
110693
110684
110674
110666
110661
110763
110758
110749
110736
110721
110704
110686
110667
110649
110632
110868
110859
110843
110821
110794
110765
110734
110704
110675
110651
111014
111000
110975
110941
110901
110857
110811
110766
110723
110684
111068
111047
111010
110961
110904
110842
110779
110717
110658
110610
111303
111275
111225
111161
111087
111007
110927
110850
110779
110714
111293
111256
111194
111114
111022
110927
110831
110740
110655
110584
111452
111408
111337
111245
111142
111036
110930
110832
110741
110662
110669
110669
110669
110668
110668
110667
110666
110666
110665
110665
110643
110642
110641
110640
110638
110636
110634
110631
110629
110625
110739
110737
110734
110730
110725
110720
110714
110708
110704
110702
110746
110743
110738
110730
110721
110710
110699
110687
110675
110664
110832
110826
110816
110802
110786
110767
110747
110727
110708
110693
110945
110936
110921
110899
110873
110844
110814
110784
110754
110727
110965
110951
110928
110896
110859
110817
110774
110732
110691
110657
111173
111156
111125
111083
111034
110981
110926
110872
110822
110775
111123
111099
111060
111007
110947
110881
110814
110750
110688
110637
111270
111242
111197
111138
111069
110997
110923
110853
110787
110730
110702
110702
110702
110702
110701
110701
110701
110700
110700
110700
110658
110658
110657
110656
110655
110654
110653
110651
110650
110647
110758
110757
110755
110753
110750
110747
110744
110740
110738
110738
110738
110736
110733
110728
110723
110716
110709
110702
110695
110687
110812
110809
110803
110794
110784
110772
110759
110747
110734
110725
110899
110894
110884
110871
110854
110836
110816
110796
110777
110758
110893
110884
110869