/*--------------------------------*- C++ -*----------------------------------*\
| =========                 |                                                 |
| \\      /  F ield         | foam-extend: Open Source CFD                    |
|  \\    /   O peration     | Version:     4.0                                |
|   \\  /    A nd           | Web:         http://www.foam-extend.org         |
|    \\/     M anipulation  |                                                 |
\*---------------------------------------------------------------------------*/
FoamFile
{
    version     2.0;
    format      ascii;
    class       surfaceScalarField;
    location    "1750";
    object      phi;
}
// * * * * * * * * * * * * * * * * * * * * * * * * * * * * * * * * * * * * * //

dimensions      [1 0 -1 0 0 0 0];

internalField   nonuniform List<scalar> 
97302
(
-0.000109786
9.53666e-07
-0.000869433
0.000878706
-0.0001196
1.14311e-06
-0.000870436
0.000879107
-0.000129522
1.20229e-06
-0.000870962
0.000879682
-0.000140123
1.14038e-06
-0.000871002
0.000880463
-0.00015223
9.48328e-07
-0.000870551
0.00088171
-0.000167323
6.16034e-07
-0.000869386
0.000883863
-0.000188494
1.17032e-07
-0.0008669
0.000887953
-0.000222746
-5.92972e-07
-0.000861275
0.00089612
-0.000271325
-1.6364e-06
-0.000851488
0.000901703
-4.39335e-06
-0.000823993
-0.000352996
0.000910058
-0.000150903
1.60752e-06
-0.00116589
0.00117598
-0.000161174
1.97e-06
-0.00116684
0.00117628
-0.000171518
2.08856e-06
-0.00116743
0.00117689
-0.000182473
1.99664e-06
-0.00116745
0.00117755
-0.000194833
1.67927e-06
-0.00116666
0.00117829
-0.000210313
1.1252e-06
-0.00116465
0.00117962
-0.000232765
2.76889e-07
-0.00116106
0.00118335
-0.000271567
-9.60807e-07
-0.00115427
0.00119344
-0.000328348
-2.89094e-06
-0.00114197
0.0012
-7.45383e-06
-0.00110408
-0.000432767
0.00121156
-0.000191211
1.90267e-06
-0.00146125
0.00147209
-0.000201781
2.39908e-06
-0.00146226
0.0014724
-0.000212299
2.5806e-06
-0.00146288
0.00147291
-0.000223275
2.50423e-06
-0.00146268
0.00147314
-0.000235635
2.15188e-06
-0.00146133
0.00147322
-0.000251511
1.51301e-06
-0.00145866
0.00147415
-0.000275387
5.08423e-07
-0.00145479
0.00147843
-0.000318356
-9.60265e-07
-0.00144821
0.00149118
-0.000381688
-3.34493e-06
-0.00143505
0.00149884
-9.12638e-06
-0.00138634
-0.000500686
0.00150701
-0.000231441
2.09336e-06
-0.00175262
0.00176388
-0.000242304
2.72939e-06
-0.00175385
0.00176438
-0.000253117
2.98964e-06
-0.00175473
0.00176513
-0.000264407
2.95417e-06
-0.00175473
0.00176557
-0.000277164
2.59423e-06
-0.00175355
0.00176586
-0.000293711
1.90107e-06
-0.00175112
0.00176728
-0.000318861
7.72399e-07
-0.00174756
0.00177245
-0.000364965
-8.83279e-07
-0.00174134
0.00178737
-0.000432984
-3.66969e-06
-0.00172773
0.00179607
-1.06186e-05
-0.00166788
-0.000560745
0.00179714
-0.000271573
2.32654e-06
-0.00204513
0.00205659
-0.000282605
3.03179e-06
-0.00204674
0.00205747
-0.000293587
3.32982e-06
-0.00204813
0.00205877
-0.000305071
3.31065e-06
-0.0020486
0.00205973
-0.000318117
2.94327e-06
-0.00204795
0.00206065
-0.000335166
2.21853e-06
-0.00204615
0.00206288
-0.000361321
1.01991e-06
-0.00204323
0.00206914
-0.000409961
-7.36378e-07
-0.0020377
0.00208619
-0.000481921
-3.80407e-06
-0.00202445
0.00209654
-1.18525e-05
-0.0019528
-0.000615154
0.00208727
-0.000312274
2.41195e-06
-0.00233626
0.00234801
-0.000323409
3.14271e-06
-0.00233832
0.00234934
-0.000334459
3.42864e-06
-0.00234009
0.00235105
-0.000346002
3.38186e-06
-0.00234098
0.00235246
-0.000359147
2.98023e-06
-0.00234086
0.00235397
-0.000376423
2.22349e-06
-0.00233981
0.00235708
-0.000403205
9.93773e-07
-0.00233782
0.00236463
-0.000453738
-7.75025e-07
-0.00233339
0.00238396
-0.000529002
-3.90233e-06
-0.00232165
0.00239701
-1.28227e-05
-0.0022379
-0.000665754
0.00237562
-0.000352797
2.39028e-06
-0.00262721
0.00263908
-0.000363875
3.02873e-06
-0.00262987
0.00264106
-0.000374848
3.24387e-06
-0.0026322
0.00264336
-0.0003863
3.11119e-06
-0.00263356
0.00264528
-0.000399394
2.63547e-06
-0.00263401
0.00264745
-0.00041669
1.80925e-06
-0.00263378
0.00265149
-0.000443809
5.6869e-07
-0.00263292
0.00266047
-0.000495683
-1.1017e-06
-0.0026301
0.0026823
-0.000573732
-3.85295e-06
-0.00262101
0.00269901
-1.29812e-05
-0.00252493
-0.000712487
0.00266384
-0.000394592
2.02965e-06
-0.00291873
0.00293103
-0.000405721
2.47883e-06
-0.00292198
0.00293366
-0.000416693
2.5076e-06
-0.00292444
0.00293614
-0.000428095
2.16907e-06
-0.00292574
0.00293808
-0.000441055
1.49928e-06
-0.00292609
0.00294018
-0.000458075
4.9619e-07
-0.00292602
0.00294435
-0.000484921
-8.12007e-07
-0.00292586
0.00295409
-0.000536985
-2.35444e-06
-0.00292448
0.00297779
-0.000616502
-4.14404e-06
-0.00291874
0.00299855
-1.21362e-05
-0.00281216
-0.000755655
0.00295047
-0.000435789
1.07065e-06
-0.00320662
0.00321905
-0.000446491
1.13806e-06
-0.00321072
0.00322277
-0.000457069
8.47294e-07
-0.00321379
0.00322603
-0.000468168
1.13937e-07
-0.00321571
0.00322886
-0.000480955
-9.45272e-07
-0.00321685
0.00323208
-0.000497819
-2.30519e-06
-0.00321778
0.00323745
-0.000524519
-3.78023e-06
-0.00321904
0.00324871
-0.00057631
-5.09528e-06
-0.00321995
0.00327448
-0.00065576
-5.50311e-06
-0.00321659
0.0032974
-1.0193e-05
-0.00309925
-0.000792402
0.00323395
-0.000477201
-0.00347519
0.00348821
-0.000488543
-0.0034788
0.00349128
-0.000499729
-0.00347951
0.00349154
-0.00051144
-0.00347696
0.00348878
-0.000524713
-0.00347181
0.00348414
-0.000541679
-0.00346512
0.00347978
-0.000567569
-0.00345805
0.00348016
-0.000616572
-0.00345212
0.00349603
-0.000689659
-0.00344851
0.0035161
-0.00333955
-0.000818654
0.00345835
1.4399e-05
8.91133e-07
-0.00086098
5.31669e-06
1.11589e-06
-0.00086247
-3.78672e-06
1.19668e-06
-0.000863056
-1.30949e-05
1.13906e-06
-0.000862833
-2.28072e-05
9.33121e-07
-0.000861772
-3.31417e-05
5.60514e-07
-0.000859612
-4.42457e-05
-1.28974e-08
-0.000855783
-5.55384e-05
-8.65889e-07
-0.000849116
-6.62362e-05
-2.19438e-06
-0.000838596
-3.96544e-06
-0.000822345
-6.3919e-05
1.54133e-05
1.51848e-06
-0.00115604
5.39566e-06
1.93496e-06
-0.00115764
-4.61181e-06
2.08869e-06
-0.00115831
-1.49265e-05
2.0095e-06
-0.00115801
-2.58136e-05
1.67552e-06
-0.00115652
-3.76357e-05
1.0645e-06
-0.00115334
-5.12294e-05
1.14708e-07
-0.00114759
-6.76384e-05
-1.28998e-06
-0.00113743
-8.82617e-05
-3.53666e-06
-0.00112
-6.60274e-06
-0.00109105
-9.86487e-05
1.67414e-05
1.83114e-06
-0.0014502
6.01131e-06
2.3954e-06
-0.00145199
-4.62631e-06
2.6189e-06
-0.00145277
-1.55034e-05
2.55665e-06
-0.00145235
-2.69577e-05
2.17558e-06
-0.00145037
-3.97229e-05
1.45207e-06
-0.00144629
-5.55448e-05
2.94221e-07
-0.00143914
-7.71523e-05
-1.41984e-06
-0.00142647
-0.000108633
-4.27495e-06
-0.00140283
-8.38701e-06
-0.0013593
-0.000133886
1.79567e-05
2.04063e-06
-0.00174087
6.7434e-06
2.76209e-06
-0.001743
-4.37911e-06
3.07302e-06
-0.00174406
-1.58064e-05
3.05695e-06
-0.0017438
-2.79939e-05
2.66646e-06
-0.00174185
-4.19337e-05
1.88002e-06
-0.00173761
-5.99361e-05
5.65037e-07
-0.00172983
-8.61239e-05
-1.39199e-06
-0.00171518
-0.000128048
-4.78422e-06
-0.0016853
-9.89496e-06
-0.00162542
-0.000168999
1.90702e-05
2.28741e-06
-0.002033
7.57103e-06
3.08742e-06
-0.00203557
-3.83146e-06
3.4422e-06
-0.00203709
-1.55938e-05
3.44843e-06
-0.00203723
-2.83095e-05
3.05461e-06
-0.00203562
-4.31562e-05
2.23864e-06
-0.00203166
-6.29098e-05
8.28867e-07
-0.00202374
-9.2989e-05
-1.27848e-06
-0.00200773
-0.000144884
-5.06527e-06
-0.00197227
-1.10524e-05
-0.00189514
-0.000201389
1.97731e-05
2.4055e-06
-0.0023237
8.09738e-06
3.24007e-06
-0.0023268
-3.43532e-06
3.59042e-06
-0.00232871
-1.534e-05
3.57936e-06
-0.00232921
-2.83302e-05
3.1624e-06
-0.00232798
-4.3747e-05
2.3273e-06
-0.00232448
-6.47948e-05
8.82533e-07
-0.00231683
-9.80603e-05
-1.26565e-06
-0.00230014
-0.000159347
-5.19834e-06
-0.00226023
-1.18718e-05
-0.00216563
-0.000230793
2.01843e-05
2.37556e-06
-0.00261438
8.532e-06
3.11624e-06
-0.00261809
-2.95004e-06
3.4011e-06
-0.00262053
-1.47935e-05
3.3169e-06
-0.00262145
-2.78417e-05
2.8586e-06
-0.00262066
-4.35461e-05
1.99676e-06
-0.00261774
-6.54896e-05
5.55986e-07
-0.00261065
-0.000101298
-1.55734e-06
-0.002594
-0.000171264
-5.23737e-06
-0.002551
-1.22393e-05
-0.00243903
-0.000256793
1.99253e-05
2.03893e-06
-0.00290548
8.2717e-06
2.59405e-06
-0.00290981
-3.10354e-06
2.72291e-06
-0.00291238
-1.47799e-05
2.4856e-06
-0.00291323
-2.7656e-05
1.91294e-06
-0.00291227
-4.32569e-05
9.71812e-07
-0.00290939
-6.54653e-05
-4.30115e-07
-0.00290266
-0.000102741
-2.40175e-06
-0.00288636
-0.000180107
-5.21482e-06
-0.0028414
-1.1893e-05
-0.0027132
-0.000279408
1.93934e-05
1.07629e-06
-0.00319309
8.21014e-06
1.22108e-06
-0.00319817
-2.6601e-06
1.06117e-06
-0.00320126
-1.3828e-05
4.76777e-07
-0.00320253
-2.63466e-05
-4.01177e-07
-0.00320201
-4.18517e-05
-1.58211e-06
-0.00319972
-6.443e-05
-3.00767e-06
-0.00319388
-0.000103031
-4.67229e-06
-0.00317908
-0.000186356
-6.14617e-06
-0.00313234
-1.00722e-05
-0.00298558
-0.000301849
1.82378e-05
-0.00346139
6.80305e-06
-0.00346614
-4.11633e-06
-0.00346753
-1.52089e-05
-0.00346539
-2.74147e-05
-0.00346
-4.2338e-05
-0.00345177
-6.38986e-05
-0.0034395
-0.00010128
-0.00341941
-0.000186004
-0.00336993
-0.00321563
-0.000319995
1.20283e-05
7.79887e-07
-0.000854312
4.42627e-06
1.02004e-06
-0.000855888
-3.29122e-06
1.10811e-06
-0.000856446
-1.10342e-05
1.0437e-06
-0.000856134
-1.86793e-05
8.20268e-07
-0.000854947
-2.59818e-05
4.22002e-07
-0.000852731
-3.23896e-05
-1.73106e-07
-0.000849202
-3.65989e-05
-1.00297e-06
-0.000843904
-3.67291e-05
-2.15137e-06
-0.000836314
-3.42974e-06
-0.00082667
-2.89747e-05
1.38814e-05
1.36682e-06
-0.00114753
4.85649e-06
1.80719e-06
-0.0011494
-4.22977e-06
1.97028e-06
-0.00115009
-1.34683e-05
1.87966e-06
-0.00114961
-2.28651e-05
1.51383e-06
-0.00114781
-3.22695e-05
8.48259e-07
-0.00114436
-4.12807e-05
-1.70497e-07
-0.00113858
-4.87468e-05
-1.6149e-06
-0.00112936
-5.22033e-05
-3.70007e-06
-0.001115
-6.1224e-06
-0.0010958
-4.47605e-05
1.59852e-05
1.71477e-06
-0.00144004
5.78365e-06
2.31011e-06
-0.00144229
-4.41254e-06
2.54365e-06
-0.00144315
-1.47988e-05
2.46343e-06
-0.00144254
-2.54705e-05
2.03149e-06
-0.00144022
-3.64908e-05
1.21262e-06
-0.00143563
-4.79737e-05
-8.80268e-08
-0.00142774
-5.94509e-05
-1.96816e-06
-0.00141464
-6.85122e-05
-4.83773e-06
-0.00139264
-8.35758e-06
-0.00136063
-6.49498e-05
1.76338e-05
1.97484e-06
-0.00172968
6.6436e-06
2.73846e-06
-0.00173244
-4.3382e-06
3.06153e-06
-0.00173359
-1.56225e-05
3.02288e-06
-0.00173308
-2.74551e-05
2.56841e-06
-0.00173056
-4.01658e-05
1.66046e-06
-0.00172535
-5.43156e-05
1.51052e-07
-0.00171592
-7.00963e-05
-2.08034e-06
-0.00169929
-8.57992e-05
-5.69616e-06
-0.00166873
-1.03244e-05
-0.00162102
-8.82355e-05
1.90376e-05
2.26682e-06
-0.00202112
7.53909e-06
3.11577e-06
-0.00202445
-3.9305e-06
3.4867e-06
-0.00202605
-1.579e-05
3.47156e-06
-0.00202582
-2.84645e-05
3.01138e-06
-0.00202339
-4.25363e-05
2.06425e-06
-0.00201799
-5.90184e-05
4.27065e-07
-0.00200754
-7.89003e-05
-2.04887e-06
-0.00198788
-0.000101932
-6.29124e-06
-0.00194865
-1.19589e-05
-0.00188332
-0.000112117
1.99744e-05
2.4339e-06
-0.00231122
8.13969e-06
3.3218e-06
-0.00231517
-3.61245e-06
3.6929e-06
-0.00231716
-1.57949e-05
3.6679e-06
-0.00231722
-2.89905e-05
3.19029e-06
-0.00231496
-4.40314e-05
2.2267e-06
-0.0023096
-6.24171e-05
5.43872e-07
-0.00229856
-8.60418e-05
-2.03025e-06
-0.00227653
-0.000116864
-6.62808e-06
-0.00222907
-1.31692e-05
-0.00214506
-0.000136225
2.05254e-05
2.42734e-06
-0.00260147
8.61069e-06
3.22125e-06
-0.00260607
-3.18345e-06
3.53278e-06
-0.00260858
-1.54156e-05
3.44799e-06
-0.002609
-2.8835e-05
2.95359e-06
-0.00260701
-4.44835e-05
2.00336e-06
-0.00260187
-6.43451e-05
3.61747e-07
-0.00259061
-9.125e-05
-2.19384e-06
-0.00256693
-0.000129968
-6.75753e-06
-0.00251216
-1.39398e-05
-0.00240896
-0.000159268
2.03485e-05
2.10197e-06
-0.00289208
8.40383e-06
2.70655e-06
-0.00289735
-3.30646e-06
2.87879e-06
-0.00290002
-1.5404e-05
2.68183e-06
-0.00290037
-2.87326e-05
2.13147e-06
-0.00289812
-4.45235e-05
1.18094e-06
-0.00289278
-6.52291e-05
-3.21718e-07
-0.00288127
-9.45749e-05
-2.6418e-06
-0.00285656
-0.000140675
-6.39618e-06
-0.00279566
-1.37315e-05
-0.00267352
-0.000180571
1.97339e-05
1.15312e-06
-0.00317938
8.24242e-06
1.33037e-06
-0.0031853
-2.96734e-06
1.25029e-06
-0.00318842
-1.45218e-05
7.75167e-07
-0.00318907
-2.74225e-05
2.85377e-08
-0.00318701
-4.31435e-05
-1.01065e-06
-0.00318181
-6.46425e-05
-2.33394e-06
-0.00317037
-9.64316e-05
-4.08762e-06
-0.00314584
-0.000148886
-6.36822e-06
-0.00307991
-1.15095e-05
-0.00293612
-0.00020057
1.85717e-05
-0.00344753
6.99808e-06
-0.00345324
-4.10347e-06
-0.00345518
-1.54431e-05
-0.00345327
-2.79128e-05
-0.0034475
-4.29967e-05
-0.0034377
-6.36931e-05
-0.00342114
-9.54027e-05
-0.00339179
-0.00015067
-0.00332104
-0.00316247
-0.000215339
9.33536e-06
6.11054e-07
-0.000849484
3.46561e-06
8.54687e-07
-0.000850873
-2.58547e-06
9.46846e-07
-0.000851342
-8.54459e-06
8.80822e-07
-0.000851056
-1.4105e-05
6.55211e-07
-0.000850042
-1.8844e-05
2.61129e-07
-0.000848253
-2.21193e-05
-3.08363e-07
-0.000845618
-2.28925e-05
-1.05546e-06
-0.000842075
-1.95809e-05
-1.97665e-06
-0.000837649
-2.86056e-06
-0.000832805
-1.05853e-05
1.17275e-05
1.12076e-06
-0.0011407
4.11002e-06
1.57136e-06
-0.0011425
-3.63634e-06
1.73964e-06
-0.00114314
-1.1374e-05
1.64156e-06
-0.00114263
-1.88868e-05
1.25994e-06
-0.0011409
-2.57858e-05
5.76783e-07
-0.00113777
-3.13115e-05
-4.39416e-07
-0.00113293
-3.39463e-05
-1.8108e-06
-0.00112597
-3.08515e-05
-3.59747e-06
-0.00111647
-5.41298e-06
-0.00110595
-1.81563e-05
1.4436e-05
1.4936e-06
-0.00143127
5.26001e-06
2.10535e-06
-0.00143365
-3.98287e-06
2.34175e-06
-0.00143451
-1.32932e-05
2.24099e-06
-0.00143383
-2.25645e-05
1.76679e-06
-0.00143146
-3.15021e-05
8.84465e-07
-0.001427
-3.94284e-05
-4.83425e-07
-0.00141977
-4.47337e-05
-2.38961e-06
-0.00140876
-4.34921e-05
-5.02826e-06
-0.00139245
-7.88574e-06
-0.00137294
-2.8712e-05
1.65221e-05
1.80618e-06
-0.00171958
6.22786e-06
2.59884e-06
-0.00172264
-4.12981e-06
2.9257e-06
-0.00172382
-1.46883e-05
2.85657e-06
-0.00172313
-2.54928e-05
2.33779e-06
-0.00172032
-3.64545e-05
1.3274e-06
-0.00171483
-4.7106e-05
-3.10645e-07
-0.00170544
-5.58633e-05
-2.66865e-06
-0.00169025
-5.78748e-05
-6.16885e-06
-0.00166558
-1.0164e-05
-0.00163373
-4.28876e-05
1.82717e-05
2.14915e-06
-0.00201004
7.19229e-06
3.03647e-06
-0.00201381
-3.91959e-06
3.41503e-06
-0.00201543
-1.53403e-05
3.36656e-06
-0.00201491
-2.73068e-05
2.8305e-06
-0.00201192
-3.99806e-05
1.75561e-06
-0.00200575
-5.31991e-05
-5.88577e-08
-0.00199457
-6.55956e-05
-2.75863e-06
-0.0019754
-7.19242e-05
-7.04468e-06
-0.00194144
-1.21819e-05
-0.00189459
-5.86299e-05
1.95033e-05
2.37643e-06
-0.0022993
7.87423e-06
3.30879e-06
-0.00230381
-3.72982e-06
3.69233e-06
-0.00230584
-1.57112e-05
3.64002e-06
-0.00230552
-2.84837e-05
3.08889e-06
-0.00230245
-4.24842e-05
1.99127e-06
-0.00229584
-5.79527e-05
1.02847e-07
-0.00228325
-7.39517e-05
-2.77431e-06
-0.00226052
-8.55215e-05
-7.59727e-06
-0.00221695
-1.37562e-05
-0.00215321
-7.58e-05
2.02589e-05
2.41395e-06
-0.00258891
8.39479e-06
3.25386e-06
-0.00259415
-3.3985e-06
3.58317e-06
-0.00259668
-1.56016e-05
3.48222e-06
-0.00259664
-2.88158e-05
2.92849e-06
-0.00259363
-4.3738e-05
1.86414e-06
-0.00258682
-6.10687e-05
2.94048e-08
-0.0025732
-8.04414e-05
-2.85899e-06
-0.00254747
-9.78632e-05
-7.84672e-06
-0.00249449
-1.48874e-05
-0.00241256
-9.31278e-05
2.02383e-05
2.11693e-06
-0.00287894
8.27183e-06
2.7642e-06
-0.00288489
-3.51236e-06
2.96656e-06
-0.00288762
-1.56799e-05
2.78875e-06
-0.00288751
-2.8945e-05
2.22869e-06
-0.00288415
-4.42533e-05
1.23161e-06
-0.00287684
-6.28323e-05
-3.95921e-07
-0.00286227
-8.50303e-05
-3.01496e-06
-0.00283421
-0.0001085
-7.32449e-06
-0.00277271
-1.48239e-05
-0.002672
-0.000110085
1.96894e-05
1.20206e-06
-0.00316581
8.11789e-06
1.40711e-06
-0.00317237
-3.22719e-06
1.39191e-06
-0.0031755
-1.49122e-05
1.00175e-06
-0.0031756
-2.779e-05
3.4848e-07
-0.00317225
-4.30397e-05
-6.04849e-07
-0.00316472
-6.25107e-05
-1.89232e-06
-0.0031494
-8.76615e-05
-3.74907e-06
-0.00311996
-0.000117043
-6.49272e-06
-0.00305136
-1.22122e-05
-0.00292913
-0.000126639
1.8602e-05
-0.00343387
7.06983e-06
-0.0034403
-4.05615e-06
-0.00344266
-1.54463e-05
-0.00344088
-2.78701e-05
-0.00343473
-4.25465e-05
-0.00342363
-6.14258e-05
-0.00340415
-8.7059e-05
-0.00336991
-0.000119672
-0.00329491
-0.00315496
-0.000139395
6.85029e-06
4.26066e-07
-0.000846141
2.57612e-06
6.56741e-07
-0.000847255
-1.89729e-06
7.47461e-07
-0.000847616
-6.2396e-06
6.85164e-07
-0.000847399
-1.01061e-05
4.73374e-07
-0.000846649
-1.30919e-05
1.1119e-07
-0.000845379
-1.47034e-05
-3.92969e-07
-0.000843614
-1.43365e-05
-1.01781e-06
-0.000841424
-1.13208e-05
-1.71766e-06
-0.000838947
-2.3263e-06
-0.000836433
-5.36585e-06
9.38907e-06
8.2634e-07
-0.0011355
3.29943e-06
1.26619e-06
-0.00113702
-2.96645e-06
1.43288e-06
-0.00113756
-9.12867e-06
1.33379e-06
-0.00113712
-1.48447e-05
9.57503e-07
-0.00113567
-1.9645e-05
2.97344e-07
-0.00113316
-2.2814e-05
-6.51764e-07
-0.0011295
-2.32481e-05
-1.86796e-06
-0.00112468
-1.92842e-05
-3.30822e-06
-0.00111884
-4.62768e-06
-0.00111316
-9.76734e-06
1.24572e-05
1.19373e-06
-0.0014241
4.59301e-06
1.80206e-06
-0.00142632
-3.40432e-06
2.035e-06
-0.00142711
-1.1352e-05
1.91869e-06
-0.00142647
-1.89749e-05
1.42215e-06
-0.0014243
-2.58008e-05
5.20831e-07
-0.0014204
-3.09536e-05
-8.31586e-07
-0.00141444
-3.28544e-05
-2.63736e-06
-0.00140609
-2.86156e-05
-4.91668e-06
-0.00139508
-7.13368e-06
-0.00138366
-1.53887e-05
1.48909e-05
1.5406e-06
-0.00171089
5.6404e-06
2.34619e-06
-0.00171393
-3.74942e-06
2.67137e-06
-0.00171507
-1.32123e-05
2.57389e-06
-0.00171433
-2.25841e-05
2.00506e-06
-0.00171153
-3.14994e-05
9.29389e-07
-0.00170632
-3.90658e-05
-7.55741e-07
-0.00169795
-4.33509e-05
-3.09244e-06
-0.00168551
-4.00334e-05
-6.26077e-06
-0.00166756
-9.52848e-06
-0.00164752
-2.38453e-05
1.69723e-05
1.92655e-06
-0.00200012
6.66749e-06
2.84014e-06
-0.002004
-3.74256e-06
3.2215e-06
-0.00200557
-1.43353e-05
3.13842e-06
-0.00200488
-2.51169e-05
2.53303e-06
-0.00200167
-3.59102e-05
1.35463e-06
-0.00199538
-4.59371e-05
-5.67635e-07
-0.00198473
-5.30661e-05
-3.33658e-06
-0.00196802
-5.16593e-05
-7.36644e-06
-0.00194174
-1.17605e-05
-0.00191038
-3.36402e-05
1.85146e-05
2.21434e-06
-0.00228832
7.43069e-06
3.18316e-06
-0.00229307
-3.70093e-06
3.57504e-06
-0.00229506
-1.51016e-05
3.49157e-06
-0.00229447
-2.69484e-05
2.86738e-06
-0.00229093
-3.93079e-05
1.64844e-06
-0.00228377
-5.16536e-05
-3.90741e-07
-0.00227108
-6.18673e-05
-3.42283e-06
-0.00225022
-6.33648e-05
-8.11218e-06
-0.0022147
-1.35779e-05
-0.00216975
-4.50069e-05
1.95073e-05
2.30909e-06
-0.00257709
8.0068e-06
3.19123e-06
-0.00258266
-3.4907e-06
3.53556e-06
-0.00258514
-1.53115e-05
3.41404e-06
-0.00258474
-2.78263e-05
2.79643e-06
-0.00258105
-4.13593e-05
1.61615e-06
-0.00257326
-5.57373e-05
-3.81772e-07
-0.00255884
-6.90312e-05
-3.47172e-06
-0.00253413
-7.42115e-05
-8.47813e-06
-0.00248894
-1.49423e-05
-0.00242856
-5.68532e-05
1.96895e-05
2.05146e-06
-0.00286639
7.98137e-06
2.74223e-06
-0.00287274
-3.61629e-06
2.97046e-06
-0.00287545
-1.55421e-05
2.80345e-06
-0.00287497
-2.82924e-05
2.22241e-06
-0.00287083
-4.24454e-05
1.16406e-06
-0.00286223
-5.83015e-05
-5.8359e-07
-0.00284621
-7.43849e-05
-3.40264e-06
-0.00281819
-8.38648e-05
-7.90443e-06
-0.0027638
-1.50007e-05
-0.00268676
-6.90416e-05
1.92659e-05
1.20204e-06
-0.00315272
7.86569e-06
1.43566e-06
-0.00315966
-3.3851e-06
1.47733e-06
-0.00316276
-1.49339e-05
1.1562e-06
-0.0031624
-2.74249e-05
5.73156e-07
-0.00315811
-4.16429e-05
-3.24573e-07
-0.00314902
-5.83857e-05
-1.60388e-06
-0.00313164
-7.72814e-05
-3.53534e-06
-0.00310093
-9.15525e-05
-6.47223e-06
-0.00303852
-1.20743e-05
-0.00294213
-8.14767e-05
1.82875e-05
-0.00342069
7.00063e-06
-0.00342758
-3.96476e-06
-0.00343022
-1.51857e-05
-0.0034285
-2.72561e-05
-0.00342209
-4.10461e-05
-0.00341016
-5.75004e-05
-0.0033893
-7.70847e-05
-0.00335386
-9.41441e-05
-0.00328433
-0.00317033
-9.08459e-05
4.81714e-06
2.53075e-07
-0.000843884
1.84346e-06
4.57831e-07
-0.000844739
-1.31369e-06
5.42201e-07
-0.000845001
-4.34534e-06
4.87691e-07
-0.000844855
-6.94485e-06
3.01703e-07
-0.000844351
-8.78955e-06
-1.07652e-08
-0.000843523
-9.55025e-06
-4.31421e-07
-0.000842422
-8.9124e-06
-9.28297e-07
-0.000841134
-6.64671e-06
-1.44501e-06
-0.000839768
-1.86378e-06
-0.000838369
-2.84703e-06
7.17057e-06
5.24993e-07
-0.00113167
2.52067e-06
9.33394e-07
-0.00113285
-2.32117e-06
1.0914e-06
-0.00113326
-7.02358e-06
9.98172e-07
-0.00113293
-1.12139e-05
6.47882e-07
-0.00113183
-1.44507e-05
4.50275e-08
-0.00112998
-1.61746e-05
-7.93853e-07
-0.00112741
-1.57051e-05
-1.82043e-06
-0.00112426
-1.22605e-05
-2.94637e-06
-0.00112079
-3.90328e-06
-0.00111773
-5.65392e-06
1.03351e-05
8.54178e-07
-0.00141847
3.87004e-06
1.43548e-06
-0.00142036
-2.77328e-06
1.65762e-06
-0.00142104
-9.2898e-06
1.53413e-06
-0.00142049
-1.53058e-05
1.0409e-06
-0.00141868
-2.0301e-05
1.67812e-07
-0.00141552
-2.34782e-05
-1.09725e-06
-0.00141096
-2.36623e-05
-2.71474e-06
-0.00140501
-1.91478e-05
-4.6055e-06
-0.00139793
-6.30679e-06
-0.00139131
-9.09224e-06
1.29532e-05
1.20661e-06
-0.00170373
4.94926e-06
2.00288e-06
-0.0017065
-3.25938e-06
2.31971e-06
-0.00170752
-1.1433e-05
2.20138e-06
-0.00170682
-1.92445e-05
1.60739e-06
-0.00170429
-2.61791e-05
5.16168e-07
-0.00169974
-3.12776e-05
-1.13078e-06
-0.00169282
-3.28868e-05
-3.32247e-06
-0.00168329
-2.80245e-05
-6.06533e-06
-0.00167096
-8.67743e-06
-0.00165863
-1.4547e-05
1.52821e-05
1.61686e-06
-0.00199157
6.01608e-06
2.53744e-06
-0.00199527
-3.42753e-06
2.91547e-06
-0.00199672
-1.29292e-05
2.80271e-06
-0.00199598
-2.22848e-05
2.1481e-06
-0.00199285
-3.10764e-05
9.10538e-07
-0.00198698
-3.82902e-05
-1.03321e-06
-0.00197762
-4.18746e-05
-3.72618e-06
-0.00196404
-3.73971e-05
-7.33596e-06
-0.00194495
-1.09761e-05
-0.0019246
-2.08745e-05
1.70987e-05
1.95513e-06
-0.00227857
6.84813e-06
2.9456e-06
-0.00228323
-3.52858e-06
3.34054e-06
-0.00228511
-1.40521e-05
3.22765e-06
-0.00228437
-2.46603e-05
2.54398e-06
-0.00228072
-3.51071e-05
1.23866e-06
-0.00227365
-4.44617e-05
-8.71485e-07
-0.00226189
-5.04379e-05
-3.90374e-06
-0.00224406
-4.72108e-05
-8.2289e-06
-0.00221704
-1.28988e-05
-0.00218652
-2.85176e-05
1.83225e-05
2.11228e-06
-0.00256632
7.47613e-06
3.02735e-06
-0.0025719
-3.44594e-06
3.38301e-06
-0.00257426
-1.45806e-05
3.2412e-06
-0.00257362
-2.60466e-05
2.56796e-06
-0.0025696
-3.78114e-05
1.29563e-06
-0.00256155
-4.91433e-05
-8.01224e-07
-0.00254757
-5.76819e-05
-3.94388e-06
-0.00252555
-5.6441e-05
-8.68103e-06
-0.00248973
-1.43422e-05
-0.00244707
-3.64843e-05
1.87271e-05
1.90006e-06
-0.00285474
7.55167e-06
2.63117e-06
-0.00286116
-3.59766e-06
2.8807e-06
-0.0028638
-1.49915e-05
2.71928e-06
-0.00286305
-2.68783e-05
2.11504e-06
-0.00285849
-3.9452e-05
1.00307e-06
-0.00284936
-5.23211e-05
-8.21609e-07
-0.00283332
-6.3334e-05
-3.70445e-06
-0.00280742
-6.48566e-05
-8.09189e-06
-0.00276287
-1.44284e-05
-0.00270656
-4.49735e-05
1.84611e-05
1.14627e-06
-0.00314043
7.48834e-06
1.4069e-06
-0.00314747
-3.42555e-06
1.49691e-06
-0.00315046
-1.45673e-05
1.23024e-06
-0.00314977
-2.63473e-05
6.98616e-07
-0.00314492
-3.91509e-05
-1.61904e-07
-0.00313505
-5.29304e-05
-1.43562e-06
-0.00311725
-6.62956e-05
-3.37593e-06
-0.00308789
-7.1254e-05
-6.28585e-06
-0.00303537
-1.12842e-05
-0.00296293
-5.36076e-05
1.76202e-05
-0.0034083
6.79017e-06
-0.00341534
-3.81393e-06
-0.00341811
-1.46357e-05
-0.00341645
-2.60641e-05
-0.00340996
-3.86007e-05
-0.00339779
-5.23851e-05
-0.00337695
-6.65596e-05
-0.00334306
-7.36897e-05
-0.00328348
-0.00319573
-5.95726e-05
3.2914e-06
1.09112e-07
-0.000842362
1.28856e-06
2.80929e-07
-0.000843018
-8.65915e-07
3.55783e-07
-0.000843202
-2.91965e-06
3.11113e-07
-0.000843112
-4.63215e-06
1.56949e-07
-0.000842796
-5.77029e-06
-9.86792e-08
-0.000842287
-6.12982e-06
-4.33185e-07
-0.000841629
-5.55943e-06
-8.1328e-07
-0.000840891
-4.0118e-06
-1.18696e-06
-0.000840129
-1.47354e-06
-0.000839261
-1.64624e-06
5.24984e-06
2.48635e-07
-0.00112891
1.83207e-06
6.09995e-07
-0.00112976
-1.76638e-06
7.53483e-07
-0.00113006
-5.2288e-06
6.71467e-07
-0.00112982
-8.21439e-06
3.62595e-07
-0.00112905
-1.03598e-05
-1.60334e-07
-0.00112777
-1.12717e-05
-8.67242e-07
-0.00112607
-1.05674e-05
-1.69847e-06
-0.00112408
-7.9475e-06
-2.55737e-06
-0.00112204
-3.24873e-06
-0.00112036
-3.53818e-06
8.28526e-06
5.12536e-07
-0.00141417
3.15649e-06
1.04426e-06
-0.00141566
-2.16737e-06
1.24822e-06
-0.00141621
-7.33134e-06
1.1263e-06
-0.00141578
-1.19348e-05
6.61068e-07
-0.00141437
-1.54913e-05
-1.43599e-07
-0.00141199
-1.73726e-05
-1.27177e-06
-0.00140867
-1.68206e-05
-2.65544e-06
-0.00140461
-1.29828e-05
-4.17152e-06
-0.00140016
-5.46405e-06
-0.0013963
-5.77773e-06
1.08997e-05
8.39422e-07
-0.00169801
4.20986e-06
1.60099e-06
-0.00170036
-2.72757e-06
1.90163e-06
-0.00170124
-9.56004e-06
1.77227e-06
-0.00170063
-1.58678e-05
1.18209e-06
-0.0016985
-2.10931e-05
1.26275e-07
-0.00169478
-2.43868e-05
-1.41029e-06
-0.00168939
-2.45453e-05
-3.37171e-06
-0.00168242
-1.98143e-05
-5.66012e-06
-0.0016742
-7.71607e-06
-0.00166665
-9.54116e-06
1.33475e-05
1.2488e-06
-0.00198444
5.28015e-06
2.15112e-06
-0.00198775
-3.0229e-06
2.51784e-06
-0.00198903
-1.12863e-05
2.38406e-06
-0.00198833
-1.91541e-05
1.70843e-06
-0.00198551
-2.60779e-05
4.65731e-07
-0.0019804
-3.10445e-05
-1.4138e-06
-0.00197265
-3.24039e-05
-3.91283e-06
-0.00196214
-2.72124e-05
-7.02139e-06
-0.00194878
-9.9737e-06
-0.00193574
-1.38207e-05
1.53583e-05
1.61906e-06
-0.00227017
6.15679e-06
2.60909e-06
-0.00227448
-3.24218e-06
2.99965e-06
-0.00227619
-1.26782e-05
2.86315e-06
-0.00227541
-2.18928e-05
2.1433e-06
-0.00227194
-3.04259e-05
8.01037e-07
-0.00226545
-3.72101e-05
-1.29105e-06
-0.00225523
-4.02406e-05
-4.18298e-06
-0.00224076
-3.52481e-05
-8.00408e-06
-0.00222105
-1.18859e-05
-0.0022007
-1.91551e-05
1.67703e-05
1.83526e-06
-0.00255681
6.82284e-06
2.76663e-06
-0.00256211
-3.27849e-06
3.12764e-06
-0.00256429
-1.34817e-05
2.96899e-06
-0.00256352
-2.36795e-05
2.25746e-06
-0.00255952
-3.3559e-05
9.33227e-07
-0.0025518
-4.21009e-05
-1.18165e-06
-0.00253914
-4.70651e-05
-4.23016e-06
-0.00252054
-4.28668e-05
-8.50086e-06
-0.00249343
-1.32719e-05
-0.00246399
-2.45654e-05
1.73902e-05
1.66792e-06
-0.00284424
6.99469e-06
2.42985e-06
-0.00285043
-3.46187e-06
2.69445e-06
-0.00285291
-1.40694e-05
2.53594e-06
-0.00285201
-2.48411e-05
1.91373e-06
-0.00284737
-3.56437e-05
7.69063e-07
-0.0028384
-4.56491e-05
-1.07506e-06
-0.00282342
-5.26107e-05
-3.88425e-06
-0.00280081
-4.99845e-05
-7.91155e-06
-0.00276609
-1.32778e-05
-0.00272605
-3.04898e-05
1.72941e-05
1.03474e-06
-0.0031292
6.98972e-06
1.31709e-06
-0.00313605
-3.35067e-06
1.44626e-06
-0.00313887
-1.38341e-05
1.22163e-06
-0.00313797
-2.46419e-05
7.28462e-07
-0.00313292
-3.58109e-05
-1.01753e-07
-0.00312301
-4.67323e-05
-1.35647e-06
-0.00310604
-5.55439e-05
-3.23652e-06
-0.00307973
-5.51102e-05
-5.95227e-06
-0.00303776
-1.01037e-05
-0.00298508
-3.61334e-05
1.66115e-05
-0.00339697
6.44238e-06
-0.00340385
-3.59913e-06
-0.00340663
-1.38011e-05
-0.00340503
-2.43436e-05
-0.00339869
-3.53904e-05
-0.00338684
-4.65226e-05
-0.00336718
-5.61742e-05
-0.00333665
-5.73698e-05
-0.00328824
-0.00322352
-3.9683e-05
2.21209e-06
5.05726e-10
-0.000841322
8.93824e-07
1.38389e-07
-0.000841838
-5.42676e-07
2.02617e-07
-0.000841969
-1.90594e-06
1.68019e-07
-0.000841917
-3.0207e-06
4.62265e-08
-0.000841727
-3.72688e-06
-1.54079e-07
-0.000841426
-3.90062e-06
-4.10236e-07
-0.000841045
-3.47124e-06
-6.92716e-07
-0.000840628
-2.44962e-06
-9.59064e-07
-0.000840191
-1.1546e-06
-0.000839587
-9.69656e-07
3.69455e-06
1.65857e-08
-0.00112693
1.26135e-06
3.22865e-07
-0.00112751
-1.32561e-06
4.48335e-07
-0.00112772
-3.79894e-06
3.8053e-07
-0.00112756
-5.87753e-06
1.21184e-07
-0.00112704
-7.285e-06
-3.12472e-07
-0.00112621
-7.75959e-06
-8.84742e-07
-0.00112512
-7.09788e-06
-1.53549e-06
-0.0011239
-5.21364e-06
-2.17714e-06
-0.0011227
-2.67105e-06
-0.00112177
-2.29108e-06
6.44948e-06
1.98439e-07
-0.00141094
2.50246e-06
6.63332e-07
-0.00141205
-1.63084e-06
8.43074e-07
-0.00141247
-5.60351e-06
7.29886e-07
-0.00141216
-9.04098e-06
3.11623e-07
-0.00141112
-1.1531e-05
-3.97568e-07
-0.00140941
-1.26144e-05
-1.36325e-06
-0.00140711
-1.1835e-05
-2.50448e-06
-0.00140442
-8.82537e-06
-3.68873e-06
-0.00140165
-4.65511e-06
-0.0013994
-3.74699e-06
8.89198e-06
4.73167e-07
-0.00169358
3.47483e-06
1.17601e-06
-0.00169546
-2.20567e-06
1.45269e-06
-0.00169616
-7.74861e-06
1.32208e-06
-0.00169568
-1.2709e-05
7.62816e-07
-0.00169399
-1.65596e-05
-2.14311e-07
-0.00169111
-1.86202e-05
-1.59043e-06
-0.0016871
-1.80871e-05
-3.2793e-06
-0.00168218
-1.40464e-05
-5.1329e-06
-0.0016768
-6.71952e-06
-0.00167218
-6.45183e-06
1.1318e-05
8.5493e-07
-0.00197868
4.50692e-06
1.71152e-06
-0.00198147
-2.57468e-06
2.05801e-06
-0.00198255
-9.55341e-06
1.9135e-06
-0.00198194
-1.59916e-05
1.24742e-06
-0.00197956
-2.13062e-05
5.26871e-08
-0.00197535
-2.46077e-05
-1.69175e-06
-0.00196924
-2.46904e-05
-3.91921e-06
-0.00196141
-1.98176e-05
-6.50966e-06
-0.00195228
-8.851e-06
-0.00194397
-9.45599e-06
1.34172e-05
1.23374e-06
-0.00226316
5.39556e-06
2.19636e-06
-0.00226695
-2.87676e-06
2.57347e-06
-0.00226843
-1.11021e-05
2.42177e-06
-0.0022677
-1.88902e-05
1.69451e-06
-0.0022646
-2.56722e-05
3.69735e-07
-0.00225899
-3.04214e-05
-1.62224e-06
-0.00225055
-3.15558e-05
-4.26745e-06
-0.00223928
-2.6308e-05
-7.52194e-06
-0.00222528
-1.06633e-05
-0.00221186
-1.33374e-05
1.49453e-05
1.49794e-06
-0.00254867
6.07657e-06
2.42282e-06
-0.00255347
-3.01226e-06
2.78107e-06
-0.0025554
-1.2108e-05
2.61152e-06
-0.00255462
-2.09304e-05
1.88539e-06
-0.00255089
-2.89885e-05
5.578e-07
-0.00254393
-3.51908e-05
-1.494e-06
-0.00253307
-3.76466e-05
-4.32902e-06
-0.00251802
-3.24383e-05
-8.02623e-06
-0.00249813
-1.19043e-05
-0.00247811
-1.70755e-05
1.57497e-05
1.36793e-06
-0.00283502
6.33275e-06
2.14502e-06
-0.00284074
-3.22412e-06
2.41687e-06
-0.00284299
-1.28433e-05
2.2612e-06
-0.00284204
-2.23431e-05
1.63302e-06
-0.00283762
-3.13569e-05
4.86495e-07
-0.00282931
-3.88618e-05
-1.31494e-06
-0.0028161
-4.28068e-05
-3.94193e-06
-0.00279725
-3.83352e-05
-7.46558e-06
-0.00277112
-1.17938e-05
-0.00274318
-2.13077e-05
1.58144e-05
8.7306e-07
-0.00311924
6.38433e-06