/*--------------------------------*- C++ -*----------------------------------*\
| =========                 |                                                 |
| \\      /  F ield         | foam-extend: Open Source CFD                    |
|  \\    /   O peration     | Version:     4.0                                |
|   \\  /    A nd           | Web:         http://www.foam-extend.org         |
|    \\/     M anipulation  |                                                 |
\*---------------------------------------------------------------------------*/
FoamFile
{
    version     2.0;
    format      ascii;
    class       volScalarField;
    location    "1750";
    object      rho;
}
// * * * * * * * * * * * * * * * * * * * * * * * * * * * * * * * * * * * * * //

dimensions      [1 -3 0 0 0 0 0];

internalField   nonuniform List<scalar> 
34480
(
1.34607
1.34536
1.34526
1.34571
1.34693
1.34924
1.35345
1.36155
1.37225
1.37673
1.34698
1.34632
1.34627
1.34673
1.34789
1.35008
1.35419
1.36234
1.3742
1.37607
1.34575
1.3451
1.34511
1.3455
1.3465
1.3484
1.35222
1.36001
1.37226
1.36888
1.34462
1.34405
1.3441
1.34447
1.34535
1.34695
1.35036
1.35743
1.36945
1.36052
1.34351
1.34293
1.34302
1.34333
1.34409
1.3454
1.34842
1.35472
1.36624
1.35221
1.34338
1.34291
1.34303
1.34337
1.34406
1.34514
1.34778
1.35329
1.36399
1.34517
1.34207
1.34156
1.34171
1.34201
1.34265
1.34358
1.34591
1.35074
1.36046
1.33768
1.34281
1.34248
1.34274
1.34327
1.34414
1.34528
1.3476
1.35193
1.3604
1.33371
1.34128
1.34098
1.34126
1.34182
1.34283
1.34422
1.34664
1.35065
1.35756
1.32781
1.33851
1.33843
1.33925
1.34075
1.34298
1.34595
1.35001
1.35553
1.3626
1.32899
1.35295
1.35185
1.35146
1.3517
1.35265
1.35447
1.35738
1.36171
1.36855
1.37748
1.35353
1.35229
1.35186
1.35211
1.35313
1.35513
1.35854
1.36424
1.37451
1.38933
1.35201
1.35069
1.35025
1.35041
1.35133
1.35322
1.35674
1.36314
1.37612
1.3952
1.35067
1.34929
1.34878
1.34884
1.34963
1.35132
1.35467
1.36108
1.37567
1.39764
1.34945
1.34795
1.34737
1.34728
1.3479
1.34929
1.35233
1.35838
1.37383
1.39756
1.34922
1.34771
1.34707
1.34688
1.34735
1.34845
1.3511
1.35654
1.3722
1.39645
1.34787
1.34625
1.34554
1.34523
1.34553
1.34636
1.34864
1.35341
1.3688
1.39296
1.34858
1.34702
1.34631
1.34608
1.34646
1.34732
1.34944
1.35361
1.36816
1.39131
1.34708
1.3455
1.34474
1.34445
1.34476
1.34562
1.34764
1.35143
1.36457
1.38715
1.3444
1.3429
1.34249
1.34286
1.34401
1.34592
1.34898
1.35368
1.36635
1.38765
1.3577
1.35677
1.35646
1.35671
1.35761
1.35921
1.36162
1.36491
1.36905
1.37356
1.35823
1.35706
1.35669
1.35701
1.35812
1.36014
1.36326
1.36778
1.37443
1.38232
1.35657
1.35526
1.35487
1.35519
1.35637
1.35855
1.3621
1.36765
1.37697
1.38865
1.35499
1.35358
1.35313
1.3534
1.35456
1.35677
1.36056
1.36672
1.37814
1.39327
1.35356
1.35202
1.35151
1.35166
1.35273
1.35484
1.35864
1.36503
1.37806
1.39621
1.35307
1.35151
1.35094
1.35101
1.35198
1.35393
1.35764
1.36395
1.3781
1.39857
1.35152
1.34985
1.34922
1.34918
1.35003
1.35179
1.35531
1.36142
1.37625
1.3986
1.35205
1.35043
1.3498
1.34981
1.35068
1.35244
1.3559
1.36177
1.37667
1.40007
1.35049
1.34884
1.34815
1.34808
1.34883
1.35047
1.3538
1.35957
1.3739
1.39836
1.34779
1.34619
1.34572
1.3461
1.3474
1.3497
1.35364
1.36
1.37411
1.39887
1.36099
1.36031
1.36008
1.36027
1.36094
1.36207
1.36366
1.36562
1.36776
1.36959
1.36182
1.36082
1.36049
1.36077
1.36171
1.36334
1.36573
1.36886
1.37276
1.3765
1.36038
1.35915
1.35878
1.35909
1.36019
1.36215
1.36516
1.36938
1.37551
1.382
1.35881
1.35743
1.35698
1.35727
1.35845
1.36062
1.36412
1.36929
1.37763
1.38711
1.35737
1.35581
1.35529
1.35551
1.35667
1.35891
1.3627
1.36851
1.37879
1.39129
1.35677
1.35515
1.35457
1.35473
1.35584
1.35806
1.36199
1.36818
1.38011
1.39538
1.35513
1.35338
1.35274
1.35281
1.35384
1.35597
1.35992
1.3663
1.37953
1.39742
1.35554
1.35382
1.35316
1.35326
1.35433
1.35647
1.36048
1.36695
1.38096
1.40093
1.3539
1.35215
1.35145
1.35149
1.35247
1.35452
1.35844
1.36504
1.37917
1.40122
1.35118
1.34946
1.34891
1.34927
1.35064
1.35313
1.35745
1.36448
1.37861
1.40217
1.36326
1.36283
1.36267
1.36281
1.36326
1.364
1.365
1.36616
1.36732
1.36822
1.36443
1.36367
1.36341
1.36363
1.36435
1.36557
1.36726
1.36933
1.37162
1.3736
1.36336
1.36232
1.362
1.36227
1.3632
1.36482
1.36716
1.3702
1.37397
1.37753
1.36195
1.3607
1.36028
1.36057
1.36165
1.36359
1.36655
1.37057
1.37611
1.38172
1.36063
1.35916
1.35868
1.35892
1.36007
1.36219
1.3656
1.37044
1.37775
1.38565
1.36002
1.35845
1.35789
1.35811
1.35927
1.3615
1.36523
1.3707
1.37969
1.38991
1.35837
1.35665
1.35603
1.35618
1.35732
1.35956
1.36348
1.36942
1.37991
1.39253
1.35872
1.357
1.35635
1.35653
1.35771
1.36002
1.36411
1.37041
1.38204
1.39681
1.35705
1.35528
1.3546
1.35474
1.35587
1.35815
1.36228
1.36889
1.38113
1.39819
1.35434
1.3526
1.35201
1.35236
1.35375
1.35634
1.36075
1.36774
1.38023
1.39918
1.36486
1.36461
1.36452
1.3646
1.36489
1.36534
1.36593
1.36658
1.36718
1.36758
1.36631
1.36576
1.36557
1.36573
1.36624
1.36708
1.3682
1.36951
1.37084
1.3719
1.36565
1.36482
1.36456
1.36477
1.36551
1.36674
1.36847
1.37057
1.3729
1.37488
1.36446
1.3634
1.36304
1.36329
1.36421
1.36582
1.36816
1.37115
1.37477
1.37809
1.36335
1.36204
1.36161
1.36185
1.36289
1.36477
1.36763
1.37145
1.37648
1.38139
1.36282
1.36137
1.36085
1.36109
1.3622
1.36428
1.36757
1.37212
1.37859
1.38526
1.36123
1.35961
1.35903
1.35922
1.36036
1.36254
1.36614
1.37131
1.37918
1.38777
1.36158
1.35993
1.35931
1.35953
1.36073
1.36304
1.3669
1.37257
1.38166
1.39213
1.35991
1.35819
1.35755
1.35774
1.35893
1.36126
1.36525
1.37136
1.38131
1.39391
1.35726
1.35555
1.35496
1.3553
1.35666
1.35921
1.36342
1.36989
1.38026
1.39458
1.36603
1.3659
1.36585
1.36591
1.36608
1.36634
1.36668
1.36704
1.36736
1.36753
1.36764
1.36728
1.36715
1.36726
1.3676
1.36815
1.36886
1.36966
1.37043
1.37102
1.36737
1.36675
1.36654
1.36671
1.36725
1.36814
1.36935
1.37075
1.37221
1.37337
1.36641
1.36556
1.36526
1.36547
1.3662
1.36746
1.36922
1.37137
1.37374
1.37576
1.36555
1.36445
1.36407
1.36429
1.36518
1.36674
1.36902
1.37192
1.37535
1.37845
1.36515
1.36388
1.36342
1.36365
1.36465
1.36646
1.36921
1.37282
1.37741
1.38176
1.36367
1.36221
1.36169
1.36189
1.36296
1.36495
1.36807
1.37234
1.3781
1.3839
1.36407
1.36255
1.36198
1.36222
1.36338
1.36553
1.36897
1.37381
1.38067
1.38795
1.36243
1.36082
1.36023
1.36045
1.36162
1.36385
1.36748
1.37279
1.38054
1.38959
1.35988
1.35827
1.3577
1.35802
1.35932
1.36171
1.36554
1.37119
1.3794
1.38977
1.36693
1.36688
1.36686
1.36689
1.36699
1.36714
1.36733
1.36753
1.36769
1.36775
1.36861
1.36838
1.36829
1.36836
1.36858
1.36893
1.36937
1.36984
1.37028
1.37061
1.36865
1.36821
1.36806
1.36817
1.36855
1.36917
1.36998
1.37089
1.37179
1.37247
1.3679
1.36724
1.36701
1.36717
1.36773
1.36866
1.36993
1.37142
1.37297
1.37422
1.36729
1.3664
1.3661
1.36628
1.36699
1.36823
1.36996
1.37208
1.37441
1.37639
1.36704
1.36598
1.36558
1.36579
1.36664
1.36814
1.37033
1.37309
1.37631
1.37917
1.3657
1.36443
1.36398
1.36418
1.36513
1.36684
1.36942
1.37281
1.37695
1.38088
1.36619
1.36485
1.36435
1.36458
1.36563
1.36753
1.37046
1.37439
1.37946
1.38449
1.36459
1.36315
1.36261
1.36284
1.36393
1.36594
1.36909
1.37349
1.37932
1.38566
1.36219
1.36073
1.3602
1.3605
1.36168
1.36382
1.36716
1.37186
1.37814
1.38543
1.36767
1.36767
1.36766
1.36768
1.36773
1.36782
1.36792
1.36803
1.36811
1.36811
1.36932
1.36918
1.36913
1.36917
1.3693
1.36952
1.36978
1.37006
1.37031
1.3705
1.36961
1.36931
1.36921
1.36928
1.36954
1.36995
1.37048
1.37105
1.3716
1.372
1.369
1.36853
1.36835
1.36847
1.36887
1.36954
1.37042
1.37143
1.37242
1.3732
1.36864
1.36795
1.36771
1.36785
1.36841
1.36934
1.37061
1.37211
1.37366
1.37493
1.36853
1.36768
1.36736
1.36753
1.36822
1.36941
1.37109
1.37312
1.37534
1.37723
1.36733
1.36628
1.3659
1.36608
1.36688
1.36829
1.37034
1.37292
1.37586
1.37851
1.36794
1.36681
1.36638
1.36659
1.3675
1.36911
1.37149
1.37457
1.37823
1.38166
1.36639
1.36514
1.36468
1.36489
1.36586
1.3676
1.37021
1.3737
1.37798
1.38232
1.36418
1.36291
1.36244
1.3627
1.36373
1.36558
1.36837
1.37213
1.37679
1.3818
1.3683
1.36832
1.36833
1.36833
1.36837
1.36841
1.36847
1.36853
1.36857
1.36854
1.36986
1.36978
1.36975
1.36977
1.36985
1.36998
1.37014
1.3703
1.37045
1.37055
1.37035
1.37014
1.37007
1.37012
1.37029
1.37056
1.37089
1.37125
1.37157
1.3718
1.36982
1.36948
1.36936
1.36944
1.36972
1.37018
1.37078
1.37144
1.37208
1.37256
1.36967
1.36915
1.36897
1.36908
1.36949
1.37017
1.37107
1.37211
1.37313
1.37393
1.36968
1.36902
1.36877
1.36891
1.36945
1.37036
1.3716
1.37305
1.37456
1.37578
1.36862
1.36777
1.36747
1.36762
1.36826
1.36938
1.37095
1.37285
1.37489
1.37666
1.36936
1.36844
1.36809
1.36827
1.36902
1.37033
1.3722
1.37451
1.37711
1.37941
1.36785
1.3668
1.36642
1.36661
1.36742
1.36886
1.37095
1.37363
1.37669
1.37961
1.36587
1.36479
1.36439
1.36462
1.36548
1.36702
1.36926
1.37216
1.37553
1.37892
1.36886
1.3689
1.3689
1.36891
1.36893
1.36895
1.36898
1.36901
1.36903
1.36899
1.37028
1.37023
1.37021
1.37023
1.37028
1.37035
1.37044
1.37054
1.37062
1.37068
1.37092
1.37078
1.37074
1.37077
1.37088
1.37104
1.37125
1.37147
1.37166
1.37179
1.37042
1.37019
1.3701
1.37015
1.37035
1.37066
1.37105
1.37148
1.37188
1.37218
1.37044
1.37007
1.36994
1.37002
1.37031
1.37079
1.37141
1.37211
1.37277
1.37327
1.37055
1.37006
1.36988
1.36998
1.37038
1.37105
1.37194
1.37295
1.37396
1.37475
1.36961
1.36895
1.36871
1.36883
1.36933
1.37018
1.37134
1.37271
1.3741
1.37526
1.37049
1.36977
1.36949
1.36964
1.37023
1.37125
1.37267
1.37436
1.37616
1.37767
1.369
1.36815
1.36785
1.368
1.36866
1.3698
1.37141
1.3734
1.37555
1.37749
1.36727
1.3664
1.36607
1.36625
1.36696
1.36818
1.36992
1.37208
1.37446
1.37672
1.36937
1.36941
1.36942
1.36942
1.36944
1.36945
1.36946
1.36948
1.36948
1.36943
1.37061
1.37058
1.37057
1.37058
1.37061
1.37065
1.37071
1.37077
1.37081
1.37085
1.37137
1.37129
1.37126
1.37128
1.37135
1.37145
1.37158
1.3717
1.37182
1.37189
1.37086
1.3707
1.37064
1.37068
1.3708
1.371
1.37126
1.37153
1.37178
1.37197
1.37102
1.37077
1.37068
1.37073
1.37093
1.37126
1.37168
1.37213
1.37256
1.37287
1.3712
1.37085
1.37071
1.37079
1.37108
1.37155
1.37217
1.37286
1.37353
1.37403
1.37034
1.36985
1.36968
1.36977
1.37014
1.37076
1.37159
1.37254
1.37348
1.37424
1.37137
1.37083
1.37061
1.37073
1.37118
1.37195
1.37299
1.37418
1.37541
1.37639
1.36987
1.36921
1.36897
1.3691
1.36961
1.37048
1.37168
1.37311
1.37459
1.37586
1.36843
1.36775
1.36749
1.36763
1.36818
1.36912
1.37042
1.37199
1.37363
1.37511
1.36985
1.36989
1.3699
1.3699
1.36991
1.36992
1.36992
1.36993
1.36993
1.36988
1.37086
1.37085
1.37084
1.37085
1.37087
1.37089
1.37093
1.37096
1.37099
1.37101
1.37175
1.3717
1.37169
1.3717
1.37174
1.3718
1.37188
1.37195
1.37201
1.37204
1.37117
1.37107
1.37103
1.37105
1.37113
1.37126
1.37142
1.3716
1.37175
1.37187
1.37146
1.37129
1.37123
1.37126
1.3714
1.37162
1.37189
1.37218
1.37245
1.37264
1.37167
1.37143
1.37133
1.37139
1.37159
1.37191
1.37234
1.37279
1.37323
1.37354
1.37088
1.37053
1.3704
1.37047
1.37073
1.37118
1.37175
1.3724
1.37301
1.3735
1.37205
1.37166
1.3715
1.37159
1.37192
1.37247
1.37321
1.37404
1.37486
1.37547
1.37051
1.37001
1.36983
1.36993
1.37031
1.37095
1.37181
1.37281
1.37381
1.37464
1.36939
1.36888
1.36868
1.36879
1.3692
1.3699
1.37084
1.37194
1.37305
1.37401
1.37031
1.37035
1.37036
1.37036
1.37036
1.37037
1.37037
1.37037
1.37037
1.37031
1.37105
1.37105
1.37104
1.37105
1.37106
1.37107
1.37109
1.37112
1.37113
1.37115
1.37208
1.37205
1.37205
1.37206
1.37208
1.37211
1.37216
1.3722
1.37223
1.37224
1.3714
1.37133
1.37131
1.37132
1.37137
1.37145
1.37155
1.37166
1.37175
1.37183
1.37179
1.37167
1.37163
1.37166
1.37175
1.37189
1.37206
1.37224
1.37241
1.37252
1.37201
1.37184
1.37178
1.37181
1.37195
1.37217
1.37245
1.37274
1.37302
1.37322
1.37127
1.37102
1.37094
1.37098
1.37117
1.37147
1.37186
1.37229
1.37268
1.373
1.37257
1.3723
1.37219
1.37225
1.37249
1.37288
1.37339
1.37394
1.37448
1.37486
1.37095
1.37058
1.37046
1.37052
1.3708
1.37125
1.37185
1.37254
1.37319
1.37373
1.3702
1.36982
1.36968
1.36976
1.37006
1.37056
1.37122
1.37196
1.3727
1.37331
1.37076
1.3708
1.37081
1.37081
1.37081
1.37081
1.37081
1.37081
1.37081
1.37076
1.37117
1.37117
1.37117
1.37117
1.37118
1.37119
1.3712
1.37122
1.37123
1.37125
1.37237
1.37236
1.37236
1.37237
1.37238
1.3724
1.37242
1.37244
1.37246
1.37245
1.37155
1.37151
1.37149
1.3715
1.37153
1.37158
1.37164
1.37171
1.37177
1.37182
1.37202
1.37195
1.37193
1.37194
1.372
1.37209
1.3722
1.37231
1.37241
1.37248
1.37223
1.37212
1.37208
1.3721
1.37219
1.37233
1.37251
1.3727
1.37288
1.373
1.37155
1.37138
1.37132
1.37135
1.37148
1.37168
1.37193
1.37221
1.37245
1.37265
1.37298
1.3728
1.37272
1.37277
1.37293
1.37319
1.37353
1.37389
1.37425
1.37447
1.37123
1.37097
1.37088
1.37093
1.37112
1.37143
1.37183
1.37228
1.3727
1.37306
1.37092
1.37065
1.37055
1.37061
1.37081
1.37116
1.37161
1.3721
1.37257
1.37296
1.37126
1.3713
1.37131
1.37131
1.37131
1.37131
1.37131
1.37131
1.3713
1.37125
1.37122
1.37122
1.37122
1.37122
1.37122
1.37123
1.37124
1.37125
1.37126
1.37128
1.37264
1.37264
1.37263
1.37264
1.37265
1.37266
1.37267
1.37268
1.37269
1.37267
1.37166
1.37163
1.37162
1.37162
1.37164
1.37167
1.37171
1.37175
1.37178
1.37182
1.37218
1.37214
1.37212
1.37213
1.37216
1.37222
1.37228
1.37235
1.37241
1.37245
1.37236
1.37229
1.37226
1.37227
1.37233
1.37242
1.37253
1.37265
1.37276
1.37284
1.37174
1.37163
1.3716
1.37162
1.3717
1.37183
1.37199
1.37216
1.3723
1.37243
1.37329
1.37318
1.37313
1.37315
1.37326
1.37344
1.37366
1.37389
1.37412
1.37424
1.37137
1.37118
1.37112
1.37116
1.37128
1.37149
1.37175
1.37204
1.3723
1.37254
1.37162
1.37144
1.37137
1.37141
1.37155
1.37178
1.37207
1.37239
1.37269
1.37293
1.37194
1.37196
1.37197
1.37197
1.37198
1.37197
1.37197
1.37197
1.37196
1.37191
1.37116
1.37115
1.37115
1.37115
1.37115
1.37116
1.37117
1.37118
1.37119
1.37122
1.37285
1.37285
1.37285
1.37286
1.37286
1.37287
1.37287
1.37288
1.37288
1.37286
1.37171
1.3717
1.3717
1.3717
1.37171
1.37173
1.37175
1.37177
1.37179
1.37181
1.37225
1.37222
1.37221
1.37222
1.37224
1.37227
1.37231
1.37235
1.37239
1.37241
1.37238
1.37233
1.37231
1.37232
1.37236
1.37241
1.37248
1.37256
1.37263
1.37268
1.37185
1.3718
1.37177
1.37179
1.37184
1.37192
1.37202
1.37212
1.3722
1.37227
1.37347
1.3734
1.37336
1.37338
1.37344
1.37356
1.3737
1.37385
1.37401
1.37406
1.37134
1.37122
1.37118
1.3712
1.37128
1.37142
1.37158
1.37176
1.37192
1.37208
1.37246
1.37234
1.37229
1.37231
1.3724
1.37255
1.37274
1.37294
1.37314
1.37328
1.37303
1.37306
1.37306
1.37306
1.37306
1.37306
1.37306
1.37305
1.37304
1.373
1.37091
1.3709
1.3709
1.3709
1.3709
1.37091
1.37091
1.37092
1.37093
1.37096
1.37294
1.37294
1.37293
1.37293
1.37293
1.37293
1.37294
1.37295
1.37296
1.37294
1.37175
1.37174
1.37174
1.37175
1.37176
1.37177
1.37178
1.37178
1.37179
1.3718
1.37224
1.37222
1.37221
1.37222
1.37223
1.37225
1.37227
1.3723
1.37233
1.37234
1.37232
1.37229
1.37227
1.37228
1.3723
1.37233
1.37238
1.37243
1.37247
1.37251
1.37191
1.37188
1.37186
1.37188
1.37191
1.37196
1.37202
1.37208
1.37212
1.37216
1.37339
1.37334
1.37331
1.37332
1.37336
1.37343
1.37353
1.37363
1.37374
1.37378
1.37107
1.371
1.37098
1.37099
1.37105
1.37113
1.37123
1.37134
1.37143
1.37154
1.37366
1.37358
1.37354
1.37356
1.37362
1.37372
1.37384
1.37397
1.3741
1.37418
1.37479
1.3748
1.3748
1.3748
1.3748
1.3748
1.3748
1.3748
1.37479
1.37477
1.37032
1.37033
1.37034
1.37035
1.37036
1.37036
1.37036
1.37035
1.37034
1.37035
1.37276
1.37275
1.37273
1.37272
1.37272
1.37272
1.37273
1.37275
1.37278
1.37279
1.37178
1.37179
1.37179
1.3718
1.3718
1.37181
1.37181
1.37181
1.37181
1.3718
1.37218
1.37217
1.37216
1.37216
1.37217
1.37218
1.3722
1.37222
1.37224
1.37225
1.37221
1.37219
1.37218
1.37218
1.3722
1.37222
1.37225
1.37229
1.37232
1.37235
1.37192
1.3719
1.3719
1.3719
1.37193
1.37196
1.372
1.37204
1.37207
1.37208
1.37292
1.37287
1.37284
1.37284
1.37288
1.37293
1.37299
1.37307
1.37316
1.37322
1.37044
1.37041
1.3704
1.37041
1.37045
1.37051
1.37058
1.37065
1.37069
1.37073
1.37541
1.37536
1.37533
1.37534
1.37538
1.37545
1.37554
1.37563
1.37574
1.37578
1.37665
1.37663
1.37661
1.37661
1.3766
1.37661
1.37662
1.37663
1.37666
1.37669
1.36958
1.36964
1.36968
1.3697
1.36971
1.3697
1.36969
1.36966
1.36961
1.36953
1.3724
1.37236
1.37234
1.37233
1.37233
1.37233
1.37235
1.37237
1.3724
1.37245
1.37185
1.37186
1.37186
1.37187
1.37187
1.37188
1.37188
1.37188
1.37188
1.37186
1.37214
1.37212
1.37212
1.37212
1.37213
1.37214
1.37215
1.37217
1.37219
1.3722
1.37216
1.37214
1.37213
1.37213
1.37215
1.37217
1.37219
1.37222
1.37225
1.37227
1.37196
1.37194
1.37194
1.37194
1.37197
1.372
1.37203
1.37207
1.37209
1.3721
1.3723
1.37224
1.37222
1.37222
1.37225
1.3723
1.37236
1.37242
1.3725
1.37258
1.36969
1.36968
1.36968
1.36969
1.36973
1.36978
1.36984
1.3699
1.36992
1.36988
1.37719
1.37715
1.37713
1.37714
1.37717
1.37723
1.37731
1.37739
1.37747
1.37751
1.47351
1.47911
1.47567
1.46849
1.50625
1.51199
1.50513
1.49437
1.53268
1.53773
1.52803
1.51473
1.55162
1.55553
1.54299
1.52767
1.56626
1.56877
1.55349
1.53667
1.57817
1.57922
1.56303
1.54427
1.58613
1.58554
1.56991
1.5488
1.59326
1.59093
1.57611
1.55272
1.59112
1.58691
1.57269
1.54725
1.58331
1.57808
1.56552
1.53894
1.37273
1.37241
1.37296
1.37402
1.39417
1.39554
1.39654
1.39621
1.41356
1.41627
1.41752
1.4156
1.43216
1.43607
1.43745
1.43362
1.44964
1.4544
1.45575
1.44984
1.46657
1.47186
1.47292
1.46533
1.48071
1.48626
1.48692
1.47822
1.49498
1.5006
1.50095
1.49162
1.50196
1.50758
1.50776
1.49821
1.50559
1.51171
1.5119
1.50269
1.37694
1.37738
1.37757
1.37758
1.38965
1.39064
1.39093
1.39077
1.40172
1.4033
1.40373
1.40338
1.41347
1.41572
1.41626
1.41555
1.42499
1.4279
1.42846
1.42722
1.4372
1.44072
1.44126
1.43933
1.44781
1.45185
1.45233
1.44962
1.45968
1.46413
1.46453
1.46103
1.46569
1.47046
1.47079
1.46644
1.46919
1.47473
1.47507
1.4697
1.37018
1.37014
1.37017
1.37028
1.37821
1.37845
1.37855
1.37857
1.38606
1.38661
1.38681
1.38677
1.39442
1.3954
1.39574
1.39556
1.40285
1.40432
1.4048
1.4044
1.41223
1.41423
1.41482
1.4141
1.42039
1.42292
1.42359
1.42246
1.43028
1.43329
1.43402
1.4324
1.43514
1.43858
1.43939
1.43728
1.43781
1.4421
1.44305
1.44025
1.36878
1.36872
1.36872
1.36879
1.37443
1.37458
1.37464
1.37464
1.37943
1.37976
1.37987
1.37984
1.38514
1.38569
1.38589
1.38583
1.39113
1.39196
1.39225
1.39214
1.39813
1.39928
1.39968
1.39947
1.40406
1.40557
1.40608
1.40571
1.41195
1.41382
1.41443
1.41386
1.41585
1.41806
1.41883
1.41806
1.41788
1.42087
1.42183
1.42061
1.36798
1.36789
1.36787
1.36793
1.37221
1.37226
1.37229
1.3723
1.3756
1.37572
1.37579
1.3758
1.37953
1.37978
1.3799
1.37992
1.38386
1.38428
1.38447
1.38449
1.38916
1.3898
1.39007
1.39006
1.39347
1.39434
1.39471
1.39465
1.39983
1.40096
1.40142
1.40128
1.40298
1.40436
1.40498
1.40478
1.4042
1.40623
1.40702
1.40647
1.36788
1.36778
1.36775
1.36781
1.37119
1.37122
1.37123
1.37124
1.37372
1.37378
1.37381
1.37383
1.37645
1.37658
1.37665
1.37668
1.37963
1.37986
1.37998
1.38001
1.38368
1.38404
1.38422
1.38427
1.38676
1.38727
1.38752
1.38756
1.39191
1.39259
1.39292
1.39295
1.39434
1.3952
1.39565
1.39566
1.39475
1.39615
1.39671
1.39643
1.36807
1.36796
1.36793
1.36799
1.3707
1.37071
1.37072
1.37073
1.37265
1.37268
1.3727
1.37271
1.37458
1.37465
1.37469
1.37471
1.37701
1.37713
1.3772
1.37723
1.38018
1.38038
1.38049
1.38054
1.38237
1.38266
1.38282
1.38288
1.38658
1.38698
1.38721
1.38727
1.38825
1.38878
1.38908
1.38914
1.38801
1.38901
1.38938
1.38918
1.36841
1.3683
1.36827
1.36832
1.37055
1.37055
1.37056
1.37056
1.3721
1.37211
1.37213
1.37213
1.37341
1.37345
1.37348
1.37349
1.37528
1.37535
1.3754
1.37542
1.37781
1.37792
1.378
1.37803
1.37934
1.37951
1.37962
1.37967
1.38284
1.38308
1.38323
1.38328
1.38379
1.38412
1.38431
1.38436
1.38313
1.38387
1.38412
1.38393
1.36883
1.36871
1.36867
1.36873
1.37058
1.37058
1.37058
1.37059
1.37186
1.37187
1.37188
1.37188
1.37269
1.37271
1.37272
1.37273
1.37414
1.37418
1.3742
1.37422
1.37614
1.37621
1.37625
1.37627
1.37715
1.37726
1.37732
1.37736
1.3801
1.38025
1.38035
1.38038
1.38048
1.38068
1.38081
1.38084
1.37956
1.38015
1.38032
1.38012
1.36927
1.36914
1.36911
1.36917
1.3707
1.3707
1.3707
1.37071
1.37182
1.37183
1.37183
1.37183
1.37226
1.37227
1.37228
1.37229
1.3734
1.37342
1.37344
1.37345
1.37497
1.37501
1.37504
1.37506
1.37556
1.37562
1.37567
1.37569
1.3781
1.37819
1.37825
1.37828
1.37801
1.37814
1.37822
1.37825
1.37699
1.37748
1.37758
1.37739
1.36971
1.36958
1.36955
1.36961
1.37086
1.37086
1.37086
1.37086
1.37191
1.37191
1.37191
1.37191
1.37202
1.37203
1.37204
1.37204
1.37295
1.37296
1.37297
1.37297
1.37417
1.3742
1.37422
1.37423
1.37442
1.37446
1.37449
1.3745
1.37666
1.37671
1.37675
1.37677
1.37619
1.37627
1.37632
1.37634
1.37517
1.37559
1.37566
1.37547
1.37014
1.37001
1.36998
1.37004
1.37102
1.37102
1.37102
1.37102
1.37206
1.37206
1.37206
1.37206
1.3719
1.37191
1.37191
1.37192
1.37268
1.37269
1.3727
1.3727
1.37364
1.37366
1.37367
1.37367
1.37361
1.37364
1.37365
1.37367
1.37565
1.37568
1.3757
1.37571
1.37484
1.3749
1.37493
1.37494
1.37395
1.37431
1.37436
1.37418
1.37057
1.37044
1.37041
1.37047
1.37115
1.37115
1.37115
1.37116
1.37225
1.37225
1.37224
1.37224
1.37185
1.37185
1.37186
1.37186
1.37255
1.37255
1.37256
1.37256
1.37328
1.3733
1.3733
1.37331
1.37306
1.37307
1.37308
1.37309
1.37497
1.37499
1.375
1.37501
1.37386
1.37389
1.37391
1.37392
1.37319
1.3735
1.37354
1.37337
1.371
1.37087
1.37084
1.3709
1.37125
1.37125
1.37125
1.37125
1.37246
1.37246
1.37246
1.37245
1.37183
1.37183
1.37183
1.37184
1.37249
1.37249
1.37249
1.37249
1.37305
1.37306
1.37306
1.37306
1.37268
1.37268
1.37269
1.3727
1.37454
1.37456
1.37457
1.37457
1.37313
1.37316
1.37317
1.37318
1.37281
1.37308
1.3731
1.37295
1.37148
1.37135
1.37132
1.37138
1.37128
1.37128
1.37128
1.37129
1.37268
1.37268
1.37267
1.37267
1.37181
1.37181
1.37182
1.37182
1.37246
1.37246
1.37246
1.37246
1.37287
1.37288
1.37288
1.37288
1.37243
1.37242
1.37243
1.37243
1.3743
1.37431
1.37431
1.37431
1.37258
1.3726
1.37261
1.37261
1.37277
1.37299
1.37301
1.37287
1.37212
1.37199
1.37196
1.37203
1.37121
1.37121
1.37121
1.37122
1.37287
1.37287
1.37287
1.37287
1.37179
1.37179
1.37179
1.3718
1.37242
1.37242
1.37242
1.37242
1.37271
1.37272
1.37272
1.37272
1.37225
1.37224
1.37224
1.37225
1.37412
1.37413
1.37414
1.37414
1.3721
1.37211
1.37211
1.37212
1.37312
1.3733
1.37331
1.3732
1.37318
1.37306
1.37303
1.37309
1.37095
1.37094
1.37095
1.37095
1.37297
1.37298
1.37298
1.37297
1.37177
1.37177
1.37177
1.37177
1.37235
1.37236
1.37236
1.37236
1.37253
1.37254
1.37254
1.37254
1.37211
1.3721
1.3721
1.37211
1.37387
1.37388
1.37389
1.37388
1.37153
1.37153
1.37154
1.37154
1.37405
1.37418
1.37419
1.37412
1.37492
1.37481
1.37479
1.37485
1.3703
1.37029
1.37029
1.37029
1.37286
1.37287
1.37287
1.37287
1.37176
1.37176
1.37175
1.37175
1.37227
1.37227
1.37227
1.37227
1.37237
1.37237
1.37237
1.37237
1.37202
1.37201
1.37201
1.37202
1.37336
1.37338
1.37339
1.37338
1.37065
1.37064
1.37064
1.37065
1.37576
1.37584
1.37585
1.3758
1.37678
1.37673
1.37673
1.37677
1.36932
1.36928
1.36926
1.36927
1.37255
1.37257
1.37258
1.37258
1.37181
1.3718
1.3718
1.3718
1.37221
1.37222
1.37222
1.37222
1.37228
1.37229
1.37229
1.37229
1.37205
1.37203
1.37203
1.37204
1.37274
1.37278
1.37279
1.37277
1.3696
1.36953
1.36952
1.36956
1.3777
1.37776
1.37776
1.37771
1.43001
1.40551
1.38436
1.37009
1.36152
1.35623
1.35274
1.35036
1.34871
1.34752
1.44228
1.40929
1.3841
1.36929
1.36105
1.35601
1.35275
1.35057
1.34909
1.34804
1.44379
1.40722
1.37973
1.36646
1.35864
1.35385
1.35072
1.34862
1.34728
1.3465
1.44055
1.40327
1.37434
1.36345
1.35617
1.35193
1.34909
1.34722
1.34601
1.34528
1.43462
1.39829
1.36949
1.36045
1.35356
1.34985
1.34728
1.34564
1.34457
1.34403
1.42732
1.39429
1.36607
1.35886
1.35228
1.34914
1.34681
1.3454
1.34444
1.34388
1.41707
1.38916
1.36149
1.35612
1.34971
1.34713
1.34498
1.34376
1.34289
1.34247
1.40912
1.38704
1.35991
1.35638
1.35009
1.34803
1.34593
1.34477
1.34388
1.34329
1.39809
1.38106
1.35504
1.35361
1.34778
1.34632
1.34427
1.3432
1.34236
1.34178
1.39497
1.38117
1.35573
1.35487
1.34817
1.34604
1.3432
1.34153
1.34021
1.33913
1.37779
1.37501
1.37168
1.36831
1.36509
1.36218
1.35968
1.3576
1.35591
1.35463
1.39545
1.38748
1.38003
1.37367
1.36839
1.36423
1.36101
1.35852
1.35657
1.3551
1.40836
1.3953
1.38412
1.37538
1.36852
1.36343
1.35969
1.3569
1.35483
1.35346
1.41797
1.40036
1.38599
1.37575
1.368
1.36254
1.35861
1.35575
1.35362
1.35217
1.42425
1.40335
1.38628
1.37512
1.36684
1.36125
1.35728
1.35444
1.3523
1.35092
1.42902
1.40604
1.38678
1.37519
1.36661
1.36109
1.35714
1.35435
1.35223
1.35076
1.43059
1.40651
1.38541
1.37374
1.36497
1.35958
1.35567
1.35293
1.3508
1.34939
1.43286
1.40871
1.38622
1.37484
1.36599
1.36079
1.35684
1.35407
1.35187
1.35025
1.4304
1.40634
1.3835
1.37306
1.36451
1.35954
1.35555
1.35273
1.35049
1.34881
1.43078
1.40736
1.38414
1.37377
1.36455
1.35896
1.35435
1.35101
1.34839
1.34623
1.3768
1.37476
1.3722
1.36961
1.36719
1.36503
1.36314
1.36153
1.36019
1.35915
1.38896
1.38442
1.37918
1.37452
1.37067
1.36752
1.36495
1.36283
1.3611
1.35974
1.39986
1.39198
1.38361
1.37672
1.37134
1.36718
1.36395
1.36142
1.35946
1.35808
1.40968
1.3981
1.3868
1.37817
1.37166
1.36681
1.36314
1.36034
1.35817
1.35664
1.41815
1.40274
1.38869
1.37863
1.37124
1.36593
1.36199
1.35904
1.35676
1.35522
1.42625
1.40721
1.39066
1.37955
1.37151
1.36592
1.36183
1.35881
1.35648
1.35482
1.43179
1.40941
1.39064
1.37876
1.37023
1.3645
1.36031
1.35726
1.35488
1.35326
1.43808
1.41297
1.39246
1.38023
1.37139
1.36561
1.36132
1.35819
1.35574
1.35393
1.43913
1.41197
1.39088
1.37901
1.37024
1.36449
1.36008
1.35685
1.35433
1.35246
1.44027
1.4122
1.3908
1.3788
1.36951
1.3633
1.35844
1.35485
1.35207
1.34983
1.37021
1.36973
1.36893
1.36792
1.36681
1.36569
1.36461
1.36363
1.36276
1.36207
1.37825
1.37685
1.3749
1.37281
1.37074
1.3688
1.36704
1.36549
1.36416
1.36307
1.38587
1.38288
1.37911
1.37542
1.37209
1.36921
1.36676
1.36471
1.36303
1.36179
1.39376
1.38882
1.38302
1.37776
1.37323
1.36948
1.36643
1.36396
1.36196
1.36047
1.40125
1.39398
1.38603
1.37926
1.37366
1.36923
1.36571
1.36294
1.3607
1.35912
1.40914
1.39934
1.38921
1.38109
1.37461
1.36964
1.36579
1.36279
1.36042
1.35866
1.41518
1.40272
1.39046
1.38118
1.37393
1.36857
1.36446
1.36132
1.35882
1.35705
1.42248
1.40752
1.39338
1.38324
1.37543
1.36978
1.36545
1.36216
1.35956
1.3576
1.42521
1.4082
1.39308
1.38262
1.37454
1.36869
1.36417
1.36075
1.35806
1.35604
1.42735
1.40877
1.3928
1.38182
1.37325
1.36704
1.3622
1.35851
1.35565
1.35335
1.36864
1.36837
1.36795
1.36742
1.36682
1.36619
1.36557
1.36498
1.36445
1.36404
1.37445
1.37382
1.37287
1.37174
1.37053
1.36932
1.36817
1.36711
1.36617
1.36538
1.37941
1.37804
1.37615
1.37409
1.37205
1.37014
1.36841
1.36687
1.36555
1.36455
1.3851
1.38274
1.37964
1.37646
1.37347
1.37079
1.36845
1.36645
1.36477
1.36345
1.39094
1.38729
1.38276
1.37837
1.37442
1.37103
1.36816
1.36576
1.36377
1.3623
1.39757
1.39238
1.38628
1.3807
1.37585
1.37183
1.36851
1.36581
1.36359
1.36189
1.40284
1.39588
1.38811
1.38137
1.3757
1.37114
1.36745
1.3645
1.36208
1.36032
1.40979
1.40101
1.39165
1.38392
1.37755
1.37253
1.36852
1.36535
1.36279
1.36083
1.41307
1.4027
1.39224
1.38382
1.37693
1.37156
1.36728
1.36394
1.36127
1.35924
1.41522
1.40332
1.39185
1.38277
1.37539
1.36969
1.36515
1.3616
1.3588
1.35654
1.36782
1.36769
1.36749
1.36723
1.36692
1.36659
1.36625
1.36592
1.36562
1.3654
1.37225
1.37197
1.3715
1.3709
1.37022
1.36951
1.3688
1.36813
1.36751
1.36697
1.37568
1.37507
1.37413
1.37299
1.37177
1.37055
1.36937
1.36828
1.36732
1.36656
1.37968
1.37857
1.37695
1.37509
1.37319
1.37136
1.36966
1.36813
1.3668
1.36572
1.38407
1.38227
1.37977
1.37706
1.37439
1.37192
1.3697
1.36777
1.3661
1.36483
1.38937
1.3867
1.38316
1.37953
1.37609
1.37301
1.37032
1.36802
1.36608
1.36455
1.39356
1.38981
1.3851
1.3805
1.37629
1.37263
1.36952
1.36691
1.36472
1.36308
1.39966
1.39473
1.38882
1.3833
1.37838
1.37421
1.37071
1.36784
1.36547
1.36362
1.40278
1.39673
1.38981
1.38348
1.37794
1.37335
1.36955
1.36649
1.36397
1.36204
1.40429
1.3971
1.38929
1.38232
1.37633
1.37142
1.36739
1.36414
1.36152
1.35939
1.3677
1.36763
1.36752
1.36738
1.36722
1.36704
1.36685
1.36667
1.36652
1.36642
1.37121
1.37105
1.3708
1.37047
1.37009
1.36967
1.36924
1.36882
1.36843
1.36808
1.37376
1.37344
1.37292
1.37226
1.37152
1.37074
1.36996
1.36922
1.36855
1.36803
1.37657
1.376
1.3751
1.37399
1.37277
1.37154
1.37034
1.36923
1.36823
1.36741
1.37984
1.37891
1.37748
1.3758
1.37402
1.37227
1.37062
1.36913
1.36781
1.36678
1.38399
1.38258
1.38051
1.37817
1.37578
1.3735
1.37141
1.36956
1.36796
1.36666
1.38715
1.3851
1.38226
1.37918
1.37615
1.37335
1.37083
1.36866
1.36678
1.36534
1.3923
1.38954
1.38585
1.38202
1.37835
1.37505
1.37215
1.36969
1.36761
1.36594
1.39485
1.39131
1.3868
1.38225
1.378
1.37428
1.37107
1.36841
1.36616
1.3644
1.39559
1.39131
1.38614
1.38105
1.37641
1.37239
1.36897
1.36614
1.3638
1.36185
1.36788
1.36784
1.36778
1.36771
1.36762
1.36753
1.36742
1.36733
1.36725
1.36723
1.37071
1.37063
1.37049
1.37031
1.37009
1.36985
1.3696
1.36935
1.36911
1.36889
1.37267
1.3725
1.3722
1.37181
1.37136
1.37088
1.37038
1.36989
1.36945
1.3691
1.37466
1.37434
1.37382
1.37314
1.37237
1.37155
1.37074
1.36996
1.36925
1.36864
1.37715
1.37663
1.37578
1.37472
1.37354
1.37233
1.37115
1.37005
1.36905
1.36826
1.38042
1.37963
1.37838
1.37687
1.37523
1.37359
1.37203
1.37061
1.36934
1.36829
1.38272
1.38157
1.37983
1.37778
1.37563
1.37354
1.3716
1.36987
1.36833
1.36712
1.387
1.38542
1.38311
1.38049
1.37783
1.37531
1.37302
1.37101
1.36927
1.36783
1.38879
1.3867
1.3838
1.38062
1.37748
1.37459
1.37201
1.36979
1.36787
1.36634
1.3889
1.38637
1.38301
1.37942
1.37596
1.37281
1.37003
1.36765
1.36565
1.36395
1.36823
1.36819
1.36816
1.36812
1.36808
1.36802
1.36797
1.36792
1.36789
1.36791
1.37055
1.37051
1.37043
1.37033
1.37021
1.37007
1.36993
1.36978
1.36964
1.3695
1.37211
1.37201
1.37183
1.3716
1.37133
1.37103
1.37072
1.37041
1.37012
1.3699
1.37346
1.37327
1.37296
1.37254
1.37206
1.37153
1.37099
1.37046
1.36997
1.36954
1.37537
1.37507
1.37455
1.37387
1.3731
1.37228
1.37146
1.37068
1.36995
1.36937
1.37796
1.3775
1.37672
1.37573
1.37463
1.37348
1.37236
1.3713
1.37034
1.36952
1.37959
1.37891
1.37781
1.37645
1.37496
1.37345
1.372
1.37067
1.36946
1.3685
1.38315
1.38222
1.38075
1.37898
1.3771
1.37524
1.37349
1.3719
1.37051
1.36932
1.3842
1.38296
1.3811
1.37893
1.37668
1.37451
1.37251
1.37073