/*--------------------------------*- C++ -*----------------------------------*\
| =========                 |                                                 |
| \\      /  F ield         | foam-extend: Open Source CFD                    |
|  \\    /   O peration     | Version:     4.0                                |
|   \\  /    A nd           | Web:         http://www.foam-extend.org         |
|    \\/     M anipulation  |                                                 |
\*---------------------------------------------------------------------------*/
FoamFile
{
    version     2.0;
    format      ascii;
    class       volScalarField;
    location    "1750";
    object      T;
}
// * * * * * * * * * * * * * * * * * * * * * * * * * * * * * * * * * * * * * //

dimensions      [0 0 0 1 0 0 0];

internalField   nonuniform List<scalar> 
34480
(
278.814
278.703
278.622
278.567
278.535
278.526
278.541
278.625
278.897
278.862
278.261
278.143
278.05
277.983
277.95
277.953
277.978
278.023
278.239
277.795
278.149
278.018
277.912
277.838
277.8
277.788
277.768
277.715
277.843
277.067
278.19
278.037
277.908
277.806
277.734
277.671
277.586
277.428
277.435
276.311
278.203
278.025
277.868
277.733
277.619
277.5
277.347
277.077
276.928
275.449
278.271
278.07
277.89
277.729
277.58
277.41
277.19
276.807
276.471
274.609
278.297
278.071
277.867
277.681
277.501
277.287
277.004
276.507
275.961
273.711
278.368
278.12
277.903
277.709
277.521
277.292
276.975
276.394
275.638
272.969
278.424
278.156
277.921
277.708
277.496
277.239
276.88
276.215
275.25
272.227
279.241
278.96
278.757
278.615
278.51
278.39
278.181
277.655
276.649
273.195
279.347
279.254
279.218
279.234
279.306
279.453
279.713
280.17
280.839
281.709
278.696
278.612
278.579
278.596
278.677
278.844
279.135
279.633
280.425
281.446
278.49
278.411
278.382
278.402
278.489
278.661
278.95
279.44
280.29
281.406
278.436
278.357
278.323
278.335
278.408
278.559
278.824
279.289
280.169
281.333
278.362
278.277
278.236
278.234
278.289
278.41
278.643
279.07
279.95
281.129
278.352
278.265
278.218
278.208
278.246
278.342
278.54
278.918
279.77
280.925
278.309
278.215
278.162
278.142
278.167
278.238
278.402
278.727
279.526
280.64
278.326
278.23
278.179
278.165
278.193
278.259
278.404
278.683
279.409
280.433
278.342
278.239
278.182
278.159
278.175
278.226
278.345
278.577
279.222
280.167
279.106
279.016
278.995
279.038
279.142
279.295
279.515
279.82
280.416
281.086
279.82
279.721
279.686
279.706
279.784
279.93
280.161
280.507
281.005
281.629
279.163
279.065
279.03
279.054
279.145
279.319
279.608
280.064
280.772
281.7
278.941
278.843
278.808
278.832
278.928
279.116
279.433
279.948
280.82
282.033
278.857
278.755
278.715
278.732
278.82
278.999
279.318
279.862
280.869
282.334
278.753
278.645
278.597
278.603
278.677
278.837
279.142
279.69
280.793
282.465
278.717
278.605
278.552
278.549
278.61
278.75
279.034
279.565
280.728
282.553
278.651
278.533
278.474
278.462
278.51
278.629
278.888
279.391
280.579
282.518
278.649
278.529
278.471
278.463
278.512
278.626
278.867
279.337
280.514
282.513
278.647
278.524
278.461
278.447
278.488
278.589
278.807
279.236
280.375
282.454
279.38
279.268
279.232
279.267
279.372
279.547
279.833
280.3
281.384
283.382
280.158
280.072
280.043
280.062
280.13
280.251
280.429
280.67
280.976
281.314
279.53
279.437
279.405
279.431
279.519
279.679
279.925
280.278
280.763
281.31
279.319
279.219
279.184
279.212
279.31
279.494
279.787
280.228
280.885
281.676
279.223
279.114
279.073
279.097
279.196
279.386
279.705
280.21
281.031
282.08
279.103
278.985
278.938
278.953
279.045
279.229
279.556
280.1
281.061
282.352
279.049
278.925
278.872
278.881
278.964
279.138
279.463
280.025
281.098
282.599
278.966
278.836
278.778
278.779
278.852
279.012
279.327
279.89
281.045
282.728
278.948
278.817
278.759
278.762
278.836
278.993
279.299
279.852
281.051
282.871
278.932
278.798
278.737
278.735
278.803
278.951
279.246
279.779
280.982
282.951
279.631
279.509
279.466
279.499
279.611
279.809
280.147
280.709
281.883
283.884
280.388
280.32
280.298
280.313
280.363
280.449
280.569
280.718
280.887
281.053
279.806
279.728
279.701
279.724
279.797
279.925
280.112
280.357
280.657
280.952
279.625
279.532
279.5
279.527
279.616
279.776
280.018
280.356
280.805
281.272
279.534
279.427
279.389
279.414
279.511
279.69
279.975
280.394
280.998
281.672
279.412
279.293
279.248
279.268
279.364
279.551
279.863
280.342
281.094
281.984
279.35
279.223
279.171
279.187
279.281
279.468
279.795
280.317
281.201
282.299
279.259
279.124
279.067
279.076
279.164
279.346
279.678
280.226
281.221
282.516
279.23
279.092
279.035
279.045
279.135
279.318
279.652
280.213
281.286
282.749
279.203
279.063
279.003
279.01
279.095
279.272
279.604
280.168
281.282
282.926
279.87
279.74
279.693
279.724
279.839
280.051
280.411
281
282.114
283.855
280.539
280.489
280.473
280.483
280.518
280.574
280.649
280.737
280.83
280.919
280.008
279.948
279.927
279.944
280
280.094
280.226
280.387
280.567
280.726
279.863
279.785
279.758
279.78
279.854
279.983
280.169
280.411
280.701
280.973
279.788
279.692
279.657
279.681
279.768
279.924
280.16
280.482
280.9
281.319
279.675
279.563
279.521
279.543
279.636
279.809
280.083
280.475
281.025
281.61
279.614
279.491
279.443
279.462
279.558
279.741
280.043
280.492
281.17
281.927
279.522
279.388
279.335
279.349
279.443
279.63
279.95
280.442
281.236
282.168
279.487
279.35
279.294
279.31
279.408
279.6
279.932
280.454
281.34
282.434
279.452
279.313
279.255
279.269
279.364
279.554
279.892
280.433
281.38
282.651
280.088
279.957
279.908
279.938
280.053
280.267
280.626
281.192
282.16
283.545
280.638
280.602
280.591
280.597
280.619
280.653
280.698
280.748
280.799
280.85
280.152
280.109
280.094
280.106
280.146
280.211
280.298
280.4
280.506
280.592
280.044
279.982
279.961
279.978
280.036
280.133
280.268
280.434
280.616
280.774
279.989
279.907
279.878
279.898
279.971
280.098
280.282
280.519
280.799
281.056
279.892
279.793
279.756
279.777
279.86
280.01
280.236
280.54
280.927
281.305
279.839
279.726
279.682
279.702
279.792
279.96
280.222
280.587
281.085
281.595
279.75
279.625
279.576
279.593
279.686
279.864
280.152
280.57
281.174
281.825
279.715
279.585
279.533
279.552
279.65
279.837
280.146
280.604
281.298
282.088
279.676
279.542
279.488
279.506
279.603
279.793
280.113
280.6
281.362
282.303
280.282
280.156
280.107
280.135
280.247
280.453
280.791
281.303
282.097
283.142
280.702
280.675
280.668
280.672
280.685
280.705
280.731
280.759
280.788
280.82
280.256
280.226
280.216
280.224
280.25
280.293
280.349
280.412
280.473
280.521
280.179
280.133
280.117
280.13
280.172
280.242
280.336
280.446
280.559
280.651
280.143
280.078
280.054
280.071
280.128
280.227
280.364
280.531
280.715
280.873
280.066
279.983
279.951
279.969
280.039
280.162
280.341
280.568
280.833
281.075
280.024
279.926
279.888
279.907
279.987
280.131
280.347
280.632
280.987
281.326
279.943
279.831
279.787
279.805
279.891
280.051
280.298
280.636
281.081
281.528
279.913
279.794
279.747
279.767
279.859
280.031
280.303
280.685
281.211
281.767
279.872
279.748
279.699
279.718
279.812
279.99
280.277
280.693
281.283
281.958
280.449
280.332
280.285
280.312
280.416
280.607
280.909
281.349
281.975
282.733
280.744
280.723
280.718
280.72
280.728
280.74
280.754
280.77
280.786
280.809
280.33
280.311
280.304
280.309
280.326
280.353
280.388
280.426
280.462
280.489
280.28
280.247
280.235
280.244
280.274
280.322
280.385
280.456
280.526
280.58
280.26
280.211
280.192
280.205
280.248
280.321
280.419
280.534
280.653
280.75
280.202
280.135
280.11
280.125
280.181
280.277
280.412
280.576
280.755
280.909
280.173
280.091
280.06
280.076
280.143
280.262
280.432
280.648
280.895
281.118
280.102
280.006
279.968
279.985
280.06
280.196
280.398
280.663
280.983
281.285
280.08
279.975
279.934
279.953
280.036
280.187
280.415
280.722
281.109
281.494
280.038
279.927
279.884
279.903
279.989
280.148
280.394
280.734
281.177
281.649
280.588
280.483
280.441
280.465
280.558
280.728
280.987
281.35
281.827
282.359
280.771
280.754
280.751
280.752
280.756
280.763
280.771
280.78
280.789
280.807
280.385
280.373
280.368
280.371
280.382
280.399
280.42
280.442
280.463
280.479
280.355
280.333
280.325
280.331
280.351
280.383
280.423
280.468
280.511
280.543
280.347
280.311
280.297
280.306
280.338
280.389
280.457
280.535
280.611
280.671
280.307
280.256
280.236
280.248
280.29
280.363
280.461
280.577
280.696
280.793
280.291
280.225
280.2
280.213
280.267
280.36
280.49
280.648
280.818
280.963
280.229
280.15
280.119
280.133
280.196
280.307
280.466
280.666
280.892
281.094
280.217
280.129
280.095
280.112
280.183
280.309
280.493
280.73
281.009
281.271
280.175
280.08
280.044
280.061
280.136
280.272
280.474
280.741
281.066
281.389
280.699
280.608
280.571
280.592
280.673
280.818
281.032
281.321
281.673
282.037
280.788
280.773
280.771
280.771
280.773
280.777
280.782
280.787
280.793
280.808
280.427
280.419
280.416
280.417
280.424
280.434
280.446
280.46
280.472
280.482
280.413
280.398
280.393
280.396
280.409
280.43
280.456
280.484
280.509
280.528
280.411
280.386
280.376
280.382
280.404
280.439
280.485
280.536
280.585
280.622
280.386
280.349
280.334
280.343
280.374
280.427
280.496
280.575
280.654
280.715
280.381
280.331
280.311
280.322
280.363
280.434
280.529
280.641
280.757
280.851
280.329
280.265
280.241
280.253
280.303
280.39
280.511
280.657
280.814
280.948
280.328
280.257
280.229
280.243
280.301
280.403
280.546
280.724
280.92
281.096
280.285
280.206
280.176
280.191
280.254
280.365
280.525
280.729
280.961
281.179
280.782
280.707
280.676
280.694
280.761
280.88
281.051
281.272
281.527
281.77
280.797
280.784
280.782
280.782
280.783
280.785
280.788
280.79
280.795
280.808
280.458
280.453
280.451
280.452
280.456
280.462
280.469
280.477
280.484
280.49
280.457
280.448
280.445
280.447
280.455
280.468
280.484
280.501
280.517
280.528
280.458
280.441
280.434
280.438
280.453
280.476
280.507
280.54
280.57
280.593
280.446
280.419
280.409
280.415
280.437
280.474
280.522
280.575
280.626
280.665
280.449
280.412
280.398
280.406
280.436
280.488
280.556
280.634
280.711
280.771
280.404
280.355
280.336
280.346
280.384
280.45
280.539
280.644
280.751
280.839
280.416
280.36
280.338
280.35
280.396
280.474
280.582
280.711
280.847
280.963
280.37
280.307
280.283
280.295
280.346
280.433
280.556
280.706
280.869
281.013
280.84
280.781
280.756
280.77
280.824
280.918
281.05
281.214
281.394
281.552
280.799
280.787
280.786
280.786
280.787
280.788
280.789
280.791
280.794
280.806
280.482
280.479
280.477
280.478
280.48
280.484
280.488
280.493
280.497
280.501
280.494
280.488
280.486
280.487
280.493
280.5
280.51
280.52
280.529
280.536
280.492
280.48
280.476
280.478
280.488
280.503
280.523
280.544
280.563
280.578
280.491
280.473
280.466
280.47
280.485
280.51
280.542
280.577
280.609
280.634
280.5
280.474
280.463
280.469
280.491
280.527
280.575
280.628
280.678
280.717
280.46
280.424
280.409
280.417
280.445
280.493
280.557
280.629
280.701
280.758
280.485
280.443
280.426
280.436
280.47
280.529
280.607
280.699
280.791
280.866
280.433
280.385
280.366
280.376
280.415
280.481
280.572
280.679
280.791
280.885
280.876
280.832
280.812
280.823
280.865
280.936
281.035
281.153
281.277
281.378
280.797
280.786
280.785
280.785
280.785
280.786
280.786
280.787
280.789
280.801
280.5
280.497
280.496
280.497
280.498
280.5
280.503
280.506
280.509
280.512
280.524
280.521
280.52
280.521
280.524
280.529
280.534
280.54
280.545
280.549
280.516
280.509
280.505
280.507
280.513
280.523
280.535
280.549
280.561
280.57
280.525
280.513
280.508
280.511
280.521
280.538
280.558
280.581
280.601
280.616
280.538
280.519
280.512
280.516
280.531
280.556
280.588
280.623
280.656
280.68
280.5
280.474
280.464
280.469
280.489
280.523
280.567
280.616
280.664
280.701
280.539
280.508
280.496
280.503
280.529
280.571
280.626
280.689
280.75
280.798
280.478
280.442
280.428
280.435
280.464
280.512
280.577
280.652
280.728
280.789
280.894
280.862
280.847
280.855
280.887
280.939
281.01
281.092
281.176
281.239
280.79
280.78
280.78
280.779
280.78
280.78
280.78
280.781
280.782
280.793
280.512
280.51
280.509
280.509
280.51
280.511
280.513
280.515
280.517
280.52
280.551
280.549
280.549
280.549
280.551
280.554
280.557
280.561
280.563
280.565
280.533
280.528
280.526
280.527
280.531
280.537
280.545
280.553
280.56
280.566
280.55
280.542
280.539
280.541
280.547
280.558
280.571
280.585
280.598
280.607
280.564
280.552
280.547
280.549
280.56
280.576
280.597
280.62
280.641
280.656
280.528
280.51
280.503
280.507
280.521
280.544
280.573
280.606
280.636
280.66
280.581
280.56
280.552
280.557
280.574
280.604
280.642
280.684
280.724
280.754
280.507
280.481
280.471
280.476
280.497
280.531
280.576
280.627
280.676
280.715
280.898
280.875
280.865
280.871
280.893
280.93
280.98
281.036
281.091
281.128
280.782
280.773
280.773
280.773
280.773
280.773
280.773
280.774
280.775
280.784
280.517
280.516
280.515
280.515
280.515
280.516
280.517
280.519
280.521
280.523
280.576
280.575
280.575
280.575
280.576
280.578
280.58
280.581
280.583
280.583
280.544
280.541
280.539
280.54
280.542
280.546
280.551
280.556
280.56
280.564
280.568
280.563
280.561
280.562
280.566
280.573
280.581
280.59
280.597
280.603
280.581
280.573
280.57
280.572
280.578
280.589
280.603
280.617
280.63
280.64
280.547
280.535
280.53
280.533
280.542
280.557
280.577
280.598
280.617
280.632
280.615
280.601
280.595
280.599
280.611
280.63
280.656
280.683
280.709
280.727
280.523
280.504
280.497
280.501
280.515
280.538
280.569
280.602
280.634
280.659
280.892
280.878
280.87
280.874
280.89
280.915
280.949
280.985
281.021
281.043
280.779
280.771
280.771
280.771
280.771
280.771
280.771
280.771
280.772
280.779
280.515
280.513
280.513
280.513
280.513
280.513
280.514
280.516
280.517
280.52
280.598
280.598
280.598
280.598
280.599
280.6
280.6
280.601
280.602
280.602
280.55
280.548
280.547
280.547
280.549
280.551
280.554
280.557
280.56
280.562
280.579
280.576
280.575
280.575
280.578
280.582
280.587
280.592
280.597
280.6
280.591
280.585
280.583
280.584
280.588
280.595
280.604
280.613
280.621
280.627
280.559
280.551
280.548
280.55
280.556
280.566
280.578
280.591
280.602
280.611
280.64
280.631
280.627
280.63
280.638
280.651
280.667
280.685
280.701
280.712
280.525
280.513
280.508
280.511
280.52
280.535
280.555
280.576
280.596
280.612
280.886
280.877
280.872
280.874
280.885
280.902
280.924
280.947
280.97
280.982
280.793
280.787
280.787
280.787
280.787
280.787
280.787
280.787
280.787
280.793
280.501
280.499
280.498
280.498
280.499
280.499
280.5
280.501
280.502
280.506
280.615
280.615
280.615
280.615
280.615
280.616
280.616
280.617
280.617
280.617
280.552
280.551
280.551
280.551
280.552
280.553
280.555
280.556
280.558
280.559
280.584
280.582
280.581
280.581
280.583
280.585
280.588
280.591
280.594
280.596
280.592
280.589
280.587
280.588
280.59
280.595
280.6
280.605
280.611
280.615
280.564
280.559
280.558
280.559
280.563
280.569
280.576
280.584
280.59
280.595
280.653
280.647
280.644
280.645
280.65
280.659
280.669
280.681
280.692
280.698
280.512
280.504
280.501
280.502
280.509
280.518
280.531
280.544
280.556
280.566
280.893
280.888
280.884
280.886
280.893
280.904
280.918
280.932
280.947
280.953
280.845
280.841
280.84
280.84
280.84
280.84
280.84
280.84
280.84
280.844
280.466
280.465
280.465
280.465
280.465
280.466
280.466
280.466
280.467
280.47
280.62
280.619
280.618
280.618
280.618
280.618
280.619
280.62
280.621
280.622
280.552
280.552
280.552
280.553
280.553
280.554
280.555
280.555
280.555
280.556
280.583
280.581
280.581
280.581
280.582
280.583
280.585
280.587
280.589
280.591
280.587
280.585
280.584
280.584
280.586
280.589
280.592
280.596
280.599
280.602
280.564
280.561
280.561
280.561
280.564
280.568
280.572
280.577
280.58
280.583
280.643
280.638
280.636
280.637
280.64
280.645
280.653
280.66
280.668
280.674
280.474
280.47
280.468
280.469
280.474
280.48
280.488
280.496
280.502
280.508
280.931
280.927
280.924
280.925
280.93
280.937
280.946
280.956
280.966
280.969
280.927
280.924
280.923
280.923
280.923
280.923
280.923
280.924
280.925
280.928
280.408
280.41
280.412
280.413
280.413
280.413
280.413
280.411
280.409
280.409
280.609
280.606
280.605
280.604
280.604
280.604
280.605
280.607
280.609
280.612
280.553
280.553
280.554
280.554
280.555
280.555
280.556
280.556
280.555
280.554
280.579
280.578
280.578
280.578
280.578
280.579
280.581
280.582
280.584
280.585
280.582
280.58
280.579
280.579
280.581
280.583
280.585
280.588
280.59
280.592
280.563
280.561
280.561
280.561
280.563
280.566
280.569
280.572
280.575
280.576
280.611
280.606
280.605
280.605
280.607
280.611
280.617
280.623
280.629
280.636
280.414
280.413
280.412
280.413
280.416
280.421
280.426
280.432
280.435
280.435
280.99
280.987
280.984
280.985
280.989
280.994
281.001
281.008
281.016
281.019
289.474
291.232
291.496
289.908
290.639
292.769
293.179
291.519
292.301
294.928
295.462
293.489
293.583
296.65
297.318
295.136
294.528
298.005
298.815
296.491
295.277
299.133
300.101
297.907
295.823
300.04
301.2
299.331
296.294
300.835
302.202
300.711
296.509
301.349
302.93
301.864
297.068
302.099
303.946
303.465
286.163
286.71
286.691
286.166
287.459
288.102
288.041
287.388
289.063
289.867
289.756
288.897
290.504
291.454
291.283
290.232
291.68
292.771
292.534
291.299
292.702
293.93
293.669
292.275
293.508
294.867
294.617
293.089
294.204
295.669
295.441
293.802
294.642
296.171
295.971
294.267
295.428
296.93
296.84
295.19
282.253
282.387
282.419
282.35
282.982
283.2
283.24
283.103
284.148
284.486
284.53
284.281
285.416
285.874
285.914
285.534
286.579
287.153
287.18
286.658
287.715
288.401
288.413
287.753
288.706
289.5
289.501
288.715
289.645
290.532
290.522
289.632
290.404
291.331
291.321
290.379
291.648
292.504
292.533
291.669
281.485
281.551
281.573
281.551
281.743
281.828
281.858
281.836
282.452
282.6
282.642
282.588
283.328
283.549
283.601
283.5
284.169
284.469
284.525
284.362
285.059
285.439
285.497
285.259
285.878
286.338
286.395
286.075
286.714
287.247
287.298
286.898
287.47
288.035
288.083
287.627
288.814
289.305
289.366
288.953
281.053
281.09
281.102
281.09
281.091
281.12
281.134
281.134
281.541
281.598
281.624
281.619
282.152
282.251
282.29
282.273
282.748
282.896
282.948
282.91
283.415
283.62
283.681
283.612
284.04
284.305
284.373
284.263
284.715
285.036
285.107
284.949
285.352
285.701
285.771
285.574
286.605
286.883
286.958
286.797
280.883
280.912
280.921
280.91
280.785
280.798
280.805
280.805
281.09
281.115
281.129
281.13
281.531
281.577
281.6
281.6
281.958
282.032
282.066
282.063
282.457
282.566
282.612
282.6
282.923
283.071
283.127
283.101
283.446
283.634
283.697
283.649
283.948
284.158
284.223
284.152
285.069
285.212
285.28
285.249
280.8
280.827
280.835
280.823
280.618
280.624
280.627
280.628
280.828
280.84
280.847
280.848
281.158
281.18
281.193
281.195
281.475
281.513
281.533
281.535
281.86
281.917
281.947
281.949
282.211
282.293
282.332
282.331
282.618
282.725
282.772
282.763
282.997
283.12
283.17
283.151
283.993
284.051
284.102
284.128
280.766
280.792
280.799
280.787
280.534
280.537
280.539
280.539
280.679
280.685
280.688
280.689
280.926
280.938
280.944
280.946
281.164
281.185
281.196
281.199
281.467
281.498
281.516
281.52
281.736
281.782
281.806
281.811
282.055
282.116
282.147
282.15
282.334
282.406
282.441
282.44
283.227
283.231
283.266
283.313
280.753
280.779
280.786
280.774
280.496
280.497
280.498
280.498
280.595
280.598
280.6
280.6
280.779
280.786
280.789
280.79
280.959
280.97
280.976
280.978
281.197
281.214
281.225
281.228
281.402
281.428
281.443
281.447
281.654
281.689
281.709
281.713
281.858
281.901
281.924
281.927
282.663
282.637
282.659
282.71
280.751
280.777
280.783
280.771
280.483
280.484
280.484
280.485
280.552
280.553
280.554
280.555
280.688
280.692
280.694
280.694
280.822
280.829
280.832
280.834
281.009
281.019
281.026
281.028
281.162
281.178
281.187
281.19
281.363
281.384
281.396
281.399
281.51
281.535
281.55
281.553
282.239
282.196
282.208
282.259
280.752
280.778
280.784
280.773
280.484
280.485
280.485
280.485
280.533
280.534
280.535
280.535
280.632
280.635
280.636
280.636
280.733
280.736
280.739
280.739
280.878
280.885
280.888
280.89
280.989
280.998
281.004
281.006
281.15
281.163
281.17
281.173
281.252
281.267
281.276
281.279
281.914
281.862
281.869
281.917
280.753
280.779
280.786
280.774
280.492
280.493
280.493
280.493
280.531
280.531
280.532
280.532
280.6
280.601
280.602
280.602
280.675
280.678
280.679
280.68
280.788
280.792
280.795
280.795
280.864
280.87
280.874
280.875
280.996
281.004
281.009
281.01
281.059
281.069
281.074
281.076
281.662
281.607
281.61
281.655
280.752
280.778
280.785
280.773
280.503
280.503
280.504
280.504
280.538
280.538
280.538
280.538
280.582
280.583
280.584
280.584
280.64
280.642
280.643
280.643
280.728
280.73
280.731
280.732
280.775
280.779
280.781
280.782
280.887
280.891
280.894
280.895
280.916
280.922
280.925
280.926
281.465
281.41
281.411
281.452
280.749
280.775
280.781
280.769
280.513
280.514
280.514
280.514
280.55
280.55
280.55
280.55
280.573
280.574
280.574
280.574
280.62
280.621
280.621
280.622
280.687
280.689
280.689
280.69
280.712
280.714
280.715
280.716
280.811
280.814
280.815
280.816
280.81
280.813
280.816
280.816
281.31
281.257
281.257
281.295
280.743
280.769
280.776
280.763
280.521
280.521
280.522
280.522
280.566
280.566
280.566
280.565
280.568
280.569
280.569
280.569
280.609
280.61
280.61
280.61
280.661
280.662
280.662
280.662
280.667
280.669
280.67
280.67
280.761
280.763
280.764
280.765
280.731
280.733
280.734
280.735
281.187
281.138
281.138
281.171
280.737
280.763
280.769
280.756
280.525
280.525
280.526
280.526
280.583
280.583
280.583
280.583
280.566
280.566
280.566
280.566
280.604
280.605
280.605
280.605
280.643
280.643
280.644
280.644
280.636
280.637
280.638
280.638
280.731
280.733
280.733
280.733
280.671
280.672
280.673
280.673
281.09
281.047
281.046
281.076
280.736
280.762
280.767
280.754
280.522
280.523
280.524
280.524
280.601
280.601
280.601
280.601
280.563
280.563
280.564
280.564
280.601
280.601
280.601
280.601
280.629
280.63
280.63
280.63
280.614
280.614
280.615
280.615
280.715
280.715
280.716
280.716
280.622
280.623
280.623
280.623
281.019
280.983
280.982
281.006
280.754
280.779
280.784
280.771
280.509
280.509
280.51
280.51
280.617
280.617
280.617
280.617
280.559
280.56
280.56
280.56
280.597
280.597
280.597
280.597
280.616
280.617
280.617
280.617
280.597
280.597
280.597
280.597
280.701
280.702
280.703
280.703
280.574
280.575
280.575
280.575
280.98
280.952
280.952
280.971
280.813
280.835
280.838
280.826
280.474
280.475
280.475
280.475
280.623
280.623
280.623
280.623
280.555
280.555
280.555
280.555
280.592
280.592
280.592
280.592
280.604
280.604
280.604
280.604
280.582
280.582
280.582
280.582
280.68
280.681
280.681
280.681
280.513
280.514
280.514
280.513
280.989
280.971
280.971
280.983
280.91
280.924
280.926
280.918
280.41
280.411
280.41
280.41
280.616
280.617
280.617
280.618
280.553
280.553
280.553
280.552
280.586
280.587
280.587
280.587
280.594
280.594
280.594
280.594
280.574
280.573
280.573
280.573
280.646
280.648
280.649
280.648
280.43
280.43
280.429
280.429
281.036
281.031
281.031
281.034
282.184
280.884
280.342
279.995
279.7
279.459
279.267
279.115
278.993
278.889
282.329
281.09
280.257
279.732
279.316
279.008
278.78
278.61
278.481
278.376
282.903
281.597
280.466
279.827
279.327
278.98
278.725
278.535
278.391
278.277
283.498
282.132
280.733
280.029
279.464
279.093
278.819
278.615
278.459
278.333
283.976
282.586
280.942
280.188
279.563
279.172
278.88
278.662
278.497
278.363
284.525
283.078
281.211
280.421
279.736
279.328
279.014
278.782
278.601
278.45
285.007
283.478
281.411
280.598
279.856
279.434
279.099
278.853
278.658
278.497
285.572
283.967
281.714
280.885
280.084
279.645
279.281
279.01
278.788
278.595
286.021
284.358
281.926
281.122
280.286
279.843
279.443
279.143
278.891
278.673
287.753
286.09
283.503
282.644
281.683
281.114
280.589
280.186
279.851
279.557
283.981
282.672
281.685
280.972
280.478
280.133
279.882
279.694
279.548
279.427
284.428
282.641
281.311
280.451
279.897
279.519
279.25
279.055
278.912
278.806
285.023
282.829
281.242
280.312
279.717
279.32
279.04
278.839
278.695
278.593
285.511
283.016
281.235
280.282
279.66
279.257
278.976
278.777
278.636
278.537
285.778
283.071
281.161
280.201
279.559
279.158
278.88
278.687
278.552
278.458
285.977
283.141
281.138
280.191
279.532
279.138
278.863
278.676
278.544
278.45
286.022
283.122
281.048
280.13
279.459
279.079
278.809
278.627
278.499
278.407
286.078
283.18
281.051
280.176
279.493
279.127
278.855
278.673
278.537
278.435
286.035
283.169
280.993
280.198
279.53
279.194
278.916
278.725
278.578
278.463
286.944
284.23
282.058
281.314
280.598
280.206
279.858
279.612
279.419
279.275
282.114
281.734
281.364
281.035
280.753
280.516
280.318
280.155
280.018
279.9
282.575
281.893
281.275
280.763
280.35
280.022
279.765
279.564
279.408
279.289
283.347
282.33
281.464
280.795
280.279
279.887
279.589
279.364
279.195
279.07
284.117
282.777
281.677
280.88
280.284
279.85
279.529
279.292
279.116
278.989
284.691
283.069
281.767
280.873
280.219
279.759
279.426
279.185
279.009
278.883
285.2
283.34
281.866
280.903
280.206
279.733
279.395
279.153
278.976
278.849
285.547
283.491
281.873
280.867
280.14
279.663
279.324
279.085
278.91
278.784
285.869
283.669
281.932
280.906
280.16
279.687
279.346
279.106
278.925
278.79
286.073
283.755
281.918
280.915
280.177
279.722
279.379
279.132
278.943
278.799
287.062
284.739
282.865
281.884
281.116
280.625
280.236
279.952
279.732
279.572
281.508
281.361
281.183
281.003
280.832
280.677
280.54
280.42
280.313
280.216
281.713
281.424
281.094
280.778
280.497
280.257
280.056
279.89
279.755
279.648
282.342
281.857
281.347
280.892
280.507
280.192
279.936
279.733
279.572
279.45
283.075
282.358
281.651
281.06
280.581
280.203
279.907
279.676
279.498
279.365
283.703
282.742
281.842
281.13
280.572
280.146
279.822
279.575
279.387
279.249
284.318
283.117
282.037
281.222
280.599
280.14
279.796
279.538
279.344
279.2
284.808
283.379
282.133
281.236
280.563
280.082
279.726
279.463
279.265
279.12
285.281
283.649
282.258
281.303
280.594
280.1
279.736
279.467
279.263
279.11
285.649
283.826
282.311
281.333
280.613
280.12
279.749
279.474
279.263
279.102
286.695
284.769
283.195
282.209
281.46
280.94
280.539
280.237
280.005
279.838
281.099
281.052
280.981
280.898
280.809
280.722
280.639
280.562
280.489
280.418
281.106
280.992
280.838
280.67
280.505
280.351
280.212
280.091
279.987
279.903
281.559
281.352
281.089
280.819
280.567
280.342
280.148
279.984
279.85
279.744
282.153
281.815
281.417
281.034
280.692
280.4
280.156
279.956
279.796
279.671
282.698
282.204
281.658
281.162
280.737
280.386
280.103
279.876
279.697
279.56
283.278
282.611
281.913
281.311
280.811
280.412
280.097
279.85
279.656
279.509
283.771
282.925
282.077
281.379
280.815
280.379
280.04
279.779
279.576
279.423
284.273
283.248
282.26
281.483
280.869
280.406
280.05
279.777
279.565
279.403
284.69
283.484
282.37
281.541
280.898
280.421
280.053
279.771
279.552
279.384
285.728
284.399
283.214
282.354
281.679
281.178
280.787
280.486
280.252
280.083
280.925
280.908
280.875
280.834
280.788
280.739
280.691
280.644
280.596
280.546
280.794
280.743
280.667
280.577
280.481
280.386
280.296
280.214
280.141
280.079
281.109
281.012
280.873
280.716
280.558
280.407
280.27
280.149
280.046
279.961
281.56
281.396
281.173
280.935
280.705
280.494
280.308
280.149
280.016
279.909
281.991
281.738
281.415
281.088
280.784
280.515
280.286
280.095
279.937
279.813
282.481
282.121
281.687
281.268
280.892
280.571
280.304
280.085
279.907
279.768
282.915
282.433
281.881
281.373
280.931
280.565
280.267
280.026
279.833
279.684
283.377
282.763
282.095
281.506
281.008
280.606
280.283
280.026
279.82
279.661
283.77
283.015
282.237
281.587
281.05
280.624
280.283
280.014
279.8
279.634
284.754
283.894
283.046
282.353
281.783
281.333
280.973
280.688
280.463
280.3
280.841
280.835
280.82
280.8
280.775
280.749
280.722
280.694
280.664
280.627
280.623
280.599
280.561
280.512
280.458
280.401
280.345
280.292
280.244
280.202
280.84
280.791
280.717
280.627
280.531
280.434
280.342
280.257
280.182
280.119
281.179
281.095
280.971
280.826
280.676
280.532
280.398
280.278
280.174
280.088
281.509
281.376
281.187
280.978
280.77
280.575
280.4
280.247
280.117
280.012
281.905
281.709
281.445
281.165
280.896
280.652
280.438
280.255
280.102
279.978
282.26
281.989
281.641
281.287
280.958
280.667
280.419
280.211
280.039
279.902
282.654
282.296
281.86
281.436
281.052
280.723
280.446
280.217
280.029
279.88
282.987
282.532
282.011
281.528
281.103
280.745
280.447
280.204
280.006
279.85
283.893
283.363
282.782
282.256
281.797
281.416
281.1
280.843
280.636
280.484
280.806
280.804
280.797
280.787
280.774
280.76
280.744
280.728
280.708
280.681
280.537
280.525
280.504
280.478
280.447
280.413
280.379
280.346
280.315
280.288
280.685
280.659
280.618
280.566
280.508
280.447
280.387
280.33
280.278
280.233
280.938
280.893
280.822
280.734
280.639
280.542
280.449
280.363
280.286
280.221
281.186
281.114
281.002
280.871
280.732
280.595
280.466
280.35
280.249
280.164
281.501
281.392
281.231
281.048
280.861
280.682
280.518
280.373
280.248
280.144
281.781
281.627
281.409
281.169
280.932
280.712
280.514
280.343
280.197
280.078
282.103
281.895
281.615
281.319
281.035
280.777
280.551
280.357
280.194
280.062
282.368
282.098
281.758
281.413
281.089
280.803
280.555
280.346
280.171
280.031
283.191
282.872
282.486
282.102
281.749
281.44
281.175
280.954
280.771
280.636
280.793
280.794
280.79
280.785
280.778
280.77
280.762
280.752
280.738
280.717
280.497
280.491
280.48
280.465
280.447
280.427
280.407
280.387
280.368
280.351
280.598
280.584
280.561
280.53
280.495
280.457
280.419
280.382
280.347
280.317
280.786
280.761
280.72
280.666
280.606
280.543
280.48
280.42
280.365
280.318
280.972
280.93
280.864
280.781
280.69
280.596
280.505
280.42
280.344
280.279
281.218
281.156
281.058
280.939
280.812
280.685
280.564
280.453
280.354
280.271
281.433
281.344
281.208
281.048
280.882
280.719
280.568
280.433
280.315
280.216
281.692
281.57
281.392
281.19
280.985
280.791
280.613
280.456
280.321
280.209
281.894
281.735
281.515
281.275
281.037
280.816
280.618
280.446
280.298
280.178
282.637
282.448
282.196
281.925
281.663
281.422
281.209
281.025