/*--------------------------------*- C++ -*----------------------------------*\
| =========                 |                                                 |
| \\      /  F ield         | foam-extend: Open Source CFD                    |
|  \\    /   O peration     | Version:     4.0                                |
|   \\  /    A nd           | Web:         http://www.foam-extend.org         |
|    \\/     M anipulation  |                                                 |
\*---------------------------------------------------------------------------*/
FoamFile
{
    version     2.0;
    format      ascii;
    class       volVectorField;
    location    "1750";
    object      Urel;
}
// * * * * * * * * * * * * * * * * * * * * * * * * * * * * * * * * * * * * * //

dimensions      [0 1 -1 0 0 0 0];

internalField   nonuniform List<vector> 
34480
(
(208.982 -9.7927 -19.0912)
(209.302 -9.2922 -21.5535)
(209.46 -8.56676 -23.9797)
(209.467 -7.64221 -26.413)
(209.318 -6.55735 -28.9915)
(208.977 -5.31497 -31.8909)
(208.361 -3.89535 -35.5115)
(207.196 -2.18226 -40.1976)
(204.526 0.0529196 -48.1198)
(197.59 4.25711 -75.29)
(209.916 -12.7998 -26.8106)
(210.176 -11.6723 -29.5943)
(210.303 -10.3905 -32.2537)
(210.277 -8.96842 -34.8565)
(210.042 -7.44265 -37.5198)
(209.539 -5.83297 -40.4511)
(208.733 -4.15831 -44.1101)
(207.442 -2.36465 -49.2387)
(204.306 -0.29062 -58.0593)
(196.148 3.66245 -88.6291)
(210.608 -17.0967 -33.7481)
(210.843 -15.5453 -36.833)
(210.937 -13.8168 -39.7797)
(210.867 -11.9052 -42.6021)
(210.572 -9.86628 -45.4275)
(210.045 -7.73419 -48.5127)
(209.293 -5.5364 -52.386)
(208.151 -3.2032 -58.0762)
(204.851 -0.56777 -67.7741)
(195.642 4.13673 -101.288)
(210.618 -20.492 -41.1607)
(210.853 -18.4097 -44.5399)
(210.962 -16.1519 -47.7262)
(210.926 -13.7002 -50.7506)
(210.692 -11.1112 -53.748)
(210.278 -8.42228 -57.0041)
(209.662 -5.66577 -61.0501)
(208.683 -2.76285 -67.1346)
(205.358 0.45936 -77.4558)
(195.346 5.85082 -112.876)
(210.78 -24.969 -48.0227)
(211.044 -22.4771 -51.6793)
(211.191 -19.7719 -55.1521)
(211.216 -16.8347 -58.4263)
(211.074 -13.7415 -61.6616)
(210.795 -10.5294 -65.1558)
(210.328 -7.22538 -69.4369)
(209.533 -3.73987 -75.9405)
(206.306 0.107149 -86.9293)
(195.651 6.20171 -123.869)
(210.668 -28.2242 -55.6191)
(210.943 -25.2322 -59.5124)
(211.11 -22.0125 -63.1536)
(211.169 -18.5441 -66.5714)
(211.094 -14.8942 -69.9179)
(210.932 -11.1057 -73.5153)
(210.618 -7.2073 -77.8756)
(210.037 -3.11201 -84.6064)
(207.058 1.38036 -96.0802)
(196.004 8.11229 -134.168)
(210.752 -33.0069 -62.4773)
(211.067 -29.6257 -66.6107)
(211.263 -25.9815 -70.5015)
(211.36 -22.0632 -74.1259)
(211.344 -17.9458 -77.6653)
(211.279 -13.6659 -81.4428)
(211.105 -9.22816 -85.9743)
(210.741 -4.52921 -92.9892)
(208.093 0.702154 -105.041)
(196.744 8.26488 -144.121)
(210.581 -36.1779 -70.3242)
(210.901 -32.3248 -74.6647)
(211.076 -28.1628 -78.6834)
(211.132 -23.7064 -82.417)
(211.075 -19.0094 -86.0096)
(210.992 -14.1291 -89.7893)
(210.864 -9.06287 -94.2555)
(210.657 -3.70311 -101.227)
(208.416 2.37281 -113.468)
(197.101 10.8395 -153.052)
(210.527 -41.4422 -77.1534)
(210.891 -37.2221 -81.68)
(211.097 -32.6844 -85.8817)
(211.192 -27.8683 -89.7664)
(211.186 -22.829 -93.5193)
(211.147 -17.5963 -97.4447)
(211.087 -12.114 -102.077)
(211.02 -6.22945 -109.203)
(209.108 0.775922 -121.816)
(197.678 10.733 -161.339)
(209.563 -44.6443 -85.1149)
(209.837 -40.0418 -89.9227)
(209.784 -35.0025 -94.327)
(209.425 -29.647 -98.3959)
(208.807 -23.9888 -102.256)
(208.022 -18.0687 -106.187)
(207.153 -11.8212 -110.66)
(206.367 -5.05586 -117.276)
(204.43 2.9598 -129.039)
(194.246 14.3052 -166.629)
(205.869 1.9133 3.00044)
(206.347 1.11094 1.54406)
(206.535 0.427947 -0.00955453)
(206.452 -0.115947 -1.60945)
(206.074 -0.545037 -3.31904)
(205.312 -0.859844 -5.1507)
(203.965 -1.06446 -7.15819)
(201.6 -1.17035 -9.31649)
(198.135 -1.25543 -11.2444)
(193.561 -1.15757 -14.3936)
(207.169 2.8712 2.79722)
(207.601 2.16712 1.1614)
(207.773 1.52239 -0.492297)
(207.684 0.946943 -2.18885)
(207.273 0.419606 -3.99582)
(206.418 -0.0656587 -5.97111)
(204.925 -0.523938 -8.2079)
(202.341 -0.990133 -10.9573)
(198.172 -1.58045 -14.006)
(192.489 -1.82077 -20.5814)
(208.12 2.58066 3.30601)
(208.53 1.7749 1.54394)
(208.688 1.04834 -0.257182)
(208.588 0.426263 -2.09028)
(208.152 -0.129876 -4.02957)
(207.278 -0.632578 -6.15879)
(205.795 -1.11113 -8.66689)
(203.218 -1.58218 -12.0858)
(198.674 -2.15279 -16.3319)
(192.056 -2.06681 -26.716)
(208.366 3.18106 3.30215)
(208.781 2.40682 1.45516)
(208.96 1.69792 -0.403942)
(208.903 1.09186 -2.29714)
(208.53 0.550124 -4.30979)
(207.758 0.0610512 -6.56829)
(206.387 -0.408448 -9.29849)
(203.903 -0.851175 -13.2574)
(199.13 -1.35899 -18.475)
(191.699 -0.928884 -32.4529)
(208.722 2.67129 3.83677)
(209.164 1.81216 1.93468)
(209.382 1.04546 -0.0209549)
(209.389 0.412039 -2.00878)
(209.108 -0.143347 -4.14585)
(208.473 -0.631966 -6.58598)
(207.252 -1.08867 -9.57135)
(204.93 -1.48458 -14.0615)
(200.079 -1.8979 -20.2291)
(191.94 -1.06849 -37.6915)
(208.76 3.39546 3.63264)
(209.217 2.54388 1.71889)
(209.46 1.78646 -0.207286)
(209.51 1.16675 -2.17559)
(209.302 0.638046 -4.29726)
(208.795 0.185942 -6.77222)
(207.74 -0.220775 -9.84225)
(205.639 -0.54448 -14.6607)
(200.876 -0.826339 -21.5457)
(192.212 0.368527 -42.208)
(208.967 2.56866 4.15845)
(209.46 1.6182 2.23662)
(209.734 0.78878 0.258757)
(209.83 0.116775 -1.7494)
(209.69 -0.448014 -3.93526)
(209.297 -0.917163 -6.51481)
(208.404 -1.30717 -9.74317)
(206.549 -1.56534 -14.9162)
(201.992 -1.65319 -22.5657)
(192.904 0.00412797 -46.2429)
(208.884 3.375 3.69428)
(209.385 2.41107 1.80277)
(209.648 1.59987 -0.0883466)
(209.718 0.952709 -2.024)
(209.562 0.443207 -4.11965)
(209.191 0.0392872 -6.62179)
(208.391 -0.261943 -9.78001)
(206.756 -0.416395 -15.0038)
(202.528 -0.20613 -23.0508)
(193.313 1.83631 -49.2152)
(208.897 2.05583 4.24372)
(209.43 0.978107 2.40128)
(209.722 0.0671768 0.525922)
(209.827 -0.687701 -1.37726)
(209.729 -1.31708 -3.47988)
(209.432 -1.83339 -6.0294)
(208.754 -2.18875 -9.33413)
(207.346 -2.32042 -14.7922)
(203.457 -1.74081 -23.4868)
(193.99 1.00385 -51.496)
(207.976 2.86341 3.63588)
(208.452 1.69309 1.78916)
(208.569 0.796594 -0.0345112)
(208.356 0.0682403 -1.90482)
(207.828 -0.473683 -3.92892)
(207.021 -0.855129 -6.35272)
(205.822 -1.01286 -9.46849)
(204.02 -0.831765 -14.5627)
(200.279 0.222459 -23.0363)
(191.633 4.03753 -51.3428)
(203.497 1.42896 2.33412)
(204 0.834745 1.21625)
(204.181 0.303802 -0.0131194)
(204.078 -0.130426 -1.26311)
(203.677 -0.481005 -2.55421)
(202.93 -0.745352 -3.83199)
(201.745 -0.933236 -5.04862)
(199.97 -1.07016 -6.05445)
(197.416 -1.24153 -6.49837)
(194.199 -1.43091 -6.51716)
(204.893 2.41672 2.31246)
(205.389 1.87461 0.945598)
(205.568 1.34842 -0.449045)
(205.446 0.857848 -1.86578)
(204.982 0.392801 -3.33117)
(204.094 -0.0520482 -4.84783)
(202.621 -0.489992 -6.37936)
(200.293 -0.952656 -7.86262)
(196.67 -1.55143 -8.80221)
(191.83 -2.13364 -9.81094)
(205.93 2.21489 2.94692)
(206.43 1.53197 1.39455)
(206.611 0.893875 -0.209297)
(206.486 0.330493 -1.8383)
(205.998 -0.190199 -3.53879)
(205.046 -0.678105 -5.32748)
(203.43 -1.15797 -7.21421)
(200.786 -1.65992 -9.2915)
(196.284 -2.32831 -11.0022)
(189.843 -2.90739 -13.5838)
(206.329 2.89978 2.99282)
(206.851 2.22341 1.31708)
(207.057 1.58277 -0.381478)
(206.967 1.01778 -2.11259)
(206.517 0.494945 -3.94023)
(205.602 0.00453735 -5.92268)
(203.97 -0.48531 -8.10589)
(201.157 -0.99199 -10.7398)
(195.919 -1.67685 -13.1997)
(187.983 -2.1621 -17.5582)
(206.833 2.42906 3.56726)
(207.388 1.65287 1.80437)
(207.63 0.943783 -0.0201941)
(207.597 0.343718 -1.87762)
(207.216 -0.197807 -3.86933)
(206.389 -0.689269 -6.0858)
(204.817 -1.16615 -8.60182)
(201.96 -1.6344 -11.8307)
(196.174 -2.28217 -15.129)
(186.917 -2.57363 -21.5708)
(207.001 3.20237 3.38818)
(207.575 2.41984 1.59284)
(207.844 1.71044 -0.223008)
(207.853 1.1177 -2.08448)
(207.534 0.597008 -4.09193)
(206.806 0.13606 -6.38685)
(205.332 -0.300563 -9.06206)
(202.533 -0.712357 -12.7135)
(196.402 -1.27317 -16.7137)
(186.054 -1.33645 -25.3318)
(207.321 2.39217 3.93729)
(207.926 1.50484 2.11575)
(208.225 0.722362 0.230902)
(208.28 0.080919 -1.68938)
(208.024 -0.467916 -3.78487)
(207.394 -0.932442 -6.22027)
(206.04 -1.33508 -9.12062)
(203.36 -1.6666 -13.2308)
(197.054 -2.06587 -18.0261)
(185.778 -1.79636 -28.9548)
(207.33 3.23663 3.47748)
(207.943 2.33382 1.6828)
(208.236 1.56739 -0.117804)
(208.273 0.950378 -1.96985)
(208.01 0.456188 -3.98409)
(207.408 0.0585424 -6.36643)
(206.139 -0.255361 -9.25944)
(203.612 -0.486015 -13.5531)
(197.321 -0.618678 -18.8708)
(185.383 -0.0677994 -31.871)
(207.424 1.90398 4.03148)
(208.055 0.888139 2.27434)
(208.37 0.0358612 0.47258)
(208.435 -0.659559 -1.36125)
(208.214 -1.23001 -3.38715)
(207.674 -1.68574 -5.81426)
(206.516 -1.99143 -8.87538)
(204.183 -2.12557 -13.5137)
(198.026 -1.85969 -19.6406)
(185.304 -0.798272 -34.2621)
(206.568 2.76926 3.3913)
(207.148 1.67668 1.66334)
(207.333 0.850889 -0.0525408)
(207.16 0.187741 -1.82405)
(206.624 -0.29321 -3.74771)
(205.713 -0.614934 -6.03722)
(204.197 -0.726118 -8.92127)
(201.627 -0.54684 -13.3045)
(195.606 0.217812 -19.5455)
(182.826 2.30041 -34.6929)
(201.762 0.950108 1.70146)
(202.2 0.548806 0.911231)
(202.35 0.166806 0.00786627)
(202.252 -0.156655 -0.896337)
(201.904 -0.427351 -1.79992)
(201.288 -0.639918 -2.6213)
(200.377 -0.806572 -3.29549)
(199.143 -0.950816 -3.68708)
(197.584 -1.12804 -3.58051)
(195.853 -1.36367 -2.75307)
(203.085 1.90973 1.79057)
(203.553 1.53444 0.717503)
(203.716 1.13736 -0.388111)
(203.585 0.744395 -1.49731)
(203.137 0.356756 -2.60175)
(202.328 -0.0283326 -3.67089)
(201.079 -0.421515 -4.62874)
(199.287 -0.84526 -5.34693)
(196.822 -1.36778 -5.40303)
(194.024 -1.93535 -4.61991)
(204.076 1.76249 2.50238)
(204.587 1.22286 1.20514)
(204.763 0.69314 -0.151451)
(204.621 0.207652 -1.51835)
(204.122 -0.257059 -2.9123)
(203.193 -0.709307 -4.31338)
(201.702 -1.16851 -5.65515)
(199.454 -1.66091 -6.84613)
(196.099 -2.29225 -7.29978)
(192.019 -2.9883 -6.92402)
(204.538 2.52914 2.58577)
(205.094 1.97498 1.13076)
(205.299 1.42371 -0.35523)
(205.177 0.919125 -1.86151)
(204.677 0.435979 -3.42376)
(203.71 -0.0350035 -5.05619)
(202.083 -0.522884 -6.71301)
(199.496 -1.05009 -8.37892)
(195.28 -1.75574 -9.29307)
(189.815 -2.52214 -9.54005)
(205.126 2.10339 3.20128)
(205.727 1.43461 1.62429)
(205.966 0.802989 -0.0206223)
(205.886 0.252816 -1.68768)
(205.42 -0.258444 -3.4516)
(204.478 -0.738718 -5.35592)
(202.801 -1.22097 -7.38131)
(199.998 -1.7244 -9.61057)
(195.03 -2.43853 -11.1395)
(188.226 -3.17767 -12.3674)
(205.384 2.93134 3.05123)
(206.013 2.24151 1.4174)
(206.28 1.59861 -0.244363)
(206.234 1.04817 -1.94394)
(205.808 0.551389 -3.75842)
(204.914 0.0957879 -5.77955)
(203.245 -0.3563 -8.0104)
(200.335 -0.823441 -10.6676)
(194.762 -1.50371 -12.7404)
(186.751 -2.16334 -15.1342)
(205.788 2.1476 3.62947)
(206.45 1.34497 1.94669)
(206.745 0.625326 0.19401)
(206.738 0.0263586 -1.58897)
(206.36 -0.495959 -3.52069)
(205.531 -0.94941 -5.71701)
(203.908 -1.36053 -8.22081)
(200.97 -1.74227 -11.3664)
(194.939 -2.29792 -14.1225)
(185.837 -2.7714 -17.9483)
(205.877 3.04282 3.18059)
(206.546 2.22059 1.51724)
(206.839 1.51233 -0.159566)
(206.821 0.935427 -1.88645)
(206.437 0.464963 -3.75538)
(205.624 0.0786966 -5.92539)
(204.042 -0.245298 -8.46662)
(201.141 -0.53427 -11.8554)
(194.852 -0.87896 -15.1089)
(184.865 -1.19212 -20.317)
(206.039 1.70879 3.76333)
(206.719 0.771515 2.12292)
(207.028 -0.0155884 0.423726)
(207.033 -0.651866 -1.30772)
(206.683 -1.16864 -3.20971)
(205.914 -1.57306 -5.43729)
(204.389 -1.84466 -8.14236)
(201.578 -1.99437 -11.888)
(195.218 -1.94653 -15.985)
(184.255 -1.89819 -22.3791)
(205.251 2.64774 3.10173)
(205.884 1.6452 1.51431)
(206.102 0.893265 -0.0758595)
(205.938 0.293968 -1.72631)
(205.368 -0.13135 -3.51575)
(204.344 -0.402747 -5.61191)
(202.579 -0.481404 -8.16605)
(199.578 -0.316345 -11.7245)
(193.237 0.228423 -16.0565)
(181.783 1.20185 -22.8618)
(200.554 0.552061 1.19357)
(200.896 0.295932 0.665844)
(201.011 0.0351207 0.0356042)
(200.936 -0.194179 -0.583156)
(200.677 -0.395531 -1.18744)
(200.239 -0.561261 -1.69749)
(199.627 -0.700924 -2.06658)
(198.864 -0.829655 -2.20478)
(197.999 -0.97393 -2.02037)
(197.148 -1.14049 -1.42922)
(201.712 1.43655 1.31054)
(202.105 1.20221 0.509581)
(202.242 0.922995 -0.321723)
(202.129 0.62448 -1.14594)
(201.756 0.31587 -1.93611)
(201.107 -0.00157106 -2.64909)
(200.163 -0.332352 -3.21073)
(198.918 -0.68628 -3.51265)
(197.396 -1.09164 -3.32764)
(195.899 -1.50908 -2.51772)
(202.563 1.29503 2.0493)
(203.033 0.893152 1.01472)
(203.195 0.473432 -0.0839606)
(203.062 0.0716873 -1.18082)
(202.609 -0.326846 -2.26783)
(201.8 -0.726799 -3.30353)
(200.569 -1.14139 -4.20337)
(198.852 -1.5881 -4.83735)
(196.569 -2.12225 -4.8132)
(194.179 -2.69152 -3.92691)
(203.004 2.11961 2.1471)
(203.547 1.69357 0.934496)
(203.743 1.24014 -0.316155)
(203.613 0.805933 -1.57459)
(203.123 0.375665 -2.84724)
(202.213 -0.0571763 -4.11443)
(200.763 -0.516718 -5.29398)
(198.63 -1.02216 -6.27037)
(195.541 -1.66145 -6.46617)
(192.071 -2.36608 -5.60733)
(203.605 1.73089 2.79287)
(204.21 1.18128 1.42993)
(204.442 0.638229 -0.00721918)
(204.338 0.148507 -1.45419)
(203.848 -0.320194 -2.9536)
(202.898 -0.773828 -4.50633)
(201.307 -1.24091 -6.04427)
(198.851 -1.74375 -7.4918)
(194.986 -2.4232 -8.08567)
(190.369 -3.19078 -7.53397)
(203.904 2.6089 2.66825)
(204.551 2.02651 1.22594)
(204.813 1.46224 -0.252394)
(204.733 0.964491 -1.7579)
(204.255 0.503137 -3.33654)
(203.3 0.0670331 -5.02936)
(201.628 -0.381192 -6.78352)
(198.944 -0.867807 -8.60505)
(194.385 -1.55648 -9.55913)
(188.645 -2.35029 -9.4589)
(204.354 1.85476 3.27433)
(205.042 1.15268 1.76026)
(205.33 0.507563 0.168653)
(205.282 -0.040042 -1.44489)
(204.832 -0.527031 -3.16806)
(203.899 -0.960353 -5.06253)
(202.198 -1.36881 -7.11111)
(199.363 -1.77738 -9.39593)
(194.208 -2.37739 -10.8773)
(187.384 -3.09721 -11.5014)
(204.497 2.80686 2.83814)
(205.197 2.08088 1.33323)
(205.489 1.44195 -0.193798)
(205.433 0.913582 -1.76633)
(204.974 0.475014 -3.44861)
(204.038 0.107658 -5.34376)
(202.321 -0.217043 -7.45758)
(199.415 -0.541573 -9.98977)
(193.834 -0.989575 -11.8654)
(186.051 -1.65485 -13.2445)
(204.712 1.475 3.45622)
(205.42 0.63108 1.95801)
(205.723 -0.0835482 0.386233)
(205.686 -0.658694 -1.21491)
(205.251 -1.1232 -2.95702)
(204.343 -1.48164 -4.93647)
(202.64 -1.72617 -7.22426)
(199.711 -1.88932 -10.0735)
(193.885 -1.98086 -12.6827)
(185.054 -2.3937 -14.8174)
(203.986 2.50123 2.77396)
(204.651 1.59933 1.34432)
(204.892 0.925314 -0.103737)
(204.736 0.390154 -1.61291)
(204.149 0.0177928 -3.2397)
(203.064 -0.208994 -5.10125)
(201.196 -0.263716 -7.27178)
(198.099 -0.118729 -9.99947)
(192.171 0.260214 -12.81)
(182.631 0.640527 -15.1298)
(199.724 0.252561 0.824492)
(199.977 0.0940601 0.488101)
(200.059 -0.0785828 0.0633786)
(200.007 -0.235493 -0.342862)
(199.832 -0.38106 -0.735491)
(199.545 -0.506297 -1.04656)
(199.16 -0.61744 -1.25091)
(198.708 -0.721968 -1.29415)
(198.231 -0.830608 -1.14387)
(197.776 -0.942218 -0.777526)
(200.702 1.04224 0.910076)
(201.005 0.913007 0.336058)
(201.111 0.730209 -0.260673)
(201.024 0.514507 -0.845557)
(200.74 0.279316 -1.38677)
(200.262 0.0288692 -1.84352)
(199.598 -0.235586 -2.15843)
(198.779 -0.514616 -2.25877)
(197.871 -0.813165 -2.03784)
(197.063 -1.10174 -1.43093)
(201.377 0.863616 1.63498)
(201.775 0.577265 0.841356)
(201.913 0.257115 -0.0159408)
(201.8 -0.063691 -0.864252)
(201.423 -0.393326 -1.6812)
(200.771 -0.732277 -2.41814)
(199.826 -1.08712 -2.99874)
(198.597 -1.46653 -3.31461)
(197.123 -1.89261 -3.14384)
(195.735 -2.323 -2.34633)
(201.746 1.71404 1.71923)
(202.235 1.40605 0.7453)
(202.411 1.04851 -0.26991)
(202.289 0.68782 -1.28358)
(201.848 0.317603 -2.28056)
(201.057 -0.0644903 -3.22114)
(199.859 -0.475124 -4.01844)
(198.219 -0.926782 -4.54517)
(196.085 -1.46574 -4.43711)
(193.943 -2.03822 -3.43883)
(202.305 1.345 2.37626)
(202.873 0.912943 1.23571)
(203.087 0.46161 0.0173518)
(202.976 0.0382685 -1.20053)
(202.504 -0.379151 -2.43277)
(201.624 -0.793265 -3.64936)
(200.229 -1.22582 -4.76348)
(198.225 -1.6963 -5.64667)
(195.407 -2.29441 -5.77411)
(192.399 -2.95945 -4.76534)
(202.601 2.25982 2.26664)
(203.227 1.789 1.03102)
(203.473 1.30949 -0.247088)
(203.375 0.871422 -1.54212)
(202.889 0.454147 -2.87076)
(201.955 0.0494726 -4.23218)
(200.415 -0.375393 -5.54323)
(198.115 -0.846886 -6.71152)
(194.633 -1.48067 -7.04593)
(190.716 -2.22398 -6.09491)
(203.062 1.53194 2.8934)
(203.739 0.93816 1.56697)
(204.012 0.374917 0.156399)
(203.937 -0.114644 -1.26724)
(203.456 -0.559027 -2.76039)
(202.503 -0.963268 -4.33645)
(200.868 -1.35504 -5.93708)
(198.335 -1.76398 -7.50388)
(194.24 -2.34111 -8.22415)
(189.39 -3.07261 -7.55799)
(203.233 2.54139 2.46725)
(203.93 1.9212 1.13957)
(204.211 1.35956 -0.218181)
(204.128 0.886416 -1.61524)
(203.632 0.486513 -3.08672)
(202.653 0.14536 -4.68377)
(200.951 -0.167493 -6.36067)
(198.262 -0.499799 -8.13969)
(193.68 -0.971822 -9.1337)
(187.949 -1.71539 -8.79264)
(203.483 1.21082 3.12218)
(204.19 0.470283 1.785)
(204.482 -0.166333 0.36062)
(204.413 -0.678645 -1.08791)
(203.929 -1.09167 -2.64438)
(202.957 -1.40746 -4.35192)
(201.231 -1.62751 -6.21822)
(198.437 -1.79388 -8.27805)
(193.519 -1.95721 -9.83131)
(186.812 -2.51308 -9.91351)
(202.808 2.33598 2.41782)
(203.477 1.54219 1.15843)
(203.728 0.949219 -0.134022)
(203.577 0.47847 -1.48519)
(202.989 0.15677 -2.92786)
(201.894 -0.0305346 -4.53146)
(200.043 -0.0677962 -6.30597)
(197.089 0.0558393 -8.29609)
(191.992 0.313905 -9.98278)
(184.565 0.412781 -10.0815)
(199.151 0.0429271 0.575977)
(199.336 -0.0557354 0.369439)
(199.391 -0.16955 0.0873798)
(199.359 -0.274915 -0.172634)
(199.249 -0.378355 -0.425674)
(199.071 -0.47048 -0.616559)
(198.841 -0.555138 -0.736469)
(198.582 -0.6346 -0.752768)
(198.321 -0.711874 -0.658288)
(198.06 -0.78316 -0.451607)
(199.974 0.74227 0.59829)
(200.191 0.684056 0.199587)
(200.269 0.573789 -0.211737)
(200.207 0.425336 -0.61023)
(200.006 0.253506 -0.967131)
(199.675 0.063995 -1.25053)
(199.234 -0.137864 -1.4215)
(198.716 -0.347703 -1.43702)
(198.183 -0.560413 -1.25233)
(197.745 -0.752655 -0.850749)
(200.472 0.497275 1.28327)
(200.786 0.298333 0.693515)
(200.897 0.0610476 0.0451075)
(200.808 -0.187311 -0.591551)
(200.516 -0.450991 -1.18925)
(200.022 -0.727261 -1.70243)
(199.336 -1.01737 -2.07161)
(198.494 -1.32255 -2.22265)
(197.567 -1.64629 -2.04284)
(196.762 -1.9557 -1.47303)
(200.746 1.34378 1.32961)
(201.158 1.1344 0.573104)
(201.308 0.863477 -0.223361)
(201.204 0.573861 -1.01276)
(200.834 0.265778 -1.7681)
(200.188 -0.0591687 -2.44298)
(199.255 -0.409566 -2.96165)
(198.052 -0.790368 -3.22032)
(196.626 -1.21981 -3.01363)
(195.313 -1.65589 -2.19276)
(201.228 0.974292 1.97709)
(201.731 0.648192 1.05093)
(201.919 0.284908 0.0474978)
(201.814 -0.0706084 -0.948397)
(201.392 -0.431674 -1.93207)
(200.629 -0.797195 -2.85719)
(199.476 -1.18127 -3.63803)
(197.922 -1.59719 -4.14844)
(195.943 -2.09454 -4.06582)
(194.009 -2.62562 -3.11819)
(201.488 1.9076 1.86889)
(202.061 1.54323 0.841223)
(202.283 1.14873 -0.232206)
(202.181 0.773871 -1.31414)
(201.723 0.406647 -2.39861)
(200.872 0.0425763 -3.45732)
(199.538 -0.343544 -4.39823)
(197.668 -0.773032 -5.0994)
(195.119 -1.3178 -5.1049)
(192.496 -1.94364 -4.03067)
(201.931 1.19803 2.5054)
(202.566 0.712316 1.37411)
(202.817 0.233577 0.154742)
(202.728 -0.193884 -1.06975)
(202.254 -0.590183 -2.32898)
(201.349 -0.957679 -3.60133)
(199.875 -1.31998 -4.80792)
(197.733 -1.70505 -5.82666)
(194.625 -2.21991 -6.09873)
(191.26 -2.86276 -5.07294)
(202.103 2.26067 2.08365)
(202.767 1.74902 0.942821)
(203.03 1.26875 -0.2339)
(202.933 0.855214 -1.44319)
(202.435 0.499017 -2.69406)
(201.482 0.189804 -3.99707)
(199.904 -0.100774 -5.27542)
(197.556 -0.416348 -6.45268)
(193.973 -0.856473 -6.88253)
(189.874 -1.53772 -5.92274)
(202.373 0.926769 2.77434)
(203.053 0.293966 1.60908)
(203.325 -0.261692 0.345703)
(203.237 -0.710464 -0.93538)
(202.741 -1.07289 -2.29216)
(201.775 -1.34861 -3.72521)
(200.142 -1.54516 -5.20037)
(197.642 -1.70508 -6.62827)
(193.7 -1.88871 -7.46299)
(188.787 -2.41772 -6.69932)
(201.736 2.16011 2.04471)
(202.382 1.47795 0.962004)
(202.631 0.96756 -0.16572)
(202.487 0.560973 -1.34742)
(201.919 0.287677 -2.59343)
(200.862 0.135235 -3.93337)
(199.127 0.110543 -5.33057)
(196.471 0.213322 -6.71377)
(192.315 0.385016 -7.61476)
(186.784 0.372574 -6.78042)
(198.745 -0.0977911 0.417419)
(198.883 -0.161986 0.295249)
(198.92 -0.238928 0.106779)
(198.902 -0.309544 -0.0580416)
(198.835 -0.382686 -0.223135)
(198.73 -0.449199 -0.343452)
(198.596 -0.511643 -0.420427)
(198.45 -0.569598 -0.433008)
(198.304 -0.622877 -0.383265)
(198.137 -0.667489 -0.273285)
(199.45 0.532027 0.36659)
(199.598 0.518356 0.0961179)
(199.652 0.45931 -0.177075)
(199.611 0.362285 -0.438385)
(199.476 0.241892 -0.665221)
(199.259 0.10413 -0.83535)
(198.976 -0.0438019 -0.924495)
(198.658 -0.195576 -0.908809)
(198.347 -0.343212 -0.771857)
(198.103 -0.469289 -0.513288)
(199.793 0.206366 1.0012)
(200.027 0.0683192 0.573821)
(200.111 -0.104374 0.0955085)
(200.046 -0.291754 -0.371229)
(199.831 -0.49637 -0.800496)
(199.476 -0.71386 -1.15485)
(198.999 -0.942104 -1.39171)
(198.44 -1.17757 -1.46537)
(197.864 -1.41521 -1.32175)
(197.394 -1.63054 -0.9461)
(199.971 1.02786 0.993648)
(200.3 0.894461 0.423682)
(200.422 0.696723 -0.18125)
(200.338 0.471685 -0.776689)
(200.045 0.223564 -1.33202)
(199.546 -0.0432409 -1.80334)
(198.851 -0.330569 -2.13153)
(197.999 -0.637517 -2.24264)
(197.064 -0.965808 -2.02949)
(196.26 -1.28389 -1.42324)
(200.359 0.640513 1.61406)
(200.782 0.403002 0.882515)
(200.94 0.119107 0.0784434)
(200.848 -0.171147 -0.714203)
(200.493 -0.474501 -1.47966)
(199.867 -0.786698 -2.16745)
(198.96 -1.11514 -2.70366)
(197.8 -1.46608 -2.98644)
(196.444 -1.86199 -2.83126)
(195.209 -2.26494 -2.08425)
(200.564 1.5728 1.49424)
(201.063 1.30285 0.664026)
(201.256 0.988587 -0.211495)
(201.16 0.676916 -1.08938)
(200.754 0.362797 -1.94904)
(200.021 0.0452732 -2.7487)
(198.922 -0.292376 -3.40215)
(197.464 -0.664288 -3.79528)
(195.65 -1.10819 -3.64669)
(193.913 -1.60163 -2.71189)
(200.969 0.871583 2.12815)
(201.539 0.486773 1.18853)
(201.761 0.0906136 0.160653)
(201.67 -0.273601 -0.866101)
(201.233 -0.618548 -1.9011)
(200.421 -0.943717 -2.9022)
(199.161 -1.26725 -3.78711)
(197.427 -1.61134 -4.42063)
(195.142 -2.045 -4.44705)
(192.842 -2.566 -3.4565)
(201.121 1.97976 1.70358)
(201.727 1.57291 0.749735)
(201.965 1.17402 -0.242644)
(201.864 0.821906 -1.26113)
(201.394 0.512521 -2.29413)
(200.518 0.239337 -3.32518)
(199.131 -0.0214448 -4.26541)
(197.174 -0.304692 -5.00126)
(194.471 -0.682406 -5.08921)
(191.598 -1.24041 -4.02887)
(201.397 0.634713 2.42717)
(202.026 0.108193 1.43623)
(202.274 -0.366572 0.340104)
(202.178 -0.752524 -0.767023)
(201.699 -1.06567 -1.92153)
(200.794 -1.30346 -3.09422)
(199.33 -1.47662 -4.22842)
(197.202 -1.62321 -5.18335)
(194.162 -1.79757 -5.56444)
(190.662 -2.23122 -4.57192)
(200.785 1.98316 1.66734)
(201.386 1.41182 0.761111)
(201.621 0.983444 -0.198167)
(201.488 0.639786 -1.20528)
(200.957 0.412339 -2.25145)
(199.981 0.290514 -3.33691)
(198.428 0.2748 -4.39634)
(196.153 0.358498 -5.30977)
(192.897 0.46912 -5.69438)
(188.923 0.42449 -4.59064)
(198.448 -0.191139 0.320955)
(198.554 -0.236345 0.251934)
(198.58 -0.29131 0.122255)
(198.57 -0.339463 0.0168374)
(198.531 -0.391692 -0.0947051)
(198.47 -0.439388 -0.174516)
(198.394 -0.484598 -0.229749)
(198.313 -0.525842 -0.245369)
(198.229 -0.561892 -0.226308)
(198.109 -0.589365 -0.17355)
(199.07 0.397403 0.198842)
(199.167 0.410149 0.0185145)
(199.203 0.385589 -0.156247)
(199.177 0.326094 -0.320755)
(199.09 0.245401 -0.458883)
(198.953 0.149173 -0.55641)
(198.778 0.0446761 -0.599135)
(198.586 -0.0615683 -0.574169)
(198.404 -0.161847 -0.47736)
(198.267 -0.243394 -0.311536)
(199.286 -0.0117391 0.784705)
(199.452 -0.110205 0.480729)
(199.512 -0.235111 0.134227)
(199.467 -0.37373 -0.202484)
(199.317 -0.528318 -0.507655)
(199.072 -0.694388 -0.753055)
(198.753 -0.868084 -0.909926)
(198.391 -1.04382 -0.952115)
(198.036 -1.21387 -0.854288)
(197.76 -1.36049 -0.621607)
(199.384 0.773884 0.716296)
(199.634 0.69509 0.298927)
(199.728 0.555864 -0.146428)
(199.665 0.386483 -0.581985)
(199.444 0.192986 -0.978857)
(199.075 -0.0186927 -1.30033)
(198.577 -0.246039 -1.50359)
(197.991 -0.484631 -1.54011)
(197.385 -0.728305 -1.35764)
(196.891 -0.953637 -0.931305)
(199.675 0.357223 1.29805)
(200.014 0.189186 0.734541)
(200.141 -0.026841 0.106476)
(200.066 -0.257495 -0.508867)
(199.782 -0.505125 -1.09129)
(199.292 -0.763402 -1.59409)
(198.606 -1.03486 -1.95887)
(197.768 -1.31985 -2.11232)
(196.853 -1.62508 -1.95404)
(196.068 -1.91952 -1.41099)
(199.817 1.27072 1.1569)
(200.233 1.07927 0.50509)
(200.394 0.836752 -0.188251)
(200.309 0.5851 -0.880045)
(199.968 0.324196 -1.54238)
(199.367 0.0558369 -2.13051)
(198.499 -0.228875 -2.57179)
(197.4 -0.537689 -2.77534)
(196.135 -0.885178 -2.57446)
(194.995 -1.25578 -1.841)
(200.174 0.568522 1.7765)
(200.664 0.272601 1.01601)
(200.855 -0.0467265 0.170989)
(200.769 -0.349402 -0.668623)
(200.386 -0.642138 -1.49881)
(199.695 -0.921875 -2.26913)
(198.663 -1.20142 -2.90472)
(197.311 -1.4957 -3.28494)
(195.67 -1.84567 -3.19627)
(194.118 -2.24407 -2.37571)
(200.287 1.71272 1.34194)
(200.819 1.40161 0.566604)
(201.027 1.08037 -0.246341)
(200.93 0.788832 -1.07974)
(200.509 0.52729 -1.90785)
(199.742 0.292441 -2.69952)
(198.579 0.066188 -3.36746)
(197.012 -0.177094 -3.79988)
(195.026 -0.484297 -3.70255)
(193.046 -0.909301 -2.75606)
(200.563 0.346376 2.09471)
(201.124 -0.0804903 1.27238)
(201.342 -0.477485 0.342249)
(201.247 -0.803007 -0.592722)
(200.809 -1.06893 -1.55253)
(200.001 -1.27089 -2.49053)
(198.749 -1.42063 -3.34245)
(197.012 -1.54945 -3.96194)
(194.736 -1.70083 -4.0815)
(192.299 -2.0295 -3.14664)
(199.963 1.81508 1.29833)
(200.501 1.34965 0.561838)
(200.715 1.00035 -0.23116)
(200.594 0.717133 -1.06525)
(200.118 0.53248 -1.91723)
(199.252 0.437332 -2.76858)
(197.919 0.427987 -3.54081)
(196.048 0.49505 -4.10898)
(193.579 0.563093 -4.17873)
(190.805 0.519375 -3.11502)
(198.22 -0.255276 0.265564)
(198.308 -0.290203 0.229296)
(198.326 -0.332649 0.135263)
(198.321 -0.366772 0.0656333)
(198.298 -0.405088 -0.0141355)
(198.264 -0.439568 -0.0712309)
(198.221 -0.472178 -0.115534)
(198.175 -0.501209 -0.135281)
(198.125 -0.525302 -0.135977)
(198.032 -0.541785 -0.116865)
(198.789 0.321813 0.077724)
(198.85 0.349713 -0.0407533)
(198.874 0.347636 -0.147491)
(198.858 0.314604 -0.245567)
(198.805 0.26338 -0.324412)
(198.72 0.198945 -0.375527)
(198.614 0.127666 -0.391126)
(198.5 0.0553864 -0.364072)
(198.394 -0.0115621 -0.295305)
(198.314 -0.0638038 -0.185862)
(198.905 -0.167021 0.624314)
(199.018 -0.241184 0.410531)
(199.059 -0.33217 0.162042)
(199.029 -0.433458 -0.0790961)
(198.928 -0.547688 -0.295873)
(198.766 -0.671227 -0.468213)
(198.558 -0.799626 -0.577462)
(198.329 -0.927113 -0.609549)
(198.112 -1.0462 -0.552185)
(197.949 -1.14449 -0.417508)
(198.944 0.580769 0.495156)
(199.127 0.538845 0.197853)
(199.197 0.444252 -0.120085)
(199.151 0.3207 -0.429121)
(198.992 0.174523 -0.704861)
(198.73 0.0121962 -0.919007)
(198.384 -0.161778 -1.04221)
(197.99 -0.341452 -1.04426)
(197.602 -0.518176 -0.901982)
(197.298 -0.675084 -0.609499)
(199.147 0.130339 1.03284)
(199.407 0.0138586 0.608342)
(199.506 -0.146741 0.129069)
(199.448 -0.325422 -0.338017)
(199.23 -0.521952 -0.772654)
(198.861 -0.72924 -1.1358)
(198.361 -0.946584 -1.38413)
(197.772 -1.17057 -1.46902)
(197.163 -1.40028 -1.33809)
(196.665 -1.61013 -0.963438)
(199.227 1.01052 0.865482)
(199.559 0.880555 0.367965)
(199.689 0.699123 -0.165002)
(199.619 0.501843 -0.694362)
(199.345 0.291599 -1.1905)
(198.872 0.0719945 -1.61231)
(198.211 -0.159755 -1.9028)
(197.409 -0.406796 -1.99689)
(196.539 -0.670323 -1.79837)
(195.796 -0.939504 -1.254)
(199.535 0.300826 1.46101)
(199.941 0.0792363 0.860626)
(200.098 -0.171722 0.182816)
(200.023 -0.417023 -0.487216)
(199.704 -0.659047 -1.13801)
(199.139 -0.892834 -1.71944)
(198.327 -1.12693 -2.16926)
(197.306 -1.36928 -2.39205)
(196.149 -1.64301 -2.26712)
(195.113 -1.93543 -1.63831)
(199.597 1.47107 1.01076)
(200.046 1.24302 0.398662)
(200.221 0.992659 -0.246891)
(200.134 0.758434 -0.908289)
(199.774 0.543714 -1.55189)
(199.132 0.347637 -2.14139)
(198.193 0.158055 -2.59913)
(196.982 -0.0429766 -2.83383)
(195.555 -0.283777 -2.65387)
(194.212 -0.5939 -1.88821)
(199.87 0.0719628 1.78918)
(200.352 -0.265852 1.12289)
(200.538 -0.590913 0.350579)
(200.451 -0.860074 -0.421488)
(200.069 -1.08172 -1.2022)
(199.379 -1.25023 -1.93775)
(198.35 -1.37699 -2.56633)
(196.984 -1.48575 -2.95959)
(195.321 -1.60937 -2.94765)
(193.658 -1.84707 -2.17729)
(199.273 1.66533 0.948851)
(199.735 1.29742 0.369679)
(199.923 1.02204 -0.264882)
(199.817 0.795433 -0.933836)
(199.404 0.649958 -1.60462)
(198.667 0.57782 -2.24935)
(197.565 0.572981 -2.78798)
(196.083 0.626019 -3.11419)
(194.26 0.664669 -3.01049)
(192.372 0.633304 -2.10659)
(198.04 -0.303943 0.237321)
(198.115 -0.333312 0.220792)
(198.128 -0.369004 0.147554)
(198.126 -0.394697 0.0986084)
(198.114 -0.424084 0.0371622)
(198.094 -0.449649 -0.00777615)
(198.07 -0.473449 -0.0469422)
(198.044 -0.493895 -0.0705458)
(198.013 -0.509827 -0.0839849)
(197.934 -0.519195 -0.0850682)
(198.576 0.290116 -0.0116747)
(198.615 0.326852 -0.0882088)
(198.631 0.339145 -0.148679)
(198.621 0.324395 -0.201737)
(198.589 0.294433 -0.24117)
(198.538 0.253387 -0.262168)
(198.474 0.206486 -0.260885)
(198.407 0.158577 -0.233056)
(198.344 0.114455 -0.181777)
(198.297 0.0811831 -0.105096)
(198.614 -0.272363 0.508957)
(198.688 -0.332243 0.358899)
(198.716 -0.399876 0.180775)
(198.696 -0.473651 0.00750558)
(198.631 -0.556806 -0.148026)
(198.526 -0.646695 -0.272268)
(198.394 -0.739227 -0.353315)
(198.252 -0.829366 -0.384098)
(198.121 -0.910987 -0.357695)
(198.024 -0.975665 -0.288143)
(198.62 0.441873 0.323468)
(198.748 0.423374 0.117728)
(198.799 0.361498 -0.102128)
(198.767 0.274216 -0.314476)
(198.657 0.167325 -0.500363)
(198.476 0.0469768 -0.639088)
(198.242 -0.0819223 -0.711426)
(197.983 -0.213299 -0.699073)
(197.736 -0.33876 -0.593662)
(197.549 -0.446685 -0.394928)