/*--------------------------------*- C++ -*----------------------------------*\
| =========                 |                                                 |
| \\      /  F ield         | foam-extend: Open Source CFD                    |
|  \\    /   O peration     | Version:     4.0                                |
|   \\  /    A nd           | Web:         http://www.foam-extend.org         |
|    \\/     M anipulation  |                                                 |
\*---------------------------------------------------------------------------*/
FoamFile
{
    version     2.0;
    format      ascii;
    class       volScalarField;
    location    "1800";
    object      divFlux;
}
// * * * * * * * * * * * * * * * * * * * * * * * * * * * * * * * * * * * * * //

dimensions      [1 -3 -1 0 0 0 0];

internalField   nonuniform List<scalar> 
34480
(
0.0804782
0.0256786
0.0262653
0.0242671
0.0220555
0.019946
0.0179753
0.0161892
0.0146467
0.013345
0.0209771
0.0105976
0.0106708
0.0103233
0.0100004
0.00961072
0.00907624
0.00842538
0.00774055
0.00709067
0.00497872
0.00326822
0.00333104
0.00338395
0.00348924
0.0035812
0.00357398
0.00344102
0.00321953
0.00295886
0.00145447
0.00108003
0.0011035
0.00113822
0.00119952
0.00126739
0.0013042
0.00128685
0.00121984
0.00112061
0.000455697
0.000364932
0.000373937
0.000388938
0.000414874
0.000446435
0.00046944
0.000472028
0.00045173
0.000413959
0.000147697
0.000124742
0.000129039
0.000136003
0.000147376
0.000161658
0.000173483
0.000177547
0.000171413
0.000158519
4.80377e-05
4.25024e-05
4.5019e-05
4.87546e-05
5.43621e-05
6.13982e-05
6.77532e-05
7.10124e-05
6.94998e-05
6.50662e-05
1.4937e-05
1.41484e-05
1.60291e-05
1.8504e-05
2.18295e-05
2.58658e-05
2.96999e-05
3.21387e-05
3.20768e-05
3.0294e-05
3.09383e-06
4.0543e-06
6.15246e-06
8.46899e-06
1.10341e-05
1.37409e-05
1.61956e-05
1.78746e-05
1.81026e-05
1.708e-05
1.36239e-06
2.92524e-07
2.57424e-06
4.93872e-06
7.29704e-06
9.49649e-06
1.13385e-05
1.25943e-05
1.28735e-05
1.21337e-05
0.104154
0.0297829
0.0304161
0.0284748
0.0262968
0.0243692
0.0227371
0.0214672
0.020685
0.0218363
0.0295596
0.0136005
0.0137218
0.0133158
0.0129108
0.0125917
0.0123125
0.0120339
0.0117939
0.0126217
0.00755033
0.00462456
0.00472581
0.0048078
0.00496341
0.00512929
0.00526371
0.00532746
0.0053074
0.00569974
0.00241879
0.00170407
0.00174142
0.001793
0.00189212
0.00200632
0.00210849
0.00217403
0.00218097
0.00233177
0.000826832
0.000636788
0.000650931
0.000675395
0.000719791
0.000777118
0.000831266
0.000869538
0.000875806
0.000929522
0.000289769
0.000238823
0.000246475
0.00025935
0.00028051
0.000308908
0.000336636
0.00035729
0.000361075
0.000379616
0.000100768
8.89049e-05
9.4449e-05
0.00010257
0.000114342
0.000129839
0.000145288
0.000157181
0.000159527
0.000166001
3.30267e-05
3.29541e-05
3.80766e-05
4.44988e-05
5.26141e-05
6.25055e-05
7.22635e-05
7.97271e-05
8.08433e-05
8.20831e-05
6.489e-06
1.238e-05
1.91366e-05
2.61681e-05
3.33029e-05
4.04097e-05
4.67196e-05
5.11166e-05
5.08232e-05
4.93416e-05
4.29766e-06
4.18041e-06
1.2082e-05
1.99348e-05
2.72217e-05
3.36146e-05
3.85704e-05
4.13576e-05
4.03247e-05
3.76743e-05
0.104999
0.0257292
0.0267748
0.025401
0.0238845
0.022618
0.0216732
0.0211377
0.021249
0.018662
0.0287884
0.0112402
0.011469
0.0110565
0.0106981
0.0105298
0.0105282
0.0106741
0.011073
0.00431465
0.00693219
0.00364261
0.00371374
0.00371478
0.00376581
0.00389186
0.0040922
0.00433806
0.00464856
0.00169593
0.00211007
0.0012895
0.00130769
0.00131918
0.00135956
0.00142832
0.00153323
0.00166281
0.00181523
0.00213793
0.000688901
0.000465516
0.000470517
0.000475711
0.000493924
0.000524323
0.000570466
0.00062956
0.000697684
0.000831765
0.000232945
0.000169801
0.000172236
0.000175446
0.00018377
0.000197673
0.000218322
0.000245281
0.000275756
0.000331613
7.99981e-05
6.23359e-05
6.4254e-05
6.67162e-05
7.12576e-05
7.83757e-05
8.85445e-05
0.000101828
0.000116457
0.000141151
2.78003e-05
2.3534e-05
2.54117e-05
2.7637e-05
3.07329e-05
3.50202e-05
4.07859e-05
4.8141e-05
5.59463e-05
6.79641e-05
9.94616e-06
1.02775e-05
1.26425e-05
1.52025e-05
1.80072e-05
2.11017e-05
2.46747e-05
2.89218e-05
3.34122e-05
4.04824e-05
3.51323e-06
5.21276e-06
7.48488e-06
9.96157e-06
1.25965e-05
1.53021e-05
1.79816e-05
2.07102e-05
2.37335e-05
2.96741e-05
0.106303
0.0234185
0.0246211
0.0236626
0.0225366
0.0216147
0.0209742
0.0193553
0.0102395
0.00739427
0.0296771
0.0106463
0.0108991
0.0104842
0.010095
0.00986404
0.00981258
0.0099525
0.00917305
0.00329455
0.00719565
0.00353086
0.00359532
0.00355553
0.00355005
0.00361413
0.00375885
0.00398166
0.0042841
0.000824308
0.00221983
0.0012834
0.00129944
0.00129806
0.00131482
0.00135813
0.00143735
0.00155232
0.00170109
0.00047652
0.000734669
0.00047481
0.000479305
0.000480565
0.000491459
0.000512018
0.00054805
0.000600454
0.00066746
0.000550654
0.000251941
0.00017709
0.000179364
0.000181385
0.00018734
0.0001976
0.000214393
0.000238679
0.000269235
0.000316354
8.81472e-05
6.65487e-05
6.83889e-05
7.04555e-05
7.41898e-05
7.9915e-05
8.85868e-05
0.000100874
0.000115974
0.000137559
3.1814e-05
2.59761e-05
2.77857e-05
2.98471e-05
3.26288e-05
3.63496e-05
4.15187e-05
4.85658e-05
5.69611e-05
6.81226e-05
1.28566e-05
1.20798e-05
1.43139e-05
1.67779e-05
1.94911e-05
2.24467e-05
2.58955e-05
3.01906e-05
3.53158e-05
4.26088e-05
5.87838e-06
6.61857e-06
8.71879e-06
1.10883e-05
1.36835e-05
1.64014e-05
1.92173e-05
2.2261e-05
2.58962e-05
3.24294e-05
0.105368
0.0208926
0.0222039
0.0215669
0.0207129
0.0199952
0.0175085
0.0136532
0.00882904
0.000289197
0.0299447
0.0098706
0.0101729
0.00981289
0.00943613
0.00915994
0.00901097
0.00900852
0.00634711
0.000441437
0.00738858
0.00337436
0.00343941
0.00337454
0.00332859
0.00333355
0.00339941
0.00353248
0.00356597
0.000157781
0.00231567
0.00126072
0.00127721
0.00126553
0.00126473
0.0012837
0.00132931
0.0014049
0.00150797
0.000589588
0.000776632
0.000477836
0.000482668
0.000481624
0.000485817
0.000497446
0.000520462
0.000556848
0.000605735
0.000490405
0.000269512
0.000181945
0.000184501
0.000185748
0.000189722
0.00019659
0.000208341
0.000226136
0.000249623
0.000285384
9.56543e-05
6.98022e-05
7.17637e-05
7.36304e-05
7.67068e-05
8.11423e-05
8.77852e-05
9.73464e-05
0.000109668
0.000130445
3.54435e-05
2.79888e-05
2.98196e-05
3.18149e-05
3.43707e-05
3.75845e-05
4.18902e-05
4.77422e-05
5.50733e-05
5.31644e-05
1.53382e-05
1.35503e-05
1.56898e-05
1.80773e-05
2.07221e-05
2.35594e-05
2.67759e-05
3.07062e-05
3.55856e-05
3.65885e-05
7.86018e-06
7.77315e-06
9.72805e-06
1.19754e-05
1.44831e-05
1.7152e-05
1.99968e-05
2.31566e-05
2.69695e-05
3.3778e-05
0.102334
0.0182469
0.0195891
0.0191893
0.0183886
0.0165946
0.0145398
0.0125016
0.0101556
0.0064321
0.0294442
0.00892619
0.00927094
0.0089873
0.00866077
0.00839356
0.00820451
0.00762326
0.00567196
0.00207004
0.00748911
0.00317282
0.00324205
0.00316515
0.00309487
0.00305855
0.0030625
0.0031112
0.00298105
0.00107044
0.00238981
0.00122105
0.00123886
0.00121976
0.00120605
0.00120587
0.00122344
0.00126108
0.00133135
0.000797076
0.00081227
0.000474155
0.000479953
0.000476444
0.000475628
0.000479933
0.000491795
0.000512574
0.00054079
0.000493239
0.000285099
0.000184303
0.000187279
0.000187986
0.000190075
0.000194109
0.0002014
0.000212727
0.000227624
0.000251003
0.000102514
7.21385e-05
7.42865e-05
7.59769e-05
7.84342e-05
8.17344e-05
8.65157e-05
9.32611e-05
0.00010186
8.80413e-05
3.88028e-05
2.96271e-05
3.15031e-05
3.34376e-05
3.57716e-05
3.85274e-05
4.20172e-05
4.65646e-05
5.21975e-05
2.86299e-06
1.75568e-05
1.47748e-05
1.68281e-05
1.91184e-05
2.16624e-05
2.43742e-05
2.73666e-05
3.08653e-05
3.51109e-05
2.40293e-05
9.61107e-06
8.74799e-06
1.05733e-05
1.26869e-05
1.50676e-05
1.76352e-05
2.04203e-05
2.35377e-05
2.72424e-05
1.72302e-05
0.0971696
0.0151849
0.0164007
0.0159087
0.0148807
0.0138809
0.0126797
0.0116455
0.010382
0.00872048
0.0282221
0.00787452
0.00824087
0.00803053
0.00776448
0.0075351
0.00732926
0.0067281
0.00550458
0.0035502
0.00746317
0.00292827
0.00300522
0.00292974
0.00285204
0.00279558
0.0027642
0.00275998
0.00261536
0.00148276
0.00243068
0.00116285
0.00118336
0.00116112
0.00114028
0.00112802
0.00112674
0.00113744
0.00122695
0.000861522
0.000837497
0.000462661
0.000469678
0.000464743
0.00046072
0.000459904
0.00046373
0.000472812
0.000485003
0.000469115
0.000297409
0.000183599
0.000187095
0.000187341
0.000188079
0.000190014
0.000193918
0.000200176
0.000208029
0.000216992
0.000108364
7.33331e-05
7.56634e-05
7.72158e-05
7.91224e-05
8.15181e-05
8.48132e-05
8.92497e-05
9.45825e-05
5.50145e-05
4.1815e-05
3.08127e-05
3.27177e-05
3.45675e-05
3.66808e-05
3.9045e-05
4.18574e-05
4.52905e-05
4.93052e-05
4.45218e-05
1.95529e-05
1.57487e-05
1.77032e-05
1.98597e-05
2.22546e-05
2.48113e-05
2.75888e-05
3.06993e-05
3.42706e-05
7.34452e-05
1.11936e-05
9.55185e-06
1.12489e-05
1.32067e-05
1.54224e-05
1.7834e-05
2.04751e-05
2.34266e-05
2.68462e-05
6.67499e-05
0.0902692
0.0119065
0.0131723
0.0130638
0.0124527
0.0118884
0.0111439
0.0106233
0.00984211
0.00913726
0.0264473
0.00679341
0.00715897
0.00700769
0.00679449
0.00660465
0.00638696
0.00598267
0.00527037
0.00422961
0.00726789
0.00264314
0.00272783
0.00266323
0.002591
0.00253223
0.00248968
0.00248687
0.00234433
0.00165497
0.00242262
0.00108433
0.00110835
0.00108705
0.00106475
0.00104779
0.00103748
0.00103411
0.001111
0.000849156
0.000847434
0.000442276
0.000450691
0.000445516
0.000440198
0.000436772
0.000436008
0.000438068
0.000463894
0.000427726
0.00030487
0.000179282
0.000183287
0.000183309
0.00018333
0.000183994
0.00018572
0.000188623
0.000193422
0.000185606
0.00011269
7.31253e-05
7.55947e-05
7.70128e-05
7.85264e-05
8.03027e-05
8.25414e-05
8.53229e-05
8.82771e-05
3.61673e-05
4.43146e-05
3.14268e-05
3.33162e-05
3.50555e-05
3.69506e-05
3.90004e-05
4.12912e-05
4.38758e-05
4.66242e-05
6.31928e-05
2.12934e-05
1.64274e-05
1.82568e-05
2.0237e-05
2.24339e-05
2.47931e-05
2.73336e-05
3.00891e-05
3.30809e-05
9.21585e-05
1.26091e-05
1.01603e-05
1.17203e-05
1.34976e-05
1.55112e-05
1.77174e-05
2.014e-05
2.28245e-05
2.58558e-05
8.86593e-05
0.0836178
0.00965708
0.0108208
0.0108891
0.0104994
0.0101644
0.00965886
0.00939215
0.00883569
0.0085684
0.0243135
0.00574861
0.00609594
0.00598939
0.00581869
0.00566676
0.00547712
0.0052065
0.00478927
0.00421739
0.00689967
0.00232815
0.00241662
0.0023652
0.00230331
0.00225066
0.00220976
0.00221098
0.00209263
0.00167952
0.00235591
0.000986342
0.00101309
0.000994743
0.000974211
0.000957268
0.000944747
0.000936676
0.000987097
0.000805336
0.000838306
0.000412752
0.000422298
0.000417591
0.000412252
0.000408095
0.000405518
0.000404471
0.000429826
0.000383968
0.000306101
0.000171077
0.000175437
0.000175396
0.000175132
0.000175215
0.000175832
0.000176952
0.000191342
0.000158762
0.000114964
7.13184e-05
7.38396e-05
7.51064e-05
7.63592e-05
7.77433e-05
7.93307e-05
8.10907e-05
8.2596e-05
2.70651e-05
4.60933e-05
3.13602e-05
3.3177e-05
3.4753e-05
3.64316e-05
3.82198e-05
4.01243e-05
4.21164e-05
4.21924e-05
6.70174e-05
2.26952e-05
1.67533e-05
1.84252e-05
2.01911e-05
2.21449e-05
2.42571e-05
2.65193e-05
2.89193e-05
3.14116e-05
8.71358e-05
1.38176e-05
1.05378e-05
1.19447e-05
1.35176e-05
1.52974e-05
1.72564e-05
1.94025e-05
2.17515e-05
2.43367e-05
8.99976e-05
0.0769169
0.00794445
0.00894442
0.00908358
0.00881426
0.00860262
0.00822836
0.00809158
0.00765447
0.00758741
0.0219829
0.0047827
0.00509998
0.00502648
0.00490155
0.00477244
0.0046163
0.0044309
0.00417671
0.00383934
0.00639626
0.00200245
0.00208939
0.00204937
0.00199739
0.00195191
0.00191555
0.00191309
0.0018239
0.0015758
0.00223353
0.00087413
0.00090182
0.000886584
0.000868534
0.000853088
0.000840935
0.000832058
0.00085745
0.000736465
0.000809197
0.000375292
0.000385338
0.000381214
0.000376249
0.000372116
0.000369042
0.000366925
0.000381807
0.0003404
0.000300329
0.000159151
0.000163608
0.000163499
0.000163096
0.00016291
0.000163015
0.00016332
0.000175827
0.000136237
0.000114765
6.78596e-05
7.03121e-05
7.13852e-05
7.24069e-05
7.35054e-05
7.46842e-05
7.58647e-05
7.66102e-05
2.47576e-05
4.69443e-05
3.05406e-05
3.22214e-05
3.3585e-05
3.50289e-05
3.65588e-05
3.81444e-05
3.97179e-05
2.93999e-05
6.17345e-05
2.36517e-05
1.66733e-05
1.81589e-05
1.96748e-05
2.13547e-05
2.31795e-05
2.51206e-05
2.71423e-05
2.9167e-05
7.00562e-05
1.47517e-05
1.06415e-05
1.1879e-05
1.32289e-05
1.47545e-05
1.64398e-05
1.82727e-05
2.02489e-05
2.10771e-05
7.96861e-05
0.0699001
0.00650008
0.00732046
0.00747831
0.00727864
0.00713749
0.00684355
0.00678304
0.00642365
0.00645644
0.019567
0.00395749
0.00420251
0.00416494
0.0040628
0.00394551
0.00382252
0.00369282
0.0035317
0.00331472
0.0058033
0.00168415
0.00176519
0.00173418
0.00169054
0.00165132
0.00163925
0.00161247
0.0015449
0.00138799
0.00206606
0.000754949
0.000781775
0.000769154
0.000753325
0.000739391
0.000728021
0.000719221
0.000727297
0.000645521
0.000761668
0.000332149
0.000342007
0.000338334
0.000333704
0.00032968
0.000326428
0.000323851
0.000329389
0.000294945
0.000287455
0.000144086
0.000148368
0.000148124
0.000147561
0.00014715
0.000146916
0.00014676
0.000154208
0.000115939
0.000111832
6.28427e-05
6.51091e-05
6.59414e-05
6.67064e-05
6.75259e-05
6.83733e-05
6.91594e-05
6.94744e-05
2.6149e-05
4.66825e-05
2.89481e-05
3.04411e-05
3.15564e-05
3.2736e-05
3.39874e-05
3.52639e-05
3.64863e-05
2.03063e-05
5.27058e-05
2.40424e-05
1.61485e-05
1.7425e-05
1.86768e-05
2.00673e-05
2.15785e-05
2.31729e-05
2.48033e-05
2.63775e-05
4.96503e-05
1.53273e-05
1.04376e-05
1.14962e-05
1.26126e-05
1.38784e-05
1.52751e-05
1.67823e-05
1.83792e-05
7.94482e-06
6.50425e-05
0.0634711
0.00536257
0.00602306
0.00617557
0.00601131
0.00589538
0.00562924
0.00558573
0.00523817
0.00527457
0.0171505
0.00321748
0.00341656
0.00338067
0.00329312
0.00319674
0.00310298
0.00301185
0.00290774
0.00275785
0.00515621
0.00138513
0.00145722
0.00143318
0.00139762
0.00138207
0.00135916
0.00132532
0.00127278
0.00116653
0.00186472
0.000635197
0.000659743
0.000649249
0.000635372
0.000622841
0.000612329
0.000603863
0.000601639
0.000543987
0.000698356
0.000285793
0.000294897
0.000291562
0.000287206
0.000283282
0.000279933
0.000277082
0.000276979
0.000248071
0.000267859
0.000126692
0.000130579
0.000130163
0.000129416
0.000128772
0.000128238
0.000127727
0.000130321
9.60936e-05
0.000106073
5.64851e-05
5.84785e-05
5.90479e-05
5.95418e-05
6.00718e-05
6.06014e-05
6.10495e-05
6.1047e-05
2.8378e-05
4.51728e-05
2.66196e-05
2.78885e-05
2.87449e-05
2.96496e-05
3.06095e-05
3.15747e-05
3.24696e-05
1.22415e-05
4.45135e-05
2.37552e-05
1.51673e-05
1.62264e-05
1.7213e-05
1.83135e-05
1.95103e-05
2.07599e-05
2.20104e-05
2.31685e-05
2.94349e-05
1.54578e-05
9.91045e-06
1.07857e-05
1.16735e-05
1.26826e-05
1.37955e-05
1.49831e-05
1.62191e-05
1.46846e-06
5.05078e-05
0.054508
0.00402488
0.00455369
0.00475979
0.00471502
0.00472434
0.00460025
0.00470055
0.00449352
0.00466457
0.0147596
0.00251866
0.00269231
0.0026703
0.00260489
0.00252991
0.00245748
0.00238834
0.00231214
0.00218917
0.00450376
0.0011423
0.00120334
0.00118466
0.00115509
0.00112458
0.0010932
0.00105954
0.00101729
0.000940645
0.00163901
0.000519505
0.000540766
0.000532021
0.000519956
0.000508824
0.000499288
0.000491397
0.000484057
0.000441939
0.000622119
0.000238427
0.000246368
0.00024333
0.000239274
0.000235514
0.00023219
0.000229247
0.000226563
0.000201836
0.000242212
0.000107838
0.000111182
0.00011061
0.000109709
0.000108873
0.000108105
0.000108088
0.000105898
7.64347e-05
9.75535e-05
4.90921e-05
5.07606e-05
5.10819e-05
5.13236e-05
5.15853e-05
5.18312e-05
5.19921e-05
5.17433e-05
3.03607e-05
4.23474e-05
2.36459e-05
2.46777e-05
2.52877e-05
2.59311e-05
2.66132e-05
2.72875e-05
2.34779e-05
3.5947e-06
3.94556e-05
2.27075e-05
1.37515e-05
1.45951e-05
1.53339e-05
1.61623e-05
1.70627e-05
1.79925e-05
1.89027e-05
1.96977e-05
1.04616e-05
1.50689e-05
9.06607e-06
9.76396e-06
1.04378e-05
1.12076e-05
1.20543e-05
1.29487e-05
1.38609e-05
1.91565e-06
3.84075e-05
0.0540409
0.00338285
0.00359661
0.00351127
0.00318739
0.00290065
0.0025001
0.0023452
0.0018958
0.00185574
0.0124243
0.00190016
0.0020645
0.00206256
0.00202559
0.00198768
0.00195783
0.00193737
0.00191926
0.00186055
0.00378114
0.000900318
0.000958833
0.000944442
0.000915327
0.000884087
0.000852999
0.000822138
0.000786504
0.000726755
0.00139625
0.000411016
0.00042843
0.000421239
0.000410996
0.000401375
0.000392991
0.000385905
0.000377461
0.000345774
0.000535831
0.000191907
0.000198433
0.000195714
0.00019204
0.000188568
0.00018543
0.000182587
0.000179042
0.000157769
0.000211423
8.83923e-05
9.11117e-05
9.0439e-05
8.94566e-05
8.85137e-05
8.76141e-05
8.8418e-05
8.17842e-05
5.7229e-05
8.65015e-05
4.10268e-05
4.23524e-05
4.24701e-05
4.25084e-05
4.25558e-05
4.25804e-05
4.25272e-05
4.21162e-05
3.21672e-05
3.82281e-05
2.01716e-05
2.09708e-05
2.13674e-05
2.17841e-05
2.22266e-05
1.9818e-05
9.70395e-06
6.76632e-06
3.83502e-05
2.08674e-05
1.1961e-05
1.2604e-05
1.31241e-05
1.37129e-05
1.4353e-05
1.50051e-05
1.56277e-05
1.61286e-05
7.35397e-06
1.41184e-05
7.94211e-06
8.47517e-06
8.96103e-06
9.51851e-06
1.01309e-05
1.07695e-05
1.14077e-05
4.10438e-06
2.94409e-05
0.0407495
0.0038413
0.00473011
0.00550324
0.00606349
0.00653418
0.00673933
0.00701342
0.00680169
0.00687879
0.0101555
0.00139762
0.00145967
0.00138355
0.00127573
0.00116889
0.00107419
0.000994016
0.000923419
0.000829872
0.0030233
0.000650131
0.000715144
0.000710773
0.000688816
0.000662891
0.000637081
0.000612933
0.000587281
0.000546935
0.0011424
0.000311328
0.000324662
0.000318929
0.000310639
0.000302771
0.000295839
0.000289878
0.000282707
0.000259402
0.000442465
0.000147739
0.000152747
0.000150399
0.000147223
0.000144186
0.000141403
0.000138845
0.000134704
0.000116684
0.000176682
6.91941e-05
7.1265e-05
7.05663e-05
6.95952e-05
6.95262e-05
7.01818e-05
6.64442e-05
5.84197e-05
3.87367e-05
7.33371e-05
3.26972e-05
3.36888e-05
3.36632e-05
3.35633e-05
3.3467e-05
3.33475e-05
3.31621e-05
3.26778e-05
3.02157e-05
0.000225647
7.75459e-05
3.4805e-05
2.41975e-05
1.87397e-05
1.2444e-05
3.6948e-06
6.43951e-06
2.03552e-05
4.21268e-05
1.82761e-05
9.89564e-06
1.03611e-05
1.07027e-05
1.10937e-05
1.15193e-05
1.19477e-05
1.23404e-05
1.26219e-05
1.26639e-05
1.26098e-05
6.6065e-06
6.99324e-06
7.32348e-06
7.70424e-06
8.12204e-06
8.55145e-06
8.22253e-06
5.11355e-06
2.26232e-05
0.00860619
0.00639487
0.00893889
0.0104599
0.0112143
0.0112417
0.0108522
0.00996347
0.00917309
0.00792026
0.00845973
0.00150923
0.00177633
0.0019441
0.00205525
0.00211706
0.00213521
0.00211776
0.00207065
0.00201699
0.00232944
0.000428227
0.000503936
0.00050387
0.000482082
0.000453521
0.000423728
0.00039464
0.000363785
0.000324327
0.00089146
0.000224521
0.000233618
0.000228746
0.00022192
0.000215525
0.000210026
0.000205451
0.000200059
0.000183748
0.000345974
0.000107492
0.000111046
0.000109128
0.000106537
0.000104264
0.000102483
9.92998e-05
9.38536e-05
7.92744e-05
0.000200326
8.30866e-05
6.88007e-05
6.23731e-05
5.84527e-05
5.45966e-05
4.98562e-05
4.40363e-05
3.63573e-05
2.14462e-05
5.87016e-05
2.45374e-05
2.52262e-05
2.51218e-05
2.49548e-05
2.47855e-05
2.45973e-05
2.43576e-05
2.38768e-05
2.17463e-05
0.000620597
0.000250295
9.83381e-05
3.84362e-05
1.05698e-05
5.64685e-06
1.79538e-05
2.77452e-05
3.99869e-05
5.29025e-05
1.50636e-05
7.69151e-06
8.0073e-06
8.21427e-06
8.45424e-06
8.71582e-06
8.9736e-06
9.19825e-06
9.32786e-06
9.16516e-06
1.061e-05
5.15141e-06
5.4171e-06
5.62617e-06
5.86929e-06
6.13499e-06
6.40446e-06
4.95916e-06
2.83148e-06
1.496e-05
0.320369
0.0421317
0.0451948
0.0422711
0.0377382
0.0328586
0.0281269
0.0237451
0.0196316
0.0162547
0.000444894
0.00167683
0.00205465
0.00229759
0.00237257
0.00229573
0.00210488
0.00183818
0.00152395
0.00122758
0.00128931
0.000192118
0.00034309
0.000394378
0.000405695
0.000395259
0.000373951
0.000347977
0.000317891
0.000277691
0.000632714
0.000147203
0.00015325
0.000150307
0.000145768
0.000141161
0.000136845
0.000132969
0.000128492
0.000116411
0.000259059
8.09197e-05
8.16101e-05
7.82922e-05
7.45079e-05
7.06661e-05
6.67182e-05
6.26366e-05
5.74951e-05
4.67949e-05
0.000183114
8.24785e-05
6.08417e-05
4.86249e-05
4.05776e-05
3.42889e-05
2.86634e-05
2.33121e-05
1.70957e-05
6.70469e-06
4.34787e-05
1.69849e-05
1.74162e-05
1.7289e-05
1.71144e-05
1.69372e-05
1.6743e-05
1.65103e-05
1.60952e-05
1.44012e-05
0.00101939
0.000406116
0.00014264
3.68125e-05
1.01534e-05
3.4017e-05
4.86883e-05
5.80709e-05
6.93727e-05
7.37426e-05
1.14523e-05
5.5023e-06
5.70151e-06
5.81421e-06
5.94763e-06
6.09401e-06
6.23357e-06
6.3459e-06
6.38268e-06
6.13022e-06
8.25296e-06
3.68998e-06
3.85829e-06
3.98145e-06
4.12507e-06
4.28039e-06
4.43375e-06
4.57256e-06
3.71781e-06
4.34664e-06
1.53546
0.0688779
0.0684863
0.0584268
0.0475939
0.0379453
0.0297923
0.0229975
0.0174423
0.0125571
0.0221907
0.00839325
0.00823551
0.00762288
0.00676906
0.00581287
0.00483945
0.00389103
0.00297309
0.00215271
0.00130668
0.000199181
7.05878e-05
3.59489e-05
1.38125e-05
5.74321e-06
2.70545e-05
5.21947e-05
8.25784e-05
0.00012545
0.000424919
8.90691e-05
9.31212e-05
9.07345e-05
8.6899e-05
8.28378e-05
7.8765e-05
7.45212e-05
6.9014e-05
5.76397e-05
0.000167162
4.8461e-05
4.83219e-05
4.50407e-05
4.13547e-05
3.77714e-05
3.43771e-05
3.11794e-05
2.7439e-05
2.06858e-05
0.000115858
5.03463e-05
3.49333e-05
2.58608e-05
1.97642e-05
1.51542e-05
1.12763e-05
7.81352e-06
3.71245e-06
2.88768e-06
2.87172e-05
1.04351e-05
1.06639e-05
1.05584e-05
1.04211e-05
1.0279e-05
1.01254e-05
9.94356e-06
9.63269e-06
8.42639e-06
0.00121881
0.000465968
0.000137546
8.77518e-06
4.61377e-05
7.21303e-05
8.65152e-05
9.48522e-05
0.000105315
0.00010219
7.74461e-06
3.48911e-06
3.59993e-06
3.65542e-06
3.72185e-06
3.79442e-06
3.85943e-06
3.90568e-06
3.898e-06
3.64478e-06
5.73416e-06
2.3368e-06
2.43105e-06
2.49694e-06
2.57384e-06
2.65542e-06
2.7333e-06
6.65918e-07
1.31002e-06
5.41785e-06
2.85219
0.0290026
0.0277385
0.0240557
0.0200507
0.0162762
0.0128825
0.0099049
0.0069586
0.00484537
0.0183904
0.0126642
0.0107592
0.00867533
0.00677982
0.00514291
0.00374447
0.00253586
0.00145649
0.000529292
8.02245e-05
7.75314e-06
0.000203899
0.000236322
0.000212828
0.000159402
9.02835e-05
1.16012e-05
7.50277e-05
0.000162609
0.000199039
3.66033e-05
3.8407e-05
3.99053e-05
4.19591e-05
4.46331e-05
4.80058e-05
5.22483e-05
5.69748e-05
5.75095e-05
8.38291e-05
1.88404e-05
1.8368e-05
1.65855e-05
1.46198e-05
1.2687e-05
1.07986e-05
8.92915e-06
6.62355e-06
2.53032e-06
4.61757e-05
1.63258e-05
1.09404e-05
7.6667e-06
5.38224e-06
3.63157e-06
2.13759e-06
7.51475e-07
1.24765e-06
5.34511e-06
1.55826e-05
5.19113e-06
5.27211e-06
5.20873e-06
5.13009e-06
5.04731e-06
4.95632e-06
4.84576e-06
4.65752e-06
3.93556e-06
0.000752872
0.000275419
4.52384e-05
4.21863e-05
7.85164e-05
9.5085e-05
0.000103908
0.000109186
0.000117345
0.000112311
4.2909e-06
1.78906e-06
1.83789e-06
1.86159e-06
1.89075e-06
1.92077e-06
1.9459e-06
1.95906e-06
1.93838e-06
1.74948e-06
0.000164901
0.000164211
0.000136562
0.000111591
9.66335e-05
8.84795e-05
8.43915e-05
8.37576e-05
8.16026e-05
8.33245e-05
0.584714
0.024076
0.0202659
0.016228
0.0126565
0.00965391
0.0071538
0.00506398
0.00327634
0.00187845
0.00234191
0.00269705
0.00232406
0.00187363
0.00143629
0.00103409
0.000666161
0.000323128
8.45021e-06
0.000322929
0.000222529
0.000104186
5.7254e-05
3.89303e-05
2.03935e-05
9.68208e-07
2.01427e-05
4.36798e-05
7.06001e-05
9.41166e-05
6.70782e-05
1.39962e-05
1.26795e-05
1.06515e-05
8.44423e-06
6.13606e-06
3.69762e-06
1.08831e-06
1.78564e-06
4.79737e-06
2.38105e-05
4.17287e-06
4.13764e-06
3.88247e-06
3.59994e-06
3.33278e-06
3.07381e-06
2.79695e-06
2.23736e-06
3.27738e-08
9.46434e-06
1.98723e-06
1.51627e-06
1.19749e-06
9.60301e-07
7.72454e-07
5.98354e-07
3.9139e-07
2.30897e-07
3.0021e-06
4.99153e-06
1.7276e-06
1.73256e-06
1.70721e-06
1.67963e-06
1.65044e-06
1.61589e-06
1.57281e-06
1.49453e-06
1.19861e-06
1.89787e-05
2.94209e-07
3.36439e-05
4.65161e-05
5.20828e-05
5.47107e-05
5.62779e-05
5.75888e-05
6.10338e-05
6.32839e-05
1.41239e-06
6.13467e-07
6.24841e-07
6.32657e-07
6.42378e-07
6.52086e-07
6.58994e-07
6.60304e-07
6.47733e-07
5.57297e-07
0.00050085
0.000409082
0.00036103
0.000329772
0.000311598
0.000301642
0.000296539
0.000294604
0.000293101
0.000300036
1.26921
1.28148
1.47577
1.91279
0.95951
1.01142
1.20805
1.78646
0.529271
0.510085
0.714158
1.18256
0.222426
0.187277
0.335697
0.598914
0.0640163
0.0484036
0.11086
0.207534
0.000411021
0.00134258
0.00771444
0.0245536
0.0240623
0.0140648
0.0338591
0.0674786
0.0309988
0.0174802
0.0458853
0.101582
0.0323292
0.0174231
0.0502389
0.119703
0.0295246
0.0150892
0.0498781
0.126432
0.104797
0.0186679
0.0299952
0.0589787
0.120253
0.0293814
0.0263023
0.0418736
0.0840492
0.0217015
0.0145238
0.0253417
0.0445137
0.0105955
0.00337662
0.0205771
0.0169059
0.00261892
0.000118234
0.0100792
0.00135909
0.000559858
0.0010327
0.000230437
0.00594827
0.000834745
0.000553703
0.000639373
0.00910305
0.000263494
0.000275513
0.000275136
0.010853
0.000156661
0.000171905
0.000168454
0.0113049
0.000137972
0.000156623
0.000152408
0.106941
0.101875
0.0980755
0.128726
0.0914934
0.0824431
0.078337
0.113249
0.0577472
0.0494265
0.0492616
0.0719633
0.0288569
0.0233071
0.0257193
0.0382032
0.0110533
0.0083872
0.0104157
0.0162677
0.00192914
0.00156973
0.00227329
0.00410025
0.00267638
0.00169824
0.00185614
0.00238059
0.00494286
0.00319061
0.00363538
0.0051674
0.00651979
0.00401411
0.00445748
0.0064021
0.00812966
0.00474457
0.00519499
0.00664137
0.0168817
0.0239353
0.0258653
0.0293852
0.0182358
0.0205976
0.02266
0.0302725
0.0138329
0.0140547
0.0162158
0.0226804
0.00769901
0.00736387
0.00876528
0.0132398
0.00328085
0.00295692
0.00351219
0.00593353
0.000715874
0.000673403
0.000809581
0.00169702
0.000650166
0.00041937
0.000383586
0.000370619
0.00133763
0.000880999
0.000768433
0.00118767
0.0018379
0.00107801
0.000792638
0.00146229
0.00215914
0.0010016
0.000551292
0.00131007
4.58107e-06
0.00566713
0.00678634
0.00851797
0.00364487
0.00785822
0.01026
0.0143668
0.00360673
0.00609173
0.00797856
0.0112702
0.0021086
0.0034758
0.00452621
0.00665359
0.000936549
0.00154359
0.00194982
0.00307529
0.000246455
0.00050427
0.000617571
0.00108808
0.000145262
5.51613e-05
5.44833e-05
2.47556e-05
0.000345586
0.000319699
0.000325496
0.000441703
0.000557793
0.000499213
0.000433316
0.00065397
0.000788796
0.000618504
0.000463002
0.000718329
0.00890878
0.00505907
0.00428274
0.00321926
0.00264632
0.00111043
0.00276362
0.00492802
0.000233706
0.00200166
0.00324555
0.00504258
1.88514e-05
0.00134877
0.00208419
0.00320643
1.61082e-05
0.000671275
0.000976438
0.00156197
6.50062e-06
0.000280703
0.000368876
0.000622174
2.97863e-05
4.94918e-05
3.56414e-05
9.44836e-05
3.05575e-05
5.69771e-05
0.000102409
0.000137694
9.47764e-05
0.000152742
0.000178514
0.000254676
0.000213572
0.000239444
0.00022763
0.000313257
0.0114309
0.00867388
0.00818327
0.00752133
0.00530997
0.00212298
0.00120484
0.000106205
0.00158276
0.000241754
0.000981013
0.001921
0.000688418
0.00039955
0.000870734
0.00142895
0.000299652
0.000254776
0.000467126
0.000752097
0.000102792
0.000152915
0.000222038
0.000343751
5.11835e-06
7.25714e-05
5.93158e-05
8.6502e-05
5.84147e-05
3.91751e-05
1.34581e-05
3.13529e-05
4.57158e-05
1.1581e-05
7.28745e-05
0.000102622
3.86652e-05
7.68299e-05
0.00012175
0.000140233
0.0115671
0.00947073
0.00918336
0.00879125
0.00631035
0.00368966
0.00321961
0.00270525
0.0021914
0.000681681
0.000275977
0.000190788
0.000988566
0.000103855
0.000171291
0.000426168
0.00043168
2.07038e-05
0.000152908
0.000281144
0.000151052
6.22742e-05
0.0001087
0.000159582
1.06929e-05
5.96667e-05
4.77927e-05
5.29701e-05
7.37071e-05
6.57811e-05
1.96725e-05
3.39052e-06
7.70692e-05
4.18898e-05
2.24253e-05
3.84782e-05
9.00986e-06
4.27649e-06
5.61493e-05
5.32569e-05
0.0105959
0.00893606
0.00877346
0.00854129
0.00617808
0.00401948
0.00378222
0.00357912
0.00237753
0.00110544
0.000893692
0.000680751
0.00110648
0.000363568
0.000212596
0.000116142
0.000490193
0.000109539
3.4097e-05
1.58432e-05
0.000178034
3.8933e-06
3.13845e-05
4.71843e-05
2.37823e-05
4.0246e-05
2.87495e-05
2.21401e-05
6.60857e-05
6.67095e-05
2.87444e-05
1.17969e-05
7.04552e-05
5.48478e-05
1.55033e-06
1.32234e-05
1.5985e-05
2.37293e-05
1.91198e-05
1.10367e-05
0.0092244
0.00787973
0.00778577
0.00764345
0.00551788
0.0037384
0.00361899
0.00357809
0.00226494
0.00120076
0.00109436
0.00101159
0.001093
0.000468513
0.00039129
0.000376304
0.000498562
0.000175882
0.000137344
0.000127731
0.000190875
3.3685e-05
2.04867e-05
2.23033e-05
3.88617e-05
2.01999e-05
8.0745e-06
4.04287e-06
5.01122e-05
5.71611e-05
2.60884e-05
9.72003e-06
5.2412e-05
4.94534e-05
3.2545e-06
6.3023e-06
1.01107e-05
3.02721e-05
1.32806e-06
7.00463e-06
0.00776445
0.00668133
0.00663811
0.00656003
0.00467821
0.00322267
0.00316381
0.00320598
0.00198374
0.00110582
0.00105246
0.00102918
0.000986651
0.000468684
0.000431477
0.000453695
0.000463127
0.000193621
0.000176347
0.000185726
0.000186393
5.27402e-05
4.85116e-05
5.88018e-05
4.96729e-05
3.60912e-06
8.7051e-06
2.32731e-05
3.38985e-05
4.46498e-05
1.93813e-05
4.41227e-06
3.50021e-05
3.84103e-05
1.37887e-06
7.06421e-06
1.8816e-06
2.76487e-05
5.16643e-06
1.21371e-05
0.00622575
0.00531924
0.00526887
0.00520836
0.00383208
0.00266382
0.00263985
0.00272478
0.00164123
0.000932221
0.000905309
0.000906229
0.000834815
0.000413855
0.000397325
0.000433092
0.000400291
0.000180178
0.000173908
0.000189856
0.000167106
5.66671e-05
5.71413e-05
7.02313e-05
5.34688e-05
7.44381e-06
1.90617e-05
3.43163e-05
2.17666e-05
3.32897e-05
1.30766e-05
9.95408e-08
2.09792e-05
2.66081e-05
2.74762e-06
1.03858e-05
4.94597e-06
2.19749e-05
5.96796e-06
1.1004e-05
0.00564891
0.00491575
0.00492118
0.00490754
0.00296936
0.00205316
0.00204365
0.00215122
0.00129354
0.000738421
0.000724672
0.000732317
0.000670477
0.000337987
0.000332044
0.000370089
0.000325908
0.000151423
0.000150342
0.000166459
0.000139199
5.10033e-05
5.3472e-05
6.60142e-05
5.14889e-05
1.34014e-05
2.36735e-05
3.84321e-05
1.47353e-05
2.48756e-05
9.04806e-06
1.88834e-06
1.01098e-05
1.5577e-05
7.35276e-06
1.41363e-05
9.12264e-06
1.62237e-05
4.64907e-06
7.56227e-06
0.00193132
0.0016008
0.00163438
0.00172813
0.0025157
0.00181381
0.00180946
0.00182635
0.000970731
0.000550874
0.000543612
0.000551902
0.00051264
0.000259684
0.000258994
0.000294309
0.000250343
0.000117373
0.000118327
0.000131712
0.000107922
4.04577e-05
4.33976e-05
5.37229e-05
4.62251e-05
1.59358e-05