/*--------------------------------*- C++ -*----------------------------------*\
| =========                 |                                                 |
| \\      /  F ield         | foam-extend: Open Source CFD                    |
|  \\    /   O peration     | Version:     4.0                                |
|   \\  /    A nd           | Web:         http://www.foam-extend.org         |
|    \\/     M anipulation  |                                                 |
\*---------------------------------------------------------------------------*/
FoamFile
{
    version     2.0;
    format      ascii;
    class       volScalarField;
    location    "1800";
    object      k;
}
// * * * * * * * * * * * * * * * * * * * * * * * * * * * * * * * * * * * * * //

dimensions      [0 2 -2 0 0 0 0];

internalField   nonuniform List<scalar> 
34480
(
8.7139
8.70756
8.70472
8.70281
8.70349
8.71931
8.78613
8.97485
9.38854
10.2594
28.7748
30.6158
33.1
36.0551
39.6345
45.381
58.5636
89.9122
147.094
214.867
56.0614
58.5093
61.5423
64.8675
68.3243
72.8967
83.7565
117.056
194.834
305.684
56.9673
60.2742
64.5212
69.3706
74.3666
80.0113
90.5161
123.462
212.476
356.332
53.1655
57.2649
62.7147
69.1638
76.0062
83.3463
94.7008
128.203
227.818
404.686
47.8142
52.1709
58.1694
65.6284
73.953
83.0985
96.4302
132.998
247.217
462.77
41.8514
46.1413
52.2567
60.1935
69.5558
80.2895
95.6902
135.248
262.556
513.812
32.3832
35.9954
41.3013
48.5634
57.657
68.785
85.257
126.087
259.711
533.585
13.8349
15.2493
17.5214
21.055
26.2657
33.8001
46.034
76.1832
177.887
402.747
9.15296
9.13705
9.14051
9.17012
9.23417
9.32752
9.42882
9.53539
9.72615
9.97788
8.63035
8.6299
8.63918
8.65879
8.68807
8.72876
8.79534
8.91807
9.14712
9.58991
20.2302
21.5583
23.7356
26.8054
30.7236
35.1004
40.598
53.5622
89.4127
170.79
41.289
43.3616
46.2552
49.9216
54.4066
59.678
65.2879
77.7983
124.896
253.878
43.113
45.7978
49.5691
54.3745
60.0517
66.6933
73.5008
85.899
139.369
302.649
41.1155
44.3666
49.039
55.0751
62.2349
70.4848
78.8727
91.798
151.938
350.544
37.7047
41.1323
46.2116
53.0458
61.4443
71.2419
81.4842
96.1905
166.345
411.014
33.6267
36.9937
42.1525
49.3424
58.5727
69.6267
81.63
98.1654
177.7
467.61
26.5359
29.3212
33.7362
40.2471
49.084
60.1751
72.8725
90.4946
174.975
493.992
11.9876
12.9608
14.6485
17.4956
22.1844
29.2403
38.3245
51.1723
113.101
365.448
9.01906
8.9957
8.98703
9.00095
9.05199
9.14451
9.24969
9.33308
9.58615
10.216
8.53495
8.53437
8.54132
8.55765
8.58415
8.62138
8.67297
8.75007
8.87447
9.07667
13.8553
14.6027
15.8996
17.8648
20.5418
23.9035
28.1231
34.1934
44.7424
62.737
28.7845
30.2912
32.4596
35.2777
38.7505
42.8587
47.5839
54.3265
69.2718
102.152
31.1206
33.0885
35.9485
39.7076
44.2199
49.4869
55.2013
62.6709
81.6177
130.689
30.5769
32.9657
36.5398
41.3013
47.0651
53.7607
60.7999
69.1478
92.4717
161.154
28.7681
31.3044
35.23
40.6892
47.5655
55.7156
64.3933
74.2725
103.61
197.653
26.2925
28.8103
32.8475
38.6619
46.3293
55.6871
65.925
77.3063
112.669
234.277
21.3349
23.4086
26.8535
32.1262
39.5139
49.0013
59.9306
72.3601
112.143
256.199
10.4558
11.1419
12.3738
14.4801
18.0443
23.6589
31.3897
40.9274
70.507
185.437
8.90242
8.87653
8.86169
8.86397
8.89384
8.95977
9.05203
9.13028
9.26717
9.70117
8.42659
8.42631
8.43116
8.44276
8.46196
8.48958
8.52696
8.57805
8.65459
8.78667
9.77853
10.1262
10.7428
11.7554
13.2183
15.1838
17.7217
20.9667
25.2311
30.8119
19.3996
20.3317
21.6928
23.5115
25.8116
28.5864
31.8627
35.9199
41.9041
52.0566
21.724
22.9897
24.8509
27.348
30.4233
34.082
38.2411
43.1765
51.0376
67.2495
22.1089
23.6826
26.0829
29.3296
33.3232
38.07
43.329
49.2374
59.2519
83.6662
21.4562
23.1569
25.8571
29.6735
34.5465
40.4711
47.1117
54.4612
67.6764
103.755
20.2032
21.9276
24.7723
28.9273
34.4775
41.4179
49.3612
58.0659
74.5674
124.163
17.0081
18.4386
20.8767
24.6668
30.0581
37.1674
45.7248
55.4004
74.6927
136.525
9.20117
9.66467
10.5107
11.9311
14.3075
18.1495
23.8736
31.3344
46.0688
95.8587
8.76804
8.74351
8.72789
8.72552
8.74296
8.78848
8.86523
8.9529
9.05519
9.34575
8.30318
8.30281
8.3057
8.3128
8.32446
8.3411
8.36368
8.39493
8.44343
8.53631
7.46475
7.60504
7.84673
8.26564
8.88691
9.75249
10.9022
12.3421
13.9927
15.7914
13.0899
13.5946
14.3339
15.3396
16.6301
18.2052
20.0748
22.2435
24.7105
27.8356
15.0276
15.7521
16.8195
18.2744
20.0954
22.292
24.8516
27.7844
31.2502
36.4483
15.8327
16.7725
18.2143
20.1778
22.6218
25.5695
28.9561
32.7481
37.3999
45.7661
15.874
16.9157
18.5904
20.9804
24.0538
27.8659
32.3252
37.3527
43.8589
57.3044
15.43
16.5196
18.3448
21.0229
24.6171
29.2029
34.6808
40.8787
49.2944
69.0203
13.5561
14.478
16.0624
18.5304
22.0522
26.7988
32.7717
39.8123
49.9966
75.9598
8.17845
8.47875
9.03068
9.92652
11.3728
13.7016
17.334
22.4502
30.3173
51.1706
8.62731
8.60484
8.58977
8.58525
8.59523
8.62578
8.68276
8.76178
8.85337
9.04376
8.16576
8.16533
8.16704
8.17145
8.17863
8.18866
8.20203
8.22093
8.25305
8.32332
6.24972
6.30321
6.38908
6.54484
6.77275
7.0854
7.49556
8.00292
8.56308
9.12497
9.23785
9.48428
9.84062
10.3317
10.9659
11.7388
12.6454
13.6535
14.6684
15.6899
10.6391
11.0154
11.567
12.3325
13.3023
14.4769
15.8432
17.3596
18.9007
20.6445
11.4988
12.0165
12.8071
13.8886
15.2492
16.9005
18.8148
20.9292
23.1132
26.056
11.8586
12.4518
13.4052
14.7754
16.553
18.7875
21.4555
24.4809
27.7543
32.8627
11.8648
12.5116
13.5965
15.1867
17.328
20.1035
23.5045
27.4282
31.836
39.7615
10.8952
11.4606
12.4235
13.9122
16.0284
18.9281
22.6897
27.2657
32.7765
43.722
7.35465
7.54317
7.89047
8.43132
9.26493
10.5694
12.61
15.6055
19.6886
28.257
8.47853
8.45868
8.4452
8.44046
8.44706
8.46904
8.51107
8.57434
8.65174
8.77273
8.01558
8.0151
8.01609
8.01893
8.02365
8.03023
8.039
8.05173
8.0753
8.13248
5.63331
5.65313
5.68183
5.73809
5.81875
5.92493
6.05722
6.21231
6.37388
6.53227
7.08709
7.1955
7.34531
7.55156
7.8163
8.13596
8.50538
8.90441
9.28116
9.61035
7.98705
8.16268
8.41504
8.77166
9.22605
9.77569
10.4094
11.0954
11.7412
12.3334
8.7087
8.97148
9.36515
9.90151
10.5787
11.3999
12.3484
13.3807
14.3613
15.4096
9.14335
9.45866
9.95632
10.6711
11.6036
12.7823
14.2001
15.8106
17.4176
19.3859
9.34421
9.70721
10.3063
11.1738
12.3411
13.8652
15.7548
17.9614
20.2328
23.4275
8.936
9.26876
9.81899
10.6525
11.8205
13.4297
15.5508
18.1913
21.1176
25.708
6.71097
6.82526
7.03613
7.34937
7.80839
8.49401
9.53171
11.0572
12.9982
16.3464
8.32048
8.3035
8.29209
8.28816
8.29352
8.31088
8.34326
8.39248
8.45374
8.5284
7.85411
7.85359
7.85416
7.85611
7.85947
7.86423
7.87068
7.88032
7.89934
7.94866
5.32388
5.33099
5.34002
5.36074
5.39049
5.42842
5.47354
5.52335
5.57153
5.61847
5.96945
6.01431
6.07063
6.14577
6.23948
6.34932
6.47251
6.60084
6.71483
6.80562
6.49316
6.56761
6.66958
6.81593
7.00108
7.22214
7.47222
7.73503
7.96845
8.15102
7.01575
7.1401
7.31872
7.55684
7.85373
8.20869
8.61233
9.04225
9.43046
9.78634
7.39957
7.55733
7.79673
8.13551
8.57401
9.12548
9.78713
10.5365
11.2604
12.0124
7.6418
7.83615
8.14561
8.58056
9.15941
9.91104
10.8434
11.9376
13.0276
14.3115
7.54748
7.73714
8.03512
8.47058
9.06337
9.87044
10.9356
12.2792
13.7297
15.6409
6.22148
6.28798
6.41166
6.58624
6.83024
7.17546
7.67098
8.37627
9.21542
10.4477
8.15196
8.13788
8.12866
8.12588
8.13088
8.14548
8.17149
8.21007
8.25627
8.30335
7.68234
7.68181
7.68214
7.68359
7.68617
7.68991
7.69506
7.70293
7.71906
7.76276
5.167
5.16928
5.17176
5.17979
5.19184
5.20721
5.22541
5.24526
5.26414
5.28285
5.41128
5.43
5.45008
5.4747
5.50356
5.53557
5.56983
5.60388
5.63164
5.65223
5.69265
5.72232
5.75968
5.81429
5.88177
5.9599
6.04502
6.12998
6.19865
6.24117
6.03347
6.08985
6.16547
6.26174
6.37723
6.51009
6.65527
6.80306
6.9269
7.026
6.3248
6.4005
6.50842
6.65625
6.84196
7.06984
7.338
7.6368
7.91765
8.17745
6.53574
6.63609
6.7877
6.9904
7.25249
7.58465
7.99009
8.4619
8.92168
9.40281
6.59644
6.70214
6.85665
7.07099
7.34968
7.71636
8.19172
8.78961
9.42935
10.1822
5.8599
5.89651
5.96648
6.06009
6.18608
6.35517
6.58485
6.89736
7.24527
7.68567
7.97198
7.96065
7.95348
7.95182
7.9566
7.96905
7.99014
8.02035
8.05444
8.0855
7.50078
7.50025
7.50046
7.5016
7.50372
7.50685
7.5112
7.51789
7.53189
7.57097
5.08471
5.08516
5.08559
5.08904
5.09476
5.10244
5.11213
5.12344
5.13522
5.14737
5.13621
5.14448
5.15165
5.15898
5.16655
5.17416
5.18195
5.18974
5.19598
5.20127
5.27581
5.2873
5.30013
5.31956
5.34278
5.3685
5.3951
5.41973
5.4365
5.44118
5.48026
5.50543
5.53625
5.57285
5.61388
5.65787
5.70246
5.74404
5.77375
5.79232
5.68263
5.71817
5.76475
5.82561
5.89811
5.98294
6.07878
6.18175
6.27413
6.34945
5.84015
5.8906
5.96209
6.05152
6.16198
6.29607
6.45385
6.63241
6.79931
6.95667
5.96507
6.02314
6.10057
6.20108
6.32363
6.47624
6.66676
6.90111
7.1485
7.41767
5.60096
5.61945
5.65744
5.70566
5.7691
5.85057
5.95624
6.09445
6.24139
6.40661
7.77976
7.77089
7.76551
7.76471
7.76915
7.77956
7.79639
7.81966
7.84441
7.86559
7.30955
7.30904
7.30918
7.31013
7.31195
7.31466
7.31844
7.32425
7.33648
7.37143
5.03887
5.03866
5.03857
5.04034
5.0437
5.04862
5.05551
5.06454
5.07523
5.08673
5.001
5.0049
5.00755
5.0094
5.01071
5.01169
5.01283
5.01469
5.01712
5.02062
5.06319
5.0676
5.07179
5.0786
5.08647
5.09477
5.10288
5.10973
5.11309
5.11074
5.17586
5.18701
5.19933
5.21271
5.22628
5.23924
5.2507
5.25958
5.26337
5.26337
5.30886
5.32539
5.34492
5.36894
5.39545
5.42433
5.45501
5.48624
5.51247
5.52995
5.41554
5.44026
5.47293
5.51078
5.55501
5.60586
5.6628
5.72473
5.77885
5.82359
5.55838
5.59007
5.62778
5.67282
5.72316
5.78123
5.85
5.93173
6.01693
6.10563
5.42165
5.42955
5.44914
5.47297
5.50433
5.54351
5.59272
5.65547
5.7208
5.78909
7.57474
7.56798
7.56406
7.56385
7.56775
7.57618
7.58925
7.60675
7.62445
7.63912
7.10857
7.10808
7.10818
7.109
7.11059
7.11297
7.11629
7.12135
7.132
7.16304
5.01123
5.01084
5.01073
5.01188
5.01426
5.01807
5.02395
5.03246
5.04361
5.0562
4.93444
4.93637
4.93741
4.93768
4.93748
4.93712
4.93714
4.93826
4.94079
4.94492
4.95728
4.959
4.96032
4.96271
4.9654
4.96811
4.97065
4.97261
4.97309
4.97065
5.01264
5.01748
5.02231
5.02705
5.03126
5.03456
5.03668
5.0374
5.03616
5.03412
5.09715
5.10481
5.11281
5.12191
5.13089
5.13961
5.148
5.15584
5.16178
5.16406
5.16439
5.17605
5.19042
5.20583
5.22286
5.24142
5.2612
5.28198
5.29862
5.31
5.30434
5.32162
5.33951
5.35865
5.37743
5.39662
5.41756
5.44144
5.4665
5.49458
5.30183
5.30386
5.31324
5.32454
5.34008
5.35952
5.38354
5.41381
5.44511
5.47682
7.3566
7.35158
7.3488
7.34891
7.35216
7.35875
7.3686
7.38142
7.39395
7.40421
6.89763
6.89718
6.89725
6.89796
6.89935
6.90144
6.90435
6.90874
6.91791
6.94515
4.9931
4.99273
4.99272
4.99363
4.99553
4.99876
5.0041
5.01249
5.02438
5.0385
4.90154
4.9025
4.90295
4.90288
4.90255
4.90224
4.90245
4.90387
4.90701
4.91191
4.90608
4.90684
4.90728
4.90813
4.90904
4.90992
4.91074
4.91139
4.91145
4.90995
4.92801
4.92998
4.93181
4.93348
4.93476
4.93552
4.93567
4.9352
4.93406
4.93307
4.98088
4.98444
4.98766
4.99094
4.99363
4.99566
4.99713
4.99813
4.99855
4.99767
5.02111
5.02624
5.03219
5.03823
5.04467
5.05149
5.05858
5.06603
5.07149
5.07437
5.15039
5.15988
5.16817
5.17571
5.18153
5.1859
5.18952
5.19321
5.19729
5.20612
5.22461
5.22364
5.22758
5.23278
5.24088
5.25144
5.26448
5.28082
5.29738
5.3141
7.12524
7.1216
7.11967
7.11992
7.12249
7.12746
7.13467
7.14384
7.15267
7.1599
6.67652
6.67611
6.67616
6.67678
6.67798
6.67979
6.68231
6.68606
6.69382
6.71733
4.98022
4.97995
4.98007
4.98086
4.98243
4.98522
4.9901
4.99831
5.0108
5.02651
4.88517
4.88563
4.88586
4.88582
4.88567
4.88567
4.88622
4.88797
4.89153
4.89694
4.88221
4.88266
4.88288
4.88317
4.88344
4.88366
4.88389
4.88412
4.88423
4.88353
4.88606
4.88674
4.88739
4.88802
4.88852
4.88883
4.88892
4.88881
4.8885
4.88856
4.91917
4.92083
4.92213
4.92325
4.92388
4.92399
4.92369
4.92311
4.9224
4.92134
4.94275
4.94469
4.94688
4.94918
4.95176
4.95463
4.95776
4.96127
4.96385
4.96517
5.05942
5.06469
5.06845
5.07107
5.07207
5.07151
5.06974
5.06738
5.06474
5.06793
5.17649
5.17419
5.17535
5.17777
5.18252
5.18922
5.19754
5.20784
5.21765
5.22771
6.88076
6.87816
6.87684
6.87712
6.87906
6.88268
6.88782
6.89423
6.90045
6.90559
6.44508
6.44471
6.44474
6.44526
6.44628
6.44782
6.44996
6.45309
6.4595
6.47934
4.97042
4.97029
4.97051
4.97121
4.9725
4.97487
4.97923
4.98706
4.99983
5.01703
4.87702
4.87722
4.87738
4.87743
4.87748
4.87773
4.87852
4.88042
4.88412
4.88981
4.87154
4.87192
4.87209
4.87219
4.87219
4.87214
4.87211
4.87216
4.87232
4.87219
4.86662
4.86674
4.86694
4.86723
4.86755
4.86789
4.86821
4.8685
4.86878
4.86939
4.88754
4.88833
4.88887
4.88924
4.88931
4.88906
4.88856
4.8879
4.88721
4.88653
4.90191
4.90234
4.90294
4.90384
4.90511
4.90676
4.90875
4.91116
4.91314
4.91453
5.006
5.00894
5.01061
5.0113
5.01083
5.00917
5.00643
5.00306
4.99879
5.00077
5.14716
5.14445
5.14426
5.14551
5.14879
5.15381
5.16002
5.16754
5.17393
5.1808
6.62341
6.6216
6.62071
6.62095
6.62236
6.6249
6.62847
6.63287
6.63726
6.64092
6.20322
6.20289
6.20291
6.20334
6.20418
6.20545
6.2072
6.20973
6.21485
6.23111
4.96251
4.96254
4.96282
4.96344
4.96446
4.96638
4.97011
4.9773
4.98993
5.00838
4.87301
4.8731
4.87323
4.87336
4.87355
4.87395
4.87483
4.87669
4.88029
4.88604
4.86696
4.86733
4.86749
4.86751
4.86741
4.86723
4.86707
4.86701
4.86718
4.86745
4.8586
4.85853
4.85856
4.85873
4.85901
4.85937
4.8598
4.86026
4.86076
4.86152
4.87192
4.87229
4.87254
4.87266
4.87264
4.87244
4.8721
4.87167
4.87121
4.87087
4.88164
4.88143
4.88143
4.88183
4.88266
4.8839
4.8855
4.88747
4.88924
4.89083
4.97334
4.97495
4.97565
4.97568
4.975
4.97357
4.9713
4.96853
4.96438
4.96654
5.12908
5.12643
5.12564
5.12642
5.12903
5.13321
5.13833
5.14433
5.14872
5.15393
6.35365
6.35242
6.35183
6.35201
6.35298
6.35471
6.35712
6.3601
6.36315
6.36576
5.9511
5.95081
5.95082
5.95115
5.9518
5.9528
5.95417
5.95612
5.96001
5.9728
4.95576
4.95593
4.95625
4.95676
4.95752
4.95897
4.96196
4.96821
4.98012
4.99938
4.8711
4.87115
4.87127
4.87144
4.8717
4.87215
4.873
4.87468
4.87794
4.8835
4.86493
4.86527
4.86542
4.86541
4.86528
4.86507
4.86485
4.86474
4.86489
4.86542
4.85611
4.856
4.85599
4.8561
4.85631
4.85663
4.85701
4.85744
4.85791
4.85858
4.86453
4.86472
4.86484
4.8649
4.86488
4.86478
4.86459
4.86434
4.86405
4.86392
4.87184
4.87144
4.87127
4.8715
4.87212
4.8731
4.87436
4.87591
4.87737
4.87893
4.95084
4.95168
4.95192
4.95179
4.9513
4.95037
4.94888
4.94702
4.94355
4.94612
5.11672
5.11436
5.11335
5.11393
5.11616
5.11977
5.12413
5.12908
5.13203
5.13629
6.07215
6.07133
6.07096
6.07108
6.07172
6.07285
6.07441
6.07636
6.07842
6.08025
5.68915
5.68893
5.68893
5.68916
5.68964
5.69036
5.69136
5.69275
5.69548
5.70498
4.9494
4.94968
4.95
4.95038
4.95088
4.95185
4.95402
4.959
4.96945
4.98868
4.87015
4.87018
4.87029
4.87046
4.87072
4.87115
4.87189
4.87327
4.87598
4.881
4.86367
4.86394
4.86406
4.86405
4.86394
4.86376
4.86356
4.86344
4.86356
4.86418
4.85607
4.85599
4.85597
4.85604
4.85618
4.85639
4.85665
4.85695
4.85728
4.85774
4.86132
4.86143
4.8615
4.86153
4.86151
4.86144
4.86132
4.86116
4.86096
4.86088
4.86662
4.86626
4.8661
4.86624
4.86668
4.86735
4.86821
4.86923
4.87025
4.87152
4.93216
4.9326
4.93265
4.93253
4.93224
4.93171
4.93082
4.92967
4.927
4.92967
5.10525
5.10326
5.10223
5.1027
5.10457
5.10762
5.11123
5.11518
5.1169
5.12049
5.77986
5.77936
5.77913
5.7792
5.77959
5.78028
5.78123
5.78243
5.78373
5.78495
5.41819
5.41787
5.41787
5.41803
5.41834
5.41882
5.41948
5.42037
5.42207
5.42854
4.9416
4.94187
4.94216
4.94239
4.94264
4.94315
4.94446
4.94786
4.95596
4.97367
4.8695
4.86951
4.86959
4.86973
4.86995
4.87031
4.87088
4.87188
4.87384
4.87781
4.86234
4.86251
4.86259
4.86259
4.86252
4.8624
4.86227
4.86218
4.86226
4.86278
4.857
4.85695
4.85694
4.85697
4.85705
4.85715
4.85728
4.85744
4.85761
4.85786
4.86019
4.86027
4.86031
4.86032
4.86029
4.86023
4.86012
4.85997
4.8598
4.85971
4.86287
4.86265
4.86255
4.86263
4.86287
4.86323
4.86367
4.86416
4.86469
4.86552
4.91378
4.91407
4.91408
4.91401
4.91381
4.91344
4.91285
4.91207
4.91026
4.9124
5.08661
5.08497
5.08407
5.0844
5.08584
5.08816
5.09086
5.09366
5.0942
5.09705
5.47789
5.47761
5.47748
5.47752
5.47772
5.47809
5.47861
5.47927
5.47999
5.4807
5.13739
5.1374
5.13741
5.1375
5.13766
5.13791
5.13825
5.1387
5.13951
5.14357
4.9245
4.92467
4.92487
4.92498
4.92505
4.92522
4.92574
4.92735
4.93211
4.94518
4.86826
4.86826
4.86831
4.86841
4.86858
4.86884
4.86923
4.86983
4.87096
4.8733
4.86104
4.86112
4.86116
4.86116
4.86114
4.86108
4.86102
4.86097
4.86099
4.86124
4.85834
4.85832
4.85832
4.85833
4.85835
4.85839
4.85843
4.85849
4.85855
4.85864
4.8601
4.86016
4.86019
4.86018
4.86015
4.86009
4.86
4.85988
4.85975
4.85965
4.86028
4.86019
4.86015
4.86019
4.86028
4.86041
4.86054
4.86068
4.86082
4.86114
4.89343
4.89365
4.89371
4.89366
4.89348
4.89316
4.8927
4.89218
4.89139
4.89261
5.03657
5.03518
5.03453
5.03467
5.03555
5.03697
5.03863
5.04021
5.04001
5.04162
5.16635
5.16621
5.16615
5.16616
5.16624
5.16638
5.16659
5.16686
5.16716
5.16752
12.1677
12.6059
12.3836
11.3446
212.981
207.706
204.453
200.05
323.015
316.449
309.558
294.955
395.629
388.764
377.926
357.583
470.492
462.997
446.979
423.401
555.479
543.116
517.944
488.228
628.978
611.212
579.094
546.942
662.598
640.546
604.379
570.238
519.231
496.477
462.715
430.694
13.1922
13.3774
13.2883
13.1328
10.0871
10.4394
10.5853
10.41
236.118
215.515
211.308
205.408
370.134
343.127
334.045
313.098
463.132
436.462
423.883
389.368
563.612
540.985
520.207
472.329
696.135
671.973
629.805
561.201
823.974
794.049
728.706
646.123
903.565
868.694
788.11
689.401
733.674
700.226
623.92
529.663
12.8205
12.8945
12.7175
12.3733
9.22793
9.38334
9.42715
9.32759
81.3531
83.3225
80.2296
72.7348
137.787
139.882
132.818
117.611
182.958
184.14
173.445
152.118
234.642
235.147
220.097
191.531
302.207
303.482
283.612
244.63
376.347
378.304
352.685
302.843
433.151
434.37
402.419
342.634
346.763
345.178
315.346
260.544
10.7253
10.8134
10.7967
10.7001
8.93881
9.01114
9.02237
8.95612
33.836
34.0657
33.5234
31.9893
59.2479
59.4738
57.6907
54.219
79.41
79.2192
76.1055
70.8383
102.82
102.125
97.2801
89.2948
133.109
131.791
124.628
113.33
166.384
164.267
154.445
139.569
192.193
189.306
177.349
159.608
147.101
143.458
133.14
117.256
9.77239
9.82809
9.85567
9.8612
8.70477
8.75842
8.75989
8.70461
16.5286
16.6876
16.5422
16.1905
29.8294
30.1115
29.6312
28.6196
40.0153
40.2794
39.4501
37.8789
51.7628
51.9889
50.6309
48.1661
67.2786
67.5864
65.6841
62.2375
84.3366
84.7355
82.2125
77.6219
97.2573
97.7705
94.8185
89.2544
70.8144
70.908
68.5153
63.2751
9.21619
9.25485
9.28701
9.31301
8.49894
8.54506
8.54554
8.49748
9.20752
9.23115
9.20538
9.16112
16.1543
16.2328
16.0982
15.8023
21.5683
21.6633
21.4499
21.0154
27.7971
27.9288
27.5817
26.8845
36.1147
36.3808
35.9509
35.0022
45.1818
45.6192
45.099
43.8315
51.7424
52.3796
51.8456
50.2868
35.4896
35.8652
35.4958
33.9558
8.82817
8.85028
8.87533
8.90484
8.30747
8.34941
8.34952
8.30617
6.52745
6.52137
6.51927
6.53002
9.71073
9.72883
9.68507
9.5887
12.5682
12.5988
12.5424
12.4149
15.923
15.9835
15.8951
15.6808
20.4786
20.6308
20.5567
20.2834
25.4049
25.6816
25.6298
25.2697
28.8178
29.2413
29.2433
28.8003
19.0717
19.3579
19.4046
18.9581
8.52851
8.54059
8.55903
8.58681
8.11858
8.15741
8.15738
8.11753
5.62807
5.61967
5.61969
5.63139
6.81745
6.81657
6.79849
6.76474
8.19666
8.20115
8.18448
8.14844
9.92773
9.94642
9.91961
9.84868
12.3712
12.4345
12.4262
12.3447
15.02
15.1466
15.1635
15.0608
16.8296
17.0351
17.0925
16.9703
11.4345
11.5789
11.655
11.546
8.27753
8.28345
8.29651
8.32039
7.9252
7.9611
7.96102
7.92439
5.30866
5.30389
5.30395
5.3104
5.64979
5.64629
5.6372
5.62295
6.24013
6.23795
6.23303
6.22507
7.05687
7.06016
7.05029
7.02611
8.28561
8.30767
8.30872
8.28519
9.64393
9.6943
9.71009
9.68262
10.6243
10.7126
10.7505
10.7193
8.02743
8.09137
8.13851
8.12178
8.04799
8.05014
8.05909
8.07849
7.72445
7.75732
7.75724
7.72385
5.18109
5.17974
5.17986
5.18233
5.20013
5.19766
5.19236
5.18455
5.43321
5.43057
5.42925
5.42898
5.79493
5.79413
5.78972
5.78103
6.37556
6.38141
6.38227
6.37627
7.02747
7.04409
7.05176
7.04625
7.57073
7.6042
7.62181
7.61525
6.5211
6.54713
6.57001
6.57284
7.82351
7.82343
7.82938
7.84461
7.51481
7.5445
7.54442
7.51436
5.12319
5.12434
5.12455
5.12436
5.02208
5.02089
5.01754
5.01232
5.10458
5.10281
5.10264
5.10393
5.26159
5.26053
5.25829
5.25465
5.53359
5.53454
5.53472
5.53343
5.83919
5.84346
5.84642
5.84644
6.15547
6.16696
6.17362
6.17225
5.82412
5.83401
5.84415
5.84919
7.59613
7.59478
7.59865
7.61038
7.29535
7.32173
7.32164
7.29503
5.09281
5.0958
5.09608
5.09395
4.94809
4.94781
4.94563
4.94178
4.96688
4.96584
4.966
4.96726
5.03292
5.03231
5.0311
5.02924
5.16306
5.1629
5.16284
5.16263
5.31045
5.31093
5.31191
5.31292
5.51077
5.51449
5.51645
5.51556
5.48229
5.48522
5.4896
5.49407
7.36242
7.36044
7.36289
7.37179
7.06547
7.08841
7.08832
7.06523
5.07417
5.07874
5.07903
5.0752
4.91607
4.91641
4.91499
4.912
4.90788
4.90733
4.90753
4.90844
4.93282
4.93258
4.93191
4.93084
4.99635
4.9961
4.99601
4.99599
5.07161
5.07114
5.07143
5.07241
5.21189
5.2131
5.21333
5.21225
5.30748
5.30728
5.30918
5.31312
7.12066
7.11846
7.11998
7.12664
6.82477
6.84449
6.84443
6.82457
5.061
5.06694
5.0672
5.06187
4.90173
4.90253
4.90163
4.89917
4.88262
4.88237
4.88253
4.88306
4.8889
4.88888
4.88852
4.88785
4.92048
4.92033
4.92027
4.92027
4.96238
4.96181
4.96189
4.9627
5.07064
5.07113
5.07083
5.06964
5.21558
5.21386
5.21473
5.21845
6.86985
6.8677
6.8686
6.87352
6.57305
6.58976
6.58973
6.57294
5.05066
5.05798
5.05817
5.05129
4.89507
4.89621
4.89567
4.89354
4.8721
4.87207
4.87216
4.87235
4.86997
4.87005
4.86986
4.86944
4.88609
4.88604
4.88602
4.886
4.91246
4.91203
4.91208
4.9127
5.00282
5.00321
5.00283
5.00161
5.16585
5.16337
5.16381
5.16751
6.60935
6.60743
6.60794
6.61149
6.31041
6.32415
6.32414
6.31035
5.04187
5.05078
5.05091
5.04229
4.89172
4.89316
4.89286
4.89088
4.86798
4.86811
4.86815
4.86806
4.86211
4.86223
4.86213
4.86185
4.8707
4.87071
4.8707
4.87065
4.88954
4.8893
4.88936
4.88979
4.96876
4.9693
4.96896
4.9677
5.13743
5.13457
5.13486
5.1386
6.33885
6.33725
6.33753
6.34002
6.03695
6.0478
6.0478
6.03692
5.03395
5.04469
5.04476
5.0342
4.88955
4.89126
4.89111
4.88916
4.86641
4.86667
4.86667
4.86637
4.85907
4.85918
4.85912
4.85893
4.86387
4.86389
4.86387
4.86379
4.8783
4.87825
4.8783
4.87854
4.94884
4.94963
4.94933
4.94792
5.11896
5.11602
5.11627
5.11995
6.05836
6.05714
6.05727
6.05895
5.7532
5.76129
5.76129
5.75318
5.0258
5.0384
5.03843
5.02591
4.8872
4.88908
4.88903
4.88706
4.86541
4.86576
4.86573
4.86532
4.85807
4.85814
4.8581
4.85798
4.86085
4.86086
4.86081
4.86071
4.8714
4.87148
4.87152
4.87157
4.93278
4.93385
4.93353
4.93182
5.10299
5.10034
5.10057
5.10391
5.76834
5.76749
5.76754
5.76859
5.46007
5.46563
5.46563
5.46006
5.01352
5.02738
5.02739
5.01354
4.88346
4.88527
4.88526
4.88345
4.8639
4.86424
4.86422
4.86382
4.85803
4.85806
4.85803
4.85795
4.85965
4.85961
4.85955
4.85946
4.86574
4.86589
4.86592
4.86584
4.91491
4.91605
4.91565
4.91375
5.08039
5.07865
5.07889
5.08126
5.46964
5.46917
5.46919
5.46971
5.15756
5.16103
5.16103
5.15756
4.98092
4.99344
4.99344
4.9809
4.87717
4.87834
4.87835
4.8772
4.86186
4.86205
4.86204
4.86182
4.85869
4.85869
4.85867
4.85864
4.85955
4.8595
4.85944
4.85938
4.86138
4.86151
4.86155
4.86148
4.89294
4.89332
4.89288
4.8917
5.02736
5.02745
5.02773
5.02825
5.16226
5.16213
5.16213
5.16226
10.13
9.43164
9.10826
8.9828
8.92707
8.87932
8.82943
8.78458
8.75023
8.72723
197.926
104.22
62.1172
50.0348
44.0248
38.6893
34.2547
30.8906
28.8445
28.1085
266.4
124.733
88.7079
75.1331
68.275
62.9876
59.1394
56.4876
54.9969
54.7809
307.818
133.732
97.9549
81.123
72.0631
65.2425
60.4644
57.2399
55.3679
55.2027
366.57
148.611
106.457
85.0983
72.7593
63.9878
57.9336
53.8792
51.3867
51.0768
439.628
176.912
117.648
89.5515
73.188
62.1647
54.6333
49.6236
46.4516
45.7903
505.281
203.019
123.124
89.9426
70.7096
58.3467
49.9715
44.4726
40.9126
39.995
532.833
207.885
112.884
79.1135
59.5584
47.6632
39.8331
34.9037
31.8004
30.9129
397.773
129.319
56.5211
35.9703
24.8884
19.2224
16.0931
14.4539
13.4746
13.2038
12.8225
10.5757
9.94933
9.67281
9.4992
9.38359
9.30605
9.25035
9.20322
9.16884
9.7216
9.26109
9.03692
8.9137
8.83595
8.77673
8.72728
8.6871
8.65796
8.63952
131.889
71.5136
48.5118
38.8136
33.1779
28.72
25.1215
22.3945
20.685
19.934
182.989
96.5924
70.5861
58.9618
52.4376
47.6705
44.2214
41.8649
40.5619
40.3114
213.187
108.321
79.2702
64.6895
56.3989
50.4452
46.3159
43.5782
42.0242
41.7956
250.619
121.603
87.0023
68.5932
57.8543
50.4419
45.3808
42.0543
40.0205
39.6122
316.391
144.303
97.4285
73.37
59.4026
50.1192
43.8284
39.697
37.0617
36.3024
391.526
166.086
103.588
74.9613
58.5396
48.0487
40.9967
36.4199
33.4056
32.3798
432.342
172.265
96.8881
67.2745
50.3645
40.1153
33.4232
29.2532
26.5764
25.6003
324.668
108.778
49.6937
31.3877
21.7848
16.8985
14.2028
12.7988
11.9351
11.6288
11.6747
10.2594
9.74632
9.50392
9.35342
9.25152
9.18088
9.12842
9.08262
9.04533
9.13065
8.93058
8.82435
8.7509
8.69244
8.64402
8.60489
8.57488
8.55404
8.54131
55.6709
41.8986
33.4002
27.5096
23.0826
19.6693
17.1183
15.2965
14.1966
13.71
85.2223
63.078
51.1783
43.0081
37.5684
33.6923
30.9781
29.1774
28.2274
28.0727
106.008
74.5083
58.6848
48.0634
41.3404
36.6571
33.4672
31.3975
30.2847
30.1533
128.647
85.2538
65.0693
51.5626
43.1931
37.5107
33.6717
31.1983
29.7533
29.4813
159.371
101.189
73.4374
56.0023
45.29
38.1664
33.3582
30.2417
28.3166
27.7563
194.329
116.03
78.8384
58.1507
45.5143
37.3759
31.9207
28.4253
26.1797
25.3946
219.414
120.71
74.5826
53.0973
39.9102
31.8613
26.6325
23.4192
21.4084
20.6686
159.967
74.1347
37.7745
24.9424
17.7314
14.1089
12.1034
11.0559
10.4174
10.2033
10.5253
9.85812
9.51672
9.33002
9.20839
9.12373
9.06196
9.01339
8.96883
8.9313
8.79791
8.68242
8.61612
8.56664
8.52678
8.49453
8.46923
8.45028
8.43748
8.43015
29.2317
24.8185
20.8194
17.4844
14.8731
12.9075
11.4956
10.5204
9.95031
9.70408
47.5551
39.9469
33.7908
28.8465
25.2541
22.6611
20.8457
19.6498
19.0357
18.9498
60.4466
48.9661
40.0176
33.3238
28.7375
25.5155
23.3158
21.8966
21.1614
21.0934
73.6844
57.5559
45.2569
36.5409
30.7814
26.8399
24.1782
22.4856
21.5396
21.3841
92.3437
69.5093
52.012
40.5657
33.0742
28.0319
24.6272
22.4447
21.1465
20.7841
112.709
80.3309
56.7479
42.9528
33.9535
28.0816
24.1522
21.6681
20.1267
19.5993
127.63
83.6582
54.4986
39.9562
30.4001
24.5236
20.7283
18.4319
17.0449
16.5544
90.2978
49.2949
27.2782
19.043
14.1606
11.7116
10.3318
9.604
9.16184
9.02575
9.84397
9.47669
9.2602
9.12518
9.03304
8.96506
8.91301
8.8703
8.82972
8.79506
8.53333
8.45428
8.41259
8.38356
8.3607
8.34216
8.32742
8.31631
8.30896
8.3051
15.6997
14.0431
12.3297
10.8543
9.69359
8.825
8.20447
7.77369
7.52521
7.42347
26.7574
23.7334
20.7874
18.2919
16.3576
14.9139
13.8859
13.2065
12.8668
12.8333
34.8882
30.1412
25.5144
21.9081
19.246
17.3186
15.9832
15.118
14.6817
14.6546
43.4383
36.36
29.5696
24.6559
21.1699
18.7292
17.0714
16.0269
15.4655
15.3905
55.4286
44.8314
34.8038
28.0642
23.332
20.079
17.8739
16.4733
15.6688
15.458
68.194
52.5002
38.7602
30.3535
24.4864
20.5866
17.9761
16.347
15.3692
15.0461
77.2304
54.9525
37.9568
28.8297
22.4646
18.5059
15.9597
14.4408
13.5544
13.2586
52.0933
31.0611
19.169
14.3528
11.3566
9.81617
8.9182
8.43634
8.14223
8.05957
9.33607
9.13703
9.01396
8.92201
8.85425
8.80019
8.75666
8.71963
8.68331
8.65199
8.31859
8.25757
8.22956
8.21208
8.19873
8.18783
8.17908
8.17254
8.16845
8.16671
9.18412
8.64809
8.04322
7.51131
7.08742
6.76458
6.52746
6.35603
6.25784
6.22349
15.2502
14.0719
12.797
11.6709
10.7587
10.0666
9.57261
9.24848
9.096
9.09827
20.1121
18.1388
15.986
14.2259
12.849
11.8297
11.1178
10.6551
10.43
10.4316
25.3531
22.1598
18.8261
16.2984
14.3996
13.0472
12.1286
11.5574
11.2638
11.2428
32.7538
27.701
22.5835
18.9176
16.1901
14.2799
12.9836
12.1683
11.7158
11.612
40.5688
32.7778
25.6078
20.8362
17.3239
14.9462
13.3562
12.3764
11.8054
11.6286
45.8524
34.5529
25.6101
20.2442
16.3511
13.8948
12.3185
11.3885
10.8627
10.7033
29.5315
19.2886
13.6172
11.0115
9.30935
8.38593
7.82301
7.51388
7.3234
7.27529
8.94803
8.84839
8.78188
8.72031
8.67043
8.62753
8.5914
8.55982
8.52798
8.50035
8.1284
8.07706
8.05586
8.04393
8.03522
8.02821
8.02269
8.01872
8.01652
8.01599
6.58569
6.43324
6.24394
6.07222
5.93051
5.81726
5.72914
5.66165
5.62396
5.61586
9.40778
8.95516
8.45538
8.00813
7.64289
7.36734
7.1729
7.0477
6.99679
7.01396
12.1163
11.2988
10.3764
9.59608
8.9687
8.50113
8.17415
7.96048
7.86236
7.87752
15.1183
13.6832
12.176
10.9803
10.0594
9.40147
8.95878
8.68869
8.55871
8.56675
19.4462
17.084
14.6649
12.8063
11.3816
10.374
9.69214
9.26727
9.04018
9.00174
24.0065
20.257
16.7761
14.2403
12.3213
11.0047
10.126
9.59043
9.28619
9.20214
27.0025
21.5123
17.1194
14.169
11.9933
10.5977
9.70087
9.17517
8.88721
8.81331
17.1502
12.5964
10.1311
8.79791
7.88029
7.34377
7.00059
6.80699
6.68627
6.65919
8.63955
8.59454
8.55825
8.51684
8.47989
8.44606
8.41648
8.39014
8.36292
8.33919
7.94563
7.89989
7.88221
7.87298
7.86656
7.86158
7.85779
7.85526
7.85411
7.85424
5.64749
5.6036
5.54087
5.48171
5.43105
5.38867
5.35385
5.32602
5.31153
5.31224
6.70507
6.54871
6.38099
6.23176
6.11118
6.02171
5.9601
5.92233
5.91328
5.93142
8.05799
7.75368
7.40419
7.10274
6.85713
6.67294
6.54297
6.45628
6.42023
6.43715
9.63759
9.04086
8.42391
7.92222
7.535
7.25945
7.07641
6.96762
6.92148
6.93925
12.0312
10.9987
9.9367
9.07989
8.41644
7.94415
7.62452
7.4263
7.32547
7.31972
14.5729
12.8762
11.2863
10.0493
9.10303
8.44547
8.00532
7.73881
7.59094
7.55796
16.2523
13.7478
11.7119
10.2209
9.11351
8.38669
7.9156
7.64024
7.4955
7.46927
10.8766
9.06061
8.04995
7.39098
6.91042
6.6044
6.399
6.2795
6.20395
6.18881
8.37612
8.35794
8.33702
8.30885
8.28143
8.25509
8.23134
8.2099
8.18729
8.16751
7.76067
7.71912
7.70372
7.69605
7.6909
7.68702
7.68421
7.68247
7.68189
7.68234
5.29897
5.28213
5.25541
5.22997
5.2083
5.19006
5.17469
5.16227
5.15654
5.15937
5.59917
5.54734
5.4968
5.4531
5.41915
5.3954
5.38063
5.3736
5.37724
5.39118
6.20494
6.10883
5.99376
5.89213
5.80725
5.74218
5.69502
5.66222
5.65083
5.6641
6.95087
6.73183
6.51116
6.3293
6.18877
6.0888
6.0236
5.98681
5.9758
5.99274
8.17643
7.77366
7.35533
7.00541
6.73086
6.53223
6.39665
6.31274
6.27352
6.28004
9.50579
8.80918
8.14637
7.60602
7.1863
6.88746
6.68466
6.56232
6.49633
6.48716
10.4455
9.40065
8.53102
7.84756
7.3312
6.98014
6.74927
6.61521
6.54956
6.54652
7.90096
7.23727
6.83172
6.51237
6.26422
6.09166
5.97003
5.89664
5.84929
5.84035
8.13346
8.12686
8.11394