/*--------------------------------*- C++ -*----------------------------------*\
| =========                 |                                                 |
| \\      /  F ield         | foam-extend: Open Source CFD                    |
|  \\    /   O peration     | Version:     4.0                                |
|   \\  /    A nd           | Web:         http://www.foam-extend.org         |
|    \\/     M anipulation  |                                                 |
\*---------------------------------------------------------------------------*/
FoamFile
{
    version     2.0;
    format      ascii;
    class       volScalarField;
    location    "1800";
    object      mut;
}
// * * * * * * * * * * * * * * * * * * * * * * * * * * * * * * * * * * * * * //

dimensions      [1 -1 -1 0 0 0 0];

internalField   nonuniform List<scalar> 
34480
(
0.00190208
0.00189984
0.00189873
0.00189909
0.00190191
0.00190948
0.00192666
0.0019586
0.00200529
0.00212238
0.0178364
0.0163602
0.0137618
0.00989804
0.00582594
0.0030648
0.00187981
0.00169777
0.00200319
0.0023692
0.0516438
0.0468982
0.0394205
0.0290439
0.0174486
0.0083823
0.00387605
0.00255477
0.00265323
0.00304914
0.0641775
0.0592679
0.0513544
0.0397065
0.0252851
0.0124171
0.0052842
0.00299433
0.00293749
0.00339487
0.0695291
0.0652714
0.0580869
0.0466986
0.0311899
0.0158133
0.00650195
0.00334548
0.00316956
0.00370227
0.0714179
0.0679605
0.0616433
0.0507805
0.0348014
0.0179207
0.0072601
0.00359085
0.00342282
0.00407933
0.0700495
0.0676112
0.0624788
0.052568
0.0367755
0.0192043
0.00777045
0.00378088
0.00366635
0.00445363
0.0593654
0.0585188
0.0554964
0.0479413
0.0341508
0.0179466
0.00731878
0.00364236
0.00372382
0.00468173
0.0192274
0.0199222
0.0204428
0.019499
0.0151862
0.0085095
0.00377712
0.00216719
0.00265399
0.00383004
0.00177365
0.00176232
0.00175356
0.00174764
0.00174562
0.00174707
0.00175098
0.00175769
0.00175712
0.00172617
0.00191537
0.0019143
0.00191507
0.00191815
0.00192399
0.00193336
0.00194889
0.00197532
0.0020198
0.00209597
0.0165397
0.0162413
0.0156645
0.0143904
0.0119114
0.00821713
0.00461186
0.00272036
0.00244134
0.00326311
0.0497443
0.0475359
0.0436958
0.0377908
0.0299214
0.0204739
0.0110406
0.00519798
0.0037672
0.00491292
0.0613778
0.0591086
0.0550865
0.0485659
0.0394353
0.0279784
0.0154935
0.0067191
0.00440013
0.00582176
0.0661662
0.064439
0.0611297
0.0552344
0.0460678
0.0337831
0.0192767
0.0079848
0.00490259
0.00665322
0.0678201
0.0667647
0.0643431
0.0593517
0.0505534
0.0379343
0.0220757
0.00889225
0.00537013
0.00767288
0.0665117
0.0662418
0.0649325
0.0611738
0.0532485
0.0408471
0.0242504
0.00960699
0.005794
0.00873006
0.0562425
0.0569442
0.0572165
0.0556756
0.0501818
0.0397565
0.0241444
0.00943913
0.0058383
0.00939487
0.0180022
0.0187034
0.0198268
0.0212137
0.0220836
0.0206217
0.0140736
0.00549256
0.00374265
0.00703886
0.00177539
0.00176323
0.001753
0.0017454
0.0017419
0.00174316
0.00174739
0.00175384
0.00178487
0.00189454
0.00192061
0.00192046
0.00192191
0.00192547
0.00193149
0.00194029
0.00195255
0.00196979
0.00199466
0.00202987
0.0146352
0.0145972
0.0146248
0.0144927
0.0137582
0.0120496
0.00950181
0.00696022
0.00533966
0.00480231
0.0461673
0.0451004
0.0430099
0.0395717
0.0345565
0.0277915
0.0197957
0.0124677
0.00817028
0.00700744
0.0566387
0.0556262
0.0535048
0.0496567
0.0438421
0.0356582
0.025261
0.0150023
0.00912364
0.00801812
0.0607666
0.0602284
0.0587852
0.0555668
0.0499805
0.0414517
0.0295691
0.0168171
0.00965914
0.00888341
0.0621883
0.062193
0.0615564
0.0592605
0.0542542
0.0457801
0.032854
0.0180009
0.00999629
0.00983409
0.0610837
0.0616615
0.0619553
0.060828
0.0568161
0.0488596
0.0353773
0.0187634
0.010173
0.0107679
0.051785
0.0528977
0.0542448
0.0548701
0.0530374
0.0471218
0.034782
0.0179863
0.00971567
0.0112331
0.0168115
0.0173604
0.0183426
0.0197716
0.0214011
0.0220952
0.0188464
0.0103514
0.00590213
0.00791993
0.00177114
0.0017602
0.00175109
0.00174452
0.00174171
0.0017443
0.00175289
0.0017666
0.00179844
0.00189755
0.00191778
0.00191799
0.00191924
0.00192185
0.00192601
0.00193184
0.00193956
0.00194957
0.00196299
0.00198203
0.0130349
0.01304
0.0132227
0.013533
0.0137648
0.0136357
0.0129227
0.0116509
0.010183
0.00906314
0.0423725
0.0418978
0.0408674
0.0390642
0.0362256
0.0321302
0.0268832
0.0210999
0.0160227
0.0130253
0.0514936
0.0511215
0.050086
0.0479673
0.044508
0.0393479
0.0324446
0.0245015
0.0175621
0.0140641
0.0548968
0.0549149
0.0544562
0.0528273
0.0496074
0.0442649
0.0364409
0.0267499
0.0182542
0.0147414
0.0561156
0.0565371
0.0567313
0.0558701
0.0531863
0.0479852
0.0395267
0.0282827
0.0185688
0.0155146
0.0553058
0.056119
0.0570201
0.0571032
0.0552761
0.0505781
0.0418125
0.0291884
0.0184755
0.016147
0.0472416
0.0483162
0.0498531
0.051184
0.0510532
0.048072
0.0404283
0.0278235
0.0172249
0.0160475
0.0157956
0.0161894
0.0169423
0.0180731
0.0195299
0.0208088
0.020245
0.0155872
0.0102482
0.0107839
0.00176498
0.00175545
0.00174771
0.00174237
0.00174041
0.00174361
0.0017539
0.00177219
0.00180486
0.00188216
0.00190879
0.00190914
0.00191001
0.00191156
0.00191385
0.0019169
0.00192076
0.00192568
0.00193262
0.00194418
0.0119915
0.011973
0.0121089
0.0124277
0.0128871
0.013401
0.0138302
0.0140133
0.013827
0.0133446
0.0387091
0.0386123
0.0383298
0.0377142
0.0365334
0.0345628
0.0317244
0.0281475
0.0242145
0.0208836
0.0464701
0.0464871
0.0462115
0.0453741
0.0437213
0.0409621
0.0369864
0.0319488
0.0264244
0.0220902
0.0491762
0.0494778
0.0496188
0.0491296
0.0476669
0.044817
0.0403258
0.0342537
0.0274126
0.0225732
0.0502327
0.0507961
0.0514026
0.051465
0.0504337
0.0477548
0.0429662
0.03599
0.0279951
0.0231518
0.0497435
0.0505476
0.0516336
0.0523626
0.0519771
0.0497254
0.0448545
0.0370495
0.0279554
0.0234344
0.042986
0.0438788
0.0452778
0.0467731
0.0475531
0.046606
0.0427413
0.0352186
0.026068
0.0225419
0.0149631
0.015226
0.0157656
0.0165804
0.0176871
0.0189475
0.0196764
0.0183765
0.0148281
0.0140825
0.00175763
0.00174951
0.00174312
0.001739
0.00173793
0.00174147
0.00175165
0.00177029
0.00180052
0.00185678
0.00189518
0.00189557
0.00189611
0.00189688
0.00189789
0.00189909
0.00190051
0.00190238
0.00190569
0.00191327
0.0115483
0.011505
0.0115624
0.011754
0.0120773
0.0125293
0.0130982
0.0137558
0.0144335
0.0149789
0.0351567
0.0352605
0.0354043
0.0355215
0.0354694
0.0350694
0.034172
0.0327077
0.0307278
0.0286279
0.0416827
0.0419119
0.0421182
0.0421633
0.0418453
0.0409268
0.0392372
0.0367301
0.033497
0.0302562
0.043868
0.0442828
0.0447574
0.0450323
0.0448442
0.0438728
0.0418746
0.0387497
0.034561
0.0305425
0.0448455
0.0454056
0.0461648
0.046796
0.0469229
0.0461156
0.0440096
0.0404167
0.0353722
0.0309068
0.0446723
0.0453649
0.046415
0.0474551
0.0480135
0.047531
0.0454635
0.0414595
0.0355285
0.0308489
0.0391828
0.0398654
0.0410043
0.0424023
0.0436152
0.043995
0.0427302
0.0391541
0.0332024
0.0290683
0.014312
0.0144744
0.0148427
0.0153941
0.0161566
0.0171381
0.0181521
0.0185256
0.0172917
0.016466
0.00174882
0.00174205
0.00173694
0.00173394
0.00173371
0.00173749
0.00174684
0.00176347
0.00178891
0.00182787
0.00187828
0.00187868
0.00187898
0.00187926
0.00187949
0.00187966
0.00187976
0.00188004
0.00188147
0.00188695
0.0115825
0.0115311
0.0115419
0.0116388
0.0118201
0.0120879
0.012449
0.0129238
0.0135415
0.0142782
0.0320643
0.0321864
0.0323996
0.0327014
0.0330477
0.0333639
0.0335613
0.0335486
0.0332572
0.032744
0.0373994
0.0376477
0.0379836
0.0383773
0.0387296
0.0389063
0.0387654
0.0381943
0.0371354
0.0357984
0.0392373
0.0396112
0.0401308
0.0406983
0.041174
0.041366
0.0410726
0.0401406
0.0384618
0.036408
0.0402007
0.0406528
0.0413375
0.0421347
0.0428447
0.0432031
0.042918
0.0417677
0.0395441
0.0368848
0.0403011
0.0408287
0.041687
0.0427198
0.0436994
0.0442896
0.0440846
0.0427542
0.039938
0.0367505
0.035962
0.0364437
0.0372792
0.0384036
0.0396328
0.0406535
0.0409565
0.0400103
0.0372369
0.0341958
0.0138475
0.0139361
0.0141755
0.014527
0.0150094
0.0156578
0.0164604
0.0171997
0.017182
0.016941
0.0017383
0.0017328
0.00172885
0.00172681
0.00172724
0.00173105
0.00173933
0.0017532
0.00177317
0.00179933
0.00185902
0.00185941
0.00185958
0.00185956
0.00185936
0.00185896
0.00185838
0.00185783
0.00185829
0.00186261
0.0119239
0.0118766
0.0118678
0.0119151
0.0120164
0.012172
0.0123883
0.0126914
0.0131398
0.013799
0.0299329
0.0300007
0.0301251
0.0303198
0.0305786
0.030884
0.0312108
0.0315201
0.0317538
0.0318591
0.034092
0.0342514
0.0344851
0.0348101
0.035197
0.0356031
0.03597
0.0362278
0.0363016
0.0362017
0.0355853
0.0358355
0.0362058
0.0366774
0.0372078
0.0377293
0.0381467
0.0383544
0.0382398
0.0378608
0.0364952
0.0367952
0.037272
0.0379081
0.0386372
0.0393627
0.0399339
0.0401837
0.03991
0.0392047
0.036764
0.0371174
0.0377121
0.0385014
0.0394193
0.0403401
0.0410492
0.0413016
0.0407605
0.0396263
0.0333859
0.0336983
0.0342494
0.0350278
0.0359815
0.0370282
0.0379493
0.0384141
0.0378884
0.036691
0.0135654
0.0136018
0.0137502
0.0139621
0.0142464
0.014627
0.0151208
0.0156612
0.0157874
0.0157508
0.00172584
0.00172151
0.00171855
0.00171727
0.00171812
0.00172174
0.00172879
0.00173988
0.00175474
0.00177203
0.00183797
0.00183836
0.00183846
0.00183828
0.00183785
0.00183714
0.0018362
0.00183522
0.00183511
0.00183869
0.0124382
0.0124006
0.0123854
0.0124072
0.0124655
0.0125605
0.0126996
0.0129127
0.0132708
0.0138865
0.0287731
0.0288001
0.0288509
0.0289358
0.029055
0.0292043
0.0293775
0.0295613
0.0297256
0.0298209
0.0319352
0.0320107
0.0321215
0.0322879
0.0324999
0.0327456
0.0330063
0.0332533
0.0334424
0.0335492
0.033032
0.033167
0.0333666
0.033631
0.0339508
0.0343097
0.0346787
0.0350164
0.035259
0.0353981
0.0337966
0.0339649
0.0342339
0.0346113
0.0350817
0.0356281
0.0362076
0.0367526
0.0371439
0.0373542
0.0341025
0.0343116
0.0346663
0.0351522
0.0357647
0.0364832
0.0372452
0.0379465
0.0383834
0.0385399
0.0314571
0.0316424
0.0319711
0.0324404
0.0330383
0.0337683
0.034585
0.0353638
0.0357721
0.0358358
0.0134569
0.0134579
0.0135452
0.0136665
0.0138247
0.0140304
0.0142942
0.0145824
0.0145347
0.0143604
0.00171126
0.00170797
0.00170583
0.00170512
0.00170615
0.00170936
0.00171509
0.0017236
0.00173421
0.00174548
0.00181545
0.00181584
0.00181589
0.00181563
0.00181507
0.00181421
0.00181308
0.00181186
0.00181139
0.00181442
0.0130458
0.0130193
0.0130032
0.0130112
0.0130441
0.0131034
0.0131982
0.0133616
0.0136735
0.0142753
0.0282688
0.0282782
0.0282955
0.0283272
0.0283744
0.0284369
0.028514
0.028602
0.028686
0.0287278
0.0306952
0.0307249
0.0307679
0.0308375
0.0309284
0.0310355
0.0311511
0.031263
0.03135
0.0313959
0.0314215
0.0314847
0.0315758
0.0316957
0.0318408
0.0320053
0.0321795
0.0323479
0.0324831
0.0325776
0.0319927
0.0320757
0.0322062
0.0323916
0.0326258
0.0329071
0.0332253
0.0335589
0.0338549
0.0340842
0.0322424
0.0323529
0.0325406
0.0327958
0.0331232
0.0335238
0.0339857
0.0344788
0.0349078
0.0352479
0.0301188
0.0302183
0.0303978
0.0306506
0.0309695
0.0313665
0.0318425
0.0323646
0.0327591
0.0330456
0.0135114
0.0134889
0.0135373
0.0136033
0.0136871
0.0137918
0.0139218
0.0140511
0.0138825
0.0136215
0.00169444
0.00169203
0.00169055
0.00169021
0.00169124
0.00169389
0.00169832
0.00170456
0.00171181
0.00171896
0.00179155
0.00179193
0.00179197
0.00179167
0.00179104
0.0017901
0.00178887
0.0017875
0.00178677
0.00178933
0.0137104
0.013695
0.0136802
0.0136802
0.0136968
0.0137329
0.0137996
0.0139327
0.0142186
0.0148192
0.0281278
0.0281316
0.0281368
0.0281476
0.028166
0.0281931
0.0282306
0.0282789
0.0283293
0.0283492
0.0300386
0.0300487
0.0300635
0.0300911
0.0301281
0.0301721
0.0302197
0.0302653
0.030299
0.0303111
0.0304796
0.0305062
0.0305439
0.0305931
0.0306514
0.030716
0.0307826
0.0308454
0.0308941
0.030927
0.0308698
0.0309065
0.0309636
0.0310454
0.0311476
0.0312691
0.0314064
0.0315517
0.031684
0.0317859
0.0310293
0.0310813
0.0311717
0.0312924
0.0314468
0.0316351
0.0318539
0.0320929
0.0323088
0.0324851
0.0292731
0.02932
0.0294105
0.0295351
0.0296863
0.0298696
0.0300892
0.0303327
0.0305063
0.0306394
0.0137183
0.0136808
0.0137054
0.0137395
0.0137819
0.0138329
0.0138934
0.0139423
0.0137356
0.0134801
0.00167527
0.0016736
0.00167262
0.00167251
0.00167341
0.00167546
0.00167868
0.001683
0.0016877
0.00169201
0.00176626
0.00176665
0.00176667
0.00176635
0.00176569
0.0017647
0.00176341
0.00176195
0.00176102
0.00176314
0.014424
0.0144187
0.0144065
0.0144017
0.0144077
0.0144281
0.0144758
0.0145893
0.0148599
0.0154652
0.0281698
0.0281724
0.0281739
0.0281772
0.0281846
0.0281977
0.0282193
0.0282514
0.0282882
0.0282998
0.0297125
0.0297154
0.0297201
0.0297311
0.0297469
0.0297662
0.0297875
0.0298083
0.0298234
0.0298261
0.0299602
0.0299699
0.0299844
0.0300039
0.030027
0.0300522
0.0300778
0.0301013
0.0301195
0.0301323
0.0302114
0.0302258
0.0302487
0.0302827
0.0303249
0.0303744
0.0304296
0.0304876
0.0305407
0.0305801
0.0302883
0.030309
0.0303487
0.0304023
0.0304711
0.0305549
0.0306516
0.0307567
0.0308499
0.0309217
0.028807
0.0288241
0.0288662
0.0289231
0.028988
0.0290628
0.0291493
0.0292406
0.0292826
0.0293109
0.0140699
0.0140228
0.0140335
0.0140502
0.014071
0.014095
0.0141217
0.0141338
0.0139363
0.0137259
0.0016537
0.00165262
0.00165202
0.00165203
0.00165273
0.00165419
0.00165637
0.00165916
0.00166198
0.00166433
0.00173952
0.0017399
0.00173992
0.00173959
0.00173891
0.0017379
0.00173657
0.00173503
0.00173392
0.00173561
0.0151959
0.0151999
0.0151907
0.0151835
0.0151824
0.0151921
0.0152268
0.0153273
0.0155895
0.0162031
0.0282985
0.0283015
0.0283021
0.028303
0.028306
0.0283134
0.0283279
0.0283524
0.0283829
0.0283911
0.0295608
0.0295615
0.029563
0.0295677
0.0295749
0.0295841
0.0295949
0.029606
0.0296144
0.0296151
0.0296888
0.0296912
0.0296963
0.0297042
0.0297142
0.0297255
0.0297372
0.0297485
0.029758
0.0297661
0.0298455
0.0298502
0.0298586
0.0298724
0.0298897
0.0299102
0.0299329
0.0299569
0.0299796
0.0299966
0.0298649
0.0298703
0.0298858
0.0299086
0.0299395
0.0299781
0.0300232
0.0300726
0.030116
0.0301479
0.0286129
0.0286146
0.0286324
0.0286564
0.0286814
0.0287077
0.0287361
0.0287619
0.0287533
0.0287469
0.0145637
0.0145107
0.0145137
0.0145214
0.0145314
0.0145425
0.0145537
0.0145499
0.0143834
0.0142269
0.00162971
0.00162909
0.00162876
0.00162882
0.00162931
0.00163024
0.00163157
0.00163318
0.00163466
0.00163568
0.00171122
0.0017116
0.00171161
0.00171127
0.00171059
0.00170955
0.0017082
0.00170661
0.00170533
0.00170657
0.0160472
0.0160597
0.0160538
0.0160457
0.0160401
0.0160426
0.0160685
0.0161605
0.0164191
0.017045
0.0284661
0.0284696
0.0284703
0.0284705
0.028472
0.0284767
0.0284875
0.0285078
0.028535
0.0285425
0.029496
0.0294963
0.029497
0.0294991
0.0295025
0.0295072
0.029513
0.0295195
0.029525
0.0295255
0.0295548
0.0295545
0.029556
0.0295595
0.0295646
0.0295709
0.0295781
0.0295854
0.0295924
0.0295993
0.0296521
0.0296529
0.0296557
0.0296613
0.0296689
0.029678
0.0296884
0.0296995
0.0297105
0.0297192
0.0296405
0.0296391
0.0296439
0.0296536
0.0296685
0.0296885
0.0297128
0.02974
0.0297644
0.0297827
0.0286007
0.0285952
0.0286017
0.0286109
0.028619
0.0286258
0.0286315
0.0286331
0.0286113
0.0286005
0.0152055
0.0151487
0.0151476
0.0151511
0.015156
0.0151614
0.0151658
0.0151552
0.0150284
0.0149226
0.00160331
0.00160303
0.00160289
0.00160295
0.00160324
0.00160374
0.00160441
0.00160516
0.00160569
0.00160581
0.00168126
0.00168163
0.00168164
0.00168129
0.0016806
0.00167955
0.00167818
0.00167653
0.00167509
0.00167588
0.0170087
0.0170292
0.017027
0.0170191
0.0170109
0.0170086
0.0170284
0.017115
0.0173741
0.0180185
0.0286491
0.028653
0.0286539
0.0286542
0.0286551
0.0286584
0.0286671
0.0286847
0.0287099
0.0287187
0.0294716
0.0294721
0.0294726
0.0294736
0.0294752
0.0294774
0.0294805
0.0294844
0.0294883
0.0294892
0.0294931
0.0294919
0.0294921
0.0294939
0.0294971
0.0295014
0.0295065
0.0295122
0.0295179
0.0295238
0.0295541
0.0295536
0.0295544
0.0295568
0.0295605
0.0295652
0.0295706
0.0295766
0.0295827
0.0295879
0.029532
0.0295283
0.0295287
0.0295331
0.0295414
0.0295535
0.0295687
0.0295864
0.0296027
0.0296159
0.0287005
0.0286924
0.0286941
0.0286971
0.0286989
0.028699
0.0286972
0.0286915
0.0286708
0.0286646
0.0160125
0.0159534
0.0159503
0.0159518
0.0159545
0.0159574
0.015959
0.0159472
0.0158608
0.0157983
0.00157451
0.00157447
0.00157447
0.00157451
0.00157463
0.0015748
0.00157498
0.00157511
0.001575
0.00157453
0.00164954
0.0016499
0.00164991
0.00164956
0.00164886
0.0016478
0.00164641
0.00164472
0.00164313
0.00164343
0.0181227
0.0181509
0.0181527
0.0181459
0.0181366
0.0181313
0.0181471
0.0182302
0.0184934
0.0191676
0.0288353
0.0288392
0.0288405
0.0288409
0.0288417
0.0288443
0.0288514
0.0288667
0.0288905
0.0289019
0.0294643
0.029465
0.0294655
0.0294659
0.0294665
0.0294674
0.0294688
0.0294711
0.0294739
0.0294754
0.0294669
0.0294657
0.0294656
0.0294666
0.0294688
0.0294719
0.0294757
0.02948
0.0294845
0.0294893
0.0295054
0.0295047
0.0295049
0.029506
0.0295081
0.0295108
0.0295141
0.0295176
0.0295213
0.0295247
0.0294855
0.0294816
0.0294806
0.0294828
0.0294881
0.0294963
0.0295068
0.0295192
0.029531
0.0295416
0.0288613
0.0288528
0.0288527
0.0288533
0.0288532
0.0288519
0.0288486
0.0288422
0.0288271
0.0288268
0.0170186
0.0169582
0.0169541
0.016955
0.0169567
0.0169584
0.0169588
0.0169523
0.0168998
0.0168724
0.00154337
0.00154351
0.00154359
0.00154361
0.0015436
0.00154352
0.00154336
0.00154306
0.00154253
0.00154166
0.00161609
0.00161645
0.00161645
0.0016161
0.00161539
0.00161432
0.00161291
0.00161118
0.00160943
0.00160922
0.0194474
0.0194833
0.0194892
0.0194844
0.0194752
0.0194687
0.0194818
0.0195621
0.0198312
0.0205512
0.0290161
0.0290199
0.0290213
0.0290219
0.0290227
0.0290248
0.0290305
0.0290436
0.0290658
0.0290807
0.0294623
0.0294631
0.0294636
0.0294637
0.0294638
0.0294639
0.0294644
0.0294655
0.0294676
0.0294697
0.0294565
0.0294555
0.0294554
0.029456
0.0294575
0.0294596
0.0294623
0.0294654
0.0294686
0.0294721
0.0294803
0.0294797
0.0294797
0.0294804
0.0294816
0.0294833
0.0294853
0.0294875
0.0294897
0.0294919
0.029468
0.0294647
0.0294636
0.0294648
0.0294684
0.029474
0.0294813
0.0294899
0.0294983
0.0295067
0.0290451
0.0290376
0.0290368
0.0290368
0.0290365
0.0290354
0.0290329
0.0290283
0.0290188
0.0290233
0.0182819
0.0182212
0.018217
0.0182175
0.0182187
0.0182198
0.0182194
0.0182166
0.0181935
0.0181932
0.00151001
0.00151028
0.00151041
0.00151041
0.0015103
0.00151005
0.00150966
0.00150908
0.00150827
0.00150716
0.0015811
0.00158145
0.00158145
0.00158109
0.00158037
0.0015793
0.00157787
0.00157611
0.00157422
0.00157346
0.0210634
0.0211066
0.021117
0.021115
0.0211077
0.021102
0.0211137
0.0211904
0.0214634
0.0222476
0.0291824
0.0291857
0.029187
0.0291877
0.0291885
0.0291902
0.0291947
0.0292051
0.0292246
0.0292427
0.0294602
0.0294608
0.0294612
0.0294612
0.0294611
0.0294609
0.0294609
0.0294613
0.0294628
0.0294651
0.0294516
0.029451
0.0294508
0.0294512
0.0294522
0.0294535
0.0294552
0.0294571
0.0294593
0.0294616
0.0294654
0.0294651
0.0294651
0.0294654
0.0294661
0.0294671
0.0294683
0.0294695
0.0294707
0.029472
0.0294596
0.0294573
0.0294564
0.0294572
0.0294595
0.0294631
0.0294677
0.0294731
0.0294785
0.0294847
0.0292214
0.0292156
0.0292149
0.0292148
0.0292146
0.0292141
0.0292127
0.0292102
0.0292049
0.0292124
0.0198997
0.0198403
0.0198365
0.0198369
0.0198376
0.0198381
0.0198368
0.0198334
0.019824
0.0198433
0.00147469
0.00147502
0.00147518
0.00147517
0.00147499
0.00147464
0.00147409
0.00147335
0.00147235
0.0014711
0.00154464
0.00154502
0.00154503
0.00154468
0.00154397
0.00154291
0.00154149
0.00153974
0.00153775
0.00153645
0.0230701
0.023119
0.0231344
0.0231371
0.0231351
0.0231343
0.023148
0.023219
0.0234833
0.0243338
0.0293216
0.029324
0.029325
0.0293256
0.0293264
0.0293278
0.029331
0.0293382
0.0293533
0.0293723
0.0294559
0.0294563
0.0294565
0.0294565
0.0294563
0.0294561
0.0294559
0.029456
0.0294568
0.0294587
0.029448
0.0294477
0.0294476
0.0294478
0.0294483
0.0294491
0.02945
0.0294511
0.0294523
0.0294537
0.0294551
0.0294549
0.0294549
0.0294551
0.0294554
0.0294559
0.0294565
0.0294571
0.0294577
0.0294584
0.0294503
0.0294489
0.0294484
0.0294488
0.0294502
0.0294522
0.0294548
0.0294577
0.0294606
0.0294645
0.029363
0.0293594
0.0293589
0.0293589
0.0293588
0.0293586
0.0293578
0.0293565
0.0293532
0.0293613
0.022038
0.0219834
0.0219805
0.0219807
0.021981
0.0219807
0.0219788
0.0219745
0.021964
0.0219763
0.00143756
0.00143792
0.0014381
0.00143808
0.00143786
0.00143744
0.00143681
0.00143597
0.0014349
0.00143358
0.00150593
0.00150631
0.00150632
0.00150599
0.0015053
0.00150426
0.00150288
0.00150115
0.00149913
0.00149738
0.025715
0.025754
0.0257637
0.0257647
0.0257623
0.0257596
0.0257637
0.0258023
0.0259908
0.0268291
0.029421
0.0294221
0.0294226
0.029423
0.0294236
0.0294246
0.0294264
0.0294302
0.0294387
0.0294532
0.0294506
0.0294507
0.0294508
0.0294508
0.0294508
0.0294507
0.0294506
0.0294506
0.0294508
0.0294517
0.0294457
0.0294455
0.0294454
0.0294455
0.0294458
0.0294463
0.0294468
0.0294475
0.0294482
0.0294489
0.0294481
0.029448
0.0294479
0.029448
0.0294483
0.0294486
0.029449
0.0294495
0.0294499
0.0294504
0.0294408
0.02944
0.0294397
0.02944
0.0294407
0.0294419
0.0294433
0.0294448
0.0294463
0.0294481
0.0294496
0.029448
0.0294479
0.0294479
0.029448
0.029448
0.0294478
0.0294477
0.0294473
0.0294532
0.0250093
0.0249679
0.0249662
0.0249663
0.0249664
0.0249659
0.0249643
0.0249606
0.0249519
0.024955
0.00139791
0.00139827
0.00139845
0.00139842
0.00139819
0.00139774
0.00139708
0.00139621
0.00139511
0.00139381
0.00239281
0.00246249
0.00243256
0.00231099
0.00232558
0.00232612
0.00229719
0.00225606
0.00287945
0.00288822
0.00284939
0.00275929
0.00319411
0.00321024
0.00317055
0.0030559
0.00349123
0.00351339
0.00347093
0.00334486
0.00381585
0.00383388
0.00378208
0.00365042
0.00408577
0.00409748
0.00404251
0.00392207
0.00421908
0.00422285
0.00416636
0.00405202
0.00372961
0.0037125
0.00364505
0.00352888
0.00255891
0.00262097
0.00265906
0.00265927
0.00204787
0.00209958
0.00211895
0.00209337
0.00411225
0.00429185
0.00425019
0.00394146
0.00627379
0.00644918
0.00634471
0.00589828
0.00757764
0.00772574
0.00758633
0.00710759
0.00889199
0.00906971
0.0089162
0.00841879
0.0107323
0.0110442
0.0109338
0.0104862
0.0127086
0.0131299
0.0130348
0.0126321
0.0142249
0.0147224
0.0146634
0.0143911
0.0119138
0.0123295
0.0122482
0.0119917
0.00235803
0.00239059
0.0023945
0.00237533
0.00193779
0.00196081
0.00196696
0.00195422
0.00475894
0.00497829
0.00507278
0.00518543
0.00700931
0.0072888
0.00736932
0.00752301
0.00819258
0.00846815
0.0085355
0.00867943
0.00934592
0.00963377
0.00969968
0.00978408
0.0108273
0.0112353
0.011421
0.0116328
0.0124792
0.0130265
0.0133192
0.0136128
0.0137789
0.0144506
0.0148361
0.015234
0.010808
0.0113664
0.0116687
0.0119371
0.00214154
0.00216797
0.00217857
0.00217643
0.00188467
0.00189578
0.00189808
0.00188998
0.00821293
0.00824466
0.00852943
0.00921341
0.0116688
0.0117601
0.0122178
0.0132351
0.0127151
0.0129089
0.0134669
0.0146172
0.0135783
0.0138702
0.014496
0.015717
0.0147083
0.0151315
0.0158841
0.0172875
0.0158365
0.0163829
0.0172323
0.018735
0.0164444
0.0171204
0.01806
0.0195947
0.012017
0.012609
0.0133241
0.0143242
0.00200808
0.00202458
0.00203591
0.00204395
0.00184817
0.0018559
0.00185669
0.00185007
0.0124914
0.0125105
0.0127877
0.0133818
0.0193433
0.0193484
0.0199159
0.021068
0.0203802
0.0205424
0.0213148
0.0227204
0.0209069
0.0212367
0.0221601
0.0237221
0.0217619
0.0223099
0.0234336
0.0251723
0.0224565
0.0231906
0.0244465
0.0262454
0.0221728
0.0230446
0.0243318
0.0260192
0.0146198
0.0152983
0.0161073
0.0169457
0.00193353
0.00194463
0.00195354
0.00196117
0.00181867
0.00182499
0.00182541
0.0018196
0.0139997
0.0140893
0.0142469
0.0144867
0.0274867
0.0273886
0.0277531
0.0285128
0.0288635
0.0288593
0.0294152
0.0304315
0.0290396
0.029173
0.0298818
0.0310518
0.029464
0.0297802
0.030663
0.0319801
0.0295685
0.0300444
0.03104
0.0324095
0.0281342
0.0287186
0.0297084
0.0309484
0.0165015
0.0168929
0.0173692
0.017782
0.00187899
0.00188603
0.00189255
0.0018991
0.0017934
0.001799
0.00179922
0.00179386
0.0130486
0.0131818
0.0132775
0.0133509
0.0322225
0.0321758
0.0322977
0.0325597
0.035187
0.035154
0.0353801
0.0358039
0.0356073
0.0356202
0.0359438
0.0364906
0.0359448
0.0360442
0.0364917
0.0371755
0.0357142
0.0358983
0.0364324
0.0371862
0.0332416
0.0334856
0.0340085
0.0346746
0.0170588
0.0172014
0.0173409
0.0173794
0.00183717
0.00184161
0.00184625
0.00185152
0.00176986
0.00177502
0.00177513
0.00177009
0.0124444
0.012576
0.0126415
0.0126511
0.031532
0.031513
0.0315338
0.0315909
0.036096
0.0360942
0.0361368
0.0362108
0.0376852
0.0376882
0.0377649
0.0378895
0.0389114
0.0389376
0.0390843
0.0393102
0.039169
0.0392121
0.0394091
0.0397022
0.0362004
0.0362534
0.0364315
0.0366692
0.0160508
0.0160933
0.0160843
0.0159689
0.00180247
0.00180523
0.00180847
0.00181262
0.00174666
0.00175147
0.00175152
0.00174676
0.0124422
0.0125679
0.0126142
0.0125882
0.0294934
0.029468
0.0294719
0.0295051
0.0335364
0.0335406
0.0335443
0.0335458
0.0354275
0.0354399
0.0354443
0.0354362
0.0374175
0.0374522
0.0374905
0.0375233
0.0385875
0.0386303
0.0386911
0.0387539
0.0358964
0.0359292
0.0359653
0.0359825
0.014612
0.0146292
0.0146017
0.0144915
0.00177162
0.00177327
0.00177551
0.00177869
0.00172305
0.00172754
0.00172757
0.00172309
0.012736
0.012854
0.0128871
0.0128407
0.0284055
0.0283759
0.0283779
0.0284119
0.0313747
0.0313744
0.031377
0.0313818
0.0325995
0.0326058
0.032603
0.0325897
0.0341646
0.0341902
0.0342046
0.034205
0.0353957
0.0354371
0.0354634
0.0354692
0.0332694
0.0333072
0.0333137
0.0332795
0.013784
0.0137879
0.0137636
0.0136863
0.00174246
0.0017434
0.00174492
0.00174732
0.00169861
0.00170279
0.0017028
0.00169862
0.0131767
0.013284
0.0133073
0.0132516
0.0280423
0.0280118
0.0280132
0.0280466
0.0302887
0.0302872
0.0302906
0.0302984
0.0309336
0.0309361
0.0309349
0.0309295
0.0318206
0.0318327
0.0318405
0.0318427
0.0325656
0.0325878
0.032602
0.0326054
0.0307996
0.0308224
0.0308223
0.0307941
0.0136112
0.0136098
0.0135886
0.0135322
0.00171383
0.00171432
0.00171533
0.00171713
0.00167306
0.0016769
0.0016769
0.00167305
0.0137102
0.0138009
0.0138164
0.0137628
0.0280105
0.0279802
0.0279809
0.0280129
0.0298073
0.0298057
0.0298087
0.0298159
0.0301355
0.0301371
0.0301371
0.0301353
0.0305934
0.0305989
0.0306035
0.0306068
0.030955
0.0309647
0.0309724
0.030977
0.0294109
0.0294215
0.0294183
0.0293984
0.0138644
0.013864
0.0138461
0.0138016
0.00168506
0.00168526
0.00168592
0.00168726
0.00164617
0.00164965
0.00164964
0.00164616
0.014323
0.0143848
0.0143936
0.0143582
0.028121
0.0280915
0.0280918
0.0281221
0.0295999
0.0295985
0.0296007
0.0296063
0.0297693
0.0297707
0.0297711
0.0297705
0.0300026
0.0300056
0.0300085
0.0300112
0.0301624
0.0301668
0.0301712
0.0301754
0.0288193
0.0288249
0.0288211
0.0288063
0.0143905
0.0143942
0.01438
0.0143425
0.0016557
0.00165572
0.00165615
0.00165714
0.00161776
0.00162089
0.00162089
0.00161774
0.0150237
0.015066
0.0150715
0.0150441
0.0282938
0.0282661
0.0282661
0.0282941
0.0295134
0.0295122
0.0295137
0.0295176
0.0296026
0.0296038
0.0296044
0.0296042
0.0297228
0.0297247
0.0297266
0.0297285
0.0297902
0.0297924
0.0297952
0.0297985
0.0286602
0.0286642
0.028661
0.0286497
0.0151187
0.015128
0.0151175
0.015084
0.00162539
0.00162531
0.00162558
0.0016263
0.0015877
0.00159049
0.00159049
0.00158769
0.0158346
0.0158741
0.015878
0.0158493
0.0284942
0.0284692
0.0284692
0.0284943
0.0294801
0.0294791
0.0294799
0.0294825
0.0295269
0.0295279
0.0295284
0.0295284
0.0295904
0.0295916
0.0295929
0.0295941
0.0296205
0.0296219
0.0296237
0.0296263
0.0287164
0.02872
0.0287177
0.0287092
0.0160301
0.0160454
0.0160382
0.0160067
0.00159383
0.00159371
0.00159388
0.0015944
0.0015559
0.00155832
0.00155832
0.0015559
0.0168101
0.0168538
0.0168564
0.01682
0.0287057
0.0286844
0.0286844
0.0287058
0.0294691
0.0294684
0.0294688
0.0294703
0.0294919
0.0294927
0.0294931
0.029493
0.0295265
0.0295273
0.0295281
0.0295288
0.0295447
0.0295456
0.0295469
0.0295488
0.0288718
0.0288752
0.0288738
0.0288674
0.0171397
0.0171604
0.0171562
0.0171259
0.00156082
0.00156069
0.00156079
0.00156116
0.00152237
0.00152438
0.00152438
0.00152236
0.0180073
0.0180682
0.0180698
0.0180132
0.0289174
0.0289009
0.028901
0.0289176
0.0294661
0.0294659
0.029466
0.0294665
0.0294741
0.0294747
0.029475
0.0294749
0.0294932
0.0294937
0.0294941
0.0294944
0.0295088
0.0295094
0.0295103
0.0295115
0.0290619
0.0290651
0.0290642
0.0290593
0.0184898
0.0185134
0.0185116
0.018484
0.00152626
0.00152615
0.0015262
0.00152645
0.00148727
0.00148885
0.00148885
0.00148727
0.0195182
0.0196218
0.0196225
0.0195211
0.0291179
0.0291075
0.0291076
0.0291181
0.0294639
0.0294641
0.0294641
0.0294639
0.029463
0.0294634
0.0294635
0.0294634
0.0294729
0.0294731
0.0294733
0.0294733
0.029486
0.0294865
0.0294871
0.0294878
0.0292447
0.0292477
0.029247
0.0292426
0.0201458
0.0201636
0.0201638
0.0201466
0.00149022
0.00149013
0.00149016
0.00149032
0.00145093
0.00145203
0.00145203
0.00145093
0.0215066
0.0217026
0.0217027
0.0215073
0.0292913
0.0292879
0.029288
0.0292915
0.029459
0.0294595
0.0294594
0.0294589
0.0294546
0.0294548
0.0294549
0.0294548
0.0294588
0.0294589
0.0294589
0.0294588
0.0294655
0.0294659
0.0294662
0.0294664
0.029387
0.0293898
0.029389
0.0293846
0.0222605
0.022272
0.0222725
0.0222618
0.0014528
0.00145275
0.00145277
0.00145286
0.00141266
0.00141328
0.00141328
0.00141266
0.0243539
0.0246984
0.0246985
0.0243541
0.0294187
0.0294208
0.0294209
0.0294189
0.0294521
0.0294524
0.0294524
0.0294521
0.0294494
0.0294495
0.0294495
0.0294495
0.0294505
0.0294505
0.0294505
0.0294504
0.0294486
0.0294489
0.0294492
0.0294494
0.0294665
0.0294677
0.0294668
0.0294638
0.0251709
0.025172
0.0251727
0.0251728
0.00141322
0.00141323
0.00141324
0.00141327
0.00219657
0.00208308
0.00202171
0.00198593
0.0019647
0.00194888
0.00193531
0.00192372
0.00191432
0.00190685
0.00280756
0.00252535
0.00385025
0.0083079
0.0133697
0.0171476
0.0192252
0.0198376
0.019561
0.0188307
0.00403211
0.00498503
0.0114548
0.021126
0.0322256
0.0418004
0.048789
0.0530239
0.0547463
0.0542205
0.0055756
0.00897243
0.0176642
0.0302572
0.043458
0.0540549
0.0614722
0.0658026
0.0674447
0.0668344
0.00877435
0.0121212
0.0230652
0.0370125
0.0505329
0.0609164
0.0677798
0.0714791
0.072587
0.0718618
0.0132426
0.0159652
0.0274728
0.0417022
0.0549614
0.0648101
0.0708964
0.0737644
0.0742178
0.0733516
0.0167167
0.0188451
0.0294893
0.0436929
0.0565209
0.0656451
0.0707071
0.0725973
0.0723444
0.071414
0.018533
0.0194645
0.0276052