/*--------------------------------*- C++ -*----------------------------------*\
| =========                 |                                                 |
| \\      /  F ield         | foam-extend: Open Source CFD                    |
|  \\    /   O peration     | Version:     4.0                                |
|   \\  /    A nd           | Web:         http://www.foam-extend.org         |
|    \\/     M anipulation  |                                                 |
\*---------------------------------------------------------------------------*/
FoamFile
{
    version     2.0;
    format      ascii;
    class       volScalarField;
    location    "1800";
    object      p;
}
// * * * * * * * * * * * * * * * * * * * * * * * * * * * * * * * * * * * * * //

dimensions      [1 -1 -2 0 0 0 0];

internalField   nonuniform List<scalar> 
34480
(
107874
107587
107369
107248
107257
107451
107929
108699
109406
112522
107136
106711
106338
106039
105847
105820
106070
106679
107085
109450
106735
106189
105681
105215
104815
104540
104512
104861
104883
106285
106518
105829
105174
104538
103934
103416
103112
103176
102793
103211
106397
105586
104812
104040
103271
102545
101995
101776
100994
100503
106406
105506
104645
103772
102879
101992
101240
100761
99601.4
98337.6
106308
105344
104432
103500
102535
101544
100645
99933.1
98409.3
96436.9
106379
105393
104461
103515
102531
101504
100524
99622.9
97733.1
95009.7
106173
105183
104251
103325
102385
101402
100412
99362.5
97094.2
93616.5
106290
105285
104332
103398
102489
101589
100693
99671
97143.2
92822.4
109731
109574
109521
109603
109861
110349
111158
112412
114309
117355
108635
108354
108164
108093
108192
108537
109255
110523
112597
116413
107977
107577
107257
107033
106947
107085
107604
108745
110805
115105
107567
107027
106562
106176
105903
105825
106114
107067
109022
113619
107311
106648
106060
105538
105103
104832
104898
105633
107422
112157
107217
106459
105774
105145
104582
104150
104017
104526
106109
110833
107048
106218
105468
104766
104116
103565
103271
103559
104899
109476
107070
106203
105415
104674
103977
103354
102942
103027
104080
108382
106863
105976
105163
104404
103699
103065
102596
102514
103241
107285
106933
106036
105202
104423
103710
103092
102642
102528
102995
106901
111100
111030
111068
111237
111561
112068
112791
113763
115029
116609
109881
109711
109646
109718
109964
110436
111207
112360
113999
116261
109068
108791
108616
108566
108688
109049
109757
110961
112844
115728
108516
108113
107810
107621
107596
107814
108406
109583
111620
115057
108150
107629
107210
106897
106735
106808
107263
108361
110477
114368
107963
107347
106831
106415
106136
106077
106397
107388
109526
113770
107728
107035
106448
105956
105587
105422
105620
106485
108588
113070
107703
106964
106327
105784
105354
105110
105202
105929
107929
112524
107500
106731
106057
105476
105007
104715
104736
105342
107168
111865
107545
106765
106066
105458
104962
104646
104638
105194
106834
111663
111962
111931
111986
112138
112397
112770
113262
113869
114572
115314
110818
110715
110708
110821
111074
111492
112103
112929
113973
115148
109978
109785
109694
109725
109914
110305
110958
111936
113292
114952
109365
109063
108866
108793
108886
109208
109846
110916
112542
114705
108937
108528
108229
108052
108042
108276
108864
109972
111816
114458
108691
108189
107800
107531
107426
107568
108090
109200
111214
114290
108411
107833
107372
107029
106845
106904
107354
108435
110566
114013
108349
107721
107206
106808
106562
106552
106928
107951
110130
113874
108136
107474
106921
106483
106192
106131
106448
107402
109547
113574
108154
107480
106903
106439
106121
106031
106308
107214
109267
113567
112452
112438
112484
112595
112771
113012
113311
113658
114031
114396
111482
111421
111437
111546
111754
112070
112497
113026
113637
114255
110699
110568
110527
110591
110783
111123
111634
112331
113204
114148
110084
109864
109741
109737
109879
110209
110769
111607
112745
114064
109633
109318
109112
109029
109107
109399
109975
110917
112303
114012
109353
108953
108667
108509
108518
108762
109332
110348
111960
114058
109046
108572
108220
107995
107942
108134
108682
109743
111546
114014
108959
108434
108028
107751
107644
107786
108300
109371
111313
114115
108738
108179
107736
107420
107272
107372
107852
108910
110916
114043
108738
108165
107699
107360
107185
107259
107707
108742
110734
114161
112684
112677
112708
112778
112886
113028
113198
113387
113581
113763
111919
111882
111902
111987
112138
112354
112631
112954
113304
113633
111245
111157
111142
111209
111371
111634
112001
112466
113005
113544
110672
110514
110441
110469
110617
110904
111348
111955
112711
113512
110233
109995
109856
109831
109946
110235
110731
111465
112443
113535
109943
109631
109426
109344
109417
109692
110223
111065
112264
113668
109625
109244
108981
108845
108875
109128
109676
110602
112008
113728
109526
109094
108782
108601
108590
108815
109362
110345
111922
113945
109301
108835
108489
108273
108229
108426
108965
109979
111672
113991
109290
108810
108441
108204
108137
108314
108836
109854
111585
114167
112758
112754
112772
112813
112874
112953
113046
113147
113248
113341
112184
112162
112178
112236
112336
112474
112645
112838
113038
113219
111640
111580
111577
111634
111757
111946
112197
112498
112827
113141
111135
111023
110981
111020
111150
111378
111708
112132
112623
113115
110733
110556
110465
110471
110592
110845
111242
111785
112456
113157
110455
110215
110072
110038
110139
110403
110856
111513
112373
113310
110141
109840
109648
109575
109651
109915
110408
111166
112213
113400
110040
109693
109458
109348
109398
109653
110171
111007
112222
113660
109814
109435
109170
109032
109057
109299
109829
110721
112067
113750
109799
109405
109119
108963
108971
109201
109726
110642
112051
113939
112745
112742
112752
112774
112807
112850
112899
112952
113004
113052
112328
112314
112325
112361
112423
112508
112610
112722
112836
112936
111912
111873
111873
111916
112003
112132
112297
112488
112689
112875
111487
111409
111385
111422
111525
111696
111931
112219
112536
112843
111137
111009
110950
110970
111078
111282
111585
111975
112428
112882
110886
110706
110607
110602
110707
110936
111300
111795
112399
113025
110588
110355
110219
110186
110280
110525
110940
111533
112293
113109
110496
110223
110050
109991
110071
110322
110775
111452
112359
113368
110273
109970
109772
109691
109756
110006
110483
111224
112254
113455
110260
109942
109726
109631
109684
109928
110412
111187
112284
113637
112691
112689
112694
112705
112722
112745
112771
112798
112825
112850
112393
112384
112390
112412
112449
112498
112557
112622
112686
112742
112092
112066
112067
112096
112154
112238
112343
112463
112585
112697
111746
111692
111678
111708
111784
111906
112067
112259
112463
112657
111455
111363
111326
111348
111437
111593
111813
112087
112391
112687
111240
111107
111040
111049
111144
111330
111609
111970
112390
112810
110965
110790
110694
110686
110780
110990
111322
111771
112313
112872
110891
110680
110556
110530
110620
110845
111220
111747
112409
113113
110674
110437
110293
110250
110333
110566
110970
111559
112325
113170
110668
110417
110258
110205
110281
110514
110932
111556
112382
113337
112624
112622
112624
112629
112638
112650
112663
112677
112692
112704
112409
112404
112407
112419
112440
112469
112502
112539
112575
112607
112204
112187
112188
112207
112243
112296
112362
112435
112510
112577
111928
111892
111883
111906
111959
112042
112150
112275
112405
112527
111698
111633
111609
111630
111697
111811
111966
112153
112356
112549
111521
111426
111381
111396
111474
111617
111823
112080
112368
112649
111276
111146
111080
111085
111169
111338
111593
111922
112304
112686
111224
111066
110979
110973
111059
111248
111544
111941
112415
112902
111016
110834
110732
110715
110800
111000
111327
111778
112333
112921
111021
110828
110713
110689
110771
110976
111319
111803
112408
113073
112557
112556
112557
112559
112564
112569
112576
112583
112591
112597
112399
112396
112397
112404
112416
112432
112450
112471
112491
112509
112271
112260
112260
112271
112294
112327
112367
112411
112455
112496
112052
112028
112022
112038
112074
112129
112199
112279
112361
112438
111878
111833
111818
111835
111883
111963
112070
112195
112328
112453
111740
111672
111643
111658
111718
111824
111971
112150
112345
112531
111524
111430
111386
111396
111465
111596
111784
112019
112283
112542
111500
111384
111324
111329
111403
111554
111779
112069
112402
112735
111300
111164
111093
111090
111168
111332
111585
111920
112314
112718
111320
111175
111094
111087
111164
111335
111604
111967
112399
112857
112499
112498
112498
112499
112501
112504
112508
112511
112516
112518
112376
112374
112375
112378
112385
112393
112404
112416
112427
112437
112309
112301
112301
112308
112321
112341
112365
112391
112418
112441
112132
112116
112113
112123
112146
112182
112226
112276
112328
112376
112008
111978
111968
111980
112014
112068
112139
112222
112308
112388
111905
111858
111840
111852
111897
111972
112074
112195
112325
112448
111718
111651
111622
111633
111687
111783
111918
112082
112261
112435
111724
111640
111600
111609
111669
111784
111949
112155
112384
112609
111530
111431
111382
111387
111452
111580
111769
112011
112285
112559
111567
111461
111406
111408
111475
111610
111813
112076
112379
112689
112451
112451
112451
112451
112452
112454
112455
112457
112460
112461
112348
112346
112347
112349
112352
112357
112363
112370
112376
112382
112329
112324
112323
112327
112335
112347
112361
112376
112392
112406
112181
112171
112169
112175
112190
112212
112240
112271
112303
112333
112100
112080
112074
112082
112105
112141
112187
112240
112295
112346
112026
111995
111983
111993
112024
112076
112145
112225
112310
112390
111865
111819
111800
111810
111850
111918
112012
112123
112243
112358
111900
111842
111816
111825
111872
111956
112073
112215
112370
112519
111711
111640
111608
111615
111667
111762
111899
112068
112255
112438
111769
111693
111656
111662
111716
111818
111966
112152
112359
112566
112416
112415
112415
112415
112416
112416
112417
112418
112420
112420
112318
112318
112318
112319
112321
112324
112327
112331
112334
112338
112340
112337
112336
112338
112343
112350
112358
112367
112376
112384
112209
112203
112201
112205
112214
112228
112245
112264
112284
112302
112164
112151
112147
112152
112167
112190
112220
112253
112288
112320
112113
112092
112085
112092
112113
112148
112193
112246
112300
112351
111974
111943
111931
111939
111967
112014
112077
112151
112230
112305
112039
111999
111982
111990
112025
112084
112165
112260
112363
112460
111848
111798
111777
111785
111824
111892
111988
112103
112229
112349
111930
111877
111853
111860
111901
111975
112079
112207
112345
112482
112392
112392
112392
112392
112392
112392
112393
112393
112394
112393
112289
112289
112289
112290
112291
112292
112294
112296
112299
112301
112348
112346
112345
112346
112349
112353
112358
112363
112368
112373
112223
112219
112218
112220
112226
112234
112244
112255
112267
112278
112206
112198
112196
112199
112209
112223
112242
112262
112284
112304
112173
112159
112154
112159
112173
112196
112225
112258
112293
112325
112053
112033
112025
112031
112050
112081
112122
112171
112221
112269
112145
112119
112108
112115
112139
112179
112233
112296
112363
112424
111947
111914
111900
111907
111934
111982
112046
112123
112205
112284
112059
112023
112008
112014
112044
112096
112166
112252
112342
112430
112384
112383
112383
112383
112383
112383
112383
112383
112384
112383
112259
112259
112260
112260
112261
112262
112263
112264
112266
112267
112355
112354
112353
112354
112356
112358
112361
112364
112367
112369
112228
112225
112224
112225
112228
112233
112239
112246
112253
112260
112233
112228
112227
112229
112235
112244
112255
112268
112281
112293
112210
112202
112199
112202
112211
112225
112244
112264
112286
112306
112109
112096
112091
112095
112107
112127
112154
112184
112215
112246
112225
112209
112202
112207
112223
112250
112285
112326
112368
112406
112014
111991
111983
111988
112007
112038
112081
112131
112183
112234
112165
112142
112133
112138
112159
112194
112240
112295
112353
112408
112401
112401
112401
112400
112400
112399
112399
112398
112399
112397
112226
112226
112227
112227
112228
112228
112229
112229
112230
112231
112362
112361
112361
112362
112363
112364
112366
112368
112370
112371
112226
112225
112224
112225
112226
112229
112232
112236
112240
112244
112246
112243
112243
112244
112248
112253
112260
112268
112276
112283
112229
112224
112222
112224
112230
112239
112250
112263
112276
112288
112146
112137
112134
112137
112145
112157
112174
112192
112211
112230
112280
112269
112266
112269
112280
112297
112320
112346
112373
112394
112049
112034
112029
112033
112045
112066
112093
112124
112157
112190
112267
112252
112247
112251
112264
112287
112317
112352
112388
112422
112468
112467
112467
112467
112466
112466
112465
112465
112465
112462
112182
112182
112182
112182
112182
112182
112182
112182
112183
112183
112362
112362
112362
112363
112363
112365
112366
112368
112370
112371
112223
112221
112221
112221
112222
112223
112225
112226
112228
112230
112249
112247
112246
112247
112250
112253
112257
112262
112267
112272
112233
112230
112229
112230
112233
112239
112246
112254
112262
112270
112167
112162
112160
112161
112166
112174
112184
112195
112206
112218
112300
112293
112290
112293
112300
112311
112326
112343
112361
112374
112047
112038
112035
112037
112045
112058
112075
112095
112115
112137
112390
112381
112377
112380
112389
112404
112423
112446
112468
112489
112606
112606
112606
112607
112608
112609
112610
112612
112614
112611
112110
112109
112109
112109
112108
112107
112106
112105
112104
112103
112343
112343
112344
112344
112345
112347
112348
112350
112352
112355
112220
112220
112219
112219
112219
112220
112221
112221
112222
112222
112244
112243
112242
112243
112244
112246
112249
112253
112256
112259
112227
112225
112224
112225
112227
112231
112236
112241
112247
112252
112176
112172
112171
112172
112175
112181
112187
112194
112201
112208
112270
112265
112264
112265
112270
112278
112289
112301
112315
112326
111996
111990
111988
111990
111995
112004
112015
112028
112039
112054
112560
112553
112550
112552
112558
112568
112582
112598
112614
112630
112769
112769
112770
112772
112775
112779
112784
112790
112797
112804
112019
112019
112018
112017
112016
112014
112011
112008
112003
111995
112308
112308
112308
112309
112310
112311
112313
112315
112318
112322
112224
112223
112223
112223
112223
112223
112224
112224
112225
112224
112239
112238
112237
112238
112239
112241
112243
112246
112248
112251
112222
112220
112219
112220
112222
112225
112229
112233
112238
112242
112181
112178
112177
112178
112181
112185
112191
112197
112202
112207
112212
112208
112206
112208
112212
112218
112227
112237
112249
112262
111916
111912
111910
111911
111916
111923
111932
111942
111949
111954
112734
112726
112723
112724
112730
112738
112750
112764
112778
112796
128804
132344
132377
130323
129745
133716
133688
131795
130453
134650
135028
133353
130748
135119
136234
134812
131065
135589
137369
136138
131826
136587
139083
138410
132602
137522
140531
140476
133382
138366
141722
142184
133064
137995
141576
142507
131681
136428
140175
141655
120888
122478
122855
121971
121433
123281
123819
123041
121856
123926
124623
124067
122261
124528
125436
125166
122785
125203
126355
126324
123421
125906
127183
127258
123948
126450
127801
127974
124574
127054
128438
128792
124633
127052
128493
129068
124371
126747
128343
129174
118011
118707
118890
118607
118346
119201
119480
119267
118668
119687
120090
119963
119012
120202
120762
120747
119469
120818
121531
121621
120125
121608
122445
122644
120738
122332
123274
123581
121465
123133
124147
124567
121790
123470
124531
125068
122019
123654
124728
125359
115877
116199
116313
116226
116012
116426
116611
116578
116222
116739
117008
117039
116485
117114
117483
117600
116849
117587
118050
118253
117378
118215
118762
119054
117868
118792
119415
119800
118512
119508
120200
120687
118841
119873
120619
121204
119099
120139
120924
121584
114657
114814
114880
114857
114665
114878
114992
115010
114774
115056
115227
115291
114966
115323
115560
115687
115257
115689
115992
116182
115710
116218
116585
116842
116133
116712
117140
117466
116730
117373
117857
118258
117073
117752
118279
118748
117387
118077
118632
119149
113891
113970
114008
114006
113840
113954
114024
114050
113875
114034
114143
114204
114002
114213
114369
114474
114228
114492
114695
114848
114603
114921
115172
115376
114947
115316
115614
115870
115473
115890
116231
116541
115785
116234
116607
116962
116097
116560
116954
117340
113406
113447
113469
113471
113330
113393
113435
113457
113328
113422
113490
113535
113400
113529
113631
113707
113570
113736
113872
113983
113875
114080
114251
114399
114146
114388
114593
114779
114601
114878
115115
115338
114863
115164
115424
115675
115148
115459
115734
116005
113086
113108
113121
113123
112998
113034
113059
113074
112986
113042
113085
113116
113016
113096
113162
113214
113139
113245
113335
113412
113380
113513
113629
113732
113581
113741
113881
114011
113966
114151
114314
114470
114167
114369
114548
114722
114415
114625
114815
115000
112868
112880
112887
112889
112776
112797
112812
112822
112764
112799
112826
112846
112764
112815
112857
112893
112851
112920
112980
113031
113039
113127
113205
113275
113180
113286
113382
113471
113502
113626
113738
113844
113637
113773
113896
114014
113849
113990
114120
114246
112714
112720
112725
112726
112625
112637
112646
112653
112618
112639
112656
112669
112595
112627
112655
112678
112655
112700
112740
112774
112800
112858
112910
112958
112889
112960
113025
113086
113159
113243
113319
113392
113231
113323
113408
113488
113413
113509
113597
113682
112603
112606
112609
112610
112519
112525
112531
112535
112521
112534
112544
112553
112480
112501
112518
112533
112522
112551
112577
112600
112630
112669
112704
112736
112677
112725
112769
112810
112906
112962
113014
113063
112926
112988
113045
113099
113083
113148
113208
113265
112522
112524
112525
112526
112441
112445
112448
112451
112457
112465
112472
112477
112402
112415
112426
112436
112433
112452
112468
112483
112512
112538
112561
112582
112524
112556
112585
112613
112723
112760
112795
112828
112698
112740
112779
112815
112840
112883
112924
112962
112463
112464
112465
112465
112383
112385
112387
112389
112416
112421
112425
112428
112349
112357
112364
112370
112375
112387
112398
112407
112432
112449
112464
112478
112417
112438
112457
112475
112594
112619
112642
112664
112532
112560
112585
112610
112665
112694
112721
112747
112421
112422
112422
112422
112337
112337
112339
112340
112391
112394
112396
112398
112311
112316
112321
112325
112338
112346
112353
112359
112378
112389
112399
112408
112342
112356
112369
112381
112509
112525
112540
112555
112412
112430
112447
112463
112546
112565
112583
112600
112394
112394
112395
112395
112298
112298
112299
112301
112378
112379
112381
112382
112284
112287
112289
112292
112315
112320
112324
112328
112342
112349
112355
112361
112293
112301
112310
112317
112456
112466
112476
112485
112325
112337
112348
112358
112471
112483
112494
112505
112384
112383
112384
112384
112263
112263
112263
112265
112373
112374
112375
112375
112262
112264
112265
112267
112300
112303
112305
112308
112317
112321
112325
112328
112260
112265
112270
112275
112426
112432
112439
112445
112261
112269
112276
112282
112433
112441
112448
112455
112398
112397
112397
112398
112226
112226
112226
112227
112374
112375
112376
112376
112244
112245
112246
112247
112288
112289
112291
112292
112295
112298
112300
112303
112238
112241
112244
112247
112408
112412
112416
112420
112208
112213
112217
112221
112437
112441
112446
112450
112463
112461
112461
112463
112177
112176
112176
112178
112374
112375
112375
112375
112230
112230
112231
112232
112275
112276
112277
112278
112275
112277
112278
112279
112221
112223
112224
112227
112385
112388
112391
112392
112149
112152
112155
112157
112497
112500
112503
112506
112617
112614
112614
112617
112096
112094
112094
112096
112359
112360
112360
112359
112221
112221
112222
112222
112262
112262
112263
112263
112256
112257
112258
112259
112208
112209
112211
112212
112339
112342
112343
112344
112059
112061
112063
112065
112635
112637
112639
112641
112826
112824
112824
112827
111983
111978
111978
111983
112326
112327
112327
112326
112222
112222
112222
112223
112253
112254
112254
112255
112245
112246
112247
112247
112206
112207
112208
112210
112279
112283
112284
112283
111940
111938
111939
111944
112805
112807
112809
112809
120064
116545
114365
112651
111423
110503
109770
109166
108663
108235
121305
117359
114663
112789
111420
110377
109531
108817
108200
107638
122391
118097
114945
113026
111562
110422
109475
108665
107956
107320
123656
119008
115599
113593
111991
110734
109670
108747
107924
107203
125006
119948
116356
114162
112423
111044
109873
108851
107930
107155
126571
121021
117230
114821
112950
111450
110182
109074
108072
107234
128076
121829
117900
115254
113270
111656
110302
109121
108052
107182
129708
122621
118671
115775
113711
111995
110576
109332
108218
107294
130762
122869
118998
115903
113799
111999
110524
109229
108090
107124
131863
123334
119581
116310
114135
112242
110698
109340
108164
107156
119512
117131
115419
114080
113003
112127
111410
110827
110360
109995
120198
117483
115437
113839
112578
111573
110755
110077
109515
109030
120898
117914
115523
113794
112425
111333
110431
109673
109028
108463
121699
118552
115945
114100
112621
111430
110427
109565
108813
108156
122483
119325
116496
114508
112910
111611
110509
109553
108701
107979
123565
120262
117224
115062
113339
111929
110732
109690
108754
107961
124700
121024
117815
115447
113609
112089
110806
109689
108682
107845
126134
121803
118530
115942
114017
112400
111048
109868
108810
107917
127210
122079
118856
116091
114118
112420
111010
109776
108689
107752
128419
122425
119347
116428
114393
112619
111157
109876
108763
107798
117766
116590
115496
114529
113696
112992
112405
111928
111553
111276
118305
116815
115402
114184
113164
112319
111619
111038
110566
110175
118885
117141
115443
114047
112894
111944
111151
110486
109929
109453
119572
117664
115759
114230
112961
111906
111009
110239
109576
109004
120326
118319
116221
114551
113158
111992
110993
110126
109364
108718
121339
119161
116878
115039
113516
112236
111139
110183
109333
108611
122367
119893
117436
115396
113746
112353
111165
110131
109206
108432
123685
120692
118132
115878
114129
112636
111375
110275
109295
108462
124690
121050
118495
116069
114257
112679
111354
110198
109180
108304
125754
121426
118959
116383
114509
112862
111491
110293
109252
108348
115930
115410
114844
114283
113759
113288
112879
112539
112271
112077
116269
115578
114790
114024
113321
112698
112160
111704
111333
111032
116728
115879
114877
113927
113072
112324
111679
111129
110668
110279
117329
116361
115189
114089
113101
112234
111476
110818
110252
109765
118032
116963
115630
114381
113260
112275
111410
110651
109984
109418
118966
117744
116254
114837
113581
112478
111510
110657
109900
109253
119909
118442
116792
115184
113794
112573
111509
110573
109737
109033
121099
119242
117474
115663
114162
112837
111694
110688
109793
109028
122012
119667
117857
115871
114287
112871
111659
110597
109661
108855
122948
120080
118285
116153
114507
113028
111775
110676
109719
108888
114742
114506
114219
113910
113601
113310
113050
112828
112651
112524
114917
114600
114178
113720
113265
112839
112456
112123
111852
111632
115230
114828
114265
113657
113064
112515
112023
111594
111232
110927
115705
115237
114551
113807
113083
112412
111805
111266
110802
110403
116298
115767
114961
114079
113225
112434
111716
111074
110509
110030
117095
116470
115541
114508
113521
112610
111786
111048
110393
109830
117891
117107
116047
114843
113722
112692
111768
110944
110206
109583
118916
117870
116701
115316
114079
112943
111935
111038
110239
109553
119699
118317
117084
115533
114200
112969
111891
110938
110096
109371
120485
118732
117477
115794
114398
113110
111994
111007
110143
109393
113959
113851
113709
113545
113374
113206
113051
112916
112807
112729
114031
113886
113664
113401
113121
112846
112589
112361
112174
112021
114219
114037
113731
113360
112970
112588
112231
111913
111642
111413
114563
114356
113969
113490
112985
112489
112024
111602
111236
110919
115030
114798
114329
113736
113113
112504
111931
111408
110945
110551
115679
115406
114848
114130
113386
112661
111985
111366
110814
110338
116319
115961
115303
114441
113572
112733
111956
111251
110616
110079
117171
116660
115912
114899
113916
112973
112111
111331
110635
110035
117802
117082
116268
115107
114025
112990
112058
111224
110483
109846
118429
117472
116624
115352
114211
113122
112153
111286
110523
109862
113452
113402
113332
113247
113155
113062
112974
112896
112832
112785
113458
113391
113274
113125
112959
112788
112625
112477
112354
112252
113564
113485
113320
113099
112850
112594
112346
112120
111924
111759
113793
113710
113497
113198
112857
112504
112161
111843
111564
111321
114141
114060
113794
113408
112969
112515
112074
111662
111295
110982
114652
114564
114239
113756
113213
112656
112117
111615
111164
110773
115143
115022
114627
114032
113379
112716
112082
111496
110965
110515
115834
115639
115176
114461
113704
112945
112228
111570
110978
110467
116317
116006
115482
114644
113795
112952
112169
111458
110822
110275
116804
116358
115801
114875
113971
113078
112259
111517
110858
110287
113115
113093
113058
113015
112966
112916
112868
112824
112788
112761
113081
113050
112988
112906
112809
112708
112608
112516
112439
112373
113141
113108
113019
112888
112733
112566
112400
112245
112110
111995
113281
113254
113138
112953
112728
112484
112240
112008
111803
111624
113531
113518
113370
113123
112820
112492
112163
111850
111568
111327
113922
113920
113736
113420
113033
112616
112200
111805
111448
111136
114283
114279
114050
113649
113171
112662
112160
111687
111255
110888
114836
114806
114530
114038
113472
112878
112300
111759
111270
110845
115184
115098
114772
114186
113540
112873
112234
111644
111111
110654
115561
115408
115054
114401
113707
112996
112323
111703
111148
110667
112886
112876
112858
112837
112812
112785
112759
112736
112716
112701
112829
112815
112783
112738
112684
112625
112565
112510
112463
112421
112865
112851
112803
112726
112631
112525
112417
112315
112225
112148
112941
112936
112872
112758
112613
112449
112280
112118
111972
111843
113116
113128
113046
112889
112685
112454
112215
111985
111775
111595
113411
113440
113338
113133
112863
112560
112248
111947
111672
111431
113664
113706
113577
113311
112969
112589
112202
111832
111491
111200
114104
114146
113987
113656
113242
112790
112337
111906
111513
111170
114336
114358
114162
113763
113285
112771
112264
111788
111353
110981
114630
114624
114408
113960
113443
112891
112354
111850
111394
110999
112725
112720
112712
112701
112688
112675
112661
112648
112637
112629
112659
112653
112636
112612
112582
112548
112514
112482
112454
112428
112681
112677
112650
112606
112549
112483
112415
112350
112292
112241
112711
112714
112679
112610
112517
112410
112297
112186
112086
111996
112833
112850
112805
112707
112571
112412
112244
112080
111928
111798
113052
113087
113031
112899
112715
112500
112273
112050
111845
111664
113220
113272
113201
113027
112787
112510
112221
111939
111678
111455
113572
113636
113546
113327
113033
112698
112353
112018
111711
111442
113708
113770
113657
113391
113047
112662
112271
111897
111552
111257
113943
113998
113872
113572
113196
112780
112362
111964
111599
111283
112609
112608
112603
112598
112591
112585
112577
112571
112564
112560
112540
112538
112530
112517
112500
112482
112462
112444
112428
112411
112560
112559
112545
112520
112486
112446
112405
112364
112327
112295
112556
112561
112541
112500
112443
112374
112300
112227
112160
112098
112639
112655
112631
112570
112481
112375
112260
112146
112040
111948
112800
112832
112801
112717
112594
112445
112285
112124
111976
111844
112902
112949
112910
112797
112633
112436
112226
112018
111823
111657
113187
113249
113200
113058
112853
112611
112356
112104
111871
111665
113248
113317
113254
113080
112838
112557
112264
111978
111712
111484
113442
113512
113442
113245
112979
112673
112357
112051
111768
111522
112525
112525
112523
112520
112517
112513
112509
112506
112503
112500
112456
112455
112451
112444
112435
112425
112414
112404
112395
112384
112481
112482
112474
112460
112440
112416
112391
112366
112343
112323
112451
112456
112445
112421
112386
112342
112295
112248
112205
112163
112509
112522
112509
112471
112415
112345
112268
112191
112118
112056
112625
112650
112634
112582
112500
112400
112289
112177
112072
111978
112675
112712
112692
112620
112509
112373
112224
112075
111934
111814
112912
112964
112939
112848
112708
112538
112354
112170
111998
111845
112914
112975
112942
112829
112663
112463
112248
112037
111837
111667
113081
113145
113109
112982
112798
112579
112348
112119
111906
111720
112465
112465
112464
112463
112461
112459
112457
112455
112453
112452
112393
112393
112391
112388
112383
112377
112372
112366
112361
112353
112430
112431
112427
112419
112407
112393
112378
112363
112349
112337
112380
112384
112378
112364
112343
112316
112287
112257
112229
112202
112424
112434
112426
112403
112368
112323
112273
112222
112173
112132
112506
112524
112516
112483
112431
112364
112290
112214
112142
112077
112516
112544
112534
112488
112415
112323
112220
112116
112017
111932
112721
112760
112748
112691
112597
112481
112352
112221
112098
111988
112675
112722
112705
112634
112521
112383
112230
112078
111933
111809
112826
112878
112861
112780
112656
112504
112338
112172
112016
111880
112422
112423
112422
112421
112420
112420
112419
112418
112416
112416
112345
112345
112344
112342
112340
112337
112334
112331
112328
112322
112399
112400
112398
112393
112386
112378
112369
112360
112351
112345
112331
112334
112331
112323
112310
112294
112276
112258
112241
112223
112369
112376
112372
112358
112336
112308
112276
112243
112211
112184
112426
112439
112435
112415
112381
112338
112289
112239
112191
112147
112408