/*--------------------------------*- C++ -*----------------------------------*\
| =========                 |                                                 |
| \\      /  F ield         | foam-extend: Open Source CFD                    |
|  \\    /   O peration     | Version:     4.0                                |
|   \\  /    A nd           | Web:         http://www.foam-extend.org         |
|    \\/     M anipulation  |                                                 |
\*---------------------------------------------------------------------------*/
FoamFile
{
    version     2.0;
    format      ascii;
    class       surfaceScalarField;
    location    "1800";
    object      phi;
}
// * * * * * * * * * * * * * * * * * * * * * * * * * * * * * * * * * * * * * //

dimensions      [1 0 -1 0 0 0 0];

internalField   nonuniform List<scalar> 
97302
(
-0.00010915
5.32879e-06
-0.000614603
0.000631406
-0.000133894
5.79501e-06
-0.000618197
0.000637146
-0.000162503
6.21837e-06
-0.000621012
0.000643402
-0.000196814
6.63273e-06
-0.000623047
0.000650725
-0.000239352
7.05683e-06
-0.000624157
0.000659638
-0.000293191
7.47434e-06
-0.000623605
0.00066997
-0.00036108
7.79263e-06
-0.00061934
0.000679437
-0.000442302
7.78683e-06
-0.000606704
0.000680139
-0.000532851
7.05753e-06
-0.000575017
0.000658508
4.58543e-06
-0.000490964
-0.000669169
0.000622696
-0.000137835
7.91133e-06
-0.000859581
0.000875062
-0.000158086
8.80569e-06
-0.000865361
0.000882602
-0.000181365
9.47463e-06
-0.000870119
0.000890142
-0.000209447
9.98309e-06
-0.00087369
0.000898422
-0.000245358
1.03752e-05
-0.000876363
0.000908955
-0.000293497
1.06521e-05
-0.000877987
0.000922949
-0.000359375
1.07251e-05
-0.000876731
0.000939676
-0.000446129
1.03247e-05
-0.000867317
0.000951533
-0.000549385
8.84667e-06
-0.000836388
0.000937855
4.59493e-06
-0.000726215
-0.000721751
0.000898572
-0.000168259
8.43185e-06
-0.00110336
0.00111798
-0.000185272
9.68843e-06
-0.00111135
0.00112748
-0.000204937
1.06117e-05
-0.00111832
0.00113684
-0.000228872
1.12762e-05
-0.00112412
0.00114676
-0.000260202
1.17262e-05
-0.00112905
0.00115903
-0.000304132
1.19782e-05
-0.00113361
0.00117621
-0.00036795
1.19553e-05
-0.00113668
0.00119927
-0.000457851
1.13542e-05
-0.00113269
0.00122157
-0.000569463
9.37195e-06
-0.00110613
0.00121721
3.58856e-06
-0.000974781
-0.000767552
0.00117388
-0.000199691
8.51935e-06
-0.00134364
0.00135756
-0.000215516
9.99818e-06
-0.00135514
0.00137065
-0.00023387
1.10806e-05
-0.00136564
0.00138353
-0.000256158
1.18363e-05
-0.00137498
0.00139671
-0.000285307
1.2287e-05
-0.00138312
0.00141171
-0.000326761
1.24411e-05
-0.0013908
0.00143179
-0.000389008
1.22271e-05
-0.00139768
0.00145966
-0.000480697
1.13237e-05
-0.0013989
0.00149062
-0.000597552
8.69785e-06
-0.00137772
0.00149525
1.10589e-06
-0.0012274
-0.000811502
0.00144384
-0.000233303
8.43747e-06
-0.00158397
0.00159742
-0.000248475
9.97203e-06
-0.00159942
0.00161462
-0.000266116
1.10701e-05
-0.00161392
0.00163157
-0.000287464
1.18004e-05
-0.00162723
0.00164861
-0.000315249
1.21701e-05
-0.00163908
0.00166698
-0.000354949
1.2168e-05
-0.00165013
0.0016901
-0.000415901
1.172e-05
-0.0016607
0.00172215
-0.000508773
1.0496e-05
-0.00166702
0.00176072
-0.000629428
7.18804e-06
-0.00165167
0.00177383
-2.37411e-06
-0.00148246
-0.000852963
0.00170947
-0.000269437
8.22841e-06
-0.00182275
0.00183582
-0.000284098
9.6593e-06
-0.00184232
0.00185729
-0.000301178
1.06381e-05
-0.00186082
0.00187834
-0.000321806
1.12364e-05
-0.0018781
0.00189929
-0.00034855
1.1452e-05
-0.00189373
0.00192119
-0.000386854
1.12628e-05
-0.00190819
0.0019474
-0.000446687
1.06068e-05
-0.00192224
0.00198319
-0.000540573
9.19256e-06
-0.00193325
0.00202844
-0.000665146
5.48148e-06
-0.00192317
0.00204945
-5.6815e-06
-0.00173202
-0.00089888
0.00196906
-0.000307446
8.00195e-06
-0.00206067
0.00207337
-0.000321645
9.13383e-06
-0.00208401
0.00209873
-0.000338181
9.85409e-06
-0.00210613
0.00212345
-0.000358082
1.02071e-05
-0.00212692
0.00214785
-0.000383751
1.01817e-05
-0.002146
0.00217294
-0.000420498
9.75943e-06
-0.00216366
0.00220191
-0.000478724
8.94589e-06
-0.0021811
0.00224099
-0.000572652
7.57901e-06
-0.00219703
0.00229257
-0.00070004
4.01933e-06
-0.00219307
0.00232192
-7.88026e-06
-0.00198
-0.000942647
0.00222481
-0.000348464
7.22536e-06
-0.00229878
0.00231141
-0.000362016
7.89235e-06
-0.00232548
0.00234028
-0.000377859
8.29619e-06
-0.00235058
0.00236798
-0.000396939
8.4074e-06
-0.00237431
0.00239519
-0.000421433
8.18414e-06
-0.00239624
0.00242273
-0.00045635
7.59827e-06
-0.00241654
0.00245362
-0.000512206
6.75977e-06
-0.00243686
0.0024949
-0.00060474
5.73374e-06
-0.00245759
0.00255197
-0.000733279
3.122e-06
-0.00246125
0.00259069
-8.13052e-06
-0.00222886
-0.000982703
0.00247853
-0.000390254
5.05531e-06
-0.00253376
0.00254649
-0.000402724
5.04566e-06
-0.00256296
0.00257828
-0.000417654
4.98649e-06
-0.00259043
0.00260867
-0.0004361
4.77215e-06
-0.00261705
0.00263913
-0.000460012
4.36773e-06
-0.00264261
0.00267034
-0.000493717
3.7275e-06
-0.00266686
0.00270443
-0.000547114
3.04287e-06
-0.00269083
0.00274794
-0.000636964
2.60857e-06
-0.0027163
0.00280928
-0.000764483
1.66459e-06
-0.00272834
0.00285732
-7.24781e-06
-0.0024812
-0.00101448
0.00273031
-0.00043263
-0.00275377
0.00276738
-0.000443505
-0.00278562
0.00280154
-0.000456935
-0.00281566
0.00283407
-0.0004741
-0.00284475
0.00286668
-0.00049691
-0.00287257
0.00289974
-0.000529255
-0.0028991
0.00293517
-0.000579883
-0.00292575
0.00297943
-0.000665265
-0.00295663
0.00304462
-0.000788313
-0.00298261
0.00310732
-0.00273938
-0.00103718
0.00298099
1.23436e-05
5.3822e-06
-0.000599469
-1.00948e-05
5.84699e-06
-0.000601605
-3.48801e-05
6.2355e-06
-0.000602462
-6.2636e-05
6.55489e-06
-0.000601846
-9.42761e-05
6.80044e-06
-0.000599318
-0.000130684
6.93961e-06
-0.000594137
-0.000171748
6.89949e-06
-0.000585175
-0.000214191
6.53472e-06
-0.000570797
-0.000247618
5.58571e-06
-0.000547176
3.5329e-06
-0.000505039
-0.000237076
2.25829e-05
7.97021e-06
-0.00084424
2.63758e-06
8.92356e-06
-0.000848493
-1.96164e-05
9.6324e-06
-0.000851262
-4.47519e-05
1.01269e-05
-0.000852127
-7.40795e-05
1.0413e-05
-0.000850648
-0.000109706
1.04647e-05
-0.000845886
-0.000153758
1.02125e-05
-0.000835992
-0.000206136
9.47421e-06
-0.000817878
-0.000259374
7.89393e-06
-0.000785459
4.63369e-06
-0.000720814
-0.000265876
3.21938e-05
8.48266e-06
-0.001088
1.44052e-05
9.88007e-06
-0.00109452
-5.74672e-06
1.09267e-05
-0.00109946
-2.89894e-05
1.16679e-05
-0.00110242
-5.67382e-05
1.21003e-05
-0.00110299
-9.17903e-05
1.21986e-05
-0.00110029
-0.00013813
1.18933e-05
-0.00109202
-0.0001988
1.09644e-05
-0.00107352
-0.000270173
8.91525e-06
-0.00103578
4.49339e-06
-0.000947814
-0.000297
4.15095e-05
8.42518e-06
-0.00132839
2.43232e-05
1.01531e-05
-0.00133822
4.62087e-06
1.14681e-05
-0.00134648
-1.83701e-05
1.24144e-05
-0.00135274
-4.60604e-05
1.29687e-05
-0.0013563
-8.14382e-05
1.30833e-05
-0.00135631
-0.000129712
1.2675e-05
-0.00135019
-0.000197057
1.15055e-05
-0.0013321
-0.000284511
8.93086e-06
-0.00129028
3.21326e-06
-0.00117842
-0.000332216
4.89541e-05
8.13733e-06
-0.00156877
3.19563e-05
1.00515e-05
-0.00158232
1.23434e-05
1.15119e-05
-0.00159435
-1.06993e-05
1.2563e-05
-0.00160434
-3.85898e-05
1.31749e-05
-0.00161139
-7.43628e-05
1.32701e-05
-0.00161455
-0.000124082
1.27427e-05
-0.00161104
-0.000196797
1.13457e-05
-0.00159414
-0.000298321
8.26809e-06
-0.00154948
1.21179e-06
-0.00141338
-0.0003654
5.41606e-05
7.66298e-06
-0.00180753
3.72861e-05
9.61688e-06
-0.00182501
1.77446e-05
1.11025e-05
-0.00184087
-5.32027e-06
1.2169e-05
-0.00185464
-3.33377e-05
1.27835e-05
-0.00186532
-6.93715e-05
1.28521e-05
-0.00187174
-0.000120102
1.22541e-05
-0.00187102
-0.00019705
1.07592e-05
-0.00185571
-0.000310477
7.41681e-06
-0.00180889
-7.08853e-07
-0.00164757
-0.000393001
5.71114e-05
7.07002e-06
-0.00204546
4.04097e-05
8.87091e-06
-0.00206656
2.10683e-05
1.02509e-05
-0.00208594
-1.79448e-06
1.12401e-05
-0.00210313
-2.96097e-05
1.18017e-05
-0.0021172
-6.54368e-05
1.18328e-05
-0.00212681
-0.000116423
1.12297e-05
-0.00212909
-0.000196322
9.84176e-06
-0.00211621
-0.000319828
6.67596e-06
-0.00206882
-2.09002e-06
-0.00188298
-0.000415472
5.75162e-05
5.89328e-06
-0.00228338
4.12996e-05
7.34108e-06
-0.00230774
2.24934e-05
8.52884e-06
-0.00233005
1.9491e-07
9.42848e-06
-0.0023502
-2.69873e-05
9.98881e-06
-0.00236725
-6.20378e-05
1.00839e-05
-0.00237974
-0.000112364
9.65457e-06
-0.00238496
-0.000193706
8.6712e-06
-0.00237507
-0.000325708
6.38749e-06
-0.00232896
-2.25606e-06
-0.00212054
-0.000433855
5.58779e-05
3.4107e-06
-0.00251803
4.07136e-05
4.24035e-06
-0.0025447
2.29668e-05
5.03645e-06
-0.00256919
1.55354e-06
5.68274e-06
-0.00259189
-2.50239e-05
6.17461e-06
-0.00261222
-5.9571e-05
6.37531e-06
-0.0026286
-0.00010913
6.28252e-06
-0.00263789
-0.000190769
5.98392e-06
-0.00263198
-0.000329941
5.36999e-06
-0.00258815
-1.41886e-06
-0.00235884
-0.000453134
5.31748e-05
-0.00273849
3.92944e-05
-0.0027675
2.29986e-05
-0.00279432
3.12679e-06
-0.00281919
-2.18771e-05
-0.00284139
-5.49821e-05
-0.00285962
-0.000102703
-0.00287175
-0.00018266
-0.00287069
-0.000327111
-0.00283279
-0.00259026
-0.000477642
6.84667e-06
5.29598e-06
-0.000587383
-1.19129e-05
5.70537e-06
-0.000588551
-3.19835e-05
6.00662e-06
-0.000588398
-5.3255e-05
6.20168e-06
-0.000586777
-7.54385e-05
6.2704e-06
-0.000583405
-9.78249e-05
6.16692e-06
-0.000577917
-0.000118897
5.8206e-06
-0.000569924
-0.000135722
5.13853e-06
-0.00055911
-0.000141909
4.00933e-06
-0.000544999
2.34371e-06
-0.000526403
-0.000122889
1.61696e-05
7.99314e-06
-0.0008305
-2.06954e-06
8.87142e-06
-0.00083342
-2.21307e-05
9.48656e-06
-0.000834681
-4.39837e-05
9.85476e-06
-0.000833927
-6.76864e-05
9.95761e-06
-0.000830633
-9.31372e-05
9.73521e-06
-0.000824003
-0.000119478
9.09684e-06
-0.000812928
-0.000144126
7.91038e-06
-0.000796001
-0.000160316
6.01153e-06
-0.000771272
3.25306e-06
-0.000736665
-0.000145373
2.5742e-05
8.72067e-06
-0.00107334
8.456e-06
1.00481e-05
-0.00107841
-1.09477e-05
1.10093e-05
-0.00108158
-3.27551e-05
1.16301e-05
-0.00108239
-5.7399e-05
1.18822e-05
-0.00108027
-8.55015e-05
1.16936e-05
-0.00107414
-0.000117236
1.09438e-05
-0.00106213
-0.000150851
9.43298e-06
-0.00104142
-0.000179635
6.86672e-06
-0.00100785
2.91698e-06
-0.000954783
-0.00017233
3.52098e-05
8.77211e-06
-0.00131337
1.80547e-05
1.04535e-05
-0.00132147
-1.55628e-06
1.17056e-05
-0.00132757
-2.41056e-05
1.25583e-05
-0.00133112
-5.02268e-05
1.29561e-05
-0.00133125
-8.1012e-05
1.28022e-05
-0.00132663
-0.000117596
1.19378e-05
-0.0013146
-0.000159589
1.00975e-05
-0.00129077
-0.000201469
6.835e-06
-0.00124837
1.59409e-06
-0.00117403
-0.00020454
4.31339e-05
8.5375e-06
-0.00155354
2.59073e-05
1.04386e-05
-0.00156508
5.9881e-06
1.18714e-05
-0.0015746
-1.72237e-05
1.28681e-05
-0.00158143
-4.45822e-05
1.33602e-05
-0.00158444
-7.75239e-05
1.32215e-05
-0.00158202
-0.000118092
1.22511e-05
-0.00157079
-0.000167557
1.01194e-05
-0.0015447
-0.000222318
6.18784e-06
-0.00149407
-4.12535e-07
-0.0013966
-0.000237085
4.89869e-05
8.05448e-06
-0.00179211
3.17322e-05
1.00304e-05
-0.00180735
1.16439e-05
1.15274e-05
-0.00182044
-1.19794e-05
1.25831e-05
-0.00183073
-4.01909e-05
1.31257e-05
-0.00183687
-7.4723e-05
1.30096e-05
-0.001837
-0.000118472
1.20056e-05
-0.00182703
-0.000174527
9.74155e-06
-0.00179928
-0.000241742
5.38262e-06
-0.00174087
-2.35916e-06
-0.00161868
-0.000268689
5.26458e-05
7.36803e-06
-0.00202991
3.54984e-05
9.21879e-06
-0.0020486
1.54904e-05
1.06447e-05
-0.00206505
-8.159e-06
1.16709e-05
-0.00207857
-3.66666e-05
1.22277e-05
-0.0020878
-7.20206e-05
1.21549e-05
-0.0020906
-0.000117922
1.12212e-05
-0.00208241
-0.000179401
9.06258e-06
-0.00205405
-0.000258303
4.70561e-06
-0.00198924
-3.86865e-06
-0.00184211
-0.000297661
5.36938e-05
6.0575e-06
-0.00226758
3.70252e-05
7.55616e-06
-0.0022894
1.75387e-05
8.78782e-06
-0.00230871
-5.62688e-06
9.7341e-06
-0.0023251
-3.3792e-05
1.03335e-05
-0.00233719
-6.91324e-05
1.04139e-05
-0.00234266
-0.000116035
9.78006e-06
-0.00233662
-0.000181483
8.12083e-06
-0.00230868
-0.000271035
4.54903e-06
-0.00223925
-4.24674e-06
-0.00206801
-0.000323192
5.23997e-05
3.55225e-06
-0.00250187
3.67538e-05
4.40466e-06
-0.0025259
1.83759e-05
5.21888e-06
-0.00254724
-3.78658e-06
5.88023e-06
-0.00256587
-3.1316e-05
6.40238e-06
-0.00258076
-6.65457e-05
6.63526e-06
-0.00258959
-0.000114062
6.48131e-06
-0.00258708
-0.000182207
5.7221e-06
-0.00256143
-0.000280792
3.91119e-06
-0.00248893
-3.26506e-06
-0.00229362
-0.000347002
5.00362e-05
-0.00272246
3.55597e-05
-0.00274862
1.85882e-05
-0.00277213
-2.01199e-06
-0.00279271
-2.78146e-05
-0.00280918
-6.14354e-05
-0.00281936
-0.000107778
-0.00281893
-0.00017628
-0.00279646
-0.000280717
-0.00272444
-0.00250902
-0.000365225
3.96249e-06
4.93543e-06
-0.000578932
-1.02851e-05
5.2741e-06
-0.000579578
-2.50457e-05
5.482e-06
-0.000579119
-3.99003e-05
5.5622e-06
-0.000577484
-5.42375e-05
5.49613e-06
-0.000574564
-6.7149e-05
5.24984e-06
-0.000570256
-7.72869e-05
4.78127e-06
-0.000564567
-8.26592e-05
4.04662e-06
-0.000557784
-8.01169e-05
3.01496e-06
-0.000550556
1.74674e-06
-0.000543023
-6.52428e-05
1.13704e-05
7.67145e-06
-0.000819244
-4.04433e-06
8.44619e-06
-0.000821177
-2.06406e-05
8.93915e-06
-0.000821542
-3.80578e-05
9.16346e-06
-0.000820111
-5.57544e-05
9.09628e-06
-0.000816536
-7.28029e-05
8.68012e-06
-0.000810385
-8.76051e-05
7.84368e-06
-0.000801189
-9.74741e-05
6.51974e-06
-0.000788605
-9.78223e-05
4.68146e-06
-0.000772591
2.4739e-06
-0.000754099
-8.11158e-05
2.00486e-05
8.66411e-06
-0.00106024
4.23647e-06
9.87748e-06
-0.00106403
-1.32369e-05
1.07068e-05
-0.00106587
-3.22501e-05
1.11635e-05
-0.00106538
-5.25851e-05
1.12124e-05
-0.00106205
-7.36964e-05
1.07712e-05
-0.00105512
-9.41797e-05
9.72627e-06
-0.00104353
-0.000110935
7.94147e-06
-0.00102609
-0.000117644
5.30012e-06
-0.00100176
1.93125e-06
-0.000970845
-0.000101038
2.90741e-05
8.89666e-06
-0.00129927
1.27201e-05
1.04798e-05
-0.00130572
-5.77891e-06
1.1612e-05
-0.00130997
-2.65553e-05
1.23093e-05
-0.00131148
-4.96199e-05
1.25002e-05
-0.00130948
-7.47921e-05
1.20702e-05
-0.00130276
-0.000101032
1.0852e-05
-0.00128949
-0.000125253
8.62621e-06
-0.00126723
-0.000140079
5.14851e-06
-0.0012334
5.10514e-07
-0.00118662
-0.00012606
3.70532e-05
8.77709e-06
-0.00153882
2.02102e-05
1.06095e-05
-0.00154837
8.41992e-07
1.19515e-05
-0.00155557
-2.13615e-05
1.28238e-05
-0.00155974
-4.66624e-05
1.31287e-05
-0.00155977
-7.52731e-05
1.27168e-05
-0.00155406
-0.000106678
1.13602e-05
-0.00153989
-0.00013821
8.74547e-06
-0.00151329
-0.000162101
4.44853e-06
-0.00146948
-1.54715e-06
-0.00140414
-0.000152503
4.32592e-05
8.33642e-06
-0.00177691
2.61143e-05
1.02778e-05
-0.00178987
6.18987e-06
1.17209e-05
-0.00180029
-1.69814e-05
1.26929e-05
-0.00180743
-4.3942e-05
1.30853e-05
-0.00180987
-7.52782e-05
1.27225e-05
-0.00180567
-0.000111111
1.13265e-05
-0.00179116
-0.000149537
8.49726e-06
-0.00176061
-0.00018303
3.60173e-06
-0.00170653
-3.58219e-06
-0.00162029
-0.00017939
4.74462e-05
7.60925e-06
-0.00201436
3.02425e-05
9.4541e-06
-0.00203058
1.01512e-05
1.08579e-05
-0.00204409
-1.34316e-05
1.18408e-05
-0.00205414
-4.13192e-05
1.22994e-05
-0.00205912
-7.44709e-05
1.20365e-05
-0.00205676
-0.000113738
1.07467e-05
-0.00204256
-0.000158313
7.97375e-06
-0.00200895
-0.000201614
2.88386e-06
-0.00194522
-5.26435e-06
-0.00183683
-0.00020521
4.90715e-05
6.21019e-06
-0.00225165
3.22601e-05
7.71545e-06
-0.00227085
1.25648e-05
8.92963e-06
-0.00228709
-1.0754e-05
9.84092e-06
-0.00229978
-3.87335e-05
1.03679e-05
-0.00230728
-7.26781e-05
1.03125e-05
-0.00230699
-0.000114205
9.39778e-06
-0.00229374
-0.00016389
7.15843e-06
-0.00225818
-0.00021699
2.71678e-06
-0.00218598
-5.80786e-06
-0.00205508
-0.000229377
4.83413e-05
3.67764e-06
-0.00248552
3.24729e-05
4.53663e-06
-0.00250685
1.3834e-05
5.33967e-06
-0.00252501
-8.48751e-06
5.96873e-06
-0.00253968
-3.58823e-05
6.43178e-06
-0.00254943
-7.00529e-05
6.57239e-06
-0.00255168
-0.000113218
6.24682e-06
-0.00254076
-0.00016716
5.07887e-06
-0.00250541
-0.000229438
2.44539e-06
-0.00242638
-4.60474e-06
-0.00227217
-0.000252086
4.64556e-05
-0.00270597
3.16604e-05
-0.00272929
1.43554e-05
-0.00274949
-6.46072e-06
-0.00276593
-3.21561e-05
-0.00277705
-6.47102e-05
-0.00278024
-0.000107137
-0.00277025
-0.000162911
-0.00273561
-0.000231882
-0.00265303
-0.0024773
-0.000268208
2.51622e-06
4.39677e-06
-0.000573718
-7.61029e-06
4.66569e-06
-0.000574117
-1.78389e-05
4.79841e-06
-0.000573689
-2.77053e-05
4.80012e-06
-0.000572418
-3.66403e-05
4.66111e-06
-0.00057029
-4.3943e-05
4.36495e-06
-0.000567318
-4.87798e-05
3.897e-06
-0.000563628
-5.01919e-05
3.24784e-06
-0.00055962
-4.69661e-05
2.42075e-06
-0.000556203
1.47782e-06
-0.000554029
-3.74382e-05
7.96896e-06
7.07714e-06
-0.000810746
-4.26108e-06
7.7362e-06
-0.000812017
-1.71426e-05
8.1086e-06
-0.000811971
-3.01773e-05
8.20897e-06
-0.000810485
-4.26791e-05
8.02171e-06
-0.000807395
-5.3669e-05
7.50956e-06
-0.00080254
-6.17859e-05
6.63688e-06
-0.000795812
-6.52518e-05
5.39221e-06
-0.000787283
-6.18762e-05
3.82482e-06
-0.00077737
2.13407e-06
-0.000767123
-4.9508e-05
1.53753e-05
8.31207e-06
-0.00104921
1.6694e-06
9.38329e-06
-0.00105197
-1.32071e-05
1.0063e-05
-0.00105295
-2.88596e-05
1.03552e-05
-0.00105187
-4.4716e-05
1.02285e-05
-0.00104841
-5.98224e-05
9.61374e-06
-0.00104212
-7.25734e-05
8.43534e-06
-0.00103258
-8.04006e-05
6.63648e-06
-0.00101951
-7.9449e-05
4.23018e-06
-0.00100311
1.48452e-06
-0.000984898
-6.47464e-05
2.35475e-05
8.75385e-06
-0.00128664
8.64445e-06
1.02003e-05
-0.00129164
-7.98587e-06
1.11815e-05
-0.00129446
-2.61489e-05
1.17003e-05
-0.00129467
-4.54155e-05
1.16852e-05
-0.00129167
-6.49455e-05
1.10276e-05
-0.00128464
-8.30215e-05
9.59508e-06
-0.00127257
-9.64203e-05
7.25855e-06
-0.00125445
-9.96577e-05
3.95128e-06
-0.00122988
1.6786e-08
-0.00120065
-8.4167e-05
3.12071e-05
8.78857e-06
-0.00152511
1.53384e-05
1.05071e-05
-0.0015328
-2.71852e-06
1.17164e-05
-0.00153805
-2.29738e-05
1.24237e-05
-0.00154021
-4.51926e-05
1.25191e-05
-0.00153838
-6.87717e-05
1.18517e-05
-0.0015313
-9.20859e-05
1.02187e-05
-0.0015172
-0.000111521
7.39357e-06
-0.00149399
-0.000120174
3.1705e-06
-0.00146005
-2.08244e-06
-0.001417
-0.000105213
3.74709e-05
8.43245e-06
-0.00176239
2.09626e-05
1.02921e-05
-0.00177315
1.90539e-06
1.16327e-05
-0.00178114
-1.98893e-05
1.24695e-05
-0.00178568
-4.44413e-05
1.267e-05
-0.00178547
-7.14603e-05
1.20495e-05
-0.00177884
-9.96008e-05
1.03371e-05
-0.00176314
-0.000125169
7.20055e-06
-0.00173485
-0.000140216
2.24935e-06
-0.00169056
-4.19521e-06
-0.00163109
-0.000127299
4.19781e-05
7.71249e-06
-0.00199922
2.51736e-05
9.50792e-06
-0.00201299
5.62566e-06
1.08402e-05
-0.00202375
-1.70309e-05
1.17223e-05
-0.00203073
-4.31173e-05
1.20233e-05
-0.00203239
-7.27041e-05
1.15305e-05
-0.00202666
-0.000104911
9.92119e-06
-0.00200994
-0.00013632
6.76424e-06
-0.00197711
-0.000158455
1.45531e-06
-0.00192229
-5.99768e-06
-0.00184455
-0.000148937
4.40651e-05
6.26338e-06
-0.00223594
2.74958e-05
7.74575e-06
-0.00225252
8.12951e-06
8.90597e-06
-0.00226579
-1.45788e-05
9.73484e-06
-0.00227509
-4.12402e-05
1.01274e-05
-0.00227872
-7.23169e-05
9.87422e-06
-0.00227426
-0.000107548
8.66461e-06
-0.00225725
-0.00014418
6.00701e-06
-0.00222079
-0.000173974
1.19162e-06
-0.00215593
-6.67442e-06
-0.00205875
-0.000169626
4.39136e-05
3.73462e-06
-0.00246929
2.81515e-05
4.58794e-06
-0.00248793
9.69618e-06
5.36343e-06
-0.00250302
-1.21552e-05
5.93872e-06
-0.00251403
-3.83985e-05
6.30733e-06
-0.00251936
-7.00083e-05
6.30652e-06
-0.0025165
-0.000107465
5.76152e-06
-0.0025004
-0.000148844
4.2499e-06
-0.00246228
-0.000186547
1.20532e-06
-0.00238869
-5.30163e-06
-0.00227089
-0.000189201
4.24864e-05
-0.00268942
2.76868e-05
-0.0027099
1.04449e-05
-0.00272688
-1.00556e-05
-0.00273949
-3.48249e-05
-0.00274598
-6.51023e-05
-0.00274365
-0.000102151
-0.00272744
-0.000145719
-0.00268779
-0.000189463
-0.00260808
-0.00247033
-0.000201737
1.8231e-06
3.77524e-06
-0.000570967
-5.01665e-06
3.98444e-06
-0.000571262
-1.18049e-05
4.06623e-06
-0.000570967
-1.81555e-05
4.02739e-06
-0.000570095
-2.36461e-05
3.86655e-06
-0.000568666
-2.78211e-05
3.58048e-06
-0.000566723
-3.02236e-05
3.17174e-06
-0.000564397
-3.0443e-05
2.64685e-06
-0.000562047
-2.80753e-05
2.01463e-06
-0.000560585
1.30547e-06
-0.000561064
-2.23459e-05
5.62627e-06
6.30424e-06
-0.000804816
-3.57909e-06
6.84958e-06
-0.000805677
-1.309e-05
7.1199e-06
-0.000805513
-2.24103e-05
7.13285e-06
-0.00080427
-3.09286e-05
6.88368e-06
-0.000801894
-3.78796e-05
6.35703e-06
-0.000798365
-4.23388e-05
5.54754e-06
-0.000793728
-4.32982e-05
4.47683e-06
-0.000788154
-3.98567e-05
3.21979e-06
-0.000782017
1.95013e-06
-0.000775995
-3.16295e-05
1.16924e-05
7.71349e-06
-0.00104044
3.7814e-07
8.62982e-06
-0.00104244
-1.16954e-05
9.163e-06
-0.00104292
-2.40213e-05
9.31657e-06
-0.00104173
-3.59274e-05
9.06853e-06
-0.00103868
-4.64602e-05
8.37276e-06
-0.0010336
-5.43005e-05
7.19413e-06
-0.00102639
-5.77345e-05
5.53591e-06
-0.00101713
-5.47698e-05
3.48016e-06
-0.00100634
1.29637e-06
-0.000995211
-4.38032e-05
1.87821e-05
8.35584e-06
-0.00127586
5.77442e-06
9.64002e-06
-0.00127964
-8.5349e-06
1.0458e-05
-0.00128145
-2.3737e-05
1.08052e-05
-0.00128095
-3.91783e-05
1.06208e-05
-0.00127778
-5.38129e-05
9.81774e-06
-0.00127145
-6.59746e-05
8.31246e-06
-0.00126153
-7.31658e-05
6.06126e-06
-0.00124779
-7.20301e-05
3.11755e-06
-0.00123065
-1.27084e-07
-0.00121206
-5.9188e-05
2.58343e-05
8.56097e-06
-0.00151284
1.14339e-05
1.01295e-05
-0.00151889
-4.75263e-06
1.11806e-05
-0.00152258
-2.24764e-05
1.17088e-05
-0.00152339
-4.11856e-05
1.16092e-05
-0.00152066
-5.98761e-05
1.07475e-05
-0.00151354
-7.66791e-05
8.97221e-06
-0.00150106
-8.83886e-05
6.15949e-06
-0.00148237
-9.01439e-05
2.27803e-06
-0.00145745
-2.18501e-06
-0.00142897
-7.61213e-05
3.18866e-05
8.31993e-06
-0.00174895
1.6499e-05
1.0057e-05
-0.00175769
-1.08796e-06
1.12594e-05
-0.00176364
-2.08006e-05
1.19303e-05
-0.00176619
-4.22566e-05
1.19315e-05
-0.00176433
-6.46197e-05
1.10883e-05
-0.00175682
-8.59948e-05
9.17469e-06
-0.00174197
-0.000102651
5.96586e-06
-0.001718
-0.000108281
1.29463e-06
-0.00168395
-4.29685e-06
-0.0016431
-9.41562e-05
3.64985e-05
7.65157e-06
-0.00198489
2.05453e-05
9.35879e-06
-0.00199634
2.12678e-06
1.05812e-05
-0.00200466
-1.88652e-05
1.13229e-05
-0.00200913
-4.23071e-05
1.14395e-05
-0.00200846
-6.76307e-05
1.07233e-05
-0.00200097
-9.31174e-05
8.87975e-06
-0.00198416
-0.000114775
5.56869e-06
-0.00195505
-0.000125063
4.32947e-07
-0.00191114
-6.13112e-06
-0.00185593
-0.000111842
3.88957e-05
6.19672e-06
-0.00222082
2.29704e-05
7.62834e-06
-0.00223487
4.46727e-06
8.70575e-06
-0.00224541
-1.69214e-05
9.41956e-06
-0.00225179
-4.13637e-05
9.64723e-06
-0.00225249
-6.86388e-05
9.18292e-06
-0.00224544
-9.74161e-05
7.72451e-06
-0.00222732
-0.000123794
4.83699e-06
-0.00219369
-0.000139501
4.69488e-08
-0.00213983
-6.89425e-06
-0.00206878
-0.000128706
3.92511e-05
3.71443e-06
-0.00245354
2.39472e-05
4.54691e-06
-0.00246955
6.13247e-06
5.2787e-06
-0.00248177
-1.46447e-05
5.78252e-06
-0.00248961
-3.89168e-05
6.03703e-06
-0.00249148
-6.69626e-05
5.87929e-06
-0.00248515
-9.81197e-05
5.12804e-06
-0.00246665
-0.000128941
3.3849e-06
-0.00243
-0.000150695
2.46029e-07
-0.00236713
-5.43288e-06
-0.00227902
-0.000144021
3.8234e-05
-0.00267319
2.37623e-05
-0.00269088
6.99787e-06
-0.00270484
-1.26523e-05
-0.00271405
-3.57844e-05
-0.00271681
-6.29359e-05
-0.00271062
-9.40431e-05
-0.00269121
-0.00012687
-0.00265158
-0.000153219
-0.00258148
-0.00247655
-0.000152429
1.44561e-06
3.15005e-06
-0.000569862
-3.01382e-06
3.31202e-06
-0.000570114
-7.398e-06
3.36401e-06
-0.000569947
-1.14245e-05
3.31336e-06
-0.000569382
-1.48093e-05
3.16412e-06
-0.000568445
-1.72761e-05
2.92033e-06
-0.000567177
-1.85866e-05
2.59232e-06
-0.000565679
-1.85784e-05
2.19089e-06
-0.000564246
-1.71389e-05
1.71914e-06
-0.000563744
1.17262e-06
-0.000565573
-1.3802e-05
4.00258e-06
5.44824e-06
-0.000800996
-2.63904e-06
5.8907e-06
-0.000801614
-9.40163e-06
6.08368e-06
-0.000801471
-1.58599e-05
6.04708e-06
-0.000800546
-2.15384e-05
5.78535e-06
-0.000798837
-2.59069e-05
5.29901e-06
-0.000796375
-2.84023e-05
4.60136e-06
-0.000793242
-2.85019e-05
3.72835e-06
-0.000789592
-2.58764e-05
2.75414e-06
-0.000785677
1.8099e-06
-0.000781875
-2.0634e-05
8.83767e-06
6.94283e-06
-0.00103386
-1.08059e-07
7.70518e-06
-0.0010353
-9.51526e-06
8.10878e-06
-0.00103554
-1.88829e-05
8.16042e-06
-0.00103447
-2.75919e-05
7.84956e-06
-0.00103204
-3.4859e-05
7.15296e-06
-0.00102819
-3.97376e-05
6.06614e-06
-0.00102297
-4.11896e-05
4.62598e-06
-0.00101658
-3.82699e-05
2.93698e-06
-0.00100944
1.22388e-06
-0.00100232
-3.05727e-05
1.47748e-05
7.74682e-06
-0.00126706
3.86872e-06
8.85677e-06
-0.00126988
-7.96808e-06
9.51518e-06
-0.00127102
-2.02357e-05
9.71676e-06
-0.00127024
-3.22326e-05
9.41666e-06
-0.00126735
-4.29689e-05
8.55626e-06
-0.00126212
-5.10946e-05
7.09682e-06
-0.00125443
-5.49074e-05
5.05459e-06
-0.0012444
-5.25606e-05
2.54443e-06
-0.00123261
-7.95266e-08
-0.00122045
-4.28732e-05
2.10347e-05
8.11419e-06
-0.00150227
8.43134e-06
9.50816e-06
-0.00150694
-5.55723e-06
1.03907e-05
-0.00150947
-2.05152e-05
1.07484e-05
-0.00150947
-3.57473e-05
1.04932e-05
-0.0015065
-5.01581e-05
9.51953e-06
-0.0015001
-6.2054e-05
7.73209e-06
-0.0014898
-6.90105e-05
5.09281e-06
-0.00147546
-6.80017e-05
1.68263e-06
-0.0014576
-2.0238e-06
-0.00143846
-5.65667e-05
2.66589e-05
8.00223e-06
-0.00173693
1.27731e-05
9.58416e-06
-0.00174388
-2.91427e-06
1.06268e-05
-0.00174819
-2.0122e-05
1.11231e-05
-0.00174935
-3.82342e-05
1.0946e-05
-0.00174667
-5.61686e-05
9.94693e-06
-0.00173932
-7.20095e-05
7.9604e-06
-0.00172635
-8.26689e-05
4.86714e-06
-0.00170711
-8.38118e-05
6.68318e-07
-0.00168179
-4.05617e-06
-0.00165357
-7.13091e-05
3.1176e-05
7.42047e-06
-0.00197172
1.64654e-05
9.00587e-06
-0.00198105
-3.49911e-07
1.00914e-05
-0.0019873
-1.91492e-05
1.06723e-05
-0.00198988
-3.94917e-05
1.06072e-05
-0.00198778
-6.04405e-05
9.71105e-06
-0.00197978
-8.00289e-05
7.74602e-06
-0.00196436
-9.46522e-05
4.48241e-06
-0.00194004
-9.86343e-05
-2.26423e-07
-0.00190627
-5.8326e-06
-0.00186711
-8.56811e-05
3.37233e-05
6.00106e-06
-0.00220664
1.88137e-05
7.35517e-06
-0.00221831
1.63861e-06
8.32745e-06
-0.00222647
-1.787e-05
8.90709e-06
-0.00223052
-3.95134e-05
8.96509e-06
-0.0022292
-6.26092e-05
8.31446e-06
-0.00222095
-8.53548e-05
6.69503e-06
-0.00220352
-0.00010389
3.76913e-06
-0.00217444
-0.000111447
-7.09764e-07
-0.00213179
-6.62907e-06
-0.00208024
-9.91946e-05
3.44819e-05
3.61156e-06
-0.0024386
1.99788e-05
4.40615e-06
-0.0024521
3.22593e-06
5.07928e-06
-0.00246177
-1.59705e-05
5.49913e-06
-0.00246701
-3.77168e-05
5.63422e-06
-0.0024664
-6.17308e-05
5.33011e-06
-0.00245816
-8.66923e-05
4.4231e-06
-0.00243942
-0.000108911
2.5834e-06
-0.0024066
-0.000120717
-4.11735e-07
-0.00235563
-5.17395e-06
-0.00229066
-0.000110536
3.38132e-05
-0.00265765
1.99968e-05
-0.00267266
4.10584e-06
-0.00268387
-1.42159e-05
-0.00269023
-3.51734e-05
-0.00269022
-5.87312e-05
-0.00268174
-8.39753e-05
-0.00266154
-0.000107912
-0.00262506
-0.000122911
-0.00256689
-0.0024886
-0.000116035
1.18803e-06
2.57313e-06
-0.000569739
-1.65327e-06
2.69914e-06
-0.000569972
-4.4417e-06
2.73572e-06
-0.000569894
-6.98397e-06
2.68973e-06
-0.000569529
-9.09763e-06
2.56799e-06
-0.0005689
-1.06183e-05
2.37741e-06
-0.000568034
-1.14218e-05
2.13035e-06
-0.000567006
-1.14487e-05
1.8363e-06
-0.000566056
-1.06822e-05
1.49008e-06
-0.000566
1.05694e-06
-0.00056852
-8.79244e-06
2.85626e-06
4.58891e-06
-0.000798755
-1.77258e-06
4.94307e-06
-0.00079923
-6.4425e-06
5.08169e-06
-0.000799147
-1.0821e-05
5.02519e-06
-0.000798503
-1.45628e-05
4.78404e-06
-0.000797311
-1.73171e-05
4.36769e-06
-0.000795611
-1.87522e-05
3.79759e-06
-0.000793474
-1.86078e-05
3.11164e-06
-0.000791012
-1.67896e-05
2.37326e-06
-0.000788379
1.67656e-06
-0.000785768
-1.35161e-05
6.64032e-06
6.08107e-06
-0.00102918
-1.80957e-07
6.70004e-06
-0.00103024
-7.26615e-06
6.99724e-06
-0.00103037
-1.4179e-05
6.98312e-06
-0.00102952
-2.04159e-05
6.65741e-06
-0.00102768
-2.53969e-05
6.01482e-06
-0.00102486
-2.84926e-05
5.06995e-06
-0.00102115
-2.91003e-05
3.87266e-06
-0.00101673
-2.67824e-05
2.52301e-06
-0.00101191
1.19332e-06
-0.00100712
-2.14986e-05
1.14668e-05
6.98865e-06
-0.00126019
2.64853e-06
7.92481e-06
-0.00126229
-6.80543e-06
8.43866e-06
-0.001263
-1.63932e-05
8.52832e-06
-0.0012622
-2.54732e-05
8.16648e-06
-0.00125978
-3.32282e-05
7.32194e-06
-0.00125567
-3.86666e-05
5.99037e-06
-0.00124991
-4.07023e-05
4.22168e-06
-0.00124272
-3.83655e-05
2.14823e-06
-0.00123457
5.99449e-08
-0.00122637
-3.13148e-05
1.68461e-05
7.48843e-06
-0.00149348
6.18236e-06
8.69589e-06
-0.00149705
-5.50562e-06
9.41307e-06
-0.00149876
-1.77275e-05
9.62422e-06
-0.00149834
-2.97749e-05
9.26324e-06
-0.00149555
-4.06472e-05
8.2585e-06
-0.00149016
-4.89845e-05
6.5644e-06
-0.00148204
-5.30984e-05
4.20175e-06
-0.00147132
-5.12166e-05
1.30553e-06
-0.00145864
-1.71616e-06
-0.00144554
-4.23619e-05
2.18916e-05
7.50114e-06
-0.00172651
9.74963e-06
8.9059e-06
-0.00173195
-3.80295e-06
9.78141e-06
-0.001735
-1.83476e-05
1.01136e-05
-0.0017353
-3.31758e-05
9.79746e-06
-0.00173238
-4.71901e-05
8.72032e-06
-0.00172576
-5.87211e-05
6.77871e-06
-0.00171504
-6.54542e-05
3.93736e-06
-0.00170011
-6.46296e-05
2.99963e-07
-0.00168161
-3.60502e-06
-0.00166194
-5.43758e-05
2.61477e-05
7.02736e-06
-0.00195997
1.29706e-05
8.46455e-06
-0.00196743
-1.92022e-06
9.39879e-06
-0.00197203
-1.82272e-05
9.81732e-06
-0.00197328
-3.53354e-05
9.59565e-06
-0.00197047
-5.21704e-05
8.58391e-06
-0.00196281
-6.68748e-05
6.61276e-06
-0.00194949
-7.65596e-05
3.55586e-06
-0.00192998
-7.73203e-05
-5.85954e-07
-0.00190462
-5.2522e-06
-0.0018768
-6.59819e-05
2.86947e-05
5.67589e-06
-0.00219367
1.51067e-05
6.92867e-06
-0.00220318
-3.86275e-07
7.78142e-06
-0.00220936
-1.76431e-05
8.22219e-06
-0.00221167
-3.62117e-05
8.12725e-06
-0.00220916
-5.51659e-05
7.33999e-06
-0.00220075
-7.26431e-05
5.66237e-06
-0.0021851
-8.53479e-05
2.86456e-06
-0.00216104
-8.83203e-05
-1.12269e-06
-0.00212828
-6.02906e-06
-0.00209105
-7.67343e-05
2.97414e-05
3.42532e-06
-0.00242477
1.63432e-05
4.16514e-06
-0.00243593
1.00453e-06
4.76766e-06
-0.00244342
-1.62362e-05
5.09808e-06
-0.00244665
-3.51575e-05
5.12164e-06
-0.00244448
-5.51021e-05