/*--------------------------------*- C++ -*----------------------------------*\
| =========                 |                                                 |
| \\      /  F ield         | foam-extend: Open Source CFD                    |
|  \\    /   O peration     | Version:     4.0                                |
|   \\  /    A nd           | Web:         http://www.foam-extend.org         |
|    \\/     M anipulation  |                                                 |
\*---------------------------------------------------------------------------*/
FoamFile
{
    version     2.0;
    format      ascii;
    class       volScalarField;
    location    "1800";
    object      rho;
}
// * * * * * * * * * * * * * * * * * * * * * * * * * * * * * * * * * * * * * //

dimensions      [1 -3 0 0 0 0 0];

internalField   nonuniform List<scalar> 
34480
(
1.34796
1.34652
1.34595
1.34669
1.3493
1.35445
1.36277
1.37241
1.37586
1.39543
1.34216
1.33935
1.33711
1.33576
1.336
1.33877
1.34538
1.35557
1.35984
1.37524
1.33782
1.33377
1.33014
1.32707
1.32507
1.32526
1.32939
1.33824
1.34115
1.34931
1.33475
1.32946
1.32458
1.32002
1.31607
1.31385
1.31538
1.32221
1.32299
1.32311
1.33273
1.32641
1.3206
1.31493
1.30953
1.30534
1.30456
1.30922
1.30762
1.30002
1.33201
1.32501
1.31855
1.3121
1.30569
1.30003
1.29741
1.30001
1.29607
1.28214
1.33013
1.32265
1.31586
1.30901
1.30207
1.29553
1.29159
1.29237
1.28615
1.26671
1.33026
1.32269
1.31584
1.30898
1.30202
1.29524
1.29059
1.28985
1.28128
1.25598
1.32718
1.31963
1.31287
1.30642
1.30024
1.29428
1.28979
1.28788
1.27687
1.24574
1.32458
1.31683
1.30984
1.30335
1.29759
1.29265
1.28929
1.28793
1.27598
1.23893
1.36393
1.36286
1.36268
1.36366
1.36618
1.37064
1.37777
1.38853
1.40398
1.42536
1.35602
1.35385
1.35244
1.35201
1.3531
1.35643
1.3631
1.37458
1.39286
1.42309
1.35023
1.3469
1.34425
1.34239
1.34175
1.34325
1.34839
1.35929
1.37835
1.41431
1.34623
1.34163
1.33769
1.33441
1.33207
1.33157
1.33464
1.34409
1.36287
1.40278
1.34379
1.33806
1.33304
1.32856
1.32478
1.32247
1.32344
1.33099
1.34872
1.39085
1.34287
1.33631
1.33043
1.32502
1.32008
1.31625
1.31533
1.32079
1.33683
1.37921
1.34103
1.3338
1.32734
1.32127
1.31555
1.31061
1.30815
1.31155
1.32547
1.36662
1.34122
1.33366
1.32685
1.32045
1.31433
1.30875
1.30517
1.30663
1.31797
1.35669
1.3385
1.33074
1.32369
1.31718
1.31115
1.30569
1.30176
1.30173
1.31019
1.34732
1.33568
1.32782
1.32056
1.31386
1.30779
1.3026
1.29905
1.29896
1.30556
1.34383
1.37529
1.37488
1.37535
1.37693
1.37978
1.38409
1.39006
1.39787
1.40765
1.41889
1.36662
1.36539
1.36504
1.36584
1.3681
1.37221
1.37875
1.38829
1.40144
1.41888
1.35952
1.35734
1.35602
1.35576
1.35698
1.36026
1.3665
1.37684
1.39255
1.41568
1.3543
1.35099
1.34857
1.34713
1.34711
1.34921
1.35455
1.36486
1.38225
1.41057
1.35087
1.3465
1.34308
1.34059
1.33939
1.34026
1.34446
1.3542
1.37257
1.40523
1.34911
1.34391
1.33964
1.33628
1.33407
1.33379
1.33682
1.34567
1.36444
1.40054
1.34668
1.34077
1.33588
1.33184
1.32887
1.32766
1.32963
1.33742
1.3561
1.39459
1.34649
1.34016
1.33481
1.33033
1.32683
1.32494
1.326
1.33262
1.35052
1.39025
1.34403
1.33737
1.33163
1.32678
1.323
1.32084
1.32145
1.32714
1.3436
1.3847
1.34118
1.33441
1.32842
1.3233
1.31922
1.31682
1.31728
1.32286
1.33793
1.38122
1.38206
1.38189
1.38239
1.38366
1.38576
1.38872
1.39258
1.39732
1.40278
1.40813
1.37434
1.3736
1.37365
1.37467
1.37682
1.38026
1.38518
1.39171
1.3998
1.40849
1.36719
1.3657
1.36505
1.36539
1.36705
1.37037
1.37583
1.3839
1.39487
1.4077
1.36155
1.35912
1.35757
1.35707
1.35797
1.36079
1.36625
1.37526
1.38875
1.40597
1.35766
1.35427
1.35187
1.35051
1.35057
1.35269
1.3578
1.36726
1.38284
1.40433
1.35543
1.35123
1.34806
1.34593
1.3452
1.34657
1.35116
1.3607
1.37791
1.40332
1.35266
1.34776
1.34396
1.3412
1.3398
1.34049
1.34451
1.35387
1.37227
1.40111
1.35219
1.34683
1.34254
1.3393
1.33739
1.33751
1.34094
1.34986
1.36882
1.40047
1.3497
1.34399
1.33931
1.33569
1.3334
1.33318
1.33626
1.34477
1.36356
1.39803
1.34672
1.34089
1.33598
1.33211
1.32956
1.32906
1.33185
1.34012
1.35834
1.39583
1.38577
1.38571
1.38609
1.38697
1.38834
1.39019
1.39248
1.39517
1.39824
1.40135
1.37969
1.37926
1.37945
1.38037
1.38208
1.38461
1.38794
1.392
1.39661
1.40116
1.37317
1.37218
1.37191
1.37249
1.37409
1.37689
1.38103
1.3866
1.39348
1.40071
1.36761
1.36586
1.36493
1.36497
1.36623
1.36902
1.37368
1.38053
1.38973
1.40009
1.3636
1.36102
1.35939
1.35881
1.35957
1.36212
1.36699
1.37482
1.38623
1.39991
1.36112
1.3578
1.35551
1.35431
1.35452
1.35671
1.36159
1.37013
1.38357
1.40061
1.35815
1.35416
1.3513
1.34954
1.34925
1.35104
1.35581
1.36481
1.38003
1.40034
1.3575
1.35305
1.3497
1.3475
1.34677
1.34817
1.35271
1.3619
1.37843
1.40174
1.35502
1.35022
1.34651
1.34394
1.34286
1.34397
1.34837
1.35762
1.37481
1.40117
1.35201
1.34708
1.34313
1.34035
1.33903
1.3399
1.34405
1.35321
1.37043
1.39981
1.38742
1.38739
1.38764
1.38817
1.38898
1.39004
1.39132
1.3928
1.39457
1.3966
1.38311
1.38286
1.38304
1.38373
1.38493
1.38662
1.38875
1.39119
1.39378
1.3962
1.37761
1.37695
1.37687
1.37745
1.37877
1.38088
1.38379
1.38743
1.39159
1.39568
1.37251
1.37126
1.37073
1.37101
1.37227
1.37465
1.37826
1.38313
1.38912
1.39534
1.36867
1.36674
1.36566
1.36554
1.36657
1.36902
1.37315
1.37913
1.38704
1.39569
1.36615
1.36358
1.36196
1.36137
1.36209
1.36449
1.36896
1.37592
1.38574
1.39701
1.36314
1.35996
1.35784
1.35681
1.35719
1.35944
1.36413
1.37189
1.38354
1.39753
1.36242
1.3588
1.35624
1.35483
1.35489
1.35694
1.3617
1.37001
1.38322
1.39986
1.35997
1.356
1.35312
1.35139
1.35116
1.35304
1.35784
1.36657
1.38088
1.40018
1.35698
1.35287
1.34978
1.34787
1.34744
1.34914
1.35381
1.36265
1.37736
1.39913
1.38786
1.38785
1.38799
1.38829
1.38874
1.38932
1.39001
1.39083
1.39192
1.39346
1.38512
1.38497
1.38511
1.38557
1.38634
1.38741
1.3887
1.39014
1.39162
1.39295
1.38078
1.38033
1.38033
1.3808
1.38179
1.38329
1.38525
1.38756
1.39008
1.39244
1.37632
1.37545
1.37514
1.37549
1.37658
1.37844
1.38109
1.38444
1.38828
1.39208
1.37286
1.37144
1.37074
1.37085
1.3719
1.37401
1.37727
1.38165
1.387
1.39251
1.37049
1.36853
1.3674
1.3672
1.36812
1.37037
1.37414
1.37951
1.38646
1.39392
1.36756
1.36506
1.36353
1.363
1.36373
1.36603
1.3702
1.37648
1.38504
1.39463
1.36687
1.36397
1.36206
1.36123
1.36176
1.36403
1.36846
1.37547
1.38551
1.39723
1.36446
1.36124
1.35906
1.35797
1.3583
1.3605
1.36512
1.37272
1.38397
1.39783
1.36157
1.35821
1.35584
1.3546
1.35478
1.35688
1.36148
1.36932
1.38114
1.39688
1.38768
1.38767
1.38774
1.3879
1.38814
1.38844
1.38881
1.38927
1.38999
1.3913
1.38617
1.38607
1.38616
1.38644
1.38691
1.38755
1.38831
1.38914
1.38999
1.39073
1.38293
1.38263
1.38265
1.38299
1.38368
1.38469
1.38597
1.38743
1.38896
1.39036
1.37919
1.37859
1.37841
1.37873
1.37958
1.38096
1.38283
1.38508
1.38755
1.38991
1.37624
1.3752
1.37476
1.37495
1.37587
1.37756
1.38001
1.38314
1.38673
1.39028
1.37412
1.37266
1.37189
1.3719
1.37281
1.37474
1.37774
1.38175
1.38659
1.39155
1.37137
1.36945
1.36836
1.36815
1.369
1.3711
1.37457
1.37944
1.3856
1.39214
1.37078
1.36852
1.36712
1.36669
1.36745
1.36963
1.37347
1.37909
1.38652
1.39468
1.36845
1.36589
1.36427
1.36365
1.36429
1.36649
1.37059
1.37685
1.38537
1.39519
1.36571
1.36302
1.36124
1.3605
1.36104
1.36321
1.36738
1.37393
1.38304
1.3942
1.38722
1.38722
1.38726
1.38734
1.38746
1.38761
1.38781
1.38807
1.3886
1.38978
1.38659
1.38653
1.38658
1.38674
1.38702
1.38738
1.38782
1.3883
1.38877
1.38919
1.38433
1.38413
1.38414
1.38437
1.38483
1.38548
1.38629
1.3872
1.38813
1.38897
1.38128
1.38087
1.38076
1.38101
1.38163
1.3826
1.38388
1.38537
1.38696
1.38845
1.37887
1.37813
1.37785
1.37805
1.37879
1.38006
1.38184
1.38402
1.38642
1.38874
1.37708
1.37601
1.37549
1.3756
1.3764
1.37795
1.38023
1.38314
1.38649
1.38981
1.37457
1.37312
1.37237
1.37234
1.37316
1.37493
1.37768
1.38135
1.38572
1.39018
1.37416
1.37242
1.37143
1.37126
1.37206
1.37398
1.37713
1.38148
1.38686
1.39252
1.37191
1.36992
1.36875
1.36845
1.3692
1.37121
1.37465
1.37957
1.38585
1.39273
1.36938
1.36727
1.36597
1.36558
1.36628
1.3683
1.37185
1.37708
1.38388
1.39169
1.38671
1.38671
1.38673
1.38676
1.38682
1.3869
1.38701
1.38716
1.38757
1.3887
1.38664
1.38661
1.38663
1.38672
1.38688
1.38709
1.38733
1.3876
1.38787
1.38811
1.38519
1.38506
1.38507
1.38521
1.3855
1.3859
1.3864
1.38696
1.38752
1.38803
1.38274
1.38246
1.3824
1.38258
1.38301
1.38366
1.3845
1.38548
1.38649
1.38743
1.38086
1.38035
1.38017
1.38034
1.38089
1.38181
1.38306
1.38454
1.38614
1.38765
1.37942
1.37866
1.37831
1.37845
1.3791
1.38027
1.38195
1.38401
1.3863
1.38852
1.37718
1.37612
1.3756
1.37566
1.37638
1.37779
1.37988
1.38256
1.38562
1.38866
1.37699
1.3757
1.375
1.37498
1.37573
1.37732
1.37978
1.38303
1.38687
1.39077
1.37485
1.37333
1.37251
1.3724
1.37315
1.37486
1.3776
1.38134
1.38587
1.39062
1.37257
1.37095
1.37002
1.36985
1.37058
1.37234
1.37522
1.37923
1.38417
1.38957
1.38623
1.38624
1.38625
1.38626
1.38629
1.38633
1.38639
1.38649
1.38682
1.38791
1.3865
1.38648
1.3865
1.38655
1.38663
1.38675
1.38688
1.38703
1.38719
1.38732
1.38569
1.38561
1.38561
1.38569
1.38587
1.38612
1.38642
1.38675
1.38709
1.38739
1.38372
1.38353
1.38349
1.38362
1.3839
1.38433
1.38487
1.38549
1.38613
1.38672
1.38234
1.38198
1.38187
1.382
1.3824
1.38304
1.38388
1.38487
1.38591
1.38689
1.38123
1.38069
1.38047
1.38059
1.38109
1.38195
1.38313
1.38456
1.3861
1.38757
1.37926
1.3785
1.37815
1.37825
1.37883
1.3799
1.38143
1.38333
1.38544
1.38749
1.37932
1.37838
1.3779
1.37796
1.3786
1.37985
1.3817
1.38405
1.38674
1.38939
1.37727
1.37615
1.37557
1.37558
1.37625
1.37763
1.37973
1.38248
1.38567
1.38892
1.37528
1.37407
1.37342
1.37339
1.37406
1.3755
1.37773
1.38071
1.38422
1.38791
1.38586
1.38586
1.38587
1.38587
1.38589
1.3859
1.38593
1.386
1.38629
1.38734
1.38628
1.38627
1.38627
1.3863
1.38635
1.38641
1.38649
1.38657
1.38666
1.38673
1.38597
1.38591
1.38591
1.38596
1.38606
1.38621
1.38639
1.38659
1.38679
1.38697
1.38434
1.38422
1.3842
1.38428
1.38446
1.38473
1.38508
1.38546
1.38586
1.38623
1.38339
1.38316
1.38308
1.38318
1.38345
1.38388
1.38444
1.38509
1.38576
1.38638
1.38258
1.38221
1.38207
1.38217
1.38253
1.38314
1.38395
1.38491
1.38594
1.3869
1.38087
1.38033
1.38011
1.3802
1.38065
1.38143
1.38252
1.38383
1.38526
1.38663
1.3812
1.38052
1.38021
1.38029
1.3808
1.38174
1.38309
1.38475
1.38658
1.38836
1.37922
1.3784
1.37802
1.37807
1.37862
1.37969
1.38124
1.38321
1.38542
1.38761
1.37756
1.37667
1.37623
1.37627
1.37683
1.37796
1.37963
1.38177
1.3842
1.3867
1.38559
1.38559
1.3856
1.3856
1.3856
1.38561
1.38563
1.38567
1.38592
1.38694
1.38602
1.38602
1.38602
1.38604
1.38606
1.3861
1.38614
1.38619
1.38624
1.38628
1.38611
1.38607
1.38607
1.3861
1.38616
1.38625
1.38635
1.38647
1.38659
1.38669
1.38472
1.38464
1.38463
1.38468
1.38479
1.38496
1.38517
1.38541
1.38566
1.38589
1.38414
1.38398
1.38393
1.384
1.38418
1.38446
1.38482
1.38524
1.38566
1.38606
1.38357
1.38332
1.38323
1.38331
1.38356
1.38397
1.38452
1.38515
1.38582
1.38644
1.38209
1.38172
1.38157
1.38165
1.38198
1.38253
1.38328
1.38417
1.38511
1.38602
1.38267
1.38221
1.382
1.38208
1.38247
1.38315
1.3841
1.38523
1.38647
1.38764
1.38074
1.38016
1.37991
1.37998
1.38041
1.38119
1.3823
1.38367
1.38517
1.38663
1.37944
1.37881
1.37851
1.37858
1.37903
1.37987
1.38107
1.38257
1.38422
1.38588
1.38543
1.38544
1.38544
1.38544
1.38544
1.38544
1.38545
1.38548
1.38569
1.38666
1.38576
1.38576
1.38577
1.38578
1.38579
1.38581
1.38583
1.38586
1.38589
1.38592
1.38619
1.38617
1.38617
1.38618
1.38622
1.38627
1.38633
1.3864
1.38647
1.38652
1.38493
1.38488
1.38487
1.3849
1.38497
1.38507
1.3852
1.38535
1.38549
1.38564
1.38465
1.38455
1.38452
1.38456
1.38468
1.38486
1.38509
1.38535
1.38561
1.38586
1.38426
1.3841
1.38404
1.3841
1.38427
1.38454
1.3849
1.38531
1.38574
1.38613
1.38299
1.38274
1.38264
1.38271
1.38293
1.38331
1.38381
1.3844
1.38501
1.3856
1.38381
1.3835
1.38337
1.38344
1.38372
1.3842
1.38484
1.3856
1.38642
1.38717
1.38189
1.38148
1.38132
1.38139
1.3817
1.38226
1.38303
1.38396
1.38496
1.38591
1.38099
1.38055
1.38036
1.38043
1.38076
1.38137
1.3822
1.38322
1.38432
1.3854
1.38539
1.3854
1.3854
1.3854
1.3854
1.3854
1.3854
1.38542
1.38559
1.38651
1.38551
1.38551
1.38552
1.38552
1.38553
1.38554
1.38556
1.38557
1.38559
1.38561
1.38625
1.38624
1.38623
1.38624
1.38626
1.38629
1.38633
1.38637
1.38641
1.38644
1.38503
1.385
1.38499
1.385
1.38504
1.38511
1.38518
1.38527
1.38536
1.38544
1.38499
1.38492
1.3849
1.38493
1.385
1.38512
1.38526
1.38542
1.38559
1.38574
1.38473
1.38463
1.38459
1.38463
1.38474
1.38492
1.38515
1.38541
1.38567
1.38592
1.38363
1.38347
1.38341
1.38346
1.38361
1.38386
1.38418
1.38456
1.38495
1.38533
1.38469
1.38449
1.3844
1.38446
1.38465
1.38497
1.3854
1.3859
1.38642
1.38689
1.38271
1.38244
1.38233
1.38239
1.38261
1.38299
1.38351
1.38412
1.38477
1.38539
1.38227
1.38198
1.38186
1.38192
1.38216
1.38258
1.38314
1.38381
1.38452
1.38522
1.3855
1.3855
1.3855
1.3855
1.3855
1.3855
1.3855
1.3855
1.38564
1.38648
1.38526
1.38526
1.38527
1.38527
1.38527
1.38528
1.38529
1.3853
1.38531
1.38532
1.38631
1.3863
1.3863
1.38631
1.38632
1.38634
1.38636
1.38638
1.3864
1.38642
1.38505
1.38503
1.38503
1.38503
1.38506
1.38509
1.38514
1.38519
1.38524
1.38529
1.38519
1.38515
1.38514
1.38516
1.3852
1.38527
1.38536
1.38546
1.38556
1.38565
1.38502
1.38495
1.38493
1.38496
1.38503
1.38514
1.38528
1.38544
1.38561
1.38576
1.38409
1.38399
1.38395
1.38398
1.38408
1.38423
1.38444
1.38467
1.38491
1.38515
1.38534
1.38521
1.38516
1.3852
1.38533
1.38555
1.38582
1.38614
1.38647
1.38675
1.38325
1.38307
1.38301
1.38305
1.3832
1.38345
1.38379
1.38418
1.38459
1.38499
1.3834
1.38321
1.38314
1.38318
1.38335
1.38362
1.38399
1.38443
1.38487
1.38531
1.38586
1.38586
1.38586
1.38586
1.38585
1.38585
1.38584
1.38584
1.38594
1.38667
1.38497
1.38497
1.38498
1.38498
1.38498
1.38499
1.38499
1.385
1.38501
1.38501
1.38637
1.38636
1.38636
1.38636
1.38637
1.38639
1.3864
1.38642
1.38643
1.38644
1.38504
1.38502
1.38502
1.38502
1.38503
1.38505
1.38507
1.3851
1.38513
1.38516
1.38529
1.38526
1.38526
1.38527
1.38529
1.38534
1.38539
1.38545
1.38551
1.38557
1.38515
1.38511
1.38509
1.38511
1.38515
1.38522
1.38531
1.38541
1.38551
1.38561
1.38439
1.38432
1.3843
1.38432
1.38438
1.38448
1.38461
1.38475
1.38489
1.38504
1.38576
1.38568
1.38565
1.38568
1.38577
1.3859
1.38608
1.38628
1.3865
1.38665
1.38352
1.38341
1.38337
1.3834
1.38349
1.38366
1.38387
1.38412
1.38437
1.38463
1.38452
1.3844
1.38436
1.38439
1.3845
1.38468
1.38492
1.38519
1.38546
1.38573
1.38671
1.38671
1.38671
1.3867
1.3867
1.38669
1.38669
1.38668
1.38674
1.38732
1.38457
1.38457
1.38457
1.38457
1.38457
1.38457
1.38457
1.38457
1.38458
1.38458
1.38634
1.38634
1.38634
1.38635
1.38636
1.38637
1.38638
1.3864
1.38641
1.38642
1.38501
1.385
1.38499
1.38499
1.385
1.38501
1.38502
1.38503
1.38504
1.38506
1.38528
1.38527
1.38527
1.38527
1.38529
1.38532
1.38535
1.38539
1.38543
1.38546
1.38515
1.38512
1.38511
1.38512
1.38515
1.38519
1.38525
1.38531
1.38538
1.38544
1.38455
1.38452
1.3845
1.38451
1.38455
1.38461
1.38469
1.38477
1.38486
1.38494
1.38585
1.3858
1.38578
1.3858
1.38586
1.38595
1.38607
1.3862
1.38635
1.38644
1.38346
1.38339
1.38336
1.38338
1.38344
1.38355
1.38368
1.38384
1.38399
1.38417
1.3859
1.38582
1.38579
1.38581
1.38589
1.386
1.38616
1.38633
1.3865
1.38667
1.38821
1.38824
1.38825
1.38825
1.38826
1.38827
1.38829
1.3883
1.38835
1.38874
1.3839
1.38389
1.38389
1.38389
1.38388
1.38387
1.38386
1.38385
1.38384
1.38382
1.38612
1.38613
1.38613
1.38613
1.38614
1.38616
1.38617
1.38619
1.38621
1.38623
1.385
1.38499
1.38499
1.38499
1.38499
1.38499
1.385
1.385
1.38501
1.38501
1.38522
1.38521
1.38521
1.38522
1.38523
1.38525
1.38527
1.38529
1.38532
1.38535
1.38508
1.38506
1.38505
1.38506
1.38508
1.38511
1.38515
1.38519
1.38523
1.38528
1.38463
1.3846
1.38459
1.3846
1.38462
1.38467
1.38472
1.38477
1.38483
1.38488
1.38548
1.38544
1.38543
1.38544
1.38548
1.38554
1.38563
1.38573
1.38585
1.38594
1.38294
1.3829
1.38288
1.38289
1.38294
1.38301
1.3831
1.3832
1.38328
1.3834
1.38774
1.38768
1.38766
1.38767
1.38772
1.38781
1.38792
1.38804
1.38817
1.38831
1.38992
1.38991
1.38993
1.38994
1.38997
1.39001
1.39005
1.39011
1.39019
1.39042
1.38309
1.38309
1.38308
1.38307
1.38306
1.38304
1.38302
1.38298
1.38294
1.38285
1.38576
1.38576
1.38576
1.38577
1.38578
1.38579
1.3858
1.38582
1.38585
1.38588
1.38505
1.38505
1.38504
1.38504
1.38505
1.38505
1.38505
1.38506
1.38506
1.38505
1.38518
1.38517
1.38516
1.38517
1.38518
1.38519
1.38521
1.38524
1.38526
1.38528
1.38503
1.38501
1.385
1.38501
1.38503
1.38505
1.38509
1.38512
1.38516
1.3852
1.38468
1.38465
1.38465
1.38465
1.38468
1.38471
1.38476
1.38481
1.38486
1.3849
1.38488
1.38485
1.38483
1.38484
1.38488
1.38494
1.38501
1.3851
1.3852
1.38532
1.38221
1.38217
1.38216
1.38217
1.38221
1.38227
1.38235
1.38243
1.38249
1.38252
1.38956
1.38949
1.38946
1.38947
1.38952
1.38959
1.38969
1.38981
1.38994
1.3901
1.53315
1.55013
1.54497
1.5335
1.54818
1.56808
1.56085
1.54967
1.55654
1.57739
1.57341
1.56092
1.56015
1.58181
1.5845
1.57004
1.56373
1.58634
1.59501
1.57929
1.57296
1.59828
1.61454
1.60506
1.58277
1.61021
1.63206
1.62932
1.59241
1.62103
1.6465
1.64856
1.59017
1.61874
1.64629
1.65201
1.57463
1.60161
1.63032
1.64008
1.44112
1.45236
1.45562
1.45011
1.45002
1.46325
1.46811
1.46386
1.45413
1.46918
1.47509
1.47291
1.45767
1.47425
1.48159
1.48177
1.46235
1.48003
1.4894
1.49138
1.46721
1.48516
1.4955
1.49794
1.47079
1.48873
1.49969
1.50254
1.47585
1.49354
1.50492
1.50973
1.47563
1.49263
1.5045
1.51139
1.4719
1.48794
1.50071
1.50925
1.42572
1.43067
1.43181
1.43011
1.43278
1.43859
1.44056
1.43992
1.436
1.44314
1.44618
1.4461
1.43864
1.44718
1.45157
1.45222
1.44233
1.45213
1.45783
1.45926
1.4478
1.45872
1.46559
1.46816
1.45278
1.46462
1.47249
1.47611
1.45908
1.47149
1.47999
1.48459
1.46131
1.47375
1.48254
1.48792
1.46151
1.47351
1.48186
1.48708
1.40889
1.41149
1.41233
1.41149
1.41414
1.41699
1.41841
1.41847
1.4164
1.42007
1.42219
1.42276
1.41841
1.42294
1.42587
1.42719
1.42136
1.42671
1.43042
1.43253
1.42565
1.43173
1.43613
1.43904
1.42937
1.43608
1.44109
1.44485
1.43479
1.44201
1.44755
1.4522
1.43663
1.44408
1.45001
1.45536
1.4357
1.44338
1.44943
1.45474
1.40005
1.4016
1.40208
1.4015
1.40396
1.40545
1.40631
1.40655
1.40525
1.4073
1.40861
1.4092
1.40669
1.40931
1.41115
1.41226
1.40909
1.41229
1.41464
1.41629
1.41289
1.41665
1.4195
1.42171
1.41624
1.42052
1.42383
1.42662
1.42145
1.42618
1.4299
1.4333
1.42367
1.42863
1.43263
1.43646
1.4235
1.42867
1.43273
1.43632
1.39429
1.39536
1.39563
1.39512
1.3976
1.39839
1.39892
1.39916
1.39812
1.3993
1.40013
1.40062
1.399
1.40058
1.40177
1.40264
1.40089
1.40287
1.40443
1.40569
1.40405
1.40642
1.40834
1.41003
1.40674
1.40949
1.41175
1.41386
1.4114
1.41448
1.41705
1.4196
1.4135
1.41681
1.4196
1.4224
1.41342
1.41694
1.41983
1.42238
1.39067
1.3915
1.39166
1.39114
1.3937
1.39414
1.39445
1.39464
1.39384
1.39454
1.39506
1.39542
1.39424
1.39521
1.39599
1.39661
1.39566
1.39692
1.39796
1.39886
1.39824
1.39978
1.40109
1.40228
1.40033
1.40216
1.40372
1.40521
1.40443
1.4065
1.40829
1.41008
1.40622
1.40847
1.41042
1.41235
1.40603
1.40843
1.41045
1.41219
1.38829
1.38902
1.38911
1.38856
1.39112
1.39137
1.39156
1.39169
1.39119
1.39161
1.39194
1.39218
1.39123
1.39183
1.39234
1.39275
1.39225
1.39306
1.39375
1.39436
1.39428
1.39529
1.39618
1.397
1.39578
1.397
1.39807
1.3991
1.39928
1.40068
1.40192
1.40316
1.40062
1.40215
1.40351
1.40483
1.40023
1.40187
1.40328
1.40448
1.3867
1.38738
1.38744
1.38685
1.38939
1.38953
1.38964
1.38973
1.38949
1.38974
1.38995
1.39011
1.38927
1.38965
1.38998
1.39026
1.39
1.39053
1.39099
1.3914
1.39158
1.39225
1.39285
1.39341
1.39256
1.39338
1.39411
1.39482
1.39553
1.39648
1.39734
1.39818
1.39633
1.39738
1.39832
1.39922
1.39575
1.39687
1.39785
1.39867
1.38562
1.38629
1.38632
1.38571
1.38819
1.38827
1.38833
1.38839
1.38835
1.38851
1.38863
1.38873
1.38795
1.38819
1.3884
1.38859
1.38847
1.38882
1.38912
1.3894
1.38968
1.39013
1.39054
1.39091
1.39024
1.39079
1.39129
1.39177
1.39277
1.39341
1.394
1.39457
1.39304
1.39375
1.3944
1.39502
1.39233
1.3931
1.39377
1.39434
1.3849
1.38556
1.38558
1.38494
1.38734
1.38738
1.38742
1.38746
1.38759
1.38769
1.38777
1.38783
1.38704
1.3872
1.38734
1.38746
1.38743
1.38765
1.38786
1.38804
1.38834
1.38864
1.38891
1.38916
1.38855
1.38892
1.38926
1.38959
1.39073
1.39117
1.39157
1.39196
1.39055
1.39103
1.39148
1.3919
1.3898
1.39032
1.39078
1.39117
1.38442
1.3851
1.38511
1.38445
1.38672
1.38673
1.38676
1.38679
1.38709
1.38715
1.3872
1.38724
1.38643
1.38653
1.38661
1.38669
1.38673
1.38688
1.38701
1.38713
1.3874
1.3876
1.38778
1.38795
1.38733
1.38758
1.38781
1.38802
1.38925
1.38955
1.38982
1.39008
1.38871
1.38903
1.38934
1.38962
1.38799
1.38834
1.38865
1.38892
1.38415
1.38483
1.38484
1.38417
1.38624
1.38625
1.38626
1.38628
1.38677
1.38681
1.38684
1.38686
1.386
1.38606
1.38612
1.38617
1.38628
1.38638
1.38646
1.38654
1.38677
1.38689
1.38701
1.38712
1.38647
1.38664
1.38679
1.38693
1.38823
1.38842
1.3886
1.38878
1.38736
1.38758
1.38778
1.38797
1.38676
1.387
1.38721
1.38739
1.38405
1.38473
1.38473
1.38406
1.38586
1.38586
1.38587
1.38589
1.38658
1.3866
1.38662
1.38663
1.3857
1.38574
1.38577
1.3858
1.386
1.38606
1.38611
1.38616
1.38634
1.38642
1.3865
1.38657
1.38589
1.386
1.38609
1.38619
1.38755
1.38768
1.3878
1.38791
1.3864
1.38654
1.38668
1.3868
1.386
1.38616
1.38629
1.38641
1.38409
1.38477
1.38477
1.3841
1.38555
1.38554
1.38554
1.38556
1.38648
1.3865
1.38651
1.38651
1.38548
1.3855
1.38552
1.38554
1.38583
1.38586
1.3859
1.38592
1.38605
1.3861
1.38615
1.3862
1.3855
1.38557
1.38563
1.38569
1.38714
1.38722
1.3873
1.38737
1.38571
1.3858
1.38589
1.38597
1.38562
1.38572
1.38581
1.38589
1.38432
1.38496
1.38496
1.38432
1.38525
1.38524
1.38524
1.38526
1.38646
1.38647
1.38647
1.38647
1.3853
1.38531
1.38532
1.38534
1.38571
1.38573
1.38575
1.38577
1.38584
1.38588
1.38591
1.38593
1.38525
1.38529
1.38533
1.38537
1.38691
1.38696
1.38701
1.38706
1.3852
1.38526
1.38531
1.38536
1.38557
1.38563
1.38569
1.38574
1.38481
1.38541
1.38541
1.38481
1.38493
1.38492
1.38492
1.38494
1.38647
1.38648
1.38649
1.38648
1.38516
1.38516
1.38517
1.38518
1.3856
1.38562
1.38563
1.38564
1.38566
1.38568
1.3857
1.38572
1.38509
1.38511
1.38513
1.38516
1.38676
1.3868
1.38683
1.38685
1.38476
1.38479
1.38483
1.38486
1.3859
1.38594
1.38597
1.386
1.38585
1.38635
1.38635
1.38585
1.38449
1.38447
1.38447
1.38449
1.38646
1.38647
1.38647
1.38647
1.38504
1.38504
1.38505
1.38506
1.38549
1.3855
1.38551
1.38551
1.38548
1.38549
1.3855
1.38551
1.38496
1.38497
1.38498
1.385
1.38654
1.38656
1.38658
1.3866
1.38424
1.38426
1.38428
1.3843
1.38677
1.38679
1.38682
1.38684
1.3878
1.38815
1.38815
1.3878
1.38372
1.3837
1.3837
1.38373
1.38628
1.38629
1.38629
1.38628
1.38499
1.38498
1.38499
1.385
1.38537
1.38538
1.38538
1.38538
1.38531
1.38532
1.38532
1.38533
1.38487
1.38487
1.38488
1.3849
1.38606
1.38609
1.3861
1.3861
1.3834
1.38341
1.38343
1.38345
1.38838
1.38839
1.38841
1.38842
1.39027
1.3904
1.3904
1.39027
1.3827
1.38264
1.38264
1.3827
1.38592
1.38594
1.38594
1.38593
1.38503
1.38503
1.38503
1.38504
1.3853
1.3853
1.38531
1.38531
1.38522
1.38523
1.38524
1.38524
1.38488
1.38489
1.38489
1.38491
1.38548
1.38552
1.38553
1.38552
1.38232
1.38228
1.3823
1.38236
1.39018
1.39021
1.39022
1.39023
1.45341
1.42596
1.40622
1.38922
1.3773
1.36886
1.3625
1.35746
1.35348
1.35031
1.46702
1.43156
1.4066
1.38933
1.37713
1.36807
1.36092
1.35506
1.35019
1.34585
1.47389
1.43524
1.4071
1.39009
1.3774
1.36768
1.35974
1.35308
1.34738
1.34233
1.48158
1.44078
1.41047
1.39325
1.37953
1.36891
1.36003
1.35245
1.34579
1.34007
1.49101
1.44683
1.41522
1.3966
1.38179
1.3702
1.36047
1.3521
1.34462
1.33855
1.5013
1.45424
1.42117
1.40085
1.38503
1.37249
1.36202
1.35299
1.34488
1.33834
1.51097
1.45908
1.42526
1.40293
1.38629
1.37284
1.36171
1.35212
1.3435
1.33675
1.52266
1.46393
1.43074
1.40623
1.38916
1.37492
1.36335
1.3533
1.34439
1.3372
1.52882
1.46298
1.43141
1.40521
1.38814
1.37335
1.36147
1.35107
1.34204
1.33448
1.53406
1.46199
1.43222
1.40435
1.38692
1.37141
1.35903
1.34818
1.33893
1.33112
1.44034
1.42374
1.4108
1.40028
1.39149
1.38414
1.37804
1.37305
1.36909
1.36602
1.44946
1.42932
1.41338
1.40033
1.38971
1.38109
1.37403
1.36819
1.36342
1.3593
1.45643
1.43393
1.41481
1.40038
1.38865
1.37918
1.37136
1.3648
1.35927
1.35439
1.46321
1.4394
1.41822
1.40267
1.38996
1.37966
1.37097
1.36351
1.357
1.3513
1.46955
1.44606
1.42276
1.40596
1.39225
1.38103
1.37147
1.36318
1.35577
1.34953
1.47833
1.45401
1.42892
1.41066
1.3959
1.38373
1.37336
1.36433
1.35617
1.3493
1.48747
1.46023
1.43381
1.41376
1.39801
1.38487
1.37372
1.36402
1.35517
1.34792
1.49944
1.46684
1.44019
1.4182
1.40174
1.38774
1.37599
1.3657
1.35641
1.34859
1.50747
1.46811
1.44214
1.41868
1.40188
1.38719
1.37494
1.36415
1.35457
1.34631
1.51465
1.4679
1.44296
1.41811
1.40076
1.38543
1.37273
1.36156
1.35182
1.34336
1.42831
1.41979
1.41111
1.40328
1.39648
1.3907
1.38588
1.38194
1.37888
1.37663
1.43473
1.4236
1.41228
1.40229
1.39385
1.38682
1.38098
1.37613
1.37223
1.36898
1.44026
1.42696
1.4131
1.40145
1.39175
1.38372
1.37701
1.3714
1.36673
1.36272
1.44589
1.43125
1.41557
1.40276
1.39203
1.38306
1.37543
1.36888
1.36327
1.3584
1.45218
1.43672
1.41939
1.40537
1.39356
1.38363
1.37509
1.36768
1.36115
1.35566
1.46052
1.4438
1.42499
1.40952
1.3966
1.38567
1.37628
1.36809
1.36079
1.35461
1.46875
1.44977
1.42963
1.41239
1.39837
1.38643
1.37622
1.36733
1.35932
1.35268
1.47989
1.45674
1.43596
1.41682
1.40194
1.38911
1.37825
1.36874
1.36024
1.35302
1.48748
1.45919
1.43864
1.41807
1.40269
1.3891
1.37764
1.36758
1.35868
1.35102
1.49348
1.45974
1.4396
1.41768
1.40169
1.38747
1.37558
1.36516
1.35608
1.34821
1.41309
1.40901
1.40457
1.40025
1.3962
1.39252
1.3893
1.3866
1.38447
1.38293
1.41688
1.41203
1.40611
1.40016
1.3946
1.3896
1.38524
1.38152
1.37851
1.37604
1.42117
1.41509
1.40733
1.39973
1.39276
1.3866
1.38126
1.3767
1.37291
1.36966
1.42605
1.41907
1.40989
1.40097
1.39281
1.38559
1.37925
1.37372
1.36899
1.36488
1.43193
1.42414
1.41365
1.40343
1.39412
1.38585
1.37855
1.37213
1.36647
1.36169
1.43979
1.43075
1.41902
1.40737
1.39689
1.38759
1.37939
1.37214
1.36569
1.36018
1.44757
1.43649
1.42353
1.4102
1.39855
1.3882
1.37913
1.37114
1.36395
1.35794
1.45781
1.44356
1.42977
1.41464
1.40203
1.39076
1.38098
1.37233
1.36461
1.358
1.46475
1.44681
1.43274
1.41616
1.40283
1.39072
1.38029
1.37109
1.36294
1.35593
1.46967
1.44778
1.43345
1.41556
1.40163
1.38895
1.37814
1.36863
1.36032
1.35311
1.4042
1.40176
1.39933
1.39695
1.39461
1.39239
1.39039
1.38867
1.38731
1.38631
1.40612
1.40393
1.40083
1.39737
1.39386
1.39051
1.38747
1.38481
1.38265
1.38087
1.40895
1.40611
1.40185
1.3971
1.39238
1.38795
1.38395
1.38046
1.37752
1.37502
1.41271
1.40938
1.40415
1.39824
1.39238
1.38688
1.38188
1.37742
1.37358
1.37024
1.41763
1.41382
1.40765
1.40056
1.39358
1.38703
1.38104
1.37567
1.37092
1.3669
1.4243
1.41975
1.41263
1.40428
1.39615
1.38857
1.38166
1.37543
1.36989
1.36512
1.4308
1.42496
1.41685
1.40701
1.39773
1.38909
1.38129
1.37429
1.36799
1.36269
1.43967
1.43174
1.42283
1.41142
1.40113
1.39155
1.38299
1.37532
1.36847
1.36257
1.44565
1.43528
1.42587
1.41308
1.40193
1.39148
1.38224
1.37403
1.36674
1.36047
1.44936
1.43624
1.42635
1.41239
1.40065
1.38968
1.3801
1.3716
1.36413
1.35767
1.39824
1.39654
1.39517
1.39389
1.39262
1.39137
1.3902
1.38919
1.38836
1.38775
1.39916
1.39818
1.39659
1.39464
1.39252
1.39039
1.38839
1.38661
1.38514
1.38392
1.40083
1.39956
1.3973
1.39447
1.39143
1.3884
1.38556
1.383
1.38082
1.37896
1.40346
1.40202
1.39914
1.39541
1.3914
1.3874
1.38362
1.38016
1.37716
1.37453
1.4073
1.4057
1.40219
1.39751
1.3925
1.38752
1.38279
1.37845
1.37459
1.3713
1.41272
1.41081
1.40663
1.40091
1.39487
1.3889
1.38327
1.3781
1.37346
1.36945
1.41788
1.41531
1.41037
1.40344
1.39632
1.38935
1.38284
1.37689
1.3715
1.36696
1.42529
1.42153
1.41592
1.4077
1.39961
1.39172
1.38444
1.37782
1.37188
1.36675
1.4301
1.4249
1.41876
1.4093
1.40031
1.39158
1.38364
1.3765
1.37012
1.36464
1.43251
1.42557
1.41898
1.40856
1.39902
1.38981
1.38155
1.37412
1.36756
1.3619
1.39441
1.39303
1.39218
1.39149
1.39081
1.39013
1.38948
1.3889
1.38843
1.38806
1.39473
1.39428
1.39345
1.39235
1.3911
1.38981
1.38855
1.38741
1.38647
1.38566
1.39567
1.39513
1.39394
1.39228
1.39037
1.38836
1.38641
1.38461
1.38306
1.38173
1.39732
1.39678
1.39522
1.39293
1.39026
1.38745
1.38468
1.3821
1.37984
1.37784
1.40017
1.39967
1.39771
1.39471
1.39122
1.38755
1.38393
1.38054
1.3775
1.37491
1.40442
1.40388
1.40148
1.3977
1.39334
1.38879
1.38435
1.38017
1.37641
1.37314
1.40832
1.40754
1.40461
1.3999
1.3946
1.38915
1.38387
1.37895
1.37448
1.37069
1.41438
1.41305
1.40961
1.40389
1.39771
1.39141
1.3854
1.37983
1.37482
1.37047
1.418
1.41594
1.41201
1.40526
1.39824
1.39117
1.38455
1.3785
1.37305
1.36838
1.41931
1.41627
1.41198
1.40448
1.39699
1.38949
1.38255
1.37622
1.37059
1.36573
1.39185
1.39063
1.39004
1.38966
1.3893
1.38894
1.38859
1.38828
1.38801
1.3878
1.39181
1.3916
1.39115
1.39055
1.38984
1.38907
1.38832
1.38762
1.38704
1.38652
1.39239
1.39217
1.39153
1.39056
1.38937
1.38808
1.38678
1.38557
1.3845
1.38359
1.3933
1.39315
1.39231
1.39091
1.38916
1.38723
1.38528
1.38342
1.38177
1.3803
1.39534
1.39531
1.39424
1.39235
1.38995
1.38732
1.38464
1.38208
1.37976
1.37778
1.39857
1.39866
1.39733
1.39487
1.39179
1.38841
1.385
1.38174
1.37878
1.37619
1.40137
1.40146
1.39979
1.39665
1.39281
1.38865
1.38449
1.38055
1.37693
1.37387
1.40626
1.40619
1.40417
1.40028
1.39568
1.39078
1.38596
1.38142
1.37731
1.37372
1.40881
1.40841
1.40598
1.4013
1.396
1.39044
1.38507
1.38008
1.37555
1.37167
1.40929
1.40842
1.40573
1.4005
1.39479
1.38885
1.38319
1.37794
1.37322
1.36916
1.3901
1.38895
1.38851
1.38829
1.38811
1.38792
1.38773
1.38756
1.38742
1.38729
1.38984
1.38974
1.38951
1.38918
1.38879
1.38835
1.38791
1.3875
1.38715
1.38682
1.39025
1.39017
1.38982
1.38925
1.38852
1.38771
1.38688
1.38608
1.38538
1.38477
1.39065
1.39064
1.39018
1.38933
1.3882
1.38691
1.38557
1.38428
1.38312
1.38207
1.39208
1.39222
1.39163
1.39043
1.38882
1.38698
1.38505
1.38318
1.38147
1.38001
1.39451
1.39481
1.39408
1.39249
1.39035
1.38791
1.38537
1.3829
1.38064
1.37865
1.39641
1.39682
1.3959
1.39383
1.39109
1.388
1.38482
1.38175
1.37892
1.37651
1.40034
1.4008
1.39964
1.39705
1.39371
1.39
1.38625
1.38265
1.37937
1.37649
1.40193
1.40229
1.40084
1.39767
1.39378
1.38953
1.3853
1.3813
1.37763
1.37449
1.40185
1.40203
1.40041
1.39685
1.39262
1.38805
1.38356
1.37932
1.37548