/*--------------------------------*- C++ -*----------------------------------*\
| =========                 |                                                 |
| \\      /  F ield         | foam-extend: Open Source CFD                    |
|  \\    /   O peration     | Version:     4.0                                |
|   \\  /    A nd           | Web:         http://www.foam-extend.org         |
|    \\/     M anipulation  |                                                 |
\*---------------------------------------------------------------------------*/
FoamFile
{
    version     2.0;
    format      ascii;
    class       volVectorField;
    location    "1800";
    object      Urel;
}
// * * * * * * * * * * * * * * * * * * * * * * * * * * * * * * * * * * * * * //

dimensions      [0 1 -1 0 0 0 0];

internalField   nonuniform List<vector> 
34480
(
(212.054 -5.13298 -19.9605)
(213.665 -5.92922 -24.5736)
(215.081 -6.48838 -29.8628)
(216.314 -6.80723 -36.1116)
(217.338 -6.87929 -43.7181)
(217.921 -6.68919 -53.166)
(217.198 -6.20718 -64.8065)
(212.855 -5.4992 -79.1441)
(199.997 -4.89266 -98.7166)
(167.894 -4.34899 -119.459)
(214.177 -5.40675 -26.9618)
(216.093 -5.08718 -31.0562)
(217.78 -4.73641 -35.5424)
(219.229 -4.32995 -40.6938)
(220.521 -3.87903 -46.9806)
(221.626 -3.41307 -55.0995)
(222.025 -2.93834 -65.8443)
(219.949 -2.47096 -80.0607)
(210.843 -2.33407 -101.469)
(180.411 -2.76067 -129.992)
(215.368 -9.94136 -32.0081)
(217.552 -8.92599 -35.8772)
(219.556 -7.94785 -40.0276)
(221.383 -6.98361 -44.7269)
(223.109 -6.03277 -50.4114)
(224.811 -5.13857 -57.8891)
(226.178 -4.32562 -68.249)
(225.724 -3.58605 -82.6526)
(219.341 -3.21664 -105.54)
(190.537 -3.5448 -140.517)
(215.651 -13.6498 -37.5396)
(218.311 -12.1702 -41.4649)
(220.825 -10.7435 -45.6515)
(223.203 -9.33868 -50.3326)
(225.469 -7.96278 -55.8989)
(227.713 -6.66144 -63.1488)
(229.758 -5.47189 -73.322)
(230.397 -4.39299 -87.9173)
(225.947 -3.73949 -111.917)
(198.198 -3.93837 -151.688)
(215.845 -18.3373 -43.0046)
(218.931 -16.582 -47.0472)
(221.887 -14.88 -51.3966)
(224.742 -13.1762 -56.1985)
(227.496 -11.5017 -61.845)
(230.221 -9.9044 -69.0818)
(232.814 -8.43677 -79.228)
(234.306 -7.10527 -94.1104)
(231.349 -6.25019 -119.173)
(204.198 -6.4169 -162.757)
(215.677 -22.051 -49.5244)
(219.089 -20.0011 -53.6647)
(222.37 -18.0057 -58.1285)
(225.578 -15.9791 -63.0161)
(228.707 -13.9584 -68.7304)
(231.813 -11.9822 -75.9644)
(234.83 -10.1079 -86.0704)
(236.992 -8.35963 -101.186)
(235.194 -7.14646 -127.224)
(208.247 -7.17896 -174.025)
(215.663 -27.0715 -55.8441)
(219.288 -24.8266 -60.1146)
(222.758 -22.6078 -64.7463)
(226.167 -20.3177 -69.7668)
(229.519 -18.011 -75.5917)
(232.869 -15.7145 -82.857)
(236.197 -13.4709 -92.922)
(238.95 -11.2767 -108.221)
(238.244 -9.50912 -135.139)
(211.617 -8.95365 -184.704)
(215.409 -30.8338 -63.4518)
(219.12 -28.3136 -67.763)
(222.647 -25.7805 -72.429)
(226.11 -23.1436 -77.4692)
(229.514 -20.4523 -83.277)
(232.925 -17.7113 -90.4259)
(236.387 -14.9198 -100.232)
(239.614 -12.0388 -115.352)
(240.054 -9.43269 -142.692)
(214.186 -7.96092 -194.395)
(215.431 -36.7516 -70.3429)
(219.152 -33.9984 -74.6943)
(222.68 -31.1415 -79.443)
(226.16 -28.1415 -84.5926)
(229.593 -25.0693 -90.5399)
(233.023 -21.9188 -97.7678)
(236.517 -18.636 -107.484)
(240.062 -15.0829 -122.383)
(241.58 -11.3675 -150.014)
(216.573 -8.2495 -203.149)
(214.354 -41.1585 -78.2948)
(218.086 -38.0941 -82.4982)
(221.634 -34.9126 -87.1239)
(225.118 -31.5635 -92.1824)
(228.492 -28.0596 -98.0484)
(231.77 -24.3645 -105.173)
(235.05 -20.3833 -114.648)
(238.634 -15.9212 -128.872)
(241.361 -11.0203 -155.971)
(218.248 -6.23683 -209.361)
(204.241 6.14061 1.56361)
(205.17 4.5968 -1.86568)
(205.598 3.24306 -5.77212)
(205.41 2.10534 -10.2207)
(204.419 1.18203 -15.3632)
(202.296 0.483646 -21.3247)
(198.535 0.00794872 -28.1548)
(192.482 -0.272243 -35.6641)
(182.687 -0.419431 -42.8828)
(164.023 -0.560009 -45.3967)
(208.222 9.62767 1.59312)
(209.601 8.6807 -1.42165)
(210.558 7.71373 -4.82338)
(210.942 6.78316 -8.66804)
(210.612 5.89086 -13.1539)
(209.285 5.01961 -18.5713)
(206.35 4.14924 -25.3088)
(200.884 3.2729 -33.6309)
(191.436 2.35765 -43.4683)
(171.582 1.28088 -50.4632)
(210.548 9.17021 3.67288)
(212.278 8.46121 0.912152)
(213.656 7.67424 -2.17343)
(214.583 6.83585 -5.75173)
(214.924 5.97409 -9.98628)
(214.453 5.06756 -15.2626)
(212.582 4.08915 -22.1848)
(208.169 3.01996 -31.421)
(199.55 1.82751 -43.7668)
(178.805 0.422774 -55.8074)
(211.569 9.50883 5.42214)
(213.788 8.8656 2.74996)
(215.712 8.12257 -0.258364)
(217.267 7.29999 -3.80572)
(218.291 6.42474 -8.05181)
(218.569 5.47958 -13.3958)
(217.552 4.43804 -20.548)
(214.033 3.27153 -30.5086)
(206.197 1.91446 -44.9242)
(184.718 0.278364 -61.8713)
(212.245 8.86112 7.33853)
(214.901 8.11717 4.71892)
(217.301 7.26516 1.68779)
(219.39 6.34605 -1.89597)
(221.009 5.36199 -6.24886)
(221.935 4.29817 -11.7406)
(221.65 3.11734 -19.1494)
(218.943 1.78811 -29.7655)
(211.868 0.231667 -45.9925)
(189.744 -1.61097 -67.6712)
(212.424 9.22407 8.23802)
(215.431 8.39972 5.70791)
(218.199 7.45202 2.72189)
(220.697 6.45425 -0.824539)
(222.788 5.4002 -5.203)
(224.24 4.28971 -10.7591)
(224.565 3.08497 -18.3124)
(222.581 1.75065 -29.4024)
(216.201 0.164809 -47.0543)
(193.373 -1.76498 -72.9451)
(212.654 8.24564 9.3885)
(215.905 7.24513 6.92361)
(218.915 6.1403 3.9371)
(221.683 5.02051 0.393546)
(224.099 3.8587 -4.02502)
(225.944 2.66561 -9.63974)
(226.774 1.40601 -17.2936)
(225.488 0.0615879 -28.7622)
(219.88 -1.45713 -47.6489)
(196.556 -3.2777 -77.4982)
(212.564 8.55018 9.26385)
(215.943 7.44492 6.96183)
(219.073 6.26251 4.12501)
(221.981 5.09374 0.718745)
(224.579 3.91313 -3.58026)
(226.673 2.74561 -9.0738)
(227.881 1.58524 -16.5971)
(227.244 0.443792 -28.1009)
(222.567 -0.767485 -47.7829)
(199.238 -2.3908 -81.1452)
(212.608 6.69753 9.84066)
(216.018 5.4218 7.71446)
(219.191 4.15503 5.00312)
(222.183 2.94496 1.69058)
(224.936 1.74722 -2.59292)
(227.26 0.586149 -8.12546)
(228.795 -0.514652 -15.6962)
(228.724 -1.48122 -27.219)
(225.026 -2.19608 -47.6221)
(201.886 -3.22168 -84.0118)
(211.641 6.48555 9.27505)
(215.063 5.09146 7.44204)
(218.278 3.73969 5.04708)
(221.316 2.45032 2.02722)
(224.1 1.23681 -1.9658)
(226.462 0.145127 -7.24707)
(228.116 -0.756451 -14.6288)
(228.421 -1.31605 -25.7584)
(225.865 -1.36202 -46.3478)
(203.703 -1.22855 -84.6878)
(198.457 4.90216 0.457908)
(198.95 3.72588 -2.21558)
(198.919 2.70148 -5.1494)
(198.284 1.84148 -8.35814)
(196.913 1.16263 -11.7978)
(194.629 0.672996 -15.3674)
(191.212 0.357516 -18.8676)
(186.427 0.162724 -21.9731)
(179.921 0.00930867 -23.9438)
(171.016 -0.209348 -23.0043)
(203.309 8.23509 0.416985)
(204.237 7.45897 -2.137)
(204.684 6.65141 -4.9597)
(204.522 5.86031 -8.06263)
(203.578 5.09653 -11.4833)
(201.591 4.35751 -15.2087)
(198.18 3.63246 -19.1656)
(192.836 2.90552 -23.1319)
(184.858 2.16136 -26.4363)
(173.246 1.36397 -27.079)
(206.331 7.99532 2.3338)
(207.64 7.37055 -0.146317)
(208.517 6.66136 -2.90745)
(208.843 5.90206 -6.02531)
(208.454 5.11429 -9.56524)
(207.058 4.28685 -13.6319)
(204.145 3.4062 -18.2995)
(198.947 2.45854 -23.4891)
(190.369 1.43162 -28.6697)
(176.445 0.2998 -31.7264)
(207.932 8.44625 3.9515)
(209.714 7.86653 1.47864)
(211.111 7.18365 -1.29847)
(212.016 6.41717 -4.53424)
(212.235 5.59755 -8.28346)
(211.456 4.70945 -12.7257)
(209.083 3.73967 -18.0455)
(204.126 2.67213 -24.3413)
(195.135 1.48471 -31.325)
(179.096 0.152726 -37.1158)
(209.042 7.85919 5.84002)
(211.254 7.18103 3.3654)
(213.117 6.39743 0.510072)
(214.542 5.53747 -2.8621)
(215.317 4.61513 -6.84997)
(215.121 3.61199 -11.6609)
(213.3 2.50447 -17.5797)
(208.686 1.27085 -24.9097)
(199.483 -0.113184 -33.6504)
(181.593 -1.63859 -42.4724)
(209.559 8.30665 6.75934)
(212.129 7.55584 4.34111)
(214.373 6.68657 1.49525)
(216.217 5.75336 -1.89928)
(217.46 4.7646 -6.00395)
(217.768 3.71319 -11.0397)
(216.456 2.57284 -17.3795)
(212.228 1.31525 -25.5437)
(202.958 -0.11248 -35.8301)
(183.47 -1.72667 -47.7104)
(210.041 7.35968 7.99529)
(212.873 6.4461 5.62025)
(215.386 5.43583 2.74903)
(217.53 4.39676 -0.682603)
(219.127 3.31794 -4.89616)
(219.847 2.20002 -10.1189)
(219.002 1.01599 -16.8009)
(215.23 -0.258345 -25.698)
(206.092 -1.65772 -37.4486)
(185.32 -3.20721 -52.5004)
(210.143 7.72655 7.96661)
(213.128 6.71533 5.742)
(215.799 5.63417 3.01086)
(218.131 4.55567 -0.299541)
(219.972 3.47095 -4.43511)
(221.005 2.39042 -9.63346)
(220.574 1.30552 -16.3959)
(217.316 0.209958 -25.6967)
(208.553 -0.933517 -38.5816)
(186.902 -2.37438 -56.5972)
(210.3 5.9075 8.62699)
(213.331 4.7213 6.55561)
(216.063 3.54804 3.93769)
(218.5 2.42448 0.725689)
(220.527 1.33026 -3.38779)
(221.851 0.278658 -8.66024)
(221.833 -0.710022 -15.6217)
(219.133 -1.60245 -25.306)
(210.888 -2.2918 -39.2931)
(188.454 -3.295 -59.8494)
(209.508 5.86804 8.11283)
(212.549 4.54782 6.28765)
(215.328 3.28957 3.96258)
(217.813 2.08598 1.02643)
(219.883 0.970982 -2.80328)
(221.268 -0.0150338 -7.80723)
(221.47 -0.804009 -14.5954)
(219.274 -1.28868 -24.1808)
(211.79 -1.30433 -38.8476)
(189.005 -1.19884 -60.8214)
(194.355 3.82512 -0.094205)
(194.587 3.00738 -1.9737)
(194.378 2.29053 -3.97362)
(193.683 1.68708 -6.06674)
(192.446 1.21224 -8.16377)
(190.609 0.868227 -10.1415)
(188.148 0.63967 -11.8149)
(185.127 0.476445 -12.9407)
(181.681 0.29852 -13.1101)
(177.758 0.0190895 -11.7323)
(199.327 6.83866 -0.29398)
(199.906 6.25796 -2.29628)
(200.025 5.63451 -4.43698)
(199.594 5.00451 -6.7194)
(198.497 4.38769 -9.09708)
(196.59 3.78802 -11.4596)
(193.704 3.19932 -13.622)
(189.702 2.6099 -15.2857)
(184.495 2.01502 -15.8823)
(178.225 1.42574 -14.6606)
(202.655 6.78859 1.32926)
(203.595 6.27175 -0.770942)
(204.083 5.66656 -3.07718)
(204.012 5.01141 -5.59919)
(203.245 4.32444 -8.33712)
(201.571 3.60352 -11.2465)
(198.702 2.84144 -14.1933)
(194.299 2.02887 -16.868)
(188.033 1.16085 -18.5529)
(179.779 0.251095 -18.1472)
(204.628 7.36235 2.71376)
(206 6.86523 0.529923)
(206.942 6.26102 -1.90246)
(207.341 5.57559 -4.66669)
(207.016 4.83545 -7.76315)
(205.701 4.0339 -11.213)
(202.988 3.16692 -14.9348)
(198.329 2.22557 -18.6502)
(191.119 1.19947 -21.5519)
(180.846 0.10191 -22.3269)
(206.067 6.84024 4.49451)
(207.844 6.24048 2.24233)
(209.214 5.53695 -0.336937)
(210.069 4.75533 -3.34546)
(210.194 3.91405 -6.79551)
(209.284 2.99724 -10.7648)
(206.825 1.99493 -15.2369)
(202.064 0.894018 -20.0116)
(194.089 -0.318027 -24.2482)
(181.911 -1.60306 -26.6185)
(206.865 7.37201 5.37114)
(208.994 6.70366 3.12934)
(210.731 5.92173 0.51147)
(211.978 5.06916 -2.59623)
(212.51 4.16325 -6.25546)
(211.988 3.19386 -10.5795)
(209.815 2.14817 -15.6267)
(205.053 1.00791 -21.3095)
(196.456 -0.258907 -26.8004)
(182.51 -1.63735 -30.9329)
(207.57 6.45778 6.64608)
(209.967 5.63499 4.41395)
(211.98 4.72315 1.73372)
(213.528 3.77387 -1.46831)
(214.393 2.78871 -5.31496)
(214.22 1.76157 -9.94508)
(212.355 0.677115 -15.4981)
(207.709 -0.483228 -22.038)
(198.694 -1.74621 -28.82)
(183.196 -3.09645 -34.9937)
(207.847 6.90389 6.67771)
(210.415 5.98935 4.57408)
(212.607 5.01005 2.0117)
(214.365 4.02394 -1.10244)
(215.486 3.03669 -4.92623)
(215.615 2.0491 -9.62859)
(214.075 1.05639 -15.4207)
(209.673 0.0485859 -22.5411)
(200.499 -1.00755 -30.4218)
(183.748 -2.29626 -38.6433)
(208.098 5.1315 7.44567)
(210.73 4.04337 5.4685)
(213 2.96669 2.99273)
(214.872 1.93042 -0.0407587)
(216.18 0.933632 -3.85368)
(216.588 -0.0162061 -8.65691)
(215.419 -0.894409 -14.7411)
(211.4 -1.68579 -22.4583)
(202.301 -2.32872 -31.5339)
(184.373 -3.25708 -41.6475)
(207.425 5.26359 6.98455)
(210.076 4.03889 5.21934)
(212.405 2.88488 3.01032)
(214.342 1.77892 0.226461)
(215.722 0.771204 -3.3287)
(216.222 -0.105111 -7.88058)
(215.255 -0.777792 -13.808)
(211.614 -1.16517 -21.5922)
(202.926 -1.14101 -31.5493)
(184.116 -1.0516 -42.6995)
(191.828 2.90896 -0.316378)
(191.941 2.37754 -1.54281)
(191.734 1.90257 -2.81942)
(191.195 1.49751 -4.1031)
(190.309 1.17278 -5.3167)
(189.076 0.928656 -6.36802)
(187.536 0.754462 -7.13631)
(185.822 0.610235 -7.50502)
(184.219 0.428108 -7.30308)
(182.903 0.126741 -6.33958)
(196.362 5.53362 -0.65714)
(196.716 5.13683 -2.12675)
(196.689 4.68688 -3.64343)
(196.23 4.21274 -5.20482)
(195.281 3.73777 -6.74269)
(193.784 3.26968 -8.14739)
(191.694 2.80833 -9.26041)
(189.024 2.34818 -9.87344)
(185.884 1.89221 -9.68136)
(182.603 1.46449 -8.45848)
(199.612 5.61227 0.646563)
(200.271 5.20854 -1.03913)
(200.517 4.71716 -2.85493)
(200.274 4.17555 -4.77622)
(199.449 3.60112 -6.76487)
(197.925 2.99752 -8.72305)
(195.575 2.36212 -10.484)
(192.306 1.69078 -11.7734)
(188.135 0.985193 -12.1165)
(183.423 0.272778 -11.0368)
(201.717 6.29773 1.74926)
(202.749 5.8927 -0.0945086)
(203.359 5.3807 -2.12042)
(203.448 4.79062 -4.35799)
(202.883 4.14711 -6.76929)
(201.479 3.45076 -9.29)
(199.007 2.70286 -11.7525)
(195.232 1.90071 -13.8349)
(190.018 1.0421 -14.8825)
(183.704 0.158495 -14.1815)
(203.336 5.83568 3.36691)
(204.734 5.32326 1.3936)
(205.711 4.70906 -0.845695)
(206.161 4.02065 -3.3999)
(205.909 3.27481 -6.23661)
(204.715 2.46332 -9.3324)
(202.244 1.58404 -12.5387)
(198.095 0.630451 -15.5229)
(191.923 -0.403896 -17.4632)
(183.974 -1.46873 -17.4875)
(204.32 6.44693 4.15066)
(206.051 5.86899 2.13973)
(207.361 5.18171 -0.185248)
(208.148 4.42288 -2.90946)
(208.205 3.61353 -6.0216)
(207.25 2.74558 -9.54129)
(204.85 1.81511 -13.3564)
(200.43 0.810229 -17.1585)
(193.391 -0.291616 -19.988)
(183.827 -1.45976 -20.9005)
(205.185 5.56569 5.42117)
(207.181 4.83971 3.38162)
(208.755 4.03023 0.953367)
(209.82 3.17942 -1.92427)
(210.154 2.2967 -5.29122)
(209.444 1.3751 -9.19863)
(207.174 0.40751 -13.5911)
(202.608 -0.620616 -18.2246)
(194.854 -1.73404 -22.0545)
(183.776 -2.8976 -24.1569)
(205.6 6.09913 5.47715)
(207.776 5.2883 3.53717)
(209.537 4.41514 1.19625)
(210.809 3.52869 -1.636)
(211.376 2.64418 -5.03594)
(210.907 1.75997 -9.09308)
(208.829 0.874123 -13.8149)
(204.266 -0.027463 -19.0602)
(196.014 -0.979993 -23.7809)
(183.605 -2.10639 -27.1492)
(205.945 4.37233 6.34026)
(208.2 3.39268 4.49559)
(210.049 2.42013 2.2052)
(211.438 1.48122 -0.580998)
(212.172 0.587196 -4.00095)
(211.93 -0.255225 -8.18989)
(210.112 -1.02274 -13.251)
(205.725 -1.71384 -19.1514)
(197.216 -2.29634 -24.9483)
(183.546 -3.10557 -29.6339)
(205.371 4.67603 5.90597)
(207.654 3.56447 4.24576)
(209.572 2.52464 2.19341)
(211.033 1.52958 -0.376214)
(211.851 0.638457 -3.58135)
(211.703 -0.119676 -7.57315)
(210.034 -0.676261 -12.5284)
(205.842 -0.968885 -18.537)
(197.415 -0.914089 -25.1199)
(182.725 -0.833478 -30.4981)
(190.467 2.15513 -0.356257)
(190.527 1.82796 -1.10985)
(190.377 1.5268 -1.88397)
(190.016 1.26429 -2.6365)
(189.45 1.04623 -3.3161)
(188.695 0.872697 -3.8656)
(187.8 0.73834 -4.21389)
(186.892 0.613564 -4.31893)
(186.264 0.443695 -4.10285)
(186.205 0.141574 -3.53135)
(194.301 4.38144 -0.790054)
(194.515 4.13733 -1.81007)
(194.442 3.83449 -2.82496)
(194.058 3.49589 -3.83232)
(193.343 3.14465 -4.77202)
(192.286 2.79049 -5.56431)
(190.897 2.43845 -6.10548)
(189.229 2.0889 -6.2778)
(187.398 1.74988 -5.93468)
(185.638 1.44444 -5.04338)
(197.22 4.51511 0.223756)
(197.67 4.21727 -1.0637)
(197.778 3.83671 -2.42129)
(197.495 3.40626 -3.81458)
(196.77 2.94257 -5.19342)
(195.552 2.45232 -6.46014)
(193.807 1.93672 -7.4775)
(191.553 1.39654 -8.05999)
(188.905 0.839035 -7.94962)
(186.184 0.291721 -6.97156)
(199.265 5.28718 1.03705)
(200.021 4.97511 -0.453283)
(200.398 4.56053 -2.06271)
(200.322 4.07156 -3.79097)
(199.705 3.53159 -5.58179)
(198.441 2.94593 -7.34296)
(196.43 2.31921 -8.90867)
(193.612 1.6541 -10.0247)
(190.056 0.956389 -10.2794)
(186.177 0.261392 -9.32815)
(200.929 4.87289 2.46157)
(202.002 4.45082 0.796511)
(202.675 3.93162 -1.07168)
(202.857 3.34318 -3.14948)
(202.42 2.70058 -5.38222)
(201.205 2.00211 -7.69419)
(199.028 1.25006 -9.90606)
(195.724 0.443725 -11.713)
(191.259 -0.415391 -12.529)
(186.116 -1.27553 -11.8532)
(202.005 5.55322 3.11703)
(203.381 5.06944 1.37327)
(204.338 4.48125 -0.62037)
(204.784 3.82464 -2.91091)
(204.554 3.11988 -5.44922)
(203.439 2.36344 -8.19)
(201.167 1.55644 -10.9568)
(197.449 0.692386 -13.4184)
(192.095 -0.240809 -14.8158)
(185.626 -1.20496 -14.5114)
(202.968 4.70294 4.34593)
(204.595 4.07746 2.53656)
(205.792 3.37295 0.402755)
(206.473 2.6268 -2.08972)
(206.446 1.85193 -4.92468)
(205.463 1.0435 -8.08535)
(203.169 0.199532 -11.4209)
(199.139 -0.690542 -14.605)
(192.981 -1.64403 -16.7291)
(185.198 -2.61349 -17.0519)
(203.479 5.32656 4.39169)
(205.288 4.62464 2.65009)
(206.665 3.86152 0.570483)
(207.532 3.08163 -1.91877)
(207.691 2.305 -4.83078)
(206.867 1.53097 -8.18559)
(204.631 0.759166 -11.8728)
(200.429 -0.0273504 -15.6089)
(193.626 -0.860868 -18.3868)
(184.622 -1.80792 -19.4029)
(203.9 3.64065 5.32697)
(205.798 2.77651 3.64689)
(207.269 1.91388 1.57704)
(208.249 1.08056 -0.90996)
(208.545 0.293944 -3.88281)
(207.877 -0.438002 -7.39954)
(205.778 -1.09564 -11.4336)
(201.57 -1.68827 -15.7767)
(194.333 -2.19901 -19.4233)
(184.16 -2.85866 -21.285)
(203.397 4.11726 4.89387)
(205.332 3.13041 3.37445)
(206.878 2.21162 1.51307)
(207.932 1.3363 -0.79307)
(208.31 0.566374 -3.59832)
(207.723 -0.0716127 -6.98048)
(205.71 -0.517554 -10.9699)
(201.542 -0.727391 -15.4256)
(194.166 -0.654348 -19.645)
(183.023 -0.570907 -21.8943)
(189.892 1.55329 -0.313077)
(189.932 1.35941 -0.754871)
(189.84 1.17415 -1.20823)
(189.622 1.00876 -1.63707)
(189.289 0.865642 -2.01224)
(188.856 0.745311 -2.30135)
(188.363 0.646348 -2.46196)
(187.913 0.545852 -2.48951)
(187.782 0.39828 -2.33346)
(188.363 0.106844 -2.02509)
(192.976 3.41163 -0.790947)
(193.106 3.28175 -1.46704)
(193.037 3.0934 -2.11443)
(192.759 2.86427 -2.73383)
(192.267 2.61519 -3.28154)
(191.572 2.35631 -3.70674)
(190.699 2.09571 -3.94988)
(189.696 1.83789 -3.95213)
(188.647 1.59332 -3.64704)
(187.686 1.37962 -3.05672)
(195.431 3.53259 -0.0112478)
(195.734 3.32469 -0.951706)
(195.773 3.04244 -1.92244)
(195.52 2.71272 -2.89191)
(194.952 2.3505 -3.81401)
(194.057 1.96348 -4.61214)
(192.842 1.55551 -5.19096)
(191.356 1.13066 -5.43925)
(189.708 0.698749 -5.2283)
(188.109 0.28277 -4.51136)
(197.28 4.35916 0.534372)
(197.822 4.1332 -0.621687)
(198.047 3.81248 -1.84562)
(197.904 3.42225 -3.12586)
(197.343 2.98441 -4.4045)
(196.316 2.50691 -5.5942)
(194.791 1.99655 -6.56332)
(192.792 1.45982 -7.13891)
(190.432 0.907544 -7.0909)
(188.027 0.371726 -6.27285)
(198.876 3.97589 1.75858)
(199.681 3.6408 0.403336)
(200.13 3.21607 -1.09716)
(200.154 2.72731 -2.725)
(199.67 2.18872 -4.4187)
(198.583 1.60295 -6.08897)
(196.812 0.975148 -7.5749)
(194.323 0.309143 -8.64466)
(191.201 -0.38706 -8.93414)
(187.866 -1.06727 -8.18843)
(199.959 4.70992 2.26688)
(201.028 4.31868 0.804503)
(201.708 3.82976 -0.846524)
(201.922 3.27731 -2.7003)
(201.551 2.67935 -4.69499)
(200.457 2.03697 -6.75311)
(198.492 1.35415 -8.69599)
(195.547 0.629257 -10.2442)
(191.635 -0.140338 -10.8858)
(187.276 -0.917651 -10.2429)
(200.958 3.88627 3.42614)
(202.257 3.36081 1.86783)
(203.143 2.76087 0.0484398)
(203.539 2.12125 -2.03612)
(203.297 1.45507 -4.34161)
(202.239 0.761114 -6.80932)
(200.145 0.0405948 -9.26157)
(196.813 -0.712426 -11.3912)
(192.141 -1.50591 -12.5394)
(186.721 -2.2898 -12.1997)
(201.519 4.59818 3.43276)
(202.992 4.00627 1.91214)
(204.041 3.35419 0.116869)
(204.592 2.68405 -1.99891)
(204.481 2.01698 -4.40743)
(203.498 1.35465 -7.07997)
(201.359 0.698198 -9.85612)
(197.754 0.0311861 -12.4315)
(192.426 -0.673967 -14.0233)
(185.982 -1.4457 -14.0132)
(201.994 2.94606 4.4168)
(203.563 2.19991 2.9243)
(204.706 1.44959 1.09855)
(205.358 0.725684 -1.05955)
(205.349 0.0471705 -3.56929)
(204.455 -0.576178 -6.42656)
(202.345 -1.12812 -9.53025)
(198.612 -1.62286 -12.6132)
(192.792 -2.0517 -14.8552)
(185.364 -2.56534 -15.362)
(201.54 3.59745 3.9614)
(203.149 2.74116 2.60865)
(204.367 1.94656 0.96328)
(205.089 1.19471 -1.04752)
(205.151 0.545311 -3.43143)
(204.314 0.022841 -6.20572)
(202.233 -0.323302 -9.31093)
(198.434 -0.464705 -12.5008)
(192.361 -0.38329 -15.1196)
(184.123 -0.298845 -15.7991)
(189.789 1.08531 -0.240709)
(189.819 0.972781 -0.489752)
(189.77 0.86055 -0.750313)
(189.648 0.758802 -0.991177)
(189.462 0.667323 -1.19869)
(189.224 0.587015 -1.35519)
(188.963 0.518901 -1.43277)
(188.761 0.443918 -1.44465)
(188.872 0.322106 -1.34409)
(189.779 0.0462918 -1.19442)
(192.196 2.628 -0.727107)
(192.278 2.57639 -1.1581)
(192.229 2.471 -1.55352)
(192.045 2.32506 -1.91777)
(191.73 2.1564 -2.22276)
(191.296 1.97468 -2.43831)
(190.766 1.78891 -2.53222)
(190.177 1.60535 -2.47669)
(189.581 1.43511 -2.24257)
(189.049 1.29063 -1.85935)
(194.158 2.68668 -0.120235)
(194.36 2.54832 -0.7816)
(194.369 2.34655 -1.4508)
(194.172 2.10229 -2.10249)
(193.76 1.82808 -2.70084)
(193.14 1.53127 -3.19286)
(192.33 1.21685 -3.51864)
(191.378 0.890225 -3.61626)
(190.363 0.56105 -3.4231)
(189.411 0.246994 -2.93753)
(195.736 3.53529 0.195947)
(196.117 3.38276 -0.66747)
(196.247 3.14553 -1.56191)
(196.096 2.84529 -2.47449)
(195.637 2.50189 -3.35507)
(194.856 2.12448 -4.13442)
(193.757 1.72098 -4.72011)
(192.386 1.29986 -5.00426)
(190.844 0.873666 -4.86528)
(189.337 0.468681 -4.24686)
(197.182 3.16477 1.22995)
(197.773 2.90804 0.163211)
(198.065 2.57127 -1.00074)
(198.01 2.17646 -2.23353)
(197.557 1.73693 -3.47725)
(196.662 1.25806 -4.65081)
(195.299 0.746657 -5.62951)
(193.493 0.20951 -6.25424)
(191.354 -0.342078 -6.31334)
(189.179 -0.870238 -5.68808)
(198.202 3.93365 1.58748)
(199.014 3.62835 0.400078)
(199.486 3.23421 -0.921282)
(199.554 2.78188 -2.37078)
(199.144 2.28793 -3.88511)
(198.173 1.75656 -5.3818)
(196.575 1.19352 -6.70954)
(194.337 0.600883 -7.65942)
(191.549 -0.0174577 -7.91226)
(188.61 -0.630807 -7.26282)
(199.185 3.13071 2.65916)
(200.199 2.70037 1.35547)
(200.838 2.20115 -0.15104)
(201.037 1.66539 -1.83853)
(200.692 1.10469 -3.65516)
(199.686 0.521821 -5.52331)
(197.902 -0.0800399 -7.27888)
(195.269 -0.702353 -8.6722)
(191.828 -1.34537 -9.26831)
(188.069 -1.96301 -8.75027)
(199.75 3.92485 2.60527)
(200.924 3.43956 1.31491)
(201.705 2.89592 -0.190548)
(202.023 2.33432 -1.93139)
(201.756 1.7745 -3.85934)
(200.758 1.22096 -5.91745)
(198.858 0.676352 -7.9411)
(195.915 0.127446 -9.66237)
(191.883 -0.448016 -10.5335)
(187.313 -1.06015 -10.1334)
(200.258 2.29738 3.61748)
(201.528 1.66718 2.32502)
(202.395 1.02789 0.754047)
(202.799 0.412743 -1.06745)
(202.6 -0.160775 -3.129)
(201.636 -0.681302 -5.38508)
(199.691 -1.13528 -7.70522)
(196.554 -1.5372 -9.82734)
(192.052 -1.88088 -11.1582)
(186.707 -2.2656 -11.063)
(199.829 3.12571 3.11887)
(201.14 2.40049 1.94828)
(202.077 1.72925 0.533091)
(202.542 1.09953 -1.16895)
(202.397 0.565338 -3.13584)
(201.461 0.148943 -5.34179)
(199.501 -0.111561 -7.68437)
(196.24 -0.200276 -9.89506)
(191.452 -0.118116 -11.4586)
(185.472 -0.0389075 -11.4006)
(189.935 0.728019 -0.164994)
(189.961 0.662477 -0.300497)
(189.937 0.594126 -0.45058)
(189.873 0.53268 -0.586176)
(189.773 0.475804 -0.703591)
(189.647 0.424519 -0.793225)
(189.512 0.381102 -0.83408)
(189.438 0.32861 -0.848213)
(189.662 0.230804 -0.785994)
(190.734 -0.0290161 -0.72883)
(191.794 2.01709 -0.640832)
(191.846 2.01492 -0.906375)
(191.817 1.96601 -1.13738)
(191.704 1.8799 -1.341)
(191.512 1.7716 -1.50115)
(191.252 1.64984 -1.60071)
(190.94 1.52343 -1.6229)
(190.6 1.39881 -1.55466)
(190.263 1.28648 -1.38326)
(189.965 1.19463 -1.13286)
(193.296 1.98389 -0.150802)
(193.43 1.89481 -0.601888)
(193.429 1.75458 -1.05083)
(193.289 1.5788 -1.47807)
(193.008 1.37717 -1.85829)
(192.595 1.15597 -2.1571)
(192.073 0.920126 -2.33882)
(191.476 0.674868 -2.37061)
(190.856 0.428199 -2.2223)
(190.285 0.19273 -1.9057)
(194.581 2.82771 -0.0197072)
(194.844 2.73321 -0.642907)
(194.919 2.56541 -1.27387)
(194.788 2.34244 -1.90235)
(194.439 2.08171 -2.48908)
(193.874 1.79245 -2.9841)
(193.11 1.48278 -3.32728)
(192.192 1.16163 -3.45539)
(191.196 0.84118 -3.30691)
(190.247 0.541803 -2.86265)
(195.828 2.45318 0.845194)
(196.254 2.26289 0.0307173)
(196.441 2.00357 -0.844864)
(196.356 1.69315 -1.75137)
(195.974 1.34376 -2.63947)
(195.277 0.962118 -3.44418)
(194.271 0.555782 -4.07721)
(192.997 0.132876 -4.43699)
(191.553 -0.294714 -4.4057)
(190.132 -0.697859 -3.93273)
(196.736 3.23688 1.06043)
(197.341 3.0073 0.125843)
(197.66 2.69925 -0.898005)
(197.649 2.33902 -1.99597)
(197.261 1.94192 -3.10984)
(196.456 1.51405 -4.16619)
(195.215 1.06215 -5.04965)
(193.567 0.590609 -5.61645)
(191.617 0.106653 -5.6776)
(189.637 -0.367344 -5.12926)
(197.66 2.44837 2.03598)
(198.435 2.10466 0.975563)
(198.886 1.69921 -0.236606)
(198.961 1.26046 -1.56407)
(198.591 0.799059 -2.95471)
(197.709 0.320351 -4.33061)
(196.263 -0.171133 -5.55807)
(194.255 -0.673354 -6.45241)
(191.774 -1.18187 -6.74377)
(189.18 -1.65764 -6.24572)
(198.191 3.31558 1.90828)
(199.107 2.92952 0.844842)
(199.673 2.48824 -0.3807)
(199.833 2.02975 -1.76889)
(199.499 1.57132 -3.26525)
(198.578 1.11991 -4.80112)
(196.982 0.679462 -6.23187)
(194.67 0.240838 -7.34742)
(191.696 -0.21256 -7.78862)
(188.484 -0.685499 -7.2962)
(198.71 1.70208 2.9325)
(199.717 1.1816 1.84182)
(200.36 0.648463 0.523426)
(200.585 0.137393 -0.973007)
(200.29 -0.337444 -2.62356)
(199.363 -0.763614 -4.36056)
(197.68 -1.12996 -6.05502)
(195.154 -1.44912 -7.48217)
(191.773 -1.71368 -8.24226)
(187.977 -1.99242 -7.92873)
(198.287 2.70954 2.3727)
(199.333 2.11108 1.38952)
(200.037 1.55845 0.207302)
(200.311 1.04502 -1.18992)
(200.05 0.61698 -2.76494)
(199.127 0.294193 -4.46629)
(197.399 0.104086 -6.18154)
(194.728 0.053264 -7.666)
(191.076 0.130014 -8.55572)
(186.805 0.197901 -8.19866)
(190.19 0.457099 -0.0957964)
(190.212 0.417459 -0.166787)
(190.203 0.374364 -0.256083)
(190.17 0.337631 -0.334448)
(190.118 0.303196 -0.404497)
(190.052 0.272035 -0.460817)
(189.985 0.246973 -0.485571)
(189.974 0.212303 -0.505847)
(190.242 0.134683 -0.467566)
(191.392 -0.111021 -0.46445)
(191.633 1.55596 -0.555562)
(191.667 1.58265 -0.71397)
(191.652 1.57009 -0.841655)
(191.586 1.52501 -0.947234)
(191.474 1.45996 -1.02281)
(191.323 1.38264 -1.05907)
(191.143 1.30117 -1.04749)
(190.95 1.22149 -0.981768)
(190.761 1.15314 -0.856278)
(190.593 1.10106 -0.687926)
(192.74 1.41679 -0.136544)
(192.828 1.35984 -0.436931)
(192.827 1.26414 -0.732482)
(192.733 1.14063 -1.0084)
(192.55 0.996217 -1.24786)
(192.286 0.835758 -1.42925)
(191.957 0.663413 -1.53176)
(191.589 0.483396 -1.53819)
(191.212 0.301487 -1.43364)
(190.869 0.125988 -1.23248)
(193.748 2.23818 -0.147674)
(193.927 2.18652 -0.58341)
(193.972 2.07333 -1.01435)
(193.87 1.91355 -1.4339)
(193.619 1.72191 -1.81347)
(193.227 1.50692 -2.1189)
(192.711 1.27617 -2.31268)
(192.108 1.03802 -2.35908)
(191.47 0.803258 -2.2283)
(190.872 0.587404 -1.9154)
(194.778 1.84716 0.574433)
(195.079 1.71029 -0.0304089)
(195.197 1.51601 -0.671606)
(195.113 1.27827 -1.32188)
(194.813 1.00764 -1.94208)
(194.295 0.711106 -2.48378)
(193.576 0.396176 -2.88769)
(192.698 0.0710406 -3.09197)
(191.735 -0.253435 -3.03317)
(190.807 -0.555762 -2.69305)
(195.547 2.62672 0.664232)
(195.987 2.46074 -0.0492765)
(196.2 2.22749 -0.818504)
(196.154 1.94868 -1.62609)
(195.821 1.63818 -2.42247)
(195.188 1.30291 -3.1482)
(194.259 0.949974 -3.72079)
(193.077 0.584848 -4.04683)
(191.732 0.215838 -4.01882)
(190.405 -0.142521 -3.58847)
(196.385 1.8476 1.54276)
(196.965 1.57964 0.703424)
(197.276 1.25827 -0.245674)
(197.28 0.907196 -1.26312)
(196.935 0.53629 -2.30116)
(196.207 0.152142 -3.29113)
(195.082 -0.239979 -4.13206)
(193.594 -0.635771 -4.6959)
(191.837 -1.02879 -4.82386)
(190.059 -1.38721 -4.41024)
(196.848 2.77691 1.33561)
(197.547 2.47967 0.48525)
(197.949 2.1318 -0.481915)
(198.009 1.76745 -1.55617)
(197.669 1.40184 -2.68342)
(196.876 1.04301 -3.79657)
(195.594 0.695778 -4.77896)
(193.835 0.354519 -5.47844)
(191.687 0.00796042 -5.66968)
(189.452 -0.348759 -5.20817)
(197.364 1.16564 2.36095)
(198.145 0.74524 1.46394)
(198.61 0.310322 0.384878)
(198.716 -0.104915 -0.813526)
(198.391 -0.48978 -2.10358)
(197.567 -0.831734 -3.41141)
(196.182 -1.12189 -4.62604)
(194.22 -1.37067 -5.57095)
(191.741 -1.56841 -5.99102)
(189.077 -1.76577 -5.64459)
(196.931 2.35455 1.72506)
(197.745 1.8745 0.925205)
(198.262 1.43223 -0.0319434)
(198.403 1.02564 -1.14266)
(198.096 0.692114 -2.36568)
(197.257 0.449065 -3.63808)
(195.811 0.314714 -4.85722)
(193.706 0.289507 -5.82171)
(190.997 0.356841 -6.29559)
(187.991 0.41043 -5.8574)
(190.473 0.249869 -0.0350524)
(190.492 0.223923 -0.0704671)
(190.489 0.194721 -0.127725)
(190.473 0.172634 -0.175971)
(190.447 0.15223 -0.221876)
(190.413 0.134401 -0.262139)
(190.38 0.122191 -0.280322)
(190.397 0.100775 -0.30692)
(190.673 0.0395181 -0.282985)
(191.851 -0.194247 -0.312762)
(191.615 1.21859 -0.482455)
(191.638 1.26065 -0.573574)
(191.631 1.27029 -0.638119)
(191.595 1.25217 -0.685115)
(191.531 1.21685 -0.711969)
(191.445 1.17109 -0.713772)
(191.343 1.1221 -0.686378)
(191.234 1.07519 -0.626545)
(191.129 1.03909 -0.531796)
(191.034 1.01642 -0.412658)
(192.398 0.969386 -0.0996526)
(192.457 0.931628 -0.296222)
(192.456 0.866583 -0.488717)
(192.398 0.7813 -0.665976)
(192.283 0.680148 -0.817162)
(192.119 0.566505 -0.928991)
(191.917 0.44346 -0.989341)
(191.692 0.313911 -0.989069)
(191.465 0.181375 -0.920191)
(191.258 0.0505914 -0.796123)
(193.169 1.75999 -0.216009)
(193.29 1.73792 -0.511171)
(193.317 1.66567 -0.796091)
(193.245 1.55546 -1.06744)
(193.073 1.41927 -1.30574)
(192.809 1.26448 -1.48842)
(192.47 1.09765 -1.59269)
(192.08 0.926013 -1.5987)
(191.675 0.758578 -1.49257)
(191.298 0.60728 -1.27392)
(193.987 1.34591 0.390197)
(194.196 1.25 -0.0475946)
(194.271 1.10811 -0.505989)
(194.199 0.930622 -0.96266)
(193.976 0.726284 -1.3883)
(193.607 0.501608 -1.7486)
(193.108 0.263427 -2.00512)
(192.514 0.0191648 -2.12123)
(191.878 -0.222111 -2.06329)
(191.275 -0.444937 -1.82753)
(194.608 2.10482 0.376409)
(194.923 1.98987 -0.151904)
(195.062 1.819 -0.712568)
(195.006 1.60963 -1.28997)
(194.741 1.37376 -1.8446)
(194.264 1.11832 -2.33136)
(193.591 0.850156 -2.69375)
(192.762 0.574857 -2.87336)
(191.847 0.300438 -2.81057)
(190.962 0.0352624 -2.48615)
(195.348 1.33273 1.16235)
(195.772 1.12852 0.515343)
(195.982 0.879837 -0.208706)
(195.953 0.605511 -0.970092)
(195.658 0.31441 -1.72818)
(195.085 0.0133745 -2.42736)
(194.241 -0.29223 -2.99526)
(193.166 -0.597032 -3.34673)
(191.942 -0.894523 -3.3928)
(190.733 -1.15861 -3.07406)