/*--------------------------------*- C++ -*----------------------------------*\
| =========                 |                                                 |
| \\      /  F ield         | foam-extend: Open Source CFD                    |
|  \\    /   O peration     | Version:     4.0                                |
|   \\  /    A nd           | Web:         http://www.foam-extend.org         |
|    \\/     M anipulation  |                                                 |
\*---------------------------------------------------------------------------*/
FoamFile
{
    version     2.0;
    format      ascii;
    class       volScalarField;
    location    "600";
    object      epsilon;
}
// * * * * * * * * * * * * * * * * * * * * * * * * * * * * * * * * * * * * * //

dimensions      [0 2 -3 0 0 0 0];

internalField   nonuniform List<scalar> 
34480
(
4907.23
4904.78
4904.21
4905.46
4908.97
4916.22
4933.06
4986.33
5174.57
5700.79
623.436
576.274
575.731
627.805
818.14
1597.47
5354.49
24159.2
108839
396901
535.471
451.974
441.764
503.155
751.174
1829.73
7400.36
37248.3
181788
728491
450.272
376.385
367.752
426.238
677.812
1872.04
8525.99
46437.4
241590
1.04112e+06
395.204
333.077
328.216
383.796
635.244
1909.58
9421.07
54335.3
297590
1.35992e+06
344.577
292.473
288.399
339.817
588.921
1942.17
10323.8
62503.1
357576
1.71723e+06
314.291
269.756
267.099
314.706
558.824
1949.52
10875.6
68248.1
404852
2.02807e+06
292.249
257.292
254.606
294.588
511.796
1814.65
10455.6
67566.2
413944
2.15503e+06
438.923
417.277
415.845
441.044
576.57
1387.07
6808.89
43378.9
272192
1.46443e+06
5690.84
5690.4
5694.71
5704.85
5719.93
5738.71
5760.27
5791.01
5852.25
5912.01
4835.48
4832.43
4831.45
4832.64
4836.63
4845.09
4861.08
4889.59
4954.49
5169.06
498.883
468.478
462.258
475.985
519.38
637.143
1007.85
2456.94
12470
107531
397.084
339.295
326.171
345.458
413.305
603.535
1214
3719.96
22719.9
206652
351.591
296.367
283.879
303.118
371.445
570.877
1251.94
4391.02
31867.1
306752
324.223
274.747
265.03
283.421
349.848
548.883
1261.75
4853.12
40457.7
410485
293.04
249.85
240.884
257.225
318.365
509.699
1230.91
5184.2
49135.7
523242
274.726
236.446
228.994
243.403
300.045
482.133
1194.28
5333.32
55850.3
621069
262.197
231.537
224.753
235.956
280.721
428.447
1029.09
4795.7
56228.3
660886
416.304
396.035
391.757
399.006
426.352
505.968
810.526
2925.71
36553.3
465894
5570.74
5565.99
5565.64
5570.69
5580.38
5594.27
5611.95
5640.11
5702.85
5871.58
4752.66
4749.7
4748.5
4749.14
4751.92
4757.61
4767.56
4782.2
4809.82
4864.07
398.455
385.277
381.733
386.45
401.614
438.183
532.478
794.826
1637.39
6134.2
281.988
251.457
243.75
252.677
282.986
355.454
541.016
1075.71
3099.56
16035.3
262.602
230.163
222.04
232.113
265.621
348.158
572.594
1304.81
4723.43
30832.8
255.242
223.933
217.208
227.506
261.963
348.301
594.203
1482.74
6518.29
50884.5
240.134
211.309
204.787
214.429
247.197
332.34
587.928
1613.22
8611.07
77669.9
232.177
205.454
199.907
208.691
239.889
322.42
579.872
1701.79
10670.2
107169
229.163
207.184
202.081
209.284
234.559
302.38
521.16
1573.59
11512.9
128380
390.361
374.906
371.648
377.025
395.661
441.236
577.384
1203.67
7840.67
94288
5459.69
5452.31
5449.37
5451.67
5458.62
5470.22
5485.78
5512.38
5580.68
5764.61
4658.58
4656.46
4655.61
4656.14
4658.22
4662.13
4668.34
4674.94
4685.9
4702.54
332.833
328.361
326.715
327.866
332.275
343.424
371.657
443.576
589.536
1016.9
206.796
192.445
188.347
192.271
206.189
237.246
307.042
470.118
849.515
2257.14
199.581
182.195
177.316
182.563
200.052
239.961
334.487
580.89
1265.02
4461.21
202.677
184.393
180.117
185.983
205.42
250.472
361.902
679.107
1718.06
7712.52
197.884
179.856
175.438
181.407
201.125
248.547
372.009
756
2239.68
12518.5
196.837
179.163
175.293
181.03
200.789
249.145
379.748
814.189
2762.43
18400.9
201.085
185.968
182.303
187.329
204.146
246.004
362.483
781.235
2980.88
23276.4
366.447
354.949
352.476
356.435
369.983
401.525
485.525
757.735
2210.29
17243
5336.84
5329.49
5326.35
5328.3
5335.01
5346.92
5363.81
5391.22
5454.8
5597.98
4554.83
4553.5
4552.95
4553.3
4554.64
4557.01
4560.52
4562.67
4565.74
4568.49
292.284
291.269
290.557
290.368
290.595
292.499
299.929
322.555
358.006
409.021
162.345
155.904
153.721
155.115
160.832
173.259
199.163
252.726
344.2
533.908
158.896
149.873
146.934
149.336
157.736
176.022
215.381
305.244
486.232
972.053
165.63
155.342
152.656
155.651
165.813
188.129
237.903
361.443
647.454
1632.7
166.22
155.3
152.338
155.718
166.86
192.226
251.504
410.914
832.211
2653.61
168.942
157.592
154.918
158.363
170.22
197.659
263.894
452.35
1012.18
3949.04
177.94
167.818
165.201
168.456
179.112
204.296
266.831
456.505
1096.77
5102.86
344.457
336.131
334.25
336.952
346.348
367.537
419.89
562.265
1006.71
3988.81
5206.72
5199.55
5196.32
5197.97
5204.32
5215.98
5232.89
5258.54
5311.86
5414.52
4442.38
4441.66
4441.34
4441.56
4442.35
4443.7
4445.67
4446.36
4447.31
4447.33
267.221
267.285
266.984
266.456
265.483
264.644
265.964
274.561
287.74
297.319
137.231
134.35
133.17
133.541
135.72
140.486
150.114
168.67
194.894
225.037
133.881
129.197
127.427
128.44
132.299
140.37
156.436
189.64
245.011
333.966
140.624
134.971
133.34
134.766
139.806
150.306
171.653
219.422
309.929
503.056
143.337
136.91
135.003
136.822
142.828
155.768
183.119
249.066
388.266
769.376
147.577
140.528
138.772
140.738
147.545
162.434
194.767
276.852
465.624
1104.47
159.22
152.714
150.945
152.973
159.455
174.027
206.67
294.383
516.835
1422.61
324.313
318.587
317.252
319.04
325.395
339.341
372.408
452.528
631.639
1333.94
5068.78
5062.03
5058.9
5060.34
5066.27
5077.31
5093.3
5116.11
5157.48
5224.97
4321.99
4321.66
4321.5
4321.63
4322.05
4322.77
4323.85
4324.24
4324.9
4324.77
250.974
251.172
251.017
250.489
249.382
248.027
247.731
251.832
259.198
263.367
123.334
121.982
121.308
121.321
122.093
123.907
127.73
135.106
144.683
150.251
119.049
116.523
115.429
115.821
117.571
121.141
127.899
140.902
160.364
179.166
124.402
121.297
120.317
120.951
123.362
128.169
137.237
155.825
187.251
230.055
127.472
123.743
122.544
123.478
126.597
133.002
145.401
172.409
222.432
312.341
131.89
127.612
126.501
127.563
131.324
139.144
154.578
189.762
259.16
414.217
144.638
140.614
139.473
140.681
144.458
152.598
169.327
209.629
295.471
525.182
306.197
302.491
301.6
302.738
306.925
315.913
337.222
384.178
471.484
678.122
4922.77
4916.65
4913.73
4915.01
4920.4
4930.47
4944.75
4964.18
4995.44
5039.46
4194.19
4194.11
4194.04
4194.11
4194.32
4194.68
4195.27
4195.75
4196.62
4196.88
239.376
239.407
239.286
238.851
237.932
236.739
236.176
238.606
244.041
247.732
115.656
114.96
114.548
114.46
114.702
115.399
117.097
120.685
125.578
127.442
110.48
109.032
108.334
108.466
109.268
110.898
113.949
119.697
128.109
133.47
114.195
112.462
111.871
112.131
113.258
115.438
119.375
127.024
139.438
150.996
116.847
114.692
113.951
114.411
115.988
119.105
124.771
136.115
155.795
180.634
120.78
118.226
117.544
118.089
120.106
124.13
131.502
146.725
174.197
217.037
133.626
131.241
130.54
131.231
133.341
137.743
146.273
164.929
200.701
267.339
290.026
287.831
287.28
287.983
290.689
296.398
310.522
338.973
386.325
464.112
4768.49
4763.15
4760.56
4761.68
4766.43
4775.26
4787.36
4803.22
4826.27
4855.38
4059.38
4059.43
4059.42
4059.45
4059.55
4059.71
4060.05
4060.64
4061.79
4062.45
230.015
229.834
229.707
229.372
228.689
227.797
227.352
229.045
233.62
237.491
111.344
110.939
110.671
110.572
110.622
110.892
111.749
113.86
117.167
118.71
105.652
104.763
104.304
104.335
104.711
105.487
106.981
109.901
114.457
117.076
107.958
106.962
106.6
106.695
107.212
108.196
109.963
113.395
119.184
123.649
109.966
108.718
108.265
108.483
109.259
110.754
113.383
118.399
127.101
135.958
113.182
111.669
111.261
111.527
112.583
114.624
118.184
125.006
136.913
151.388
125.533
124.191
123.785
124.165
125.288
127.585
131.92
140.734
156.736
179.934
275.564
274.454
274.147
274.575
276.305
279.905
289.567
307.306
334.494
369.764
4605.87
4601.42
4599.21
4600.17
4604.22
4611.63
4621.41
4633.81
4650.34
4669.53
3917.85
3917.96
3917.98
3918
3918.04
3918.11
3918.31
3918.93
3920.28
3921.27
221.575
221.218
221.077
220.823
220.342
219.723
219.473
220.802
224.875
228.955
108.812
108.546
108.361
108.277
108.263
108.367
108.858
110.286
112.913
114.652
103.001
102.423
102.115
102.11
102.29
102.674
103.46
105.131
108.084
110.139
104.262
103.666
103.441
103.468
103.7
104.144
104.965
106.653
109.821
112.466
105.663
104.935
104.661
104.76
105.13
105.831
107.058
109.395
113.723
118.055
108.162
107.268
107.029
107.153
107.695
108.719
110.456
113.645
119.309
125.65
119.708
119.005
118.789
118.99
119.553
120.695
122.877
127.107
134.679
144.603
262.456
262.097
261.957
262.22
263.328
265.604
272.407
283.706
299.841
317.563
4435.01
4431.45
4429.65
4430.46
4433.77
4439.74
4447.27
4456.58
4468.08
4480.53
3769.87
3770.01
3770.05
3770.06
3770.08
3770.09
3770.21
3770.77
3772.21
3773.44
213.365
212.884
212.728
212.536
212.205
211.793
211.7
212.863
216.574
220.811
107.195
107.002
106.87
106.804
106.775
106.815
107.126
108.18
110.428
112.39
101.58
101.189
100.983
100.966
101.052
101.247
101.682
102.724
104.874
106.836
102.141
101.771
101.628
101.63
101.733
101.935
102.33
103.234
105.208
107.3
103.07
102.642
102.479
102.521
102.689
103.006
103.573
104.708
107.086
109.856
104.96
104.429
104.291
104.347
104.623
105.134
105.99
107.54
110.46
113.997
115.561
115.235
115.135
115.238
115.496
116.023
117.092
119.122
122.826
127.911
250.295
250.436
250.403
250.573
251.293
252.756
257.64
264.915
274.688
283.913
4256.11
4253.41
4252.01
4252.66
4255.26
4259.85
4265.4
4272.11
4279.87
4287.77
3615.7
3615.86
3615.9
3615.92
3615.92
3615.91
3615.99
3616.45
3617.84
3619.2
205.024
204.463
204.296
204.15
203.926
203.658
203.668
204.764
208.171
212.523
106.036
105.886
105.789
105.741
105.712
105.728
105.941
106.757
108.734
110.87
100.831
100.563
100.426
100.408
100.447
100.544
100.791
101.477
103.144
105.106
100.966
100.729
100.637
100.632
100.677
100.771
100.971
101.492
102.837
104.707
101.568
101.316
101.22
101.236
101.306
101.44
101.693
102.26
103.675
105.77
102.986
102.667
102.588
102.615
102.757
103.015
103.443
104.223
105.833
108.183
112.591
112.479
112.446
112.497
112.597
112.81
113.306
114.256
116.082
119.082
238.665
239.127
239.16
239.279
239.759
240.735
244.245
248.922
254.898
259.585
4069.54
4067.6
4066.57
4067.08
4069.02
4072.4
4076.31
4080.96
4086.01
4090.89
3455.65
3455.82
3455.87
3455.88
3455.88
3455.86
3455.91
3456.28
3457.5
3458.91
196.357
195.75
195.575
195.462
195.311
195.138
195.202
196.215
199.398
203.824
105.103
104.982
104.91
104.875
104.853
104.86
105.014
105.659
107.399
109.655
100.439
100.255
100.166
100.151
100.165
100.21
100.349
100.811
102.138
104.094
100.34
100.186
100.127
100.12
100.141
100.187
100.294
100.611
101.575
103.301
100.732
100.584
100.53
100.533
100.558
100.607
100.712
100.999
101.89
103.609
101.805
101.611
101.567
101.582
101.658
101.793
102.013
102.421
103.355
105.084
110.402
110.402
110.407
110.43
110.454
110.516
110.72
111.136
112.015
113.98
227.187
227.843
227.912
228.005
228.337
229.032
231.482
234.447
238.086
240.211
3875.8
3874.48
3873.77
3874.15
3875.54
3877.89
3880.54
3883.62
3886.79
3889.71
3290.07
3290.24
3290.3
3290.32
3290.32
3290.29
3290.31
3290.59
3291.63
3292.95
187.246
186.614
186.434
186.347
186.245
186.134
186.215
187.106
190.042
194.543
104.284
104.186
104.131
104.107
104.091
104.097
104.211
104.716
106.229
108.543
100.232
100.108
100.052
100.04
100.042
100.058
100.133
100.444
101.498
103.409
100.023
99.9227
99.8841
99.8787
99.8893
99.9147
99.9758
100.175
100.877
102.457
100.288
100.201
100.17
100.169
100.173
100.186
100.223
100.369
100.947
102.392
101.113
100.995
100.971
100.98
101.025
101.101
101.22
101.441
101.999
103.322
108.699
108.75
108.773
108.783
108.775
108.772
108.832
108.987
109.377
110.756
215.533
216.292
216.379
216.458
216.697
217.245
218.825
220.653
222.818
223.465
3675.5
3674.67
3674.21
3674.48
3675.42
3676.96
3678.71
3680.65
3682.53
3684.21
3119.38
3119.56
3119.62
3119.64
3119.64
3119.61
3119.61
3119.81
3120.64
3121.8
177.605
176.962
176.78
176.712
176.644
176.572
176.649
177.392
180.001
184.538
103.528
103.449
103.408
103.391
103.381
103.389
103.473
103.859
105.134
107.436
100.121
100.04
100.007
99.998
99.9934
99.9944
100.032
100.235
101.05
102.855
99.8762
99.8115
99.7863
99.7822
99.7883
99.8041
99.8414
99.9674
100.473
101.875
100.063
100.012
99.9944
99.9908
99.9881
99.9866
99.9958
100.069
100.446
101.647
100.708
100.636
100.622
100.63
100.659
100.706
100.775
100.899
101.234
102.239
107.274
107.341
107.369
107.373
107.356
107.333
107.326
107.359
107.498
108.504
203.427
204.225
204.317
204.387
204.565
204.957
205.901
206.977
208.193
208.002
3469.39
3468.9
3468.63
3468.81
3469.41
3470.37
3471.47
3472.62
3473.66
3474.57
2944.12
2944.3
2944.37
2944.4
2944.39
2944.36
2944.34
2944.46
2945.08
2946.02
167.36
166.712
166.531
166.479
166.434
166.389
166.451
167.032
169.238
173.668
102.818
102.756
102.724
102.712
102.707
102.716
102.778
103.06
104.083
106.279
100.061
100.011
99.9934
99.9869
99.9801
99.9743
99.989
100.115
100.71
102.329
99.8212
99.7802
99.7636
99.7604
99.7644
99.7752
99.7987
99.877
100.226
101.41
99.9585
99.9273
99.9165
99.9125
99.908
99.9031
99.9024
99.9386
100.177
101.135
100.463
100.418
100.411
100.417
100.438
100.469
100.512
100.583
100.777
101.507
105.992
106.054
106.08
106.083
106.067
106.042
106.01
105.996
106.01
106.754
190.629
191.417
191.506
191.57
191.705
191.937
192.436
193.022
193.617
192.997
3258.32
3258.07
3257.92
3258.04
3258.4
3258.96
3259.61
3260.24
3260.75
3261.2
2764.97
2765.17
2765.24
2765.27
2765.27
2765.24
2765.2
2765.25
2765.65
2766.34
156.432
155.779
155.602
155.564
155.538
155.514
155.562
155.982
157.72
161.825
102.153
102.104
102.077
102.067
102.066
102.076
102.123
102.317
103.079
105.046
100.03
100.002
99.9933
99.9888
99.9822
99.9746
99.9776
100.048
100.444
101.78
99.8153
99.7898
99.7787
99.7761
99.7788
99.7862
99.8012
99.8477
100.072
100.997
99.9188
99.8988
99.8913
99.8874
99.8835
99.879
99.8761
99.8932
100.035
100.744
100.297
100.27
100.266
100.271
100.285
100.306
100.334
100.373
100.478
100.963
104.771
104.816
104.838
104.839
104.828
104.808
104.773
104.746
104.708
105.256
176.904
177.641
177.719
177.777
177.881
178.019
178.207
178.477
178.654
177.887
3043.35
3043.24
3043.18
3043.25
3043.44
3043.73
3044.09
3044.39
3044.61
3044.77
2582.93
2583.11
2583.19
2583.22
2583.21
2583.18
2583.13
2583.11
2583.32
2583.76
144.73
144.067
143.905
143.881
143.87
143.867
143.908
144.186
145.413
148.827
101.54
101.498
101.474
101.465
101.466
101.477
101.512
101.637
102.149
103.749
100.015
99.9994
99.996
99.9929
99.9879
99.9818
99.9804
100.014
100.24
101.204
99.8366
99.821
99.8136
99.8116
99.8133
99.8182
99.8275
99.8532
99.9814
100.62
99.9153
99.9022
99.8965
99.8932
99.8903
99.8872
99.8848
99.8921
99.9678
100.432
100.164
100.148
100.145
100.148
100.157
100.17
100.186
100.206
100.255
100.533
103.57
103.597
103.611
103.612
103.605
103.59
103.561
103.537
103.488
103.879
161.954
162.6
162.664
162.713
162.793
162.894
162.992
163.052
162.929
162.223
2825.77
2825.73
2825.72
2825.76
2825.84
2825.97
2826.11
2826.23
2826.3
2826.31
2398.96
2399.18
2399.23
2399.26
2399.25
2399.23
2399.19
2399.17
2399.23
2399.44
131.998
131.476
131.386
131.383
131.383
131.373
131.372
131.478
132.117
134.467
100.998
100.959
100.937
100.929
100.93
100.94
100.965
101.04
101.337
102.446
100.005
99.9959
99.9939
99.9915
99.9887
99.9857
99.985
99.9986
100.1
100.65
99.8766
99.8673
99.8626
99.8612
99.8622
99.8655
99.8712
99.8844
99.9459
100.304
99.9345
99.9263
99.9222
99.9196
99.9176
99.9159
99.9147
99.9177
99.9514
100.198
100.046
100.037
100.036
100.037
100.041
100.048
100.055
100.063
100.081
100.206
102.393
102.401
102.408
102.408
102.402
102.39
102.372
102.355
102.321
102.58
145.264
145.772
145.818
145.856
145.911
145.979
146.04
146.062
145.938
145.307
2606.97
2606.96
2606.97
2606.98
2607.01
2607.04
2607.08
2607.09
2607.08
2607.05
2213.74
2213.81
2213.82
2213.83
2213.83
2213.83
2213.81
2213.8
2213.82
2213.85
117.583
117.261
117.247
117.261
117.264
117.253
117.232
117.227
117.38
118.413
100.541
100.506
100.489
100.482
100.483
100.49
100.507
100.545
100.677
101.241
100.001
99.9952
99.9929
99.9911
99.9899
99.9897
99.991
99.9971
100.029
100.229
99.9342
99.929
99.9264
99.9255
99.9262
99.9283
99.9318
99.9382
99.9606
100.1
99.9707
99.966
99.9634
99.9617
99.9607
99.9601
99.9601
99.9619
99.9737
100.066
99.9782
99.9752
99.9742
99.9746
99.9762
99.9787
99.9812
99.9833
99.9874
100.023
101.275
101.268
101.268
101.265
101.259
101.25
101.239
101.23
101.225
101.369
125.638
125.941
125.966
125.988
126.018
126.054
126.085
126.088
126.003
125.566
2387.67
2387.67
2387.68
2387.68
2387.68
2387.68
2387.68
2387.66
2387.62
2387.62
7145.65
7250.05
7203.68
6991.91
686909
709469
713191
718778
1.5578e+06
1.6383e+06
1.64093e+06
1.61215e+06
2.58269e+06
2.74829e+06
2.73847e+06
2.64003e+06
3.79852e+06
4.0717e+06
4.03762e+06
3.85558e+06
5.30666e+06
5.71458e+06
5.65997e+06
5.44102e+06
6.80476e+06
7.35332e+06
7.28635e+06
7.07672e+06
7.73762e+06
8.40001e+06
8.34036e+06
8.18943e+06
5.41738e+06
5.9191e+06
5.85715e+06
5.80275e+06
7797.43
8033.9
7884.56
7508.93
5728.72
5779.31
5780.5
5738.91
313672
326367
345031
373773
701081
784266
823707
852684
1.18646e+06
1.39496e+06
1.45035e+06
1.46241e+06
1.763e+06
2.148e+06
2.21336e+06
2.20992e+06
2.43939e+06
3.04334e+06
3.14759e+06
3.17574e+06
3.08899e+06
3.93056e+06
4.10012e+06
4.2019e+06
3.50252e+06
4.54985e+06
4.80183e+06
5.00869e+06
2.71593e+06
3.64319e+06
3.84792e+06
4.13061e+06
7052.7
7269.01
7203.54
6987.03
4926.96
4936.32
4934.77
4925.05
22193.4
26333.5
24836.3
20050.8
63302.4
74714
69520.3
55928.9
131481
154423
141499
113348
232259
272073
246489
197498
377210
442670
402317
324349
549140
645463
589443
479487
702060
828382
760667
624135
575253
676523
613090
506854
6294.82
6376.69
6354.49
6262.46
4707.8
4708.32
4708.22
4707.72
1693.74
1808.29
1765.31
1613.33
4959.56
5424.19
5219.74
4578.28
11704.4
12923.6
12229.1
10377.7
23382.2
25917
24127.8
19912.7
43106.3
47979.3
44221.9
35798.6
70189.8
78165.4
71447.8
57153.3
98964.2
110525
100456
79731.6
83539
92592.7
82818.9
65636.4
5863.69
5902.63
5899.44
5863.6
4560.87
4560.19
4559.84
4559.75
458.483
471.577
472.51
462.769
769.67
817.236
817.605
779.739
1693.18
1832.47
1813.15
1678.47
3368.54
3680.96
3581.78
3211.64
6429.7
7076.11
6778.16
5895.89
10920.3
12027.7
11339.5
9610.61
16170.4
17868.8
16630.5
13773.9
14042.3
15372.8
13997.7
11428
5544.04
5564.46
5565.81
5551.75
4437.79
4436.99
4436.54
4436.41
296.778
299.346
299.396
297.041
247.817
252.506
253.304
250.735
414.786
431.161
433.379
424.328
716.776
757.657
757.546
727.933
1283.76
1378.07
1364.82
1279.34
2120.22
2291.97
2237.64
2042.86
3158.4
3441.55
3313.78
2942.88
2974.93
3189.27
3007.04
2646.96
5287.23
5297.05
5299.17
5294.73
4315.32
4314.57
4314.13
4314
258.142
259.654
259.502
257.705
151.658
151.874
151.612
150.963
188.194
189.911
190.17
189.325
258.1
263.49
264.388
262.135
389.598
404.364
405.787
398.092
575.054
603.42
601.937
581.705
823.479
874.451
865.188
819.707
993.025
1027.37
1002.17
956.266
5067.78
5072.04
5073.92
5073.48
4187.98
4187.28
4186.88
4186.76
242.04
243.346
243.16
241.518
126.378
126.053
125.623
125.152
133.12
132.808
132.434
132.131
153.274
153.414
153.206
152.986
191.904
193.782
194.021
193.461
242.8
246.936
247.197
245.612
323.478
332.54
332.443
327.502
542.586
544.153
539.639
536.996
4868.25
4869.77
4871.09
4871.88
4054.15
4053.5
4053.12
4053.01
231.938
233.18
232.989
231.423
117.6
117.277
116.873
116.452
115.716
115.204
114.771
114.511
122.428
121.875
121.455
121.337
136.546
136.301
136.015
135.995
154.28
154.231
153.968
154.097
191.45
192.533
192.413
192.195
397.49
392.485
390.727
393.875
4675.41
4675.66
4676.43
4677.39
3913.58
3912.97
3912.62
3912.51
223.582
224.761
224.557
223.045
113.742
113.47
113.107
112.719
108.933
108.48
108.091
107.854
111.114
110.579
110.187
110.065
117.092
116.583
116.232
116.218
124.786
124.13
123.746
123.921
147.222
146.797
146.48
146.682
332.009
325.771
324.362
327.987
4482.99
4482.66
4483.07
4483.91
3766.36
3765.79
3765.46
3765.36
215.605
216.708
216.481
215.02
111.643
111.408
111.075
110.717
105.889
105.509
105.17
104.959
106.28
105.852
105.526
105.412
108.942
108.496
108.193
108.168
112.869
112.262
111.921
112.03
128.784
128.181
127.848
128.003
294.177
287.964
286.635
290.025
4288.42
4287.87
4288.06
4288.74
3612.75
3612.22
3611.91
3611.81
207.477
208.491
208.237
206.835
110.232
110.012
109.7
109.375
104.37
104.044
103.746
103.565
104.009
103.673
103.407
103.312
105.14
104.791
104.551
104.53
107.386
106.922
106.654
106.722
119.74
119.227
118.943
119.035
268.147
262.252
261.007
264.137
4090.52
4089.95
4090.01
4090.53
3453.09
3452.59
3452.3
3452.22
198.953
199.866
199.586
198.261
109.092
108.873
108.577
108.292
103.526
103.234
102.97
102.825
102.86
102.59
102.373
102.303
103.247
102.98
102.794
102.786
104.646
104.309
104.109
104.158
114.73
114.341
114.117
114.166
247.791
242.258
241.111
244.03
3888.73
3888.23
3888.23
3888.61
3287.78
3287.31
3287.05
3286.99
189.881
190.689
190.393
189.166
108.049
107.821
107.541
107.307
102.987
102.717
102.483
102.383
102.218
101.995
101.817
101.777
102.248
102.042
101.9
101.908
103.167
102.927
102.783
102.826
111.623
111.342
111.171
111.192
230.283
225.099
224.052
226.797
3682.85
3682.47
3682.45
3682.7
3117.31
3116.88
3116.64
3116.6
180.139
180.849
180.555
179.452
107.024
106.786
106.527
106.352
102.576
102.326
102.123
102.071
101.801
101.611
101.469
101.46
101.669
101.508
101.401
101.426
102.279
102.11
102.012
102.056
109.445
109.253
109.125
109.122
214.144
209.299
208.35
210.937
3472.98
3472.75
3472.72
3472.86
2942.24
2941.85
2941.64
2941.64
169.61
170.242
169.974
169.018
105.982
105.742
105.511
105.4
102.199
101.971
101.806
101.805
101.468
101.306
101.196
101.216
101.274
101.148
101.072
101.11
101.66
101.543
101.481
101.528
107.714
107.596
107.501
107.474
198.521
194.024
193.175
195.597
3259.48
3259.4
3259.37
3259.41
2763.33
2762.99
2762.81
2762.84
158.178
158.764
158.554
157.762
104.901
104.672
104.476
104.426
101.797
101.601
101.481
101.526
101.149
101.014
100.934
100.976
100.948
100.852
100.8
100.845
101.155
101.077
101.043
101.091
106.175
106.121
106.051
105.997
182.866
178.76
178.015
180.247
3043.02
3043.06
3043.05
3043
2581.57
2581.27
2581.13
2581.19
145.687
146.285
146.175
145.551
103.772
103.57
103.414
103.405
101.333
101.183
101.11
101.186
100.813
100.709
100.655
100.705
100.639
100.571
100.537
100.579
100.703
100.654
100.64
100.682
104.684
104.684
104.631
104.553
166.766
163.138
162.522
164.52
2824.6
2824.75
2824.75
2824.64
2398.11
2397.84
2397.73
2397.82
131.934
132.625
132.656
132.175
102.592
102.434
102.31
102.309
100.809
100.713
100.682
100.759
100.465
100.395
100.361
100.401
100.347
100.304
100.282
100.31
100.309
100.281
100.276
100.305
103.165
103.195
103.157
103.075
148.932
145.863
145.408
147.148
2605.64
2605.89
2605.9
2605.74
2213.37
2213.07
2213
2213.16
116.59
117.394
117.552
117.151
101.364
101.253
101.154
101.137
100.31
100.263
100.25
100.297
100.167
100.126
100.103
100.122
100.119
100.094
100.078
100.091
100.048
100.033
100.028
100.043
101.655
101.666
101.641
101.598
127.83
125.713
125.47
126.708
2386.73
2387.06
2387.06
2386.85
6081.42
5421.51
5154.66
5057.96
5001.02
4962.03
4937.39
4923.12
4913.74
4907.97
799310
185560
32922.6
11449
5081.38
2676.63
1631.3
1125.13
862.992
717.107
1.41765e+06
232523
43214.2
14591.3
6384.47
3349.08
1985.69
1296.21
918.397
697.517
1.9466e+06
223850
45127.1
14234.2
5985.72
3051.2
1767.07
1132.19
790.632
593.03
2.36198e+06
240553
46766.6
13611.2
5548.78
2752.63
1566.33
993.489
690.125
517.302
2.80309e+06
262128
48555.8
12969.7
5100.24
2448.03
1364.9
855.399
593.126
446.409
3.13374e+06
277607
49054.6
12153.3
4656.25
2185.81
1209.1
757.641
527.675
400.916
3.17532e+06
268638
44763.6
10146.9
3761.89
1735.06
971.355
625.486
453.921
358.72
2.14809e+06
167858
25357.9
5237.78
2074.88
1135.32
793.931
626.391
534.73
481.962
6018.51
5980.21
5834.84
5807.91
5764.13
5739.94
5720.82
5710.44
5702.76
5694.85
5419.85
5158.12
5031.12
4957.9
4910.97
4880.15
4860.69
4849.22
4841.33
4835.95
176971
44208.1
13584
5317.57
2608.33
1528.37
1026.04
768.511
628.907
551.407
367853
84630
23250.8
8199.45
3784.57
2082.1
1289.67
875.339
641.679
505.83
575764
122161
30007.9
9400.64
4030.31
2101.02
1249.76
822.508
589.311
456.336
798721
158633
35276.3
10029
4056.44
2032.13
1178.95
765.001
543.798
420.003
1.07122e+06
199400
40344
10400.9
3966.03
1906.34
1077.46
687.942
486.784
376.749
1.3321e+06
233761
43554.5
10325.5
3772.9
1767.39
988.413
630.156
447.153
348.652
1.4895e+06
245674
41993.4
9049.99
3155.54
1451.03
820.008
536.535
396.102
320.563
1.11012e+06
167144
25226.2
4922.13
1834.94
1019.9
724.612
580.13
499.739
457.064
6217.46
5929.6
5772.79
5714.13
5663.71
5633.51
5611.64
5598.31
5588.49
5578.21
4891.81
4859.04
4831.83
4807.79
4788.5
4774.69
4765.83
4760.26
4755.45
4751.82
9244.78
4228.4
2356.66
1470.99
1001.96
737.771
585.865
497.369
445.837
416.036
24017.7
9659.75
4738.28
2585.28
1541.97
989.876
684.559
508.253
401.574
336.425
45035.1
16019.1
7005.69
3408.13
1855.32
1106.14
722.506
513.664
393.059
321.448
72593.3
22872.6
9026.06
4000.77
2038
1156.6
731.324
510.125
385.887
313.658
110640
30923.9
10997
4451.07
2132.42
1154.25
706.747
482.931
362.365
294.22
153009
38381.6
12412.5
4652.23
2135.56
1122.8
677.78
461.241
346.186
282.293
186001
41870.6
12236.8
4224.83
1868.32
968.018
591.382
412.813
321.085
270.247
135219
26537.4
6997.78
2425.84
1241.13
800.182
611.265
511.174
452.76
422.057
5984.01
5808.81
5686.78
5614.42
5562.61
5530.37
5507.93
5492.66
5480.92
5469.14
4704.11
4696.94
4687.52
4678.06
4670.56
4665.53
4662.56
4660.78
4658.35
4656.28
1249.51
943.639
746.29
599.792
497.602
430.246
387.198
359.93
343.62
334.408
3095.56
1983.17
1328.92
899.49
630.643
464.881
362.951
299.077
257.495
230.44
6290.72
3579.08
2130.9
1284.04
815.609
553.423
404.407
316.791
262.818
228.89
10822.2
5487.54
2955.43
1625.85
962.968
619.227
435.883
333.588
272.488
234.815
17459.5
7842.47
3834.92
1937.33
1076.07
657.024
445.5
332.497
268.196
229.878
25207.5
10087.4
4535.04
2139.91
1137.94
673.255
448.339
331.95
266.675
228.442
31759.2
11271.1
4646.12
2051.51
1058.1
620.093
417.953
315.918
260.675
228.489
22890.8
7227.52
2889.56
1394.88
871.353
636.964
520.71
453.663
412.295
390.777
5756.73
5632.9
5536.23
5473.93
5431.09
5403.08
5382.95
5368.54
5357.2
5346.05
4560.28
4559.86
4558.05
4555.94
4554.32
4553.45
4553.2
4553.23
4552.36
4551.41
437.827
406.691
379.816
353.926
331.858
314.976
302.943
294.766
290.111
288.127
672.081
545.58
443.009
358
293.83
248.508
217.736
196.864
182.135
171.79
1336.2
978.149
708.479
510.402
378.878
295.075
242.599
209.304
187.297
172.515
2347.7
1558.71
1023.4
672.622
464.042
341.954
270.568
227.821
200.395
182.218
3923.91
2348.12
1402.41
844.753
543.517
378.938
287.961
235.835
204.183
184.094
5822.5
3158.61
1742.5
981.175
602.097
405.643
301.637
244.057
209.519
187.931
7536.7
3689.76
1886.59
1004.49
600.862
402.103
301.289
246.562
214.98
195.538
5627.63
2636.25
1417.32
882.17
645.861
521.604
450.842
406.53
377.56
362.982
5505.85
5432.46
5368.67
5323.61
5290.77
5267.29
5249.61
5236.36
5225.76
5215.37
4437.76
4438.57
4438.27
4437.76
4437.54
4437.7
4438.14
4438.66
4438.56
4438.3
294.682
291.055
286.834
280.843
274.516
269.133
265.145
262.511
261.391
261.567
241.567
226.953
210.756
193.344
177.605
165.184
156.145
149.653
144.676
140.836
394.02
345.057
293.72
246.734
210.16
184.204
166.597
154.636
146.147
140.015
643.176
521.527
406.747
315.154
252.079
211.193
185.281
168.684
157.161
148.858
1058.96
785.37
558.222
397.371
297.174
236.575
200.046
177.526
162.848
152.894
1577.79
1077.33
708.137
471.892
336.522
259.012
214.15
187.423
170.126
158.531
2097.85
1317.46
809.545
515.131
359.38
274.269
226.615
198.58
181.286
170.105
1825.24
1189.42
817.404
616.413
506.726
439.902
396.881
367.868
347.779
338.354
5275.49
5235.41
5196.65
5165.81
5141.25
5122.19
5107.13
5095.42
5085.91
5076.55
4315.49
4316.33
4316.19
4315.92
4315.93
4316.22
4316.7
4317.24
4317.47
4317.6
257.321
256.378
254.993
252.492
249.687
247.321
245.674
244.761
244.681
245.318
149.393
147.644
144.879
140.689
136.236
132.489
129.736
127.756
126.117
124.673
186.054
179.285
168.877
156.83
146.065
137.758
131.792
127.54
124.336
121.836
253.628
234.606
209.229
184.744
165.63
152.123
142.971
136.78
132.133
128.45
373.038
323.757
268.313
221.947
189.24
167.482
153.216
143.775
137.201
132.457
524.852
427.522
331.169
259.303
212.631
183.136
164.436
152.446
144.071
138.054
702.823
536.376
393.064
296.646
238.257
202.675
180.608
166.548
157.342
151.184
831.054
676.933
553.449
472.366
418.944
381.979
355.606
336.639
322.742
316.929
5065.85
5044.87
5021.82
5001.01
4982.99
4968.01
4955.66
4945.7
4937.52
4929.4
4188.21
4188.88
4188.62
4188.29
4188.21
4188.39
4188.71
4189.11
4189.41
4189.75
241.529
240.789
239.65
237.863
236.036
234.619
233.741
233.384
233.567
234.148
124.453
124.158
123.388
121.833
120.089
118.674
117.746
117.174
116.676
116.12
131.606
130.823
128.243
124.419
120.668
117.669
115.505
113.972
112.793
111.789
152.378
149.675
143.428
136.114
129.828
125.135
121.853
119.603
117.807
116.207
191.076
182.051
167.531
153.282
142.116
134.061
128.404
124.463
121.593
119.411
239.926
220.672
194.56
172.041
155.679
144.334
136.523
131.207
127.245
124.204
311.76
274.393
232.626
200.19
177.897
162.796
152.514
145.511
140.719
137.481
514.759
470.653
424.565
388.705
361.244
340.173
323.824
311.404
301.809
298.393
4868.52
4857.25
4843.36
4829.46
4816.56
4805.2
4795.45
4787.32
4780.57
4773.81
4054.38
4054.87
4054.49
4054.07
4053.88
4053.92
4054.07
4054.31
4054.61
4055.04
231.53
230.706
229.486
227.889
226.433
225.401
224.826
224.656
224.866
225.272
115.883
115.587
114.988
113.979
112.972
112.259
111.898
111.776
111.675
111.462
114.28
114.205
113.148
111.428
109.754
108.471
107.613
107.069
106.677
106.295
121.472
121.239
119.202
116.472
114.058
112.266
111.058
110.288
109.656
108.983
136.173
134.477
129.916
124.835
120.596
117.397
115.074
113.433
112.229
111.275
154.512
150.593
142.592
134.799
128.647
124.079
120.747
118.405
116.579
115.079