/*--------------------------------*- C++ -*----------------------------------*\
| =========                 |                                                 |
| \\      /  F ield         | foam-extend: Open Source CFD                    |
|  \\    /   O peration     | Version:     4.0                                |
|   \\  /    A nd           | Web:         http://www.foam-extend.org         |
|    \\/     M anipulation  |                                                 |
\*---------------------------------------------------------------------------*/
FoamFile
{
    version     2.0;
    format      ascii;
    class       volScalarField;
    location    "600";
    object      k;
}
// * * * * * * * * * * * * * * * * * * * * * * * * * * * * * * * * * * * * * //

dimensions      [0 2 -2 0 0 0 0];

internalField   nonuniform List<scalar> 
34480
(
8.73681
8.73386
8.73318
8.73473
8.73903
8.74786
8.76816
8.83195
9.05392
9.65971
8.75737
8.16872
8.0637
8.33102
8.93062
9.90664
11.7971
16.2552
29.9868
69.1283
13.6964
12.313
11.9034
12.099
12.7441
13.9904
16.8166
23.4568
43.7841
105.461
13.1478
11.7282
11.3273
11.567
12.3235
13.8762
17.4124
25.7239
51.5195
132.617
12.2336
10.93
10.624
10.9205
11.7836
13.558
17.5553
27.0403
57.4853
156.903
11.2221
10.0496
9.77897
10.0793
10.9677
12.8825
17.2528
27.8692
63.1968
182.191
10.4829
9.44963
9.23128
9.52078
10.4091
12.3776
16.9482
28.298
67.3858
203.043
9.22384
8.45339
8.28279
8.51456
9.23161
10.9104
15.0503
26.0438
65.9486
209.152
6.65765
6.40998
6.37313
6.48735
6.81607
7.5533
9.57809
16.2055
43.6847
149.67
9.22213
9.22137
9.22588
9.23676
9.25301
9.27333
9.29669
9.32975
9.39558
9.45987
8.65187
8.64819
8.64701
8.64848
8.65334
8.66361
8.68289
8.71711
8.79443
9.04825
7.59876
7.17331
7.05869
7.2043
7.64655
8.53691
10.1509
12.2981
16.1482
42.8282
11.3216
10.2792
9.98055
10.2022
10.9245
12.314
14.7981
18.3003
24.9976
69.6899
11.19
10.0632
9.74914
10.0076
10.8255
12.4317
15.3869
19.9118
29.6232
90.5749
10.7296
9.64794
9.38851
9.66929
10.5416
12.2706
15.5209
20.7143
32.986
109.722
10.0706
9.07008
8.82572
9.09593
9.95569
11.7288
15.1839
20.9642
35.9184
129.994
9.5826
8.67587
8.4699
8.71743
9.54568
11.3037
14.8577
20.9951
38.0418
147.348
8.59293
7.90665
7.73827
7.92835
8.57419
10.0168
13.1196
18.8602
36.4479
152.739
6.46594
6.23079
6.18352
6.25864
6.51345
7.08847
8.43098
11.3945
22.7009
104.22
9.09204
9.08664
9.08613
9.09156
9.10209
9.11717
9.13646
9.16695
9.23483
9.4167
8.5532
8.54961
8.54816
8.54896
8.55238
8.55932
8.5714
8.58888
8.62203
8.68721
6.59161
6.35715
6.27996
6.34845
6.58322
7.07343
8.01098
9.57085
11.6534
17.1506
9.12691
8.48323
8.30139
8.47288
9.02323
10.0829
11.9487
14.8098
18.3808
30.4868
9.27287
8.52764
8.32217
8.53654
9.19993
10.5016
12.8577
16.6435
21.9243
42.6531
9.17214
8.4229
8.24633
8.4783
9.19508
10.6286
13.298
17.7012
24.4734
54.9026
8.82571
8.1083
7.93413
8.16214
8.8795
10.3775
13.2853
18.2326
26.6337
68.4232
8.57052
7.89889
7.74948
7.96123
8.6598
10.1627
13.199
18.4805
28.2385
80.9848
7.87129
7.35453
7.22936
7.39384
7.93787
9.1678
11.8278
16.7847
27.0594
86.7801
6.23688
6.04956
6.01287
6.07352
6.27608
6.73049
7.77828
10.2259
16.8215
58.8844
8.97097
8.96268
8.95932
8.96178
8.96936
8.98205
8.99911
9.02811
9.10253
9.3018
8.44037
8.43778
8.43673
8.4374
8.43996
8.44477
8.45233
8.46004
8.47327
8.49345
5.90647
5.78771
5.73888
5.76559
5.87429
6.10464
6.54858
7.33441
8.42005
10.3721
7.48655
7.13161
7.02395
7.11937
7.44749
8.09653
9.2558
11.1214
13.3556
17.8732
7.75216
7.30196
7.16905
7.30409
7.73711
8.60354
10.1867
12.8598
16.2813
24.5939
7.8726
7.39322
7.27455
7.42818
7.91534
8.90617
10.7689
14.0259
18.4572
31.5121
7.75392
7.272
7.14881
7.30845
7.81486
8.887
10.9882
14.8019
20.3277
39.4922
7.67427
7.20324
7.09511
7.24878
7.75693
8.85991
11.1032
15.2815
21.6928
47.1656
7.22682
6.85402
6.76107
6.88509
7.28789
8.19867
10.1711
14.1356
20.9002
51.0181
6.02721
5.88102
5.85251
5.89824
6.04975
6.38215
7.11275
8.88397
13.042
34.1631
8.83595
8.82767
8.82409
8.82618
8.83354
8.84668
8.86528
8.8954
8.96521
9.12162
8.315
8.31337
8.31268
8.31313
8.31479
8.31773
8.32197
8.32431
8.32805
8.33138
5.48693
5.4265
5.39488
5.40224
5.44778
5.54694
5.73806
6.07603
6.50935
6.98934
6.39471
6.21257
6.14926
6.18923
6.34938
6.6761
7.27459
8.27451
9.46413
10.9529
6.66154
6.40376
6.31765
6.38681
6.62512
7.10968
8.00992
9.6014
11.6455
14.7408
6.87573
6.58381
6.50453
6.59037
6.87533
7.45844
8.56656
10.6187
13.4137
18.6559
6.89335
6.58224
6.49539
6.5925
6.90649
7.5715
8.88248
11.4212
15.0546
23.3424
6.92493
6.60562
6.52743
6.62553
6.95527
7.66659
9.11125
11.9947
16.2942
27.9232
6.67368
6.41225
6.34319
6.42719
6.6976
7.30023
8.58612
11.3526
15.9191
30.3201
5.83879
5.72641
5.70414
5.73598
5.84315
6.07198
6.54425
7.6695
10.1477
19.8861
8.69178
8.68366
8.67996
8.68174
8.68875
8.70172
8.72049
8.74891
8.80796
8.92119
8.178
8.1771
8.1767
8.17697
8.17796
8.17966
8.182
8.18262
8.1838
8.18377
5.24772
5.21472
5.19332
5.19355
5.21261
5.25699
5.34551
5.50467
5.70038
5.82382
5.72445
5.63426
5.59739
5.61026
5.68022
5.82722
6.10193
6.56876
7.12271
7.58771
5.93257
5.78921
5.73434
5.76575
5.88554
6.12889
6.58
7.39263
8.46689
9.635
6.1532
5.98247
5.93161
5.9752
6.12805
6.43631
7.01478
8.11593
9.6794
11.8114
6.23312
6.03995
5.98131
6.03637
6.21729
6.59292
7.31877
8.76968
10.9315
14.5286
6.32083
6.11265
6.05891
6.11758
6.31823
6.74046
7.57431
9.29692
11.9479
17.1878
6.21063
6.03475
5.98609
6.04033
6.21232
6.58505
7.3489
9.03308
11.8772
18.5631
5.67202
5.5882
5.57188
5.59334
5.66705
5.82004
6.11631
6.78079
8.1238
12.1955
8.53758
8.5299
8.52628
8.52785
8.53446
8.54685
8.56475
8.59026
8.63651
8.71175
8.02997
8.02957
8.02936
8.02951
8.03006
8.03097
8.03226
8.03253
8.03336
8.03313
5.11856
5.09815
5.08279
5.08079
5.08924
5.11143
5.15929
5.25093
5.3687
5.4223
5.33747
5.29194
5.26987
5.27181
5.30042
5.36409
5.48826
5.70402
5.95717
6.08324
5.47408
5.39356
5.35837
5.37109
5.42869
5.5452
5.75904
6.14249
6.6559
7.06113
5.65768
5.55965
5.52774
5.54801
5.62531
5.77771
6.05585
6.58225
7.35647
8.17204
5.75218
5.63529
5.59692
5.62631
5.72513
5.92463
6.29548
7.02937
8.17022
9.67409
5.85719
5.72556
5.6901
5.72306
5.83916
6.07584
6.52177
7.4327
8.89243
11.1747
5.84025
5.72649
5.69377
5.72708
5.8311
6.04994
6.47586
7.39371
8.98798
11.9709
5.53054
5.4696
5.45828
5.47216
5.52141
5.62085
5.80371
6.18417
6.89589
8.5056
8.37281
8.36578
8.3624
8.36379
8.36986
8.38128
8.39742
8.41937
8.4547
8.50432
7.87127
7.87116
7.87107
7.87116
7.87143
7.8719
7.87264
7.87304
7.87414
7.8744
5.05105
5.0367
5.02513
5.02268
5.02691
5.03979
5.0703
5.13381
5.22418
5.26983
5.12335
5.09884
5.08501
5.08338
5.09459
5.12271
5.18298
5.29497
5.43247
5.47708
5.19911
5.15208
5.1291
5.13351
5.16096
5.21679
5.31974
5.50511
5.75807
5.9041
5.33311
5.27679
5.25693
5.26552
5.3031
5.37578
5.5056
5.74797
6.11444
6.41758
5.41751
5.34788
5.32341
5.3383
5.39016
5.49208
5.6744
6.02305
6.57953
7.18368
5.517
5.43573
5.41316
5.43062
5.49519
5.62282
5.85179
6.29944
7.03251
7.98175
5.55642
5.4858
5.46486
5.48438
5.54428
5.66705
5.89527
6.36236
7.18265
8.45644
5.41515
5.37186
5.36449
5.37318
5.40538
5.46859
5.58046
5.79613
6.17825
6.85168
8.19689
8.19071
8.18768
8.18892
8.19433
8.20444
8.21827
8.23639
8.26274
8.29596
7.70202
7.70208
7.70206
7.70211
7.70224
7.70245
7.70291
7.7035
7.70495
7.70572
5.01572
5.00467
4.99564
4.99329
4.99571
5.00424
5.02623
5.07581
5.15435
5.20291
5.00848
4.99408
4.985
4.98263
4.98679
4.99991
5.03258
5.10055
5.19428
5.22951
5.04096
5.01199
4.99668
4.9977
5.01094
5.03846
5.09084
5.18897
5.3317
5.40486
5.12927
5.09634
5.08394
5.08712
5.10487
5.13892
5.19983
5.31507
5.49906
5.62976
5.19467
5.15349
5.13817
5.14535
5.17165
5.22227
5.31079
5.47565
5.74787
6.00429
5.2782
5.22881
5.21486
5.22361
5.25837
5.32533
5.44103
5.6564
6.01481
6.4138
5.34821
5.30626
5.29357
5.3045
5.33718
5.40286
5.52131
5.75135
6.1584
6.70452
5.32479
5.29461
5.29018
5.29552
5.31629
5.3559
5.42403
5.54612
5.75351
6.06915
8.0094
8.00418
8.00157
8.00265
8.00732
8.01591
8.0272
8.04155
8.06069
8.08288
7.52223
7.52238
7.5224
7.52242
7.52248
7.52257
7.52285
7.52357
7.52527
7.52646
4.99624
4.98728
4.98005
4.97794
4.97946
4.98561
5.00272
5.04406
5.11618
5.16898
4.94804
4.93881
4.93262
4.93046
4.93182
4.9384
4.95819
5.00515
5.07994
5.12073
4.95346
4.93472
4.92441
4.92418
4.93067
4.94474
4.97313
5.03067
5.12433
5.18061
5.00628
4.98648
4.97865
4.97955
4.98775
5.00359
5.03285
5.09148
5.1951
5.27275
5.05261
5.02829
5.01886
5.02215
5.03502
5.05948
5.10219
5.18213
5.32374
5.45515
5.11779
5.08801
5.07959
5.08374
5.10201
5.13647
5.19462
5.29936
5.47994
5.66975
5.20204
5.17837
5.17118
5.17702
5.19371
5.22684
5.28589
5.39689
5.59857
5.85425
5.25682
5.23606
5.23368
5.237
5.25042
5.27515
5.31665
5.38595
5.49863
5.66275
7.80998
7.80577
7.80361
7.80453
7.8084
7.81541
7.82421
7.83513
7.84864
7.86322
7.33182
7.33201
7.33206
7.33208
7.3321
7.33212
7.3323
7.33303
7.33485
7.33634
4.98425
4.97676
4.97086
4.96901
4.97001
4.97466
4.9885
5.0242
5.09193
5.14882
4.9163
4.90997
4.90564
4.90392
4.90421
4.90778
4.92089
4.95617
5.0207
5.06841
4.90676
4.89424
4.88729
4.88669
4.88989
4.89726
4.91348
4.95012
5.01878
5.07263
4.93493
4.92265
4.91765
4.9177
4.92144
4.92885
4.94341
4.97565
5.04109
5.10201
4.96594
4.95157
4.94587
4.94726
4.95329
4.96471
4.98505
5.02508
5.10473
5.18899
5.0147
4.99673
4.99174
4.99365
5.00313
5.02071
5.04994
5.10212
5.1981
5.30646
5.1038
5.09129
5.08761
5.0906
5.09835
5.11369
5.14125
5.19323
5.29361
5.43023
5.2076
5.19343
5.19243
5.1946
5.20345
5.21909
5.24453
5.28409
5.34501
5.4374
7.59842
7.59517
7.59347
7.59423
7.5973
7.60277
7.60934
7.61734
7.62659
7.63596
7.13071
7.13092
7.13098
7.131
7.131
7.131
7.13111
7.13174
7.13355
7.13523
4.97573
4.96935
4.96448
4.96289
4.96355
4.96713
4.97852
5.00979
5.07385
5.13463
4.89926
4.89472
4.89165
4.89036
4.89027
4.89239
4.90163
4.92936
4.98679
5.04027
4.88262
4.87416
4.86953
4.86891
4.87042
4.87427
4.88382
4.90844
4.96212
5.0166
4.89511
4.88731
4.8841
4.88389
4.8856
4.88917
4.89676
4.91578
4.96087
5.01543
4.91532
4.90685
4.90349
4.904
4.90664
4.91168
4.92112
4.94173
4.98988
5.05348
4.95128
4.94038
4.93746
4.93836
4.94332
4.95235
4.96718
4.99397
5.04795
5.12054
5.04042
5.03444
5.03289
5.03433
5.03737
5.04345
5.05479
5.07773
5.12745
5.21059
5.17315
5.16351
5.16337
5.16496
5.17103
5.18122
5.19706
5.21984
5.25242
5.30781
7.37458
7.37221
7.37094
7.37154
7.37388
7.37795
7.38265
7.38827
7.3944
7.40028
6.91879
6.919
6.91908
6.9191
6.9191
6.91908
6.91914
6.91966
6.92131
6.92307
4.96884
4.96336
4.95935
4.95802
4.95846
4.96121
4.97055
4.99787
5.05828
5.1228
4.88962
4.8863
4.88412
4.88319
4.88302
4.88439
4.89116
4.91333
4.96469
5.02252
4.87049
4.8648
4.86179
4.86126
4.86188
4.8638
4.86945
4.88643
4.9296
4.98468
4.87375
4.86876
4.86669
4.86646
4.86727
4.86908
4.87327
4.88512
4.91779
4.96853
4.88701
4.88207
4.88014
4.88026
4.88128
4.88328
4.88745
4.89827
4.92901
4.98129
4.91386
4.90719
4.90551
4.906
4.90869
4.91349
4.9212
4.93543
4.96729
5.02108
5.0008
4.99843
4.99811
4.99876
4.99949
5.00106
5.00445
5.01336
5.03733
5.09362
5.14961
5.14308
5.14347
5.14478
5.14917
5.15614
5.16624
5.17953
5.19652
5.23142
7.13848
7.13684
7.13594
7.1364
7.1381
7.14097
7.14422
7.14801
7.15191
7.15549
6.696
6.69622
6.6963
6.69633
6.69633
6.69629
6.69633
6.69673
6.69814
6.69984
4.96279
4.95813
4.95486
4.95381
4.9541
4.95616
4.96367
4.98712
5.0433
5.1112
4.88377
4.88135
4.87981
4.87917
4.87902
4.88
4.88503
4.90268
4.94803
5.00871
4.86455
4.86082
4.85894
4.85852
4.85866
4.85949
4.86276
4.8745
4.90923
4.96383
4.86284
4.85966
4.85833
4.85815
4.85856
4.85957
4.86202
4.86963
4.89373
4.94064
4.87186
4.86901
4.86792
4.86788
4.86816
4.86881
4.87049
4.87622
4.89646
4.94066
4.89253
4.88843
4.88749
4.88782
4.8894
4.89212
4.89632
4.90415
4.92352
4.96507
4.97622
4.97569
4.976
4.97627
4.97602
4.97564
4.97546
4.97789
4.98862
5.02964
5.13369
5.12929
5.12999
5.13119
5.13455
5.13962
5.14626
5.15415
5.16245
5.18514
6.8902
6.88914
6.88855
6.88888
6.89005
6.89195
6.89413
6.89657
6.89893
6.90103
6.46234
6.46255
6.46264
6.46267
6.46267
6.46263
6.46263
6.46292
6.46407
6.4656
4.95728
4.95343
4.95087
4.95011
4.9503
4.95176
4.95755
4.97701
5.02786
5.09817
4.87996
4.87825
4.87718
4.87674
4.87666
4.87741
4.88115
4.89486
4.93375
4.9954
4.86177
4.85942
4.85832
4.85801
4.85792
4.85814
4.85991
4.86784
4.8951
4.94749
4.85767
4.85569
4.85484
4.8547
4.85494
4.85556
4.85706
4.86197
4.87954
4.92168
4.86411
4.86248
4.86187
4.86176
4.86175
4.86184
4.86241
4.86545
4.87883
4.91585
4.88061
4.87808
4.87756
4.87783
4.87885
4.88052
4.88296
4.88741
4.89922
4.93114
4.96026
4.96049
4.96108
4.96118
4.96063
4.95963
4.95816
4.95789
4.96184
4.99294
5.12271
5.11981
5.12066
5.12182
5.12454
5.1284
5.13297
5.13776
5.14112
5.15596
6.62994
6.62931
6.62895
6.62918
6.62994
6.63114
6.63254
6.63401
6.63535
6.63651
6.21783
6.21807
6.21817
6.21821
6.21821
6.21817
6.21814
6.21832
6.21919
6.22046
4.95222
4.94924
4.9474
4.94695
4.94707
4.948
4.95215
4.96739
5.01142
5.08203
4.87734
4.87621
4.87545
4.87515
4.87513
4.87574
4.87848
4.88868
4.9205
4.98053
4.86062
4.85923
4.85865
4.85843
4.85824
4.85816
4.859
4.86406
4.88436
4.93212
4.8556
4.85439
4.85385
4.85375
4.8539
4.85431
4.85524
4.85834
4.87066
4.90669
4.86038
4.85943
4.85906
4.85894
4.85884
4.85875
4.85888
4.86046
4.86909
4.89889
4.87376
4.87222
4.87193
4.87216
4.87287
4.87397
4.87548
4.87804
4.88501
4.90844
4.94836
4.94873
4.94935
4.94941
4.94889
4.9479
4.94627
4.94516
4.94577
4.96963
5.11456
5.11274
5.11364
5.11478
5.11706
5.12013
5.12343
5.1264
5.1269
5.13628
6.35802
6.35768
6.35749
6.35764
6.3581
6.35882
6.35967
6.36049
6.36117
6.36174
5.96302
5.96311
5.96322
5.96326
5.96325
5.9632
5.96314
5.96322
5.9638
5.96474
4.94758
4.94558
4.94449
4.94434
4.94442
4.9449
4.94749
4.95835
4.99375
5.06094
4.87548
4.87474
4.87416
4.87392
4.87394
4.87446
4.87642
4.88358
4.90784
4.96279
4.86029
4.85954
4.85928
4.85913
4.85893
4.85874
4.85905
4.86197
4.87575
4.9159
4.85515
4.85444
4.85409
4.85402
4.85411
4.85438
4.85495
4.8568
4.86483
4.89336
4.85878
4.8582
4.85796
4.85784
4.85773
4.85762
4.8576
4.85838
4.8636
4.88588
4.8693
4.86837
4.86821
4.86838
4.86888
4.86962
4.87056
4.87198
4.8758
4.89153
4.9373
4.9375
4.93803
4.93808
4.93772
4.93697
4.93565
4.93455
4.93371
4.95183
5.10733
5.10632
5.10719
5.1083
5.11024
5.11274
5.11521
5.11705
5.11587
5.12124
6.07498
6.07482
6.07473
6.07483
6.07508
6.07546
6.07594
6.07634
6.07664
6.07686
5.6976
5.69822
5.69833
5.69837
5.69837
5.69832
5.69824
5.69823
5.69852
5.69913
4.94319
4.94228
4.94196
4.94211
4.94218
4.94227
4.94347
4.94997
4.97493
5.03281
4.87401
4.87341
4.87287
4.87264
4.87269
4.87313
4.87451
4.87917
4.89589
4.94166
4.86029
4.85992
4.85982
4.85973
4.85957
4.85939
4.85945
4.8609
4.86894
4.89841
4.85558
4.85517
4.85494
4.85488
4.85494
4.85511
4.85545
4.85646
4.86111
4.88105
4.85833
4.85797
4.85779
4.85769
4.8576
4.85751
4.85746
4.8578
4.86061
4.87532
4.86555
4.86502
4.86492
4.86503
4.86534
4.86578
4.86632
4.86702
4.86883
4.87794
4.92488
4.92482
4.9252
4.92523
4.925
4.92449
4.92356
4.92273
4.92153
4.93482
5.09831
5.09791
5.0987
5.09973
5.10134
5.10335
5.10522
5.10625
5.10415
5.10646
5.78161
5.78155
5.78153
5.78159
5.7817
5.78187
5.78207
5.78223
5.78234
5.78235
5.42393
5.4242
5.42428
5.42431
5.42431
5.42427
5.42422
5.42418
5.42427
5.42455
4.93776
4.93798
4.93849
4.93891
4.939
4.9388
4.93886
4.94139
4.95465
4.99519
4.87256
4.87184
4.8713
4.87106
4.87111
4.87147
4.8724
4.87516
4.88507
4.91766
4.86025
4.86005
4.86
4.85993
4.85984
4.85975
4.85976
4.86036
4.86403
4.88109
4.85659
4.85635
4.85621
4.85617
4.85621
4.85631
4.85651
4.85701
4.85925
4.87053
4.85859
4.85837
4.85824
4.85816
4.8581
4.85804
4.85801
4.85814
4.85939
4.86724
4.86193
4.86166
4.86161
4.86166
4.86181
4.86203
4.86226
4.86252
4.86317
4.86726
4.90979
4.9095
4.90967
4.90965
4.90946
4.90908
4.90847
4.90792
4.90704
4.91597
5.08069
5.08073
5.0814
5.08226
5.08347
5.08494
5.08623
5.08662
5.0842
5.08418
5.47891
5.47889
5.4789
5.47893
5.47896
5.47901
5.47906
5.47908
5.47906
5.47903
5.14094
5.14086
5.14088
5.14089
5.14089
5.14088
5.14086
5.14084
5.14087
5.14091
4.92375
4.92492
4.92604
4.92664
4.92676
4.92647
4.9259
4.92563
4.92824
4.94375
4.87033
4.86946
4.86896
4.86874
4.86876
4.86901
4.86958
4.87097
4.87545
4.8925
4.86021
4.86008
4.86001
4.85995
4.85991
4.85991
4.85996
4.8602
4.86135
4.86761
4.85818
4.85804
4.85796
4.85793
4.85795
4.85802
4.85814
4.85836
4.85917
4.86356
4.85941
4.85928
4.8592
4.85915
4.85911
4.85909
4.85909
4.85915
4.85958
4.8625
4.85963
4.85955
4.85952
4.85953
4.85958
4.85966
4.85974
4.85981
4.85995
4.86107
4.89133
4.8909
4.89086
4.89076
4.89057
4.89027
4.8899
4.88963
4.8895
4.89446
5.03171
5.0319
5.03235
5.0329
5.03363
5.03449
5.0352
5.0352
5.03328
5.03185
5.1669
5.16689
5.1669
5.16691
5.16691
5.16691
5.1669
5.16688
5.16682
5.16682
11.2313
11.341
11.2933
11.0723
84.9984
86.8494
87.1694
87.6903
146.813
151.844
152.021
150.296
205.873
214.603
214.1
208.964
266.455
279.1
277.543
269.105
333.096
349.958
347.724
338.614
393.139
413.972
411.449
403.376
428.147
452.203
450.057
444.415
337.542
358.052
355.602
353.23
11.378
11.6071
11.4632
11.0967
9.69103
9.74787
9.74949
9.70342
78.4429
81.2918
81.9543
81.8509
138.433
148.637
149.381
146.467
197.936
218.339
218.205
211.064
261.278
294.145
292.364
280.87
334.062
381.625
379.777
365.721
402.25
464.997
464.145
449.413
445.261
521.369
522.771
509.42
344.978
411.827
411.023
404.3
10.6435
10.8608
10.7964
10.5779
8.76315
8.77419
8.77232
8.76077
27.3268
29.6921
28.8647
26.2166
50.9783
55.2872
53.3752
48.3297
76.7136
83.2037
79.6525
71.594
106.23
115.253
109.472
97.6438
142.884
155.423
147.27
130.422
180.777
196.87
186.133
164.012
209.881
229.309
216.575
189.987
164.316
179.459
168.018
146.714
9.86584
9.95166
9.92869
9.83209
8.50123
8.50193
8.50179
8.50106
11.9705
12.2019
12.1333
11.8815
22.0713
22.7633
22.606
21.9339
33.0523
34.4458
34.0326
32.5332
45.8737
48.1171
47.1987
44.4233
62.4425
65.8817
64.1994
59.5522
80.0985
84.6913
81.9443
75.0849
94.374
100.205
96.3863
87.2669
72.47
76.9124
73.1058
65.3319
9.40958
9.45149
9.44819
9.40975
8.32362
8.32292
8.32247
8.32221
7.41372
7.50313
7.51495
7.45941
12.2703
12.556
12.6036
12.4621
17.5401
18.121
18.1618
17.8266
23.6281
24.5765
24.5167
23.8274
31.7141
33.21
32.9515
31.6506
40.3455
42.3638
41.7341
39.612
47.3055
49.9278
48.8533
45.7244
34.8151
36.7269
35.3725
32.443
9.06421
9.08664
9.08821
9.07291
8.17348
8.17262
8.17206
8.17177
5.88655
5.89719
5.89355
5.87704
7.87393
7.93157
7.94382
7.91823
10.3872
10.545
10.5817
10.5279
13.3247
13.6261
13.6679
13.5383
17.3749
17.9194
17.9432
17.6449
21.6642
22.4482
22.3745
21.8108
25.052
26.1446
25.9226
24.9582
17.7116
18.46
18.0252
17.0279
8.78197
8.79295
8.79537
8.79051
8.02273
8.02188
8.02134
8.02107
5.42382
5.42227
5.4154
5.4035
6.1189
6.12138
6.11479
6.10136
7.21585
7.24441
7.24878
7.23606
8.56747
8.64398
8.6613
8.64094
10.575
10.751
10.7849
10.73
12.7002
12.9753
12.9963
12.875
14.3613
14.7856
14.7736
14.5169
10.3294
10.5915
10.4749
10.1995
8.53719
8.54202
8.5442
8.54377
7.86441
7.8636
7.86309
7.86285
5.25981
5.25578
5.24826
5.23773
5.45909
5.44958
5.43828
5.42702
5.89672
5.88842
5.87849
5.87042
6.46634
6.46828
6.46311
6.45868
7.40348
7.43999
7.4465
7.44011
8.40958
8.47911
8.4889
8.47479
9.23846
9.37568
9.3872
9.33535
7.38181
7.45332
7.42806
7.37425
8.31157
8.31332
8.31486
8.31583
7.69623
7.69544
7.69495
7.69476
5.19104
5.18653
5.1789
5.16887
5.20793
5.1981
5.18711
5.17672
5.36917
5.35499
5.3427
5.33496
5.59785
5.58293
5.57124
5.56731
6.02097
6.01512
6.00801
6.00728
6.47898
6.47836
6.47302
6.47707
6.91107
6.93918
6.94041
6.9365
6.21142
6.22015
6.21296
6.21031
8.09057
8.09085
8.09177
8.09293
7.51751
7.51673
7.51627
7.51611
5.15631
5.1514
5.14355
5.13372
5.10328
5.09477
5.08477
5.0751
5.14736
5.1344
5.12307
5.11577
5.23419
5.2189
5.2074
5.20315
5.42812
5.41406
5.40409
5.40301
5.64327
5.62603
5.61579
5.61997
5.88955
5.88471
5.87909
5.88202
5.69672
5.68778
5.68267
5.6883
7.86697
7.86658
7.86707
7.8681
7.32795
7.32719
7.32675
7.32662
5.13519
5.1297
5.12147
5.11175
5.05461
5.0471
5.0379
5.02893
5.04605
5.0351
5.02515
5.01852
5.07174
5.05926
5.04952
5.0455
5.16113
5.1482
5.13921
5.13783
5.27018
5.25309
5.24328
5.24576
5.42723
5.41635
5.40925
5.41125
5.44371
5.43163
5.42673
5.43206
7.63757
7.63691
7.63714
7.63799
7.12744
7.1267
7.12629
7.12618
5.11982
5.11353
5.1048
5.09525
5.0287
5.02165
5.01299
5.00479
4.9957
4.98628
4.97751
4.97174
4.9941
4.98424
4.97626
4.97284
5.03318
5.0229
5.01564
5.01447
5.09328
5.07986
5.07194
5.07338
5.20575
5.1963
5.19004
5.19065
5.30887
5.29794
5.29355
5.29747
7.40064
7.39993
7.40002
7.40068
6.91594
6.91522
6.91483
6.91476
5.10676
5.09947
5.09021
5.08103
5.01222
5.00522
4.99694
4.9897
4.96818
4.95974
4.95193
4.94721
4.95446
4.94654
4.94001
4.93741
4.96874
4.96082
4.95517
4.95446
5.00472
4.99492
4.98896
4.98995
5.09484
5.08821
5.08335
5.08305
5.23265
5.2238
5.22016
5.22289
7.15506
7.15443
7.15444
7.15494
6.69344
6.69275
6.69239
6.69235
5.09417
5.08575
5.07602
5.06751
4.99933
4.99213
4.98424
4.9782
4.95104
4.94323
4.9363
4.93284
4.9323
4.92575
4.92043
4.91877
4.93456
4.92845
4.92415
4.924
4.9577
4.95077
4.94649
4.94735
5.0373
5.03328
5.02975
5.02883
5.18713
5.18023
5.17735
5.17925
6.90009
6.89961
6.89958
6.89991
6.45999
6.45935
6.45902
6.45902
5.08074
5.07119
5.06119
5.05377
4.98722
4.97978
4.97239
4.96783
4.93836
4.93107
4.92506
4.92304
4.91804
4.91251
4.90824
4.90756
4.91481
4.91008
4.90688
4.90728
4.93023
4.92544
4.92252
4.92345
5.00568
5.00376
5.00129
4.99987
5.15805
5.15273
5.15052
5.15187
6.63522
6.63492
6.63489
6.63507
6.21575
6.21516
6.21487
6.21491
5.06526
5.05479
5.0449
5.03902
4.97435
4.96685
4.96019
4.95729
4.92696
4.92031
4.91539
4.91489
4.90695
4.90226
4.89897
4.8992
4.90157
4.89793
4.89564
4.89648
4.91152
4.9083
4.90648
4.90754
4.98579
4.98556
4.98387
4.98192
5.13771
5.13361
5.13196
5.13295
6.36023
6.36012
6.36009
6.36015
5.96105
5.96053
5.96027
5.96035
5.04637
5.03554
5.02634
5.0225
4.95973
4.95257
4.94689
4.94561
4.91488
4.9092
4.90558
4.9065
4.8966
4.89275
4.89036
4.89129
4.89082
4.88809
4.88655
4.88763
4.89632
4.89424
4.89325
4.89439
4.96969
4.97084
4.96966
4.96709
5.12148
5.11837
5.11719
5.11793
6.07522
6.07528
6.07527
6.07521
5.69658
5.69612
5.69591
5.69602
5.02236
5.01221
5.00458
5.00312
4.94256
4.93628
4.9317
4.93153
4.90091
4.89658
4.89439
4.89628
4.88585
4.88291
4.88131
4.88253
4.88075
4.87884
4.87785
4.87888
4.88244
4.88117
4.88075
4.88179
4.95227
4.95448
4.95361
4.95044
5.10534
5.10327
5.10255
5.10297
5.78069
5.78091
5.78091
5.78076
5.42322
5.42281
5.42264
5.42279
4.99031
4.98253
4.97763
4.97854
4.9218
4.91692
4.91327
4.91324
4.88492
4.8822
4.88124
4.88326
4.87475
4.87278
4.87177
4.87276
4.8712
4.87
4.86935
4.87004
4.86997
4.86923
4.86906
4.86982
4.92996
4.93249
4.93179
4.92859
5.0818
5.08121
5.08098
5.08069
5.4777
5.47806
5.47807
5.47784
5.14081
5.14037
5.14026
5.1405
4.94208
4.93851
4.93722
4.93936
4.89594
4.8925
4.88954
4.88899
4.86948
4.86808
4.8677
4.86896
4.86514
4.86394
4.86324
4.86373
4.86374
4.86295
4.86247
4.86283
4.86151
4.86101
4.86088
4.86134
4.9017
4.90294
4.90238
4.90061
5.0281
5.02921
5.02936
5.02801
5.16616
5.16663
5.16664
5.16633
10.0901
9.34343
9.03283
8.9191
8.85172
8.8052
8.7753
8.75816
8.74692
8.73995
105.672
50.3523
36.567
29.9943
24.1281
19.3226
15.6715
12.9986
11.1226
9.81781
163.611
72.9207
52.0196
43.4077
36.0859
29.9818
25.0364
21.1426
18.1334
15.8287
207.342
84.4631
56.5773
45.8158
37.649
30.8179
25.3281
21.0682
17.8236
15.3648
240.772
89.5225
58.8387
46.5015
37.9394
30.5188
24.6558
20.1872
16.8427
14.3728
275.504
94.3869
60.346
46.4379
37.5288
29.5555
23.4189
18.8483
15.5494
13.1899
301.707
96.9421
60.5478
45.6773
36.7097
28.4004
22.1743
17.6385
14.4478
12.2471
306.609
91.737
55.1879
40.2285
31.8937
24.0676
18.543
14.714
12.1996
10.5276
214.33
54.0794
29.4562
20.067
15.3895
11.5861
9.49381
8.26477
7.52978
7.03874
9.57994
9.53724
9.38194
9.35255
9.3052
9.27885
9.25798
9.2465
9.23793
9.22904
9.34135
9.0364
8.8869
8.80039
8.74468
8.70788
8.6845
8.67063
8.66118
8.65468
54.105
29.4257
23.2134
19.7419
16.6666
14.0058
11.8708
10.2605
9.10192
8.31463
91.4086
47.4041
36.7486
31.2822
26.8831
22.868
19.4714
16.722
14.5576
12.9367
123.07
59.7557
43.7344
35.5869
29.808
24.7044
20.5541
17.3004
14.808
12.9727
152.637
69.7415
48.4577
38.1026
31.2767
25.3443
20.6735
17.1113
14.4405
12.5268
186.068
79.5427
52.3982
39.736
31.9543
25.2614
20.1616
16.379
13.6592
11.7773
215.109
86.5333
54.5454
40.2404
31.9539
24.7912
19.483
15.6445
12.9513
11.1539
228.805
86.0421
51.3831
36.411
28.3201
21.4314
16.6146
13.3112
11.156
9.77319
161.753
53.4431
28.4038
18.7248
14.1117
10.787
8.9439
7.87021
7.22777
6.81796
9.78745
9.48284
9.3149
9.25138
9.19663
9.16367
9.13972
9.12503
9.11417
9.10271
8.72216
8.68273
8.65023
8.62157
8.59849
8.58189
8.57117
8.5645
8.55881
8.55439
20.2995
16.9071
14.8361
12.933
11.2341
9.81394
8.71808
7.91651
7.34424
6.95469
36.4595
29.3027
25.4671
22.0031
18.9527
16.3179
14.1687
12.4617
11.1228
10.1239
51.6183
38.729
32.1281
26.4951
22.0097
18.3515
15.5035
13.3212
11.6638
10.452
66.7756
46.6217
37.1537
29.5118
23.8623
19.4113
16.0636
13.5766
11.7309
10.4162
83.9473
54.3
41.5369
31.806
25.0624
19.8577
16.0613
13.3219
11.3792
10.0462
99.488
59.9076
44.2776
32.97
25.5553
19.8721
15.8325
12.9951
11.0304
9.72735
108.003
60.0421
42.4539
30.4226
23.0375
17.5146
13.8123
11.352
9.76786
8.7533
74.7539
36.3134
23.4959
15.871
11.8794
9.40902
8.07152
7.29082
6.81421
6.50678
9.54002
9.3532
9.22172
9.14313
9.08663
9.05134
9.02669
9.00986
8.9969
8.98377
8.4974
8.48856
8.47722
8.46587
8.45683
8.45073
8.4471
8.44498
8.44228
8.43972
11.2323
10.4192
9.58987
8.69835
7.90169
7.27119
6.80684
6.47338
6.23297
6.06642
20.2786
18.4907
16.6707
14.6935
12.9033
11.4081
10.2195
9.29187
8.5679
8.02695
28.9318
25.2526
21.7479
18.2943
15.4385
13.1761
11.4477
10.1443
9.16372
8.44829
37.7892
31.4478
25.9898
21.0277
17.2141
14.3117
12.1725
10.615
9.47022
8.65221
48.1458
37.8807
30.0483
23.4001
18.5883
15.0236
12.4758
10.6779
9.41905
8.55387
57.6524
42.9103
32.9136
24.8912
19.3758
15.3596
12.5668
10.6536
9.34212
8.46584
63.0665
43.8612
32.2502
23.4949
17.8548
13.8961
11.3051
9.62478
8.54793
7.848
42.5382
26.2246
17.8322
12.5883
9.82937
8.22227
7.3273
6.79073
6.45144
6.22797
9.29658
9.16308
9.05788
8.98967
8.94263
8.91176
8.88952
8.87354
8.861
8.84849
8.32349
8.32286
8.3207
8.31817
8.31622
8.31515
8.31482
8.31487
8.31411
8.31292
7.27391
7.02169
6.76516
6.48309
6.21826
5.99984
5.83358
5.70976
5.61703
5.55125
12.0032
11.3446
10.5935
9.74593
8.93507
8.24053
7.68645
7.25584
6.91651
6.65784
16.8712
15.4838
13.8774
12.1982
10.7207
9.52534
8.61064
7.92649
7.41303
7.03543
22.0414
19.5809
16.8754
14.2628
12.1319
10.4924
9.28867
8.42373
7.78815
7.32641
28.3907
24.2182
20.0293
16.2615
13.3728
11.2278
9.70254
8.64048
7.89895
7.38277
34.3554
28.1516
22.4896
17.6972
14.2156
11.7014
9.9655
8.79311
7.98682
7.43673
37.8874
29.4395
22.5519
17.1295
13.4574
10.9324
9.29045
8.23316
7.54814
7.09123
24.6565
17.4827
12.7902
9.86406
8.25442
7.29776
6.73005
6.37507
6.14083
5.98381
9.02423
8.94404
8.87386
8.8241
8.78774
8.76168
8.742
8.72721
8.7154
8.70369
8.17407
8.175
8.17467
8.17409
8.17382
8.174
8.17453
8.1752
8.17537
8.17502
5.82848
5.77268
5.70844
5.62043
5.5265
5.44439
5.3807
5.333
5.29716
5.2718
7.8152
7.6417
7.40164
7.09122
6.77124
6.49121
6.26896
6.0969
5.95693
5.84428
10.3125
9.86939
9.23579
8.50697
7.83034
7.27604
6.85355
6.53895
6.3002
6.11978
13.1115
12.2448
11.0608
9.82807
8.77754
7.96556
7.37342
6.95111
6.63551
6.39735
16.7821
15.1737
13.1672
11.2463
9.71156
8.56919
7.75906
7.19652
6.79904
6.515
20.3329
17.8234
14.941
12.3715
10.4301
9.03126
8.06627
7.41512
6.95789
6.635
22.5425
18.9435
15.2748
12.2737
10.1672
8.72698
7.78288
7.16759
6.75899
6.47776
14.5495
11.673
9.44256
8.00717
7.15028
6.60851
6.26176
6.03498
5.87882
5.77321
8.77051
8.72615
8.68305
8.64867
8.62123
8.59989
8.58299
8.56981
8.55914
8.54852
8.02362
8.02463
8.02449
8.02419
8.02419
8.02455
8.02514
8.02584
8.02636
8.0265
5.37689
5.3537
5.32644
5.28494
5.23933
5.20006
5.17101
5.1507
5.13645
5.12669
6.06519
6.02712
5.96222
5.85711
5.73902
5.63436
5.55331
5.49184
5.43901
5.39173
7.18381
7.06482
6.84604
6.56158
6.28381
6.05344
5.87815
5.74744
5.64589
5.5652
8.54757
8.2752
7.81415
7.29553
6.83926
6.48502
6.22709
6.04284
5.9001
5.78516
10.5159
9.92585
9.05439
8.17437
7.45199
6.91086
6.52379
6.25152
6.05409
5.90767
12.4924
11.508
10.1757
8.93872
7.97956
7.28438
6.79844
6.46521
6.22238
6.04277
13.8097
12.3113
10.5476
9.05941
7.98344
7.23808
6.73567
6.39857
6.16756
6.00355
9.52718
8.46989
7.51755
6.85529
6.41581
6.11572
5.90905
5.76816
5.66714
5.59904
8.53643
8.51295
8.48704
8.4636
8.44327
8.42633
8.41233
8.40102
8.39175
8.38246
7.86545
7.86628
7.86599
7.86559
7.8655
7.86571
7.86612
7.86665
7.86722
7.86762
5.21711
5.1979
5.17533
5.14468
5.11373
5.08905
5.07249
5.06249
5.05664
5.05297
5.40648
5.39672
5.375
5.33135
5.28069
5.23769
5.20765
5.18738
5.16896
5.14903
5.85583
5.83333
5.76087
5.64949
5.53556
5.44091
5.37029
5.31878
5.27833
5.24378
6.44663
6.38321
6.22135
6.0184
5.83374
5.68956
5.58518
5.51135
5.45174
5.39888
7.40395
7.21995
6.879
6.51085
6.1996
5.96214
5.78879
5.66454
5.57212
5.50074
8.4101
8.07017
7.51718
6.97904
6.54989
6.23183
6.00288
5.84186
5.71935
5.62369
9.16586
8.59666
7.83373
7.16292
6.65914
6.29775
6.04342
5.8667
5.74225
5.65175
7.23557
6.8632
6.46614
6.1608
5.93684
5.77227
5.65133
5.56594
5.5024
5.46031
8.3132
8.30044
8.28464
8.2688
8.25408
8.24109
8.22992
8.22059
8.21285
8.20506
7.69733
7.69798
7.69754
7.69701
7.69677
7.69681
7.69701
7.69735
7.69786
7.6984
5.15017
5.1303
5.10699
5.07922
5.05386
5.03528
5.02404
5.01845
5.01618
5.0151
5.15937
5.15012
5.13361
5.10529
5.07567
5.05346
5.04099
5.03527
5.02996
5.02151
5.32681
5.32273
5.29078
5.23761
5.18389
5.14122
5.11166
5.09211
5.07748
5.06348
5.56907
5.56035
5.49926
5.4145
5.33674
5.27735
5.23629
5.20913
5.18668
5.16345
6.01084
5.96304
5.83153
5.67825
5.54535
5.44243
5.3664
5.31182
5.27106
5.23829
6.49027
6.392
6.17537
5.95147
5.76693
5.62603
5.52148
5.44668
5.38764
5.33856
6.91816
6.7223
6.41183
6.12286
5.89583
5.72573
5.60082
5.5116
5.44794
5.40111
6.19589
6.05743
5.88585
5.74199
5.62768
5.53808
5.46841
5.41781
5.37886
5.35395
8.09188
8.08466
8.07496
8.06443
8.05405
8.04443
8.03584
8.02845