/*--------------------------------*- C++ -*----------------------------------*\
| =========                 |                                                 |
| \\      /  F ield         | foam-extend: Open Source CFD                    |
|  \\    /   O peration     | Version:     4.0                                |
|   \\  /    A nd           | Web:         http://www.foam-extend.org         |
|    \\/     M anipulation  |                                                 |
\*---------------------------------------------------------------------------*/
FoamFile
{
    version     2.0;
    format      ascii;
    class       volScalarField;
    location    "600";
    object      MaU;
}
// * * * * * * * * * * * * * * * * * * * * * * * * * * * * * * * * * * * * * //

dimensions      [0 0 0 0 0 0 0];

internalField   nonuniform List<scalar> 
34480
(
0.609212
0.610324
0.610987
0.611256
0.611146
0.6106
0.609496
0.607159
0.601495
0.595965
0.610736
0.61191
0.612693
0.613036
0.612813
0.611899
0.610279
0.607668
0.601054
0.596345
0.6117
0.612854
0.613677
0.614062
0.613857
0.613097
0.611867
0.610053
0.603576
0.599865
0.611625
0.612799
0.613701
0.614232
0.614282
0.61397
0.61331
0.612331
0.606366
0.603535
0.61229
0.613531
0.614523
0.615227
0.615569
0.615732
0.615681
0.615617
0.610589
0.60859
0.612335
0.613562
0.614555
0.615323
0.615859
0.616426
0.61698
0.617884
0.614221
0.613319
0.612952
0.614225
0.615234
0.616084
0.616804
0.617738
0.618889
0.620779
0.618764
0.618866
0.612664
0.613907
0.614818
0.615543
0.616172
0.617129
0.618556
0.621159
0.620882
0.622304
0.612168
0.613569
0.614618
0.61556
0.616493
0.617755
0.619616
0.62296
0.624273
0.625746
0.608393
0.609537
0.609831
0.609444
0.608572
0.607611
0.607008
0.608071
0.609196
0.613034
0.599254
0.600811
0.601496
0.601385
0.600415
0.598322
0.594488
0.587562
0.577259
0.563816
0.602132
0.603743
0.604565
0.604588
0.603644
0.601375
0.597166
0.589612
0.577278
0.561837
0.604249
0.605805
0.606673
0.606797
0.605935
0.603797
0.599819
0.592577
0.57957
0.563391
0.6051
0.606668
0.60761
0.607884
0.607269
0.60554
0.602053
0.595377
0.582109
0.565822
0.606551
0.608166
0.609183
0.609628
0.6093
0.608042
0.605143
0.599247
0.586215
0.570347
0.607209
0.60881
0.609837
0.610367
0.610249
0.609416
0.607124
0.602137
0.589807
0.574938
0.608337
0.609968
0.611014
0.611644
0.61173
0.611299
0.609628
0.605634
0.594402
0.580784
0.608413
0.610015
0.610984
0.611526
0.611583
0.611275
0.609997
0.606855
0.597005
0.585211
0.608245
0.609949
0.611026
0.61175
0.612089
0.612135
0.611402
0.609215
0.600923
0.590095
0.60469
0.606198
0.606755
0.60653
0.605597
0.604118
0.601813
0.598431
0.590761
0.583288
0.591588
0.593226
0.593878
0.593665
0.592561
0.59041
0.586909
0.581545
0.573633
0.563455
0.594951
0.596744
0.597561
0.597428
0.596244
0.593746
0.589395
0.582267
0.570893
0.555823
0.597613
0.599424
0.600315
0.600289
0.599172
0.596639
0.592021
0.584137
0.570317
0.55091
0.599064
0.600939
0.601916
0.602021
0.601076
0.598762
0.594252
0.586093
0.570267
0.546973
0.601075
0.60302
0.604073
0.604336
0.603623
0.60165
0.59746
0.589426
0.572238
0.545856
0.602198
0.604157
0.605239
0.605599
0.605076
0.603448
0.59967
0.592029
0.574089
0.545513
0.603725
0.605717
0.606829
0.607303
0.606979
0.605714
0.602425
0.595387
0.577284
0.547196
0.604126
0.606098
0.607159
0.607579
0.607255
0.606133
0.603206
0.596817
0.579097
0.548305
0.604289
0.606317
0.607462
0.608029
0.607921
0.607097
0.604663
0.599123
0.582325
0.550304
0.601003
0.602843
0.603603
0.603466
0.602425
0.600489
0.596982
0.590763
0.57467
0.543332
0.586029
0.587464
0.588004
0.587777
0.586785
0.584969
0.582223
0.578433
0.57352
0.567856
0.589323
0.59102
0.591759
0.591552
0.590346
0.587988
0.584192
0.578529
0.570491
0.561288
0.592094
0.59392
0.594755
0.594607
0.593355
0.590763
0.586353
0.579421
0.568758
0.555748
0.593846
0.595812
0.596742
0.596678
0.595479
0.59287
0.588183
0.580401
0.567216
0.550043
0.596193
0.598271
0.59928
0.599338
0.598275
0.595813
0.591106
0.582876
0.567566
0.54651
0.597633
0.599764
0.600817
0.600961
0.600029
0.597766
0.593183
0.584804
0.567815
0.543397
0.59945
0.60163
0.602719
0.602972
0.602203
0.600201
0.595879
0.58762
0.569479
0.54224
0.600119
0.602291
0.603349
0.603571
0.60281
0.600912
0.596804
0.588826
0.570145
0.540779
0.600567
0.602762
0.603882
0.604226
0.60364
0.601967
0.598158
0.590675
0.57223
0.540524
0.597553
0.599571
0.600422
0.600267
0.599035
0.596606
0.592087
0.584075
0.565967
0.533344
0.58222
0.583357
0.58377
0.58359
0.582842
0.581533
0.579668
0.5773
0.574528
0.571601
0.585142
0.586598
0.58723
0.587037
0.586004
0.584074
0.581136
0.577077
0.571867
0.566603
0.587692
0.589382
0.590135
0.589949
0.588759
0.586429
0.582695
0.57725
0.569741
0.561773
0.58947
0.59138
0.592243
0.592091
0.590835
0.588278
0.583985
0.577406
0.567483
0.556135
0.591913
0.593996
0.594946
0.594874
0.593648
0.59104
0.586428
0.579019
0.566823
0.551938
0.593497
0.595685
0.596696
0.596689
0.595519
0.592942
0.58817
0.580197
0.565958
0.547654
0.595466
0.597736
0.598794
0.598882
0.59782
0.595374
0.590614
0.582348
0.566434
0.544954
0.596315
0.5986
0.599648
0.599719
0.598658
0.596252
0.591522
0.58317
0.566114
0.541902
0.596989
0.599283
0.600377
0.600546
0.599616
0.597372
0.592791
0.584535
0.567079
0.539996
0.594225
0.596353
0.597265
0.597087
0.595715
0.592954
0.587892
0.579176
0.56162
0.532724
0.579706
0.58056
0.580857
0.580734
0.580224
0.579357
0.578175
0.576758
0.575193
0.573508
0.582191
0.583355
0.58387
0.583722
0.582925
0.581477
0.579361
0.57658
0.573237
0.570078
0.584363
0.585816
0.586463
0.586288
0.585267
0.583345
0.580417
0.576404
0.571329
0.566407
0.585985
0.587717
0.588481
0.588298
0.587118
0.584835
0.581217
0.576046
0.568993
0.561672
0.588333
0.590294
0.591155
0.591009
0.589766
0.587269
0.583135
0.576969
0.567886
0.557838
0.589908
0.592027
0.592966
0.592858
0.591591
0.588973
0.584457
0.577475
0.566407
0.553507
0.591904
0.594148
0.595145
0.595111
0.593886
0.591263
0.586543
0.578972
0.566114
0.550362
0.59284
0.595127
0.596136
0.596089
0.594843
0.592184
0.587321
0.579367
0.565112
0.546708
0.593674
0.595975
0.59702
0.597047
0.595888
0.593318
0.588466
0.580316
0.56527
0.544069
0.591122
0.59327
0.594198
0.593991
0.592534
0.589606
0.5844
0.575807
0.560362
0.537197
0.578104
0.578737
0.578944
0.578869
0.578545
0.578006
0.577293
0.576471
0.575579
0.574507
0.580205
0.581095
0.581502
0.581408
0.58084
0.579822
0.578372
0.57651
0.574318
0.572278
0.581957
0.58314
0.583672
0.583535
0.582727
0.581245
0.579072
0.576222
0.572816
0.569666
0.583329
0.584814
0.585464
0.585288
0.58427
0.582371
0.579504
0.575631
0.570749
0.565969
0.585453
0.587202
0.587954
0.587781
0.586629
0.584415
0.580945
0.576084
0.569568
0.562823
0.586901
0.588852
0.589694
0.589532
0.58829
0.585839
0.581854
0.576085
0.567853
0.558932
0.588824
0.590939
0.591851
0.591737
0.590473
0.587901
0.583556
0.57704
0.567149
0.555927
0.589754
0.591946
0.592887
0.592759
0.591444
0.588761
0.58414
0.577054
0.565761
0.552287
0.590688
0.592908
0.593881
0.593807
0.592535
0.589869
0.585146
0.577681
0.565449
0.549611
0.588303
0.590385
0.59129
0.59106
0.589585
0.58666
0.581647
0.573744
0.560951
0.543422
0.577125
0.577604
0.577748
0.577706
0.57751
0.577189
0.576771
0.576298
0.57577
0.574998
0.578938
0.579605
0.579923
0.579875
0.579495
0.578812
0.577847
0.576604
0.5751
0.573637
0.580294
0.58122
0.581646
0.581552
0.580952
0.579869
0.578322
0.57634
0.574018
0.571871
0.581397
0.582612
0.583146
0.582997
0.582176
0.580685
0.578519
0.575715
0.572358
0.569139
0.583225
0.584714
0.585346
0.585177
0.584183
0.582337
0.579571
0.575892
0.57131
0.566735
0.584473
0.586188
0.586916
0.586736
0.585604
0.583453
0.580126
0.575571
0.569617
0.563464
0.58625
0.58816
0.588967
0.588811
0.587605
0.58525
0.581477
0.576134
0.568777
0.56088
0.587098
0.589112
0.589961
0.589786
0.588501
0.585974
0.581842
0.575851
0.567239
0.557579
0.588081
0.590143
0.591023
0.590885
0.589604
0.587029
0.582711
0.576253
0.56672
0.55526
0.585814
0.587755
0.588602
0.588361
0.586937
0.584163
0.579588
0.572705
0.56257
0.549848
0.576571
0.576948
0.57705
0.57703
0.576915
0.576729
0.576487
0.576215
0.575887
0.575274
0.578186
0.57869
0.578941
0.578927
0.578685
0.578242
0.57761
0.576766
0.57567
0.574504
0.579199
0.579908
0.580244
0.580188
0.579765
0.579008
0.57794
0.576575
0.574946
0.573364
0.580061
0.581021
0.581445
0.581332
0.580705
0.579589
0.578015
0.576035
0.573717
0.571448
0.581571
0.582787
0.5833
0.583152
0.582342
0.580879
0.578768
0.576074
0.572884
0.569711
0.582584
0.584029
0.584636
0.584463
0.583491
0.581702
0.579048
0.575582
0.571352
0.567082
0.584177
0.585832
0.586521
0.586354
0.585274
0.583234
0.580112
0.575903
0.570558
0.565028
0.58488
0.586657
0.587398
0.587206
0.586024
0.583773
0.580259
0.57541
0.569026
0.562194
0.585878
0.587722
0.588494
0.588325
0.587116
0.58477
0.581018
0.575686
0.568491
0.560391
0.583685
0.585425
0.586189
0.585949
0.584634
0.582124
0.578137
0.57241
0.564658
0.555718
0.576306
0.576618
0.576692
0.576684
0.576619
0.576512
0.576374
0.576214
0.575998
0.575476
0.577795
0.578188
0.57839
0.578399
0.578252
0.57797
0.577556
0.576964
0.57611
0.575089
0.57852
0.579061
0.579323
0.579297
0.579013
0.578502
0.577781
0.57684
0.575652
0.574382
0.579194
0.579933
0.580263
0.580183
0.579726
0.578923
0.577817
0.576444
0.574822
0.573129
0.580394
0.581353
0.581756
0.581637
0.581008
0.579897
0.578345
0.576425
0.574213
0.571942
0.581169
0.58234
0.58283
0.582677
0.581885
0.580462
0.578427
0.575872
0.572907
0.569902
0.582567
0.583948
0.584517
0.584358
0.583441
0.581756
0.579278
0.576077
0.572265
0.568385
0.583083
0.58459
0.585214
0.585026
0.583995
0.582086
0.579223
0.575445
0.57082
0.566029
0.584079
0.585669
0.586325
0.586149
0.585069
0.583036
0.579917
0.575686
0.570399
0.564778
0.581923
0.583421
0.584085
0.583861
0.582697
0.580523
0.577189
0.57261
0.566854
0.56074
0.576236
0.576507
0.576562
0.576561
0.576524
0.576464
0.576384
0.576289
0.576137
0.575673
0.577652
0.577972
0.578141
0.578164
0.578077
0.577901
0.577626
0.577193
0.576485
0.575525
0.578133
0.57855
0.578755
0.578751
0.578567
0.578231
0.577752
0.577097
0.576192
0.57509
0.57868
0.579242
0.579493
0.579442
0.579121
0.578564
0.577807
0.576867
0.575711
0.574366
0.579595
0.58033
0.580637
0.580546
0.580078
0.579268
0.578162
0.576826
0.575293
0.573603
0.580151
0.581068
0.581449
0.581324
0.580705
0.579619
0.578113
0.576282
0.574224
0.572066
0.581368
0.582478
0.582932
0.582794
0.58205
0.580718
0.578822
0.576462
0.573786
0.571045
0.581668
0.582898
0.583405
0.583236
0.582377
0.580827
0.578582
0.575737
0.572455
0.56911
0.582665
0.583987
0.584526
0.584362
0.583442
0.581758
0.579265
0.576026
0.572231
0.568382
0.580514
0.581753
0.58231
0.58211
0.581122
0.579314
0.576632
0.573102
0.56894
0.564856
0.576295
0.576536
0.576578
0.576581
0.57656
0.576526
0.57648
0.576421
0.57631
0.575889
0.577676
0.577951
0.578096
0.578125
0.578077
0.577966
0.577779
0.577448
0.576833
0.575889
0.577938
0.578268
0.57843
0.578438
0.578324
0.578109
0.577793
0.577332
0.576612
0.575597
0.578422
0.578847
0.579037
0.579007
0.57879
0.578415
0.577909
0.57727
0.576427
0.575296
0.579082
0.579632
0.579859
0.579793
0.579458
0.578887
0.578123
0.577213
0.576148
0.574836
0.579451
0.580146
0.580433
0.580336
0.579873
0.579074
0.577993
0.576715
0.575299
0.57371
0.580512
0.581375
0.581725
0.581613
0.581036
0.580022
0.57862
0.57693
0.575077
0.57312
0.58058
0.581547
0.581944
0.581801
0.581116
0.579907
0.578208
0.576133
0.573847
0.571514
0.581599
0.582659
0.583087
0.582945
0.582197
0.580858
0.578938
0.576538
0.573873
0.571263
0.579427
0.58041
0.580859
0.58069
0.579884
0.57844
0.57636
0.573729
0.570791
0.568124
0.57643
0.576648
0.576681
0.576685
0.576673
0.576654
0.576626
0.576589
0.576505
0.576123
0.577811
0.578056
0.578183
0.578214
0.578189
0.578119
0.577988
0.577725
0.577175
0.576227
0.577861
0.578129
0.578258
0.578272
0.578203
0.578069
0.577863
0.577533
0.576942
0.575972
0.578342
0.578665
0.578807
0.578792
0.57865
0.578405
0.578073
0.577642
0.577013
0.576017
0.578774
0.579178
0.57934
0.579295
0.579063
0.578673
0.578161
0.577553
0.576812
0.575753
0.578993
0.579506
0.579715
0.579643
0.579308
0.578741
0.577989
0.577118
0.576151
0.57495
0.579932
0.580581
0.580842
0.580755
0.580325
0.579582
0.578579
0.5774
0.576137
0.574719
0.579758
0.580489
0.580789
0.580674
0.580149
0.579241
0.577999
0.576531
0.574968
0.573339
0.580836
0.581657
0.581984
0.581869
0.581286
0.580263
0.578836
0.577111
0.575279
0.57352
0.578616
0.579363
0.579713
0.579575
0.578944
0.577834
0.576276
0.574378
0.572353
0.57065
0.576596
0.576794
0.576819
0.576824
0.576817
0.576806
0.57679
0.576766
0.576701
0.576358
0.578016
0.578241
0.578352
0.578383
0.57837
0.578326
0.578232
0.578019
0.577522
0.576564
0.577842
0.578065
0.578167
0.578182
0.578142
0.57806
0.577928
0.57769
0.577197
0.576258
0.578377
0.578624
0.57873
0.578724
0.578635
0.578478
0.578265
0.577976
0.5775
0.5766
0.578605
0.578896
0.579009
0.578978
0.578823
0.578566
0.578231
0.577834
0.577319
0.57644
0.578713
0.57908
0.579228
0.579177
0.578944
0.578554
0.578046
0.577466
0.576813
0.575884
0.579561
0.580034
0.580221
0.580157
0.579848
0.579323
0.578627
0.577828
0.576982
0.57594
0.579136
0.579668
0.579886
0.579797
0.579411
0.578754
0.577874
0.576866
0.575819
0.574681
0.580325
0.580941
0.581182
0.581093
0.580658
0.579905
0.578881
0.577678
0.576445
0.575266
0.578025
0.578568
0.57883
0.578723
0.578248
0.577427
0.576299
0.574973
0.573609
0.57255
0.576749
0.576928
0.576946
0.576951
0.576947
0.576941
0.576932
0.576916
0.576867
0.576566
0.578266
0.578474
0.578571
0.578598
0.578593
0.578564
0.578496
0.578323
0.577877
0.576917
0.577833
0.578019
0.578098
0.578112
0.578089
0.57804
0.577958
0.577788
0.57738
0.576475
0.578479
0.578669
0.578747
0.578746
0.578691
0.578594
0.578461
0.578269
0.577908
0.577091
0.578523
0.578729
0.578805
0.578784
0.578683
0.578519
0.578307
0.578055
0.5777
0.576963
0.578557
0.578814
0.578914
0.578879
0.578722
0.578463
0.578129
0.577754
0.577318
0.576593
0.579338
0.579671
0.5798
0.579754
0.57954
0.579182
0.578715
0.578189
0.577635
0.576866
0.578653
0.579025
0.579178
0.579112
0.578838
0.578379
0.577776
0.577103
0.576415
0.575626
0.580022
0.58047
0.580641
0.580575
0.580262
0.579729
0.579019
0.578205
0.577394
0.576606
0.577591
0.577966
0.578157
0.578076
0.577733
0.577147
0.576358
0.57546
0.574562
0.573925
0.576829
0.576987
0.576999
0.577003
0.577001
0.576998
0.576993
0.576983
0.576948
0.576691
0.578547
0.578737
0.578818
0.578841
0.578839
0.57882
0.578772
0.578634
0.578245
0.577302
0.577795
0.577948
0.578006
0.578016
0.578003
0.577976
0.577927
0.577811
0.577483
0.576634
0.578609
0.578754
0.578808
0.578809
0.578776
0.578718
0.578637
0.578515
0.578248
0.577521
0.578493
0.578635
0.578684
0.57867
0.578607
0.578505
0.578375
0.57822
0.577981
0.57737
0.57849
0.578665
0.578731
0.578708
0.578605
0.578438
0.578225
0.577988
0.577703
0.57714
0.579215
0.579439
0.579524
0.579491
0.579348
0.579111
0.578809
0.578474
0.578122
0.577562
0.578264
0.578514
0.578617
0.57857
0.578383
0.578072
0.577671
0.577234
0.57679
0.576253
0.579893
0.580208
0.580325
0.580279
0.580062
0.579699
0.579222
0.578687
0.578167
0.577643
0.57723
0.577477
0.577611
0.577553
0.577314
0.576911
0.576376
0.575787
0.575207
0.574841
0.576706
0.576847
0.576854
0.576856
0.576856
0.576855
0.576853
0.576848
0.576826
0.576621
0.578859
0.579027
0.579091
0.579109
0.579108
0.579096
0.579063
0.57896
0.578637
0.577747
0.577707
0.577826
0.577866
0.577871
0.577864
0.57785
0.577824
0.577751
0.577504
0.576746
0.578734
0.57884
0.578873
0.578873
0.578853
0.578819
0.578774
0.578701
0.578516
0.577901
0.578496
0.578591
0.578622
0.578612
0.578573
0.578511
0.578433
0.578341
0.578186
0.577701
0.578493
0.578609
0.578651
0.578636
0.57857
0.578465
0.578331
0.578185
0.578003
0.577582
0.579156
0.579299
0.579351
0.579327
0.579234
0.579082
0.578892
0.578687
0.578473
0.578083
0.577961
0.578125
0.578194
0.578163
0.578039
0.577834
0.577571
0.577292
0.577006
0.576654
0.579931
0.580146
0.580224
0.580192
0.580047
0.579806
0.579496
0.579155
0.57883
0.578484
0.576811
0.576967
0.57706
0.57702
0.576859
0.57659
0.576236
0.57586
0.575488
0.575291
0.576176
0.576266
0.576269
0.576271
0.576271
0.576272
0.576273
0.576272
0.576263
0.576115
0.579246
0.579386
0.57943
0.579441
0.579439
0.579431
0.57941
0.57934
0.579099
0.578315
0.577589
0.577678
0.577705
0.577709
0.577705
0.577697
0.57768
0.577636
0.577465
0.576844
0.57882
0.578889
0.578906
0.578903
0.578889
0.578868
0.578843
0.578803
0.578691
0.578221
0.578516
0.57858
0.578599
0.578594
0.578569
0.578529
0.57848
0.578423
0.578326
0.577973
0.578548
0.578625
0.578652
0.578642
0.5786
0.578532
0.578447
0.578354
0.578239
0.577947
0.579142
0.579227
0.579256
0.579239
0.579178
0.579081
0.578962
0.578837
0.578714
0.578467
0.577817
0.577927
0.577977
0.577959
0.577877
0.577742
0.577569
0.577385
0.577192
0.576969
0.580188
0.580328
0.580379
0.580356
0.58026
0.580103
0.579904
0.579691
0.579495
0.57927
0.576107
0.576204
0.57627
0.576244
0.576138
0.57596
0.575729
0.575489
0.575242
0.575145
0.574844
0.574917
0.574922
0.574924
0.574925
0.574925
0.574924
0.574922
0.574918
0.574824
0.579825
0.579922
0.579941
0.579941
0.579935
0.579927
0.579914
0.579877
0.579733
0.579142
0.57753
0.577602
0.577629
0.577637
0.577634
0.577623
0.577601
0.577561
0.577448
0.577003
0.57882
0.578858
0.578864
0.578859
0.578847
0.57883
0.578809
0.578783
0.578723
0.578427
0.578523
0.578569
0.578586
0.578584
0.578566
0.578536
0.578495
0.578448
0.578381
0.578159
0.578614
0.578667
0.578688
0.578683
0.578654
0.578606
0.578543
0.578473
0.578391
0.578211
0.579136
0.579186
0.579205
0.579193
0.579151
0.579084
0.579002
0.578918
0.57884
0.578707
0.577972
0.57806
0.578101
0.578092
0.578038
0.577944
0.577822
0.577688
0.577538
0.577385
0.580777
0.58086
0.580891
0.580873
0.580807
0.580701
0.58057
0.580434
0.58032
0.580192
0.574828
0.574898
0.574947
0.574931
0.574859
0.574738
0.574582
0.574419
0.57424
0.574186
0.572875
0.572928
0.572943
0.572951
0.572952
0.572946
0.572934
0.572915
0.572891
0.572823
0.580635
0.580661
0.58065
0.580637
0.580625
0.580613
0.580602
0.580589
0.580545
0.580259
0.57759
0.577669
0.577708
0.577725
0.577723
0.577703
0.577664
0.577603
0.577501
0.577234
0.578689
0.578713
0.578719
0.578717
0.578705
0.578684
0.578655
0.578619
0.578571
0.578431
0.578465
0.578509
0.578529
0.578531
0.578517
0.578487
0.578443
0.578387
0.578316
0.578186
0.57861
0.578658
0.57868
0.578679
0.578657
0.578615
0.578557
0.578487
0.578406
0.578292
0.579071
0.579111
0.579129
0.579122
0.579089
0.579035
0.578966
0.578891
0.578819
0.578742
0.578415
0.578501
0.57854
0.578537
0.578497
0.578423
0.578324
0.578207
0.578068
0.577921
0.581676
0.581715
0.581734
0.581719
0.581668
0.581587
0.581487
0.581387
0.581316
0.581284
0.573089
0.573156
0.573196
0.573184
0.573129
0.573036
0.572916
0.572788
0.572645
0.572587
0.428526
0.408064
0.414809
0.455244
0.381527
0.358492
0.369121
0.425744
0.339762
0.312688
0.329297
0.407454
0.302982
0.273466
0.296695
0.39721
0.272625
0.242162
0.27241
0.394233
0.246713
0.216284
0.255144
0.38736
0.225664
0.196711
0.244022
0.384353
0.205874
0.180046
0.235917
0.381934
0.188484
0.168343
0.232251
0.383233
0.169547
0.157047
0.227738
0.378343
0.487479
0.477277
0.477501
0.487001
0.457117
0.444444
0.445327
0.457571
0.427397
0.410558
0.412331
0.42929
0.399572
0.378388
0.381353
0.403297
0.375949
0.350118
0.354346
0.381448
0.354967
0.324009
0.327984
0.360027
0.337962
0.301844
0.305301
0.342304
0.322359
0.281272
0.283935
0.325803
0.309651
0.264353
0.266146
0.312363
0.295292
0.247298
0.246208
0.294979
0.55273
0.550413
0.549842
0.550957
0.534259
0.53045
0.529619
0.531739
0.515185
0.509186
0.508177
0.5122
0.494122
0.485716
0.48463
0.491031
0.474159
0.463218
0.46219
0.471369
0.454023
0.440354
0.439346
0.45134
0.435944
0.419474
0.418478
0.433325
0.418131
0.398982
0.397963
0.415487
0.40264
0.381661
0.380518
0.399914
0.384699
0.363938
0.361887
0.380753
0.564644
0.563462
0.563081
0.563441
0.5538
0.552261
0.551666
0.551942
0.542714
0.540127
0.539268
0.539987
0.529042
0.52515
0.524055
0.525499
0.515577
0.510203
0.508938
0.511429
0.500861
0.493835
0.492433
0.496248
0.487036
0.478279
0.476786
0.482143
0.472449
0.46203
0.460497
0.467482
0.458858
0.447379
0.445805
0.454082
0.441944
0.431325
0.429355
0.437135
0.571236
0.570565
0.570336
0.57053
0.564009
0.563432
0.56312
0.563061
0.55719
0.556173
0.555644
0.555585
0.548147
0.546444
0.545652
0.545715
0.539149
0.536567
0.535521
0.535886
0.528691
0.525063
0.523785
0.52465
0.518693
0.513917
0.51245
0.514016
0.507571
0.50166
0.50007
0.50249
0.49691
0.490253
0.488611
0.491828
0.483012
0.477359
0.475495
0.478143
0.573792
0.573257
0.573087
0.573269
0.568915
0.568644
0.568465
0.568377
0.56443
0.563969
0.563668
0.563528
0.558217
0.557421
0.556939
0.55676
0.552105
0.550834
0.550138
0.549981
0.544615
0.542729
0.541804
0.541761
0.537493
0.534885
0.533746
0.533934
0.529203
0.525848
0.524546
0.52509
0.52117
0.517288
0.51592
0.516905
0.510061
0.507201
0.505692
0.506008
0.575057
0.574584
0.57444
0.574617
0.571752
0.571626
0.571511
0.57141
0.568781
0.568567
0.568388
0.568249
0.564376
0.563993
0.563706
0.563518
0.560089
0.559451
0.559022
0.558799
0.554551
0.553563
0.552963
0.55273
0.549391
0.547971
0.54719
0.546998
0.543154
0.541266
0.54033
0.540255
0.537283
0.535015
0.534007
0.534173
0.528397
0.527181
0.526083
0.525489
0.575654
0.57521
0.575078
0.575252
0.573372
0.573305
0.573217
0.573114
0.571442
0.571334
0.571214
0.571089
0.568343
0.568143
0.56796
0.567802
0.565319
0.564977
0.564709
0.56452
0.561138
0.560594
0.560215
0.56
0.557351
0.556552
0.556046
0.555819
0.552594
0.551513
0.550888
0.550688
0.548424
0.547082
0.546391
0.546321
0.541176
0.540933
0.5402
0.539324
0.575972
0.575541
0.575416
0.575591
0.574346
0.574301
0.574225
0.574125
0.573122
0.573054
0.572962
0.572853
0.570995
0.570876
0.570748
0.57062
0.568898
0.568696
0.56852
0.568375
0.565736
0.565415
0.565171
0.565008
0.562977
0.562503
0.562178
0.562001
0.559316
0.558673
0.558269
0.558095
0.556414
0.555602
0.555151
0.555053
0.550395
0.550716
0.55026
0.54935
0.576177
0.57575
0.575628
0.575809
0.574945
0.5749
0.574829
0.574738
0.574184
0.574125
0.574046
0.573956
0.572797
0.572706
0.572607
0.572508
0.571385
0.571244
0.571118
0.571015
0.569013
0.5688
0.568635
0.568525
0.567065
0.566758
0.566544
0.566427
0.564233
0.563828
0.563567
0.56345
0.562298
0.561788
0.5615
0.561436
0.557219
0.557854
0.557588
0.556723
0.576353
0.575922
0.575803
0.575993
0.575333
0.575275
0.575204
0.575129
0.574856
0.574787
0.574713
0.574646
0.574041
0.57395
0.573865
0.573796
0.57313
0.573009
0.572912
0.572846
0.571376
0.57121
0.571091
0.571027
0.570078
0.569853
0.569707
0.569644
0.567869
0.56759
0.567418
0.567358
0.566708
0.566368
0.566186
0.566165
0.56235
0.563147
0.563
0.5622
0.576529
0.57609
0.575973
0.576176
0.575604
0.575523
0.57545
0.575397
0.575277
0.575185
0.575114
0.575072
0.574911
0.574806
0.574729
0.57469
0.574355
0.574233
0.574153
0.574123
0.573085
0.572934
0.572843
0.572821
0.572311
0.572124
0.57202
0.572003
0.570558
0.570344
0.570228
0.570217
0.570039
0.569795
0.569679
0.569696
0.566228
0.567092
0.567017
0.566283
0.576711
0.57626
0.576145
0.576365
0.575816
0.575703
0.575628
0.575601
0.575534
0.575413
0.575342
0.57533
0.575535
0.575406
0.575333
0.575327
0.575215
0.575079
0.57501
0.575016
0.574318
0.574166
0.574094
0.57411
0.573969
0.573796
0.573718
0.573743
0.572528
0.572344
0.572265
0.572295
0.57256
0.572369
0.572295
0.572342
0.569152
0.570024
0.569991
0.56932
0.576889
0.576425
0.576312
0.576549
0.576005
0.575856
0.575778
0.575781
0.575682
0.575529
0.575458
0.575477
0.575998
0.575841
0.575772
0.5758
0.575818
0.575662
0.575602
0.575644
0.575211
0.575048
0.574989
0.575042
0.575201
0.575028
0.57497
0.575032
0.573942
0.573772
0.573717
0.573782
0.574468
0.574307
0.574259
0.57433
0.571335
0.572174
0.572165
0.571558
0.577039
0.576561
0.576452
0.576707
0.576198
0.576011
0.575931
0.575967
0.575756
0.575569
0.575498
0.575552
0.576364
0.576177
0.576112
0.576176
0.576248
0.576071
0.576018
0.576096
0.575865
0.575688
0.57564
0.575728
0.57612
0.575944
0.5759
0.575995
0.574929
0.574764
0.574725
0.574818
0.575918
0.575774
0.575743
0.575831
0.572931
0.573708
0.57371
0.573171
0.577112
0.576625
0.576521
0.576791
0.576423
0.576199
0.576118
0.576189
0.575776
0.575559
0.575491
0.57558
0.576677
0.576464
0.576405
0.576505
0.576572
0.576375
0.57633
0.576444
0.576368
0.576178
0.57614
0.57626
0.576819
0.57664
0.576608
0.57673
0.575592
0.575429
0.575402
0.575516
0.57704
0.576907
0.576887
0.576987
0.574038
0.574727
0.574734
0.574267
0.576997
0.57651
0.576415
0.576695
0.576723
0.576466
0.576388
0.576494
0.575772
0.575529
0.575467
0.575593
0.576973
0.576741
0.57669
0.576826
0.576851
0.57664
0.576604
0.576749
0.576794
0.576598
0.576569
0.576713
0.577371
0.577195
0.577175
0.577315
0.57604
0.575881
0.575862
0.575988
0.57796
0.577837
0.577824
0.577928
0.574666
0.575245
0.575252
0.574865
0.576452
0.575984
0.575903
0.576182
0.577188
0.576908
0.576836
0.576977
0.575802
0.575544
0.575491
0.575649
0.577272
0.577034
0.576996
0.577162
0.577129
0.576916
0.57689
0.577054
0.577198
0.577006
0.576985
0.577142
0.577837
0.577675
0.577663
0.577808
0.576419
0.576269
0.576254
0.576379
0.578834
0.578723
0.578714
0.578815
0.574688
0.575136
0.575139
0.574841
0.575115
0.574705
0.574647
0.574898
0.578006
0.577725
0.577669
0.57784
0.575981
0.575727
0.575686
0.575862
0.577569
0.577351
0.577328
0.577505
0.577417
0.577224
0.577207
0.57737
0.577584
0.577415
0.577401
0.577549
0.578229
0.578095
0.578089
0.578218
0.576911
0.576775
0.576761
0.576871
0.579886
0.579797
0.579793
0.57988
0.57386
0.574144
0.574141
0.573949
0.572996
0.572737
0.572708
0.572867
0.579345
0.579118
0.579091
0.579268
0.57639
0.576176
0.576145
0.576298
0.577822
0.577658
0.577648
0.577794
0.577662
0.577516
0.577505
0.577629
0.577865
0.577741
0.577731
0.577838
0.578459
0.578368
0.578365
0.578451
0.577515
0.577398
0.577382
0.577464
0.58121
0.581168
0.58117
0.581219
0.5723
0.57237
0.572364
0.57232
0.581036
0.589175
0.593211
0.596224
0.599257
0.601942
0.604122
0.605833
0.607196
0.608397
0.580209
0.583013
0.590153
0.594915
0.599235
0.602529
0.60498
0.606804
0.608173
0.60934
0.583202
0.579064
0.589791
0.595196
0.600292
0.603751
0.606264
0.608093
0.609413
0.610464
0.585712
0.574621
0.589047
0.594508
0.600259
0.603747
0.606316
0.608149
0.609472
0.6105
0.589078
0.571975
0.589316
0.594755
0.601108
0.60457
0.607198
0.60901
0.610294
0.611261
0.591233
0.568744
0.588842
0.594005
0.601017
0.604436
0.607174
0.608994
0.610316
0.611326
0.594344
0.566993
0.589494
0.594185
0.601812
0.605109
0.607941
0.609734
0.611027
0.611982
0.595199
0.563676
0.588493
0.592589
0.600851
0.604056
0.607079
0.60896
0.610432
0.611579
0.596408
0.562051
0.588762
0.591459
0.599801
0.602503
0.605771
0.607835
0.609528
0.610875
0.580926
0.546621
0.575751
0.578721
0.588887
0.593179
0.598166
0.601531
0.604265
0.606368
0.524655
0.546218
0.562234
0.573587
0.581343
0.586748
0.590661
0.593595
0.595879
0.597819
0.509448
0.53914
0.560629
0.574111
0.582732
0.588609
0.592815
0.595915
0.598236
0.600051
0.499051
0.535678
0.561286
0.575743
0.584896
0.590984
0.595283
0.598399
0.600666
0.602365
0.490622
0.532525
0.561302
0.576186
0.585795
0.591996
0.596334
0.599439
0.601685
0.603343
0.485968
0.531454
0.562389
0.577502
0.587515
0.593751
0.598094
0.601144
0.603324
0.60491
0.482658
0.530183
0.562782
0.577823
0.588232
0.594458
0.598821
0.601833
0.604001
0.605595
0.481991
0.530376
0.564273
0.57898
0.589723
0.595844
0.600199
0.603138
0.605245
0.606779
0.480968
0.529273
0.564277
0.57843
0.589481
0.595467
0.59988
0.602844
0.605061
0.606739
0.481333
0.529494
0.565355
0.57818
0.588973
0.594452
0.598973
0.602083
0.60448
0.60635
0.472345
0.519626
0.556174
0.568465
0.580275
0.586796
0.592539
0.596598
0.599756
0.602089
0.554896
0.56104
0.567004
0.572255
0.576719
0.580448
0.58354
0.586107
0.588275
0.590181
0.540266
0.55113
0.560976
0.569105
0.575666
0.580864
0.584947
0.588155
0.590679
0.592673
0.527458
0.543868
0.557741
0.568305
0.576409
0.582529
0.587166
0.590694
0.593372
0.595394
0.514756
0.536753
0.554574
0.567235
0.576594
0.58336
0.588339
0.592046
0.594823
0.596882
0.505113
0.5321
0.553379
0.567671
0.577988
0.585173
0.590348
0.594122
0.596915
0.598958
0.496448
0.527736
0.552044
0.567544
0.578619
0.586076
0.59138
0.595189
0.598006
0.600075
0.490568
0.525336
0.552197
0.56848
0.580113
0.587681
0.593036
0.59682
0.599607
0.601644
0.485017
0.522415
0.551418
0.568082
0.580106
0.587677
0.593089
0.596909
0.599782
0.601934
0.48149
0.521147
0.551803
0.568043
0.579905
0.587171
0.592654
0.596593
0.599602
0.601907
0.471735
0.512432
0.544202
0.560354
0.572933
0.580954
0.587283
0.591905
0.595447
0.598011
0.564287
0.566708
0.569591
0.57248
0.575185
0.577629
0.579795
0.581701
0.583402
0.58498
0.553915
0.558421
0.563707
0.568815
0.573357
0.577236
0.580487
0.583187
0.585409
0.587217
0.543787
0.551418
0.559563
0.566838
0.572975
0.577994
0.582048
0.585298
0.587871
0.589871
0.532124
0.543689
0.55513
0.564626
0.572251
0.57822
0.582883
0.586526
0.589363
0.591523
0.521961
0.537774
0.552499
0.564003
0.572904
0.579617
0.584718
0.588611
0.591598
0.593837
0.51178
0.531896
0.549773
0.563014
0.572996
0.580284
0.585712
0.589783
0.592885
0.595209
0.503631
0.527849
0.548608
0.563242
0.574078
0.581754
0.587389
0.591545
0.594691
0.597029
0.495598
0.523526
0.546834
0.562472
0.573938
0.581844
0.587635
0.591889
0.595137
0.597584
0.489416
0.520843
0.546224
0.56216
0.573776
0.581649
0.587563
0.59194
0.595295
0.597862
0.478998
0.512775
0.539494
0.555783
0.568053
0.576518
0.583035
0.587901
0.591626
0.594302
0.570515
0.571367
0.572577
0.573935
0.575339
0.57672
0.578035
0.579271
0.58045
0.581627
0.563493
0.565239
0.567779
0.57059
0.573352
0.575907
0.578199
0.580213
0.581948
0.583406
0.556371
0.559535
0.563769
0.568161
0.572274
0.575924
0.579068
0.581725
0.583922
0.585688
0.547313
0.552638
0.55911
0.565327
0.570839
0.575515
0.579401
0.582595
0.585187
0.587227
0.538866
0.546861
0.555822
0.563891
0.570736
0.57632
0.580818
0.584421
0.587297
0.58952
0.529657
0.540668
0.552235
0.562087
0.570156
0.576523
0.581529
0.585459
0.588561
0.59095
0.521721
0.535917
0.550058
0.561509
0.570632
0.577616
0.583001
0.587151
0.590393
0.592861
0.513476
0.530849
0.547407
0.560179
0.570142
0.577577
0.583253
0.587594