/*--------------------------------*- C++ -*----------------------------------*\
| =========                 |                                                 |
| \\      /  F ield         | foam-extend: Open Source CFD                    |
|  \\    /   O peration     | Version:     4.0                                |
|   \\  /    A nd           | Web:         http://www.foam-extend.org         |
|    \\/     M anipulation  |                                                 |
\*---------------------------------------------------------------------------*/
FoamFile
{
    version     2.0;
    format      ascii;
    class       volScalarField;
    location    "600";
    object      p;
}
// * * * * * * * * * * * * * * * * * * * * * * * * * * * * * * * * * * * * * //

dimensions      [1 -1 -2 0 0 0 0];

internalField   nonuniform List<scalar> 
34480
(
108991
108891
108847
108854
108925
109087
109403
110044
110949
111206
108992
108890
108840
108836
108893
109038
109333
109947
110903
110737
109114
108999
108935
108908
108933
109032
109276
109812
110755
110000
109278
109153
109073
109025
109020
109070
109251
109680
110547
109175
109413
109269
109175
109107
109073
109075
109192
109506
110257
108303
109596
109449
109348
109270
109217
109179
109233
109425
110020
107504
109632
109472
109367
109278
109208
109135
109129
109205
109617
106607
109806
109653
109555
109481
109425
109354
109319
109304
109513
106012
109777
109615
109509
109424
109359
109286
109226
109138
109123
105233
109892
109741
109687
109700
109766
109860
109980
110060
110038
105659
109836
109713
109664
109682
109775
109962
110276
110777
111558
112587
109759
109627
109571
109584
109676
109873
110223
110830
111913
113431
109786
109641
109574
109569
109641
109816
110160
110806
112115
113981
109855
109698
109616
109592
109642
109786
110102
110731
112168
114256
109902
109727
109632
109587
109613
109719
109992
110568
112063
114270
110010
109830
109726
109671
109677
109747
109971
110469
111955
114171
109986
109794
109684
109614
109602
109637
109807
110217
111644
113815
110118
109930
109823
109762
109753
109781
109920
110249
111565
113606
110063
109868
109751
109676
109648
109657
109765
110031
111187
113145
110164
109979
109901
109899
109966
110090
110312
110674
111773
113523
110476
110363
110321
110344
110437
110610
110879
111263
111774
112365
110378
110245
110194
110217
110323
110531
110866
111376
112154
113117
110348
110198
110136
110149
110251
110464
110831
111435
112481
113845
110347
110182
110106
110106
110198
110404
110785
111440
112702
114427
110326
110143
110056
110039
110114
110300
110674
111341
112762
114798
110371
110183
110087
110060
110120
110283
110636
111283
112809
115081
110297
110096
109995
109954
109998
110133
110453
111062
112639
115097
110390
110193
110092
110055
110099
110225
110524
111089
112656
115217
110314
110108
109998
109947
109970
110071
110338
110866
112357
115034
110399
110200
110117
110117
110204
110380
110715
111300
112750
115423
110933
110846
110813
110832
110905
111035
111223
111466
111749
112023
110853
110736
110690
110713
110809
110987
111256
111626
112110
112610
110806
110663
110606
110624
110728
110930
111257
111739
112463
113271
110765
110602
110530
110541
110645
110861
111232
111809
112770
113915
110702
110518
110435
110433
110529
110744
111137
111775
112945
114421
110704
110511
110419
110408
110496
110702
111100
111769
113112
114892
110594
110387
110289
110266
110341
110529
110919
111596
113068
115127
110658
110452
110352
110331
110405
110588
110971
111642
113185
115467
110560
110346
110240
110207
110265
110428
110788
111448
112990
115502
110628
110421
110332
110335
110437
110651
111054
111755
113282
115933
111251
111189
111166
111180
111232
111320
111441
111587
111743
111878
111198
111105
111068
111087
111164
111301
111498
111750
112043
112312
111156
111032
110983
111001
111094
111267
111531
111889
112355
112816
111097
110948
110884
110899
111002
111203
111528
111992
112658
113364
111014
110839
110764
110771
110875
111091
111457
112006
112872
113845
110989
110802
110717
110718
110820
111040
111434
112046
113098
114342
110857
110653
110562
110553
110648
110863
111268
111922
113135
114649
110900
110694
110599
110591
110687
110903
111316
111996
113327
115083
110787
110573
110472
110454
110539
110743
111148
111844
113229
115245
110841
110632
110542
110549
110663
110901
111336
112068
113469
115683
111465
111425
111410
111419
111452
111508
111581
111666
111749
111816
111437
111368
111340
111355
111411
111509
111644
111807
111981
112128
111411
111310
111270
111286
111362
111499
111698
111952
112247
112512
111348
111220
111165
111181
111273
111446
111710
112064
112511
112940
111260
111104
111039
111050
111151
111348
111665
112109
112721
113345
111224
111051
110975
110983
111088
111302
111660
112182
112960
113796
111082
110889
110806
110807
110910
111130
111516
112099
113034
114096
111114
110916
110827
110829
110936
111163
111570
112199
113267
114546
110989
110782
110688
110683
110783
111006
111417
112083
113236
114761
111034
110829
110742
110753
110873
111119
111554
112254
113447
115162
111606
111581
111572
111577
111598
111631
111674
111721
111766
111801
111593
111546
111526
111536
111574
111640
111728
111830
111933
112015
111586
111509
111477
111490
111548
111650
111793
111966
112152
112309
111527
111422
111378
111392
111469
111608
111811
112069
112366
112632
111446
111313
111257
111270
111360
111529
111787
112130
112554
112955
111408
111255
111189
111201
111300
111493
111799
112222
112782
113338
111265
111091
111016
111024
111127
111335
111678
112169
112866
113597
111293
111111
111030
111039
111148
111369
111742
112290
113111
114020
111162
110969
110884
110887
110993
111217
111605
112198
113112
114227
111201
111009
110927
110942
111061
111302
111710
112338
113301
114569
111693
111679
111673
111676
111688
111707
111732
111758
111783
111801
111687
111656
111642
111649
111674
111717
111772
111835
111895
111941
111696
111640
111618
111627
111669
111741
111839
111953
112070
112163
111643
111563
111528
111540
111600
111706
111855
112037
112232
112398
111576
111468
111423
111435
111510
111647
111848
112102
112392
112650
111543
111414
111359
111372
111459
111624
111873
112200
112597
112967
111407
111255
111191
111201
111297
111482
111772
112167
112675
113175
111438
111276
111205
111218
111321
111523
111848
112302
112916
113551
111304
111129
111054
111063
111168
111378
111723
112224
112923
113715
111342
111168
111093
111109
111223
111447
111811
112345
113094
113999
111743
111734
111731
111732
111739
111750
111764
111779
111792
111802
111735
111716
111707
111711
111727
111753
111787
111825
111860
111887
111759
111720
111704
111710
111739
111788
111853
111926
111998
112054
111711
111651
111625
111634
111679
111756
111862
111986
112113
112216
111659
111575
111540
111551
111610
111716
111866
112048
112243
112409
111636
111531
111486
111499
111572
111706
111900
112144
112420
112664
111509
111382
111329
111340
111423
111579
111814
112120
112482
112821
111549
111410
111350
111364
111457
111632
111902
112263
112710
113148
111414
111262
111198
111209
111305
111492
111785
112190
112710
113259
111455
111302
111237
111253
111357
111555
111865
112301
112865
113495
111764
111758
111757
111757
111762
111768
111775
111783
111791
111796
111751
111739
111733
111735
111745
111761
111782
111804
111825
111840
111786
111760
111749
111753
111772
111804
111846
111892
111936
111968
111740
111697
111679
111685
111717
111772
111844
111927
112008
112072
111705
111642
111616
111625
111670
111748
111856
111983
112112
112218
111692
111611
111576
111587
111645
111749
111895
112072
112260
112419
111576
111474
111431
111442
111511
111637
111819
112048
112301
112528
111628
111515
111465
111479
111558
111703
111918
112194
112513
112810
111493
111366
111313
111325
111409
111567
111805
112121
112497
112871
111541
111412
111357
111372
111462
111630
111885
112226
112639
113068
111764
111761
111761
111761
111763
111766
111771
111775
111779
111782
111742
111735
111732
111733
111739
111748
111761
111774
111786
111795
111788
111771
111764
111767
111779
111800
111826
111854
111880
111899
111742
111713
111700
111704
111726
111763
111811
111866
111916
111956
111723
111678
111659
111666
111698
111755
111830
111916
111999
112066
111719
111659
111633
111641
111686
111763
111870
111994
112120
112223
111614
111535
111502
111511
111566
111663
111800
111966
112139
112290
111680
111591
111552
111564
111628
111744
111909
112113
112336
112533
111545
111441
111399
111410
111480
111608
111795
112033
112299
112549
111602
111497
111452
111466
111541
111678
111878
112137
112431
112718
111752
111750
111750
111750
111751
111753
111755
111757
111759
111761
111718
111714
111712
111713
111716
111722
111729
111737
111744
111749
111775
111764
111760
111762
111770
111782
111798
111815
111829
111840
111725
111705
111697
111700
111714
111739
111770
111805
111836
111861
111721
111690
111677
111682
111705
111744
111794
111851
111904
111946
111725
111682
111663
111670
111702
111758
111833
111918
112001
112067
111630
111570
111545
111553
111595
111667
111766
111883
112000
112098
111711
111644
111614
111624
111674
111762
111885
112031
112184
112312
111574
111492
111459
111469
111525
111624
111765
111939
112123
112288
111642
111560
111525
111537
111596
111704
111856
112045
112251
112439
111731
111730
111730
111730
111731
111732
111733
111734
111735
111736
111684
111682
111681
111681
111683
111687
111691
111695
111699
111703
111753
111747
111745
111746
111751
111758
111767
111777
111784
111789
111696
111684
111678
111680
111689
111705
111725
111746
111765
111780
111707
111686
111677
111681
111696
111722
111756
111792
111825
111850
111716
111686
111673
111678
111701
111740
111791
111848
111902
111943
111629
111585
111568
111574
111604
111656
111726
111806
111882
111946
111726
111677
111656
111664
111701
111766
111854
111956
112058
112140
111583
111521
111497
111505
111547
111622
111724
111847
111972
112079
111667
111605
111578
111588
111634
111714
111826
111960
112100
112222
111708
111707
111708
111708
111708
111709
111709
111710
111710
111710
111645
111644
111644
111644
111645
111647
111649
111652
111654
111656
111729
111726
111725
111726
111729
111733
111738
111743
111746
111748
111662
111654
111651
111652
111658
111668
111680
111693
111704
111713
111685
111672
111667
111669
111679
111696
111717
111740
111760
111774
111698
111678
111669
111673
111689
111715
111749
111786
111820
111845
111617
111587
111575
111579
111601
111637
111684
111737
111786
111827
111731
111697
111682
111688
111715
111761
111823
111891
111958
112009
111578
111532
111515
111521
111552
111606
111678
111762
111845
111914
111681
111636
111616
111624
111657
111716
111796
111887
111981
112057
111689
111688
111689
111689
111689
111689
111690
111690
111690
111689
111605
111604
111604
111604
111605
111606
111607
111609
111610
111612
111708
111707
111707
111708
111709
111711
111714
111716
111717
111716
111627
111623
111621
111621
111625
111631
111638
111645
111651
111657
111661
111653
111650
111652
111659
111669
111682
111696
111707
111715
111675
111663
111657
111659
111670
111687
111709
111732
111753
111768
111600
111580
111572
111575
111590
111614
111645
111679
111709
111735
111731
111709
111698
111703
111722
111753
111794
111839
111882
111912
111562
111530
111518
111522
111544
111581
111630
111686
111739
111784
111690
111659
111645
111651
111675
111715
111770
111831
111892
111939
111682
111682
111682
111682
111682
111682
111682
111682
111682
111681
111566
111566
111566
111566
111566
111567
111567
111568
111569
111570
111693
111694
111694
111695
111696
111697
111698
111698
111697
111695
111596
111593
111593
111593
111596
111599
111603
111607
111609
111612
111638
111634
111632
111634
111638
111644
111652
111659
111665
111669
111650
111643
111639
111641
111648
111659
111672
111686
111699
111707
111582
111569
111565
111567
111577
111592
111612
111632
111650
111665
111729
111714
111708
111711
111723
111744
111771
111800
111827
111843
111538
111516
111508
111511
111526
111551
111583
111619
111652
111681
111704
111683
111673
111677
111694
111721
111758
111797
111836
111864
111703
111702
111703
111703
111703
111703
111703
111702
111701
111701
111529
111529
111529
111529
111529
111530
111530
111531
111531
111533
111688
111689
111690
111690
111691
111691
111691
111691
111689
111686
111572
111571
111571
111572
111573
111575
111577
111578
111579
111580
111618
111615
111615
111616
111618
111622
111626
111630
111633
111635
111625
111621
111619
111620
111624
111631
111639
111648
111655
111660
111565
111558
111555
111557
111564
111573
111585
111597
111607
111615
111722
111713
111708
111710
111718
111732
111750
111768
111786
111794
111505
111491
111486
111488
111498
111514
111535
111557
111577
111596
111736
111722
111716
111718
111729
111747
111771
111796
111821
111837
111780
111780
111780
111780
111780
111780
111780
111779
111778
111776
111490
111490
111490
111491
111491
111491
111491
111492
111492
111494
111687
111688
111688
111688
111688
111689
111689
111689
111688
111685
111560
111560
111561
111561
111563
111564
111565
111565
111564
111564
111602
111600
111600
111601
111602
111605
111608
111610
111612
111613
111602
111599
111598
111599
111602
111606
111612
111617
111622
111625
111551
111547
111546
111548
111552
111558
111566
111573
111578
111582
111699
111693
111689
111691
111696
111705
111717
111729
111742
111747
111457
111447
111444
111446
111453
111463
111476
111490
111502
111514
111811
111802
111797
111799
111806
111818
111834
111850
111867
111875
111942
111942
111942
111941
111941
111941
111941
111941
111941
111941
111437
111437
111439
111439
111440
111441
111441
111441
111441
111443
111680
111678
111677
111676
111676
111677
111679
111682
111684
111686
111564
111565
111565
111566
111567
111568
111570
111571
111571
111571
111596
111594
111593
111593
111594
111597
111600
111603
111606
111608
111588
111585
111584
111585
111587
111590
111595
111600
111605
111608
111545
111543
111542
111543
111546
111551
111556
111562
111567
111568
111649
111642
111639
111640
111643
111650
111659
111669
111680
111687
111380
111375
111373
111375
111380
111387
111396
111406
111412
111419
111953
111946
111943
111944
111949
111958
111969
111980
111994
111999
112140
112137
112136
112135
112135
112135
112137
112139
112142
112147
111381
111384
111386
111387
111389
111390
111391
111391
111392
111393
111671
111664
111660
111659
111659
111661
111665
111671
111680
111693
111589
111587
111587
111587
111588
111590
111592
111596
111601
111607
111606
111602
111600
111600
111601
111603
111607
111613
111619
111628
111592
111588
111586
111586
111588
111592
111597
111603
111610
111619
111556
111552
111551
111551
111554
111558
111564
111571
111577
111583
111591
111583
111580
111580
111583
111589
111597
111607
111619
111632
111298
111296
111294
111295
111299
111306
111314
111322
111328
111328
112119
112113
112110
112110
112115
112122
112132
112142
112154
112159
123152
124353
124187
122957
126306
127706
127322
125760
129342
130931
130363
128445
131654
133369
132618
130436
133469
135273
134380
132012
134927
136802
136019
133565
135937
137855
137216
134709
136802
138735
138270
135739
136723
138636
138322
135814
136337
138240
138183
135833
113934
114122
114163
114051
116181
116548
116611
116338
118509
119061
119130
118649
120746
121470
121532
120818
122799
123667
123708
122753
124732
125722
125742
124609
126321
127406
127410
126136
127846
129001
129000
127633
128613
129810
129818
128411
129254
130493
130554
129196
112877
112965
112993
112969
114205
114372
114413
114351
115737
116005
116063
115944
117303
117680
117750
117555
118813
119300
119374
119083
120359
120956
121033
120637
121692
122389
122465
121961
123088
123869
123944
123337
123892
124727
124805
124112
124695
125573
125673
124929
112138
112161
112173
112174
112918
112972
112993
112989
113913
114019
114056
114038
115017
115191
115247
115204
116111
116361
116435
116353
117292
117626
117716
117583
118325
118743
118846
118651
119492
119986
120099
119837
120188
120738
120861
120541
120949
121545
121689
121333
111924
111934
111940
111941
112438
112463
112475
112476
113085
113138
113161
113161
113846
113936
113973
113970
114617
114752
114805
114792
115489
115678
115748
115718
116244
116490
116577
116521
117167
117470
117571
117483
117728
118076
118193
118077
118393
118780
118919
118783
111834
111839
111841
111842
112181
112191
112197
112199
112627
112651
112664
112669
113155
113199
113223
113230
113702
113773
113809
113816
114350
114455
114505
114510
114895
115038
115103
115101
115623
115806
115884
115870
116067
116282
116377
116352
116613
116856
116968
116932
111810
111812
111813
111814
112043
112049
112053
112054
112368
112381
112389
112392
112739
112762
112777
112783
113131
113170
113193
113202
113617
113676
113709
113721
114006
114089
114134
114147
114583
114692
114749
114759
114924
115055
115125
115131
115353
115504
115585
115587
111806
111807
111808
111808
111957
111960
111962
111963
112195
112202
112208
112210
112456
112469
112478
112483
112743
112765
112779
112786
113114
113148
113169
113179
113391
113439
113469
113482
113853
113918
113956
113970
114097
114178
114225
114238
114432
114525
114579
114591
111804
111805
111805
111805
111896
111898
111900
111901
112072
112077
112080
112082
112249
112257
112263
112267
112461
112474
112483
112488
112748
112767
112781
112788
112942
112970
112989
112999
113317
113356
113381
113393
113476
113525
113556
113568
113741
113797
113833
113844
111797
111798
111798
111798
111846
111847
111848
111849
111979
111982
111984
111985
112092
112097
112101
112103
112248
112256
112261
112265
112469
112480
112489
112494
112599
112616
112628
112635
112908
112932
112948
112956
112999
113029
113049
113057
113212
113247
113269
113278
111783
111783
111783
111783
111798
111799
111800
111801
111904
111906
111907
111908
111968
111971
111973
111975
112084
112088
112092
112094
112253
112260
112266
112269
112332
112342
112350
112355
112592
112607
112617
112622
112627
112646
112659
112665
112805
112827
112841
112847
111761
111761
111761
111761
111751
111752
111752
111753
111842
111843
111844
111845
111867
111869
111870
111872
111956
111958
111960
111962
112085
112089
112093
112095
112123
112129
112134
112138
112348
112357
112363
112367
112337
112349
112357
112361
112492
112506
112515
112519
111736
111736
111736
111736
111703
111703
111704
111704
111790
111790
111791
111791
111783
111784
111785
111786
111855
111856
111857
111859
111953
111956
111958
111960
111960
111964
111967
111969
112161
112167
112171
112173
112110
112118
112123
112126
112254
112263
112268
112271
111710
111710
111710
111710
111656
111656
111656
111657
111747
111747
111747
111747
111713
111714
111714
111715
111776
111776
111777
111778
111851
111852
111853
111854
111834
111836
111838
111839
112021
112025
112027
112029
111934
111939
111942
111943
112077
112082
112086
112087
111689
111689
111689
111689
111611
111611
111611
111611
111714
111714
111714
111714
111656
111656
111656
111657
111714
111714
111714
111715
111771
111771
111772
111773
111737
111738
111739
111740
111920
111921
111923
111923
111796
111799
111802
111802
111951
111953
111956
111957
111681
111681
111681
111680
111569
111569
111569
111570
111693
111692
111692
111692
111610
111609
111609
111610
111667
111667
111667
111667
111708
111709
111709
111709
111664
111664
111665
111665
111848
111849
111850
111850
111689
111691
111692
111692
111870
111871
111872
111873
111700
111700
111700
111700
111531
111531
111531
111531
111684
111684
111683
111682
111577
111576
111575
111575
111633
111632
111632
111632
111660
111660
111660
111660
111612
111611
111611
111611
111798
111798
111799
111799
111600
111601
111602
111602
111839
111839
111840
111841
111776
111776
111775
111775
111492
111491
111491
111492
111685
111685
111684
111683
111559
111558
111558
111557
111612
111611
111610
111610
111626
111625
111625
111625
111577
111575
111575
111575
111754
111754
111755
111754
111516
111516
111517
111517
111876
111875
111876
111877
111940
111940
111940
111940
111438
111437
111437
111437
111690
111690
111689
111689
111566
111565
111564
111563
111608
111608
111607
111607
111609
111609
111609
111609
111563
111561
111561
111561
111700
111702
111702
111701
111414
111413
111413
111413
112005
112005
112006
112007
112149
112150
112150
112151
111382
111379
111378
111377
111708
111710
111711
111711
111608
111608
111608
111607
111635
111636
111636
111636
111626
111627
111627
111627
111584
111583
111583
111583
111654
111659
111660
111658
111307
111302
111301
111304
112182
112185
112186
112183
116855
114409
112541
111298
110521
110019
109677
109436
109263
109132
117995
114888
112589
111249
110457
109956
109625
109396
109237
109118
118597
115173
112570
111314
110527
110039
109712
109487
109334
109229
118867
115348
112536
111434
110665
110208
109893
109674
109520
109405
118872
115418
112529
111543
110774
110343
110031
109816
109660
109545
118724
115558
112617
111756
110974
110568
110252
110036
109871
109739
118326
115541
112547
111813
111005
110622
110297
110078
109906
109776
118102
115748
112700
112092
111254
110888
110542
110310
110119
109964
117517
115535
112495
112058
111234
110908
110548
110306
110105
109942
118022
116262
113195
112780
111832
111401
110927
110595
110323
110091
113524
112811
112174
111641
111204
110848
110560
110328
110142
109997
115155
113852
112767
111954
111343
110886
110542
110280
110078
109925
116594
114735
113262
112243
111500
110969
110585
110302
110093
109946
117755
115427
113629
112485
111663
111100
110698
110405
110187
110029
118572
115909
113849
112627
111751
111172
110760
110462
110238
110079
119227
116358
114080
112823
111906
111323
110903
110601
110370
110198
119531
116562
114103
112844
111893
111314
110885
110581
110344
110173
119864
116898
114295
113066
112090
111518
111076
110760
110510
110317
119725
116786
114133
113008
112055
111510
111058
110733
110473
110271
120171
117330
114640
113534
112504
111883
111351
110960
110650
110398
112823
112523
112186
111861
111567
111309
111089
110902
110746
110620
114016
113411
112776
112227
111779
111417
111124
110888
110696
110546
115325
114333
113360
112583
111982
111521
111167
110892
110679
110523
116566
115161
113869
112907
112187
111655
111255
110951
110716
110541
117630
115815
114226
113112
112295
111712
111280
110956
110707
110526
118628
116432
114574
113343
112450
111831
111376
111038
110778
110583
119329
116797
114700
113386
112432
111790
111318
110972
110703
110508
120057
117255
114965
113608
112611
111957
111468
111109
110828
110615
120272
117265
114890
113570
112580
111935
111434
111063
110771
110548
120799
117710
115289
113964
112917
112217
111659
111241
110915
110656
112154
112065
111937
111792
111642
111497
111362
111240
111132
111041
112924
112714
112444
112168
111907
111670
111460
111278
111125
110998
113885
113481
113004
112555
112159
111823
111542
111310
111120
110974
114916
114272
113562
112937
112411
111983
111638
111359
111136
110962
115874
114954
113999
113206
112563
112058
111661
111348
111099
110911
116852
115639
114437
113494
112748
112182
111744
111404
111136
110930
117613
116102
114663
113590
112758
112144
111675
111316
111033
110823
118453
116665
115015
113846
112948
112299
111804
111426
111129
110901
118849
116827
115051
113850
112927
112264
111749
111358
111049
110813
119467
117276
115406
114158
113181
112475
111920
111494
111161
110899
111934
111897
111839
111767
111688
111607
111527
111452
111383
111323
112453
112366
112238
112091
111937
111787
111647
111519
111407
111311
113111
112935
112696
112440
112192
111962
111757
111578
111424
111302
113877
113576
113192
112806
112448
112133
111860
111629
111435
111278
114632
114171
113617
113091
112624
112227
111894
111619
111391
111215
115458
114810
114071
113406
112834
112364
111979
111667
111413
111212
116129
115272
114340
113542
112875
112343
111915
111574
111298
111088
116928
115859
114742
113831
113084
112501
112038
111671
111377
111148
117373
116111
114861
113878
113080
112464
111973
111589
111282
111045
117978
116546
115186
114135
113285
112629
112106
111696
111371
111114
111840
111824
111797
111762
111721
111677
111632
111589
111547
111511
112192
112154
112091
112013
111925
111835
111746
111662
111586
111519
112654
112576
112455
112312
112160
112010
111868
111737
111622
111527
113203
113062
112857
112627
112394
112173
111971
111791
111634
111503
113767
113539
113227
112894
112572
112278
112016
111789
111595
111440
114423
114086
113649
113205
112791
112425
112108
111839
111614
111431
114960
114492
113915
113358
112854
112421
112056
111752
111499
111303
115658
115047
114328
113663
113078
112588
112180
111845
111572
111354
116073
115323
114484
113734
113086
112552
112113
111758
111467
111240
116598
115717
114779
113960
113261
112690
112222
111845
111540
111298
111813
111805
111792
111774
111752
111728
111703
111679
111655
111633
112050
112031
111998
111955
111905
111852
111797
111744
111694
111649
112386
112346
112281
112198
112106
112009
111914
111824
111741
111672
112773
112703
112589
112451
112302
112151
112007
111874
111754
111651
113186
113069
112891
112683
112466
112255
112058
111881
111725
111597
113692
113515
113257
112968
112677
112403
112155
111936
111747
111590
114099
113844
113492
113115
112748
112412
112115
111858
111639
111465
114682
114338
113884
113418
112977
112585
112244
111955
111712
111515
115025
114586
114036
113491
112989
112551
112177
111865
111604
111396
115451
114925
114299
113694
113146
112674
112274
111942
111669
111447
111807
111803
111797
111787
111776
111763
111749
111735
111721
111709
111962
111952
111934
111910
111882
111850
111817
111785
111754
111724
112207
112186
112149
112101
112045
111984
111922
111862
111806
111758
112479
112441
112376
112292
112197
112097
111998
111903
111816
111738
112781
112718
112613
112482
112338
112191
112049
111917
111797
111697
113170
113073
112919
112731
112531
112333
112146
111976
111825
111696
113467
113326
113110
112858
112597
112346
112114
111908
111726
111579
113944
113749
113464
113144
112823
112521
112249
112010
111805
111634
114198
113941
113587
113204
112830
112487
112182
111920
111695
111513
114537
114227
113818
113388
112975
112601
112273
111993
111757
111563
111805
111803
111800
111795
111788
111781
111774
111766
111758
111751
111900
111895
111885
111871
111855
111837
111817
111798
111778
111760
112080
112069
112048
112019
111985
111947
111908
111869
111832
111800
112265
112244
112206
112154
112094
112029
111962
111897
111836
111780
112486
112450
112387
112305
112210
112110
112010
111915
111827
111752
112785
112730
112635
112514
112379
112239
112103
111975
111859
111758
112995
112914
112779
112612
112431
112248
112074
111914
111770
111651
113384
113270
113090
112874
112646
112422
112212
112023
111856
111714
113552
113402
113175
112912
112642
112383
112144
111932
111746
111593
113823
113640
113377
113078
112777
112492
112233
112006
111809
111645
111798
111797
111795
111792
111789
111785
111781
111776
111772
111768
111849
111846
111841
111833
111824
111813
111802
111790
111778
111766
111985
111978
111966
111949
111928
111905
111881
111856
111832
111812
112103
112091
112068
112037
111999
111957
111914
111870
111829
111789
112264
112243
112205
112153
112091
112025
111956
111890
111827
111773
112493
112460
112402
112324
112233
112138
112041
111948
111863
111786
112634
112586
112501
112391
112267
112138
112011
111891
111781
111689
112953
112886
112771
112628
112469
112307
112151
112006
111876
111763
113051
112961
112817
112640
112449
112259
112078
111913
111764
111641
113269
113161
112992
112790
112576
112366
112168
111990
111833
111699
111783
111782
111781
111780
111778
111776
111773
111771
111769
111767
111801
111799
111796
111792
111787
111781
111774
111767
111760
111752
111908
111904
111897
111887
111875
111861
111846
111831
111816
111804
111975
111968
111955
111936
111913
111886
111858
111830
111802
111775
112095
112082
112058
112026
111986
111942
111897
111851
111808
111771
112269
112249
112213
112163
112103
112038
111972
111907
111845
111789
112355
112325
112272
112200
112117
112028
111937
111850
111769
111700
112621
112581
112508
112413
112305
112192
112079
111972
111874
111786
112662
112607
112515
112397
112266
112130
111997
111873
111758
111662
112843
112778
112671
112536
112387
112237
112091
111956
111834
111729
111761
111761
111760
111760
111759
111757
111756
111755
111753
111753
111753
111752
111751
111749
111746
111742
111738
111735
111730
111725
111845
111843
111839
111833
111826
111817
111808
111799
111790
111784
111872
111869
111861
111849
111835
111819
111801
111783
111765
111747
111963
111955
111941
111920
111895
111867
111837
111807
111778
111753
112095
112083
112060
112029
111990
111947
111902
111858
111815
111775
112139
112120
112086
112040
111985
111924
111862
111800
111742
111692
112367
112342
112296
112234
112162
112084
112005
111928
111857
111791
112359
112326
112267
112189
112100
112005
111910
111820
111734
111662
112517
112477
112409
112321
112220
112115
112010
111911
111820
111740
111736
111736
111735
111735
111734
111734
111733
111732
111732
111731
111705
111705
111704
111703
111701
111700
111697
111695
111693
111689
111791
111790
111788
111785
111780
111776
111770
111765
111760
111758
111787
111785
111781
111774
111766
111756
111745
111734
111723
111711
111859
111855
111846
111833
111818
111800
111781
111762
111743
111727
111960
111953
111939
111919
111894
111866
111837
111807
111778
111751
111971
111959
111938
111908
111872
111832
111789
111747
111707
111673
112173
112158
112129
112090
112042
111990
111935
111882
111832
111784
112125
112104
112066
112016
111956
111892
111826
111761
111700
111648
112270
112246
112203
112146
112079
112007
111934
111864
111798
111740
111710
111710
111710
111709
111709
111709
111709
111708
111708
111708
111658
111658
111658
111657
111656
111655
111654
111653
111652
111648
111747
111747
111745
111744
111741
111739
111736
111733
111731
111730
111716
111715
111713
111709
111705
111699
111692
111686
111679
111671
111778
111776
111771
111763
111754
111743
111731
111719
111707
111698
111855
111851
111842
111830
111814
111797
111778
111759
111740
111721
111841
111833
111820