/*--------------------------------*- C++ -*----------------------------------*\
| =========                 |                                                 |
| \\      /  F ield         | foam-extend: Open Source CFD                    |
|  \\    /   O peration     | Version:     4.0                                |
|   \\  /    A nd           | Web:         http://www.foam-extend.org         |
|    \\/     M anipulation  |                                                 |
\*---------------------------------------------------------------------------*/
FoamFile
{
    version     2.0;
    format      ascii;
    class       surfaceScalarField;
    location    "600";
    object      phi;
}
// * * * * * * * * * * * * * * * * * * * * * * * * * * * * * * * * * * * * * //

dimensions      [1 0 -1 0 0 0 0];

internalField   nonuniform List<scalar> 
97302
(
-0.000109889
9.91396e-07
-0.000855719
0.000864561
-0.000119372
1.21711e-06
-0.000856924
0.000865191
-0.000129021
1.31348e-06
-0.000857626
0.000865961
-0.000139409
1.29153e-06
-0.000857837
0.000866934
-0.000151369
1.14544e-06
-0.000857558
0.000868372
-0.000166378
8.62655e-07
-0.000856589
0.000870735
-0.000187507
4.12921e-07
-0.000854328
0.000875044
-0.000221679
-2.55398e-07
-0.000848941
0.000883369
-0.000269886
-1.27499e-06
-0.000839387
0.000888881
-4.02292e-06
-0.000812016
-0.000350907
0.000897059
-0.000150924
1.904e-06
-0.00114539
0.00115471
-0.0001608
2.35097e-06
-0.00114704
0.00115579
-0.000170818
2.53615e-06
-0.0011482
0.001157
-0.000181513
2.50554e-06
-0.0011487
0.00115818
-0.000193698
2.25166e-06
-0.0011483
0.00115938
-0.000209097
1.75981e-06
-0.00114665
0.00116116
-0.000231501
9.67864e-07
-0.00114329
0.00116514
-0.000270201
-2.32394e-07
-0.00113649
0.00117516
-0.000326529
-2.17166e-06
-0.00112406
0.0011813
-6.80477e-06
-0.00108657
-0.00043027
0.00119309
-0.000191664
2.73015e-06
-0.00143621
0.00144592
-0.000201754
3.33638e-06
-0.00143809
0.0014472
-0.000211869
3.57939e-06
-0.00143955
0.00144862
-0.000222534
3.54605e-06
-0.00144014
0.00144977
-0.000234716
3.23162e-06
-0.00143955
0.00145075
-0.000250556
2.62877e-06
-0.00143762
0.00145259
-0.000274421
1.66396e-06
-0.00143427
0.00145744
-0.000317342
2.26213e-07
-0.00142784
0.0014703
-0.000380277
-2.18765e-06
-0.00141467
0.00147762
-8.11354e-06
-0.00136699
-0.000498918
0.00148694
-0.000232808
3.42757e-06
-0.00172606
0.00173629
-0.000243201
4.16382e-06
-0.00172822
0.00173778
-0.000253591
4.46031e-06
-0.00172998
0.00173949
-0.000264539
4.44419e-06
-0.00173087
0.00174092
-0.000277079
4.09998e-06
-0.0017306
0.00174227
-0.000293536
3.42914e-06
-0.00172915
0.0017448
-0.00031862
2.34105e-06
-0.00172639
0.00175079
-0.000364689
7.28808e-07
-0.0017206
0.00176617
-0.000432371
-2.07995e-06
-0.00170715
0.00177473
-9.22408e-06
-0.00164886
-0.000560219
0.00177782
-0.000274143
3.99526e-06
-0.00201887
0.00202954
-0.000284727
4.77284e-06
-0.00202132
0.0020313
-0.000295272
5.08241e-06
-0.00202348
0.0020334
-0.000306373
5.06997e-06
-0.00202478
0.00203525
-0.000319131
4.71302e-06
-0.00202506
0.00203721
-0.000335998
4.01804e-06
-0.00202438
0.00204066
-0.000362019
2.87989e-06
-0.00202256
0.00204805
-0.000410645
1.1948e-06
-0.0020179
0.00206606
-0.000482352
-1.87531e-06
-0.00200511
0.00207661
-1.01629e-05
-0.00193547
-0.00061617
0.00207023
-0.000316162
4.13579e-06
-0.00231146
0.00232278
-0.000326852
4.91368e-06
-0.00231414
0.00232469
-0.000337435
5.20328e-06
-0.00231646
0.00232692
-0.00034854
5.17278e-06
-0.00231804
0.00232904
-0.000361314
4.8005e-06
-0.00231883
0.00233152
-0.00037831
4.10178e-06
-0.00231904
0.00233596
-0.000404902
2.96561e-06
-0.00231849
0.00234499
-0.000455468
1.29864e-06
-0.00231543
0.00236589
-0.000530611
-1.80535e-06
-0.0023046
0.00237968
-1.09893e-05
-0.00222327
-0.000668529
0.00236201
-0.00035804
3.81695e-06
-0.00260439
0.0026162
-0.000368642
4.50375e-06
-0.00260734
0.00261835
-0.000379094
4.74672e-06
-0.00260994
0.00262085
-0.000390032
4.67106e-06
-0.00261186
0.0026233
-0.000402653
4.27316e-06
-0.00261324
0.00262639
-0.000419562
3.5537e-06
-0.00261446
0.00263192
-0.000446432
2.45036e-06
-0.00261545
0.00264284
-0.000498374
9.12495e-07
-0.00261458
0.00266691
-0.000576389
-1.79848e-06
-0.002607
0.00268501
-1.12382e-05
-0.00251368
-0.00071654
0.00265408
-0.000401035
2.88111e-06
-0.0028971
0.00290961
-0.000411646
3.40117e-06
-0.00290036
0.00291207
-0.000422036
3.49963e-06
-0.0029029
0.00291454
-0.000432848
3.26937e-06
-0.00290476
0.00291697
-0.000445244
2.73497e-06
-0.00290617
0.0029201
-0.000461787
1.88328e-06
-0.00290784
0.00292605
-0.000488341
7.34839e-07
-0.00291
0.00293827
-0.000540524
-6.68669e-07
-0.00291124
0.00296501
-0.000620117
-2.41563e-06
-0.00290787
0.00298808
-1.07634e-05
-0.00280449
-0.000760825
0.00294473
-0.000443181
1.4216e-06
-0.0031838
0.00319635
-0.000453315
1.54355e-06
-0.00318781
0.00319981
-0.00046323
1.31241e-06
-0.00319104
0.00320314
-0.000473638
6.66298e-07
-0.00319383
0.00320684
-0.000485773
-2.81174e-07
-0.00319653
0.00321168
-0.000502096
-1.51951e-06
-0.00319979
0.00321952
-0.000528504
-2.88297e-06
-0.00320414
0.00323417
-0.000580513
-4.11002e-06
-0.00320886
0.00326431
-0.000660186
-4.48186e-06
-0.00320946
0.0032912
-9.44251e-06
-0.00309615
-0.000798487
0.00323313
-0.000485407
-0.00345094
0.00346391
-0.000496174
-0.00345434
0.00346665
-0.00050666
-0.00345532
0.00346712
-0.000517615
-0.00345391
0.00346553
-0.000530162
-0.00345072
0.00346299
-0.00054654
-0.00344682
0.00346168
-0.00057214
-0.00344331
0.00346603
-0.000621419
-0.00344185
0.00348702
-0.000694864
-0.00344346
0.00351242
-0.00334021
-0.000825625
0.00346153
1.4881e-05
9.64847e-07
-0.00084767
6.06443e-06
1.22418e-06
-0.000849332
-2.8371e-06
1.33898e-06
-0.000850064
-1.20138e-05
1.31774e-06
-0.000849978
-2.16724e-05
1.15412e-06
-0.000849054
-3.20491e-05
8.27143e-07
-0.00084704
-4.33167e-05
2.98836e-07
-0.000843359
-5.49198e-05
-5.17053e-07
-0.000836821
-6.61219e-05
-1.82785e-06
-0.000826357
-3.60805e-06
-0.000809932
-6.45968e-05
1.62968e-05
1.87655e-06
-0.0011363
6.62331e-06
2.37887e-06
-0.00113853
-3.12636e-06
2.59758e-06
-0.00113971
-1.32686e-05
2.57879e-06
-0.00113981
-2.4076e-05
2.31026e-06
-0.00113865
-3.59379e-05
1.7652e-06
-0.00113573
-4.96988e-05
8.72107e-07
-0.00113011
-6.64144e-05
-5.01251e-07
-0.00111979
-8.76183e-05
-2.7678e-06
-0.00110192
-5.9249e-06
-0.00107267
-9.92044e-05
1.78623e-05
2.73073e-06
-0.00142626
7.55683e-06
3.41134e-06
-0.00142882
-2.75259e-06
3.70084e-06
-0.00143034
-1.34051e-05
3.68888e-06
-0.0014306
-2.4757e-05
3.35873e-06
-0.00142924
-3.75868e-05
2.68527e-06
-0.00142571
-5.3638e-05
1.5695e-06
-0.00141891
-7.56293e-05
-1.24678e-07
-0.00140622
-0.000107832
-3.02485e-06
-0.00138221
-7.28443e-06
-0.0013387
-0.000134759
1.91057e-05
3.45108e-06
-0.00171532
8.29662e-06
4.28465e-06
-0.00171828
-2.48816e-06
4.64062e-06
-0.00172014
-1.36726e-05
4.65632e-06
-0.00172065
-2.57394e-05
4.30099e-06
-0.00171948
-3.97254e-05
3.55491e-06
-0.00171603
-5.79422e-05
2.27975e-06
-0.00170888
-8.45274e-05
3.48035e-07
-0.00169449
-0.000127293
-3.08485e-06
-0.00166433
-8.35634e-06
-0.00160465
-0.000170437
2.01513e-05
4.03243e-06
-0.00200744
9.01092e-06
4.92073e-06
-0.00201082
-2.05914e-06
5.29736e-06
-0.00201306
-1.35601e-05
5.32416e-06
-0.00201394
-2.612e-05
4.96141e-06
-0.00201316
-4.09686e-05
4.19184e-06
-0.00201017
-6.09102e-05
2.83663e-06
-0.00200318
-9.14202e-05
7.78781e-07
-0.00198782
-0.000144326
-3.02797e-06
-0.00195226
-9.18003e-06
-0.00187544
-0.000203532
2.07332e-05
4.20024e-06
-0.00229921
9.38383e-06
5.09825e-06
-0.00230297
-1.80925e-06
5.46086e-06
-0.00230543
-1.34202e-05
5.47787e-06
-0.00230658
-2.62096e-05
5.10811e-06
-0.00230619
-4.15847e-05
4.34401e-06
-0.00230382
-6.28132e-05
2.98314e-06
-0.00229741
-9.65845e-05
9.14293e-07
-0.00228179
-0.000159137
-3.0056e-06
-0.00224207
-9.8444e-06
-0.00214791
-0.000233831
2.10025e-05
3.86156e-06
-0.00259147
9.68085e-06
4.66221e-06
-0.00259558
-1.42815e-06
4.97694e-06
-0.00259835
-1.29268e-05
4.95399e-06
-0.00259984
-2.57176e-05
4.58308e-06
-0.00259992
-4.13334e-05
3.83416e-06
-0.00259833
-6.3458e-05
2.52023e-06
-0.00259286
-9.98673e-05
5.25539e-07
-0.00257779
-0.000171385
-3.10223e-06
-0.00253539
-1.02906e-05
-0.00242395
-0.000260673
2.06652e-05
2.93381e-06
-0.00288345
9.36481e-06
3.56354e-06
-0.00288796
-1.59941e-06
3.75644e-06
-0.00289072
-1.28846e-05
3.62128e-06
-0.00289214
-2.54603e-05
3.18088e-06
-0.00289219
-4.09445e-05
2.39022e-06
-0.00289091
-6.33488e-05
1.14554e-06
-0.00288622
-0.000101338
-6.81402e-07
-0.00287205
-0.000180566
-3.40883e-06
-0.00282834
-1.02851e-05
-0.00270093
-0.000284134
2.02085e-05
1.45531e-06
-0.00316992
9.38539e-06
1.65331e-06
-0.00317508
-1.04188e-06
1.54578e-06
-0.0031784
-1.17734e-05
1.03865e-06
-0.00318051
-2.39552e-05
2.60566e-07
-0.00318142
-3.93206e-05
-8.05708e-07
-0.00318123
-6.21191e-05
-2.12187e-06
-0.00317807
-0.000101579
-3.69085e-06
-0.00316639
-0.000187086
-5.08724e-06
-0.00312227
-9.10982e-06
-0.00297702
-0.000307393
1.90924e-05
-0.0034369
7.99623e-06
-0.00344159
-2.48049e-06
-0.0034433
-1.31246e-05
-0.00344223
-2.4979e-05
-0.00343861
-3.97631e-05
-0.00343284
-6.15755e-05
-0.00342362
-9.98945e-05
-0.00340722
-0.000187014
-0.00336143
-0.00321033
-0.000326006
1.24605e-05
9.0511e-07
-0.000841376
5.04522e-06
1.17853e-06
-0.000843095
-2.54715e-06
1.2977e-06
-0.000843769
-1.02302e-05
1.2654e-06
-0.000843561
-1.78876e-05
1.0783e-06
-0.000842474
-2.52863e-05
7.18117e-07
-0.000840359
-3.18868e-05
1.59722e-07
-0.000836918
-3.63893e-05
-6.42639e-07
-0.000831676
-3.69219e-05
-1.78759e-06
-0.000824037
-3.10192e-06
-0.000814093
-2.96582e-05
1.4657e-05
1.81664e-06
-0.0011285
5.89528e-06
2.34136e-06
-0.00113093
-3.01415e-06
2.56548e-06
-0.00113207
-1.21624e-05
2.53067e-06
-0.00113193
-2.15618e-05
2.22591e-06
-0.0011304
-3.1079e-05
1.62269e-06
-0.00112712
-4.03226e-05
6.57095e-07
-0.00112136
-4.81617e-05
-7.62548e-07
-0.00111183
-5.22187e-05
-2.88473e-06
-0.00109676
-5.43923e-06
-0.00107681
-4.5741e-05
1.69333e-05
2.7129e-06
-0.00141713
7.09142e-06
3.42369e-06
-0.00142006
-2.84128e-06
3.7233e-06
-0.00142157
-1.30705e-05
3.69578e-06
-0.00142154
-2.37032e-05
3.32122e-06
-0.0014197
-3.48383e-05
2.56116e-06
-0.00141551
-4.66096e-05
1.30785e-06
-0.00140779
-5.85787e-05
-5.5778e-07
-0.00139446
-6.84593e-05
-3.49625e-06
-0.00137172
-7.21547e-06
-0.00133902
-6.63673e-05
1.86086e-05
3.48055e-06
-0.00170507
7.98411e-06
4.35881e-06
-0.00170859
-2.70498e-06
4.73236e-06
-0.00171046
-1.3798e-05
4.73411e-06
-0.0017106
-2.5563e-05
4.329e-06
-0.00170872
-3.83763e-05
3.47725e-06
-0.00170413
-5.28249e-05
2.01593e-06
-0.00169514
-6.91497e-05
-1.99605e-07
-0.00167852
-8.58214e-05
-3.88867e-06
-0.00164726
-8.73168e-06
-0.00159874
-9.02139e-05
1.99744e-05
4.09795e-06
-0.00199625
8.81428e-06
5.04257e-06
-0.00200034
-2.35512e-06
5.44482e-06
-0.00200261
-1.39954e-05
5.46211e-06
-0.00200303
-2.65653e-05
5.05043e-06
-0.00200131
-4.07096e-05
4.16761e-06
-0.00199671
-5.74897e-05
2.59237e-06
-0.00198698
-7.7978e-05
1.51568e-07
-0.00196768
-0.000102152
-4.15249e-06
-0.00192782
-1.00307e-05
-0.00186153
-0.000114765
2.08343e-05
4.30374e-06
-0.00228704
9.31234e-06
5.26562e-06
-0.00229167
-2.1281e-06
5.65931e-06
-0.0022942
-1.40568e-05
5.6736e-06
-0.00229486
-2.71059e-05
5.25929e-06
-0.00229335
-4.21908e-05
4.38282e-06
-0.00228895
-6.0889e-05
2.78851e-06
-0.0022789
-8.52079e-05
2.75603e-07
-0.00225759
-0.000117412
-4.35433e-06
-0.00220967
-1.10893e-05
-0.00212456
-0.000139707
2.12863e-05
3.97905e-06
-0.00257846
9.6869e-06
4.84231e-06
-0.00258356
-1.7632e-06
5.18964e-06
-0.00258643
-1.3692e-05
5.17086e-06
-0.00258741
-2.69122e-05
4.77208e-06
-0.00258622
-4.25682e-05
3.94468e-06
-0.00258224
-6.27557e-05
2.43088e-06
-0.00257232
-9.04528e-05
-2.34195e-08
-0.00254979
-0.000130813
-4.57298e-06
-0.00249481
-1.19471e-05
-0.00239042
-0.000163485
2.10633e-05
3.05573e-06
-0.00286965
9.44874e-06
3.73826e-06
-0.00287524
-1.88509e-06
3.97296e-06
-0.00287817
-1.36377e-05
3.8733e-06
-0.00287909
-2.67285e-05
3.45015e-06
-0.00287778
-4.25027e-05
2.6487e-06
-0.00287384
-6.35513e-05
1.30126e-06
-0.00286404
-9.37884e-05
-8.79997e-07
-0.00284095
-0.000141809
-4.56602e-06
-0.00278032
-1.20899e-05
-0.00265708
-0.000185515
2.05345e-05
1.57235e-06
-0.00315584
9.3698e-06
1.8016e-06
-0.00316198
-1.44347e-06
1.76997e-06
-0.00316539
-1.26221e-05
1.36578e-06
-0.00316682
-2.52595e-05
7.10116e-07
-0.00316605
-4.0941e-05
-2.24073e-07
-0.00316268
-6.27885e-05
-1.44161e-06
-0.00315348
-9.55756e-05
-3.09849e-06
-0.00313138
-0.000150215
-5.30668e-06
-0.00306689
-1.05411e-05
-0.00292262
-0.000206165
1.94085e-05
-0.00342275
8.14164e-06
-0.00342852
-2.56603e-06
-0.00343082
-1.35222e-05
-0.00342991
-2.57198e-05
-0.0034257
-4.07617e-05
-0.00341803
-6.18221e-05
-0.003404
-9.45871e-05
-0.00337755
-0.000152211
-0.00330911
-0.00315158
-0.000221496
9.71596e-06
7.88101e-07
-0.0008369
3.96569e-06
1.06342e-06
-0.000838408
-2.02027e-06
1.18326e-06
-0.000838966
-7.97008e-06
1.14437e-06
-0.000838755
-1.35818e-05
9.48228e-07
-0.000837811
-1.84386e-05
5.8349e-07
-0.000836086
-2.19011e-05
4.09394e-08
-0.000833497
-2.29232e-05
-6.88876e-07
-0.000829965
-1.99013e-05
-1.6169e-06
-0.000825442
-2.55081e-06
-0.000820233
-1.12092e-05
1.23981e-05
1.66145e-06
-0.00112233
4.96562e-06
2.19423e-06
-0.00112462
-2.67655e-06
2.41855e-06
-0.00112566
-1.03919e-05
2.36964e-06
-0.00112544
-1.79697e-05
2.04081e-06
-0.00112391
-2.50289e-05
1.41081e-06
-0.00112089
-3.08109e-05
4.39453e-07
-0.00111598
-3.38048e-05
-9.13587e-07
-0.00110861
-3.12082e-05
-2.74491e-06
-0.00109823
-4.71213e-06
-0.00108666
-1.9194e-05
1.52248e-05
2.58297e-06
-0.0014093
6.33426e-06
3.30791e-06
-0.00141228
-2.71345e-06
3.60834e-06
-0.00141371
-1.19327e-05
3.55845e-06
-0.0014135
-2.12291e-05
3.14024e-06
-0.00141151
-3.03281e-05
2.3164e-06
-0.00140732
-3.85599e-05
9.96576e-07
-0.00140012
-4.43407e-05
-8.9616e-07
-0.00138869
-4.38032e-05
-3.61136e-06
-0.00137139
-6.70059e-06
-0.00135075
-3.00804e-05
1.73331e-05
3.39324e-06
-0.00169585
7.35326e-06
4.30126e-06
-0.0016996
-2.76556e-06
4.68179e-06
-0.00170141
-1.31899e-05
4.65684e-06
-0.00170127
-2.39871e-05
4.19213e-06
-0.00169897
-3.51041e-05
3.24357e-06
-0.00169394
-4.60893e-05
1.6584e-06
-0.00168482
-5.5393e-05
-6.84186e-07
-0.00166943
-5.82445e-05
-4.27024e-06
-0.00164375
-8.52292e-06
-0.00161049
-4.46732e-05
1.90692e-05
4.04797e-06
-0.00198581
8.29588e-06
5.03649e-06
-0.00199031
-2.55875e-06
5.45407e-06
-0.00199252
-1.38116e-05
5.44523e-06
-0.00199257
-2.57333e-05
4.96516e-06
-0.00199017
-3.85422e-05
3.96216e-06
-0.00198462
-5.21142e-05
2.21541e-06
-0.00197396
-6.51397e-05
-4.52385e-07
-0.00195489
-7.24569e-05
-4.82147e-06
-0.00191995
-1.02133e-05
-0.00187137
-6.09311e-05
2.02636e-05
4.30289e-06
-0.00227542
8.92399e-06
5.31827e-06
-0.00228061
-2.40754e-06
5.73354e-06
-0.00228315
-1.41869e-05
5.72757e-06
-0.00228337
-2.68766e-05
5.24611e-06
-0.00228094
-4.09943e-05
4.24138e-06
-0.00227511
-5.68473e-05
2.44473e-06
-0.00226328
-7.35739e-05
-3.77059e-07
-0.00224094
-8.6331e-05
-5.26202e-06
-0.00219647
-1.16528e-05
-0.0021307
-7.87507e-05
2.09605e-05
4.01833e-06
-0.00256581
9.38869e-06
4.9359e-06
-0.00257161
-2.1011e-06
5.30663e-06
-0.00257451
-1.40556e-05
5.27347e-06
-0.002575
-2.71387e-05
4.81503e-06
-0.0025727
-4.21491e-05
3.87302e-06
-0.00256686
-5.98896e-05
2.16478e-06
-0.0025543
-8.00982e-05
-6.30741e-07
-0.00252933
-9.89428e-05
-5.63669e-06
-0.00247559
-1.28911e-05
-0.00239141
-9.67087e-05
2.09233e-05
3.12525e-06
-0.00285611
9.25826e-06
3.85343e-06
-0.00286249
-2.19468e-06
4.11705e-06
-0.00286553
-1.4077e-05
4.03085e-06
-0.00286597
-2.71772e-05
3.5886e-06
-0.00286345
-4.25545e-05
2.7318e-06
-0.00285732
-6.15666e-05
1.25077e-06
-0.00284411
-8.47016e-05
-1.2376e-06
-0.00281721
-0.000109852
-5.5015e-06
-0.00275531
-1.31982e-05
-0.00265232
-0.000114309
2.04652e-05
1.66151e-06
-0.00314189
9.185e-06
1.91773e-06
-0.00314876
-1.81653e-06
1.94767e-06
-0.00315221
-1.31936e-05
1.6228e-06
-0.00315304
-2.58877e-05
1.05186e-06
-0.00315082
-4.1192e-05
1.9278e-07
-0.00314483
-6.11018e-05
-9.99227e-07
-0.00313132
-8.7287e-05
-2.76534e-06
-0.00310367
-0.000118602
-5.44934e-06
-0.00303563
-1.12796e-05
-0.00291168
-0.00013146
1.94099e-05
-0.00340875
8.15157e-06
-0.00341534
-2.63347e-06
-0.00341809
-1.37085e-05
-0.00341721
-2.59397e-05
-0.00341242
-4.06626e-05
-0.00340311
-5.99888e-05
-0.00338568
-8.67128e-05
-0.00335359
-0.000121432
-0.00327984
-0.00313948
-0.000144813
7.18292e-06
6.51311e-07
-0.000833898
2.97583e-06
9.11923e-07
-0.000835113
-1.476e-06
1.02674e-06
-0.000835541
-5.84139e-06
9.86561e-07
-0.000835376
-9.7776e-06
7.97617e-07
-0.000834672
-1.28806e-05
4.56847e-07
-0.00083344
-1.46535e-05
-2.9144e-08
-0.000831695
-1.44791e-05
-6.46005e-07
-0.000829494
-1.16563e-05
-1.36048e-06
-0.000826904
-2.02737e-06
-0.000824007
-5.85488e-06
9.95864e-06
1.44982e-06
-0.00111773
3.98757e-06
1.9693e-06
-0.00111971
-2.23125e-06
2.18661e-06
-0.0011206
-8.41815e-06
2.12927e-06
-0.0011204
-1.42332e-05
1.79615e-06
-0.0011191
-1.92076e-05
1.17807e-06
-0.00111663
-2.26212e-05
2.63091e-07
-0.00111285
-2.33641e-05
-9.42656e-07
-0.00110757
-1.97794e-05
-2.43139e-06
-0.00110075
-3.91036e-06
-0.00109386
-1.06973e-05
1.30992e-05
2.35975e-06
-0.00140297
5.44965e-06
3.07856e-06
-0.00140574
-2.41425e-06
3.37242e-06
-0.00140703
-1.03236e-05
3.30292e-06
-0.00140677
-1.80133e-05
2.85673e-06
-0.00140488
-2.50208e-05
2.00733e-06
-0.00140114
-3.0466e-05
6.97746e-07
-0.00139511
-3.27754e-05
-1.09709e-06
-0.00138623
-2.90902e-05
-3.45168e-06
-0.00137405
-5.91261e-06
-0.00136127
-1.65722e-05
1.5551e-05
3.18969e-06
-0.00168797
6.55915e-06
4.11049e-06
-0.00169164
-2.64609e-06
4.49096e-06
-0.00169332
-1.20259e-05
4.43839e-06
-0.00169303
-2.14358e-05
3.92271e-06
-0.00169063
-3.0535e-05
2.90625e-06
-0.00168574
-3.84331e-05
1.27148e-06
-0.00167749
-4.3202e-05
-1.0498e-06
-0.00166471
-4.05449e-05
-4.3026e-06
-0.00164556
-7.85016e-06
-0.00162379
-2.53007e-05
1.7639e-05
3.87137e-06
-0.00197649
7.60056e-06
4.89027e-06
-0.00198105
-2.59921e-06
5.31662e-06
-0.00198315
-1.30745e-05
5.27723e-06
-0.00198293
-2.38615e-05
4.72943e-06
-0.00198018
-3.48295e-05
3.62153e-06
-0.00197437
-4.52242e-05
1.76492e-06
-0.00196406
-5.29295e-05
-9.73297e-07
-0.00194726
-5.22971e-05
-5.08895e-06
-0.0019198
-9.76611e-06
-0.0018863
-3.54494e-05
1.91784e-05
4.17712e-06
-0.00226472
8.35277e-06
5.2362e-06
-0.00227013
-2.55106e-06
5.6674e-06
-0.0022726
-1.38031e-05
5.63452e-06
-0.00227247
-2.56253e-05
5.08087e-06
-0.00226947
-3.81536e-05
3.95166e-06
-0.00226291
-5.09107e-05
1.99902e-06
-0.00225076
-6.18042e-05
-9.81078e-07
-0.00223004
-6.42267e-05
-5.7428e-06
-0.00219339
-1.14699e-05
-0.00214594
-4.72871e-05
2.01477e-05
3.95128e-06
-0.0025539
8.90973e-06
4.91768e-06
-0.00256005
-2.33091e-06
5.30801e-06
-0.00256291
-1.39615e-05
5.25426e-06
-0.00256299
-2.64105e-05
4.72767e-06
-0.0025599
-4.00931e-05
3.66121e-06
-0.00255289
-5.49176e-05
1.77925e-06
-0.00253925
-6.90052e-05
-1.22604e-06
-0.00251499
-7.53049e-05
-6.26854e-06
-0.00246877
-1.29668e-05
-0.0024056
-5.9633e-05
2.03382e-05
3.10767e-06
-0.00284318
8.8982e-06
3.88102e-06
-0.00285002
-2.41887e-06
4.16886e-06
-0.00285307
-1.41228e-05
4.08716e-06
-0.00285309
-2.67793e-05
3.61305e-06
-0.00284968
-4.10703e-05
2.68127e-06
-0.00284205
-5.74036e-05
1.06376e-06
-0.00282706
-7.43843e-05
-1.64133e-06
-0.00279982
-8.52078e-05
-6.11989e-06
-0.00274464
-1.34208e-05
-0.00266472
-7.23654e-05
2.00073e-05
1.70024e-06
-0.00312839
8.86065e-06
1.98393e-06
-0.00313572
-2.10257e-06
2.06749e-06
-0.00313915
-1.34125e-05
1.80626e-06
-0.00313945
-2.5795e-05
1.29715e-06
-0.00313612
-4.01423e-05
4.83328e-07
-0.00312829
-5.73726e-05
-7.14374e-07
-0.00311232
-7.72647e-05
-2.56938e-06
-0.00308285
-9.31252e-05
-5.46649e-06
-0.00302042
-1.1196e-05
-0.00292168
-8.53549e-05
1.9057e-05
-0.00339521
8.00921e-06
-0.00340231
-2.67019e-06
-0.00340534
-1.36443e-05
-0.00340443
-2.55965e-05
-0.00339917
-3.9506e-05
-0.00338872
-5.64531e-05
-0.00336944
-7.70883e-05
-0.00333553
-9.59082e-05
-0.00326649
-0.00315132
-9.5279e-05
5.10687e-06
5.20204e-07
-0.000831979
2.16202e-06
7.53012e-07
-0.000832921
-1.00287e-06
8.57958e-07
-0.000833234
-4.07628e-06
8.20928e-07
-0.000833124
-6.75136e-06
6.51976e-07
-0.000832649
-8.70379e-06
3.54461e-07
-0.000831842
-9.59824e-06
-5.48028e-08
-0.000830745
-9.10628e-06
-5.50433e-07
-0.000829435
-6.96848e-06
-1.08642e-06
-0.000827956
-1.56747e-06
-0.000826172
-3.23564e-06
7.64438e-06
1.21832e-06
-0.00111447
3.06223e-06
1.7034e-06
-0.00111608
-1.77259e-06
1.90653e-06
-0.00111682
-6.52693e-06
1.84772e-06
-0.00111667
-1.08278e-05
1.53123e-06
-0.00111567
-1.42294e-05
9.59796e-07
-0.00111384
-1.61636e-05
1.44506e-07
-0.00111112
-1.59352e-05
-8.79831e-07
-0.00110747
-1.27525e-05
-2.05677e-06
-0.00110296
-3.17553e-06
-0.0010986
-6.40351e-06
1.08424e-05
2.07832e-06
-0.00139809
4.53237e-06
2.76704e-06
-0.0014005
-2.02644e-06
3.04633e-06
-0.00140161
-8.5406e-06
2.96445e-06
-0.00140137
-1.46424e-05
2.51415e-06
-0.00139976
-1.9813e-05
1.68377e-06
-0.00139669
-2.32425e-05
4.52742e-07
-0.00139199
-2.37437e-05
-1.15978e-06
-0.00138545
-1.96239e-05
-3.12292e-06
-0.00137711
-5.06728e-06
-0.00136896
-1.00342e-05
1.3476e-05
2.8961e-06
-0.00168152
5.67776e-06
3.80656e-06
-0.00168489
-2.39471e-06
4.17885e-06
-0.00168638
-1.05252e-05
4.10399e-06
-0.00168604
-1.84014e-05
3.55903e-06
-0.0016838
-2.55213e-05
2.51988e-06
-0.00167946
-3.0915e-05
9.15395e-07
-0.00167256
-3.29116e-05
-1.26517e-06
-0.00166261
-2.85247e-05
-4.08657e-06
-0.00164898
-6.9807e-06
-0.00163474
-1.56649e-05
1.58283e-05
3.58517e-06
-0.00196847
6.78617e-06
4.61346e-06
-0.00197281
-2.49269e-06
5.04051e-06
-0.00197473
-1.19204e-05
4.97292e-06
-0.00197437
-2.13165e-05
4.37382e-06
-0.0019716
-3.02951e-05
3.20014e-06
-0.00196607
-3.78506e-05
1.31376e-06
-0.0019569
-4.19169e-05
-1.35437e-06
-0.0019431
-3.80021e-05
-5.04439e-06
-0.00192276
-8.97372e-06
-0.00190009
-2.22299e-05
1.76701e-05
3.93381e-06
-0.00225521
7.6421e-06
5.01952e-06
-0.00226051
-2.55244e-06
5.45938e-06
-0.00226282
-1.29765e-05
5.39886e-06
-0.00226247
-2.36054e-05
4.78316e-06
-0.00225925
-3.4246e-05
3.55922e-06
-0.00225263
-4.39944e-05
1.52381e-06
-0.00224122
-5.05574e-05
-1.46504e-06
-0.00222337
-4.80069e-05
-5.86207e-06
-0.00219513
-1.08029e-05
-0.00216192
-3.02077e-05
1.89e-05
3.77704e-06
-0.00254303
8.28189e-06
4.78067e-06
-0.00254919
-2.43183e-06
5.18551e-06
-0.00255193
-1.34318e-05
5.10985e-06
-0.0025517
-2.48867e-05
4.52109e-06
-0.00254818
-3.68375e-05
3.35002e-06
-0.00254073
-4.86079e-05
1.35216e-06
-0.00252731
-5.78496e-05
-1.72105e-06
-0.0025055
-5.74402e-05
-6.5035e-06
-0.00246854
-1.24055e-05
-0.00242289
-3.85529e-05
1.93329e-05
2.99592e-06
-0.00283115
8.38913e-06
3.8097e-06
-0.0028381
-2.53198e-06
4.11658e-06
-0.00284108
-1.3765e-05
4.03366e-06
-0.00284078
-2.56198e-05
3.52484e-06
-0.00283683
-3.83767e-05
2.52344e-06
-0.00282847
-5.17234e-05
8.08566e-07
-0.00281317
-6.35447e-05
-1.98496e-06
-0.00278773
-6.60841e-05
-6.37423e-06
-0.00274223
-1.29157e-05
-0.00268282
-4.74806e-05
1.91591e-05
1.6803e-06
-0.00311569
8.4009e-06
1.98945e-06
-0.00312314
-2.28165e-06
2.11813e-06
-0.00312647
-1.32504e-05
1.90603e-06
-0.00312635
-2.4988e-05
1.4401e-06
-0.00312229
-3.79728e-05
6.53076e-07
-0.00311343
-5.22467e-05
-5.53835e-07
-0.00309668
-6.65155e-05
-2.43498e-06
-0.00306813
-7.27186e-05
-5.32963e-06
-0.00301527
-1.04634e-05
-0.00294025
-5.66085e-05
1.83419e-05
-0.00338241
7.71569e-06
-0.0033897
-2.65707e-06
-0.00339285
-1.32968e-05
-0.00339188
-2.46725e-05
-0.00338635
-3.7382e-05
-0.00337535
-5.16696e-05
-0.00335571
-6.68001e-05
-0.00332283
-7.53345e-05
-0.00326329
-0.00317408
-6.30458e-05
3.54443e-06
4.09727e-07
-0.000830797
1.54416e-06
6.07658e-07
-0.000831528
-6.3653e-07
6.99835e-07
-0.000831753
-2.74142e-06
6.68641e-07
-0.000831688
-4.5286e-06
5.26778e-07
-0.000831389
-5.76209e-06
2.8125e-07
-0.000830889
-6.23111e-06
-4.67106e-08
-0.00083023
-5.77121e-06
-4.2975e-07
-0.000829465
-4.30799e-06
-8.24742e-07
-0.000828594
-1.17454e-06
-0.000827348
-1.95734e-06
5.63623e-06
9.95062e-07
-0.00111226
2.25081e-06
1.42976e-06
-0.00111352
-1.36552e-06
1.61309e-06
-0.00111411
-4.892e-06
1.55877e-06
-0.00111403
-7.985e-06
1.27546e-06
-0.00111333
-1.02745e-05
7.74948e-07
-0.00111204
-1.13551e-05
8.30431e-08
-0.00111017
-1.08259e-05
-7.52657e-07
-0.00110768
-8.37098e-06
-1.66423e-06
-0.00110457
-2.51684e-06
-0.00110152
-4.10207e-06
8.67177e-06
1.77348e-06
-0.00139447
3.65262e-06
2.40908e-06
-0.00139646
-1.62148e-06
2.66601e-06
-0.00139739
-6.8034e-06
2.58007e-06
-0.00139721
-1.14944e-05
2.15004e-06
-0.00139594
-1.5203e-05
1.37863e-06
-0.00139359
-1.72835e-05
2.7543e-07
-0.0013901
-1.69548e-05
-1.11043e-06
-0.00138542
-1.33663e-05
-2.69748e-06
-0.00137966
-4.22702e-06
-0.00137416
-6.45624e-06
1.13007e-05
2.5461e-06
-0.00167646
4.77053e-06
3.41983e-06
-0.00167937
-2.07018e-06
3.77476e-06
-0.00168065
-8.88709e-06
3.68585e-06
-0.00168033
-1.52694e-05
3.13884e-06
-0.0016784
-2.0662e-05
2.12629e-06
-0.00167481
-2.41956e-05
6.22246e-07
-0.00166937
-2.46362e-05
-1.33529e-06
-0.00166194
-2.02096e-05
-3.69794e-06
-0.00165241
-6.02673e-06
-0.00164282
-1.03278e-05
1.37852e-05
3.21759e-06
-0.00196183
5.90068e-06
4.22811e-06
-0.00196574
-2.27841e-06
4.64585e-06
-0.00196743
-1.05015e-05
4.55648e-06
-0.00196702
-1.84295e-05
3.93183e-06
-0.00196447
-2.55316e-05
2.7439e-06
-0.00195959
-3.07895e-05
9.10525e-07
-0.00195193
-3.25185e-05
-1.57344e-06
-0.00194113
-2.76979e-05
-4.75686e-06
-0.00192652
-7.9885e-06
-0.00191106
-1.47684e-05
1.58432e-05
3.59318e-06
-0.00224702
6.82706e-06
4.68091e-06
-0.00225195
-2.43292e-06
5.11977e-06
-0.00225403
-1.18108e-05
5.0351e-06
-0.00225358
-2.1077e-05
4.37817e-06
-0.00225043
-2.98064e-05
3.10633e-06
-0.00224427
-3.69372e-05
1.07407e-06
-0.00223425
-4.04368e-05
-1.78759e-06
-0.00221966
-3.59039e-05
-5.67835e-06
-0.00219874
-9.82336e-06
-0.00217565
-2.03474e-05
1.72843e-05
3.50691e-06
-0.00253341
7.52885e-06
4.52859e-06
-0.00253929
-2.41121e-06
4.94026e-06
-0.00254181
-1.25287e-05
4.84453e-06
-0.00254139
-2.27565e-05
4.20938e-06
-0.00253779
-3.28354e-05
2.97203e-06
-0.00253052
-4.17758e-05
9.36766e-07
-0.00251823
-4.73224e-05
-2.06199e-06
-0.00249968
-4.37082e-05
-6.38578e-06
-0.00247145
-1.13908e-05
-0.00243899
-2.60457e-05
1.79475e-05
2.79353e-06
-0.00282028
7.74584e-06
3.63647e-06
-0.00282701
-2.53353e-06
3.95544e-06
-0.00282981
-1.30354e-05
3.8681e-06
-0.00282931
-2.38237e-05
3.32946e-06
-0.00282516
-3.48322e-05
2.27852e-06
-0.00281677
-4.52817e-05
5.23141e-07
-0.00280231
-5.293e-05
-2.22282e-06
-0.00277992
-5.10402e-05
-6.27709e-06
-0.00274423
-1.18428e-05
-0.0027011
-3.2322e-05
1.79409e-05
1.60015e-06
-0.00310404
7.81226e-06
1.92887e-06
-0.00311131
-2.35066e-06
2.09338e-06
-0.00311444
-1.27204e-05
1.91792e-06
-0.00311403
-2.35395e-05
1.48228e-06
-0.00310963
-3.49193e-05
7.14843e-07
-0.00310049
-4.63103e-05
-4.87386e-07
-0.00308428
-5.58968e-05
-2.32474e-06
-0.00305844
-5.6403e-05
-5.04648e-06
-0.003016
-9.33047e-06
-0.00296078
-3.84035e-05
1.72775e-05
-0.00337062
7.2772e-06
-0.00337777
-2.5851e-06
-0.00338089
-1.26637e-05
-0.00337989
-2.32074e-05
-0.00337433
-3.44596e-05
-0.00336339
-4.60751e-05
-0.00334458
-5.65545e-05
-0.00331468
-5.88308e-05
-0.00326607
-0.00319993
-4.23349e-05
2.43482e-06
3.24827e-07
-0.000830099
1.10208e-06
4.86927e-07
-0.000830683
-3.71461e-07
5.65633e-07
-0.000830846
-1.78966e-06
5.41256e-07
-0.000830811
-2.97522e-06
4.28124e-07
-0.000830631
-3.76476e-06
2.34428e-07
-0.000830334
-4.02872e-06
-1.84481e-08
-0.000829947
-3.68463e-06
-3.06141e-07
-0.000829503
-2.71932e-06
-5.94149e-07
-0.000828965
-8.522e-07
-0.000827992
-1.22308e-06
4.0044e-06
7.96924e-07
-0.0011108
1.58131e-06
1.17296e-06
-0.00111178
-1.03681e-06
1.33339e-06
-0.00111226
-3.57644e-06
1.28748e-06
-0.00111224
-5.75193e-06
1.0469e-06
-0.00111177
-7.27924e-06
6.28612e-07
-0.00111091
-7.88362e-06
6.50571e-08
-0.00110965
-7.34184e-06
-5.94513e-07
-0.00110793
-5.55106e-06
-1.2891e-06
-0.00110567
-1.94208e-06
-0.00110329
-2.6977e-06
6.73217e-06
1.47335e-06
-0.00139186
2.86268e-06
2.03815e-06
-0.00139345
-1.24353e-06
2.26648e-06
-0.00139422
-5.24314e-06
2.1837e-06
-0.00139411
-8.75969e-06
1.79337e-06
-0.00139317
-1.13723e-05
1.10918e-06
-0.00139146
-1.26017e-05
1.60611e-07
-0.00138897
-1.19645e-05
-9.88685e-07
-0.00138566
-9.09063e-06
-2.24289e-06
-0.00138158
-3.43904e-06
-0.00137757
-4.19152e-06
9.18908e-06
2.17318e-06
-0.0016726
3.89396e-06
2.9851e-06
-0.00167502
-1.72025e-06
3.31372e-06
-0.00167608
-7.2647e-06
3.21949e-06
-0.00167582
-1.22979e-05
2.69681e-06
-0.00167427
-1.62883e-05
1.75396e-06
-0.00167147
-1.85304e-05
4.01085e-07
-0.00166737
-1.81854e-05
-1.29096e-06
-0.00166199
-1.43137e-05
-3.21635e-06
-0.00165531
-5.06383e-06
-0.00164856
-6.95415e-06
1.16616e-05
2.80136e-06
-0.0019565
4.99583e-06
3.76469e-06
-0.00195985
-1.99643e-06
4.16221e-06
-0.00196128
-8.9593e-06
4.05949e-06
-0.0019609
-1.5465e-05
3.43836e-06
-0.0019587
-2.0937e-05
2.28851e-06
-0.00195465
-2.44713e-05
5.78962e-07
-0.00194858
-2.48181e-05
-1.64355e-06
-0.00194044
-2.01634e-05
-4.30562e-06
-0.00193009
-6.91099e-06
-0.00191931
-1.00681e-05
1.38238e-05
3.18321e-06
-0.00224019
5.95104e-06
4.24338e-06
-0.00224455
-2.2211e-06
4.66988e-06
-0.00224637
-1.04209e-05
4.56745e-06
-0.00224588
-1.82783e-05
3.89634e-06
-0.00224303
-2.52438e-05
2.63013e-06
-0.00223764
-3.02806e-05
6.82944e-07
-0.00222932
-3.17666e-05
-1.94567e-06
-0.00221787
-2.68049e-05
-5.26864e-06
-0.00220274
-8.65754e-06
-0.00218658
-1.41326e-05
1.53972e-05
3.16059e-06
-0.00252516
6.68418e-06
4.17491e-06
-0.0025305
-2.28668e-06
4.5835e-06
-0.00253275
-1.13372e-05
4.47217e-06
-0.00253224
-2.02171e-05
3.81323e-06
-0.00252882
-2.84709e-05
2.55778e-06
-0.00252219
-3.50158e-05
5.66792e-07
-0.00251157
-3.79268e-05
-2.23758e-06
-0.00249647
-3.31038e-05
-5.99448e-06
-0.00247555
-1.00926e-05
-0.00245257
-1.80929e-05
1.62548e-05
2.51202e-06
-0.00281071
6.99418e-06
3.36669e-06
-0.00281694
-2.43282e-06
3.68915e-06
-0.00281949
-1.19931e-05
3.59683e-06
-0.00281887
-2.15446e-05
3.04028e-06
-0.00281484
-3.07681e-05
1.97085e-06
-0.00280696
-3.86648e-05
2.38542e-07
-0.00279409
-4.31628e-05
-2.34815e-06
-0.00277531
-3.92016e-05
-5.91704e-06
-0.00274828
-1.04332e-05
-0.00271736
-2.26117e-05
1.64042e-05
1.46401e-06
-0.00309365
7.11247e-06
1.80245e-06
-0.00310045
-2.31492e-06