/*--------------------------------*- C++ -*----------------------------------*\
| =========                 |                                                 |
| \\      /  F ield         | foam-extend: Open Source CFD                    |
|  \\    /   O peration     | Version:     4.0                                |
|   \\  /    A nd           | Web:         http://www.foam-extend.org         |
|    \\/     M anipulation  |                                                 |
\*---------------------------------------------------------------------------*/
FoamFile
{
    version     2.0;
    format      ascii;
    class       volScalarField;
    location    "600";
    object      rho;
}
// * * * * * * * * * * * * * * * * * * * * * * * * * * * * * * * * * * * * * //

dimensions      [1 -3 0 0 0 0 0];

internalField   nonuniform List<scalar> 
34480
(
1.35426
1.35358
1.35345
1.35384
1.35494
1.35708
1.36104
1.36875
1.37887
1.38245
1.35629
1.35569
1.35561
1.35597
1.35694
1.35885
1.36254
1.3701
1.38112
1.38163
1.35796
1.35727
1.35711
1.35726
1.35792
1.3594
1.36271
1.36981
1.38114
1.37605
1.35978
1.35906
1.35881
1.35884
1.3593
1.36042
1.36329
1.3696
1.3806
1.36957
1.36145
1.3606
1.3603
1.36022
1.36051
1.36129
1.36371
1.36918
1.37955
1.36298
1.36353
1.36274
1.36243
1.36234
1.36253
1.36306
1.36504
1.36959
1.37898
1.35723
1.36399
1.36313
1.36284
1.36271
1.36283
1.36314
1.36469
1.3684
1.37662
1.35052
1.36592
1.36522
1.36506
1.36515
1.36547
1.36591
1.3673
1.37035
1.37714
1.34689
1.36519
1.36447
1.3643
1.36436
1.36473
1.36531
1.36667
1.36931
1.37446
1.341
1.36271
1.36218
1.36253
1.36348
1.365
1.36703
1.36994
1.37404
1.37937
1.34211
1.3622
1.36115
1.36076
1.36094
1.3618
1.36348
1.36621
1.37033
1.37689
1.38551
1.36383
1.36267
1.36223
1.3624
1.36325
1.36499
1.36804
1.37327
1.38294
1.39693
1.36486
1.36353
1.36297
1.36293
1.36355
1.36505
1.36809
1.37389
1.38613
1.40404
1.36598
1.36451
1.36378
1.36356
1.36398
1.36522
1.36806
1.3738
1.38752
1.40802
1.36702
1.36534
1.36447
1.36405
1.36425
1.36517
1.36765
1.37296
1.38745
1.40942
1.36856
1.36683
1.36585
1.36531
1.36535
1.36595
1.368
1.37261
1.38719
1.40944
1.36862
1.36673
1.36569
1.36501
1.36487
1.36516
1.36674
1.37056
1.38473
1.40669
1.37028
1.36844
1.36741
1.36681
1.36671
1.36695
1.36827
1.37135
1.38455
1.4054
1.36947
1.36757
1.36645
1.36573
1.36548
1.36561
1.3667
1.36931
1.38102
1.40133
1.36707
1.36523
1.36444
1.36433
1.36487
1.36596
1.368
1.37146
1.38269
1.40178
1.36786
1.36696
1.36664
1.36685
1.36767
1.36917
1.37145
1.37458
1.37854
1.38285
1.36933
1.36822
1.36783
1.36807
1.36904
1.37085
1.37369
1.37784
1.38404
1.39146
1.3698
1.3685
1.36801
1.36816
1.36908
1.37094
1.37408
1.37916
1.38793
1.39896
1.37023
1.36876
1.36812
1.36815
1.369
1.37084
1.37418
1.37981
1.39062
1.40491
1.3706
1.36892
1.36817
1.36803
1.36875
1.37045
1.37378
1.37958
1.39194
1.40907
1.37151
1.36977
1.36891
1.36868
1.36927
1.37079
1.37399
1.37966
1.39306
1.41237
1.37105
1.36917
1.36826
1.36789
1.36834
1.36962
1.37257
1.37794
1.39192
1.41299
1.37234
1.37049
1.36956
1.36924
1.36968
1.37089
1.37369
1.37872
1.39267
1.41474
1.37136
1.36943
1.36842
1.36796
1.36821
1.36921
1.37176
1.37658
1.38988
1.41307
1.36892
1.36702
1.36622
1.36618
1.36694
1.36853
1.3716
1.37696
1.39
1.41353
1.3719
1.37124
1.371
1.37116
1.37178
1.37284
1.37434
1.37622
1.37826
1.37998
1.37351
1.37257
1.37223
1.37245
1.37328
1.37476
1.37695
1.37982
1.38341
1.38685
1.37381
1.3726
1.37214
1.37232
1.37323
1.37494
1.37765
1.38152
1.38727
1.39338
1.37384
1.37241
1.37182
1.37192
1.37284
1.37473
1.37789
1.38267
1.39059
1.3996
1.37377
1.37212
1.37141
1.3714
1.37227
1.37417
1.3776
1.38299
1.39283
1.40475
1.37424
1.3725
1.37168
1.37159
1.37239
1.37424
1.37778
1.3835
1.39496
1.40958
1.37343
1.37153
1.37065
1.37044
1.37114
1.37285
1.37636
1.38221
1.39491
1.41209
1.37443
1.37253
1.37163
1.37143
1.37212
1.3738
1.37728
1.38314
1.39654
1.4158
1.37328
1.3713
1.37032
1.37002
1.37056
1.37206
1.37535
1.38124
1.39469
1.4161
1.37079
1.36883
1.36799
1.36798
1.36887
1.37077
1.37439
1.38064
1.39405
1.41704
1.37473
1.37432
1.37415
1.37427
1.37468
1.37538
1.37633
1.37743
1.37854
1.37935
1.37652
1.37581
1.37554
1.37572
1.37637
1.37748
1.37904
1.38094
1.383
1.38475
1.37682
1.3758
1.37541
1.37559
1.37637
1.37782
1.37995
1.38274
1.38625
1.38956
1.37663
1.37536
1.37483
1.37497
1.37586
1.37758
1.38029
1.38405
1.38931
1.39464
1.37634
1.37481
1.37417
1.37424
1.37515
1.37702
1.38016
1.38471
1.39173
1.39931
1.37652
1.37486
1.37412
1.37413
1.37503
1.37698
1.3804
1.38555
1.39426
1.40414
1.37548
1.37365
1.37283
1.37275
1.3736
1.37552
1.37908
1.38466
1.39484
1.4071
1.37627
1.37442
1.37356
1.37348
1.37434
1.37628
1.37995
1.38582
1.39711
1.41152
1.375
1.37304
1.37213
1.37196
1.37273
1.37457
1.37819
1.38429
1.39612
1.41289
1.3725
1.37055
1.36972
1.36975
1.37074
1.37284
1.3767
1.38312
1.39516
1.4139
1.37669
1.37645
1.37636
1.37643
1.37669
1.37712
1.37767
1.37829
1.37886
1.37919
1.37859
1.37809
1.37791
1.37804
1.3785
1.37928
1.38031
1.38149
1.38264
1.38352
1.37897
1.37816
1.37786
1.37801
1.37864
1.37976
1.38134
1.38327
1.3854
1.3872
1.37869
1.37762
1.37718
1.37732
1.3781
1.37955
1.38172
1.38454
1.38795
1.39108
1.37831
1.37697
1.37642
1.37652
1.37738
1.37907
1.38174
1.38537
1.3902
1.39492
1.37834
1.37684
1.37618
1.37625
1.37716
1.37901
1.38208
1.38642
1.39271
1.39918
1.37718
1.37548
1.37475
1.37475
1.37566
1.37759
1.38092
1.38584
1.39353
1.40194
1.37786
1.3761
1.37531
1.37532
1.37626
1.37827
1.38182
1.3872
1.39609
1.40639
1.3765
1.37463
1.37379
1.37373
1.37462
1.3766
1.38022
1.38597
1.39569
1.40818
1.37403
1.37216
1.37135
1.37143
1.37247
1.37463
1.37843
1.3845
1.39461
1.40891
1.37802
1.3779
1.37785
1.37789
1.37805
1.3783
1.37862
1.37896
1.37926
1.37937
1.37993
1.37962
1.37949
1.37959
1.3799
1.38041
1.38106
1.38177
1.38238
1.38279
1.38041
1.37981
1.37959
1.37971
1.38018
1.381
1.38211
1.38339
1.38468
1.38567
1.3801
1.37925
1.3789
1.37903
1.37966
1.38081
1.38246
1.38449
1.3867
1.38855
1.37973
1.37862
1.37816
1.37827
1.37903
1.38045
1.3826
1.38537
1.38866
1.3916
1.3797
1.3784
1.37784
1.37794
1.37878
1.38044
1.38302
1.3865
1.39096
1.39517
1.37852
1.377
1.37636
1.37641
1.3773
1.3791
1.38203
1.38614
1.39178
1.39746
1.37915
1.37755
1.37684
1.37691
1.37785
1.37978
1.383
1.38764
1.39438
1.40158
1.37774
1.37602
1.37526
1.37528
1.37621
1.37817
1.38154
1.38661
1.39423
1.40326
1.37535
1.37361
1.37286
1.37297
1.374
1.3761
1.37963
1.38501
1.39309
1.40354
1.37888
1.37884
1.37881
1.37884
1.37893
1.37907
1.37925
1.37944
1.37958
1.37958
1.38072
1.38054
1.38046
1.38053
1.38073
1.38105
1.38145
1.38185
1.38214
1.38228
1.38128
1.38087
1.38072
1.3808
1.38114
1.38171
1.38245
1.38327
1.38401
1.38453
1.38096
1.38033
1.38006
1.38016
1.38065
1.38152
1.38271
1.38412
1.38553
1.38661
1.38067
1.37978
1.37942
1.37952
1.38015
1.38129
1.38293
1.38497
1.38718
1.38901
1.38065
1.37957
1.3791
1.37921
1.37995
1.38134
1.38342
1.38609
1.38921
1.39194
1.37949
1.37819
1.37764
1.37773
1.37854
1.38012
1.38257
1.38585
1.38991
1.39373
1.38013
1.37874
1.37812
1.37822
1.37911
1.38085
1.38362
1.38742
1.39242
1.39738
1.37871
1.37717
1.37651
1.37658
1.37748
1.3793
1.38226
1.38652
1.39229
1.39865
1.37645
1.37488
1.37421
1.37434
1.37531
1.37724
1.38036
1.3849
1.39112
1.39852
1.37939
1.3794
1.37939
1.3794
1.37946
1.37953
1.37963
1.37973
1.3798
1.37974
1.3811
1.38101
1.38097
1.38101
1.38114
1.38133
1.38157
1.38178
1.38189
1.38187
1.38173
1.38146
1.38136
1.38142
1.38165
1.38203
1.38251
1.38301
1.38341
1.38362
1.38139
1.38094
1.38075
1.38083
1.38119
1.38181
1.38265
1.38359
1.38446
1.38506
1.38121
1.38053
1.38025
1.38034
1.38083
1.3817
1.38292
1.38436
1.38581
1.38692
1.38122
1.38037
1.37999
1.3801
1.38071
1.38182
1.38342
1.3854
1.38754
1.38929
1.38013
1.37906
1.37861
1.3787
1.3794
1.38072
1.38268
1.3852
1.38807
1.39061
1.38083
1.37966
1.37914
1.37925
1.38004
1.38153
1.38381
1.38681
1.39042
1.39379
1.37941
1.37808
1.37752
1.37761
1.37844
1.38004
1.38253
1.38594
1.3902
1.39456
1.37731
1.37595
1.37537
1.3755
1.37638
1.37808
1.38072
1.38438
1.38903
1.39415
1.37965
1.37968
1.37969
1.37969
1.37972
1.37976
1.37982
1.37987
1.3799
1.37981
1.38117
1.38114
1.38113
1.38116
1.38124
1.38135
1.38148
1.38158
1.38158
1.38147
1.38186
1.38169
1.38164
1.38168
1.38184
1.38208
1.38238
1.38267
1.38285
1.38287
1.38149
1.38119
1.38106
1.38112
1.38137
1.3818
1.38237
1.38298
1.3835
1.38378
1.38143
1.38093
1.38073
1.3808
1.38117
1.38181
1.38267
1.38367
1.38459
1.38522
1.38149
1.38084
1.38056
1.38065
1.38113
1.38198
1.38318
1.38459
1.38603
1.38711
1.38048
1.37963
1.37927
1.37936
1.37993
1.38099
1.3825
1.38436
1.38635
1.388
1.38127
1.38032
1.3799
1.38001
1.38068
1.3819
1.3837
1.38597
1.38853
1.39076
1.37985
1.37875
1.37829
1.37839
1.3791
1.38045
1.38245
1.38508
1.38815
1.39108
1.37796
1.37682
1.37634
1.37646
1.37722
1.37865
1.38079
1.38364
1.38702
1.39049
1.37973
1.37977
1.37978
1.37978
1.3798
1.37982
1.37985
1.37988
1.37988
1.37978
1.38103
1.38104
1.38104
1.38107
1.38111
1.38118
1.38125
1.38128
1.38122
1.38105
1.38177
1.38168
1.38166
1.38169
1.38179
1.38194
1.38212
1.38227
1.38232
1.38222
1.38136
1.38117
1.38108
1.38113
1.3813
1.38159
1.38196
1.38235
1.38263
1.38272
1.38141
1.38107
1.38093
1.38098
1.38124
1.3817
1.38229
1.38296
1.38353
1.38385
1.38153
1.38105
1.38084
1.38091
1.38128
1.38191
1.38277
1.38376
1.3847
1.38533
1.38059
1.37994
1.37967
1.37974
1.3802
1.381
1.38212
1.38347
1.38481
1.38585
1.38149
1.38076
1.38043
1.38053
1.38106
1.38203
1.3834
1.38506
1.38684
1.38827
1.38007
1.37919
1.37883
1.37892
1.37951
1.38058
1.38214
1.3841
1.38626
1.3882
1.37843
1.3775
1.37711
1.37722
1.37785
1.379
1.38068
1.38281
1.38521
1.38753
1.37968
1.37973
1.37974
1.37974
1.37975
1.37976
1.37977
1.37979
1.37978
1.37968
1.38074
1.38078
1.38079
1.38081
1.38084
1.38087
1.38091
1.3809
1.3808
1.38059
1.38155
1.38152
1.38151
1.38154
1.3816
1.38169
1.38179
1.38186
1.38182
1.38165
1.38107
1.38096
1.38091
1.38094
1.38105
1.38124
1.38148
1.38171
1.38185
1.38182
1.38123
1.381
1.38091
1.38095
1.38114
1.38145
1.38184
1.38227
1.38261
1.38273
1.38139
1.38106
1.38091
1.38097
1.38123
1.38168
1.38228
1.38295
1.38355
1.38389
1.38053
1.38004
1.37985
1.37991
1.38025
1.38084
1.38165
1.38258
1.38347
1.3841
1.38155
1.381
1.38076
1.38084
1.38125
1.38198
1.38299
1.38417
1.38537
1.38626
1.38011
1.37942
1.37915
1.37922
1.37969
1.38052
1.38168
1.3831
1.38459
1.38584
1.37874
1.37801
1.37771
1.37781
1.3783
1.37919
1.38046
1.38201
1.38367
1.3852
1.37956
1.37961
1.37962
1.37962
1.37963
1.37963
1.37964
1.37964
1.37963
1.37953
1.38037
1.38042
1.38044
1.38045
1.38047
1.38049
1.3805
1.38048
1.38036
1.38012
1.38125
1.38126
1.38127
1.38129
1.38133
1.38138
1.38143
1.38145
1.38137
1.38114
1.38069
1.38064
1.38061
1.38063
1.38071
1.38083
1.38097
1.38111
1.38115
1.38104
1.38095
1.38082
1.38076
1.38079
1.38091
1.38112
1.38138
1.38164
1.38183
1.38183
1.38114
1.38092
1.38082
1.38086
1.38105
1.38136
1.38176
1.3822
1.38258
1.38273
1.38034
1.38
1.37986
1.37991
1.38015
1.38057
1.38113
1.38177
1.38234
1.3827
1.38149
1.3811
1.38092
1.38099
1.3813
1.38183
1.38254
1.38336
1.38416
1.38468
1.38
1.37949
1.37928
1.37934
1.37969
1.38031
1.38115
1.38215
1.38314
1.38395
1.37894
1.3784
1.37817
1.37825
1.37862
1.37929
1.38021
1.3813
1.38242
1.38341
1.37943
1.37948
1.37949
1.37949
1.37949
1.3795
1.3795
1.3795
1.37948
1.37939
1.37995
1.38
1.38003
1.38004
1.38005
1.38006
1.38006
1.38003
1.37991
1.37965
1.38095
1.38098
1.381
1.38102
1.38104
1.38107
1.38109
1.38108
1.38097
1.38071
1.38028
1.38026
1.38025
1.38027
1.38031
1.38038
1.38047
1.38054
1.38054
1.38038
1.38064
1.38056
1.38053
1.38055
1.38063
1.38076
1.38092
1.38108
1.38117
1.38109
1.38083
1.38069
1.38063
1.38066
1.38078
1.38099
1.38126
1.38154
1.38176
1.3818
1.38008
1.37985
1.37976
1.37979
1.37997
1.38025
1.38063
1.38105
1.3814
1.38159
1.38137
1.3811
1.38098
1.38103
1.38125
1.38162
1.38211
1.38266
1.38318
1.38346
1.37979
1.37941
1.37927
1.37932
1.37957
1.38001
1.3806
1.38127
1.38193
1.38243
1.37909
1.37869
1.37853
1.37859
1.37886
1.37934
1.37999
1.38073
1.38147
1.3821
1.37934
1.37939
1.37941
1.3794
1.37941
1.37941
1.37941
1.3794
1.37939
1.3793
1.37952
1.37959
1.37961
1.37962
1.37963
1.37963
1.37963
1.37959
1.37947
1.37921
1.38069
1.38073
1.38075
1.38077
1.38078
1.38079
1.3808
1.38077
1.38066
1.38038
1.37988
1.37988
1.37988
1.37989
1.37992
1.37996
1.38001
1.38005
1.38001
1.37984
1.38032
1.38028
1.38027
1.38029
1.38034
1.38042
1.38051
1.3806
1.38064
1.38052
1.3805
1.38042
1.38038
1.3804
1.38049
1.38062
1.38079
1.38096
1.38109
1.38106
1.3798
1.37966
1.3796
1.37963
1.37974
1.37993
1.38017
1.38044
1.38064
1.38073
1.38122
1.38105
1.38097
1.38101
1.38116
1.38141
1.38174
1.38209
1.38242
1.38255
1.37951
1.37925
1.37915
1.37918
1.37936
1.37966
1.38006
1.3805
1.38092
1.38123
1.37923
1.37896
1.37885
1.37889
1.37909
1.37941
1.37985
1.38034
1.38082
1.38122
1.3794
1.37944
1.37945
1.37945
1.37945
1.37945
1.37945
1.37944
1.37943
1.37935
1.37913
1.37919
1.37921
1.37922
1.37922
1.37923
1.37922
1.37919
1.37908
1.37882
1.3805
1.38055
1.38057
1.38059
1.38059
1.3806
1.38059
1.38056
1.38045
1.38017
1.37953
1.37955
1.37956
1.37957
1.37958
1.37961
1.37963
1.37964
1.37959
1.37942
1.38002
1.38001
1.38001
1.38002
1.38005
1.3801
1.38016
1.3802
1.3802
1.38007
1.38018
1.38013
1.38011
1.38012
1.38018
1.38026
1.38036
1.38047
1.38054
1.38047
1.37954
1.37946
1.37942
1.37945
1.37952
1.37964
1.37979
1.37995
1.38006
1.38008
1.38107
1.38097
1.38092
1.38094
1.38104
1.38121
1.38142
1.38164
1.38185
1.38189
1.37918
1.379
1.37894
1.37897
1.37909
1.37928
1.37954
1.37982
1.38008
1.38028
1.37946
1.37928
1.3792
1.37924
1.37937
1.37959
1.37988
1.38019
1.38049
1.38073
1.37971
1.37977
1.37979
1.37979
1.37979
1.37979
1.37978
1.37977
1.37976
1.37969
1.37878
1.37882
1.37885
1.37885
1.37885
1.37885
1.37885
1.37882
1.37873
1.37849
1.3804
1.38045
1.38047
1.38048
1.38049
1.38049
1.38048
1.38045
1.38036
1.38009
1.37928
1.3793
1.37931
1.37932
1.37933
1.37934
1.37935
1.37935
1.3793
1.37913
1.37977
1.37977
1.37977
1.37978
1.3798
1.37983
1.37986
1.37988
1.37987
1.37975
1.37987
1.37984
1.37983
1.37984
1.37988
1.37993
1.37999
1.38005
1.38009
1.38002
1.37932
1.37927
1.37926
1.37928
1.37932
1.3794
1.37949
1.37958
1.37963
1.37962
1.3809
1.38083
1.3808
1.38082
1.38088
1.38099
1.38113
1.38126
1.3814
1.38139
1.3788
1.37868
1.37864
1.37866
1.37874
1.37887
1.37903
1.3792
1.37935
1.37948
1.37992
1.3798
1.37974
1.37977
1.37985
1.38
1.38018
1.38038
1.38057
1.38071
1.38071
1.38069
1.3807
1.3807
1.3807
1.38069
1.38069
1.38068
1.38066
1.3806
1.37842
1.37845
1.37847
1.37848
1.37848
1.37848
1.37848
1.37846
1.37839
1.37818
1.38036
1.38039
1.3804
1.38041
1.38041
1.38041
1.38041
1.3804
1.38034
1.38012
1.37915
1.37917
1.37919
1.3792
1.37921
1.37922
1.37922
1.37921
1.37917
1.37903
1.37958
1.37959
1.37959
1.37959
1.37961
1.37962
1.37965
1.37966
1.37966
1.37956
1.3796
1.37959
1.37958
1.37959
1.37961
1.37964
1.37969
1.37973
1.37975
1.3797
1.37914
1.37912
1.37912
1.37913
1.37916
1.37921
1.37927
1.37932
1.37935
1.37932
1.38058
1.38053
1.3805
1.38051
1.38056
1.38063
1.38072
1.38082
1.38092
1.38091
1.37828
1.3782
1.37818
1.3782
1.37825
1.37833
1.37844
1.37854
1.37863
1.37871
1.38082
1.38075
1.38071
1.38072
1.38078
1.38088
1.381
1.38113
1.38126
1.38134
1.38242
1.38242
1.38242
1.38242
1.38242
1.38242
1.38242
1.38242
1.38242
1.38238
1.37794
1.37797
1.37799
1.378
1.37801
1.37801
1.37801
1.378
1.37795
1.3778
1.38026
1.38026
1.38025
1.38024
1.38024
1.38025
1.38027
1.38029
1.38029
1.38017
1.37921
1.37922
1.37923
1.37924
1.37925
1.37926
1.37927
1.37928
1.37927
1.37917
1.37951
1.3795
1.37949
1.37949
1.37951
1.37953
1.37955
1.37958
1.3796
1.37955
1.37945
1.37943
1.37942
1.37942
1.37944
1.37947
1.37951
1.37955
1.37958
1.37957
1.37907
1.37905
1.37905
1.37906
1.37908
1.37912
1.37917
1.37921
1.37925
1.37923
1.38
1.37995
1.37992
1.37992
1.37995
1.38001
1.38008
1.38017
1.38026
1.3803
1.37751
1.37748
1.37746
1.37748
1.37752
1.37758
1.37765
1.37773
1.37778
1.37781
1.3824
1.38234
1.38231
1.38232
1.38236
1.38243
1.38253
1.38262
1.38273
1.38278
1.38438
1.38439
1.38437
1.38437
1.38437
1.38437
1.38439
1.38441
1.38444
1.38448
1.37749
1.37753
1.37755
1.37757
1.37758
1.37759
1.3776
1.3776
1.37759
1.37752
1.38016
1.3801
1.38007
1.38005
1.38005
1.38007
1.38011
1.38016
1.38024
1.38032
1.37948
1.37947
1.37946
1.37946
1.37947
1.37948
1.37951
1.37954
1.37959
1.37962
1.37962
1.37958
1.37957
1.37956
1.37957
1.3796
1.37963
1.37968
1.37974
1.37981
1.3795
1.37946
1.37944
1.37944
1.37946
1.37949
1.37953
1.37959
1.37965
1.37972
1.37918
1.37915
1.37914
1.37914
1.37916
1.3792
1.37925
1.37931
1.37937
1.37942
1.37942
1.37935
1.37932
1.37932
1.37935
1.3794
1.37947
1.37956
1.37966
1.37978
1.37677
1.37675
1.37674
1.37675
1.37679
1.37685
1.37692
1.37699
1.37703
1.37702
1.38415
1.3841
1.38407
1.38407
1.38411
1.38418
1.38426
1.38435
1.38445
1.3845
1.47676
1.4824
1.47911
1.47224
1.50878
1.51468
1.50801
1.49772
1.53654
1.54188
1.5324
1.51963
1.55729
1.5616
1.5493
1.5346
1.57371
1.57672
1.562
1.54573
1.58693
1.58858
1.5742
1.55551
1.59582
1.5959
1.58209
1.56115
1.60346
1.60184
1.58886
1.56575
1.6015
1.59804
1.58564
1.56065
1.59405
1.58954
1.57871
1.55275
1.38093
1.38061
1.38116
1.38222
1.40195
1.40328
1.40427
1.40399
1.42253
1.42523
1.4265
1.42473
1.44256
1.44654
1.44799
1.4444
1.46143
1.46637
1.46782
1.46232
1.47949
1.48508
1.48624
1.47941
1.49438
1.50038
1.50127
1.49349
1.50902
1.51522
1.51592
1.50765
1.516
1.52232
1.52294
1.51454
1.51972
1.52659
1.52722
1.51915
1.38604
1.38645
1.38663
1.38666
1.3986
1.39955
1.39982
1.39968
1.41192
1.41352
1.41395
1.41363
1.42509
1.4274
1.42798
1.42736
1.43793
1.44096
1.44163
1.44054
1.45121
1.45494
1.45567
1.45397
1.4625
1.46685
1.4676
1.46521
1.47473
1.47957
1.48032
1.47724
1.48073
1.48597
1.48671
1.48286
1.48429
1.49032
1.49108
1.48624
1.38046
1.3804
1.38043
1.38055
1.38846
1.38867
1.38876
1.38879
1.39747
1.39803
1.39824
1.39823
1.40706
1.40808
1.40846
1.40835
1.41658
1.41814
1.4187
1.4184
1.42682
1.42897
1.42969
1.42913
1.43554
1.43827
1.43914
1.43823
1.44571
1.44898
1.44996
1.44865
1.45053
1.45427
1.45537
1.45363
1.45326
1.45787
1.45912
1.45672
1.37982
1.37974
1.37974
1.37981
1.38554
1.38568
1.38573
1.38573
1.39154
1.39188
1.39202
1.392
1.39824
1.39884
1.39907
1.39905
1.40507
1.40598
1.40634
1.40628
1.41272
1.414
1.4145
1.41438
1.41908
1.42075
1.4214
1.42117
1.42719
1.42926
1.43005
1.42966
1.43101
1.43344
1.43443
1.4339
1.43314
1.43635
1.43754
1.43658
1.37952
1.37941
1.37939
1.37946
1.38383
1.38388
1.3839
1.3839
1.38803
1.38819
1.38827
1.38829
1.3927
1.39301
1.39317
1.3932
1.39763
1.39813
1.39837
1.39842
1.40339
1.40413
1.40449
1.40453
1.408
1.40901
1.40948
1.4095
1.41452
1.4158
1.4164
1.41638
1.41759
1.41914
1.41992
1.41988
1.41896
1.42116
1.4221
1.42175
1.37965
1.37954
1.37951
1.37957
1.38298
1.38301
1.38302
1.38301
1.38614
1.38623
1.38628
1.38628
1.3894
1.38958
1.38968
1.3897
1.39297
1.39325
1.39341
1.39346
1.39731
1.39774
1.39798
1.39805
1.40058
1.40118
1.40151
1.40161
1.40583
1.40663
1.40706
1.40716
1.40823
1.4092
1.40977
1.40989
1.40884
1.41034
1.41102
1.41088
1.37984
1.37973
1.3797
1.37975
1.3824
1.38242
1.38242
1.3824
1.3848
1.38486
1.38488
1.38488
1.38709
1.3872
1.38726
1.38727
1.38974
1.3899
1.39
1.39003
1.39307
1.39332
1.39347
1.39353
1.39536
1.39572
1.39594
1.39603
1.39964
1.40012
1.40041
1.40052
1.40134
1.40194
1.40233
1.40246
1.40133
1.4024
1.40285
1.40274
1.37999
1.37987
1.37984
1.37989
1.38194
1.38195
1.38195
1.38193
1.38378
1.38382
1.38383
1.38382
1.38534
1.3854
1.38544
1.38544
1.38733
1.38742
1.38748
1.3875
1.38992
1.39007
1.39016
1.3902
1.39149
1.3917
1.39184
1.39191
1.39503
1.39532
1.39551
1.3956
1.39606
1.39643
1.39668
1.39679
1.39563
1.39642
1.39672
1.39659
1.38004
1.37992
1.37989
1.37994
1.3815
1.3815
1.3815
1.38148
1.38295
1.38296
1.38297
1.38296
1.38393
1.38396
1.38398
1.38398
1.38544
1.38549
1.38552
1.38553
1.38745
1.38753
1.38759
1.38762
1.38848
1.3886
1.38868
1.38873
1.39145
1.39162
1.39174
1.39181
1.39192
1.39215
1.39231
1.3924
1.39124
1.39186
1.39206
1.39191
1.38
1.37987
1.37984
1.3799
1.38103
1.38103
1.38101
1.381
1.38223
1.38223
1.38222
1.38221
1.38277
1.38278
1.38279
1.38279
1.38393
1.38395
1.38396
1.38397
1.38549
1.38553
1.38557
1.38559
1.38608
1.38614
1.38619
1.38623
1.38863
1.38873
1.3888
1.38885
1.38866
1.3888
1.3889
1.38896
1.38787
1.38837
1.3885
1.38834
1.37987
1.37974
1.37971
1.37977
1.38053
1.38051
1.3805
1.38049
1.38159
1.38157
1.38156
1.38155
1.38178
1.38177
1.38177
1.38178
1.38271
1.38271
1.38271
1.38272
1.38393
1.38394
1.38395
1.38397
1.38417
1.38419
1.38422
1.38426
1.38642
1.38647
1.38651
1.38656
1.38608
1.38615
1.38622
1.38627
1.3853
1.38572
1.38581
1.38564
1.37971
1.37958
1.37954
1.37961
1.38001
1.37998
1.37996
1.37996
1.38102
1.38098
1.38097
1.38097
1.38093
1.38091
1.3809
1.38091
1.38172
1.3817
1.38169
1.38171
1.38267
1.38266
1.38266
1.38269
1.38265
1.38265
1.38266
1.3827
1.38471
1.38472
1.38474
1.38478
1.38404
1.38408
1.38412
1.38416
1.38337
1.38374
1.3838
1.38363
1.37955
1.37941
1.37937
1.37944
1.37948
1.37944
1.37942
1.37943
1.38053
1.38048
1.38046
1.38047
1.38021
1.38017
1.38016
1.38017
1.38093
1.38088
1.38088
1.3809
1.38167
1.38164
1.38164
1.38167
1.38146
1.38143
1.38144
1.38148
1.3834
1.38339
1.3834
1.38344
1.38244
1.38245
1.38248
1.38251
1.38199
1.3823
1.38234
1.38218
1.37944
1.3793
1.37926
1.37934
1.37899
1.37893
1.37891
1.37893
1.38015
1.38009
1.38006
1.38008
1.37961
1.37955
1.37953
1.37956
1.38029
1.38024
1.38023
1.38026
1.38088
1.38083
1.38083
1.38086
1.38054
1.38049
1.38049
1.38053
1.38243
1.38241
1.38241
1.38245
1.38118
1.38117
1.38119
1.38123
1.38106
1.38133
1.38136
1.38121
1.37947
1.37933
1.37929
1.37937
1.37854
1.37848
1.37845
1.37848
1.37989
1.37982
1.37979
1.37982
1.37913
1.37906
1.37905
1.37908
1.37981
1.37975
1.37973
1.37977
1.38026
1.38021
1.3802
1.38023
1.37985
1.37979
1.37979
1.37983
1.38175
1.38171
1.38171
1.38175
1.38019
1.38017
1.38018
1.38022
1.38057
1.38079
1.38081
1.38068
1.3798
1.37965
1.37962
1.3797
1.37817
1.37809
1.37806
1.3781
1.37978
1.3797
1.37967
1.37971
1.37881
1.37873
1.37871
1.37875
1.37947
1.3794
1.37938
1.37943
1.37979
1.37973
1.37972
1.37977
1.37936
1.3793
1.37929
1.37934
1.38126
1.38122
1.38122
1.38126
1.37938
1.37935
1.37936
1.37939
1.38055
1.38073
1.38074
1.38063
1.3807
1.38055
1.38053
1.38061
1.37782
1.37773
1.37771
1.37775
1.3798
1.37972
1.37969
1.37973
1.37869
1.3786
1.37858
1.37863
1.37929
1.37922
1.3792
1.37925
1.37948
1.37942
1.37941
1.37946
1.37907
1.379
1.37899
1.37904
1.38083
1.3808
1.38079
1.38083
1.3786
1.37857
1.37858
1.37861
1.38121
1.38134
1.38134
1.38127
1.38246
1.38234
1.38232
1.38239
1.37741
1.37731
1.37729
1.37734
1.37991
1.37984
1.37982
1.37987
1.37886
1.37878
1.37876
1.3788
1.37933
1.37927
1.37926
1.37931
1.3794
1.37934
1.37934
1.37938
1.37902
1.37895
1.37895
1.37899
1.38031
1.3803
1.3803
1.38032
1.37766
1.37762
1.37762
1.37765
1.38276
1.38284
1.38285
1.38281
1.38455
1.38449
1.38449
1.38454
1.37711
1.37701
1.37698
1.37703
1.38026
1.38023
1.38022
1.38027
1.37946
1.3794
1.3794
1.37943
1.37974
1.37971
1.3797
1.37974
1.37969
1.37967
1.37966
1.37969
1.37934
1.37931
1.3793
1.37933
1.37993
1.37996
1.37996
1.37996
1.37674
1.37666
1.37665
1.37671
1.3847
1.38476
1.38476
1.38471
1.43539
1.41149
1.391
1.37724
1.36901
1.36391
1.36057
1.35828
1.35671
1.35559
1.44811
1.41577
1.39129
1.37716
1.36929
1.36451
1.36147
1.35945
1.35811
1.35719
1.45232
1.41654
1.38981
1.37727
1.36986
1.3654
1.36253
1.36062
1.35941
1.35869
1.45235
1.41587
1.38795
1.37769
1.37083
1.3669
1.36429
1.36255
1.3614
1.3606
1.4497
1.41427
1.38671
1.37817
1.37166
1.36819
1.36574
1.36413
1.36301
1.36227
1.44483
1.41339
1.38639
1.37965
1.37332
1.3703
1.36794
1.36641
1.36528
1.36443
1.43736
1.41107
1.38447
1.37947
1.37318
1.37056
1.36822
1.36674
1.3656
1.36482
1.43172
1.41111
1.38484
1.38154
1.37521
1.37293
1.3705
1.36899
1.36775
1.36679
1.42241
1.40658
1.38123
1.37989
1.37387
1.3721
1.36967
1.3682
1.36698
1.36605
1.42022
1.40718
1.38233
1.38149
1.37456
1.37211
1.36888
1.36681
1.36511
1.36369
1.3859
1.38328
1.38008
1.37686
1.37376
1.37098
1.36858
1.3666
1.36499
1.36377
1.40322
1.39565
1.38856
1.38253
1.37757
1.37369
1.37071
1.3684
1.3666
1.36525
1.41781
1.40546
1.39484
1.3866
1.38019
1.37548
1.37203
1.36947
1.36757
1.36627
1.42951
1.41298
1.39934
1.38972
1.38248
1.3774
1.37375
1.37107
1.36906
1.3676
1.43805
1.41853
1.40235
1.39187
1.38409
1.37884
1.37506
1.37231
1.3702
1.36871
1.44495
1.4236
1.40529
1.39438
1.38623
1.38093
1.37706
1.37425
1.37205
1.3704
1.44831
1.42612
1.40601
1.39498
1.38653
1.38125
1.37728
1.37441
1.37211
1.37046
1.452
1.42989
1.40837
1.39757
1.38891
1.38366
1.37955
1.37654
1.37412
1.37224
1.45048
1.42854
1.40664
1.39668
1.38822
1.38315
1.37895
1.37588
1.37339
1.37147
1.45139
1.43
1.40769
1.39774
1.38859
1.38289
1.37806
1.37446
1.37158
1.36917
1.386
1.3841
1.38168
1.37922
1.37691
1.37484
1.37303
1.37149
1.37021
1.36923
1.39801
1.39372
1.38878
1.38442
1.38084
1.37793
1.37554
1.37358
1.37197
1.37072
1.41037
1.40292
1.39502
1.38858
1.38358
1.37974
1.37677
1.37444
1.37261
1.37129
1.4219
1.41099
1.40032
1.39224
1.38616
1.38164
1.37821
1.37557
1.37352
1.37197
1.4321
1.41761
1.40433
1.39488
1.38792
1.38289
1.37913
1.37628
1.37404
1.37242
1.44175
1.42388
1.4082
1.39768
1.39002
1.38464
1.38063
1.37762
1.37526
1.37348
1.44858
1.42761
1.40978
1.39848
1.39024
1.38462
1.38042
1.3773
1.37482
1.37303
1.45584
1.43236
1.4128
1.40109
1.39245
1.38668
1.3823
1.37903
1.37643
1.37444
1.45747
1.43208
1.41193
1.40055
1.39194
1.38619
1.38167
1.37828
1.37559
1.37354
1.45901
1.43269
1.41222
1.40069
1.39156
1.38533
1.38035
1.37658
1.37361
1.37119
1.38055
1.38016
1.37943
1.37848
1.37743
1.37636
1.37534
1.37439
1.37357
1.37292
1.38856
1.38729
1.38552
1.38362
1.38175
1.37998
1.37836
1.37693
1.37569
1.37468
1.39744
1.39469
1.39121
1.38782
1.38477
1.38213
1.37988
1.37799
1.37642
1.37522
1.40671
1.40214
1.39675
1.39187
1.38766
1.38417
1.38131
1.37897
1.37707
1.37557
1.41551
1.40877
1.40134
1.39499
1.38972
1.38551
1.38215
1.37946
1.37729
1.37565
1.42455
1.41544
1.40591
1.39823
1.39203
1.38724
1.38347
1.38051
1.37814
1.3763
1.43151
1.41992
1.40832
1.39947
1.39247
1.38722
1.38313
1.37996
1.37741
1.37552
1.43948
1.42556
1.41212
1.40239
1.39477
1.38916
1.3848
1.38143
1.37874
1.37666
1.44256
1.42672
1.41233
1.40228
1.39439
1.38859
1.38403
1.38052
1.37772
1.37558
1.44499
1.42761
1.41238
1.40181
1.39343
1.38726
1.38236
1.37857
1.37558
1.37315
1.37972
1.37951
1.37915
1.37867
1.3781
1.37751
1.37691
1.37635
1.37585
1.37546
1.38557
1.38501
1.38419
1.38321
1.38214
1.38105
1.38
1.37902
1.37815
1.37741
1.39161
1.39038
1.38868
1.38683
1.38499
1.38325
1.38166
1.38023
1.379
1.37802
1.39837
1.39623
1.3934
1.39049
1.38772
1.38522
1.38303
1.38113
1.37952
1.37819
1.40518
1.40184
1.39766
1.39357
1.38985
1.38662
1.38387
1.38155
1.37961
1.3781
1.41263
1.40787
1.40217
1.3969
1.39226
1.38837
1.38513
1.38246
1.38026
1.37851
1.41856
1.41214
1.40482
1.39839
1.39291
1.38844
1.38479
1.38183
1.37939
1.37755
1.42597
1.41785
1.40898
1.40155
1.39534
1.39039
1.38637
1.38316
1.38055
1.37851
1.42945
1.41987
1.40995
1.40186
1.39514
1.38984
1.38556
1.38217
1.37943
1.37731
1.43186
1.42077
1.40984
1.4011
1.3939
1.38825
1.3837
1.38009
1.3772
1.37485
1.37938
1.3793
1.37915
1.37892
1.37863
1.37832
1.37799
1.37768
1.3774
1.3772
1.38384
1.3836
1.38323
1.38274
1.38217
1.38154
1.3809
1.38029
1.37972
1.37922
1.38815
1.38761
1.38681
1.38582
1.38475
1.38364
1.38257
1.38156
1.38065
1.37991
1.39295
1.39197
1.39054
1.38887
1.38712
1.38542
1.38382
1.38237
1.38109
1.38
1.39801
1.39641
1.39415
1.39165
1.38914
1.38679
1.38466
1.38278
1.38116
1.37986
1.40388
1.40147
1.39822
1.3948
1.39151
1.38853
1.3859
1.38364
1.38172
1.38015
1.40852
1.40511
1.40072
1.39633
1.39226
1.38869
1.38561
1.38301
1.38082
1.37913
1.41493
1.41043
1.40487
1.39956
1.39477
1.39066
1.38718
1.38429
1.3819
1.37998
1.4182
1.41268
1.40615
1.40007
1.39467
1.39015
1.38636
1.38327
1.38072
1.37872
1.41997
1.4133
1.40588
1.39917
1.39332
1.38847
1.38444
1.38115
1.37848
1.37628
1.37948
1.37946
1.37939
1.37928
1.37913
1.37896
1.37878
1.37861
1.37846
1.37838
1.38295
1.38282
1.38266
1.38242
1.38212
1.38177
1.38139
1.38102
1.38068
1.38035
1.38617
1.3859
1.3855
1.38496
1.38432
1.38363
1.38293
1.38225
1.38162
1.38109
1.38955
1.38908
1.38832
1.38735
1.38626
1.38511
1.38399
1.38293
1.38197
1.38113
1.39327
1.39247
1.39123
1.38971
1.38805
1.38638
1.3848
1.38335
1.38207
1.38102
1.39778
1.39656
1.3947
1.39252
1.39024
1.38804
1.386
1.38418
1.3826
1.38127
1.40123
1.39943
1.39682
1.39391
1.39098
1.38824
1.38576
1.3836
1.38172
1.38025
1.4066
1.40413
1.40071
1.39704
1.39347
1.39022
1.38734
1.38488
1.38279
1.38108
1.4093
1.40614
1.40191
1.39753
1.39339
1.38973
1.38654
1.38386
1.38159
1.37978
1.41029
1.40636
1.40145
1.39655
1.39202
1.38805
1.38465
1.38179
1.37941
1.37742
1.37966
1.37967
1.37964
1.37959
1.37951
1.37942
1.37932
1.37923
1.37917
1.37915
1.38234
1.38229
1.38224
1.38214
1.38199
1.38181
1.3816
1.38139
1.38119
1.38099
1.3848
1.38466
1.38446
1.38418
1.38382
1.3834
1.38295
1.38251
1.3821
1.38175
1.38717
1.38693
1.38653
1.38597
1.38529
1.38454
1.38378
1.38304
1.38236
1.38174
1.38993
1.38953
1.38883
1.38789
1.3868
1.38566
1.38452
1.38345
1.38248
1.38168
1.3934
1.39278
1.3917
1.39031
1.38876
1.38718
1.38566
1.38426
1.38301
1.38194
1.39588
1.39493
1.39338
1.39145
1.38939
1.38735
1.38544
1.38372
1.38219
1.38096
1.40032
1.39897
1.39686
1.39437
1.39178
1.38931
1.38704
1.38502
1.38328
1.38182
1.40227
1.40046
1.39775
1.3947
1.39165
1.3888
1.38624
1.38401
1.38207
1.38051
1.40263
1.40032
1.39714
1.39368
1.3903
1.38719
1.38443
1.38204
1.38001
1.37827
1.3798
1.37982
1.37982
1.3798
1.37976
1.37971
1.37966
1.37961
1.37959
1.37962
1.38187
1.38187
1.38187
1.38185
1.3818
1.38171
1.3816
1.38149
1.38138
1.38126
1.38375
1.3837
1.38362
1.38349
1.38329
1.38304
1.38278
1.3825
1.38225
1.38203
1.38537
1.38526
1.38506
1.38474
1.38433
1.38385
1.38335
1.38285
1.38239
1.38195
1.38743
1.38723
1.38685
1.38627
1.38557
1.3848
1.38401
1.38325
1.38255
1.38196
1.39013
1.38981
1.38918
1.38829
1.38725
1.38614
1.38505
1.38401
1.38307
1.38224
1.39185
1.39134
1.3904
1.38914
1.38771
1.38624
1.38482
1.3835
1.3823
1.38132
1.39552
1.39478
1.39347
1.3918
1.38997
1.38815
1.38641
1.38483
1.38344
1.38224
1.39674
1.39571
1.39399
1.39191
1.38972
1.38759
1.3856
1.38381
1.38223
1.38093
1.39665
1.39529
1.39325
1.39088
1.38843
1.38608
1.38392