/*--------------------------------*- C++ -*----------------------------------*\
| =========                 |                                                 |
| \\      /  F ield         | foam-extend: Open Source CFD                    |
|  \\    /   O peration     | Version:     4.0                                |
|   \\  /    A nd           | Web:         http://www.foam-extend.org         |
|    \\/     M anipulation  |                                                 |
\*---------------------------------------------------------------------------*/
FoamFile
{
    version     2.0;
    format      ascii;
    class       volScalarField;
    location    "2400";
    object      alphat;
}
// * * * * * * * * * * * * * * * * * * * * * * * * * * * * * * * * * * * * * //

dimensions      [1 -1 -1 0 0 0 0];

internalField   nonuniform List<scalar> 
34480
(
0.00190198
0.00189973
0.00189863
0.001899
0.00190182
0.00190939
0.00192658
0.00195851
0.00200521
0.00212232
0.0178339
0.0163582
0.0137604
0.00989721
0.00582545
0.00306445
0.00187954
0.00169753
0.00200298
0.00236916
0.0516391
0.0468947
0.0394182
0.0290429
0.0174482
0.00838175
0.00387539
0.00255412
0.00265262
0.00304883
0.0641726
0.0592642
0.0513523
0.0397061
0.0252858
0.0124172
0.00528359
0.00299345
0.00293653
0.00339426
0.0695244
0.0652678
0.0580851
0.046699
0.0311919
0.0158146
0.00650176
0.00334452
0.0031683
0.00370135
0.0714139
0.0679575
0.0616424
0.0507825
0.0348057
0.0179241
0.00726073
0.00358991
0.00342118
0.00407793
0.0700468
0.0676095
0.0624793
0.0525717
0.0367818
0.0192093
0.00777172
0.00377996
0.00366441
0.00445192
0.0593664
0.0585203
0.0554997
0.0479475
0.0341594
0.0179532
0.00732081
0.00364165
0.00372177
0.00467979
0.0192288
0.0199237
0.0204448
0.0195024
0.0151911
0.00851339
0.0037784
0.00216679
0.00265253
0.00382843
0.00177349
0.00176216
0.0017534
0.00174748
0.00174545
0.0017469
0.00175081
0.00175752
0.00175694
0.00172603
0.00191528
0.00191421
0.00191498
0.00191807
0.00192391
0.00193328
0.00194882
0.00197526
0.00201976
0.00209593
0.0165372
0.016239
0.0156624
0.0143887
0.0119102
0.00821632
0.0046114
0.00272007
0.00244108
0.00326286
0.0497387
0.0475309
0.0436915
0.0377877
0.0299194
0.0204726
0.0110397
0.00519714
0.00376634
0.00491202
0.0613716
0.0591029
0.0550816
0.0485621
0.0394332
0.0279775
0.0154929
0.00671813
0.00439881
0.00582019
0.0661599
0.0644329
0.0611246
0.0552302
0.0460657
0.0337827
0.0192769
0.00798406
0.00490089
0.00665092
0.0678143
0.066759
0.0643383
0.0593479
0.0505519
0.037935
0.0220774
0.00889212
0.00536805
0.00766943
0.0665074
0.0662374
0.0649287
0.0611709
0.0532477
0.0408487
0.0242532
0.00960734
0.00579151
0.0087257
0.056242
0.0569435
0.057216
0.0556756
0.0501829
0.0397595
0.0241485
0.00944018
0.00583573
0.00938987
0.0180031
0.0187043
0.0198279
0.0212148
0.0220848
0.0206234
0.0140762
0.0054934
0.00374099
0.00703499
0.00177524
0.00176308
0.00175285
0.00174525
0.00174174
0.00174301
0.00174724
0.0017537
0.00178473
0.00189441
0.00192053
0.00192038
0.00192182
0.00192539
0.00193142
0.00194022
0.00195249
0.00196973
0.00199461
0.00202983
0.0146331
0.0145952
0.014623
0.0144911
0.013757
0.0120488
0.00950139
0.00695999
0.00533943
0.0048021
0.0461619
0.0450953
0.0430052
0.0395681
0.034554
0.0277901
0.0197951
0.0124672
0.00816949
0.00700652
0.0566323
0.05562
0.0534989
0.0496519
0.0438389
0.0356567
0.0252607
0.0150021
0.00912249
0.00801648
0.0607598
0.0602217
0.0587788
0.055561
0.0499766
0.04145
0.0295694
0.0168176
0.00965779
0.00888105
0.0621819
0.0621864
0.06155
0.0592545
0.0542502
0.0457787
0.0328555
0.0180025
0.00999488
0.00983092
0.0610785
0.061656
0.0619498
0.0608225
0.0568122
0.0488584
0.0353798
0.0187662
0.0101714
0.0107638
0.0517836
0.052896
0.0542428
0.0548676
0.0530354
0.0471217
0.0347856
0.0179902
0.0097142
0.0112283
0.016812
0.0173609
0.0183431
0.0197721
0.0214014
0.0220955
0.0188482
0.0103539
0.00590132
0.00791641
0.001771
0.00176006
0.00175095
0.00174437
0.00174156
0.00174416
0.00175275
0.00176647
0.00179833
0.00189745
0.00191769
0.00191791
0.00191916
0.00192177
0.00192593
0.00193177
0.00193949
0.0019495
0.00196293
0.00198198
0.0130331
0.0130383
0.0132212
0.0135316
0.0137637
0.0136348
0.0129221
0.0116504
0.0101826
0.00906279
0.0423679
0.0418932
0.0408632
0.0390607
0.0362231
0.0321285
0.0268823
0.0210992
0.0160218
0.0130243
0.0514878
0.0511156
0.0500804
0.0479625
0.0445045
0.0393459
0.0324438
0.0245012
0.0175611
0.0140623
0.0548904
0.0549083
0.0544497
0.0528213
0.0496029
0.0442624
0.0364405
0.0267504
0.0182533
0.014739
0.0561092
0.0565305
0.0567246
0.0558637
0.0531813
0.0479826
0.039527
0.0282846
0.0185683
0.0155116
0.0553004
0.0561133
0.0570141
0.0570971
0.055271
0.0505754
0.0418134
0.0291917
0.0184755
0.0161435
0.0472396
0.048314
0.0498505
0.0511808
0.0510501
0.0480704
0.0404302
0.0278282
0.0172256
0.0160438
0.0157958
0.0161897
0.0169425
0.0180732
0.0195298
0.0208086
0.0202457
0.0155898
0.0102489
0.0107814
0.00176484
0.00175531
0.00174757
0.00174223
0.00174027
0.00174347
0.00175377
0.00177207
0.00180476
0.00188208
0.00190871
0.00190906
0.00190993
0.00191148
0.00191377
0.00191682
0.00192068
0.00192561
0.00193255
0.00194411
0.0119901
0.0119717
0.0121076
0.0124266
0.012886
0.0134
0.0138293
0.0140124
0.0138261
0.0133438
0.0387052
0.0386084
0.0383261
0.037711
0.0365308
0.0345609
0.031723
0.0281463
0.024213
0.020882
0.0464649
0.0464819
0.0462063
0.0453696
0.0437177
0.0409596
0.0369849
0.0319477
0.0264228
0.0220878
0.0491703
0.0494717
0.0496127
0.0491239
0.0476623
0.0448138
0.0403242
0.034253
0.0274111
0.0225703
0.0502267
0.0507899
0.0513962
0.0514588
0.0504285
0.0477514
0.0429651
0.0359905
0.0279945
0.0231485
0.0497382
0.050542
0.0516276
0.0523565
0.0519718
0.0497217
0.0448536
0.0370513
0.0279559
0.023431
0.0429837
0.0438762
0.0452749
0.0467697
0.0475497
0.0466035
0.0427413
0.0352218
0.0260697
0.0225389
0.0149631
0.015226
0.0157656
0.0165803
0.0176868
0.0189471
0.0196763
0.0183777
0.0148293
0.0140808
0.0017575
0.00174937
0.00174298
0.00173886
0.00173779
0.00174135
0.00175153
0.00177018
0.00180042
0.00185669
0.0018951
0.00189549
0.00189602
0.0018968
0.0018978
0.00189901
0.00190043
0.0019023
0.00190561
0.00191319
0.0115472
0.0115039
0.0115614
0.011753
0.0120764
0.0125284
0.0130972
0.0137547
0.0144323
0.0149777
0.0351532
0.035257
0.0354009
0.0355183
0.0354666
0.035067
0.03417
0.0327058
0.0307256
0.0286257
0.0416781
0.0419071
0.0421134
0.0421588
0.0418415
0.0409237
0.0392348
0.036728
0.0334945
0.0302532
0.0438626
0.0442772
0.0447517
0.0450268
0.0448393
0.0438689
0.0418719
0.0387476
0.0345585
0.0305389
0.04484
0.0453999
0.0461588
0.0467901
0.0469176
0.0461114
0.0440069
0.0404153
0.0353705
0.0309031
0.0446672
0.0453596
0.0464093
0.0474492
0.048008
0.0475266
0.045461
0.041459
0.0355279
0.0308452
0.0391803
0.0398627
0.0410014
0.0423989
0.0436117
0.0439919
0.0427286
0.0391549
0.0332034
0.0290655
0.0143119
0.0144743
0.0148425
0.0153939
0.0161563
0.0171375
0.0181515
0.0185254
0.0172919
0.0164644
0.00174869
0.00174192
0.00173681
0.00173381
0.00173359
0.00173737
0.00174672
0.00176336
0.00178881
0.00182778
0.00187819
0.00187858
0.00187889
0.00187917
0.0018794
0.00187957
0.00187968
0.00187995
0.00188138
0.00188686
0.0115816
0.0115302
0.0115411
0.011638
0.0118194
0.0120871
0.0124481
0.0129227
0.0135403
0.014277
0.0320613
0.0321833
0.0323965
0.0326984
0.0330447
0.033361
0.0335584
0.0335457
0.0332542
0.0327412
0.0373951
0.0376433
0.0379791
0.0383729
0.0387254
0.0389024
0.0387617
0.0381907
0.0371317
0.0357946
0.0392324
0.0396061
0.0401256
0.040693
0.0411689
0.0413613
0.0410685
0.0401369
0.0384578
0.0364037
0.0401957
0.0406475
0.041332
0.0421291
0.0428392
0.0431981
0.0429139
0.0417643
0.0395406
0.0368803
0.0402963
0.0408237
0.0416817
0.0427142
0.0436938
0.0442846
0.0440806
0.0427514
0.0399355
0.0367462
0.0359593
0.036441
0.0372762
0.0384003
0.0396292
0.04065
0.0409537
0.0400088
0.037236
0.0341927
0.0138474
0.0139359
0.0141753
0.0145268
0.015009
0.0156572
0.0164597
0.0171989
0.017181
0.016939
0.00173817
0.00173268
0.00172872
0.00172668
0.00172712
0.00173093
0.00173921
0.00175309
0.00177307
0.00179923
0.00185892
0.00185931
0.00185948
0.00185947
0.00185927
0.00185887
0.00185829
0.00185774
0.0018582
0.00186251
0.0119231
0.0118759
0.0118671
0.0119144
0.0120158
0.0121713
0.0123875
0.0126905
0.0131387
0.013798
0.0299304
0.0299981
0.0301224
0.0303171
0.0305759
0.0308812
0.0312078
0.0315167
0.0317502
0.0318557
0.0340883
0.0342476
0.0344812
0.0348061
0.0351929
0.0355989
0.0359656
0.036223
0.0362964
0.0361966
0.035581
0.0358311
0.0362011
0.0366726
0.0372029
0.0377244
0.0381416
0.038349
0.0382339
0.0378548
0.0364907
0.0367905
0.0372671
0.037903
0.0386319
0.0393574
0.0399286
0.0401784
0.0399044
0.0391986
0.0367595
0.0371128
0.0377073
0.0384963
0.039414
0.0403347
0.0410441
0.0412967
0.0407555
0.0396206
0.0333833
0.0336956
0.0342465
0.0350246
0.0359781
0.0370246
0.0379457
0.0384108
0.0378851
0.0366867
0.0135652
0.0136017
0.01375
0.0139619
0.0142461
0.0146266
0.0151202
0.0156602
0.0157859
0.0157484
0.00172571
0.00172139
0.00171842
0.00171715
0.001718
0.00172162
0.00172868
0.00173977
0.00175464
0.00177193
0.00183787
0.00183826
0.00183836
0.00183818
0.00183775
0.00183704
0.0018361
0.00183512
0.00183502
0.00183859
0.0124375
0.0123999
0.0123847
0.0124066
0.0124649
0.0125599
0.0126989
0.0129119
0.0132699
0.0138856
0.028771
0.0287979
0.0288487
0.0289336
0.0290528
0.029202
0.0293749
0.0295584
0.0297224
0.0298178
0.031932
0.0320074
0.0321182
0.0322846
0.0324965
0.032742
0.0330024
0.0332488
0.0334372
0.0335439
0.0330283
0.0331632
0.0333626
0.0336269
0.0339466
0.0343052
0.0346739
0.0350109
0.0352525
0.0353912
0.0337927
0.0339609
0.0342297
0.0346069
0.0350771
0.0356233
0.0362024
0.0367466
0.0371368
0.0373463
0.0340985
0.0343075
0.0346621
0.0351477
0.0357599
0.0364782
0.0372398
0.0379406
0.0383764
0.038532
0.0314546
0.0316398
0.0319684
0.0324375
0.0330351
0.0337649
0.0345813
0.0353595
0.035767
0.0358297
0.0134568
0.0134578
0.0135451
0.0136663
0.0138245
0.01403
0.0142938
0.0145817
0.0145335
0.0143583
0.00171114
0.00170785
0.00170571
0.001705
0.00170603
0.00170924
0.00171498
0.0017235
0.00173411
0.00174537
0.00181534
0.00181573
0.00181578
0.00181553
0.00181497
0.00181411
0.00181298
0.00181175
0.00181129
0.00181431
0.0130452
0.0130187
0.0130026
0.0130106
0.0130435
0.0131027
0.0131975
0.0133609
0.0136727
0.0142745
0.0282669
0.0282763
0.0282936
0.0283253
0.0283725
0.0284349
0.0285118
0.0285997
0.0286834
0.0287252
0.0306924
0.0307221
0.0307651
0.0308347
0.0309256
0.0310325
0.0311479
0.0312593
0.0313458
0.0313916
0.0314183
0.0314815
0.0315724
0.0316923
0.0318373
0.0320017
0.0321756
0.0323434
0.0324777
0.0325717
0.0319893
0.0320722
0.0322026
0.0323879
0.032622
0.0329031
0.0332209
0.0335538
0.0338485
0.0340768
0.0322389
0.0323493
0.0325369
0.0327919
0.0331192
0.0335196
0.0339811
0.0344734
0.0349011
0.0352398
0.0301164
0.0302159
0.0303953
0.030648
0.0309667
0.0313635
0.0318392
0.0323606
0.0327539
0.033039
0.0135113
0.0134889
0.0135372
0.0136032
0.0136869
0.0137917
0.0139216
0.0140507
0.0138816
0.01362
0.00169432
0.00169191
0.00169043
0.00169009
0.00169113
0.00169378
0.00169821
0.00170445
0.0017117
0.00171885
0.00179143
0.00179182
0.00179186
0.00179156
0.00179094
0.00178999
0.00178876
0.00178739
0.00178667
0.00178922
0.0137098
0.0136944
0.0136797
0.0136796
0.0136963
0.0137324
0.0137989
0.013932
0.0142178
0.0148185
0.0281261
0.0281298
0.028135
0.0281458
0.0281642
0.0281913
0.0282287
0.0282768
0.0283271
0.028347
0.0300361
0.0300462
0.030061
0.0300885
0.0301256
0.0301695
0.030217
0.0302623
0.0302956
0.0303076
0.0304767
0.0305033
0.030541
0.0305901
0.0306484
0.0307129
0.0307794
0.0308418
0.0308899
0.0309224
0.0308668
0.0309034
0.0309604
0.0310422
0.0311443
0.0312658
0.0314029
0.0315477
0.0316791
0.0317801
0.0310261
0.0310781
0.0311684
0.0312891
0.0314433
0.0316316
0.0318502
0.0320886
0.0323034
0.0324786
0.0292709
0.0293177
0.0294082
0.0295327
0.0296838
0.0298671
0.0300865
0.0303295
0.030502
0.0306339
0.0137183
0.0136807
0.0137053
0.0137394
0.0137818
0.0138328
0.0138932
0.013942
0.013735
0.0134791
0.00167515
0.00167348
0.0016725
0.0016724
0.0016733
0.00167534
0.00167856
0.00168289
0.00168759
0.0016919
0.00176615
0.00176653
0.00176656
0.00176623
0.00176558
0.00176459
0.0017633
0.00176183
0.0017609
0.00176302
0.0144234
0.0144182
0.0144059
0.0144012
0.0144071
0.0144275
0.0144752
0.0145886
0.0148592
0.0154646
0.028168
0.0281707
0.0281721
0.0281754
0.0281828
0.0281959
0.0282174
0.0282494
0.0282862
0.0282978
0.0297102
0.029713
0.0297177
0.0297288
0.0297445
0.0297638
0.0297851
0.0298057
0.0298205
0.0298232
0.0299575
0.0299672
0.0299817
0.0300012
0.0300243
0.0300495
0.030075
0.0300983
0.030116
0.0301286
0.0302086
0.030223
0.0302459
0.0302799
0.0303221
0.0303715
0.0304266
0.0304843
0.0305369
0.0305757
0.0302854
0.0303061
0.0303458
0.0303993
0.0304681
0.0305519
0.0306485
0.0307533
0.0308458
0.0309167
0.0288049
0.0288219
0.028864
0.0289209
0.0289858
0.0290605
0.029147
0.029238
0.0292793
0.0293066
0.0140699
0.0140228
0.0140335
0.0140502
0.014071
0.0140949
0.0141216
0.0141336
0.0139359
0.0137251
0.00165358
0.0016525
0.0016519
0.00165191
0.00165262
0.00165407
0.00165625
0.00165905
0.00166187
0.00166422
0.0017394
0.00173979
0.0017398
0.00173947
0.0017388
0.00173778
0.00173645
0.00173492
0.0017338
0.00173549
0.0151953
0.0151994
0.0151901
0.015183
0.0151818
0.0151915
0.0152263
0.0153267
0.0155889
0.0162026
0.0282967
0.0282997
0.0283003
0.0283011
0.0283042
0.0283115
0.028326
0.0283504
0.0283809
0.0283892
0.0295585
0.0295592
0.0295607
0.0295654
0.0295726
0.0295818
0.0295926
0.0296036
0.0296118
0.0296124
0.0296863
0.0296887
0.0296938
0.0297017
0.0297116
0.0297229
0.0297346
0.0297458
0.029755
0.0297629
0.0298429
0.0298475
0.029856
0.0298697
0.0298871
0.0299075
0.0299303
0.0299541
0.0299764
0.029993
0.0298622
0.0298676
0.0298831
0.0299059
0.0299368
0.0299754
0.0300205
0.0300697
0.0301126
0.0301439
0.0286109
0.0286125
0.0286303
0.0286543
0.0286793
0.0287056
0.0287339
0.0287596
0.0287505
0.0287436
0.0145637
0.0145107
0.0145137
0.0145214
0.0145314
0.0145426
0.0145538
0.0145498
0.014383
0.0142264
0.0016296
0.00162897
0.00162864
0.0016287
0.00162919
0.00163012
0.00163145
0.00163307
0.00163454
0.00163556
0.0017111
0.00171148
0.00171149
0.00171115
0.00171047
0.00170943
0.00170808
0.00170649
0.00170521
0.00170645
0.0160466
0.0160591
0.0160533
0.0160452
0.0160396
0.016042
0.0160679
0.0161598
0.0164185
0.0170445
0.0284643
0.0284677
0.0284684
0.0284686
0.0284701
0.0284747
0.0284856
0.0285059
0.028533
0.0285406
0.0294937
0.029494
0.0294947
0.0294968
0.0295002
0.0295049
0.0295107
0.0295171
0.0295225
0.029523
0.0295524
0.029552
0.0295535
0.029557
0.0295621
0.0295685
0.0295756
0.0295829
0.0295897
0.0295964
0.0296496
0.0296504
0.0296532
0.0296588
0.0296663
0.0296755
0.0296858
0.0296968
0.0297077
0.0297161
0.0296379
0.0296366
0.0296413
0.029651
0.0296659
0.0296859
0.0297102
0.0297374
0.0297615
0.0297793
0.0285986
0.0285931
0.0285996
0.0286088
0.0286169
0.0286238
0.0286295
0.0286309
0.0286089
0.0285977
0.0152055
0.0151488
0.0151476
0.0151511
0.015156
0.0151614
0.0151658
0.015155
0.0150281
0.0149222
0.00160319
0.00160291
0.00160277
0.00160283
0.00160312
0.00160362
0.00160429
0.00160504
0.00160557
0.0016057
0.00168113
0.0016815
0.00168151
0.00168117
0.00168047
0.00167943
0.00167805
0.00167641
0.00167497
0.00167575
0.0170081
0.0170286
0.0170264
0.0170185
0.0170103
0.017008
0.0170278
0.0171144
0.0173735
0.0180181
0.0286471
0.028651
0.0286519
0.0286522
0.0286531
0.0286564
0.0286651
0.0286826
0.0287079
0.0287166
0.0294693
0.0294698
0.0294703
0.0294713
0.0294729
0.0294751
0.0294782
0.0294821
0.0294859
0.0294868
0.0294907
0.0294894
0.0294897
0.0294915
0.0294946
0.029499
0.0295041
0.0295097
0.0295153
0.0295212
0.0295516
0.0295511
0.0295519
0.0295543
0.029558
0.0295627
0.0295681
0.029574
0.02958
0.0295851
0.0295294
0.0295258
0.0295262
0.0295305
0.0295388
0.0295509
0.0295662
0.0295838
0.0296
0.029613
0.0286984
0.0286903
0.028692
0.028695
0.0286968
0.0286969
0.0286952
0.0286894
0.0286685
0.028662
0.0160125
0.0159534
0.0159503
0.0159518
0.0159546
0.0159574
0.015959
0.015947
0.0158606
0.0157979
0.00157439
0.00157435
0.00157435
0.00157439
0.00157451
0.00157468
0.00157486
0.00157499
0.00157488
0.00157441
0.00164941
0.00164978
0.00164979
0.00164943
0.00164873
0.00164768
0.00164628
0.0016446
0.001643
0.0016433
0.0181221
0.0181503
0.0181521
0.0181453
0.018136
0.0181307
0.0181464
0.0182296
0.0184927
0.0191671
0.0288332
0.0288371
0.0288384
0.0288388
0.0288396
0.0288422
0.0288492
0.0288645
0.0288884
0.0288998
0.0294619
0.0294626
0.0294631
0.0294635
0.0294641
0.029465
0.0294664
0.0294686
0.0294715
0.029473
0.0294645
0.0294632
0.0294631
0.0294641
0.0294663
0.0294694
0.0294733
0.0294775
0.029482
0.0294867
0.0295029
0.0295022
0.0295024
0.0295035
0.0295056
0.0295083
0.0295116
0.0295151
0.0295187
0.029522
0.029483
0.0294791
0.0294781
0.0294803
0.0294856
0.0294938
0.0295043
0.0295167
0.0295284
0.0295389
0.0288591
0.0288506
0.0288505
0.0288512
0.0288511
0.0288497
0.0288465
0.02884
0.0288248
0.0288243
0.0170186
0.0169581
0.0169541
0.0169549
0.0169566
0.0169584
0.0169587
0.0169522
0.0168995
0.016872
0.00154325
0.00154339
0.00154347
0.00154349
0.00154347
0.0015434
0.00154324
0.00154294
0.00154241
0.00154154
0.00161596
0.00161632
0.00161633
0.00161597
0.00161526
0.00161419
0.00161278
0.00161105
0.00160931
0.00160909
0.0194468
0.0194826
0.0194886
0.0194837
0.0194746
0.0194681
0.0194811
0.0195615
0.0198305
0.0205507
0.0290139
0.0290177
0.0290191
0.0290197
0.0290204
0.0290226
0.0290283
0.0290413
0.0290636
0.0290785
0.0294599
0.0294606
0.0294611
0.0294613
0.0294613
0.0294614
0.0294619
0.0294631
0.0294652
0.0294672
0.029454
0.029453
0.0294529
0.0294535
0.029455
0.0294571
0.0294598
0.0294629
0.0294661
0.0294696
0.0294778
0.0294772
0.0294772
0.0294779
0.0294791
0.0294808
0.0294828
0.0294849
0.0294871
0.0294893
0.0294655
0.0294622
0.0294611
0.0294623
0.0294659
0.0294715
0.0294788
0.0294874
0.0294957
0.0295041
0.0290428
0.0290353
0.0290346
0.0290346
0.0290342
0.0290331
0.0290306
0.029026
0.0290164
0.0290209
0.0182818
0.018221
0.0182168
0.0182174
0.0182186
0.0182196
0.0182192
0.0182165
0.0181932
0.0181928
0.00150989
0.00151015
0.00151029
0.00151029
0.00151018
0.00150993
0.00150953
0.00150896
0.00150815
0.00150703
0.00158095
0.00158132
0.00158132
0.00158096
0.00158024
0.00157917
0.00157774
0.00157598
0.00157409
0.00157334
0.0210627
0.0211059
0.0211163
0.0211142
0.021107
0.0211012
0.021113
0.0211897
0.0214626
0.0222469
0.0291801
0.0291833
0.0291846
0.0291853
0.0291861
0.0291879
0.0291923
0.0292027
0.0292223
0.0292404
0.0294577
0.0294583
0.0294587
0.0294587
0.0294586
0.0294584
0.0294583
0.0294588
0.0294602
0.0294625
0.029449
0.0294484
0.0294483
0.0294487
0.0294496
0.029451
0.0294527
0.0294546
0.0294567
0.029459
0.0294629
0.0294625
0.0294625
0.0294629
0.0294636
0.0294646
0.0294657
0.0294669
0.0294681
0.0294694
0.029457
0.0294547
0.0294538
0.0294546
0.0294569
0.0294606
0.0294652
0.0294706
0.0294759
0.0294821
0.029219
0.0292132
0.0292125
0.0292124
0.0292122
0.0292117
0.0292103
0.0292078
0.0292024
0.0292099
0.0198993
0.0198399
0.0198361
0.0198365
0.0198373
0.0198377
0.0198365
0.0198331
0.0198237
0.0198429
0.00147456
0.0014749
0.00147506
0.00147505
0.00147487
0.00147452
0.00147397
0.00147323
0.00147223
0.00147098
0.00154452
0.00154489
0.0015449
0.00154455
0.00154384
0.00154278
0.00154136
0.00153961
0.00153762
0.00153632
0.0230693
0.0231182
0.0231336
0.0231363
0.0231343
0.0231334
0.0231471
0.0232182
0.0234824
0.024333
0.0293192
0.0293215
0.0293225
0.0293231
0.0293239
0.0293253
0.0293285
0.0293358
0.0293508
0.0293698
0.0294533
0.0294537
0.0294539
0.0294539
0.0294537
0.0294535
0.0294533
0.0294534
0.0294542
0.0294561
0.0294454
0.0294451
0.029445
0.0294452
0.0294457
0.0294465
0.0294474
0.0294485
0.0294497
0.0294511
0.0294524
0.0294523
0.0294523
0.0294524
0.0294528
0.0294533
0.0294539
0.0294545
0.0294551
0.0294558
0.0294477
0.0294463
0.0294458
0.0294462
0.0294476
0.0294496
0.0294522
0.0294551
0.029458
0.0294619
0.0293604
0.0293568
0.0293564
0.0293564
0.0293563
0.0293561
0.0293553
0.029354
0.0293507
0.0293587
0.0220373
0.0219827
0.0219798
0.02198
0.0219803
0.0219801
0.0219781
0.0219738
0.0219634
0.0219757
0.00143744
0.0014378
0.00143798
0.00143796
0.00143774
0.00143732
0.00143669
0.00143585
0.00143478
0.00143346
0.0015058
0.00150618
0.00150619
0.00150586
0.00150517
0.00150413
0.00150275
0.00150102
0.001499
0.00149725
0.0257134
0.0257525
0.0257622
0.0257632
0.0257608
0.0257581
0.0257622
0.0258008
0.0259892
0.0268275
0.0294184
0.0294194
0.0294199
0.0294204
0.029421
0.0294219
0.0294237
0.0294275
0.029436
0.0294506
0.0294479
0.0294481
0.0294481
0.0294481
0.0294481
0.029448
0.0294479
0.0294479
0.0294482
0.029449
0.029443
0.0294428
0.0294427
0.0294429
0.0294432
0.0294436
0.0294441
0.0294448
0.0294455
0.0294462
0.0294455
0.0294453
0.0294453
0.0294454
0.0294456
0.029446
0.0294464
0.0294468
0.0294472
0.0294477
0.0294382
0.0294373
0.029437
0.0294373
0.0294381
0.0294393
0.0294407
0.0294421
0.0294436
0.0294455
0.0294469
0.0294453
0.0294452
0.0294453
0.0294453
0.0294453
0.0294452
0.029445
0.0294446
0.0294504
0.0250079
0.0249666
0.0249649
0.024965
0.024965
0.0249646
0.0249629
0.0249593
0.0249505
0.0249537
0.00139779
0.00139815
0.00139833
0.0013983
0.00139806
0.00139762
0.00139696
0.00139609
0.00139499
0.00139369
0.00239285
0.00246254
0.0024326
0.00231099
0.00232587
0.00232645
0.00229754
0.0022564
0.00287978
0.00288861
0.00284977
0.00275966
0.00319438
0.00321058
0.00317091
0.00305622
0.00349143
0.00351366
0.00347122
0.00334511
0.003816
0.00383413
0.00378237
0.00365063
0.00408595
0.00409774
0.00404276
0.00392221
0.0042193
0.00422314
0.00416666
0.00405224
0.00372984
0.00371279
0.00364533
0.00352908
0.00255892
0.002621
0.00265909
0.00265929
0.00204782
0.00209954
0.00211891
0.00209331
0.00411217
0.00429189
0.00425028
0.00394151
0.00627335
0.00644903
0.00634473
0.00589835
0.00757668
0.00772507
0.00758583
0.00710707
0.00889032
0.00906833
0.008915
0.0084176
0.010729
0.0110411
0.0109307
0.0104831
0.0127047
0.0131263
0.0130314
0.0126287
0.0142203
0.0147181
0.0146592
0.0143862
0.0119099
0.0123259
0.0122448
0.0119879
0.00235791
0.0023905
0.00239443
0.00237526
0.00193775
0.00196077
0.00196691
0.00195417
0.0047588
0.00497822
0.00507275
0.00518523
0.0070087
0.00728844
0.00736917
0.00752298
0.00819142
0.00846732
0.00853487
0.00867902
0.00934412
0.00963228
0.00969835
0.00978264
0.0108244
0.0112325
0.0114181
0.0116298
0.0124753
0.0130227
0.0133154
0.013609
0.013774
0.0144457
0.0148311
0.0152287
0.0108041
0.0113626
0.0116649
0.0119332
0.00214145
0.00216789
0.00217851
0.00217637
0.00188463
0.00189573
0.00189803
0.00188992
0.00821264
0.00824444
0.00852915
0.00921295
0.011668
0.0117596
0.0122175
0.0132349
0.0127136
0.0129079
0.0134662
0.0146167
0.0135763
0.0138686
0.0144947
0.0157156
0.0147056
0.0151293
0.0158821
0.0172855
0.0158332
0.0163801
0.0172298
0.0187326
0.0164405
0.0171168
0.0180566
0.0195914
0.0120145
0.0126067
0.0133219
0.0143224
0.002008
0.0020245
0.00203585
0.00204388
0.00184811
0.00185584
0.00185663
0.00185
0.0124907
0.0125099
0.012787
0.013381
0.0193419
0.0193474
0.0199151
0.0210673
0.0203781
0.0205409
0.0213138
0.0227197
0.0209042
0.0212346
0.0221585
0.0237208
0.0217588
0.0223074
0.0234317
0.0251709
0.0224533
0.0231881
0.0244447
0.0262444
0.0221699
0.0230424
0.0243304
0.0260187
0.0146183
0.0152973
0.0161069
0.016946
0.00193345
0.00194455
0.00195346
0.0019611
0.0018186
0.00182492
0.00182534
0.00181953
0.0139988
0.0140885
0.0142462
0.0144858
0.0274848
0.0273871
0.027752
0.0285119
0.0288609
0.0288573
0.0294139
0.0304306
0.0290364
0.0291706
0.0298803
0.0310509
0.0294607
0.0297778
0.0306616
0.0319795
0.0295654
0.0300424
0.0310391
0.0324096
0.0281321
0.0287175
0.0297086
0.0309498
0.0165007
0.0168927
0.0173697
0.0177831
0.0018789
0.00188594
0.00189246
0.00189902
0.00179332
0.00179892
0.00179914
0.00179378
0.0130477
0.0131811
0.0132768
0.0133502
0.0322203
0.0321741
0.0322964
0.0325586
0.035184
0.0351517
0.0353784
0.0358027
0.0356038
0.0356175
0.035942
0.0364895
0.0359413
0.0360417
0.0364903
0.037175
0.0357111
0.0358963
0.0364317
0.0371864
0.0332397
0.0334849
0.0340091
0.0346763
0.0170579
0.0172012
0.0173413
0.0173803
0.00183707
0.00184152
0.00184616
0.00185143
0.00176978
0.00177493
0.00177505
0.00177
0.0124436
0.0125754
0.0126409
0.0126504
0.0315293
0.0315109
0.0315322
0.0315896
0.0360919
0.0360909
0.0361342
0.0362087
0.0376805
0.0376844
0.0377619
0.0378871
0.0389066
0.0389338
0.0390815
0.0393082
0.0391648
0.039209
0.0394072
0.039701
0.0361977
0.0362518
0.0364311
0.0366696
0.0160496
0.0160926
0.0160843
0.0159693
0.00180237
0.00180513
0.00180838
0.00181252
0.00174656
0.00175138
0.00175143
0.00174666
0.0124416
0.0125674
0.0126137
0.0125877
0.0294909
0.029466
0.0294703
0.0295037
0.0335321
0.033537
0.0335414
0.0335434
0.0354219
0.0354352
0.0354405
0.035433
0.0374112
0.0374469
0.0374861
0.0375197
0.0385815
0.0386252
0.0386871
0.0387507
0.0358921
0.0359259
0.035963
0.035981
0.0146108
0.0146285
0.0146016
0.0144918
0.00177151
0.00177317
0.00177541
0.00177859
0.00172295
0.00172745
0.00172747
0.00172299
0.0127355
0.0128536
0.0128867
0.0128402
0.0284033
0.028374
0.0283764
0.0284105
0.031371
0.0313713
0.0313744
0.0313796
0.0325946
0.0326016
0.0325995
0.0325867
0.0341586
0.034185
0.0342002
0.0342014
0.0353892
0.0354315
0.0354587
0.0354653
0.0332645
0.0333031
0.0333106
0.0332771
0.0137832
0.0137874
0.0137636
0.0136866
0.00174235
0.0017433
0.00174481
0.00174722
0.00169851
0.00170269
0.0017027
0.00169852
0.0131763
0.0132837
0.0133071
0.0132512
0.0280403
0.0280101
0.0280116
0.0280451
0.0302857
0.0302845
0.0302882
0.0302963
0.0309297
0.0309327
0.030932
0.030927
0.0318158
0.0318285
0.031837
0.0318397
0.0325602
0.0325832
0.0325981
0.0326022
0.0307954
0.0308188
0.0308196
0.0307919
0.0136106
0.0136096
0.0135886
0.0135325
0.00171372
0.00171421
0.00171522
0.00171702
0.00167295
0.00167679
0.00167679
0.00167295
0.0137099
0.0138008
0.0138164
0.0137626
0.0280087
0.0279786
0.0279793
0.0280114
0.0298046
0.0298033
0.0298065
0.0298138
0.0301323
0.0301342
0.0301345
0.0301329
0.0305896
0.0305955
0.0306006
0.0306043
0.0309508
0.0309611
0.0309693
0.0309743
0.0294076
0.0294187
0.029416
0.0293966
0.013864
0.0138638
0.0138461
0.0138019
0.00168495
0.00168514
0.00168581
0.00168715
0.00164606
0.00164954
0.00164953
0.00164605
0.0143228
0.0143849
0.0143938
0.0143581
0.0281192
0.0280898
0.0280901
0.0281204
0.0295974
0.0295962
0.0295985
0.0296042
0.0297665
0.0297681
0.0297687
0.0297683
0.0299995
0.0300027
0.0300059
0.0300089
0.030159
0.0301637
0.0301685
0.0301729
0.0288166
0.0288225
0.028819
0.0288045
0.0143901
0.014394
0.01438
0.0143426
0.00165558
0.00165561
0.00165603
0.00165702
0.00161765
0.00162078
0.00162078
0.00161763
0.0150236
0.0150661
0.0150716
0.0150441
0.028292
0.0282643
0.0282643
0.0282924
0.029511
0.0295099
0.0295114
0.0295155
0.0296
0.0296013
0.029602
0.0296019
0.02972
0.029722
0.0297241
0.0297262
0.0297872
0.0297897
0.0297927
0.0297962
0.0286578
0.028662
0.028659
0.0286479
0.0151185
0.0151278
0.0151175
0.015084
0.00162527
0.00162519
0.00162546
0.00162618
0.00158758
0.00159037
0.00159037
0.00158757
0.0158345
0.0158741
0.0158781
0.0158492
0.0284923
0.0284673
0.0284673
0.0284924
0.0294777
0.0294767
0.0294776
0.0294802
0.0295243
0.0295255
0.0295261
0.029526
0.0295878
0.0295891
0.0295905
0.0295918
0.0296178
0.0296193
0.0296213
0.0296239
0.0287141
0.0287178
0.0287157
0.0287073
0.0160299
0.0160452
0.0160381
0.0160067
0.00159371
0.00159359
0.00159376
0.00159428
0.00155579
0.00155821
0.00155821
0.00155578
0.0168099
0.0168538
0.0168564
0.0168198
0.0287037
0.0286824
0.0286824
0.0287038
0.0294667
0.0294661
0.0294665
0.0294679
0.0294894
0.0294903
0.0294907
0.0294906
0.0295239
0.0295248
0.0295257
0.0295264
0.0295421
0.0295431
0.0295445
0.0295464
0.0288695
0.0288729
0.0288716
0.0288653
0.0171394
0.0171602
0.017156
0.0171258
0.0015607
0.00156057
0.00156067
0.00156104
0.00152225
0.00152426
0.00152426
0.00152224
0.018007
0.0180681
0.0180697
0.018013
0.0289153
0.0288988
0.0288988
0.0289154
0.0294637
0.0294635
0.0294636
0.0294641
0.0294716
0.0294723
0.0294725
0.0294724
0.0294906
0.0294912
0.0294916
0.029492
0.0295062
0.0295069
0.0295079
0.0295091
0.0290596
0.0290627
0.029062
0.029057
0.0184895
0.0185131
0.0185114
0.0184838
0.00152614
0.00152602
0.00152608
0.00152633
0.00148715
0.00148873
0.00148873
0.00148715
0.0195178
0.0196215
0.0196223
0.0195207
0.0291156
0.0291052
0.0291053
0.0291158
0.0294614
0.0294616
0.0294616
0.0294614
0.0294605
0.0294609
0.029461
0.0294609
0.0294703
0.0294706
0.0294708
0.0294708
0.0294835
0.029484
0.0294846
0.0294853
0.0292422
0.0292452
0.0292446
0.0292403
0.0201455
0.0201633
0.0201636
0.0201464
0.00149009
0.00149001
0.00149004
0.0014902
0.00145081
0.00145191
0.00145191
0.00145081
0.0215059
0.021702
0.0217021
0.0215066
0.0292888
0.0292855
0.0292855
0.0292891
0.0294565
0.0294569
0.0294569
0.0294564
0.029452
0.0294523
0.0294523
0.0294522
0.0294562
0.0294563
0.0294563
0.0294562
0.0294629
0.0294633
0.0294637
0.0294639
0.0293844
0.0293872
0.0293864
0.0293821
0.0222598
0.0222714
0.0222719
0.0222612
0.00145268
0.00145263
0.00145265
0.00145273
0.00141254
0.00141315
0.00141315
0.00141254
0.0243527
0.0246972
0.0246972
0.0243528
0.0294161
0.0294182
0.0294182
0.0294163
0.0294495
0.0294497
0.0294497
0.0294495
0.0294467
0.0294468
0.0294469
0.0294469
0.0294478
0.0294479
0.0294478
0.0294478
0.0294459
0.0294463
0.0294465
0.0294468
0.0294638
0.029465
0.0294641
0.0294611
0.0251696
0.0251707
0.0251714
0.0251715
0.0014131
0.00141311
0.00141312
0.00141314
0.00219648
0.00208299
0.00202163
0.00198584
0.00196462
0.00194879
0.00193522
0.00192362
0.00191422
0.00190675
0.00280746
0.00252474
0.00384806
0.00830397
0.0133669
0.0171448
0.0192222
0.0198345
0.019558
0.0188279
0.00403146
0.00498221
0.0114511
0.021122
0.0322217
0.0417963
0.0487842
0.0530185
0.0547407
0.0542152
0.00557315
0.0089694
0.0176596
0.0302529
0.0434546
0.0540515
0.061468
0.0657975
0.0674392
0.066829
0.00876661
0.0121163
0.0230604
0.0370097
0.0505317
0.0609148
0.0677769
0.0714748
0.0725821
0.0718566
0.0132371
0.0159593
0.0274705
0.0417028
0.0549631
0.0648107
0.070895
0.0737613
0.0742138
0.0733472
0.0167115
0.0188404
0.0294899
0.0436959
0.0565247
0.0656474
0.0707073
0.0725956
0.072342
0.0714113
0.0185317
0.0194619