/*--------------------------------*- C++ -*----------------------------------*\
| =========                 |                                                 |
| \\      /  F ield         | foam-extend: Open Source CFD                    |
|  \\    /   O peration     | Version:     4.0                                |
|   \\  /    A nd           | Web:         http://www.foam-extend.org         |
|    \\/     M anipulation  |                                                 |
\*---------------------------------------------------------------------------*/
FoamFile
{
    version     2.0;
    format      ascii;
    class       surfaceScalarField;
    location    "2400";
    object      phi;
}
// * * * * * * * * * * * * * * * * * * * * * * * * * * * * * * * * * * * * * //

dimensions      [1 0 -1 0 0 0 0];

internalField   nonuniform List<scalar> 
97302
(
-0.000109158
5.33162e-06
-0.000614701
0.000631506
-0.000133908
5.7977e-06
-0.000618293
0.000637244
-0.000162521
6.22088e-06
-0.000621106
0.000643499
-0.000196837
6.63502e-06
-0.00062314
0.00065082
-0.000239379
7.05889e-06
-0.000624248
0.000659731
-0.000293223
7.47616e-06
-0.000623694
0.000670061
-0.000361118
7.7942e-06
-0.000619425
0.000679526
-0.000442346
7.78816e-06
-0.000606787
0.000680227
-0.000532903
7.05854e-06
-0.000575094
0.000658593
4.58604e-06
-0.000491031
-0.00066923
0.000622772
-0.000137842
7.91631e-06
-0.000859728
0.000875213
-0.000158099
8.81046e-06
-0.000865506
0.00088275
-0.000181382
9.47905e-06
-0.000870261
0.000890286
-0.000209469
9.98709e-06
-0.000873828
0.000898563
-0.000245383
1.03787e-05
-0.000876498
0.000909092
-0.000293527
1.06552e-05
-0.000878118
0.000923082
-0.000359408
1.07278e-05
-0.000876858
0.000939806
-0.000446168
1.0327e-05
-0.000867439
0.00095166
-0.000549433
8.84859e-06
-0.000836504
0.000937979
4.5966e-06
-0.000726318
-0.000721809
0.000898683
-0.000168266
8.43808e-06
-0.00110356
0.00111818
-0.000185283
9.69445e-06
-0.00111154
0.00112768
-0.000204953
1.06173e-05
-0.0011185
0.00113704
-0.000228892
1.12813e-05
-0.00112431
0.00114695
-0.000260226
1.17307e-05
-0.00112923
0.00115921
-0.000304158
1.19822e-05
-0.00113378
0.00117638
-0.000367979
1.19588e-05
-0.00113685
0.00119944
-0.000457884
1.13573e-05
-0.00113285
0.00122173
-0.000569505
9.37473e-06
-0.00110628
0.00121737
3.59148e-06
-0.000974913
-0.000767602
0.00117402
-0.000199694
8.52614e-06
-0.00134388
0.00135781
-0.000215524
1.00047e-05
-0.00135538
0.0013709
-0.000233882
1.10867e-05
-0.00136587
0.00138376
-0.000256174
1.1842e-05
-0.00137521
0.00139694
-0.000285326
1.22921e-05
-0.00138334
0.00141193
-0.000326782
1.24457e-05
-0.00139101
0.001432
-0.000389031
1.22311e-05
-0.00139788
0.00145986
-0.000480723
1.13273e-05
-0.00139909
0.00149081
-0.000597587
8.70117e-06
-0.0013779
0.00149544
1.10972e-06
-0.00122756
-0.000811541
0.001444
-0.000233302
8.44424e-06
-0.00158426
0.00159772
-0.000248478
9.97862e-06
-0.0015997
0.0016149
-0.000266123
1.10763e-05
-0.00161419
0.00163185
-0.000287474
1.18063e-05
-0.0016275
0.00164888
-0.000315262
1.21755e-05
-0.00163933
0.00166724
-0.000354964
1.2173e-05
-0.00165037
0.00169035
-0.000415918
1.17246e-05
-0.00166093
0.00172239
-0.000508792
1.05001e-05
-0.00166724
0.00176094
-0.000629456
7.19171e-06
-0.00165187
0.00177404
-2.36968e-06
-0.00148264
-0.00085299
0.00170965
-0.000269429
8.23442e-06
-0.00182308
0.00183617
-0.000284094
9.66525e-06
-0.00184265
0.00185763
-0.000301178
1.06439e-05
-0.00186114
0.00187866
-0.000321809
1.12421e-05
-0.00187841
0.0018996
-0.000348556
1.14575e-05
-0.00189402
0.00192149
-0.000386862
1.1268e-05
-0.00190847
0.00194769
-0.000446696
1.06118e-05
-0.00192251
0.00198346
-0.000540584
9.19696e-06
-0.0019335
0.00202869
-0.000665165
5.48497e-06
-0.00192341
0.00204969
-5.67799e-06
-0.00173224
-0.000898881
0.00196926
-0.000307431
8.00649e-06
-0.00206105
0.00207376
-0.000321634
9.13848e-06
-0.00208438
0.00209911
-0.000338173
9.85889e-06
-0.00210649
0.00212382
-0.000358077
1.02121e-05
-0.00212728
0.00214821
-0.000383749
1.01871e-05
-0.00214634
0.00217328
-0.000420498
9.765e-06
-0.00216398
0.00220223
-0.000478727
8.95154e-06
-0.00218141
0.0022413
-0.00057266
7.58426e-06
-0.00219731
0.00229286
-0.00070006
4.02333e-06
-0.00219333
0.00232219
-7.87683e-06
-0.00198024
-0.00094265
0.00222503
-0.000348441
7.22796e-06
-0.00229921
0.00231184
-0.000361996
7.89521e-06
-0.0023259
0.0023407
-0.000377841
8.29944e-06
-0.00235099
0.00236839
-0.000396923
8.41124e-06
-0.00237471
0.00239559
-0.00042142
8.18875e-06
-0.00239663
0.00242312
-0.000456339
7.6037e-06
-0.00241691
0.00245399
-0.0005122
6.76588e-06
-0.00243721
0.00249526
-0.000604743
5.73992e-06
-0.00245792
0.00255231
-0.000733299
3.12694e-06
-0.00246155
0.002591
-8.12653e-06
-0.00222912
-0.000982708
0.00247878
-0.000390224
5.05648e-06
-0.00253422
0.00254695
-0.000402696
5.04707e-06
-0.00256341
0.00257873
-0.000417627
4.98827e-06
-0.00259087
0.00260911
-0.000436073
4.77454e-06
-0.00261748
0.00263956
-0.000459987
4.37099e-06
-0.00264303
0.00267076
-0.000493695
3.73179e-06
-0.00266726
0.00270484
-0.000547097
3.04823e-06
-0.00269122
0.00274834
-0.00063696
2.61453e-06
-0.00271668
0.00280967
-0.000764503
1.66973e-06
-0.00272867
0.00285767
-7.24367e-06
-0.00248148
-0.00101449
0.00273058
-0.000432593
-0.00275426
0.00276787
-0.000443468
-0.00278611
0.00280203
-0.000456898
-0.00281613
0.00283455
-0.000474063
-0.00284521
0.00286715
-0.000496872
-0.00287302
0.0029002
-0.000529219
-0.00289955
0.00293563
-0.000579853
-0.0029262
0.00297988
-0.000665251
-0.00295706
0.00304507
-0.000788329
-0.00298298
0.00310773
-0.00273967
-0.00103719
0.00298128
1.23292e-05
5.38496e-06
-0.000599565
-1.01132e-05
5.84962e-06
-0.0006017
-3.4902e-05
6.23794e-06
-0.000602555
-6.2661e-05
6.55712e-06
-0.000601938
-9.43034e-05
6.80242e-06
-0.000599408
-0.000130713
6.94134e-06
-0.000594225
-0.000171778
6.90097e-06
-0.000585261
-0.000214221
6.53595e-06
-0.00057088
-0.000247645
5.58667e-06
-0.000547257
3.53365e-06
-0.000505116
-0.000237093
2.25647e-05
7.97515e-06
-0.000844385
2.61521e-06
8.9283e-06
-0.000848635
-1.96424e-05
9.6368e-06
-0.000851402
-4.47807e-05
1.01309e-05
-0.000852264
-7.41104e-05
1.04165e-05
-0.000850782
-0.000109738
1.04678e-05
-0.000846017
-0.00015379
1.02152e-05
-0.00083612
-0.000206167
9.47647e-06
-0.000818003
-0.0002594
7.89584e-06
-0.00078558
4.63549e-06
-0.00072093
-0.000265889
3.21724e-05
8.48896e-06
-0.00108819
1.43794e-05
9.88612e-06
-0.00109471
-5.77634e-06
1.09323e-05
-0.00109964
-2.90218e-05
1.1673e-05
-0.0011026
-5.67724e-05
1.21049e-05
-0.00110317
-9.18249e-05
1.22025e-05
-0.00110046
-0.000138164
1.18967e-05
-0.00109219
-0.00019883
1.09674e-05
-0.00107368
-0.000270197
8.91786e-06
-0.00103593
4.49611e-06
-0.000947966
-0.000297004
4.14862e-05
8.43212e-06
-0.00132863
2.42955e-05
1.01597e-05
-0.00133846
4.5894e-06
1.14743e-05
-0.00134671
-1.84043e-05
1.242e-05
-0.00135296
-4.6096e-05
1.29738e-05
-0.00135652
-8.14737e-05
1.30877e-05
-0.00135651
-0.000129745
1.26788e-05
-0.00135039
-0.000197086
1.15088e-05
-0.00133229
-0.00028453
8.93376e-06
-0.00129047
3.21638e-06
-0.0011786
-0.000332211
4.89303e-05
8.14432e-06
-0.00156905
3.19282e-05
1.00582e-05
-0.0015826
1.23117e-05
1.15182e-05
-0.00159462
-1.07337e-05
1.25689e-05
-0.0016046
-3.86256e-05
1.31803e-05
-0.00161165
-7.43983e-05
1.32749e-05
-0.00161479
-0.000124115
1.2747e-05
-0.00161128
-0.000196824
1.13493e-05
-0.00159437
-0.000298336
8.27111e-06
-0.0015497
1.21496e-06
-0.00141359
-0.000365388
5.41375e-05
7.66924e-06
-0.00180786
3.72591e-05
9.62295e-06
-0.00182533
1.77142e-05
1.11083e-05
-0.00184119
-5.35322e-06
1.21745e-05
-0.00185494
-3.33721e-05
1.27888e-05
-0.00186561
-6.94057e-05
1.2857e-05
-0.00187202
-0.000120133
1.22585e-05
-0.00187129
-0.000197076
1.0763e-05
-0.00185597
-0.000310491
7.4196e-06
-0.00180914
-7.06212e-07
-0.00164782
-0.00039299
5.70898e-05
7.07481e-06
-0.00204584
4.03848e-05
8.87565e-06
-0.00206693
2.10404e-05
1.02556e-05
-0.0020863
-1.82484e-06
1.12449e-05
-0.00210348
-2.96417e-05
1.18066e-05
-0.00211754
-6.54693e-05
1.18378e-05
-0.00212713
-0.000116454
1.12345e-05
-0.0021294
-0.000196349
9.84605e-06
-0.0021165
-0.000319842
6.67896e-06
-0.0020691
-2.08754e-06
-0.00188325
-0.000415455
5.74969e-05
5.89609e-06
-0.00228381
4.12777e-05
7.34398e-06
-0.00230815
2.24692e-05
8.53191e-06
-0.00233046
1.68758e-07
9.43191e-06
-0.0023506
-2.70151e-05
9.99278e-06
-0.00236763
-6.20667e-05
1.00884e-05
-0.00238011
-0.000112393
9.65945e-06
-0.00238531
-0.000193733
8.67593e-06
-0.00237541
-0.000325724
6.39086e-06
-0.00232927
-2.25328e-06
-0.00212084
-0.00043384
5.58611e-05
3.41208e-06
-0.00251848
4.0695e-05
4.24182e-06
-0.00254514
2.29466e-05
5.0381e-06
-0.00256963
1.53198e-06
5.68476e-06
-0.00259231
-2.50467e-05
6.17723e-06
-0.00261263
-5.95952e-05
6.37868e-06
-0.00262901
-0.000109156
6.28665e-06
-0.00263829
-0.000190796
5.98836e-06
-0.00263235
-0.000329959
5.37335e-06
-0.00258849
-1.4161e-06
-0.00235916
-0.000453116
5.316e-05
-0.00273898
3.92782e-05
-0.00276798
2.29815e-05
-0.00279479
3.10925e-06
-0.00281965
-2.18948e-05
-0.00284184
-5.50008e-05
-0.00286006
-0.000102725
-0.00287219
-0.000182687
-0.00287111
-0.000327131
-0.00283317
-0.00259059
-0.000477621
6.83575e-06
5.29854e-06
-0.000587478
-1.19266e-05
5.7078e-06
-0.000588645
-3.19995e-05
6.00887e-06
-0.000588491
-5.32727e-05
6.20373e-06
-0.000586869
-7.54571e-05
6.27223e-06
-0.000583496
-9.78438e-05
6.16852e-06
-0.000578007
-0.000118915
5.82199e-06
-0.000570012
-0.000135738
5.13974e-06
-0.000559197
-0.000141921
4.01037e-06
-0.000545085
2.34465e-06
-0.000526488
-0.000122894
1.61545e-05
7.99784e-06
-0.000830643
-2.08774e-06
8.87591e-06
-0.000833561
-2.21513e-05
9.49071e-06
-0.00083482
-4.40059e-05
9.85854e-06
-0.000834064
-6.77092e-05
9.96097e-06
-0.000830768
-9.31596e-05
9.73818e-06
-0.000824136
-0.000119498
9.09943e-06
-0.000813059
-0.000144144
7.91266e-06
-0.00079613
-0.000160327
6.01359e-06
-0.0007714
3.25511e-06
-0.000736793
-0.000145374
2.57232e-05
8.72677e-06
-0.00107353
8.43371e-06
1.0054e-05
-0.0010786
-1.09728e-05
1.10147e-05
-0.00108176
-3.27818e-05
1.1635e-05
-0.00108257
-5.74262e-05
1.18865e-05
-0.00108045
-8.55276e-05
1.16975e-05
-0.00107432
-0.00011726
1.09472e-05
-0.0010623
-0.000150869
9.43593e-06
-0.00104159
-0.000179644
6.86943e-06
-0.00100801
2.91983e-06
-0.000954951
-0.000172324
3.51885e-05
8.77893e-06
-0.00131361
1.80298e-05
1.046e-05
-0.00132171
-1.58401e-06
1.17116e-05
-0.00132779
-2.4135e-05
1.25638e-05
-0.00133134
-5.02565e-05
1.2961e-05
-0.00133147
-8.10401e-05
1.28065e-05
-0.00132684
-0.000117621
1.19415e-05
-0.0013148
-0.000159606
1.01008e-05
-0.00129097
-0.000201474
6.83798e-06
-0.00124857
1.59734e-06
-0.00117423
-0.000204526
4.31115e-05
8.54443e-06
-0.00155382
2.58814e-05
1.04452e-05
-0.00156535
5.9593e-06
1.18776e-05
-0.00157487
-1.72544e-05
1.28737e-05
-0.0015817
-4.46131e-05
1.33654e-05
-0.00158469
-7.7553e-05
1.32261e-05
-0.00158227
-0.000118116
1.22551e-05
-0.00157103
-0.000167574
1.01229e-05
-0.00154493
-0.00022232
6.19093e-06
-0.0014943
-4.09134e-07
-0.00139684
-0.000237063
4.89646e-05
8.06071e-06
-0.00179244
3.17066e-05
1.00364e-05
-0.00180767
1.16156e-05
1.15331e-05
-0.00182075
-1.20095e-05
1.25884e-05
-0.00183103
-4.02214e-05
1.31307e-05
-0.00183717
-7.47519e-05
1.30141e-05
-0.00183728
-0.000118496
1.20096e-05
-0.0018273
-0.000174542
9.74497e-06
-0.00179955
-0.00024174
5.38532e-06
-0.00174114
-2.35637e-06
-0.00161895
-0.00026866
5.26245e-05
7.37284e-06
-0.00203028
3.54742e-05
9.22345e-06
-0.00204897
1.54638e-05
1.06493e-05
-0.0020654
-8.18745e-06
1.16754e-05
-0.00207892
-3.66957e-05
1.22322e-05
-0.00208813
-7.20487e-05
1.21593e-05
-0.00209092
-0.000117946
1.12253e-05
-0.00208272
-0.000179417
9.06615e-06
-0.00205435
-0.000258299
4.70817e-06
-0.00198954
-3.86631e-06
-0.00184241
-0.000297626
5.36745e-05
6.06033e-06
-0.002268
3.70035e-05
7.55899e-06
-0.00228981
1.75151e-05
8.79071e-06
-0.00230911
-5.65197e-06
9.73721e-06
-0.00232549
-3.38179e-05
1.0337e-05
-0.00233757
-6.91581e-05
1.04177e-05
-0.00234303
-0.000116058
9.78398e-06
-0.00233697
-0.000181499
8.12441e-06
-0.00230903
-0.000271033
4.55144e-06
-0.00223958
-4.24459e-06
-0.00206834
-0.000323156
5.23827e-05
3.55364e-06
-0.00250232
3.67351e-05
4.40608e-06
-0.00252634
1.83558e-05
5.22041e-06
-0.00254768
-3.8076e-06
5.88202e-06
-0.00256629
-3.13376e-05
6.40458e-06
-0.00258117
-6.65675e-05
6.63798e-06
-0.00259
-0.000114083
6.48447e-06
-0.00258747
-0.000182224
5.7253e-06
-0.00256181
-0.00028079
3.91332e-06
-0.00248928
-3.26327e-06
-0.00229397
-0.000346963
5.00209e-05
-0.00272295
3.55433e-05
-0.0027491
1.8571e-05
-0.0027726
-2.02946e-06
-0.00279317
-2.7832e-05
-0.00280963
-6.14528e-05
-0.00281981
-0.000107797
-0.00281936
-0.000176297
-0.00279688
-0.000280719
-0.00272483
-0.00250939
-0.000365187
3.95458e-06
4.93774e-06
-0.000579027
-1.02948e-05
5.27629e-06
-0.000579672
-2.50566e-05
5.48403e-06
-0.000579213
-3.99119e-05
5.56405e-06
-0.000577577
-5.42492e-05
5.49779e-06
-0.000574656
-6.71602e-05
5.25131e-06
-0.000570347
-7.72968e-05
4.78259e-06
-0.000564658
-8.2667e-05
4.04782e-06
-0.000557874
-8.01218e-05
3.01608e-06
-0.000550646
1.74783e-06
-0.000543114
-6.52437e-05
1.13585e-05
7.6758e-06
-0.000819387
-4.05832e-06
8.45033e-06
-0.000821318
-2.06559e-05
8.94298e-06
-0.000821682
-3.80737e-05
9.16694e-06
-0.000820249
-5.57699e-05
9.09941e-06
-0.000816673
-7.28172e-05
8.68291e-06
-0.00081052
-8.7617e-05
7.84618e-06
-0.000801323
-9.74825e-05
6.52203e-06
-0.000788739
-9.78257e-05
4.68365e-06
-0.000772725
2.47616e-06
-0.000754235
-8.11127e-05
2.00329e-05
8.66986e-06
-0.00106043
4.21819e-06
9.88294e-06
-0.00106422
-1.32569e-05
1.07119e-05
-0.00106606
-3.22706e-05
1.11681e-05
-0.00106556
-5.2605e-05
1.12164e-05
-0.00106223
-7.37143e-05
1.07748e-05
-0.0010553
-9.4194e-05
9.72946e-06
-0.00104371
-0.000110944
7.9444e-06
-0.00102626
-0.000117645
5.30296e-06
-0.00100193
1.93429e-06
-0.000971024
-0.00010103
2.90554e-05
8.90318e-06
-0.0012995
1.26986e-05
1.0486e-05
-0.00130595
-5.80213e-06
1.16177e-05
-0.0013102
-2.65791e-05
1.23144e-05
-0.00131171
-4.96428e-05
1.25048e-05
-0.00130969
-7.48123e-05
1.20742e-05
-0.00130297
-0.000101048
1.08555e-05
-0.0012897
-0.000125262
8.62941e-06
-0.00126744
-0.000140077
5.15163e-06
-0.00123361
5.13971e-07
-0.00118684
-0.000126044
3.70328e-05
8.78378e-06
-0.00153909
2.0187e-05
1.06158e-05
-0.00154864
8.17011e-07
1.19573e-05
-0.00155584
-2.13872e-05
1.28291e-05
-0.00156001
-4.66872e-05
1.31334e-05
-0.00156002
-7.52949e-05
1.2721e-05
-0.00155431
-0.000106694
1.13639e-05
-0.00154014
-0.000138218
8.7488e-06
-0.00151353
-0.000162095
4.45172e-06
-0.00146973
-1.54351e-06
-0.00140439
-0.00015248
4.32382e-05
8.34248e-06
-0.00177724
2.60908e-05
1.02835e-05
-0.00179019
6.16457e-06
1.17262e-05
-0.0018006
-1.70075e-05
1.26978e-05
-0.00180773
-4.39672e-05
1.30898e-05
-0.00181016
-7.53004e-05
1.27266e-05
-0.00180595
-0.000111128
1.13301e-05
-0.00179144
-0.000149543
8.50038e-06
-0.00176088
-0.000183021
3.6045e-06
-0.00170681
-3.57905e-06
-0.00162058
-0.00017936
4.74257e-05
7.61394e-06
-0.00201473
3.02198e-05
9.45856e-06
-0.00203094
1.01268e-05
1.08621e-05
-0.00204445
-1.34569e-05
1.18449e-05
-0.00205448
-4.13439e-05
1.23034e-05
-0.00205946
-7.44932e-05
1.20403e-05
-0.00205709
-0.000113755
1.07501e-05
-0.00204288
-0.000158319
7.97672e-06
-0.00200927
-0.000201603
2.88624e-06
-0.00194554
-5.26177e-06
-0.00183716
-0.000205173
4.90526e-05
6.21296e-06
-0.00225206
3.22393e-05
7.71814e-06
-0.00227126
1.25426e-05
8.93227e-06
-0.00228748
-1.07769e-05
9.84365e-06
-0.00230017
-3.8756e-05
1.03708e-05
-0.00230766
-7.2699e-05
1.03155e-05
-0.00230736
-0.000114221
9.40073e-06
-0.0022941
-0.000163897
7.16102e-06
-0.00225854
-0.000216977
2.71855e-06
-0.00218633
-5.80595e-06
-0.00205544
-0.000229335
4.83244e-05
3.679e-06
-0.00248596
3.24546e-05
4.53798e-06
-0.00250729
1.38148e-05
5.34104e-06
-0.00252545
-8.50714e-06
5.97025e-06
-0.0025401
-3.59015e-05
6.43354e-06
-0.00254984
-7.00708e-05
6.57444e-06
-0.00255209
-0.000113232
6.24906e-06
-0.00254116
-0.000167167
5.08098e-06
-0.0025058
-0.000229425
2.44664e-06
-0.00242676
-4.60354e-06
-0.00227255
-0.00025204
4.64403e-05
-0.00270646
3.16441e-05
-0.00272976
1.43385e-05
-0.00274995
-6.47751e-06
-0.00276638
-3.21722e-05
-0.0027775
-6.47252e-05
-0.00278068
-0.00010715
-0.00277069
-0.000162919
-0.00273603
-0.000231872
-0.00265343
-0.0024777
-0.000268163
2.5107e-06
4.39881e-06
-0.000573814
-7.61679e-06
4.66764e-06
-0.000574212
-1.7846e-05
4.80022e-06
-0.000573784
-2.77126e-05
4.80178e-06
-0.000572513
-3.66473e-05
4.66262e-06
-0.000570384
-4.39493e-05
4.36632e-06
-0.000567412
-4.8785e-05
3.89827e-06
-0.000563721
-5.01956e-05
3.24905e-06
-0.000559713
-4.69679e-05
2.42193e-06
-0.000556296
1.47902e-06
-0.000554123
-3.74377e-05
7.95983e-06
7.08109e-06
-0.000810889
-4.2714e-06
7.73996e-06
-0.000812159
-1.71535e-05
8.11208e-06
-0.000812112
-3.01881e-05
8.21214e-06
-0.000810625
-4.26891e-05
8.02458e-06
-0.000807534
-5.36775e-05
7.51217e-06
-0.000802678
-6.17922e-05
6.6393e-06
-0.000795949
-6.52553e-05
5.3945e-06
-0.000787421
-6.18762e-05
3.8271e-06
-0.000777509
2.13647e-06
-0.000767264
-4.9504e-05
1.53624e-05
8.31738e-06
-0.0010494
1.655e-06
9.3883e-06
-0.00105216
-1.32223e-05
1.00676e-05
-0.00105313
-2.88745e-05
1.03594e-05
-0.00105205
-4.47297e-05
1.02322e-05
-0.00104859
-5.98338e-05
9.61708e-06
-0.0010423
-7.25813e-05
8.43839e-06
-0.00103276
-8.04041e-05
6.63938e-06
-0.00101969
-7.9447e-05
4.23311e-06
-0.00100329
1.48772e-06
-0.000985084
-6.47381e-05
2.35316e-05
8.75995e-06
-0.00128688
8.6267e-06
1.0206e-05
-0.00129187
-8.00448e-06
1.11867e-05
-0.00129469
-2.61672e-05
1.17049e-05
-0.00129489
-4.54321e-05
1.16893e-05
-0.00129189
-6.4959e-05
1.10313e-05
-0.00128486
-8.30302e-05
9.59838e-06
-0.00127278
-9.6423e-05
7.26169e-06
-0.00125467
-9.96526e-05
3.9545e-06
-0.0012301
2.04276e-08
-0.00120087
-8.41531e-05
3.1189e-05
8.79489e-06
-0.00152538
1.53184e-05
1.05129e-05
-0.00153307
-2.73939e-06
1.17218e-05
-0.00153831
-2.29943e-05
1.24285e-05
-0.00154047
-4.52112e-05
1.25234e-05
-0.00153864
-6.87867e-05
1.18555e-05
-0.00153156
-9.20952e-05
1.02221e-05
-0.00151745
-0.000111522
7.39676e-06
-0.00149424
-0.000120165
3.17379e-06
-0.0014603
-2.07857e-06
-0.00141727
-0.000105193
3.74517e-05
8.43821e-06
-0.00176271
2.09416e-05
1.02975e-05
-0.00177346
1.88358e-06
1.16376e-05
-0.00178145
-1.99108e-05
1.24739e-05
-0.00178598
-4.44608e-05
1.2674e-05
-0.00178576
-7.14759e-05
1.2053e-05
-0.00177914
-9.96102e-05
1.03402e-05
-0.00176343
-0.000125169
7.2034e-06
-0.00173513
-0.000140204
2.25218e-06
-0.00169085
-4.19177e-06
-0.0016314
-0.000127272
4.19589e-05
7.71698e-06
-0.00199959
2.51528e-05
9.5121e-06
-0.00201335
5.60401e-06
1.08441e-05
-0.0020241
-1.70524e-05
1.17259e-05
-0.00203108
-4.3137e-05
1.20267e-05
-0.00203273
-7.27202e-05
1.15336e-05
-0.00202699
-0.000104921
9.92398e-06
-0.00201026
-0.00013632
6.76671e-06
-0.00197743
-0.00015844
1.45759e-06
-0.00192262
-5.99488e-06
-0.00184489
-0.000148904
4.40469e-05
6.26604e-06
-0.00223635
2.74763e-05
7.74825e-06
-0.00225293
8.10932e-06
8.90832e-06
-0.00226618
-1.45988e-05
9.73715e-06
-0.00227547
-4.12587e-05
1.01297e-05
-0.0022791
-7.23323e-05
9.87647e-06
-0.00227463
-0.000107558
8.66672e-06
-0.00225762
-0.00014418
6.0088e-06
-0.00222116
-0.000173957
1.19296e-06
-0.00215629
-6.67263e-06
-0.00205913
-0.000169586
4.3897e-05
3.73592e-06
-0.00246974
2.81339e-05
4.58917e-06
-0.00248837
9.67822e-06
5.36462e-06
-0.00250345
-1.21729e-05
5.93996e-06
-0.00251445
-3.84148e-05
6.30867e-06
-0.00251978
-7.00219e-05
6.30796e-06
-0.00251691
-0.000107474
5.76298e-06
-0.0025008
-0.000148844
4.25116e-06
-0.00246267
-0.000186529
1.20598e-06
-0.00238908
-5.30076e-06
-0.0022713
-0.000189158
4.24712e-05
-0.0026899
2.76709e-05
-0.00271037
1.04288e-05
-0.00272735
-1.00712e-05
-0.00273994
-3.48391e-05
-0.00274643
-6.51142e-05
-0.0027441
-0.000102159
-0.00272788
-0.00014572
-0.00268822
-0.000189447
-0.0026085
-0.00247076
-0.000201693
1.81937e-06
3.77704e-06
-0.000571064
-5.02088e-06
3.98615e-06
-0.000571358
-1.18094e-05
4.06783e-06
-0.000571064
-1.81599e-05
4.02888e-06
-0.000570191
-2.36501e-05
3.86794e-06
-0.000568762
-2.78245e-05
3.58177e-06
-0.000566819
-3.02262e-05
3.17296e-06
-0.000564492
-3.04445e-05
2.64805e-06
-0.000562142
-2.80757e-05
2.01585e-06
-0.00056068
1.30672e-06
-0.00056116
-2.23451e-05
5.61951e-06
6.30777e-06
-0.000804959
-3.58646e-06
6.85294e-06
-0.00080582
-1.30975e-05
7.12302e-06
-0.000805656
-2.24174e-05
7.13573e-06
-0.000804412
-3.09347e-05
6.88632e-06
-0.000802035
-3.78843e-05
6.35949e-06
-0.000798506
-4.23418e-05
5.54986e-06
-0.000793869
-4.3299e-05
4.4791e-06
-0.000788295
-3.98553e-05
3.2221e-06
-0.000782159
1.95257e-06
-0.000776139
-3.16258e-05
1.16822e-05
7.71829e-06
-0.00104063
3.67167e-07
8.63434e-06
-0.00104262
-1.17065e-05
9.16715e-06
-0.0010431
-2.40317e-05
9.32033e-06
-0.00104191
-3.59363e-05
9.07193e-06
-0.00103887
-4.64669e-05
8.37587e-06
-0.00103379
-5.43042e-05
7.19704e-06
-0.00102657
-5.77348e-05
5.53876e-06
-0.00101732
-5.47663e-05
3.48312e-06
-0.00100652
1.29962e-06
-0.000995402
-4.3796e-05
1.87688e-05
8.36142e-06
-0.00127609
5.76018e-06
9.6452e-06
-0.00127987
-8.54927e-06
1.04627e-05
-0.00128167
-2.37504e-05
1.08094e-05
-0.00128118
-3.91896e-05
1.06245e-05
-0.001278
-5.38211e-05
9.8211e-06
-0.00127167
-6.59786e-05
8.31557e-06
-0.00126175
-7.31648e-05
6.06433e-06
-0.00124801
-7.20236e-05
3.1208e-06
-0.00123088
-1.23365e-07
-0.0012123
-5.9176e-05
2.58187e-05
8.56681e-06
-0.00151311
1.14172e-05
1.01349e-05
-0.00151916
-4.76945e-06
1.11854e-05
-0.00152285
-2.24921e-05
1.17132e-05
-0.00152366
-4.11989e-05
1.16131e-05
-0.00152092
-5.98854e-05
1.07509e-05
-0.0015138
-7.66831e-05
8.97532e-06
-0.00150131
-8.83861e-05
6.16255e-06
-0.00148263
-9.01339e-05
2.28135e-06
-0.00145772
-2.18105e-06
-0.00142924
-7.61039e-05
3.18695e-05
8.32528e-06
-0.00174927
1.64808e-05
1.00619e-05
-0.001758
-1.10616e-06
1.12638e-05
-0.00176395
-2.08176e-05
1.19342e-05
-0.00176649
-4.2271e-05
1.19349e-05
-0.00176463
-6.46297e-05
1.10914e-05
-0.00175712
-8.59986e-05
9.17742e-06
-0.00174226
-0.000102646
5.96849e-06
-0.00171829
-0.000108267
1.29748e-06
-0.00168425
-4.29326e-06
-0.00164342
-9.41331e-05
3.64809e-05
7.65576e-06
-0.00198525
2.05268e-05
9.36261e-06
-0.00199669
2.10816e-06
1.05846e-05
-0.00200501
-1.88828e-05
1.1326e-05
-0.00200948
-4.2322e-05
1.14423e-05
-0.0020088
-6.76413e-05
1.07258e-05
-0.0020013
-9.31214e-05
8.88197e-06
-0.00198449
-0.00011477
5.57076e-06
-0.00195538
-0.000125047
4.35137e-07
-0.00191148
-6.1282e-06
-0.00185629
-0.000111814
3.88787e-05
6.19922e-06
-0.00222123
2.29525e-05
7.6306e-06
-0.00223527
4.44942e-06
8.70778e-06
-0.0022458
-1.69383e-05
9.42144e-06
-0.00225218
-4.13782e-05
9.64897e-06
-0.00225287
-6.86491e-05
9.18451e-06
-0.00224582
-9.74202e-05
7.72592e-06
-0.00222769
-0.000123789
4.83819e-06
-0.00219405
-0.000139483
4.80269e-08
-0.00214021
-6.89251e-06
-0.00206918
-0.000128672
3.92352e-05
3.71564e-06
-0.00245399
2.39308e-05
4.548e-06
-0.00246998
6.11617e-06
5.27968e-06
-0.0024822
-1.46601e-05
5.78347e-06
-0.00249004
-3.893e-05
6.03795e-06
-0.0024919
-6.6972e-05
5.8802e-06
-0.00248556
-9.81233e-05
5.12888e-06
-0.00246706
-0.000128936
3.38555e-06
-0.00243041
-0.000150675
2.46341e-07
-0.00236754
-5.43214e-06
-0.00227945
-0.000143984
3.82193e-05
-0.00267367
2.37472e-05
-0.00269135
6.98302e-06
-0.0027053
-1.26661e-05
-0.00271451
-3.57962e-05
-0.00271726
-6.29445e-05
-0.00271107
-9.40467e-05
-0.00269165
-0.000126866
-0.00265202
-0.0001532
-0.00258192
-0.002477
-0.000152391
1.44314e-06
3.15162e-06
-0.00056996
-3.01651e-06
3.31354e-06
-0.000570212
-7.40073e-06
3.36545e-06
-0.000570045
-1.14271e-05
3.3147e-06
-0.00056948
-1.48116e-05
3.16539e-06
-0.000568543
-1.72779e-05
2.92154e-06
-0.000567274
-1.85877e-05
2.5935e-06
-0.000565776
-1.85789e-05
2.19207e-06
-0.000564343
-1.71387e-05
1.72035e-06
-0.000563841
1.17387e-06
-0.000565671
-1.38012e-05
3.99769e-06
5.45135e-06
-0.000801141
-2.64416e-06
5.89368e-06
-0.000801759
-9.40661e-06
6.08646e-06
-0.000801614
-1.58644e-05
6.04967e-06
-0.000800689
-2.1542e-05
5.78777e-06
-0.00079898
-2.59094e-05
5.3013e-06
-0.000796518
-2.84034e-05
4.60358e-06
-0.000793385
-2.85016e-05
3.73057e-06
-0.000789735
-2.58746e-05
2.75643e-06
-0.000785822
1.81232e-06
-0.000782022
-2.0631e-05
8.82985e-06
6.9471e-06
-0.00103405
-1.16183e-07
7.70919e-06
-0.00103549
-9.52309e-06
8.11247e-06
-0.00103572
-1.88898e-05
8.16379e-06
-0.00103466
-2.75974e-05
7.85265e-06
-0.00103222
-3.48624e-05
7.15583e-06
-0.00102838
-3.97387e-05
6.06891e-06
-0.00102316
-4.11882e-05
4.62875e-06
-0.00101676
-3.8266e-05
2.9399e-06
-0.00100963
1.22709e-06
-0.00100252
-3.05667e-05
1.47641e-05
7.75183e-06
-0.00126729
3.85761e-06
8.8614e-06
-0.00127011
-7.9788e-06
9.51937e-06
-0.00127124
-2.02451e-05
9.72051e-06
-0.00127047
-3.22399e-05
9.42002e-06
-0.00126757
-4.29733e-05
8.55933e-06
-0.00126234
-5.10954e-05
7.09975e-06
-0.00125465
-5.49044e-05
5.05756e-06
-0.00124463
-5.25539e-05
2.54765e-06
-0.00123283
-7.58434e-08
-0.00122068
-4.28631e-05
2.10215e-05
8.11947e-06
-0.00150254
8.41771e-06
9.51297e-06
-0.00150721
-5.57036e-06
1.0395e-05
-0.00150974
-2.05268e-05
1.07522e-05
-0.00150973
-3.57562e-05
1.04965e-05
-0.00150677
-5.01632e-05
9.52255e-06
-0.00150036
-6.20544e-05
7.73494e-06
-0.00149006
-6.90056e-05
5.09573e-06
-0.00147572
-6.79917e-05
1.68591e-06
-0.00145787
-2.01986e-06
-0.00143874
-5.65522e-05
2.6644e-05
8.00709e-06
-0.00173725
1.27578e-05
9.58853e-06
-0.00174419
-2.92902e-06
1.06307e-05
-0.00174849
-2.0135e-05
1.11265e-05
-0.00174966
-3.82441e-05
1.0949e-05
-0.00174698
-5.61741e-05
9.94952e-06
-0.00173961
-7.20093e-05
7.96278e-06
-0.00172665
-8.26622e-05
4.86958e-06
-0.00170741
-8.37984e-05
6.71134e-07
-0.0016821
-4.05257e-06
-0.00165389
-7.12897e-05
3.11603e-05
7.4243e-06
-0.00197208
1.64492e-05
9.00927e-06
-0.0019814
-3.65461e-07
1.00944e-05
-0.00198766
-1.9163e-05
1.06749e-05
-0.00199023
-3.95023e-05
1.06094e-05
-0.00198812
-6.04465e-05
9.713e-06
-0.00198012
-8.00287e-05
7.74777e-06
-0.00196469
-9.46444e-05
4.48416e-06
-0.00194038
-9.86182e-05
-2.24332e-07
-0.00190661
-5.82968e-06
-0.00186747
-8.56574e-05
3.37077e-05
6.00333e-06
-0.00220704
1.87978e-05
7.35714e-06
-0.00221871
1.62327e-06
8.32914e-06
-0.00222686
-1.78837e-05
8.90854e-06
-0.00223091
-3.9524e-05
8.96632e-06
-0.00222958
-6.26153e-05
8.31549e-06
-0.00222133
-8.53545e-05
6.6959e-06
-0.0022039
-0.000103881
3.76992e-06
-0.00217481
-0.000111429
-7.08842e-07
-0.00213218
-6.62738e-06
-0.00208064
-9.91668e-05
3.44671e-05
3.61263e-06
-0.00243904
1.99638e-05
4.40707e-06
-0.00245253
3.21153e-06
5.08004e-06
-0.0024622
-1.59834e-05
5.49978e-06
-0.00246743
-3.77269e-05
5.63478e-06
-0.00246682
-6.17367e-05
5.33057e-06
-0.00245857
-8.66919e-05
4.42346e-06
-0.00243983
-0.000108902
2.58363e-06
-0.00240701
-0.000120698
-4.11611e-07
-0.00235604
-5.17328e-06
-0.0022911
-0.000110505
3.37992e-05
-0.00265813
1.99828e-05
-0.00267313
4.09249e-06
-0.00268433
-1.42277e-05
-0.00269069
-3.51827e-05
-0.00269067
-5.87367e-05
-0.00268218
-8.39753e-05
-0.00266198
-0.000107904
-0.00262551
-0.000122891
-0.00256734
-0.00248906
-0.000116003
1.18643e-06
2.57451e-06
-0.000569838
-1.65494e-06
2.70048e-06
-0.000570071
-4.44333e-06
2.737e-06
-0.000569994
-6.98544e-06
2.69096e-06
-0.000569628
-9.09883e-06
2.56916e-06
-0.000568999
-1.06191e-05
2.37855e-06
-0.000568133
-1.14223e-05
2.13148e-06
-0.000567104
-1.14487e-05
1.83744e-06
-0.000566154
-1.06818e-05
1.49126e-06
-0.000566099
1.05817e-06
-0.00056862
-8.79183e-06
2.8528e-06
4.59163e-06
-0.0007989
-1.77606e-06
4.94568e-06
-0.000799375
-6.44573e-06
5.08416e-06
-0.000799292
-1.08238e-05
5.02752e-06
-0.000798647
-1.45648e-05
4.78625e-06
-0.000797456
-1.73183e-05
4.36982e-06
-0.000795756
-1.87524e-05
3.79969e-06
-0.000793619
-1.86071e-05
3.11376e-06
-0.000791157
-1.6788e-05
2.37547e-06
-0.000788525
1.6789e-06
-0.000785917
-1.35138e-05
6.63443e-06
6.08481e-06
-0.00102937
-1.86828e-07
6.70356e-06
-0.00103043
-7.27154e-06
7.00049e-06
-0.00103055
-1.41834e-05
6.98612e-06
-0.00102971
-2.0419e-05
6.66019e-06
-0.00102786
-2.53984e-05
6.01746e-06
-0.00102504
-2.84922e-05
5.07255e-06
-0.00102134
-2.90982e-05
3.87532e-06
-0.00101692
-2.67788e-05
2.52583e-06
-0.0010121
1.1964e-06
-0.00100732
-2.14938e-05
1.14583e-05
6.99307e-06
-0.00126042
2.64009e-06
7.92887e-06
-0.00126252
-6.81319e-06
8.44234e-06
-0.00126323
-1.63996e-05
8.53162e-06
-0.00126243
-2.54776e-05
8.16947e-06
-0.00126
-3.323e-05
7.32473e-06
-0.0012559
-3.86656e-05
5.9931e-06
-0.00125014
-4.06984e-05
4.22451e-06
-0.00124294
-3.83592e-05
2.15134e-06
-0.0012348
6.34892e-08
-0.0012266
-3.13066e-05
1.68353e-05
7.49311e-06
-0.00149376
6.17155e-06
8.70012e-06
-0.00149732
-5.51557e-06
9.41682e-06
-0.00149902
-1.77356e-05
9.62752e-06
-0.00149861
-2.97804e-05
9.26617e-06
-0.00149582
-4.06493e-05
8.26118e-06
-0.00149042
-4.89827e-05
6.567e-06
-0.0014823
-5.30926e-05
4.20451e-06
-0.00147159
-5.12072e-05
1.3087e-06
-0.00145891
-1.71237e-06
-0.00144582
-4.23499e-05
2.18789e-05
7.50546e-06
-0.00172683
9.73701e-06
8.90972e-06
-0.00173226
-3.81455e-06
9.78474e-06
-0.00173531
-1.83572e-05
1.01164e-05
-0.00173561
-3.31823e-05
9.79993e-06
-0.00173269
-4.71923e-05
8.72251e-06
-0.00172607
-5.87184e-05
6.7808e-06
-0.00171534
-6.54464e-05
3.9396e-06
-0.00170042
-6.46171e-05
3.02676e-07
-0.00168192
-3.60153e-06
-0.00166226
-5.43598e-05
2.61339e-05
7.03076e-06
-0.00196033
1.29569e-05
8.46749e-06
-0.00196778
-1.93286e-06
9.4013e-06
-0.00197238
-1.82376e-05
9.81942e-06
-0.00197363
-3.53425e-05
9.59741e-06
-0.00197081
-5.2173e-05
8.5854e-06
-0.00196315
-6.68717e-05
6.61413e-06
-0.00194983
-7.65503e-05
3.55736e-06
-0.00193032
-7.73051e-05
-5.8399e-07
-0.00190497
-5.24939e-06
-0.00187717
-6.59623e-05
2.86806e-05
5.6779e-06
-0.00219407
1.50928e-05
6.93034e-06
-0.00220358
-3.99096e-07
7.78276e-06
-0.00220975
-1.76538e-05
8.22324e-06
-0.00221206
-3.6219e-05
8.12804e-06
-0.00220955
-5.51686e-05
7.34058e-06
-0.00220114
-7.26398e-05
5.66284e-06
-0.00218548
-8.53376e-05
2.86506e-06
-0.00216142
-8.8303e-05
-1.12189e-06
-0.00212868
-6.02744e-06
-0.00209146
-7.67114e-05
2.97278e-05
3.42624e-06
-0.00242521
1.63298e-05
4.16586e-06
-0.00243637
9.92176e-07
4.76818e-06
-0.00244385
-1.62466e-05
5.09845e-06
-0.00244707
-3.51648e-05
5.12187e-06
-0.0024449
-5.5105e-05
4.70083e-06
-0.00243599
-7.44728e-05