/*--------------------------------*- C++ -*----------------------------------*\
| =========                 |                                                 |
| \\      /  F ield         | foam-extend: Open Source CFD                    |
|  \\    /   O peration     | Version:     4.0                                |
|   \\  /    A nd           | Web:         http://www.foam-extend.org         |
|    \\/     M anipulation  |                                                 |
\*---------------------------------------------------------------------------*/
FoamFile
{
    version     2.0;
    format      ascii;
    class       volScalarField;
    location    "2400";
    object      rho;
}
// * * * * * * * * * * * * * * * * * * * * * * * * * * * * * * * * * * * * * //

dimensions      [1 -3 0 0 0 0 0];

internalField   nonuniform List<scalar> 
34480
(
1.34786
1.34642
1.34585
1.34659
1.34921
1.35435
1.36268
1.37233
1.37578
1.39537
1.34205
1.33924
1.337
1.33566
1.3359
1.33868
1.34529
1.35549
1.35977
1.37519
1.33771
1.33365
1.33003
1.32696
1.32496
1.32516
1.3293
1.33815
1.34107
1.34927
1.33463
1.32934
1.32446
1.3199
1.31596
1.31374
1.31528
1.32212
1.32291
1.32307
1.3326
1.32629
1.32048
1.3148
1.30941
1.30523
1.30446
1.30912
1.30754
1.29997
1.33188
1.32488
1.31842
1.31198
1.30557
1.29991
1.29729
1.29991
1.29598
1.28209
1.33
1.32252
1.31573
1.30888
1.30194
1.2954
1.29147
1.29225
1.28606
1.26666
1.33013
1.32256
1.3157
1.30884
1.30189
1.2951
1.29046
1.28972
1.28118
1.25594
1.32705
1.3195
1.31274
1.30628
1.3001
1.29414
1.28965
1.28775
1.27676
1.24569
1.32444
1.31669
1.3097
1.30321
1.29744
1.2925
1.28915
1.28779
1.27586
1.23887
1.36383
1.36277
1.36258
1.36357
1.36608
1.37055
1.37768
1.38845
1.40391
1.42529
1.35592
1.35375
1.35234
1.35191
1.353
1.35634
1.36302
1.3745
1.39278
1.42303
1.35012
1.34679
1.34414
1.34228
1.34165
1.34315
1.3483
1.3592
1.37828
1.41425
1.34611
1.34151
1.33758
1.3343
1.33196
1.33146
1.33454
1.344
1.36279
1.40272
1.34366
1.33794
1.33292
1.32844
1.32466
1.32235
1.32334
1.3309
1.34864
1.39079
1.34275
1.33618
1.33031
1.32489
1.31996
1.31613
1.31522
1.32069
1.33674
1.37916
1.3409
1.33367
1.32721
1.32114
1.31542
1.31049
1.30803
1.31145
1.32539
1.36657
1.34109
1.33353
1.32672
1.32032
1.3142
1.30862
1.30504
1.30652
1.31788
1.35664
1.33837
1.3306
1.32355
1.31704
1.31102
1.30556
1.30163
1.30161
1.31009
1.34727
1.33555
1.32768
1.32042
1.31372
1.30765
1.30246
1.29891
1.29883
1.30546
1.34377
1.37519
1.37479
1.37526
1.37684
1.37969
1.384
1.38998
1.39779
1.40757
1.41882
1.36652
1.36529
1.36494
1.36574
1.368
1.37212
1.37867
1.38821
1.40137
1.41881
1.35942
1.35724
1.35592
1.35565
1.35688
1.36017
1.36641
1.37676
1.39248
1.41562
1.35418
1.35088
1.34846
1.34703
1.347
1.34911
1.35445
1.36477
1.38217
1.4105
1.35075
1.34639
1.34296
1.34048
1.33928
1.34015
1.34436
1.35411
1.37248
1.40517
1.34899
1.34378
1.33952
1.33616
1.33395
1.33368
1.33671
1.34557
1.36436
1.40047
1.34656
1.34065
1.33575
1.33172
1.32874
1.32755
1.32952
1.33732
1.35601
1.39452
1.34636
1.34003
1.33468
1.3302
1.32671
1.32482
1.32588
1.33251
1.35043
1.39018
1.3439
1.33724
1.3315
1.32665
1.32287
1.32071
1.32132
1.32703
1.34351
1.38463
1.34105
1.33428
1.32828
1.32316
1.31909
1.31669
1.31716
1.32274
1.33783
1.38114
1.38196
1.3818
1.38229
1.38357
1.38567
1.38863
1.39249
1.39723
1.4027
1.40805
1.37424
1.3735
1.37356
1.37458
1.37672
1.38017
1.38509
1.39163
1.39971
1.40841
1.36709
1.3656
1.36494
1.36529
1.36695
1.37028
1.37574
1.38381
1.39479
1.40763
1.36144
1.35901
1.35746
1.35697
1.35787
1.36069
1.36615
1.37516
1.38866
1.40589
1.35754
1.35415
1.35176
1.3504
1.35046
1.35259
1.3577
1.36717
1.38275
1.40425
1.35531
1.35111
1.34794
1.34582
1.34508
1.34646
1.35106
1.36061
1.37783
1.40324
1.35253
1.34763
1.34384
1.34108
1.33968
1.34038
1.3444
1.35377
1.37219
1.40103
1.35206
1.3467
1.34241
1.33918
1.33727
1.33739
1.34083
1.34975
1.36873
1.40039
1.34957
1.34387
1.33918
1.33556
1.33328
1.33306
1.33615
1.34466
1.36347
1.39795
1.3466
1.34077
1.33585
1.33199
1.32943
1.32894
1.33173
1.34001
1.35824
1.39575
1.38567
1.38561
1.386
1.38687
1.38825
1.3901
1.39239
1.39508
1.39815
1.40126
1.37959
1.37916
1.37935
1.38028
1.38199
1.38451
1.38785
1.39191
1.39652
1.40108
1.37307
1.37207
1.3718
1.37238
1.374
1.37679
1.38094
1.38651
1.3934
1.40063
1.3675
1.36575
1.36482
1.36487
1.36613
1.36892
1.37358
1.38043
1.38964
1.4
1.36348
1.36091
1.35928
1.3587
1.35946
1.36201
1.36689
1.37472
1.38614
1.39982
1.361
1.35768
1.35539
1.35419
1.35441
1.3566
1.36149
1.37003
1.38348
1.40052
1.35803
1.35404
1.35118
1.34942
1.34913
1.35092
1.3557
1.36471
1.37994
1.40025
1.35738
1.35293
1.34958
1.34738
1.34665
1.34805
1.3526
1.36179
1.37833
1.40166
1.3549
1.3501
1.34638
1.34381
1.34274
1.34385
1.34825
1.35751
1.37472
1.40109
1.35188
1.34695
1.34301
1.34022
1.3389
1.33978
1.34393
1.3531
1.37033
1.39972
1.38732
1.3873
1.38754
1.38807
1.38888
1.38994
1.39122
1.3927
1.39448
1.39651
1.38301
1.38276
1.38295
1.38364
1.38484
1.38653
1.38865
1.39109
1.39369
1.39611
1.37751
1.37685
1.37677
1.37735
1.37867
1.38078
1.38369
1.38733
1.3915
1.39558
1.3724
1.37116
1.37062
1.37091
1.37217
1.37455
1.37816
1.38303
1.38902
1.39525
1.36856
1.36663
1.36555
1.36543
1.36646
1.36891
1.37304
1.37903
1.38694
1.39559
1.36604
1.36347
1.36184
1.36126
1.36198
1.36438
1.36886
1.37582
1.38564
1.39692
1.36303
1.35984
1.35772
1.3567
1.35708
1.35933
1.36402
1.37178
1.38345
1.39744
1.3623
1.35868
1.35612
1.35471
1.35477
1.35683
1.36159
1.36991
1.38312
1.39976
1.35985
1.35588
1.353
1.35127
1.35105
1.35293
1.35773
1.36647
1.38078
1.40008
1.35686
1.35275
1.34966
1.34775
1.34732
1.34903
1.3537
1.36254
1.37726
1.39904
1.38776
1.38775
1.38789
1.38819
1.38864
1.38922
1.38991
1.39073
1.39182
1.39336
1.38502
1.38487
1.38501
1.38547
1.38624
1.38731
1.3886
1.39005
1.39153
1.39286
1.38067
1.38023
1.38022
1.3807
1.38169
1.38319
1.38515
1.38747
1.38998
1.39234
1.37621
1.37534
1.37504
1.37539
1.37647
1.37834
1.38099
1.38434
1.38818
1.39199
1.37275
1.37133
1.37063
1.37074
1.37179
1.3739
1.37716
1.38155
1.3869
1.39241
1.37038
1.36842
1.36729
1.36709
1.36801
1.37026
1.37403
1.37941
1.38636
1.39383
1.36744
1.36495
1.36341
1.36289
1.36362
1.36592
1.37009
1.37637
1.38494
1.39453
1.36675
1.36385
1.36194
1.36111
1.36164
1.36391
1.36835
1.37536
1.38541
1.39713
1.36434
1.36112
1.35894
1.35785
1.35818
1.36038
1.365
1.37261
1.38386
1.39773
1.36145
1.35809
1.35572
1.35448
1.35466
1.35676
1.36137
1.36921
1.38104
1.39677
1.38758
1.38757
1.38764
1.3878
1.38804
1.38834
1.38871
1.38917
1.38989
1.3912
1.38606
1.38597
1.38605
1.38634
1.38681
1.38745
1.38821
1.38904
1.38989
1.39063
1.38283
1.38253
1.38254
1.38289
1.38358
1.38459
1.38587
1.38733
1.38886
1.39026
1.37908
1.37848
1.3783
1.37862
1.37947
1.38085
1.38272
1.38498
1.38745
1.38981
1.37613
1.37509
1.37465
1.37484
1.37576
1.37745
1.37991
1.38303
1.38663
1.39018
1.37401
1.37254
1.37177
1.37179
1.3727
1.37463
1.37763
1.38165
1.38649
1.39145
1.37125
1.36933
1.36825
1.36804
1.36889
1.37099
1.37446
1.37934
1.3855
1.39204
1.37067
1.3684
1.367
1.36658
1.36733
1.36952
1.37336
1.37899
1.38641
1.39458
1.36833
1.36577
1.36416
1.36354
1.36417
1.36638
1.37048
1.37674
1.38527
1.39509
1.36559
1.3629
1.36112
1.36039
1.36092
1.36309
1.36727
1.37382
1.38293
1.39409
1.38712
1.38712
1.38715
1.38723
1.38735
1.38751
1.38771
1.38797
1.38849
1.38968
1.38648
1.38643
1.38647
1.38664
1.38691
1.38728
1.38772
1.38819
1.38867
1.38909
1.38422
1.38403
1.38404
1.38427
1.38472
1.38537
1.38618
1.38709
1.38803
1.38887
1.38117
1.38076
1.38065
1.38091
1.38152
1.38249
1.38377
1.38527
1.38686
1.38835
1.37876
1.37802
1.37774
1.37794
1.37868
1.37995
1.38173
1.38391
1.38632
1.38863
1.37697
1.37589
1.37538
1.37548
1.37629
1.37784
1.38012
1.38304
1.38638
1.3897
1.37445
1.37301
1.37225
1.37222
1.37305
1.37482
1.37757
1.38124
1.38561
1.39008
1.37404
1.37231
1.37131
1.37114
1.37194
1.37387
1.37702
1.38137
1.38675
1.39241
1.3718
1.36981
1.36864
1.36833
1.36909
1.3711
1.37453
1.37946
1.38575
1.39262
1.36926
1.36715
1.36585
1.36546
1.36616
1.36819
1.37174
1.37697
1.38377
1.39158
1.3866
1.3866
1.38662
1.38666
1.38672
1.38679
1.3869
1.38706
1.38747
1.38859
1.38654
1.3865
1.38653
1.38662
1.38677
1.38698
1.38723
1.3875
1.38777
1.388
1.38508
1.38495
1.38496
1.3851
1.38539
1.3858
1.3863
1.38685
1.38742
1.38792
1.38263
1.38235
1.38229
1.38247
1.3829
1.38355
1.3844
1.38537
1.38638
1.38732
1.38075
1.38024
1.38006
1.38023
1.38078
1.3817
1.38295
1.38443
1.38603
1.38754
1.37931
1.37854
1.3782
1.37833
1.37898
1.38016
1.38183
1.3839
1.38619
1.38841
1.37707
1.376
1.37549
1.37555
1.37627
1.37768
1.37977
1.38245
1.38551
1.38855
1.37688
1.37558
1.37489
1.37487
1.37561
1.37721
1.37967
1.38292
1.38676
1.39066
1.37473
1.37322
1.37239
1.37228
1.37303
1.37475
1.37749
1.38123
1.38576
1.39051
1.37245
1.37083
1.3699
1.36974
1.37047
1.37223
1.3751
1.37911
1.38405
1.38946
1.38612
1.38613
1.38614
1.38615
1.38618
1.38622
1.38628
1.38638
1.38671
1.3878
1.3864
1.38638
1.38639
1.38644
1.38652
1.38664
1.38678
1.38693
1.38708
1.38721
1.38558
1.3855
1.3855
1.38559
1.38576
1.38601
1.38631
1.38664
1.38698
1.38728
1.38361
1.38342
1.38338
1.38351
1.38379
1.38422
1.38476
1.38538
1.38602
1.38661
1.38222
1.38187
1.38175
1.38189
1.38228
1.38292
1.38377
1.38476
1.3858
1.38678
1.38111
1.38058
1.38035
1.38048
1.38098
1.38184
1.38302
1.38444
1.38599
1.38746
1.37915
1.37838
1.37803
1.37813
1.37871
1.37978
1.38132
1.38322
1.38532
1.38738
1.37921
1.37826
1.37779
1.37784
1.37848
1.37973
1.38159
1.38394
1.38662
1.38928
1.37716
1.37603
1.37546
1.37546
1.37613
1.37751
1.37962
1.38237
1.38556
1.3888
1.37516
1.37395
1.3733
1.37327
1.37394
1.37539
1.37762
1.3806
1.3841
1.3878
1.38574
1.38575
1.38575
1.38576
1.38577
1.38579
1.38582
1.38589
1.38617
1.38723
1.38617
1.38616
1.38616
1.38619
1.38624
1.3863
1.38638
1.38646
1.38655
1.38662
1.38586
1.3858
1.3858
1.38585
1.38595
1.3861
1.38628
1.38648
1.38668
1.38686
1.38423
1.38411
1.38409
1.38416
1.38435
1.38462
1.38496
1.38535
1.38575
1.38612
1.38328
1.38304
1.38297
1.38307
1.38334
1.38377
1.38433
1.38497
1.38565
1.38627
1.38247
1.3821
1.38195
1.38206
1.38242
1.38302
1.38384
1.3848
1.38582
1.38679
1.38076
1.38022
1.37999
1.38009
1.38053
1.38131
1.3824
1.38372
1.38514
1.38652
1.38108
1.38041
1.38009
1.38017
1.38068
1.38163
1.38297
1.38463
1.38647
1.38825
1.37911
1.37829
1.3779
1.37796
1.37851
1.37957
1.38113
1.38309
1.3853
1.38749
1.37744
1.37655
1.37611
1.37615
1.37672
1.37784
1.37951
1.38165
1.38409
1.38658
1.38547
1.38548
1.38548
1.38548
1.38549
1.3855
1.38551
1.38556
1.3858
1.38682
1.38591
1.3859
1.38591
1.38592
1.38595
1.38598
1.38603
1.38607
1.38613
1.38617
1.386
1.38596
1.38596
1.38599
1.38605
1.38613
1.38624
1.38636
1.38648
1.38658
1.38461
1.38453
1.38451
1.38456
1.38468
1.38485
1.38506
1.3853
1.38554
1.38577
1.38402
1.38387
1.38382
1.38388
1.38406
1.38435
1.38471
1.38512
1.38555
1.38595
1.38345
1.3832
1.38311
1.38319
1.38344
1.38386
1.3844
1.38504
1.3857
1.38632
1.38197
1.3816
1.38145
1.38154
1.38186
1.38241
1.38316
1.38405
1.38499
1.3859
1.38255
1.38209
1.38188
1.38196
1.38235
1.38303
1.38398
1.38512
1.38635
1.38752
1.38063
1.38004
1.37979
1.37986
1.38029
1.38108
1.38219
1.38356
1.38506
1.38651
1.37932
1.37869
1.37839
1.37846
1.37891
1.37975
1.38095
1.38245
1.3841
1.38576
1.38532
1.38532
1.38532
1.38532
1.38532
1.38533
1.38534
1.38536
1.38557
1.38655
1.38565
1.38565
1.38565
1.38566
1.38568
1.3857
1.38572
1.38575
1.38578
1.3858
1.38608
1.38605
1.38605
1.38607
1.3861
1.38615
1.38621
1.38628
1.38635
1.38641
1.38481
1.38476
1.38475
1.38478
1.38485
1.38495
1.38508
1.38523
1.38538
1.38552
1.38453
1.38443
1.3844
1.38444
1.38456
1.38474
1.38497
1.38523
1.3855
1.38574
1.38415
1.38398
1.38393
1.38398
1.38415
1.38443
1.38478
1.38519
1.38562
1.38601
1.38287
1.38262
1.38253
1.38259
1.38281
1.38319
1.38369
1.38428
1.38489
1.38548
1.3837
1.38338
1.38325
1.38332
1.3836
1.38408
1.38472
1.38548
1.3863
1.38705
1.38177
1.38137
1.3812
1.38127
1.38159
1.38215
1.38291
1.38384
1.38484
1.38579
1.38087
1.38043
1.38024
1.38031
1.38065
1.38125
1.38208
1.3831
1.3842
1.38528
1.38527
1.38528
1.38528
1.38528
1.38528
1.38528
1.38528
1.3853
1.38547
1.38639
1.38539
1.3854
1.3854
1.38541
1.38542
1.38543
1.38544
1.38546
1.38548
1.38549
1.38614
1.38612
1.38612
1.38613
1.38615
1.38617
1.38621
1.38625
1.38629
1.38632
1.38491
1.38488
1.38487
1.38489
1.38493
1.38499
1.38507
1.38515
1.38524
1.38533
1.38487
1.38481
1.38479
1.38481
1.38489
1.385
1.38514
1.3853
1.38547
1.38562
1.38461
1.38451
1.38447
1.38451
1.38462
1.3848
1.38503
1.38529
1.38556
1.3858
1.38352
1.38335
1.38329
1.38334
1.38349
1.38374
1.38406
1.38444
1.38483
1.38521
1.38457
1.38437
1.38429
1.38434
1.38453
1.38486
1.38528
1.38578
1.38631
1.38677
1.38259
1.38232
1.38221
1.38227
1.38249
1.38288
1.38339
1.38401
1.38465
1.38527
1.38215
1.38186
1.38174
1.3818
1.38204
1.38246
1.38302
1.38369
1.3844
1.3851
1.38538
1.38538
1.38538
1.38538
1.38538
1.38538
1.38538
1.38538
1.38552
1.38636
1.38514
1.38514
1.38515
1.38515
1.38516
1.38516
1.38517
1.38518
1.38519
1.3852
1.38619
1.38619
1.38618
1.38619
1.3862
1.38622
1.38624
1.38626
1.38629
1.3863
1.38493
1.38491
1.38491
1.38492
1.38494
1.38497
1.38502
1.38507
1.38512
1.38517
1.38507
1.38503
1.38502
1.38504
1.38509
1.38515
1.38524
1.38534
1.38544
1.38553
1.3849
1.38483
1.38481
1.38484
1.38491
1.38502
1.38516
1.38532
1.38549
1.38564
1.38397
1.38387
1.38383
1.38386
1.38396
1.38411
1.38432
1.38455
1.38479
1.38503
1.38522
1.38509
1.38504
1.38508
1.38521
1.38543
1.3857
1.38602
1.38635
1.38663
1.38313
1.38295
1.38289
1.38293
1.38308
1.38333
1.38367
1.38406
1.38447
1.38487
1.38328
1.38309
1.38301
1.38306
1.38323
1.3835
1.38387
1.38431
1.38475
1.38519
1.38574
1.38574
1.38574
1.38574
1.38573
1.38573
1.38572
1.38572
1.38582
1.38655
1.38485
1.38485
1.38486
1.38486
1.38486
1.38487
1.38487
1.38488
1.38489
1.38489
1.38625
1.38624
1.38624
1.38624
1.38625
1.38627
1.38628
1.3863
1.38631
1.38632
1.38492
1.3849
1.3849
1.3849
1.38491
1.38493
1.38495
1.38498
1.38501
1.38504
1.38516
1.38514
1.38514
1.38515
1.38517
1.38522
1.38527
1.38533
1.38539
1.38544
1.38503
1.38499
1.38497
1.38499
1.38503
1.3851
1.38519
1.38529
1.38539
1.38548
1.38427
1.3842
1.38418
1.3842
1.38426
1.38436
1.38448
1.38463
1.38477
1.38492
1.38564
1.38556
1.38553
1.38556
1.38565
1.38578
1.38596
1.38616
1.38637
1.38653
1.3834
1.38328
1.38324
1.38327
1.38337
1.38353
1.38375
1.384
1.38425
1.38451
1.3844
1.38428
1.38424
1.38427
1.38438
1.38456
1.38479
1.38507
1.38534
1.38561
1.38659
1.38659
1.38659
1.38658
1.38658
1.38657
1.38657
1.38656
1.38662
1.3872
1.38445
1.38445
1.38445
1.38445
1.38445
1.38445
1.38445
1.38445
1.38446
1.38445
1.38622
1.38622
1.38622
1.38623
1.38624
1.38625
1.38626
1.38628
1.38629
1.3863
1.38488
1.38487
1.38487
1.38487
1.38487
1.38488
1.38489
1.38491
1.38492
1.38493
1.38516
1.38515
1.38514
1.38515
1.38517
1.38519
1.38523
1.38526
1.3853
1.38534
1.38503
1.385
1.38499
1.385
1.38503
1.38507
1.38513
1.38519
1.38526
1.38531
1.38443
1.38439
1.38438
1.38439
1.38443
1.38449
1.38457
1.38465
1.38473
1.38482
1.38573
1.38568
1.38566
1.38568
1.38574
1.38583
1.38594
1.38608
1.38622
1.38632
1.38333
1.38326
1.38324
1.38326
1.38332
1.38342
1.38356
1.38371
1.38386
1.38404
1.38577
1.38569
1.38567
1.38569
1.38576
1.38588
1.38603
1.38621
1.38638
1.38655
1.38812
1.38812
1.38812
1.38813
1.38814
1.38815
1.38816
1.38818
1.38822
1.38862
1.38377
1.38377
1.38377
1.38376
1.38376
1.38375
1.38374
1.38373
1.38372
1.3837
1.386
1.386
1.386
1.38601
1.38602
1.38603
1.38605
1.38607
1.38609
1.38611
1.38488
1.38487
1.38486
1.38486
1.38486
1.38487
1.38487
1.38488
1.38488
1.38488
1.3851
1.38509
1.38509
1.38509
1.3851
1.38512
1.38514
1.38517
1.3852
1.38522
1.38495
1.38493
1.38493
1.38493
1.38495
1.38498
1.38502
1.38506
1.38511
1.38515
1.3845
1.38447
1.38446
1.38447
1.3845
1.38454
1.38459
1.38465
1.3847
1.38475
1.38535
1.38531
1.3853
1.38531
1.38536
1.38542
1.38551
1.38561
1.38572
1.38581
1.38282
1.38277
1.38275
1.38277
1.38281
1.38288
1.38297
1.38307
1.38316
1.38328
1.38762
1.38755
1.38753
1.38755
1.3876
1.38768
1.38779
1.38792
1.38805
1.38818
1.38978
1.38979
1.3898
1.38982
1.38985
1.38988
1.38993
1.38999
1.39006
1.39029
1.38297
1.38296
1.38295
1.38295
1.38293
1.38291
1.38289
1.38286
1.38281
1.38272
1.38563
1.38563
1.38564
1.38564
1.38565
1.38566
1.38568
1.3857
1.38572
1.38576
1.38493
1.38492
1.38492
1.38492
1.38492
1.38492
1.38493
1.38493
1.38493
1.38492
1.38505
1.38504
1.38504
1.38504
1.38505
1.38507
1.38509
1.38511
1.38513
1.38516
1.3849
1.38488
1.38488
1.38488
1.3849
1.38493
1.38496
1.385
1.38504
1.38507
1.38455
1.38453
1.38452
1.38453
1.38455
1.38459
1.38463
1.38468
1.38473
1.38477
1.38476
1.38472
1.38471
1.38472
1.38475
1.38481
1.38488
1.38497
1.38508
1.38519
1.38209
1.38205
1.38203
1.38204
1.38208
1.38215
1.38222
1.3823
1.38237
1.38239
1.38944
1.38936
1.38934
1.38935
1.38939
1.38947
1.38957
1.38968
1.38981
1.38997
1.53313
1.55011
1.54495
1.53347
1.54817
1.56807
1.56084
1.54966
1.55654
1.57739
1.57339
1.5609
1.56015
1.58181
1.58449
1.57003
1.56374
1.58635
1.595
1.57928
1.57295
1.59826
1.61451
1.60501
1.58277
1.6102
1.63205
1.62929
1.59241
1.62103
1.6465
1.64854
1.59018
1.61875
1.6463
1.65201
1.57464
1.60163
1.63034
1.64009
1.44106
1.45231
1.45557
1.45005
1.44997
1.4632
1.46806
1.46381
1.45408
1.46914
1.47504
1.47286
1.45762
1.47421
1.48154
1.48172
1.46231
1.47998
1.48936
1.49133
1.46717
1.48513
1.49547
1.4979
1.47076
1.48869
1.49966
1.5025
1.47581
1.49351
1.50489
1.50969
1.47559
1.49259
1.50446
1.51135
1.47186
1.4879
1.50067
1.50921
1.42565
1.4306
1.43174
1.43004
1.43271
1.43853
1.44049
1.43986
1.43593
1.44308
1.44612
1.44603
1.43858
1.44711
1.45151
1.45216
1.44227
1.45207
1.45777
1.45919
1.44774
1.45866
1.46553
1.46809
1.45272
1.46456
1.47243
1.47605
1.45902
1.47143
1.47994
1.48453
1.46126
1.47369
1.48249
1.48787
1.46146
1.47346
1.48181
1.48702
1.40881
1.41141
1.41225
1.41141
1.41406
1.41691
1.41834
1.41839
1.41633
1.41999
1.42211
1.42268
1.41834
1.42286
1.4258
1.42712
1.42129
1.42664
1.43034
1.43245
1.42558
1.43166
1.43605
1.43896
1.4293
1.43601
1.44101
1.44478
1.43472
1.44193
1.44748
1.45213
1.43655
1.444
1.44993
1.45529
1.43562
1.44331
1.44936
1.45467
1.39996
1.40151
1.40199
1.40141
1.40388
1.40537
1.40623
1.40646
1.40516
1.40721
1.40852
1.40911
1.4066
1.40923
1.41106
1.41217
1.40901
1.4122
1.41455
1.4162
1.41281
1.41656
1.41941
1.42162
1.41615
1.42043
1.42374
1.42654
1.42137
1.42609
1.42981
1.43321
1.42358
1.42855
1.43254
1.43638
1.42341
1.42858
1.43265
1.43623
1.3942
1.39526
1.39554
1.39502
1.39751
1.3983
1.39883
1.39907
1.39803
1.39921
1.40004
1.40053
1.39891
1.40049
1.40168
1.40255
1.4008
1.40277
1.40434
1.4056
1.40395
1.40633
1.40825
1.40993
1.40665
1.40939
1.41166
1.41377
1.4113
1.41439
1.41696
1.4195
1.41341
1.41671
1.41951
1.42231
1.41332
1.41684
1.41973
1.42229
1.39057
1.39141
1.39156
1.39104
1.3936
1.39404
1.39436
1.39454
1.39375
1.39445
1.39497
1.39532
1.39415
1.39512
1.3959
1.39651
1.39556
1.39682
1.39787
1.39876
1.39814
1.39969
1.401
1.40218
1.40024
1.40206
1.40362
1.40511
1.40433
1.40641
1.40819
1.40998
1.40612
1.40837
1.41032
1.41225
1.40592
1.40833
1.41035
1.41209
1.38819
1.38892
1.38901
1.38846
1.39102
1.39128
1.39147
1.39159
1.39109
1.39151
1.39184
1.39208
1.39113
1.39173
1.39224
1.39265
1.39215
1.39296
1.39365
1.39426
1.39417
1.39519
1.39608
1.3969
1.39568
1.39689
1.39797
1.399
1.39918
1.40058
1.40182
1.40306
1.40051
1.40205
1.40341
1.40473
1.40012
1.40176
1.40318
1.40437
1.3866
1.38728
1.38733
1.38675
1.38929
1.38943
1.38954
1.38962
1.38938
1.38964
1.38985
1.39
1.38917
1.38955
1.38988
1.39016
1.3899
1.39042
1.39089
1.3913
1.39147
1.39214
1.39274
1.3933
1.39246
1.39327
1.39401
1.39471
1.39543
1.39638
1.39723
1.39807
1.39622
1.39727
1.39821
1.39912
1.39564
1.39676
1.39774
1.39856
1.38552
1.38618
1.38621
1.3856
1.38809
1.38816
1.38823
1.38829
1.38824
1.3884
1.38853
1.38863
1.38784
1.38809
1.3883
1.38848
1.38836
1.38871
1.38902
1.38929
1.38957
1.39002
1.39043
1.3908
1.39014
1.39069
1.39119
1.39167
1.39266
1.3933
1.39389
1.39447
1.39293
1.39364
1.39429
1.39491
1.39222
1.39298
1.39366
1.39423
1.38479
1.38545
1.38547
1.38483
1.38723
1.38727
1.38731
1.38735
1.38748
1.38758
1.38766
1.38772
1.38694
1.38709
1.38723
1.38735
1.38732
1.38755
1.38775
1.38793
1.38823
1.38853
1.3888
1.38905
1.38844
1.38881
1.38915
1.38948
1.39062
1.39106
1.39146
1.39185
1.39044
1.39092
1.39137
1.39179
1.38969
1.39021
1.39067
1.39106
1.38431
1.38499
1.385
1.38434
1.38661
1.38662
1.38665
1.38668
1.38698
1.38704
1.38709
1.38713
1.38632
1.38642
1.3865
1.38658
1.38662
1.38677
1.3869
1.38702
1.38729
1.38749
1.38767
1.38784
1.38722
1.38747
1.3877
1.38791
1.38914
1.38944
1.38971
1.38997
1.38859
1.38892
1.38922
1.38951
1.38788
1.38822
1.38854
1.3888
1.38404
1.38472
1.38473
1.38405
1.38613
1.38613
1.38615
1.38617
1.38666
1.3867
1.38673
1.38675
1.38589
1.38595
1.38601
1.38606
1.38617
1.38626
1.38635
1.38642
1.38665
1.38678
1.3869
1.38701
1.38636
1.38652
1.38667
1.38682
1.38811
1.38831
1.38849
1.38866
1.38725
1.38747
1.38767
1.38786
1.38665
1.38688
1.38709
1.38727
1.38393
1.38461
1.38462
1.38394
1.38575
1.38575
1.38576
1.38578
1.38647
1.38649
1.38651
1.38652
1.38559
1.38562
1.38566
1.38569
1.38589
1.38595
1.386
1.38605
1.38623
1.38631
1.38638
1.38645
1.38578
1.38588
1.38598
1.38607
1.38744
1.38756
1.38768
1.38779
1.38628
1.38643
1.38656
1.38669
1.38589
1.38604
1.38618
1.38629
1.38398
1.38465
1.38465
1.38398
1.38543
1.38542
1.38543
1.38545
1.38637
1.38638
1.38639
1.3864
1.38536
1.38538
1.3854
1.38542
1.38571
1.38575
1.38578
1.38581
1.38594
1.38599
1.38604
1.38608
1.38539
1.38545
1.38552
1.38558
1.38702
1.3871
1.38718
1.38725
1.38559
1.38568
1.38577
1.38585
1.3855
1.3856
1.38569
1.38577
1.3842
1.38484
1.38484
1.3842
1.38513
1.38512
1.38513
1.38514
1.38634
1.38635
1.38636
1.38636
1.38518
1.38519
1.38521
1.38522
1.38559
1.38561
1.38563
1.38565
1.38573
1.38576
1.38579
1.38581
1.38514
1.38518
1.38521
1.38525
1.38679
1.38685
1.38689
1.38694
1.38508
1.38514
1.38519
1.38524
1.38545
1.38551
1.38557
1.38562
1.38469
1.38528
1.38529
1.38469
1.38481
1.3848
1.3848
1.38482
1.38636
1.38636
1.38637
1.38636
1.38504
1.38504
1.38505
1.38506
1.38548
1.3855
1.38551
1.38552
1.38554
1.38556
1.38558
1.3856
1.38497
1.38499
1.38501
1.38504
1.38664
1.38668
1.38671
1.38673
1.38464
1.38467
1.38471
1.38474
1.38578
1.38582
1.38585
1.38588
1.38573
1.38623
1.38623
1.38573
1.38437
1.38435
1.38435
1.38437
1.38634
1.38635
1.38635
1.38634
1.38492
1.38492
1.38493
1.38494
1.38537
1.38538
1.38538
1.38539
1.38535
1.38537
1.38538
1.38539
1.38483
1.38485
1.38486
1.38488
1.38642
1.38644
1.38646
1.38647
1.38412
1.38414
1.38416
1.38418
1.38665
1.38667
1.38669
1.38672
1.38768
1.38803
1.38803
1.38768
1.3836
1.38358
1.38358
1.3836
1.38616
1.38617
1.38617
1.38616
1.38486
1.38486
1.38486
1.38487
1.38524
1.38525
1.38526
1.38526
1.38518
1.38519
1.3852
1.3852
1.38475
1.38475
1.38476
1.38478
1.38594
1.38597
1.38598
1.38598
1.38328
1.38329
1.3833
1.38332
1.38825
1.38827
1.38828
1.3883
1.39014
1.39028
1.39028
1.39014
1.38257
1.38251
1.38251
1.38257
1.3858
1.38582
1.38582
1.3858
1.3849
1.3849
1.3849
1.38491
1.38517
1.38518
1.38518
1.38518
1.3851
1.3851
1.38511
1.38512
1.38476
1.38476
1.38477
1.38478
1.38536
1.38539
1.3854
1.38539
1.38219
1.38216
1.38217
1.38223
1.39006
1.39008
1.3901
1.3901
1.45334
1.42588
1.40614
1.38914
1.37721
1.36877
1.3624
1.35735
1.35337
1.35021
1.46695
1.43148
1.40651
1.38924
1.37703
1.36797
1.36081
1.35495
1.35008
1.34574
1.47382
1.43516
1.40701
1.38999
1.3773
1.36758
1.35963
1.35297
1.34726
1.34222
1.48151
1.4407
1.41038
1.39315
1.37942
1.3688
1.35992
1.35233
1.34567
1.33995
1.49094
1.44675
1.41512
1.39649
1.38168
1.37009
1.36035
1.35198
1.3445
1.33843
1.50123
1.45415
1.42107
1.40074
1.38492
1.37238
1.3619
1.35287
1.34476
1.33821
1.5109
1.459
1.42516
1.40282
1.38618
1.37272
1.36159
1.352
1.34337
1.33662
1.52259
1.46385
1.43064
1.40613
1.38904
1.3748
1.36323
1.35318
1.34426
1.33707
1.52875
1.46289
1.4313
1.4051
1.38802
1.37323
1.36135
1.35095
1.34191
1.33435
1.53399
1.4619
1.43212
1.40424
1.38681
1.37129
1.35891
1.34805
1.3388
1.33098
1.44027
1.42367
1.41072
1.4002
1.39141
1.38405
1.37794
1.37296
1.36899
1.36593
1.4494
1.42925
1.4133
1.40025
1.38961
1.38099
1.37393
1.36809
1.36332
1.3592
1.45636
1.43386
1.41472
1.40029
1.38855
1.37908
1.37126
1.3647
1.35916
1.35428
1.46315
1.43932
1.41812
1.40257
1.38986
1.37955
1.37086
1.36339
1.35688
1.35119
1.46949
1.44598
1.42267
1.40586
1.39214
1.38092
1.37136
1.36307
1.35565
1.34941
1.47826
1.45393
1.42883
1.41056
1.39579
1.38362
1.37325
1.36421
1.35604
1.34917
1.4874
1.46015
1.43371
1.41365
1.3979
1.38475
1.3736
1.3639
1.35505
1.3478
1.49936
1.46676
1.44009
1.4181
1.40163
1.38763
1.37587
1.36558
1.35628
1.34847
1.5074
1.46803
1.44204
1.41857
1.40177
1.38708
1.37482
1.36403
1.35444
1.34618
1.51458
1.46781
1.44286
1.418
1.40065
1.38531
1.37261
1.36143
1.35169
1.34323
1.42824
1.41972
1.41103
1.4032
1.3964
1.39061
1.38578
1.38185
1.37878
1.37654
1.43466
1.42352
1.4122
1.40221
1.39375
1.38672
1.38088
1.37603
1.37213
1.36888
1.44019
1.42688
1.41301
1.40136
1.39166
1.38362
1.37691
1.37129
1.36663
1.36261
1.44582
1.43117
1.41548
1.40266
1.39193
1.38295
1.37532
1.36877
1.36315
1.35828
1.45211
1.43664
1.4193
1.40527
1.39346
1.38352
1.37498
1.36757
1.36104
1.35554
1.46045
1.44371
1.42489
1.40942
1.39649
1.38556
1.37616
1.36798
1.36067
1.35449
1.46867
1.44969
1.42953
1.41229
1.39826
1.38631
1.3761
1.36721
1.3592
1.35256
1.47981
1.45665
1.43586
1.41671
1.40183
1.389
1.37813
1.36862
1.36011
1.3529
1.4874
1.45911
1.43854
1.41796
1.40258
1.38899
1.37752
1.36746
1.35855
1.35089
1.49339
1.45966
1.4395
1.41757
1.40158
1.38735
1.37546
1.36503
1.35595
1.34808
1.41301
1.40892
1.40448
1.40017
1.39611
1.39243
1.38921
1.38651
1.38438
1.38284
1.4168
1.41195
1.40602
1.40007
1.39451
1.38951
1.38514
1.38142
1.37841
1.37594
1.42109
1.415
1.40724
1.39964
1.39266
1.3865
1.38116
1.3766
1.3728
1.36956
1.42597
1.41898
1.40979
1.40087
1.39271
1.38548
1.37914
1.37361
1.36888
1.36477
1.43185
1.42405
1.41355
1.40333
1.39401
1.38574
1.37844
1.37201
1.36636
1.36158
1.43971
1.43066
1.41892
1.40726
1.39678
1.38748
1.37927
1.37202
1.36557
1.36006
1.44748
1.4364
1.42343
1.41009
1.39844
1.38809
1.37902
1.37103
1.36383
1.35781
1.45772
1.44347
1.42967
1.41454
1.40192
1.39064
1.38086
1.37222
1.36449
1.35788
1.46466
1.44672
1.43263
1.41605
1.40272
1.39061
1.38017
1.37097
1.36282
1.35581
1.46958
1.44769
1.43334
1.41545
1.40151
1.38883
1.37802
1.36851
1.36019
1.35299
1.40411
1.40167
1.39924
1.39686
1.39452
1.3923
1.39029
1.38858
1.38721
1.38622
1.40603
1.40384
1.40074
1.39728
1.39377
1.39042
1.38737
1.38471
1.38255
1.38078
1.40887
1.40602
1.40176
1.39701
1.39228
1.38785
1.38385
1.38036
1.37742
1.37492
1.41262
1.40929
1.40405
1.39814
1.39228
1.38678
1.38177
1.37731
1.37347
1.37013
1.41754
1.41373
1.40755
1.40046
1.39348
1.38692
1.38093
1.37556
1.37081
1.36679
1.42421
1.41965
1.41253
1.40417
1.39605
1.38846
1.38154
1.37532
1.36977
1.365
1.43071
1.42486
1.41675
1.40691
1.39762
1.38898
1.38117
1.37418
1.36787
1.36257
1.43958
1.43164
1.42272
1.41132
1.40102
1.39144
1.38287
1.37521
1.36835
1.36245
1.44556
1.43518
1.42577
1.41297
1.40182
1.39136
1.38213
1.37391
1.36662
1.36035
1.44927
1.43614
1.42624
1.41228
1.40054
1.38956
1.37998
1.37148
1.36401
1.35755
1.39815
1.39645
1.39507
1.3938
1.39252
1.39127
1.39011
1.38909
1.38826
1.38766
1.39906
1.39809
1.39649
1.39454
1.39242
1.3903
1.38829
1.38651
1.38504
1.38382
1.40073
1.39947
1.39721
1.39437
1.39133
1.3883
1.38546
1.3829
1.38072
1.37886
1.40337
1.40192
1.39904
1.39531
1.3913
1.3873
1.38351
1.38005
1.37705
1.37443
1.40721
1.40561
1.40209
1.39741
1.39239
1.38741
1.38268
1.37834
1.37448
1.37119
1.41262
1.41071
1.40652
1.40081
1.39476
1.38879
1.38316
1.37798
1.37335
1.36934
1.41779
1.41521
1.41026
1.40333
1.39621
1.38924
1.38272
1.37677
1.37139
1.36684
1.4252
1.42143
1.41581
1.4076
1.3995
1.3916
1.38432
1.3777
1.37176
1.36663
1.43001
1.4248
1.41866
1.4092
1.4002
1.39146
1.38353
1.37638
1.37
1.36452
1.43241
1.42547
1.41887
1.40845
1.39891
1.3897
1.38143
1.374
1.36744
1.36178
1.39431
1.39294
1.39208
1.39139
1.39071
1.39003
1.38938
1.3888
1.38833
1.38797
1.39464
1.39419
1.39335
1.39225
1.39101
1.38971
1.38846
1.38731
1.38637
1.38556
1.39557
1.39504
1.39384
1.39218
1.39026
1.38826
1.38631
1.38451
1.38296
1.38163
1.39723
1.39668
1.39512
1.39283
1.39015
1.38734
1.38458
1.38199
1.37973
1.37773
1.40008
1.39956
1.39761
1.39461
1.39111
1.38744
1.38382
1.38043
1.37739
1.3748
1.40432
1.40377
1.40138
1.39759
1.39323
1.38868
1.38423
1.38006
1.37629
1.37302
1.40822
1.40743
1.40451
1.39979
1.39449
1.38903
1.38375
1.37884
1.37436
1.37057
1.41428
1.41294
1.4095
1.40378
1.3976
1.39129
1.38528
1.37972
1.3747
1.37036
1.4179
1.41583
1.41191
1.40515
1.39813
1.39106
1.38443
1.37838
1.37293
1.36826
1.41921
1.41616
1.41187
1.40437
1.39688
1.38937
1.38243
1.3761
1.37047
1.36561
1.39175
1.39052
1.38994
1.38956
1.3892
1.38884
1.38849
1.38817
1.38791
1.3877
1.39171
1.3915
1.39105
1.39045
1.38974
1.38897
1.38822
1.38752
1.38694
1.38642
1.39229
1.39207
1.39143
1.39046
1.38927
1.38798
1.38668
1.38546
1.3844
1.38348
1.3932
1.39305
1.39221
1.3908
1.38905
1.38713
1.38517
1.38331
1.38166
1.3802
1.39524
1.39521
1.39414
1.39224
1.38985
1.38721
1.38453
1.38197
1.37965
1.37767
1.39847
1.39855
1.39722
1.39476
1.39168
1.3883
1.38489
1.38163
1.37867
1.37608
1.40126
1.40135
1.39968
1.39654
1.3927
1.38853
1.38437
1.38043
1.37682
1.37375
1.40615
1.40608
1.40406
1.40017
1.39557
1.39067
1.38585
1.38131
1.37719
1.3736
1.4087
1.40831
1.40587
1.40119
1.39588
1.39032
1.38495
1.37996
1.37543
1.37155
1.40918
1.40832
1.40562
1.40039
1.39467
1.38873
1.38307
1.37782
1.3731
1.36904
1.39
1.38885
1.38841
1.38819
1.388
1.38782
1.38763
1.38746
1.38731
1.38719
1.38973
1.38964
1.38941
1.38908
1.38868
1.38825
1.38781
1.38739
1.38704
1.38671
1.39015
1.39007
1.38972
1.38915
1.38842
1.38761
1.38677
1.38598
1.38527
1.38466
1.39054
1.39054
1.39008
1.38922
1.38809
1.3868
1.38546
1.38417
1.38301
1.38196
1.39198
1.39211
1.39152
1.39032
1.38871
1.38687
1.38494
1.38307
1.38136
1.37989
1.3944
1.3947
1.39397
1.39238
1.39024
1.3878
1.38526
1.38279
1.38053
1.37854
1.3963
1.39671
1.39579
1.39372
1.39098
1.38788
1.3847
1.38164
1.3788
1.37639
1.40023
1.40069
1.39953
1.39693
1.3936
1.38989
1.38614
1.38253
1.37925
1.37637
1.40182
1.40218
1.40073
1.39756
1.39366
1.38941
1.38518
1.38118
1.37751
1.37437
1.40174
1.40192