/*--------------------------------*- C++ -*----------------------------------*\
| =========                 |                                                 |
| \\      /  F ield         | foam-extend: Open Source CFD                    |
|  \\    /   O peration     | Version:     4.0                                |
|   \\  /    A nd           | Web:         http://www.foam-extend.org         |
|    \\/     M anipulation  |                                                 |
\*---------------------------------------------------------------------------*/
FoamFile
{
    version     2.0;
    format      ascii;
    class       volScalarField;
    location    "2400";
    object      T;
}
// * * * * * * * * * * * * * * * * * * * * * * * * * * * * * * * * * * * * * //

dimensions      [0 0 0 1 0 0 0];

internalField   nonuniform List<scalar> 
34480
(
278.155
277.71
277.265
276.799
276.289
275.737
275.272
275.289
276.386
280.273
277.443
276.922
276.418
275.916
275.369
274.728
274.025
273.527
273.708
276.622
277.302
276.72
276.147
275.567
274.935
274.172
273.246
272.347
271.817
273.786
277.375
276.676
275.976
275.257
274.486
273.579
272.458
271.219
270.056
271.131
277.479
276.673
275.854
275.005
274.095
273.044
271.741
270.193
268.446
268.706
277.652
276.757
275.842
274.886
273.858
272.678
271.216
269.392
267.105
266.583
277.786
276.826
275.843
274.814
273.701
272.425
270.837
268.759
265.941
264.615
277.944
276.946
275.926
274.858
273.702
272.378
270.719
268.448
265.118
262.924
278.05
277.034
275.993
274.892
273.686
272.306
270.585
268.154
264.294
261.2
278.907
277.893
276.846
275.734
274.523
273.151
271.447
268.976
264.611
260.407
279.629
279.448
279.353
279.361
279.502
279.829
280.424
281.39
282.989
286.175
278.449
278.175
277.977
277.883
277.915
278.116
278.586
279.466
280.977
284.329
277.951
277.606
277.326
277.129
277.038
277.087
277.369
278.065
279.414
282.879
277.717
277.271
276.88
276.555
276.328
276.23
276.347
276.87
278.041
281.524
277.56
277.025
276.536
276.101
275.751
275.52
275.49
275.847
276.834
280.284
277.504
276.897
276.331
275.81
275.359
275.018
274.861
275.065
275.883
279.311
277.449
276.791
276.174
275.595
275.075
274.65
274.387
274.44
275.073
278.434
277.466
276.779
276.134
275.523
274.962
274.482
274.139
274.055
274.477
277.668
277.491
276.793
276.133
275.496
274.892
274.353
273.93
273.718
273.882
276.769
278.261
277.56
276.889
276.241
275.628
275.077
274.626
274.34
274.198
276.495
280.782
280.687
280.686
280.792
281.029
281.427
282.026
282.87
284.031
285.65
279.462
279.28
279.186
279.206
279.371
279.728
280.345
281.306
282.733
284.8
278.839
278.58
278.402
278.329
278.391
278.641
279.17
280.113
281.655
284.134
278.5
278.144
277.862
277.672
277.613
277.742
278.166
279.063
280.675
283.511
278.263
277.821
277.444
277.149
276.976
276.986
277.299
278.123
279.76
282.883
278.143
277.627
277.172
276.79
276.52
276.425
276.633
277.372
279.003
282.348
278.038
277.469
276.958
276.512
276.168
275.987
276.096
276.735
278.316
281.807
278.013
277.41
276.864
276.377
275.98
275.732
275.754
276.283
277.769
281.322
277.998
277.383
276.821
276.308
275.867
275.552
275.481
275.885
277.231
280.796
278.705
278.088
277.514
276.99
276.539
276.21
276.091
276.39
277.537
280.994
281.574
281.529
281.566
281.691
281.914
282.246
282.692
283.242
283.881
284.635
280.263
280.15
280.124
280.201
280.403
280.758
281.294
282.036
282.999
284.153
279.589
279.404
279.306
279.315
279.457
279.771
280.31
281.135
282.302
283.828
279.183
278.912
278.723
278.639
278.694
278.939
279.449
280.323
281.669
283.567
278.887
278.535
278.261
278.085
278.049
278.213
278.671
279.562
281.049
283.286
278.714
278.29
277.941
277.685
277.567
277.651
278.05
278.937
280.534
283.075
278.566
278.089
277.683
277.364
277.177
277.189
277.524
278.38
280.045
282.835
278.505
277.99
277.546
277.183
276.942
276.89
277.158
277.961
279.643
282.618
278.468
277.939
277.476
277.087
276.804
276.692
276.878
277.595
279.237
282.367
279.13
278.597
278.121
277.718
277.419
277.287
277.431
278.067
279.593
282.794
282.048
282.027
282.064
282.163
282.325
282.552
282.835
283.152
283.458
283.737
280.849
280.78
280.783
280.869
281.046
281.328
281.72
282.221
282.81
283.423
280.199
280.07
280.021
280.066
280.222
280.511
280.957
281.576
282.363
283.249
279.774
279.572
279.451
279.43
279.536
279.802
280.273
280.991
281.978
283.166
279.448
279.173
278.979
278.887
278.93
279.155
279.625
280.414
281.582
283.073
279.242
278.9
278.639
278.478
278.459
278.636
279.091
279.929
281.261
283.046
279.064
278.669
278.355
278.138
278.063
278.189
278.616
279.478
280.94
282.991
278.976
278.543
278.189
277.93
277.806
277.883
278.27
279.128
280.679
282.957
278.92
278.47
278.097
277.812
277.652
277.681
278.012
278.829
280.413
282.895
279.542
279.087
278.699
278.398
278.221
278.23
278.531
279.304
280.848
283.466
282.295
282.283
282.311
282.377
282.482
282.622
282.788
282.958
283.083
283.125
281.251
281.209
281.222
281.294
281.429
281.629
281.891
282.206
282.551
282.882
280.672
280.585
280.563
280.616
280.754
280.987
281.319
281.748
282.251
282.766
280.265
280.118
280.043
280.056
280.174
280.416
280.8
281.339
282.016
282.752
279.935
279.725
279.593
279.555
279.637
279.869
280.286
280.917
281.767
282.741
279.714
279.444
279.255
279.165
279.205
279.417
279.852
280.562
281.582
282.804
279.52
279.2
278.963
278.826
278.826
279.01
279.448
280.216
281.385
282.847
279.414
279.057
278.783
278.607
278.569
278.721
279.146
279.946
281.236
282.918
279.343
278.968
278.674
278.474
278.408
278.528
278.924
279.719
281.083
282.968
279.93
279.547
279.238
279.023
278.939
279.043
279.421
280.206
281.581
283.614
282.391
282.382
282.399
282.44
282.502
282.583
282.675
282.76
282.791
282.709
281.507
281.482
281.494
281.547
281.64
281.771
281.937
282.127
282.325
282.507
281.022
280.964
280.956
281.004
281.112
281.283
281.515
281.798
282.112
282.416
280.658
280.553
280.509
280.536
280.643
280.84
281.132
281.514
281.965
282.423
280.345
280.189
280.101
280.095
280.187
280.396
280.735
281.212
281.808
282.442
280.127
279.918
279.784
279.741
279.811
280.021
280.398
280.962
281.709
282.538
279.928
279.674
279.5
279.421
279.465
279.667
280.068
280.705
281.595
282.621
279.813
279.524
279.317
279.206
279.224
279.411
279.821
280.51
281.524
282.739
279.733
279.424
279.198
279.066
279.063
279.232
279.635
280.346
281.449
282.841
280.288
279.972
279.73
279.584
279.567
279.724
280.12
280.842
281.983
283.507
282.396
282.389
282.398
282.421
282.456
282.501
282.55
282.588
282.573
282.427
281.656
281.64
281.65
281.684
281.744
281.826
281.927
282.039
282.152
282.252
281.27
281.231
281.229
281.267
281.345
281.464
281.618
281.8
281.993
282.174
280.961
280.888
280.862
280.891
280.979
281.129
281.339
281.602
281.896
282.184
280.68
280.566
280.509
280.519
280.606
280.778
281.039
281.385
281.793
282.208
280.477
280.319
280.227
280.213
280.291
280.478
280.785
281.214
281.747
282.307
280.284
280.087
279.962
279.922
279.987
280.18
280.522
281.026
281.683
282.397
280.17
279.941
279.788
279.724
279.774
279.965
280.33
280.893
281.663
282.529
280.083
279.835
279.664
279.583
279.62
279.804
280.177
280.777
281.633
282.642
280.61
280.354
280.169
280.077
280.102
280.281
280.656
281.278
282.182
283.297
282.353
282.347
282.351
282.363
282.382
282.406
282.432
282.446
282.409
282.228
281.733
281.723
281.728
281.75
281.786
281.835
281.895
281.959
282.023
282.08
281.437
281.411
281.411
281.438
281.492
281.57
281.67
281.784
281.902
282.011
281.187
281.136
281.121
281.147
281.213
281.322
281.468
281.644
281.834
282.015
280.946
280.864
280.828
280.844
280.917
281.051
281.243
281.487
281.763
282.034
280.767
280.65
280.588
280.589
280.664
280.818
281.057
281.372
281.746
282.123
280.586
280.436
280.349
280.334
280.405
280.574
280.851
281.236
281.709
282.203
280.481
280.303
280.192
280.16
280.224
280.401
280.708
281.151
281.719
282.33
280.392
280.196
280.07
280.025
280.082
280.26
280.583
281.066
281.711
282.43
280.894
280.69
280.553
280.498
280.547
280.725
281.056
281.566
282.258
283.059
282.288
282.283
282.285
282.291
282.301
282.313
282.326
282.329
282.282
282.084
281.763
281.756
281.759
281.771
281.793
281.822
281.856
281.893
281.928
281.96
281.544
281.527
281.527
281.545
281.58
281.63
281.693
281.763
281.835
281.9
281.349
281.314
281.305
281.325
281.373
281.448
281.547
281.662
281.784
281.898
281.15
281.093
281.07
281.086
281.143
281.243
281.38
281.548
281.732
281.909
281
280.915
280.874
280.882
280.946
281.068
281.246
281.473
281.73
281.983
280.837
280.726
280.666
280.664
280.731
280.87
281.086
281.371
281.706
282.045
280.746
280.611
280.533
280.521
280.586
280.738
280.985
281.322
281.732
282.158
280.657
280.506
280.416
280.395
280.457
280.616
280.882
281.257
281.731
282.237
281.136
280.978
280.878
280.85
280.909
281.07
281.347
281.749
282.264
282.829
282.217
282.213
282.213
282.216
282.221
282.228
282.234
282.232
282.182
281.977
281.765
281.761
281.762
281.769
281.781
281.798
281.817
281.838
281.858
281.876
281.609
281.598
281.598
281.61
281.631
281.663
281.701
281.744
281.787
281.827
281.46
281.437
281.432
281.446
281.479
281.529
281.594
281.669
281.746
281.818
281.304
281.264
281.249
281.263
281.306
281.376
281.472
281.585
281.707
281.822
281.183
281.122
281.095
281.106
281.157
281.248
281.377
281.536
281.711
281.88
281.04
280.959
280.918
280.924
280.98
281.09
281.252
281.458
281.691
281.922
280.967
280.867
280.813
280.812
280.871
280.996
281.185
281.435
281.726
282.019
280.881
280.766
280.703
280.696
280.756
280.889
281.098
281.381
281.721
282.073
281.337
281.218
281.146
281.135
281.193
281.331
281.553
281.859
282.232
282.626
282.148
282.144
282.144
282.145
282.148
282.151
282.154
282.15
282.102
281.895
281.753
281.75
281.751
281.755
281.761
281.77
281.781
281.793
281.804
281.814
281.647
281.64
281.64
281.647
281.66
281.679
281.702
281.728
281.754
281.777
281.535
281.519
281.516
281.525
281.547
281.58
281.622
281.669
281.718
281.763
281.416
281.389
281.38
281.39
281.42
281.469
281.534
281.609
281.688
281.762
281.323
281.28
281.263
281.273
281.311
281.378
281.468
281.577
281.695
281.807
281.2
281.142
281.115
281.123
281.168
281.25
281.368
281.513
281.673
281.829
281.148
281.075
281.039
281.043
281.093
281.189
281.331
281.51
281.713
281.913
281.063
280.979
280.936
280.937
280.989
281.094
281.254
281.46
281.7
281.941
281.497
281.41
281.36
281.358
281.411
281.522
281.693
281.919
282.183
282.454
282.084
282.081
282.08
282.081
282.082
282.084
282.085
282.08
282.037
281.832
281.734
281.732
281.732
281.734
281.738
281.743
281.749
281.756
281.762
281.767
281.668
281.664
281.663
281.667
281.675
281.686
281.7
281.716
281.731
281.745
281.582
281.572
281.569
281.575
281.589
281.61
281.637
281.666
281.697
281.725
281.496
281.478
281.472
281.48
281.5
281.533
281.575
281.624
281.675
281.723
281.427
281.398
281.387
281.395
281.423
281.469
281.531
281.605
281.682
281.755
281.323
281.282
281.264
281.272
281.306
281.366
281.449
281.549
281.657
281.761
281.293
281.241
281.217
281.224
281.263
281.335
281.437
281.563
281.701
281.835
281.209
281.148
281.119
281.123
281.166
281.246
281.363
281.51
281.676
281.839
281.621
281.558
281.524
281.527
281.571
281.657
281.784
281.946
282.129
282.312
282.026
282.023
282.023
282.023
282.024
282.025
282.026
282.021
281.983
281.784
281.713
281.712
281.711
281.712
281.714
281.717
281.721
281.724
281.728
281.731
281.68
281.677
281.677
281.679
281.683
281.69
281.698
281.707
281.716
281.724
281.61
281.603
281.602
281.605
281.614
281.627
281.643
281.662
281.681
281.698
281.552
281.54
281.536
281.542
281.555
281.576
281.604
281.635
281.668
281.698
281.503
281.484
281.477
281.483
281.502
281.534
281.575
281.623
281.674
281.721
281.414
281.387
281.375
281.382
281.406
281.448
281.505
281.572
281.644
281.712
281.407
281.372
281.356
281.362
281.392
281.443
281.515
281.601
281.693
281.782
281.32
281.278
281.258
281.264
281.296
281.355
281.438
281.54
281.652
281.761
281.71
281.667
281.644
281.649
281.683
281.747
281.838
281.951
282.075
282.196
281.975
281.972
281.972
281.972
281.973
281.973
281.974
281.97
281.938
281.75
281.691
281.69
281.69
281.69
281.691
281.693
281.695
281.697
281.699
281.701
281.687
281.685
281.685
281.686
281.689
281.693
281.697
281.702
281.707
281.712
281.624
281.62
281.619
281.621
281.627
281.635
281.645
281.656
281.667
281.678
281.59
281.583
281.58
281.584
281.592
281.606
281.623
281.643
281.663
281.682
281.557
281.544
281.54
281.544
281.557
281.578
281.605
281.636
281.668
281.698
281.481
281.462
281.455
281.46
281.477
281.506
281.544
281.588
281.634
281.679
281.497
281.473
281.463
281.468
281.489
281.525
281.574
281.631
281.691
281.749
281.403
281.373
281.361
281.366
281.39
281.431
281.488
281.557
281.631
281.703
281.771
281.742
281.727
281.733
281.758
281.803
281.866
281.943
282.025
282.104
281.932
281.93
281.929
281.929
281.93
281.93
281.931
281.928
281.903
281.729
281.668
281.667
281.667
281.668
281.668
281.669
281.67
281.672
281.673
281.674
281.693
281.692
281.692
281.693
281.694
281.696
281.699
281.702
281.705
281.707
281.63
281.628
281.627
281.628
281.631
281.636
281.642
281.649
281.655
281.662
281.615
281.611
281.609
281.611
281.617
281.625
281.636
281.648
281.66
281.672
281.593
281.585
281.582
281.585
281.593
281.607
281.624
281.643
281.664
281.682
281.528
281.516
281.511
281.515
281.526
281.545
281.569
281.598
281.627
281.656
281.566
281.55
281.544
281.548
281.563
281.587
281.619
281.656
281.695
281.731
281.459
281.439
281.432
281.436
281.452
281.481
281.519
281.564
281.612
281.659
281.81
281.791
281.782
281.786
281.804
281.836
281.878
281.928
281.981
282.032
281.901
281.9
281.899
281.899
281.899
281.9
281.9
281.898
281.88
281.727
281.644
281.643
281.643
281.643
281.644
281.644
281.645
281.646
281.646
281.647
281.7
281.699
281.699
281.699
281.7
281.702
281.703
281.705
281.706
281.708
281.63
281.629
281.628
281.629
281.631
281.633
281.637
281.641
281.645
281.648
281.63
281.627
281.626
281.628
281.631
281.636
281.643
281.65
281.658
281.665
281.615
281.61
281.608
281.61
281.615
281.623
281.634
281.646
281.659
281.67
281.559
281.552
281.549
281.551
281.559
281.57
281.586
281.604
281.622
281.639
281.617
281.607
281.603
281.606
281.616
281.632
281.652
281.676
281.701
281.723
281.492
281.479
281.475
281.478
281.489
281.507
281.532
281.561
281.591
281.621
281.837
281.825
281.819
281.822
281.835
281.855
281.883
281.915
281.949
281.98
281.895
281.894
281.894
281.894
281.894
281.894
281.894
281.893
281.882
281.757
281.613
281.613
281.613
281.613
281.613
281.613
281.614
281.614
281.614
281.615
281.705
281.704
281.704
281.705
281.705
281.706
281.707
281.709
281.71
281.711
281.627
281.626
281.625
281.626
281.627
281.628
281.63
281.632
281.634
281.636
281.636
281.634
281.634
281.635
281.637
281.64
281.644
281.648
281.653
281.657
281.624
281.621
281.62
281.621
281.624
281.629
281.636
281.643
281.651
281.658
281.578
281.573
281.572
281.573
281.578
281.585
281.594
281.605
281.616
281.627
281.648
281.642
281.639
281.641
281.648
281.658
281.671
281.686
281.702
281.716
281.501
281.492
281.49
281.492
281.499
281.511
281.526
281.544
281.563
281.583
281.866
281.858
281.855
281.857
281.866
281.879
281.897
281.917
281.938
281.958
281.931
281.93
281.93
281.93
281.931
281.931
281.932
281.933
281.928
281.842
281.569
281.568
281.568
281.568
281.568
281.567
281.567
281.567
281.566
281.566
281.702
281.702
281.702
281.703
281.703
281.704
281.705
281.706
281.708
281.709
281.623
281.622
281.622
281.622
281.622
281.623
281.624
281.625
281.625
281.626
281.636
281.635
281.634
281.635
281.636
281.638
281.641
281.643
281.646
281.649
281.624
281.622
281.621
281.622
281.624
281.627
281.632
281.636
281.641
281.646
281.586
281.583
281.582
281.583
281.586
281.591
281.597
281.603
281.61
281.616
281.65
281.646
281.645
281.646
281.65
281.657
281.666
281.676
281.687
281.697
281.478
281.473
281.471
281.472
281.477
281.485
281.495
281.506
281.517
281.53
281.917
281.911
281.909
281.911
281.916
281.925
281.937
281.95
281.964
281.977
281.999
281.999
282
282.001
282.003
282.005
282.007
282.011
282.014
281.985
281.506
281.505
281.505
281.504
281.503
281.502
281.501
281.499
281.497
281.494
281.688
281.688
281.688
281.688
281.689
281.69
281.691
281.693
281.694
281.697
281.621
281.62
281.62
281.62
281.62
281.62
281.621
281.621
281.621
281.621
281.632
281.632
281.631
281.632
281.633
281.634
281.636
281.638
281.64
281.642
281.621
281.619
281.619
281.619
281.621
281.623
281.626
281.629
281.633
281.636
281.589
281.587
281.586
281.587
281.589
281.592
281.597
281.601
281.605
281.609
281.625
281.622
281.621
281.622
281.625
281.63
281.637
281.645
281.654
281.663
281.425
281.422
281.421
281.422
281.425
281.431
281.438
281.445
281.452
281.458
281.984
281.978
281.976
281.977
281.981
281.988
281.996
282.007
282.018
282.03
292.013
296.752
297.819
295.39
291.291
296.399
297.709
295.609
291.308
296.707
298.293
296.947
291.291
296.909
298.851
298.453
291.329
297.09
299.354
299.622
291.301
297.043
299.425
299.737
291.203
296.86
299.293
299.679
291.141
296.688
299.182
299.785
290.856
296.312
298.913
299.836
290.674
296.079
298.854
300.213
291.567
293.116
293.36
292.356
291.085
292.843
293.147
292.149
291.273
293.185
293.653
292.776
291.531
293.597
294.274
293.604
291.844
294.038
294.874
294.41
292.384
294.666
295.597
295.288
292.916
295.231
296.204
296.04
293.387
295.684
296.647
296.515
293.572
295.861
296.857
296.823
293.698
296.083
297.26
297.489
287.701
288.397
288.611
288.266
287.097
288.002
288.283
287.895
287.232
288.265
288.627
288.337
287.535
288.698
289.164
288.998
287.902
289.186
289.755
289.686
288.388
289.764
290.39
290.353
288.866
290.315
290.987
290.995
289.351
290.851
291.561
291.642
289.683
291.202
291.962
292.159
290.189
291.682
292.559
293.006
285.871
286.137
286.249
286.205
285.144
285.585
285.751
285.657
285.2
285.73
285.963
285.924
285.441
286.071
286.381
286.401
285.739
286.467
286.85
286.92
286.17
286.986
287.433
287.554
286.616
287.513
288.017
288.192
287.094
288.058
288.617
288.858
287.524
288.524
289.133
289.465
288.335
289.304
289.979
290.498
284.648
284.721
284.788
284.848
283.874
284.098
284.207
284.203
283.884
284.165
284.323
284.362
284.067
284.418
284.633
284.721
284.298
284.72
284.992
285.126
284.649
285.14
285.468
285.651
285.015
285.574
285.955
286.189
285.43
286.05
286.483
286.776
285.822
286.481
286.962
287.331
286.626
287.266
287.797
288.33
283.913
283.894
283.933
284.03
283.114
283.235
283.303
283.319
283.095
283.252
283.355
283.404
283.232
283.437
283.581
283.667
283.411
283.665
283.853
283.977
283.702
284.009
284.24
284.405
284.008
284.366
284.642
284.847
284.366
284.772
285.09
285.339
284.711
285.148
285.501
285.807
285.497
285.921
286.304
286.733
283.44
283.373
283.396
283.507
282.633
282.701
282.743
282.759
282.599
282.691
282.757
282.796
282.698
282.822
282.917
282.983
282.833
282.991
283.118
283.213
283.071
283.266
283.425
283.552
283.32
283.551
283.743
283.901
283.62
283.886
284.109
284.299
283.906
284.194
284.443
284.673
284.649
284.932
285.2
285.515
283.124
283.031
283.044
283.163
282.326
282.365
282.391
282.403
282.282
282.337
282.378
282.406
282.35
282.427
282.489
282.536
282.449
282.549
282.634
282.701
282.64
282.766
282.874
282.964
282.837
282.989
283.12
283.233
283.086
283.261
283.415
283.55
283.314
283.504
283.674
283.837
284.009
284.198
284.381
284.598
282.902
282.792
282.799
282.924
282.125
282.148
282.163
282.171
282.075
282.108
282.134
282.153
282.118
282.166
282.206
282.238
282.187
282.251
282.307
282.353
282.337
282.42
282.492
282.555
282.488
282.588
282.677
282.756
282.69
282.806
282.911
283.006
282.864
282.99
283.105
283.217
283.509
283.636
283.759
283.905
282.736
282.616
282.62
282.749
281.989
282.003
282.012
282.017
281.939
281.96
281.976
281.988
281.963
281.993
282.019
282.04
282.007
282.049
282.086
282.117
282.123
282.177
282.225
282.268
282.232
282.299
282.359
282.413
282.395
282.473
282.543
282.608
282.521
282.605
282.683
282.758
283.117
283.201
283.284
283.381
282.605
282.478
282.48
282.613
281.895
281.904
281.909
281.912
281.85
281.863
281.873
281.881
281.859
281.878
281.895
281.908
281.885
281.912
281.936
281.957
281.971
282.007
282.04
282.068
282.045
282.09
282.13
282.167
282.176
282.228
282.276
282.32
282.261
282.318
282.371
282.421
282.808
282.865
282.921
282.984
282.497
282.365
282.366
282.502
281.828
281.833
281.836
281.838
281.792
281.799
281.805
281.81
281.789
281.801
281.812
281.82
281.803
281.82
281.836
281.85
281.866
281.89
281.911
281.93
281.911
281.94
281.967
281.992
282.017
282.051
282.083
282.113
282.067
282.105
282.14
282.174
282.567
282.605
282.642
282.684
282.404
282.268
282.269
282.407
281.778
281.781
281.783
281.784
281.753
281.758
281.762
281.765
281.741
281.749
281.756
281.761
281.749
281.76
281.77
281.779
281.794
281.81
281.824
281.836
281.815
281.834
281.852
281.868
281.904
281.927
281.948
281.968
281.923
281.949
281.972
281.994
282.38
282.405
282.43
282.458
282.321
282.183
282.184
282.323
281.739
281.741
281.743
281.743
281.729
281.732
281.734
281.736
281.708
281.713
281.717
281.721
281.714
281.721
281.728
281.733
281.746
281.756
281.765
281.773
281.748
281.76
281.772
281.783
281.827
281.842
281.856
281.869
281.818
281.835
281.85
281.865
282.236
282.252
282.269
282.286
282.244
282.107
282.108
282.245
281.707
281.709
281.71
281.71
281.715
281.717
281.718
281.719
281.684
281.687
281.69
281.692
281.692
281.697
281.701
281.704
281.714
281.72
281.726
281.731
281.702
281.71
281.717
281.724
281.778
281.787
281.796
281.805
281.741
281.753
281.763
281.772
282.125
282.135
282.146
282.157
282.172
282.04
282.04
282.172
281.679
281.68
281.681
281.681
281.709
281.71
281.711
281.712
281.666
281.668
281.669
281.671
281.678
281.681
281.683
281.686
281.692
281.696
281.7
281.703
281.67
281.676
281.68
281.685
281.749
281.755
281.761
281.767
281.685
281.693
281.699
281.704
282.041
282.047
282.054
282.062
282.106
281.984
281.984
282.107
281.652
281.652
281.653
281.653
281.709
281.709
281.71
281.71
281.651
281.652
281.653
281.654
281.668
281.67
281.672
281.673
281.676
281.679
281.681
281.683
281.649
281.652
281.655
281.658
281.734
281.738
281.741
281.745
281.641
281.646
281.65
281.653
281.982
281.987
281.991
281.995
282.058
281.953
281.953
282.058
281.618
281.619
281.619
281.619
281.711
281.712
281.712
281.712
281.638
281.638
281.639
281.639
281.66
281.661
281.662
281.662
281.662
281.664
281.665
281.666
281.632
281.634
281.636
281.638
281.723
281.725
281.728
281.73
281.598
281.602
281.604
281.605
281.957
281.959
281.962
281.965
282.047
281.969
281.969
282.047
281.569
281.569
281.569
281.569
281.71
281.71
281.71
281.71
281.627
281.627
281.628
281.628
281.651
281.652
281.652
281.653
281.649
281.65
281.651
281.651
281.619
281.62
281.621
281.622
281.703
281.705
281.707
281.708
281.542
281.545
281.546
281.547
281.976
281.978
281.98
281.981
282.071
282.038
282.038
282.071
281.494
281.493
281.493
281.495
281.698
281.699
281.699
281.699
281.621
281.621
281.622
281.622
281.644
281.644
281.645
281.645
281.638
281.639
281.64
281.64
281.611
281.611
281.612
281.613
281.672
281.675
281.676
281.676
281.463
281.465
281.466
281.466
282.033
282.035
282.036
282.037
287.13
284.078
282.675
281.845
281.184
280.581
280.022
279.517
279.047
278.599
287.405
284.942
283.336
282.169
281.212
280.425
279.737
279.113
278.533
277.979
288.625
285.998
283.932
282.608
281.513
280.618
279.836
279.131
278.483
277.884
290.095
287.096
284.864
283.38
282.162
281.158
280.274
279.473
278.731
278.051
291.406
288.152
285.767
284.116
282.786
281.679
280.701
279.812
278.987
278.24
293.035
289.25
286.707
284.891
283.447
282.238
281.172
280.201
279.299
278.489
294.62
290.215
287.52
285.54
283.991
282.687
281.542
280.501
279.535
278.683
296.084
291.133
288.292
286.156
284.51
283.117
281.901
280.798
279.779
278.882
297.29
291.913
288.951
286.683
284.939
283.452
282.159
280.997
279.938
279.007
298.768
293.218
290.203
287.864
286.03
284.467
283.11
281.888
280.78
279.797
288.403
285.95
284.355
283.167
282.265
281.565
281.004
280.547
280.175
279.872
288.233
285.691
283.881
282.557
281.563
280.793
280.165
279.636
279.183
278.789
288.523
285.815
283.804
282.435
281.395
280.573
279.888
279.301
278.789
278.345
289.09
286.27
284.156
282.733
281.619
280.721
279.958
279.293
278.704
278.19
289.696
286.809
284.594
283.078
281.878
280.9
280.062
279.326
278.67
278.099
290.519
287.481
285.138
283.501
282.209
281.149
280.241
279.441
278.725
278.101
291.387
288.072
285.6
283.827
282.454
281.32
280.354
279.503
278.742
278.085
292.384
288.619
286.06
284.15
282.712
281.515
280.503
279.613
278.819
278.132
293.307
289.022
286.458
284.42
282.936
281.677
280.623
279.698
278.885
278.177
294.691
289.885
287.48
285.361
283.844
282.536
281.446
280.485
279.643
278.907
286.581
285.421
284.482
283.674
282.981
282.397
281.91
281.512
281.194
280.952
286.605
285.208
284.015
283.017
282.188
281.502
280.93
280.452
280.054
279.725
286.905
285.329
283.95
282.847
281.94
281.189
280.558
280.019
279.558
279.167
287.439
285.744
284.232
283.039
282.051
281.226
280.52
279.907
279.37
278.907
287.997
286.24
284.597
283.305
282.231
281.329
280.549
279.866
279.261
278.737
288.763
286.864
285.082
283.674
282.508
281.525
280.674
279.926
279.257
278.678
289.581
287.436
285.512
283.975
282.723
281.665
280.753
279.95
279.234
278.615
290.495
287.969
285.939
284.273
282.951
281.829
280.869
280.026
279.274
278.623
291.362
288.339
286.284
284.49
283.118
281.938
280.941
280.068
279.3
278.628
292.669
289.125
287.213
285.339
283.945
282.729
281.707
280.807
280.018
279.324
285.151
284.695
284.193
283.678
283.195
282.768
282.402
282.099
281.86
281.686
285.221
284.499
283.75
283.05
282.427
281.886
281.423
281.034
280.713
280.455
285.482
284.623
283.717
282.898
282.18
281.559
281.024
280.564
280.174
279.849
285.969
285.006
283.971
283.049
282.24
281.536
280.922
280.385
279.918
279.52
286.501
285.459
284.301
283.275
282.374
281.587
280.897
280.288
279.751
279.289
287.191
286.038
284.752
283.61
282.613
281.742
280.977
280.301
279.699
279.178
287.915
286.583
285.164
283.895
282.806
281.857
281.026
280.292
279.639
279.075
288.729
287.106
285.578
284.181
283.015
281.998
281.117
280.34
279.648
279.049
289.527
287.483
285.915
284.388
283.165
282.09
281.17
280.363
279.653
279.032
290.774
288.283
286.811
285.2
283.952
282.843
281.9
281.069
280.34
279.698
284.016
283.924
283.704
283.418
283.125
282.85
282.606
282.399
282.236
282.119
284.061
283.719
283.298
282.86
282.44
282.054
281.712
281.418
281.176
280.985
284.261
283.843
283.307
282.759
282.238
281.763
281.34
280.971
280.658
280.398
284.673
284.192
283.552
282.901
282.284
281.72
281.214
280.765
280.375
280.045
285.139
284.604
283.861
283.107
282.395
281.745
281.159
280.637
280.176
279.782
285.749
285.136
284.285
283.419
282.611
281.875
281.212
280.619
280.092
279.636
286.385
285.646
284.68
283.695
282.792
281.973
281.241
280.589
280.007
279.505
287.095
286.147
285.082
283.975
282.99
282.101
281.315
280.616
279.993
279.453
287.79
286.522
285.408
284.175
283.128
282.182
281.355
280.625
279.981
279.418
288.938
287.337
286.27
284.956
283.88
282.9
282.051
281.299
280.636
280.053
283.279
283.355
283.28
283.132
282.963
282.798
282.646
282.516
282.412
282.339
283.272
283.11
282.881
282.62
282.352
282.094
281.858
281.651
281.479
281.344
283.402
283.205
282.901
282.552
282.195
281.853
281.538
281.258
281.018
280.82
283.722
283.498
283.121
282.684
282.238
281.809
281.412
281.054
280.741
280.476
284.099
283.85
283.398
282.871
282.336
281.822
281.345
280.914
280.531
280.205
284.608
284.32
283.786
283.162
282.534
281.935
281.381
280.878
280.429
280.042
285.139
284.778
284.155
283.424
282.704
282.023
281.398
280.834
280.329
279.893
285.734
285.241
284.535
283.694
282.894
282.142
281.461
280.848
280.299
279.825
286.309
285.598
284.839
283.887
283.023
282.214
281.491
280.845
280.274
279.776
287.349
286.414
285.668
284.641
283.744
282.902
282.156
281.489
280.899
280.379
282.794
282.949
282.946
282.875
282.783
282.689
282.6
282.522
282.46
282.417
282.743
282.667
282.545
282.395
282.232
282.069
281.914
281.776
281.66
281.569
282.817
282.728
282.559
282.344
282.11
281.875
281.652
281.449
281.274
281.129
283.052
282.956
282.741
282.459
282.149
281.837
281.538
281.264
281.022
280.818
283.34
283.241
282.976
282.622
282.234
281.844
281.471
281.127
280.82
280.557
283.747
283.638
283.317
282.884
282.414
281.944
281.497
281.084
280.713
280.393
284.173
284.032
283.646
283.124
282.57
282.023
281.506
281.032
280.605
280.237
284.655
284.442
283.993
283.38
282.75
282.135
281.562
281.038
280.567
280.16
285.11
284.763
284.265
283.559
282.87
282.2
281.585
281.028
280.532
280.101
286.041
285.561
285.056
284.286
283.562
282.859
282.22
281.642
281.128
280.675
282.474
282.665
282.696
282.666
282.618
282.566
282.515
282.471
282.435
282.411
282.396
282.36
282.296
282.212
282.116
282.016
281.919
281.831
281.756
281.696
282.428
282.388
282.295
282.167
282.018
281.863
281.711
281.57
281.447
281.344
282.592
282.555
282.434
282.257
282.049
281.83
281.614
281.412
281.232
281.079
282.803
282.774
282.622
282.391
282.119
281.833
281.551
281.286
281.047
280.843
283.12
283.098
282.91
282.618
282.278
281.922
281.572
281.243
280.945
280.688
283.449
283.42
283.189
282.828
282.416
281.989
281.575
281.187
280.836
280.534
283.831
283.771
283.495
283.062
282.583
282.094
281.626
281.19
280.797
280.456
284.177
284.044
283.729
283.224
282.691
282.152
281.643
281.174
280.754
280.39
285.009
284.806
284.477
283.919
283.352
282.782
282.25
281.761
281.322
280.936
282.254
282.462
282.509
282.499
282.474
282.446
282.419
282.394
282.374
282.362
282.166
282.15
282.117
282.07
282.015
281.956
281.897
281.843
281.796
281.758
282.17
282.153
282.102
282.027
281.935
281.836
281.736
281.641
281.558
281.487
282.279
282.269
282.202
282.092
281.957
281.808
281.656
281.512
281.382
281.271
282.428
282.428
282.343
282.195
282.01
281.806
281.599
281.401
281.221
281.067
282.67
282.683
282.576
282.385
282.145
281.882
281.617
281.362
281.13
280.929
282.916
282.936
282.802
282.559
282.26
281.937
281.614
281.307
281.026
280.784
283.214
283.226
283.063
282.766
282.411
282.034
281.662
281.31
280.989
280.711
283.467
283.448
283.256
282.905
282.504
282.082
281.672
281.289
280.942
280.641
284.212
284.161
283.955