/*--------------------------------*- C++ -*----------------------------------*\
| =========                 |                                                 |
| \\      /  F ield         | foam-extend: Open Source CFD                    |
|  \\    /   O peration     | Version:     4.0                                |
|   \\  /    A nd           | Web:         http://www.foam-extend.org         |
|    \\/     M anipulation  |                                                 |
\*---------------------------------------------------------------------------*/
FoamFile
{
    version     2.0;
    format      ascii;
    class       volVectorField;
    location    "2400";
    object      Urel;
}
// * * * * * * * * * * * * * * * * * * * * * * * * * * * * * * * * * * * * * //

dimensions      [0 1 -1 0 0 0 0];

internalField   nonuniform List<vector> 
34480
(
(212.103 -5.13173 -19.9641)
(213.713 -5.92852 -24.5784)
(215.129 -6.48807 -29.8687)
(216.361 -6.80725 -36.1187)
(217.384 -6.87954 -43.7264)
(217.965 -6.68957 -53.1756)
(217.239 -6.20761 -64.8175)
(212.894 -5.49966 -79.1568)
(200.033 -4.89316 -98.731)
(167.923 -4.34947 -119.473)
(214.23 -5.40365 -26.967)
(216.145 -5.08459 -31.0624)
(217.832 -4.73429 -35.5496)
(219.28 -4.32825 -40.7019)
(220.57 -3.87769 -46.9896)
(221.674 -3.41201 -55.1094)
(222.07 -2.93749 -65.8552)
(219.991 -2.4703 -80.0728)
(210.881 -2.33357 -101.482)
(180.442 -2.7602 -130.005)
(215.425 -9.93825 -32.0138)
(217.608 -8.92329 -35.8839)
(219.61 -7.94556 -40.0353)
(221.437 -6.98169 -44.7354)
(223.161 -6.03117 -50.4207)
(224.861 -5.1372 -57.8991)
(226.225 -4.32438 -68.2598)
(225.768 -3.58489 -82.6644)
(219.381 -3.21544 -105.553)
(190.568 -3.54325 -140.529)
(215.709 -13.647 -37.5452)
(218.369 -12.1678 -41.4716)
(220.882 -10.7414 -45.6591)
(223.258 -9.33689 -50.3411)
(225.522 -7.96123 -55.9081)
(227.765 -6.66006 -63.1587)
(229.806 -5.47058 -73.3326)
(230.442 -4.39168 -87.9287)
(225.987 -3.73806 -111.929)
(198.229 -3.93633 -151.699)
(215.905 -18.335 -43.0097)
(218.99 -16.5801 -47.0535)
(221.945 -14.8783 -51.4038)
(224.799 -13.1748 -56.2066)
(227.551 -11.5004 -61.8539)
(230.274 -9.90319 -69.0914)
(232.864 -8.43554 -79.2382)
(234.352 -7.104 -94.1214)
(231.39 -6.24875 -119.184)
(204.229 -6.41455 -162.767)
(215.738 -22.0491 -49.5289)
(219.149 -19.9995 -53.6703)
(222.429 -18.0043 -58.135)
(225.636 -15.9779 -63.0235)
(228.763 -13.9572 -68.7387)
(231.868 -11.981 -75.9735)
(234.882 -10.1066 -86.08)
(237.04 -8.35837 -101.197)
(235.236 -7.14517 -127.234)
(208.279 -7.17698 -174.033)
(215.724 -27.0704 -55.8477)
(219.348 -24.8257 -60.1193)
(222.818 -22.607 -64.7518)
(226.227 -20.3169 -69.7733)
(229.577 -18.0101 -75.5991)
(232.925 -15.7135 -82.8654)
(236.251 -13.4697 -92.9312)
(239.001 -11.2756 -108.232)
(238.287 -9.50828 -135.15)
(211.648 -8.95264 -184.711)
(215.47 -30.8332 -63.4546)
(219.181 -28.3132 -67.7666)
(222.708 -25.7801 -72.4335)
(226.17 -23.143 -77.4745)
(229.574 -20.4514 -83.2833)
(232.983 -17.7102 -90.4331)
(236.443 -14.9184 -100.241)
(239.667 -12.0374 -115.362)
(240.099 -9.43152 -142.703)
(214.217 -7.95953 -194.404)
(215.491 -36.7517 -70.3448)
(219.212 -33.9987 -74.6969)
(222.741 -31.1417 -79.4463)
(226.22 -28.1415 -84.5967)
(229.653 -25.069 -90.5448)
(233.083 -21.918 -97.7738)
(236.575 -18.6348 -107.491)
(240.117 -15.0815 -122.393)
(241.627 -11.3663 -150.026)
(216.604 -8.24823 -203.158)
(214.414 -41.1588 -78.2962)
(218.146 -38.0946 -82.5002)
(221.694 -34.913 -87.1264)
(225.179 -31.5638 -92.1854)
(228.553 -28.0597 -98.052)
(231.83 -24.3643 -105.177)
(235.11 -20.3829 -114.654)
(238.693 -15.9208 -128.882)
(241.412 -11.0199 -155.984)
(218.28 -6.23588 -209.372)
(204.287 6.14187 1.56077)
(205.216 4.5976 -1.86951)
(205.643 3.24358 -5.77669)
(205.454 2.1056 -10.2261)
(204.462 1.18212 -15.3693)
(202.338 0.483651 -21.3314)
(198.576 0.00793723 -28.162)
(192.52 -0.272223 -35.6716)
(182.722 -0.419354 -42.8901)
(164.054 -0.559859 -45.4027)
(208.273 9.63061 1.58871)
(209.651 8.68323 -1.42689)
(210.608 7.71586 -4.82936)
(210.99 6.78495 -8.67462)
(210.66 5.89237 -13.1611)
(209.331 5.02091 -18.5789)
(206.393 4.15038 -25.3167)
(200.925 3.27394 -33.6388)
(191.474 2.35866 -43.4757)
(171.615 1.28196 -50.4689)
(210.602 9.17321 3.66792)
(212.331 8.46386 0.906339)
(213.709 7.67651 -2.18004)
(214.635 6.83781 -5.75894)
(214.974 5.97578 -9.99402)
(214.501 5.06907 -15.2707)
(212.627 4.09055 -22.1931)
(208.211 3.02131 -31.4292)
(199.589 1.82891 -43.774)
(178.839 0.424409 -55.8122)
(211.625 9.51158 5.41712)
(213.843 8.86801 2.74403)
(215.766 8.12465 -0.265059)
(217.32 7.30178 -3.81316)
(218.343 6.42632 -8.05978)
(218.619 5.48101 -13.4041)
(217.599 4.43941 -20.5564)
(214.076 3.27291 -30.5169)
(206.237 1.91593 -44.9312)
(184.752 0.280181 -61.8752)
(212.302 8.86335 7.33383)
(214.958 8.11908 4.71328)
(217.357 7.26681 1.68139)
(219.445 6.34746 -1.90323)
(221.062 5.36326 -6.25671)
(221.986 4.29936 -11.7489)
(221.698 3.11852 -19.1578)
(218.988 1.78932 -29.7737)
(211.908 0.232947 -45.9992)
(189.777 -1.60939 -67.6742)
(212.482 9.22587 8.2338)
(215.489 8.40123 5.70277)
(218.256 7.45335 2.71599)
(220.754 6.45542 -0.831335)
(222.843 5.40131 -5.21046)
(224.293 4.2908 -10.7671)
(224.614 3.08609 -18.3207)
(222.627 1.75179 -29.4105)
(216.242 0.16593 -47.0609)
(193.407 -1.76361 -72.9478)
(212.713 8.24669 9.38503)
(215.964 7.24595 6.91927)
(218.973 6.14102 3.932)
(221.74 5.02116 0.387515)
(224.156 3.8594 -4.03182)
(225.999 2.6664 -9.64727)
(226.826 1.40691 -17.3016)
(225.536 0.0624802 -28.7705)
(219.921 -1.45641 -47.6558)
(196.59 -3.27692 -77.5005)
(212.624 8.55065 9.26113)
(216.002 7.44524 6.95833)
(219.132 6.26282 4.1208)
(222.039 5.09412 0.713703)
(224.637 3.91369 -3.58614)
(226.729 2.74638 -9.08051)
(227.934 1.58622 -16.6046)
(227.294 0.444819 -28.1093)
(222.61 -0.766608 -47.7904)
(199.272 -2.38984 -81.148)
(212.667 6.69728 9.83876)
(216.077 5.42144 7.71189)
(219.25 4.15468 4.99992)
(222.242 2.94473 1.68664)
(224.994 1.74725 -2.59764)
(227.317 0.586521 -8.13107)
(228.85 -0.513938 -15.7029)
(228.776 -1.48035 -27.2273)
(225.07 -2.19532 -47.6301)
(201.919 -3.22086 -84.0148)
(211.7 6.48517 9.27353)
(215.122 5.09093 7.43996)
(218.337 3.73915 5.04452)
(221.374 2.44983 2.02412)
(224.158 1.23649 -1.96944)
(226.52 0.14503 -7.25142)
(228.173 -0.75632 -14.6343)
(228.475 -1.31584 -25.7662)
(225.911 -1.36178 -46.3566)
(203.736 -1.22802 -84.6918)
(198.502 4.90331 0.455691)
(198.995 3.72673 -2.21842)
(198.963 2.70212 -5.1527)
(198.328 1.84194 -8.36191)
(196.956 1.16299 -11.8019)
(194.671 0.6733 -15.3717)
(191.252 0.357825 -18.872)
(186.466 0.163078 -21.9773)
(179.959 0.00972698 -23.9476)
(171.053 -0.208881 -23.007)
(203.359 8.23773 0.413333)
(204.286 7.46129 -2.14126)
(204.732 6.65345 -4.96435)
(204.569 5.8621 -8.06764)
(203.624 5.09812 -11.4886)
(201.636 4.35895 -15.214)
(198.223 3.63382 -19.1707)
(192.878 2.90684 -23.1366)
(184.898 2.16269 -26.4403)
(173.284 1.3654 -27.0813)
(206.384 7.99806 2.32955)
(207.692 7.37301 -0.1512)
(208.568 6.66352 -2.91288)
(208.893 5.90397 -6.0311)
(208.503 5.11599 -9.57127)
(207.105 4.28842 -13.638)
(204.19 3.40771 -18.3053)
(198.99 2.46005 -23.4944)
(190.41 1.4332 -28.6736)
(176.484 0.30156 -31.7282)
(207.986 8.4488 3.94705)
(209.768 7.86878 1.47351)
(211.164 7.18562 -1.30419)
(212.068 6.41891 -4.5404)
(212.285 5.59911 -8.2899)
(211.504 4.71091 -12.7322)
(209.13 3.7411 -18.0517)
(204.17 2.67361 -24.3468)
(195.176 1.4863 -31.3288)
(179.135 0.154556 -37.1168)
(209.098 7.86126 5.83578)
(211.309 7.1828 3.36041)
(213.172 6.39897 0.504497)
(214.595 5.53881 -2.86829)
(215.369 4.61635 -6.8565)
(215.171 3.61316 -11.6675)
(213.347 2.50565 -17.5861)
(208.73 1.2721 -24.9152)
(199.525 -0.11182 -33.654)
(181.632 -1.63698 -42.4726)
(209.616 8.30831 6.75543)
(212.186 7.55724 4.33645)
(214.429 6.6878 1.48999)
(216.272 5.75445 -1.90521)
(217.513 4.76564 -6.01031)
(217.819 3.71421 -11.0463)
(216.505 2.57391 -17.3859)
(212.274 1.31638 -25.5493)
(203 -0.111285 -35.8336)
(183.509 -1.72525 -47.7098)
(210.099 7.36061 7.99202)
(212.93 6.44682 5.61624)
(215.443 5.43645 2.74441)
(217.586 4.39731 -0.687966)
(219.181 3.31853 -4.90207)
(219.9 2.20068 -10.1253)
(219.052 1.01674 -16.8072)
(215.276 -0.257558 -25.7038)
(206.134 -1.65699 -37.4522)
(185.358 -3.20642 -52.4993)
(210.201 7.72694 7.96398)
(213.186 6.71557 5.7387)
(215.857 5.63439 3.00696)
(218.188 4.55593 -0.304146)
(220.027 3.47136 -4.4403)
(221.059 2.391 -9.63922)
(220.625 1.30625 -16.402)
(217.364 0.210755 -25.7026)
(208.596 -0.932777 -38.5856)
(186.939 -2.37356 -56.5961)
(210.357 5.9072 8.6251)
(213.388 4.72089 6.55313)
(216.12 3.54762 3.93468)
(218.556 2.42414 0.722033)
(220.583 1.33013 -3.39201)
(221.905 0.278785 -8.66511)
(221.886 -0.709635 -15.6272)
(219.183 -1.60193 -25.3119)
(210.931 -2.29136 -39.2975)
(188.491 -3.29452 -59.8485)
(209.566 5.86761 8.11128)
(212.606 4.54727 6.2856)
(215.385 3.289 3.9601)
(217.87 2.08545 1.02345)
(219.94 0.9706 -2.80666)
(221.324 -0.0152426 -7.81117)
(221.525 -0.804028 -14.6)
(219.325 -1.2886 -24.1865)
(211.835 -1.30419 -38.8527)
(189.042 -1.1985 -60.8216)
(194.399 3.82616 -0.0958706)
(194.632 3.00822 -1.97572)
(194.422 2.29124 -3.97589)
(193.727 1.68767 -6.06924)
(192.489 1.21277 -8.16639)
(190.652 0.868727 -10.1441)
(188.19 0.640183 -11.8174)
(185.168 0.477 -12.9429)
(181.721 0.29913 -13.112)
(177.798 0.0197253 -11.7334)
(199.375 6.84098 -0.29691)
(199.954 6.26006 -2.29959)
(200.072 5.63642 -4.44047)
(199.641 5.00625 -6.72303)
(198.543 4.3893 -9.10072)
(196.635 3.78954 -11.4631)
(193.749 3.2008 -13.6252)
(189.746 2.61137 -15.2884)
(184.538 2.01652 -15.8843)
(178.268 1.42733 -14.6615)
(202.707 6.79104 1.32572)
(203.645 6.27399 -0.774897)
(204.133 5.66857 -3.08144)
(204.061 5.01324 -5.60361)
(203.293 4.32612 -8.34156)
(201.618 3.60512 -11.2507)
(198.748 2.84302 -14.1971)
(194.344 2.03046 -16.8712)
(188.077 1.16252 -18.5549)
(179.822 0.252907 -18.1477)
(204.681 7.36466 2.70995)
(206.052 6.8673 0.525623)
(206.994 6.26287 -1.90714)
(207.391 5.57726 -4.67156)
(207.065 4.83699 -7.76808)
(205.749 4.03538 -11.2177)
(203.035 3.1684 -14.9391)
(198.374 2.22711 -18.6536)
(191.163 1.20112 -21.5539)
(180.888 0.103753 -22.3268)
(206.121 6.84211 4.49077)
(207.898 6.24211 2.23805)
(209.267 5.53838 -0.341622)
(210.121 4.7566 -3.35048)
(210.245 3.91523 -6.80064)
(209.333 2.9984 -10.7698)
(206.872 1.99612 -15.2414)
(202.11 0.895296 -20.0152)
(194.132 -0.316624 -24.2501)
(181.954 -1.60146 -26.6178)
(206.921 7.3735 5.36761)
(209.05 6.70494 3.12524)
(210.785 5.92286 0.506952)
(212.032 5.07018 -2.60117)
(212.561 4.16423 -6.26059)
(212.038 3.19485 -10.5846)
(209.863 2.14921 -15.6313)
(205.099 1.00904 -21.3131)
(196.5 -0.257671 -26.8021)
(182.553 -1.63591 -30.9314)
(207.627 6.45859 6.64306)
(210.023 5.63562 4.41037)
(212.035 4.72368 1.72967)
(213.583 3.77435 -1.47287)
(214.446 2.78922 -5.31982)
(214.271 1.76214 -9.95006)
(212.404 0.677772 -15.5028)
(207.756 -0.482501 -22.0418)
(198.738 -1.74545 -28.8217)
(183.238 -3.0956 -34.9916)
(207.904 6.90421 6.67523)
(210.471 5.98954 4.57106)
(212.663 5.0102 2.00822)
(214.42 4.02412 -1.10645)
(215.54 3.03699 -4.93061)
(215.668 2.04954 -9.63322)
(214.126 1.05696 -15.4253)
(209.72 0.0492346 -22.545)
(200.543 -1.00689 -30.4237)
(183.789 -2.29548 -38.641)
(208.155 5.13116 7.44384)
(210.787 4.04294 5.46619)
(213.056 2.96624 2.98999)
(214.928 1.93003 -0.0440009)
(216.235 0.933399 -3.8573)
(216.641 -0.016242 -8.66088)
(215.47 -0.894247 -14.7452)
(211.449 -1.68552 -22.4622)
(202.345 -2.32849 -31.536)
(184.414 -3.25681 -41.645)
(207.482 5.26314 6.98301)
(210.132 4.03834 5.21738)
(212.461 2.88432 3.008)
(214.398 1.7784 0.223738)
(215.777 0.770805 -3.33172)
(216.275 -0.105361 -7.88393)
(215.307 -0.777878 -13.8116)
(211.664 -1.16514 -21.596)
(202.97 -1.14091 -31.5518)
(184.156 -1.05137 -42.6977)
(191.873 2.90987 -0.317606)
(191.985 2.37833 -1.54423)
(191.779 1.90328 -2.82094)
(191.239 1.49815 -4.10471)
(190.353 1.17338 -5.31833)
(189.12 0.929249 -6.3696)
(187.579 0.755069 -7.13775)
(185.865 0.610877 -7.50624)
(184.262 0.428794 -7.30399)
(182.945 0.12744 -6.34009)
(196.41 5.53562 -0.659441)
(196.764 5.1387 -2.12925)
(196.737 4.68863 -3.64599)
(196.277 4.21438 -5.20738)
(195.328 3.73933 -6.74516)
(193.83 3.27119 -8.14967)
(191.74 2.80983 -9.26238)
(189.069 2.34969 -9.87499)
(185.928 1.89377 -9.68234)
(182.648 1.46612 -8.45875)
(199.663 5.61442 0.643694)
(200.321 5.21053 -1.04225)
(200.567 4.719 -2.85818)
(200.323 4.17726 -4.77947)
(199.498 3.60273 -6.76801)
(197.973 2.99909 -8.72593)
(195.622 2.36369 -10.4864)
(192.352 1.69238 -11.7752)
(188.181 0.986869 -12.1175)
(183.469 0.274566 -11.0367)
(201.769 6.29979 1.74606)
(202.8 5.89457 -0.0980071)
(203.41 5.3824 -2.12411)
(203.498 4.7922 -4.36171)
(202.932 4.1486 -6.77291)
(201.527 3.45221 -9.29331)
(199.055 2.70434 -11.7553)
(195.278 1.90226 -13.8369)
(190.063 1.04376 -14.8834)
(183.75 0.160314 -14.181)
(203.389 5.83734 3.36371)
(204.787 5.32472 1.39003)
(205.763 4.71036 -0.849514)
(206.213 4.02184 -3.40381)
(205.959 3.27594 -6.24048)
(204.763 2.46445 -9.33598)
(202.291 1.58521 -12.5417)
(198.141 0.63172 -15.525)
(191.969 -0.402498 -17.464)
(184.02 -1.46716 -17.4865)
(204.374 6.44826 4.14756)
(206.105 5.87014 2.13623)
(207.414 5.18274 -0.18902)
(208.2 4.42383 -2.91343)
(208.256 3.61446 -6.02556)
(207.3 2.74653 -9.54501)
(204.898 1.81613 -13.3596)
(200.477 0.811345 -17.1607)
(193.437 -0.290372 -19.9886)
(183.873 -1.45832 -20.8988)
(205.241 5.56638 5.41847)
(207.236 4.84024 3.37849)
(208.81 4.03068 0.949924)
(209.873 3.17983 -1.92801)
(210.206 2.29715 -5.29505)
(209.495 1.37561 -9.20233)
(207.223 0.408102 -13.5943)
(202.656 -0.619937 -18.2269)
(194.9 -1.73329 -22.0551)
(183.822 -2.89672 -24.1548)
(205.656 6.09939 5.47487)
(207.832 5.28845 3.53447)
(209.592 4.41526 1.19322)
(210.863 3.52883 -1.63937)
(211.429 2.64441 -5.03947)
(210.959 1.76032 -9.0966)
(208.879 0.87459 -13.8181)
(204.314 -0.0269109 -19.0626)
(196.06 -0.979385 -23.7815)
(183.65 -2.10566 -27.1466)
(206 4.37197 6.33855)
(208.255 3.39224 4.49348)
(210.104 2.41968 2.20276)
(211.492 1.48081 -0.583777)
(212.226 0.58691 -4.00394)
(211.982 -0.255357 -8.19297)
(210.163 -1.02272 -13.2539)
(205.773 -1.71372 -19.1538)
(197.262 -2.29624 -24.949)
(183.59 -3.10542 -29.6311)
(205.426 4.67557 5.90449)
(207.709 3.56394 4.24394)
(209.627 2.52411 2.19129)
(211.088 1.52909 -0.37862)
(211.905 0.638078 -3.58393)
(211.755 -0.11992 -7.57585)
(210.085 -0.676358 -12.531)
(205.891 -0.968866 -18.5393)
(197.461 -0.914001 -25.1209)
(182.769 -0.833291 -30.4956)
(190.513 2.15591 -0.357155)
(190.573 1.82868 -1.11083)
(190.422 1.52748 -1.88498)
(190.061 1.26492 -2.63754)
(189.495 1.04685 -3.3171)
(188.74 0.873312 -3.86654)
(187.844 0.738968 -4.21471)
(186.936 0.61422 -4.31959)
(186.308 0.444388 -4.1033)
(186.249 0.142273 -3.53157)
(194.35 4.38315 -0.791836)
(194.563 4.13897 -1.81194)
(194.49 3.83606 -2.82681)
(194.106 3.49739 -3.83411)
(193.39 3.14611 -4.77368)
(192.333 2.79193 -5.56577)
(190.944 2.4399 -6.10668)
(189.275 2.09037 -6.27867)
(187.444 1.75139 -5.93514)
(185.684 1.44601 -5.04339)
(197.27 4.51696 0.221478)
(197.72 4.21902 -1.0661)
(197.828 3.83835 -2.4237)
(197.545 3.40782 -3.81691)
(196.819 2.94408 -5.19559)
(195.6 2.45381 -6.46203)
(193.855 1.93822 -7.47901)
(191.601 1.39808 -8.06101)
(188.952 0.840642 -7.95005)
(186.232 0.29342 -6.97132)
(199.317 5.28898 1.03444)
(200.072 4.97678 -0.456063)
(200.449 4.56207 -2.06555)
(200.372 4.07301 -3.79373)
(199.754 3.533 -5.58436)
(198.49 2.94733 -7.3452)
(196.477 2.32064 -8.91042)
(193.66 1.6556 -10.0258)
(190.103 0.957988 -10.2797)
(186.225 0.263132 -9.32752)
(200.981 4.87434 2.45889)
(202.054 4.45211 0.793614)
(202.726 3.9328 -1.07469)
(202.908 3.34427 -3.15246)
(202.47 2.70164 -5.38503)
(201.255 2.00318 -7.69665)
(199.076 1.25119 -9.90795)
(195.772 0.444943 -11.7141)
(191.306 -0.41405 -12.5291)
(186.164 -1.27404 -11.8521)
(202.059 5.55438 3.11436)
(203.434 5.07046 1.37035)
(204.391 4.48218 -0.623438)
(204.836 3.82552 -2.91399)
(204.605 3.12075 -5.45217)
(203.489 2.36434 -8.19261)
(201.215 1.55741 -10.9588)
(197.496 0.693462 -13.4195)
(192.142 -0.239602 -14.8158)
(185.674 -1.20358 -14.5098)
(203.023 4.70351 4.34357)
(204.649 4.07791 2.53391)
(205.846 3.37333 0.39991)
(206.526 2.62716 -2.09267)
(206.497 1.85232 -4.92758)
(205.514 1.04395 -8.08798)
(203.218 0.200065 -11.423)
(199.187 -0.689915 -14.6062)
(193.029 -1.6433 -16.729)
(185.246 -2.61265 -17.0499)
(203.534 5.32677 4.38963)
(205.342 4.62476 2.64773)
(206.719 3.86161 0.567915)
(207.585 3.08174 -1.92151)
(207.743 2.30519 -4.83352)
(206.918 1.53126 -8.18815)
(204.681 0.759562 -11.8749)
(200.478 -0.0268649 -15.6102)
(193.674 -0.860305 -18.3867)
(184.67 -1.80723 -19.4005)
(203.955 3.64028 5.32539)
(205.853 2.77607 3.64502)
(207.323 1.91344 1.57493)
(208.302 1.08016 -0.912265)
(208.597 0.29364 -3.88518)
(207.928 -0.438183 -7.40183)
(205.828 -1.0957 -11.4355)
(201.619 -1.68824 -15.7779)
(194.38 -2.19898 -19.4231)
(184.207 -2.85857 -21.2824)
(203.452 4.11682 4.89248)
(205.386 3.12991 3.37279)
(206.931 2.21113 1.5112)
(207.985 1.33587 -0.795124)
(208.363 0.56604 -3.60044)
(207.775 -0.0718232 -6.98256)
(205.76 -0.517631 -10.9718)
(201.591 -0.727359 -15.4269)
(194.213 -0.654252 -19.645)
(183.069 -0.570739 -21.8918)
(189.939 1.55396 -0.313737)
(189.978 1.36005 -0.755557)
(189.886 1.17476 -1.20892)
(189.668 1.00935 -1.63774)
(189.334 0.866233 -2.01287)
(188.902 0.745903 -2.30191)
(188.408 0.646953 -2.46243)
(187.959 0.546481 -2.48987)
(187.828 0.398942 -2.33368)
(188.408 0.107507 -2.02519)
(193.024 3.41308 -0.792317)
(193.154 3.28317 -1.46843)
(193.086 3.09478 -2.11577)
(192.807 2.86562 -2.73509)
(192.315 2.61652 -3.28266)
(191.62 2.35764 -3.70769)
(190.746 2.09705 -3.95061)
(189.744 1.83926 -3.95263)
(188.695 1.59473 -3.64726)
(187.735 1.38108 -3.05666)
(195.481 3.53415 -0.0130251)
(195.784 3.32619 -0.953526)
(195.822 3.04388 -1.92421)
(195.569 2.71411 -2.89357)
(195.001 2.35187 -3.81548)
(194.106 1.96485 -4.61336)
(192.891 1.55689 -5.19187)
(191.404 1.13209 -5.43979)
(189.756 0.700235 -5.22843)
(188.159 0.28433 -4.51107)
(197.331 4.36071 0.532278)
(197.872 4.13465 -0.623851)
(198.097 3.81385 -1.84775)
(197.954 3.42357 -3.12787)
(197.393 2.9857 -4.40629)
(196.365 2.5082 -5.59567)
(194.84 1.99789 -6.56437)
(192.84 1.46122 -7.13946)
(190.481 0.909038 -7.09088)
(188.077 0.373337 -6.27224)
(198.928 3.97712 1.75638)
(199.733 3.64192 0.401037)
(200.181 3.21711 -1.09947)
(200.205 2.7283 -2.72721)
(199.72 2.18968 -4.42068)
(198.633 1.60394 -6.0906)
(196.861 0.976194 -7.57602)
(194.372 0.310276 -8.64516)
(191.25 -0.385816 -8.93393)
(187.916 -1.06589 -8.18744)
(200.011 4.71092 2.26464)
(201.08 4.31958 0.802128)
(201.76 3.83058 -0.848943)
(201.973 3.2781 -2.70264)
(201.601 2.68015 -4.69712)
(200.507 2.03781 -6.75486)
(198.542 1.35506 -8.69718)
(195.595 0.630267 -10.2447)
(191.684 -0.139203 -10.8854)
(187.325 -0.916367 -10.2415)
(201.012 3.88674 3.42413)
(202.31 3.36118 1.86564)
(203.196 2.76119 0.0461489)
(203.591 2.12156 -2.03838)
(203.348 1.45541 -4.34373)
(202.289 0.76151 -6.8111)
(200.195 0.0410698 -9.26279)
(196.862 -0.711859 -11.3916)
(192.19 -1.50525 -12.5388)
(186.771 -2.28901 -12.1979)
(201.573 4.59834 3.43095)
(203.046 4.00636 1.91014)
(204.094 3.35426 0.114749)
(204.645 2.68415 -2.00107)
(204.533 2.01715 -4.40948)
(203.549 1.3549 -7.08174)
(201.409 0.698541 -9.85738)
(197.803 0.0316192 -12.432)
(192.475 -0.673446 -14.0227)
(186.032 -1.44507 -14.0111)
(202.048 2.94569 4.41539)
(203.617 2.1995 2.92268)
(204.76 1.44917 1.09679)
(205.411 0.725304 -1.0614)
(205.401 0.0468701 -3.5711)
(204.506 -0.576378 -6.42817)
(202.395 -1.12821 -9.53143)
(198.661 -1.62288 -12.6137)
(192.84 -2.0517 -14.8545)
(185.413 -2.56528 -15.3598)
(201.594 3.59703 3.96012)
(203.203 2.74071 2.60718)
(204.42 1.94613 0.961671)
(205.142 1.19433 -1.04921)
(205.203 0.545034 -3.43311)
(204.365 0.0226765 -6.20725)
(202.284 -0.323348 -9.31211)
(198.483 -0.464655 -12.5013)
(192.409 -0.383185 -15.1191)
(184.17 -0.298687 -15.7969)
(189.836 1.08588 -0.241199)
(189.866 0.973336 -0.49024)
(189.817 0.861098 -0.750784)
(189.695 0.759344 -0.991622)
(189.509 0.667864 -1.19909)
(189.271 0.587561 -1.35554)
(189.009 0.519461 -1.43305)
(188.807 0.444497 -1.44486)
(188.919 0.322715 -1.34421)
(189.826 0.0469007 -1.19447)
(192.245 2.62922 -0.728159)
(192.327 2.5776 -1.15914)
(192.278 2.47221 -1.55449)
(192.094 2.32624 -1.91865)
(191.779 2.15758 -2.22353)
(191.345 1.97587 -2.43893)
(190.815 1.79012 -2.53268)
(190.226 1.60659 -2.47698)
(189.63 1.43639 -2.24268)
(189.098 1.29195 -1.85928)
(194.208 2.68798 -0.121603)
(194.41 2.54959 -0.78296)
(194.419 2.34779 -1.45208)
(194.221 2.1035 -2.10365)
(193.81 1.82928 -2.70183)
(193.189 1.53248 -3.19364)
(192.379 1.21809 -3.51918)
(191.427 0.891503 -3.61653)
(190.413 0.56238 -3.4231)
(189.462 0.248384 -2.93727)
(195.787 3.5366 0.194298)
(196.168 3.384 -0.669127)
(196.298 3.14673 -1.56349)
(196.146 2.84645 -2.47593)
(195.687 2.50305 -3.35629)
(194.906 2.12565 -4.13537)
(193.807 1.7222 -4.72071)
(192.435 1.30113 -5.00449)
(190.894 0.875021 -4.86512)
(189.387 0.47013 -4.24633)
(197.233 3.1658 1.2282)
(197.824 2.90899 0.161425)
(198.116 2.57216 -1.00247)
(198.061 2.17732 -2.23512)
(197.607 1.7378 -3.47861)
(196.711 1.25895 -4.65184)
(195.348 0.747601 -5.63013)
(193.542 0.210534 -6.25438)
(191.404 -0.340958 -6.31298)
(189.23 -0.869012 -5.68723)
(198.254 3.9345 1.58564)
(199.066 3.62912 0.398185)
(199.537 3.23493 -0.923145)
(199.606 2.78259 -2.37251)
(199.194 2.28865 -3.8866)
(198.223 1.75732 -5.38293)
(196.625 1.19435 -6.71018)
(194.386 0.601807 -7.65948)
(191.599 -0.0164211 -7.9117)
(188.661 -0.629644 -7.26164)
(199.238 3.13108 2.65748)
(200.251 2.70067 1.3537)
(200.89 2.2014 -0.152826)
(201.089 1.66565 -1.84023)
(200.743 1.10498 -3.65665)
(199.737 0.522161 -5.52445)
(197.952 -0.0796258 -7.27952)
(195.319 -0.701852 -8.6722)
(191.878 -1.34478 -9.26759)
(188.119 -1.96231 -8.74881)
(199.803 3.92497 2.60372)
(200.978 3.43963 1.31325)
(201.757 2.89598 -0.192254)
(202.076 2.33441 -1.93304)
(201.808 1.77464 -3.86082)
(200.809 1.22117 -5.91861)
(198.909 0.676652 -7.94177)
(195.965 0.127831 -9.66236)
(191.933 -0.447543 -10.5327)
(187.364 -1.05958 -10.1317)
(200.311 2.29702 3.61626)
(201.581 1.66679 2.32367)
(202.448 1.0275 0.752611)
(202.851 0.412392 -1.06888)
(202.652 -0.161059 -3.13033)
(201.686 -0.681505 -5.38616)
(199.741 -1.1354 -7.70586)
(196.603 -1.53725 -9.82732)
(192.101 -1.8809 -11.1574)
(186.757 -2.26556 -11.0611)
(199.882 3.12532 3.11773)
(201.193 2.4001 1.94701)
(202.13 1.72888 0.531747)
(202.594 1.09922 -1.17031)
(202.448 0.565119 -3.1371)
(201.512 0.148827 -5.34285)
(199.551 -0.111577 -7.68506)
(196.29 -0.20021 -9.89516)
(191.501 -0.118007 -11.4579)
(185.521 -0.0387641 -11.3987)
(189.983 0.728496 -0.165364)
(190.008 0.662956 -0.300854)
(189.985 0.594606 -0.450914)
(189.92 0.53316 -0.586482)
(189.82 0.476288 -0.703858)
(189.694 0.42501 -0.79345)
(189.56 0.381605 -0.834252)
(189.486 0.329132 -0.848338)
(189.71 0.231353 -0.786057)
(190.782 -0.0284677 -0.72886)
(191.844 2.0181 -0.64164)
(191.896 2.01595 -0.907157)
(191.866 1.96704 -1.1381)
(191.753 1.88093 -1.34164)
(191.561 1.77263 -1.50168)
(191.301 1.65089 -1.60113)
(190.989 1.5245 -1.6232)
(190.65 1.39991 -1.55484)
(190.313 1.28761 -1.38332)
(190.015 1.1958 -1.13281)
(193.346 1.98495 -0.151842)
(193.48 1.89586 -0.602895)
(193.48 1.75562 -1.05175)
(193.339 1.57983 -1.47888)
(193.058 1.3782 -1.85896)
(192.645 1.15702 -2.1576)
(192.123 0.921202 -2.33914)
(191.526 0.675981 -2.37075)
(190.907 0.429356 -2.22225)
(190.336 0.193935 -1.90549)
(194.632 2.8288 -0.0209841)
(194.895 2.73426 -0.644156)
(194.97 2.56643 -1.27502)
(194.838 2.34344 -1.90336)
(194.489 2.08273 -2.4899)
(193.924 1.79348 -2.9847)
(193.16 1.48386 -3.32762)
(192.242 1.16276 -3.45545)
(191.247 0.842374 -3.3067)
(190.298 0.543074 -2.86222)
(195.879 2.45403 0.843823)
(196.305 2.26368 0.0293608)
(196.492 2.00432 -0.846138)
(196.407 1.69389 -1.75249)
(196.025 1.34451 -2.64038)
(195.327 0.962893 -3.44481)
(194.321 0.556608 -4.07752)
(193.047 0.133772 -4.43694)
(191.604 -0.293737 -4.4053)
(190.183 -0.696794 -3.93203)
(196.788 3.23758 1.05895)
(197.392 3.00795 0.124368)
(197.712 2.69987 -0.899407)
(197.7 2.33963 -1.99722)
(197.312 1.94255 -3.11086)
(196.507 1.51473 -4.16688)
(195.266 1.06289 -5.04994)
(193.617 0.59143 -5.6163)
(191.667 0.107573 -5.67702)
(189.689 -0.366317 -5.12829)
(197.713 2.44865 2.03462)
(198.488 2.10488 0.974174)
(198.938 1.69941 -0.237959)
(199.013 1.26066 -1.5653)
(198.642 0.799292 -2.95572)
(197.759 0.320635 -4.3313)
(196.314 -0.170783 -5.55833)
(194.305 -0.672926 -6.45217)
(191.824 -1.18136 -6.74301)
(189.232 -1.65704 -6.24452)
(198.244 3.31567 1.90699)
(199.16 2.92958 0.843499)
(199.726 2.48829 -0.382031)
(199.885 2.02983 -1.77011)
(199.55 1.57144 -3.26628)
(198.629 1.1201 -4.80184)
(197.033 0.679724 -6.23215)
(194.72 0.241174 -7.34715)
(191.746 -0.212143 -7.78777)
(188.535 -0.684994 -7.2948)
(198.763 1.70174 2.93146)
(199.77 1.18124 1.84071)
(200.412 0.648103 0.522292)
(200.637 0.137073 -0.974075)
(200.341 -0.337708 -2.62449)
(199.414 -0.763809 -4.36122)
(197.731 -1.13009 -6.05528)
(195.205 -1.44919 -7.48191)
(191.823 -1.71371 -8.24137)
(188.028 -1.99241 -7.9272)
(198.34 2.70919 2.37172)
(199.386 2.11075 1.38846)
(200.089 1.55814 0.206211)
(200.363 1.04478 -1.19096)
(200.102 0.616818 -2.76586)
(199.178 0.294119 -4.46698)
(197.449 0.104096 -6.18187)
(194.778 0.0533382 -7.66582)
(191.126 0.130119 -8.55491)
(186.855 0.198026 -8.19713)
(190.239 0.457502 -0.0960822)
(190.261 0.417871 -0.167054)
(190.251 0.374781 -0.256327)
(190.218 0.338051 -0.334666)
(190.166 0.303623 -0.404682)
(190.1 0.272469 -0.460971)
(190.034 0.247418 -0.485684)
(190.022 0.212765 -0.505929)
(190.29 0.135172 -0.467602)
(191.44 -0.110533 -0.464473)
(191.684 1.55681 -0.556186)
(191.718 1.58351 -0.714563)
(191.702 1.57096 -0.842187)
(191.636 1.52589 -0.947695)
(191.524 1.46085 -1.02319)
(191.373 1.38355 -1.05936)
(191.193 1.3021 -1.0477)
(191 1.22244 -0.981885)
(190.811 1.15413 -0.856309)
(190.644 1.10208 -0.687884)
(192.79 1.41764 -0.137325)
(192.879 1.3607 -0.437669)
(192.877 1.26499 -0.733144)
(192.784 1.14149 -1.00897)
(192.6 0.997082 -1.24831)
(192.337 0.836642 -1.42957)
(192.008 0.664324 -1.53195)
(191.639 0.48434 -1.53825)
(191.263 0.302468 -1.43358)
(190.921 0.127006 -1.23232)
(193.799 2.23907 -0.148646)
(193.978 2.18738 -0.584337)
(194.022 2.07418 -1.01518)
(193.92 1.9144 -1.4346)
(193.67 1.72277 -1.81402)
(193.278 1.5078 -2.11927)
(192.762 1.27709 -2.31285)
(192.159 1.03899 -2.35906)
(191.521 0.804281 -2.2281)
(190.924 0.588489 -1.91506)
(194.83 1.84783 0.573386)
(195.13 1.71093 -0.0314158)
(195.249 1.51662 -0.67252)
(195.164 1.27888 -1.32265)
(194.864 1.00826 -1.94268)
(194.346 0.71176 -2.48415)
(193.627 0.396874 -2.88781)
(192.749 0.0717981 -3.09183)
(191.786 -0.252609 -3.0328)
(190.859 -0.554866 -2.6925)
(195.599 2.62729 0.663078)
(196.039 2.46127 -0.0503986)
(196.252 2.228 -0.819534)
(196.205 1.9492 -1.62697)
(195.873 1.63872 -2.42315)
(195.239 1.30349 -3.14861)
(194.31 0.950609 -3.72088)
(193.128 0.585554 -4.04659)
(191.783 0.216626 -4.01828)
(190.457 -0.141643 -3.58769)
(196.438 1.8478 1.54169)
(197.017 1.57979 0.702364)
(197.328 1.25841 -0.246668)
(197.332 0.907349 -1.26398)
(196.987 0.53647 -2.30182)
(196.258 0.152367 -3.29151)
(195.133 -0.239697 -4.13209)
(193.644 -0.635422 -4.69556)
(191.888 -1.02837 -4.82316)
(190.111 -1.38671 -4.40927)
(196.901 2.77697 1.33456)
(197.6 2.47972 0.484192)
(198.002 2.13184 -0.482924)
(198.061 1.76752 -1.55705)
(197.72 1.40195 -2.68412)
(196.927 1.04318 -3.79698)
(195.645 0.696001 -4.77901)
(193.886 0.354804 -5.47806)
(191.738 0.00831384 -5.66888)
(189.504 -0.348335 -5.20704)
(197.416 1.16532 2.3601)
(198.197 0.744902 1.46307)
(198.662 0.309994 0.384019)
(198.768 -0.105206 -0.814293)
(198.443 -0.490023 -2.10419)
(197.618 -0.831921 -3.41178)
(196.233 -1.12202 -4.62607)
(194.271 -1.37075 -5.57056)
(191.791 -1.56846 -5.9902)
(189.129 -1.76579 -5.64337)
(196.984 2.35425 1.72423)
(197.797 1.87421 0.924341)
(198.314 1.43198 -0.032803)
(198.454 1.02546 -1.14344)
(198.147 0.692 -2.36631)
(197.308 0.449026 -3.63849)
(195.861 0.314742 -4.8573)
(193.757 0.289583 -5.82139)
(191.047 0.356936 -6.29482)
(188.041 0.410534 -5.85618)
(190.522 0.25021 -0.0352779)
(190.541 0.224277 -0.070673)
(190.538 0.195082 -0.12791)
(190.522 0.173 -0.176134)
(190.496 0.152604 -0.22201)
(190.462 0.134781 -0.262249)
(190.43 0.122583 -0.2804)
(190.447 0.101181 -0.306977)
(190.722 0.0399493 -0.283008)
(191.9 -0.193814 -0.312781)
(191.666 1.21928 -0.482939)
(191.689 1.26137 -0.574027)
(191.682 1.27103 -0.638518)
(191.645 1.25292 -0.685455)
(191.582 1.21761 -0.712245)
(191.495 1.17186 -0.713981)
(191.394 1.1229 -0.686519)
(191.285 1.076 -0.626623)
(191.18 1.03994 -0.531812)
(191.086 1.0173 -0.412626)
(192.45 0.970056 -0.100231)
(192.508 0.932305 -0.296756)
(192.507 0.867266 -0.489184)
(192.449 0.781992 -0.666363)
(192.334 0.680853 -0.817459)
(192.17 0.56723 -0.929192)
(191.968 0.444211 -0.989445)
(191.743 0.314691 -0.989081)
(191.517 0.182184 -0.920124)
(191.311 0.0514299 -0.796002)
(193.221 1.7607 -0.216736)
(193.342 1.73862 -0.511847)
(193.369 1.66637 -0.796681)
(193.296 1.55616 -1.06793)
(193.124 1.41999 -1.3061)
(192.86 1.26522 -1.48864)
(192.521 1.09842 -1.59277)
(192.132 0.926821 -1.59864)
(191.726 0.759431 -1.49239)
(191.35 0.608183 -1.27367)
(194.038 1.34643 0.389419)
(194.247 1.2505 -0.0483224)
(194.322 1.1086 -0.506628)
(194.25 0.93111 -0.963179)
(194.028 0.726787 -1.38867)
(193.658 0.502138 -1.7488)
(193.159 0.263996 -2.00513)
(192.565 0.0197825 -2.12106)
(191.93 -0.221439 -2.06297)
(191.327 -0.444207 -1.82711)
(194.66 2.10528 0.375527)
(194.974 1.99029 -0.152736)
(195.114 1.81942 -0.713305)
(195.058 1.61005 -1.29057)
(194.792 1.37421 -1.84502)
(194.315 1.1188 -2.33157)
(193.642 0.850684 -2.69373)
(192.813 0.575442 -2.8731)
(191.899 0.30109 -2.8101)
(191.014 0.0359861 -2.48555)
(195.4 1.33285 1.16153)
(195.824 1.12862 0.51456)
(196.034 0.879927 -0.209411)
(196.004 0.605613 -0.970668)
(195.71 0.314537 -1.72858)
(195.137 0.0135394 -2.42753)
(194.293 -0.292017 -2.99517)
(193.217 -0.596763 -3.34636)
(191.994 -0.894194 -3.39219)
(190.785 -1.15822 -3.07329)
(195.772 2.31243 0.875946)