/*--------------------------------*- C++ -*----------------------------------*\
| =========                 |                                                 |
| \\      /  F ield         | foam-extend: Open Source CFD                    |
|  \\    /   O peration     | Version:     4.0                                |
|   \\  /    A nd           | Web:         http://www.foam-extend.org         |
|    \\/     M anipulation  |                                                 |
\*---------------------------------------------------------------------------*/
FoamFile
{
    version     2.0;
    format      ascii;
    class       volScalarField;
    location    "1150";
    object      epsilon;
}
// * * * * * * * * * * * * * * * * * * * * * * * * * * * * * * * * * * * * * //

dimensions      [0 2 -3 0 0 0 0];

internalField   nonuniform List<scalar> 
34480
(
4927.84
4925.82
4925.68
4927.16
4930.36
4935.44
4948.08
5002.12
5192.72
5725.1
657.098
603.287
602.297
654.389
840.388
1579.26
5109.03
22887.9
103867
382865
620.441
524.76
511.166
571.007
812.411
1833.26
7050.94
35143.5
172583
699102
525.671
440.482
428.591
486.547
735.905
1887.21
8227.76
44426.6
232166
1.01014e+06
456.868
385.33
378.097
434.143
686.498
1931.16
9187.73
52612.2
289127
1.33245e+06
392.375
333.057
327.024
379.152
629.689
1959.76
10133.2
61080.1
350620
1.69739e+06
352.901
302.768
298.552
346.784
592.4
1965.74
10737.2
67234.9
400328
2.02116e+06
321.122
282.127
277.852
317.79
534.909
1822.97
10360.4
67015
412620
2.16595e+06
459.989
436.057
433.523
458.993
597.558
1411.68
6847.66
43721.8
276024
1.49781e+06
5707.73
5707.69
5712.91
5724.7
5741.41
5761.44
5785.58
5821.51
5887.98
5956.73
4853.3
4850.84
4850.34
4851.81
4855.8
4862.68
4873.74
4900
4962.98
5184.78
513.427
480.071
474.339
488.492
533.06
649.959
1005.55
2361.49
11841.6
103984
448.716
385.49
371.755
391.211
460.214
648.029
1233.39
3575.33
21395.3
197882
400.652
339.78
326.37
346.179
417.9
622.253
1298.13
4297.5
30263.6
294812
366.274
311.744
301.319
320.666
391.891
600.658
1325.29
4820.77
38753.4
396492
326.416
279.274
269.588
287.005
353.029
555.499
1297.19
5189.99
47406.6
508601
302.364
260.924
252.863
268.234
329.412
522.368
1258.53
5370.1
54290.4
607902
282.979
250.022
242.426
254.114
301.887
457.263
1076.4
4836.26
55079.9
652233
432.816
411.04
405.994
413.482
443.643
532.023
848.993
2985.55
36468.1
467876
5590.48
5585.94
5586.26
5592.75
5604.32
5618.83
5638.1
5671.01
5738.56
5911.62
4768.25
4765.95
4765.2
4766.01
4768.6
4772.57
4777.26
4788.15
4812.38
4867.89
400.755
386.953
384.221
388.993
404.217
439.853
528.479
761.019
1524.03
5793.31
309.463
278.081
271.201
280.385
310.871
380.686
552.297
1033.34
2868.81
15036.5
291.169
257.347
249.686
260.305
295.574
379.744
599.128
1283.06
4418.29
28960.2
281.302
248.45
242.065
253.098
290.348
381.43
630.853
1484.87
6151.65
47849.3
261.491
231.382
224.964
235.442
271.275
362.528
626.855
1629.52
8168.28
73224.8
250.477
222.622
217.105
226.665
260.866
349.762
618.459
1728.36
10189.6
101720
242.997
220.157
214.798
222.47
249.88
322.572
550.894
1598.07
11074.7
123100
402.697
386.436
382.727
388.396
408.834
461.868
607.614
1237.63
7705.78
92312.9
5481.03
5473.76
5471.3
5474.74
5483.44
5495.33
5511.73
5542.38
5614.68
5799.99
4672.37
4670.99
4670.58
4671.21
4672.96
4675.05
4675.91
4678.76
4686.24
4702.52
328.94
324.556
323.687
324.791
328.936
339.512
365.825
422.67
543.295
946.572
220.231
206.872
203.989
208.022
221.431
249.785
310.086
446.608
774.715
2094.79
215.123
198.393
194.461
199.996
217.992
257.575
346.576
566.945
1171.85
4149.7
217.945
199.97
196.42
202.658
223.33
270.01
380.538
677.513
1613.84
7162.63
210.872
193.015
189.021
195.458
216.761
266.99
393.015
763.374
2121.68
11612.5
208.493
190.819
187.221
193.417
214.883
266.551
401.824
829.094
2639.17
17147.3
209.94
194.749
191.061
196.387
214.507
259.165
380.378
796.801
2868.47
21895.2
375.684
363.754
360.95
365.156
380.122
417.206
509.087
783.577
2186.86
16593.5
5359.21
5351.99
5349.29
5352.23
5360.41
5372.67
5389.7
5420.43
5487.06
5630.11
4567.15
4566.61
4566.49
4566.88
4567.79
4568.28
4566.87
4565.75
4565.71
4567.5
285.752
284.799
284.662
284.442
284.498
286.468
293.854
307.935
330.55
377.573
168.497
163.417
162.357
163.762
168.789
179.02
198.852
238.091
309.035
486.245
166.945
159.218
157.258
159.753
168.012
185.267
220.129
294.88
443.899
891.474
174.197
164.932
163.022
166.13
176.604
198.992
246.583
357.196
602.212
1499.31
173.751
163.619
161.153
164.723
176.495
202.793
261.969
411.722
785.002
2436.97
176.103
165.273
162.931
166.583
179.257
208.138
275.794
458.392
968.056
3644.61
183.333
173.511
170.963
174.365
185.725
212.361
277.037
464.375
1060.72
4755.04
351.382
342.816
340.651
343.55
354.094
379.442
438.429
581.997
1010.9
3823.74
5229.69
5222.66
5219.82
5222.29
5229.83
5241.79
5258.35
5286.6
5342.13
5444.32
4453.53
4453.63
4453.74
4453.95
4454.27
4453.68
4451.65
4449.55
4447.77
4446.68
259.932
259.822
259.87
259.367
258.441
258.316
260.235
263.642
268.487
276.009
139.812
138.132
137.854
138.228
139.833
143.075
148.991
159.541
175.599
203.717
137.849
134.475
133.552
134.592
138.135
145.197
158.15
182.716
222.846
303.538
145.241
140.744
139.81
141.243
146.219
156.285
175.629
215.552
286.674
458.411
147.462
141.986
140.549
142.424
148.599
161.658
188.15
247.695
364.483
702.251
151.8
145.449
144.02
146.061
153.211
168.618
201.064
278.742
444.724
1014.84
162.262
156.2
154.537
156.63
163.48
178.785
212.356
297.889
501.15
1322.33
329.535
323.659
322.06
324.018
331.361
348.727
387.264
467.912
640.44
1292.42
5091.87
5085.26
5082.46
5084.57
5091.41
5102.58
5117.98
5142.78
5185.72
5252.84
4332.22
4332.76
4333.03
4333.12
4333.03
4331.89
4330.02
4328
4326.17
4324.79
243.913
243.678
243.668
243.214
242.359
242.111
242.489
243.256
244.421
246.331
124.209
123.779
123.783
123.814
124.193
125.04
126.587
129.188
132.726
137.492
120.863
119.439
119.019
119.426
120.889
123.701
128.453
136.465
147.744
163.98
126.793
124.721
124.31
124.923
127.175
131.514
139.14
153.15
174.563
210.729
129.575
126.731
125.93
126.868
129.981
136.251
147.822
170.924
209.502
285.996
134.289
130.698
129.871
130.95
134.837
142.797
157.992
190.285
248.109
381.798
146.167
142.593
141.557
142.792
146.77
155.308
172.493
211.181
287.286
490.397
310.236
306.394
305.236
306.531
311.618
323.685
349.34
396.576
480.253
667.966
4945.52
4939.53
4936.91
4938.7
4944.75
4954.69
4968.36
4989.26
5021.62
5065.36
4203.73
4204.54
4204.9
4204.92
4204.6
4203.43
4201.93
4200.32
4198.88
4197.76
233.069
232.447
232.306
231.977
231.467
231.391
231.419
231.597
232.025
233.07
115.735
115.705
115.785
115.731
115.734
115.846
116.121
116.638
117.334
118.143
111.172
110.581
110.391
110.546
111.144
112.269
114.058
116.783
120.195
123.926
115.369
114.468
114.314
114.557
115.541
117.364
120.359
125.311
132.043
140.465
117.795
116.374
115.947
116.399
117.925
120.882
125.948
134.977
148.367
167.668
122.098
120.132
119.679
120.222
122.281
126.324
133.453
146.918
168.09
202.543
134.23
132.23
131.617
132.321
134.556
139.221
148.042
165.654
196.054
252.386
293.289
290.926
290.089
290.945
294.508
303.148
320.558
349.235
394.356
462.817
4790.47
4785.26
4782.92
4784.42
4789.61
4798.04
4809.66
4826.58
4850.39
4879.23
4068.49
4069.35
4069.76
4069.73
4069.29
4068.4
4067.29
4066.12
4065.08
4064.24
224.625
223.735
223.461
223.248
223.097
223.048
223.034
223.119
223.434
224.357
111.082
111.145
111.224
111.166
111.091
111.015
110.966
110.977
111.043
111.151
105.773
105.524
105.436
105.494
105.745
106.21
106.92
107.917
109.058
110.059
108.489
108.124
108.083
108.171
108.589
109.342
110.525
112.322
114.559
116.771
110.283
109.603
109.383
109.595
110.327
111.705
113.949
117.586
122.54
128.167
113.887
112.84
112.606
112.868
113.94
115.98
119.376
125.156
133.395
143.456
125.603
124.556
124.213
124.604
125.824
128.334
132.894
141.08
153.936
171.962
278.35
277.017
276.396
276.977
279.549
285.968
297.972
315.944
341.769
371.491
4626.72
4622.37
4620.38
4621.61
4625.9
4632.73
4642.2
4655.37
4672.41
4691.34
3926.79
3927.47
3927.9
3927.85
3927.5
3926.87
3926.1
3925.29
3924.58
3923.95
217.027
216.135
215.764
215.638
215.585
215.562
215.568
215.662
215.981
216.891
108.432
108.502
108.557
108.516
108.442
108.347
108.25
108.173
108.131
108.131
102.849
102.736
102.691
102.715
102.827
103.034
103.34
103.744
104.173
104.487
104.472
104.335
104.336
104.364
104.54
104.852
105.328
106.002
106.781
107.432
105.657
105.347
105.238
105.335
105.68
106.316
107.319
108.827
110.765
112.684
108.542
107.994
107.88
108.003
108.559
109.594
111.245
113.824
117.227
120.616
119.496
118.997
118.818
119.032
119.682
121.022
123.38
127.256
132.91
139.597
264.972
264.329
263.842
264.261
266.21
271.119
279.486
291.033
306.399
320.492
4454.4
4450.94
4449.33
4450.31
4453.7
4458.99
4466.41
4476.26
4488.13
4500.35
3778.73
3779.26
3779.61
3779.58
3779.35
3778.93
3778.41
3777.87
3777.4
3776.92
209.57
208.695
208.353
208.245
208.21
208.206
208.232
208.339
208.668
209.568
106.812
106.862
106.899
106.871
106.817
106.744
106.668
106.602
106.566
106.567
101.316
101.257
101.232
101.243
101.299
101.401
101.548
101.733
101.92
102.035
102.208
102.159
102.168
102.177
102.254
102.392
102.596
102.866
103.153
103.364
102.917
102.784
102.731
102.776
102.937
103.229
103.68
104.319
105.102
105.847
105.182
104.895
104.842
104.901
105.195
105.732
106.558
107.761
109.238
110.527
115.219
115.018
114.934
115.052
115.393
116.107
117.311
119.159
121.667
124.445
252.674
252.475
252.06
252.389
253.96
257.737
263.59
271.126
280.54
287.297
4273.79
4271.17
4269.94
4270.69
4273.24
4277.19
4282.76
4289.87
4297.9
4305.63
3624.44
3624.87
3625.14
3625.13
3624.99
3624.71
3624.37
3624.02
3623.71
3623.33
201.906
201.057
200.744
200.649
200.625
200.63
200.664
200.775
201.103
201.982
105.706
105.736
105.757
105.739
105.704
105.658
105.609
105.568
105.554
105.569
100.541
100.507
100.492
100.498
100.528
100.583
100.66
100.755
100.85
100.899
100.984
100.963
100.969
100.972
101.012
101.083
101.184
101.31
101.429
101.51
101.366
101.312
101.288
101.309
101.384
101.519
101.722
101.997
102.32
102.643
103.146
102.989
102.964
102.996
103.16
103.452
103.885
104.48
105.157
105.702
112.209
112.157
112.125
112.192
112.372
112.748
113.347
114.218
115.296
116.545
240.99
241.061
240.675
240.958
242.309
245.124
249.197
254.141
260.034
263.035
4085.32
4083.45
4082.58
4083.12
4084.92
4087.79
4091.81
4096.75
4102.01
4106.8
3464.13
3464.48
3464.69
3464.69
3464.6
3464.43
3464.21
3463.98
3463.78
3463.46
193.851
193.035
192.75
192.666
192.648
192.655
192.69
192.795
193.113
193.962
104.85
104.864
104.874
104.864
104.843
104.816
104.789
104.769
104.772
104.797
100.166
100.145
100.137
100.14
100.157
100.186
100.227
100.278
100.331
100.356
100.354
100.339
100.339
100.341
100.367
100.412
100.475
100.548
100.61
100.65
100.532
100.512
100.5
100.511
100.547
100.61
100.703
100.824
100.959
101.115
101.951
101.857
101.845
101.866
101.965
102.136
102.379
102.697
103.033
103.297
110.023
110.042
110.038
110.078
110.177
110.365
110.647
111.04
111.458
112.06
229.462
229.725
229.338
229.6
230.757
232.733
235.528
238.757
242.493
243.489
3889.57
3888.31
3887.73
3888.1
3889.31
3891.34
3894.13
3897.42
3900.75
3903.67
3298.08
3298.38
3298.54
3298.55
3298.5
3298.39
3298.25
3298.1
3297.97
3297.69
185.294
184.517
184.258
184.185
184.169
184.176
184.206
184.301
184.602
185.415
104.115
104.119
104.121
104.115
104.104
104.091
104.078
104.071
104.086
104.117
99.9949
99.983
99.9797
99.9812
99.989
100.003
100.023
100.049
100.079
100.093
100.049
100.034
100.029
100.031
100.051
100.085
100.132
100.183
100.224
100.251
100.112
100.104
100.098
100.104
100.122
100.153
100.197
100.252
100.31
100.394
101.263
101.202
101.194
101.211
101.276
101.386
101.534
101.72
101.905
102.058
108.335
108.39
108.399
108.426
108.477
108.564
108.682
108.843
108.955
109.271
217.568
218.078
217.745
218
218.813
220.164
222.036
224.117
226.489
226.413
3687.28
3686.43
3686.07
3686.3
3687.13
3688.5
3690.35
3692.45
3694.47
3696.21
3126.7
3126.96
3127.08
3127.09
3127.06
3126.99
3126.9
3126.81
3126.72
3126.47
176.152
175.418
175.184
175.122
175.109
175.113
175.137
175.218
175.499
176.272
103.44
103.437
103.434
103.431
103.426
103.422
103.419
103.42
103.441
103.475
99.9266
99.9213
99.9212
99.9216
99.9238
99.9279
99.9347
99.9453
99.9624
99.9721
99.9163
99.9006
99.8931
99.8948
99.9104
99.9381
99.9742
100.013
100.045
100.067
99.9198
99.9153
99.9114
99.9141
99.9241
99.941
99.9636
99.9904
100.016
100.066
100.866
100.821
100.815
100.829
100.876
100.95
101.047
101.166
101.279
101.387
106.926
106.994
107.014
107.03
107.053
107.088
107.125
107.175
107.152
107.339
205.072
205.721
205.517
205.696
206.24
207.129
208.334
209.646
211.131
210.516
3479.21
3478.66
3478.43
3478.59
3479.13
3480.01
3481.17
3482.44
3483.6
3484.62
2950.53
2950.74
2950.82
2950.84
2950.82
2950.78
2950.72
2950.66
2950.6
2950.38
166.342
165.655
165.448
165.397
165.387
165.388
165.404
165.471
165.728
166.459
102.799
102.793
102.787
102.785
102.784
102.785
102.788
102.794
102.818
102.855
99.91
99.909
99.9105
99.9103
99.9092
99.9075
99.9067
99.9086
99.9172
99.9261
99.8706
99.8556
99.8474
99.8485
99.8605
99.8818
99.9096
99.9396
99.9648
99.9832
99.847
99.8428
99.8397
99.841
99.847
99.8571
99.8698
99.8841
99.8961
99.9277
100.621
100.587
100.581
100.592
100.626
100.678
100.744
100.823
100.898
100.984
105.66
105.725
105.748
105.759
105.769
105.778
105.779
105.781
105.704
105.831
191.803
192.502
192.402
192.522
192.865
193.416
194.144
194.943
195.835
195.002
3266.25
3265.91
3265.78
3265.88
3266.2
3266.74
3267.43
3268.14
3268.75
3269.34
2770.28
2770.45
2770.52
2770.53
2770.52
2770.5
2770.46
2770.42
2770.37
2770.18
155.768
155.133
154.956
154.918
154.91
154.909
154.918
154.968
155.197
155.885
102.188
102.179
102.172
102.17
102.171
102.175
102.181
102.19
102.214
102.254
99.9191
99.9198
99.9217
99.9211
99.9184
99.9143
99.9101
99.9079
99.9116
99.9215
99.8672
99.8542
99.8469
99.8473
99.8557
99.8709
99.8907
99.9124
99.9317
99.9472
99.8354
99.8312
99.8285
99.829
99.8326
99.8387
99.8462
99.8543
99.8604
99.8803
100.444
100.417
100.412
100.42
100.444
100.479
100.524
100.576
100.627
100.698
104.459
104.512
104.534
104.542
104.546
104.544
104.531
104.516
104.427
104.524
177.614
178.294
178.275
178.352
178.548
178.852
179.237
179.695
180.177
179.331
3049.46
3049.27
3049.2
3049.25
3049.44
3049.73
3050.11
3050.47
3050.76
3051.09
2586.96
2587.1
2587.15
2587.16
2587.16
2587.14
2587.12
2587.09
2587.04
2586.88
144.297
143.722
143.582
143.557
143.552
143.549
143.551
143.585
143.775
144.415
101.613
101.601
101.594
101.592
101.594
101.599
101.606
101.616
101.636
101.677
99.9377
99.9375
99.9387
99.9378
99.9351
99.9311
99.9266
99.9237
99.9252
99.9367
99.8843
99.8742
99.8685
99.8685
99.8737
99.8833
99.896
99.9103
99.9239
99.9364
99.8555
99.8519
99.8498
99.8497
99.8516
99.8548
99.8587
99.8627
99.8657
99.8768
100.285
100.265
100.261
100.266
100.28
100.302
100.329
100.361
100.394
100.451
103.291
103.328
103.346
103.351
103.351
103.345
103.329
103.31
103.231
103.305
162.35
162.955
163.001
163.047
163.135
163.257
163.389
163.612
163.792
163.071
2830.15
2830.06
2830.02
2830.05
2830.14
2830.28
2830.47
2830.62
2830.74
2830.9
2401.72
2401.83
2401.86
2401.87
2401.87
2401.86
2401.84
2401.82
2401.79
2401.66
131.698
131.207
131.115
131.104
131.102
131.098
131.094
131.108
131.241
131.815
101.091
101.077
101.071
101.068
101.07
101.075
101.081
101.091
101.105
101.142
99.9534
99.9512
99.9512
99.9503
99.9483
99.9457
99.9429
99.9411
99.9422
99.9544
99.9131
99.9063
99.9027
99.9024
99.9052
99.9104
99.9175
99.9257
99.9344
99.9432
99.8928
99.8906
99.8893
99.889
99.8895
99.8906
99.8918
99.8929
99.8938
99.8984
100.128
100.115
100.112
100.114
100.121
100.132
100.146
100.161
100.18
100.22
102.168
102.187
102.198
102.2
102.196
102.187
102.172
102.153
102.099
102.152
145.564
146.038
146.071
146.106
146.166
146.247
146.33
146.392
146.328
145.815
2609.75
2609.7
2609.69
2609.71
2609.73
2609.78
2609.83
2609.88
2609.91
2609.99
2215.01
2215.08
2215.09
2215.09
2215.09
2215.08
2215.08
2215.08
2215.07
2215.02
117.421
117.082
117.051
117.055
117.056
117.052
117.042
117.035
117.08
117.506
100.629
100.614
100.607
100.604
100.604
100.607
100.613
100.622
100.633
100.661
99.9679
99.9654
99.9647
99.964
99.963
99.962
99.961
99.9605
99.9617
99.9705
99.9534
99.9497
99.9479
99.9477
99.949
99.9514
99.9547
99.9586
99.9631
99.9681
99.9419
99.941
99.9405
99.9402
99.9402
99.9401
99.9399
99.9396
99.9393
99.9401
100.014
100.008
100.006
100.007
100.01
100.014
100.019
100.024
100.032
100.051
101.122
101.125
101.128
101.126
101.121
101.112
101.099
101.087
101.068
101.105
125.831
126.112
126.129
126.149
126.181
126.224
126.267
126.292
126.245
125.911
2389
2388.97
2388.98
2388.98
2388.98
2388.98
2388.98
2388.98
2388.96
2389
7180.64
7290.35
7246.56
7040.83
658695
683232
688645
696774
1.49521e+06
1.58099e+06
1.58809e+06
1.56841e+06
2.52064e+06
2.69741e+06
2.6942e+06
2.61266e+06
3.75432e+06
4.04721e+06
4.01999e+06
3.85774e+06
5.29944e+06
5.73968e+06
5.68764e+06
5.4746e+06
6.85736e+06
7.45255e+06
7.38858e+06
7.19064e+06
7.87031e+06
8.59419e+06
8.53986e+06
8.40944e+06
5.61297e+06
6.17e+06
6.10708e+06
6.07106e+06
7898.7
8146
7984.06
7566.23
5747.33
5799.55
5801.84
5762.88
308529
324214
344764
376874
688457
779108
822863
859833
1.17603e+06
1.3994e+06
1.46208e+06
1.48795e+06
1.76069e+06
2.17231e+06
2.24547e+06
2.25862e+06
2.45477e+06
3.10444e+06
3.20393e+06
3.24038e+06
3.12649e+06
4.02987e+06
4.19152e+06
4.3104e+06
3.5674e+06
4.69218e+06
4.9351e+06
5.16922e+06
2.80298e+06
3.80989e+06
4.00123e+06
4.3132e+06
7124.04
7355.35
7284.81
7064.01
4935.54
4946.33
4945.36
4935.6
21666.7
25925.4
24551.4
19938.7
61498.8
73233.3
68478.3
55573.7
128534
152427
140438
113649
227983
269836
245519
198754
371857
440928
400458
325529
544652
647164
590405
484189
702106
837803
768279
635437
584166
695799
628675
523767
6342
6429.19
6406.73
6311.26
4713.46
4715.53
4716.02
4715.17
1597.14
1710.87
1677.84
1543.64
4696.1
5161.4
4997.72
4421.94
11215.4
12471.6
11886.2
10178.2
22521.7
25189.1
23624
19676.4
41646.6
46827.6
43418.6
35432.5
68241.2
76853.3
70644.6
56974.3
97128.6
109773
100279
80244.2
83387
93694.3
84110.8
67142.9
5901.84
5943.49
5940.54
5902.63
4565.54
4566.44
4566.62
4566.03
424.139
436.569
438.5
431.575
710.245
756.072
759.917
729.741
1593.36
1732.92
1724.18
1605.3
3199.54
3521.4
3448.6
3108.91
6134.81
6811.94
6568.47
5743.38
10492.6
11678.5
11088.7
9450.66
15693
17542.5
16442.9
13699.2
13871.1
15394.7
14104.3
11570
5576.87
5598.87
5600.35
5584.78
4442.67
4443.43
4443.48
4442.81
276.066
278.789
279.39
278.102
226.635
231.521
233.189
232.094
385.552
402.686
406.659
399.808
673.666
716.935
720.79
694.684
1214.74
1315.27
1310.83
1231.51
2023.47
2210.12
2173.45
1988.71
3048.61
3360.52
3260.58
2902.23
2932.16
3184.98
3023.65
2663.01
5316.65
5327.42
5329.56
5324.05
4320.56
4321.28
4321.32
4320.65
242.09
243.934
244.285
243.209
140.303
140.989
141.288
141.249
175.964
178.576
179.63
179.34
243.249
250.176
252.323
250.577
369.1
386.621
390.245
383.044
549.518
582.875
585.379
565.762
796.419
855.806
852.759
807.559
985.701
1030.72
1010.98
962.92
5094.57
5099.43
5101.3
5100.1
4193.7
4194.39
4194.43
4193.81
228.329
230.016
230.33
229.308
118.287
118.395
118.427
118.393
125.928
126.345
126.543
126.558
146.1
147.303
147.822
147.789
183.542
187.042
188.293
187.721
234.006
240.573
242.321
240.518
315.081
327.717
329.658
324.06
543.447
549.198
546.662
542.896
4892.73
4894.72
4896.02
4896.26
4060.41
4061.05
4061.09
4060.52
219.675
221.313
221.626
220.643
110.946
110.987
110.985
110.942
110.397
110.455
110.481
110.486
117.816
118.017
118.12
118.151
131.811
132.625
132.979
132.947
150.016
151.393
151.944
151.904
187.627
190.622
191.491
190.822
400.417
397.501
396.773
399.42
4697.76
4698.43
4699.22
4699.74
3920.36
3920.95
3920.99
3920.47
212.348
213.937
214.248
213.303
107.901
107.942
107.941
107.899
104.519
104.518
104.515
104.514
107.608
107.626
107.639
107.652
113.728
113.955
114.059
114.053
122.05
122.317
122.466
122.547
144.752
145.493
145.775
145.711
335.495
330.441
329.682
333.11
4503.32
4503.4
4503.84
4504.32
3773.57
3774.1
3774.14
3773.68
205.187
206.72
207.025
206.119
106.356
106.4
106.402
106.363
102.012
102.005
102.001
102
103.379
103.37
103.366
103.371
106.251
106.335
106.371
106.36
110.823
110.847
110.882
110.938
126.849
127.006
127.072
127.066
297.728
292.224
291.335
294.673
4306.78
4306.63
4306.86
4307.23
3620.24
3620.71
3620.74
3620.34
197.775
199.248
199.543
198.677
105.38
105.424
105.428
105.392
100.87
100.865
100.862
100.862
101.501
101.492
101.488
101.489
102.855
102.899
102.915
102.903
105.752
105.73
105.733
105.766
118.085
118.082
118.073
118.06
271.555
266.093
265.152
268.295
4106.92
4106.73
4106.84
4107.09
3460.66
3461.06
3461.08
3460.73
189.941
191.35
191.635
190.81
104.627
104.67
104.675
104.641
100.331
100.328
100.327
100.327
100.642
100.637
100.634
100.634
101.251
101.281
101.29
101.279
103.31
103.287
103.285
103.303
113.257
113.211
113.178
113.155
250.948
245.684
244.746
247.699
3903.17
3903.03
3903.08
3903.21
3295.18
3295.52
3295.53
3295.23
181.594
182.936
183.211
182.429
103.967
104.007
104.012
103.981
100.075
100.074
100.073
100.073
100.247
100.244
100.242
100.242
100.49
100.511
100.517
100.508
102.084
102.07
102.067
102.076
110.291
110.239
110.199
110.166
233.12
228.111
227.207
229.981
3695.32
3695.28
3695.3
3695.32
3124.28
3124.55
3124.56
3124.3
172.663
173.938
174.202
173.465
103.348
103.385
103.39
103.361
99.9601
99.9605
99.9604
99.96
100.065
100.063
100.062
100.062
100.135
100.15
100.154
100.146
101.433
101.427
101.426
101.428
108.239
108.196
108.155
108.114
216.603
211.883
211.03
213.627
3483.49
3483.57
3483.58
3483.5
2948.54
2948.75
2948.74
2948.53
163.08
164.287
164.542
163.852
102.755
102.79
102.795
102.768
99.921
99.9226
99.9228
99.9218
99.9823
99.9816
99.9811
99.9812
99.9769
99.9876
99.9896
99.9831
101.046
101.049
101.048
101.045
106.633
106.607
106.569
106.518
200.542
196.143
195.357
197.769
3268.06
3268.25
3268.25
3268.1
2768.73
2768.87
2768.84
2768.67
152.758
153.901
154.148
153.507
102.188
102.222
102.226
102.201
99.9234
99.926
99.9263
99.9244
99.9476
99.9474
99.9474
99.9478
99.913
99.92
99.9209
99.9159
100.768
100.776
100.777
100.77
105.227
105.222
105.19
105.129
184.371
180.351
179.649
181.85
3049.73
3050
3050.01
3049.81
2585.86
2585.93
2585.88
2585.76
141.594
142.682
142.925
142.33
101.647
101.678
101.682
101.658
99.9443
99.9477
99.9479
99.9451
99.9381
99.9383
99.9387
99.9395
99.8958
99.8997
99.9
99.8969
100.519
100.53
100.531
100.523
103.885
103.903
103.88
103.812
167.656
164.135
163.542
165.47
2829.53
2829.86
2829.88
2829.65
2401.13
2401.11
2401.05
2400.99
129.407
130.455
130.695
130.136
101.139
101.166
101.17
101.148
99.9645
99.9678
99.9678
99.9648
99.9458
99.9464
99.947
99.948
99.9068
99.9083
99.9085
99.9073
100.276
100.287
100.288
100.28
102.554
102.582
102.568
102.508
149.733
146.786
146.343
147.983
2608.78
2609.15
2609.17
2608.93
2215.01
2214.85
2214.79
2214.84
115.767
116.744
116.95
116.42
100.663
100.68
100.681
100.668
99.9774
99.9792
99.9789
99.9768
99.9707
99.9714
99.972
99.9728
99.9424
99.9428
99.9429
99.9427
100.083
100.089
100.09
100.086
101.282
101.291
101.285
101.26
128.414
126.393
126.156
127.313
2388.22
2388.61
2388.62
2388.36
6104.85
5441.31
5171.07
5074.77
5019.78
4981.08
4955.29
4940.67
4932.76
4928.11
798087
192875
33351.2
11718.2
5296.9
2836.21
1750.6
1214.38
930.474
767.285
1.42149e+06
245951
44120
15090.4
6761.35
3630.56
2197.31
1459.35
1048.5
804.149
1.99019e+06
237943
46581.4
14964.7
6461.92
3380.75
1995.15
1294.85
911.898
688.659
2.44957e+06
251401
48723.5
14499.6
6073.03
3089.36
1785.17
1140.79
793.663
596.048
2.91987e+06
275095
50912.1
13909.3
5610.86
2754.49
1554.11
977.264
675.328
507.356
3.29932e+06
293483
51744.8
13092.3
5128.56
2452.8
1367.97
857.427
593.44
449.304
3.38179e+06
285875
47452.8
10941.4
4137.97
1934.44
1086.98
697.282
501.397
394.051
2.33154e+06
181190
27224
5680.72
2263.88
1233.26
855.86
670.569
567.691
506.263
6016.88
5992.15
5846.48
5821.82
5778.39
5754.07
5734.79
5724.48
5717.49
5711.48
5441.07
5172.63
5042.56
4969.93
4924.32
4894.24
4874.71
4863.06
4856.92
4853.11
180141
44871.2
13606.3
5320.26
2635.41
1568.17
1066.58
804.185
658.05
574.095
374781
86179.3
23406.7
8271.37
3881.83
2184.86
1382.91
956.385
711.707
567.176
593028
125751
30585.8
9618.86
4215.83
2256.01
1369.99
914.821
661.486
516.032
827189
164254
36264.2
10376.5
4302.14
2212.44
1306.45
855.654
609.502
471.827
1.10591e+06
206304
41567.9
10819.4
4229.93
2082.87
1194.22
766.528
540.867
417.979
1.38385e+06
243317
45139.2
10801.3
4036.49
1929.63
1090.64
696.91
491.791
382.225
1.55857e+06
257454
43781.9
9507.98
3378.66
1577.29
896.727
585.783
428.894
345.304
1.17833e+06
177912
26718.5
5225.37
1959.07
1088.28
770.235
614.541
526.315
476.056
6251.3
5951.61
5791.76
5732.9
5682.06
5651.33
5629.06
5615.43
5605.8
5597.5
4901.28
4866.35
4838.81
4815.96
4798.11
4785.16
4776.52
4771.35
4768.58
4766.68
9202.14
4177.07
2298.76
1432.77
985.818
736.61
592.213
506.16
453.45
421.618
23946.2
9543.13
4639.33
2541.5
1539.67
1009.38
712.677
538.9
432.054
365.974
45281.7
15904.8
6914.57
3400.91
1893.66
1156.86
770.638
555.539
428.836
353.386
73294.6
22806.7
8978.22
4042.81
2113.45
1229.09
790.088
555.85
421.256
343.378
111627
30918.5
11002.3
4533.81
2228.14
1233.13
765.046
525.163
392.949
318.799
155456
38713.3
12533.2
4778.51
2243.39
1201.38
732.194
499.173
372.678
303.128
190818
42705.8
12479
4370.48
1967.43
1032.83
634.212
441.986
341.174
285.868
141206
27650.8
7279.02
2539.22
1304.39
841.418
642.001
536.251
472.877
436.132
6016.41
5834.39
5710.02
5636.26
5583.29
5550.25
5527.28
5511.61
5500
5490.07
4710.17
4701.75
4692.55
4684.29
4678.03
4673.77
4671.11
4669.77
4669.53
4669.31
1208.83
907.038
709.031
570.642
479.573
421.233
383.792
359.221
342.56
332.237
3022.85
1915.58
1267.64
859.2
611.706
460.821
367.409
308.114
268.881
243.176
6200.86
3469.52
2051.03
1248.92
811.338
564.03
420.072
333.286
278.706
244.537
10706.4
5331.41
2869.06
1606.26
976.65
643.09
459.646
354.359
289.907
250.641
17284.3
7641.19
3751.12
1934.45
1102.7
687.677
471.792
353.328
284.224
243.588
25131.7
9916.13
4485.07
2160.47
1175.73
707.778
475.252
352.199
281.535
240.729
31997.9
11210.8
4648.51
2090.22
1097.85
651.15
440.685
332.489
272.484
237.916
23472.1
7347.72
2954.98
1440.51
904.768
662.955
542.344
472.572
427.901
401.352
5787.27
5659.12
5560.6
5496.85
5452.89
5424.11
5403.44
5388.6
5377.38
5367.96
4564.88
4563.62
4562.37
4561.4
4560.82
4560.58
4560.61
4561
4561.94
4562.96
412.994
383.19
356.817
335.058
318.692
306.714
297.941
291.402
286.396
283.045
636.726
511.701
411.063
334.148
279.654
242.045
216.308
198.536
185.715
176.749
1283.6
923.375
664.586
485.431
369.462
294.851
246.697
215.136
193.77
179.669
2268.86
1477.18
971.028
651.738
462.252
348.499
279.477
236.684
208.424
190.15
3803.31
2235.28
1344.41
829.483
548.159
389.801
299.158
245.56
212.066
191.266
5687.96
3037.53
1693.54
976.902
613.824
420.144
314.507
254.499
217.493
194.834
7443.05
3593.67
1858.87
1011.1
615.921
416.514
313.043
255.717
221.64
200.915
5650.79
2633.14
1434.42
903.283
665.479
539.226
466.838
421.257
390.043
371.065
5534.12
5458.34
5393.27
5347.02
5313.23
5289.06
5270.86
5257.17
5246.6
5237.84
4442.32
4442.42
4442.72
4443.2
4443.8
4444.44
4445.11
4445.92
4447.16
4448.7
278.102
275.068
271.571
268.158
265.163
262.63
260.513
258.716
257.142
255.787
225.795
210.729
194.844
180.62
169.197
160.494
154.029
149.204
145.337
142.429
372.454
321.242
272.873
233.19
203.611
182.33
167.206
156.406
148.493
143.021
611.873
487.079
381.598
302.718
248.729
212.574
188.485
172.295
160.617
152.583
1011.31
736.695
528.925
386.489
296.565
240.146
204.634
181.84
166.434
156.344
1519.71
1021.56
680.974
465.782
339.746
265.026
220.223
192.676
174.205
162.187
2043.31
1266.3
790.109
514.238
364.823
280.811
232.557
203.472
184.828
172.903
1812.95
1181.8
824.657
628.649
519.83
452.781
409.252
379.66
358.069
344.678
5302.04
5260.59
5220.92
5189.16
5163.84
5144.18
5128.65
5116.53
5106.93
5099.11
4320.32
4320.59
4321.06
4321.67
4322.36
4323.05
4323.71
4324.48
4325.65
4327.12
244.355
244.172
243.814
243.348
242.839
242.312
241.78
241.221
240.611
239.87
140.684
138.603
136.053
133.51
131.276
129.447
128.005
126.851
125.767
124.868
176.446
168.173
158.678
149.746
142.239
136.238
131.537
127.869
124.965
122.895
241.377
219.98
197.582
178.3
163.37
152.27
144.144
138.213
133.497
130.055
355.454
303.623
254.686
215.924
188.077
168.61
155.079
145.602
138.658
133.912
503.721
404.391
318.298
255.487
213.503
185.774
167.394
155.103
146.086
139.874
681.324
513.691
382.856
295.048
240.245
205.693
183.617
169.107
159.104
152.445
826.773
675.344
559.315
481.394
428.935
392.16
365.656
346.394
331.508
322.102
5090.75
5069.02
5045.34
5023.86
5005.24
4989.77
4977.01
4966.68
4958.31
4951.6
4193.53
4193.75
4194.1
4194.56
4195.08
4195.59
4196.07
4196.64
4197.58
4198.88
230.597
230.809
230.907
230.917
230.857
230.732
230.543
230.268
229.882
229.261
118.371
118.1
117.744
117.357
116.998
116.703
116.481
116.297
116.031
115.76
126.161
124.626
122.605
120.456
118.435
116.65
115.12
113.827
112.737
111.957
146.609
142.58
137.609
132.756
128.544
125.086
122.327
120.163
118.258
116.788
183.652
172.898
160.903
150.053
141.248
134.399
129.16
125.178
122.045
119.85
231.744
210.695
188.535
170.037
155.991
145.643
138.077
132.603
128.219
125.045
303.238
264.31
227.544
199.073
178.672
164.25
154.061
146.822
141.508
137.879
515.774
472.882
430.515
396.432
369.608
348.721
332.324
319.706
309.443
302.872
4891.75
4880.1
4865.81
4851.43
4838.07
4826.32
4816.22
4807.79
4800.77
4795.22
4060.28
4060.45
4060.68
4060.98
4061.32
4061.64
4061.93
4062.28
4063
4064.08
221.925
222.179
222.322
222.388
222.389
222.328
222.197
221.972
221.615
220.992
110.978
110.967
110.962
110.953
110.952
110.97
111.013
111.053
111.006
110.92
110.413
110.082
109.596
109.013
108.407
107.824
107.288
106.804
106.377
106.077
117.974
117.133
115.945
114.637
113.381
112.262
111.309
110.519
109.74
109.102
132.129
129.541
126.315
123.017
120.033
117.486
115.377
113.664
112.236
111.231
150.579
145.687
139.589
133.809
128.871
124.856
121.665
119.202
117.059