/*--------------------------------*- C++ -*----------------------------------*\
| =========                 |                                                 |
| \\      /  F ield         | foam-extend: Open Source CFD                    |
|  \\    /   O peration     | Version:     4.0                                |
|   \\  /    A nd           | Web:         http://www.foam-extend.org         |
|    \\/     M anipulation  |                                                 |
\*---------------------------------------------------------------------------*/
FoamFile
{
    version     2.0;
    format      ascii;
    class       volScalarField;
    location    "1150";
    object      k;
}
// * * * * * * * * * * * * * * * * * * * * * * * * * * * * * * * * * * * * * //

dimensions      [0 2 -2 0 0 0 0];

internalField   nonuniform List<scalar> 
34480
(
8.76407
8.76169
8.76153
8.76329
8.76705
8.77303
8.78798
8.85187
9.07537
9.68556
9.3013
8.68547
8.59115
8.87037
9.46992
10.3574
11.9584
15.882
28.8079
67.1812
15.0678
13.5982
13.152
13.3004
13.8719
14.906
17.2407
22.9405
41.6915
101.496
14.5087
12.985
12.5369
12.7325
13.4448
14.861
18.0348
25.4365
49.2824
127.785
13.4331
12.0236
11.6762
11.9457
12.7998
14.5122
18.2849
26.9835
55.2992
151.547
12.2171
10.9508
10.6421
10.9265
11.8202
13.7159
17.962
27.9297
61.1045
176.652
11.3188
10.2059
9.95475
10.2318
11.1282
13.0953
17.6023
28.4434
65.5745
198.041
9.83456
9.00336
8.80071
9.01754
9.73054
11.4018
15.5012
26.1494
64.6205
205.685
6.88083
6.61362
6.56546
6.67581
7.0057
7.73139
9.73571
16.292
43.4797
149.81
9.23688
9.23685
9.24248
9.25519
9.27319
9.29473
9.32069
9.35926
9.4304
9.50372
8.6754
8.67249
8.67191
8.67366
8.67838
8.68654
8.69969
8.73091
8.80559
9.06606
7.95029
7.52659
7.43174
7.58899
8.03628
8.8789
10.3211
12.1283
15.4689
41.3353
12.2658
11.2016
10.9085
11.1115
11.7906
13.0525
15.2514
18.1532
23.8309
66.55
12.1602
10.9941
10.6764
10.9205
11.7272
13.2799
16.0628
20.0438
28.4209
86.2435
11.6076
10.4783
10.214
10.4922
11.3878
13.1328
16.3254
21.1027
31.8694
104.324
10.8068
9.76183
9.50922
9.78543
10.6868
12.5176
15.992
21.4804
34.872
123.753
10.2108
9.26435
9.04984
9.30553
10.1817
12.0135
15.6254
21.5707
37.1493
141.046
9.0513
8.33329
8.15083
8.34368
9.02328
10.5238
13.6754
19.3012
35.7558
147.537
6.64361
6.39731
6.34348
6.41799
6.68345
7.27011
8.61978
11.571
22.5319
102.622
9.10996
9.10504
9.10538
9.11243
9.12499
9.14072
9.16162
9.19725
9.27015
9.4556
8.57371
8.57097
8.57008
8.57104
8.57413
8.57886
8.58446
8.5975
8.62649
8.69271
6.79847
6.58411
6.529
6.60446
6.83586
7.2828
8.07812
9.37548
11.162
16.5069
9.71834
9.09637
8.94219
9.10935
9.62911
10.5844
12.1998
14.5946
17.5783
29.2572
9.90894
9.17186
8.98699
9.20137
9.86178
11.119
13.313
16.666
21.1358
40.807
9.76957
9.01734
8.85618
9.09439
9.83505
11.2817
13.8883
17.964
23.7968
52.2722
9.33446
8.61071
8.44508
8.68474
9.4416
10.9911
13.9106
18.6408
26.045
64.922
9.01437
8.33394
8.18959
8.41384
9.15769
10.7294
13.8197
18.9745
27.771
76.9647
8.19359
7.66798
7.5399
7.71139
8.28817
9.57372
12.2847
17.1783
26.682
82.9716
6.3724
6.18094
6.14138
6.20264
6.41425
6.87841
7.92991
10.3767
16.7211
57.2232
8.99067
8.98273
8.98003
8.9838
8.99331
9.00629
9.02421
9.05764
9.13624
9.33616
8.45835
8.4567
8.45621
8.45697
8.45907
8.46156
8.46259
8.46603
8.47505
8.49467
6.01966
5.92711
5.89933
5.92975
6.02972
6.22199
6.55916
7.14277
8.01254
9.91661
7.82973
7.51551
7.44194
7.53687
7.83812
8.40086
9.35207
10.8393
12.6786
17.1169
8.14135
7.7243
7.62074
7.75831
8.1848
9.00775
10.4421
12.7444
15.612
23.5794
8.25657
7.79991
7.7041
7.86276
8.36225
9.35165
11.1407
14.1022
17.8954
30.1336
8.08782
7.62187
7.51347
7.68153
8.21273
9.31442
11.404
15.0126
19.876
37.6391
7.97554
7.51399
7.41577
7.57841
8.11706
9.26549
11.5363
15.5925
21.3804
44.9665
7.44432
7.07593
6.98467
7.11393
7.53919
8.48769
10.4906
14.3959
20.6686
48.7998
6.13057
5.98416
5.95443
6.00065
6.1586
6.49764
7.22816
8.99172
12.9922
33.0846
8.85696
8.84901
8.84604
8.84928
8.85828
8.87178
8.89051
8.92428
8.99726
9.15294
8.33084
8.33021
8.33007
8.33054
8.33164
8.3322
8.33049
8.32913
8.32907
8.33126
5.54471
5.50923
5.49573
5.50527
5.54113
5.60953
5.72503
5.91772
6.18778
6.63744
6.581
6.44226
6.411
6.45079
6.58672
6.84465
7.28372
7.99472
8.89312
10.3799
6.8846
6.66823
6.61169
6.68228
6.90938
7.35198
8.12695
9.42055
11.0546
14.0337
7.10949
6.85117
6.7955
6.88319
7.1692
7.73812
8.77159
10.5723
12.8929
17.7808
7.1009
6.81604
6.7451
6.8462
7.17088
7.84476
9.12676
11.477
14.6211
22.2349
7.12117
6.82033
6.75304
6.8557
7.20167
7.93544
9.38299
12.1433
15.9905
26.6484
6.8129
6.56263
6.49705
6.58369
6.86674
7.48975
8.78612
11.4856
15.7016
29.0247
5.91758
5.80711
5.78445
5.81645
5.92788
6.16093
6.63243
7.74553
10.1118
19.2584
8.71368
8.70587
8.70272
8.70547
8.71383
8.72711
8.74548
8.77678
8.83813
8.95046
8.19207
8.19222
8.19236
8.19262
8.19299
8.19225
8.18976
8.18719
8.185
8.18367
5.27459
5.26262
5.25603
5.25804
5.26909
5.29076
5.32635
5.38173
5.45268
5.54546
5.81933
5.76732
5.75737
5.7704
5.82096
5.91741
6.08002
6.34314
6.68335
7.15209
6.05181
5.94846
5.91976
5.952
6.05989
6.26805
6.62478
7.22011
7.99459
9.1154
6.2878
6.15229
6.12291
6.16668
6.31504
6.60499
7.12007
8.02962
9.24338
11.2069
6.35394
6.18967
6.14596
6.20246
6.3859
6.75909
7.45167
8.74918
10.5453
13.8055
6.44271
6.25618
6.2129
6.27346
6.48145
6.91183
7.73554
9.34934
11.6594
16.3948
6.29291
6.13098
6.08647
6.14181
6.32026
6.70237
7.46524
9.08506
11.6643
17.7741
5.73232
5.65145
5.63526
5.65672
5.73329
5.88909
6.18537
6.83882
8.10387
11.8522
8.55991
8.5525
8.54937
8.55174
8.5594
8.5719
8.58914
8.61687
8.66476
8.73935
8.04261
8.04329
8.04363
8.04374
8.04362
8.0422
8.03988
8.03738
8.03511
8.03341
5.129
5.12528
5.12168
5.12145
5.12418
5.13054
5.14077
5.15573
5.17276
5.19012
5.38208
5.36694
5.36598
5.36859
5.38327
5.41217
5.46125
5.53939
5.63866
5.75782
5.53235
5.48584
5.472
5.48556
5.53332
5.62373
5.77241
6.00944
6.31369
6.68595
5.73093
5.66449
5.65056
5.67055
5.74218
5.87826
6.10965
6.50475
7.03575
7.75357
5.81709
5.72706
5.70149
5.7312
5.82911
6.02256
6.36523
6.98968
7.87179
9.18954
5.92953
5.81885
5.79257
5.82611
5.94501
6.18325
6.61647
7.44573
8.65928
10.6637
5.88336
5.7836
5.75494
5.78857
5.89568
6.11835
6.53976
7.40726
8.8084
11.4743
5.57776
5.52
5.50901
5.52284
5.57411
5.67574
5.85969
6.23259
6.89219
8.32737
8.39509
8.38832
8.38535
8.38738
8.39422
8.40546
8.42092
8.44452
8.48099
8.53015
7.88279
7.88379
7.88425
7.88427
7.88387
7.8824
7.88052
7.87851
7.8767
7.87531
5.05327
5.05187
5.04953
5.04893
5.04948
5.05153
5.05463
5.05892
5.06307
5.0661
5.14141
5.1398
5.14186
5.14131
5.14335
5.14865
5.1592
5.17711
5.19975
5.22411
5.22321
5.20302
5.19651
5.20196
5.22248
5.26064
5.32066
5.40994
5.5183
5.6304
5.37046
5.33999
5.33427
5.3427
5.37555
5.43615
5.53444
5.69186
5.89601
6.12963
5.44837
5.40135
5.38712
5.40203
5.4522
5.54845
5.7105
5.98752
6.3713
6.85868
5.55817
5.49508
5.48003
5.4976
5.56309
5.69019
5.90886
6.30201
6.86865
7.65044
5.57406
5.51589
5.49846
5.51802
5.57943
5.70379
5.92793
6.36093
7.04942
8.13834
5.45371
5.41326
5.40624
5.41488
5.44863
5.51394
5.62769
5.83915
6.18676
6.75911
8.2187
8.21274
8.21007
8.21179
8.21771
8.22735
8.24063
8.25995
8.28708
8.31989
7.71279
7.71387
7.7144
7.71436
7.71379
7.71267
7.71127
7.70979
7.70847
7.70741
5.01423
5.01332
5.0116
5.01112
5.01141
5.01239
5.01378
5.01554
5.01692
5.01737
5.0133
5.01563
5.01819
5.01712
5.01568
5.01429
5.01392
5.01529
5.01787
5.02083
5.04687
5.03808
5.03497
5.03715
5.04608
5.06248
5.08728
5.12164
5.16042
5.19411
5.1468
5.13375
5.13192
5.13518
5.14973
5.17593
5.21677
5.27775
5.35238
5.42444
5.20604
5.18261
5.17503
5.18225
5.2072
5.25387
5.32923
5.44885
5.60753
5.78042
5.30094
5.26618
5.25804
5.2668
5.30196
5.36831
5.4772
5.65837
5.90793
6.19534
5.35032
5.31852
5.30861
5.31953
5.35312
5.41978
5.53578
5.74452
6.06494
6.49406
5.35804
5.33006
5.32585
5.33117
5.3533
5.39512
5.46551
5.58591
5.7707
6.02126
8.03033
8.0253
8.02299
8.02442
8.02937
8.03727
8.04822
8.06343
8.0831
8.10491
7.53264
7.53351
7.53406
7.534
7.53355
7.53275
7.53176
7.53072
7.52981
7.52901
4.99344
4.99272
4.9914
4.99111
4.99142
4.99219
4.99323
4.99445
4.99535
4.9954
4.94697
4.94983
4.95204
4.9512
4.94938
4.94694
4.94451
4.94251
4.94106
4.94017
4.95045
4.94638
4.94479
4.94573
4.94986
4.95739
4.96839
4.9827
4.99773
5.00872
5.01372
5.00847
5.00817
5.00935
5.01574
5.02705
5.04415
5.06805
5.09539
5.11814
5.0537
5.04256
5.03867
5.0421
5.05426
5.07654
5.11143
5.16317
5.2287
5.29269
5.13046
5.11172
5.10754
5.11179
5.13045
5.16486
5.21924
5.30322
5.41249
5.51972
5.19543
5.17945
5.1743
5.1802
5.19764
5.23177
5.28996
5.38835
5.53349
5.70743
5.28713
5.26779
5.26547
5.26881
5.28348
5.31054
5.35437
5.42367
5.52197
5.64101
7.82968
7.82562
7.82374
7.82488
7.82885
7.83505
7.84373
7.85527
7.86914
7.88341
7.34208
7.34278
7.34322
7.34319
7.34289
7.34234
7.34167
7.34097
7.34035
7.33974
4.98143
4.98085
4.9799
4.97973
4.98006
4.98075
4.98167
4.9827
4.98351
4.98347
4.91337
4.91579
4.91747
4.91697
4.91558
4.91362
4.9115
4.90954
4.90798
4.9069
4.90008
4.89795
4.89707
4.89753
4.89964
4.90344
4.90884
4.91553
4.92216
4.92623
4.93789
4.9358
4.93592
4.93634
4.93929
4.94446
4.95205
4.96198
4.97244
4.98015
4.9623
4.95723
4.9553
4.95693
4.9628
4.97339
4.98956
5.01222
5.03966
5.0654
5.02248
5.01237
5.0103
5.01239
5.02242
5.04051
5.06816
5.10815
5.15698
5.19953
5.09289
5.08585
5.08354
5.08664
5.09515
5.11166
5.1395
5.18446
5.24795
5.32291
5.23647
5.22297
5.22184
5.22407
5.23409
5.25204
5.27971
5.32031
5.37251
5.43262
7.61658
7.61347
7.61201
7.61289
7.61592
7.62061
7.62723
7.63566
7.64518
7.65435
7.14084
7.14141
7.14176
7.14175
7.14156
7.1412
7.14075
7.14029
7.13988
7.13939
4.97354
4.97313
4.9725
4.97241
4.97272
4.9733
4.97408
4.97495
4.97568
4.97554
4.89658
4.89844
4.89965
4.89941
4.89851
4.89723
4.89582
4.8945
4.89351
4.89279
4.87508
4.87384
4.87333
4.87358
4.87475
4.87683
4.87972
4.8832
4.88657
4.88828
4.89662
4.89564
4.89573
4.89592
4.89747
4.9002
4.90406
4.90879
4.91327
4.91628
4.91012
4.90789
4.90694
4.90773
4.9106
4.91568
4.92325
4.93334
4.94504
4.95642
4.95716
4.95151
4.95047
4.95161
4.95724
4.96716
4.98179
5.00178
5.02453
5.04292
5.02792
5.02555
5.02483
5.02645
5.03026
5.03761
5.0499
5.06929
5.09505
5.12973
5.20139
5.19177
5.19134
5.19299
5.20018
5.21246
5.23035
5.25474
5.28243
5.31462
7.39098
7.38872
7.38767
7.38832
7.39049
7.39395
7.3988
7.40474
7.41108
7.41686
6.9287
6.92917
6.92945
6.92945
6.92933
6.9291
6.92881
6.9285
6.92823
6.92782
4.9676
4.96738
4.96701
4.96698
4.96723
4.96769
4.96829
4.96898
4.96963
4.96935
4.88823
4.88962
4.89046
4.89039
4.88988
4.88914
4.88833
4.88757
4.88709
4.88668
4.86348
4.86274
4.86245
4.8626
4.86325
4.8644
4.86599
4.86788
4.86977
4.87057
4.87525
4.87459
4.87453
4.87465
4.87565
4.87739
4.87977
4.8825
4.88485
4.88635
4.88189
4.88092
4.88043
4.88084
4.88228
4.88478
4.8884
4.89302
4.89812
4.90368
4.91936
4.91595
4.91539
4.91613
4.91953
4.92537
4.93362
4.94438
4.95576
4.96479
4.98822
4.98808
4.9882
4.98905
4.99053
4.99334
4.99796
5.00535
5.01394
5.03156
5.1775
5.17049
5.17045
5.17183
5.17724
5.18595
5.19789
5.21302
5.22768
5.24626
7.15296
7.1514
7.1507
7.15115
7.15263
7.15512
7.15854
7.16257
7.16665
7.17023
6.70549
6.70589
6.70611
6.70612
6.70604
6.7059
6.70571
6.70551
6.70533
6.70496
4.96261
4.9626
4.96243
4.96244
4.96263
4.96295
4.96338
4.96389
4.96446
4.96404
4.88404
4.88508
4.88565
4.88567
4.88542
4.88506
4.88467
4.8843
4.8842
4.884
4.85868
4.85827
4.85815
4.85822
4.85855
4.85913
4.85993
4.86093
4.86201
4.86243
4.86483
4.86423
4.86404
4.86414
4.86488
4.86617
4.86787
4.86974
4.87128
4.87224
4.86753
4.86706
4.8668
4.86702
4.86778
4.86908
4.87088
4.87308
4.87538
4.87839
4.89828
4.896
4.89565
4.89622
4.89846
4.90218
4.90723
4.91355
4.91985
4.92516
4.96432
4.96507
4.96559
4.96606
4.96647
4.96719
4.96824
4.97025
4.9713
4.98151
5.16104
5.15587
5.15607
5.15733
5.1615
5.16795
5.17623
5.18599
5.19363
5.20546
6.90275
6.90168
6.90124
6.90152
6.90255
6.90427
6.90658
6.90919
6.91171
6.91389
6.47114
6.47149
6.47165
6.47167
6.47162
6.47153
6.47141
6.47128
6.47116
6.47082
4.95812
4.95833
4.95831
4.95836
4.95849
4.95869
4.95897
4.95931
4.95985
4.95929
4.88186
4.88264
4.88301
4.88307
4.88299
4.88287
4.88276
4.88267
4.88281
4.88279
4.8572
4.85703
4.85701
4.85704
4.85716
4.85737
4.85769
4.85813
4.85874
4.859
4.86016
4.85959
4.85932
4.8594
4.85997
4.86096
4.86226
4.86366
4.8648
4.86553
4.86076
4.86048
4.86031
4.86043
4.86086
4.86159
4.86254
4.86367
4.86475
4.86654
4.88664
4.88497
4.88471
4.88518
4.88676
4.8893
4.89261
4.89665
4.90052
4.90427
4.94932
4.95028
4.95095
4.95125
4.95123
4.95111
4.95071
4.95052
4.94852
4.95542
5.1491
5.14526
5.14562
5.14679
5.15012
5.15507
5.16105
5.16761
5.17136
5.17978
6.64057
6.63987
6.63958
6.63978
6.64046
6.64158
6.64306
6.64468
6.64615
6.64745
6.22572
6.22602
6.22614
6.22616
6.22613
6.22608
6.226
6.22591
6.22582
6.22552
4.95395
4.95436
4.95446
4.95455
4.95463
4.95472
4.95487
4.95508
4.95562
4.95498
4.88059
4.88117
4.88137
4.88144
4.88146
4.8815
4.88157
4.88165
4.88196
4.88212
4.85729
4.85726
4.8573
4.8573
4.85729
4.85728
4.85731
4.85744
4.85775
4.85798
4.85835
4.85782
4.85755
4.85759
4.85802
4.85877
4.85975
4.8608
4.86168
4.86227
4.85795
4.85773
4.8576
4.85765
4.85791
4.85835
4.8589
4.85951
4.86006
4.86119
4.87981
4.87853
4.87831
4.87869
4.87982
4.8816
4.88387
4.88656
4.88913
4.89213
4.93845
4.93927
4.93996
4.94018
4.94007
4.93971
4.9389
4.93802
4.93506
4.94037
5.13945
5.13661
5.13704
5.13816
5.14087
5.1448
5.14927
5.15385
5.15537
5.16193
6.36675
6.36631
6.36614
6.36627
6.36669
6.36738
6.36828
6.36921
6.37001
6.37077
5.96952
5.96977
5.96986
5.96988
5.96987
5.96983
5.96978
5.96972
5.96965
5.96938
4.94996
4.95055
4.95072
4.95085
4.9509
4.95091
4.95095
4.95104
4.95162
4.95101
4.8796
4.87999
4.88007
4.88011
4.88018
4.88031
4.88048
4.88069
4.88109
4.88146
4.85802
4.85805
4.8581
4.85808
4.85801
4.8579
4.8578
4.85777
4.85791
4.85818
4.85787
4.85743
4.85718
4.8572
4.85749
4.85802
4.8587
4.85945
4.86011
4.86061
4.85709
4.8569
4.85679
4.85682
4.85697
4.85723
4.85755
4.8579
4.85819
4.8589
4.87491
4.87393
4.87373
4.87401
4.8748
4.87601
4.87753
4.87931
4.88105
4.88353
4.92845
4.92902
4.92963
4.92982
4.92973
4.9294
4.92862
4.92771
4.92477
4.9291
5.13009
5.12805
5.1285
5.12955
5.13179
5.13494
5.13837
5.14161
5.1418
5.14717
6.08182
6.08157
6.08147
6.08155
6.08179
6.08218
6.08269
6.08317
6.08356
6.08399
5.70319
5.70339
5.70346
5.70347
5.70347
5.70345
5.70341
5.70336
5.7033
5.70306
4.94583
4.94654
4.94677
4.94694
4.94698
4.94693
4.94686
4.94686
4.94744
4.94706
4.8785
4.87866
4.87865
4.87866
4.87874
4.8789
4.87911
4.87937
4.87978
4.88038
4.85883
4.85883
4.85886
4.85883
4.85875
4.85863
4.8585
4.85842
4.85849
4.85883
4.85797
4.85763
4.85744
4.85744
4.85762
4.85795
4.85838
4.85887
4.85933
4.85973
4.85718
4.85704
4.85695
4.85696
4.85703
4.85717
4.85733
4.85751
4.85765
4.85806
4.8702
4.86948
4.86932
4.86948
4.86997
4.87072
4.87164
4.87271
4.87384
4.87582
4.91719
4.91749
4.91797
4.91812
4.91805
4.91777
4.91715
4.91638
4.91394
4.91738
5.11824
5.11689
5.1173
5.11826
5.12006
5.12253
5.12513
5.12734
5.12672
5.13101
5.78663
5.7865
5.78644
5.78649
5.78661
5.7868
5.78706
5.78727
5.78743
5.78765
5.42757
5.42774
5.42778
5.42779
5.42779
5.42778
5.42776
5.42772
5.42768
5.42749
4.94014
4.9408
4.94117
4.94139
4.94144
4.94134
4.94117
4.94102
4.94137
4.94149
4.87692
4.87684
4.87675
4.87672
4.87678
4.87693
4.87714
4.8774
4.87776
4.87848
4.85929
4.85922
4.85922
4.85919
4.85912
4.85904
4.85895
4.8589
4.85895
4.85933
4.85837
4.85814
4.85801
4.85801
4.8581
4.85828
4.85851
4.85879
4.85908
4.85937
4.85776
4.85768
4.85763
4.85762
4.85764
4.85769
4.85774
4.85779
4.85784
4.85801
4.86509
4.86463
4.86452
4.86459
4.86484
4.86521
4.86566
4.86619
4.86681
4.8682
4.90348
4.90354
4.90383
4.90389
4.90378
4.90349
4.90297
4.90235
4.90073
4.90319
5.09676
5.09599
5.09634
5.09713
5.09847
5.10025
5.10208
5.10339
5.10231
5.10528
5.48216
5.4821
5.48209
5.4821
5.48214
5.4822
5.48228
5.48234
5.48239
5.4825
5.14251
5.14261
5.14262
5.14262
5.14262
5.14262
5.14262
5.14261
5.1426
5.14252
4.92516
4.9257
4.92629
4.92661
4.92668
4.92656
4.92627
4.92587
4.92548
4.92601
4.87381
4.87349
4.8733
4.87321
4.87322
4.87333
4.87353
4.87379
4.87414
4.87483
4.85947
4.85939
4.85936
4.85934
4.85931
4.85927
4.85924
4.85923
4.85927
4.85955
4.85908
4.85895
4.85889
4.85889
4.85893
4.85901
4.85912
4.85925
4.85939
4.85956
4.85871
4.85868
4.85866
4.85865
4.85865
4.85865
4.85864
4.85863
4.85863
4.85866
4.86101
4.86082
4.86076
4.86078
4.86087
4.86101
4.86117
4.86134
4.86159
4.86227
4.88679
4.88664
4.88671
4.88666
4.88648
4.88618
4.88577
4.88535
4.88477
4.88632
5.04212
5.04178
5.042
5.0425
5.04329
5.04433
5.04537
5.04595
5.04501
5.04624
5.16849
5.16846
5.16846
5.16847
5.16847
5.16847
5.16847
5.16846
5.16844
5.1685
11.2657
11.3802
11.3345
11.1189
82.796
84.8389
85.2854
85.9526
142.994
148.411
148.854
147.62
202.539
211.899
211.731
207.437
264.151
277.716
276.47
268.983
332.401
350.564
348.442
339.692
394.728
417.252
414.862
407.427
432.729
458.875
456.94
452.287
345.445
367.939
365.431
364
11.4724
11.7106
11.5548
11.1479
9.71169
9.77041
9.77295
9.72912
76.1305
79.2951
80.0263
80.1626
133.815
144.616
145.671
143.515
192.712
214.186
214.666
208.767
255.883
290.53
289.52
279.547
329.247
379.741
377.969
365.107
399.333
466.034
465.112
452.063
445.889
527.032
528.17
516.913
350.548
422.639
420.874
415.942
10.7093
10.9399
10.8697
10.649
8.77411
8.78688
8.78572
8.77417
26.5663
28.9529
28.2015
25.6973
49.3464
53.701
52.014
47.3483
74.5147
81.2094
78.0638
70.5571
103.347
112.809
107.602
96.5237
139.325
152.599
144.956
129.056
177.204
194.46
184.289
163.243
207.493
228.545
216.278
190.698
164.807
181.593
170.105
149.211
9.91031
10.0009
9.9776
9.87822
8.50883
8.51132
8.51191
8.51088
11.4879
11.7244
11.6877
11.4919
21.2165
21.9207
21.8451
21.3043
31.9771
33.4359
33.1699
31.8557
44.4703
46.8722
46.1924
43.6707
60.5881
64.3207
62.9834
58.666
78.0123
83.0833
80.7957
74.3457
92.5685
99.0713
95.7601
87.0536
71.9739
77.0734
73.5392
65.9172
9.44626
9.49064
9.4875
9.44708
8.32984
8.33093
8.33115
8.33044
7.04927
7.13597
7.15803
7.12787
11.6818
11.9684
12.0452
11.9584
16.8643
17.4668
17.5599
17.2923
22.8209
23.8277
23.8556
23.2506
30.6951
32.3062
32.1851
30.9946
39.2064
41.4257
40.9982
39.0158
46.263
49.1821
48.354
45.3676
34.4196
36.6243
35.4238
32.5343
9.09623
9.12014
9.12174
9.10482
8.1797
8.18062
8.18069
8.17987
5.61146
5.62383
5.62765
5.6255
7.46108
7.52707
7.55683
7.55707
9.93762
10.1165
10.1801
10.1537
12.8299
13.1706
13.2532
13.1513
16.7921
17.4037
17.4899
17.2209
21.043
21.935
21.9544
21.4236
24.4855
25.7329
25.6273
24.6883
17.4916
18.3823
18.0238
17.0159
8.81103
8.82293
8.82529
8.8192
8.02912
8.03001
8.03005
8.02923
5.19981
5.20214
5.20235
5.20109
5.82697
5.8411
5.8484
5.84992
6.91648
6.96741
6.99093
6.99117
8.2598
8.37018
8.41291
8.4024
10.2354
10.4616
10.5302
10.4807
12.3618
12.7087
12.7778
12.658
14.062
14.5816
14.6272
14.3617
10.2281
10.5646
10.4848
10.1918
8.56393
8.56939
8.57148
8.57012
7.87116
7.87203
7.87208
7.8713
5.06506
5.06577
5.06542
5.06432
5.23543
5.237
5.2378
5.23813
5.68606
5.69754
5.70334
5.70434
6.26736
6.29701
6.31094
6.31217
7.1972
7.27253
7.30285
7.29698
8.22001
8.34126
8.38108
8.36223
9.07663
9.27833
9.32312
9.25721
7.34235
7.45608
7.44996
7.3831
8.33623
8.33849
8.33997
8.34023
7.70348
7.7043
7.70435
7.70363
5.01449
5.01514
5.01486
5.01382
5.02154
5.02123
5.02097
5.02087
5.20584
5.20772
5.20866
5.2089
5.45683
5.46315
5.46652
5.46759
5.88333
5.90637
5.91694
5.91685
6.36266
6.39897
6.41455
6.41491
6.81243
6.88494
6.90797
6.89313
6.20043
6.23519
6.23978
6.22899
8.11328
8.11405
8.11495
8.11555
7.52532
7.52608
7.52613
7.52547
4.99213
4.9928
4.9926
4.99163
4.93947
4.93914
4.93887
4.93871
5.01055
5.01052
5.01047
5.0105
5.12451
5.12527
5.12577
5.1262
5.32552
5.33266
5.33608
5.33611
5.56242
5.57128
5.57619
5.57838
5.81847
5.84429
5.85385
5.84956
5.69982
5.70791
5.71086
5.7116
7.88783
7.88793
7.88844
7.889
7.3363
7.33699
7.33703
7.33644
4.98014
4.98079
4.98062
4.97971
4.90627
4.9061
4.90593
4.90578
4.92603
4.92576
4.92561
4.92562
4.98094
4.98072
4.98065
4.98079
5.07828
5.08097
5.08218
5.08197
5.20848
5.20987
5.21117
5.21266
5.36954
5.37997
5.38367
5.38094
5.45493
5.45427
5.45508
5.45749
7.65663
7.65646
7.65673
7.65717
7.13621
7.13682
7.13686
7.13633
4.97226
4.97285
4.97268
4.97181
4.89233
4.89226
4.89215
4.892
4.88775
4.88752
4.88742
4.88745
4.91611
4.91585
4.91573
4.91577
4.96304
4.96442
4.96496
4.96468
5.04385
5.04359
5.04385
5.04471
5.15594
5.16133
5.16275
5.16014
5.32554
5.32232
5.32199
5.32413
7.4179
7.41766
7.4178
7.4181
6.92492
6.92546
6.92549
6.92502
4.96617
4.96667
4.96649
4.96567
4.88632
4.8863
4.88621
4.88606
4.87006
4.86991
4.86984
4.86989
4.88612
4.88596
4.88587
4.88588
4.90786
4.90875
4.90906
4.9088
4.96449
4.96407
4.96409
4.96456
5.05058
5.05419
5.05473
5.05212
5.2535
5.2499
5.24912
5.25067
7.17048
7.17031
7.17037
7.17053
6.70238
6.70285
6.70286
6.70245
4.96101
4.9614
4.9612
4.96044
4.8837
4.8837
4.88362
4.88347
4.86203
4.86193
4.86189
4.86193
4.87208
4.87198
4.87193
4.87193
4.88129
4.88192
4.88212
4.88189
4.92529
4.92505
4.92503
4.92525
4.99754
5.00046
5.00064
4.99802
5.21151
5.20832
5.20743
5.20836
6.91361
6.91356
6.91359
6.91361
6.4686
6.46898
6.46898
6.46863
4.95645
4.95673
4.9565
4.95581
4.88257
4.88259
4.88252
4.88235
4.85873
4.85868
4.85866
4.85869
4.86542
4.86536
4.86532
4.86533
4.86861
4.86906
4.86919
4.86899
4.90512
4.9051
4.90511
4.90515
4.96999
4.97264
4.97265
4.96999
5.18556
5.1831
5.18225
5.18254
6.64682
6.64691
6.64693
6.64683
6.2237
6.224
6.22398
6.22369
4.95238
4.95255
4.95231
4.95168
4.88207
4.88212
4.88206
4.88188
4.85787
4.85786
4.85786
4.85787
4.86218
4.86214
4.86212
4.86214
4.86265
4.86296
4.86303
4.86287
4.89359
4.89376
4.89379
4.89369
4.95408
4.95667
4.95661
4.95387
5.16785
5.16629
5.16556
5.16521
6.36987
6.37012
6.37013
6.36993
5.96803
5.96823
5.96819
5.96795
4.94875
4.94884
4.94859
4.94804
4.88172
4.88184
4.88179
4.88157
4.85824
4.85828
4.85828
4.85826
4.86055
4.86053
4.86052
4.86055
4.85987
4.86007
4.8601
4.85998
4.88537
4.88568
4.88573
4.88553
4.94204
4.9447
4.94463
4.94178
5.15338
5.15287
5.15234
5.1513
6.08291
6.08328
6.08329
6.08302
5.70227
5.70236
5.7023
5.70212
4.94539
4.94549
4.94528
4.94477
4.88107
4.88129
4.88126
4.88099
4.85904
4.85911
4.85911
4.85907
4.85972
4.85971
4.85972
4.85976
4.85862
4.85873
4.85874
4.85866
4.87774
4.87812
4.87817
4.87793
4.92897
4.93173
4.9317
4.92883
5.13737
5.13814
5.13788
5.13606
5.78648
5.78693
5.78695
5.78664
5.42735
5.42731
5.42723
5.42713
4.94105
4.94135
4.94122
4.94068
4.87948
4.8798
4.87978
4.87945
4.85961
4.85969
4.85969
4.85962
4.85941
4.85942
4.85944
4.85948
4.85827
4.85831
4.85832
4.85829
4.86986
4.87021
4.87026
4.87003
4.9119
4.91438
4.91439
4.9119
5.11106
5.11342
5.11349
5.11074
5.48147
5.48199
5.48201
5.48168
5.14312
5.14288
5.14279
5.14286
4.92725
4.92804
4.92802
4.92714
4.87551
4.87574
4.87572
4.87548
4.85974
4.85978
4.85978
4.85972
4.85963
4.85965
4.85967
4.8597
4.85873
4.85874
4.85875
4.85875
4.86324
4.86344
4.86347
4.86335
4.8905
4.89171
4.89171
4.89049
5.04919
5.05275
5.05306
5.04961
5.16799
5.16855
5.16856
5.16818
10.1116
9.36502
9.05234
8.9396
8.87488
8.8292
8.7987
8.78139
8.77202
8.76652
103.677
49.0943
35.725
29.9394
24.5518
19.9524
16.3726
13.7045
11.8016
10.4422
160.767
70.7459
51.023
43.6928
37.1571
31.4036
26.5823
22.7133
19.6804
17.3152
206.072
82.4512
55.8929
46.6575
39.3036
32.7218
27.198
22.8182
19.4388
16.8627
241.52
88.7533
58.74
47.8843
39.998
32.6685
26.6258
21.9198
18.3469
15.7146
277.485
94.501
60.8926
48.2103
39.7451
31.6998
25.2867
20.4194
16.8527
14.3154
306.48
97.98
61.6146
47.6752
38.9228
30.4138
23.865
19.0203
15.5596
13.19
314.604
93.6055
56.5702
42.13
33.8004
25.6927
19.8587
15.7551
13.0208
11.2153
224.074
56.0462
30.5073
21.0691
16.2368
12.1939
9.93708
8.60242
7.79776
7.27641
9.56959
9.54339
9.38809
9.3617
9.3151
9.28897
9.26823
9.25714
9.24963
9.24318
9.36465
9.0541
8.90167
8.81598
8.76196
8.72623
8.703
8.68913
8.68182
8.67729
53.1083
28.6721
22.5534
19.4471
16.671
14.2047
12.1741
10.6156
9.47978
8.69032
89.8701
46.2092
35.7562
30.989
27.1622
23.5003
20.2912
17.6415
15.5219
13.9103
122.002
58.4907
42.7952
35.5842
30.5137
25.7412
21.6817
18.4187
15.8774
13.9994
152.188
68.6173
47.7819
38.4645
32.3335
26.6356
21.9464
18.2786
15.4755
13.4745
186.043
78.7233
52.078
40.4165
33.1941
26.6128
21.4111
17.4668
14.5731
12.5827
216.767
86.3241
54.6529
41.1829
33.273
26.1057
20.6437
16.6238
13.7465
11.8394
232.784
86.6259
51.8755
37.4245
29.502
22.5131
17.5286
14.0543
11.7457
10.2734
167.174
54.6827
29.0331
19.3473
14.663
11.2051
9.26135
8.12155
7.42856
6.9999
9.81673
9.50035
9.32946
9.26616
9.21132
9.1781
9.15398
9.13922
9.12879
9.11981
8.73457
8.69302
8.66019
8.6329
8.61155
8.59604
8.58569
8.5795
8.57619
8.57392
19.9554
16.5798
14.502
12.6843
11.1173
9.81723
8.80592
8.06017
7.52435
7.15392
35.881
28.6791
24.8958
21.6685
18.9025
16.5027
14.515
12.9177
11.6489
10.6927
50.9421
37.8675
31.4894
26.3146
22.2361
18.8264
16.0914
13.9495
12.2964
11.0886
65.9864
45.6057
36.5726
29.5522
24.3465
20.1005
16.7965
14.2812
12.3758
11.0289
83.0607
53.2587
41.0924
32.0416
25.6957
20.6281
16.8172
14.0039
11.9644
10.577
98.9425
59.112
44.1022
33.4094
26.2858
20.6615
16.5646
13.6316
11.5555
10.1907
108.261
59.7037
42.5655
30.9572
23.7177
18.1794
14.3972
11.8393
10.1593
9.0912
75.8575
36.6182
23.8443
16.2481
12.2057
9.66932
8.28136
7.46613
6.95898
6.64091
9.56926
9.37523
9.24152
9.16177
9.10428
9.06835
9.04332
9.02624
9.01357
9.00274
8.50597
8.49583
8.48475
8.47479
8.46723
8.46209
8.45888
8.45726
8.45697
8.45671
10.9446
10.1357
9.28431
8.44018
7.73457
7.19368
6.79679
6.51091
6.30446
6.16105
19.8487
18.0101
16.1593
14.2917
12.6823
11.3598
10.3036
9.47276
8.81824
8.32778
28.4306
24.5917
21.158
17.9671
15.3879
13.3224
11.7043
10.4563
9.50219
8.81124
37.173
30.6134
25.3942
20.8385
17.3493
14.6271
12.5552
11.006
9.84211
9.02188
47.3885
36.9191
29.4913
23.3352
18.8435
15.4224
12.9026
11.0783
9.76995
8.88279
56.9787
42.0287
32.5213
24.9846
19.7318
15.8074
13.0086
11.0486
9.67223
8.7643
62.7229
43.2339
32.0661
23.6875
18.2105
14.286
11.6651
9.93138
8.79624
8.06569
42.7013
26.1848
17.9552
12.7767
10.0126
8.38397
7.46811
6.91492
6.55695
6.32703
9.32472
9.18653
9.07961
9.01009
8.962
8.93044
8.90775
8.89144
8.87911
8.86876
8.33012
8.32858
8.32706
8.32588
8.32518
8.32488
8.32492
8.32539
8.32654
8.32779
6.99998
6.75955
6.50588
6.26787
6.07039
5.91493
5.79564
5.70531
5.63739
5.5905
11.6017
10.9158
10.1427
9.36826
8.68523
8.11635
7.66027
7.30179
7.01634
6.80112
16.4167
14.9357
13.359
11.8494
10.567
9.52028
8.69523
8.06002
7.57446
7.22439
21.503
18.907
16.3396
14.0003
12.1054
10.6095
9.46984
8.62347
7.98541
7.5334
27.7311
23.4181
19.4933
16.0769
13.4352
11.4147
9.92809
8.86045
8.09433
7.57234
33.6969
27.3591
22.0512
17.6298
14.367
11.944
10.2218
9.02768
8.18354
7.61868
37.3654
28.7771
22.2532
17.1445
13.626
11.1498
9.50211
8.41694
7.69663
7.22265
24.5105
17.3245
12.8007
9.95017
8.35841
7.40116
6.82724
6.46491
6.21869
6.05721
9.0508
8.96797
8.89656
8.84563
8.80833
8.78161
8.76145
8.74629
8.73456
8.72486
8.18032
8.18045
8.18082
8.18141
8.18214
8.18293
8.18374
8.18475
8.18627
8.18816
5.60931
5.56571
5.51406
5.46207
5.41521
5.37514
5.34217
5.31596
5.29626
5.28397
7.50181
7.31012
7.0621
6.80444
6.57113
6.37464
6.21617
6.09005
5.98518
5.90387
9.96834
9.46283
8.84432
8.22444
7.67805
7.22536
6.86487
6.58406
6.36566
6.20757
12.7227
11.7629
10.655
9.59662
8.70536
7.9947
7.45048
7.04411
6.73013
6.50358
16.3142
14.6005
12.7499
11.0597
9.69706
8.64669
7.86956
7.30802
6.89766
6.61425
19.8524
17.239
14.5809
12.2659
10.4842
9.15714
8.20882
7.54773
7.0678
6.73858
22.1128
18.4184
14.9982
12.2237
10.2363
8.83982
7.89959
7.27037
6.83995
6.54913
14.3893
11.535
9.42518
8.04961
7.21396
6.67845
6.33152
6.10171
5.93733
5.82806
8.79598
8.75007
8.70602
8.67068
8.64246
8.62052
8.60316
8.5896
8.57886
8.57012
8.02985
8.03019
8.03076
8.03152
8.03237
8.03323
8.03405
8.03501
8.03645
8.03828
5.19773
5.18932
5.17953
5.16892
5.15837
5.14846
5.13977
5.13276
5.1282
5.12675
5.83854
5.79221
5.73012
5.66387
5.60233
5.5495
5.5062
5.47061
5.43771
5.41049
6.94743
6.78954
6.58323
6.36865
6.17264
6.00506
5.86693
5.75517
5.66486
5.59893
8.29425
7.96059
7.54416
7.13312
6.77637
6.48579
6.25783
6.0828
5.94031
5.83413
10.2188
9.55351
8.77187
8.03451
7.42123
6.93968
6.57491
6.30366
6.09779
5.95294
12.1901
11.1273
9.92854
8.8522
7.99674
7.34977
6.87679
6.53823
6.28041
6.0976
13.5239
11.955
10.3449
9.00287
8.00652
7.29279
6.7962
6.45172
6.20614
6.03596
9.42677
8.38643
7.50742
6.88468
6.46171
6.16809
5.9628
5.82042
5.71321
5.64155
8.56072
8.53634
8.50974
8.48556
8.4646
8.44715
8.43274
8.42108
8.41161
8.40403
7.87196
7.87224
7.87267
7.87325
7.8739
7.87454
7.87514
7.87585
7.87704
7.87865
5.06371
5.06176
5.05971
5.05735
5.05469
5.05192
5.0494
5.04752
5.04704
5.04822
5.23602
5.22745
5.21596
5.20325
5.19115
5.18086
5.17279
5.16602
5.15753
5.14932
5.69433
5.65163
5.59245
5.52707
5.46361
5.40614
5.35602
5.31321
5.27703
5.25063
6.28747
6.18821
6.05567
5.91813
5.79271
5.68576
5.59799
5.52755
5.46576
5.41778
7.22341
6.99155
6.70389
6.42051
6.17402
5.97202
5.81169
5.68669
5.58716
5.51613
8.23296
7.84106
7.36636
6.92379
6.55678
6.26821
6.04751
5.8825
5.74877
5.65044
8.99202
8.37514
7.70215
7.11851
6.66329
6.32234
6.07268
5.89118
5.756
5.66059
7.18787
6.82489
6.47042
6.18922
5.97607
5.81613
5.69633
5.60972
5.54108
5.49534
8.33616
8.32291
8.30666
8.29028
8.27506
8.26166
8.25014
8.24051
8.23249
8.22615
7.7043
7.70452
7.70481
7.7052
7.70563
7.70603
7.70639
7.70684
7.70775
7.70911
5.01377
5.01288
5.01208
5.01119
5.01012
5.00895
5.0079
5.00728
5.00765
5.00908
5.02033
5.01929
5.01834
5.01735
5.01663
5.01657
5.0173
5.01808
5.01676
5.01453
5.20641
5.19543
5.1791
5.1594
5.13873
5.11871
5.10019
5.08345
5.06876
5.05818
5.46239
5.43617
5.39813
5.35544
5.31368
5.27593
5.24338
5.21602
5.18965
5.16808
5.89553
5.82138
5.72482
5.62295
5.52832
5.44596
5.37677
5.31995
5.27256
5.23863
6.38467
6.257
6.08849
5.92111
5.77298
5.64939
5.54936
5.47084
5.40267
5.35059
6.81046
6.58665
6.32952
6.09163
5.89326
5.73554
5.61341
5.52034
5.44819
5.39685
6.17994
6.04851
5.90258
5.77311
5.66518
5.57823
5.50894
5.45699
5.41359
5.38501
8.1134