/*--------------------------------*- C++ -*----------------------------------*\
| =========                 |                                                 |
| \\      /  F ield         | foam-extend: Open Source CFD                    |
|  \\    /   O peration     | Version:     4.0                                |
|   \\  /    A nd           | Web:         http://www.foam-extend.org         |
|    \\/     M anipulation  |                                                 |
\*---------------------------------------------------------------------------*/
FoamFile
{
    version     2.0;
    format      ascii;
    class       volScalarField;
    location    "1150";
    object      MaU;
}
// * * * * * * * * * * * * * * * * * * * * * * * * * * * * * * * * * * * * * //

dimensions      [0 0 0 0 0 0 0];

internalField   nonuniform List<scalar> 
34480
(
0.623404
0.624411
0.624954
0.625074
0.624776
0.623985
0.622563
0.619826
0.613729
0.607907
0.626752
0.627606
0.62808
0.628121
0.627569
0.626281
0.624281
0.621317
0.614281
0.60869
0.628863
0.629654
0.630044
0.629963
0.629239
0.627903
0.62614
0.623858
0.616825
0.611701
0.628787
0.629601
0.630066
0.630124
0.629633
0.62871
0.627457
0.6259
0.619275
0.61466
0.629155
0.630081
0.630695
0.630983
0.630823
0.630387
0.629688
0.628911
0.623087
0.618991
0.628656
0.62965
0.630359
0.630787
0.630873
0.630848
0.630689
0.630742
0.626114
0.622869
0.628777
0.629923
0.630749
0.631324
0.631626
0.631946
0.632284
0.633159
0.629989
0.627575
0.628139
0.629333
0.630121
0.630585
0.630772
0.631044
0.631534
0.632949
0.631302
0.630099
0.627884
0.629236
0.630136
0.63073
0.631085
0.63151
0.632244
0.634155
0.633786
0.632511
0.624091
0.625187
0.625283
0.62445
0.622863
0.620903
0.619031
0.618532
0.617815
0.618782
0.613511
0.614981
0.615559
0.615315
0.614177
0.611869
0.607763
0.600502
0.589795
0.575923
0.618046
0.61938
0.619918
0.619664
0.618429
0.61584
0.611303
0.603456
0.590785
0.574593
0.621037
0.62229
0.622779
0.622495
0.621191
0.618561
0.614102
0.606427
0.592927
0.575586
0.621773
0.623039
0.623599
0.623456
0.622366
0.620088
0.616037
0.608802
0.594931
0.577201
0.622824
0.62417
0.624854
0.624926
0.624144
0.622328
0.618805
0.612223
0.598463
0.580918
0.622865
0.624263
0.625037
0.625254
0.624715
0.62332
0.620348
0.614561
0.601364
0.584637
0.623436
0.62495
0.625826
0.626194
0.625878
0.624858
0.622427
0.6175
0.605242
0.589617
0.623118
0.624667
0.625517
0.625805
0.625435
0.624477
0.622337
0.61813
0.607069
0.593157
0.623103
0.62476
0.625702
0.626101
0.625904
0.625175
0.623423
0.619963
0.610168
0.597079
0.619495
0.620971
0.621357
0.620737
0.619167
0.616802
0.613375
0.608615
0.599299
0.589347
0.605873
0.607445
0.608013
0.607696
0.606459
0.604144
0.600455
0.594892
0.586818
0.576606
0.61069
0.612247
0.612816
0.612447
0.611021
0.608277
0.603705
0.596443
0.585033
0.569823
0.613954
0.615513
0.61608
0.615711
0.614226
0.611308
0.606334
0.598175
0.584151
0.564298
0.615185
0.616806
0.617455
0.617204
0.615855
0.613084
0.608113
0.599538
0.58338
0.559452
0.616716
0.618429
0.619194
0.619132
0.61802
0.615563
0.610838
0.602255
0.584612
0.557423
0.61718
0.618957
0.619814
0.619893
0.618989
0.616861
0.612485
0.604189
0.585672
0.556139
0.618115
0.619993
0.620948
0.621178
0.620481
0.618682
0.614719
0.606904
0.588088
0.556915
0.618097
0.620006
0.62095
0.621127
0.620404
0.618692
0.615002
0.60772
0.589127
0.557134
0.618335
0.620309
0.621324
0.621589
0.620994
0.619471
0.616141
0.609525
0.591584
0.55821
0.614964
0.61677
0.617374
0.61688
0.615274
0.612561
0.608083
0.600697
0.583317
0.55037
0.600288
0.601666
0.60214
0.601835
0.600746
0.598818
0.595951
0.592049
0.587087
0.581537
0.604841
0.606327
0.606847
0.606445
0.60505
0.602517
0.598595
0.592934
0.585086
0.576099
0.607956
0.609564
0.610123
0.609693
0.608151
0.60527
0.600625
0.593583
0.582976
0.569993
0.60939
0.611134
0.611784
0.611424
0.609894
0.606921
0.601887
0.593852
0.580601
0.563366
0.611193
0.613067
0.613826
0.613606
0.612206
0.609341
0.604205
0.59559
0.5801
0.558892
0.611953
0.613916
0.614768
0.614663
0.613398
0.610706
0.605632
0.596766
0.579491
0.554826
0.613165
0.61523
0.616171
0.6162
0.615095
0.612628
0.607742
0.598882
0.58034
0.55275
0.613404
0.6155
0.616441
0.616436
0.615314
0.612899
0.608148
0.599463
0.580238
0.550408
0.61386
0.615994
0.616988
0.617058
0.616039
0.613759
0.609196
0.600849
0.581605
0.549254
0.610732
0.612713
0.613421
0.61295
0.611227
0.608131
0.602801
0.59385
0.574805
0.541266
0.596391
0.597476
0.597838
0.597603
0.59679
0.595409
0.593475
0.591055
0.588299
0.585563
0.600391
0.60165
0.602091
0.601741
0.600571
0.598528
0.595542
0.591587
0.586714
0.581865
0.603058
0.604552
0.605069
0.604659
0.603252
0.600722
0.596856
0.591435
0.584172
0.576497
0.604427
0.606139
0.606764
0.606374
0.604859
0.602031
0.5975
0.590807
0.581017
0.569936
0.606277
0.608176
0.608912
0.608611
0.607112
0.604187
0.599255
0.591607
0.579436
0.564787
0.607171
0.609202
0.610037
0.609818
0.608369
0.605444
0.600291
0.591982
0.577674
0.559558
0.608537
0.610692
0.611614
0.611504
0.610152
0.60732
0.602109
0.593405
0.577323
0.555963
0.608955
0.611154
0.61209
0.611957
0.61058
0.60774
0.602492
0.593606
0.57626
0.552069
0.60958
0.611808
0.612784
0.612711
0.611408
0.608656
0.603462
0.594547
0.576578
0.549325
0.606675
0.608764
0.609547
0.609094
0.607305
0.603989
0.598272
0.588834
0.570645
0.541321
0.593706
0.594512
0.59477
0.594609
0.594057
0.593148
0.591929
0.590494
0.588975
0.58751
0.597115
0.598089
0.598435
0.598163
0.59727
0.595757
0.593649
0.591036
0.588116
0.585477
0.599218
0.600488
0.600932
0.600582
0.599404
0.597354
0.594374
0.590477
0.58577
0.581288
0.600354
0.601904
0.602468
0.602097
0.600724
0.598247
0.594483
0.589302
0.582511
0.575636
0.602075
0.603867
0.604547
0.604218
0.602761
0.600027
0.595669
0.58938
0.580455
0.570852
0.602964
0.604936
0.605723
0.605439
0.603947
0.601058
0.596262
0.589069
0.578071
0.565594
0.604371
0.6065
0.607375
0.607171
0.605705
0.602774
0.59771
0.589839
0.576964
0.561592
0.604881
0.607078
0.607981
0.607756
0.606244
0.603233
0.597969
0.589634
0.575259
0.557155
0.605621
0.607852
0.60879
0.608609
0.607139
0.604156
0.598826
0.590196
0.574849
0.55376
0.602907
0.605014
0.605827
0.605386
0.603582
0.600206
0.594489
0.585364
0.56952
0.546223
0.591842
0.59243
0.592607
0.592506
0.592156
0.591594
0.590865
0.590044
0.58921
0.588368
0.59474
0.595445
0.5957
0.595507
0.594873
0.593825
0.592417
0.59076
0.589035
0.587581
0.596283
0.59729
0.597647
0.597373
0.596456
0.594899
0.592728
0.590049
0.587079
0.584464
0.597114
0.598427
0.598909
0.598588
0.597431
0.595402
0.592455
0.58864
0.584092
0.579863
0.598594
0.600184
0.600785
0.600468
0.599157
0.596773
0.593155
0.588252
0.581969
0.57578
0.599372
0.601183
0.601895
0.601592
0.600175
0.597522
0.59334
0.587455
0.579371
0.570991
0.600727
0.60273
0.603535
0.603279
0.601822
0.599013
0.594416
0.587708
0.577889
0.567174
0.601244
0.603344
0.604189
0.60391
0.602379
0.599421
0.594502
0.587156
0.57585
0.562814
0.602049
0.604199
0.605077
0.604829
0.603305
0.600314
0.595232
0.587433
0.575044
0.559467
0.599484
0.601527
0.602331
0.601907
0.600153
0.596876
0.591477
0.583199
0.570172
0.552669
0.590512
0.590949
0.591068
0.59101
0.590798
0.590466
0.590042
0.589579
0.589112
0.588573
0.593023
0.593506
0.593685
0.593556
0.593131
0.59244
0.591538
0.590514
0.589498
0.588671
0.594075
0.594827
0.595099
0.594898
0.594224
0.593102
0.59159
0.589807
0.587954
0.58641
0.594602
0.595652
0.596043
0.595786
0.594867
0.593293
0.591092
0.588384
0.585394
0.582796
0.595787
0.597125
0.597631
0.597353
0.596244
0.59428
0.591422
0.587753
0.583438
0.579482
0.596391
0.597973
0.598593
0.598303
0.597039
0.594743
0.591284
0.586674
0.580907
0.575353
0.597632
0.599433
0.600147
0.599878
0.598523
0.595991
0.59204
0.586583
0.579343
0.572009
0.598084
0.600006
0.600771
0.600473
0.599018
0.596283
0.591937
0.585779
0.577214
0.568052
0.598915
0.600909
0.601707
0.601428
0.599947
0.597126
0.592546
0.585867
0.576265
0.56513
0.596458
0.598361
0.599123
0.598724
0.59708
0.594038
0.58918
0.582044
0.571784
0.559155
0.589527
0.589866
0.589947
0.589916
0.589792
0.589601
0.589359
0.5891
0.588832
0.588448
0.591766
0.592085
0.592206
0.592125
0.591853
0.591414
0.590853
0.590232
0.589631
0.589147
0.59242
0.592955
0.593152
0.593013
0.59254
0.591767
0.590751
0.589594
0.588447
0.587526
0.592693
0.593492
0.593795
0.5936
0.592907
0.59174
0.59016
0.588293
0.586351
0.58475
0.593575
0.594649
0.595058
0.594829
0.593938
0.592396
0.590232
0.587575
0.584661
0.582143
0.593981
0.595301
0.595819
0.595563
0.594496
0.592605
0.589866
0.586384
0.582353
0.578707
0.595076
0.596628
0.59724
0.596985
0.595793
0.593625
0.590381
0.58611
0.580899
0.57595
0.595408
0.597096
0.597765
0.597476
0.596164
0.593762
0.590098
0.585147
0.578839
0.572522
0.59624
0.59802
0.598725
0.598444
0.597082
0.594554
0.590618
0.585144
0.577933
0.57017
0.593853
0.595558
0.596251
0.595888
0.594405
0.591696
0.587509
0.581618
0.573806
0.564975
0.588769
0.589046
0.589103
0.589087
0.589017
0.588908
0.588772
0.588627
0.588467
0.588167
0.590829
0.591034
0.591115
0.591066
0.590897
0.590626
0.590284
0.589911
0.589552
0.589258
0.591171
0.591536
0.591673
0.591581
0.591263
0.590748
0.590085
0.58935
0.588644
0.588089
0.591262
0.591845
0.59207
0.59193
0.591429
0.590597
0.589498
0.588243
0.586993
0.586003
0.591865
0.59269
0.593007
0.592829
0.592145
0.590984
0.589401
0.587531
0.585591
0.583993
0.592079
0.593135
0.593551
0.593338
0.592478
0.590987
0.588898
0.586349
0.583578
0.581204
0.593024
0.594308
0.594814
0.594589
0.593591
0.591816
0.589255
0.586024
0.582347
0.579046
0.593196
0.594621
0.595185
0.594923
0.593796
0.591779
0.588814
0.584977
0.580438
0.576153
0.594022
0.595555
0.596156
0.595895
0.594701
0.592537
0.589291
0.584973
0.579696
0.574398
0.591674
0.593142
0.593749
0.59343
0.592141
0.589825
0.586354
0.581672
0.575893
0.569878
0.588167
0.588404
0.588446
0.588439
0.588399
0.588338
0.588262
0.58818
0.588079
0.587828
0.590114
0.590245
0.590298
0.59027
0.590168
0.590004
0.589799
0.589575
0.589356
0.58917
0.590214
0.590454
0.590545
0.590486
0.590279
0.589947
0.589525
0.589066
0.588634
0.588296
0.590201
0.59061
0.590772
0.590676
0.590327
0.589753
0.58901
0.588183
0.587384
0.58677
0.590562
0.591171
0.591407
0.591275
0.59077
0.589926
0.588805
0.587522
0.586246
0.585237
0.590609
0.59142
0.591742
0.591575
0.59091
0.589779
0.588238
0.586423
0.584547
0.583013
0.59142
0.592443
0.592846
0.592661
0.59186
0.590465
0.588514
0.586141
0.583592
0.581413
0.591408
0.592564
0.593023
0.592799
0.591872
0.590246
0.587934
0.585057
0.581857
0.578996
0.59224
0.593512
0.594007
0.59378
0.592779
0.591002
0.588425
0.585133
0.581358
0.577805
0.589905
0.591119
0.591632
0.591361
0.590283
0.588376
0.585602
0.58201
0.577841
0.573837
0.587677
0.587888
0.58792
0.587918
0.587895
0.587862
0.587819
0.587771
0.587705
0.587485
0.589563
0.589645
0.589681
0.589665
0.589605
0.589507
0.589384
0.589249
0.589112
0.588988
0.589463
0.589614
0.589672
0.589635
0.589504
0.589295
0.589033
0.588751
0.588489
0.588282
0.589421
0.589699
0.589812
0.589749
0.589513
0.589129
0.588638
0.588102
0.587595
0.587214
0.589577
0.59001
0.590179
0.590085
0.589726
0.589133
0.588361
0.5875
0.586672
0.586039
0.589495
0.590094
0.590335
0.590208
0.589714
0.588886
0.587784
0.586523
0.585272
0.58429
0.590199
0.590985
0.591296
0.59115
0.590533
0.589477
0.588038
0.586344
0.584605
0.583182
0.589989
0.590891
0.591251
0.591069
0.590336
0.589076
0.587333
0.58524
0.583029
0.581148
0.590854
0.591872
0.592267
0.59208
0.591275
0.589872
0.587897
0.585465
0.582821
0.580474
0.588511
0.589475
0.589891
0.589671
0.588802
0.58729
0.58515
0.582481
0.579545
0.576936
0.587276
0.587468
0.587491
0.587493
0.58748
0.587461
0.587437
0.587409
0.587363
0.587165
0.589137
0.58919
0.589214
0.589206
0.589171
0.589113
0.589039
0.588956
0.588867
0.588779
0.588854
0.588945
0.58898
0.588957
0.588876
0.588748
0.588588
0.588419
0.588261
0.588136
0.588853
0.589037
0.589114
0.589074
0.58892
0.588669
0.588352
0.588008
0.587689
0.587453
0.588838
0.589134
0.589251
0.589185
0.588938
0.588534
0.588017
0.587451
0.586922
0.586531
0.588664
0.589091
0.589265
0.589174
0.588819
0.588232
0.587466
0.586611
0.585789
0.585168
0.589295
0.589878
0.59011
0.590001
0.589543
0.588771
0.587743
0.586563
0.585398
0.584478
0.588878
0.589554
0.589827
0.589685
0.589128
0.588186
0.586914
0.585436
0.583937
0.58272
0.589817
0.590605
0.590909
0.590762
0.59014
0.589074
0.587611
0.585866
0.584053
0.582522
0.587444
0.588178
0.588504
0.588331
0.587657
0.586502
0.584905
0.582984
0.580962
0.579299
0.586945
0.58712
0.587138
0.58714
0.587133
0.587123
0.587109
0.587092
0.587059
0.58688
0.588819
0.588854
0.588872
0.588868
0.588847
0.588812
0.588768
0.588715
0.588653
0.588586
0.588344
0.588395
0.588413
0.588398
0.588349
0.588272
0.588178
0.588079
0.587987
0.587914
0.588447
0.588565
0.588618
0.588594
0.588496
0.588335
0.588134
0.587917
0.587717
0.58757
0.588284
0.588479
0.588557
0.588513
0.588348
0.58808
0.587742
0.587379
0.587047
0.586811
0.588057
0.588352
0.588473
0.58841
0.588164
0.58776
0.587242
0.586675
0.586142
0.585757
0.588645
0.589063
0.58923
0.589151
0.588824
0.588279
0.587565
0.586765
0.585998
0.58541
0.588011
0.588498
0.588697
0.58859
0.588183
0.587503
0.586604
0.585588
0.584592
0.58382
0.58908
0.589671
0.589896
0.589786
0.589324
0.588543
0.587495
0.586278
0.58506
0.584072
0.586648
0.587182
0.587428
0.587297
0.586794
0.585943
0.584791
0.583449
0.582087
0.581053
0.586665
0.586825
0.586837
0.58684
0.586836
0.58683
0.586822
0.586812
0.586788
0.586628
0.588604
0.588628
0.588642
0.588641
0.588628
0.588607
0.588579
0.588543
0.588498
0.588443
0.5879
0.587923
0.587931
0.587921
0.587891
0.587847
0.587793
0.587737
0.587687
0.587649
0.588168
0.588243
0.588277
0.588264
0.588203
0.588103
0.587976
0.587841
0.587716
0.587627
0.587875
0.587999
0.588049
0.58802
0.587912
0.58774
0.587525
0.587297
0.587092
0.586956
0.587629
0.587826
0.587908
0.587866
0.5877
0.587431
0.587089
0.586721
0.586381
0.586148
0.588192
0.588481
0.588597
0.588542
0.588316
0.587944
0.587464
0.586935
0.586441
0.586071
0.587329
0.587666
0.587806
0.587729
0.587441
0.586967
0.586351
0.585672
0.585022
0.584546
0.588598
0.589027
0.589187
0.589109
0.588779
0.588227
0.587501
0.586676
0.585875
0.585243
0.586056
0.586426
0.586606
0.586511
0.586149
0.585544
0.584739
0.583831
0.582933
0.58231
0.586399
0.586541
0.586549
0.586552
0.58655
0.586547
0.586543
0.586537
0.58652
0.586378
0.588497
0.588517
0.588528
0.588528
0.58852
0.588506
0.588487
0.588461
0.588425
0.588375
0.5875
0.587506
0.587507
0.587499
0.587481
0.587456
0.587426
0.587398
0.587373
0.58736
0.58799
0.588037
0.588059
0.588052
0.588015
0.587953
0.587876
0.587792
0.587716
0.587663
0.587588
0.587663
0.587694
0.587675
0.587608
0.5875
0.587365
0.587225
0.587102
0.587029
0.58735
0.587478
0.587533
0.587506
0.587399
0.587224
0.587004
0.586769
0.586555
0.586417
0.587892
0.588083
0.58816
0.588122
0.587972
0.587726
0.587414
0.587075
0.586765
0.586538
0.586787
0.587012
0.587107
0.587055
0.586859
0.586539
0.586127
0.585685
0.585267
0.584984
0.588336
0.588638
0.588749
0.588695
0.588468
0.588092
0.587605
0.587062
0.586548
0.586145
0.585581
0.585826
0.585954
0.585887
0.585636
0.585222
0.584677
0.584081
0.5835
0.58314
0.586048
0.586169
0.586173
0.586175
0.586174
0.586173
0.586172
0.586169
0.586159
0.58604
0.588524
0.588543
0.588552
0.588554
0.588549
0.588539
0.588524
0.588503
0.588472
0.588423
0.587142
0.587139
0.587137
0.587131
0.58712
0.587106
0.58709
0.587077
0.587067
0.587072
0.587898
0.587925
0.587938
0.587933
0.587911
0.587874
0.587828
0.587779
0.587735
0.587707
0.587413
0.587458
0.587478
0.587467
0.587425
0.587359
0.587277
0.587192
0.587118
0.587082
0.58721
0.587292
0.587328
0.587312
0.587244
0.587133
0.586994
0.586847
0.586713
0.586633
0.587716
0.587834
0.587882
0.587857
0.587759
0.587602
0.587405
0.587196
0.58701
0.586877
0.586384
0.58653
0.586595
0.586561
0.586432
0.586222
0.585953
0.585669
0.5854
0.585239
0.588288
0.588494
0.588568
0.588532
0.588381
0.588134
0.587818
0.58747
0.587151
0.58689
0.585089
0.585243
0.585332
0.585287
0.58512
0.584844
0.584486
0.584105
0.583733
0.583538
0.585388
0.585483
0.585485
0.585486
0.585486
0.585487
0.585488
0.585488
0.585486
0.585393
0.588752
0.588773
0.58878
0.58878
0.588777
0.588769
0.588758
0.588742
0.588715
0.588663
0.586873
0.586869
0.58687
0.586868
0.586863
0.586855
0.586844
0.586835
0.586829
0.586839
0.587874
0.587886
0.58789
0.587885
0.587871
0.58785
0.587825
0.587799
0.587779
0.587769
0.587351
0.587379
0.587392
0.587386
0.587362
0.587321
0.587271
0.587219
0.587174
0.587156
0.587202
0.587254
0.587278
0.587268
0.587226
0.587157
0.587071
0.58698
0.586895
0.586846
0.587648
0.587716
0.587743
0.587725
0.587662
0.587564
0.587444
0.587319
0.587215
0.587144
0.586196
0.586294
0.58634
0.58632
0.586238
0.586102
0.585928
0.585744
0.585564
0.585467
0.588507
0.58864
0.588687
0.588662
0.588563
0.588405
0.588206
0.587992
0.587802
0.587633
0.584349
0.584444
0.584507
0.584477
0.584368
0.584189
0.583957
0.583717
0.583473
0.583379
0.584109
0.584173
0.584177
0.584179
0.58418
0.584181
0.584181
0.58418
0.58418
0.584114
0.589321
0.589333
0.589329
0.589323
0.589318
0.589314
0.589311
0.589308
0.589298
0.589252
0.586807
0.586816
0.586828
0.586833
0.586832
0.586825
0.586814
0.586798
0.586782
0.586779
0.587889
0.587887
0.587884
0.587878
0.587868
0.587857
0.587845
0.587835
0.587833
0.58784
0.587385
0.587404
0.587414
0.587411
0.587396
0.587371
0.58734
0.587306
0.587277
0.587265
0.587295
0.58733
0.587345
0.587339
0.587312
0.587269
0.587215
0.587157
0.587103
0.58707
0.587667
0.587703
0.587716
0.587702
0.587662
0.5876
0.587526
0.587452
0.587397
0.587366
0.586378
0.586454
0.58649
0.586479
0.586425
0.586336
0.586221
0.586095
0.585964
0.585883
0.589118
0.589193
0.589218
0.589198
0.589132
0.589029
0.588904
0.588776
0.588675
0.588582
0.583088
0.583152
0.583197
0.583178
0.583105
0.582986
0.582834
0.582678
0.582507
0.582461
0.582305
0.582346
0.582358
0.582365
0.582367
0.582365
0.582358
0.582345
0.582329
0.582275
0.590262
0.59023
0.590199
0.590179
0.59017
0.590171
0.590182
0.590206
0.59024
0.590256
0.587008
0.587041
0.587063
0.587074
0.587076
0.58707
0.587055
0.587032
0.586997
0.586961
0.587899
0.587887
0.587879
0.587872
0.587864
0.587857
0.587851
0.587851
0.58786
0.58788
0.587461
0.587476
0.587484
0.587482
0.587471
0.587453
0.587431
0.587408
0.587387
0.587374
0.587414
0.587438
0.587449
0.587444
0.587425
0.587394
0.587356
0.587315
0.587278
0.587253
0.587711
0.587731
0.587739
0.587728
0.587698
0.587653
0.587601
0.587551
0.587518
0.58751
0.586921
0.586991
0.587021
0.587014
0.586975
0.586909
0.586824
0.586729
0.586622
0.586529
0.5901
0.590127
0.590138
0.590119
0.590069
0.589994
0.589905
0.589822
0.589777
0.589778
0.581427
0.581484
0.581517
0.581503
0.581448
0.581359
0.581248
0.581132
0.581005
0.580965
0.438871
0.418116
0.425009
0.465959
0.391036
0.367788
0.378801
0.436024
0.347894
0.320739
0.338036
0.416935
0.30988
0.280472
0.304748
0.406046
0.278442
0.248356
0.279844
0.403641
0.251393
0.221829
0.26161
0.400538
0.229702
0.20199
0.250541
0.397848
0.209331
0.185126
0.242503
0.395713
0.191398
0.173273
0.238911
0.397315
0.171948
0.161965
0.234598
0.392825
0.49889
0.488678
0.488997
0.498717
0.468314
0.455673
0.456801
0.469477
0.437468
0.420724
0.422912
0.440473
0.408499
0.387512
0.391078
0.413775
0.383874
0.358391
0.363607
0.391635
0.361868
0.331492
0.337428
0.37069
0.34402
0.308652
0.314392
0.352734
0.327608
0.287436
0.292699
0.336019
0.314091
0.269881
0.274662
0.322371
0.298771
0.252131
0.254508
0.304747
0.56622
0.563989
0.563457
0.564602
0.548322
0.5446
0.543898
0.546209
0.528343
0.522424
0.521605
0.525942
0.506146
0.497858
0.497043
0.503872
0.485172
0.474432
0.473786
0.483504
0.464112
0.450784
0.450343
0.463053
0.445191
0.429193
0.428918
0.444562
0.426574
0.408025
0.407882
0.426282
0.410329
0.390092
0.389986
0.410303
0.391452
0.371698
0.370864
0.3907
0.578652
0.577553
0.577203
0.577566
0.568861
0.567423
0.566927
0.567304
0.556988
0.554479
0.553754
0.554663
0.542244
0.538432
0.537517
0.539245
0.52782
0.522562
0.521532
0.524381
0.512258
0.505424
0.504332
0.508565
0.497662
0.48918
0.488066
0.493882
0.482357
0.472303
0.471222
0.478701
0.468142
0.457139
0.456103
0.464877
0.450333
0.440375
0.439077
0.447384
0.585484
0.584879
0.584677
0.584879
0.579483
0.578977
0.578741
0.578766
0.571978
0.571012
0.570583
0.570667
0.561895
0.560237
0.559578
0.559852
0.551943
0.54942
0.548538
0.549171
0.540644
0.537112
0.536033
0.537205
0.529912
0.525281
0.524047
0.525945
0.518131
0.512424
0.511105
0.513875
0.506964
0.500603
0.499281
0.502831
0.492235
0.487016
0.485565
0.488557
0.588025
0.587535
0.587388
0.587586
0.584405
0.584168
0.584054
0.58406
0.579287
0.578841
0.578619
0.578614
0.572077
0.571294
0.570911
0.570913
0.565024
0.563774
0.563199
0.563258
0.556699
0.554856
0.554073
0.554269
0.548865
0.546334
0.545356
0.545796
0.539966
0.536728
0.535607
0.536413
0.531547
0.52786
0.526701
0.527911
0.519648
0.517082
0.515845
0.516384
0.58911
0.588666
0.588542
0.588741
0.587057
0.58694
0.586884
0.586889
0.583487
0.583269
0.583156
0.583149
0.578128
0.577738
0.577531
0.577503
0.572922
0.572285
0.57195
0.571907
0.566562
0.565591
0.565098
0.565058
0.560712
0.559332
0.55867
0.558676
0.55391
0.55209
0.551285
0.551408
0.547753
0.545624
0.54476
0.545069
0.53808
0.537067
0.536156
0.5357
0.5894
0.588973
0.588858
0.589057
0.588365
0.588295
0.588264
0.588271
0.585874
0.585756
0.585697
0.585696
0.581867
0.581658
0.581544
0.581526
0.577965
0.577622
0.577431
0.577391
0.572995
0.572463
0.572169
0.572105
0.568548
0.567777
0.567363
0.567286
0.563265
0.562232
0.561705
0.56165
0.558857
0.557623
0.557031
0.557041
0.550805
0.550704
0.550097
0.549305
0.589314
0.588895
0.588784
0.588982
0.58895
0.588904
0.588885
0.588892
0.587208
0.587138
0.587105
0.587107
0.584218
0.5841
0.584035
0.584025
0.581295
0.581103
0.580994
0.580967
0.577394
0.577095
0.576921
0.576872
0.57402
0.573581
0.573328
0.573257
0.56987
0.569276
0.568946
0.568868
0.566724
0.566005
0.56562
0.565555
0.559884
0.560306
0.559934
0.559071
0.58905
0.588634
0.588525
0.588721
0.589121
0.589088
0.589075
0.589081
0.587887
0.587844
0.587824
0.587827
0.585679
0.585608
0.585569
0.585564
0.583494
0.583383
0.583319
0.583302
0.580442
0.580268
0.580165
0.580131
0.57793
0.577674
0.57752
0.577469
0.574644
0.574298
0.574094
0.574031
0.572433
0.57201
0.571767
0.5717
0.566525
0.567234
0.567021
0.56618
0.588715
0.588302
0.588193
0.588388
0.58907
0.589045
0.589035
0.58904
0.588164
0.588136
0.588124
0.588128
0.586565
0.58652
0.586496
0.586494
0.584935
0.584869
0.58483
0.58482
0.582559
0.582455
0.582392
0.582371
0.580748
0.580594
0.5805
0.580465
0.578117
0.577913
0.577788
0.577742
0.576641
0.576388
0.576237
0.576185
0.571455
0.572306
0.572194
0.571402
0.588369
0.587955
0.587846
0.588041
0.588912
0.588893
0.588885
0.588888
0.588196
0.588178
0.588171
0.588174
0.587082
0.587053
0.587037
0.587036
0.585857
0.585817
0.585794
0.585788
0.584017
0.583955
0.583917
0.583902
0.582778
0.582685
0.582627
0.582603
0.580631
0.580511
0.580433
0.580401
0.579759
0.579607
0.579514
0.579477
0.575132
0.576039
0.575987
0.57525
0.588038
0.587624
0.587516
0.58771
0.58872
0.588705
0.588697
0.588698
0.588082
0.588071
0.588066
0.588069
0.587368
0.587349
0.587339
0.587337
0.586425
0.586402
0.586389
0.586385
0.585008
0.584972
0.584948
0.584937
0.584234
0.584178
0.584142
0.584124
0.582422
0.582352
0.582305
0.582281
0.58207
0.581979
0.581921
0.581895
0.57787
0.578776
0.578757
0.578079
0.587735
0.58732
0.587213
0.587408
0.588539
0.588527
0.58852
0.58852
0.587883
0.587877
0.587875
0.587878
0.587518
0.587506
0.587499
0.587497
0.586756
0.586745
0.586738
0.586735
0.585671
0.585651
0.585637
0.585628
0.585269
0.585237
0.585215
0.585201
0.58366
0.583622
0.583593
0.583574
0.58378
0.583725
0.58369
0.583672
0.579891
0.580758
0.580757
0.58014
0.587455
0.58704
0.586934
0.587131
0.588403
0.588392
0.588385
0.588384
0.587636
0.587634
0.587634
0.587637
0.587598
0.587591
0.587587
0.587585
0.586938
0.586935
0.586931
0.586928
0.586111
0.586102
0.586093
0.586085
0.585999
0.585984
0.58597
0.585959
0.584474
0.584456
0.584439
0.584422
0.585049
0.585017
0.584995
0.584984
0.581357
0.582156
0.582163
0.581613
0.587167
0.586752
0.586651
0.586851
0.58834
0.588329
0.588322
0.588319
0.587363
0.587365
0.587366
0.587368
0.587654
0.587651
0.587648
0.587646
0.587036
0.587038
0.587037
0.587033
0.586412
0.586411
0.586406
0.586397
0.586514
0.586511
0.586503
0.586493
0.584968
0.584963
0.584952
0.584937
0.586011
0.585992
0.585979
0.585972
0.582368
0.583074
0.583084
0.582607
0.586773
0.586363
0.58627
0.586474
0.588386
0.588375
0.588367
0.588364
0.587088
0.587091
0.587094
0.587096
0.587715
0.587716
0.587715
0.587712
0.587105
0.587111
0.587112
0.587106
0.586648
0.586651
0.586648
0.586638
0.586889
0.586894
0.586891
0.586881
0.585252
0.585253
0.585245
0.58523
0.586792
0.586781
0.586774
0.586772
0.582935
0.583528
0.583537
0.583141
0.586048
0.585654
0.585576
0.58578
0.588621
0.588609
0.5886
0.588597
0.586861
0.586866
0.586868
0.586868
0.587795
0.5878
0.587801
0.587799
0.587188
0.587196
0.587196
0.587189
0.58687
0.586875
0.586873
0.586863
0.587183
0.587195
0.587196
0.587186
0.585476
0.585477
0.58547
0.585456
0.587557
0.587549
0.587546
0.587548
0.582937
0.583395
0.583399
0.583094
0.584643
0.584297
0.584241
0.584431
0.589207
0.589194
0.589187
0.589188
0.586788
0.58679
0.586788
0.586783
0.587884
0.587894
0.587897
0.587895
0.587295
0.587303
0.587303
0.587295
0.587093
0.587098
0.587096
0.587087
0.587425
0.587441
0.587444
0.587434
0.585842
0.585832
0.585824
0.585816
0.588542
0.58854
0.58854
0.588547
0.582146
0.582436
0.582434
0.582239
0.582584
0.582368
0.582343
0.582463
0.590249
0.590248
0.590253
0.590265
0.586926
0.586919
0.58691
0.586901
0.587938
0.587952
0.587958
0.587956
0.587394
0.5874
0.5874
0.587392
0.587267
0.587271
0.587269
0.587263
0.587578
0.587595
0.587599
0.58759
0.586398
0.58637
0.58636
0.586365
0.589876
0.589896
0.589903
0.589901
0.58069
0.580764
0.58076
0.580716
0.594811
0.603275
0.607292
0.6104
0.613527
0.616286
0.618527
0.620279
0.621651
0.622806
0.595584
0.598933
0.606379
0.611439
0.615914
0.619308
0.621781
0.623558
0.624817
0.62578
0.5994
0.595764
0.606763
0.61248
0.617766
0.621365
0.623939
0.625771
0.62704
0.627953
0.602768
0.591844
0.606463
0.61203
0.617888
0.621437
0.623998
0.625786
0.627016
0.627901
0.60717
0.589761
0.607116
0.61241
0.618707
0.622105
0.624638
0.626344
0.627487
0.628292
0.610156
0.587014
0.606758
0.61157
0.618312
0.621524
0.624073
0.625734
0.626888
0.627737
0.614062
0.585664
0.607485
0.611572
0.618712
0.62166
0.624228
0.625838
0.626971
0.627803
0.61555
0.582543
0.606415
0.60973
0.617372
0.620127
0.622862
0.624563
0.625902
0.626977
0.617153
0.581017
0.606824
0.608816
0.616611
0.618908
0.621875
0.623724
0.625265
0.626533
0.601598
0.56517
0.593613
0.595965
0.605634
0.609511
0.614171
0.617308
0.6199
0.62196
0.537446
0.559523
0.575871
0.587494
0.595453
0.600994
0.605
0.607992
0.610303
0.612226
0.523585
0.554139
0.576228
0.590176
0.59903
0.605023
0.609271
0.612354
0.614608
0.616288
0.513295
0.550963
0.577275
0.59228
0.601728
0.607989
0.61238
0.615527
0.617774
0.619388
0.504897
0.547899
0.577401
0.592719
0.602565
0.6089
0.613298
0.616408
0.618609
0.620178
0.500394
0.547017
0.578583
0.593947
0.604077
0.61036
0.614701
0.617714
0.619814
0.621293
0.49714
0.545868
0.578905
0.594024
0.604389
0.610548
0.614833
0.617764
0.619827
0.621312
0.496677
0.54622
0.58032
0.594905
0.605427
0.611364
0.615574
0.618411
0.62042
0.62187
0.495822
0.545205
0.580202
0.594085
0.604795
0.610519
0.614761
0.617622
0.619759
0.621388
0.496261
0.54548
0.581339
0.593973
0.604487
0.609747
0.614088
0.617068
0.619374
0.621189
0.487161
0.535443
0.572053
0.584209
0.595747
0.602026
0.607554
0.611462
0.614528
0.616828
0.568539
0.574833
0.580914
0.58629
0.590872
0.594703
0.597876
0.600497
0.60269
0.604585
0.555142
0.566562
0.576758
0.585088
0.591758
0.597009
0.601107
0.604295
0.606767
0.608657
0.542034
0.559215
0.573581
0.584463
0.592768
0.599016
0.603723
0.607276
0.60994
0.611902
0.528884
0.551771
0.570104
0.583082
0.592653
0.599557
0.604615
0.608349
0.611106
0.61311
0.518937
0.546866
0.568612
0.583162
0.593645
0.600932
0.606157
0.609938
0.612692
0.614668
0.510047
0.542267
0.56694
0.582606
0.593757
0.601244
0.60655
0.610336
0.613097
0.615096
0.503973
0.539676
0.566789
0.583131
0.594731
0.602251
0.60756
0.611306
0.614042
0.616025
0.498238
0.536585
0.565756
0.582406
0.594319
0.60179
0.607132
0.610909
0.613743
0.615863
0.494493
0.535207
0.566114
0.582435
0.59424
0.601432
0.606835
0.610712
0.613676
0.615947
0.484392
0.526309
0.558422
0.574689
0.587196
0.595111
0.601329
0.605869
0.609366
0.611915
0.578326
0.580755
0.583666
0.586614
0.589391
0.591903
0.594123
0.596065
0.597779
0.599341
0.56938
0.57418
0.579609
0.584758
0.589298
0.59316
0.596385
0.599045
0.60121
0.602929
0.558831
0.566928
0.575342
0.582763
0.588981
0.594048
0.598123
0.601366
0.603909
0.605854
0.546523
0.558623
0.570354
0.580024
0.587771
0.593829
0.598548
0.602207
0.605023
0.607138
0.535812
0.55218
0.567179
0.578847
0.587866
0.594667
0.599825
0.603734
0.606695
0.608883
0.52516
0.545815
0.563922
0.577286
0.587344
0.594687
0.600147
0.604219
0.607287
0.609557
0.516591
0.54135
0.562294
0.576997
0.587852
0.595538
0.601177
0.605328
0.608445
0.610741
0.508182
0.536685
0.560162
0.575844
0.587291
0.595177
0.600955
0.6052
0.608427
0.610847
0.501639
0.533769
0.559444
0.575531
0.587181
0.59505
0.600942
0.605296
0.60863
0.611171
0.490734
0.52546
0.552582
0.569057
0.581346
0.58978
0.596246
0.601071
0.604776
0.607443
0.584785
0.585566
0.586736
0.588103
0.589538
0.590954
0.5923
0.593553
0.594733
0.595888
0.579274
0.581167
0.583702
0.586433
0.589109
0.591595
0.593826
0.595778
0.597442
0.598814
0.5717
0.57513
0.579448
0.583838
0.587929
0.591556
0.594673
0.597289
0.599437
0.601146
0.56189
0.567511
0.574074
0.580326
0.585873
0.590584
0.594493
0.597682
0.600241
0.602236
0.552754
0.561031
0.570073
0.578192
0.585096
0.59074
0.595282
0.598896
0.601744
0.60392
0.542927
0.554189
0.565817
0.575712
0.583835
0.590255
0.595299
0.599238
0.602311
0.604652
0.534446
0.548876
0.563065
0.574547
0.583701
0.590718
0.596129
0.600288
0.603509
0.605938
0.525725
0.543353
0.55998
0.572791
0.582776
0.59023
0.595922
0.60027
0.603646