/*--------------------------------*- C++ -*----------------------------------*\
| =========                 |                                                 |
| \\      /  F ield         | foam-extend: Open Source CFD                    |
|  \\    /   O peration     | Version:     4.0                                |
|   \\  /    A nd           | Web:         http://www.foam-extend.org         |
|    \\/     M anipulation  |                                                 |
\*---------------------------------------------------------------------------*/
FoamFile
{
    version     2.0;
    format      ascii;
    class       surfaceScalarField;
    location    "1150";
    object      phi;
}
// * * * * * * * * * * * * * * * * * * * * * * * * * * * * * * * * * * * * * //

dimensions      [1 0 -1 0 0 0 0];

internalField   nonuniform List<scalar> 
97302
(
-0.000109798
9.20605e-07
-0.000869194
0.000878491
-0.000119604
1.10932e-06
-0.000870208
0.000878905
-0.000129521
1.16923e-06
-0.00087074
0.000879488
-0.000140118
1.10865e-06
-0.000870784
0.000880273
-0.000152222
9.1824e-07
-0.000870337
0.000881523
-0.000167314
5.87764e-07
-0.000869176
0.00088368
-0.000188484
9.06442e-08
-0.000866695
0.000887774
-0.000222731
-6.17123e-07
-0.000861072
0.000895936
-0.000271293
-1.65681e-06
-0.000851273
0.000901491
-4.40467e-06
-0.000823733
-0.00035294
0.000909785
-0.000150924
1.53105e-06
-0.00116536
0.00117548
-0.00016118
1.89216e-06
-0.00116636
0.00117583
-0.000171511
2.0137e-06
-0.00116698
0.00117646
-0.000182454
1.92584e-06
-0.00116701
0.00117714
-0.000194804
1.61275e-06
-0.00116622
0.00117788
-0.000210273
1.06271e-06
-0.00116422
0.00117921
-0.000232711
2.17622e-07
-0.00116062
0.00118293
-0.00027149
-1.01726e-06
-0.00115381
0.00119299
-0.000328228
-2.9427e-06
-0.00114145
0.00119948
-7.49164e-06
-0.00110347
-0.000432586
0.00121091
-0.0001912
1.78524e-06
-0.00146036
0.00147122
-0.000201748
2.2822e-06
-0.00146144
0.0014716
-0.00021225
2.4703e-06
-0.0014621
0.00147215
-0.000223213
2.40146e-06
-0.00146192
0.00147241
-0.000235564
2.05631e-06
-0.00146059
0.0014725
-0.000251433
1.42349e-06
-0.00145794
0.00147345
-0.000275303
4.22808e-07
-0.00145407
0.00147774
-0.00031826
-1.04397e-06
-0.00144749
0.00149048
-0.000381559
-3.42598e-06
-0.0014343
0.00149808
-9.19462e-06
-0.00138552
-0.000500496
0.00150616
-0.00023139
1.94482e-06
-0.00175137
0.00176263
-0.00024223
2.58574e-06
-0.00175269
0.00176323
-0.000253029
2.85623e-06
-0.00175362
0.00176404
-0.00026431
2.83109e-06
-0.00175367
0.00176452
-0.000277064
2.48055e-06
-0.00175252
0.00176485
-0.000293613
1.79499e-06
-0.00175013
0.00176631
-0.000318767
6.70995e-07
-0.00174659
0.0017715
-0.000364874
-9.82811e-07
-0.00174039
0.00178644
-0.000432875
-3.76794e-06
-0.00172678
0.00179512
-1.07058e-05
-0.00166692
-0.000560595
0.00179615
-0.000271486
2.16315e-06
-0.00204345
0.00205488
-0.000282496
2.87737e-06
-0.00204516
0.00205588
-0.000293466
3.18802e-06
-0.00204663
0.00205726
-0.000304944
3.18069e-06
-0.00204716
0.00205829
-0.000317992
2.8239e-06
-0.00204657
0.00205928
-0.00033505
2.10782e-06
-0.00204482
0.00206157
-0.000361218
9.1485e-07
-0.00204195
0.00206788
-0.000409872
-8.38708e-07
-0.00203646
0.00208497
-0.000481827
-3.90462e-06
-0.00202324
0.00209534
-1.19428e-05
-0.00195163
-0.000615045
0.00208609
-0.000312159
2.25589e-06
-0.00233407
0.00234578
-0.000323275
2.99793e-06
-0.00233627
0.00234726
-0.000334316
3.29645e-06
-0.00233815
0.00234909
-0.000345857
3.26075e-06
-0.00233913
0.00235059
-0.000359008
2.86886e-06
-0.00233909
0.00235219
-0.000376297
2.12033e-06
-0.00233811
0.00235538
-0.000403095
8.9666e-07
-0.00233618
0.00236299
-0.000453648
-8.67663e-07
-0.00233181
0.0023824
-0.000528919
-3.99056e-06
-0.00232014
0.0023955
-1.28989e-05
-0.00223649
-0.000665695
0.00237422
-0.000352667
2.26657e-06
-0.00262449
0.0026363
-0.000363729
2.91554e-06
-0.00262732
0.00263847
-0.000374696
3.14027e-06
-0.0026298
0.00264092
-0.000386149
3.01507e-06
-0.00263127
0.00264297
-0.00039925
2.54555e-06
-0.00263182
0.00264524
-0.000416559
1.72514e-06
-0.00263167
0.00264937
-0.000443694
4.90151e-07
-0.00263089
0.00265843
-0.000495586
-1.1738e-06
-0.00262816
0.00268035
-0.00057364
-3.91627e-06
-0.00261919
0.00269717
-1.30289e-05
-0.00252327
-0.000712438
0.0026622
-0.000394455
1.95631e-06
-0.00291553
0.00292775
-0.000405574
2.41232e-06
-0.00291899
0.00293061
-0.000416544
2.44575e-06
-0.0029216
0.00293326
-0.000427949
2.10956e-06
-0.00292303
0.00293534
-0.000440916
1.44085e-06
-0.00292348
0.00293755
-0.000457947
4.39706e-07
-0.0029235
0.00294182
-0.000484804
-8.64159e-07
-0.00292344
0.00295165
-0.000536881
-2.39899e-06
-0.00292217
0.00297547
-0.000616396
-4.17587e-06
-0.0029166
0.00299637
-1.21509e-05
-0.00281025
-0.000755603
0.00294858
-0.00043565
1.04303e-06
-0.00320301
0.00321538
-0.000446347
1.11435e-06
-0.00320735
0.00321935
-0.000456931
8.25497e-07
-0.0032106
0.00322281
-0.000468039
9.2463e-08
-0.00321264
0.00322577
-0.000480837
-9.67513e-07
-0.00321388
0.00322908
-0.000497708
-2.32753e-06
-0.0032149
0.00323454
-0.000524412
-3.7998e-06
-0.00321625
0.00324589
-0.000576207
-5.10872e-06
-0.0032173
0.00327181
-0.00065564
-5.50546e-06
-0.00321417
0.00329493
-1.01851e-05
-0.00309713
-0.000792328
0.00323186
-0.000477072
-0.00347126
0.00348422
-0.00048841
-0.00347513
0.00348758
-0.000499604
-0.00347603
0.00348805
-0.000511326
-0.00347362
0.00348543
-0.000524609
-0.00346856
0.00348087
-0.00054158
-0.00346194
0.00347659
-0.000567469
-0.00345498
0.00347707
-0.000616471
-0.00344921
0.0034931
-0.000689537
-0.00344588
0.00351344
-0.00333735
-0.000818573
0.00345621
1.44137e-05
8.55e-07
-0.000860713
5.33822e-06
1.07885e-06
-0.000862212
-3.76039e-06
1.1604e-06
-0.000862802
-1.30659e-05
1.1041e-06
-0.000862583
-2.27778e-05
8.99702e-07
-0.000861525
-3.31147e-05
5.28742e-07
-0.000859368
-4.42245e-05
-4.3004e-08
-0.000855542
-5.55263e-05
-8.94245e-07
-0.000848876
-6.62333e-05
-2.22035e-06
-0.000838346
-3.98482e-06
-0.000822051
-6.39306e-05
1.54213e-05
1.43731e-06
-0.00115548
5.41834e-06
1.85177e-06
-0.00115713
-4.57758e-06
2.00836e-06
-0.00115783
-1.48834e-05
1.93319e-06
-0.00115754
-2.57638e-05
1.60341e-06
-0.00115605
-3.75812e-05
9.96334e-07
-0.00115287
-5.11728e-05
4.98924e-08
-0.00114712
-6.75831e-05
-1.35213e-06
-0.00113694
-8.82102e-05
-3.59548e-06
-0.00111945
-6.64969e-06
-0.00109038
-9.86289e-05
1.6777e-05
1.70825e-06
-0.0014493
6.06789e-06
2.2722e-06
-0.00145115
-4.55501e-06
2.50209e-06
-0.00145197
-1.54223e-05
2.44742e-06
-0.00145157
-2.6871e-05
2.07368e-06
-0.00144962
-3.9635e-05
1.3565e-06
-0.00144554
-5.54603e-05
2.03123e-07
-0.0014384
-7.70784e-05
-1.50839e-06
-0.00142572
-0.000108578
-4.36171e-06
-0.00140203
-8.46147e-06
-0.0013584
-0.000133891
1.80366e-05
1.8858e-06
-0.00173963
6.8442e-06
2.61127e-06
-0.00174184
-4.26684e-06
2.93236e-06
-0.00174294
-1.56893e-05
2.92682e-06
-0.00174272
-2.7878e-05
2.54613e-06
-0.00174081
-4.18248e-05
1.76789e-06
-0.00173659
-5.98406e-05
4.58491e-07
-0.00172883
-8.60524e-05
-1.49565e-06
-0.00171419
-0.000128015
-4.88743e-06
-0.00168429
-9.987e-06
-0.00162436
-0.000169051
1.91958e-05
2.11708e-06
-0.00203133
7.71525e-06
2.92539e-06
-0.002034
-3.6803e-06
3.29288e-06
-0.00203559
-1.54436e-05
3.31135e-06
-0.00203579
-2.81671e-05
2.92871e-06
-0.00203423
-4.30285e-05
2.12224e-06
-0.00203032
-6.28042e-05
7.1925e-07
-0.00202244
-9.29186e-05
-1.38423e-06
-0.00200646
-0.000144872
-5.17022e-06
-0.00197101
-1.11465e-05
-0.00189386
-0.000201485
1.99406e-05
2.24217e-06
-0.00232155
8.27793e-06
3.08774e-06
-0.00232477
-3.25433e-06
3.45112e-06
-0.00232678
-1.51665e-05
3.45179e-06
-0.00232736
-2.81706e-05
3.04531e-06
-0.0023262
-4.36074e-05
2.21943e-06
-0.00232277
-6.46823e-05
7.81862e-07
-0.00231517
-9.79906e-05
-1.36083e-06
-0.00229853
-0.000159351
-5.29043e-06
-0.00225866
-1.19514e-05
-0.00216411
-0.000230928
2.03831e-05
2.24495e-06
-0.00261173
8.73698e-06
2.99639e-06
-0.00261558
-2.75088e-06
3.29168e-06
-0.00261815
-1.46065e-05
3.21599e-06
-0.00261918
-2.76718e-05
2.7649e-06
-0.00261847
-4.33973e-05
1.90992e-06
-0.00261563
-6.53679e-05
4.7556e-07
-0.00260862
-0.00010122
-1.63094e-06
-0.00259203
-0.00017127
-5.30412e-06
-0.00254912
-1.22905e-05
-0.00243726
-0.000256947
2.01421e-05
1.96005e-06
-0.00290235
8.48691e-06
2.52254e-06
-0.00290686
-2.9004e-06
2.65713e-06
-0.00290958
-1.4593e-05
2.42349e-06
-0.00291054
-2.74874e-05
1.85316e-06
-0.00290968
-4.31078e-05
9.14906e-07
-0.00290689
-6.53394e-05
-4.82493e-07
-0.00290025
-0.000102655
-2.44716e-06
-0.00288404
-0.000180107
-5.2495e-06
-0.0028392
-1.19109e-05
-0.00271117
-0.000279566
1.96165e-05
1.04533e-06
-0.00318956
8.42628e-06
1.19446e-06
-0.00319484
-2.46228e-06
1.03722e-06
-0.00319809
-1.36514e-05
4.54028e-07
-0.00319949
-2.61893e-05
-4.23712e-07
-0.00319906
-4.17108e-05
-1.60425e-06
-0.00319686
-6.43067e-05
-3.02719e-06
-0.00319111
-0.00010294
-4.68654e-06
-0.00317643
-0.000186348
-6.15002e-06
-0.00312986
-1.00653e-05
-0.00298333
-0.000301998
1.84541e-05
-0.00345751
7.01148e-06
-0.00346249
-3.92808e-06
-0.00346406
-1.50434e-05
-0.00346205
-2.72683e-05
-0.00345676
-4.22051e-05
-0.00344861
-6.37782e-05
-0.00343643
-0.000101184
-0.00341649
-0.000185986
-0.00336723
-0.00321325
-0.000320153
1.20396e-05
7.40872e-07
-0.000854013
4.44322e-06
9.80257e-07
-0.000855596
-3.27053e-06
1.0692e-06
-0.000856158
-1.10119e-05
1.00613e-06
-0.000855848
-1.86577e-05
7.84141e-07
-0.000854663
-2.59631e-05
3.873e-07
-0.00085245
-3.23766e-05
-2.06517e-07
-0.000848922
-3.6594e-05
-1.0351e-06
-0.000843623
-3.67333e-05
-2.18182e-06
-0.000836025
-3.45454e-06
-0.000826342
-2.89881e-05
1.38914e-05
1.28222e-06
-0.00114694
4.87893e-06
1.72066e-06
-0.00114886
-4.19822e-06
1.88659e-06
-0.00114957
-1.34306e-05
1.79981e-06
-0.0011491
-2.28239e-05
1.43783e-06
-0.00114731
-3.22275e-05
7.75694e-07
-0.00114386
-4.12408e-05
-2.40205e-07
-0.00113808
-4.87119e-05
-1.6824e-06
-0.00112882
-5.2177e-05
-3.76467e-06
-0.0011144
-6.17547e-06
-0.00109508
-4.47609e-05
1.60231e-05
1.58936e-06
-0.00143912
5.8391e-06
2.18433e-06
-0.00144143
-4.34611e-06
2.42398e-06
-0.00144233
-1.47264e-05
2.3509e-06
-0.00144174
-2.53966e-05
1.92573e-06
-0.00143943
-3.64199e-05
1.11259e-06
-0.00143485
-4.7911e-05
-1.838e-07
-0.00142697
-5.94035e-05
-2.06158e-06
-0.00141385
-6.849e-05
-4.92926e-06
-0.00139178
-8.43666e-06
-0.00135965
-6.49809e-05
1.77133e-05
1.81809e-06
-0.00172844
6.74063e-06
2.58544e-06
-0.00173127
-4.23334e-06
2.91819e-06
-0.00173246
-1.55167e-05
2.88955e-06
-0.00173198
-2.73544e-05
2.44428e-06
-0.00172949
-4.00762e-05
1.54398e-06
-0.0017243
-5.42442e-05
4.01494e-08
-0.00171489
-7.00542e-05
-2.18838e-06
-0.00169826
-8.5803e-05
-5.80367e-06
-0.00166767
-1.04212e-05
-0.00161986
-8.8319e-05
1.91594e-05
2.09486e-06
-0.00201948
7.67688e-06
2.95163e-06
-0.00202288
-3.78863e-06
3.33477e-06
-0.00202454
-1.56524e-05
3.3314e-06
-0.00202436
-2.83384e-05
2.88189e-06
-0.00202199
-4.24289e-05
1.94384e-06
-0.00201663
-5.89383e-05
3.1346e-07
-0.0020062
-7.88617e-05
-2.15836e-06
-0.00198656
-0.000101961
-6.40025e-06
-0.00194731
-1.20585e-05
-0.00188193
-0.000112256
2.0135e-05
2.2687e-06
-0.00230911
8.31202e-06
3.16712e-06
-0.00231316
-3.44151e-06
3.55094e-06
-0.00231524
-1.5634e-05
3.53752e-06
-0.00231538
-2.88466e-05
3.07019e-06
-0.00231318
-4.39116e-05
2.11566e-06
-0.00230787
-6.23302e-05
4.40279e-07
-0.00229687
-8.60059e-05
-2.12797e-06
-0.00227488
-0.000116916
-6.72357e-06
-0.00222743
-1.32546e-05
-0.00214341
-0.00013642
2.07154e-05
2.2942e-06
-0.00259888
8.80687e-06
3.09858e-06
-0.00260361
-2.99387e-06
3.42067e-06
-0.00260622
-1.52402e-05
3.3448e-06
-0.00260674
-2.86793e-05
2.858e-06
-0.00260482
-4.43532e-05
1.91497e-06
-0.00259976
-6.42488e-05
2.80274e-07
-0.00258856
-9.12087e-05
-2.26813e-06
-0.00256493
-0.000130028
-6.8266e-06
-0.0025102
-1.39969e-05
-0.00240704
-0.0001595
2.05556e-05
2.01997e-06
-0.00288903
8.61055e-06
2.63187e-06
-0.00289444
-3.11159e-06
2.81041e-06
-0.00289725
-1.52266e-05
2.61809e-06
-0.0028977
-2.85759e-05
2.07119e-06
-0.00289554
-4.43909e-05
1.12453e-06
-0.00289028
-6.51279e-05
-3.72981e-07
-0.00287886
-9.45272e-05
-2.68593e-06
-0.00285422
-0.000140737
-6.43171e-06
-0.00279339
-1.37547e-05
-0.00267133
-0.000180824
1.99465e-05
1.11979e-06
-0.00317591
8.45035e-06
1.30136e-06
-0.00318201
-2.77598e-06
1.22436e-06
-0.00318528
-1.43516e-05
7.51166e-07
-0.00318604
-2.72739e-05
5.67603e-09
-0.00318407
-4.30171e-05
-1.03218e-06
-0.00317896
-6.45445e-05
-2.35224e-06
-0.0031676
-9.63829e-05
-4.10046e-06
-0.00314318
-0.00014895
-6.37185e-06
-0.00307735
-1.15049e-05
-0.00293369
-0.000200837
1.87772e-05
-0.0034437
7.19845e-06
-0.00344961
-3.921e-06
-0.00345171
-1.52827e-05
-0.00344993
-2.77733e-05
-0.00344426
-4.28764e-05
-0.00343454
-6.35959e-05
-0.00341807
-9.53474e-05
-0.00338884
-0.000150717
-0.00331823
-0.00315987
-0.000215608
9.34472e-06
5.69855e-07
-0.000849149
3.47931e-06
8.1286e-07
-0.000850543
-2.56927e-06
9.05971e-07
-0.000851015
-8.52785e-06
8.41252e-07
-0.00085073
-1.40898e-05
6.16972e-07
-0.000849718
-1.88322e-05
2.24075e-07
-0.000847931
-2.21129e-05
-3.44516e-07
-0.000845297
-2.28928e-05
-1.09085e-06
-0.000841752
-1.95879e-05
-2.01095e-06
-0.000837319
-2.88965e-06
-0.000832442
-1.05981e-05
1.17402e-05
1.03447e-06
-0.00114008
4.13259e-06
1.48327e-06
-0.00114192
-3.60738e-06
1.65433e-06
-0.00114258
-1.13418e-05
1.55983e-06
-0.00114208
-1.88542e-05
1.18167e-06
-0.00114036
-2.57558e-05
5.01381e-07
-0.00113723
-3.12867e-05
-5.12673e-07
-0.00113238
-3.39285e-05
-1.88258e-06
-0.00112539
-3.08416e-05
-3.66683e-06
-0.00111584
-5.47033e-06
-0.00110518
-1.81635e-05
1.44772e-05
1.36841e-06
-0.00143033
5.31443e-06
1.97979e-06
-0.00143276
-3.9217e-06
2.22191e-06
-0.00143366
-1.32304e-05
2.12769e-06
-0.001433
-2.25048e-05
1.65954e-06
-0.00143064
-3.14501e-05
7.82136e-07
-0.00142619
-3.93886e-05
-5.82343e-07
-0.00141896
-4.4711e-05
-2.48675e-06
-0.00140792
-4.34915e-05
-5.12354e-06
-0.00139155
-7.96742e-06
-0.00137189
-2.87491e-05
1.66015e-05
1.65093e-06
-0.00171833
6.3205e-06
2.44694e-06
-0.00172145
-4.03342e-06
2.78282e-06
-0.00172267
-1.45953e-05
2.72293e-06
-0.00172201
-2.54094e-05
2.21252e-06
-0.00171923
-3.63871e-05
1.20892e-06
-0.00171375
-4.70612e-05
-4.24293e-07
-0.00170437
-5.58495e-05
-2.78e-06
-0.00168917
-5.79021e-05
-6.27968e-06
-0.00166446
-1.02634e-05
-0.00163249
-4.29741e-05
1.83892e-05
1.97921e-06
-0.00200841
7.32226e-06
2.87367e-06
-0.00201224
-3.78884e-06
3.26367e-06
-0.00201391
-1.52175e-05
3.22627e-06
-0.00201344
-2.71998e-05
2.70015e-06
-0.00201049
-3.98973e-05
1.63355e-06
-0.00200435
-5.31478e-05
-1.74726e-07
-0.0019932
-6.55881e-05
-2.87106e-06
-0.00197403
-7.1978e-05
-7.15697e-06
-0.00194005
-1.22853e-05
-0.00189311
-5.87707e-05
1.96559e-05
2.2128e-06
-0.00229723
8.03627e-06
3.1549e-06
-0.00230182
-3.57138e-06
3.55059e-06
-0.00230392
-1.55657e-05
3.50946e-06
-0.00230366
-2.8359e-05
2.96822e-06
-0.00230065
-4.23885e-05
1.87917e-06
-0.00229409
-5.78955e-05
-2.20034e-09
-0.00228154
-7.39486e-05
-2.87418e-06
-0.00225883
-8.55997e-05
-7.69579e-06
-0.00221524
-1.38467e-05
-0.00215145
-7.59968e-05
2.04383e-05
2.28097e-06
-0.00258638
8.57959e-06
3.13073e-06
-0.00259172
-3.22138e-06
3.47048e-06
-0.00259434
-1.54408e-05
3.37862e-06
-0.00259439
-2.86781e-05
2.83273e-06
-0.00259145
-4.36311e-05
1.77568e-06
-0.0025847
-6.10027e-05
-5.22714e-08
-0.00257114
-8.04352e-05
-2.93404e-06
-0.00254544
-9.79548e-05
-7.9182e-06
-0.00249246
-1.49505e-05
-0.00241052
-9.33688e-05
2.04335e-05
2.03337e-06
-0.00287595
8.46721e-06
2.68769e-06
-0.00288204
-3.32879e-06
2.8967e-06
-0.00288488
-1.55152e-05
2.72429e-06
-0.00288486
-2.88042e-05
2.16864e-06
-0.00288159
-4.41422e-05
1.17624e-06
-0.00287435
-6.27607e-05
-4.45918e-07
-0.00285984
-8.50198e-05
-3.05813e-06
-0.00283184
-0.000108599
-7.36119e-06
-0.00277036
-1.48526e-05
-0.00266967
-0.000110358
1.98894e-05
1.167e-06
-0.00316241
8.31505e-06
1.37623e-06
-0.00316912
-3.04525e-06
1.36441e-06
-0.00317239
-1.47516e-05
9.76777e-07
-0.00317259
-2.76536e-05
3.25418e-07
-0.00316933
-4.29314e-05
-6.2578e-07
-0.00316188
-6.24404e-05
-1.90959e-06
-0.00314663
-8.76521e-05
-3.76094e-06
-0.00311726
-0.000117151
-6.49665e-06
-0.00304872
-1.22105e-05
-0.00292654
-0.000126943
1.87951e-05
-0.00343009
7.25996e-06
-0.0034367
-3.88204e-06
-0.00343921
-1.52939e-05
-0.00343755
-2.77407e-05
-0.00343149
-4.24418e-05
-0.00342046
-6.13534e-05
-0.00340107
-8.70406e-05
-0.00336691
-0.000119764
-0.003292
-0.00315214
-0.0001397
6.85889e-06
3.83416e-07
-0.000845768
2.58772e-06
6.13608e-07
-0.000846886
-1.8844e-06
7.05332e-07
-0.000847248
-6.22716e-06
6.44282e-07
-0.000847032
-1.00958e-05
4.33668e-07
-0.000846283
-1.30852e-05
7.24057e-08
-0.000845014
-1.47014e-05
-4.31209e-07
-0.000843249
-1.43397e-05
-1.05573e-06
-0.000841058
-1.13284e-05
-1.75502e-06
-0.000838575
-2.35874e-06
-0.000836035
-5.37707e-06
9.40529e-06
7.40084e-07
-0.00113484
3.3227e-06
1.17828e-06
-0.0011364
-2.93967e-06
1.34764e-06
-0.00113696
-9.10145e-06
1.25184e-06
-0.00113653
-1.48199e-05
8.78566e-07
-0.00113509
-1.96251e-05
2.2068e-07
-0.00113257
-2.28009e-05
-7.27017e-07
-0.0011289
-2.32426e-05
-1.94255e-06
-0.00112406
-1.92859e-05
-3.38102e-06
-0.00111817
-4.68794e-06
-0.00111235
-9.77813e-06
1.25018e-05
1.07129e-06
-0.00142314
4.64643e-06
1.67918e-06
-0.00142541
-3.34848e-06
1.91736e-06
-0.00142623
-1.12988e-05
1.80693e-06
-0.0014256
-1.89289e-05
1.31568e-06
-0.00142344
-2.57665e-05
4.18404e-07
-0.00141955
-3.09347e-05
-9.31576e-07
-0.00141358
-3.28538e-05
-2.73647e-06
-0.00140521
-2.8634e-05
-5.01429e-06
-0.00139413
-7.21614e-06
-0.00138257
-1.54296e-05
1.49701e-05
1.38984e-06
-0.00170964
5.72819e-06
2.19829e-06
-0.00171273
-3.66207e-06
2.53168e-06
-0.00171389
-1.31324e-05
2.44258e-06
-0.00171318
-2.25181e-05
1.88119e-06
-0.00171041
-3.14535e-05
8.11326e-07
-0.00170521
-3.90459e-05
-8.69993e-07
-0.00169684
-4.33626e-05
-3.20535e-06
-0.00168439
-4.00802e-05
-6.37351e-06
-0.00166638
-9.6284e-06
-0.00164623
-2.39306e-05
1.7085e-05
1.76176e-06
-0.0019985
6.78872e-06
2.68162e-06
-0.00200243
-3.62406e-06
3.07349e-06
-0.00200404
-1.42283e-05
3.00062e-06
-0.00200339
-2.50296e-05
2.40432e-06
-0.00200021
-3.58507e-05
1.23328e-06
-0.00199395
-4.59135e-05
-6.83866e-07
-0.00198333
-5.30868e-05
-3.45044e-06
-0.00196661
-5.17331e-05
-7.4808e-06
-0.00194029
-1.18655e-05
-0.00190883
-3.37748e-05
1.86584e-05
2.05517e-06
-0.00228628
7.58109e-06
3.03275e-06
-0.00229109
-3.55659e-06
3.436e-06
-0.00229315
-1.4973e-05
3.36314e-06
-0.00229261
-2.68441e-05
2.7483e-06
-0.00228912
-3.9237e-05
1.53727e-06
-0.002282
-5.16258e-05
-4.95752e-07
-0.00226934
-6.18945e-05
-3.52386e-06
-0.00224848
-6.3463e-05
-8.213e-06
-0.00221294
-1.36716e-05
-0.00216791
-4.51918e-05
1.9675e-05
2.17857e-06
-0.00257461
8.17847e-06
3.06973e-06
-0.00258026
-3.32806e-06
3.42413e-06
-0.00258282
-1.51673e-05
3.31166e-06
-0.0025825
-2.77086e-05
2.70195e-06
-0.00257886
-4.12771e-05
1.52886e-06
-0.00257113
-5.57017e-05
-4.62764e-07
-0.00255675
-6.90581e-05
-3.54726e-06
-0.00253206
-7.43254e-05
-8.55183e-06
-0.00248685
-1.50101e-05
-0.00242643
-5.70814e-05
1.98714e-05
1.96776e-06
-0.00286347
8.16349e-06
2.66514e-06
-0.00286992
-3.44625e-06
2.90016e-06
-0.00287274
-1.53923e-05
2.73907e-06
-0.00287234
-2.81694e-05
2.16314e-06
-0.00286827
-4.23574e-05
1.10998e-06
-0.00285974
-5.82601e-05
-6.32355e-07
-0.00284377
-7.4409e-05
-3.44537e-06
-0.00281579
-8.39888e-05
-7.94264e-06
-0.00276139
-1.50342e-05
-0.00268433
-6.93046e-05
1.94521e-05
1.16587e-06
-0.00314939
8.05014e-06
1.40344e-06
-0.00315646
-3.21501e-06
1.44867e-06
-0.00315967
-1.47856e-05
1.13053e-06
-0.00315941
-2.73032e-05
5.50003e-07
-0.0031552
-4.15543e-05
-3.44995e-07
-0.00314617
-5.83425e-05
-1.62047e-06
-0.00312885
-7.73062e-05
-3.5469e-06
-0.0030982
-9.16885e-05
-6.47715e-06
-0.0030358
-1.20758e-05
-0.00293941
-8.17777e-05
1.84671e-05
-0.00341697
7.17866e-06
-0.00342401
-3.80134e-06
-0.00342678
-1.50439e-05
-0.00342517
-2.71394e-05
-0.00341884
-4.09588e-05
-0.00340699
-5.74524e-05
-0.00338619
-7.70978e-05
-0.00335081
-9.42625e-05
-0.00328132
-0.00316733
-9.11452e-05
4.82559e-06
2.09747e-07
-0.00084347
1.85371e-06
4.14163e-07
-0.000844328
-1.30319e-06
4.9957e-07
-0.000844591
-4.33614e-06
4.4623e-07
-0.000844445
-6.93828e-06
2.61248e-07
-0.000843942
-8.78663e-06
-5.05511e-08
-0.000843115
-9.55151e-06
-4.7097e-07
-0.000842014
-8.91775e-06
-9.67878e-07
-0.000840724
-6.65522e-06
-1.48442e-06
-0.000839353
-1.89863e-06
-0.000837933
-2.85781e-06
7.19073e-06
4.40445e-07
-0.00113098
2.54504e-06
8.47331e-07
-0.00113219
-2.29612e-06
1.00784e-06
-0.00113262
-7.00073e-06
9.17584e-07
-0.0011323
-1.11957e-05
5.69852e-07
-0.0011312
-1.44391e-05
-3.12662e-08
-0.00112935
-1.61706e-05
-8.69437e-07
-0.00112677
-1.57084e-05
-1.89608e-06
-0.00112359
-1.227e-05
-3.02094e-06
-0.00112007
-3.96547e-06
-0.00111689
-5.66798e-06
1.03831e-05
7.36769e-07
-0.00141749
3.9224e-06
1.31751e-06
-0.00141942
-2.72258e-06
1.54434e-06
-0.00142012
-9.24555e-06
1.42604e-06
-0.00141959
-1.52722e-05
9.37308e-07
-0.00141778
-2.02819e-05
6.745e-08
-0.00141464
-2.34766e-05
-1.19614e-06
-0.00141006
-2.36797e-05
-2.81368e-06
-0.00140409
-1.91828e-05
-4.70359e-06
-0.00139695
-6.38915e-06
-0.00139019
-9.13949e-06
1.30317e-05
1.063e-06
-0.00170246
5.03182e-06
1.86153e-06
-0.00170527
-3.18127e-06
2.18567e-06
-0.00170632
-1.1366e-05
2.07476e-06
-0.00170564
-1.91946e-05
1.48726e-06
-0.00170313
-2.61521e-05
4.00842e-07
-0.00169859
-3.12787e-05
-1.24333e-06
-0.00169167
-3.29193e-05
-3.43473e-06
-0.00168213
-2.80881e-05
-6.17805e-06
-0.00166974
-8.77644e-06
-0.00165729
-1.46343e-05
1.53896e-05
1.45995e-06
-0.00198995
6.1279e-06
2.38583e-06
-0.00199369
-3.32188e-06
2.77329e-06
-0.00199518
-1.28383e-05
2.66977e-06
-0.00199447
-2.22164e-05
2.02331e-06
-0.00199137
-3.10385e-05
7.92119e-07
-0.00198552
-3.82902e-05
-1.14763e-06
-0.00197617
-4.19182e-05
-3.83948e-06
-0.00196258
-3.74868e-05
-7.45063e-06
-0.00194345
-1.10808e-05
-0.00192301
-2.10051e-05
1.7233e-05
1.80298e-06
-0.00227655
6.98591e-06
2.80107e-06
-0.00228126
-3.39938e-06
3.20644e-06
-0.00228319
-1.39411e-05
3.10343e-06
-0.0022825
-2.45762e-05
2.42843e-06
-0.00227889
-3.5059e-05
1.13022e-06
-0.00227186
-4.44591e-05
-9.74815e-07
-0.00226011
-5.04899e-05
-4.0045e-06
-0.00224229
-4.73242e-05
-8.33073e-06
-0.00221523
-1.29938e-05
-0.00218463
-2.86917e-05
1.84778e-05
1.98629e-06
-0.00256388
7.6334e-06
2.90939e-06
-0.00256953
-3.29923e-06
3.27458e-06
-0.00257196
-1.44542e-05
3.14157e-06
-0.00257138
-2.59491e-05
2.47605e-06
-0.00256741
-3.77528e-05
1.21057e-06
-0.0025594
-4.91346e-05
-8.8074e-07
-0.00254546
-5.77359e-05
-4.01934e-06
-0.00252344
-5.65711e-05
-8.75635e-06
-0.00248759
-1.44132e-05
-0.00244488
-3.66973e-05
1.88948e-05
1.81756e-06
-0.00285189
7.71901e-06
2.55469e-06
-0.00285839
-3.44293e-06
2.81097e-06
-0.00286112
-1.48582e-05
2.65576e-06
-0.00286044
-2.67743e-05
2.05701e-06
-0.00285594
-3.93865e-05
9.50463e-07
-0.00284687
-5.23065e-05
-8.69198e-07
-0.00283086
-6.33867e-05
-3.74707e-06
-0.00280498
-6.49978e-05
-8.13178e-06
-0.00276041
-1.44657e-05
-0.00270405
-4.52191e-05
1.86326e-05
1.10963e-06
-0.00313716
7.65842e-06
1.37389e-06
-0.00314431
-3.26939e-06
1.46754e-06
-0.0031474
-1.44335e-05
1.20418e-06
-0.00314679
-2.62421e-05
6.75481e-07
-0.00314201
-3.90824e-05
-1.81958e-07
-0.0031322
-5.29115e-05
-1.45186e-06
-0.00311444
-6.6347e-05
-3.38772e-06
-0.00308512
-7.14054e-05
-6.29235e-06
-0.00303258
-1.12887e-05
-0.0029601
-5.38885e-05
1.77852e-05
-0.00340464
6.95451e-06
-0.0034118
-3.66325e-06
-0.00341469
-1.45066e-05
-0.00341312
-2.59619e-05
-0.00340671
-3.85315e-05
-0.0033946
-5.23597e-05
-0.00337382
-6.65976e-05
-0.00333996
-7.38216e-05
-0.00328038
-0.0031926
-5.98462e-05
3.29999e-06
6.59017e-08
-0.000841907
1.29796e-06
2.37521e-07
-0.000842563
-8.57153e-07
3.13427e-07
-0.000842749
-2.91284e-06
2.69843e-07
-0.000842659
-4.62834e-06
1.16515e-07
-0.000842343
-5.77022e-06
-1.3869e-07
-0.000841835
-6.13357e-06
-4.73188e-07
-0.000841177
-5.56655e-06
-8.53596e-07
-0.000840438
-4.0212e-06
-1.22738e-06
-0.000839671
-1.5097e-06
-0.000838788
-1.65703e-06
5.27404e-06
1.67352e-07
-0.00112819
1.85776e-06
5.27322e-07
-0.00112906
-1.74263e-06
6.73134e-07
-0.00112938
-5.20966e-06
5.93745e-07
-0.00112915
-8.20195e-06
2.86983e-07
-0.00112838
-1.03553e-05
-2.34716e-07
-0.0011271
-1.12751e-05
-9.41486e-07
-0.00112539
-1.05777e-05
-1.77337e-06
-0.00112337
-7.96258e-06
-2.63176e-06
-0.00112128
-3.31132e-06
-0.0011195
-3.5551e-06
8.33617e-06
4.02126e-07
-0.00141316
3.2077e-06
9.33098e-07
-0.00141469
-2.12152e-06
1.14116e-06
-0.00141526
-7.29517e-06
1.02372e-06
-0.00141485
-1.1912e-05
5.62227e-07
-0.00141344
-1.54848e-05
-2.39983e-07
-0.00141106
-1.73844e-05
-1.36748e-06
-0.00140774
-1.68508e-05
-2.75196e-06
-0.00140364
-1.30286e-05
-4.26788e-06
-0.00139913
-5.54532e-06
-0.00139515
-5.82897e-06
1.09769e-05
7.05183e-07
-0.00169674
4.2869e-06
1.46834e-06
-0.00169912
-2.65855e-06
1.77533e-06
-0.00170001
-9.50509e-06
1.65241e-06
-0.00169942
-1.58323e-05
1.06773e-06
-0.00169731
-2.1082e-05
1.58278e-08
-0.00169359
-2.44042e-05
-1.51894e-06
-0.0016882
-2.45929e-05
-3.48095e-06
-0.00168121
-1.9889e-05
-5.7705e-06
-0.00167294
-7.81305e-06
-0.00166528
-9.62952e-06
1.34492e-05
1.10207e-06
-0.00198283
5.38213e-06
2.00861e-06
-0.00198616
-2.93025e-06
2.38363e-06
-0.00198748
-1.12108e-05
2.25803e-06
-0.0019868
-1.91031e-05
1.58953e-06
-0.001984
-2.60586e-05
3.52209e-07
-0.0019789
-3.1063e-05
-1.52437e-06
-0.00197116
-3.24639e-05
-4.02338e-06
-0.00196064
-2.73121e-05
-7.13411e-06
-0.00194724
-1.00766e-05
-0.00193411
-1.39469e-05
1.54826e-05
1.47607e-06
-0.00226818
6.28131e-06
2.47251e-06
-0.00227252
-3.1286e-06
2.87245e-06
-0.00227427
-1.25847e-05
2.74494e-06
-0.00227353
-2.18279e-05
2.03294e-06
-0.00227009
-3.0398e-05
6.9688e-07
-0.00226363
-3.72275e-05
-1.39113e-06
-0.00225342
-4.03099e-05
-4.28181e-06
-0.00223895
-3.53703e-05
-8.10509e-06
-0.00221919
-1.19807e-05
-0.00219878
-1.93187e-05
1.69125e-05
1.71559e-06
-0.00255441
6.96481e-06
2.65392e-06
-0.00255976
-3.1486e-06
3.02373e-06
-0.002562
-1.33735e-05
2.87341e-06
-0.00256128
-2.36018e-05
2.16921e-06
-0.00255732
-3.35215e-05
8.51292e-07
-0.00254964
-4.21137e-05
-1.25892e-06
-0.002537
-4.71384e-05
-4.30473e-06
-0.0025184
-4.30058e-05
-8.57667e-06
-0.00249125
-1.33444e-05
-0.00246176
-2.4763e-05
1.75431e-05
1.58785e-06
-0.00284144
7.14615e-06
2.35513e-06
-0.0028477
-3.32368e-06
2.62625e-06
-0.00285025
-1.39537e-05
2.47397e-06
-0.00284941
-2.47561e-05
1.85737e-06
-0.00284482
-3.55991e-05
7.18038e-07
-0.00283589
-4.56564e-05
-1.12155e-06
-0.00282094
-5.26836e-05
-3.92687e-06
-0.00279833
-5.01344e-05
-7.95287e-06
-0.00276358
-1.33177e-05
-0.0027235
-3.07156e-05
1.74502e-05
9.98261e-07
-0.00312599
7.14416e-06
1.28385e-06
-0.00313293
-3.21002e-06
1.41663e-06
-0.00313584
-1.37161e-05
1.19546e-06
-0.00313501
-2.45539e-05
7.05441e-07
-0.00313002
-3.57617e-05
-1.21557e-07
-0.00312015
-4.6734e-05
-1.37268e-06
-0.00310322
-5.56136e-05
-3.24899e-06
-0.00307692
-5.52662e-05
-5.96065e-06
-0.00303492
-1.0111e-05
-0.00298219
-3.63858e-05
1.67613e-05
-0.00339335
6.59175e-06
-0.00340035
-3.46284e-06
-0.00340322
-1.36864e-05
-0.00340171
-2.4257e-05
-0.00339543
-3.53391e-05
-0.00338364
-4.65168e-05
-0.00336401
-5.62303e-05
-0.0033335
-5.75056e-05
-0.00328507
-0.00322029
-3.99233e-05
2.22084e-06
-4.17812e-08
-0.000840825
9.02606e-07
9.60346e-08
-0.000841341
-5.35226e-07
1.61318e-07
-0.000841473
-1.90098e-06
1.2772e-07
-0.000841421
-3.01904e-06
6.61346e-09
-0.000841232
-3.729e-06
-1.93465e-07
-0.000840931
-3.90632e-06
-4.49818e-07
-0.00084055
-3.47981e-06
-7.32838e-07
-0.000840131
-2.45985e-06
-9.99496e-07
-0.000839692
-1.19106e-06
-0.000839076
-9.8066e-07
3.72256e-06
-6.00296e-08
-0.00112617
1.28838e-06
2.44972e-07
-0.00112678
-1.30288e-06
3.72562e-07
-0.001127
-3.78292e-06
3.07042e-07
-0.00112685
-5.86986e-06
4.93892e-08
-0.00112633
-7.28632e-06
-3.83501e-07
-0.00112549
-7.76942e-06
-9.56073e-07
-0.0011244
-7.11443e-06
-1.60789e-06
-0.00112315
-5.23402e-06
-2.24943e-06
-0.00112191
-2.73214e-06
-0.00112088
-2.31159e-06
6.5026e-06
9.66331e-08
-0.00140992
2.55232e-06
5.60547e-07
-0.00141106
-1.58948e-06
7.43785e-07
-0.00141149
-5.57445e-06
6.34367e-07
-0.00141119
-9.02724e-06
2.19115e-07
-0.00141016
-1.15347e-05
-4.88381e-07
-0.00140845
-1.26364e-05
-1.45396e-06
-0.00140614
-1.18742e-05
-2.59652e-06
-0.00140342
-8.87748e-06
-3.78107e-06
-0.0014006
-4.73335e-06
-0.00139823
-3.79998e-06
8.96723e-06
3.5001e-07
-0.00169229
3.5461e-06
1.05374e-06
-0.00169419
-2.14541e-06
1.33579e-06
-0.00169491
-7.70468e-06
1.21065e-06
-0.00169444
-1.2686e-05
6.55923e-07
-0.00169276
-1.65616e-05
-3.18161e-07
-0.00168989
-1.86499e-05
-1.69326e-06
-0.00168587
-1.81445e-05
-3.38335e-06
-0.00168093
-1.41265e-05
-5.23849e-06
-0.0016755
-6.81261e-06
-0.00167079
-6.53844e-06
1.14133e-05
7.2011e-07
-0.00197707
4.59882e-06
1.57983e-06
-0.00197988
-2.49474e-06
1.93344e-06
-0.00198098
-9.49251e-06
1.79601e-06
-0.00198038
-1.59562e-05
1.13602e-06
-0.00197802
-2.13023e-05
-5.4299e-08
-0.00197382
-2.46399e-05
-1.79674e-06
-0.00196772
-2.47605e-05
-4.02496e-06
-0.00195987
-1.99211e-05
-6.61804e-06
-0.0019507
-8.95027e-06
-0.00194232
-9.57534e-06
1.3531e-05
1.10155e-06
-0.00226118
5.50651e-06
2.06935e-06
-0.00226499
-2.77875e-06
2.45468e-06
-0.00226651
-1.10254e-05
2.31098e-06
-0.0022658
-1.88426e-05
1.59065e-06
-0.00226273
-2.56612e-05
2.71172e-07
-0.00225714
-3.04537e-05
-1.71774e-06
-0.0022487
-3.16354e-05
-4.36272e-06
-0.00223743
-2.64321e-05
-7.62006e-06
-0.0022234
-1.07557e-05
-0.00220992
-1.34885e-05
1.50739e-05
1.386e-06
-0.00254631
6.20274e-06
2.31673e-06
-0.00255114
-2.8995e-06
2.68293e-06
-0.00255312
-1.20179e-05
2.52105e-06
-0.00255238
-2.08712e-05
1.80167e-06
-0.00254868
-2.89692e-05
4.79707e-07
-0.00254175
-3.52198e-05
-1.56833e-06
-0.0025309
-3.77311e-05
-4.40182e-06
-0.00251585
-3.25783e-05
-8.10114e-06
-0.00249593
-1.19764e-05
-0.00247586
-1.72555e-05
1.58874e-05
1.29132e-06
-0.00283227
6.46764e-06
2.07304e-06
-0.00283803
-3.10313e-06
2.35102e-06
-0.00284035
-1.27453e-05
2.20139e-06
-0.00283945
-2.22764e-05
1.57865e-06
-0.00283507
-3.13305e-05
4.37152e-07
-0.00282679
-3.88857e-05
-1.36042e-06
-0.0028136
-4.28915e-05
-3.98454e-06
-0.00279474
-3.8485e-05
-7.50783e-06
-0.00276858
-1.18348e-05
-0.00274061
-2.15109e-05
1.59546e-05
8.37279e-07
-0.00311609