/*--------------------------------*- C++ -*----------------------------------*\
| =========                 |                                                 |
| \\      /  F ield         | foam-extend: Open Source CFD                    |
|  \\    /   O peration     | Version:     4.0                                |
|   \\  /    A nd           | Web:         http://www.foam-extend.org         |
|    \\/     M anipulation  |                                                 |
\*---------------------------------------------------------------------------*/
FoamFile
{
    version     2.0;
    format      ascii;
    class       volScalarField;
    location    "1150";
    object      rho;
}
// * * * * * * * * * * * * * * * * * * * * * * * * * * * * * * * * * * * * * //

dimensions      [1 -3 0 0 0 0 0];

internalField   nonuniform List<scalar> 
34480
(
1.34639
1.34568
1.34556
1.34601
1.34722
1.34952
1.35372
1.36181
1.37249
1.37693
1.34721
1.34654
1.34649
1.34695
1.34811
1.35029
1.35438
1.36251
1.37433
1.37613
1.34592
1.34527
1.34528
1.34567
1.34666
1.34856
1.35237
1.36013
1.37235
1.3689
1.34481
1.34424
1.34428
1.34464
1.34552
1.3471
1.3505
1.35754
1.36952
1.36052
1.34376
1.34316
1.34323
1.34353
1.34427
1.34556
1.34856
1.35483
1.36631
1.3522
1.34369
1.34319
1.34328
1.34359
1.34425
1.3453
1.34792
1.3534
1.36406
1.34515
1.34243
1.34188
1.34199
1.34225
1.34285
1.34375
1.34607
1.35086
1.36054
1.33765
1.3432
1.34282
1.34303
1.34352
1.34435
1.34546
1.34776
1.35206
1.36049
1.33368
1.34166
1.34131
1.34154
1.34207
1.34304
1.34442
1.34682
1.35081
1.35768
1.32778
1.33889
1.33876
1.33953
1.34099
1.34319
1.34615
1.3502
1.3557
1.36273
1.32897
1.35323
1.35213
1.35174
1.35197
1.35292
1.35473
1.35763
1.36197
1.36879
1.37771
1.35374
1.3525
1.35208
1.35232
1.35335
1.35534
1.35874
1.36442
1.37467
1.38944
1.3522
1.35088
1.35044
1.3506
1.35152
1.3534
1.35691
1.36329
1.37624
1.39527
1.3509
1.34951
1.349
1.34905
1.34984
1.35151
1.35484
1.36123
1.37578
1.3977
1.34975
1.34823
1.34764
1.34754
1.34814
1.3495
1.35252
1.35854
1.37396
1.39762
1.34958
1.34805
1.34738
1.34718
1.34761
1.34868
1.35131
1.35671
1.37233
1.39651
1.3483
1.34664
1.3459
1.34555
1.34582
1.34663
1.34887
1.3536
1.36895
1.39301
1.34905
1.34744
1.34669
1.34643
1.34677
1.3476
1.34969
1.35382
1.36832
1.39135
1.34754
1.34592
1.34513
1.3448
1.34508
1.34591
1.34791
1.35167
1.36475
1.38719
1.34486
1.34332
1.34287
1.3432
1.34433
1.34621
1.34925
1.35393
1.36654
1.3877
1.35797
1.35704
1.35673
1.35698
1.35787
1.35947
1.36188
1.36517
1.3693
1.3738
1.35845
1.35729
1.35691
1.35723
1.35834
1.36036
1.36347
1.36798
1.3746
1.38247
1.35679
1.35548
1.3551
1.35542
1.35659
1.35876
1.3623
1.36784
1.37713
1.38877
1.35526
1.35385
1.3534
1.35365
1.35481
1.35701
1.36077
1.36692
1.37831
1.39341
1.35391
1.35235
1.35183
1.35197
1.35302
1.3551
1.35889
1.36525
1.37825
1.39636
1.35349
1.35191
1.35131
1.35136
1.35231
1.35423
1.35791
1.36419
1.3783
1.39873
1.352
1.3503
1.34965
1.34957
1.35039
1.35212
1.35561
1.36169
1.37647
1.39875
1.35257
1.35091
1.35024
1.35022
1.35106
1.35279
1.35622
1.36205
1.3769
1.40022
1.35101
1.34932
1.3486
1.3485
1.34921
1.35083
1.35414
1.35987
1.37415
1.39851
1.34831
1.34667
1.34616
1.34651
1.34779
1.35007
1.35398
1.36031
1.37437
1.39902
1.36127
1.36059
1.36036
1.36055
1.36122
1.36235
1.36393
1.36589
1.36803
1.36985
1.36206
1.36107
1.36075
1.36103
1.36196
1.36359
1.36597
1.36909
1.37297
1.37669
1.36063
1.35941
1.35905
1.35936
1.36045
1.3624
1.3654
1.36961
1.37572
1.38218
1.35913
1.35774
1.35729
1.35758
1.35874
1.36091
1.3644
1.36955
1.37786
1.38732
1.35776
1.35619
1.35567
1.35587
1.35702
1.35923
1.36301
1.3688
1.37906
1.39153
1.35723
1.3556
1.35499
1.35513
1.35623
1.35842
1.36233
1.36849
1.38039
1.39563
1.35566
1.35388
1.35322
1.35326
1.35427
1.35636
1.3603
1.36664
1.37984
1.39768
1.3561
1.35436
1.35367
1.35374
1.35477
1.35689
1.36087
1.36731
1.38127
1.40119
1.35448
1.35269
1.35196
1.35197
1.35292
1.35495
1.35885
1.36541
1.3795
1.40148
1.35175
1.35
1.34943
1.34975
1.35109
1.35356
1.35786
1.36485
1.37894
1.40243
1.36357
1.36314
1.36298
1.36312
1.36357
1.36431
1.36531
1.36646
1.36762
1.36851
1.36472
1.36396
1.3637
1.36392
1.36464
1.36585
1.36754
1.36961
1.37188
1.37384
1.36367
1.36263
1.36231
1.36258
1.36351
1.36512
1.36746
1.37048
1.37424
1.37777
1.36232
1.36107
1.36065
1.36093
1.362
1.36394
1.36688
1.37089
1.37642
1.38201
1.36107
1.35959
1.3591
1.35934
1.36047
1.36258
1.36597
1.3708
1.37809
1.38597
1.36053
1.35895
1.35837
1.35857
1.35972
1.36193
1.36564
1.37108
1.38005
1.39026
1.35894
1.3572
1.35657
1.35669
1.3578
1.36002
1.36392
1.36983
1.3803
1.39289
1.35933
1.35758
1.35691
1.35706
1.35822
1.3605
1.36457
1.37084
1.38244
1.39718
1.35767
1.35588
1.35517
1.35528
1.35639
1.35865
1.36274
1.36933
1.38154
1.39855
1.35496
1.35319
1.35258
1.3529
1.35427
1.35684
1.36122
1.36818
1.38064
1.39954
1.36521
1.36496
1.36486
1.36495
1.36523
1.36569
1.36628
1.36692
1.36753
1.36792
1.36664
1.3661
1.36591
1.36607
1.36658
1.36742
1.36854
1.36984
1.37116
1.3722
1.36601
1.36519
1.36493
1.36514
1.36587
1.3671
1.36882
1.37092
1.37323
1.37519
1.36489
1.36382
1.36346
1.36371
1.36462
1.36622
1.36855
1.37154
1.37515
1.37844
1.36384
1.36253
1.36208
1.36232
1.36335
1.36521
1.36806
1.37188
1.37689
1.38179
1.36338
1.36192
1.36139
1.36161
1.36271
1.36476
1.36804
1.37257
1.37904
1.38569
1.36184
1.3602
1.35961
1.35978
1.3609
1.36307
1.36665
1.37179
1.37964
1.38823
1.36222
1.36056
1.35992
1.36012
1.3613
1.36358
1.36742
1.37307
1.38214
1.39259
1.36057
1.35883
1.35816
1.35833
1.3595
1.36181
1.36578
1.37187
1.3818
1.39437
1.35792
1.35619
1.35558
1.35589
1.35724
1.35976
1.36395
1.3704
1.38074
1.39503
1.36643
1.3663
1.36625
1.3663
1.36647
1.36674
1.36707
1.36743
1.36775
1.36792
1.36804
1.36767
1.36755
1.36765
1.36799
1.36854
1.36925
1.37005
1.37081
1.37138
1.36779
1.36717
1.36697
1.36713
1.36767
1.36856
1.36976
1.37116
1.37261
1.37375
1.36689
1.36604
1.36574
1.36594
1.36667
1.36792
1.36968
1.37182
1.37419
1.37619
1.3661
1.36499
1.36461
1.36482
1.36569
1.36724
1.36951
1.37241
1.37583
1.37893
1.36575
1.36447
1.364
1.36422
1.36521
1.36701
1.36974
1.37335
1.37793
1.38227
1.36432
1.36284
1.36231
1.3625
1.36356
1.36553
1.36863
1.37289
1.37864
1.38443
1.36475
1.36322
1.36263
1.36286
1.36399
1.36612
1.36955
1.37437
1.38122
1.38849
1.36312
1.3615
1.36089
1.36109
1.36224
1.36445
1.36807
1.37336
1.38109
1.39013
1.36058
1.35895
1.35836
1.35867
1.35994
1.36231
1.36612
1.37175
1.37995
1.3903
1.36738
1.36733
1.36731
1.36734
1.36744
1.36759
1.36778
1.36797
1.36814
1.36819
1.36906
1.36883
1.36875
1.36882
1.36903
1.36938
1.36982
1.37029
1.37072
1.37103
1.36914
1.36869
1.36855
1.36866
1.36904
1.36965
1.37046
1.37137
1.37225
1.37292
1.36843
1.36778
1.36755
1.3677
1.36825
1.36918
1.37045
1.37193
1.37347
1.37472
1.36789
1.36699
1.36668
1.36685
1.36756
1.36879
1.37052
1.37263
1.37495
1.37693
1.36768
1.36661
1.36621
1.36641
1.36725
1.36874
1.37092
1.37367
1.37689
1.37975
1.36639
1.36511
1.36464
1.36483
1.36577
1.36747
1.37004
1.37341
1.37756
1.38148
1.3669
1.36555
1.36503
1.36525
1.36628
1.36818
1.37109
1.37501
1.38007
1.3851
1.36531
1.36386
1.36331
1.36352
1.36459
1.3666
1.36973
1.37411
1.37994
1.38627
1.36292
1.36144
1.3609
1.36118
1.36234
1.36447
1.36779
1.37248
1.37875
1.38603
1.36817
1.36817
1.36816
1.36818
1.36823
1.36832
1.36842
1.36853
1.36861
1.36861
1.36983
1.36969
1.36964
1.36968
1.36982
1.37003
1.37029
1.37057
1.37081
1.37098
1.37016
1.36985
1.36975
1.36983
1.37008
1.37049
1.37101
1.37159
1.37213
1.37251
1.36959
1.36911
1.36894
1.36905
1.36945
1.37012
1.371
1.372
1.37299
1.37376
1.36928
1.36858
1.36834
1.36848
1.36902
1.36995
1.37122
1.37272
1.37427
1.37554
1.36921
1.36835
1.36802
1.36819
1.36887
1.37006
1.37173
1.37376
1.37598
1.37786
1.36805
1.36699
1.3666
1.36677
1.36756
1.36896
1.371
1.37358
1.37651
1.37916
1.36868
1.36754
1.3671
1.3673
1.36819
1.3698
1.37217
1.37523
1.37889
1.38233
1.36714
1.36588
1.36541
1.36561
1.36656
1.36829
1.37089
1.37437
1.37865
1.38299
1.36494
1.36365
1.36317
1.36342
1.36443
1.36627
1.36904
1.3728
1.37745
1.38246
1.36886
1.36888
1.36888
1.36889
1.36892
1.36897
1.36902
1.36908
1.36912
1.36909
1.37043
1.37035
1.37031
1.37034
1.37042
1.37055
1.3707
1.37086
1.371
1.37109
1.37094
1.37074
1.37067
1.37072
1.37089
1.37115
1.37148
1.37184
1.37216
1.37238
1.37046
1.37012
1.36999
1.37007
1.37035
1.37081
1.37141
1.37207
1.3727
1.37317
1.37034
1.36983
1.36964
1.36974
1.37015
1.37083
1.37173
1.37276
1.37378
1.37458
1.37039
1.36973
1.36947
1.36961
1.37014
1.37104
1.37228
1.37373
1.37524
1.37647
1.36936
1.36851
1.3682
1.36834
1.36898
1.37009
1.37165
1.37355
1.37559
1.37736
1.37013
1.3692
1.36883
1.36901
1.36975
1.37105
1.37291
1.37522
1.37782
1.38012
1.36862
1.36757
1.36718
1.36735
1.36816
1.36959
1.37167
1.37434
1.3774
1.38033
1.36664
1.36556
1.36515
1.36536
1.36622
1.36774
1.36997
1.37287
1.37624
1.37962
1.36946
1.3695
1.3695
1.36951
1.36953
1.36955
1.36958
1.36961
1.36963
1.36959
1.3709
1.37085
1.37083
1.37085
1.3709
1.37097
1.37106
1.37116
1.37123
1.37128
1.37156
1.37143
1.37138
1.37142
1.37152
1.37169
1.37189
1.37211
1.3723
1.37242
1.3711
1.37087
1.37078
1.37083
1.37102
1.37133
1.37172
1.37215
1.37255
1.37284
1.37115
1.37078
1.37065
1.37072
1.37101
1.37149
1.37211
1.3728
1.37347
1.37397
1.37129
1.3708
1.37061
1.37071
1.3711
1.37177
1.37266
1.37367
1.37468
1.37547
1.37037
1.36971
1.36947
1.36958
1.37007
1.37092
1.37208
1.37344
1.37483
1.376
1.37127
1.37054
1.37025
1.3704
1.37099
1.372
1.37341
1.3751
1.3769
1.37842
1.36979
1.36893
1.36862
1.36877
1.36942
1.37055
1.37216
1.37414
1.37629
1.37824
1.36806
1.36718
1.36684
1.36702
1.36771
1.36893
1.37066
1.37282
1.3752
1.37746
1.37002
1.37006
1.37007
1.37007
1.37008
1.37009
1.37011
1.37012
1.37013
1.37008
1.37127
1.37125
1.37123
1.37124
1.37127
1.37132
1.37137
1.37142
1.37147
1.3715
1.37206
1.37197
1.37195
1.37197
1.37203
1.37213
1.37226
1.37238
1.3725
1.37256
1.37157
1.37141
1.37135
1.37138
1.37151
1.37171
1.37196
1.37224
1.37249
1.37268
1.37176
1.3715
1.37141
1.37146
1.37166
1.37198
1.3724
1.37286
1.37328
1.3736
1.37196
1.3716
1.37146
1.37154
1.37182
1.3723
1.37292
1.37361
1.37428
1.37478
1.37112
1.37063
1.37045
1.37053
1.3709
1.37152
1.37235
1.3733
1.37424
1.375
1.37216
1.37161
1.37139
1.3715
1.37195
1.37272
1.37375
1.37495
1.37618
1.37716
1.37067
1.37
1.36976
1.36988
1.37038
1.37125
1.37244
1.37387
1.37535
1.37663
1.36923
1.36854
1.36827
1.36841
1.36896
1.36989
1.37119
1.37275
1.3744
1.37588
1.37053
1.37057
1.37058
1.37058
1.37059
1.37059
1.3706
1.37061
1.37061
1.37055
1.37156
1.37155
1.37154
1.37155
1.37156
1.37159
1.37162
1.37165
1.37168
1.3717
1.37247
1.37242
1.3724
1.37241
1.37245
1.37251
1.37259
1.37266
1.37272
1.37275
1.37191
1.37181
1.37176
1.37178
1.37186
1.37199
1.37215
1.37233
1.37248
1.37261
1.37222
1.37204
1.37198
1.37201
1.37214
1.37236
1.37264
1.37293
1.3732
1.37339
1.37245
1.3722
1.3721
1.37215
1.37235
1.37267
1.3731
1.37355
1.37399
1.37431
1.37167
1.37131
1.37118
1.37124
1.37151
1.37195
1.37252
1.37317
1.37379
1.37429
1.37284
1.37245
1.37228
1.37237
1.3727
1.37325
1.37399
1.37481
1.37564
1.37626
1.37131
1.37081
1.37063
1.37071
1.37109
1.37173
1.37259
1.37359
1.37459
1.37542
1.37019
1.36967
1.36947
1.36957
1.36998
1.37068
1.37162
1.37271
1.37382
1.37479
1.37101
1.37105
1.37106
1.37106
1.37106
1.37106
1.37107
1.37107
1.37107
1.37101
1.37177
1.37177
1.37176
1.37176
1.37177
1.37179
1.37181
1.37183
1.37185
1.37186
1.37282
1.37279
1.37278
1.37279
1.37281
1.37285
1.37289
1.37293
1.37296
1.37297
1.37215
1.37208
1.37205
1.37206
1.37211
1.37219
1.3723
1.3724
1.3725
1.37258
1.37255
1.37244
1.37239
1.37242
1.3725
1.37264
1.37282
1.373
1.37317
1.37329
1.37279
1.37262
1.37255
1.37258
1.37272
1.37294
1.37321
1.37351
1.3738
1.374
1.37206
1.37181
1.37172
1.37176
1.37194
1.37225
1.37263
1.37306
1.37346
1.37379
1.37337
1.37309
1.37298
1.37304
1.37327
1.37366
1.37417
1.37472
1.37527
1.37565
1.37175
1.37138
1.37125
1.37131
1.37158
1.37204
1.37264
1.37332
1.37398
1.37452
1.371
1.37062
1.37047
1.37055
1.37084
1.37134
1.372
1.37274
1.37348
1.3741
1.37147
1.37151
1.37152
1.37152
1.37152
1.37152
1.37152
1.37152
1.37152
1.37147
1.3719
1.3719
1.3719
1.3719
1.3719
1.37192
1.37193
1.37195
1.37196
1.37197
1.37312
1.3731
1.3731
1.3731
1.37312
1.37314
1.37316
1.37318
1.3732
1.37319
1.37231
1.37226
1.37224
1.37225
1.37228
1.37233
1.37239
1.37246
1.37252
1.37258
1.37279
1.37271
1.37269
1.3727
1.37276
1.37284
1.37295
1.37307
1.37317
1.37324
1.37301
1.37289
1.37285
1.37287
1.37296
1.3731
1.37328
1.37347
1.37365
1.37378
1.37233
1.37216
1.3721
1.37213
1.37225
1.37245
1.37271
1.37298
1.37323
1.37344
1.37377
1.37359
1.3735
1.37355
1.37371
1.37397
1.37431
1.37467
1.37503
1.37525
1.37202
1.37176
1.37167
1.37171
1.3719
1.37221
1.37261
1.37306
1.37349
1.37384
1.3717
1.37144
1.37133
1.37138
1.37159
1.37193
1.37238
1.37287
1.37335
1.37374
1.37197
1.37201
1.37202
1.37202
1.37202
1.37202
1.37202
1.37201
1.37201
1.37196
1.37195
1.37194
1.37194
1.37194
1.37194
1.37195
1.37196
1.37198
1.37199
1.37201
1.37337
1.37337
1.37337
1.37337
1.37338
1.37339
1.3734
1.37341
1.37342
1.3734
1.3724
1.37237
1.37236
1.37236
1.37238
1.37241
1.37245
1.37249
1.37253
1.37257
1.37293
1.37289
1.37287
1.37288
1.37291
1.37297
1.37303
1.3731
1.37317
1.37321
1.37312
1.37304
1.37301
1.37302
1.37308
1.37317
1.37329
1.37341
1.37352
1.3736
1.3725
1.3724
1.37236
1.37238
1.37246
1.37259
1.37275
1.37292
1.37307
1.3732
1.37406
1.37395
1.37389
1.37392
1.37402
1.3742
1.37442
1.37465
1.37489
1.37501
1.37214
1.37196
1.37189
1.37192
1.37205
1.37226
1.37252
1.37281
1.37307
1.37331
1.37239
1.37221
1.37213
1.37217
1.37231
1.37254
1.37284
1.37315
1.37346
1.3737
1.37263
1.37266
1.37267
1.37267
1.37267
1.37267
1.37267
1.37266
1.37265
1.37261
1.37187
1.37186
1.37186
1.37186
1.37186
1.37187
1.37188
1.37189
1.3719
1.37193
1.37357
1.37357
1.37357
1.37357
1.37357
1.37358
1.37359
1.37359
1.3736
1.37358
1.37244
1.37242
1.37242
1.37242
1.37243
1.37245
1.37247
1.37249
1.37251
1.37254
1.37298
1.37295
1.37294
1.37295
1.37297
1.373
1.37304
1.37308
1.37312
1.37315
1.37312
1.37307
1.37305
1.37306
1.37309
1.37315
1.37322
1.3733
1.37337
1.37342
1.3726
1.37254
1.37252
1.37253
1.37258
1.37266
1.37276
1.37286
1.37294
1.37303
1.37422
1.37414
1.3741
1.37412
1.37419
1.3743
1.37444
1.37459
1.37475
1.37482
1.37209
1.37197
1.37193
1.37195
1.37203
1.37216
1.37233
1.37251
1.37267
1.37284
1.3732
1.37308
1.37303
1.37306
1.37315
1.37329
1.37349
1.37368
1.37388
1.37402
1.3737
1.37372
1.37373
1.37373
1.37373
1.37373
1.37373
1.37372
1.37371
1.37367
1.37159
1.37158
1.37158
1.37158
1.37158
1.37159
1.3716
1.37161
1.37162
1.37165
1.37363
1.37362
1.37361
1.37361
1.37361
1.37362
1.37363
1.37363
1.37364
1.37363
1.37244
1.37244
1.37244
1.37244
1.37245
1.37246
1.37247
1.37248
1.37248
1.3725
1.37294
1.37292
1.37291
1.37291
1.37293
1.37295
1.37297
1.373
1.37303
1.37305
1.37302
1.37299
1.37298
1.37298
1.373
1.37304
1.37308
1.37313
1.37318
1.37322
1.37262
1.37259
1.37258
1.37259
1.37262
1.37267
1.37273
1.37279
1.37283
1.37287
1.37411
1.37405
1.37402
1.37403
1.37408
1.37415
1.37424
1.37434
1.37446
1.3745
1.3718
1.37172
1.3717
1.37171
1.37177
1.37185
1.37195
1.37206
1.37215
1.37227
1.37437
1.3743
1.37426
1.37427
1.37433
1.37443
1.37455
1.37468
1.37482
1.37489
1.37542
1.37544
1.37544
1.37544
1.37543
1.37543
1.37543
1.37543
1.37543
1.37541
1.37097
1.37098
1.37099
1.371
1.37101
1.37101
1.371
1.371
1.37099
1.371
1.37342
1.3734
1.37338
1.37337
1.37337
1.37337
1.37338
1.3734
1.37342
1.37344
1.37244
1.37244
1.37245
1.37245
1.37246
1.37247
1.37247
1.37247
1.37246
1.37246
1.37284
1.37283
1.37282
1.37282
1.37283
1.37284
1.37286
1.37288
1.3729
1.37292
1.37288
1.37286
1.37285
1.37285
1.37287
1.37289
1.37292
1.37296
1.37299
1.37301
1.37259
1.37258
1.37257
1.37258
1.3726
1.37264
1.37268
1.37272
1.37274
1.37275
1.3736
1.37355
1.37352
1.37353
1.37356
1.37361
1.37367
1.37375
1.37384
1.3739
1.37113
1.37109
1.37108
1.3711
1.37114
1.37119
1.37126
1.37133
1.37137
1.37142
1.37609
1.37604
1.37601
1.37602
1.37606
1.37613
1.37622
1.37631
1.37641
1.37646
1.37725
1.37723
1.37722
1.37721
1.37721
1.37721
1.37722
1.37723
1.37726
1.37729
1.37018
1.37025
1.37028
1.37031
1.37031
1.37031
1.3703
1.37027
1.37022
1.37014
1.37301
1.37297
1.37295
1.37294
1.37294
1.37294
1.37295
1.37297
1.37301
1.37305
1.37246
1.37247
1.37248
1.37248
1.37249
1.37249
1.3725
1.3725
1.37249
1.37247
1.37275
1.37274
1.37274
1.37274
1.37275
1.37276
1.37277
1.37279
1.3728
1.37282
1.37278
1.37276
1.37276
1.37276
1.37277
1.37279
1.37282
1.37285
1.37287
1.37289
1.37259
1.37257
1.37257
1.37258
1.3726
1.37263
1.37266
1.3727
1.37272
1.37272
1.37293
1.37288
1.37286
1.37286
1.37289
1.37293
1.37299
1.37306
1.37313
1.37321
1.37033
1.37032
1.37032
1.37033
1.37037
1.37042
1.37048
1.37054
1.37056
1.37052
1.37783
1.37778
1.37776
1.37777
1.37781
1.37787
1.37795
1.37803
1.37811
1.37814
1.4736
1.47919
1.47576
1.46859
1.50612
1.51185
1.505
1.49426
1.53248
1.53753
1.52785
1.51457
1.55143
1.55535
1.54282
1.52754
1.56609
1.56861
1.55335
1.53657
1.578
1.57907
1.56299
1.54425
1.58596
1.5854
1.56988
1.5488
1.59308
1.59078
1.57609
1.55272
1.59093
1.58676
1.57265
1.54724
1.58312
1.57794
1.56549
1.53895
1.37294
1.37262
1.37318
1.37424
1.39426
1.39563
1.39663
1.3963
1.4136
1.41631
1.41756
1.41565
1.43219
1.4361
1.43749
1.43367
1.44966
1.45443
1.45578
1.44989
1.46659
1.47188
1.47294
1.46539
1.48073
1.48628
1.48694
1.47828
1.49498
1.50061
1.50095
1.49167
1.50194
1.50757
1.50775
1.49824
1.50557
1.5117
1.51188
1.50272
1.37715
1.37759
1.37778
1.37779
1.38976
1.39074
1.39103
1.39088
1.4018
1.40339
1.40381
1.40346
1.41358
1.41583
1.41636
1.41566
1.42512
1.42802
1.42859
1.42735
1.43734
1.44086
1.44141
1.43948
1.44795
1.45199
1.45248
1.44979
1.45982
1.46427
1.46468
1.46119
1.46581
1.47058
1.47093
1.46659
1.46931
1.47485
1.4752
1.46985
1.37042
1.37037
1.37041
1.37052
1.37836
1.37859
1.37869
1.37872
1.38621
1.38676
1.38696
1.38692
1.3946
1.39558
1.39592
1.39575
1.40307
1.40454
1.40502
1.40463
1.41247
1.41448
1.41507
1.41436
1.42065
1.42318
1.42386
1.42274
1.43054
1.43355
1.43429
1.43268
1.4354
1.43884
1.43965
1.43756
1.43806
1.44235
1.44331
1.44053
1.36905
1.36899
1.369
1.36906
1.37463
1.37477
1.37484
1.37484
1.37964
1.37996
1.38008
1.38005
1.3854
1.38594
1.38614
1.38609
1.39144
1.39226
1.39255
1.39245
1.39847
1.39962
1.40002
1.39982
1.40442
1.40593
1.40644
1.40609
1.41232
1.41419
1.41481
1.41424
1.41622
1.41843
1.41921
1.41844
1.41824
1.42123
1.42221
1.42099
1.3683
1.3682
1.36819
1.36825
1.37247
1.37251
1.37254
1.37256
1.37588
1.376
1.37606
1.37608
1.37986
1.38011
1.38023
1.38026
1.38424
1.38466
1.38486
1.38488
1.38959
1.39022
1.3905
1.3905
1.39392
1.3948
1.39517
1.39512
1.4003
1.40143
1.40189
1.40176
1.40345
1.40483
1.40546
1.40527
1.40466
1.4067
1.40748
1.40695
1.36826
1.36815
1.36812
1.36818
1.37152
1.37154
1.37155
1.37156
1.37408
1.37413
1.37416
1.37418
1.37686
1.37699
1.37706
1.37709
1.3801
1.38032
1.38044
1.38048
1.38419
1.38455
1.38473
1.38478
1.3873
1.38781
1.38806
1.38811
1.39246
1.39315
1.39348
1.39351
1.39489
1.39575
1.39621
1.39623
1.39529
1.39669
1.39726
1.39698
1.3685
1.36838
1.36835
1.36842
1.37109
1.3711
1.37111
1.37111
1.37308
1.3731
1.37312
1.37313
1.37507
1.37513
1.37517
1.3752
1.37754
1.37766
1.37773
1.37777
1.38076
1.38096
1.38107
1.38112
1.38298
1.38327
1.38344
1.3835
1.3872
1.38761
1.38784
1.3879
1.38887
1.3894
1.38971
1.38977
1.38863
1.38962
1.39
1.3898
1.3689
1.36878
1.36875
1.36881
1.37101
1.37101
1.37101
1.37102
1.3726
1.37261
1.37262
1.37262
1.37396
1.374
1.37402
1.37404
1.37588
1.37595
1.376
1.37602
1.37844
1.37856
1.37864
1.37867
1.38001
1.38018
1.38029
1.38034
1.38352
1.38377
1.38391
1.38397
1.38447
1.3848
1.385
1.38505
1.3838
1.38455
1.38479
1.38461
1.36937
1.36925
1.36922
1.36928
1.3711
1.3711
1.3711
1.37111
1.37242
1.37243
1.37243
1.37244
1.37329
1.37331
1.37333
1.37334
1.37479
1.37483
1.37486
1.37487
1.37682
1.3769
1.37694
1.37697
1.37787
1.37797
1.37805
1.37808
1.38083
1.38099
1.38108
1.38112
1.38121
1.38141
1.38154
1.38158
1.38028
1.38087
1.38103
1.38084
1.36986
1.36974
1.36971
1.36977
1.37128
1.37128
1.37128
1.37129
1.37244
1.37244
1.37245
1.37245
1.37292
1.37293
1.37294
1.37295
1.3741
1.37412
1.37414
1.37415
1.3757
1.37574
1.37577
1.37579
1.37631
1.37638
1.37643
1.37645
1.37886
1.37896
1.37902
1.37905
1.37878
1.37891
1.37899
1.37902
1.37774
1.37823
1.37834
1.37814
1.37035
1.37023
1.37019
1.37025
1.37149
1.37149
1.37149
1.37149
1.37257
1.37257
1.37257
1.37257
1.37272
1.37273
1.37274
1.37274
1.37368
1.37369
1.3737
1.37371
1.37493
1.37496
1.37498
1.37499
1.3752
1.37524
1.37527
1.37529
1.37745
1.37751
1.37755
1.37756
1.37698
1.37706
1.37711
1.37713
1.37595
1.37636
1.37644
1.37625
1.37082
1.3707
1.37066
1.37072
1.37169
1.37169
1.37169
1.37169
1.37276
1.37276
1.37276
1.37276
1.37263
1.37264
1.37265
1.37265
1.37344
1.37345
1.37346
1.37346
1.37442
1.37444
1.37445
1.37446
1.37441
1.37444
1.37446
1.37447
1.37645
1.37649
1.37652
1.37652
1.37565
1.3757
1.37574
1.37575
1.37473
1.3751
1.37515
1.37496
1.37127
1.37115
1.37112
1.37117
1.37186
1.37186
1.37186
1.37186
1.37297
1.37297
1.37297
1.37297
1.3726
1.37261
1.37261
1.37261
1.37332
1.37333
1.37333
1.37334
1.37408
1.37409
1.3741
1.3741
1.37386
1.37388
1.37389
1.3739
1.37578
1.37581
1.37582
1.37583
1.37467
1.37471
1.37473
1.37474
1.37398
1.37429
1.37433
1.37416
1.37172
1.37159
1.37156
1.37162
1.37197
1.37197
1.37197
1.37197
1.3732
1.3732
1.37319
1.37319
1.37259
1.37259
1.3726
1.3726
1.37327
1.37327
1.37327
1.37327
1.37384
1.37385
1.37386
1.37386
1.37348
1.37349
1.3735
1.37351
1.37535
1.37537
1.37538
1.37538
1.37394
1.37397
1.37398
1.37399
1.37359
1.37386
1.37389
1.37373
1.3722
1.37207
1.37204
1.3721
1.372
1.372
1.372
1.37201
1.37341
1.37341
1.37341
1.37341
1.37257
1.37257
1.37258
1.37258
1.37323
1.37323
1.37323
1.37324
1.37366
1.37367
1.37367
1.37367
1.37322
1.37322
1.37323
1.37323
1.37509
1.37511
1.37511
1.37511
1.37337
1.37339
1.3734
1.37341
1.37354
1.37376
1.37378
1.37365
1.37283
1.3727
1.37267
1.37273
1.37192
1.37192
1.37192
1.37193
1.3736
1.3736
1.3736
1.37359
1.37254
1.37254
1.37254
1.37254
1.37318
1.37318
1.37318
1.37318
1.37347
1.37348
1.37349
1.37348
1.37302
1.37302
1.37302
1.37302
1.3749
1.37491
1.37491
1.37491
1.37287
1.37288
1.37289
1.37289
1.37387
1.37405
1.37406
1.37395
1.37386
1.37374
1.37371
1.37377
1.37163
1.37163
1.37163
1.37164
1.37367
1.37368
1.37367
1.37367
1.37248
1.37248
1.37248
1.37248
1.37308
1.37308
1.37308
1.37308
1.37327
1.37327
1.37328
1.37327
1.37285
1.37284
1.37284
1.37285
1.37461
1.37463
1.37463
1.37462
1.37227
1.37228
1.37228
1.37228
1.37477
1.3749
1.37491
1.37483
1.37556
1.37546
1.37544
1.3755
1.37095
1.37094
1.37094
1.37095
1.37352
1.37353
1.37353
1.37353
1.37243
1.37243
1.37243
1.37242
1.37295
1.37295
1.37295
1.37295
1.37305
1.37306
1.37306
1.37306
1.37271
1.3727
1.3727
1.37271
1.37405
1.37408
1.37408
1.37407
1.37135
1.37134
1.37134
1.37135
1.37644
1.37652
1.37653
1.37648
1.37739
1.37733
1.37733
1.37738
1.36993
1.36989
1.36987
1.36988
1.37316
1.37318
1.37319
1.37319
1.37243
1.37242
1.37242
1.37242
1.37283
1.37284
1.37284
1.37284
1.37291
1.37291
1.37291
1.37291
1.37267
1.37266
1.37266
1.37267
1.37338
1.37342
1.37342
1.37341
1.37024
1.37017
1.37016
1.3702
1.37834
1.37839
1.37839
1.37835
1.43021
1.40576
1.38464
1.37039
1.36183
1.35654
1.35306
1.35068
1.34903
1.34783
1.44233
1.40942
1.38427
1.36949
1.36126
1.35622
1.35296
1.35078
1.3493
1.34825
1.44384
1.40733
1.37987
1.36663
1.35881
1.35401
1.35088
1.34877
1.34742
1.34665
1.44066
1.40343
1.37452
1.36364
1.35637
1.35212
1.34928
1.3474
1.34618
1.34547
1.4348
1.39848
1.36972
1.36069
1.3538
1.35009
1.34752
1.34588
1.34481
1.34428
1.42753
1.39451
1.36635
1.35915
1.35258
1.34945
1.34713
1.34571
1.34475
1.3442
1.41733
1.38942
1.3618
1.35645
1.35006
1.34751
1.34536
1.34414
1.34327
1.34285
1.40943
1.38732
1.36024
1.35674
1.35049
1.34845
1.34636
1.34521
1.34431
1.34371
1.39844
1.38134
1.35538
1.35397
1.34817
1.34673
1.3447
1.34363
1.34278
1.34219
1.39535
1.38144
1.35606
1.35522
1.34855
1.34644
1.34362
1.34195
1.34063
1.33953
1.37802
1.37526
1.37194
1.36858
1.36536
1.36245
1.35996
1.35788
1.35619
1.3549
1.39555
1.38761
1.38019
1.37384
1.36857
1.36441
1.3612
1.3587
1.35675
1.35529
1.40844
1.39541
1.38425
1.37552
1.36867
1.36359
1.35984
1.35706
1.35499
1.35363
1.41807
1.40051
1.38616
1.37593
1.3682
1.36274
1.35881
1.35595
1.35382
1.35238
1.42438
1.40353
1.3865
1.37536
1.3671
1.36152
1.35756
1.35472
1.35258
1.35121
1.42918
1.40626
1.38705
1.37548
1.36693
1.36143
1.35749
1.35471
1.35259
1.35113
1.43077
1.40677
1.38572
1.37409
1.36535
1.35999
1.3561
1.35337
1.35124
1.34983
1.43306
1.40897
1.38654
1.37522
1.36642
1.36124
1.35732
1.35456
1.35236
1.35074
1.43061
1.40661
1.38384
1.37345
1.36494
1.36
1.35603
1.35322
1.35098
1.3493
1.43101
1.40763
1.38448
1.37414
1.36497
1.35941
1.35482
1.35149
1.34888
1.34671
1.37703
1.375
1.37246
1.36987
1.36745
1.36529
1.36341
1.3618
1.36046
1.35942
1.38908
1.38456
1.37935
1.37469
1.37085
1.36771
1.36513
1.36302
1.36129
1.35995
1.39997
1.39211
1.38376
1.37689
1.37151
1.36736
1.36413
1.36161
1.35964
1.35828
1.40982
1.39827
1.38699
1.37838
1.37188
1.36704
1.36338
1.36058
1.35842
1.35689
1.41833
1.40296
1.38894
1.37891
1.37154
1.36624
1.3623
1.35936
1.35708
1.35555
1.42646
1.40746
1.39096
1.37988
1.37187
1.36631
1.36223
1.35921
1.35689
1.35524
1.43202
1.4097
1.39098
1.37915
1.37066
1.36496
1.36079
1.35775
1.35537
1.35375
1.43832
1.41328
1.39283
1.38066
1.37186
1.36612
1.36184
1.35872
1.35627
1.35447
1.43937
1.41229
1.39127
1.37946
1.37072
1.36501
1.36061
1.35739
1.35487
1.35299
1.44052
1.41252
1.39118
1.37924
1.36999
1.36381
1.35897
1.35538
1.35261
1.35036
1.37046
1.37
1.3692
1.36819
1.36709
1.36597
1.36489
1.36391
1.36304
1.36235
1.37842
1.37703
1.37509
1.37301
1.37095
1.36901
1.36726
1.36571
1.36438
1.3633
1.38603
1.38307
1.3793
1.37563
1.3723
1.36942
1.36698
1.36494
1.36326
1.36203
1.39397
1.38904
1.38327
1.37801
1.37349
1.36976
1.36672
1.36425
1.36226
1.36077
1.4015
1.39426
1.38633
1.37958
1.37401
1.36958
1.36608
1.36331
1.36108
1.3595
1.40942
1.39966
1.38957
1.38148
1.37502
1.37007
1.36623
1.36325
1.36088
1.35913
1.41549
1.40308
1.39086
1.38162
1.37441
1.36907
1.36498
1.36185
1.35935
1.35758
1.4228
1.40789
1.39381
1.38372
1.37595
1.37033
1.36602
1.36273
1.36013
1.35818
1.42554
1.40859
1.39352
1.38311
1.37507
1.36925
1.36474
1.36134
1.35865
1.35663
1.42768
1.40916
1.39325
1.38231
1.37378
1.36759
1.36277
1.3591
1.35623
1.35394
1.36893
1.36867
1.36825
1.36772
1.36713
1.3665
1.36587
1.36528
1.36476
1.36434
1.37466
1.37404
1.37311
1.37198
1.37078
1.36958
1.36843
1.36737
1.36643
1.36565
1.37963
1.37828
1.3764
1.37435
1.37232
1.37041
1.36868
1.36715
1.36584
1.36484
1.38537
1.38303
1.37994
1.37677
1.37379
1.37112
1.36879
1.3668
1.36511
1.36381
1.39127
1.38764
1.38312
1.37876
1.37482
1.37144
1.36858
1.36619
1.3642
1.36273
1.39794
1.39278
1.3867
1.38115
1.37632
1.37231
1.36901
1.36631
1.36409
1.3624
1.40324
1.39632
1.38858
1.38187
1.37623
1.37169
1.36801
1.36507
1.36265
1.36089
1.4102
1.40147
1.39214
1.38445
1.37811
1.37312
1.36913
1.36596
1.36341
1.36145
1.41349
1.40317
1.39275
1.38437
1.3775
1.37216
1.3679
1.36457
1.3619
1.35987
1.41563
1.40378
1.39235
1.38331
1.37597
1.37028
1.36577
1.36223
1.35943
1.35717
1.36815
1.36803
1.36783
1.36757
1.36727
1.36693
1.36659
1.36626
1.36597
1.36575
1.37252
1.37225
1.37179
1.3712
1.37053
1.36982
1.36911
1.36844
1.36782
1.36729
1.37597
1.37537
1.37444
1.37332
1.3721
1.37088
1.36971
1.36862
1.36766
1.36691
1.38003
1.37894
1.37732
1.37548
1.37358
1.37175
1.37006
1.36853
1.3672
1.36614
1.38448
1.38269
1.3802
1.37751
1.37486
1.37239
1.37018
1.36825
1.36658
1.36531
1.38982
1.38717
1.38365
1.38003
1.37661
1.37354
1.37086
1.36857
1.36663
1.3651
1.39404
1.39032
1.38564
1.38105
1.37687
1.37323
1.37012
1.36753
1.36534
1.3637
1.40016
1.39526
1.38938
1.38389
1.37899
1.37484
1.37136
1.36849
1.36613
1.36427
1.40328
1.39727
1.39038
1.38408
1.37856
1.37399
1.3702
1.36715
1.36464
1.36271
1.40479
1.39763
1.38985
1.38292
1.37695
1.37206
1.36804
1.3648
1.36219
1.36005
1.36809
1.36801
1.36791
1.36778
1.36761
1.36743
1.36725
1.36707
1.36691
1.36682
1.37154
1.3714
1.37115
1.37083
1.37045
1.37003
1.36961
1.36919
1.36881
1.36846
1.37413
1.37382
1.37331
1.37265
1.37191
1.37114
1.37036
1.36963
1.36896
1.36844
1.37699
1.37644
1.37554
1.37444
1.37323
1.37199
1.3708
1.3697
1.3687
1.36788
1.38033
1.3794
1.37799
1.37631
1.37454
1.3728
1.37116
1.36967
1.36835
1.36732
1.38452
1.38312
1.38106
1.37873
1.37636
1.37409
1.37201
1.37016
1.36855
1.36726
1.38771
1.38568
1.38286
1.3798
1.37678
1.37398
1.37148
1.36931
1.36743
1.36599
1.39288
1.39013
1.38647
1.38266
1.37901
1.37572
1.37284
1.37038
1.3683
1.36663
1.39543
1.39191
1.38743
1.38289
1.37867
1.37496
1.37177
1.3691
1.36686
1.3651
1.39616
1.39191
1.38676
1.3817
1.37707
1.37307
1.36966
1.36683
1.3645
1.36256
1.36832
1.36828
1.36822
1.36815
1.36807
1.36797
1.36787
1.36777
1.3677
1.36768
1.37111
1.37104
1.37091
1.37073
1.37052
1.37028
1.37003
1.36978
1.36955
1.36933
1.37311
1.37294
1.37265
1.37227
1.37182
1.37134
1.37084
1.37036
1.36992
1.36958
1.37515
1.37485
1.37433
1.37365
1.37288
1.37207
1.37126
1.37049
1.36978
1.36917
1.3777
1.37719
1.37635
1.37529
1.37412
1.37291
1.37174
1.37064
1.36964
1.36885
1.38101
1.38024
1.379
1.37749
1.37586
1.37423
1.37267
1.37125
1.36998
1.36893
1.38334
1.38221
1.38047
1.37844
1.3763
1.37422
1.37229
1.37056
1.36902
1.36781
1.38764
1.38608
1.38378
1.38118
1.37853
1.37602
1.37374
1.37172
1.36999
1.36855
1.38943
1.38736
1.38447
1.38131
1.37819
1.37531
1.37273
1.37052
1.3686
1.36707
1.38953
1.38702
1.38368
1.38011
1.37666
1.37352
1.37075
1.36838
1.36638
1.36468
1.36872
1.36869
1.36866
1.36862
1.36858
1.36852
1.36847
1.36842
1.36839
1.36841
1.37102
1.37099
1.37091
1.37082
1.3707
1.37056
1.37042
1.37027
1.37013
1.37
1.37261
1.37252
1.37235
1.37212
1.37185
1.37156
1.37125
1.37094
1.37065
1.37044
1.37402
1.37384
1.37353
1.37312
1.37263
1.37211
1.37157
1.37105
1.37055
1.37012
1.37598
1.37568
1.37517
1.3745
1.37373
1.37291
1.3721
1.37131
1.37058
1.37
1.37861
1.37815
1.37738
1.3764
1.3753
1.37416
1.37304
1.37198
1.37102
1.3702
1.38027
1.37959
1.3785
1.37715
1.37567
1.37417
1.37272
1.37139
1.37018
1.36922
1.38384
1.38292
1.38146
1.3797
1.37783
1.37598
1.37423
1.37265
1.37125
1.37007
1.38489
1.38366
1.38181
1.37965
1.37742
1.37526
1.37326
1.37148
1.36991
1.36864
1.38456
1.38306