/*--------------------------------*- C++ -*----------------------------------*\
| =========                 |                                                 |
| \\      /  F ield         | foam-extend: Open Source CFD                    |
|  \\    /   O peration     | Version:     4.0                                |
|   \\  /    A nd           | Web:         http://www.foam-extend.org         |
|    \\/     M anipulation  |                                                 |
\*---------------------------------------------------------------------------*/
FoamFile
{
    version     2.0;
    format      ascii;
    class       volScalarField;
    location    "1150";
    object      T;
}
// * * * * * * * * * * * * * * * * * * * * * * * * * * * * * * * * * * * * * //

dimensions      [0 0 0 1 0 0 0];

internalField   nonuniform List<scalar> 
34480
(
278.835
278.723
278.642
278.587
278.554
278.544
278.559
278.643
278.915
278.883
278.288
278.168
278.074
278.007
277.973
277.976
278.001
278.046
278.263
277.823
278.181
278.048
277.942
277.867
277.828
277.815
277.795
277.741
277.869
277.093
278.228
278.073
277.943
277.84
277.766
277.701
277.616
277.456
277.46
276.334
278.248
278.068
277.909
277.772
277.656
277.535
277.38
277.108
276.955
275.47
278.323
278.12
277.937
277.773
277.622
277.449
277.227
276.841
276.501
274.629
278.356
278.127
277.919
277.73
277.547
277.33
277.045
276.545
275.993
273.731
278.431
278.179
277.958
277.76
277.57
277.338
277.019
276.434
275.673
272.99
278.489
278.217
277.978
277.761
277.546
277.288
276.926
276.258
275.287
272.248
279.304
279.019
278.812
278.667
278.559
278.437
278.226
277.697
276.685
273.214
279.367
279.274
279.238
279.253
279.325
279.472
279.731
280.187
280.856
281.727
278.722
278.637
278.603
278.62
278.7
278.867
279.158
279.655
280.448
281.471
278.522
278.442
278.411
278.431
278.517
278.688
278.976
279.465
280.315
281.431
278.474
278.393
278.358
278.368
278.44
278.59
278.853
279.317
280.195
281.356
278.406
278.319
278.276
278.273
278.325
278.445
278.676
279.101
279.978
281.152
278.403
278.313
278.264
278.251
278.287
278.38
278.576
278.952
279.8
280.949
278.366
278.268
278.212
278.19
278.212
278.281
278.442
278.764
279.559
280.665
278.387
278.287
278.233
278.215
278.24
278.305
278.447
278.723
279.444
280.458
278.404
278.297
278.236
278.211
278.224
278.274
278.391
278.619
279.259
280.192
279.167
279.073
279.048
279.089
279.19
279.342
279.56
279.862
280.452
281.109
279.841
279.742
279.707
279.727
279.804
279.95
280.18
280.526
281.025
281.649
279.19
279.091
279.055
279.079
279.169
279.343
279.632
280.088
280.797
281.728
278.975
278.875
278.839
278.862
278.958
279.144
279.461
279.975
280.847
282.062
278.896
278.792
278.75
278.767
278.854
279.031
279.349
279.892
280.897
282.361
278.798
278.688
278.639
278.643
278.715
278.874
279.177
279.722
280.824
282.493
278.768
278.654
278.598
278.594
278.653
278.79
279.072
279.601
280.761
282.581
278.708
278.587
278.526
278.511
278.557
278.674
278.93
279.431
280.614
282.547
278.709
278.587
278.526
278.515
278.562
278.673
278.912
279.379
280.551
282.542
278.709
278.583
278.517
278.5
278.539
278.638
278.854
279.279
280.413
282.483
279.441
279.326
279.288
279.32
279.423
279.595
279.879
280.343
281.421
283.41
280.181
280.095
280.066
280.085
280.153
280.273
280.451
280.692
280.997
281.337
279.559
279.465
279.432
279.458
279.545
279.705
279.951
280.304
280.79
281.341
279.354
279.252
279.216
279.244
279.342
279.524
279.817
280.258
280.914
281.708
279.263
279.152
279.11
279.133
279.231
279.42
279.738
280.242
281.062
282.111
279.148
279.029
278.981
278.995
279.084
279.267
279.593
280.135
281.095
282.384
279.1
278.975
278.92
278.927
279.008
279.18
279.503
280.063
281.134
282.632
279.023
278.891
278.831
278.829
278.9
279.058
279.37
279.931
281.084
282.762
279.008
278.874
278.814
278.815
278.887
279.042
279.345
279.895
281.091
282.905
278.994
278.858
278.794
278.79
278.855
279.001
279.294
279.824
281.023
282.985
279.693
279.568
279.523
279.553
279.663
279.859
280.195
280.753
281.923
283.916
280.413
280.345
280.323
280.338
280.388
280.474
280.593
280.742
280.911
281.079
279.837
279.758
279.731
279.753
279.826
279.954
280.14
280.386
280.688
280.986
279.661
279.567
279.535
279.561
279.649
279.808
280.051
280.388
280.838
281.308
279.575
279.467
279.427
279.452
279.548
279.726
280.011
280.428
281.032
281.708
279.459
279.338
279.292
279.311
279.406
279.591
279.902
280.38
281.131
282.021
279.402
279.273
279.22
279.234
279.326
279.512
279.837
280.357
281.24
282.337
279.316
279.179
279.12
279.128
279.214
279.394
279.723
280.27
281.263
282.555
279.29
279.15
279.091
279.1
279.187
279.368
279.7
280.258
281.329
282.789
279.265
279.123
279.061
279.066
279.149
279.324
279.654
280.215
281.325
282.965
279.932
279.8
279.751
279.779
279.893
280.102
280.46
281.046
282.157
283.893
280.567
280.517
280.501
280.511
280.546
280.602
280.677
280.765
280.858
280.947
280.041
279.98
279.959
279.976
280.032
280.126
280.257
280.419
280.6
280.763
279.902
279.822
279.794
279.816
279.89
280.018
280.204
280.446
280.737
281.013
279.83
279.733
279.697
279.721
279.807
279.962
280.197
280.519
280.938
281.359
279.722
279.61
279.567
279.588
279.679
279.851
280.124
280.515
281.065
281.65
279.667
279.542
279.493
279.511
279.605
279.787
280.087
280.535
281.212
281.969
279.578
279.444
279.388
279.401
279.494
279.679
279.997
280.488
281.28
282.211
279.547
279.408
279.351
279.365
279.461
279.651
279.982
280.502
281.385
282.477
279.514
279.373
279.314
279.325
279.418
279.607
279.943
280.482
281.426
282.694
280.15
280.018
279.966
279.994
280.108
280.32
280.677
281.241
282.205
283.587
280.669
280.633
280.622
280.628
280.65
280.684
280.729
280.779
280.83
280.882
280.189
280.145
280.129
280.141
280.18
280.245
280.333
280.436
280.542
280.632
280.085
280.022
279.999
280.017
280.074
280.171
280.306
280.472
280.655
280.817
280.032
279.95
279.92
279.94
280.013
280.139
280.323
280.559
280.839
281.099
279.94
279.841
279.803
279.823
279.905
280.054
280.279
280.583
280.97
281.349
279.892
279.778
279.733
279.752
279.841
280.007
280.268
280.633
281.13
281.64
279.807
279.681
279.63
279.646
279.738
279.914
280.202
280.618
281.221
281.871
279.775
279.643
279.59
279.608
279.704
279.89
280.197
280.653
281.347
282.135
279.738
279.603
279.547
279.563
279.659
279.847
280.166
280.651
281.411
282.35
280.344
280.216
280.166
280.193
280.303
280.508
280.843
281.353
282.145
283.189
280.737
280.71
280.703
280.706
280.719
280.74
280.766
280.794
280.822
280.855
280.295
280.265
280.253
280.261
280.288
280.331
280.387
280.45
280.513
280.564
280.222
280.175
280.158
280.171
280.213
280.282
280.376
280.487
280.601
280.696
280.189
280.123
280.099
280.115
280.172
280.27
280.407
280.574
280.759
280.918
280.115
280.032
280
280.017
280.087
280.209
280.386
280.614
280.879
281.122
280.077
279.979
279.94
279.958
280.037
280.18
280.395
280.68
281.035
281.374
280
279.887
279.843
279.86
279.944
280.103
280.349
280.686
281.131
281.577
279.973
279.852
279.804
279.823
279.914
280.085
280.356
280.737
281.262
281.817
279.933
279.808
279.758
279.776
279.869
280.046
280.331
280.746
281.335
282.008
280.511
280.393
280.345
280.37
280.473
280.662
280.963
281.402
282.026
282.783
280.782
280.762
280.757
280.759
280.766
280.778
280.792
280.808
280.824
280.848
280.372
280.352
280.345
280.35
280.367
280.394
280.429
280.467
280.504
280.534
280.324
280.291
280.279
280.288
280.317
280.365
280.428
280.5
280.57
280.627
280.307
280.258
280.239
280.251
280.294
280.366
280.464
280.58
280.699
280.798
280.252
280.186
280.16
280.174
280.23
280.326
280.46
280.624
280.804
280.958
280.227
280.145
280.113
280.129
280.195
280.313
280.483
280.698
280.945
281.169
280.159
280.062
280.024
280.04
280.115
280.25
280.451
280.715
281.035
281.337
280.139
280.034
279.992
280.01
280.092
280.242
280.469
280.775
281.162
281.546
280.099
279.988
279.944
279.962
280.047
280.205
280.45
280.788
281.231
281.702
280.65
280.544
280.501
280.524
280.616
280.784
281.043
281.405
281.881
282.412
280.813
280.796
280.792
280.793
280.798
280.804
280.812
280.821
280.831
280.849
280.43
280.417
280.412
280.415
280.425
280.442
280.463
280.486
280.508
280.527
280.402
280.379
280.371
280.376
280.396
280.428
280.469
280.514
280.558
280.592
280.396
280.36
280.346
280.354
280.386
280.437
280.505
280.583
280.66
280.721
280.358
280.307
280.288
280.299
280.341
280.413
280.511
280.627
280.746
280.844
280.345
280.28
280.254
280.267
280.32
280.413
280.542
280.7
280.87
281.016
280.287
280.207
280.175
280.189
280.251
280.362
280.52
280.72
280.946
281.148
280.277
280.188
280.153
280.169
280.239
280.365
280.548
280.785
281.063
281.325
280.236
280.141
280.103
280.12
280.194
280.329
280.53
280.797
281.121
281.444
280.761
280.67
280.632
280.652
280.732
280.875
281.089
281.377
281.729
282.093
280.832
280.818
280.815
280.816
280.818
280.822
280.826
280.831
280.837
280.853
280.473
280.465
280.462
280.463
280.47
280.48
280.492
280.506
280.52
280.531
280.461
280.446
280.441
280.444
280.457
280.478
280.504
280.532
280.559
280.58
280.461
280.436
280.426
280.432
280.454
280.489
280.535
280.586
280.636
280.673
280.439
280.401
280.387
280.395
280.426
280.479
280.548
280.627
280.706
280.768
280.436
280.386
280.366
280.376
280.418
280.488
280.583
280.695
280.81
280.904
280.386
280.323
280.298
280.309
280.359
280.445
280.566
280.712
280.869
281.003
280.388
280.316
280.287
280.301
280.359
280.459
280.602
280.78
280.976
281.151
280.346
280.267
280.236
280.25
280.312
280.423
280.583
280.786
281.018
281.235
280.844
280.769
280.737
280.754
280.82
280.938
281.109
281.329
281.584
281.827
280.844
280.831
280.829
280.829
280.83
280.832
280.835
280.838
280.842
280.855
280.507
280.501
280.499
280.5
280.504
280.51
280.517
280.526
280.534
280.542
280.507
280.498
280.494
280.497
280.505
280.518
280.534
280.551
280.568
280.58
280.51
280.493
280.486
280.489
280.504
280.528
280.558
280.591
280.622
280.646
280.5
280.473
280.463
280.469
280.491
280.528
280.575
280.628
280.679
280.718
280.505
280.468
280.453
280.461
280.492
280.543
280.611
280.689
280.766
280.826
280.462
280.413
280.394
280.403
280.441
280.506
280.595
280.7
280.807
280.894
280.475
280.419
280.397
280.408
280.454
280.532
280.639
280.768
280.904
281.019
280.431
280.368
280.343
280.355
280.405
280.492
280.614
280.764
280.927
281.071
280.902
280.842
280.816
280.83
280.884
280.977
281.109
281.272
281.452
281.611
280.849
280.837
280.836
280.835
280.836
280.837
280.839
280.84
280.843
280.855
280.532
280.529
280.527
280.528
280.53
280.534
280.538
280.543
280.549
280.554
280.545
280.539
280.537
280.539
280.544
280.552
280.561
280.572
280.582
280.589
280.545
280.533
280.529
280.531
280.541
280.556
280.576
280.597
280.617
280.631
280.546
280.527
280.52
280.524
280.54
280.564
280.596
280.631
280.664
280.688
280.556
280.53
280.519
280.525
280.547
280.583
280.63
280.683
280.734
280.772
280.518
280.481
280.467
280.474
280.502
280.55
280.613
280.686
280.758
280.814
280.544
280.502
280.485
280.494
280.528
280.587
280.665
280.756
280.848
280.923
280.494
280.445
280.426
280.435
280.474
280.54
280.63
280.738
280.85
280.944
280.938
280.892
280.872
280.883
280.925
280.996
281.094
281.212
281.335
281.437
280.848
280.837
280.836
280.836
280.836
280.837
280.838
280.839
280.841
280.852
280.551
280.549
280.548
280.548
280.549
280.551
280.554
280.557
280.561
280.565
280.576
280.573
280.572
280.573
280.576
280.581
280.587
280.593
280.598
280.603
280.57
280.563
280.559
280.561
280.567
280.577
280.589
280.603
280.615
280.624
280.58
280.568
280.563
280.566
280.576
280.592
280.613
280.636
280.656
280.671
280.594
280.576
280.568
280.572
280.587
280.612
280.644
280.679
280.712
280.736
280.558
280.532
280.522
280.526
280.547
280.58
280.624
280.674
280.721
280.757
280.597
280.567
280.555
280.561
280.587
280.629
280.684
280.747
280.808
280.855
280.538
280.501
280.488
280.494
280.523
280.571
280.636
280.711
280.786
280.847
280.955
280.922
280.907
280.915
280.946
280.998
281.069
281.152
281.235
281.298
280.843
280.833
280.832
280.832
280.832
280.833
280.833
280.834
280.835
280.845
280.564
280.562
280.561
280.561
280.562
280.563
280.565
280.567
280.57
280.574
280.604
280.602
280.602
280.602
280.604
280.607
280.61
280.614
280.617
280.619
280.587
280.582
280.58
280.581
280.585
280.591
280.599
280.607
280.615
280.62
280.605
280.598
280.594
280.596
280.603
280.613
280.627
280.641
280.653
280.662
280.62
280.608
280.603
280.606
280.616
280.632
280.654
280.676
280.697
280.712
280.586
280.568
280.561
280.564
280.578
280.601
280.631
280.663
280.694
280.716
280.639
280.618
280.61
280.614
280.632
280.661
280.699
280.741
280.781
280.811
280.566
280.54
280.53
280.535
280.555
280.589
280.634
280.685
280.735
280.774
280.958
280.935
280.924
280.93
280.952
280.989
281.039
281.095
281.15
281.188
280.836
280.827
280.826
280.826
280.826
280.826
280.827
280.827
280.828
280.837
280.569
280.568
280.568
280.568
280.568
280.569
280.57
280.572
280.574
280.577
280.628
280.628
280.628
280.628
280.63
280.631
280.633
280.635
280.636
280.637
280.598
280.595
280.594
280.594
280.596
280.6
280.605
280.61
280.615
280.618
280.623
280.618
280.616
280.617
280.622
280.628
280.637
280.645
280.653
280.657
280.637
280.63
280.626
280.628
280.635
280.645
280.659
280.673
280.686
280.695
280.604
280.592
280.588
280.59
280.599
280.614
280.634
280.655
280.674
280.688
280.672
280.659
280.653
280.656
280.668
280.688
280.713
280.74
280.766
280.783
280.581
280.563
280.556
280.559
280.573
280.597
280.627
280.66
280.692
280.717
280.952
280.937
280.929
280.933
280.948
280.974
281.007
281.044
281.079
281.101
280.832
280.825
280.824
280.824
280.824
280.824
280.824
280.824
280.825
280.832
280.567
280.566
280.565
280.565
280.566
280.566
280.567
280.568
280.57
280.573
280.65
280.651
280.651
280.651
280.652
280.653
280.654
280.654
280.655
280.655
280.604
280.602
280.601
280.602
280.603
280.605
280.608
280.611
280.614
280.616
280.634
280.631
280.63
280.63
280.633
280.637
280.642
280.647
280.652
280.654
280.646
280.641
280.639
280.64
280.644
280.651
280.659
280.668
280.677
280.682
280.615
280.608
280.605
280.606
280.612
280.622
280.634
280.647
280.658
280.667
280.697
280.688
280.684
280.686
280.694
280.707
280.724
280.741
280.758
280.768
280.583
280.57
280.566
280.568
280.577
280.593
280.612
280.634
280.653
280.669
280.944
280.935
280.929
280.932
280.943
280.959
280.981
281.005
281.028
281.04
280.846
280.84
280.84
280.84
280.84
280.84
280.84
280.84
280.84
280.845
280.552
280.551
280.551
280.551
280.551
280.551
280.552
280.553
280.555
280.558
280.667
280.667
280.667
280.667
280.668
280.668
280.669
280.669
280.67
280.669
280.605
280.604
280.604
280.604
280.605
280.607
280.608
280.61
280.611
280.612
280.637
280.636
280.635
280.635
280.637
280.639
280.642
280.646
280.648
280.649
280.647
280.643
280.642
280.643
280.645
280.649
280.655
280.66
280.666
280.669
280.619
280.615
280.613
280.614
280.618
280.624
280.632
280.639
280.646
280.65
280.709
280.703
280.7
280.701
280.706
280.715
280.725
280.737
280.748
280.754
280.569
280.56
280.557
280.559
280.565
280.575
280.587
280.6
280.612
280.623
280.95
280.944
280.941
280.942
280.949
280.96
280.974
280.989
281.004
281.01
280.896
280.892
280.892
280.892
280.892
280.892
280.892
280.892
280.892
280.896
280.517
280.516
280.516
280.516
280.517
280.517
280.517
280.517
280.518
280.521
280.671
280.67
280.67
280.669
280.669
280.67
280.671
280.672
280.673
280.673
280.604
280.604
280.605
280.605
280.606
280.606
280.607
280.608
280.608
280.607
280.635
280.634
280.634
280.634
280.635
280.636
280.638
280.64
280.642
280.643
280.641
280.639
280.638
280.638
280.64
280.642
280.646
280.649
280.653
280.655
280.618
280.616
280.615
280.616
280.618
280.622
280.627
280.631
280.635
280.636
280.697
280.693
280.691
280.691
280.695
280.7
280.707
280.715
280.723
280.728
280.53
280.525
280.524
280.525
280.529
280.535
280.543
280.551
280.557
280.563
280.986
280.982
280.979
280.98
280.985
280.992
281.002
281.011
281.022
281.024
280.977
280.974
280.973
280.973
280.973
280.973
280.973
280.974
280.975
280.979
280.458
280.46
280.462
280.463
280.464
280.464
280.463
280.461
280.459
280.458
280.659
280.657
280.655
280.655
280.654
280.655
280.656
280.657
280.659
280.662
280.604
280.604
280.605
280.605
280.606
280.606
280.607
280.607
280.606
280.605
280.631
280.63
280.629
280.629
280.63
280.631
280.632
280.634
280.635
280.636
280.634
280.632
280.631
280.632
280.633
280.635
280.637
280.64
280.642
280.643
280.615
280.614
280.613
280.614
280.616
280.619
280.622
280.625
280.627
280.628
280.664
280.66
280.658
280.658
280.661
280.665
280.67
280.676
280.682
280.688
280.468
280.466
280.466
280.467
280.47
280.475
280.48
280.485
280.488
280.488
281.044
281.04
281.038
281.039
281.042
281.048
281.055
281.062
281.069
281.072
289.493
291.249
291.515
289.928
290.659
292.788
293.198
291.541
292.313
294.938
295.473
293.505
293.587
296.653
297.321
295.142
294.525
298
298.81
296.49
295.266
299.12
300.089
297.908
295.808
300.022
301.183
299.326
296.277
300.814
302.181
300.7
296.49
301.327
302.908
301.849
297.048
302.074
303.92
303.444
286.182
286.729
286.71
286.186
287.482
288.126
288.065
287.412
289.083
289.888
289.777
288.92
290.52
291.47
291.3
290.251
291.693
292.784
292.549
291.316
292.711
293.941
293.684
292.294
293.515
294.875
294.631
293.107
294.208
295.675
295.454
293.819
294.645
296.176
295.983
294.284
295.427
296.932
296.85
295.204
282.278
282.413
282.444
282.375
283.014
283.234
283.274
283.137
284.18
284.519
284.563
284.314
285.444
285.903
285.944
285.565
286.605
287.179
287.208
286.686
287.738
288.425
288.439
287.781
288.728
289.523
289.525
288.743
289.665
290.553
290.546
289.659
290.422
291.351
291.343
290.405
291.662
292.521
292.552
291.691
281.512
281.579
281.601
281.578
281.78
281.867
281.897
281.874
282.489
282.638
282.681
282.627
283.363
283.586
283.638
283.537
284.203
284.503
284.561
284.398
285.092
285.473
285.532
285.295
285.91
286.371
286.429
286.11
286.745
287.278
287.331
286.933
287.499
288.066
288.115
287.661
288.84
289.333
289.395
288.984
281.083
281.12
281.133
281.12
281.132
281.163
281.177
281.176
281.583
281.642
281.668
281.663
282.193
282.292
282.332
282.315
282.788
282.937
282.989
282.951
283.455
283.66
283.722
283.654
284.08
284.345
284.414
284.305
284.754
285.075
285.147
284.991
285.39
285.74
285.811
285.615
286.639
286.919
286.995
286.835
280.915
280.945
280.954
280.942
280.828
280.843
280.85
280.85
281.135
281.162
281.176
281.176
281.575
281.623
281.646
281.646
282.002
282.077
282.112
282.108
282.502
282.611
282.658
282.646
282.967
283.116
283.173
283.147
283.49
283.678
283.743
283.696
283.992
284.202
284.268
284.198
285.111
285.254
285.323
285.293
280.835
280.863
280.87
280.858
280.664
280.671
280.675
280.675
280.877
280.89
280.897
280.897
281.205
281.229
281.241
281.243
281.522
281.561
281.581
281.584
281.908
281.966
281.996
281.998
282.259
282.342
282.381
282.381
282.666
282.773
282.821
282.813
283.044
283.169
283.219
283.201
284.04
284.098
284.15
284.177
280.804
280.83
280.837
280.825
280.583
280.587
280.589
280.589
280.729
280.737
280.74
280.74
280.975
280.988
280.995
280.996
281.214
281.235
281.247
281.249
281.517
281.549
281.567
281.571
281.786
281.833
281.858
281.862
282.105
282.167
282.199
282.202
282.384
282.457
282.492
282.492
283.277
283.282
283.318
283.365
280.794
280.82
280.827
280.815
280.546
280.549
280.55
280.55
280.647
280.651
280.653
280.653
280.831
280.838
280.842
280.843
281.01
281.022
281.029
281.03
281.249
281.267
281.277
281.28
281.454
281.481
281.496
281.5
281.707
281.742
281.762
281.767
281.911
281.954
281.977
281.981
282.717
282.691
282.713
282.765
280.794
280.82
280.827
280.814
280.535
280.537
280.538
280.537
280.605
280.608
280.609
280.609
280.741
280.745
280.747
280.748
280.875
280.882
280.886
280.887
281.062
281.073
281.079
281.081
281.216
281.231
281.241
281.244
281.417
281.438
281.45
281.454
281.564
281.59
281.604
281.608
282.295
282.252
282.265
282.315
280.798
280.823
280.83
280.818
280.537
280.539
280.54
280.539
280.588
280.589
280.59
280.59
280.686
280.689
280.69
280.69
280.786
280.79
280.793
280.793
280.932
280.939
280.943
280.944
281.043
281.053
281.059
281.061
281.205
281.217
281.225
281.228
281.307
281.322
281.331
281.334
281.971
281.92
281.926
281.974
280.8
280.826
280.833
280.821
280.546
280.548
280.548
280.548
280.586
280.587
280.587
280.587
280.654
280.656
280.657
280.657
280.73
280.732
280.734
280.734
280.843
280.847
280.849
280.85
280.919
280.925
280.928
280.93
281.051
281.058
281.063
281.065
281.115
281.124
281.13
281.132
281.721
281.665
281.668
281.713
280.801
280.827
280.833
280.821
280.558
280.559
280.559
280.559
280.593
280.593
280.594
280.593
280.637
280.638
280.638
280.638
280.695
280.696
280.697
280.697
280.782
280.784
280.786
280.786
280.83
280.833
280.835
280.836
280.941
280.946
280.948
280.95
280.972
280.977
280.981
280.982
281.524
281.469
281.47
281.511
280.799
280.824
280.831
280.819
280.568
280.569
280.569
280.569
280.605
280.605
280.605
280.605
280.627
280.628
280.628
280.628
280.674
280.675
280.675
280.676
280.741
280.742
280.743
280.744
280.766
280.768
280.769
280.77
280.865
280.867
280.869
280.87
280.865
280.868
280.871
280.872
281.369
281.316
281.316
281.354
280.794
280.819
280.826
280.814
280.576
280.577
280.577
280.577
280.62
280.62
280.62
280.62
280.622
280.623
280.623
280.623
280.663
280.663
280.663
280.664
280.714
280.715
280.715
280.716
280.721
280.722
280.723
280.723
280.815
280.816
280.817
280.818
280.786
280.788
280.789
280.79
281.246
281.197
281.197
281.23
280.788
280.813
280.82
280.807
280.579
280.58
280.58
280.58
280.637
280.637
280.637
280.637
280.619
280.619
280.619
280.619
280.657
280.657
280.657
280.657
280.695
280.695
280.696
280.696
280.689
280.689
280.69
280.69
280.785
280.785
280.786
280.786
280.725
280.726
280.727
280.728
281.149
281.105
281.105
281.134
280.787
280.812
280.818
280.805
280.576
280.576
280.577
280.577
280.654
280.654
280.653
280.653
280.615
280.615
280.615
280.615
280.653
280.652
280.652
280.653
280.681
280.681
280.681
280.681
280.666
280.666
280.666
280.666
280.767
280.767
280.767
280.768
280.676
280.676
280.677
280.677
281.077
281.04
281.04
281.064
280.805
280.829
280.834
280.822
280.56
280.561
280.562
280.562
280.668
280.667
280.667
280.667
280.61
280.61
280.61
280.61
280.648
280.647
280.647
280.647
280.667
280.667
280.667
280.668
280.648
280.647
280.647
280.648
280.753
280.753
280.754
280.754
280.627
280.628
280.628
280.628
281.037
281.009
281.009
281.027
280.863
280.885
280.888
280.876
280.524
280.524
280.525
280.525
280.672
280.672
280.672
280.673
280.605
280.604
280.604
280.604
280.641
280.64
280.64
280.641
280.653
280.653
280.653
280.654
280.633
280.632
280.632
280.632
280.731
280.731
280.732
280.732
280.565
280.566
280.566
280.565
281.044
281.026
281.026
281.038
280.96
280.973
280.974
280.967
280.459
280.459
280.458
280.458
280.664
280.664
280.665
280.665
280.601
280.6
280.6
280.6
280.635
280.634
280.634
280.635
280.643
280.642
280.642
280.643
280.623
280.622
280.622
280.623
280.696
280.698
280.699
280.698
280.482
280.481
280.48
280.481
281.089
281.084
281.084
281.087
282.209
280.908
280.365
280.017
279.723
279.481
279.289
279.138
279.016
278.911
282.363
281.123
280.289
279.764
279.347
279.039
278.811
278.64
278.511
278.404
282.937
281.632
280.502
279.863
279.363
279.016
278.762
278.571
278.427
278.312
283.533
282.169
280.772
280.07
279.505
279.135
278.861
278.656
278.5
278.373
284.013
282.628
280.987
280.234
279.611
279.221
278.929
278.711
278.545
278.41
284.566
283.125
281.262
280.475
279.792
279.385
279.071
278.839
278.657
278.505
285.051
283.529
281.468
280.658
279.919
279.499
279.165
278.918
278.722
278.559
285.62
284.021
281.775
280.95
280.153
279.715
279.351
279.08
278.856
278.661
286.071
284.415
281.991
281.189
280.357
279.915
279.515
279.214
278.961
278.741
287.801
286.143
283.564
282.709
281.751
281.183
280.66
280.256
279.92
279.624
284.001
282.692
281.705
280.992
280.499
280.154
279.903
279.715
279.57
279.448
284.456
282.67
281.34
280.481
279.928
279.55
279.281
279.085
278.941
278.834
285.053
282.861
281.276
280.347
279.753
279.356
279.076
278.875
278.731
278.628
285.541
283.05
281.272
280.321
279.701
279.298
279.017
278.818
278.677
278.576
285.81
283.109
281.204
280.247
279.606
279.206
278.928
278.735
278.6
278.505
286.013
283.184
281.187
280.243
279.586
279.193
278.919
278.731
278.598
278.503
286.061
283.17
281.103
280.189
279.521
279.141
278.871
278.689
278.56
278.467
286.12
283.233
281.111
280.24
279.56
279.195
278.923
278.74
278.602
278.498
286.081
283.225
281.056
280.264
279.599
279.264
278.985
278.793
278.644
278.527
286.99
284.284
282.12
281.379
280.665
280.274
279.926
279.679
279.485
279.338
282.137
281.756
281.386
281.056
280.774
280.537
280.34
280.177
280.04
279.922
282.607
281.924
281.306
280.794
280.381
280.053
279.796
279.595
279.439
279.319
283.38
282.364
281.498
280.831
280.315
279.923
279.626
279.401
279.231
279.106
284.149
282.812
281.714
280.919
280.324
279.891
279.571
279.333
279.157
279.029
284.725
283.107
281.808
280.917
280.265
279.806
279.474
279.233
279.056
278.929
285.236
283.382
281.913
280.954
280.259
279.786
279.449
279.207
279.03
278.902
285.585
283.538
281.925
280.923
280.199
279.723
279.385
279.145
278.97
278.842
285.91
283.719
281.988
280.967
280.224
279.752
279.412
279.171
278.989
278.853
286.116
283.807
281.977
280.978
280.243
279.789
279.446
279.198
279.008
278.863
287.103
284.79
282.923
281.946
281.181
280.691
280.303
280.018
279.797
279.636
281.532
281.384
281.207
281.026
280.855
280.701
280.563
280.443
280.337
280.24
281.749
281.458
281.127
280.81
280.53
280.29
280.089
279.923
279.787
279.679
282.379
281.893
281.384
280.929
280.545
280.229
279.974
279.77
279.61
279.487
283.111
282.395
281.69
281.099
280.621
280.244
279.948
279.718
279.54
279.406
283.74
282.781
281.885
281.174
280.617
280.193
279.869
279.622
279.435
279.296
284.357
283.16
282.084
281.271
280.651
280.193
279.849
279.592
279.397
279.253
284.848
283.425
282.184
281.291
280.62
280.14
279.785
279.522
279.324
279.178
285.322
283.698
282.313
281.362
280.655
280.163
279.799
279.531
279.326
279.172
285.693
283.877
282.368
281.394
280.676
280.185
279.815
279.54
279.328
279.166
286.738
284.819
283.251
282.27
281.524
281.005
280.604
280.303
280.07
279.902
281.126
281.078
281.007
280.923
280.835
280.748
280.665
280.588
280.515
280.443
281.145
281.029
280.873
280.705
280.54
280.386
280.247
280.125
280.021
279.936
281.6
281.391
281.128
280.858
280.606
280.381
280.187
280.024
279.889
279.782
282.193
281.855
281.457
281.075
280.734
280.442
280.199
279.999
279.839
279.713
282.739
282.246
281.702
281.208
280.783
280.433
280.15
279.924
279.745
279.608
283.32
282.656
281.961
281.36
280.862
280.464
280.15
279.903
279.709
279.562
283.815
282.973
282.128
281.433
280.871
280.436
280.098
279.837
279.634
279.481
284.318
283.298
282.314
281.54
280.929
280.467
280.112
279.839
279.626
279.464
284.736
283.535
282.426
281.601
280.96
280.485
280.117
279.836
279.616
279.447
285.772
284.45
283.27
282.413
281.742
281.242
280.851
280.551
280.317
280.147
280.955
280.937
280.904
280.863
280.816
280.768
280.72
280.672
280.625
280.574
280.836
280.782
280.705
280.614
280.518
280.423
280.333
280.251
280.177
280.115
281.153
281.054
280.914
280.758
280.599
280.449
280.311
280.19
280.087
280.001
281.604
281.438
281.216
280.978
280.748
280.538
280.352
280.193
280.06
279.952
282.036
281.783
281.461
281.134
280.831
280.563
280.334
280.143
279.986
279.861
282.527
282.168
281.736
281.318
280.943
280.623
280.357
280.138
279.96
279.821
282.962
282.482
281.933
281.427
280.987
280.622
280.324
280.084
279.891
279.742
283.425
282.815
282.149
281.563
281.067
280.667
280.344
280.087
279.881
279.721
283.819
283.067
282.293
281.646
281.111
280.686
280.347
280.078
279.863
279.696
284.802
283.946
283.102
282.412
281.844
281.396
281.037
280.752
280.527
280.363
280.874
280.867
280.852
280.831
280.807
280.781
280.754
280.726
280.695
280.659
280.667
280.641
280.602
280.553
280.498
280.441
280.385
280.331
280.283
280.24
280.886
280.836
280.761
280.671
280.574
280.478
280.385
280.3
280.225
280.161
281.225
281.141
281.016
280.871
280.722
280.577
280.443
280.324
280.22
280.133
281.556
281.423
281.235
281.026
280.818
280.623
280.449
280.296
280.166
280.061
281.953
281.759
281.496
281.216
280.948
280.704
280.49
280.308
280.155
280.031
282.31
282.041
281.694
281.341
281.013
280.724
280.476
280.268
280.096
279.959
282.705
282.35
281.915
281.493
281.11
280.782
280.506
280.277
280.089
279.94
283.039
282.586
282.068
281.587
281.163
280.806
280.509
280.267
280.069
279.912
283.944
283.417
282.839
282.315
281.858
281.478
281.163
280.907
280.7
280.547
280.842
280.84
280.832
280.822
280.809
280.795
280.779
280.763
280.743
280.716
280.584
280.57
280.548
280.521
280.489
280.456
280.421
280.388
280.357
280.329
280.733
280.706
280.665
280.612
280.554
280.492
280.432
280.375
280.323
280.277
280.987
280.941
280.869
280.782
280.686
280.589
280.496
280.41
280.333
280.267
281.236
281.163
281.052
280.92
280.781
280.644
280.516
280.4
280.299
280.214
281.551
281.443
281.283
281.1
280.913
280.735
280.571
280.426
280.301
280.197
281.833
281.679
281.463
281.224
280.988
280.768
280.571
280.399
280.254
280.135
282.156
281.949
281.671
281.376
281.093
280.836
280.61
280.417
280.254
280.122
282.422
282.154
281.815
281.472
281.149
280.864
280.616
280.407
280.233
280.093
283.244
282.928
282.544
282.162
281.81
281.502
281.238
281.017
280.834
280.698
280.832
280.832
280.829
280.823
280.816
280.808
280.8
280.79
280.777
280.755
280.546
280.538
280.526
280.51
280.492
280.472
280.451
280.431
280.411
280.394
280.649
280.633
280.609
280.578
280.543
280.505
280.466
280.429
280.394
280.363
280.837
280.811
280.769
280.715
280.655
280.591
280.528
280.468
280.413
280.365
281.023
280.981
280.915
280.832
280.74
280.647
280.556
280.471
280.395
280.33
281.271
281.208
281.111
280.992
280.865
280.738
280.617
280.506
280.408
280.325
281.486
281.398
281.262
281.103
280.937
280.776
280.625
280.49
280.371
280.273
281.746
281.625
281.448
281.247
281.043
280.849
280.672
280.516
280.38
280.268
281.949
281.791
281.573
281.334
281.097
280.877
280.679
280.507
280.36
280.239
282.693
282.506
282.254
281.985