/*--------------------------------*- C++ -*----------------------------------*\
| =========                 |                                                 |
| \\      /  F ield         | foam-extend: Open Source CFD                    |
|  \\    /   O peration     | Version:     4.0                                |
|   \\  /    A nd           | Web:         http://www.foam-extend.org         |
|    \\/     M anipulation  |                                                 |
\*---------------------------------------------------------------------------*/
FoamFile
{
    version     2.0;
    format      ascii;
    class       volVectorField;
    location    "1150";
    object      Urel;
}
// * * * * * * * * * * * * * * * * * * * * * * * * * * * * * * * * * * * * * //

dimensions      [0 1 -1 0 0 0 0];

internalField   nonuniform List<vector> 
34480
(
(208.879 -9.80683 -19.0816)
(209.203 -9.30612 -21.5423)
(209.363 -8.58068 -23.9681)
(209.371 -7.65599 -26.4011)
(209.225 -6.57091 -28.9797)
(208.886 -5.32814 -31.8795)
(208.273 -3.90788 -35.5004)
(207.11 -2.19378 -40.1867)
(204.439 0.04321 -48.1068)
(197.495 4.25108 -75.2679)
(209.79 -12.8411 -26.7898)
(210.058 -11.7139 -29.5714)
(210.189 -10.4313 -32.2313)
(210.166 -9.00766 -34.8348)
(209.933 -7.48022 -37.4989)
(209.432 -5.86887 -40.4309)
(208.626 -4.19276 -44.0901)
(207.335 -2.39754 -49.2185)
(204.194 -0.320398 -58.0348)
(196.027 3.64044 -88.5929)
(210.455 -17.1508 -33.7148)
(210.7 -15.5994 -36.797)
(210.8 -13.869 -39.7448)
(210.733 -11.955 -42.5686)
(210.442 -9.91392 -45.3959)
(209.918 -7.78028 -48.4834)
(209.171 -5.58175 -52.3591)
(208.031 -3.24848 -58.052)
(204.732 -0.611993 -67.7494)
(195.523 4.09816 -101.257)
(210.44 -20.5498 -41.1153)
(210.687 -18.4661 -44.4925)
(210.804 -16.2058 -47.681)
(210.773 -13.7515 -50.7082)
(210.546 -11.1606 -53.7089)
(210.138 -8.47053 -56.9694)
(209.528 -5.71404 -61.0201)
(208.557 -2.81217 -67.1101)
(205.237 0.40971 -77.4351)
(195.233 5.8052 -112.857)
(210.57 -25.0227 -47.9687)
(210.848 -22.5283 -51.624)
(211.006 -19.8207 -55.0997)
(211.04 -16.8814 -58.3775)
(210.907 -13.7868 -61.6173)
(210.638 -10.5742 -65.1172)
(210.179 -7.27041 -69.4046)
(209.394 -3.7858 -75.9156)
(206.178 0.0606307 -86.9112)
(195.538 6.15829 -123.859)
(210.425 -28.2672 -55.5604)
(210.718 -25.2728 -59.4532)
(210.899 -22.0516 -63.0979)
(210.971 -18.5822 -66.5199)
(210.908 -14.9317 -69.8715)
(210.757 -11.1432 -73.4754)
(210.453 -7.24526 -77.8424)
(209.884 -3.15089 -84.5814)
(206.92 1.34137 -96.0636)
(195.888 8.07661 -134.164)
(210.48 -33.0335 -62.4193)
(210.816 -29.6507 -66.5527)
(211.029 -26.0064 -70.4469)
(211.142 -22.0887 -74.0754)
(211.139 -17.9722 -77.6195)
(211.087 -13.6934 -81.4031)
(210.924 -9.25634 -85.9405)
(210.573 -4.55754 -92.9627)
(207.943 0.674741 -105.023)
(196.624 8.2417 -144.12)
(210.293 -36.1857 -70.2712)
(210.635 -32.3328 -74.6118)
(210.83 -28.1727 -78.6335)
(210.901 -23.7189 -82.3708)
(210.859 -19.0244 -85.9673)
(210.787 -14.1462 -89.752)
(210.669 -9.08096 -94.2224)
(210.476 -3.72105 -101.199)
(208.257 2.35695 -113.447)
(196.979 10.8293 -153.05)
(210.236 -41.4325 -77.1074)
(210.622 -37.2138 -81.6337)
(210.847 -32.6796 -85.8384)
(210.956 -27.8673 -89.7269)
(210.961 -22.8315 -93.4831)
(210.932 -17.6015 -97.4116)
(210.881 -12.1203 -102.046)
(210.828 -6.2356 -109.174)
(208.941 0.771883 -121.792)
(197.554 10.7332 -161.334)
(209.273 -44.6256 -85.075)
(209.571 -40.0251 -89.8817)
(209.536 -34.9896 -94.2886)
(209.192 -29.638 -98.3613)
(208.584 -23.983 -102.225)
(207.807 -18.0654 -106.158)
(206.946 -11.8194 -110.631)
(206.174 -5.05484 -117.248)
(204.263 2.96112 -129.013)
(194.127 14.3081 -166.623)
(205.766 1.89774 3.00959)
(206.247 1.09555 1.55436)
(206.436 0.412585 0.000924284)
(206.354 -0.131196 -1.59907)
(205.978 -0.560123 -3.30917)
(205.218 -0.874679 -5.14177)
(203.873 -1.07887 -7.15069)
(201.51 -1.18413 -9.31111)
(198.045 -1.26809 -11.2414)
(193.464 -1.16726 -14.3923)
(207.04 2.83011 2.81755)
(207.48 2.12532 1.18356)
(207.656 1.48121 -0.471013)
(207.57 0.906967 -2.16869)
(207.16 0.380944 -3.97703)
(206.307 -0.10303 -5.95389)
(204.815 -0.560216 -8.19234)
(202.23 -1.02522 -10.9441)
(198.056 -1.61334 -13.9948)
(192.361 -1.84602 -20.5741)
(207.964 2.52775 3.33783)
(208.383 1.7213 1.57813)
(208.546 0.996265 -0.224354)
(208.45 0.376252 -2.05952)
(208.017 -0.177918 -4.00118)
(207.147 -0.679078 -6.13332)
(205.666 -1.15665 -8.64463)
(203.092 -1.62732 -12.0679)
(198.548 -2.19693 -16.3191)
(191.926 -2.10337 -26.7114)
(208.184 3.12459 3.34485)
(208.61 2.35115 1.49969)
(208.796 1.64438 -0.361847)
(208.744 1.04056 -2.25831)
(208.376 0.500821 -4.27467)
(207.611 0.0130879 -6.53774)
(206.245 -0.455988 -9.27285)
(203.767 -0.899176 -13.2384)
(199 -1.40719 -18.4641)
(191.573 -0.970538 -32.456)
(208.508 2.61857 3.8871)
(208.962 1.76137 1.98624)
(209.19 0.996879 0.0276717)
(209.205 0.365316 -1.96418)
(208.933 -0.188537 -4.10581)
(208.306 -0.676239 -6.55165)
(207.093 -1.13261 -9.54319)
(204.781 -1.52883 -14.0415)
(199.939 -1.94257 -20.2192)
(191.812 -1.10721 -37.7017)
(208.514 3.35257 3.68698)
(208.986 2.50315 1.77389)
(209.241 1.74726 -0.155529)
(209.303 1.12851 -2.12835)
(209.106 0.600588 -4.25508)
(208.609 0.148939 -6.73634)
(207.564 -0.2577 -9.81287)
(205.474 -0.581791 -14.6402)
(200.725 -0.863719 -21.5364)
(192.079 0.337269 -42.2244)
(208.693 2.54117 4.2119)
(209.203 1.59244 2.29044)
(209.492 0.763381 0.309567)
(209.601 0.090967 -1.7029)
(209.474 -0.474344 -3.89341)
(209.093 -0.944057 -6.47875)
(208.211 -1.33432 -9.71287)
(206.368 -1.59234 -14.8941)
(201.83 -1.67942 -22.5545)
(192.767 -0.0154958 -46.2617)
(208.592 3.36539 3.74294)
(209.112 2.40173 1.85188)
(209.392 1.58913 -0.0417658)
(209.476 0.939864 -1.98121)
(209.333 0.428352 -4.0808)
(208.973 0.0228982 -6.58772)
(208.185 -0.279117 -9.75025)
(206.564 -0.433463 -14.9806)
(202.357 -0.221623 -23.037)
(193.174 1.82804 -49.2344)
(208.599 2.06294 4.28557)
(209.152 0.984478 2.44408)
(209.46 0.0709792 0.566646)
(209.58 -0.687168 -1.34024)
(209.492 -1.31955 -3.44619)
(209.204 -1.83825 -5.99917)
(208.537 -2.1947 -9.30641)
(207.143 -2.32636 -14.769)
(203.278 -1.74481 -23.4704)
(193.85 1.00563 -51.5137)
(207.677 2.8795 3.6717)
(208.174 1.70792 1.82686)
(208.308 0.80831 0.00159149)
(208.109 0.0764648 -1.87216)
(207.591 -0.468387 -3.89929)
(206.793 -0.85218 -6.32564)
(205.603 -1.0114 -9.44269)
(203.816 -0.831175 -14.5395)
(200.1 0.223651 -23.0181)
(191.498 4.04229 -51.3574)
(203.389 1.41258 2.34332)
(203.894 0.818485 1.22608)
(204.076 0.287551 -0.00355896)
(203.973 -0.146578 -1.25401)
(203.574 -0.497033 -2.54596)
(202.829 -0.76119 -3.82495)
(201.645 -0.948805 -5.0432)
(199.87 -1.08537 -6.05115)
(197.315 -1.25612 -6.49742)
(194.091 -1.44335 -6.51852)
(204.759 2.37686 2.33294)
(205.261 1.83389 0.96725)
(205.444 1.30811 -0.428738)
(205.324 0.818432 -1.84709)
(204.862 0.354328 -3.31439)
(203.975 -0.0896884 -4.83325)
(202.503 -0.526991 -6.36724)
(200.173 -0.988816 -7.85363)
(196.543 -1.58587 -8.79621)
(191.685 -2.16123 -9.80971)
(205.768 2.16478 2.97774)
(206.276 1.48092 1.42696)
(206.461 0.843893 -0.178758)
(206.34 0.282053 -1.81037)
(205.856 -0.237163 -3.5138)
(204.906 -0.723907 -5.30596)
(203.293 -1.20292 -7.19659)
(200.649 -1.70445 -9.27891)
(196.144 -2.37167 -10.9955)
(189.691 -2.94326 -13.5859)
(206.142 2.8467 3.03296)
(206.673 2.17072 1.35837)
(206.885 1.53169 -0.342932)
(206.8 0.96841 -2.07771)
(206.356 0.447111 -3.90946)
(205.445 -0.0422439 -5.89683)
(203.819 -0.531699 -8.08545)
(201.01 -1.03848 -10.7265)
(195.773 -1.72317 -13.1951)
(187.834 -2.20202 -17.5673)
(206.616 2.37937 3.61372)
(207.18 1.60463 1.85159)
(207.43 0.897307 0.0239767)
(207.405 0.298694 -1.8377)
(207.032 -0.241617 -3.83421)
(206.213 -0.732296 -6.0566)
(204.647 -1.20867 -8.5792)
(201.797 -1.6769 -11.8168)
(196.017 -2.32476 -15.1258)
(186.764 -2.61066 -21.5867)
(206.753 3.16153 3.43775)
(207.338 2.38078 1.64284)
(207.618 1.67267 -0.17617)
(207.637 1.0807 -2.0422)
(207.328 0.560638 -4.05481)
(206.609 0.100115 -6.35609)
(205.145 -0.336282 -9.0382)
(202.355 -0.748031 -12.699)
(196.233 -1.30872 -16.7115)
(185.896 -1.36641 -25.3541)
(207.045 2.36531 3.98564)
(207.664 1.47956 2.16444)
(207.976 0.697485 0.276827)
(208.043 0.0557286 -1.64769)
(207.798 -0.493524 -3.74787)
(207.179 -0.958438 -6.18911)
(205.835 -1.36103 -9.09575)
(203.167 -1.69208 -13.215)
(196.874 -2.09058 -18.0227)
(185.615 -1.81511 -28.9803)
(207.036 3.226 3.52125)
(207.665 2.32361 1.72715)
(207.973 1.55617 -0.0756611)
(208.023 0.937501 -1.93135)
(207.771 0.441727 -3.94955)
(207.18 0.0429115 -6.33678)
(205.922 -0.271506 -9.23481)
(203.408 -0.501794 -13.5364)
(197.134 -0.63312 -18.8657)
(185.218 -0.0759453 -31.8982)
(207.122 1.90882 4.06869)
(207.77 0.892577 2.31272)
(208.1 0.0383379 0.509408)
(208.178 -0.659711 -1.32771)
(207.967 -1.23259 -3.35688)
(207.437 -1.69024 -5.78777)
(206.29 -1.99677 -8.8525)
(203.971 -2.13074 -13.4973)
(197.832 -1.86301 -19.6343)
(185.138 -0.796226 -34.29)
(206.264 2.78276 3.42269)
(206.861 1.68931 1.69682)
(207.061 0.861003 -0.0200379)
(206.902 0.194894 -1.79439)
(206.375 -0.288598 -3.72089)
(205.473 -0.61241 -6.0133)
(203.967 -0.724927 -8.8998)
(201.412 -0.546322 -13.2878)
(195.412 0.2192 -19.5371)
(182.664 2.30554 -34.7167)
(201.645 0.933452 1.71073)
(202.084 0.532204 0.920675)
(202.235 0.150173 0.0166845)
(202.137 -0.173238 -0.88828)
(201.79 -0.443871 -1.79295)
(201.175 -0.656325 -2.61571)
(200.265 -0.822857 -3.29159)
(199.032 -0.966937 -3.68521)
(197.471 -1.1439 -3.5807)
(195.734 -1.37795 -2.75547)
(202.942 1.87185 1.81086)
(203.416 1.49559 0.738371)
(203.582 1.0987 -0.368978)
(203.453 0.706348 -1.48019)
(203.007 0.319319 -2.58694)
(202.198 -0.0653336 -3.65876)
(200.949 -0.458278 -4.61954)
(199.154 -0.881627 -5.34124)
(196.682 -1.40286 -5.40058)
(193.864 -1.96398 -4.62158)
(203.906 1.7162 2.53184)
(204.424 1.1754 1.23541)
(204.604 0.646316 -0.123486)
(204.465 0.161867 -1.49342)
(203.969 -0.301867 -2.89077)
(203.043 -0.753398 -4.29581)
(201.554 -1.21209 -5.64198)
(199.305 -1.70422 -6.8383)
(195.945 -2.33428 -7.29751)
(191.85 -3.0227 -6.92911)
(204.344 2.48047 2.62304)
(204.908 1.92628 1.16849)
(205.119 1.3761 -0.320507)
(205.001 0.872697 -1.83071)
(204.505 0.390592 -3.39741)
(203.543 -0.0797413 -5.0351)
(201.92 -0.567453 -6.69774)
(199.336 -1.09467 -8.37098)
(195.118 -1.79985 -9.29311)
(189.645 -2.55977 -9.55154)
(204.903 2.05776 3.24363)
(205.512 1.38989 1.66687)
(205.759 0.759561 0.0188183)
(205.685 0.210423 -1.65258)
(205.226 -0.299992 -3.42151)
(204.29 -0.779746 -5.33196)
(202.62 -1.26156 -7.36427)
(199.822 -1.76493 -9.60232)
(194.856 -2.47885 -11.1412)
(188.05 -3.2127 -12.3848)
(205.132 2.89345 3.09586)
(205.771 2.20494 1.46217)
(206.047 1.56304 -0.202698)
(206.01 1.01317 -1.90678)
(205.592 0.516814 -3.72649)
(204.707 0.0614775 -5.75411)
(203.046 -0.390495 -7.99221)
(200.144 -0.857425 -10.659)
(194.576 -1.53738 -12.7433)
(186.568 -2.19211 -15.1572)
(205.51 2.12215 3.67263)
(206.184 1.32081 1.99009)
(206.49 0.60154 0.23481)
(206.494 0.00231909 -1.55227)
(206.126 -0.52036 -3.48872)
(205.306 -0.97414 -5.69104)
(203.693 -1.38512 -8.20167)
(200.764 -1.76632 -11.3568)
(194.742 -2.32119 -14.1249)
(185.649 -2.78975 -17.9748)
(205.581 3.03172 3.21946)
(206.264 2.20993 1.55671)
(206.57 1.50095 -0.122058)
(206.563 0.922767 -1.85241)
(206.19 0.451072 -3.72534)
(205.387 0.0639041 -5.90047)
(203.815 -0.260495 -8.44745)
(200.925 -0.548986 -11.845)
(194.648 -0.892522 -15.1102)
(184.674 -1.20065 -20.3458)
(205.734 1.71177 3.79604)
(206.429 0.774303 2.1569)
(206.75 -0.0142859 0.456525)
(206.768 -0.652653 -1.27786)
(206.428 -1.17137 -3.18309)
(205.668 -1.57731 -5.41475)
(204.153 -1.84954 -8.12438)
(201.354 -1.99897 -11.8779)
(195.008 -1.9494 -15.9858)
(184.063 -1.89649 -22.4101)
(204.943 2.6589 3.12895)
(205.591 1.6558 1.5437)
(205.822 0.901834 -0.0470077)
(205.67 0.300048 -1.69984)
(205.109 -0.127472 -3.49198)
(204.095 -0.400713 -5.59133)
(202.339 -0.480542 -8.1489)
(199.352 -0.315979 -11.7136)
(193.027 0.229808 -16.0554)
(181.594 1.20673 -22.889)
(200.424 0.535579 1.20282)
(200.767 0.279451 0.674927)
(200.882 0.0185671 0.0437964)
(200.808 -0.210739 -0.575937)
(200.55 -0.412093 -1.18144)
(200.112 -0.577791 -1.69296)
(199.5 -0.717462 -2.06368)
(198.738 -0.846181 -2.20373)
(197.872 -0.990434 -2.02107)
(197.014 -1.15583 -1.43179)
(201.556 1.40128 1.33034)
(201.956 1.16586 0.529453)
(202.096 0.886658 -0.303886)
(201.984 0.588483 -1.13041)
(201.612 0.280185 -1.92316)
(200.964 -0.0371551 -2.63903)
(200.02 -0.367991 -3.20378)
(198.772 -0.721888 -3.50924)
(197.242 -1.12641 -3.32743)
(195.724 -1.53782 -2.52104)
(202.383 1.25324 2.07705)
(202.86 0.849978 1.04259)
(203.026 0.430507 -0.0587185)
(202.895 0.0293576 -1.15888)
(202.445 -0.368626 -2.2496)
(201.638 -0.768243 -3.28953)
(200.408 -1.18269 -4.194)
(198.689 -1.62938 -4.83338)
(196.399 -2.16236 -4.81443)
(193.992 -2.72382 -3.93402)
(202.803 2.07598 2.18125)
(203.351 1.6495 0.968509)
(203.552 1.19667 -0.285334)
(203.427 0.763175 -1.54782)
(202.94 0.333509 -2.82509)
(202.034 -0.0990568 -4.09767)
(200.587 -0.558669 -5.2832)
(198.455 -1.06424 -6.26683)
(195.362 -1.70296 -6.46983)
(191.882 -2.40086 -5.62016)
(203.377 1.68993 2.83099)
(203.988 1.1407 1.46781)
(204.226 0.59848 0.0274592)
(204.128 0.109412 -1.42386)
(203.643 -0.358774 -2.92833)
(202.699 -0.81214 -4.48724)
(201.113 -1.27899 -6.0322)
(198.66 -1.78183 -7.48835)
(194.796 -2.46099 -8.09114)
(190.173 -3.22327 -7.55202)
(203.649 2.57452 2.70797)
(204.304 1.99299 1.26549)
(204.573 1.4294 -0.215888)
(204.5 0.932004 -1.72579)
(204.03 0.470901 -3.30965)
(203.082 0.0348968 -5.00893)
(201.417 -0.413374 -6.7705)
(198.739 -0.899831 -8.60153)
(194.182 -1.58815 -9.5659)
(188.441 -2.37744 -9.48163)
(204.075 1.83125 3.31242)
(204.771 1.13012 1.79844)
(205.069 0.485289 0.204353)
(205.031 -0.0625415 -1.41312)
(204.589 -0.549855 -3.14101)
(203.665 -0.983475 -5.04154)
(201.972 -1.3918 -7.09726)
(199.144 -1.79993 -9.39168)
(193.994 -2.39923 -10.884)
(187.173 -3.11491 -11.5272)
(204.201 2.79576 2.87231)
(204.912 2.07016 1.36794)
(205.214 1.4307 -0.16089)
(205.168 0.901339 -1.73672)
(204.719 0.461811 -3.42301)
(203.792 0.093754 -5.32342)
(202.084 -0.231297 -7.4435)
(199.186 -0.555375 -9.98485)
(193.613 -1.0024 -11.8715)
(185.836 -1.66367 -13.2727)
(204.406 1.47652 3.48473)
(205.125 0.632517 1.98777)
(205.44 -0.0832411 0.415027)
(205.413 -0.660042 -1.18878)
(204.987 -1.1261 -2.9341)
(204.088 -1.48575 -4.91785)
(202.394 -1.73075 -7.21081)
(199.475 -1.89355 -10.0686)
(193.659 -1.9835 -12.6886)
(184.838 -2.39256 -14.848)
(203.675 2.51032 2.79737)
(204.352 1.60807 1.36983)
(204.605 0.932427 -0.0784911)
(204.459 0.395182 -1.58971)
(203.881 0.0209196 -3.21912)
(202.805 -0.207483 -5.08409)
(200.946 -0.263224 -7.25871)
(197.86 -0.118588 -9.99331)
(191.944 0.261427 -12.8139)
(182.416 0.644791 -15.1569)
(199.579 0.23663 0.833581)
(199.833 0.0780943 0.496767)
(199.915 -0.0946522 0.0709863)
(199.864 -0.25162 -0.336359)
(199.689 -0.397249 -0.730283)
(199.402 -0.522526 -1.04283)
(199.017 -0.633785 -1.24873)
(198.565 -0.738412 -1.29366)
(198.088 -0.847179 -1.14491)
(197.628 -0.957907 -0.780216)
(200.534 1.01004 0.92911)
(200.842 0.879663 0.354733)
(200.951 0.696706 -0.244229)
(200.865 0.481113 -0.8316)
(200.582 0.245979 -1.37553)
(200.104 -0.00464052 -1.83524)
(199.44 -0.269339 -2.15325)
(198.617 -0.548587 -2.25697)
(197.701 -0.846644 -2.039)
(196.875 -1.12981 -1.43521)
(201.186 0.826705 1.66069)
(201.59 0.538808 0.866643)
(201.731 0.218576 0.00652808)
(201.62 -0.102004 -0.84523)
(201.246 -0.431431 -1.66599)
(200.595 -0.770329 -2.40722)
(199.65 -1.12535 -2.99241)
(198.419 -1.505 -3.31349)
(196.938 -1.93016 -3.14756)
(195.533 -2.35304 -2.35514)
(201.536 1.67574 1.75011)
(202.03 1.36695 0.775546)
(202.21 1.0096 -0.242943)
(202.091 0.649219 -1.26069)
(201.653 0.279241 -2.26226)
(200.865 -0.10288 -3.20815)
(199.669 -0.513769 -4.01131)
(198.029 -0.965711 -4.54492)
(195.891 -1.50418 -4.44333)
(193.737 -2.06998 -3.45269)
(202.071 1.30903 2.41014)
(202.644 0.876871 1.26896)
(202.862 0.425943 0.0473844)
(202.756 0.00292294 -1.17476)
(202.289 -0.414255 -2.41197)
(201.414 -0.828296 -3.63456)
(200.022 -1.26081 -4.75549)
(198.02 -1.73144 -5.64682)
(195.2 -2.32929 -5.78218)
(192.185 -2.98913 -4.78364)
(202.342 2.22927 2.3016)
(202.974 1.75887 1.06551)
(203.226 1.27972 -0.21558)
(203.134 0.841821 -1.51484)
(202.654 0.424635 -2.84856)
(201.727 0.0199164 -4.21622)
(200.192 -0.405112 -5.5345)
(197.895 -0.876592 -6.7118)
(194.414 -1.51011 -7.05537)
(190.494 -2.24917 -6.1171)
(202.781 1.51072 2.92665)
(203.465 0.917549 1.60012)
(203.746 0.35446 0.187161)
(203.679 -0.135327 -1.24023)
(203.205 -0.580015 -2.738)
(202.26 -0.984529 -4.31998)
(200.63 -1.37624 -5.92769)
(198.103 -1.78487 -7.50376)
(194.01 -2.36144 -8.2339)
(189.16 -3.08935 -7.58284)
(202.936 2.53067 2.49701)
(203.642 1.91074 1.16974)
(203.932 1.34868 -0.189729)
(203.858 0.874751 -1.58991)
(203.37 0.474086 -3.06537)
(202.398 0.132375 -4.66765)
(200.704 -0.180786 -6.35094)
(198.021 -0.512738 -8.139)
(193.443 -0.983967 -9.14317)
(187.715 -1.72426 -8.81943)
(203.176 1.21124 3.14681)
(203.892 0.470653 1.81074)
(204.193 -0.166839 0.385517)
(204.133 -0.680463 -1.06547)
(203.658 -1.09474 -2.62511)
(202.695 -1.41148 -4.33701)
(200.976 -1.63188 -6.20874)
(198.19 -1.79788 -8.27702)
(193.277 -1.95979 -9.84053)
(186.575 -2.51255 -9.94216)
(202.495 2.34328 2.43778)
(203.174 1.54926 1.18033)
(203.435 0.95498 -0.112269)
(203.293 0.482492 -1.46524)
(202.714 0.159156 -2.91047)
(201.626 -0.0295523 -4.5176)
(199.784 -0.0676828 -6.29657)
(196.838 0.0557223 -8.29369)
(191.748 0.314839 -9.98987)
(184.327 0.416259 -10.1065)
(198.99 0.0278644 0.584731)
(199.175 -0.0708566 0.377597)
(199.231 -0.18479 0.0943968)
(199.199 -0.29025 -0.166782)
(199.088 -0.393802 -0.421134)
(198.911 -0.486044 -0.613452)
(198.681 -0.570879 -0.734828)
(198.422 -0.650521 -0.752658)
(198.16 -0.728022 -0.659537)
(197.895 -0.798658 -0.454326)
(199.791 0.713432 0.616288)
(200.013 0.654046 0.21689)
(200.094 0.543494 -0.196761)
(200.033 0.394962 -0.597821)
(199.833 0.222983 -0.957477)
(199.502 0.0331248 -1.2438)
(199.059 -0.169112 -1.41775)
(198.538 -0.379334 -1.43641)
(197.997 -0.591754 -1.25434)
(197.541 -0.77911 -0.855509)
(200.27 0.465398 1.3067)
(200.589 0.264793 0.716121)
(200.702 0.0271608 0.0648304)
(200.616 -0.221267 -0.575285)
(200.325 -0.485 -1.17676)
(199.832 -0.761418 -1.6941)
(199.146 -1.05193 -2.06763)
(198.301 -1.35752 -2.22348)
(197.366 -1.68062 -2.04796)
(196.546 -1.9833 -1.48255)
(200.526 1.31085 1.35712)
(200.943 1.1004 0.599632)
(201.096 0.829306 -0.200096)
(200.994 0.539677 -0.993465)
(200.627 0.231548 -1.75325)
(199.983 -0.0936586 -2.43315)
(199.051 -0.444407 -2.95734)
(197.847 -0.825606 -3.2223)
(196.417 -1.2547 -3.0213)
(195.092 -1.68467 -2.20681)
(200.987 0.943372 2.00679)
(201.493 0.616755 1.07971)
(201.685 0.253516 0.073117)
(201.584 -0.101955 -0.926867)
(201.166 -0.462995 -1.9153)
(200.406 -0.828577 -2.84606)
(199.256 -1.21277 -3.63323)
(197.703 -1.62894 -4.15101)
(195.722 -2.12613 -4.07531)
(193.781 -2.65243 -3.13601)
(201.225 1.881 1.89929)
(201.802 1.51664 0.87092)
(202.03 1.12224 -0.205417)
(201.932 0.747365 -1.29136)
(201.48 0.38009 -2.38066)
(200.633 0.0158549 -3.44522)
(199.303 -0.37049 -4.39289)
(197.435 -0.800088 -5.10224)
(194.885 -1.34471 -5.11575)
(192.259 -1.9667 -4.05173)
(201.648 1.1793 2.5341)
(202.288 0.693856 1.40251)
(202.546 0.215132 0.18084)
(202.463 -0.212576 -1.0472)
(201.996 -0.609175 -2.31084)
(201.096 -0.97692 -3.5888)
(199.627 -1.33922 -4.8021)
(197.489 -1.72412 -5.82934)
(194.381 -2.23857 -6.11011)
(191.015 -2.87831 -5.09625)
(201.806 2.2506 2.10931)
(202.477 1.73907 0.968716)
(202.747 1.25842 -0.209669)
(202.657 0.844251 -1.42191)
(202.166 0.487434 -2.67662)
(201.219 0.177754 -3.98468)
(199.647 -0.113094 -5.26922)
(197.303 -0.428407 -6.45487)
(193.723 -0.867916 -6.89382)
(189.624 -1.54643 -5.94756)
(202.065 0.926409 2.79541)
(202.752 0.29353 1.63108)
(203.033 -0.262831 0.366887)
(202.953 -0.712654 -0.916473)
(202.464 -1.07609 -2.27635)
(201.504 -1.35256 -3.71369)
(199.877 -1.54936 -5.19422)
(197.383 -1.70894 -6.62997)
(193.444 -1.89133 -7.4738)
(188.532 -2.41777 -6.72496)
(201.421 2.16588 2.06157)
(202.076 1.48355 0.980563)
(202.333 0.972091 -0.14728)
(202.197 0.564054 -1.33061)
(201.636 0.289358 -2.57911)
(200.587 0.135711 -3.92256)
(198.858 0.11029 -5.3243)
(196.208 0.212936 -6.71414)
(192.056 0.385619 -7.62357)
(186.527 0.375245 -6.80242)
(198.567 -0.111727 0.425671)
(198.704 -0.175995 0.302793)
(198.742 -0.253057 0.113169)
(198.723 -0.323792 -0.0528193)
(198.657 -0.397076 -0.219196)
(198.552 -0.463767 -0.340863)
(198.418 -0.52643 -0.419204)
(198.272 -0.584626 -0.433164)
(198.125 -0.638203 -0.384632)
(197.955 -0.682374 -0.275966)
(199.253 0.506702 0.383324)
(199.405 0.49187 0.111908)
(199.462 0.432451 -0.163621)
(199.421 0.335207 -0.427488)
(199.287 0.214511 -0.657025)
(199.07 0.0763177 -0.82997)
(198.786 -0.0720921 -0.92192)
(198.464 -0.224344 -0.90912)
(198.145 -0.371807 -0.774492)
(197.886 -0.493455 -0.518361)
(199.579 0.179468 1.02218)
(199.817 0.0396943 0.593721)
(199.903 -0.133543 0.11257)
(199.84 -0.321214 -0.357522)
(199.626 -0.526071 -0.790407)
(199.272 -0.743895 -1.14866)
(198.795 -0.972648 -1.38954)
(198.232 -1.20861 -1.46749)
(197.649 -1.44578 -1.32753)
(197.164 -1.6552 -0.955556)
(199.742 1.00013 1.0178)
(200.074 0.865445 0.44662)
(200.198 0.667275 -0.161462)
(200.117 0.441977 -0.760676)
(199.826 0.193594 -1.32017)
(199.328 -0.0736102 -1.79616)
(198.634 -0.361338 -2.12937)
(197.78 -0.668725 -2.24603)
(196.841 -0.996762 -2.03773)
(196.026 -1.3095 -1.43664)
(200.111 0.614493 1.63974)
(200.536 0.376133 0.90707)
(200.697 0.0919952 0.0999667)
(200.609 -0.198431 -0.69652)
(200.256 -0.501923 -1.46641)
(199.633 -0.814256 -2.15935)
(198.727 -1.14294 -2.70128)
(197.568 -1.49418 -2.9905)
(196.209 -1.88998 -2.84118)
(194.967 -2.28876 -2.10077)
(200.297 1.55008 1.52035)
(200.799 1.27979 0.689243)
(200.996 0.9654 -0.18906)
(200.904 0.65357 -1.07068)
(200.502 0.339283 -1.93482)
(199.773 0.0214949 -2.7398)
(198.676 -0.31639 -3.39937)
(197.219 -0.688472 -3.79966)
(195.403 -1.1323 -3.65788)
(193.663 -1.62239 -2.73108)
(200.684 0.855383 2.15263)
(201.258 0.470543 1.21254)
(201.485 0.0742624 0.182444)
(201.399 -0.29023 -0.84761)
(200.967 -0.635474 -1.88673)
(200.16 -0.960866 -2.893)
(198.903 -1.28446 -3.78401)
(197.172 -1.62847 -4.42499)
(194.886 -2.06185 -4.45884)
(192.584 -2.58018 -3.47755)
(200.822 1.97052 1.72549)
(201.434 1.56363 0.771681)
(201.678 1.16438 -0.222322)
(201.582 0.811731 -1.24358)
(201.118 0.501822 -2.28021)
(200.247 0.228227 -3.31597)
(198.865 -0.0327908 -4.26194)
(196.912 -0.315845 -5.00522)
(194.209 -0.693071 -5.10099)
(191.335 -1.24876 -4.05103)
(201.088 0.633828 2.44502)
(201.723 0.107173 1.45478)
(201.978 -0.368181 0.357829)
(201.888 -0.754985 -0.751416)
(201.416 -1.06895 -1.90888)
(200.516 -1.30733 -3.08564)
(199.057 -1.48069 -4.22491)
(196.933 -1.62696 -5.18681)
(193.894 -1.80025 -5.57563)
(190.393 -2.23175 -4.59406)
(200.469 1.98762 1.68147)
(201.077 1.41614 0.776636)
(201.319 0.986875 -0.182803)
(201.192 0.642008 -1.19141)
(200.668 0.41337 -2.23997)
(199.698 0.290524 -3.32881)
(198.15 0.274213 -4.39261)
(195.879 0.357851 -5.312)
(192.626 0.469372 -5.70377)
(188.65 0.426403 -4.60945)
(198.252 -0.203776 0.328557)
(198.358 -0.249032 0.25877)
(198.384 -0.304111 0.127977)
(198.374 -0.352392 0.0214335)
(198.335 -0.404782 -0.0913285)
(198.274 -0.4527 -0.172379)
(198.198 -0.498156 -0.22886)
(198.117 -0.53968 -0.245701)
(198.032 -0.576077 -0.227713)
(197.911 -0.603304 -0.176115)
(198.859 0.375649 0.214092)
(198.959 0.387243 0.0326915)
(198.997 0.362254 -0.144342)
(198.972 0.302444 -0.311325)
(198.886 0.221341 -0.452032)
(198.748 0.124658 -0.55221)
(198.572 0.0196286 -0.597544)
(198.377 -0.0871404 -0.575195)
(198.188 -0.187319 -0.480432)
(198.036 -0.26488 -0.31676)
(199.061 -0.0338895 0.803159)
(199.23 -0.134088 0.497955)
(199.292 -0.259673 0.148751)
(199.248 -0.398737 -0.191119)
(199.099 -0.553681 -0.499668)
(198.854 -0.720229 -0.74862)
(198.534 -0.894482 -0.909121)
(198.169 -1.07073 -0.955074)
(197.808 -1.2404 -0.860327)
(197.519 -1.38186 -0.630678)
(199.145 0.751008 0.737174)
(199.397 0.670792 0.318468)
(199.493 0.530947 -0.129843)
(199.432 0.361133 -0.568896)
(199.213 0.16722 -0.969583)
(198.845 -0.0449018 -1.29527)
(198.346 -0.272678 -1.50301)
(197.759 -0.511697 -1.54432)
(197.149 -0.75514 -1.36589)
(196.646 -0.975792 -0.943619)
(199.42 0.335774 1.31991)
(199.76 0.166646 0.755178)
(199.89 -0.0498365 0.124278)
(199.818 -0.280821 -0.494589)
(199.535 -0.528701 -1.08104)
(199.047 -0.787191 -1.58843)
(198.362 -1.05894 -1.95823)
(197.524 -1.34422 -2.11717)
(196.606 -1.64933 -1.96376)
(195.815 -1.94012 -1.42576)
(199.545 1.25164 1.17902)
(199.963 1.0596 0.526202)
(200.127 0.816773 -0.169747)
(200.046 0.564848 -0.864956)
(199.708 0.303689 -1.53134)
(199.109 0.0349969 -2.1242)
(198.243 -0.249934 -2.57087)
(197.145 -0.55893 -2.78049)
(195.877 -0.906348 -2.58524)
(194.734 -1.27402 -1.85788)
(199.887 0.554762 1.7971)
(200.38 0.258562 1.036)
(200.574 -0.0610017 0.188893)
(200.493 -0.363983 -0.653737)
(200.114 -0.657017 -1.48769)
(199.426 -0.936943 -2.26262)
(198.397 -1.2166 -2.9036)
(197.046 -1.51086 -3.29014)
(195.403 -1.86059 -3.20759)
(193.85 -2.25669 -2.39403)
(199.988 1.70439 1.36044)
(200.524 1.3931 0.58496)
(200.736 1.07149 -0.229561)
(200.644 0.779487 -1.06552)
(200.228 0.517486 -1.89699)
(199.465 0.282257 -2.69292)
(198.305 0.0558046 -3.366)
(196.74 -0.187335 -3.80474)
(194.753 -0.494129 -3.71387)
(192.773 -0.917101 -2.77516)
(200.254 0.345154 2.10967)
(200.819 -0.0819188 1.2878)
(201.043 -0.479425 0.356826)
(200.954 -0.805647 -0.580105)
(200.521 -1.07223 -1.54267)
(199.717 -1.27466 -2.48441)
(198.468 -1.42457 -3.34092)
(196.734 -1.5531 -3.96636)
(194.458 -1.70358 -4.09224)
(192.02 -2.03041 -3.1653)
(199.647 1.81843 1.31005)
(200.19 1.35285 0.574646)
(200.41 1.00282 -0.218586)
(200.295 0.718589 -1.05407)
(199.823 0.532931 -1.90828)
(198.963 0.436932 -2.76277)
(197.633 0.427109 -3.53901)
(195.765 0.494166 -4.11232)
(193.296 0.563002 -4.18789)
(190.52 0.520604 -3.13069)
(198.007 -0.266471 0.272391)
(198.094 -0.301424 0.235352)
(198.113 -0.343968 0.140279)
(198.108 -0.378222 0.0695988)
(198.085 -0.416728 -0.0112795)
(198.051 -0.451435 -0.0694944)
(198.008 -0.484304 -0.114911)
(197.962 -0.51364 -0.135717)
(197.912 -0.538111 -0.137348)
(197.817 -0.554532 -0.119238)
(198.565 0.303546 0.0913425)
(198.629 0.330319 -0.0282564)
(198.654 0.327786 -0.13714)
(198.639 0.294377 -0.237551)
(198.586 0.242738 -0.318806)
(198.501 0.177816 -0.372361)
(198.393 0.105985 -0.39035)
(198.276 0.0331682 -0.365639)
(198.163 -0.0337299 -0.298663)
(198.071 -0.0824431 -0.191089)
(198.669 -0.184833 0.64024)
(198.784 -0.260642 0.425159)
(198.827 -0.352384 0.174181)
(198.798 -0.454213 -0.0698499)
(198.698 -0.568911 -0.289684)
(198.535 -0.692974 -0.465202)
(198.326 -0.821931 -0.577673)
(198.095 -0.949908 -0.61301)
(197.872 -1.06868 -0.558224)
(197.697 -1.16247 -0.426027)
(198.697 0.56229 0.512904)
(198.881 0.518852 0.214235)
(198.952 0.42353 -0.106399)
(198.908 0.29944 -0.418592)
(198.75 0.152772 -0.697756)
(198.488 -0.0100078 -0.915622)
(198.142 -0.184406 -1.04273)
(197.747 -0.36446 -1.04885)
(197.354 -0.54093 -0.909915)
(197.043 -0.693717 -0.620599)
(198.885 0.112998 1.05113)
(199.146 -0.0047295 0.625409)
(199.246 -0.165921 0.143555)
(199.19 -0.345033 -0.326686)
(198.974 -0.541874 -0.764895)
(198.606 -0.749444 -1.13203)
(198.107 -0.967077 -1.38468)
(197.517 -1.19132 -1.47415)
(196.906 -1.42086 -1.3472)
(196.403 -1.62745 -0.976367)
(198.951 0.99471 0.883951)
(199.284 0.864 0.385378)
(199.416 0.682137 -0.149974)
(199.349 0.484511 -0.682382)
(199.077 0.27395 -1.18209)
(198.606 0.0540167 -1.60802)
(197.946 -0.177954 -1.90313)
(197.144 -0.425157 -2.00225)
(196.273 -0.688567 -1.8083)
(195.528 -0.955095 -1.26849)
(199.246 0.289299 1.47809)
(199.653 0.0672485 0.877034)
(199.813 -0.184029 0.197287)
(199.742 -0.429656 -0.475447)
(199.425 -0.671969 -1.12958)
(198.863 -0.90593 -1.71503)
(198.053 -1.14017 -2.16946)
(197.033 -1.38252 -2.39746)
(195.874 -1.65603 -2.27746)
(194.837 -1.94636 -1.65383)
(199.298 1.46362 1.02621)
(199.749 1.23529 0.413806)
(199.928 0.98456 -0.23325)
(199.845 0.749918 -0.896964)
(199.488 0.534788 -1.54359)
(198.849 0.338342 -2.13682)
(197.913 0.148607 -2.59902)
(196.702 -0.0523214 -2.83895)
(195.275 -0.292766 -2.66418)
(193.931 -0.601042 -1.90423)
(199.561 0.0705258 1.80156)
(200.047 -0.267558 1.13552)
(200.237 -0.593074 0.362355)
(200.155 -0.862816 -0.411498)
(199.776 -1.08501 -1.19472)
(199.09 -1.25388 -1.93359)
(198.062 -1.38079 -2.56617)
(196.698 -1.48931 -2.96434)
(195.035 -1.61218 -2.95741)
(193.371 -1.84828 -2.19272)
(198.957 1.66773 0.958473)
(199.423 1.29967 0.380089)
(199.616 1.02366 -0.254781)
(199.514 0.796223 -0.925015)
(199.106 0.649908 -1.59784)
(198.371 0.577076 -2.24539)
(197.272 0.571863 -2.78753)
(195.792 0.62493 -3.118)
(193.968 0.66426 -3.01887)
(192.078 0.633939 -2.11935)
(197.812 -0.313613 0.243278)
(197.886 -0.343002 0.226017)
(197.899 -0.378772 0.151842)
(197.897 -0.404596 0.101953)
(197.885 -0.434166 0.039522)
(197.866 -0.459953 -0.00639455)
(197.841 -0.484015 -0.0465261)
(197.815 -0.504776 -0.0710236)
(197.784 -0.521102 -0.0852596)
(197.705 -0.530574 -0.0871789)
(198.34 0.275145 0.000224415)
(198.381 0.310843 -0.0774458)
(198.398 0.322674 -0.139881)
(198.389 0.307526 -0.19508)
(198.357 0.27713 -0.236707)
(198.305 0.235593 -0.259907)
(198.241 0.188147 -0.260777)
(198.17 0.139715 -0.235011)
(198.102 0.0956026 -0.185286)
(198.043 0.0653891 -0.110187)
(198.369 -0.286315 0.522401)
(198.444 -0.347751 0.371073)
(198.473 -0.416152 0.190714)
(198.454 -0.49051 0.0148679)
(198.389 -0.574184 -0.143361)
(198.284 -0.664594 -0.27039)
(198.151 -0.75765 -0.354248)
(198.007 -0.848228 -0.387796)
(197.87 -0.929559 -0.363542)
(197.764 -0.990371 -0.295982)
(198.364 0.427234 0.338258)
(198.493 0.407192 0.131221)
(198.544 0.344522 -0.0910242)
(198.514 0.256659 -0.306149)
(198.404 0.149271 -0.49504)
(198.224 0.0284869 -0.636975)
(197.99 -0.100802 -0.712665)
(197.729 -0.23249 -0.703705)
(197.479 -0.357656 -0.601056)
(197.286 -0.461943 -0.404763)
(198.477 -0.0541337 0.831792)