/*--------------------------------*- C++ -*----------------------------------*\
| =========                 |                                                 |
| \\      /  F ield         | foam-extend: Open Source CFD                    |
|  \\    /   O peration     | Version:     4.0                                |
|   \\  /    A nd           | Web:         http://www.foam-extend.org         |
|    \\/     M anipulation  |                                                 |
\*---------------------------------------------------------------------------*/
FoamFile
{
    version     2.0;
    format      ascii;
    class       volScalarField;
    location    "2900";
    object      divFlux;
}
// * * * * * * * * * * * * * * * * * * * * * * * * * * * * * * * * * * * * * //

dimensions      [1 -3 -1 0 0 0 0];

internalField   nonuniform List<scalar> 
34480
(
1.41285e-05
5.63425e-06
5.32058e-06
4.90079e-06
4.57975e-06
4.29659e-06
4.07288e-06
0.000294242
0.00010233
3.63149e-06
5.10806e-06
1.70637e-06
2.36233e-06
2.01983e-06
1.90677e-06
1.86101e-06
1.8566e-06
1.86089e-06
0.00349409
1.79572e-06
1.32869e-06
6.00325e-07
7.98539e-07
6.4761e-07
6.68229e-07
6.88343e-07
7.25045e-07
7.50245e-07
0.0033383
7.39524e-07
3.76721e-07
2.99849e-07
2.63423e-07
2.60903e-07
2.58917e-07
2.71976e-07
2.90914e-07
2.98398e-07
0.000795022
2.98856e-07
1.62724e-07
1.10817e-07
1.11145e-07
1.07806e-07
1.0545e-07
1.12126e-07
1.21356e-07
1.22403e-07
1.25087e-07
1.23581e-07
6.75262e-08
4.77666e-08
4.85685e-08
4.63348e-08
4.61057e-08
4.96567e-08
5.30359e-08
5.13176e-08
5.41241e-08
5.44677e-08
2.91716e-08
2.24006e-08
2.22987e-08
2.0466e-08
2.15351e-08
2.26042e-08
2.40297e-08
2.37242e-08
2.48952e-08
2.42842e-08
1.42441e-08
1.21879e-08
1.15006e-08
1.07217e-08
1.0401e-08
1.15465e-08
1.1409e-08
1.0401e-08
1.19588e-08
1.25545e-08
1.20015e-08
6.03982e-09
6.83124e-09
5.95651e-09
6.3314e-09
6.70628e-09
5.45666e-09
6.74793e-09
6.9562e-09
5.83155e-09
7.88474e-09
2.2146e-09
4.77284e-09
4.4292e-09
4.62011e-09
3.93282e-09
4.39102e-09
4.62011e-09
4.4292e-09
3.81828e-09
1.60648e-05
7.46024e-06
6.92996e-06
6.3249e-06
5.95048e-06
5.66801e-06
5.46997e-06
5.36785e-06
5.35891e-06
0.00107394
9.46708e-06
2.11869e-06
3.35661e-06
3.00792e-06
2.84377e-06
2.78743e-06
2.79302e-06
2.84536e-06
2.94019e-06
0.00346238
2.71381e-06
7.57599e-07
1.3553e-06
1.08034e-06
1.11983e-06
1.16464e-06
1.22159e-06
1.29012e-06
1.36731e-06
0.00430718
6.37778e-07
5.7461e-07
4.94779e-07
4.87396e-07
4.97335e-07
5.22253e-07
5.52034e-07
5.88134e-07
6.215e-07
0.00149277
3.46239e-07
2.47052e-07
2.24416e-07
2.25268e-07
2.29406e-07
2.42124e-07
2.54233e-07
2.71758e-07
2.88248e-07
2.94333e-07
1.6501e-07
1.13836e-07
1.12238e-07
1.04997e-07
1.11014e-07
1.17403e-07
1.1948e-07
1.30448e-07
1.38914e-07
1.39626e-07
8.22525e-08
5.72196e-08
5.87341e-08
5.16349e-08
5.37647e-08
5.86395e-08
5.88288e-08
6.50761e-08
6.78684e-08
6.9093e-08
1.10395e-08
3.82079e-08
3.00722e-08
2.71332e-08
3.14779e-08
3.08816e-08
3.10093e-08
3.45447e-08
3.87191e-08
3.619e-08
5.79634e-09
2.58282e-08
2.06393e-08
2.14912e-08
1.94389e-08
1.89355e-08
2.16074e-08
2.21883e-08
2.37372e-08
2.41583e-08
5.02006e-07
4.21693e-08
1.40209e-08
2.07652e-08
1.3879e-08
1.7748e-08
1.39144e-08
1.71091e-08
1.69671e-08
1.89327e-08
1.46967e-05
5.90727e-06
5.49439e-06
4.9455e-06
4.65498e-06
4.4655e-06
4.35767e-06
4.34156e-06
2.82785e-05
0.00087888
8.92987e-06
1.04663e-06
2.42602e-06
2.2214e-06
2.05954e-06
1.97763e-06
1.95491e-06
2e-06
8.20849e-05
0.00135415
2.41924e-06
3.03361e-07
1.00048e-06
7.33237e-07
7.29554e-07
7.24644e-07
7.37038e-07
7.85546e-07
0.00011993
0.00127216
4.52351e-07
3.68328e-07
3.14145e-07
3.01605e-07
2.97447e-07
2.91442e-07
3.01407e-07
3.22889e-07
3.61794e-07
4.53907e-07
2.29435e-07
1.43741e-07
1.34464e-07
1.34407e-07
1.27732e-07
1.22358e-07
1.28298e-07
1.37575e-07
1.55055e-07
1.97018e-07
1.04175e-07
6.19709e-08
6.27134e-08
6.0288e-08
5.48928e-08
5.32594e-08
5.89516e-08
6.0189e-08
6.69207e-08
8.9374e-08
4.87984e-08
2.70587e-08
2.84226e-08
2.78946e-08
2.58707e-08
2.41548e-08
2.68827e-08
2.73667e-08
3.24704e-08
4.31509e-08
1.68075e-08
1.675e-08
1.40177e-08
1.45721e-08
1.06519e-08
1.35029e-08
1.42553e-08
1.35425e-08
1.47305e-08
2.20116e-08
7.42463e-09
1.31034e-08
1.00435e-08
7.81162e-09
7.99161e-09
8.89156e-09
7.05565e-09
6.55168e-09
1.03675e-08
1.29639e-08
7.03231e-08
1.28034e-08
7.65562e-09
6.56668e-09
4.28979e-09
4.98275e-09
6.1377e-09
5.37874e-09
7.82062e-09
9.68502e-09
1.39146e-05
5.39734e-06
5.11232e-06
4.54708e-06
4.23985e-06
4.07475e-06
3.99622e-06
3.99963e-06
1.39635e-05
0.00037563
9.58203e-06
8.23755e-07
2.17295e-06
2.08198e-06
1.93478e-06
1.84293e-06
1.80502e-06
1.82098e-06
3.50761e-05
0.00114195
2.76133e-06
1.53321e-07
9.97341e-07
7.40247e-07
7.06749e-07
6.91251e-07
6.82784e-07
7.0627e-07
0.000120554
0.00228219
4.86989e-07
3.70111e-07
3.2649e-07
2.96672e-07
2.90169e-07
2.79769e-07
2.79002e-07
2.925e-07
0.000110628
0.00209282
2.27711e-07
1.44144e-07
1.31208e-07
1.27474e-07
1.26001e-07
1.18429e-07
1.18429e-07
1.25791e-07
4.35103e-05
0.00155483
1.04883e-07
6.11075e-08
6.16597e-08
5.82546e-08
5.75184e-08
5.19046e-08
5.28709e-08
5.77944e-08
1.01353e-05
0.00097186
4.91782e-08
2.96539e-08
2.85087e-08
2.68317e-08
2.7936e-08
2.31096e-08
2.5441e-08
2.60136e-08
2.98584e-08
0.000405389
2.0717e-08
1.69334e-08
1.35835e-08
1.5056e-08
1.34731e-08
1.11171e-08
1.31786e-08
1.46143e-08
1.47983e-08
0.000150984
3.00664e-10
1.12778e-08
8.90175e-09
8.96868e-09
8.06512e-09
8.80135e-09
8.19898e-09
8.43324e-09
9.03561e-09
1.3361e-08
4.70366e-08
5.55244e-09
6.59544e-09
6.71814e-09
5.06162e-09
4.72417e-09
6.16597e-09
5.27635e-09
6.62611e-09
9.88932e-09
1.27251e-05
4.70856e-06
4.71042e-06
4.20015e-06
3.85853e-06
3.6759e-06
3.59009e-06
3.58473e-06
1.88414e-05
0.000144023
1.00136e-05
6.82847e-07
1.89908e-06
1.90746e-06
1.79714e-06
1.70962e-06
1.66321e-06
1.65773e-06
4.20582e-06
0.000575851
3.16894e-06
7.68957e-08
9.28806e-07
7.1434e-07
6.65232e-07
6.49969e-07
6.36725e-07
6.41242e-07
7.478e-05
0.00132778
5.00176e-07
3.51141e-07
3.33431e-07
2.94191e-07
2.83896e-07
2.71975e-07
2.65987e-07
2.67555e-07
7.59357e-05
0.00140901
2.34722e-07
1.48521e-07
1.3493e-07
1.26424e-07
1.21437e-07
1.16891e-07
1.1562e-07
1.16549e-07
5.01676e-05
0.00126524
1.05211e-07
5.97165e-08
6.03582e-08
5.62944e-08
5.50111e-08
5.20167e-08
5.12467e-08
5.30861e-08
3.69525e-05
0.00099854
4.89284e-08
2.85179e-08
2.90503e-08
2.57041e-08
2.62365e-08
2.41452e-08
2.45254e-08
2.48676e-08
5.24353e-06
0.000650562
2.18162e-08
1.69396e-08
1.3449e-08
1.4373e-08
1.36202e-08
1.2354e-08
1.22855e-08
1.34148e-08
7.49263e-06
0.000482673
5.41371e-09
1.1262e-08
9.89312e-09
7.99539e-09
7.96428e-09
8.39982e-09
7.77761e-09
8.83537e-09
7.80872e-09
0.000293835
3.18728e-08
1.14072e-10
5.04767e-09
6.01728e-09
5.44692e-09
4.39176e-09
5.98876e-09
5.53248e-09
6.73023e-09
0.000385988
1.20131e-05
3.5093e-06
3.98538e-06
3.72194e-06
3.44668e-06
3.27772e-06
3.19397e-06
3.17234e-06
3.21184e-06
2.56207e-05
1.00111e-05
6.48081e-07
1.62213e-06
1.68759e-06
1.62392e-06
1.55453e-06
1.50895e-06
1.49456e-06
1.58805e-05
0.000220615
3.75101e-06
3.0541e-07
8.39781e-07
6.84022e-07
6.182e-07
6.00957e-07
5.87278e-07
5.82346e-07
3.34874e-05
0.00071342
4.77687e-07
2.95309e-07
3.16067e-07
2.77202e-07
2.65669e-07
2.57822e-07
2.50982e-07
2.47642e-07
3.8763e-05
0.000839592
2.30993e-07
1.44206e-07
1.32935e-07
1.24345e-07
1.19437e-07
1.12802e-07
1.10529e-07
1.09257e-07
3.37849e-05
0.000852409
1.08674e-07
6.03661e-08
6.04059e-08
5.61906e-08
5.37251e-08
5.12198e-08
5.03051e-08
4.99075e-08
3.11856e-05
0.0007656
4.91643e-08
2.81373e-08
2.84908e-08
2.56629e-08
2.57336e-08
2.38955e-08
2.35067e-08
2.37187e-08
1.66839e-05
0.000579591
2.1317e-08
1.60976e-08
1.40934e-08
1.33299e-08
1.3139e-08
1.24709e-08
1.18028e-08
1.25345e-08
2.22115e-05
0.000507191
8.9105e-09
1.0296e-08
9.05239e-09
8.21367e-09
7.92446e-09
7.80877e-09
7.80877e-09
8.27151e-09
8.20881e-06
0.000430494
2.22531e-08
3.41995e-09
5.80597e-09
5.8855e-09
5.77946e-09
5.01063e-09
5.4083e-09
4.87807e-09
2.25636e-05
0.000503147
1.51318e-05
2.32166e-06
3.14283e-06
3.11143e-06
2.90892e-06
2.77364e-06
2.71853e-06
2.7139e-06
2.74833e-06
5.67583e-07
9.31695e-06
7.49134e-07
1.40333e-06
1.44426e-06
1.41202e-06
1.36832e-06
1.33298e-06
1.31734e-06
1.02752e-05
7.03888e-05
4.41323e-06
5.42287e-07
7.22901e-07
6.47189e-07
5.71359e-07
5.4974e-07
5.36165e-07
5.28534e-07
1.25535e-05
0.000375117
5.09925e-07
2.44782e-07
2.96514e-07
2.59077e-07
2.4493e-07
2.37167e-07
2.31917e-07
2.26396e-07
1.43878e-05
0.000484995
2.10313e-07
1.30003e-07
1.24722e-07
1.14159e-07
1.11075e-07
1.0723e-07
1.03048e-07
1.02329e-07
1.50322e-05
0.000535468
1.06844e-07
5.77821e-08
5.76342e-08
5.41592e-08
5.17562e-08
4.89466e-08
4.78005e-08
4.67285e-08
1.65898e-05
0.000526782
4.86308e-08
2.63874e-08
2.76362e-08
2.54673e-08
2.47444e-08
2.34628e-08
2.2707e-08
2.19512e-08
1.30322e-05
0.000431037
2.12628e-08
1.52015e-08
1.38707e-08
1.26285e-08
1.23032e-08
1.22145e-08
1.18891e-08
1.21553e-08
2.12797e-05
0.000419858
1.14454e-08
9.14135e-09
8.57674e-09
8.38854e-09
7.98524e-09
8.22722e-09
6.8829e-09
8.41542e-09
1.6705e-05
0.000395388
1.64538e-08
5.42208e-09
4.75664e-09
5.44672e-09
4.85522e-09
4.78129e-09
4.95381e-09
5.24956e-09
2.88477e-05
0.000452523
1.96924e-05
1.45312e-06
2.67553e-06
2.87126e-06
2.65635e-06
2.44597e-06
2.33352e-06
2.30404e-06
2.32942e-06
2.48547e-06
7.66482e-06
9.31666e-07
1.30826e-06
1.26118e-06
1.21424e-06
1.18169e-06
1.15571e-06
1.14179e-06
2.39981e-06
1.46063e-05
5.15592e-06
7.75027e-07
5.60794e-07
5.84879e-07
5.13394e-07
4.86945e-07
4.7581e-07
4.69019e-07
4.54271e-06
0.000179383
5.49775e-07
1.89479e-07
2.73404e-07
2.45292e-07
2.24717e-07
2.16377e-07
2.10558e-07
2.0593e-07
4.13937e-06
0.000264053
2.04087e-07
1.14925e-07
1.18067e-07
1.05302e-07
1.0161e-07
9.77606e-08
9.49326e-08
9.33616e-08
4.23854e-06
0.000317609
9.90405e-08
5.27196e-08
5.25134e-08
4.92485e-08
4.7702e-08
4.55368e-08
4.47808e-08
4.36466e-08
5.43325e-06
0.000344048
4.77187e-08
2.52944e-08
2.58443e-08
2.45613e-08
2.27283e-08
2.23006e-08
2.13536e-08
2.13536e-08
6.65906e-06
0.000296101
2.11476e-08
1.44893e-08
1.3637e-08
1.28947e-08
1.23448e-08
1.06676e-08
1.11625e-08
1.10801e-08
1.55818e-05
0.000316852
1.25521e-08
8.79806e-09
8.34816e-09
7.74829e-09
7.09844e-09
7.59833e-09
6.64853e-09
7.49835e-09
1.57552e-05
0.000302882
1.14043e-08
5.75082e-09
5.15511e-09
5.1322e-09
4.81144e-09
4.7427e-09
4.46777e-09
4.85726e-09
2.68845e-05
0.000355737
2.10447e-05
9.78241e-07
1.05172e-06
2.04204e-06
2.19567e-06
2.07574e-06
1.93968e-06
1.8749e-06
1.87305e-06
2.00843e-06
5.18748e-06
9.51542e-07
1.22819e-06
1.12279e-06
1.0386e-06
9.96622e-07
9.70744e-07
9.5937e-07
9.56079e-07
8.51453e-08
5.953e-06
9.38513e-07
3.80604e-07
5.13845e-07
4.56439e-07
4.24285e-07
4.11199e-07
4.04988e-07
1.5674e-06
7.92418e-05
5.7387e-07
1.22003e-07
2.29821e-07
2.21834e-07
2.01429e-07
1.9161e-07
1.86157e-07
1.82174e-07
1.08086e-06
0.000134297
2.02133e-07
9.74176e-08
1.10672e-07
9.7089e-08
9.21962e-08
8.8837e-08
8.66096e-08
8.41632e-08
2.37191e-07
0.00017491
9.40324e-08
4.83071e-08
4.9042e-08
4.49205e-08
4.3994e-08
4.20132e-08
4.05435e-08
1.24528e-05
7.8563e-08
0.000211642
4.51207e-08
2.29466e-08
2.35714e-08
2.19526e-08
2.13846e-08
2.04759e-08
2.02487e-08
1.94535e-08
2.30775e-06
0.000186594
1.95627e-08
1.34953e-08
1.21151e-08
1.15017e-08
1.14761e-08
1.06327e-08
1.06582e-08
1.04675e-05
1.00374e-05
0.000222147
1.25381e-08
8.36487e-09
7.38897e-09
7.13338e-09
6.64543e-09
6.80808e-09
6.59896e-09
6.08777e-09
1.19821e-05
0.000209145
8.43924e-09
6.41113e-09
4.81368e-09
4.94147e-09
4.64328e-09
4.23859e-09
4.94147e-09
5.04618e-06
2.18851e-05
0.000258052
4.0421e-05
2.49376e-06
5.04879e-07
1.06726e-06
1.77365e-06
1.94366e-06
1.87839e-06
1.75583e-06
1.65033e-06
1.63462e-06
2.95085e-06
6.54285e-07
1.03781e-06
9.94392e-07
9.12417e-07
8.58005e-07
8.25452e-07
8.04959e-07
8.00266e-07
7.51209e-07
6.63529e-06
9.96388e-07
1.86665e-07
4.22135e-07
4.00062e-07
3.66369e-07
3.50639e-07
3.42869e-07
2.18267e-07
3.15679e-05
6.22087e-07
7.40745e-08
1.77296e-07
1.93493e-07
1.77751e-07
1.66306e-07
1.60564e-07
1.55871e-07
3.15445e-07
6.37885e-05
1.97775e-07
6.95854e-08
9.79287e-08
8.65914e-08
8.11943e-08
7.8343e-08
7.49825e-08
7.41339e-08
6.98671e-07
9.02181e-05
8.68804e-08
4.22349e-08
4.54724e-08
4.0245e-08
3.9146e-08
3.71263e-08
3.69184e-08
1.77838e-05
2.09508e-06
0.000124144
4.29713e-08
2.04871e-08
2.11472e-08
1.96951e-08
1.96423e-08
1.82959e-08
1.77678e-08
1.70814e-08
2.67706e-07
0.000107444
1.85723e-08
1.17379e-08
1.07874e-08
1.093e-08
9.9558e-09
9.48058e-09
9.57563e-09
1.93995e-05
6.06971e-06
0.000147585
1.2531e-08
7.19306e-09
6.65304e-09
6.86905e-09
6.58824e-09
6.28583e-09
6.37223e-09
6.41543e-09
7.96322e-06
0.000134011
6.59581e-09
5.86101e-09
3.99975e-09
4.41556e-09
4.29676e-09
4.29676e-09
3.62353e-09
1.04906e-05
1.64773e-05
0.000177113
5.56635e-05
2.42722e-06
2.17386e-06
1.20596e-06
1.26956e-07
6.65926e-07
1.1341e-06
1.38336e-06
1.52473e-06
1.69631e-06
2.28779e-06
1.53877e-07
6.35582e-07
7.23081e-07
7.11126e-07
6.95884e-07
6.80836e-07
6.69571e-07
6.53418e-07
5.99496e-07
6.95324e-06
8.68184e-07
6.47206e-09
2.99349e-07
3.29965e-07
3.09576e-07
2.9312e-07
2.84771e-07
2.78321e-07
1.08824e-05
6.1995e-07
6.47574e-08
1.18084e-07
1.5777e-07
1.5396e-07
1.43394e-07
1.3546e-07
1.31797e-07
5.96401e-08
2.72726e-05
2.14014e-07
4.09592e-08
8.19184e-08
7.54495e-08
7.11264e-08
6.67086e-08
6.41841e-08
6.21961e-08
6.20668e-07
4.37551e-05
7.86075e-08
3.4017e-08
4.02019e-08
3.60326e-08
3.37685e-08
3.25536e-08
3.15043e-08
1.69664e-05
2.52916e-06
7.08535e-05
3.9419e-08
1.83338e-08
1.89229e-08
1.75239e-08
1.68121e-08
1.63458e-08
1.60268e-08
1.57813e-08
3.49226e-07
5.62049e-05
1.73527e-08
1.01388e-08
1.05806e-08
9.14482e-09
9.67496e-09
8.41589e-09
9.18745e-07
2.13928e-05
3.52239e-06
9.52796e-05
1.12556e-08
7.47008e-09
5.94393e-09
6.20498e-09
5.40175e-09
5.08046e-09
5.2411e-09
5.5624e-09
4.58691e-06
7.91348e-05
4.89422e-09
5.55905e-09
4.23371e-09
3.57105e-09
3.99442e-09
3.35016e-09
3.92079e-09
1.14122e-05
1.17729e-05
0.000116549
5.83995e-05
7.27633e-06
3.71939e-06
7.47547e-07
3.84768e-07
5.82397e-07
4.42094e-07
2.50232e-07
1.20812e-07
8.35573e-08
3.3489e-06
5.08746e-08
3.8944e-07
4.63082e-07
4.56126e-07
4.54201e-07
4.64545e-07
4.82949e-07
5.05435e-07
5.09618e-07
6.42526e-06
4.65274e-07
7.1707e-08
1.73703e-07
2.41631e-07
2.4198e-07
2.31795e-07
2.24896e-07
2.1853e-07
3.45347e-06
4.94196e-07
1.23465e-07
7.23504e-08
1.11726e-07
1.23892e-07
1.1828e-07
1.12393e-07
1.07927e-07
1.03563e-07
8.97297e-06
2.4506e-07
1.61344e-08
6.30121e-08
6.2396e-08
5.94918e-08
5.6353e-08
5.39768e-08
5.15127e-08
3.4378e-07
1.97584e-05
7.38549e-08
2.29731e-08
3.38308e-08
2.99549e-08
2.86202e-08
2.75164e-08
1.20513e-06
1.43024e-05
2.34773e-06
3.98416e-05
3.43838e-08
1.51272e-08
1.6268e-08
1.49219e-08
1.44655e-08
1.41005e-08
1.32106e-08
1.27999e-08
2.37677e-07
2.5398e-05
1.5477e-08
8.99418e-09
8.04959e-09
8.296e-09
7.72103e-09
7.57729e-09
1.64383e-05
2.02984e-05
1.97841e-06
6.09589e-05
9.77504e-09
6.17907e-09
5.43235e-09
5.35768e-09
4.96565e-09
4.77898e-09
4.76031e-09
4.46162e-09
2.0628e-06
4.15239e-05
4.16268e-09
4.82564e-09
3.45667e-09
3.43956e-09
3.30266e-09
3.33688e-09
2.82352e-09
1.01726e-05
8.11703e-06
7.42153e-05
7.65361e-05
1.77628e-05
1.43019e-05
9.63437e-06
6.5956e-06
4.84426e-06
3.87331e-06
3.35116e-06
3.07027e-06
2.94088e-06
3.25995e-06
4.2594e-07
5.79135e-07
5.82094e-07
5.19861e-07
4.70491e-07
4.40854e-07
4.21311e-07
3.9344e-07
3.21777e-07
4.39455e-06
1.59208e-07
1.47182e-08
1.0633e-07
1.71197e-07
1.89733e-07
1.88969e-07
1.85858e-07
4.51606e-07
2.30261e-06
1.03999e-07
2.60209e-07
6.49529e-08
6.9598e-08
9.00241e-08
9.31261e-08
9.00081e-08
8.61743e-08
8.21495e-08
1.11817e-07
2.85846e-07
1.25447e-09
4.57881e-08
4.7888e-08
4.75335e-08
4.61972e-08
4.3961e-08
4.19429e-08
1.47536e-07
8.35665e-06
7.52604e-08
1.20504e-08
2.82051e-08
2.46735e-08
2.36713e-08
2.30031e-08
8.85843e-06
1.16126e-05
1.99357e-06
2.2427e-05
2.99468e-08
1.19417e-08
1.40416e-08
1.20053e-08
1.2175e-08
1.12842e-08
1.11569e-08
1.14114e-08
1.016e-08
8.1456e-06
2.92873e-06
7.36864e-09
7.48318e-09
6.79595e-09
6.73868e-09
1.56788e-05
2.40918e-05
1.82078e-05
1.09438e-06
3.94346e-05
8.53161e-09
5.08481e-09
4.65096e-09
4.14768e-09
4.32122e-09
3.8353e-09
3.85266e-09
4.09562e-09
3.13089e-07
1.71007e-05
3.43379e-09
3.97703e-09
2.76801e-09
2.7521e-09
2.78392e-09
2.46576e-09
1.95484e-06
8.20361e-06
5.47726e-06
4.61005e-05
0.000305604
4.92981e-06
5.99827e-06
6.62441e-06
6.97658e-06
7.04246e-06
6.80395e-06
6.29078e-06
5.55292e-06
4.61367e-06
6.81082e-06
8.52963e-07
6.87832e-07
5.60678e-07
4.08791e-07
2.86273e-07
2.14311e-07
1.87581e-07
1.72008e-07
1.19083e-07
5.84862e-05
7.34652e-06
9.38467e-06
6.99306e-06
5.72942e-06
4.79368e-06
3.61612e-06
1.38215e-06
1.87726e-06
4.0631e-06
6.51996e-07
4.39729e-07
1.13518e-07
5.06958e-08
5.91402e-08
6.71409e-08
6.64163e-08
6.42423e-08
6.16543e-08
5.05048e-08
3.22353e-07
6.69297e-09
3.58226e-08
3.41493e-08
3.48338e-08
3.53662e-08
3.35916e-08
3.27043e-08
8.20142e-08
3.6493e-06
9.77826e-06
6.65494e-11
2.24271e-08
1.92771e-08
1.7924e-08
7.34055e-06
1.18205e-05
9.43331e-06
1.65176e-06
1.29317e-05
2.5289e-08
8.14367e-09
1.12197e-08
9.91832e-09
9.28734e-09
9.32677e-09
8.91269e-09
7.96621e-09
8.45917e-09
7.67578e-09
5.04726e-05
4.55497e-05
4.09974e-05
3.63909e-05
3.45646e-05
3.20894e-05
2.72245e-05
1.61181e-05
6.28315e-07
2.64651e-05
6.48825e-09
4.16236e-09
3.61383e-09
3.62997e-09
3.48477e-09
3.3073e-09
2.96851e-09
3.01691e-09
3.01691e-09
2.09168e-06
3.19645e-09
3.49015e-09
2.46972e-09
2.42536e-09
2.18874e-09
2.14437e-09
5.01574e-06
6.16003e-06
3.64342e-06
2.80352e-05
0.000171301
3.1263e-05
3.23888e-05
3.11211e-05
2.88866e-05
2.57576e-05
2.19956e-05
1.78901e-05
1.35918e-05
9.04253e-06
2.46248e-06
1.17437e-06
5.6146e-07
7.24871e-08
1.72381e-07
2.51385e-07
2.65016e-07
2.95723e-07
4.09372e-07
6.27895e-07
0.000196632
0.00012863
6.9847e-05
3.96629e-05
2.22231e-05
1.23992e-05
6.27113e-06
1.33208e-06
4.04606e-06
7.2624e-06
1.68794e-06
5.53748e-07
1.88391e-07
6.1468e-08
4.21931e-08
4.54376e-08
4.95758e-08
4.89571e-08
4.71699e-08
4.03829e-08
3.49625e-07
1.07707e-08
3.30427e-08
2.63493e-08
2.42753e-08
2.4346e-08
2.46995e-08
1.53736e-07
9.83974e-08
2.19659e-06
3.93126e-05
2.99166e-05
1.96078e-05
1.56728e-05
1.49393e-05
1.41643e-05
1.21452e-05
7.68334e-06
1.36501e-06
7.79365e-06
2.31455e-08
3.11625e-09
9.49539e-09
7.51565e-09
7.424e-09
6.72743e-09
6.83741e-09
6.78242e-09
6.21416e-09
5.68178e-09
0.000219731
4.30507e-05
7.95232e-05
6.97029e-05
5.41785e-05
4.0208e-05
2.80348e-05
1.44376e-05
4.3079e-07
1.90069e-05
5.70553e-09
3.23956e-09
2.78962e-09
2.72963e-09
2.29469e-09
2.50466e-09
2.65464e-09
2.15971e-09
2.32469e-09
2.72667e-09
2.32242e-09
2.40593e-09
1.78726e-09
1.75976e-09
1.81476e-09
1.55354e-09
5.14223e-06
4.1169e-06
2.32352e-06
1.62874e-05
0.000679752
9.05801e-05
9.55216e-05
8.54922e-05
7.09625e-05
5.57833e-05
4.16564e-05
2.90298e-05
1.75733e-05
6.54019e-06
2.6939e-05
3.0341e-06
2.02236e-06
1.60865e-06
1.43141e-06
1.21507e-06
8.49569e-07
2.69738e-07
6.24232e-07
1.89989e-06
0.000333845
0.00024192
0.000117254
6.0818e-05
3.03906e-05
1.45755e-05
5.75289e-06
4.01796e-07
7.13239e-06
1.15135e-05
2.56913e-06
4.93798e-07
2.30079e-07
9.07562e-08
4.2151e-08
3.26421e-08
3.27827e-08
3.47126e-08
3.60034e-08
2.67316e-08
1.86523e-05
2.98413e-08
3.00823e-08
2.05602e-07
1.57359e-06
2.37363e-06
2.40189e-06
1.5448e-06
1.17919e-07
1.97461e-06
3.96863e-05
4.47927e-05
3.50208e-05
2.61239e-05
1.97847e-05
1.49065e-05
1.06306e-05
5.99953e-06
1.07937e-06
4.83691e-06
2.3796e-08
1.60186e-09
6.20293e-09
6.42446e-09
5.01006e-09
4.94189e-09
4.75444e-09
4.6522e-09
4.43066e-09
4.08973e-09
0.000487675
1.74163e-05
8.31491e-05
8.21681e-05
6.26079e-05
4.34544e-05
2.76968e-05
1.31787e-05
4.46197e-07
1.4992e-05
4.77231e-09
2.189e-09
1.9938e-09
2.31448e-09
1.8962e-09
1.96591e-09
1.95197e-09
2.17505e-09
2.06351e-09
1.54211e-09
1.34468e-09
2.09605e-09
1.53369e-09
1.18861e-09
1.57203e-09
3.6144e-08
2.80299e-06
1.97657e-06
1.24262e-06
8.00923e-06
0.00235955
0.000225862
0.000204881
0.000152224
0.00010667
7.17792e-05
4.55422e-05
2.51741e-05
8.02324e-06
8.19362e-06
3.1756e-05
8.97667e-06
7.95723e-06
6.85065e-06
5.32689e-06
3.52585e-06
1.51884e-06
7.54484e-07
3.51635e-06
6.78877e-06
0.000482111
0.00036466
0.000158609
7.41603e-05
3.22135e-05
1.23046e-05
2.37096e-06
4.00129e-06
1.15616e-05
1.73068e-05
2.51323e-06
2.20116e-07
1.60613e-07
8.82198e-08
4.65396e-08
2.53788e-08
1.75964e-08
1.39963e-08
1.48162e-08
2.71982e-08
5.92683e-05
3.51633e-05
2.03174e-05
1.30694e-05
8.81859e-06
6.0211e-06
3.87648e-06
1.92799e-06
8.55261e-08
1.81397e-06
2.90722e-05
3.68189e-05
3.0426e-05
2.25907e-05
1.63075e-05
1.14664e-05
7.57934e-06
4.04572e-06
7.23901e-07
2.84652e-06
2.97262e-08
7.5566e-09
3.77038e-09
4.16643e-09
4.00801e-09
3.88127e-09
3.39017e-09
3.07333e-09
2.86739e-09
2.51665e-09
0.000835921
0.00012095
6.01284e-05
7.8087e-05
6.1628e-05
4.20807e-05
2.56876e-05
1.16631e-05
7.01281e-07
1.26878e-05
2.99263e-09
1.4517e-09
2.09978e-09
9.98042e-10
1.63316e-09
1.06285e-09
1.41281e-09
9.33234e-10
1.29616e-09
1.10844e-09
1.54972e-09
6.89124e-10
1.23567e-09
9.62397e-10
7.01006e-10
8.91109e-10
7.72294e-10
2.23181e-07
3.89759e-07
2.3418e-06
0.00598233
0.00013053
0.000108461
7.3258e-05
4.56278e-05
2.57075e-05
1.09643e-05
1.03292e-06
1.2335e-05
2.44028e-05
3.92096e-05
2.8898e-05
2.11309e-05
1.43313e-05
8.77554e-06
4.23357e-06
2.75859e-07
3.57446e-06
7.83109e-06
1.23631e-05
0.000553195
0.000458472
0.000177212
7.38117e-05
2.68636e-05
6.90474e-06
1.59151e-06
6.36807e-06
1.27058e-05
1.88796e-05
1.14631e-06
9.39523e-08
7.54402e-09
1.39062e-08
1.046e-08
1.4359e-09
9.27815e-09
2.00032e-08
3.29485e-08
5.89724e-08
5.10745e-05
3.39833e-05
1.91629e-05
1.18741e-05
7.56216e-06
4.80998e-06
2.87407e-06
1.33895e-06
1.14935e-08
1.25477e-06
1.64538e-05
1.96757e-05
1.66879e-05
1.24117e-05
8.81396e-06
6.0167e-06
3.82361e-06
1.96617e-06
3.14678e-07
1.36604e-06
4.01794e-08
1.11043e-08
1.56109e-09
1.94399e-09
1.79672e-09
1.91454e-09
1.87036e-09
1.89981e-09
1.64945e-09
1.30058e-09
0.00106995
0.000217712
1.83956e-05
5.55585e-05
4.76112e-05
3.27665e-05
1.95167e-05
8.4227e-06
1.20196e-06
1.0098e-05
1.73987e-09
6.50675e-10
3.73536e-10
8.79617e-10
7.59121e-10
8.79617e-10
7.35022e-10
5.78378e-10
6.38626e-10
1.01692e-09
1.23055e-06
7.91404e-07
3.75544e-10
6.07498e-10
3.09272e-10
4.71242e-07
7.29351e-07
2.91986e-07
4.0445e-07
1.4303e-06
0.00390328
0.000709023
0.000503385
0.000342853
0.000237157
0.00016043
0.000100843
5.33394e-05
4.21247e-06
3.69982e-05
7.09631e-06
1.51735e-05
9.23678e-06
4.50786e-06
1.17723e-06
1.29911e-06
3.41475e-06
5.53801e-06
7.90915e-06
9.88852e-06
0.000291775
0.000371314
0.000123746
4.50021e-05
1.21091e-05
4.64238e-07
5.13456e-06
7.63945e-06
1.14852e-05
1.60341e-05
7.41121e-07
1.03154e-07
2.60196e-08
1.29687e-08
3.20163e-08
4.36091e-08
5.23268e-08
5.96069e-08
6.64558e-08
7.42725e-08
2.12554e-05
1.51034e-05
8.23716e-06
4.9296e-06
3.01804e-06
1.8368e-06
1.04419e-06
4.52229e-07
4.6559e-08
5.29809e-07
6.27493e-06
5.66224e-06
4.79215e-06
3.54383e-06
2.47928e-06
1.64674e-06
1.00462e-06
4.81846e-07
2.93106e-08
4.27699e-07
4.46303e-08
5.33947e-09
7.53002e-10
4.51801e-10
6.98238e-10
7.11929e-10
9.03602e-10
8.07766e-10
1.34171e-09
5.23742e-10
0.000716111
0.0001804
1.03101e-05
2.18053e-05
2.14623e-05
1.49696e-05
8.56826e-06
3.17639e-06
1.51894e-06
5.75101e-06
2.74479e-09
6.72101e-11
9.63345e-10
2.80042e-10
6.72101e-11
4.03261e-10
2.91244e-10
4.59269e-10
4.14462e-10
4.9248e-11
8.96988e-05
0.000127658
8.38976e-05
4.90307e-05
2.73811e-05
1.47539e-05
7.17499e-06
1.97214e-06
2.47466e-06
7.0778e-06
0.0029673
0.000665823
0.000495782
0.000373077
0.000279773
0.000206957
0.000148915
0.000101897
6.26423e-05
3.11425e-05
7.70928e-06
1.27386e-05
9.0376e-06
6.25648e-06
4.46337e-06
3.38878e-06
2.78311e-06
2.44439e-06
2.15939e-06
1.39604e-06
9.66022e-05
8.33819e-05
1.94351e-05
5.22939e-06
4.6289e-08
1.54747e-06
1.80974e-06
1.88039e-06
2.355e-06
3.58678e-06
3.12884e-07
4.63634e-08
2.25087e-08
1.17507e-08
7.06381e-09
3.60827e-09
8.30475e-10
6.2047e-10
1.6514e-09
1.12639e-09
1.86074e-06
1.734e-06
8.95915e-07
5.11916e-07
2.93964e-07
1.64606e-07
8.13456e-08
2.20751e-08
2.93898e-08
8.73676e-08
8.13809e-07
4.11801e-07
3.34094e-07
2.37373e-07
1.56587e-07
9.39582e-08
4.71796e-08
1.07819e-08
2.16783e-08
6.00376e-08
1.46291e-08
1.31094e-09
2.41824e-10
5.72741e-10
8.90931e-11
8.01838e-10
2.92734e-10
2.03641e-10
2.03641e-10
3.43645e-10
5.38995e-05
2.91781e-05
3.37112e-06
1.79377e-06
2.08092e-06
1.32088e-06
5.02695e-07
1.94492e-07
8.16512e-07
1.37435e-06
8.0869e-10
4.16539e-11
6.24809e-11
1.04135e-10
4.4778e-10
1.35375e-10
4.16539e-10
3.01991e-10
3.43645e-10
2.0827e-11
0.000259573
0.000155072
8.99501e-05
4.9244e-05
2.55547e-05
1.20135e-05
3.98428e-06
1.31443e-06
5.68786e-06
1.00019e-05
0.528408
0.420603
0.531996
0.922477
0.687426
0.62491
0.740346
1.11728
0.849571
0.791479
0.937843
1.44128
0.615592
0.592288
0.701782
1.09837
0.448638
0.447418
0.53142
0.860589
0.296044
0.292833
0.363398
0.618633
0.196028
0.187377
0.250462
0.450224
0.125582
0.116035
0.166422
0.310191
0.0860858
0.0788203
0.119113
0.225448
0.064514
0.0596898
0.0963987
0.182509
0.0359503
0.00180574
1.05313e-05
0.0190612
0.078593
0.00653011
7.81594e-06
0.0409798
0.136544
0.0151968
4.18671e-06
0.0703974
0.12471
0.0169891
2.14192e-06
0.0602878
0.109789
0.0169229
1.10025e-06
0.048761
0.0846281
0.0141322
5.62933e-07
0.0373463
0.0635474
0.0109295
2.99636e-07
0.0302169
0.0454666
0.00817999
1.73978e-07
0.022819
0.0347177
0.00695862
0.00101546
0.018011
0.0291057
0.00799223
0.00370966
0.0150663
0.0171475
0.0134758
0.0141521
0.0197096
0.0387209
0.0266683
0.0261801
0.0408154
0.0748632
0.0486434
0.0492183
0.0796138
0.0708588
0.0429719
0.0445944
0.0748587
0.0647749
0.0369028
0.039418
0.0697231
0.0515411
0.0278286
0.0304741
0.0563541
0.0398638
0.0204077
0.022985
0.0447707
0.0293093
0.014269
0.0164099
0.0331649
0.0228307
0.0101928
0.0121085
0.0254368
0.0194254
0.00825218
0.0102757
0.0209674
0.00193205
0.00139339
0.00134214
0.001954
0.0060895
0.00417131
0.00386138
0.00631198
0.016207
0.0109928
0.0104648
0.0165772
0.0189795
0.012519
0.0123644
0.0189293
0.0206025
0.0131084
0.0135489
0.020658
0.0187811
0.0115414
0.012364
0.0189282
0.0161995
0.00955864
0.0105801
0.0165867
0.0131137
0.00746822
0.00846925
0.0134768
0.0108925
0.00569807
0.00676682
0.0110191
0.00963526
0.00493972
0.00631474
0.0098366
0.000616543
0.000572179
0.000602147
0.000819653
0.00226245
0.00209964
0.00236149
0.00340314
0.0060772
0.00573066
0.00639286
0.00888036
0.00726294
0.00652579
0.0070387
0.0095771
0.00833012
0.00709927
0.00760106
0.0103123
0.00806164
0.00650876
0.00699488
0.00946137
0.00735587
0.00561803
0.00611922
0.00834216
0.00635989
0.00461361
0.00509838
0.00695917
0.0056905
0.0037891
0.00437212
0.00594109
0.00542805
0.00359581
0.00445496
0.00570222
0.000118014
0.000106898
0.000106836
0.000166043
0.000764516
0.000719808
0.000844039
0.00123232
0.00244689
0.00248245
0.00298046
0.00410244
0.00300514
0.00304143
0.00353206
0.00470555
0.00356172
0.00353223
0.0040214
0.00529465
0.00358137
0.0034231
0.00384445
0.00500927
0.00338062
0.0030967
0.00346149
0.00448462
0.00309578
0.00269465
0.00300566
0.00385339
0.00298542
0.00239203
0.00274501
0.00341727
0.00295057
0.00232685
0.00283261
0.00330509
1.52658e-05
1.17602e-05
7.17983e-06
2.58975e-05
0.000270467
0.000250879
0.000300408
0.000459022
0.00116968
0.00119485
0.00147732
0.00206489
0.00148451
0.00156492
0.00189027
0.00252111
0.00178808
0.00190408
0.00226682
0.00296707
0.00182683
0.00191811
0.00224751
0.00290134
0.00172799
0.0017782
0.002062
0.00262887
0.00164205
0.00161979
0.00185206
0.00232811
0.00166198
0.00152865
0.00176189
0.00211055
0.00165582
0.0015016
0.00179665
0.00202325
8.72954e-06
3.13498e-06
3.03149e-06
3.10677e-06
7.55502e-05
6.32144e-05
7.55015e-05
0.0001293
0.000534763
0.000527824
0.000658512
0.000945698
0.000751727
0.000792531
0.000969432
0.00130121
0.000949388
0.00103064
0.00125057
0.0016419
0.00101285
0.00110091
0.0013194
0.00170582
0.000961248
0.00104551
0.00124226
0.00157666
0.000945815
0.00099866
0.00116507
0.00145649
0.000945508
0.000951979
0.00109971
0.00129677
0.000957412
0.000962716
0.00113677
0.00126744
7.05053e-06
2.53362e-06
2.48779e-06
2.57083e-06
1.26175e-05
6.36646e-06
6.22407e-06
2.03171e-05
0.000232265
0.000209723
0.000261526
0.000400417
0.000375421
0.000389617
0.000478179
0.000647892
0.000501079
0.000546092
0.000668047
0.000881342
0.000573833
0.000631804
0.000764508
0.000992304
0.00054946
0.000614593
0.000738668
0.000934941
0.000568025
0.000621599
0.000732943
0.000915523
0.00054066
0.000577129
0.000666131
0.000782345
0.000570638
0.000615688
0.000719209
0.000801198
5.00174e-06
1.57333e-06
1.53661e-06
1.62036e-06
1.58116e-06
6.60434e-07
6.47909e-07
7.15452e-07
8.76736e-05
6.04917e-05
7.36133e-05
0.000138232
0.000181055
0.000181471
0.000222159
0.000305306
0.000255287
0.000275897
0.000338979
0.000450945
0.000319943
0.000352514
0.00042856
0.000560141
0.00030533
0.000347406
0.000419863
0.000529667
0.00034079
0.000379681
0.000450145
0.000564003
0.00031055
0.000343347
0.000395908
0.000465375
0.000346174
0.000389866
0.00045177
0.000504016
6.82482e-06
2.29708e-06
2.18178e-06
2.23095e-06
1.3544e-06
4.56672e-07
4.42015e-07
4.90812e-07
2.23831e-05
2.09939e-07
2.02259e-07
2.1808e-05
8.31559e-05
7.84519e-05
9.50365e-05
0.000133228
0.000124962
0.000132206
0.000162879
0.000219863
0.00017642
0.00019258
0.000234826
0.000310534
0.000162715
0.000187362
0.000227283
0.00028518
0.000203707
0.000228016
0.000271397
0.000342644
0.000176304
0.000198606
0.00022887
0.000269431
0.000210751
0.000242976
0.000280374
0.00031298
2.18942e-06
5.0543e-07
3.40491e-07
2.20201e-07
1.07987e-06
3.69768e-07
3.68454e-07
4.18143e-07
3.91625e-07
1.42603e-07
1.36298e-07
1.54822e-07
3.48591e-05
2.95087e-05
3.47222e-05
4.98141e-05
5.74281e-05
5.83817e-05
7.20217e-05
9.97062e-05
9.62553e-05
0.000103164
0.000126029
0.000169615
8.12348e-05
9.47686e-05
0.00011531
0.000142972
0.000121888
0.000135539
0.000161916
0.00020717
9.55721e-05
0.000108606
0.000125041
0.000147144
0.000127136
0.000148209
0.000171039
0.000190543
1.05023e-05
2.29225e-06
1.64873e-06
1.0895e-06
1.07426e-06
4.10598e-07
4.40904e-07
5.27429e-07
3.0374e-07
1.08912e-07