/*--------------------------------*- C++ -*----------------------------------*\
| =========                 |                                                 |
| \\      /  F ield         | foam-extend: Open Source CFD                    |
|  \\    /   O peration     | Version:     4.0                                |
|   \\  /    A nd           | Web:         http://www.foam-extend.org         |
|    \\/     M anipulation  |                                                 |
\*---------------------------------------------------------------------------*/
FoamFile
{
    version     2.0;
    format      ascii;
    class       volScalarField;
    location    "4350";
    object      divFlux;
}
// * * * * * * * * * * * * * * * * * * * * * * * * * * * * * * * * * * * * * //

dimensions      [1 -3 -1 0 0 0 0];

internalField   nonuniform List<scalar> 
34480
(
2.83907e-05
1.0551e-05
1.06644e-05
9.84859e-06
9.14015e-06
8.58222e-06
8.15354e-06
0.000300437
0.00018392
7.27905e-06
8.44027e-06
4.54665e-06
4.40467e-06
4.08846e-06
3.86211e-06
3.76096e-06
3.75415e-06
3.75993e-06
0.00346263
3.6317e-06
2.34484e-06
1.4922e-06
1.44546e-06
1.37408e-06
1.35479e-06
1.4017e-06
1.47763e-06
1.53014e-06
0.00334072
1.50892e-06
8.39238e-07
5.72512e-07
5.5491e-07
5.33069e-07
5.33986e-07
5.6289e-07
5.98057e-07
6.19744e-07
0.000801348
6.12413e-07
3.36044e-07
2.37802e-07
2.31322e-07
2.22158e-07
2.2314e-07
2.35446e-07
2.48799e-07
2.58094e-07
2.60974e-07
2.55279e-07
1.42827e-07
1.04869e-07
1.01833e-07
9.70224e-08
9.75379e-08
1.04353e-07
1.0905e-07
1.11284e-07
1.1409e-07
1.11455e-07
6.52416e-08
4.84666e-08
4.6583e-08
4.48011e-08
4.5972e-08
4.67357e-08
4.9943e-08
5.10122e-08
5.14194e-08
5.04522e-08
3.32763e-08
2.43301e-08
2.42842e-08
2.24973e-08
2.20849e-08
2.3322e-08
2.43759e-08
2.47882e-08
2.56588e-08
2.55214e-08
2.09936e-08
1.53286e-08
1.47871e-08
1.35792e-08
1.35375e-08
1.30793e-08
1.33709e-08
1.33293e-08
1.35792e-08
1.38708e-08
1.36647e-08
1.17221e-08
1.02712e-08
9.88933e-09
9.16386e-09
8.82022e-09
8.93477e-09
8.51476e-09
8.66749e-09
9.58387e-09
3.89816e-05
1.35139e-05
1.35575e-05
1.27124e-05
1.19494e-05
1.13728e-05
1.09903e-05
1.07926e-05
1.07734e-05
0.00106274
1.27924e-05
6.63187e-06
6.42688e-06
6.03846e-06
5.76708e-06
5.65047e-06
5.65771e-06
5.76388e-06
5.95482e-06
0.0034547
3.83908e-06
2.47657e-06
2.39236e-06
2.30159e-06
2.29465e-06
2.37801e-06
2.50226e-06
2.64325e-06
2.79067e-06
0.00431025
1.51255e-06
1.0772e-06
1.04468e-06
1.01323e-06
1.02434e-06
1.07762e-06
1.14198e-06
1.21162e-06
1.28364e-06
0.00149771
6.42704e-07
4.94287e-07
4.86681e-07
4.69704e-07
4.7658e-07
5.02989e-07
5.31467e-07
5.63961e-07
5.9822e-07
6.13562e-07
2.74783e-07
2.35179e-07
2.38533e-07
2.27512e-07
2.30068e-07
2.43592e-07
2.55997e-07
2.7213e-07
2.86879e-07
2.92543e-07
1.055e-07
1.12593e-07
1.18793e-07
1.18083e-07
1.10984e-07
1.23148e-07
1.2717e-07
1.35122e-07
1.43925e-07
1.45865e-07
1.46568e-08
5.40108e-08
7.21138e-08
6.12946e-08
6.13798e-08
6.71727e-08
6.75987e-08
7.32212e-08
7.74808e-08
7.85776e-08
6.87962e-08
2.17236e-08
4.78228e-08
4.68161e-08
3.95749e-08
4.31761e-08
4.3602e-08
4.5422e-08
4.91394e-08
4.97638e-08
1.07268e-07
3.24434e-08
3.06331e-08
3.73773e-08
3.20174e-08
3.34018e-08
3.33663e-08
3.5709e-08
3.75903e-08
3.99242e-08
3.64114e-05
1.02601e-05
1.05926e-05
9.9856e-06
9.41325e-06
9.00578e-06
8.78268e-06
8.75424e-06
3.33685e-05
0.000871386
1.12372e-05
4.77582e-06
4.72202e-06
4.42736e-06
4.18561e-06
4.02608e-06
3.97441e-06
4.06469e-06
8.00848e-05
0.00135196
3.19494e-06
1.72291e-06
1.67349e-06
1.58325e-06
1.51886e-06
1.49253e-06
1.51827e-06
1.61497e-06
0.000119854
0.00127367
1.1755e-06
6.94979e-07
6.74256e-07
6.40795e-07
6.17697e-07
6.08721e-07
6.22712e-07
6.68811e-07
7.49888e-07
9.38494e-07
4.75766e-07
2.96137e-07
2.87934e-07
2.7334e-07
2.62478e-07
2.58349e-07
2.64232e-07
2.85332e-07
3.22781e-07
4.11926e-07
2.02737e-07
1.32604e-07
1.29288e-07
1.20923e-07
1.16121e-07
1.14735e-07
1.16072e-07
1.25922e-07
1.45127e-07
1.87212e-07
9.13931e-08
6.23889e-08
6.0277e-08
5.62292e-08
5.38973e-08
5.29734e-08
5.39413e-08
5.82531e-08
6.74047e-08
8.90406e-08
4.19937e-08
3.15596e-08
3.27476e-08
2.79562e-08
2.72435e-08
2.64119e-08
2.7481e-08
2.91442e-08
3.45691e-08
4.62258e-08
3.37607e-08
1.90791e-08
2.0483e-08
1.78551e-08
1.64152e-08
1.65592e-08
1.62712e-08
1.81071e-08
2.0339e-08
2.82879e-08
2.43734e-08
1.45523e-08
1.12854e-08
1.23414e-08
1.09225e-08
1.09555e-08
1.09885e-08
1.14834e-08
1.38923e-08
2.0692e-08
3.59423e-05
9.27917e-06
9.65873e-06
9.13585e-06
8.63318e-06
8.282e-06
8.09683e-06
8.09355e-06
1.80903e-05
0.000371612
1.11821e-05
4.46177e-06
4.43701e-06
4.16575e-06
3.93499e-06
3.77132e-06
3.69295e-06
3.71996e-06
3.39649e-05
0.00114309
3.24881e-06
1.68009e-06
1.63551e-06
1.53895e-06
1.46338e-06
1.41295e-06
1.40426e-06
1.45219e-06
0.000121383
0.00228925
1.2114e-06
6.92705e-07
6.69115e-07
6.33714e-07
6.03191e-07
5.83436e-07
5.81932e-07
6.07823e-07
0.000112954
0.00210546
4.93509e-07
2.98491e-07
2.88499e-07
2.73038e-07
2.60049e-07
2.51109e-07
2.50793e-07
2.62573e-07
4.50624e-05
0.00156989
2.13799e-07
1.32844e-07
1.30222e-07
1.23595e-07
1.17107e-07
1.1246e-07
1.12184e-07
1.18442e-07
1.07189e-05
0.000987009
9.92319e-08
6.14756e-08
6.13529e-08
5.714e-08
5.46041e-08
5.26408e-08
5.17001e-08
5.52176e-08
6.34798e-08
0.00041489
4.98178e-08
3.01488e-08
3.28729e-08
2.88972e-08
2.80137e-08
2.72039e-08
2.66517e-08
2.86027e-08
3.30569e-08
0.000156089
3.54334e-08
1.80378e-08
1.98114e-08
1.82051e-08
1.74019e-08
1.71007e-08
1.72011e-08
1.74688e-08
2.04807e-08
2.69792e-08
2.0395e-08
1.61972e-08
1.10435e-08
1.28534e-08
1.09515e-08
1.1565e-08
1.20252e-08
1.23013e-08
1.34976e-08
1.9307e-08
3.50147e-05
8.26244e-06
8.67666e-06
8.23369e-06
7.79503e-06
7.48387e-06
7.31847e-06
7.30107e-06
2.24017e-05
0.000141294
1.09236e-05
4.08742e-06
4.08878e-06
3.84705e-06
3.63903e-06
3.49166e-06
3.40816e-06
3.39614e-06
4.54081e-06
0.000578294
3.24408e-06
1.59397e-06
1.55988e-06
1.46916e-06
1.39401e-06
1.33919e-06
1.31226e-06
1.32013e-06
7.61285e-05
0.0013343
1.22223e-06
6.73536e-07
6.51663e-07
6.15816e-07
5.85587e-07
5.62544e-07
5.50938e-07
5.5704e-07
7.87225e-05
0.00142016
4.99696e-07
2.94745e-07
2.8311e-07
2.68834e-07
2.55879e-07
2.45613e-07
2.40186e-07
2.44244e-07
5.29199e-05
0.00127951
2.18786e-07
1.32394e-07
1.28545e-07
1.21016e-07
1.1584e-07
1.10835e-07
1.08696e-07
1.10664e-07
4.01115e-05
0.00101551
1.02568e-07
6.15987e-08
6.06861e-08
5.7302e-08
5.45643e-08
5.19787e-08
5.16745e-08
5.2549e-08
5.84731e-06
0.000666459
5.45015e-08
2.86434e-08
3.23735e-08
2.8575e-08
2.74456e-08
2.63506e-08
2.62479e-08
2.73772e-08
8.61773e-06
0.000499111
3.63944e-08
1.82307e-08
2.03462e-08
1.80752e-08
1.73285e-08
1.65197e-08
1.66752e-08
1.77019e-08
1.93818e-08
0.000305719
1.77208e-08
1.69682e-08
1.12075e-08
1.24338e-08
1.13501e-08
1.1122e-08
1.09794e-08
1.17779e-08
1.35745e-08
0.000402824
3.3604e-05
7.21843e-06
7.65428e-06
7.29099e-06
6.91101e-06
6.63765e-06
6.48341e-06
6.45202e-06
6.53945e-06
2.27552e-05
1.04684e-05
3.67522e-06
3.69888e-06
3.48561e-06
3.30173e-06
3.16958e-06
3.09184e-06
3.06539e-06
1.64569e-05
0.000222077
3.19178e-06
1.47891e-06
1.45668e-06
1.37291e-06
1.30365e-06
1.25151e-06
1.21833e-06
1.20659e-06
3.47131e-05
0.000718119
1.20407e-06
6.37887e-07
6.20231e-07
5.86562e-07
5.58062e-07
5.35209e-07
5.20708e-07
5.1583e-07
4.14393e-05
0.000847764
4.95053e-07
2.84776e-07
2.7296e-07
2.5928e-07
2.46509e-07
2.36829e-07
2.30557e-07
2.29148e-07
3.68357e-05
0.000863256
2.17494e-07
1.29521e-07
1.24828e-07
1.18744e-07
1.12182e-07
1.08444e-07
1.05581e-07
1.04547e-07
3.51909e-05
0.00077949
1.02386e-07
6.05164e-08
5.9668e-08
5.63453e-08
5.31286e-08
5.14672e-08
4.96998e-08
4.97705e-08
1.9329e-05
0.000594052
5.6512e-08
2.8314e-08
3.15272e-08
2.8664e-08
2.76141e-08
2.67234e-08
2.60553e-08
2.64052e-08
2.61562e-05
0.000524164
3.67182e-08
1.78734e-08
1.92906e-08
1.82783e-08
1.72371e-08
1.68901e-08
1.62249e-08
1.7295e-08
9.5512e-06
0.000446925
1.57195e-08
1.67286e-08
1.04985e-08
1.21422e-08
1.12143e-08
1.10552e-08
1.16119e-08
1.12938e-08
2.60772e-05
0.000523533
3.18433e-05
6.18311e-06
6.62699e-06
6.3405e-06
6.01676e-06
5.77629e-06
5.63184e-06
5.59048e-06
5.64194e-06
3.47469e-06
9.8297e-06
3.24404e-06
3.28064e-06
3.09864e-06
2.93676e-06
2.81957e-06
2.74589e-06
2.71653e-06
1.12241e-05
7.0646e-05
3.0672e-06
1.34208e-06
1.32996e-06
1.25528e-06
1.19223e-06
1.14458e-06
1.11237e-06
1.0941e-06
1.31919e-05
0.000377854
1.17061e-06
5.90686e-07
5.77525e-07
5.46447e-07
5.19928e-07
4.99299e-07
4.84118e-07
4.75048e-07
1.63293e-05
0.000490222
4.7891e-07
2.68625e-07
2.58527e-07
2.45177e-07
2.336e-07
2.24094e-07
2.17249e-07
2.13405e-07
1.75069e-05
0.000542645
2.11418e-07
1.24178e-07
1.19187e-07
1.13235e-07
1.08244e-07
1.03438e-07
1.00333e-07
9.9224e-08
2.01942e-05
0.000536485
9.93262e-08
5.89528e-08
5.68825e-08
5.37936e-08
5.1559e-08
4.93902e-08
4.778e-08
4.778e-08
1.59357e-05
0.000441566
5.674e-08
2.77413e-08
3.05509e-08
2.783e-08
2.66175e-08
2.59077e-08
2.51683e-08
2.50204e-08
2.56694e-05
0.00043314
3.65759e-08
1.80676e-08
1.80138e-08
1.73417e-08
1.60511e-08
1.62662e-08
1.59436e-08
1.62125e-08
1.94556e-05
0.000409111
1.49875e-08
1.60198e-08
1.15589e-08
1.19532e-08
1.1066e-08
1.08442e-08
1.02034e-08
1.09674e-08
3.31596e-05
0.000468972
2.9812e-05
5.17672e-06
5.62425e-06
5.41447e-06
5.14434e-06
4.935e-06
4.80686e-06
4.7578e-06
4.79029e-06
5.09319e-06
9.0433e-06
2.80349e-06
2.85339e-06
2.69898e-06
2.56044e-06
2.45689e-06
2.3897e-06
2.3597e-06
3.56497e-06
1.407e-05
2.88013e-06
1.19093e-06
1.18669e-06
1.12181e-06
1.06608e-06
1.02332e-06
9.92614e-07
9.74688e-07
4.60686e-06
0.000180549
1.1163e-06
5.34299e-07
5.25776e-07
4.97709e-07
4.7411e-07
4.55185e-07
4.40682e-07
4.30967e-07
5.17731e-06
0.00026686
4.58279e-07
2.46974e-07
2.38412e-07
2.26746e-07
2.16102e-07
2.0754e-07
2.00824e-07
1.96425e-07
5.76263e-06
0.000321719
2.0184e-07
1.16746e-07
1.11316e-07
1.06092e-07
1.01178e-07
9.69161e-08
9.42355e-08
9.21734e-08
7.99592e-06
0.000350032
9.38589e-08
5.62404e-08
5.37965e-08
5.12304e-08
4.85421e-08
4.6923e-08
4.57316e-08
4.45096e-08
8.85366e-06
0.000302747
5.46674e-08
2.65042e-08
2.81813e-08
2.69166e-08
2.5047e-08
2.40297e-08
2.38098e-08
2.35348e-08
1.91621e-05
0.000325807
3.39533e-08
1.76711e-08
1.70212e-08
1.71212e-08
1.56965e-08
1.48217e-08
1.51217e-08
1.56715e-08
1.82254e-05
0.000312001
1.3073e-08
1.53966e-08
1.00811e-08
1.06539e-08
1.0104e-08
9.55414e-09
1.03561e-08
1.09288e-08
3.05554e-05
0.000366838
2.7596e-05
4.19548e-06
4.64377e-06
4.51578e-06
4.30564e-06
4.12958e-06
4.01556e-06
3.96747e-06
3.98349e-06
4.2106e-06
8.16171e-06
2.37571e-06
2.43015e-06
2.30328e-06
2.18641e-06
2.09718e-06
2.03836e-06
2.00769e-06
1.99717e-06
9.43697e-07
2.6354e-06
1.03132e-06
1.0337e-06
9.79485e-07
9.30258e-07
8.92506e-07
8.65439e-07
8.4765e-07
1.32783e-06
7.95272e-05
1.03558e-06
4.72528e-07
4.66905e-07
4.43241e-07
4.22858e-07
4.04711e-07
3.91995e-07
3.82495e-07
1.47279e-06
0.000135532
4.29965e-07
2.21307e-07
2.15903e-07
2.05132e-07
1.95748e-07
1.8735e-07
1.81544e-07
1.77236e-07
9.71766e-07
0.000176896
1.89893e-07
1.05113e-07
1.0195e-07
9.69977e-08
9.21095e-08
8.91382e-08
8.59752e-08
1.23048e-05
1.43442e-06
0.000214838
8.66794e-08
5.2709e-08
4.96135e-08
4.71996e-08
4.524e-08
4.33373e-08
4.21161e-08
4.13209e-08
3.57214e-06
0.000190142
5.11033e-08
2.55593e-08
2.61728e-08
2.47414e-08
2.39747e-08
2.3029e-08
2.25689e-08
1.01767e-05
1.24231e-05
0.000227356
3.00845e-08
1.83795e-08
1.52659e-08
1.57074e-08
1.43132e-08
1.49406e-08
1.40112e-08
1.43829e-08
1.3644e-05
0.000214274
1.18551e-08
1.45688e-08
9.62735e-09
1.03302e-08
9.52085e-09
9.79775e-09
9.39306e-09
4.82618e-06
2.44324e-05
0.000264551
2.57459e-05
3.31743e-06
3.74837e-06
3.69402e-06
3.54468e-06
3.40378e-06
3.30674e-06
3.25557e-06
3.25411e-06
3.40056e-06
7.19288e-06
1.96773e-06
2.02178e-06
1.92427e-06
1.827e-06
1.75195e-06
1.70107e-06
1.67235e-06
1.66166e-06
1.56088e-06
2.35946e-06
8.71406e-07
8.78891e-07
8.34481e-07
7.93494e-07
7.61013e-07
7.36064e-07
7.19764e-07
1.15454e-07
3.1462e-05
9.38752e-07
4.07202e-07
4.05222e-07
3.84411e-07
3.66313e-07
3.52156e-07
3.39087e-07
3.30573e-07
3.52869e-07
6.41849e-05
3.94938e-07
1.94601e-07
1.90121e-07
1.80888e-07
1.72538e-07
1.65647e-07
1.59401e-07
1.5543e-07
4.42054e-07
9.09921e-05
1.75711e-07
9.38554e-08
9.10635e-08
8.73509e-08
8.28066e-08
7.94801e-08
7.70149e-08
1.76217e-05
1.34837e-06
0.000125583
7.95271e-08
4.75481e-08
4.48816e-08
4.2664e-08
4.09215e-08
3.9311e-08
3.79382e-08
3.71726e-08
8.18535e-07
0.000108978
4.68152e-08
2.32619e-08
2.36421e-08
2.32619e-08
2.12422e-08
2.09571e-08
1.99591e-08
1.90111e-05
7.39885e-06
0.000150145
2.53916e-08
1.81663e-08
1.38029e-08
1.42997e-08
1.36733e-08
1.26365e-08
1.27013e-08
1.27013e-08
8.82969e-06
0.00013642
1.05258e-08
1.37417e-08
9.50435e-09
9.10833e-09
9.00933e-09
8.73212e-09
8.63311e-09
1.01656e-05
1.7934e-05
0.000180362
2.35193e-05
2.48315e-06
2.86168e-06
2.86655e-06
2.78716e-06
2.70479e-06
2.64749e-06
2.62923e-06
2.648e-06
2.78716e-06
6.19044e-06
1.58971e-06
1.63936e-06
1.56428e-06
1.48827e-06
1.42926e-06
1.38685e-06
1.36134e-06
1.34812e-06
1.25302e-06
2.06036e-06
7.18929e-07
7.27322e-07
6.92422e-07
6.58449e-07
6.3192e-07
6.11113e-07
5.97174e-07
5.83082e-07
1.06624e-05
8.26878e-07
3.42489e-07
3.41569e-07
3.25112e-07
3.10515e-07
2.96783e-07
2.87064e-07
2.79094e-07
4.71967e-08
2.72954e-05
3.52201e-07
1.65762e-07
1.63521e-07
1.55064e-07
1.48343e-07
1.426e-07
1.37393e-07
1.3307e-07
5.96086e-07
4.39415e-05
1.59593e-07
8.12045e-08
7.92165e-08
7.53785e-08
7.20376e-08
6.90279e-08
6.66258e-08
1.68897e-05
2.26829e-06
7.13198e-05
7.2193e-08
4.09873e-08
3.98337e-08
3.78212e-08
3.60786e-08
3.44342e-08
3.36734e-08
3.26671e-08
2.09649e-07
5.66538e-05
4.19121e-08
2.14263e-08
2.09624e-08
2.01009e-08
1.92836e-08
1.84001e-08
9.22832e-07
2.11595e-05
4.07126e-06
9.62211e-05
1.95126e-08
1.71892e-08
1.20084e-08
1.2671e-08
1.25305e-08
1.18879e-08
1.15264e-08
1.14862e-08
4.88746e-06
7.9955e-05
9.59862e-09
1.12285e-08
8.68832e-09
8.37539e-09
7.87839e-09
7.32617e-09
7.58387e-09
1.12154e-05
1.23917e-05
0.000117789
2.21455e-05
1.98023e-06
2.23444e-06
2.17459e-06
2.0502e-06
1.94145e-06
1.85763e-06
1.80204e-06
1.7618e-06
1.76751e-06
5.19983e-06
1.26514e-06
1.2999e-06
1.23724e-06
1.1735e-06
1.1224e-06
1.08787e-06
1.06903e-06
1.06051e-06
9.88121e-07
1.75113e-06
5.7803e-07
5.86614e-07
5.58399e-07
5.31642e-07
5.09629e-07
4.91867e-07
4.78909e-07
4.67471e-07
3.23836e-06
7.11474e-07
2.79374e-07
2.80041e-07
2.67447e-07
2.54442e-07
2.43918e-07
2.35413e-07
2.28311e-07
2.20919e-07
8.87602e-06
3.03366e-07
1.3811e-07
1.35793e-07
1.29926e-07
1.23765e-07
1.1869e-07
1.14202e-07
1.10887e-07
3.97551e-07
1.97131e-05
1.40208e-07
6.84574e-08
6.6866e-08
6.33494e-08
6.145e-08
5.82414e-08
1.23398e-06
1.43254e-05
2.3706e-06
3.98168e-05
6.41126e-08
3.46579e-08
3.43841e-08
3.26957e-08
3.04597e-08
2.97068e-08
2.8817e-08
2.78131e-08
2.51276e-07
2.53841e-05
3.84657e-08
1.78446e-08
1.78035e-08
1.73723e-08
1.65509e-08
1.5976e-08
1.6442e-05
2.02909e-05
1.99486e-06
6.09896e-05
1.33767e-08
1.5849e-08
1.17794e-08
1.11447e-08
1.0398e-08
9.94998e-09
1.01927e-08
9.98731e-09
2.0763e-06
4.15814e-05
9.18872e-09
9.54862e-09
7.52937e-09
7.10157e-09
6.94756e-09
6.87911e-09
6.60532e-09
1.01504e-05
8.1865e-06
7.4359e-05
1.92569e-05
2.2233e-06
2.60836e-06
2.69918e-06
2.67242e-06
2.61471e-06
2.57374e-06
2.56095e-06
2.58446e-06
2.68215e-06
3.9384e-06
9.56706e-07
1.00426e-06
9.74197e-07
9.40575e-07
9.07765e-07
8.80538e-07
8.5701e-07
8.32146e-07
7.3375e-07
1.42868e-06
4.4817e-07
4.55271e-07
4.36277e-07
4.17836e-07
3.99968e-07
3.88648e-07
3.77385e-07
2.54581e-07
2.13526e-06
5.90142e-07
2.21107e-07
2.21775e-07
2.11292e-07
2.02669e-07
1.94238e-07
1.87e-07
1.81178e-07
1.75403e-07
2.97841e-08
2.54951e-07
1.10966e-07
1.10039e-07
1.03957e-07
1.00303e-07
9.50124e-08
9.2558e-08
8.874e-08
2.06197e-07
8.25237e-06
1.1919e-07
5.50978e-08
5.53603e-08
5.23059e-08
4.95617e-08
4.85834e-08
8.91388e-06
1.17234e-05
2.17563e-06
2.21785e-05
5.55561e-08
2.87831e-08
2.79134e-08
2.64923e-08
2.58348e-08
2.42864e-08
2.33531e-08
2.32046e-08
2.21865e-08
8.04013e-06
2.95599e-06
1.56345e-08
1.47182e-08
1.48518e-08
1.38973e-08
1.57349e-05
2.42303e-05
1.84362e-05
7.47249e-07
3.89783e-05
7.93634e-09
1.39702e-08
9.40604e-09
8.90276e-09
9.02424e-09
8.60774e-09
8.4342e-09
8.13917e-09
2.87526e-07
1.69383e-05
9.99838e-09
6.53824e-09
7.30183e-09
6.28371e-09
5.85419e-09
5.93373e-09
1.96884e-06
8.32887e-06
5.23629e-06
4.57287e-05
5.04895e-06
3.28758e-06
3.28085e-06
3.05117e-06
2.88662e-06
2.76208e-06
2.60025e-06
2.36389e-06
2.03597e-06
1.60083e-06
3.96486e-06
8.36903e-07
7.66427e-07
6.84327e-07
6.24788e-07
5.85701e-07
5.68598e-07
5.70506e-07
5.87099e-07
5.56263e-07
5.88108e-05
6.88884e-06
9.50071e-06
7.21791e-06
5.93896e-06
4.98952e-06
3.81195e-06
1.57637e-06
1.66649e-06
3.9051e-06
4.70598e-07
1.70174e-07
1.70573e-07
1.6346e-07
1.55578e-07
1.47828e-07
1.4243e-07
1.37876e-07
1.32093e-07
1.12725e-07
2.06007e-07
8.54114e-08
8.52593e-08
8.15578e-08
7.75269e-08
7.42818e-08
7.19747e-08
6.83494e-08
1.32262e-07
3.54855e-06
9.79643e-06
4.38782e-08
4.33902e-08
4.07504e-08
3.98409e-08
7.39672e-06
1.1942e-05
9.62366e-06
1.93222e-06
1.25869e-05
4.60452e-08
2.25775e-08
2.26169e-08
2.12564e-08
2.05859e-08
1.96395e-08
1.8693e-08
1.80028e-08
1.8062e-08
1.62699e-08
5.02642e-05
4.56881e-05
4.11047e-05
3.6514e-05
3.4735e-05
3.23348e-05
2.75815e-05
1.65864e-05
2.66198e-09
2.57301e-05
4.19702e-09
1.12771e-08
8.22792e-09
7.66326e-09
7.21153e-09
6.74367e-09
6.46941e-09
7.30833e-09
6.21128e-09
2.04019e-06
1.1505e-08
5.02818e-09
5.25001e-09
4.80634e-09
4.71761e-09
4.31832e-09
5.08834e-06
6.38284e-06
3.25875e-06
2.74779e-05
0.000128421
1.4891e-05
1.57051e-05
1.53078e-05
1.45737e-05
1.33692e-05
1.17401e-05
9.84187e-06
7.78512e-06
5.58716e-06
7.46987e-07
1.12639e-07
2.78462e-07
3.82996e-07
4.41975e-07
4.5274e-07
4.44512e-07
4.43316e-07
4.80168e-07
5.39811e-07
0.000201093
0.000127969
6.98403e-05
3.98909e-05
2.24926e-05
1.2671e-05
6.54274e-06
1.59835e-06
3.7498e-06
7.05242e-06
3.5795e-07
1.22427e-07
1.23307e-07
1.18124e-07
1.14027e-07
1.09944e-07
1.06094e-07
1.02135e-07
9.74469e-08
8.16846e-08
1.60149e-07
6.29037e-08
6.25501e-08
6.04761e-08
5.78836e-08
5.55975e-08
5.27929e-08
1.85294e-07
1.65591e-07
2.09531e-06
3.93981e-05
3.00294e-05
1.9678e-05
1.57516e-05
1.50454e-05
1.43146e-05
1.2355e-05
7.9531e-06
1.71894e-06
7.39756e-06
3.63638e-08
1.74326e-08
1.68461e-08
1.63695e-08
1.59112e-08
1.4848e-08
1.41881e-08
1.40414e-08
1.28866e-08
1.20756e-08
0.000219224
4.35023e-05
7.99389e-05
7.01336e-05
5.46528e-05
4.0754e-05
2.86875e-05
1.51849e-05
4.75614e-07
1.80507e-05
1.50495e-09
8.26389e-09
6.6741e-09
6.34414e-09
5.51926e-09
5.60924e-09
5.32428e-09
5.00932e-09
5.32428e-09
5.52844e-09
1.26728e-08
3.3133e-09
4.28942e-09
3.76699e-09
4.04196e-09
3.82198e-09
5.26949e-06
4.37935e-06
1.90872e-06
1.57244e-05
0.00033638
4.16781e-05
4.58763e-05
4.27573e-05
3.63763e-05
2.89339e-05
2.16419e-05
1.49524e-05
8.84371e-06
2.96601e-06
9.30815e-06
2.19168e-06
1.5219e-06
1.16509e-06
9.99257e-07
8.64714e-07
6.76051e-07
3.8049e-07
7.80457e-08
7.65698e-07
0.000340803
0.000241602
0.000117357
6.11555e-05
3.08107e-05
1.50226e-05
6.20624e-06
3.44774e-08
6.67932e-06
1.12294e-05
2.49345e-07
8.69986e-08
8.49026e-08
8.07489e-08
7.72597e-08
7.53298e-08
7.25564e-08
7.22241e-08
7.06009e-08
5.54699e-08
1.8394e-05
4.4236e-08
4.41703e-08
2.198e-07
1.60663e-06
2.42663e-06
2.47932e-06
1.64173e-06
2.4274e-07
1.84055e-06
3.984e-05
4.50348e-05
3.52145e-05
2.63206e-05
2.0004e-05
1.5159e-05
1.09299e-05
6.34471e-06
1.49635e-06
4.40387e-06
2.72085e-08
1.23036e-08
1.17924e-08
1.17753e-08
1.09233e-08
1.11789e-08
1.00712e-08
9.88379e-09
9.84971e-09
8.18653e-09
0.000486734
1.65036e-05
8.40235e-05
8.30539e-05
6.35275e-05
4.44301e-05
2.8763e-05
1.4312e-05
8.3781e-07
1.37412e-05
2.5737e-09
4.86598e-09
4.86598e-09
3.9876e-09
4.21068e-09
3.82029e-09
3.7924e-09
3.73663e-09
3.63903e-09
3.46386e-09
1.13436e-08
2.47947e-09
2.83733e-09
3.0546e-09
2.82455e-09
3.70003e-08
2.91289e-06
2.18019e-06
9.13134e-07
7.57686e-06
0.00111372
0.000127458
0.000115566
8.51752e-05
5.86857e-05
3.84682e-05
2.34852e-05
1.21223e-05
2.80242e-06
5.81891e-06
2.03456e-05
3.84317e-06
3.53433e-06
3.17349e-06
2.52153e-06
1.64757e-06
6.15756e-07
5.84656e-07
2.05196e-06
3.77385e-06
0.000488292
0.000365346
0.000159293
7.48903e-05
3.29838e-05
1.31109e-05
3.219e-06
3.11266e-06
1.0553e-05
1.64731e-05
1.73237e-07
5.89914e-08
5.62349e-08
5.10902e-08
4.74545e-08
4.32366e-08
3.99335e-08
3.8888e-08
3.75573e-08
3.88066e-08
5.89714e-05
3.53736e-05
2.04439e-05
1.31865e-05
8.94671e-06
6.16482e-06
4.03635e-06
2.10184e-06
2.81753e-07
1.62698e-06
2.92447e-05
3.71561e-05
3.07107e-05
2.28687e-05
1.65995e-05
1.17816e-05
7.92796e-06
4.42607e-06
1.16242e-06
2.4068e-06
1.93293e-08
8.17444e-09
8.55464e-09
7.31897e-09
8.09523e-09
6.60609e-09
6.84371e-09
6.55856e-09
6.35261e-09
5.65001e-09
0.000834376
0.000119405
6.16353e-05
7.95974e-05
6.31604e-05
4.36532e-05
2.73268e-05
1.33474e-05
1.12907e-06
1.09769e-05
4.87674e-09
2.43678e-09
3.21447e-09
3.29224e-09
3.09782e-09
2.89043e-09
2.78674e-09
2.67009e-09
2.59232e-09
2.70398e-09
7.99295e-09
2.31688e-09
1.75845e-09
1.94856e-09
1.63964e-09
1.87727e-09
1.71093e-09
2.61249e-07
2.44259e-07
2.14891e-06
0.00337289
6.8144e-05
5.17653e-05
2.96284e-05
1.41213e-05
4.31616e-06
2.05491e-06
6.78089e-06
1.1185e-05
1.6083e-05
2.04787e-05
1.56316e-05
1.15454e-05
7.84444e-06
4.71999e-06
2.15661e-06
3.57209e-08
2.12156e-06
4.38767e-06
6.77949e-06
0.000554305
0.000459881
0.000178423
7.49041e-05
2.78762e-05
7.84652e-06
7.31039e-07
5.6187e-06
1.20348e-05
1.84925e-05
9.00337e-08
3.80183e-08
3.7212e-08
3.25398e-08
2.59899e-08
2.07102e-08
1.35085e-08
6.13021e-09
2.51835e-09
2.03337e-08
5.0614e-05
3.42742e-05
1.93713e-05
1.20545e-05
7.74019e-06
4.99236e-06
3.06559e-06
1.53864e-06
2.28924e-07
1.0506e-06
1.65468e-05
1.99991e-05
1.6969e-05
1.26811e-05
9.08788e-06
6.30157e-06
4.12652e-06
2.2887e-06
6.76543e-07
1.00146e-06
1.13504e-08
5.83198e-09
4.58017e-09
4.8158e-09
4.30035e-09
4.52126e-09
4.06471e-09
4.22671e-09
3.23999e-09
3.31589e-09
0.00106778
0.000215524
2.05499e-05
5.77083e-05
4.97696e-05
3.49471e-05
2.17383e-05
1.06737e-05
1.18575e-06
7.87791e-06
5.30971e-09
1.79538e-09
1.73513e-09
1.98817e-09
1.69899e-09
1.62669e-09
1.3375e-09
1.56644e-09
1.60259e-09
1.55021e-09
1.23599e-06
7.93481e-07
1.59054e-09
8.06315e-10
1.20395e-09
4.96248e-07
8.05034e-07
3.81111e-07
2.01104e-07
1.24623e-06
0.00243847
0.0006526
0.000458367
0.000312023
0.000217525
0.000149165
9.60714e-05
5.409e-05
1.02089e-05
2.54107e-05
1.17326e-05
8.25978e-06
4.06706e-06
9.975e-07
8.38933e-07
1.95064e-06
2.74743e-06
3.48973e-06
4.31312e-06
4.85935e-06
0.00028725
0.000372583
0.00012497
4.62285e-05
1.33739e-05
8.60866e-07
3.72478e-06
6.1264e-06
9.81658e-06
1.45523e-05
5.67638e-08
8.86146e-09
1.93248e-08
2.59478e-08
3.11229e-08
3.63392e-08
3.94607e-08
4.25206e-08
4.44819e-08
4.31777e-08
2.06718e-05
1.52892e-05
8.38417e-06
5.06275e-06
3.14651e-06
1.96454e-06
1.17638e-06
5.87893e-07
1.00476e-07
3.83408e-07
6.23387e-06
5.83923e-06
4.95058e-06
3.69722e-06
2.63215e-06
1.804e-06
1.16611e-06
6.50578e-07
2.17034e-07
2.31801e-07
5.69266e-09
1.88935e-09
2.46437e-09
2.20424e-09
2.20424e-09
2.06733e-09
1.91673e-09
1.75244e-09
1.58815e-09
1.73598e-09
0.000713965
0.00017824
8.16904e-06
2.39398e-05
2.35966e-05
1.71076e-05
1.07188e-05
5.33451e-06
7.3177e-07
3.62958e-06
3.22878e-09
1.3442e-09
6.94504e-10
8.28924e-10
8.73731e-10
9.9695e-10
7.61714e-10
6.60899e-10
8.96135e-10
5.5421e-10
9.12263e-05
0.000129195
8.54061e-05
5.05428e-05
2.8895e-05
1.62727e-05
8.71203e-06
3.49953e-06
8.27659e-07
5.54249e-06
0.00398899
0.000682455
0.000508959
0.000382993
0.000286922
0.000211754
0.000151599
0.000102506
6.09954e-05
2.71085e-05
8.14619e-06
1.73898e-05
1.21123e-05
8.05184e-06
5.28865e-06
3.45049e-06
2.18164e-06
1.19558e-06
2.22582e-07
1.0674e-06
9.73842e-05
8.38184e-05
1.98607e-05
5.63842e-06
3.40208e-07
1.19005e-06
1.48773e-06
1.60356e-06
2.11351e-06
3.35811e-06
2.21087e-08
1.17603e-08
5.3074e-09
8.59112e-11
3.71327e-09
7.62701e-09
1.11303e-08
1.56454e-08
1.77932e-08
2.09242e-08
1.70998e-06
1.78931e-06
9.40981e-07
5.51288e-07
3.33041e-07
2.02341e-07
1.19474e-07
5.99415e-08
1.21748e-08
4.28901e-08
7.93002e-07
4.53454e-07
3.70578e-07
2.73083e-07
1.90966e-07
1.28165e-07
8.18447e-08
4.59482e-08
1.76977e-08
1.47195e-08
2.04839e-09
5.85469e-10
6.36379e-10
9.41841e-10
7.76383e-10
8.65476e-10
4.58193e-10
8.90931e-10
5.21831e-10
8.01838e-10
5.29837e-05
2.82562e-05
2.45315e-06
2.7102e-06
2.99499e-06
2.23316e-06
1.41237e-06
7.12422e-07
1.13941e-07
4.70564e-07
7.04373e-10
5.1026e-10
4.06126e-10
1.97856e-10
3.43645e-10
3.54058e-10
4.16539e-10
2.0827e-10
2.3951e-10
1.45789e-10
0.000264522
0.000160053
9.49289e-05
5.42245e-05
3.05294e-05
1.69754e-05
8.93019e-06
3.60022e-06
7.54424e-07
5.34044e-06
0.525999
0.418961
0.530146
0.919612
0.686118
0.623861
0.739195
1.11566
0.849572
0.791482
0.937835
1.44122
0.616644
0.593186
0.702753
1.09975
0.450503
0.449066
0.533223
0.863288
0.298417
0.294928
0.365827
0.622518
0.198642
0.189619
0.253274
0.455017
0.128212
0.118237
0.169414
0.315555
0.088539
0.0808821
0.122109
0.230989
0.0667005
0.0615684
0.0993614
0.188064
0.0358237
0.00179116
2.11142e-05
0.0190123
0.0785078
0.00651739
1.58088e-05
0.0409429
0.136612
0.0151998
8.57397e-06
0.0704166
0.124981
0.0170195
4.43046e-06
0.0603772
0.110288
0.0169897
2.29174e-06
0.0489178
0.085337
0.0142367
1.18325e-06
0.0375745
0.0644187
0.0110626
6.23373e-07
0.0305247
0.0464417
0.00833744
3.57357e-07
0.0231954
0.0357267
0.00714261
0.00104049
0.0184324
0.0301032
0.00824506
0.00382119
0.0155021
0.0170996
0.0134477
0.0141256
0.0196787
0.0387113
0.0266621
0.0261736
0.0408083
0.0749414
0.0486859
0.0492549
0.0796671
0.0710509
0.043072
0.0446851
0.0749944
0.0650964
0.0370614
0.0395669
0.0699572
0.0519883
0.0280395
0.0306786
0.0566918
0.0404146
0.0206553
0.0232334
0.0452038
0.029935
0.0145393
0.0166899
0.033677
0.0234833
0.0104553
0.0123942
0.0259878
0.0200768
0.00850564
0.0105702
0.021529
0.0019155
0.00138661
0.00133538
0.0019473
0.00609132
0.00417262
0.00386165
0.00631356
0.0162335
0.0110075
0.0104761
0.0165933
0.0190432
0.0125542
0.0123938
0.0189689
0.0207146
0.0131689
0.0136024
0.0207294
0.0189496
0.0116301
0.0124462
0.0190387
0.0164225
0.00967225
0.0106896
0.0167377
0.0133866
0.0076042
0.00860534
0.0136693
0.0111894
0.00583641
0.00691465
0.0112365
0.0099412
0.00508207
0.00648194
0.0100761
0.000603471
0.000567764
0.000597669
0.000815376
0.00226487
0.00210278
0.00236413
0.00340658
0.00609122
0.0057416
0.00640255
0.00889169
0.00729239
0.00654758
0.00705798
0.00959946
0.00837936
0.00713409
0.00763205
0.0103482
0.00813583
0.00655908
0.00704047
0.00951443
0.00745566
0.00568264
0.00617912
0.0084127
0.00648709
0.00469314
0.00517444
0.00705
0.0058355
0.00387416
0.00445911
0.00604651
0.00558752
0.00369089
0.00456195
0.00582697
0.000105865
0.00010251
0.000102484
0.000161766
0.000764355
0.000720949
0.000844998
0.00123369
0.00245349
0.00248808
0.0029857
0.00410837
0.00301891
0.00305269
0.00354252
0.00471717
0.00358376
0.00354996
0.00403774
0.00531267
0.00361431
0.00344897
0.00386836
0.00503559
0.00342476
0.00313032
0.00349275
0.00451903
0.00315383
0.00273754
0.0030463
0.00389832
0.00305471
0.00244045
0.00279367
0.0034708
0.00302883
0.002382
0.00289307
0.00336892
4.46315e-06
7.75014e-06
3.24305e-06
2.20184e-05
0.00026895
0.000250839
0.000300298
0.0004591
0.00117265
0.00119759
0.00147993
0.0020679
0.00149148
0.00157083
0.00189589
0.00252731
0.00179894
0.00191333
0.00227559
0.00297658
0.00184284
0.00193168
0.00226037
0.00291519
0.00174884
0.00179573
0.00207861
0.00264663
0.00166986
0.00164275
0.00187402
0.00235167
0.00169603
0.00155574
0.00178899
0.00213906
0.00169434
0.00153263
0.00182987
0.00205692
1.79436e-05
6.46486e-06
6.23071e-06
6.41559e-06
7.33974e-05
6.25491e-05
7.48094e-05
0.000128648
0.000535607
0.000528792
0.000659452
0.000946829
0.000754953
0.000795333
0.000972121
0.00130418
0.000954636
0.00103518
0.00125493
0.00164662
0.00102079
0.00110782
0.00132603
0.00171294
0.000971377
0.00105441
0.0012508
0.0015857
0.000959563
0.00101068
0.0011767
0.00146882
0.000961916
0.000966198
0.00111389
0.00131139
0.000976189
0.000979418
0.00115434
0.001285
1.45651e-05
5.06144e-06
4.88806e-06
5.04023e-06
1.03818e-05
5.52452e-06
5.3843e-06
1.94544e-05
0.000232124
0.000209859
0.000261657
0.000400629
0.000376664
0.000390765
0.00047929
0.000649129
0.000503379
0.00054811
0.000669994
0.000883459
0.00057757
0.000635089
0.000767678
0.000995717
0.000554169
0.000618827
0.000742761
0.000939248
0.000574654
0.000627571
0.000738749
0.000921663
0.000548159
0.000583992
0.000672943
0.000789316
0.000579542
0.000624155
0.000727991
0.000809941
1.13744e-05
3.78722e-06
3.63738e-06
3.79034e-06
3.55325e-06
1.37609e-06
1.33e-06
1.47921e-06
8.71683e-05
6.03141e-05
7.34396e-05
0.00013808
0.000181335
0.000181812
0.000222484
0.000305683
0.000256095
0.000276636
0.000339695
0.000451726
0.000321465
0.00035386
0.000429863
0.00056155
0.000307217
0.00034913
0.000421535
0.00053142
0.00034365
0.000382291
0.000452693
0.000566701
0.000313651
0.000346279
0.000398808
0.00046833
0.000350055
0.000393715
0.000455717
0.000507942
9.56804e-06
3.17973e-06
3.01543e-06
3.14456e-06
2.89836e-06
1.01451e-06
9.89929e-07
1.10181e-06
2.18305e-05
4.32979e-07
4.22493e-07
2.15835e-05
8.30489e-05
7.84547e-05
9.50405e-05
0.000133241
0.000125093
0.000132363
0.000163032
0.000220036
0.000176842
0.000192969
0.000235199
0.000310948
0.000163237
0.000187851
0.000227757
0.000285676
0.000204632
0.000228864
0.000272227
0.00034353
0.000177293
0.00019956
0.000229806
0.000270386
0.000212103
0.000244344
0.00028177
0.000314364
4.74612e-06
1.48257e-06
1.47916e-06
1.64262e-06
2.16431e-06
7.32177e-07
7.22049e-07
8.06311e-07
8.544e-07
3.17058e-07
3.05005e-07
3.45348e-07
3.46415e-05
2.94186e-05
3.46355e-05
4.97171e-05
5.73089e-05
5.8322e-05
7.19692e-05
9.96471e-05
9.61754e-05
0.000103118
0.000125984
0.000169571
8.118e-05
9.47273e-05
0.000115273
0.000142935
0.000121872
0.000135529
0.000161907
0.000207165
9.56261e-05
0.000108663
0.000125099
0.000147203
0.000127272
0.00014835
0.000171185
0.000190686
1.0236e-05
2.77608e-06
2.45576e-06
2.31723e-06
1.63732e-06
5.45414e-07
5.49357e-07
6.24357e-07
6.39492e-07
2.26628e-07
2.20861e-07