/*--------------------------------*- C++ -*----------------------------------*\
| =========                 |                                                 |
| \\      /  F ield         | foam-extend: Open Source CFD                    |
|  \\    /   O peration     | Version:     4.0                                |
|   \\  /    A nd           | Web:         http://www.foam-extend.org         |
|    \\/     M anipulation  |                                                 |
\*---------------------------------------------------------------------------*/
FoamFile
{
    version     2.0;
    format      ascii;
    class       volScalarField;
    location    "4350";
    object      rho;
}
// * * * * * * * * * * * * * * * * * * * * * * * * * * * * * * * * * * * * * //

dimensions      [1 -3 0 0 0 0 0];

internalField   nonuniform List<scalar> 
34480
(
1.34602
1.34531
1.3452
1.34566
1.34687
1.34919
1.3534
1.3615
1.37221
1.37669
1.34693
1.34626
1.34621
1.34668
1.34784
1.35003
1.35414
1.3623
1.37416
1.37604
1.3457
1.34505
1.34506
1.34545
1.34645
1.34835
1.35218
1.35997
1.37223
1.36886
1.34458
1.34401
1.34406
1.34443
1.34531
1.34691
1.35033
1.3574
1.36943
1.36051
1.34349
1.3429
1.34299
1.34331
1.34407
1.34538
1.3484
1.35471
1.36623
1.3522
1.34337
1.3429
1.34302
1.34335
1.34404
1.34513
1.34777
1.35328
1.36398
1.34517
1.34207
1.34156
1.3417
1.342
1.34264
1.34357
1.34591
1.35074
1.36046
1.33769
1.34282
1.34248
1.34274
1.34327
1.34414
1.34528
1.34761
1.35193
1.36041
1.33373
1.34129
1.34099
1.34126
1.34183
1.34283
1.34423
1.34665
1.35066
1.35757
1.32782
1.33853
1.33844
1.33925
1.34075
1.34299
1.34596
1.35002
1.35554
1.36261
1.329
1.3529
1.3518
1.35142
1.35165
1.35261
1.35443
1.35733
1.36167
1.36851
1.37744
1.35348
1.35224
1.35181
1.35206
1.35309
1.35508
1.3585
1.3642
1.37447
1.38929
1.35197
1.35064
1.35021
1.35037
1.35129
1.35318
1.3567
1.3631
1.37609
1.39518
1.35064
1.34925
1.34875
1.34881
1.3496
1.35129
1.35464
1.36105
1.37565
1.39762
1.34943
1.34793
1.34735
1.34726
1.34788
1.34927
1.35231
1.35836
1.37382
1.39756
1.34921
1.3477
1.34706
1.34687
1.34734
1.34844
1.3511
1.35653
1.3722
1.39646
1.34787
1.34625
1.34554
1.34522
1.34553
1.34636
1.34864
1.35341
1.36881
1.39298
1.34859
1.34703
1.34632
1.34609
1.34647
1.34733
1.34945
1.35362
1.36817
1.39132
1.34709
1.34551
1.34475
1.34446
1.34477
1.34562
1.34765
1.35144
1.36458
1.38717
1.34441
1.34292
1.3425
1.34286
1.34402
1.34593
1.34899
1.35369
1.36636
1.38767
1.35766
1.35673
1.35641
1.35667
1.35757
1.35917
1.36158
1.36487
1.36901
1.37352
1.35819
1.35702
1.35664
1.35696
1.35807
1.3601
1.36322
1.36774
1.37439
1.38229
1.35653
1.35522
1.35484
1.35516
1.35634
1.35852
1.36207
1.36762
1.37695
1.38863
1.35496
1.35356
1.35311
1.35337
1.35454
1.35675
1.36054
1.3667
1.37813
1.39326
1.35355
1.352
1.3515
1.35165
1.35271
1.35482
1.35863
1.36502
1.37806
1.39621
1.35307
1.35151
1.35093
1.35101
1.35197
1.35393
1.35763
1.36395
1.3781
1.39858
1.35153
1.34986
1.34923
1.34919
1.35003
1.35179
1.35532
1.36143
1.37626
1.39861
1.35207
1.35044
1.3498
1.34982
1.35069
1.35245
1.35591
1.36178
1.37668
1.40009
1.35051
1.34885
1.34816
1.34809
1.34884
1.35048
1.35381
1.35958
1.37392
1.39838
1.3478
1.3462
1.34573
1.34611
1.34742
1.34972
1.35365
1.36002
1.37413
1.39889
1.36095
1.36027
1.36004
1.36023
1.3609
1.36203
1.36362
1.36558
1.36773
1.36955
1.36178
1.36078
1.36046
1.36074
1.36167
1.36331
1.3657
1.36883
1.37272
1.37647
1.36035
1.35912
1.35875
1.35906
1.36016
1.36212
1.36513
1.36935
1.37549
1.38197
1.35879
1.3574
1.35696
1.35725
1.35843
1.3606
1.36411
1.36928
1.37761
1.3871
1.35736
1.3558
1.35528
1.3555
1.35666
1.35889
1.36269
1.3685
1.37879
1.39129
1.35677
1.35515
1.35456
1.35472
1.35584
1.35805
1.36199
1.36818
1.38011
1.39538
1.35514
1.35339
1.35275
1.35281
1.35385
1.35597
1.35993
1.36631
1.37954
1.39743
1.35555
1.35383
1.35317
1.35327
1.35433
1.35648
1.36049
1.36697
1.38097
1.40094
1.35392
1.35216
1.35146
1.3515
1.35248
1.35453
1.35846
1.36506
1.37919
1.40124
1.35119
1.34948
1.34893
1.34928
1.35065
1.35315
1.35747
1.36449
1.37863
1.40219
1.36323
1.36279
1.36264
1.36277
1.36323
1.36397
1.36497
1.36612
1.36728
1.36818
1.3644
1.36364
1.36338
1.3636
1.36432
1.36554
1.36723
1.3693
1.37159
1.37357
1.36334
1.36229
1.36197
1.36225
1.36318
1.3648
1.36714
1.37018
1.37395
1.37751
1.36193
1.36068
1.36027
1.36056
1.36164
1.36358
1.36653
1.37056
1.3761
1.38171
1.36062
1.35915
1.35867
1.35892
1.36006
1.36219
1.36559
1.37044
1.37775
1.38565
1.36003
1.35845
1.35789
1.35811
1.35927
1.3615
1.36523
1.3707
1.37969
1.38992
1.35838
1.35666
1.35604
1.35619
1.35732
1.35957
1.36349
1.36943
1.37992
1.39254
1.35873
1.35701
1.35636
1.35654
1.35772
1.36003
1.36412
1.37042
1.38206
1.39683
1.35707
1.3553
1.35462
1.35475
1.35588
1.35817
1.36229
1.3689
1.38115
1.3982
1.35436
1.35261
1.35202
1.35237
1.35377
1.35635
1.36076
1.36776
1.38025
1.3992
1.36483
1.36458
1.36449
1.36457
1.36486
1.36531
1.3659
1.36655
1.36715
1.36755
1.36628
1.36574
1.36555
1.36571
1.36622
1.36706
1.36818
1.36949
1.37082
1.37188
1.36563
1.3648
1.36454
1.36475
1.36549
1.36672
1.36845
1.37055
1.37288
1.37486
1.36445
1.36339
1.36303
1.36328
1.3642
1.36581
1.36815
1.37114
1.37476
1.37808
1.36335
1.36204
1.3616
1.36184
1.36288
1.36476
1.36762
1.37145
1.37648
1.38139
1.36282
1.36138
1.36085
1.36109
1.36221
1.36428
1.36757
1.37212
1.3786
1.38526
1.36124
1.35962
1.35904
1.35923
1.36037
1.36255
1.36615
1.37131
1.37919
1.38778
1.36159
1.35994
1.35932
1.35954
1.36074
1.36305
1.36692
1.37259
1.38168
1.39214
1.35992
1.35821
1.35756
1.35775
1.35894
1.36127
1.36526
1.37138
1.38133
1.39393
1.35727
1.35556
1.35497
1.35531
1.35667
1.35922
1.36344
1.36991
1.38028
1.39459
1.36601
1.36588
1.36583
1.36588
1.36605
1.36632
1.36666
1.36701
1.36733
1.36751
1.36762
1.36726
1.36713
1.36724
1.36758
1.36813
1.36884
1.36964
1.37041
1.371
1.36735
1.36673
1.36653
1.36669
1.36723
1.36813
1.36933
1.37074
1.37219
1.37335
1.3664
1.36555
1.36525
1.36546
1.3662
1.36745
1.36921
1.37136
1.37374
1.37576
1.36555
1.36444
1.36407
1.36429
1.36517
1.36673
1.36901
1.37192
1.37535
1.37845
1.36515
1.36388
1.36342
1.36365
1.36465
1.36646
1.36921
1.37283
1.37742
1.38177
1.36368
1.36221
1.36169
1.3619
1.36297
1.36496
1.36808
1.37235
1.37811
1.38391
1.36408
1.36257
1.362
1.36223
1.36339
1.36554
1.36899
1.37382
1.38068
1.38796
1.36244
1.36084
1.36024
1.36046
1.36163
1.36386
1.3675
1.37281
1.38055
1.3896
1.3599
1.35829
1.35771
1.35803
1.35933
1.36172
1.36555
1.3712
1.37942
1.38978
1.36691
1.36686
1.36684
1.36687
1.36697
1.36712
1.36731
1.36751
1.36767
1.36773
1.36859
1.36836
1.36827
1.36834
1.36856
1.36891
1.36935
1.36983
1.37027
1.37059
1.36864
1.36819
1.36805
1.36816
1.36854
1.36916
1.36997
1.37088
1.37177
1.37246
1.36789
1.36724
1.36701
1.36716
1.36772
1.36866
1.36992
1.37142
1.37296
1.37421
1.36729
1.3664
1.36609
1.36627
1.36699
1.36822
1.36996
1.37208
1.37441
1.37639
1.36704
1.36598
1.36559
1.36579
1.36664
1.36815
1.37033
1.3731
1.37631
1.37918
1.36571
1.36444
1.36399
1.36418
1.36513
1.36685
1.36943
1.37281
1.37696
1.38089
1.3662
1.36486
1.36436
1.36459
1.36564
1.36754
1.37047
1.3744
1.37947
1.3845
1.3646
1.36316
1.36263
1.36285
1.36394
1.36596
1.36911
1.3735
1.37934
1.38568
1.3622
1.36074
1.36022
1.36051
1.36169
1.36383
1.36717
1.37187
1.37815
1.38545
1.36765
1.36765
1.36764
1.36766
1.36772
1.3678
1.3679
1.36801
1.36809
1.3681
1.36931
1.36917
1.36911
1.36916
1.36929
1.3695
1.36977
1.37005
1.3703
1.37048
1.3696
1.3693
1.3692
1.36927
1.36953
1.36994
1.37047
1.37104
1.37159
1.37199
1.369
1.36852
1.36835
1.36846
1.36887
1.36954
1.37042
1.37142
1.37242
1.37319
1.36864
1.36795
1.36771
1.36785
1.3684
1.36934
1.37061
1.37211
1.37366
1.37493
1.36853
1.36768
1.36736
1.36753
1.36822
1.36942
1.37109
1.37313
1.37535
1.37723
1.36734
1.36628
1.36591
1.36608
1.36688
1.3683
1.37035
1.37293
1.37586
1.37851
1.36795
1.36682
1.36639
1.3666
1.36751
1.36912
1.3715
1.37458
1.37824
1.38167
1.3664
1.36515
1.36469
1.3649
1.36586
1.3676
1.37022
1.37371
1.37799
1.38233
1.3642
1.36292
1.36245
1.36271
1.36374
1.36559
1.36837
1.37214
1.3768
1.38182
1.36829
1.36831
1.36831
1.36832
1.36835
1.3684
1.36845
1.36851
1.36855
1.36852
1.36985
1.36977
1.36973
1.36976
1.36984
1.36997
1.37012
1.37029
1.37043
1.37054
1.37034
1.37013
1.37007
1.37011
1.37028
1.37055
1.37088
1.37124
1.37157
1.3718
1.36982
1.36948
1.36935
1.36943
1.36972
1.37018
1.37078
1.37144
1.37207
1.37255
1.36967
1.36915
1.36897
1.36908
1.36949
1.37017
1.37107
1.3721
1.37313
1.37393
1.36968
1.36902
1.36878
1.36891
1.36945
1.37036
1.3716
1.37305
1.37456
1.37579
1.36863
1.36778
1.36747
1.36762
1.36827
1.36939
1.37095
1.37286
1.3749
1.37666
1.36937
1.36845
1.36809
1.36828
1.36903
1.37033
1.3722
1.37452
1.37711
1.37942
1.36786
1.36681
1.36643
1.36662
1.36743
1.36887
1.37096
1.37363
1.3767
1.37962
1.36588
1.3648
1.3644
1.36462
1.36549
1.36703
1.36926
1.37217
1.37554
1.37893
1.36885
1.36888
1.36889
1.36889
1.36891
1.36894
1.36897
1.369
1.36901
1.36897
1.37027
1.37022
1.3702
1.37022
1.37027
1.37034
1.37043
1.37053
1.37061
1.37067
1.37091
1.37078
1.37073
1.37076
1.37087
1.37104
1.37124
1.37146
1.37165
1.37178
1.37041
1.37019
1.3701
1.37015
1.37034
1.37065
1.37105
1.37148
1.37187
1.37217
1.37044
1.37007
1.36994
1.37002
1.37031
1.37079
1.37141
1.3721
1.37277
1.37327
1.37055
1.37006
1.36988
1.36998
1.37038
1.37105
1.37194
1.37295
1.37396
1.37475
1.36961
1.36895
1.36872
1.36884
1.36933
1.37019
1.37134
1.37271
1.3741
1.37526
1.37049
1.36977
1.36949
1.36964
1.37024
1.37126
1.37267
1.37436
1.37616
1.37768
1.36901
1.36816
1.36785
1.36801
1.36866
1.36981
1.37141
1.3734
1.37555
1.3775
1.36728
1.3664
1.36607
1.36626
1.36696
1.36819
1.36992
1.37209
1.37447
1.37672
1.36936
1.3694
1.36941
1.36941
1.36942
1.36944
1.36945
1.36947
1.36947
1.36942
1.37059
1.37057
1.37056
1.37057
1.3706
1.37064
1.3707
1.37075
1.3708
1.37084
1.37136
1.37128
1.37126
1.37128
1.37134
1.37144
1.37157
1.3717
1.37181
1.37188
1.37085
1.3707
1.37064
1.37067
1.3708
1.371
1.37125
1.37153
1.37178
1.37197
1.37102
1.37076
1.37067
1.37073
1.37093
1.37125
1.37167
1.37213
1.37255
1.37287
1.3712
1.37085
1.37071
1.37079
1.37107
1.37155
1.37217
1.37286
1.37353
1.37403
1.37034
1.36985
1.36968
1.36977
1.37014
1.37076
1.37159
1.37254
1.37348
1.37424
1.37137
1.37083
1.37061
1.37073
1.37118
1.37195
1.37299
1.37419
1.37541
1.37639
1.36988
1.36921
1.36898
1.3691
1.36961
1.37048
1.37168
1.37311
1.37459
1.37586
1.36844
1.36775
1.36749
1.36763
1.36818
1.36913
1.37043
1.37199
1.37364
1.37512
1.36984
1.36988
1.36989
1.36989
1.3699
1.3699
1.36991
1.36992
1.36992
1.36986
1.37085
1.37084
1.37083
1.37084
1.37086
1.37088
1.37091
1.37095
1.37098
1.371
1.37174
1.37169
1.37168
1.37169
1.37173
1.37179
1.37187
1.37194
1.372
1.37204
1.37117
1.37106
1.37102
1.37104
1.37112
1.37125
1.37142
1.37159
1.37174
1.37187
1.37145
1.37128
1.37122
1.37126
1.37139
1.37161
1.37188
1.37218
1.37244
1.37264
1.37167
1.37142
1.37133
1.37138
1.37158
1.37191
1.37233
1.37279
1.37322
1.37354
1.37088
1.37052
1.3704
1.37046
1.37073
1.37117
1.37175
1.3724
1.37301
1.3735
1.37204
1.37165
1.37149
1.37158
1.37192
1.37247
1.37321
1.37403
1.37486
1.37547
1.37051
1.37001
1.36983
1.36992
1.37031
1.37095
1.37181
1.37281
1.37381
1.37464
1.36939
1.36887
1.36868
1.36879
1.3692
1.3699
1.37084
1.37194
1.37305
1.37401
1.37029
1.37033
1.37034
1.37034
1.37035
1.37035
1.37035
1.37036
1.37035
1.3703
1.37104
1.37103
1.37103
1.37103
1.37104
1.37106
1.37108
1.3711
1.37112
1.37114
1.37207
1.37204
1.37203
1.37204
1.37207
1.3721
1.37214
1.37218
1.37222
1.37223
1.37139
1.37132
1.3713
1.37131
1.37136
1.37144
1.37154
1.37165
1.37174
1.37182
1.37178
1.37167
1.37163
1.37165
1.37174
1.37188
1.37205
1.37224
1.3724
1.37252
1.372
1.37184
1.37177
1.37181
1.37194
1.37216
1.37244
1.37274
1.37302
1.37321
1.37126
1.37102
1.37093
1.37097
1.37116
1.37146
1.37185
1.37228
1.37267
1.37299
1.37257
1.3723
1.37218
1.37225
1.37248
1.37287
1.37338
1.37393
1.37447
1.37485
1.37095
1.37058
1.37045
1.37052
1.37079
1.37125
1.37185
1.37253
1.37319
1.37372
1.3702
1.36982
1.36967
1.36975
1.37005
1.37055
1.37121
1.37196
1.37269
1.37331
1.37075
1.37078
1.37079
1.37079
1.3708
1.3708
1.3708
1.3708
1.37079
1.37074
1.37116
1.37116
1.37115
1.37116
1.37116
1.37117
1.37119
1.3712
1.37122
1.37123
1.37236
1.37235
1.37234
1.37235
1.37237
1.37239
1.37241
1.37243
1.37244
1.37244
1.37154
1.3715
1.37148
1.37149
1.37152
1.37157
1.37163
1.3717
1.37175
1.37181
1.37201
1.37194
1.37192
1.37193
1.37199
1.37207
1.37218
1.3723
1.3724
1.37246
1.37222
1.37211
1.37207
1.37209
1.37218
1.37232
1.3725
1.37269
1.37287
1.37299
1.37153
1.37137
1.37131
1.37134
1.37147
1.37167
1.37192
1.3722
1.37244
1.37264
1.37297
1.37279
1.37271
1.37276
1.37292
1.37318
1.37352
1.37388
1.37424
1.37446
1.37122
1.37096
1.37087
1.37092
1.37111
1.37142
1.37182
1.37227
1.3727
1.37305
1.37091
1.37064
1.37054
1.3706
1.3708
1.37115
1.3716
1.37209
1.37256
1.37295
1.37124
1.37128
1.37129
1.37129
1.37129
1.37129
1.37129
1.37129
1.37128
1.37123
1.3712
1.3712
1.3712
1.3712
1.3712
1.37121
1.37122
1.37123
1.37125
1.37127
1.37262
1.37262
1.37262
1.37262
1.37263
1.37264
1.37265
1.37266
1.37267
1.37265
1.37164
1.37161
1.3716
1.37161
1.37162
1.37165
1.37169
1.37173
1.37176
1.3718
1.37216
1.37212
1.3721
1.37211
1.37215
1.3722
1.37227
1.37234
1.3724
1.37243
1.37234
1.37227
1.37224
1.37225
1.37231
1.3724
1.37251
1.37263
1.37275
1.37282
1.37172
1.37162
1.37158
1.3716
1.37168
1.37181
1.37197
1.37214
1.37229
1.37242
1.37328
1.37317
1.37311
1.37314
1.37325
1.37342
1.37364
1.37387
1.3741
1.37422
1.37135
1.37117
1.37111
1.37114
1.37127
1.37148
1.37174
1.37203
1.37229
1.37252
1.37161
1.37143
1.37135
1.37139
1.37153
1.37176
1.37206
1.37237
1.37268
1.37292
1.37191
1.37194
1.37195
1.37195
1.37195
1.37195
1.37195
1.37194
1.37193
1.37189
1.37113
1.37113
1.37113
1.37113
1.37113
1.37114
1.37115
1.37116
1.37117
1.3712
1.37283
1.37283
1.37283
1.37283
1.37284
1.37285
1.37285
1.37286
1.37286
1.37284
1.37169
1.37168
1.37167
1.37168
1.37169
1.37171
1.37173
1.37175
1.37176
1.37179
1.37223
1.3722
1.37219
1.3722
1.37222
1.37225
1.37229
1.37233
1.37237
1.37239
1.37236
1.37231
1.37229
1.3723
1.37234
1.37239
1.37247
1.37254
1.37261
1.37266
1.37184
1.37178
1.37176
1.37177
1.37182
1.3719
1.372
1.3721
1.37218
1.37226
1.37345
1.37338
1.37334
1.37336
1.37343
1.37354
1.37368
1.37383
1.37399
1.37405
1.37132
1.3712
1.37116
1.37118
1.37127
1.3714
1.37156
1.37175
1.3719
1.37207
1.37244
1.37232
1.37227
1.37229
1.37238
1.37253
1.37273
1.37292
1.37312
1.37326
1.373
1.37303
1.37303
1.37304
1.37304
1.37303
1.37303
1.37302
1.37301
1.37297
1.37088
1.37087
1.37087
1.37087
1.37088
1.37088
1.37089
1.3709
1.37091
1.37094
1.37291
1.37291
1.3729
1.3729
1.3729
1.37291
1.37291
1.37292
1.37293
1.37291
1.37172
1.37172
1.37172
1.37172
1.37173
1.37174
1.37175
1.37176
1.37176
1.37177
1.37222
1.3722
1.37219
1.37219
1.3722
1.37222
1.37225
1.37228
1.3723
1.37232
1.37229
1.37226
1.37225
1.37225
1.37227
1.37231
1.37235
1.3724
1.37245
1.37248
1.37188
1.37185
1.37184
1.37185
1.37189
1.37194
1.372
1.37205
1.3721
1.37213
1.37337
1.37331
1.37328
1.37329
1.37334
1.37341
1.37351
1.37361
1.37372
1.37376
1.37105
1.37098
1.37095
1.37097
1.37102
1.37111
1.37121
1.37132
1.37141
1.37152
1.37363
1.37356
1.37352
1.37354
1.3736
1.37369
1.37382
1.37394
1.37408
1.37416
1.37476
1.37477
1.37477
1.37477
1.37477
1.37477
1.37477
1.37477
1.37476
1.37474
1.37029
1.3703
1.37031
1.37032
1.37033
1.37033
1.37033
1.37032
1.37031
1.37032
1.37273
1.37272
1.3727
1.37269
1.37269
1.37269
1.3727
1.37272
1.37275
1.37276
1.37175
1.37176
1.37176
1.37177
1.37177
1.37178
1.37178
1.37178
1.37178
1.37177
1.37215
1.37214
1.37213
1.37213
1.37214
1.37215
1.37217
1.37219
1.37221
1.37223
1.37218
1.37216
1.37215
1.37216
1.37217
1.3722
1.37223
1.37226
1.37229
1.37232
1.37189
1.37187
1.37187
1.37188
1.3719
1.37193
1.37198
1.37201
1.37204
1.37205
1.37289
1.37284
1.37281
1.37282
1.37285
1.3729
1.37297
1.37304
1.37313
1.37319
1.37041
1.37038
1.37037
1.37038
1.37042
1.37048
1.37055
1.37062
1.37066
1.37071
1.37539
1.37533
1.3753
1.37531
1.37536
1.37543
1.37551
1.3756
1.37571
1.37575
1.37661
1.3766
1.37658
1.37657
1.37657
1.37657
1.37658
1.3766
1.37662
1.37665
1.36954
1.3696
1.36964
1.36966
1.36967
1.36967
1.36965
1.36962
1.36958
1.3695
1.37236
1.37233
1.37231
1.3723
1.37229
1.3723
1.37231
1.37233
1.37237
1.37241
1.37181
1.37182
1.37183
1.37184
1.37184
1.37185
1.37185
1.37185
1.37184
1.37183
1.3721
1.37209
1.37209
1.37209
1.37209
1.37211
1.37212
1.37214
1.37215
1.37217
1.37212
1.37211
1.3721
1.3721
1.37211
1.37214
1.37216
1.37219
1.37222
1.37224
1.37193
1.37191
1.3719
1.37191
1.37193
1.37196
1.372
1.37204
1.37206
1.37207
1.37226
1.37221
1.37219
1.37219
1.37222
1.37227
1.37232
1.37239
1.37247
1.37255
1.36966
1.36965
1.36965
1.36966
1.36969
1.36975
1.36981
1.36986
1.36989
1.36985
1.37716
1.37712
1.37709
1.3771
1.37714
1.3772
1.37728
1.37736
1.37744
1.37748
1.47348
1.47907
1.47564
1.46845
1.50623
1.51196
1.50511
1.49434
1.53267
1.53772
1.52802
1.51472
1.55162
1.55553
1.54299
1.52767
1.56628
1.56878
1.5535
1.53668
1.5782
1.57924
1.56305
1.5443
1.58616
1.58557
1.56994
1.54883
1.59329
1.59096
1.57615
1.55276
1.59115
1.58694
1.57272
1.54728
1.58333
1.57811
1.56555
1.53897
1.37268
1.37236
1.37292
1.37398
1.39414
1.3955
1.39651
1.39617
1.41354
1.41625
1.41749
1.41558
1.43214
1.43606
1.43744
1.43361
1.44963
1.4544
1.45575
1.44984
1.46658
1.47187
1.47293
1.46534
1.48073
1.48628
1.48694
1.47824
1.49501
1.50063
1.50098
1.49164
1.50199
1.50761
1.50779
1.49823
1.50561
1.51174
1.51192
1.50271
1.37689
1.37734
1.37753
1.37754
1.38961
1.3906
1.39089
1.39074
1.40169
1.40328
1.4037
1.40335
1.41346
1.41571
1.41624
1.41553
1.42499
1.4279
1.42846
1.42721
1.43721
1.44073
1.44127
1.43934
1.44782
1.45187
1.45235
1.44964
1.45971
1.46415
1.46456
1.46105
1.46571
1.47048
1.47082
1.46646
1.46922
1.47475
1.47509
1.46972
1.37014
1.3701
1.37013
1.37024
1.37817
1.37841
1.37851
1.37853
1.38604
1.38659
1.38679
1.38674
1.39441
1.39538
1.39572
1.39555
1.40285
1.40432
1.40479
1.4044
1.41224
1.41424
1.41483
1.41411
1.4204
1.42293
1.42361
1.42247
1.4303
1.43331
1.43404
1.43243
1.43516
1.4386
1.43941
1.4373
1.43783
1.44212
1.44307
1.44027
1.36875
1.36869
1.36869
1.36875
1.3744
1.37455
1.37461
1.37461
1.37941
1.37973
1.37985
1.37982
1.38513
1.38568
1.38588
1.38582
1.39113
1.39195
1.39225
1.39214
1.39813
1.39929
1.39969
1.39948
1.40407
1.40558
1.40609
1.40573
1.41197
1.41384
1.41445
1.41388
1.41587
1.41808
1.41885
1.41808
1.4179
1.42089
1.42185
1.42063
1.36796
1.36786
1.36784
1.36791
1.37219
1.37224
1.37227
1.37228
1.37558
1.37571
1.37577
1.37579
1.37952
1.37977
1.37989
1.37991
1.38386
1.38428
1.38447
1.38449
1.38917
1.38981
1.39008
1.39007
1.39348
1.39436
1.39472
1.39467
1.39985
1.40098
1.40144
1.4013
1.403
1.40438
1.405
1.4048
1.40422
1.40625
1.40703
1.40649
1.36786
1.36775
1.36773
1.36779
1.37117
1.3712
1.37121
1.37122
1.37371
1.37377
1.3738
1.37381
1.37645
1.37658
1.37665
1.37667
1.37963
1.37986
1.37998
1.38001
1.38369
1.38405
1.38423
1.38428
1.38677
1.38728
1.38753
1.38758
1.39193
1.39261
1.39294
1.39296
1.39436
1.39522
1.39567
1.39568
1.39477
1.39617
1.39673
1.39644
1.36805
1.36794
1.36791
1.36797
1.37068
1.3707
1.3707
1.37071
1.37264
1.37267
1.37269
1.3727
1.37458
1.37465
1.37469
1.37471
1.37701
1.37713
1.3772
1.37723
1.38019
1.38039
1.3805
1.38055
1.38238
1.38267
1.38284
1.3829
1.3866
1.387
1.38722
1.38728
1.38827
1.38879
1.3891
1.38915
1.38803
1.38902
1.3894
1.3892
1.3684
1.36828
1.36825
1.36831
1.37054
1.37054
1.37055
1.37055
1.37209
1.37211
1.37212
1.37212
1.37341
1.37345
1.37347
1.37349
1.37529
1.37535
1.3754
1.37542
1.37781
1.37793
1.378
1.37804
1.37935
1.37952
1.37963
1.37968
1.38285
1.38309
1.38324
1.38329
1.38381
1.38413
1.38433
1.38438
1.38314
1.38389
1.38413
1.38394
1.36881
1.36869
1.36866
1.36872
1.37057
1.37057
1.37057
1.37058
1.37186
1.37186
1.37187
1.37187
1.37268
1.37271
1.37272
1.37273
1.37414
1.37418
1.37421
1.37422
1.37614
1.37621
1.37626
1.37628
1.37716
1.37727
1.37733
1.37737
1.38012
1.38027
1.38036
1.3804
1.38049
1.38069
1.38082
1.38085
1.37957
1.38016
1.38033
1.38013
1.36925
1.36913
1.3691
1.36916
1.37069
1.37069
1.37069
1.3707
1.37182
1.37182
1.37183
1.37183
1.37225
1.37227
1.37228
1.37229
1.3734
1.37342
1.37344
1.37345
1.37497
1.37502
1.37505
1.37506
1.37557
1.37563
1.37567
1.3757
1.37811
1.3782
1.37826
1.37828
1.37802
1.37815
1.37823
1.37826
1.377
1.37748
1.37759
1.3774
1.36969
1.36957
1.36954
1.36959
1.37085
1.37085
1.37085
1.37085
1.3719
1.3719
1.3719
1.3719
1.37202
1.37203
1.37203
1.37204
1.37294
1.37296
1.37297
1.37297
1.37417
1.3742
1.37422
1.37423
1.37442
1.37446
1.37449
1.37451
1.37666
1.37672
1.37676
1.37677
1.37619
1.37627
1.37632
1.37634
1.37518
1.37559
1.37567
1.37548
1.37013
1.37
1.36997
1.37003
1.37101
1.37101
1.37101
1.37101
1.37205
1.37205
1.37205
1.37205
1.3719
1.3719
1.37191
1.37191
1.37268
1.37269
1.37269
1.3727
1.37364
1.37365
1.37367
1.37367
1.37361
1.37364
1.37365
1.37367
1.37565
1.37568
1.37571
1.37572
1.37484
1.3749
1.37493
1.37494
1.37395
1.37431
1.37436
1.37418
1.37055
1.37043
1.37039
1.37045
1.37114
1.37114
1.37114
1.37115
1.37224
1.37224
1.37224
1.37223
1.37184
1.37184
1.37185
1.37185
1.37254
1.37255
1.37255
1.37255
1.37328
1.37329
1.3733
1.3733
1.37305
1.37306
1.37308
1.37308
1.37496
1.37499
1.375
1.37501
1.37385
1.37389
1.37391
1.37392
1.37318
1.3735
1.37353
1.37336
1.37098
1.37085
1.37082
1.37088
1.37124
1.37123
1.37124
1.37124
1.37245
1.37245
1.37244
1.37244
1.37182
1.37182
1.37182
1.37182
1.37248
1.37248
1.37248
1.37248
1.37304
1.37305
1.37305
1.37305
1.37267
1.37267
1.37268
1.37269
1.37454
1.37455
1.37456
1.37456
1.37313
1.37315
1.37316
1.37317
1.3728
1.37307
1.37309
1.37294
1.37146
1.37133
1.3713
1.37136
1.37126
1.37126
1.37126
1.37127
1.37266
1.37266
1.37266
1.37265
1.3718
1.3718
1.3718
1.3718
1.37244
1.37244
1.37245
1.37245
1.37286
1.37287
1.37287
1.37287
1.37241
1.37241
1.37242
1.37242
1.37428
1.37429
1.3743
1.3743
1.37257
1.37258
1.37259
1.3726
1.37275
1.37298
1.373
1.37286
1.3721
1.37197
1.37194
1.372
1.37119
1.37119
1.37119
1.3712
1.37285
1.37285
1.37285
1.37285
1.37178
1.37177
1.37178
1.37178
1.3724
1.3724
1.3724
1.3724
1.37269
1.3727
1.3727
1.3727
1.37223
1.37223
1.37223
1.37223
1.37411
1.37412
1.37412
1.37412
1.37208
1.37209
1.3721
1.3721
1.3731
1.37328
1.37329
1.37319
1.37315
1.37303
1.37301
1.37307
1.37092
1.37092
1.37092
1.37093
1.37295
1.37295
1.37295
1.37295
1.37174
1.37174
1.37174
1.37174
1.37233
1.37233
1.37233
1.37233
1.37251
1.37252
1.37252
1.37252
1.37209
1.37208
1.37208
1.37209
1.37385
1.37386
1.37386
1.37386
1.37151
1.37151
1.37152
1.37152
1.37403
1.37416
1.37417
1.37409
1.37489
1.37478
1.37477
1.37482
1.37027
1.37026
1.37026
1.37026
1.37283
1.37284
1.37284
1.37284
1.37173
1.37173
1.37173
1.37173
1.37224
1.37224
1.37224
1.37224
1.37234
1.37234
1.37235
1.37235
1.372
1.37198
1.37198
1.37199
1.37333
1.37335
1.37336
1.37335
1.37063
1.37061
1.37061
1.37062
1.37573
1.37582
1.37582
1.37578
1.37675
1.37669
1.37669
1.37674
1.36929
1.36924
1.36923
1.36923
1.37252
1.37254
1.37255
1.37255
1.37178
1.37177
1.37177
1.37177
1.37218
1.37218
1.37218
1.37219
1.37225
1.37225
1.37225
1.37225
1.37201
1.372
1.372
1.37201
1.37271
1.37275
1.37276
1.37274
1.36957
1.3695
1.36949
1.36953
1.37767
1.37773
1.37773
1.37768
1.42996
1.40546
1.38432
1.37004
1.36147
1.35617
1.35269
1.35031
1.34866
1.34746
1.44224
1.40925
1.38406
1.36924
1.361
1.35595
1.3527
1.35051
1.34903
1.34798
1.44376
1.40719
1.37969
1.36642
1.35859
1.3538
1.35067
1.34857
1.34723
1.34645
1.44053
1.40325
1.37431
1.36341
1.35614
1.35189
1.34906
1.34719
1.34597
1.34524
1.43461
1.39828
1.36947
1.36043
1.35354
1.34982
1.34726
1.34562
1.34455
1.34401
1.42733
1.39429
1.36607
1.35886
1.35228
1.34913
1.34681
1.34539
1.34443
1.34387
1.41708
1.38917
1.3615
1.35612
1.34972
1.34714
1.34499
1.34376
1.34289
1.34247
1.40914
1.38706
1.35993
1.3564
1.35011
1.34805
1.34595
1.34479
1.3439
1.34331
1.39811
1.38108
1.35506
1.35363
1.3478
1.34634
1.3443
1.34322
1.34238
1.34179
1.39499
1.38119
1.35575
1.35489
1.34819
1.34606
1.34322
1.34155
1.34023
1.33914
1.37774
1.37497
1.37163
1.36827
1.36504
1.36213
1.35963
1.35755
1.35586
1.35458
1.39541
1.38744
1.37999
1.37362
1.36834
1.36418
1.36097
1.35847
1.35652
1.35505
1.40833
1.39526
1.38408
1.37534
1.36848
1.36339
1.35965
1.35686
1.35479
1.35342
1.41795
1.40034
1.38596
1.37572
1.36797
1.36251
1.35858
1.35572
1.35358
1.35214
1.42424
1.40334
1.38627
1.37511
1.36683
1.36124
1.35727
1.35442
1.35228
1.3509
1.42902
1.40604
1.38678
1.37519
1.36661
1.36108
1.35714
1.35435
1.35222
1.35075
1.4306
1.40653
1.38543
1.37375
1.36498
1.35959
1.35568
1.35294
1.35081
1.3494
1.43288
1.40873
1.38624
1.37486
1.36601
1.36081
1.35686
1.35408
1.35189
1.35027
1.43042
1.40636
1.38352
1.37308
1.36453
1.35956
1.35557
1.35275
1.35051
1.34883
1.4308
1.40738
1.38416
1.37379
1.36457
1.35898
1.35437
1.35103
1.34841
1.34624
1.37676
1.37472
1.37216
1.36957
1.36715
1.36498
1.3631
1.36149
1.36015
1.35911
1.38892
1.38438
1.37914
1.37448
1.37063
1.36748
1.3649
1.36278
1.36105
1.3597
1.39984
1.39195
1.38358
1.37669
1.37131
1.36715
1.36392
1.36139
1.35942
1.35804
1.40966
1.39808
1.38678
1.37815
1.37164
1.36678
1.36311
1.36031
1.35815
1.35661
1.41815
1.40274
1.38868
1.37862
1.37123
1.36592
1.36197
1.35903
1.35675
1.3552
1.42626
1.40721
1.39067
1.37955
1.37151
1.36592
1.36183
1.35881
1.35648
1.35482
1.43181
1.40942
1.39065
1.37878
1.37024
1.36452
1.36032
1.35727
1.35489
1.35327
1.4381
1.41299
1.39248
1.38025
1.37141
1.36563
1.36134
1.3582
1.35576
1.35395
1.43915
1.41199
1.3909
1.37904
1.37026
1.36452
1.3601
1.35687
1.35435
1.35247
1.4403
1.41222
1.39082
1.37882
1.36954
1.36332
1.35847
1.35487
1.35209
1.34985
1.37017
1.3697
1.36889
1.36788
1.36677
1.36565
1.36458
1.36359
1.36272
1.36203
1.37822
1.37681
1.37486
1.37277
1.3707
1.36877
1.36701
1.36546
1.36412
1.36304
1.38584
1.38286
1.37908
1.37539
1.37206
1.36918
1.36673
1.36468
1.363
1.36176
1.39374
1.3888
1.38301
1.37774
1.37321
1.36946
1.36641
1.36394
1.36194
1.36045
1.40125
1.39398
1.38602
1.37925
1.37366
1.36922
1.3657
1.36293
1.3607
1.35911
1.40914
1.39934
1.38921
1.3811
1.37461
1.36964
1.36579
1.3628
1.36042
1.35867
1.41519
1.40273
1.39047
1.38119
1.37395
1.36858
1.36447
1.36133
1.35883
1.35706
1.4225
1.40754
1.3934
1.38326
1.37545
1.3698
1.36547
1.36218
1.35957
1.35762
1.42523
1.40823
1.3931
1.38264
1.37456
1.36871
1.36419
1.36077
1.35808
1.35606
1.42737
1.4088
1.39283
1.38184
1.37328
1.36706
1.36222
1.35853
1.35567
1.35337
1.36861
1.36834
1.36792
1.36739
1.36679
1.36616
1.36554
1.36495
1.36442
1.364
1.37442
1.37379
1.37284
1.37171
1.3705
1.36929
1.36814
1.36708
1.36614
1.36535
1.37939
1.37802
1.37613
1.37407
1.37203
1.37011
1.36838
1.36684
1.36553
1.36452
1.38509
1.38273
1.37962
1.37644
1.37345
1.37077
1.36844
1.36644
1.36475
1.36343
1.39094
1.38729
1.38275
1.37837
1.37442
1.37102
1.36815
1.36576
1.36376
1.36229
1.39757
1.39239
1.38628
1.3807
1.37586
1.37183
1.36852
1.36581
1.36359
1.3619
1.40285
1.3959
1.38812
1.38139
1.37571
1.37115
1.36746
1.36451
1.36209
1.36033
1.40981
1.40103
1.39166
1.38394
1.37757
1.37255
1.36854
1.36536
1.36281
1.36084
1.41309
1.40273
1.39226
1.38384
1.37695
1.37158
1.3673
1.36396
1.36129
1.35926
1.41524
1.40334
1.39187
1.38279
1.37541
1.36971
1.36517
1.36162
1.35882
1.35656
1.36779
1.36766
1.36746
1.3672
1.3669
1.36656
1.36622
1.36589
1.36559
1.36537
1.37223
1.37194
1.37148
1.37088
1.3702
1.36949
1.36878
1.3681
1.36748
1.36694
1.37566
1.37505
1.37411
1.37298
1.37175
1.37053
1.36935
1.36826
1.3673
1.36654
1.37967
1.37856
1.37694
1.37508
1.37318
1.37134
1.36964
1.36812
1.36678
1.36571
1.38407
1.38227
1.37977
1.37706
1.37439
1.37192
1.3697
1.36776
1.36609
1.36482
1.38938
1.3867
1.38317
1.37953
1.37609
1.37301
1.37032
1.36802
1.36608
1.36455
1.39357
1.38982
1.38511
1.38051
1.3763
1.37265
1.36953
1.36693
1.36473
1.36309
1.39968
1.39475
1.38884
1.38332
1.37839
1.37423
1.37073
1.36786
1.36549
1.36363
1.4028
1.39675
1.38983
1.3835
1.37796
1.37337
1.36957
1.3665
1.36399
1.36206
1.40431
1.39712
1.38931
1.38234
1.37635
1.37144
1.36741
1.36416
1.36154
1.3594
1.36768
1.3676
1.3675
1.36736
1.3672
1.36702
1.36683
1.36665
1.36649
1.3664
1.37119
1.37103
1.37078
1.37045
1.37006
1.36965
1.36922
1.3688
1.36841
1.36806
1.37375
1.37343
1.37291
1.37225
1.3715
1.37072
1.36995
1.36921
1.36854
1.36801
1.37656
1.37599
1.37509
1.37398
1.37276
1.37153
1.37033
1.36922
1.36822
1.3674
1.37984
1.37891
1.37748
1.3758
1.37402
1.37227
1.37062
1.36913
1.36781
1.36678
1.384
1.38259
1.38052
1.37817
1.37579
1.37351
1.37142
1.36957
1.36796
1.36666
1.38716
1.38512
1.38228
1.3792
1.37616
1.37336
1.37085
1.36867
1.36679
1.36535
1.39232
1.38955
1.38587
1.38204
1.37837
1.37506
1.37217
1.36971
1.36763
1.36596
1.39487
1.39133
1.38682
1.38226
1.37802
1.37429
1.37109
1.36842
1.36618
1.36442
1.39561
1.39133
1.38616
1.38107
1.37643
1.37241
1.36899
1.36615
1.36381
1.36187
1.36786
1.36782
1.36776
1.36769
1.3676
1.36751
1.3674
1.36731
1.36723
1.36721
1.37069
1.37061
1.37047
1.37029
1.37007
1.36983
1.36958
1.36933
1.36909
1.36887
1.37266
1.37249
1.37219
1.3718
1.37135
1.37086
1.37037
1.36988
1.36944
1.36909
1.37466
1.37434
1.37381
1.37313
1.37236
1.37155
1.37073
1.36996
1.36924
1.36863
1.37715
1.37663
1.37579
1.37472
1.37354
1.37233
1.37115
1.37005
1.36905
1.36826
1.38042
1.37964
1.37839
1.37687
1.37523
1.3736
1.37204
1.37062
1.36934
1.36829
1.38273
1.38158
1.37984
1.37779
1.37564
1.37356
1.37161
1.36988
1.36834
1.36713
1.38702
1.38544
1.38313
1.38051
1.37785
1.37533
1.37304
1.37102
1.36928
1.36784
1.3888
1.38672
1.38381
1.38063
1.3775
1.37461
1.37203
1.3698
1.36788
1.36635
1.38892
1.38638
1.38302
1.37944
1.37597
1.37282
1.37004
1.36767
1.36566
1.36396
1.36821
1.36818
1.36814
1.36811
1.36806
1.36801
1.36795
1.3679
1.36787
1.36789
1.37054
1.3705
1.37042
1.37032
1.37019
1.37006
1.36991
1.36976
1.36962
1.36948
1.3721
1.372
1.37182
1.37159
1.37132
1.37102
1.37071
1.3704
1.37011
1.36989
1.37346
1.37327
1.37296
1.37254
1.37205
1.37152
1.37099
1.37046
1.36996
1.36953
1.37538
1.37507
1.37455
1.37387
1.3731
1.37228
1.37146
1.37068
1.36995
1.36937
1.37797
1.3775
1.37673
1.37574
1.37463
1.37349
1.37236
1.37131
1.37034
1.36952
1.3796
1.37892
1.37782
1.37646
1.37497
1.37346
1.37201
1.37068
1.36947
1.3685
1.38316
1.38223
1.38076
1.37899
1.37711
1.37525
1.3735
1.37192
1.37052
1.36933
1.38421
1.38297
1.38111
1.37894
1.37669
1.37453
1.37252
1.37074
1.36917
1.36789
1.38389
1.38238
1.38022