/*--------------------------------*- C++ -*----------------------------------*\
  =========                 |
  \\      /  F ield         | OpenFOAM: The Open Source CFD Toolbox
   \\    /   O peration     | Website:  https://openfoam.org
    \\  /    A nd           | Version:  6
     \\/     M anipulation  |
\*---------------------------------------------------------------------------*/
FoamFile
{
    version     2.0;
    format      ascii;
    class       volScalarField;
    location    "50";
    object      epsilon;
}
// * * * * * * * * * * * * * * * * * * * * * * * * * * * * * * * * * * * * * //

dimensions      [0 2 -3 0 0 0 0];

internalField   nonuniform List<scalar> 
3072
(
33.5838
55.7626
164.736
262.595
320.051
360.504
389.619
410.408
422.736
426.932
433.398
426.232
143.539
146.123
198.057
227.927
238.232
240.938
237.15
232.3
226.978
222.653
218.973
214.362
214.768
184.775
191.345
194.159
192.522
185.455
178.846
174.412
172.071
171.698
172.41
173.652
253.85
179.959
170.579
164.621
157.105
150.467
147.149
146.935
149.499
154.189
160.323
167.045
266.128
163.54
148.258
140.886
134.061
130.66
130.364
133.121
138.483
145.957
155.048
165.098
259.359
147.818
130.439
123.241
118.643
117.597
119.243
123.674
130.372
139.026
149.494
161.446
245.733
134.661
117.33
110.42
107.671
107.823
110.612
115.571
122.231
130.478
140.494
152.507
226.567
124.074
108.136
101.565
99.7639
100.558
103.508
108.014
113.582
120.174
128.285
138.694
200.296
117.446
103.994
96.4436
94.5979
95.3433
97.7449
101.176
105.118
109.581
115.248
123.252
180.155
114.654
106.091
96.7876
92.975
92.3105
93.302
95.3136
97.5804
100.207
103.992
110.071
142.697
115.096
108.638
98.7645
93.4225
90.9016
90.2383
90.6094
91.4696
93.0431
96.3059
101.757
154.778
127.153
119.091
104.412
95.5771
91.0091
88.261
87.354
87.5137
88.9381
93.0279
98.1234
414.493
395.13
365.022
331.952
292.44
252.532
209.572
167.21
124.16
86.5904
55.6475
71.7016
209.261
201.85
191.618
179.542
166.626
155.035
148.477
147.5
153.141
162.871
176.289
224.453
174.732
174.021
170.19
163.54
154.769
145.977
142.243
142.935
152.688
176.048
223.934
342.319
173.094
176.461
177.322
174.424
167.468
158.334
151.5
149.622
157.486
183.261
251.751
442.641
175.003
183.261
187.411
187.977
183.37
175.113
166.741
162.983
168.93
195.191
271.993
528.955
174.026
185.511
194.081
198.259
198.086
192.691
185.04
180.558
185.494
211.853
294.679
611.992
166.132
179.955
192.102
200.39
204.071
203.533
200.166
197.651
203.262
229.906
317.412
696.825
151.63
165.887
179.666
191.825
201.018
205.689
206.652
208.634
217.942
247.339
340.839
792.057
134.239
146.939
159.536
172.308
185.029
195.755
203.928
211.486
225.346
258.456
358.858
877.941
118.839
128.461
136.794
146.094
158.509
172.36
186.162
200.826
221.655
261.636
372.141
961.986
108.28
113.394
115.342
118.357
126.599
139.771
155.794
174.809
200.685
246.198
370.106
1052.04
100.431
98.7239
94.1348
91.2625
94.4697
104.615
119.193
138.505
164.946
211.247
343.565
1136.03
37.2309
61.1358
169.278
264.688
321.309
361.839
390.662
411.105
423.245
427.678
434.154
427.55
148.955
147.217
198.757
228.809
238.572
240.812
237.723
232.548
227.421
223.181
219.574
214.996
219.15
185.16
191.839
194.628
192.808
185.616
179.121
174.646
172.34
171.972
172.688
173.927
257.899
180.459
170.82
164.776
157.157
150.485
147.174
146.965
149.539
154.208
160.309
166.98
269.389
163.945
148.287
140.801
133.92
130.491
130.194
132.936
138.268
145.669
154.677
164.614
262.5
148.253
130.316
122.992
118.346
117.282
118.899
123.295
129.91
138.463
148.783
160.577
247.503
134.879
117.112
110.064
107.271
107.392
110.141
115.027
121.589
129.694
139.541
151.349
229.964
124.435
107.891
101.172
99.3187
100.059
102.944
107.36
112.811
119.249
127.171
137.359
204.001
118.038
103.871
96.093
94.1492
94.8119
97.1239
100.449
104.259
108.555
114.01
121.767
183.143
115.4
106.033
96.4542
92.5287
91.7567
92.6483
94.5385
96.6604
99.0986
102.623
108.394
144.985
115.875
108.603
98.4518
92.9776
90.3459
89.5454
89.7972
90.5015
91.8506
94.7695
99.8513
156.006
127.534
118.821
104.052
95.138
90.4686
87.588
86.4507
86.4698
87.6136
91.2715
96.042
415.977
395.888
366.707
332.509
294.028
252.984
210.827
167.622
124.898
86.8582
55.9574
71.9796
209.904
202.38
192.138
179.949
167.047
155.385
148.838
147.865
153.594
163.393
176.904
225.243
174.985
174.238
170.37
163.684
154.906
146.137
142.434
143.178
153.027
176.523
224.64
343.467
172.966
176.284
177.116
174.21
167.29
158.223
151.49
149.695
157.698
183.662
252.48
444.079
174.412
182.574
186.72
187.318
182.803
174.682
166.497
162.891
169.032
195.532
272.709
530.654
172.957
184.382
192.919
197.111
197.064
191.887
184.503
180.266
185.462
212.103
295.382
613.862
164.78
178.469
190.597
198.967
202.776
202.427
199.336
197.15
203.068
230.079
318.048
698.976
150.09
164.233
178.014
190.244
199.572
204.46
205.686
207.976
217.644
247.422
341.482
794.419
132.54
145.187
157.921
170.856
183.721
194.598
202.962
210.783
224.964
258.483
359.497
880.704
116.936
126.586
135.287
144.938
157.586
171.571
185.47
200.264
221.299
261.615
372.802
965.232
106.202
111.475
114.007
117.495
126.098
139.449
155.536
174.57
200.507
246.262
370.817
1055.7
98.4532
97.1026
93.2355
90.737
94.31
104.666
119.311
138.606
165.018
211.45
344.292
1140.43
37.6686
61.7339
170.257
265.634
322.069
362.578
391.882
413.099
425.916
429.941
436.372
429.532
149.93
148.058
199.741
229.588
239.294
241.52
238.566
233.577
228.484
224.071
220.428
215.808
220.233
186.332
192.871
195.532
193.596
186.384
179.922
175.459
173.134
172.735
173.455
174.705
259.888
181.686
171.898
165.682
157.969
151.258
147.932
147.714
150.284
154.972
161.115
167.844
271.762
165.181
149.318
141.697
134.728
131.257
130.937
133.664
139.002
146.452
155.523
165.555
264.434
149.407
131.3
123.856
119.133
118.028
119.614
123.984
130.615
139.202
149.609
161.506
250.188
136.065
118.045
110.895
108.024
108.104
110.802
115.661
122.212
130.343
140.247
152.165
231.707
125.477
108.807
101.967
100.039
100.722
103.553
107.922
113.337
119.764
127.709
137.972
206.16
119.123
104.718
96.8486
94.8337
95.4352
97.6844
100.946
104.697
108.948
114.392
122.189
185.494
116.611
106.927
97.2157
93.1915
92.3396
93.1683
94.9848
97.034
99.4132
102.917
108.719
146.696
117.119
109.571
99.2304
93.6416
90.8978
90.0114
90.2009
90.8336
92.1332
95.0542
100.18
157.929
129.066
119.984
104.884
95.8049
91.003
88.0136
86.7985
86.7807
87.9027
91.5915
96.3907
417.809
397.508
367.996
333.638
294.804
253.591
211.172
167.807
124.96
86.8669
55.9449
72.0189
210.696
203.135
192.836
180.585
167.595
155.842
149.214
148.199
153.867
163.646
177.119
225.464
175.777
175.031
171.146
164.419
155.575
146.695
142.92
143.594
153.383
176.862
224.994
343.956
173.891
177.25
178.095
175.163
168.168
158.992
152.123
150.237
158.139
184.055
252.909
444.8
175.451
183.705
187.886
188.48
183.886
175.635
167.277
163.539
169.549
195.97
273.183
531.554
174.026
185.569
194.184
198.394
198.299
193
185.433
181.028
186.069
212.618
295.892
614.958
165.736
179.578
191.829
200.256
204.049
203.604
200.364
198.007
203.775
230.655
318.65
700.132
150.825
165.108
179.02
191.362
200.754
205.615
206.736
208.877
218.393
248.073
342.149
795.691
133.046
145.784
158.593
171.633
184.619
195.568
203.926
211.668
225.741
259.158
360.208
881.869
117.312
126.987
135.644
145.318
158.084
172.205
186.19
201.002
222
262.289
373.508
966.252
106.546
111.765
114.129
117.551
126.219
139.714
155.937
175.061
201.035
246.798
371.422
1056.91
98.7143
97.2358
93.1318
90.585
94.1919
104.667
119.44
138.845
165.326
211.802
344.788
1141.35
37.1406
60.4111
168.569
264.773
321.506
361.689
390.568
411.724
423.981
428.541
435.124
428.265
148.776
147.905
199.331
229.459
239.147
241.222
238.129
233.167
227.955
223.655
219.961
215.322
220.051
185.945
192.518
195.299
193.429
186.143
179.622
175.139
172.75
172.31
172.977
174.168
257.036
181.113
171.495
165.459
157.781
151.041
147.657
147.391
149.849
154.446
160.496
167.147
270.696
164.579
148.926
141.474
134.549
131.033
130.67
133.293
138.525
145.856
154.817
164.74
261.333
148.764
130.954
123.662
118.95
117.825
119.333
123.616
130.134
138.61
148.873
160.645
237.723
134.781
117.705
110.73
107.868
107.926
110.561
115.338
121.799
129.816
139.589
151.347
223.884
124.077
108.436
101.821
99.9203
100.588
103.372
107.682
113.032
119.374
127.204
137.311
200.465
117.759
104.401
96.7581
94.7648
95.3584
97.5764
100.803
104.515
108.712
114.067
121.728
181.424
115.154
106.593
97.1403
93.1851
92.3282
93.1382
94.9307
96.9581
99.2992
102.728
108.414
143.373
115.582
109.101
99.1506
93.655
90.9517
90.0513
90.2258
90.8382
92.0932
94.9241
99.9681
155.941
127.635
119.469
104.833
95.8546
91.0936
88.1172
86.8745
86.8385
87.9016
91.4759
96.2559
416.662
396.811
367.42
333.338
294.677
253.65
211.326
168.047
125.179
87.0346
56.0572
72.1103
210.185
202.684
192.458
180.303
167.415
155.771
149.22
148.245
153.963
163.758
177.257
225.658
175.201
174.468
170.639
164
155.26
146.513
142.819
143.566
153.416
176.92
225.077
344.096
173.159
176.53
177.396
174.548
167.687
158.648
151.916
150.116
158.106
184.074
252.958
444.857
174.566
182.786
187.004
187.594
183.247
175.165
166.98
163.359
169.477
195.968
273.21
531.539
173.046
184.535
193.177
197.444
197.507
192.411
185.042
180.791
185.96
212.586
295.903
614.846
164.772
178.501
190.713
199.21
203.135
202.883
199.861
197.711
203.623
230.62
318.634
700.019
149.994
164.131
177.939
190.248
199.73
204.804
206.149
208.503
218.22
248.028
342.174
795.593
132.43
145.034
157.717
170.629
183.589
194.665
203.241
211.23
225.515
259.098
360.229
881.813
116.899
126.509
135.098
144.598
157.212
171.34
185.466
200.495
221.718
262.169
373.515
966.229
106.291
111.543
113.945
117.214
125.636
139.011
155.254
174.522
200.698
246.623
371.399
1056.63
98.6575
97.2721
93.2273
90.536
93.8777
104.165
118.866
138.317
164.947
211.561
344.706
1141.04
410.725
225.574
151.375
117.841
101.567
92.846
88.1068
85.4739
85.6185
88.3273
92.8589
94.038
311.519
270.244
199.065
146.782
116.222
99.222
89.9915
85.3475
85.7931
89.8806
90.9976
87.5919
201.034
217.109
196.685
159.416
129.244
108.07
94.1589
87.0321
88.6104
89.4317
84.6762
71.3329
139.895
159.975
165.508
153.808
130.914
111.911
100.526
97.042
92.7611
81.6091
61.1284
39.2557
90.9434
81.7896
70.8061
65.2591
66.5246
73.4238
84.6568
100.838
123.106
158.702
242.313
576.148
75.7346
59.5584
49.3684
45.8751
47.1629
51.5827
59.003
70.5456
86.9996
111.647
156.599
282.512
50.8208
39.4427
36.1773
36.5078
38.136
40.9748
45.4657
52.6563
63.4271
79.903
105.106
162.27
31.0437
30.8928
31.9387
33.5846
35.3536
37.8391
41.4416
46.7295
54.4367
66.0671
83.1178
112.479
408.597
224.156
150.425
117.316
101.116
92.3302
87.464
84.5102
84.4782
86.7645
90.9
92.0569
310.469
269.033
198.087
146.166
115.795
98.7418
89.432
84.3682
84.5289
88.0962
89.1469
85.9613
200.595
216.28
195.818
158.822
128.835
107.581
93.6788
86.1271
87.348
87.9389
83.3472
70.5541
139.597
159.43
164.773
153.138
130.428
111.448
99.8914
96.1024
91.6685
80.5732
60.5311
39.2333
89.2281
80.9442
70.3639
65.0695
66.4854
73.5792
84.9111
101.105
123.34
158.995
242.85
577.747
74.7479
59.359
49.1659
45.7156
47.0972
51.6585
59.1867
70.7881
87.2548
111.92
156.981
283.138
50.6041
39.3541
36.0143
36.3397
38.0404
40.968
45.5464
52.8087
63.6273
80.1332
105.392
162.643
30.9288
30.7083
31.7456
33.4272
35.2586
37.8127
41.4808
46.8312
54.5856
66.2567
83.3576
112.771
410.205
225.859
151.786
118.181
101.749
92.8153
87.8476
84.8138
84.765
87.0775
91.2538
92.3503
311.456
270.083
198.979
146.82
116.249
99.0898
89.7216
84.63
84.7951
88.4254
89.4479
86.1482
201.115
217.04
196.56
159.322
129.162
107.82
93.8503
86.3115
87.5627
88.1834
83.5047
70.4444
139.965
159.947
165.357
153.641
130.741
111.643
100.004
96.2501
91.8695
80.7082
60.4999
39.0676
89.3936
80.7876
70.1251
64.8816
66.3462
73.5138
84.9173
101.184
123.473
159.148
243.04
578.357
74.6514
59.0765
48.98
45.6549
47.0775
51.6565
59.1923
70.8122
87.2959
111.96
156.994
283.189
50.4154
39.2402
36.0438
36.4041
38.1047
41.0115
45.5673
52.8175
63.6306
80.1221
105.342
162.554
30.9268
30.811
31.8811
33.5464
35.3427
37.8617
41.4988
46.8238
54.5607
66.2104
83.2713
112.643
410.845
226
151.834
118.317
101.911
92.9826
88.0022
84.9242
84.8473
87.0534
91.1824
92.3815
311.455
270.202
199.336
147.261
116.63
99.3908
89.9539
84.7676
84.8934
88.4095
89.5243
86.3644
200.894
216.873
196.665
159.571
129.481
108.11
94.106
86.4615
87.6369
88.3228
83.7722
70.9864
139.737
159.662
165.113
153.571
130.875
111.79
100.139
96.3391
92.037
81.032
60.9992
39.4476
89.5462
81.1364
70.351
64.8597
66.1614
73.162
84.4674
100.717
123.083
158.859
242.88
578.327
75.1038
59.4714
49.1167
45.5832
46.9244
51.411
58.873
70.4468
86.9475
111.687
156.814
283.142
50.7998
39.3989
35.9933
36.2997
37.9779
40.8616
45.3818
52.5888
63.3773
79.8984
105.194
162.537
30.9754
30.737
31.7555
33.4367
35.2497
37.7691
41.3944
46.6988
54.4166
66.0782
83.1978
112.67
127.542
135.748
135.467
126.336
111.129
100.638
93.6489
79.0999
53.4585
35.8516
25.8808
19.898
115.259
117.868
113.722
104.49
95.0111
86.9041
72.4237
49.4998
31.683
22.5845
18.144
17.2903
105.604
105.346
99.6164
91.8526
83.7715
71.662
52.3854
33.8503
23.0336
17.9082
15.6924
17.1631
98.4168
96.2896
89.8969
81.9955
71.7432
56.0423
38.107
25.3233
18.7373
15.5625
14.4567
20.1098
24.9527
30.0102
31.5553
33.2588
35.8727
39.7934
45.2192
51.9878
60.6051
72.3626
88.7899
110.511
23.8384
26.8464
28.5632
31.173
34.9579
40.1285
46.7546
54.8255
64.4602
76.3797
91.1777
106.665
23.224
23.6493
25.7036
28.9679
33.4989
39.5503
47.0711
55.9957
66.2596
78.0609
91.2004
101.522
24.7054
20.3803
22.6137
26.2206
31.1196
37.6197
45.7212
55.2258
65.8885
77.5529
89.4793
96.2883
127.127
135.189
134.771
125.632
110.573
99.8985
92.5485
77.8277
52.7935
35.5481
25.7248
19.8526
114.832
117.373
113.144
103.888
94.3162
85.8147
71.1372
48.7183
31.3527
22.4118
18.028
17.2179
105.212
104.927
99.1342
91.2423
82.8968
70.5068
51.4549
33.3972
22.8256
17.7748
15.5862
17.0843
97.9938
95.8554
89.392
81.2916
70.7872
55.0832
37.5167
25.051
18.5911
15.4529
14.3628
20.0092
24.782
29.7436
31.3828
33.1526
35.8153
39.7854
45.2639
52.0869
60.7521
72.5519
89.0218
110.792
23.6869
26.6548
28.433
31.0843
34.9053
40.1172
46.7918
54.9178
64.6051
76.5718
91.4119
106.954
23.0918
23.5056
25.5992
28.8874
33.4453
39.534
47.105
56.0902
66.4147
78.2743
91.4619
101.821
24.6351
20.2948
22.5374
26.1545
31.0728
37.6065
45.7586
55.3273
66.0575
77.7877
89.7746
96.6188
127.506
135.647
135.269
126.067
110.819
100.122
92.8625
78.2546
53.0256
35.6534
25.8037
19.9055
115.181
117.752
113.516
104.196
94.5832
86.2279
71.6624
49.0864
31.5465
22.5435
18.1509
17.321
105.527
105.237
99.427
91.546
83.2899
71.0549
51.9499
33.6933
23.0004
17.9123
15.7216
17.2067
98.3235
96.1664
89.702
81.6788
71.301
55.6409
37.9195
25.2825
18.7412
15.5804
14.4928
20.1818
24.884
29.9825
31.5348
33.245
35.8647
39.7943
45.2394
52.0301
60.6697
72.4422
88.8742
110.585
23.7764
26.8094
28.5334
31.1479
34.9333
40.1091
46.744
54.8257
64.4746
76.4029
91.1987
106.681
23.1609
23.599
25.6644
28.9329
33.4622
39.5138
47.0406
55.9688
66.2404
78.0453
91.1778
101.49
24.628
20.325
22.5711
26.1818
31.0783
37.5755
45.6776
55.1845
65.8527
77.5186
89.4362
96.2278
127.224
135.337
134.985
125.807
110.85
100.118
92.87
78.4176
53.2763
35.7856
25.8502
19.8909
114.867
117.436
113.249
103.978
94.4815
86.0783
71.601
49.1486
31.5718
22.5045
18.0803
17.2411
105.185
104.915
99.1482
91.2733
83.0365
70.8028
51.8176
33.6289
22.9258
17.8196
15.6206
17.109
97.9286
95.7996
89.3613
81.3148
70.9397
55.3449
37.7432
25.1676
18.6396
15.4792
14.3906
20.044
24.7662
29.7773
31.4223
33.1807
35.8185
39.7594
45.2019
51.9881
60.6282
72.4252
88.916
110.733
23.6696
26.6763
28.4607
31.1091
34.9157
40.1031
46.7492
54.8435
64.5109
76.474
91.3178
106.906
23.0737
23.5147
25.6203
28.9121
33.4637
39.5352
47.0799
56.0372
66.343
78.194
91.3547
101.77
24.6169
20.2921
22.552
26.1773
31.0956
37.619
45.7504
55.2945
66.0067
77.726
89.6801
96.5788
92.0685
88.857
81.6563
72.1872
59.4035
43.2361
28.961
20.338
16.0604
13.8281
13.223
23.7223
85.2057
81.3714
73.294
62.2814
48.4381
33.922
23.1227
17.1262
14.135
12.3793
11.6645
20.7082
77.2024
73.059
64.4854
52.8458
39.487
27.3461
19.2084
14.8598
12.6395
11.1752
10.3336
17.421
68.1645
63.9852
55.5485
44.3208
32.427
22.6223
16.4167
13.1433
11.4296
10.1806
9.2413
14.8721
58.6122
54.6372
46.9677
36.9045
26.8914
19.1151
14.316
11.7807
10.4301
9.36233
8.33522
12.4537
49.2188
45.6853
39.1589
30.6533
22.5499
16.4421
12.683
10.6746
9.59735
8.68873
7.57141
10.238
40.6371
37.7222
32.4376
25.5654
19.1768
14.3954
11.4086
9.78085
8.90633
8.13076
6.9164
8.11621
33.4654
31.1693
27.0258
21.6282
16.6478
12.8801
10.4545
9.09101
8.34839
7.66002
6.34228
6.06827
28.0893
26.3088
23.0666
18.8579
14.9336
11.9003
9.88
8.67542
7.95806
7.26373
5.80945
4.12671
24.9415
23.4957
20.8499
17.4737
14.2413
11.6488
9.81383
8.6123
7.80344
7.00869
5.18189
2.40863
25.7981
24.3177
21.8611
18.7803
15.698
13.1342
11.1393
9.6498
8.4108
7.08372
4.58847
1.13519
48.8167
46.1857
41.9962
36.662
31.0738
25.5209
20.7425
16.8021
13.2412
9.48765
4.67967
1.65744
29.3795
17.5826
19.6437
23.25
28.1254
34.6369
42.8728
52.6264
63.5206
74.9883
85.5187
90.6415
24.5478
14.8735
16.8759
20.278
24.8347
30.9867
38.9178
48.4423
59.0839
70.0771
79.4881
83.9367
19.7689
12.3991
14.3912
17.4768
21.5345
27.0643
34.3358
43.2218
53.2179
63.4575
71.881
75.9835
16.0217
10.3678
12.2667
14.9789
18.4551
23.2214
29.603
37.543
46.566
55.7908
63.2403
67.0437
12.9327
8.72016
10.5224
12.8575
15.7502
19.7244
25.1217
31.9441
39.7794
47.7985
54.2366
57.6831
10.2846
7.41216
9.14646
11.1381
13.503
16.7442
21.1848
26.8586
33.4274
40.1575
45.5519
48.562
7.98493
6.39293
8.11113
9.81682
11.7454
14.3705
17.9709
22.584
27.9378
33.4096
37.7832
40.2957
5.928
5.6234
7.38793
8.88282
10.4886
12.6458
15.5756
19.2969
23.5869
27.9312
31.3738
33.3621
4.07726
5.07686
7.0073
8.40983
9.81514
11.6356
14.0809
17.1224
20.5577
23.9624
26.623
28.123
2.4636
4.6678
6.92322
8.40336
9.81975
11.5383
13.7412
16.3561
19.1811
21.8624
23.925
25.0129
1.21063
4.40952
7.46322
9.54659
11.3974
13.3973
15.7376
18.3281
20.9351
23.2648
25.0041
25.8743
1.74611
4.97542
10.9263
16.4411
21.6857
26.9908
32.277
37.2567
41.8536
45.383
47.6932
48.7586
91.5657
88.3273
81.0383
71.3981
58.5116
42.5337
28.5887
20.1608
15.9509
13.7377
13.142
23.6283
84.6058
80.7179
72.5639
61.4702
47.679
33.4198
22.8729
16.9998
14.0475
12.3015
11.5976
20.6355
76.5401
72.3224
63.7011
52.076
38.8671
26.9773
19.0271
14.7617
12.5648
11.1039
10.2698
17.3553
67.4905
63.2334
54.779
43.6311
31.9259
22.3392
16.275
13.0613
11.3621
10.1117
9.17729
14.8062
57.9787
53.9391
46.2681
36.3154
26.4879
18.8898
14.1989
11.7083
10.3665
9.2935
8.26795
12.3932
48.6525
45.0841
38.5609
30.1674
22.2248
16.2574
12.5817
10.6079
9.53546
8.61863
7.49935
10.1783
40.1708
37.2321
31.9505
25.1751
18.9145
14.2403
11.3178
9.71728
8.84498
8.05908
6.83846
8.06079
33.0857
30.7775
26.6386
21.3162
16.433
12.7457
10.3698
9.02823
8.28646
7.58713
6.25811
6.01743
27.7696
25.9884
22.7562
18.6031
14.7526
11.7796
9.79649
8.60939
7.89305
7.18928
5.72388
4.08161
24.6474
23.2175
20.5861
17.2531
14.076
11.53
9.72564
8.54004
7.73426
6.93202
5.10029
2.37025
25.4913
24.0305
21.5965
18.5538
15.5195
12.9957
11.0301
9.55616
8.32614
6.99879
4.5055
1.06748
48.2545
45.6457
41.4934
36.2201
30.7069
25.2308
20.5277
16.6208
13.0999
9.37507
4.5657
0.333427
29.315
17.5332
19.5901
23.2001
28.0901
34.6322
42.9183
52.7389
63.7092
75.2558
85.8663
91.0284
24.5119
14.842
16.8393
20.243
24.8119
30.992
38.972
48.5653
59.2896
70.3721
79.886
84.3856
19.7418
12.3787
14.367
17.4542
21.5228
27.0783
34.3963
43.351
53.4338
63.7728
72.3136
76.4823
16.0096
10.355
12.2515
14.9657
18.4518
23.2412
29.6658
37.6719
46.7822
56.1111
63.688
67.5678
12.9218
8.71199
10.5134
12.8511
15.7527
19.7471
25.1827
32.0663
39.9855
48.1085
54.6734
58.2039
10.2787
7.40699
9.14161
11.1364
13.5091
16.7675
21.241
26.969
33.6148
40.4424
45.9574
49.0518
7.9775
6.38927
8.10892
9.81815
11.7535
14.393
18.0208
22.6802
28.1012
33.6607
38.1417
40.735
5.92181
5.62035
7.38727
8.88598
10.4977
12.667
15.6192
19.379
23.7257
28.1452
31.6797
33.7416
4.07088
5.07351
7.00694
8.41373
9.82458
11.6557
14.1191
17.1932
20.6751
24.1438
26.8797
28.4436
2.45941
4.66345
6.92249
8.40674
9.82862
11.5571
13.7764
16.4196
19.2858
22.0205
24.1448
25.2878
1.20812
4.40411
7.46033
9.54719
11.4036
13.4153
15.7738
18.3936
21.0431
23.4225
25.2153
26.1414
1.74193
4.96892
10.9165
16.4285
21.6777
27.0042
32.3357
37.3628
42.0475
45.6573
48.0487
49.22
91.9526
88.7053
81.4418
71.8909
59.0792
43.0349
28.9089
20.3462
16.0797
13.8515
13.2574
23.8113
85.0725
81.1953
73.074
62.0396
48.2455
33.853
23.1336
17.154
14.1603
12.4037
11.6938
20.7658
77.0775
72.8881
64.2929
52.6796
39.4015
27.3507
19.2465
14.8946
12.6661
11.1991
10.359
17.4729
68.0724
63.8523
55.4092
44.2305
32.4139
22.6635
16.4648
13.1791
11.4553
10.2026
9.26305
14.9066
58.5684
54.5651
46.8939
36.8797
26.9234
19.1728
14.3663
11.815
10.4538
9.38206
8.35358
12.4837
49.2151
45.6755
39.1459
30.6763
22.6062
16.5051
12.7313
10.7063
9.61831
8.70551
7.5861
10.2552
40.6779
37.7591
32.4705
25.6179
19.2436
14.4574
11.4532
9.80934
8.92446
8.14436
6.92677
8.12848
33.5216
31.2277
27.0843
21.6936
16.7154
12.9375
10.4942
9.1161
8.36371
7.67017
6.34758
6.07175
28.1345
26.3657
23.1338
18.9226
14.9972
11.9511
9.91463
8.69675
7.97043
7.27005
5.81038
4.12578
24.9554
23.5424
20.912
17.5331
14.2979
11.6934
9.84386
8.63066
7.81297
7.01108
5.17832
2.4029
25.7946
24.3506
21.9126
18.8341
15.7521
13.1757
11.1665
9.665
8.41477
7.07989
4.57306
1.12824
48.7928
46.2205
42.0669
36.7435
31.16
25.588
20.7752
16.8134
13.2296
9.46201
4.6477
1.63957
29.2815
17.5307
19.6029
23.2124
28.0853
34.5927
42.8261
52.5793
63.4754
74.943
85.4632
90.5749
24.4805
14.8303
16.8405
20.2446
24.7992
30.9471
38.8749
48.3984
59.0413
70.0357
79.4434
83.8863
19.7163
12.3656
14.3622
17.4491
21.505
27.0315
34.3002
43.1858
53.1844
63.4285
71.8576
75.9615
15.9881
10.3425
12.2441
14.9568
18.4317
23.1958
29.5758
37.5167
46.5441
55.7773
63.2409
67.0528
12.9052
8.70137
10.5053
12.8407
15.7323
19.7054
25.1024
31.9272
39.7688
47.7996
54.2576
57.7181
10.265
7.39888
9.1342
11.1259
13.49
16.731
21.1723
26.8497
33.4261
40.1697
45.5868
48.6141
7.96868
6.38424
8.10297
9.8087
11.7365
14.3622
17.9639
22.5815
27.9431
33.429
37.8251
40.3564
5.91625
5.61865
7.38325
8.8781
10.4832
12.6415
15.5729
19.299
23.5967
27.9541
31.4171
33.4242
4.06778
5.0753
7.00544
8.40785
9.81215
11.635
14.0814
17.1283
20.5699
23.987
26.6645
28.1811
2.45976
4.6679
6.92352
8.40313
9.81917
11.5402
13.7447
16.3648
19.1958
21.8875
23.9638
25.0653
1.21006
4.40975
7.46561
9.54809
11.3984
13.4021
15.7442
18.3404
20.9536
23.2928
25.0424
25.9242
1.74809
4.97492
10.9297
16.4419
21.6885
26.9995
32.2954
37.2818
41.895
45.436
47.7572
48.835
91.4932
88.2667
81.0149
71.4496
58.6716
42.7316
28.7217
20.2213
15.9766
13.7555
13.1639
23.6626
84.5541
80.6865
72.5797
61.5581
47.8325
33.5628
22.9541
17.0343
14.0637
12.3157
11.6139
20.6596
76.5253
72.3363
63.7629
52.1919
39.0075
27.0837
19.0818
14.7847
12.5775
11.1172
10.2846
17.3726
67.5158
63.2915
54.8779
43.7616
32.0516
22.4232
16.3163
13.0794
11.3739
10.1254
9.19202
14.8227
58.037
54.0292
46.3886
36.4479
26.5993
18.9595
14.2332
11.7245
10.3784
9.30781
8.28337
12.407
48.7325
45.189
38.6877
30.2925
22.3222
16.317
12.6119
10.6233
9.54755
8.63339
7.51556
10.1922
40.2591
37.3378
32.0712
25.2867
18.9983
14.2919
11.3451
9.7321
8.85704
8.07379
6.85521
8.07317
33.1712
30.8748
26.746
21.4121
16.5042
12.7906
10.3948
9.0425
8.29823
7.60116
6.27496
6.02902
27.8458
26.0732
22.8481
18.6838
14.813
11.8186
9.81943
8.6232
7.90441
7.20228
5.73968
4.091
24.7124
23.2907
20.6643
17.3217
14.1285
11.5651
9.74737
8.55382
7.74523
6.94381
5.114
2.37682
25.5535
24.1004
21.6686
18.618
15.5702
13.0308
11.0526
9.57162
8.33723
7.009
4.51601
1.07066
48.3542
45.7594
41.6108
36.3265
30.7952
25.2931
20.56
16.6444
13.1105
9.38289
4.57423
0.334375
29.2854
17.5265
19.6011
23.221
28.1155
34.6537
42.926
52.7287
63.6862
75.2224
85.8211
91.0294
24.4947
14.8375
16.8489
20.2624
24.8385
31.0203
38.994
48.5769
59.2962
70.3801
79.9097
84.4417
19.7379
12.3781
14.3766
17.4723
21.5493
27.1109
34.4296
43.3814
53.4671
63.8195
72.3934
76.5913
16.013
10.3578
12.2616
14.9825
18.4773
23.2758
29.7067
37.7167
46.8358
56.185
63.8031
67.7128
12.9296
8.71791
10.5243
12.8669
15.7765
19.7817
25.2279
32.1205
40.0524
48.1975
54.8037
58.3639
10.2875
7.41592
9.15386
11.1516
13.5315
16.8012
21.288
27.0285
33.6892
40.5378
46.0893
49.2156
7.98766
6.40149
8.12318
9.83381
11.7753
14.4259
18.0686
22.7427
28.18
33.7581
38.2665
40.8805
5.93053
5.63612
7.40416
8.90395
10.5205
12.7007
15.6686
19.4442
23.8084
28.2436
31.7976
33.8713
4.07828
5.09292
7.02805
8.43697
9.85067
11.6927
14.1734
17.2631
20.7641
24.2449
26.9948
28.5631
2.46488
4.68515
6.94673
8.43496
9.86126
11.6025
13.841
16.5015
19.3863
22.1317
24.2647
25.406
1.2129
4.42485
7.48977
9.58208
11.4506
13.4797
15.8634
18.5034
21.172
23.5613
25.3594
26.2719
1.75529
4.98949
10.9559
16.4915
21.7783
27.1584
32.5498
37.6246
42.342
45.9717
48.3624
49.482
)
;

boundaryField
{
    rotor
    {
        Cmu             0.09;
        kappa           0.41;
        E               9.8;
        type            epsilonWallFunction;
        value           nonuniform List<scalar> 
192
(
33.5838
55.7626
164.736
262.595
320.051
360.504
389.619
410.408
422.736
426.932
433.398
426.232
414.493
395.13
365.022
331.952
292.44
252.532
209.572
167.21
124.16
86.5904
55.6475
71.7016
37.2309
61.1358
169.278
264.688
321.309
361.839
390.662
411.105
423.245
427.678
434.154
427.55
415.977
395.888
366.707
332.509
294.028
252.984
210.827
167.622
124.898
86.8582
55.9574
71.9796
37.6686
61.7339
170.257
265.634
322.069
362.578
391.882
413.099
425.916
429.941
436.372
429.532
417.809
397.508
367.996
333.638
294.804
253.591
211.172
167.807
124.96
86.8669
55.9449
72.0189
37.1406
60.4111
168.569
264.773
321.506
361.689
390.568
411.724
423.981
428.541
435.124
428.265
416.662
396.811
367.42
333.338
294.677
253.65
211.326
168.047
125.179
87.0346
56.0572
72.1103
33.5838
143.539
214.768
253.85
266.128
259.359
245.733
226.567
200.296
180.155
142.697
154.778
72.1103
225.658
344.096
444.857
531.539
614.846
700.019
795.593
881.813
966.229
1056.63
1141.04
37.2309
148.955
219.15
257.899
269.389
262.5
247.503
229.964
204.001
183.143
144.985
156.006
71.7016
224.453
342.319
442.641
528.955
611.992
696.825
792.057
877.941
961.986
1052.04
1136.03
37.6686
149.93
220.233
259.888
271.762
264.434
250.188
231.707
206.16
185.494
146.696
157.929
71.9796
225.243
343.467
444.079
530.654
613.862
698.976
794.419
880.704
965.232
1055.7
1140.43
37.1406
148.776
220.051
257.036
270.696
261.333
237.723
223.884
200.465
181.424
143.373
155.941
72.0189
225.464
343.956
444.8
531.554
614.958
700.132
795.691
881.869
966.252
1056.91
1141.35
)
;
    }
    stator
    {
        Cmu             0.09;
        kappa           0.41;
        E               9.8;
        type            epsilonWallFunction;
        value           nonuniform List<scalar> 
192
(
48.8167
46.1857
41.9962
36.662
31.0738
25.5209
20.7425
16.8021
13.2412
9.48765
4.67967
1.65744
1.74611
4.97542
10.9263
16.4411
21.6857
26.9908
32.277
37.2567
41.8536
45.383
47.6932
48.7586
48.2545
45.6457
41.4934
36.2201
30.7069
25.2308
20.5277
16.6208
13.0999
9.37507
4.5657
0.333427
1.74193
4.96892
10.9165
16.4285
21.6777
27.0042
32.3357
37.3628
42.0475
45.6573
48.0487
49.22
48.7928
46.2205
42.0669
36.7435
31.16
25.588
20.7752
16.8134
13.2296
9.46201
4.6477
1.63957
1.74809
4.97492
10.9297
16.4419
21.6885
26.9995
32.2954
37.2818
41.895
45.436
47.7572
48.835
48.3542
45.7594
41.6108
36.3265
30.7952
25.2931
20.56
16.6444
13.1105
9.38289
4.57423
0.334375
1.75529
4.98949
10.9559
16.4915
21.7783
27.1584
32.5498
37.6246
42.342
45.9717
48.3624
49.482
29.3795
24.5478
19.7689
16.0217
12.9327
10.2846
7.98493
5.928
4.07726
2.4636
1.21063
1.74611
23.7223
20.7082
17.421
14.8721
12.4537
10.238
8.11621
6.06827
4.12671
2.40863
1.13519
1.65744
29.315
24.5119
19.7418
16.0096
12.9218
10.2787
7.9775
5.92181
4.07088
2.45941
1.20812
1.74193
23.6283
20.6355
17.3553
14.8062
12.3932
10.1783
8.06079
6.01743
4.08161
2.37025
1.06748
0.333427
29.2815
24.4805
19.7163
15.9881
12.9052
10.265
7.96868
5.91625
4.06778
2.45976
1.21006
1.74809
23.8113
20.7658
17.4729
14.9066
12.4837
10.2552
8.12848
6.07175
4.12578
2.4029
1.12824
1.63957
29.2854
24.4947
19.7379
16.013
12.9296
10.2875
7.98766
5.93053
4.07828
2.46488
1.2129
1.75529
23.6626
20.6596
17.3726
14.8227
12.407
10.1922
8.07317
6.02902
4.091
2.37682
1.07066
0.334375
)
;
    }
    front
    {
        type            empty;
    }
    back
    {
        type            empty;
    }
}


// ************************************************************************* //
