/*--------------------------------*- C++ -*----------------------------------*\
  =========                 |
  \\      /  F ield         | OpenFOAM: The Open Source CFD Toolbox
   \\    /   O peration     | Website:  https://openfoam.org
    \\  /    A nd           | Version:  6
     \\/     M anipulation  |
\*---------------------------------------------------------------------------*/
FoamFile
{
    version     2.0;
    format      ascii;
    class       volScalarField;
    location    "50";
    object      k;
}
// * * * * * * * * * * * * * * * * * * * * * * * * * * * * * * * * * * * * * //

dimensions      [0 2 -2 0 0 0 0];

internalField   nonuniform List<scalar> 
3072
(
0.149054
0.292913
0.618112
0.862893
0.99383
1.08076
1.14165
1.18413
1.21067
1.22405
1.23485
1.22446
0.416355
0.743186
0.909074
1.17253
1.3988
1.59705
1.78105
1.94255
2.08793
2.21502
2.3184
2.38948
0.590662
1.14292
1.33128
1.61505
1.84554
2.02317
2.16948
2.29535
2.40935
2.5144
2.60868
2.68695
0.700751
1.30552
1.53494
1.79058
1.97771
2.12364
2.2516
2.37409
2.49678
2.62134
2.74523
2.86214
0.764165
1.35452
1.60203
1.8267
1.99224
2.12885
2.2552
2.38104
2.5115
2.64832
2.79033
2.93256
0.78864
1.34222
1.59887
1.8128
1.97209
2.10541
2.22955
2.35302
2.48068
2.61631
2.76287
2.91892
0.796058
1.31749
1.57692
1.77198
1.923
2.05306
2.17401
2.29126
2.40824
2.53014
2.66321
2.81373
0.787755
1.2746
1.53232
1.71404
1.86352
1.99146
2.10594
2.21026
2.307
2.40204
2.50549
2.62955
0.755227
1.2072
1.49011
1.65967
1.80609
1.92883
2.03303
2.12065
2.19314
2.25638
2.32203
2.40611
0.730879
1.13951
1.46004
1.61966
1.75284
1.86419
1.95465
2.02474
2.07482
2.1111
2.14496
2.19141
0.647238
0.999015
1.38945
1.56282
1.68794
1.78713
1.86313
1.91799
1.95178
1.97322
1.99124
2.01418
0.718046
0.948736
1.31487
1.48832
1.60269
1.68908
1.75225
1.7954
1.82038
1.8419
1.85942
1.86451
1.20259
1.16672
1.10985
1.04389
0.961928
0.874038
0.773372
0.666029
0.546271
0.430169
0.320144
0.253303
2.41884
2.41128
2.36576
2.27917
2.15622
2.00559
1.83316
1.64378
1.42182
1.09831
0.740566
0.58385
2.74135
2.75949
2.74673
2.68196
2.56951
2.41949
2.24359
2.05528
1.85493
1.59624
1.17008
0.827029
2.96107
3.02482
3.04406
3.01742
2.9296
2.79203
2.62137
2.43583
2.24537
2.01616
1.61993
1.04267
3.06622
3.17687
3.24069
3.25429
3.2068
3.09977
2.95234
2.78524
2.61399
2.41417
2.05397
1.24075
3.07662
3.22033
3.33279
3.39618
3.40897
3.35674
3.25192
3.12099
2.98018
2.80813
2.48621
1.43853
2.97963
3.14823
3.30169
3.42
3.48749
3.50673
3.47994
3.4114
3.32148
3.18761
2.89865
1.6436
2.78011
2.94944
3.12438
3.29318
3.43746
3.53463
3.58179
3.6061
3.60266
3.5267
3.26232
1.87132
2.52035
2.66052
2.82166
3.00925
3.21439
3.40422
3.55912
3.67718
3.77515
3.79382
3.58354
2.08857
2.26133
2.3469
2.45272
2.61062
2.83913
3.09887
3.35256
3.59083
3.81273
3.94611
3.8312
2.30751
2.04275
2.06055
2.08517
2.17097
2.37414
2.66308
2.9806
3.31118
3.65769
3.95522
3.99051
2.54035
1.84783
1.79737
1.74761
1.7691
1.92044
2.18885
2.51235
2.88092
3.29654
3.73331
4.05391
2.76455
0.15637
0.310222
0.630089
0.868203
0.996874
1.08359
1.14363
1.18563
1.21203
1.22584
1.23686
1.22739
0.424892
0.754195
0.912109
1.1791
1.40373
1.60386
1.78659
1.94867
2.09437
2.22164
2.32519
2.39613
0.597044
1.14981
1.33961
1.62386
1.85216
2.02891
2.17448
2.3007
2.41488
2.52011
2.61449
2.6927
0.707564
1.31314
1.54314
1.79672
1.98138
2.12628
2.25402
2.37738
2.50061
2.62555
2.74965
2.86656
0.769906
1.3598
1.60681
1.82909
1.99315
2.12941
2.25564
2.3822
2.51345
2.65073
2.79305
2.93523
0.794986
1.3471
1.60249
1.81385
1.97159
2.1044
2.2285
2.35274
2.48104
2.61723
2.76397
2.92015
0.800078
1.32175
1.57897
1.77086
1.92033
2.04975
2.17096
2.28883
2.40662
2.52918
2.66277
2.81352
0.794073
1.27805
1.53247
1.71188
1.8597
1.98676
2.10113
2.20583
2.30322
2.3989
2.50293
2.62751
0.763241
1.21087
1.4899
1.65696
1.80141
1.92277
2.0263
2.11379
2.18646
2.24997
2.31591
2.40048
0.738996
1.14289
1.45959
1.6165
1.74737
1.85679
1.94588
2.01512
2.0646
2.10034
2.13364
2.1799
0.653396
1.00167
1.38815
1.55888
1.68146
1.7784
1.85248
1.9057
1.93794
1.9577
1.97402
1.99595
0.721791
0.946293
1.30796
1.48151
1.59468
1.67906
1.74004
1.78092
1.80319
1.82174
1.83669
1.84156
1.20537
1.16866
1.11317
1.04542
0.965251
0.875341
0.776329
0.667229
0.548359
0.431046
0.321273
0.253913
2.42512
2.41712
2.37117
2.28399
2.16067
2.00957
1.83694
1.64724
1.42504
1.10105
0.742304
0.585157
2.74684
2.76473
2.75158
2.68643
2.57369
2.42345
2.24742
2.05904
1.85858
1.59962
1.17274
0.828829
2.9653
3.02874
3.04779
3.02093
2.93304
2.79554
2.62502
2.43966
2.24933
2.02005
1.6232
1.04487
3.06867
3.17903
3.24279
3.25641
3.20916
3.10257
2.95562
2.78905
2.61821
2.41856
2.05789
1.24332
3.07766
3.22131
3.33371
3.3974
3.41055
3.35886
3.25482
3.12473
2.98465
2.81288
2.49074
1.44139
2.97962
3.14848
3.30233
3.42113
3.48925
3.50923
3.48312
3.41524
3.32609
3.19284
2.90361
1.64688
2.77886
2.94955
3.12597
3.29587
3.44073
3.53824
3.58597
3.61089
3.60785
3.53235
3.26807
1.87499
2.51616
2.65947
2.82436
3.01477
3.22116
3.41105
3.56551
3.68335
3.78163
3.80048
3.59004
2.09293
2.25137
2.34211
2.45479
2.6184
2.85
3.11011
3.36278
3.59981
3.82082
3.95411
3.83901
2.31276
2.0261
2.05097
2.08457
2.178
2.38744
2.67795
2.99457
3.32344
3.66819
3.96477
3.99985
2.54638
1.82761
1.78676
1.74697
1.77426
1.93292
2.20363
2.52761
2.89534
3.30917
3.74454
4.06451
2.77192
0.157359
0.31218
0.632444
0.870244
0.998661
1.0857
1.14678
1.18993
1.21694
1.22997
1.24094
1.23107
0.42661
0.757012
0.916092
1.18354
1.40893
1.61026
1.79382
1.95635
2.10222
2.22937
2.33282
2.40366
0.599076
1.15496
1.34625
1.63123
1.86033
2.03766
2.18345
2.30971
2.42387
2.52908
2.62356
2.70195
0.710822
1.31994
1.55138
1.80581
1.99098
2.136
2.26362
2.38679
2.50995
2.63499
2.75937
2.87671
0.774356
1.36764
1.61616
1.83914
2.00333
2.13941
2.26527
2.39147
2.52246
2.65987
2.8025
2.94533
0.798809
1.35523
1.61206
1.82404
1.98183
2.11428
2.23788
2.3614
2.48924
2.62515
2.77217
2.9289
0.805352
1.3294
1.5885
1.7811
1.93042
2.0592
2.17944
2.2963
2.41314
2.53513
2.66859
2.81984
0.798594
1.28622
1.54204
1.72175
1.86927
1.99551
2.10868
2.21201
2.30805
2.40266
2.50608
2.63068
0.768321
1.21803
1.4988
1.66631
1.81045
1.93091
2.0331
2.119
2.19004
2.25211
2.31703
2.40113
0.743536
1.15078
1.46836
1.62543
1.75603
1.86455
1.95228
2.01987
2.06763
2.10186
2.1341
2.17978
0.658744
1.00797
1.39616
1.56739
1.68989
1.78605
1.85883
1.91045
1.94105
1.95952
1.97516
1.99678
0.727029
0.952954
1.31645
1.48998
1.60297
1.6867
1.74653
1.78597
1.80677
1.82441
1.83919
1.84369
1.20887
1.17178
1.11579
1.04776
0.96697
0.876755
0.777205
0.66777
0.548598
0.431145
0.321304
0.254052
2.43251
2.42435
2.37808
2.29041
2.16639
2.01449
1.84097
1.65034
1.42726
1.10226
0.742981
0.585616
2.75626
2.77417
2.7608
2.69517
2.58165
2.43041
2.25325
2.06367
1.86209
1.60211
1.17417
0.829675
2.97596
3.03969
3.05877
3.03157
2.94291
2.80426
2.6324
2.44559
2.2539
2.02347
1.62554
1.04606
3.07944
3.19054
3.25463
3.26827
3.22036
3.11258
2.96419
2.79602
2.62366
2.42274
2.06097
1.2448
3.08751
3.23208
3.34531
3.40903
3.42199
3.36958
3.26421
3.13252
2.99083
2.81778
2.4944
1.44315
2.98687
3.15687
3.3115
3.43163
3.50004
3.51956
3.49259
3.42352
3.33295
3.19823
2.90784
1.64878
2.78265
2.95434
3.13198
3.30338
3.44949
3.54755
3.59489
3.61893
3.61491
3.53821
3.27242
1.87702
2.51683
2.66044
2.82597
3.01781
3.22615
3.41766
3.57296
3.69073
3.7882
3.80613
3.59455
2.09482
2.25082
2.3409
2.45276
2.61686
2.85047
3.11301
3.36753
3.60548
3.82653
3.95907
3.84318
2.31452
2.02629
2.04965
2.08122
2.17384
2.38427
2.67725
2.99625
3.32674
3.67226
3.96875
4.00329
2.54843
1.82885
1.78577
1.74359
1.76979
1.92862
2.2012
2.52709
2.89641
3.31126
3.74699
4.06729
2.77338
0.156286
0.307487
0.627605
0.867548
0.996723
1.08326
1.14382
1.18687
1.21334
1.22735
1.23838
1.2285
0.424579
0.755413
0.911579
1.17917
1.40338
1.60366
1.78696
1.94912
2.0947
2.22186
2.3253
2.39629
0.59868
1.15071
1.3392
1.62392
1.8528
2.03016
2.176
2.30204
2.41583
2.52061
2.61461
2.69268
0.706275
1.3137
1.54361
1.79809
1.98363
2.129
2.25666
2.37895
2.50128
2.62538
2.74882
2.86539
0.77192
1.36114
1.60873
1.83201
1.99664
2.13281
2.25866
2.38368
2.51359
2.6497
2.79107
2.93266
0.788883
1.34824
1.60487
1.81731
1.97554
2.1081
2.23134
2.35409
2.48081
2.61547
2.76083
2.91604
0.78212
1.32208
1.5819
1.77509
1.92487
2.05376
2.17376
2.29004
2.40607
2.52688
2.65886
2.80821
0.782318
1.27812
1.53601
1.71647
1.86448
1.99096
2.10415
2.20729
2.30294
2.39685
2.49907
2.62189
0.754431
1.21115
1.49372
1.66182
1.80641
1.92724
2.02971
2.11581
2.18695
2.24884
2.31308
2.39585
0.730217
1.14261
1.4631
1.62146
1.75251
1.86153
1.94973
2.01783
2.06605
2.10048
2.13245
2.17731
0.650208
1.00104
1.39131
1.56366
1.68662
1.78334
1.85677
1.90906
1.9403
1.95906
1.97453
1.99572
0.720696
0.947793
1.31214
1.48668
1.59993
1.68418
1.74471
1.7849
1.80633
1.82415
1.83875
1.84344
1.20662
1.17025
1.11447
1.04701
0.966581
0.876782
0.777495
0.668309
0.549152
0.431621
0.321658
0.254226
2.42555
2.41781
2.37226
2.28556
2.16263
2.01182
1.83929
1.64951
1.42704
1.1026
0.743279
0.585874
2.74695
2.76502
2.75231
2.68776
2.5756
2.4258
2.25003
2.06168
1.86104
1.60168
1.17416
0.829819
2.96422
3.02818
3.04767
3.0216
2.9345
2.79764
2.62754
2.44234
2.25192
2.02235
1.62499
1.04605
3.0659
3.17663
3.24133
3.25584
3.20964
3.1039
2.95766
2.79147
2.62076
2.42096
2.05994
1.24465
3.07318
3.21694
3.32996
3.39449
3.40882
3.35881
3.25596
3.12664
2.98698
2.81533
2.49297
1.44284
2.97335
3.1417
3.29536
3.41562
3.48519
3.50662
3.48241
3.41631
3.32801
3.19519
2.90594
1.64841
2.77172
2.94121
3.11684
3.28696
3.43324
3.53314
3.58319
3.6104
3.60895
3.53444
3.27045
1.87666
2.5097
2.65111
2.81398
3.00294
3.20973
3.40191
3.55962
3.68073
3.78134
3.802
3.59239
2.09449
2.24726
2.33599
2.4455
2.60552
2.8355
3.09709
3.35306
3.59405
3.81883
3.95464
3.84081
2.31422
2.02507
2.04839
2.07855
2.16711
2.37204
2.66242
2.98162
3.3144
3.66347
3.96375
4.00125
2.54772
1.82919
1.78718
1.743
1.7664
1.91926
2.18864
2.51349
2.88386
3.30168
3.74114
4.06511
2.77267
2.30838
1.35369
1.34039
1.37837
1.47529
1.55811
1.61485
1.65218
1.67916
1.71718
1.73133
1.7133
2.87622
2.23539
1.60238
1.41291
1.38963
1.40757
1.45565
1.48978
1.53624
1.59315
1.59131
1.53779
2.76045
2.51014
2.07018
1.62374
1.43193
1.34849
1.33785
1.35584
1.42845
1.4732
1.43216
1.3009
2.54315
2.4449
2.19206
1.83719
1.56671
1.39985
1.3588
1.39307
1.41573
1.3527
1.21173
0.943433
1.6475
1.50978
1.41863
1.42035
1.54275
1.77337
2.05888
2.39934
2.80274
3.27937
3.74967
3.36493
1.3961
1.22295
1.14714
1.19396
1.32944
1.49929
1.71152
1.98328
2.32115
2.74123
3.21411
3.17226
1.09259
0.977706
1.0177
1.13
1.25707
1.3848
1.53208
1.72432
1.97632
2.30534
2.71698
2.82922
0.804458
0.873905
1.03217
1.1747
1.28072
1.38179
1.49963
1.64892
1.84151
2.08938
2.40215
2.55242
2.29764
1.34552
1.33169
1.36993
1.46474
1.54586
1.60045
1.63505
1.65783
1.69216
1.70521
1.68859
2.86964
2.22688
1.59624
1.40618
1.38031
1.39546
1.43962
1.47024
1.51115
1.56658
1.56609
1.51718
2.75499
2.50373
2.06583
1.62399
1.42727
1.34168
1.32639
1.34131
1.4059
1.45172
1.41409
1.29204
2.5384
2.4397
2.18755
1.83661
1.56813
1.39864
1.35127
1.38109
1.40023
1.3401
1.20449
0.94428
1.6291
1.50337
1.42011
1.42476
1.55139
1.7849
2.07216
2.41313
2.81588
3.29136
3.76068
3.37476
1.38702
1.22085
1.14786
1.19556
1.33319
1.50551
1.7205
1.99411
2.33266
2.75245
3.22438
3.18181
1.09082
0.977097
1.01718
1.12967
1.25871
1.38794
1.53743
1.73172
1.98518
2.31483
2.7261
2.83764
0.804707
0.87308
1.02944
1.17285
1.28039
1.38341
1.50308
1.6541
1.84804
2.09687
2.40986
2.55971
2.30582
1.35247
1.33941
1.37746
1.47267
1.5534
1.60703
1.64039
1.66196
1.69584
1.7086
1.69148
2.87778
2.23348
1.60153
1.41214
1.38633
1.40183
1.44583
1.47545
1.51554
1.57079
1.5697
1.5197
2.76273
2.51034
2.07011
1.62518
1.43048
1.34477
1.32979
1.34455
1.40923
1.45525
1.41684
1.29291
2.54523
2.44587
2.19201
1.83815
1.56797
1.39867
1.35262
1.3839
1.40447
1.34352
1.20627
0.944253
1.63029
1.50149
1.41759
1.4221
1.54884
1.78293
2.07103
2.41293
2.81637
3.2921
3.76135
3.375
1.38693
1.21973
1.14745
1.19548
1.33325
1.50526
1.72002
1.99371
2.33237
2.75207
3.22352
3.18073
1.09037
0.977465
1.01797
1.13103
1.25991
1.38863
1.53753
1.73147
1.9847
2.31399
2.72465
2.83558
0.805024
0.874265
1.03202
1.17536
1.28217
1.38439
1.50337
1.65386
1.84739
2.09575
2.40817
2.55737
2.30917
1.35244
1.33764
1.37644
1.47068
1.55149
1.60565
1.63973
1.66173
1.69563
1.70888
1.69244
2.87627
2.23767
1.60694
1.41417
1.38707
1.40186
1.4455
1.47572
1.51577
1.57125
1.57109
1.52212
2.7607
2.50963
2.07395
1.63244
1.43413
1.34764
1.33177
1.34648
1.41039
1.45705
1.41941
1.29652
2.54271
2.44414
2.1926
1.84161
1.57261
1.40295
1.35541
1.38604
1.40657
1.34603
1.20873
0.946557
1.63245
1.50423
1.41668
1.41893
1.54112
1.77259
2.05939
2.40135
2.80655
3.28554
3.7585
3.37354
1.39062
1.22072
1.14527
1.19168
1.32707
1.49788
1.71122
1.9842
2.32349
2.74536
3.22035
3.17888
1.09246
0.976235
1.01538
1.1269
1.25477
1.38365
1.53188
1.72495
1.97788
2.30819
2.72127
2.83432
0.804112
0.872079
1.0281
1.17181
1.27922
1.38132
1.49995
1.6499
1.8431
2.09188
2.40561
2.55664
2.32253
2.19443
1.94188
1.62307
1.45481
1.40883
1.42951
1.39048
1.20196
0.998053
0.82656
0.549334
2.14447
1.96616
1.70534
1.48742
1.41504
1.40145
1.34611
1.17588
0.99894
0.865494
0.721461
0.436294
2.02237
1.82611
1.59395
1.44862
1.39829
1.34631
1.20405
1.03436
0.909261
0.810092
0.674259
0.364103
1.94789
1.75569
1.55481
1.42937
1.35329
1.23204
1.06869
0.936097
0.8497
0.766731
0.631904
0.302907
0.650346
0.995174
1.16539
1.27426
1.3697
1.47898
1.60961
1.76349
1.94188
2.14715
2.33314
2.38882
0.58487
0.978108
1.16144
1.27777
1.38234
1.50409
1.64843
1.8111
1.9835
2.15291
2.25552
2.26013
0.471614
0.904566
1.10646
1.23954
1.3594
1.49406
1.64905
1.81724
1.98591
2.12814
2.18772
2.16234
0.372444
0.815275
1.0278
1.17173
1.30216
1.44577
1.6087
1.78311
1.95258
2.07682
2.12144
2.08874
2.31848
2.19056
1.93927
1.6245
1.45412
1.40501
1.42147
1.37843
1.19369
0.993249
0.823347
0.549876
2.14226
1.96531
1.70744
1.48924
1.41318
1.39602
1.33713
1.16818
0.994372
0.86195
0.718534
0.436077
2.02223
1.82829
1.59887
1.45027
1.39585
1.3395
1.19708
1.02976
0.906002
0.806973
0.67148
0.363919
1.94846
1.75893
1.55976
1.4307
1.34987
1.22628
1.06436
0.93338
0.847238
0.764063
0.629496
0.302402
0.648797
0.991314
1.16242
1.27276
1.36953
1.48021
1.61231
1.76767
1.94727
2.15333
2.33943
2.39497
0.583128
0.974329
1.15873
1.27625
1.38192
1.50479
1.6504
1.81441
1.988
2.15816
2.26094
2.26524
0.470463
0.901494
1.10406
1.23791
1.3586
1.49425
1.65046
1.82004
1.98999
2.13303
2.19272
2.16679
0.371743
0.813209
1.02588
1.17021
1.30125
1.44571
1.60982
1.78563
1.9565
2.0817
2.12657
2.09323
2.32408
2.19538
1.94237
1.62456
1.45409
1.40583
1.42411
1.38358
1.19825
0.996729
0.826547
0.550551
2.14645
1.96806
1.70762
1.48861
1.41389
1.39839
1.34203
1.17339
0.998579
0.865863
0.722263
0.437002
2.02528
1.82938
1.59763
1.45029
1.39788
1.34429
1.2027
1.03449
0.909995
0.810918
0.675259
0.365044
1.95142
1.75988
1.55923
1.43197
1.35404
1.23201
1.06949
0.937317
0.850739
0.76766
0.632934
0.303538
0.649347
0.994567
1.16534
1.27486
1.37076
1.4807
1.6121
1.76684
1.9459
2.15148
2.33708
2.3923
0.583466
0.977198
1.16105
1.27796
1.38293
1.50509
1.64994
1.81316
1.98598
2.15556
2.25801
2.26232
0.47045
0.903383
1.10572
1.23927
1.35945
1.49441
1.64976
1.81837
1.98734
2.12969
2.18911
2.16338
0.371605
0.813993
1.02685
1.17116
1.30186
1.4457
1.60888
1.78359
1.95329
2.07745
2.12202
2.08893
2.32149
2.19339
1.94306
1.628
1.45674
1.40725
1.42447
1.38391
1.1993
0.996154
0.82502
0.550253
2.14401
1.96692
1.70938
1.49064
1.41449
1.39794
1.3408
1.17229
0.996727
0.86301
0.719435
0.436269
2.02277
1.82854
1.59899
1.45033
1.39634
1.34135
1.19991
1.03176
0.90682
0.807431
0.672169
0.364295
1.9481
1.75817
1.55877
1.42995
1.34994
1.22781
1.0659
0.934018
0.847346
0.764253
0.630025
0.302708
0.647159
0.990743
1.1623
1.27281
1.36939
1.47947
1.61072
1.76512
1.94402
2.14985
2.33626
2.39212
0.58159
0.974162
1.15905
1.27672
1.3823
1.50485
1.64987
1.81309
1.98593
2.1555
2.2577
2.26146
0.469152
0.901325
1.10448
1.23868
1.35953
1.4951
1.65088
1.81971
1.98879
2.13062
2.18914
2.16157
0.371046
0.813018
1.0263
1.1711
1.30249
1.4471
1.61096
1.78611
1.95603
2.0796
2.12292
2.0873
1.89592
1.71855
1.53464
1.39578
1.26939
1.11084
0.960918
0.863522
0.799185
0.722765
0.58962
0.266594
1.83857
1.6784
1.5
1.3367
1.17203
1.004
0.877251
0.804219
0.751373
0.677659
0.546457
0.249065
1.75796
1.61418
1.4382
1.25683
1.07453
0.914102
0.808947
0.751172
0.70439
0.632818
0.50618
0.226717
1.64964
1.52136
1.35085
1.16432
0.982471
0.837309
0.749177
0.700641
0.657469
0.58855
0.468209
0.208374
1.51848
1.40573
1.24597
1.06662
0.897078
0.769097
0.693526
0.650555
0.610005
0.544487
0.431374
0.188883
1.37377
1.27731
1.13296
0.96926
0.817768
0.705897
0.639284
0.599632
0.561264
0.499728
0.394073
0.169016
1.22549
1.14523
1.01943
0.875263
0.743063
0.644991
0.584609
0.546817
0.510235
0.452925
0.354581
0.147461
1.08092
1.01515
0.909113
0.784886
0.670678
0.583904
0.527837
0.490846
0.455473
0.402135
0.310872
0.123604
0.940747
0.887312
0.800574
0.695112
0.596844
0.519439
0.466531
0.429551
0.3946
0.344629
0.260356
0.0970482
0.796412
0.753109
0.685283
0.597946
0.514567
0.445737
0.39608
0.359032
0.323658
0.276426
0.199926
0.0686176
0.619986
0.585346
0.536107
0.474043
0.407034
0.348222
0.303919
0.268034
0.232975
0.189634
0.123041
0.0408988
0.287329
0.276936
0.259802
0.237032
0.211682
0.184722
0.159729
0.138484
0.117581
0.0937311
0.0579177
0.0255428
0.306568
0.731724
0.942378
1.08882
1.22263
1.36888
1.5344
1.71109
1.88054
1.9995
2.04416
2.0207
0.2785
0.657955
0.85589
0.998758
1.12978
1.27262
1.43495
1.60932
1.77681
1.89629
1.94716
1.93967
0.246597
0.588142
0.771354
0.906894
1.03078
1.16545
1.31946
1.4867
1.64905
1.7694
1.82753
1.8349
0.219084
0.524215
0.691454
0.817313
0.93133
1.05472
1.19664
1.35258
1.50609
1.62464
1.68805
1.70612
0.193838
0.465913
0.617416
0.732523
0.835444
0.946126
1.07387
1.21565
1.35708
1.47006
1.53551
1.55981
0.169682
0.412461
0.549243
0.653556
0.745398
0.843424
0.956583
1.08289
1.21017
1.31436
1.37815
1.40487
0.146068
0.362281
0.485878
0.580113
0.661789
0.748286
0.847748
0.958736
1.07114
1.1644
1.22371
1.24989
0.121931
0.313156
0.425293
0.510623
0.583576
0.660213
0.747568
0.844321
0.942189
1.02354
1.07672
1.10041
0.0966108
0.26186
0.363971
0.441667
0.507556
0.576125
0.652972
0.736698
0.820685
0.88966
0.936111
0.956558
0.0700282
0.203778
0.296328
0.367158
0.427136
0.488846
0.55599
0.62693
0.696631
0.752649
0.79203
0.809269
0.0429466
0.129637
0.210242
0.27298
0.326262
0.380466
0.436505
0.491385
0.542231
0.584495
0.61579
0.629658
0.0266982
0.0615975
0.104651
0.137749
0.166068
0.192576
0.217366
0.239381
0.258894
0.273382
0.282731
0.286945
1.89569
1.72066
1.53753
1.39547
1.26569
1.10681
0.958525
0.861863
0.797266
0.720518
0.587519
0.265824
1.83646
1.67797
1.49989
1.33453
1.16842
1.00135
0.875955
0.803108
0.749792
0.675708
0.544679
0.248439
1.75383
1.61107
1.43532
1.25322
1.07115
0.912296
0.808178
0.750315
0.702994
0.631026
0.504521
0.226107
1.64388
1.51617
1.346
1.15983
0.979295
0.835909
0.748589
0.699861
0.65615
0.586814
0.466585
0.207729
1.51176
1.39936
1.2401
1.06181
0.894079
0.767834
0.692934
0.649758
0.608704
0.542747
0.429712
0.188242
1.36664
1.27055
1.12681
0.96446
0.814886
0.704601
0.638581
0.598768
0.559955
0.497957
0.392352
0.168344
1.21835
1.13861
1.01348
0.870675
0.740251
0.643577
0.583747
0.545866
0.508915
0.451146
0.35281
0.146797
1.07403
1.00889
0.903556
0.780542
0.667882
0.582323
0.52679
0.489804
0.454151
0.400422
0.309102
0.122983
0.934317
0.881511
0.795443
0.691009
0.594062
0.517696
0.4653
0.428438
0.393314
0.34304
0.258734
0.0965782
0.790803
0.747848
0.680589
0.594141
0.511844
0.443889
0.394736
0.357874
0.322456
0.275056
0.198502
0.06844
0.615416
0.581018
0.532169
0.470718
0.404574
0.346434
0.302593
0.266907
0.231957
0.188634
0.121924
0.0420253
0.285118
0.274758
0.257697
0.235088
0.209965
0.183311
0.158592
0.137485
0.116708
0.0928951
0.0572798
0.0287065
0.306118
0.730391
0.940907
1.08755
1.2218
1.36879
1.53542
1.71354
1.88449
2.0047
2.04972
2.02588
0.278202
0.657019
0.854797
0.997767
1.12912
1.27261
1.43599
1.61178
1.78088
1.9019
1.95342
1.94591
0.246364
0.587479
0.770569
0.906172
1.03032
1.16556
1.32055
1.48918
1.65319
1.77536
1.83443
1.84221
0.218949
0.523755
0.690911
0.81682
0.931056
1.05493
1.19775
1.35502
1.51019
1.63072
1.69544
1.71422
0.19371
0.465593
0.617051
0.732209
0.835313
0.946415
1.07495
1.21796
1.36101
1.47603
1.54299
1.56829
0.16959
0.412232
0.549002
0.653372
0.745367
0.843745
0.957589
1.08501
1.2138
1.31998
1.38537
1.41326
0.145959
0.362103
0.485713
0.580013
0.661817
0.748606
0.848643
0.960605
1.07438
1.1695
1.23035
1.2578
0.12183
0.312999
0.425171
0.510568
0.583627
0.660502
0.748334
0.845921
0.944997
1.02801
1.08258
1.10756
0.0965087
0.261709
0.363864
0.441624
0.507594
0.576362
0.653598
0.738038
0.823079
0.893521
0.941107
0.962808
0.0699454
0.203631
0.296223
0.367097
0.427135
0.48899
0.556484
0.627989
0.698699
0.755859
0.796162
0.814537
0.0428893
0.129515
0.210134
0.272881
0.326188
0.380435
0.436859
0.492276
0.543899
0.586901
0.618926
0.633736
0.0266594
0.0615422
0.104586
0.137662
0.166023
0.19264
0.217638
0.239849
0.25971
0.274498
0.284142
0.288754
1.89961
1.72297
1.53915
1.39899
1.27125
1.11256
0.962852
0.865069
0.800268
0.72369
0.590555
0.267224
1.84199
1.68248
1.50415
1.34013
1.17484
1.00673
0.87955
0.805748
0.752389
0.678517
0.547268
0.249496
1.76102
1.6178
1.44196
1.2604
1.07794
0.917225
0.811215
0.752554
0.705295
0.633588
0.506877
0.227142
1.6524
1.52464
1.35436
1.16798
0.986108
0.840409
0.751237
0.701833
0.658245
0.589211
0.468804
0.208672
1.52101
1.40883
1.24939
1.0703
0.90067
0.771972
0.695327
0.65156
0.610655
0.545033
0.431863
0.189163
1.37599
1.28028
1.1363
0.97282
0.821116
0.708454
0.640822
0.600467
0.561797
0.50014
0.394448
0.169187
1.22721
1.14793
1.02265
0.878564
0.746058
0.647206
0.585909
0.547503
0.510661
0.453201
0.354823
0.147594
1.08204
1.0174
0.912033
0.78779
0.673253
0.585779
0.52892
0.4914
0.455794
0.402285
0.310962
0.123635
0.941331
0.888992
0.803036
0.697496
0.598991
0.520974
0.467421
0.429986
0.39483
0.344655
0.26029
0.0970117
0.79678
0.754181
0.687084
0.599785
0.516255
0.446949
0.39677
0.35936
0.323792
0.276332
0.199706
0.0684731
0.620097
0.585983
0.537106
0.47526
0.408302
0.349087
0.304388
0.268271
0.232996
0.18946
0.122735
0.0407126
0.287242
0.277076
0.260086
0.237377
0.212071
0.185065
0.159874
0.138523
0.117509
0.093526
0.0576023
0.0253498
0.305905
0.730494
0.94136
1.08811
1.22213
1.36856
1.53426
1.71115
1.88073
1.99967
2.04425
2.02042
0.27801
0.656859
0.854909
0.998006
1.1292
1.27218
1.43465
1.60917
1.77678
1.89626
1.94707
1.93932
0.246186
0.58721
0.770472
0.906174
1.03019
1.16499
1.31911
1.48648
1.64895
1.76937
1.82749
1.83475
0.218788
0.523443
0.690692
0.816662
0.930784
1.05427
1.1963
1.35237
1.50601
1.62471
1.68821
1.7063
0.19357
0.465282
0.616775
0.73196
0.834957
0.945728
1.07357
1.21549
1.35707
1.47027
1.53589
1.56034
0.169475
0.411957
0.548721
0.653087
0.744982
0.843087
0.956344
1.08279
1.21025
1.31469
1.37872
1.40568
0.14588
0.361887
0.485464
0.579741
0.661449
0.74802
0.847569
0.958702
1.07129
1.16483
1.2244
1.25088
0.121787
0.312855
0.424982
0.510342
0.583312
0.660018
0.747449
0.844343
0.942387
1.02401
1.07744
1.10147
0.096487
0.261634
0.363747
0.441473
0.507356
0.576
0.6529
0.73677
0.820909
0.89015
0.936797
0.957589
0.0699826
0.203611
0.2962
0.367026
0.427003
0.488766
0.555968
0.627018
0.696879
0.753101
0.792641
0.810193
0.042958
0.129513
0.210202
0.2729
0.326183
0.380405
0.436524
0.491495
0.542461
0.58485
0.616266
0.630387
0.0267386
0.0616146
0.104692
0.137759
0.166097
0.192627
0.217455
0.239493
0.259067
0.273595
0.282982
0.287235
1.8949
1.7195
1.53626
1.39464
1.26596
1.10782
0.95908
0.86179
0.797065
0.720583
0.587911
0.266078
1.83572
1.67703
1.49905
1.33424
1.16891
1.00192
0.875939
0.802723
0.749493
0.67573
0.544951
0.248625
1.75349
1.61072
1.43521
1.25357
1.0718
0.912598
0.807903
0.749839
0.702702
0.631059
0.504756
0.226255
1.64409
1.51652
1.34663
1.16072
0.980071
0.836094
0.748245
0.699409
0.655912
0.586886
0.466821
0.207882
1.51249
1.40031
1.2413
1.06305
0.894932
0.768004
0.692625
0.649384
0.608536
0.542866
0.42997
0.188385
1.36776
1.2719
1.12837
0.965891
0.815783
0.704814
0.638358
0.598487
0.559852
0.498115
0.392632
0.168501
1.21967
1.14016
1.01519
0.872161
0.741171
0.643857
0.583628
0.545677
0.508865
0.451322
0.353103
0.146954
1.07539
1.01048
0.905271
0.781999
0.668806
0.582675
0.526775
0.489695
0.45414
0.400585
0.309392
0.123145
0.935615
0.883013
0.797058
0.692377
0.59497
0.518108
0.465383
0.428399
0.393331
0.343176
0.258979
0.0967223
0.791975
0.749173
0.682014
0.595367
0.512703
0.444339
0.39489
0.357902
0.322491
0.275148
0.198673
0.0685554
0.61636
0.582089
0.533262
0.471718
0.405331
0.346876
0.302787
0.267006
0.231995
0.188674
0.122013
0.042098
0.285494
0.275203
0.258176
0.235546
0.210373
0.183611
0.158758
0.137602
0.116786
0.0929324
0.0573388
0.0287823
0.305921
0.73026
0.941319
1.08847
1.22319
1.37051
1.53712
1.71474
1.88478
2.00319
2.04654
2.02039
0.278085
0.656993
0.855212
0.998666
1.13056
1.27452
1.43808
1.61356
1.78187
1.90119
1.95114
1.94179
0.246355
0.587554
0.770992
0.907024
1.03172
1.16753
1.32288
1.49141
1.65483
1.77557
1.83329
1.83982
0.218995
0.523915
0.69134
0.817608
0.932365
1.05687
1.20018
1.35757
1.51237
1.63181
1.69546
1.71342
0.1938
0.465826
0.617488
0.732932
0.83651
0.948244
1.07739
1.22069
1.36359
1.47785
1.54403
1.56879
0.169701
0.412532
0.549454
0.65404
0.746453
0.845443
0.95995
1.08781
1.21665
1.32235
1.3872
1.41471
0.146093
0.362463
0.48619
0.580649
0.662818
0.75018
0.8509
0.963387
1.07738
1.17224
1.23273
1.25989
0.121959
0.313404
0.425675
0.511193
0.584575
0.661982
0.750488
0.84864
0.948051
1.03096
1.08531
1.11003
0.0966335
0.262118
0.364387
0.44224
0.508522
0.577769
0.655669
0.740652
0.826101
0.896518
0.944006
0.965415
0.0700557
0.203995
0.296724
0.367697
0.428027
0.490338
0.558438
0.630469
0.701536
0.758758
0.799023
0.81704
0.0429993
0.129716
0.21056
0.273405
0.326979
0.381625
0.438588
0.49443
0.546319
0.58943
0.621459
0.635814
0.0267912
0.0617165
0.104864
0.137996
0.166557
0.193392
0.218612
0.240975
0.260921
0.275749
0.285366
0.289757
)
;

boundaryField
{
    rotor
    {
        type            kqRWallFunction;
        value           nonuniform List<scalar> 
192
(
0.149054
0.292913
0.618112
0.862893
0.99383
1.08076
1.14165
1.18413
1.21067
1.22405
1.23485
1.22446
1.20259
1.16672
1.10985
1.04389
0.961928
0.874038
0.773372
0.666029
0.546271
0.430169
0.320144
0.253303
0.15637
0.310222
0.630089
0.868203
0.996874
1.08359
1.14363
1.18563
1.21203
1.22584
1.23686
1.22739
1.20537
1.16866
1.11317
1.04542
0.965251
0.875341
0.776329
0.667229
0.548359
0.431046
0.321273
0.253913
0.157359
0.31218
0.632444
0.870244
0.998661
1.0857
1.14678
1.18993
1.21694
1.22997
1.24094
1.23107
1.20887
1.17178
1.11579
1.04776
0.96697
0.876755
0.777205
0.66777
0.548598
0.431145
0.321304
0.254052
0.156286
0.307487
0.627605
0.867548
0.996723
1.08326
1.14382
1.18687
1.21334
1.22735
1.23838
1.2285
1.20662
1.17025
1.11447
1.04701
0.966581
0.876782
0.777495
0.668309
0.549152
0.431621
0.321658
0.254226
0.149054
0.416355
0.590662
0.700751
0.764165
0.78864
0.796058
0.787755
0.755227
0.730879
0.647238
0.718046
0.254226
0.585874
0.829819
1.04605
1.24465
1.44284
1.64841
1.87666
2.09449
2.31422
2.54772
2.77267
0.15637
0.424892
0.597044
0.707564
0.769906
0.794986
0.800078
0.794073
0.763241
0.738996
0.653396
0.721791
0.253303
0.58385
0.827029
1.04267
1.24075
1.43853
1.6436
1.87132
2.08857
2.30751
2.54035
2.76455
0.157359
0.42661
0.599076
0.710822
0.774356
0.798809
0.805352
0.798594
0.768321
0.743536
0.658744
0.727029
0.253913
0.585157
0.828829
1.04487
1.24332
1.44139
1.64688
1.87499
2.09293
2.31276
2.54638
2.77192
0.156286
0.424579
0.59868
0.706275
0.77192
0.788883
0.78212
0.782318
0.754431
0.730217
0.650208
0.720696
0.254052
0.585616
0.829675
1.04606
1.2448
1.44315
1.64878
1.87702
2.09482
2.31452
2.54843
2.77338
)
;
    }
    stator
    {
        type            kqRWallFunction;
        value           nonuniform List<scalar> 
192
(
0.287329
0.276936
0.259802
0.237032
0.211682
0.184722
0.159729
0.138484
0.117581
0.0937311
0.0579177
0.0255428
0.0266982
0.0615975
0.104651
0.137749
0.166068
0.192576
0.217366
0.239381
0.258894
0.273382
0.282731
0.286945
0.285118
0.274758
0.257697
0.235088
0.209965
0.183311
0.158592
0.137485
0.116708
0.0928951
0.0572798
0.0287065
0.0266594
0.0615422
0.104586
0.137662
0.166023
0.19264
0.217638
0.239849
0.25971
0.274498
0.284142
0.288754
0.287242
0.277076
0.260086
0.237377
0.212071
0.185065
0.159874
0.138523
0.117509
0.093526
0.0576023
0.0253498
0.0267386
0.0616146
0.104692
0.137759
0.166097
0.192627
0.217455
0.239493
0.259067
0.273595
0.282982
0.287235
0.285494
0.275203
0.258176
0.235546
0.210373
0.183611
0.158758
0.137602
0.116786
0.0929324
0.0573388
0.0287823
0.0267912
0.0617165
0.104864
0.137996
0.166557
0.193392
0.218612
0.240975
0.260921
0.275749
0.285366
0.289757
0.306568
0.2785
0.246597
0.219084
0.193838
0.169682
0.146068
0.121931
0.0966108
0.0700282
0.0429466
0.0266982
0.266594
0.249065
0.226717
0.208374
0.188883
0.169016
0.147461
0.123604
0.0970482
0.0686176
0.0408988
0.0255428
0.306118
0.278202
0.246364
0.218949
0.19371
0.16959
0.145959
0.12183
0.0965087
0.0699454
0.0428893
0.0266594
0.265824
0.248439
0.226107
0.207729
0.188242
0.168344
0.146797
0.122983
0.0965782
0.06844
0.0420253
0.0287065
0.305905
0.27801
0.246186
0.218788
0.19357
0.169475
0.14588
0.121787
0.096487
0.0699826
0.042958
0.0267386
0.267224
0.249496
0.227142
0.208672
0.189163
0.169187
0.147594
0.123635
0.0970117
0.0684731
0.0407126
0.0253498
0.305921
0.278085
0.246355
0.218995
0.1938
0.169701
0.146093
0.121959
0.0966335
0.0700557
0.0429993
0.0267912
0.266078
0.248625
0.226255
0.207882
0.188385
0.168501
0.146954
0.123145
0.0967223
0.0685554
0.042098
0.0287823
)
;
    }
    front
    {
        type            empty;
    }
    back
    {
        type            empty;
    }
}


// ************************************************************************* //
