/*--------------------------------*- C++ -*----------------------------------*\
  =========                 |
  \\      /  F ield         | OpenFOAM: The Open Source CFD Toolbox
   \\    /   O peration     | Website:  https://openfoam.org
    \\  /    A nd           | Version:  6
     \\/     M anipulation  |
\*---------------------------------------------------------------------------*/
FoamFile
{
    version     2.0;
    format      ascii;
    class       volScalarField;
    location    "50";
    object      nut;
}
// * * * * * * * * * * * * * * * * * * * * * * * * * * * * * * * * * * * * * //

dimensions      [0 2 -1 0 0 0 0];

internalField   nonuniform List<scalar> 
3072
(
5.95387e-05
0.000138477
0.000208731
0.000255194
0.000277746
0.000291601
0.00030107
0.000307488
0.000312049
0.000315851
0.000316654
0.000316583
0.000108693
0.000340188
0.000375536
0.000542869
0.000739189
0.00095274
0.00120385
0.00146197
0.00172858
0.00198321
0.00220917
0.00239718
0.000146202
0.000636254
0.000833618
0.00120909
0.00159224
0.0019864
0.00236851
0.0027187
0.00303623
0.00331397
0.00355239
0.00374181
0.000174098
0.00085239
0.00124309
0.00175284
0.00224066
0.00269751
0.00310076
0.00345232
0.00375287
0.00401083
0.0042306
0.00441357
0.000197481
0.0010097
0.001558
0.00213162
0.00266457
0.00312169
0.00351119
0.00383291
0.00409933
0.00432474
0.00451945
0.00468809
0.000215824
0.00109688
0.00176386
0.00239988
0.00295023
0.00339248
0.00375185
0.00402917
0.00424816
0.00443122
0.00459558
0.00474964
0.000232096
0.00116009
0.00190743
0.00255925
0.00309101
0.00351832
0.0038456
0.00408828
0.00427032
0.00441565
0.00454354
0.00467214
0.000246506
0.00117844
0.00195419
0.00260338
0.00313283
0.00354954
0.00385622
0.00407052
0.00421723
0.00432106
0.00440404
0.00448692
0.000256286
0.00111677
0.00192162
0.00257048
0.00310342
0.00351188
0.0038057
0.00400038
0.00411812
0.00418148
0.00421062
0.00422744
0.000266862
0.00101926
0.00180839
0.00243933
0.00297413
0.00338822
0.00368544
0.00387103
0.00397045
0.00400277
0.00398181
0.00392663
0.000264214
0.000780414
0.00159935
0.00222566
0.00274475
0.00316217
0.0034621
0.00365395
0.00374823
0.00376624
0.00370542
0.00358819
0.000299804
0.000637098
0.00130655
0.00190935
0.00241873
0.00282137
0.00313089
0.00332109
0.00340792
0.00343312
0.00334489
0.0031886
0.000314021
0.000310051
0.000303706
0.000295446
0.000284768
0.000272262
0.000256854
0.000238762
0.000216311
0.000192332
0.000165763
8.0537e-05
0.00251634
0.00259245
0.00262873
0.00260394
0.00251123
0.00233507
0.00203697
0.00164869
0.00118806
0.000666573
0.000279991
0.000136684
0.00387078
0.00393821
0.0039897
0.00395841
0.00383935
0.00360916
0.00318491
0.00265979
0.00202811
0.00130258
0.000550242
0.000179826
0.00455887
0.0046665
0.00470315
0.00469797
0.00461239
0.00443105
0.00408215
0.00356894
0.00288122
0.00199628
0.000938137
0.000221048
0.00483509
0.00495647
0.00504338
0.00507048
0.00504729
0.00493837
0.00470469
0.00428375
0.00364035
0.00268731
0.00139596
0.000261934
0.00489525
0.00503123
0.00515079
0.00523591
0.00527999
0.00526281
0.00514349
0.00485524
0.00430922
0.00334998
0.00188786
0.000304322
0.00480963
0.00495692
0.00510721
0.00525314
0.00536398
0.00543768
0.00544498
0.0052992
0.00488482
0.00397761
0.00238238
0.000348908
0.00458755
0.00471964
0.00488995
0.00508825
0.00529033
0.00546662
0.00558731
0.00560962
0.00535978
0.00452573
0.00281026
0.000397905
0.0042588
0.00433551
0.00449153
0.00472993
0.00502573
0.00532801
0.00559049
0.00575427
0.00569194
0.00501199
0.00322066
0.000447171
0.00387268
0.00385887
0.00395796
0.00419856
0.00457679
0.00501432
0.00543382
0.00577845
0.00590253
0.00535651
0.00354981
0.000498153
0.0034684
0.00336992
0.00339267
0.0035839
0.00400704
0.00456661
0.00513214
0.00564476
0.00599986
0.00571873
0.00387235
0.000552073
0.00305986
0.00294508
0.00292
0.00308642
0.00351361
0.00412175
0.00476597
0.00539311
0.0059295
0.00593801
0.00430509
0.00060548
5.91082e-05
0.000141675
0.00021108
0.000256301
0.000278355
0.000292051
0.00030131
0.000307742
0.000312378
0.00031622
0.000317133
0.000317117
0.00010908
0.000347738
0.000376715
0.000546856
0.000743339
0.00096139
0.00120843
0.00146963
0.00173589
0.00199037
0.00221604
0.00240343
0.000146391
0.000642612
0.000841899
0.00121937
0.00160131
0.00199596
0.00237579
0.00272775
0.00304541
0.00332372
0.0035625
0.00375191
0.000174713
0.000859975
0.00125463
0.00176324
0.00224826
0.00270389
0.00310689
0.00346121
0.0037634
0.00402322
0.00424464
0.00442892
0.000198033
0.00101506
0.001567
0.00213849
0.00266979
0.00312737
0.00351715
0.003842
0.00411208
0.00434115
0.00453915
0.0047104
0.000216687
0.00110164
0.00177353
0.00240753
0.00295614
0.00339834
0.00375912
0.00404059
0.00426451
0.00445239
0.00462122
0.00477935
0.000232769
0.00116572
0.00191597
0.00256428
0.00309394
0.00352105
0.0038512
0.00409892
0.0042871
0.00443895
0.00457308
0.0047072
0.000246777
0.0011814
0.00195903
0.00260695
0.00313397
0.00355041
0.00385964
0.00407892
0.00423216
0.00434323
0.00443354
0.00452347
0.000257001
0.00111792
0.00192336
0.00257145
0.00310207
0.00350941
0.00380472
0.00400331
0.00412679
0.00419707
0.00423393
0.00425901
0.000268372
0.0010187
0.00180828
0.00243822
0.00296987
0.00338164
0.0036782
0.00386575
0.00396887
0.00400642
0.00399245
0.00394556
0.000265016
0.000779294
0.00159689
0.0022215
0.00273677
0.00315059
0.00344912
0.00363988
0.00373482
0.00375536
0.00370063
0.00359079
0.000300555
0.000631929
0.0012958
0.00189845
0.00240565
0.00280463
0.00311112
0.0033019
0.00338423
0.00340911
0.00332642
0.00317798
0.000314349
0.000310487
0.00030412
0.000295814
0.00028519
0.000272586
0.000257281
0.000239035
0.00021668
0.000192522
0.000166009
8.06128e-05
0.00252167
0.00259819
0.00263363
0.00260904
0.00251526
0.00233906
0.00204043
0.00165155
0.00118993
0.000667758
0.000280329
0.000136816
0.00388067
0.00394825
0.00399957
0.00396814
0.00384847
0.00361701
0.00319153
0.00266501
0.00203158
0.00130459
0.000551004
0.000180006
0.00457528
0.00468332
0.00472013
0.00471468
0.00462818
0.00444534
0.00409378
0.00357845
0.0028875
0.00199961
0.000939202
0.00022126
0.00485922
0.00498188
0.00506863
0.00509498
0.00507039
0.00495951
0.0047221
0.00429792
0.00364992
0.0026924
0.00139762
0.00026218
0.00492884
0.00506511
0.00518469
0.00527017
0.00531231
0.00529153
0.00516766
0.00487477
0.00432288
0.00335736
0.00189023
0.000304601
0.00484909
0.00499898
0.00514955
0.00529419
0.00540369
0.00547519
0.00547763
0.00532461
0.00490307
0.00398767
0.00238575
0.000349223
0.00463048
0.00476755
0.00494036
0.00513893
0.0053388
0.00551073
0.00562666
0.00564233
0.00538262
0.00453871
0.00281485
0.000398281
0.00429903
0.00438434
0.00454615
0.00478765
0.00508287
0.00538121
0.00563731
0.00579286
0.00572121
0.00502908
0.0032266
0.000447633
0.00390112
0.00390006
0.00400881
0.00425726
0.00463888
0.00507402
0.00548741
0.0058237
0.0059371
0.00537868
0.00355798
0.000498737
0.00347884
0.00339612
0.00343037
0.00363363
0.00406817
0.00462841
0.00518894
0.00569441
0.0060397
0.00574488
0.00388302
0.000552773
0.00305337
0.00295899
0.00294601
0.00312245
0.00356545
0.00417556
0.00481927
0.00544327
0.00597242
0.00596804
0.0043185
0.000606366
5.91626e-05
0.000142079
0.000211437
0.00025659
0.000278695
0.00029259
0.000302026
0.000308484
0.00031294
0.000316683
0.000317606
0.000317548
0.000109249
0.000348351
0.000378142
0.000549108
0.000746601
0.000966238
0.00121393
0.00147471
0.00174077
0.00199627
0.00222197
0.00240947
0.000146665
0.000644299
0.000845718
0.00122478
0.00160888
0.00200493
0.00238477
0.00273642
0.00305407
0.00333264
0.00357138
0.00376089
0.000174976
0.000863034
0.00126011
0.00177138
0.00225842
0.00271474
0.00311735
0.00347098
0.00377278
0.00403223
0.00425331
0.00443742
0.00019858
0.00101913
0.00157434
0.00214839
0.00268096
0.0031384
0.00352713
0.00385089
0.00411975
0.0043478
0.00454506
0.00471593
0.000217176
0.00110637
0.00178131
0.00241764
0.00296719
0.00340865
0.0037682
0.00404777
0.00426955
0.00445559
0.00462302
0.0047804
0.000233317
0.00116898
0.00192385
0.00257458
0.00310474
0.00353019
0.00385817
0.0041031
0.00428838
0.00443766
0.00456995
0.00470303
0.000247717
0.0011866
0.00196687
0.0026165
0.00314352
0.00355818
0.00386459
0.00408045
0.00423021
0.00433814
0.00442599
0.00451425
0.000257705
0.00112089
0.00193067
0.00258026
0.00311067
0.00351608
0.00380833
0.00400327
0.00412301
0.00418987
0.00422385
0.0042466
0.000268236
0.00102208
0.00181477
0.00244593
0.00297802
0.00338847
0.00368178
0.00386575
0.00396521
0.00399951
0.00398276
0.00393335
0.000266231
0.000780743
0.00160109
0.00222818
0.00274466
0.00315846
0.0034548
0.00364167
0.00373311
0.00375082
0.00369383
0.00358197
0.000301219
0.00063325
0.00129994
0.001905
0.00241382
0.00281361
0.00311921
0.00330735
0.00338552
0.0034079
0.00332384
0.00317384
0.000314794
0.000310876
0.000304483
0.000296135
0.000285453
0.000272813
0.00025744
0.000239159
0.00021676
0.00019259
0.000166079
8.0657e-05
0.00252753
0.00260405
0.00263942
0.00261448
0.00252032
0.00234361
0.0020442
0.00165403
0.00119152
0.000668203
0.000280501
0.000136896
0.00388975
0.00395725
0.00400816
0.00397613
0.00385566
0.00362398
0.00319719
0.00266924
0.00203454
0.00130615
0.000551488
0.000180117
0.00458373
0.00469154
0.00472808
0.00472213
0.00463504
0.00445149
0.00409968
0.0035829
0.00289115
0.00200211
0.000940319
0.000221408
0.00486439
0.00498711
0.00507402
0.00510049
0.00507577
0.00496449
0.00472735
0.00430231
0.00365395
0.00269566
0.00139936
0.000262358
0.00492999
0.00506642
0.00518682
0.00527201
0.00531472
0.00529465
0.00517146
0.00487849
0.00432665
0.00336091
0.00189253
0.000304805
0.00484461
0.00499462
0.00514492
0.00529248
0.00540324
0.00547563
0.0054792
0.0053273
0.00490623
0.00399115
0.0023882
0.000349452
0.00462047
0.00475768
0.00493149
0.00513218
0.00533444
0.00550864
0.00562599
0.00564303
0.00538517
0.00454182
0.00281685
0.000398508
0.004285
0.00436958
0.00453203
0.00477558
0.00507382
0.0053753
0.00563413
0.00579177
0.00572134
0.00503089
0.00322833
0.000447849
0.00388673
0.00388373
0.00399162
0.00424116
0.0046258
0.00506474
0.0054816
0.00582059
0.00593606
0.00537835
0.00355898
0.000498971
0.00346825
0.00338298
0.00341571
0.00361801
0.00405346
0.00461722
0.00518143
0.00568973
0.00603721
0.00574392
0.00388338
0.00055303
0.00304942
0.00295165
0.00293789
0.00311194
0.00355404
0.0041663
0.00481206
0.00543792
0.00596881
0.00596592
0.00431818
0.000606517
5.91883e-05
0.000140857
0.000210299
0.000255833
0.000278101
0.000291993
0.000301482
0.000307925
0.000312508
0.000316364
0.000317204
0.00031716
0.000109051
0.000347239
0.000375195
0.000545372
0.000741192
0.000959506
0.00120686
0.0014664
0.00173236
0.00198655
0.00221235
0.00240012
0.000146592
0.000640902
0.000838418
0.00121527
0.00159727
0.00199276
0.00237248
0.00272323
0.00304059
0.00331849
0.00355687
0.00374665
0.000174661
0.000857607
0.00125045
0.00175863
0.00224444
0.00270085
0.00310399
0.00345574
0.00375764
0.00401651
0.00423713
0.0044209
0.000198109
0.00101315
0.00156401
0.00213512
0.00266663
0.00312438
0.00351374
0.00383646
0.00410493
0.00433221
0.00452862
0.00469861
0.000214326
0.00109971
0.00177013
0.0024036
0.00295292
0.0033946
0.00375501
0.00403471
0.00425637
0.00444166
0.00460791
0.00476388
0.000231589
0.00116717
0.0019134
0.00256103
0.00309137
0.00351734
0.00384647
0.0040922
0.00427775
0.00442675
0.00455811
0.0046895
0.000246029
0.00118493
0.00195822
0.00260422
0.00313115
0.00354667
0.0038547
0.00407207
0.00422286
0.00433125
0.00441876
0.00450574
0.00025553
0.0011211
0.00192342
0.00256876
0.00309905
0.00350556
0.00379984
0.00399692
0.00411853
0.00418679
0.00422148
0.00424396
0.000264517
0.00102038
0.00180743
0.00243588
0.00296631
0.00337789
0.00367338
0.00386016
0.00396223
0.00399885
0.0039839
0.00393548
0.000265388
0.000780289
0.00159684
0.00221939
0.00273368
0.00314704
0.00344564
0.0036354
0.00373003
0.0037507
0.0036965
0.00358576
0.00029977
0.000633433
0.00129702
0.00189748
0.00240343
0.00280241
0.00310907
0.00330049
0.0033816
0.00340696
0.00332646
0.00317741
0.000314484
0.000310612
0.00030424
0.000295977
0.000285347
0.000272766
0.000257445
0.000239204
0.000216819
0.000192644
0.000166112
8.0665e-05
0.00251919
0.00259578
0.00263167
0.00260751
0.00251428
0.00233849
0.0020404
0.00165186
0.00119041
0.000668152
0.000280507
0.000136899
0.00387619
0.00394388
0.00399539
0.00396441
0.00384538
0.00361474
0.00319032
0.00266462
0.00203181
0.00130501
0.000551271
0.000180107
0.00456687
0.00467507
0.00471233
0.0047076
0.0046218
0.00444009
0.00409011
0.00357625
0.00288668
0.00199969
0.000939502
0.000221375
0.00484617
0.00496858
0.00505636
0.00508568
0.00505962
0.00495006
0.00471493
0.00429306
0.00364741
0.00269175
0.00139784
0.000262303
0.00491198
0.00504717
0.00516614
0.00525227
0.00529502
0.00527697
0.0051562
0.00486656
0.00431804
0.00335556
0.00189028
0.000304728
0.00482896
0.0049766
0.00512469
0.00527072
0.00538158
0.00545475
0.00546101
0.00531285
0.00489537
0.00398418
0.0023852
0.000349353
0.00460963
0.00474355
0.00491362
0.00511105
0.00531139
0.00548562
0.00560534
0.00562655
0.00537166
0.00453297
0.00281326
0.000398401
0.00428054
0.00436142
0.00451863
0.00475643
0.00505047
0.00535058
0.00561098
0.00577239
0.00570635
0.00502115
0.00322426
0.000447736
0.00388811
0.00388206
0.00398406
0.00422539
0.00460275
0.00503838
0.00545583
0.00579838
0.00591974
0.00536876
0.00355452
0.000498852
0.00347238
0.00338553
0.00341245
0.00360598
0.00403061
0.00458929
0.0051535
0.00566501
0.00601844
0.00573351
0.00387966
0.000552869
0.00305231
0.00295521
0.00293288
0.00310168
0.00353139
0.00413875
0.0047834
0.00541145
0.00594794
0.00595408
0.00431457
0.000606371
0.00116763
0.000731125
0.00106819
0.00145104
0.00192861
0.0023533
0.00266378
0.00287425
0.00296386
0.00300454
0.0029052
0.00280936
0.00239002
0.00166416
0.00116086
0.00122404
0.00149538
0.00179711
0.00211913
0.00234045
0.00247576
0.0025415
0.0025045
0.00242982
0.00341138
0.00261193
0.00196105
0.00148849
0.00142783
0.00151436
0.00171079
0.00190099
0.00207247
0.00218411
0.00218004
0.00213522
0.00416085
0.00336288
0.00261293
0.00197501
0.00168747
0.00157593
0.001653
0.00179982
0.00194463
0.00201793
0.00216179
0.00204062
0.00268611
0.00250825
0.00255804
0.00278224
0.00321998
0.00385483
0.00450653
0.00513805
0.00574288
0.00609875
0.00522217
0.00176873
0.00231623
0.00226005
0.00239896
0.00279668
0.00337273
0.00392203
0.0044682
0.00501814
0.00557356
0.00605738
0.0059371
0.00320585
0.00211403
0.00218118
0.00257661
0.00314787
0.00372932
0.00421208
0.00464644
0.00508193
0.00554223
0.00598618
0.00632104
0.00443956
0.00187618
0.00222492
0.00300215
0.00369789
0.00417561
0.00454138
0.00488399
0.00523661
0.00560657
0.00594691
0.00624812
0.00521282
0.00116282
0.000726902
0.00106104
0.00143975
0.0019096
0.00232937
0.0026357
0.00284707
0.00292805
0.00297019
0.00287896
0.00278764
0.00238714
0.00165894
0.00115767
0.00121752
0.00148083
0.00177492
0.00208568
0.00230588
0.00243136
0.00250722
0.0024761
0.00241
0.00340534
0.00260857
0.00196145
0.00149451
0.00142306
0.00150592
0.00169023
0.00188002
0.00203656
0.00215687
0.00215927
0.00212948
0.00415421
0.00336006
0.00261379
0.00198241
0.00169683
0.00157974
0.00164512
0.00178628
0.00192497
0.00200599
0.0021571
0.00204546
0.00267692
0.00251299
0.00257952
0.0028077
0.00325804
0.00389687
0.00455117
0.00518358
0.00578585
0.00613212
0.00524128
0.00177415
0.00231637
0.00225986
0.0024119
0.00281396
0.00339648
0.00394881
0.0045012
0.0050557
0.00561249
0.00609217
0.00596058
0.00321806
0.00211624
0.00218337
0.00258563
0.00316055
0.00374841
0.00423196
0.00467065
0.00511086
0.00557443
0.00601821
0.00634625
0.00445575
0.00188432
0.00223406
0.00300445
0.00370363
0.00418469
0.00455517
0.00490183
0.0052581
0.00563101
0.00597247
0.00627018
0.00522908
0.00116652
0.000728885
0.00106374
0.00144496
0.00191833
0.00233987
0.00264584
0.00285543
0.00293269
0.00297241
0.00287922
0.0027883
0.0023931
0.0016623
0.00116012
0.0012224
0.00148795
0.00178485
0.0020969
0.00231508
0.00243785
0.0025113
0.00247918
0.00241274
0.00341566
0.00261318
0.00196215
0.001492
0.00142586
0.00150953
0.00169578
0.00188507
0.0020412
0.00216138
0.00216358
0.00213565
0.0041656
0.00336613
0.00261522
0.00197923
0.00169242
0.00157702
0.00164658
0.00179082
0.0019324
0.00201284
0.0021646
0.00205401
0.00267589
0.00251156
0.0025791
0.00280533
0.00325417
0.00389175
0.00454589
0.0051787
0.00578165
0.00612899
0.00523903
0.00177253
0.00231908
0.00226649
0.00241931
0.00281735
0.00339821
0.00394769
0.00449823
0.00505195
0.00560847
0.00608831
0.00595689
0.00321528
0.00212241
0.00219136
0.0025875
0.00316257
0.00374925
0.00423165
0.00466916
0.00510854
0.0055714
0.00601468
0.00634255
0.00445173
0.00188592
0.00223266
0.0030067
0.00370625
0.00418631
0.00455573
0.00490164
0.00525741
0.00562962
0.00597031
0.0062679
0.00522546
0.00116809
0.000728396
0.00106061
0.00144116
0.0019101
0.00232991
0.00263662
0.00284943
0.00292904
0.0029725
0.0028824
0.0027905
0.0023906
0.0016678
0.00116588
0.00122224
0.00148467
0.00177954
0.00209055
0.00231217
0.00243577
0.00251323
0.00248145
0.00241438
0.00341439
0.0026137
0.0019684
0.00150301
0.0014296
0.0015119
0.00169623
0.00188721
0.00204284
0.00216332
0.00216451
0.0021312
0.00416413
0.0033674
0.00262046
0.00198759
0.00170069
0.00158461
0.00165114
0.00179469
0.00193465
0.00201232
0.00215564
0.00204417
0.0026784
0.00250991
0.00256755
0.00279375
0.0032308
0.00386522
0.00451886
0.00515288
0.00575958
0.00611567
0.00523456
0.0017711
0.00231738
0.0022551
0.0024034
0.00280386
0.00337777
0.00392773
0.00447647
0.00502981
0.00558815
0.00607352
0.00595201
0.00321208
0.00211444
0.00217704
0.00257798
0.00314854
0.00373113
0.00421679
0.00465383
0.00509218
0.0055553
0.00600131
0.00633574
0.00444823
0.00187871
0.00222686
0.00299567
0.00369602
0.00417811
0.00454667
0.00489162
0.0052463
0.00561837
0.00596018
0.00626012
0.00522124
0.00380639
0.00319265
0.00250527
0.00187667
0.00171408
0.00177499
0.00196388
0.00219987
0.00243223
0.00250058
0.00237582
0.00136492
0.00359092
0.00295179
0.00230154
0.00190561
0.00189672
0.00203404
0.00225178
0.00251398
0.00283462
0.00298511
0.00258187
0.000990829
0.00348564
0.00284889
0.00229541
0.00205617
0.00210059
0.00227637
0.0024907
0.00284463
0.00323042
0.00329806
0.00260739
0.000695178
0.00346977
0.0028811
0.00242021
0.00224255
0.00229743
0.0024377
0.00269736
0.00311432
0.0034679
0.00339977
0.00248585
0.000410633
0.00152551
0.0029701
0.00387359
0.00439391
0.00470682
0.00494716
0.00515655
0.00538376
0.00559988
0.00573392
0.00551773
0.00464734
0.00129147
0.00320723
0.00425038
0.00471379
0.00491956
0.00507384
0.00523069
0.00538451
0.00549306
0.00546157
0.00502166
0.00431012
0.000861944
0.0031139
0.00428668
0.0047736
0.00496484
0.0050796
0.00519943
0.00530777
0.00535687
0.00522165
0.00472311
0.00414507
0.000505327
0.00293523
0.00420425
0.00471252
0.00490388
0.00500066
0.00509419
0.00518151
0.00520778
0.00500544
0.00452671
0.00407792
0.00380552
0.00319456
0.00251144
0.00189052
0.00172106
0.00177844
0.00196494
0.00219723
0.00242911
0.00249771
0.00237168
0.00137074
0.00359688
0.00296167
0.002319
0.00192135
0.00190569
0.00204391
0.002262
0.00252099
0.00283835
0.00298353
0.00257745
0.000994007
0.00349814
0.00286713
0.00232084
0.00207466
0.00211535
0.00229031
0.00250648
0.00285765
0.00323652
0.00329728
0.00260357
0.000697679
0.00348681
0.00290486
0.00244941
0.00226617
0.00231672
0.002457
0.00271764
0.00312993
0.00347495
0.00340009
0.00248306
0.000411322
0.0015287
0.00297352
0.00387507
0.00439765
0.00471318
0.00495638
0.0051688
0.00539901
0.0056174
0.00575193
0.00553309
0.00465942
0.001292
0.00320538
0.00424996
0.00471601
0.00492396
0.00508
0.00523906
0.00539513
0.00550567
0.00547448
0.00503287
0.00431793
0.000862652
0.00311169
0.00428552
0.0047743
0.00496696
0.00508296
0.0052046
0.00531515
0.00536636
0.00523141
0.00473117
0.00414993
0.000504865
0.00293265
0.00420271
0.00471222
0.00490439
0.00500201
0.00509709
0.00518664
0.0052153
0.0050138
0.00453364
0.00408144
0.00381255
0.0031978
0.0025102
0.00188414
0.00171716
0.00177657
0.00196557
0.00220163
0.00243696
0.00250782
0.00238284
0.00137045
0.00360001
0.0029604
0.00231189
0.00191404
0.0019022
0.00204104
0.0022619
0.00252445
0.00284483
0.00299308
0.00258663
0.000992286
0.00349825
0.00286208
0.00231042
0.00206783
0.0021115
0.00228894
0.00250596
0.00285857
0.0032403
0.00330404
0.00261027
0.000697004
0.00348569
0.00289859
0.00243926
0.00225943
0.00231424
0.00245515
0.00271478
0.00312748
0.00347566
0.00340411
0.00248776
0.000410876
0.00152502
0.00296923
0.0038758
0.00439989
0.0047152
0.00495859
0.00517025
0.00539982
0.00561712
0.00575077
0.00553113
0.0046578
0.00128863
0.00320568
0.00425194
0.00471901
0.00492722
0.00508308
0.00524144
0.0053967
0.0055056
0.00547332
0.00503157
0.00431781
0.000860033
0.00311238
0.00428751
0.0047773
0.00497064
0.00508667
0.0052073
0.00531695
0.00536615
0.00523033
0.0047303
0.00415032
0.000504632
0.00293396
0.00420442
0.00471495
0.00490811
0.005006
0.00510018
0.00518817
0.00521439
0.00501067
0.00453134
0.00408121
0.00381249
0.00319931
0.00251726
0.00189602
0.00172293
0.00178022
0.00196639
0.0021981
0.00242976
0.00249567
0.00236978
0.00136997
0.00360165
0.00296493
0.00232213
0.0019233
0.00190587
0.00204327
0.00225971
0.00251653
0.00283202
0.00297855
0.00257644
0.000993542
0.00350093
0.00286822
0.00232085
0.00207411
0.00211327
0.00228705
0.0025007
0.00284897
0.0032282
0.00329272
0.00260317
0.000698111
0.00348783
0.00290402
0.00244714
0.00226315
0.00231196
0.00245147
0.00270917
0.00311968
0.0034668
0.00339602
0.00248245
0.00041144
0.00152196
0.00296674
0.00386938
0.00439427
0.0047118
0.00495467
0.00516565
0.00539369
0.00561008
0.00574337
0.00552467
0.00465082
0.00128613
0.00320169
0.00424815
0.0047157
0.0049252
0.00508219
0.00524041
0.00539458
0.00550223
0.00546795
0.00502363
0.00430541
0.000858523
0.00310932
0.00428526
0.00477617
0.00497101
0.00508858
0.00521
0.00531824
0.00536571
0.00522493
0.00472127
0.00413201
0.000503345
0.00293167
0.00420342
0.00471527
0.00491013
0.00500993
0.00510527
0.00519252
0.0052168
0.00500768
0.00452287
0.00406005
0.00351377
0.00299142
0.00259576
0.00242892
0.0024413
0.00256863
0.00286947
0.00329975
0.00357916
0.00339995
0.00236623
0.000269643
0.00357055
0.00311573
0.00276286
0.00258198
0.0025523
0.0026744
0.00299537
0.00339883
0.00359465
0.00333864
0.00230403
0.000269603
0.00360273
0.00320975
0.00288682
0.0026902
0.00263163
0.00275002
0.00306613
0.00341749
0.00353298
0.00322512
0.00223151
0.000265545
0.00359305
0.00325558
0.00295654
0.00275283
0.00267902
0.00278918
0.00307698
0.00336147
0.00340378
0.00306223
0.00213496
0.000262759
0.00354056
0.00325505
0.0029748
0.00277451
0.00269333
0.00278503
0.00302375
0.00323326
0.00321084
0.00284993
0.00200925
0.000257828
0.00345098
0.00321409
0.00295012
0.00275833
0.00266906
0.00272753
0.00290007
0.00303152
0.0029541
0.00258674
0.00184595
0.000251122
0.00332612
0.00312918
0.0028834
0.00269691
0.0025913
0.00260092
0.00269613
0.00275138
0.00263078
0.00227072
0.00163604
0.000241126
0.00314222
0.00297561
0.00275232
0.00256351
0.00243172
0.00238236
0.0023985
0.00238518
0.00223648
0.00190001
0.00137138
0.000226592
0.00283562
0.00269336
0.0025007
0.00230601
0.00214684
0.00204057
0.00198265
0.00191418
0.00176096
0.00147159
0.00105013
0.000205406
0.00228874
0.00217255
0.00202711
0.00184154
0.00167331
0.00153504
0.0014387
0.00134707
0.00120818
0.000981214
0.000694212
0.000175931
0.00134097
0.00126808
0.00118324
0.0010769
0.000949863
0.000830904
0.000746279
0.000670044
0.000580794
0.000456892
0.000296945
0.000132616
0.000152207
0.00014945
0.00014465
0.000137924
0.000129783
0.000120332
0.0001107
0.000102725
9.39708e-05
8.33395e-05
6.45135e-05
3.54277e-05
0.000287906
0.00274065
0.00406884
0.00458917
0.00478339
0.00486894
0.0049424
0.0050071
0.00501063
0.00479835
0.00439755
0.00405431
0.000284367
0.00261953
0.0039067
0.0044273
0.00462561
0.00470397
0.00476176
0.00481175
0.004809
0.00461823
0.00429283
0.00403411
0.000276846
0.00251082
0.00372094
0.00423539
0.00444053
0.00451682
0.00456341
0.00460242
0.00459886
0.00444032
0.00418175
0.00398792
0.000269624
0.00238548
0.00350784
0.00401365
0.00422993
0.0043115
0.00435346
0.00438572
0.00438402
0.0042579
0.00405527
0.00390755
0.000261474
0.00224042
0.00326049
0.00375603
0.00398834
0.00408449
0.00413141
0.00416357
0.0041667
0.00406911
0.0039125
0.00379611
0.000251958
0.00206568
0.00296838
0.00345142
0.0037033
0.00382357
0.00388745
0.00392942
0.00394306
0.00387173
0.00375257
0.0036578
0.000240481
0.00184771
0.00261948
0.0030853
0.00335595
0.00350677
0.00359921
0.00366302
0.0036961
0.00365238
0.003567
0.00348924
0.000225717
0.00156951
0.00220341
0.00264175
0.00292227
0.00310215
0.00322923
0.00332484
0.00338725
0.00337566
0.00332566
0.0032666
0.000206028
0.00121559
0.00170147
0.00208759
0.00236219
0.00256735
0.00272521
0.00285271
0.00294864
0.00297276
0.00296237
0.00292822
0.00017915
0.000800654
0.00114151
0.00144377
0.00167215
0.001864
0.00202465
0.00216273
0.00227706
0.00233201
0.0023598
0.00235648
0.000137116
0.000343014
0.000533033
0.000702513
0.000840563
0.000972431
0.00108964
0.00118569
0.00126397
0.00132161
0.00136489
0.00137906
3.67396e-05
6.8634e-05
9.02101e-05
0.000103869
0.000114456
0.000123661
0.000131745
0.000138426
0.000144129
0.000148214
0.000150846
0.000151981
0.00353221
0.00301675
0.00262541
0.00245468
0.00246406
0.0025921
0.00289237
0.00331597
0.00358645
0.00340108
0.00236387
0.000269153
0.0035876
0.00313937
0.00279025
0.00260756
0.00257699
0.00270026
0.00301914
0.00341465
0.00360185
0.00334045
0.00230226
0.000269194
0.00361682
0.00322996
0.00291066
0.0027143
0.0026568
0.00277662
0.00308947
0.00343236
0.00353991
0.00322746
0.00223069
0.000265118
0.00360362
0.00327183
0.00297661
0.00277483
0.0027035
0.00281509
0.00309891
0.00337505
0.00341029
0.00306492
0.00213496
0.000262298
0.00354765
0.00326735
0.00299139
0.0027941
0.0027161
0.00280898
0.00304348
0.00324528
0.0032168
0.00285271
0.00201002
0.000257332
0.003455
0.00322256
0.00296345
0.00277507
0.00268904
0.00274839
0.00291699
0.00304179
0.00295942
0.00258933
0.00184744
0.000250591
0.00332566
0.00313381
0.0028933
0.00271009
0.00260739
0.00261772
0.00270975
0.00275975
0.00263534
0.00227296
0.00163819
0.000240603
0.00313787
0.00297647
0.0027583
0.00257233
0.00244301
0.00239445
0.0024085
0.00239157
0.00224013
0.00190196
0.00137405
0.000226214
0.00282919
0.00269103
0.00250242
0.00231007
0.00215297
0.00204767
0.00198902
0.00191888
0.00176391
0.00147315
0.00105259
0.000205669
0.00228354
0.00216797
0.00202506
0.00184142
0.00167509
0.00153802
0.00144191
0.00134972
0.00120994
0.000982258
0.000695308
0.000177856
0.00133718
0.00126433
0.00118021
0.00107481
0.000949204
0.000831163
0.0007471
0.000670935
0.000581586
0.000457572
0.000296946
0.000148903
0.000151619
0.000148848
0.00014404
0.000137326
0.000129211
0.000119864
0.000110272
0.000102353
9.35786e-05
8.28426e-05
6.46751e-05
0.000222434
0.000287694
0.00273837
0.00406723
0.0045883
0.00478286
0.00486893
0.00494374
0.00501069
0.00501681
0.00480622
0.00440363
0.00405783
0.000284175
0.00261761
0.00390521
0.00442615
0.00462446
0.00470307
0.00476203
0.00481424
0.00481429
0.00462613
0.00429894
0.00403851
0.000276701
0.0025093
0.00371963
0.00423413
0.00443901
0.00451532
0.00456287
0.00460401
0.00460334
0.00444818
0.00418817
0.00399355
0.000269494
0.00238424
0.00350669
0.00401233
0.0042282
0.00430958
0.00435228
0.00438648
0.00438758
0.00426532
0.00406209
0.00391414
0.00026135
0.00223943
0.00325944
0.00375467
0.00398646
0.00408228
0.00412969
0.00416353
0.00416927
0.0040758
0.00391915
0.00380314
0.000251829
0.00206483
0.00296734
0.00345
0.00370132
0.00382116
0.00388531
0.00392865
0.00394463
0.00387742
0.00375854
0.00366465
0.000240347
0.00184695
0.00261842
0.00308381
0.00335391
0.00350426
0.00359681
0.00366172
0.00369684
0.00365696
0.00357193
0.00349542
0.00022558
0.00156879
0.00220235
0.00264024
0.00292024
0.00309969
0.00322682
0.00332331
0.00338754
0.00337937
0.00332954
0.003272
0.000205915
0.00121498
0.00170056
0.00208622
0.00236027
0.00256504
0.00272306
0.00285131
0.00294902
0.00297609
0.00296549
0.00293317
0.000179032
0.000800245
0.00114082
0.0014427
0.00167063
0.00186206
0.00202308
0.00216164
0.00227817
0.00233505
0.00236277
0.00236131
0.000137035
0.000342786
0.000532692
0.000701963
0.000839722
0.000970968
0.0010889
0.00118575
0.00126523
0.00132355
0.00136727
0.00138271
3.67209e-05
6.86003e-05
9.01797e-05
0.000103817
0.000114437
0.000123682
0.000131835
0.000138573
0.000144371
0.000148529
0.000151227
0.00015246
0.00353188
0.00301196
0.00261791
0.00245017
0.00246191
0.00258862
0.00288623
0.00331024
0.00358455
0.00340292
0.00236757
0.000269904
0.00358943
0.00313771
0.00278652
0.00260537
0.00257478
0.00269448
0.00300968
0.00340624
0.00359795
0.0033405
0.00230509
0.000269786
0.00362113
0.00323174
0.00291062
0.00271405
0.0026541
0.00276838
0.00307725
0.00342207
0.00353461
0.00322607
0.00223219
0.000265749
0.00360994
0.00327644
0.00297941
0.00277581
0.00269997
0.00280477
0.00308488
0.00336375
0.00340418
0.00306248
0.00213536
0.000262901
0.00355504
0.00327375
0.00299585
0.00279555
0.00271172
0.00279743
0.00302884
0.00323383
0.00321043
0.00284964
0.00200938
0.00025797
0.00346236
0.00322974
0.00296856
0.00277654
0.00268426
0.00273683
0.00290298
0.00303097
0.00295327
0.00258602
0.00184588
0.000251208
0.00333213
0.00314087
0.00289872
0.00271172
0.00260316
0.00260759
0.0026976
0.00275027
0.00262982
0.0022697
0.00163582
0.000241195
0.00314344
0.00298325
0.00276405
0.00257473
0.00244052
0.00238705
0.00239924
0.00238398
0.00223553
0.00189891
0.00137103
0.000226577
0.00283457
0.00269774
0.0025088
0.00231391
0.00215314
0.00204394
0.00198328
0.00191335
0.00176028
0.00147053
0.00104943
0.000205298
0.00228957
0.00217442
0.00203173
0.00184661
0.00167764
0.0015375
0.00143931
0.00134666
0.0012077
0.000980209
0.000693167
0.000175609
0.00134163
0.00126912
0.00118486
0.00107934
0.000952501
0.000832407
0.000746757
0.000670173
0.000580625
0.000456301
0.000296463
0.00013222
0.000152188
0.000149488
0.000144723
0.000138019
0.000129899
0.000120463
0.000110726
0.000102715
9.39377e-05
8.32001e-05
6.42518e-05
3.52746e-05
0.000287622
0.00273953
0.00406849
0.00459058
0.00478632
0.00487287
0.00494688
0.00501191
0.0050152
0.00480204
0.00440078
0.00405618
0.000284147
0.0026184
0.00390597