/*--------------------------------*- C++ -*----------------------------------*\
  =========                 |
  \\      /  F ield         | OpenFOAM: The Open Source CFD Toolbox
   \\    /   O peration     | Website:  https://openfoam.org
    \\  /    A nd           | Version:  6
     \\/     M anipulation  |
\*---------------------------------------------------------------------------*/
FoamFile
{
    version     2.0;
    format      ascii;
    class       volVectorField;
    location    "50";
    object      U;
}
// * * * * * * * * * * * * * * * * * * * * * * * * * * * * * * * * * * * * * //

dimensions      [0 1 -1 0 0 0 0];

internalField   nonuniform List<vector> 
3072
(
(-0.15089 2.36951 0)
(0.403755 2.09159 0)
(1.61112 2.21795 2.64678e-19)
(2.31037 3.17654 5.48647e-19)
(2.57175 3.70476 -1.22735e-18)
(2.95746 4.20664 7.04245e-19)
(3.31821 4.50867 6.267e-19)
(3.71529 4.71277 3.70311e-18)
(4.09298 4.77028 -5.86105e-18)
(4.445 4.73511 2.95616e-18)
(4.74975 4.60165 -6.91274e-19)
(5.00129 4.39713 7.59863e-20)
(0.764532 3.19348 -1.64987e-19)
(1.69131 3.52227 -4.05129e-19)
(2.3317 4.00283 2.26527e-19)
(2.59054 4.22968 0)
(2.68423 4.48125 6.02804e-19)
(2.8504 4.70121 -8.2528e-19)
(3.03891 4.86692 0)
(3.26559 4.97413 0)
(3.49349 5.01351 0)
(3.72479 4.98375 8.51668e-19)
(3.94482 4.88692 3.65636e-19)
(4.14495 4.72746 5.20285e-19)
(1.49447 3.14824 9.27031e-20)
(2.41605 3.61796 0)
(2.86269 3.9543 0)
(3.02012 4.15012 -1.24103e-18)
(3.16024 4.32743 7.28654e-19)
(3.3189 4.46986 -8.41742e-19)
(3.47283 4.57493 1.0147e-18)
(3.63054 4.63801 0)
(3.78305 4.65467 0)
(3.92823 4.62124 -1.78683e-19)
(4.05856 4.5381 -1.9051e-19)
(4.16661 4.40737 8.87915e-19)
(2.46893 3.20172 -3.36856e-19)
(2.99204 3.71105 -6.62374e-19)
(3.22537 3.9049 5.52123e-19)
(3.30794 4.09205 -6.17579e-19)
(3.39176 4.24688 2.06048e-18)
(3.47704 4.37224 -1.87369e-18)
(3.56301 4.46605 -8.65009e-19)
(3.65227 4.52632 -2.0719e-18)
(3.73957 4.54973 -1.35119e-20)
(3.82129 4.53367 1.12955e-18)
(3.89077 4.47465 1.46193e-18)
(3.94059 4.37253 -1.16226e-18)
(2.99854 3.34548 0)
(3.33064 3.81568 2.66592e-19)
(3.46021 3.90257 -6.58916e-19)
(3.48908 4.04067 1.2235e-18)
(3.5294 4.14762 1.44757e-19)
(3.57423 4.2395 8.81836e-19)
(3.62078 4.31293 7.77427e-19)
(3.6676 4.36771 6.69158e-19)
(3.70828 4.39538 -1.40914e-18)
(3.74299 4.39538 1.40345e-18)
(3.76268 4.36088 -2.19149e-18)
(3.75983 4.2908 3.18588e-18)
(3.38019 3.42292 -2.97752e-19)
(3.55756 3.87618 2.39541e-19)
(3.59063 3.86931 1.22672e-18)
(3.58407 3.95476 0)
(3.59229 4.01209 -2.49935e-18)
(3.60537 4.06943 2.40181e-18)
(3.61755 4.12309 0)
(3.62644 4.17306 -1.80752e-18)
(3.62964 4.2083 1.6937e-18)
(3.62152 4.22866 0)
(3.59161 4.22567 7.50671e-20)
(3.53981 4.19212 2.07638e-18)
(3.46932 3.5485 0)
(3.59431 3.91632 -9.1425e-19)
(3.61277 3.81024 1.01532e-18)
(3.59357 3.83395 0)
(3.57916 3.83895 -1.50252e-18)
(3.56895 3.8583 3.14833e-19)
(3.55425 3.88689 2.4246e-18)
(3.53198 3.92416 2.25671e-18)
(3.49841 3.96398 -2.1614e-18)
(3.44718 4.00153 2.2287e-18)
(3.37253 4.02937 -2.02378e-18)
(3.27443 4.03607 -6.33379e-18)
(3.43717 3.64412 0)
(3.56083 3.96868 5.97281e-19)
(3.55873 3.73483 -1.52164e-18)
(3.52423 3.68294 2.00266e-18)
(3.49664 3.62889 0)
(3.46961 3.60444 -2.84276e-18)
(3.43204 3.6026 2.75804e-18)
(3.38017 3.62181 -3.66166e-20)
(3.31046 3.65776 -4.95915e-18)
(3.21736 3.70698 -2.39479e-18)
(3.09773 3.76271 -1.68115e-19)
(2.95132 3.81059 4.94771e-18)
(3.22701 3.74605 0)
(3.39663 4.01621 -1.38175e-18)
(3.40472 3.61342 -2.42215e-18)
(3.38191 3.48866 -2.03443e-18)
(3.35149 3.3807 4.32409e-18)
(3.31315 3.31376 0)
(3.25508 3.28014 0)
(3.17411 3.27729 0)
(3.06812 3.30264 0)
(2.93241 3.35553 2.6069e-18)
(2.76542 3.43166 -2.77264e-18)
(2.56553 3.51597 2.76071e-18)
(2.89926 3.82968 0)
(3.09259 4.05464 1.2581e-18)
(3.14616 3.4939 -4.32165e-19)
(3.17561 3.26919 3.0251e-18)
(3.1577 3.10876 2.97979e-18)
(3.1132 3.00228 -4.30132e-18)
(3.03606 2.93945 0)
(2.92557 2.91432 -2.10137e-19)
(2.78266 2.92524 -9.86075e-18)
(2.60177 2.97461 0)
(2.38219 3.06064 6.43417e-18)
(2.11893 3.1693 -3.32061e-18)
(2.42504 3.89801 0)
(2.79001 3.84265 2.08157e-18)
(2.84616 3.28769 6.47844e-18)
(2.91973 3.00543 -6.01113e-18)
(2.92916 2.81953 -8.24153e-18)
(2.88603 2.68697 1.20548e-17)
(2.79252 2.60318 -2.68755e-19)
(2.65261 2.56016 -4.53583e-18)
(2.47262 2.55662 3.27683e-18)
(2.2427 2.59724 -7.39472e-18)
(1.9619 2.67993 -1.04951e-17)
(1.61804 2.79365 1.15168e-17)
(1.2915 3.89809 -1.73263e-18)
(2.16542 3.83646 -1.11391e-17)
(2.52631 3.0746 2.27226e-18)
(2.66792 2.74187 0)
(2.69792 2.53446 0)
(2.65442 2.38663 4.65985e-19)
(2.5458 2.29069 1.54082e-17)
(2.37528 2.23507 8.83275e-18)
(2.15595 2.21777 0)
(1.86452 2.24484 7.75896e-18)
(1.4988 2.31249 0)
(1.04111 2.41649 5.3092e-19)
(5.18788 4.13212 3.05616e-18)
(5.31735 3.81544 -1.60289e-18)
(5.37711 3.4653 2.58584e-19)
(5.36354 3.09514 -4.64323e-19)
(5.27189 2.71957 -3.56935e-19)
(5.09991 2.34884 0)
(4.84375 1.99436 0)
(4.50432 1.66818 2.10419e-18)
(4.07796 1.3755 -2.52946e-18)
(3.52841 1.08901 0)
(2.96853 0.749813 0)
(2.67437 0.0431926 -9.5297e-21)
(4.31848 4.51101 1.22965e-20)
(4.4524 4.25431 0)
(4.54024 3.9677 -7.59842e-19)
(4.58171 3.66415 3.35015e-19)
(4.57439 3.35493 3.3789e-19)
(4.51793 3.05307 3.31517e-18)
(4.41129 2.76966 -5.87453e-18)
(4.25355 2.51704 1.14417e-18)
(4.03949 2.30761 0)
(3.68442 2.13862 0)
(3.32134 2.02605 0)
(3.27935 1.7341 1.44531e-18)
(4.24668 4.23258 6.62487e-19)
(4.29665 4.01842 -1.66942e-18)
(4.31633 3.77831 5.7106e-19)
(4.30652 3.5238 1.7928e-18)
(4.26849 3.26847 -1.84946e-18)
(4.20216 3.02834 0)
(4.10587 2.81772 0)
(3.97842 2.65181 -9.20585e-20)
(3.82108 2.544 1.35606e-18)
(3.5877 2.49291 0)
(3.32406 2.49834 0)
(3.36138 2.44618 -9.52266e-19)
(3.96912 4.22755 9.37365e-20)
(3.9756 4.04345 1.99992e-18)
(3.96175 3.8282 1.78554e-18)
(3.92986 3.59354 -1.78981e-18)
(3.88303 3.35452 0)
(3.82438 3.12852 1.30168e-18)
(3.75592 2.93405 0)
(3.68024 2.78911 2.56919e-18)
(3.59902 2.71085 -1.01786e-18)
(3.49568 2.69586 0)
(3.31857 2.77855 -6.22902e-19)
(3.51064 2.96243 1.11924e-18)
(3.73797 4.17928 -1.45477e-18)
(3.70045 4.0259 0)
(3.65194 3.83544 0)
(3.59818 3.61726 0)
(3.54461 3.3857 0)
(3.49677 3.15953 -2.53179e-18)
(3.45916 2.95985 -5.958e-20)
(3.43398 2.80718 -1.31861e-18)
(3.42416 2.73521 0)
(3.42198 2.74501 -1.21379e-18)
(3.33358 2.87322 7.37614e-19)
(3.65167 3.15932 -3.20642e-19)
(3.47122 4.11855 -2.94361e-20)
(3.39387 3.99879 -4.16741e-18)
(3.31662 3.83365 2.31398e-18)
(3.24777 3.62989 1.88034e-19)
(3.19549 3.40007 2.25361e-19)
(3.16629 3.16355 4.03946e-18)
(3.16503 2.94389 4.6831e-21)
(3.19416 2.76714 -4.70906e-18)
(3.2544 2.66583 -1.9146e-18)
(3.34166 2.67002 1.11344e-18)
(3.38309 2.81904 -1.61924e-18)
(3.78348 3.19236 -8.69922e-19)
(3.15989 4.00535 6.607e-18)
(3.04373 3.92358 2.43596e-18)
(2.94093 3.78704 0)
(2.86211 3.59967 0)
(2.81744 3.37085 2.18942e-19)
(2.81379 3.11964 -2.82717e-18)
(2.85467 2.8718 4.72627e-18)
(2.94186 2.65733 -5.51893e-20)
(3.07586 2.51368 1.70755e-18)
(3.25722 2.48189 0)
(3.41516 2.61849 -2.35215e-19)
(3.8865 3.02704 -9.87763e-20)
(2.78733 3.82581 -2.48355e-18)
(2.63058 3.78501 -2.59104e-18)
(2.50467 3.67997 2.94669e-18)
(2.4214 3.51245 -3.07815e-18)
(2.39191 3.28724 -1.97283e-19)
(2.42261 3.02274 6.33004e-18)
(2.51308 2.7454 -3.09352e-18)
(2.66293 2.48758 1.74167e-18)
(2.87146 2.29062 0)
(3.14633 2.20477 1.13758e-18)
(3.42439 2.30965 8.33397e-19)
(3.95582 2.7065 -1.32478e-18)
(2.34377 3.57439 3.08618e-18)
(2.1412 3.57215 -3.02369e-18)
(1.99459 3.49798 -3.18617e-18)
(1.91427 3.35368 -7.02435e-18)
(1.91009 3.13671 6.86692e-18)
(1.98629 2.86348 -6.68172e-18)
(2.13466 2.56141 0)
(2.34994 2.26113 -1.68607e-18)
(2.63041 2.00488 0)
(2.99465 1.84855 0)
(3.38277 1.88233 0)
(3.9704 2.19183 7.04321e-19)
(1.82522 3.2586 3.3579e-18)
(1.5683 3.28434 -7.66452e-18)
(1.40484 3.23351 8.03207e-18)
(1.33895 3.1131 7.86654e-18)
(1.37343 2.91117 3.78615e-18)
(1.50996 2.63716 0)
(1.72579 2.3204 0)
(2.00675 1.98644 3.71626e-18)
(2.34942 1.67185 0)
(2.78842 1.43158 -1.15533e-18)
(3.26441 1.35459 8.29053e-19)
(3.89663 1.44227 -1.99979e-18)
(1.23157 2.8952 -8.42418e-18)
(0.913286 2.93563 8.36523e-18)
(0.746558 2.89229 -8.70174e-18)
(0.711938 2.79264 -2.15305e-17)
(0.800175 2.61398 -9.12254e-20)
(1.01577 2.34761 1.35805e-19)
(1.30649 2.02991 -4.00657e-18)
(1.64933 1.67755 -3.74908e-18)
(2.0374 1.31428 0)
(2.51805 0.988075 3.26404e-18)
(3.00371 0.740836 9.85243e-19)
(3.67889 0.574352 -3.06742e-18)
(0.548527 2.51821 -4.3472e-19)
(0.202651 2.55801 0)
(0.077958 2.50925 0)
(0.0876529 2.42757 3.50319e-18)
(0.253813 2.26038 1.16535e-17)
(0.556602 2.00901 -4.1201e-18)
(0.915851 1.70576 1.32241e-20)
(1.30544 1.35543 -1.89143e-18)
(1.716 0.964 -1.85038e-18)
(2.18758 0.56687 -2.01948e-18)
(2.66107 0.118945 0)
(3.40773 -0.904767 2.22592e-18)
(2.385 0.17841 1.75618e-20)
(2.07994 -0.4265 0)
(2.25347 -1.64433 -2.67793e-19)
(3.20482 -2.29907 0)
(3.72798 -2.57557 -8.47776e-19)
(4.22432 -2.95502 6.92315e-19)
(4.52807 -3.31998 0)
(4.72146 -3.71993 2.99583e-18)
(4.78067 -4.09795 -5.09663e-18)
(4.74192 -4.44898 3.66776e-18)
(4.60823 -4.75423 -4.29753e-20)
(4.40205 -5.00514 -7.88021e-20)
(3.20243 -0.779871 -2.95177e-19)
(3.51748 -1.69764 -2.33879e-19)
(4.00591 -2.32392 4.35483e-19)
(4.23227 -2.5773 0)
(4.48633 -2.67608 -6.22653e-19)
(4.70665 -2.84422 5.60715e-19)
(4.87149 -3.03733 0)
(4.98009 -3.26191 3.04391e-19)
(5.01844 -3.4917 -4.5526e-19)
(4.98781 -3.72333 2.14194e-19)
(4.89032 -3.94388 -5.85953e-19)
(4.7302 -4.14421 -1.29764e-18)
(3.1517 -1.5217 -9.70231e-20)
(3.61101 -2.42102 0)
(3.95005 -2.8589 -5.81876e-19)
(4.14831 -3.01029 0)
(4.32787 -3.15691 0)
(4.47096 -3.31508 -3.62416e-19)
(4.57638 -3.47017 1.93325e-18)
(4.63971 -3.62723 -1.1303e-18)
(4.65618 -3.7801 2.16169e-19)
(4.62241 -3.92543 0)
(4.53886 -4.05584 6.76341e-19)
(4.40776 -4.16404 -5.27722e-19)
(3.19968 -2.49506 1.52667e-19)
(3.70483 -2.99963 3.20703e-19)
(3.90171 -3.22441 5.26761e-19)
(4.09041 -3.30452 1.11754e-18)
(4.2462 -3.38937 -1.04615e-18)
(4.37179 -3.47324 -7.17889e-19)
(4.46564 -3.55884 0)
(4.52575 -3.64731 0)
(4.54881 -3.73437 7.12748e-19)
(4.53235 -3.81595 0)
(4.47293 -3.88552 2.57947e-19)
(4.37042 -3.93566 4.58063e-19)
(3.34127 -3.01894 1.69249e-19)
(3.81113 -3.3352 -1.96978e-19)
(3.90058 -3.45816 -6.63281e-19)
(4.03902 -3.48629 0)
(4.14608 -3.52641 0)
(4.23779 -3.56971 1.12413e-18)
(4.31099 -3.61508 0)
(4.36506 -3.66085 -1.55483e-18)
(4.39194 -3.70085 -6.24426e-19)
(4.39118 -3.73537 1.415e-18)
(4.35621 -3.75455 -2.19375e-18)
(4.28556 -3.7523 1.49035e-18)
(3.41974 -3.39646 -1.37269e-19)
(3.87432 -3.56068 -2.60854e-19)
(3.86864 -3.58893 5.59027e-19)
(3.95338 -3.58119 1.10371e-19)
(4.01003 -3.58822 1.28625e-18)
(4.06692 -3.59928 -2.31137e-18)
(4.11995 -3.60963 2.06668e-18)
(4.16881 -3.61697 1.52302e-19)
(4.20245 -3.61937 0)
(4.22179 -3.61045 0)
(4.21788 -3.58035 3.78328e-18)
(4.18353 -3.52959 1.26436e-19)
(3.54712 -3.48356 -9.50473e-20)
(3.91617 -3.59782 -5.66102e-19)
(3.81001 -3.61026 0)
(3.83305 -3.58961 -1.43141e-18)
(3.83678 -3.57346 1.62707e-18)
(3.8552 -3.56072 4.09729e-18)
(3.88268 -3.54379 2.60588e-18)
(3.91862 -3.51951 3.27795e-19)
(3.95675 -3.48479 -4.46562e-18)
(3.99275 -3.43288 2.0944e-18)
(4.01903 -3.35877 2.39312e-18)
(4.02461 -3.26235 1.54635e-19)
(3.64331 -3.45079 4.18372e-20)
(3.97049 -3.56247 5.98958e-19)
(3.73582 -3.55531 0)
(3.68263 -3.51877 -2.00826e-18)
(3.62703 -3.48887 -1.60828e-18)
(3.60132 -3.45907 1.95475e-19)
(3.59817 -3.41887 -5.40564e-18)
(3.61579 -3.36496 1.46012e-19)
(3.64999 -3.29402 -1.59136e-19)
(3.6973 -3.20086 2.52535e-18)
(3.75113 -3.0825 -2.22474e-18)
(3.79732 -2.93891 6.30049e-20)
(3.74511 -3.24038 -7.2237e-19)
(4.0184 -3.39816 4.05659e-19)
(3.61468 -3.40035 -3.5283e-18)
(3.48878 -3.37478 2.04219e-18)
(3.37944 -3.3417 0)
(3.31127 -3.30041 0)
(3.27634 -3.23968 3.36408e-18)
(3.27191 -3.15681 6.03418e-18)
(3.29549 -3.05003 -2.83855e-18)
(3.34635 -2.91508 -2.60861e-18)
(3.42028 -2.7505 -2.61385e-18)
(3.50249 -2.55489 0)
(3.82913 -2.9134 1.76747e-20)
(4.05739 -3.09362 1.88836e-18)
(3.49535 -3.141 5.36377e-18)
(3.27001 -3.16719 0)
(3.10856 -3.14626 5.06999e-18)
(3.00106 -3.09874 0)
(2.9371 -3.01916 1.3161e-19)
(2.91057 -2.90715 -3.30856e-18)
(2.91975 -2.7642 3.43036e-18)
(2.96703 -2.58516 0)
(3.05064 -2.36947 0)
(3.15704 -2.11238 -6.66431e-18)
(3.89503 -2.43874 -2.168e-18)
(3.84257 -2.79116 2.07147e-18)
(3.29056 -2.841 4.25015e-19)
(3.00699 -2.91037 -6.74408e-18)
(2.8207 -2.91637 -2.62282e-18)
(2.68742 -2.87035 -2.46113e-18)
(2.6028 -2.77483 -4.4541e-18)
(2.55859 -2.63398 -1.19853e-17)
(2.55337 -2.45489 -3.30377e-18)
(2.59177 -2.22814 -7.44815e-18)
(2.67191 -1.95292 7.47482e-18)
(2.78347 -1.61766 7.28769e-18)
(3.89835 -1.30684 3.25644e-18)
(3.83355 -2.17061 -1.28803e-18)
(3.07754 -2.522 3.43686e-19)
(2.74409 -2.6582 6.43338e-18)
(2.53684 -2.6844 0)
(2.3885 -2.63806 -5.95888e-18)
(2.29208 -2.52785 4.8978e-18)
(2.23561 -2.35697 3.78863e-18)
(2.21684 -2.13933 -1.34576e-17)
(2.24164 -1.85263 7.81611e-18)
(2.30667 -1.4947 -7.5025e-18)
(2.40851 -1.04877 0)
(4.13633 -5.19212 -1.46254e-18)
(3.81929 -5.32095 3.51135e-18)
(3.46842 -5.38084 -1.53912e-18)
(3.09819 -5.36684 -1.63873e-19)
(2.7219 -5.27519 -3.05603e-19)
(2.35141 -5.10279 3.33354e-19)
(1.9962 -4.84634 1.11111e-20)
(1.67014 -4.50668 -6.70438e-19)
(1.37714 -4.07951 -2.53195e-18)
(1.09034 -3.52965 0)
(0.751569 -2.96892 0)
(0.0433928 -2.67428 -9.32948e-21)
(4.51329 -4.31806 -2.73087e-19)
(4.25625 -4.45215 7.47093e-19)
(3.96949 -4.54022 -7.59865e-19)
(3.66586 -4.58192 0)
(3.35662 -4.57484 1.66141e-18)
(3.0548 -4.5186 0)
(2.77142 -4.41221 1.85597e-18)
(2.51888 -4.25462 3.88468e-18)
(2.30942 -4.0406 -3.35593e-18)
(2.14041 -3.68556 0)
(2.02778 -3.32222 0)
(1.73607 -3.27993 8.28856e-21)
(4.23263 -4.24448 3.94005e-19)
(4.0184 -4.29486 -2.76814e-19)
(3.77834 -4.31503 5.72695e-19)
(3.52404 -4.30571 0)
(3.26899 -4.26815 -9.10498e-19)
(3.02922 -4.20221 2.56317e-18)
(2.81893 -4.10623 -3.65446e-18)
(2.65336 -3.97898 -4.89762e-18)
(2.54585 -3.82171 3.89585e-18)
(2.49516 -3.58828 0)
(2.50085 -3.32458 8.20223e-19)
(2.44884 -3.36141 3.19716e-19)
(4.22516 -3.96479 5.21165e-19)
(4.04111 -3.97199 -1.44056e-18)
(3.82613 -3.95898 1.78318e-18)
(3.59197 -3.92789 -1.78754e-18)
(3.35358 -3.88182 0)
(3.12827 -3.8238 1.29849e-18)
(2.93448 -3.75583 1.25574e-18)
(2.79019 -3.68047 8.44554e-19)
(2.71248 -3.59939 -2.00161e-18)
(2.69803 -3.4961 0)
(2.78114 -3.319 -5.04188e-19)
(2.96562 -3.51074 9.39647e-19)
(4.17381 -3.73137 1.72572e-18)
(4.02057 -3.69511 -8.88083e-19)
(3.83066 -3.64788 0)
(3.61334 -3.59537 0)
(3.38282 -3.54286 1.22969e-18)
(3.1578 -3.49588 -1.183e-18)
(2.95917 -3.45887 -1.59227e-19)
(2.80761 -3.43408 0)
(2.73647 -3.42447 -8.49718e-19)
(2.74709 -3.42258 1.21182e-18)
(2.87594 -3.33406 -1.56395e-18)
(3.16283 -3.65154 -4.36074e-19)
(4.10966 -3.46266 -3.88625e-18)
(3.99013 -3.38719 1.96959e-18)
(3.82586 -3.31189 4.62674e-18)
(3.62337 -3.24471 1.85822e-19)
(3.39513 -3.19377 -6.27604e-18)
(3.16023 -3.1655 -2.83011e-18)
(2.94212 -3.16481 -1.53031e-19)
(2.76675 -3.19425 0)
(2.66662 -3.25466 0)
(2.67181 -3.34211 -1.11173e-18)
(2.82183 -3.3835 -9.13981e-19)
(3.19592 -3.7835 3.94131e-19)
(3.99328 -3.15038 2.32095e-18)
(3.91187 -3.03695 -4.70241e-18)
(3.7764 -2.93667 -2.35402e-18)
(3.59072 -2.85989 -1.90669e-20)
(3.36398 -2.81663 2.79917e-18)
(3.11495 -2.81381 2.89106e-18)
(2.86919 -2.85505 1.64078e-18)
(2.65649 -2.94236 1.62616e-18)
(2.51425 -3.07629 -1.77642e-18)
(2.48365 -3.25762 0)
(2.62117 -3.41562 1.5328e-18)
(3.03052 -3.88615 -5.51418e-19)
(3.81165 -2.77864 0)
(3.77111 -2.62555 2.5681e-18)
(3.66732 -2.50261 0)
(3.50186 -2.42146 -2.29565e-19)
(3.27917 -2.39313 -1.95073e-19)
(3.01727 -2.4242 6.27466e-18)
(2.74234 -2.51451 -6.39911e-18)
(2.48651 -2.66396 0)
(2.2911 -2.87218 -1.8885e-18)
(2.2064 -3.14676 1.13485e-18)
(2.3122 -3.42473 -2.74898e-18)
(2.70969 -3.95588 1.75949e-18)
(3.55978 -2.33836 3.06165e-18)
(3.55779 -2.14034 -2.9946e-18)
(3.48494 -1.99691 -3.3559e-18)
(3.34284 -1.91839 3.45415e-18)
(3.12867 -1.91456 3.50238e-18)
(2.85827 -1.99015 -1.01191e-17)
(2.55867 -2.13746 3.30523e-18)
(2.26037 -2.35165 0)
(2.00558 -2.63122 1.76753e-18)
(1.85018 -2.99485 0)
(1.88482 -3.38292 2.90345e-18)
(2.19504 -3.97008 -3.15758e-18)
(3.2453 -1.82562 0)
(3.27146 -1.57403 -7.58906e-18)
(3.222 -1.4134 -4.16834e-18)
(3.1037 -1.34851 -7.86453e-18)
(2.90472 -1.38201 3.73103e-18)
(2.63342 -1.51649 3.67198e-18)
(2.31893 -1.73002 0)
(1.98663 -2.00897 0)
(1.67315 -2.35021 0)
(1.43358 -2.78823 0)
(1.357 -3.26386 -7.92567e-19)
(1.44527 -3.89612 -5.47088e-20)
(2.88416 -1.23967 4.22604e-18)
(2.92526 -0.927056 4.19804e-18)
(2.88343 -0.761624 1.7589e-17)
(2.78567 -0.726793 4.20035e-18)
(2.61007 -0.812451 1.71462e-17)
(2.34618 -1.02437 -4.08425e-18)
(2.0304 -1.31158 -3.96394e-18)
(1.67921 -1.65169 0)
(1.31659 -2.03784 -3.76406e-18)
(0.990566 -2.51722 -2.12298e-18)
(0.743279 -3.00248 -1.76994e-18)
(0.576473 -3.67815 -1.92669e-25)
(2.50905 -0.56492 0)
(2.55022 -0.222998 0)
(2.50247 -0.0968967 -1.69804e-17)
(2.42271 -0.105113 -1.10984e-17)
(2.25881 -0.26643 -3.95299e-18)
(2.01003 -0.564692 0)
(1.70842 -0.920209 4.03514e-18)
(1.35864 -1.3071 0)
(0.967395 -1.71565 4.09826e-20)
(0.570019 -2.18588 2.01058e-18)
(0.121361 -2.65884 6.89291e-19)
(-0.90367 -3.4051 4.48788e-18)
(0.180803 -2.38744 3.33427e-19)
(-0.426955 -2.08024 3.58911e-20)
(-1.64809 -2.25701 -1.78673e-20)
(-2.30053 -3.20859 -3.20191e-19)
(-2.57743 -3.73304 0)
(-2.95651 -4.22958 -6.80763e-20)
(-3.32189 -4.53379 0)
(-3.72201 -4.72678 -2.91193e-19)
(-4.10049 -4.78605 3.13952e-18)
(-4.45136 -4.74714 -2.16353e-18)
(-4.75664 -4.61306 -3.51008e-18)
(-5.00756 -4.40635 2.18689e-18)
(-0.779379 -3.20534 2.75623e-19)
(-1.69922 -3.51836 -4.42933e-19)
(-2.32579 -4.00772 3.42797e-19)
(-2.57909 -4.23443 1.89923e-19)
(-2.67885 -4.48939 -6.24006e-19)
(-2.84671 -4.71009 3.23278e-19)
(-3.03999 -4.87567 -4.28781e-19)
(-3.26468 -4.98469 -9.54447e-20)
(-3.49484 -5.02334 1.13233e-18)
(-3.72667 -4.99275 -3.03696e-22)
(-3.9474 -4.89519 8.64285e-19)
(-4.14782 -4.73483 7.06374e-19)
(-1.52395 -3.1534 -1.95694e-19)
(-2.42424 -3.61167 0)
(-2.86218 -3.95196 0)
(-3.01374 -4.15062 -4.71476e-19)
(-3.16017 -4.33101 0)
(-3.31822 -4.4748 -4.95475e-19)
(-3.47347 -4.58101 3.98217e-19)
(-3.63074 -4.64501 7.3394e-19)
(-3.78388 -4.66196 -5.45984e-19)
(-3.92933 -4.62851 -2.94174e-19)
(-4.05981 -4.54509 -8.63559e-19)
(-4.16793 -4.41397 8.91558e-19)
(-2.4973 -3.20014 -3.06521e-19)
(-3.00352 -3.70492 -3.21224e-19)
(-3.22838 -3.90303 6.34941e-19)
(-3.3089 -4.09243 4.96237e-19)
(-3.39383 -4.2492 0)
(-3.47783 -4.3758 -2.01182e-18)
(-3.56365 -4.47059 1.50169e-18)
(-3.65239 -4.53151 0)
(-3.73959 -4.55524 9.39865e-19)
(-3.82115 -4.53921 -1.54239e-18)
(-3.8906 -4.48013 1.20326e-18)
(-3.94047 -4.37776 2.47559e-19)
(-3.02334 -3.34175 2.39109e-19)
(-3.34044 -3.81144 5.88579e-19)
(-3.46355 -3.90181 1.08201e-19)
(-3.4919 -4.04099 0)
(-3.5322 -4.149 -1.1741e-18)
(-3.57567 -4.24183 1.89014e-18)
(-3.62132 -4.31609 0)
(-3.66719 -4.37142 -8.60486e-19)
(-3.70715 -4.39925 -8.03419e-19)
(-3.74144 -4.39927 1.4e-18)
(-3.76081 -4.36464 0)
(-3.75787 -4.29438 -1.34813e-18)
(-3.40145 -3.42032 1.60989e-19)
(-3.5655 -3.87509 1.3357e-19)
(-3.59494 -3.86963 -5.58152e-19)
(-3.58775 -3.95512 -2.86697e-18)
(-3.59512 -4.01271 -3.22314e-20)
(-3.60651 -4.07057 2.40195e-18)
(-3.61725 -4.12463 0)
(-3.62483 -4.17479 2.782e-18)
(-3.62716 -4.20996 -1.72974e-18)
(-3.61809 -4.23046 1.75855e-18)
(-3.5876 -4.22741 7.45792e-20)
(-3.53577 -4.19371 -1.27358e-19)
(-3.4894 -3.54754 -3.5444e-19)
(-3.61639 -3.91081 -3.53158e-19)
(-3.61884 -3.8116 0)
(-3.59691 -3.83443 3.0047e-18)
(-3.58114 -3.83898 -4.59676e-18)
(-3.56896 -3.85842 -1.15303e-19)
(-3.55241 -3.88706 -5.0231e-18)
(-3.52846 -3.9243 1.65999e-19)
(-3.49359 -3.96398 -2.15793e-18)
(-3.4414 -4.0014 -2.22237e-18)
(-3.36638 -4.02905 2.3897e-18)
(-3.26852 -4.03561 -2.08377e-18)
(-3.45536 -3.64275 2.09094e-20)
(-3.55115 -3.97414 -4.26644e-19)
(-3.5605 -3.73507 0)
(-3.52635 -3.68296 2.00333e-18)
(-3.49719 -3.62839 1.46804e-18)
(-3.468 -3.60366 1.31398e-18)
(-3.42831 -3.60158 -1.60831e-19)
(-3.37459 -3.62048 3.67577e-20)
(-3.30347 -3.65614 -2.58591e-18)
(-3.20955 -3.7051 -2.62799e-19)
(-3.08985 -3.76059 9.89518e-20)
(-2.94416 -3.80831 0)
(-3.24453 -3.74543 3.91953e-19)
(-3.41558 -4.01585 0)
(-3.40851 -3.61418 0)
(-3.38291 -3.48872 -2.03624e-18)
(-3.35048 -3.37981 1.88549e-18)
(-3.3098 -3.31237 -3.73907e-18)
(-3.24948 -3.27831 0)
(-3.16661 -3.27496 2.9195e-18)
(-3.05932 -3.29986 -1.69956e-19)
(-2.92313 -3.35239 2.60681e-18)
(-2.75656 -3.42821 -2.82784e-18)
(-2.55811 -3.51234 5.78714e-18)
(-2.9157 -3.82839 1.31149e-18)
(-3.09557 -4.05551 -6.61096e-19)
(-3.14794 -3.49358 -2.89313e-18)
(-3.17533 -3.26863 -5.65961e-18)
(-3.15519 -3.10759 0)
(-3.10822 -3.00065 3.86283e-18)
(-3.02884 -2.93735 -7.42221e-18)
(-2.91651 -2.91165 3.20893e-18)
(-2.7726 -2.92197 3.42629e-18)
(-2.59173 -2.97081 0)
(-2.37326 -3.05637 -3.45544e-18)
(-2.11238 -3.16484 -6.228e-18)
(-2.44152 -3.89416 -2.13809e-18)
(-2.79559 -3.83999 9.08901e-19)
(-2.84797 -3.28689 3.02062e-18)
(-2.91858 -3.00432 2.87088e-18)
(-2.92533 -2.81821 9.50583e-20)
(-2.87971 -2.68537 -7.3262e-18)
(-2.78406 -2.60131 8.38648e-18)
(-2.6425 -2.55777 1.56845e-17)
(-2.46198 -2.55353 -1.07724e-17)
(-2.2327 -2.59338 -7.4415e-18)
(-1.95379 -2.67536 6.92031e-18)
(-1.61343 -2.78884 0)
(-1.30574 -3.89654 5.1096e-18)
(-2.17382 -3.83161 1.77765e-18)
(-2.5288 -3.07213 1.92617e-18)
(-2.66638 -2.73981 6.9894e-18)
(-2.69328 -2.53276 0)
(-2.64721 -2.38496 5.4816e-18)
(-2.53659 -2.2891 -1.061e-17)
(-2.36457 -2.23329 -4.33253e-18)
(-2.14505 -2.21545 -4.40959e-18)
(-1.85495 -2.2416 7.80054e-18)
(-1.4921 -2.30827 4.17641e-18)
(-1.03938 -2.41188 1.17052e-17)
(-5.1945 -4.14002 5.73951e-19)
(-5.32314 -3.82243 2.24651e-19)
(-5.38277 -3.47096 5.14096e-19)
(-5.36849 -3.10017 -1.00198e-18)
(-5.27649 -2.72344 5.25018e-20)
(-5.10378 -2.35249 0)
(-4.84703 -1.99686 -1.44781e-18)
(-4.50714 -1.67042 1.17728e-18)
(-4.07989 -1.37707 0)
(-3.53013 -1.08987 6.96271e-20)
(-2.96918 -0.750776 0)
(-2.67466 -0.0433093 -6.36583e-19)
(-4.32161 -4.51759 -1.18787e-18)
(-4.45544 -4.26013 1.54403e-18)
(-4.5432 -3.97286 1.53626e-18)
(-4.58451 -3.6687 -5.53344e-19)
(-4.57703 -3.35891 0)
(-4.52041 -3.05657 0)
(-4.41367 -2.77276 2.11799e-18)
(-4.2558 -2.51986 -2.52307e-18)
(-4.04156 -2.31009 0)
(-3.68635 -2.14086 1.04844e-18)
(-3.32246 -2.02813 -6.70673e-20)
(-3.27975 -1.73657 -2.06408e-18)
(-4.24815 -4.23858 5.94716e-19)
(-4.29818 -4.02391 -1.13479e-18)
(-4.31795 -3.78326 0)
(-4.30823 -3.52827 -1.68464e-18)
(-4.27029 -3.27247 -2.13823e-18)
(-4.20399 -3.03197 4.84135e-18)
(-4.10769 -2.82101 -4.50471e-18)
(-3.98015 -2.65487 0)
(-3.82266 -2.54692 0)
(-3.58908 -2.49582 0)
(-3.32515 -2.50137 -8.05137e-19)
(-3.36156 -2.44952 3.13352e-19)
(-3.9691 -4.23243 -5.19299e-19)
(-3.97571 -4.04797 -2.27308e-19)
(-3.96205 -3.83238 0)
(-3.93035 -3.5974 -2.067e-19)
(-3.88371 -3.3581 0)
(-3.8252 -3.13186 0)
(-3.75684 -2.93721 1.31119e-18)
(-3.68118 -2.79216 -1.6935e-18)
(-3.59991 -2.71388 2.10265e-18)
(-3.49657 -2.69915 0)
(-3.31921 -2.78218 -6.23063e-19)
(-3.51071 -2.96663 -1.12023e-18)
(-3.73612 -4.18264 3.50612e-18)
(-3.69887 -4.02907 -8.86498e-19)
(-3.65071 -3.83844 2.02717e-18)
(-3.59733 -3.62013 1.15966e-18)
(-3.54412 -3.38849 -3.44719e-18)
(-3.49656 -3.1623 0)
(-3.45915 -2.96262 -1.47479e-18)
(-3.4341 -2.81001 0)
(-3.42432 -2.73815 0)
(-3.4222 -2.74834 1.21625e-18)
(-3.33389 -2.8771 2.27271e-20)
(-3.65136 -3.16382 1.19041e-18)
(-3.4675 -4.12003 -1.94296e-18)
(-3.39066 -4.00025 -2.09026e-19)
(-3.31406 -3.83517 0)
(-3.2458 -3.63154 0)
(-3.19403 -3.40188 -4.07215e-18)
(-3.16522 -3.16556 2.61504e-18)
(-3.16425 -2.94613 2.88155e-18)
(-3.19356 -2.76962 1.58377e-18)
(-3.25395 -2.66855 -3.70386e-18)
(-3.34139 -2.67308 -1.11197e-18)
(-3.38304 -2.82264 0)
(-3.78302 -3.19673 1.34611e-18)
(-3.15466 -4.00487 -4.64835e-18)
(-3.03939 -3.92332 2.02127e-18)
(-2.93751 -3.78706 2.59257e-18)
(-2.85947 -3.60003 2.19389e-19)
(-2.81541 -3.37164 -2.58029e-19)
(-2.8122 -3.12088 -3.0204e-18)
(-2.85337 -2.87349 -4.60549e-18)
(-2.94076 -2.65942 -1.68727e-18)
(-3.07494 -2.51613 1.70283e-18)
(-3.25652 -2.48474 0)
(-3.41478 -2.6219 2.56511e-18)
(-3.88579 -3.03098 -8.34831e-19)
(-2.78141 -3.8236 5.09894e-18)
(-2.62596 -3.78319 -2.7905e-18)
(-2.50118 -3.67871 -2.92384e-18)
(-2.41881 -3.51185 -5.87771e-18)
(-2.3899 -3.28729 5.86206e-18)
(-2.42094 -3.02341 -2.03861e-19)
(-2.51155 -2.74664 9.55217e-18)
(-2.66148 -2.48932 1.59368e-18)
(-2.87015 -2.29277 1.89023e-18)
(-3.14523 -2.20729 0)
(-3.42369 -2.31268 -1.73671e-18)
(-3.955 -2.70982 -1.0967e-18)
(-2.33834 -3.57097 0)
(-2.13747 -3.5694 3.01518e-18)
(-1.99216 -3.49604 3.15943e-18)
(-1.91268 -3.35264 -3.49426e-18)
(-1.90879 -3.13653 -2.14902e-19)
(-1.98499 -2.86402 -3.51687e-18)
(-2.13318 -2.56254 -3.31215e-18)
(-2.34829 -2.26271 0)
(-2.62873 -2.00679 -1.76965e-18)
(-2.99309 -1.85072 -1.14487e-18)
(-3.38166 -1.88481 4.7078e-18)
(-3.96944 -2.19424 -1.50527e-18)
(-1.82151 -3.25457 0)
(-1.56657 -3.28133 0)
(-1.4043 -3.23153 0)
(-1.33905 -3.11219 -1.21189e-17)
(-1.37336 -2.91137 7.47745e-18)
(-1.50937 -2.63808 7.3646e-18)
(-1.72456 -2.32183 0)
(-2.005 -1.98815 -3.69404e-18)
(-2.34739 -1.67371 0)
(-2.78632 -1.43349 -2.23817e-18)
(-3.2627 -1.35641 -7.93396e-19)
(-3.89531 -1.44353 -2.00091e-18)
(-1.23049 -2.8909 0)
(-0.914119 -2.93263 0)
(-0.747841 -2.89041 8.99015e-18)
(-0.713608 -2.79208 1.2692e-17)
(-0.801227 -2.61476 2.88834e-19)
(-1.01579 -2.34916 4.23446e-18)
(-1.30543 -2.03192 -2.01998e-18)
(-1.64746 -1.67967 5.57923e-18)
(-2.03505 -1.31632 3.76905e-18)
(-2.51544 -0.989862 2.08952e-18)
(-3.00118 -0.741978 -1.77136e-18)
(-3.67694 -0.574621 -3.27255e-18)
(-0.550354 -2.5138 0)
(-0.205473 -2.55511 0)
(-0.0800687 -2.50727 -8.34842e-18)
(-0.0896222 -2.42696 3.60652e-18)
(-0.254521 -2.26134 -3.9657e-18)
(-0.556113 -2.01114 -4.10129e-18)
(-0.91435 -1.70844 4.02932e-18)
(-1.30329 -1.35799 0)
(-1.71333 -0.966308 -3.74768e-18)
(-2.18454 -0.568695 -1.97252e-18)
(-2.658 -0.119518 2.27981e-18)
(-3.4058 0.907404 -4.32204e-18)
(-2.38341 -0.181033 2.50525e-19)
(-2.08125 0.415146 0)
(-2.24032 1.63134 0)
(-3.19482 2.3008 4.5036e-19)
(-3.72007 2.57443 -2.17632e-19)
(-4.21801 2.95511 0)
(-4.52261 3.3192 0)
(-4.71793 3.71949 -2.87264e-19)
(-4.77773 4.09795 6.05948e-20)
(-4.74032 4.44961 -1.46515e-18)
(-4.60731 4.75514 -3.53838e-18)
(-4.40184 5.00675 1.51235e-18)
(-3.19824 0.770731 -4.13972e-19)
(-3.51557 1.69084 0)
(-4.00397 2.32349 0)
(-4.23018 2.58039 -4.82496e-19)
(-4.48355 2.67828 9.31393e-19)
(-4.70351 2.84653 -1.46089e-18)
(-4.86847 3.03885 8.21519e-19)
(-4.97742 3.26377 5.4703e-19)
(-5.01639 3.49352 5.87271e-19)
(-4.98641 3.72533 8.53225e-19)
(-4.88958 3.94605 0)
(-4.73016 4.14665 2.37101e-19)
(-3.15037 1.51242 1.9584e-19)
(-3.6112 2.41539 0)
(-3.94983 2.85747 0)
(-4.14722 3.01158 -9.87132e-20)
(-4.32576 3.15772 9.91701e-20)
(-4.4685 3.31648 -7.70872e-19)
(-4.57378 3.47173 0)
(-4.63726 3.62938 -1.04664e-18)
(-4.65406 3.78271 1.19793e-18)
(-4.62078 3.9285 -1.87633e-19)
(-4.53779 4.05925 -6.8164e-19)
(-4.40736 4.16778 9.06228e-19)
(-3.19978 2.4837 -1.54967e-19)
(-3.70467 2.99351 3.23694e-19)
(-3.9005 3.22221 0)
(-4.08834 3.30426 4.99988e-19)
(-4.24347 3.38972 -4.52047e-19)
(-4.36882 3.47454 7.24459e-19)
(-4.46265 3.56087 0)
(-4.52298 3.65021 -7.79768e-19)
(-4.54643 3.73803 -1.67001e-18)
(-4.53047 3.82013 1.14629e-18)
(-4.47181 3.89022 1.21429e-18)
(-4.37016 3.94061 -2.59247e-18)
(-3.34055 3.00724 1.20879e-19)
(-3.81017 3.32909 -2.72119e-19)
(-3.89853 3.45552 6.68351e-19)
(-4.03621 3.48534 0)
(-4.14276 3.52647 -2.49375e-18)
(-4.23421 3.57103 2.14572e-18)
(-4.30732 3.61758 1.00791e-18)
(-4.36168 3.66455 6.79526e-19)
(-4.38921 3.70549 0)
(-4.38909 3.7406 0)
(-4.35493 3.76066 0)
(-4.28533 3.75864 -3.4347e-19)
(-3.42027 3.38357 2.78409e-19)
(-3.87266 3.55401 0)
(-3.86614 3.58555 -5.6345e-19)
(-3.94999 3.57973 1.50213e-18)
(-4.00617 3.58815 1.31326e-18)
(-4.06273 3.60078 -2.23057e-18)
(-4.11561 3.61265 1.13903e-18)
(-4.16478 3.62131 -3.77901e-18)
(-4.19941 3.62446 -1.55379e-20)
(-4.2192 3.61679 -1.50827e-19)
(-4.21615 3.58777 7.61498e-20)
(-4.18307 3.53716 5.47612e-18)
(-3.54806 3.47085 -9.51983e-19)
(-3.91457 3.58964 9.21315e-19)
(-3.80764 3.60595 -1.75168e-18)
(-3.8293 3.58772 -1.4381e-18)
(-3.83248 3.57329 -2.90045e-18)
(-3.85042 3.56237 -1.5558e-18)
(-3.8776 3.54722 -2.43148e-18)
(-3.91358 3.52451 4.39233e-18)
(-3.95218 3.49108 0)
(-3.98891 3.44033 4.2077e-18)
(-4.01626 3.36697 -6.34613e-18)
(-4.02334 3.27058 2.30241e-18)
(-3.64408 3.43732 -5.01007e-19)
(-3.96866 3.55372 -1.00768e-18)
(-3.73348 3.55023 2.35079e-18)
(-3.67882 3.51639 0)
(-3.62251 3.48854 -1.88184e-18)
(-3.5961 3.46078 2.86731e-18)
(-3.59244 3.42254 -2.00352e-19)
(-3.60982 3.37036 -3.69007e-20)
(-3.64415 3.30082 -2.50356e-18)
(-3.69195 3.20872 -4.82903e-18)
(-3.74676 3.09089 2.29069e-18)
(-3.79456 2.94715 -2.5384e-18)
(-3.74606 3.22704 3.95669e-19)
(-4.01713 3.38912 0)
(-3.61283 3.39449 0)
(-3.48517 3.37189 0)
(-3.37496 3.34118 1.90034e-18)
(-3.30588 3.30211 0)
(-3.27017 3.24345 -1.45793e-19)
(-3.26518 3.16234 5.94624e-18)
(-3.2885 3.05692 1.04202e-19)
(-3.33949 2.92284 2.62118e-18)
(-3.41412 2.75854 -2.77929e-18)
(-3.49786 2.56252 8.57058e-18)
(-3.82963 2.89999 1.74188e-20)
(-4.05623 3.08338 3.57072e-18)
(-3.4947 3.13425 -1.35865e-18)
(-3.2672 3.16377 0)
(-3.10457 3.14557 0)
(-2.9959 3.10041 0)
(-2.93087 3.02295 0)
(-2.90348 2.91265 3.33568e-18)
(-2.91206 2.77094 -1.30095e-17)
(-2.95911 2.59257 -6.48782e-18)
(-3.04309 2.37691 6.46849e-18)
(-3.15081 2.11915 3.76593e-18)
(-3.89831 2.42702 -2.16484e-18)
(-3.84499 2.78172 -2.78247e-18)
(-3.29137 2.83411 -1.78626e-18)
(-3.00554 2.90669 0)
(-2.81773 2.91558 0)
(-2.68303 2.87204 5.07836e-18)
(-2.59708 2.77867 -8.67662e-18)
(-2.55176 2.63949 1.60226e-17)
(-2.54568 2.46155 1.10265e-17)
(-2.58361 2.23537 6.88203e-18)
(-2.66389 1.96004 -6.94238e-18)
(-2.77651 1.62383 5.27161e-19)
(-3.89947 1.29713 -1.73491e-18)
(-3.83807 2.15962 0)
(-3.08245 2.51323 3.54335e-18)
(-2.74504 2.65385 -1.03593e-17)
(-2.53566 2.68353 1.02312e-17)
(-2.38559 2.63979 4.65722e-19)
(-2.28755 2.53184 4.91229e-18)
(-2.2298 2.36269 -4.35867e-18)
(-2.21006 2.14625 -2.18309e-17)
(-2.23429 1.86023 0)
(-2.29938 1.50214 0)
(-2.40211 1.05466 5.33597e-19)