/*--------------------------------*- C++ -*----------------------------------*\
  =========                 |
  \\      /  F ield         | OpenFOAM: The Open Source CFD Toolbox
   \\    /   O peration     | Website:  https://openfoam.org
    \\  /    A nd           | Version:  6
     \\/     M anipulation  |
\*---------------------------------------------------------------------------*/
FoamFile
{
    version     2.0;
    format      ascii;
    class       volScalarField;
    location    "100";
    object      epsilon;
}
// * * * * * * * * * * * * * * * * * * * * * * * * * * * * * * * * * * * * * //

dimensions      [0 2 -3 0 0 0 0];

internalField   nonuniform List<scalar> 
3072
(
20.0572
17.9224
17.3436
20.3264
61.6219
179.82
266.208
314.926
352.589
376.669
392.354
398.64
54.6573
59.1152
100.045
119.553
142.288
194.205
223.742
236.39
242.124
243.865
241.931
235.692
106.419
102.841
118.358
133.252
155.42
180.122
190.302
195.556
197.561
196.189
191.459
184.698
137.558
118.443
122.636
133.306
150.845
161.49
166.962
169.4
169.538
166.583
161.732
155.723
142.841
116.486
119.968
129.292
139.975
146.901
150.628
152.192
151.581
148.499
143.808
138.116
129.356
106.605
112.02
120.371
129.022
134.994
138.22
139.422
138.509
135.488
130.981
125.517
111.905
93.4174
102.113
111.683
119.809
125.331
128.343
129.329
128.274
125.337
120.996
115.758
92.2503
81.3365
93.6224
104.252
112.402
117.54
120.239
120.877
119.651
116.736
112.503
107.453
76.8135
70.2247
86.6484
99.372
107.299
111.622
113.567
113.538
112.051
109.057
104.846
99.9512
58.9517
63.9115
88.6327
101.963
108.341
110.152
109.561
108.036
105.564
102.12
97.8463
93.0385
61.7041
82.0628
114.869
122.716
120.443
115.53
110.773
105.874
101.135
96.5646
91.8307
86.9145
253.971
237.586
230.982
197.412
161.852
136.325
119.629
108.45
100.162
93.2652
87.3978
82.0077
396.276
393.781
387.388
372.812
350.581
321.325
284.623
241.855
192.551
142.349
103.367
141.124
228.845
222.068
216.671
213.527
212.46
216.628
227.075
242.238
259.395
278.157
309.491
394.758
177.238
170.046
164.332
161.137
160.85
165.043
175.716
195.13
227.511
276.883
354.474
540.235
149.358
143.355
138.46
135.336
134.408
136.343
144.367
160.986
192.585
251.934
369.611
648.654
131.999
126.06
120.93
117.196
115.638
116.557
123.141
138.151
168.131
228.197
364.358
714.906
119.622
113.804
108.578
104.556
102.662
103.171
108.803
122.518
150.801
209.472
352.06
776.707
110.078
104.421
99.2778
95.2151
93.0866
93.4207
98.3416
110.955
137.799
194.366
333.453
824.694
102.006
96.6044
91.7001
87.8374
85.7122
86.0825
90.4517
102.111
128.1
184.486
325.93
886.442
94.7408
89.6307
85.0875
81.6594
80.0218
80.5967
84.5135
95.0977
119.868
176.213
322.957
954.46
88.0377
83.248
79.2028
76.4832
75.6458
76.5968
80.2723
89.49
112.003
167.055
318.148
1014.42
82.0281
77.5966
74.2782
72.7278
72.98
74.4428
77.6295
84.8113
103.301
154.265
308.891
1075.82
77.0638
73.0888
70.9992
71.013
72.1985
73.8547
75.6484
79.7737
91.9729
132.553
275.174
1144.34
19.1722
17.2598
16.8255
19.9952
62.2222
180.606
266.527
315.147
352.647
376.62
392.205
398.432
53.8545
58.3065
99.4062
119.563
142.495
194.449
223.757
236.297
241.98
243.666
241.664
235.393
105.742
102.631
118.251
133.125
155.5
180.114
190.188
195.384
197.359
195.951
191.213
184.451
137.182
118.174
122.465
133.323
150.805
161.351
166.779
169.201
169.324
166.369
161.534
155.54
142.686
116.261
119.761
129.083
139.805
146.693
150.401
151.955
151.342
148.277
143.611
137.942
129.265
106.452
111.826
120.198
128.806
134.747
137.954
139.149
138.239
135.24
130.761
125.33
111.86
93.317
101.936
111.478
119.568
125.059
128.05
129.026
127.976
125.058
120.749
115.544
92.2984
81.2833
93.4797
104.046
112.147
117.252
119.928
120.555
119.332
116.435
112.232
107.218
76.9169
70.2451
86.5558
99.1774
107.035
111.324
113.245
113.208
111.723
108.744
104.562
99.7009
59.0405
63.9299
88.5286
101.742
108.05
109.812
109.213
107.692
105.23
101.804
97.5558
92.7787
61.7591
82.0189
114.636
122.344
120.034
115.12
110.38
105.493
100.785
96.2404
91.534
86.6467
253.684
237.268
230.381
196.631
161.112
135.717
119.116
108.012
99.7694
92.9192
87.0877
81.7282
395.939
393.233
386.58
371.719
349.493
320.126
283.559
240.903
191.791
141.751
102.901
140.423
228.454
221.572
216.057
212.809
211.673
215.719
226.081
241.182
258.262
276.93
308.121
392.978
176.971
169.744
163.975
160.714
160.366
164.461
175.063
194.386
226.627
275.77
352.985
537.894
149.182
143.175
138.252
135.082
134.103
135.953
143.914
160.449
191.909
250.999
368.091
645.792
131.847
125.912
120.768
117.004
115.413
116.274
122.795
137.713
167.554
227.371
362.94
711.71
119.457
113.654
108.43
104.396
102.473
102.947
108.518
122.141
150.269
208.678
350.664
773.181
109.894
104.259
99.1295
95.0676
92.9263
93.2335
98.102
110.622
137.306
193.591
332.101
820.902
101.804
96.4295
91.546
87.6955
85.5699
85.925
90.254
101.829
127.654
183.73
324.514
882.342
94.5241
89.4452
84.9291
81.5218
79.8944
80.4672
84.3614
94.8771
119.493
175.527
321.566
950.257
87.8106
83.0542
79.0411
76.3497
75.5311
76.4941
80.1651
89.3369
111.719
166.467
316.843
1010.16
81.7914
77.3946
74.1119
72.5922
72.8694
74.3676
77.5594
84.7172
103.11
153.812
307.711
1071.74
76.8147
72.8777
70.8272
70.8662
72.0965
73.7931
75.5989
79.7146
91.8535
132.238
274.245
1140.39
19.2514
17.335
16.901
20.0883
62.5486
181.55
267.943
316.876
354.654
378.822
394.517
400.761
54.0663
58.5239
99.8059
120.103
143.188
195.439
224.96
237.599
243.324
245.016
242.97
236.637
106.139
103.063
118.799
133.776
156.276
181.047
191.19
196.412
198.389
196.944
192.15
185.329
137.702
118.704
123.064
133.986
151.569
162.184
167.639
170.065
170.173
167.171
162.283
156.236
143.247
116.795
120.361
129.743
140.531
147.455
151.174
152.728
152.089
148.982
144.266
138.549
129.714
106.952
112.405
120.836
129.49
135.459
138.675
139.865
138.93
135.889
131.363
125.882
112.48
93.7675
102.473
112.081
120.218
125.736
128.736
129.708
128.631
125.674
121.316
116.063
92.3622
81.6765
93.9805
104.623
112.772
117.905
120.59
121.21
119.963
117.027
112.777
107.712
77.1179
70.5713
87.0017
99.7289
107.646
111.96
113.887
113.841
112.333
109.314
105.086
100.176
59.2398
64.2354
88.9811
102.304
108.667
110.447
109.845
108.308
105.818
102.354
98.0619
93.2382
61.9448
82.3166
115.116
122.945
120.671
115.761
111.008
106.093
101.352
96.7699
92.0215
87.091
253.839
237.381
230.702
197.183
161.748
136.343
119.726
108.594
100.309
93.424
87.5549
82.1561
398.274
395.631
389.063
374.163
351.768
322.216
285.344
242.361
192.886
142.475
103.389
141.096
229.655
222.756
217.242
213.997
212.864
216.926
227.311
242.461
259.563
278.282
309.539
394.749
177.801
170.546
164.774
161.531
161.207
165.341
175.976
195.354
227.697
277.026
354.559
540.317
149.833
143.797
138.868
135.714
134.761
136.656
144.647
161.226
192.779
252.08
369.681
648.705
132.41
126.447
121.291
117.534
115.955
116.843
123.394
138.361
168.301
228.332
364.432
714.914
119.968
114.131
108.885
104.843
102.925
103.413
109.018
122.699
150.942
209.568
352.088
776.623
110.367
104.695
99.5344
95.4548
93.3087
93.6254
98.5246
111.111
137.919
194.44
333.463
824.543
102.251
96.8354
91.9178
88.0424
85.9046
86.2626
90.6162
102.253
128.212
184.55
325.914
886.24
94.9524
89.8306
85.2781
81.8421
80.1966
80.7655
84.6717
95.2374
119.981
176.286
322.949
954.233
88.2239
83.4249
79.3747
76.6521
75.8114
76.761
80.4285
89.629
112.119
167.135
318.15
1014.17
82.192
77.7544
74.4356
72.8845
73.1356
74.5968
77.774
84.9371
103.403
154.337
308.889
1075.48
77.2037
73.2284
71.1426
71.1588
72.342
73.9893
75.7593
79.86
92.0347
132.59
275.146
1143.91
19.1625
17.2557
16.8123
19.902
61.3636
179.631
265.958
314.563
352.084
376.028
391.629
397.867
53.8007
58.0441
99.1529
119.554
142.187
194.093
223.523
236.089
241.78
243.48
241.533
235.286
105.469
102.557
118.176
133.161
155.261
179.938
190.059
195.272
197.26
195.869
191.14
184.369
136.863
118.109
122.414
133.14
150.661
161.272
166.72
169.147
169.275
166.315
161.463
155.441
142.444
116.223
119.757
129.081
139.764
146.675
150.39
151.945
151.33
148.25
143.558
137.855
129.062
106.453
111.839
120.165
128.806
134.763
137.976
139.172
138.256
135.241
130.734
125.268
111.643
93.3
101.958
111.489
119.591
125.092
128.09
129.069
128.013
125.081
120.747
115.511
92.0627
81.2435
93.4928
104.072
112.182
117.294
119.976
120.606
119.38
116.472
112.249
107.209
76.6744
70.1621
86.5361
99.1959
107.072
111.366
113.293
113.259
111.772
108.786
104.589
99.7086
58.8865
63.8481
88.5094
101.763
108.093
109.864
109.266
107.743
105.279
101.847
97.5893
92.7978
61.6379
81.9576
114.646
122.401
120.105
115.19
110.445
105.556
100.839
96.288
91.5735
86.6757
253.446
237.208
230.466
196.794
161.276
135.848
119.222
108.099
99.8455
92.9809
87.1384
81.7695
395.424
392.78
386.226
371.481
349.343
320.091
283.596
241.024
191.967
141.93
103.122
140.804
228.398
221.549
216.064
212.834
211.715
215.81
226.223
241.332
258.46
277.192
308.468
393.598
176.881
169.637
163.85
160.574
160.22
164.314
174.922
194.264
226.549
275.786
353.131
538.298
149.052
143.011
138.056
134.858
133.866
135.699
143.654
160.2
191.7
250.872
368.15
646.059
131.72
125.744
120.561
116.763
115.152
115.99
122.501
137.429
167.294
227.153
362.835
711.775
119.356
113.513
108.247
104.176
102.222
102.673
108.226
121.845
149.988
208.433
350.51
773.095
109.826
104.154
98.9862
94.8868
92.7116
92.9903
97.8335
110.337
137.018
193.319
331.865
820.645
101.765
96.3589
91.4417
87.5568
85.3976
85.7227
90.0198
101.566
127.371
183.443
324.247
881.922
94.5081
89.4022
84.8564
81.4174
79.7575
80.3045
84.1646
94.644
119.222
175.225
321.249
949.696
87.8114
83.0322
78.9918
76.2707
75.424
76.3638
80.005
89.1412
111.476
166.17
316.492
1009.47
81.8062
77.3883
74.0784
72.533
72.794
74.2672
77.4392
84.569
102.914
153.549
307.366
1071.02
76.8432
72.8826
70.8022
70.8247
72.0366
73.7205
75.5217
79.6228
91.7227
132.037
273.956
1139.59
371.856
369.857
350.888
298.458
236.644
181.248
142.369
117.931
102.857
92.7702
84.9801
78.6501
187.933
222.287
253.571
253.411
234.504
197.492
161.041
131.335
109.483
94.6003
84.4612
76.8789
106.934
127.633
153.099
172.634
185.611
178.537
158.638
134.073
112.854
96.3717
84.5789
76.0291
77.7119
90.0785
105.948
122.172
136.705
140.753
137.576
126.859
108.815
93.9095
83.1729
75.6939
73.4859
70.3388
70.0205
71.1241
72.691
72.7929
71.8171
72.3425
77.5859
98.7869
164.107
390.122
71.5881
70.2077
71.1477
72.3919
71.5715
68.3603
63.39
61.9649
63.7905
72.7395
98.4809
159.266
71.6483
72.0252
72.3179
69.9362
64.271
56.9702
54.4675
54.7908
56.7164
60.6778
70.8938
91.0987
74.0259
71.0698
64.9383
55.2312
49.8909
49.8365
51.0338
53.0426
54.9451
56.9638
61.4903
68.9594
373.341
370.9
351.342
298.09
235.913
180.426
141.659
117.367
102.411
92.3845
84.6484
78.3537
188.9
223.334
254.308
253.725
234.511
196.97
160.412
130.737
108.97
94.174
84.114
76.5669
107.483
128.3
153.719
173.276
185.827
178.451
158.166
133.563
112.365
95.9324
84.228
75.7152
78.0961
90.5217
106.392
122.652
137.006
140.885
137.521
126.481
108.382
93.506
82.8372
75.4215
73.2218
70.1218
69.8422
70.9811
72.6017
72.7318
71.7639
72.2778
77.4885
98.5897
163.621
388.489
71.3168
69.9983
70.971
72.2707
71.4714
68.2865
63.3087
61.861
63.6678
72.5767
98.217
158.714
71.4028
71.8211
72.1736
69.8078
64.1579
56.8516
54.3369
54.6519
56.5741
60.531
70.7266
90.845
73.8035
70.8883
64.78
55.0896
49.7495
49.6885
50.881
52.8926
54.8076
56.836
61.3723
68.8174
371.915
369.687
350.476
297.797
236.049
180.844
142.176
117.892
102.913
92.852
85.088
78.762
188.162
222.441
253.505
253.149
234.146
197.008
160.649
131.091
109.37
94.5868
84.5125
76.9481
107.14
127.83
153.226
172.706
185.467
178.278
158.275
133.764
112.635
96.2441
84.5754
76.0564
77.9119
90.2655
106.102
122.298
136.719
140.675
137.421
126.603
108.604
93.7785
83.1272
75.7014
73.5982
70.4602
70.1487
71.2506
72.8022
72.8734
71.8602
72.3642
77.5852
98.7725
164.058
390.07
71.6719
70.31
71.2468
72.4723
71.6213
68.3591
63.3573
61.9208
63.7504
72.7028
98.4345
159.206
71.7071
72.0935
72.3546
69.9355
64.2123
56.8977
54.4148
54.7443
56.6794
60.6449
70.8612
91.0616
74.0276
71.0459
64.8755
55.1214
49.8226
49.7787
50.9912
53.0096
54.9193
56.9433
61.4756
68.9478
373.206
370.72
351.193
298.082
236.051
180.63
141.845
117.513
102.519
92.4766
84.7181
78.4112
188.826
223.182
254.121
253.59
234.456
197.08
160.588
130.92
109.128
94.3013
84.1989
76.6398
107.448
128.233
153.626
173.116
185.727
178.437
158.29
133.726
112.533
96.0878
84.324
75.7941
78.0889
90.5034
106.363
122.575
136.932
140.822
137.512
126.595
108.529
93.6419
82.9301
75.4766
73.2635
70.1309
69.8248
70.9446
72.5604
72.7022
71.7388
72.2434
77.4227
98.4599
163.397
387.978
71.3648
70.0051
70.9626
72.2554
71.4727
68.3195
63.3289
61.8471
63.6181
72.4636
98.0108
158.334
71.4408
71.8365
72.1888
69.8434
64.2257
56.9174
54.3161
54.5948
56.4723
60.3975
70.5346
90.5492
73.8526
70.9431
64.8497
55.1838
49.7604
49.655
50.809
52.7767
54.6653
56.6726
61.1651
68.5198
74.7417
85.6815
97.9903
107.507
112.342
111.486
105.237
97.8679
85.9801
76.9061
69.1884
62.2692
70.5224
79.3654
86.975
91.0483
92.2277
89.2646
83.7937
77.7856
69.1291
59.9965
49.1595
39.1303
65.9054
72.0276
75.7929
77.6044
77.7375
74.9641
70.9843
64.9324
55.6757
44.2901
31.0294
23.2327
61.2635
64.9593
67.086
68.1746
68.2652
65.7302
61.0503
53.4968
43.2223
30.9902
18.6376
14.1062
54.8804
42.2846
37.8198
38.9837
43.5883
48.95
52.519
54.3744
55.3662
56.9673
60.8067
66.5985
31.1236
25.8899
27.6703
33.7105
41.5415
48.3559
52.2145
53.5517
53.9174
55.0669
58.3606
63.4358
22.4603
19.7604
23.838
31.2316
39.3808
46.2357
50.2097
51.7463
52.2911
53.3099
56.0242
60.2059
21.7976
17.4869
21.8485
29.0361
36.6923
43.148
47.1897
49.117
50.0688
51.2006
53.5224
56.9012
75.0291
85.999
98.2932
107.688
112.418
111.384
104.997
97.5171
85.6429
76.6133
68.9365
62.0522
70.7159
79.5579
87.0685
91.0692
92.1641
89.0605
83.5283
77.4854
68.8534
59.7398
48.9137
38.9075
66.023
72.0781
75.7759
77.5479
77.5978
74.7574
70.7478
64.6686
55.4286
44.0468
30.7927
23.0473
61.3136
64.9435
67.0262
68.0905
68.1185
65.5419
60.8297
53.2632
43.0031
30.7782
18.463
13.965
54.6733
42.1049
37.6771
38.8452
43.4387
48.7917
52.379
54.2536
55.2718
56.8886
60.7299
66.4931
30.9389
25.7571
27.5546
33.5828
41.3918
48.1977
52.0879
53.4667
53.8678
55.037
58.3253
63.3748
22.341
19.6681
23.7418
31.1164
39.2453
46.0917
50.0992
51.6826
52.2651
53.3075
56.0225
60.1857
21.7115
17.4178
21.7694
28.9381
36.5773
43.0263
47.0983
49.0686
50.0563
51.2155
53.5439
56.9197
74.8833
85.808
98.0811
107.522
112.303
111.384
105.109
97.7355
85.8987
76.8706
69.1525
62.2016
70.6237
79.4457
86.9993
91.0364
92.1895
89.205
83.7526
77.7624
69.1178
59.9718
49.0858
39.016
65.9815
72.0704
75.8067
77.6049
77.7317
74.9708
71.0056
64.9425
55.6706
44.2449
30.9314
23.137
61.326
65.0011
67.1165
68.2026
68.2992
65.7712
61.0804
53.504
43.2023
30.9315
18.5648
14.0405
54.7464
42.1674
37.7549
38.9384
43.5565
48.9227
52.5012
54.359
55.3595
56.9687
60.8123
66.6027
31.0095
25.8262
27.6422
33.6914
41.5215
48.3308
52.1973
53.545
53.9242
55.0858
58.3824
63.4525
22.4116
19.7372
23.8277
31.2206
39.3615
46.2078
50.1892
51.7409
52.3006
53.3325
56.0501
60.2264
21.7895
17.4809
21.8448
29.027
36.6734
43.1205
47.1684
49.1094
50.0748
51.219
53.5445
56.9204
75.0267
85.981
98.2564
107.645
112.384
111.385
105.045
97.6029
85.7185
76.6635
68.9851
62.1296
70.7215
79.5489
87.0568
91.059
92.1627
89.0855
83.5613
77.5169
68.8771
59.7707
48.9836
39.019
66.034
72.0831
75.779
77.5496
77.6014
74.7622
70.7446
64.6732
55.4439
44.0895
30.8788
23.1459
61.3274
64.9496
67.0255
68.0838
68.1017
65.5223
60.8161
53.2698
43.0315
30.8336
18.5317
14.0356
54.8056
42.2126
37.7232
38.8425
43.3694
48.6317
52.2102
54.07
55.0781
56.676
60.4694
66.1896
31.0563
25.8221
27.5682
33.5495
41.2988
48.0405
51.8871
53.2498
53.6459
54.8028
58.0534
63.0802
22.4187
19.705
23.7421
31.0773
39.1551
45.9423
49.8979
51.4588
52.0357
53.0742
55.7635
59.9282
21.7708
17.4449
21.7692
28.9049
36.4967
42.8878
46.9054
48.8501
49.8315
50.9938
53.3083
56.7022
57.1624
59.635
61.1406
61.9613
61.3301
57.5186
51.2249
42.4584
31.9595
20.7723
11.2263
7.69379
54.1376
55.9313
56.945
57.0004
54.542
49.1173
41.4846
32.2487
22.4089
13.2032
6.3341
3.82106
51.71
52.8902
53.1925
51.7056
47.5047
40.8043
32.5429
23.6537
15.2331
8.36417
4.02321
3.0552
49.0708
49.7671
49.0595
46.0574
40.5929
33.241
25.0862
17.1745
10.4812
5.65312
2.89606
2.61018
45.9756
46.2492
44.4884
40.4284
34.2994
26.9152
19.4141
12.7563
7.62303
4.21601
2.29941
2.24815
42.3358
42.2096
39.7495
35.154
28.9142
21.9731
15.4019
9.95309
5.99683
3.4542
1.9697
1.87078
38.3131
37.856
35.0847
30.4216
24.5029
18.2842
12.6863
8.24038
5.0933
3.05072
1.7718
1.51385
34.1428
33.4796
30.7105
26.3283
20.9994
15.6033
10.8828
7.20444
4.59324
2.83618
1.63813
1.17201
30.2362
29.4575
26.8778
22.9734
18.3396
13.7316
9.71884
6.59131
4.3254
2.71979
1.52104
0.853188
27.2942
26.3966
24.0354
20.6391
16.6522
12.6746
9.12339
6.32054
4.22883
2.66943
1.43063
0.568194
27.4872
26.3269
23.8966
20.7066
16.9843
13.1666
9.55021
6.66771
4.46469
2.72543
1.39677
0.348872
48.3117
45.4019
40.7153
35.6743
29.859
23.3848
16.5254
10.9994
6.86675
3.67069
2.12104
0.218237
28.66
16.5497
20.1796
26.7352
33.6965
39.6498
43.7496
46.1314
47.5854
49.0118
51.1532
53.8949
25.2598
15.1118
18.4909
24.3911
30.6317
36.076
40.1413
42.9326
44.9416
46.8313
49.0702
51.5196
21.3887
13.5438
16.809
22.0902
27.6281
32.5657
36.5075
39.5783
42.1182
44.5515
47.1078
49.5979
18.0604
12.0151
15.1803
19.8927
24.7596
29.1853
32.9264
36.1335
39.0746
41.9869
44.9181
47.4482
14.93
10.5409
13.6439
17.8426
22.0815
25.9943
29.4674
32.6672
35.8205
39.0427
42.257
44.6126
12.0463
9.138
12.2212
15.9705
19.6392
23.0493
26.2011
29.2619
32.4291
35.7426
38.9906
41.1262
9.38224
7.8087
10.9176
14.2938
17.4698
20.4105
23.2102
26.0306
29.0417
32.2548
35.2812
37.2071
6.95854
6.55028
9.72026
12.8201
15.6059
18.142
20.5935
23.1139
25.8462
28.7851
31.4739
33.1589
4.76964
5.35663
8.59846
11.5577
14.0959
16.337
18.4935
20.7102
23.1081
25.6667
27.9814
29.4121
2.84007
4.19033
7.50956
10.6196
13.1875
15.3052
17.2812
19.2418
21.3005
23.4728
25.4487
26.6711
1.26113
3.07433
6.66947
10.2945
13.3529
15.859
18.0433
20.0567
22.0217
24.081
25.8269
27.0191
0.342125
2.72487
7.2253
13.917
20.3368
25.9342
30.8589
35.4059
39.6233
43.3136
46.1246
47.9553
57.1768
59.6029
61.075
61.8761
61.1812
57.3354
51.0213
42.259
31.7788
20.6146
11.1137
7.60031
54.1383
55.8869
56.8478
56.9083
54.3844
48.9387
41.3036
32.0865
22.2744
13.1043
6.29484
3.83508
51.687
52.8382
53.1024
51.5734
47.3365
40.6315
32.385
23.5269
15.1422
8.31391
4.01587
3.0841
49.0112
49.6897
48.9335
45.893
40.4141
33.0733
24.9477
17.0751
10.4209
5.62875
2.89702
2.6368
45.8769
46.1305
44.3214
40.2366
34.1101
26.7508
19.2887
12.6737
7.57824
4.20049
2.3005
2.2675
42.2031
42.048
39.5477
34.9407
28.7164
21.8104
15.2836
9.87792
5.9567
3.43847
1.96844
1.88379
38.1526
37.6618
34.8591
30.1948
24.3006
18.123
12.571
8.16679
5.05208
3.03171
1.76554
1.52064
33.9674
33.2683
30.4752
26.098
20.7979
15.4445
10.7687
7.12975
4.54874
2.81307
1.62801
1.17268
30.0585
29.2428
26.6454
22.7481
18.1432
13.5763
9.6055
6.51491
4.2772
2.69266
1.51909
0.850101
27.1189
26.1866
23.812
20.4221
16.4611
12.5208
9.00936
6.24217
4.1784
2.63713
1.4347
0.567635
27.2938
26.1055
23.6666
20.4827
16.7833
13.0011
9.42581
6.58238
4.41169
2.68366
1.402
0.358178
47.9207
44.9959
40.3076
35.2793
29.4993
23.0827
16.3003
10.8575
6.79581
3.58448
1.92137
0.225623
28.5465
16.4925
20.1157
26.6557
33.6036
39.5528
43.6756
46.0924
47.5789
49.0331
51.1906
53.9403
25.175
15.0657
18.4412
24.3294
30.56
36.0039
40.0831
42.8989
44.9367
46.8523
49.1115
51.5786
21.3202
13.5083
16.7725
22.0447
27.575
32.5129
36.4637
39.5515
42.1149
44.5709
47.1513
49.6655
18.0086
11.9891
15.1555
19.8615
24.7227
29.1489
32.8962
36.1151
39.0747
42.0085
44.9649
47.5338
14.8909
10.5232
13.6292
17.8239
22.0587
25.972
29.45
32.6584
35.8267
39.0699
42.3183
44.7176
12.0175
9.12728
12.215
15.9621
19.6284
23.0394
26.1954
29.2634
32.4436
35.7768
39.0699
41.2468
9.36155
7.80366
10.9183
14.2939
17.4692
20.4114
23.2153
26.0424
29.0659
32.2978
35.375
37.3406
6.9429
6.54961
9.72616
12.8268
15.6135
18.1522
20.6085
23.1359
25.8808
28.8391
31.5776
33.3018
4.75813
5.35904
8.60809
11.5692
14.1103
16.3549
18.5178
20.7418
23.1541
25.7319
28.0924
29.5607
2.83136
4.19357
7.52118
10.6354
13.2066
15.3299
17.3141
19.2844
21.3588
23.5543
25.5654
26.8255
1.25548
3.07355
6.68213
10.3134
13.3783
15.8929
18.0902
20.1168
22.1
24.1858
25.9645
27.1894
0.340881
2.71742
7.23971
13.9448
20.3781
25.9971
30.954
35.5335
39.7896
43.5397
46.4046
48.2802
57.2274
59.6912
61.1919
62.0114
61.3772
57.5582
51.2432
42.451
31.9248
20.7167
11.1807
7.66119
54.2121
55.9983
57.0052
57.0515
54.5835
49.1436
41.4876
32.2288
22.3722
13.1658
6.32411
3.83839
51.7829
52.9553
53.2467
51.7452
47.5328
40.8158
32.534
23.6303
15.2055
8.34799
4.02723
3.07675
49.1239
49.8208
49.098
46.0831
40.6072
33.2408
25.072
17.1546
10.4657
5.64992
2.90312
2.62867
46.0059
46.2853
44.5106
40.4402
34.3017
26.9076
19.3993
12.7426
7.6164
4.2182
2.30614
2.2615
42.3466
42.2291
39.7568
35.1539
28.9074
21.9614
15.389
9.94414
5.99493
3.45743
1.97506
1.88013
38.3106
37.8615
35.0808
30.4121
24.4905
18.2706
12.6755
8.23395
5.09317
3.05325
1.77391
1.51819
34.135
33.4767
30.7004
26.3141
20.9848
15.5893
10.8737
7.19895
4.5933
2.83737
1.63789
1.17182
30.2322
29.4517
26.8678
22.9582
18.3272
13.7173
9.71251
6.58523
4.32532
2.71876
1.52985
0.849624
27.2973
26.3947
24.0291
20.6286
16.6424
12.6633
9.1176
6.31565
4.22797
2.66439
1.44497
0.568048
27.4941
26.3315
23.8977
20.7025
16.9786
13.1583
9.54483
6.66326
4.46502
2.71123
1.41156
0.359224
48.3089
45.4191
40.7273
35.6821
29.8552
23.3767
16.5102
10.9919
6.87255
3.61759
1.93255
0.226446
28.6593
16.5509
20.1789
26.7276
33.6795
39.625
43.7279
46.119
47.5833
49.0196
51.1648
53.9046
25.2733
15.1167
18.4923
24.3855
30.6174
36.055
40.1194
42.9145
44.9297
46.8248
49.0656
51.5116
21.4018
13.5506
16.8124
22.0869
27.6165
32.5474
36.4859
39.5563
42.0978
44.5315
47.0862
49.5703
18.0767
12.0234
15.1858
19.8919
24.7508
29.1697
32.906
36.1097
39.0485
41.9575
44.8844
47.4053
14.9461
10.5504
13.6514
17.8443
22.0756
25.9815
29.4492
32.6439
35.7925
39.0088
42.2167
44.5649
12.0625
9.14841
12.2306
15.9745
19.6362
23.0397
26.1859
29.241
32.4024
35.7092
38.9499
41.0805
9.39708
7.81973
10.9287
14.3
17.4697
20.4042
23.1987
26.0132
29.0187
32.2248
35.2454
37.1678
6.97109
6.56158
9.73281
12.8283
15.6084
18.139
20.586
23.1011
25.8282
28.7608
31.4453
33.1278
4.77983
5.36772
8.61247
11.5677
14.1015
16.3372
18.4905
20.7018
23.0964
25.6485
27.9607
29.3896
2.84651
4.20072
7.52445
10.6328
13.1957
15.3092
17.2824
19.2387
21.2944
23.4618
25.4356
26.657
1.26403
3.08207
6.68519
10.3109
13.3663
15.8686
18.0506
20.0597
22.0222
24.077
25.8212
27.0123
0.34277
2.73041
7.24399
13.945
20.3624
25.9577
30.8788
35.4232
39.6364
43.3249
46.1318
47.9605
57.1817
59.5942
61.0559
61.8494
61.1482
57.3117
51.0155
42.2791
31.8223
20.6727
11.158
7.62836
54.1216
55.857
56.8113
56.8672
54.3493
48.922
41.3099
32.1175
22.3207
13.1483
6.31122
3.82853
51.6482
52.7941
53.0555
51.5305
47.3079
40.6245
32.4001
23.5598
15.1795
8.33913
4.02009
3.07439
48.9622
49.6385
48.8855
45.8557
40.3945
33.0742
24.9659
17.1028
10.4454
5.64069
2.8969
2.62891
45.8258
46.0799
44.2787
40.2078
34.0986
26.7562
19.3055
12.6937
7.59244
4.20519
2.29878
2.26142
42.1554
42.0033
39.5133
34.9204
28.7113
21.8176
15.2973
9.89126
5.96427
3.43969
1.96619
1.87925
38.1119
37.6257
34.8333
30.1819
24.2996
18.1305
12.5814
8.17543
5.05586
3.03132
1.7634
1.51752
33.9354
33.2413
30.4574
26.0905
20.7992
15.4514
10.7765
7.1354
4.55053
2.81204
1.62628
1.17089
30.0355
29.2241
26.6339
22.7449
18.1452
13.5825
9.61112
6.51895
4.278
2.69167
1.51792
0.849386
27.1043
26.1753
23.8058
20.4211
16.4634
12.5258
9.01401
6.24528
4.17914
2.6366
1.43455
0.567566
27.2868
26.1012
23.6645
20.4826
16.7854
13.0055
9.431
6.58588
4.41311
2.68467
1.40266
0.358446
47.9272
45.0046
40.3079
35.2766
29.5015
23.0896
16.3149
10.8673
6.80145
3.58819
1.92308
0.225819
28.6262
16.5179
20.1194
26.6306
33.5343
39.4273
43.4967
45.8862
47.3656
48.8273
50.9804
53.7542
25.2424
15.0917
18.449
24.3121
30.5021
35.8928
39.9224
42.7084
44.739
46.6641
48.9241
51.4156
21.3826
13.534
16.7833
22.0343
27.5283
32.4169
36.3215
39.3798
41.9351
44.4002
46.9847
49.5261
18.0618
12.0135
15.1681
19.8565
24.686
29.0675
32.7721
35.963
38.9135
41.8541
44.8109
47.4271
14.9356
10.5453
13.6423
17.8226
22.0301
25.9038
29.3425
32.5245
35.683
38.9318
42.1823
44.6301
12.0533
9.14617
12.2274
15.963
19.6058
22.982
26.1022
29.1455
32.3157
35.6517
38.9553
41.1789
9.38913
7.81896
10.9292
14.2955
17.4501
20.3617
23.1337
25.9383
28.9516
32.1807
35.2802
37.2865
6.96339
6.56116
9.73503
12.8279
15.5956
18.1069
20.5352
23.0427
25.7782
28.7331
31.493
33.2542
4.77219
5.36697
8.61465
11.5691
14.0913
16.3107
18.4487
20.6562
23.0608
25.6364
28.012
29.5136
2.8402
4.19875
7.52551
10.6335
13.1842
15.2829
17.2446
19.2014
21.271
23.4693
25.4836
26.773
1.2601
3.07842
6.68463
10.3106
13.3472
15.8341
18.009
20.0244
22.0046
24.0975
25.8813
27.1327
0.341903
2.72504
7.24156
13.9453
20.3227
25.8834
30.7933
35.3462
39.5926
43.3626
46.2376
48.1745
)
;

boundaryField
{
    rotor
    {
        Cmu             0.09;
        kappa           0.41;
        E               9.8;
        type            epsilonWallFunction;
        value           nonuniform List<scalar> 
192
(
20.0572
17.9224
17.3436
20.3264
61.6219
179.82
266.208
314.926
352.589
376.669
392.354
398.64
396.276
393.781
387.388
372.812
350.581
321.325
284.623
241.855
192.551
142.349
103.367
141.124
19.1722
17.2598
16.8255
19.9952
62.2222
180.606
266.527
315.147
352.647
376.62
392.205
398.432
395.939
393.233
386.58
371.719
349.493
320.126
283.559
240.903
191.791
141.751
102.901
140.423
19.2514
17.335
16.901
20.0883
62.5486
181.55
267.943
316.876
354.654
378.822
394.517
400.761
398.274
395.631
389.063
374.163
351.768
322.216
285.344
242.361
192.886
142.475
103.389
141.096
19.1625
17.2557
16.8123
19.902
61.3636
179.631
265.958
314.563
352.084
376.028
391.629
397.867
395.424
392.78
386.226
371.481
349.343
320.091
283.596
241.024
191.967
141.93
103.122
140.804
20.0572
54.6573
106.419
137.558
142.841
129.356
111.905
92.2503
76.8135
58.9517
61.7041
253.971
140.804
393.598
538.298
646.059
711.775
773.095
820.645
881.922
949.696
1009.47
1071.02
1139.59
19.1722
53.8545
105.742
137.182
142.686
129.265
111.86
92.2984
76.9169
59.0405
61.7591
253.684
141.124
394.758
540.235
648.654
714.906
776.707
824.694
886.442
954.46
1014.42
1075.82
1144.34
19.2514
54.0663
106.139
137.702
143.247
129.714
112.48
92.3622
77.1179
59.2398
61.9448
253.839
140.423
392.978
537.894
645.792
711.71
773.181
820.902
882.342
950.257
1010.16
1071.74
1140.39
19.1625
53.8007
105.469
136.863
142.444
129.062
111.643
92.0627
76.6744
58.8865
61.6379
253.446
141.096
394.749
540.317
648.705
714.914
776.623
824.543
886.24
954.233
1014.17
1075.48
1143.91
)
;
    }
    stator
    {
        Cmu             0.09;
        kappa           0.41;
        E               9.8;
        type            epsilonWallFunction;
        value           nonuniform List<scalar> 
192
(
48.3117
45.4019
40.7153
35.6743
29.859
23.3848
16.5254
10.9994
6.86675
3.67069
2.12104
0.218237
0.342125
2.72487
7.2253
13.917
20.3368
25.9342
30.8589
35.4059
39.6233
43.3136
46.1246
47.9553
47.9207
44.9959
40.3076
35.2793
29.4993
23.0827
16.3003
10.8575
6.79581
3.58448
1.92137
0.225623
0.340881
2.71742
7.23971
13.9448
20.3781
25.9971
30.954
35.5335
39.7896
43.5397
46.4046
48.2802
48.3089
45.4191
40.7273
35.6821
29.8552
23.3767
16.5102
10.9919
6.87255
3.61759
1.93255
0.226446
0.34277
2.73041
7.24399
13.945
20.3624
25.9577
30.8788
35.4232
39.6364
43.3249
46.1318
47.9605
47.9272
45.0046
40.3079
35.2766
29.5015
23.0896
16.3149
10.8673
6.80145
3.58819
1.92308
0.225819
0.341903
2.72504
7.24156
13.9453
20.3227
25.8834
30.7933
35.3462
39.5926
43.3626
46.2376
48.1745
28.66
25.2598
21.3887
18.0604
14.93
12.0463
9.38224
6.95854
4.76964
2.84007
1.26113
0.342125
7.69379
3.82106
3.0552
2.61018
2.24815
1.87078
1.51385
1.17201
0.853188
0.568194
0.348872
0.218237
28.5465
25.175
21.3202
18.0086
14.8909
12.0175
9.36155
6.9429
4.75813
2.83136
1.25548
0.340881
7.60031
3.83508
3.0841
2.6368
2.2675
1.88379
1.52064
1.17268
0.850101
0.567635
0.358178
0.225623
28.6593
25.2733
21.4018
18.0767
14.9461
12.0625
9.39708
6.97109
4.77983
2.84651
1.26403
0.34277
7.66119
3.83839
3.07675
2.62867
2.2615
1.88013
1.51819
1.17182
0.849624
0.568048
0.359224
0.226446
28.6262
25.2424
21.3826
18.0618
14.9356
12.0533
9.38913
6.96339
4.77219
2.8402
1.2601
0.341903
7.62836
3.82853
3.07439
2.62891
2.26142
1.87925
1.51752
1.17089
0.849386
0.567566
0.358446
0.225819
)
;
    }
    front
    {
        type            empty;
    }
    back
    {
        type            empty;
    }
}


// ************************************************************************* //
