/*--------------------------------*- C++ -*----------------------------------*\
  =========                 |
  \\      /  F ield         | OpenFOAM: The Open Source CFD Toolbox
   \\    /   O peration     | Website:  https://openfoam.org
    \\  /    A nd           | Version:  6
     \\/     M anipulation  |
\*---------------------------------------------------------------------------*/
FoamFile
{
    version     2.0;
    format      ascii;
    class       volScalarField;
    location    "100";
    object      k;
}
// * * * * * * * * * * * * * * * * * * * * * * * * * * * * * * * * * * * * * //

dimensions      [0 2 -2 0 0 0 0];

internalField   nonuniform List<scalar> 
3072
(
0.105663
0.147018
0.143746
0.158567
0.324746
0.677741
0.888042
0.994161
1.07248
1.12071
1.15179
1.16403
0.222262
0.399319
0.497862
0.545115
0.68223
0.923003
1.15889
1.38413
1.59335
1.7756
1.92642
2.04029
0.368918
0.690389
0.752524
0.886462
1.11236
1.39175
1.67083
1.91688
2.11844
2.27218
2.37952
2.43197
0.46584
0.901679
1.00028
1.16413
1.4117
1.68461
1.94098
2.1573
2.32643
2.44871
2.52185
2.54707
0.505405
1.00157
1.14836
1.33516
1.58598
1.84433
2.07751
2.2697
2.41514
2.51607
2.56591
2.57874
0.497724
1.00268
1.21624
1.42864
1.67361
1.91686
2.13172
2.30386
2.43098
2.51512
2.55352
2.55913
0.473866
0.979558
1.23234
1.46728
1.70738
1.93608
2.13305
2.29245
2.40805
2.47869
2.50543
2.50242
0.434571
0.933306
1.22751
1.47549
1.71354
1.92724
2.1094
2.25003
2.34843
2.40528
2.42582
2.4174
0.400655
0.855026
1.21848
1.48249
1.71161
1.90035
2.05703
2.17824
2.26259
2.31005
2.32417
2.31207
0.350773
0.802506
1.24391
1.51768
1.72318
1.87726
1.99977
2.09632
2.16341
2.19976
2.20653
2.19168
0.376957
0.90568
1.41083
1.66109
1.79735
1.89325
1.96126
2.01938
2.06162
2.08297
2.08087
2.06303
1.01485
1.5768
1.99091
2.05046
2.01511
1.97384
1.96284
1.96183
1.96777
1.96687
1.95484
1.93273
1.15937
1.15434
1.14177
1.11308
1.06883
1.00891
0.931146
0.836097
0.719049
0.58841
0.476263
0.391989
2.11311
2.14734
2.1398
2.09791
2.04349
1.97439
1.88592
1.76972
1.60756
1.31357
0.970028
0.836013
2.44099
2.42224
2.38522
2.33934
2.29088
2.23976
2.18076
2.10152
1.98929
1.78071
1.33987
1.0995
2.54548
2.52005
2.48198
2.43783
2.39473
2.35711
2.32331
2.28606
2.22854
2.11227
1.77011
1.31862
2.56584
2.53328
2.49033
2.44483
2.4052
2.37854
2.36634
2.37236
2.37641
2.341
2.10669
1.48624
2.53811
2.49884
2.45035
2.40278
2.36602
2.34911
2.35601
2.40117
2.48237
2.53068
2.43247
1.65264
2.47476
2.43091
2.37956
2.33061
2.29572
2.28576
2.31339
2.39552
2.53689
2.68215
2.70908
1.80309
2.38641
2.34009
2.28736
2.23826
2.20497
2.20128
2.24329
2.35508
2.55473
2.80734
2.9435
1.97719
2.28013
2.23219
2.18002
2.13343
2.1048
2.1069
2.15542
2.28593
2.53935
2.89963
3.16152
2.16522
2.15968
2.11233
2.06381
2.02384
2.00377
2.01103
2.06135
2.194
2.47711
2.93483
3.39194
2.3452
2.03092
1.98665
1.94663
1.91956
1.91265
1.92509
1.9723
2.0899
2.36014
2.89533
3.61289
2.53243
1.89987
1.86319
1.83852
1.83247
1.83908
1.85545
1.8891
1.97404
2.18945
2.70739
3.67495
2.73503
0.102848
0.143602
0.140973
0.156834
0.326853
0.679667
0.88862
0.994479
1.07249
1.12054
1.15144
1.16349
0.220231
0.394836
0.494364
0.546025
0.684163
0.925678
1.16149
1.38668
1.59576
1.77772
1.92807
2.04116
0.367475
0.689709
0.752743
0.88854
1.11476
1.39481
1.67366
1.91949
2.12079
2.27428
2.38123
2.43289
0.465012
0.90093
1.0004
1.16571
1.41387
1.68727
1.94364
2.15984
2.32889
2.45106
2.52302
2.54739
0.505056
1.00115
1.14846
1.33659
1.58806
1.8467
2.07991
2.27198
2.41733
2.51812
2.56758
2.58011
0.497545
1.00254
1.21651
1.42989
1.67543
1.91917
2.13491
2.30586
2.43284
2.5169
2.5551
2.56055
0.473776
0.979566
1.23276
1.46833
1.7089
1.93784
2.13554
2.29412
2.4095
2.47992
2.50657
2.50347
0.434675
0.93345
1.22802
1.47637
1.7146
1.92857
2.11085
2.25106
2.34925
2.40598
2.42644
2.41795
0.400965
0.855688
1.21907
1.48312
1.71222
1.90101
2.05763
2.17871
2.26291
2.31024
2.32426
2.31209
0.351075
0.802606
1.24412
1.51767
1.72314
1.87697
1.99963
2.09618
2.16319
2.19943
2.20609
2.19115
0.377141
0.905418
1.4098
1.65954
1.79575
1.89183
1.96001
2.01838
2.06075
2.08204
2.07985
2.06193
1.01413
1.57563
1.9874
2.04594
2.01057
1.97006
1.95965
1.9594
1.96598
1.96522
1.95319
1.93105
1.15847
1.15299
1.13992
1.11071
1.06641
1.00622
0.928686
0.833799
0.717075
0.586706
0.474801
0.390674
2.11286
2.14572
2.13683
2.09384
2.03863
1.96896
1.88036
1.76461
1.60293
1.30963
0.967038
0.833464
2.44136
2.42138
2.38314
2.33602
2.28647
2.23459
2.17528
2.09587
1.98369
1.7756
1.33584
1.09628
2.54548
2.51997
2.48092
2.43562
2.39144
2.35301
2.3185
2.28009
2.22257
2.10637
1.76473
1.3147
2.56687
2.53386
2.49007
2.44353
2.40285
2.37522
2.36222
2.36668
2.36994
2.33451
2.10033
1.48179
2.53923
2.4996
2.45051
2.40218
2.36446
2.3467
2.35241
2.39624
2.47623
2.52362
2.42503
1.64764
2.47565
2.4315
2.37974
2.33019
2.2945
2.28372
2.31014
2.39079
2.53054
2.6743
2.70068
1.7976
2.38685
2.34033
2.28731
2.2378
2.20394
2.19952
2.24041
2.35063
2.54835
2.79901
2.93448
1.97119
2.28005
2.232
2.17967
2.13283
2.10383
2.10544
2.15307
2.28206
2.53336
2.8914
3.15182
2.15899
2.15907
2.11167
2.06311
2.02307
2.00283
2.00986
2.05958
2.191
2.47194
2.92693
3.382
2.33881
2.02975
1.98549
1.94552
1.91855
1.91169
1.92411
1.97101
2.08773
2.35611
2.88862
3.60336
2.52624
1.89815
1.86152
1.83699
1.83113
1.83802
1.85453
1.88798
1.97236
2.18648
2.70195
3.66619
2.72893
0.103108
0.143991
0.14137
0.157309
0.328041
0.682104
0.891829
0.998173
1.07658
1.12489
1.15592
1.16802
0.220768
0.395778
0.495607
0.547488
0.686172
0.928579
1.16533
1.39145
1.60131
1.78387
1.93471
2.04829
0.368381
0.691532
0.754808
0.89103
1.11802
1.39912
1.67906
1.92575
2.12765
2.2815
2.38866
2.44055
0.46618
0.903396
1.0032
1.16903
1.41801
1.6924
1.94966
2.16652
2.33598
2.45836
2.53034
2.55474
0.506429
1.00406
1.15182
1.34044
1.59269
1.8522
2.08617
2.27878
2.42442
2.5253
2.57465
2.58709
0.498875
1.00548
1.22012
1.4341
1.68038
1.92491
2.14135
2.31273
2.43994
2.52398
2.56203
2.56729
0.474587
0.981537
1.23646
1.47278
1.71409
1.9438
2.14208
2.30103
2.41659
2.48692
2.51337
2.50998
0.436296
0.938098
1.23195
1.48105
1.72008
1.93467
2.11748
2.25805
2.35634
2.41296
2.43317
2.42435
0.402017
0.856263
1.22268
1.48786
1.71789
1.90732
2.06441
2.18574
2.27
2.3172
2.33094
2.31845
0.351759
0.805339
1.24802
1.52271
1.729
1.88348
2.00649
2.10322
2.17026
2.20636
2.21273
2.19751
0.377873
0.907776
1.41381
1.66485
1.80187
1.89848
1.96695
2.02543
2.06777
2.0889
2.08648
2.0683
1.0144
1.57682
1.99049
2.05106
2.01661
1.97669
1.96658
1.96639
1.97294
1.97206
1.95984
1.93737
1.16308
1.15775
1.14486
1.11561
1.07109
1.01064
0.93261
0.83716
0.719792
0.588691
0.476288
0.391908
2.12053
2.15396
2.14553
2.1029
2.04784
1.97808
1.88897
1.77224
1.6094
1.31486
0.970351
0.835942
2.44921
2.42967
2.39196
2.34537
2.29623
2.24447
2.18488
2.10479
1.99142
1.78219
1.34068
1.09954
2.55293
2.52769
2.48907
2.44428
2.40059
2.36244
2.32786
2.28907
2.23082
2.11379
1.77074
1.3186
2.57378
2.54087
2.49736
2.45126
2.41107
2.38384
2.37097
2.37518
2.37826
2.3424
2.10729
1.48617
2.54579
2.50602
2.45696
2.40878
2.37138
2.35391
2.36001
2.40422
2.48449
2.5319
2.43279
1.65246
2.48186
2.43748
2.38556
2.33599
2.30043
2.28989
2.31677
2.39808
2.53861
2.68298
2.70919
1.80283
2.39288
2.34602
2.29271
2.24301
2.20911
2.20484
2.24619
2.35723
2.55619
2.80802
2.94348
1.97688
2.28599
2.23749
2.18479
2.13765
2.10844
2.11007
2.15799
2.28777
2.54052
2.9002
3.16144
2.16488
2.16498
2.11708
2.0681
2.02766
2.00707
2.01395
2.0637
2.19567
2.47808
2.93538
3.39186
2.34486
2.03567
1.99092
1.95052
1.92308
1.91576
1.92775
1.97438
2.0913
2.36084
2.89572
3.61259
2.53197
1.90404
1.867
1.84204
1.83569
1.84183
1.85753
1.89063
1.97493
2.18975
2.70735
3.67442
2.73441
0.102818
0.143564
0.140895
0.156366
0.323798
0.677182
0.88737
0.993277
1.07136
1.11938
1.15034
1.16243
0.220097
0.393755
0.493484
0.545127
0.681963
0.922857
1.15854
1.38347
1.5924
1.77438
1.92484
2.03813
0.366883
0.68866
0.751099
0.88583
1.11143
1.39104
1.6699
1.91574
2.11715
2.27069
2.37767
2.42935
0.464357
0.899454
0.998283
1.16274
1.41052
1.68363
1.93996
2.15626
2.32543
2.44763
2.51946
2.54369
0.504466
0.999938
1.14648
1.33369
1.5848
1.84332
2.07655
2.26874
2.41418
2.51494
2.56419
2.57654
0.496987
1.00152
1.21467
1.42724
1.67241
1.91581
2.1307
2.30286
2.42998
2.51394
2.55195
2.55723
0.473141
0.978522
1.231
1.46592
1.70611
1.93486
2.13188
2.29129
2.40683
2.47726
2.5038
2.50051
0.434009
0.932472
1.22629
1.47411
1.71208
1.92584
2.10799
2.2485
2.3468
2.40353
2.42393
2.41532
0.400153
0.85449
1.21741
1.48104
1.70994
1.89857
2.05516
2.17631
2.26059
2.30797
2.32199
2.30978
0.350477
0.801927
1.24271
1.51594
1.72117
1.87492
1.99742
2.09395
2.16103
2.19734
2.20406
2.18914
0.376655
0.905054
1.40908
1.65858
1.79452
1.89029
1.95827
2.01651
2.05883
2.0802
2.0781
2.06024
1.01345
1.5754
1.98779
2.04635
2.01078
1.96961
1.95888
1.95826
1.96449
1.96367
1.95174
1.9297
1.15752
1.15216
1.13928
1.11029
1.06617
1.00621
0.928815
0.834085
0.717513
0.587192
0.475464
0.391361
2.11015
2.14333
2.13482
2.09211
2.03728
1.96798
1.87963
1.76382
1.60244
1.30988
0.9677
0.834309
2.43789
2.41804
2.38
2.33317
2.28398
2.23237
2.17315
2.0941
1.9823
1.77472
1.33579
1.0968
2.54168
2.51611
2.47709
2.43189
2.38778
2.34931
2.31496
2.27757
2.22042
2.10487
1.76429
1.31503
2.56307
2.52985
2.48593
2.43929
2.39848
2.37068
2.3578
2.36329
2.36736
2.33232
2.09941
1.48185
2.53565
2.49574
2.44638
2.39777
2.35979
2.34188
2.34761
2.39182
2.47235
2.52074
2.42369
1.64748
2.47243
2.428
2.37592
2.32603
2.28998
2.27895
2.30524
2.38599
2.52618
2.67106
2.69891
1.79719
2.38403
2.33727
2.28395
2.23409
2.19985
2.19511
2.23573
2.34584
2.54381
2.79524
2.93226
1.97053
2.27763
2.22937
2.17678
2.12962
2.10024
2.10155
2.1488
2.27747
2.52869
2.88718
3.14926
2.15809
2.15701
2.10946
2.06066
2.02032
1.99974
2.0065
2.05587
2.1869
2.4674
2.92251
3.37916
2.3377
2.02805
1.98366
1.94346
1.91623
1.90916
1.92134
1.96798
2.08438
2.35213
2.88423
3.60057
2.52502
1.8968
1.86001
1.83526
1.82923
1.83592
1.85243
1.88587
1.97006
2.18357
2.69802
3.66357
2.72756
2.99736
2.98238
2.8641
2.63147
2.36882
2.14286
1.99804
1.92655
1.88751
1.86103
1.8349
1.80446
2.62276
2.64349
2.64251
2.57738
2.42641
2.2243
2.03301
1.9026
1.81943
1.76517
1.72355
1.68548
2.23804
2.27029
2.29699
2.31006
2.27376
2.17224
2.00677
1.86381
1.75407
1.67622
1.62253
1.58004
1.97879
2.02034
2.05245
2.06278
2.04633
2.00771
1.91198
1.77334
1.66586
1.58793
1.53918
1.51163
1.77271
1.75144
1.75129
1.76803
1.78368
1.78759
1.79483
1.83813
1.97744
2.36203
3.22974
3.16943
1.66128
1.66309
1.69029
1.717
1.71131
1.68826
1.67461
1.69882
1.78775
2.01087
2.55278
2.66324
1.57562
1.60116
1.63688
1.6274
1.58555
1.57081
1.58845
1.63466
1.70176
1.80724
2.07792
2.21482
1.53207
1.53302
1.50048
1.46123
1.47147
1.51995
1.58495
1.64198
1.68299
1.724
1.8382
1.93103
3.00066
2.98275
2.86183
2.6271
2.36288
2.13631
1.99307
1.92277
1.88464
1.85862
1.83261
1.80223
2.62671
2.64597
2.64325
2.57615
2.42214
2.21817
2.02671
1.89735
1.81533
1.76179
1.7205
1.68262
2.2417
2.27321
2.29888
2.31045
2.27249
2.16752
2.00066
1.85797
1.74892
1.67186
1.61872
1.57669
1.98175
2.02272
2.0541
2.0629
2.04538
2.00539
1.90648
1.76735
1.66034
1.58312
1.53506
1.50842
1.77048
1.74931
1.74934
1.76647
1.78238
1.78637
1.79342
1.83633
1.97485
2.35801
3.22323
3.16346
1.65859
1.66059
1.68814
1.71526
1.70959
1.68647
1.67248
1.69645
1.78506
2.00757
2.54825
2.65878
1.57266
1.59863
1.63472
1.62523
1.58314
1.56824
1.58577
1.63194
1.69924
1.80477
2.07514
2.21201
1.52924
1.53028
1.49764
1.45834
1.46853
1.51696
1.58211
1.63965
1.68122
1.72261
1.83703
1.92977
2.99611
2.98008
2.86114
2.6286
2.36676
2.142
1.99958
1.92945
1.89134
1.86524
1.83909
1.80845
2.62278
2.64301
2.64145
2.57576
2.42402
2.22189
2.03194
1.90334
1.8216
1.7681
1.72676
1.68872
2.23899
2.27099
2.29735
2.30977
2.2729
2.17022
2.00519
1.86341
1.75477
1.67786
1.62477
1.5825
1.98042
2.0216
2.05329
2.06289
2.04604
2.00692
1.91034
1.77241
1.66591
1.58885
1.54082
1.51325
1.77637
1.75477
1.7544
1.77067
1.78576
1.78845
1.79539
1.83814
1.97704
2.36149
3.22891
3.16832
1.66433
1.66599
1.69279
1.71864
1.71218
1.68819
1.67412
1.69827
1.78726
2.01043
2.55224
2.6625
1.578
1.60334
1.6381
1.62783
1.58509
1.57017
1.58778
1.63413
1.70161
1.80728
2.07805
2.21482
1.53314
1.53327
1.50009
1.46029
1.47067
1.51938
1.58468
1.64212
1.68344
1.72466
1.83908
1.93181
2.99919
2.98147
2.86136
2.62752
2.36384
2.13731
1.99332
1.92247
1.88388
1.85764
1.83162
1.80124
2.62586
2.64506
2.64259
2.57601
2.42291
2.21969
2.02814
1.89814
1.8155
1.76158
1.72011
1.68208
2.24162
2.2731
2.29874
2.3104
2.27284
2.1689
2.00236
1.85937
1.74996
1.67245
1.61896
1.57654
1.9824
2.0233
2.05454
2.06333
2.04599
2.00637
1.90832
1.76909
1.66175
1.58407
1.53545
1.50841
1.76943
1.74805
1.74791
1.76488
1.78093
1.78526
1.79234
1.83515
1.97308
2.35519
3.22025
3.16155
1.65783
1.65965
1.68701
1.71435
1.70908
1.68644
1.67213
1.69568
1.78349
2.00506
2.54483
2.65626
1.57229
1.598
1.6344
1.62528
1.58366
1.56824
1.58543
1.63078
1.69713
1.80205
2.07153
2.20881
1.52939
1.53081
1.49852
1.45925
1.46899
1.5165
1.58056
1.63707
1.67818
1.71928
1.83313
1.92599
1.82003
1.84555
1.855
1.83887
1.79402
1.72661
1.6386
1.53582
1.47735
1.43041
1.37945
1.33434
1.66111
1.66969
1.66205
1.63121
1.57851
1.51541
1.45125
1.39395
1.33561
1.23902
1.09718
0.951408
1.52138
1.51809
1.50209
1.4705
1.42902
1.389
1.34777
1.28763
1.18323
1.01498
0.784478
0.593214
1.41058
1.40322
1.38841
1.36656
1.34273
1.31372
1.25998
1.16531
1.0146
0.798947
0.514085
0.318562
1.30653
1.2281
1.22233
1.32892
1.47165
1.59071
1.65699
1.68014
1.67937
1.68742
1.74038
1.78636
0.88925
0.933566
1.07293
1.27354
1.47045
1.60516
1.66126
1.66106
1.62772
1.61003
1.62479
1.64375
0.553354
0.789996
1.00043
1.22916
1.43495
1.56935
1.61951
1.61308
1.56808
1.5302
1.51892
1.51803
0.368404
0.718399
0.947745
1.17556
1.37532
1.50415
1.55209
1.54664
1.50062
1.45466
1.42898
1.41539
1.82081
1.84589
1.85463
1.83718
1.79116
1.72227
1.63235
1.53041
1.47273
1.42648
1.37582
1.33096
1.66023
1.66846
1.66003
1.62813
1.57438
1.51032
1.44553
1.38952
1.33139
1.23491
1.09286
0.947021
1.51924
1.51581
1.49907
1.46667
1.42458
1.38425
1.34299
1.28356
1.17906
1.01066
0.779755
0.588837
1.40805
1.40049
1.38506
1.36272
1.33868
1.30951
1.25574
1.16144
1.01068
0.795036
0.510116
0.314789
1.30301
1.22463
1.21916
1.32592
1.46869
1.58827
1.65538
1.67907
1.67892
1.68753
1.74054
1.78644
0.884914
0.930371
1.07002
1.2706
1.46756
1.60312
1.66055
1.66136
1.62857
1.61141
1.62629
1.64523
0.549765
0.787484
0.997847
1.22647
1.43242
1.56775
1.61886
1.61362
1.56967
1.53251
1.52148
1.52057
0.366891
0.716432
0.945522
1.17323
1.37319
1.50297
1.55174
1.54742
1.50261
1.45749
1.43213
1.41859
1.82101
1.84627
1.85528
1.83858
1.79346
1.72578
1.6375
1.53608
1.47838
1.43164
1.38012
1.33383
1.66174
1.67013
1.66207
1.63094
1.57821
1.51525
1.45148
1.39524
1.33676
1.23952
1.09641
0.949272
1.5218
1.51855
1.50225
1.47062
1.42936
1.38973
1.34887
1.28898
1.18399
1.01477
0.782878
0.590912
1.41132
1.40395
1.38896
1.36724
1.34371
1.31493
1.26119
1.16633
1.01493
0.798456
0.512745
0.316687
1.30469
1.22629
1.2213
1.32851
1.47152
1.59086
1.65739
1.68086
1.68041
1.68876
1.74178
1.78761
0.886583
0.932252
1.07251
1.27353
1.47056
1.60551
1.66186
1.66209
1.6292
1.61181
1.62661
1.64528
0.551343
0.789403
1.00036
1.22928
1.43514
1.56978
1.6202
1.61421
1.5697
1.53214
1.5208
1.51906
0.367963
0.718246
0.947822
1.17571
1.37551
1.50458
1.55275
1.54771
1.50217
1.45654
1.43086
1.41697
1.82185
1.84678
1.85539
1.83801
1.79228
1.72384
1.63432
1.53159
1.47329
1.42662
1.37611
1.33192
1.66161
1.66967
1.66112
1.62933
1.57579
1.51179
1.44668
1.38971
1.33139
1.23512
1.09387
0.949061
1.52053
1.51717
1.50033
1.46792
1.42572
1.38503
1.34323
1.28332
1.17903
1.01115
0.781186
0.590879
1.40951
1.40178
1.38616
1.3636
1.33919
1.30961
1.25556
1.16122
1.01084
0.79569
0.511239
0.31628
1.30504
1.22648
1.22022
1.32597
1.4677
1.58592
1.65179
1.67518
1.67504
1.68359
1.73639
1.78333
0.887458
0.931924
1.07061
1.27021
1.46613
1.60013
1.65609
1.65644
1.62417
1.60718
1.62243
1.64263
0.551733
0.788601
0.998243
1.22605
1.4309
1.56461
1.61464
1.60878
1.56509
1.52859
1.51843
1.5187
0.367773
0.717286
0.945928
1.17294
1.37179
1.49986
1.54758
1.5426
1.49795
1.45371
1.42937
1.4167
1.33487
1.3295
1.32075
1.30858
1.28617
1.23983
1.15481
1.02443
0.844666
0.620421
0.353122
0.129772
1.292
1.29061
1.28426
1.26655
1.22595
1.15046
1.0333
0.876771
0.686312
0.476987
0.25778
0.0803775
1.27024
1.26849
1.25401
1.21928
1.15329
1.04877
0.907319
0.738039
0.553677
0.373939
0.208343
0.0700385
1.25176
1.24479
1.21712
1.16185
1.07142
0.944692
0.789854
0.620615
0.453397
0.305308
0.179884
0.0644677
1.22425
1.21063
1.1694
1.09573
0.986745
0.846947
0.689179
0.529146
0.382512
0.260172
0.16021
0.0596322
1.1809
1.1617
1.10991
1.0233
0.903572
0.759748
0.607082
0.46073
0.332983
0.229027
0.144538
0.0538829
1.11824
1.09589
1.03813
0.945379
0.82294
0.682629
0.540092
0.408535
0.29644
0.205216
0.13033
0.0477886
1.03482
1.01194
0.953151
0.861014
0.742955
0.611788
0.482124
0.365054
0.265964
0.184134
0.115814
0.041149
0.929423
0.908179
0.852767
0.767148
0.659341
0.541501
0.426293
0.323358
0.2359
0.162175
0.099403
0.0340302
0.797524
0.779294
0.730896
0.656838
0.564612
0.463812
0.364811
0.276435
0.200827
0.13566
0.0792717
0.0266755
0.619216
0.60504
0.567086
0.509867
0.440555
0.362219
0.283843
0.212955
0.152192
0.0986532
0.0524641
0.0201526
0.280417
0.269289
0.250405
0.229269
0.203766
0.173333
0.137919
0.105187
0.0769458
0.0502877
0.0331722
0.0177535
0.303635
0.674288
0.896211
1.11159
1.30015
1.42402
1.47309
1.47339
1.43395
1.38976
1.35988
1.34198
0.285161
0.633241
0.840769
1.0406
1.21618
1.33593
1.38789
1.39623
1.37026
1.33603
1.31127
1.29645
0.261097
0.589173
0.781436
0.965358
1.12718
1.24285
1.29981
1.31729
1.30798
1.28914
1.276
1.26944
0.238261
0.542093
0.719072
0.887773
1.03564
1.14661
1.20925
1.23709
1.24406
1.24259
1.24414
1.24717
0.214282
0.491896
0.654599
0.809095
0.94344
1.048
1.11442
1.15269
1.17468
1.19061
1.20557
1.21679
0.189474
0.43875
0.588487
0.729903
0.851639
0.948081
1.01588
1.06183
1.09649
1.12688
1.15316
1.17104
0.163556
0.3825
0.520635
0.649981
0.759969
0.848044
0.914944
0.965893
1.00905
1.04942
1.08347
1.10635
0.136646
0.32291
0.450187
0.568178
0.66734
0.747206
0.811286
0.863989
0.911751
0.95722
0.995271
1.02143
0.108319
0.259348
0.375163
0.481995
0.571205
0.642994
0.702844
0.754538
0.803318
0.849074
0.887535
0.915252
0.0784719
0.190846
0.291719
0.38627
0.465886
0.529696
0.584379
0.632887
0.678511
0.720725
0.756147
0.783625
0.0483479
0.112331
0.189688
0.269258
0.337745
0.392017
0.438747
0.480341
0.518435
0.553591
0.583474
0.607309
0.029139
0.0415456
0.0786467
0.121999
0.157026
0.184512
0.207128
0.22706
0.244834
0.260154
0.271488
0.278781
1.33235
1.32682
1.31759
1.30507
1.28245
1.2359
1.15091
1.02088
0.841285
0.617432
0.350931
0.128625
1.28972
1.28815
1.28126
1.26312
1.22229
1.14665
1.02969
0.873625
0.683643
0.475092
0.257169
0.0805276
1.26801
1.26596
1.2508
1.21566
1.14949
1.045
0.903936
0.735301
0.551694
0.372937
0.208537
0.0704624
1.2493
1.2419
1.21349
1.15785
1.06736
0.940848
0.7866
0.618185
0.451903
0.304815
0.180299
0.0648866
1.22137
1.20719
1.16522
1.09126
0.982343
0.842959
0.68595
0.526872
0.381256
0.259865
0.160618
0.0599583
1.17757
1.15768
1.10518
1.01836
0.898839
0.755591
0.603806
0.458479
0.331762
0.228702
0.144839
0.0541109
1.11455
1.09142
1.03299
0.940099
0.81797
0.678348
0.536753
0.406236
0.295143
0.204772
0.130483
0.0479228
1.03098
1.00725
0.947853
0.855616
0.737924
0.607495
0.478776
0.362713
0.264567
0.183538
0.115809
0.0412178
0.925691
0.903562
0.847614
0.76192
0.654478
0.537362
0.423047
0.32105
0.234453
0.161447
0.0992717
0.0340853
0.794132
0.775091
0.726239
0.652123
0.560207
0.460046
0.361844
0.274298
0.199449
0.134907
0.0791251
0.0266608
0.616475
0.601646
0.563353
0.506126
0.436991
0.359158
0.281428
0.211212
0.151078
0.0980813
0.0516844
0.0199045
0.278891
0.26768
0.248736
0.227599
0.202157
0.171869
0.136699
0.104288
0.0763688
0.0503527
0.0292453
0.0169162
0.30284
0.672693
0.894341
1.10964
1.29841
1.42319
1.47304
1.47425
1.43607
1.39271
1.36323
1.34548
0.284535
0.631921
0.839237
1.03902
1.2148
1.33537
1.38806
1.39714
1.3723
1.33887
1.31453
1.29993
0.260553
0.588094
0.780223
0.964139
1.12613
1.24247
1.30015
1.31822
1.30984
1.29176
1.27916
1.2728
0.237815
0.541236
0.718152
0.886884
1.0349
1.1464
1.20966
1.23801
1.24567
1.24504
1.24738
1.2506
0.213919
0.491239
0.653938
0.808501
0.943002
1.04791
1.11479
1.1535
1.17609
1.19282
1.20851
1.22006
0.18918
0.438263
0.588045
0.729556
0.851441
0.948135
1.01631
1.06265
1.09787
1.12901
1.15602
1.17434
0.163323
0.382152
0.520371
0.649832
0.759966
0.848261
0.915463
0.966743
1.01038
1.05152
1.08636
1.10974
0.136445
0.322659
0.450054
0.568177
0.667477
0.747536
0.811865
0.864855
0.913015
0.95935
0.998168
1.02485
0.108149
0.259149
0.375116
0.482086
0.571431
0.643373
0.703453
0.755401
0.804583
0.851163
0.890355
0.918586
0.078313
0.190649
0.291702
0.386406
0.466129
0.530056
0.584954
0.633735
0.679786
0.722679
0.758742
0.786697
0.0481878
0.112098
0.189659
0.269383
0.337944
0.392324
0.439274
0.481178
0.519573
0.555217
0.58558
0.609852
0.0290158
0.0414645
0.0787478
0.122163
0.157232
0.184805
0.207556
0.227613
0.245532
0.261078
0.272624
0.28018
1.33594
1.33059
1.32173
1.30969
1.28739
1.24102
1.15578
1.02505
0.844675
0.619956
0.352601
0.129365
1.29332
1.29196
1.28545
1.26773
1.2271
1.15142
1.03396
0.877062
0.686201
0.476781
0.257975
0.0806069
1.27154
1.26985
1.25513
1.22032
1.15421
1.04947
0.907711
0.73815
0.553627
0.37404
0.208843
0.0703658
1.25286
1.246
1.21806
1.16266
1.07208
0.945127
0.790057
0.620679
0.453487
0.305612
0.180427
0.0647666
1.22507
1.21158
1.17009
1.09628
0.987138
0.847175
0.689272
0.52923
0.38271
0.260553
0.160709
0.0598629
1.18146
1.16237
1.11033
1.02359
0.903741
0.759819
0.607117
0.460825
0.333225
0.229392
0.144954
0.0540511
1.11862
1.09631
1.03834
0.945457
0.822941
0.682584
0.540089
0.408611
0.296667
0.205506
0.130644
0.0478809
1.03512
1.0122
0.953223
0.860955
0.742851
0.611664
0.482089
0.365086
0.266135
0.184318
0.116008
0.0412072
0.929738
0.908347
0.852793
0.76702
0.659217
0.541309
0.426256
0.32331
0.236015
0.16222
0.0994875
0.034084
0.797848
0.779459
0.730921
0.656739
0.564481
0.463637
0.36473
0.276368
0.200854
0.135628
0.079311
0.0266842
0.619534
0.605205
0.567134
0.509837
0.44046
0.362082
0.283744
0.212871
0.152168
0.0986296
0.051804
0.0199501
0.280478
0.269357
0.250451
0.229311
0.203757
0.173299
0.137846
0.105127
0.0769315
0.0506599
0.0293578
0.01698
0.303634
0.674336
0.896368
1.11175
1.30032
1.42439
1.47367
1.47427
1.43529
1.39138
1.36152
1.34344
0.285265
0.633409
0.840974
1.04077
1.21632
1.33622
1.38835
1.3969
1.3713
1.33729
1.31252
1.29753
0.261206
0.589403
0.781681
0.96555
1.12732
1.24307
1.30015
1.31776
1.3087
1.28998
1.2768
1.27008
0.238406
0.542368
0.719356
0.887993
1.03579
1.14677
1.20947
1.23739
1.24449
1.24308
1.24453
1.24742
0.214437
0.492205
0.654917
0.809344
0.943601
1.04813
1.11455
1.15286
1.17492
1.19083
1.20566
1.21678
0.189643
0.439082
0.588832
0.730178
0.851816
0.948198
1.01597
1.06192
1.09658
1.1269
1.15307
1.17087
0.163728
0.382841
0.520999
0.650277
0.760164
0.848159
0.915015
0.965918
1.00905
1.04933
1.0833
1.10612
0.136809
0.323241
0.450555
0.568487
0.667549
0.747331
0.811358
0.863996
0.911713
0.957096
0.995079
1.02119
0.108474
0.259644
0.37552
0.482302
0.57143
0.643127
0.702936
0.754546
0.803288
0.848953
0.88737
0.915056
0.0785901
0.191079
0.292029
0.386569
0.466105
0.529854
0.584479
0.632924
0.678496
0.720644
0.756028
0.783485
0.0484174
0.112458
0.189913
0.269521
0.337943
0.392168
0.438849
0.480395
0.518451
0.553559
0.583413
0.607235
0.0291873
0.0415958
0.0787716
0.122156
0.157154
0.184622
0.207216
0.227136
0.244889
0.260201
0.271519
0.278803
1.33359
1.32779
1.31825
1.30539
1.28242
1.23567
1.15068
1.02086
0.84169
0.618119
0.351505
0.128966
1.29054
1.28864
1.28142
1.26301
1.222
1.14637
1.02958
0.873827
0.684158
0.475624
0.25728
0.0804484
1.26838
1.26603
1.25062
1.21534
1.14915
1.04479
0.903981
0.735626
0.552161
0.373237
0.208439
0.0703211
1.24934
1.24169
1.21315
1.15749
1.06709
0.94077
0.786762
0.618529
0.45224
0.304928
0.180138
0.0647654
1.22119
1.20685
1.16486
1.09096
0.982189
0.843004
0.686177
0.527179
0.381467
0.259867
0.160446
0.0598575
1.1773
1.15733
1.10488
1.01817
0.898811
0.755732
0.604059
0.458735
0.331888
0.228656
0.144681
0.0540309
1.11426
1.09111
1.03277
0.940021
0.818042
0.678553
0.537011
0.406453
0.295225
0.204718
0.130354
0.0478639
1.03072
1.00702
0.947728
0.855626
0.738062
0.60773
0.479025
0.362904
0.264635
0.1835
0.115719
0.0411826
0.925488
0.903407
0.847564
0.761994
0.65464
0.537606
0.423278
0.321231
0.234519
0.161442
0.0992234
0.034072
0.793994
0.775004
0.726246
0.652216
0.560367
0.460266
0.362059
0.274468
0.19953
0.134938
0.0791193
0.0266634
0.616406
0.601619
0.563403
0.506199
0.437115
0.359332
0.281618
0.211374
0.151173
0.0981452
0.0517075
0.0199181
0.278917
0.267717
0.248742
0.227586
0.202167
0.171906
0.136783
0.104356
0.0764174
0.0503935
0.0292711
0.0169349
0.303378
0.673483
0.894842
1.10953
1.29721
1.42021
1.46894
1.46952
1.43139
1.38897
1.36056
1.34352
0.285027
0.632732
0.839837
1.03907
1.21382
1.33259
1.38408
1.39253
1.36768
1.33517
1.31189
1.29791
0.261042
0.588925
0.780892
0.964321
1.12537
1.23998
1.29632
1.31377
1.30534
1.28826
1.27658
1.27078
0.238265
0.542055
0.718847
0.887146
1.03431
1.14418
1.20605
1.23371
1.24136
1.24222
1.245
1.24863
0.214329
0.492014
0.654619
0.808794
0.942474
1.046
1.11141
1.14925
1.17179
1.18961
1.20623
1.21823
0.189539
0.438964
0.588676
0.729844
0.850978
0.94646
1.0132
1.05876
1.09394
1.12594
1.15385
1.17259
0.163629
0.382756
0.520923
0.650084
0.759535
0.846744
0.912716
0.963236
1.00681
1.0487
1.08427
1.108
0.136701
0.323156
0.450508
0.568366
0.667046
0.746139
0.80941
0.861721
0.90979
0.956812
0.996149
1.02311
0.108351
0.25954
0.375462
0.4822
0.570971
0.642067
0.701242
0.752642
0.801768
0.848917
0.888442
0.91687
0.0784671
0.190945
0.291943
0.386446
0.465631
0.52883
0.582968
0.631391
0.677509
0.720757
0.757025
0.785089
0.0483069
0.11231
0.189798
0.269414
0.337425
0.391226
0.437706
0.479444
0.517852
0.553719
0.584174
0.608566
0.0291077
0.0415406
0.078754
0.122142
0.156919
0.184241
0.206828
0.22682
0.244744
0.260399
0.271971
0.279679
)
;

boundaryField
{
    rotor
    {
        type            kqRWallFunction;
        value           nonuniform List<scalar> 
192
(
0.105663
0.147018
0.143746
0.158567
0.324746
0.677741
0.888042
0.994161
1.07248
1.12071
1.15179
1.16403
1.15937
1.15434
1.14177
1.11308
1.06883
1.00891
0.931146
0.836097
0.719049
0.58841
0.476263
0.391989
0.102848
0.143602
0.140973
0.156834
0.326853
0.679667
0.88862
0.994479
1.07249
1.12054
1.15144
1.16349
1.15847
1.15299
1.13992
1.11071
1.06641
1.00622
0.928686
0.833799
0.717075
0.586706
0.474801
0.390674
0.103108
0.143991
0.14137
0.157309
0.328041
0.682104
0.891829
0.998173
1.07658
1.12489
1.15592
1.16802
1.16308
1.15775
1.14486
1.11561
1.07109
1.01064
0.93261
0.83716
0.719792
0.588691
0.476288
0.391908
0.102818
0.143564
0.140895
0.156366
0.323798
0.677182
0.88737
0.993277
1.07136
1.11938
1.15034
1.16243
1.15752
1.15216
1.13928
1.11029
1.06617
1.00621
0.928815
0.834085
0.717513
0.587192
0.475464
0.391361
0.105663
0.222262
0.368918
0.46584
0.505405
0.497724
0.473866
0.434571
0.400655
0.350773
0.376957
1.01485
0.391361
0.834309
1.0968
1.31503
1.48185
1.64748
1.79719
1.97053
2.15809
2.3377
2.52502
2.72756
0.102848
0.220231
0.367475
0.465012
0.505056
0.497545
0.473776
0.434675
0.400965
0.351075
0.377141
1.01413
0.391989
0.836013
1.0995
1.31862
1.48624
1.65264
1.80309
1.97719
2.16522
2.3452
2.53243
2.73503
0.103108
0.220768
0.368381
0.46618
0.506429
0.498875
0.474587
0.436296
0.402017
0.351759
0.377873
1.0144
0.390674
0.833464
1.09628
1.3147
1.48179
1.64764
1.7976
1.97119
2.15899
2.33881
2.52624
2.72893
0.102818
0.220097
0.366883
0.464357
0.504466
0.496987
0.473141
0.434009
0.400153
0.350477
0.376655
1.01345
0.391908
0.835942
1.09954
1.3186
1.48617
1.65246
1.80283
1.97688
2.16488
2.34486
2.53197
2.73441
)
;
    }
    stator
    {
        type            kqRWallFunction;
        value           nonuniform List<scalar> 
192
(
0.280417
0.269289
0.250405
0.229269
0.203766
0.173333
0.137919
0.105187
0.0769458
0.0502877
0.0331722
0.0177535
0.029139
0.0415456
0.0786467
0.121999
0.157026
0.184512
0.207128
0.22706
0.244834
0.260154
0.271488
0.278781
0.278891
0.26768
0.248736
0.227599
0.202157
0.171869
0.136699
0.104288
0.0763688
0.0503527
0.0292453
0.0169162
0.0290158
0.0414645
0.0787478
0.122163
0.157232
0.184805
0.207556
0.227613
0.245532
0.261078
0.272624
0.28018
0.280478
0.269357
0.250451
0.229311
0.203757
0.173299
0.137846
0.105127
0.0769315
0.0506599
0.0293578
0.01698
0.0291873
0.0415958
0.0787716
0.122156
0.157154
0.184622
0.207216
0.227136
0.244889
0.260201
0.271519
0.278803
0.278917
0.267717
0.248742
0.227586
0.202167
0.171906
0.136783
0.104356
0.0764174
0.0503935
0.0292711
0.0169349
0.0291077
0.0415406
0.078754
0.122142
0.156919
0.184241
0.206828
0.22682
0.244744
0.260399
0.271971
0.279679
0.303635
0.285161
0.261097
0.238261
0.214282
0.189474
0.163556
0.136646
0.108319
0.0784719
0.0483479
0.029139
0.129772
0.0803775
0.0700385
0.0644677
0.0596322
0.0538829
0.0477886
0.041149
0.0340302
0.0266755
0.0201526
0.0177535
0.30284
0.284535
0.260553
0.237815
0.213919
0.18918
0.163323
0.136445
0.108149
0.078313
0.0481878
0.0290158
0.128625
0.0805276
0.0704624
0.0648866
0.0599583
0.0541109
0.0479228
0.0412178
0.0340853
0.0266608
0.0199045
0.0169162
0.303634
0.285265
0.261206
0.238406
0.214437
0.189643
0.163728
0.136809
0.108474
0.0785901
0.0484174
0.0291873
0.129365
0.0806069
0.0703658
0.0647666
0.0598629
0.0540511
0.0478809
0.0412072
0.034084
0.0266842
0.0199501
0.01698
0.303378
0.285027
0.261042
0.238265
0.214329
0.189539
0.163629
0.136701
0.108351
0.0784671
0.0483069
0.0291077
0.128966
0.0804484
0.0703211
0.0647654
0.0598575
0.0540309
0.0478639
0.0411826
0.034072
0.0266634
0.0199181
0.0169349
)
;
    }
    front
    {
        type            empty;
    }
    back
    {
        type            empty;
    }
}


// ************************************************************************* //
