/*--------------------------------*- C++ -*----------------------------------*\
  =========                 |
  \\      /  F ield         | OpenFOAM: The Open Source CFD Toolbox
   \\    /   O peration     | Website:  https://openfoam.org
    \\  /    A nd           | Version:  6
     \\/     M anipulation  |
\*---------------------------------------------------------------------------*/
FoamFile
{
    version     2.0;
    format      ascii;
    class       volScalarField;
    location    "100";
    object      nut;
}
// * * * * * * * * * * * * * * * * * * * * * * * * * * * * * * * * * * * * * //

dimensions      [0 2 -1 0 0 0 0];

internalField   nonuniform List<scalar> 
3072
(
5.0098e-05
0.000108539
0.000107225
0.000111328
0.000154026
0.000229896
0.000266617
0.000282454
0.0002936
0.000300101
0.000304308
0.000305909
8.13438e-05
0.000242763
0.000222979
0.000223697
0.000294398
0.000394809
0.000540228
0.000729396
0.000943681
0.00116355
0.00138055
0.00158958
0.000115102
0.000417121
0.000430611
0.00053075
0.000716515
0.000967825
0.00132027
0.00169107
0.00204444
0.00236839
0.00266162
0.00288201
0.000141982
0.000617787
0.000734299
0.00091494
0.00118904
0.0015816
0.0020308
0.00247258
0.00287313
0.00323957
0.00353905
0.00374949
0.000160941
0.000775059
0.000989316
0.0012409
0.00161729
0.00208398
0.00257882
0.00304641
0.00346325
0.00383674
0.00412041
0.00433324
0.000172358
0.000848767
0.00118847
0.00152604
0.00195383
0.00244967
0.00295891
0.00342628
0.00383997
0.00420204
0.00448037
0.00469597
0.000180594
0.000924432
0.00133852
0.00173494
0.00218983
0.00269171
0.0031906
0.00365716
0.00406851
0.00441173
0.00466914
0.00486871
0.000184245
0.00096384
0.00144847
0.00187945
0.00235101
0.00284399
0.00333056
0.00376943
0.00414841
0.00446034
0.00470755
0.00489462
0.000188081
0.00093694
0.00154212
0.0019905
0.00245729
0.00291179
0.0033533
0.00376109
0.00411189
0.00440388
0.00463689
0.00481346
0.000187844
0.0009069
0.00157117
0.00203312
0.00246665
0.00287938
0.00328511
0.00366089
0.00399028
0.00426463
0.00447835
0.00464659
0.000207258
0.000899591
0.00155951
0.00202362
0.00241394
0.0027923
0.00312521
0.00346651
0.00378232
0.00404381
0.00424371
0.0044072
0.000364975
0.000941836
0.00154443
0.00191677
0.00225799
0.0025721
0.00289852
0.00319399
0.0034793
0.00373312
0.00393519
0.00409951
0.000305271
0.000304545
0.000302866
0.000299092
0.000293273
0.000285102
0.000274162
0.000260136
0.000241665
0.000218901
0.000197493
9.79919e-05
0.00175607
0.00186878
0.0019019
0.00185508
0.00176894
0.00161954
0.00140967
0.00116361
0.000896631
0.00055829
0.00027363
0.000159345
0.00302565
0.00310535
0.00311586
0.00305656
0.00293647
0.00273557
0.00243581
0.00203699
0.00156544
0.0010307
0.000455812
0.000201396
0.00390442
0.00398699
0.00400418
0.00395215
0.00384
0.00366749
0.00336502
0.00292166
0.00232093
0.00159388
0.000762957
0.00024125
0.0044888
0.00458175
0.00461555
0.00459012
0.00450238
0.00436843
0.00409258
0.00366647
0.003023
0.00216139
0.00109627
0.000278081
0.00484679
0.00493813
0.00497688
0.0049696
0.00490759
0.00481383
0.00459153
0.00423533
0.00367767
0.00275163
0.00151258
0.000316476
0.00500739
0.00509321
0.00513316
0.00513424
0.00509558
0.00503341
0.00489782
0.00465475
0.00420341
0.0033311
0.00198085
0.0003548
0.00502467
0.00510165
0.005135
0.00513313
0.00510511
0.00506617
0.00500723
0.00488856
0.00458546
0.00384477
0.00239248
0.000396909
0.00493884
0.0050032
0.00502688
0.00501642
0.00498259
0.00495693
0.00494745
0.00494538
0.00484155
0.00429427
0.00278542
0.000442066
0.00476819
0.00482385
0.00483998
0.00481981
0.00477697
0.00475193
0.00476409
0.00484108
0.00493063
0.00464034
0.00325468
0.000487961
0.00452548
0.00457766
0.00459142
0.0045598
0.00451139
0.00448047
0.00450984
0.0046349
0.00485302
0.00489072
0.00380318
0.000536514
0.0042154
0.00427468
0.00428475
0.00425579
0.00421615
0.00419528
0.00424572
0.00439639
0.00469084
0.00497686
0.00441709
0.000588316
4.96554e-05
0.00010753
0.000106303
0.000110713
0.000154526
0.000230199
0.000266645
0.000282436
0.000293553
0.000300049
0.000304238
0.000305782
8.10547e-05
0.000240635
0.00022127
0.000224424
0.00029564
0.000396603
0.000542621
0.000732381
0.000947109
0.00116728
0.00138445
0.00159296
0.000114935
0.000417155
0.000431254
0.000533748
0.000719239
0.000972125
0.00132553
0.00169717
0.00205108
0.00237566
0.00266887
0.00288806
0.000141865
0.000618164
0.000735488
0.000917318
0.00119301
0.00158796
0.00203861
0.00248132
0.00288284
0.00324995
0.00354667
0.00375485
0.000160894
0.000775896
0.000991194
0.00124557
0.0016235
0.0020923
0.00258871
0.00305729
0.00347501
0.00384878
0.00413147
0.0043433
0.000172355
0.000849741
0.00119105
0.00153092
0.00196136
0.00246007
0.00297349
0.00343897
0.00385334
0.00421568
0.00449346
0.0047082
0.000180598
0.000925442
0.00134174
0.00174062
0.00219817
0.00270249
0.00320539
0.00367108
0.00408291
0.00442595
0.00468297
0.00488179
0.000184237
0.00096477
0.00145189
0.0018854
0.00235928
0.00285491
0.00334376
0.00378296
0.00416239
0.00447447
0.0047213
0.0049076
0.000188119
0.000938116
0.00154527
0.0019961
0.0024651
0.0029216
0.00336478
0.00377368
0.00412511
0.00441727
0.00464985
0.00482563
0.000187885
0.000906868
0.00157356
0.0020375
0.00247319
0.00288742
0.00329508
0.00367209
0.00400215
0.00427662
0.00448988
0.00465734
0.000207276
0.000899554
0.00156041
0.00202598
0.00241785
0.00279807
0.00313235
0.00347557
0.00379225
0.0040538
0.00425329
0.0044161
0.000364872
0.000941692
0.001543
0.00191592
0.00225816
0.00257374
0.00290154
0.00319901
0.00348662
0.00374076
0.00394253
0.00410635
0.000305059
0.000304257
0.000302516
0.000298696
0.000292853
0.000284649
0.000273739
0.00025973
0.000241292
0.000218554
0.000197173
9.78212e-05
0.00175868
0.00187014
0.00190202
0.00185413
0.00176706
0.00161743
0.00140754
0.00116197
0.000895389
0.000557405
0.000273155
0.000159092
0.00303113
0.00310865
0.00311719
0.00305591
0.00293401
0.00273261
0.00243265
0.00203379
0.00156271
0.00102893
0.000454984
0.000201089
0.00390899
0.00399175
0.00400678
0.00395243
0.00383816
0.00366524
0.00336166
0.00291616
0.00231664
0.00159089
0.000761452
0.00024088
0.0044976
0.00458923
0.00462077
0.00459278
0.00450237
0.00436686
0.00408981
0.00366055
0.00301692
0.00215725
0.00109391
0.00027766
0.00485777
0.00494763
0.00498435
0.0049747
0.0049102
0.00481442
0.00458952
0.00423099
0.00367243
0.00274671
0.00150933
0.000316
0.00501931
0.0051036
0.00514161
0.00514037
0.00509894
0.00503451
0.00489601
0.00465034
0.00419737
0.00332489
0.0019766
0.000354273
0.00503649
0.00511197
0.00514343
0.00513934
0.00510881
0.00506731
0.00500533
0.00488362
0.00457855
0.0038377
0.0023882
0.000396336
0.00494983
0.00501273
0.00503462
0.00502207
0.00498592
0.00495804
0.00494555
0.00494008
0.00483384
0.0042866
0.00278033
0.00044147
0.0047778
0.00483208
0.00484655
0.00482454
0.00477973
0.00475275
0.00476228
0.00483613
0.00492255
0.00463168
0.00324897
0.000487352
0.00453336
0.00458425
0.0045965
0.00456349
0.0045137
0.00448041
0.004508
0.00463043
0.00484543
0.0048824
0.00379765
0.00053592
0.00422144
0.00427941
0.00428802
0.00425834
0.00421723
0.00419462
0.00424348
0.00439215
0.0046842
0.0049687
0.00441098
0.000587725
4.9701e-05
0.000107644
0.000106425
0.000110867
0.000154839
0.000230647
0.000267154
0.000282986
0.000294126
0.000300625
0.000304813
0.00030638
8.11314e-05
0.000240887
0.000221494
0.000224616
0.000295939
0.000397072
0.000543294
0.000733382
0.000948439
0.00116889
0.00138651
0.00159567
0.000115069
0.000417606
0.000431619
0.00053413
0.000719865
0.000973113
0.00132712
0.00169932
0.00205364
0.0023787
0.00267247
0.00289251
0.00014204
0.000618776
0.000736014
0.000917984
0.00119396
0.00158942
0.00204073
0.00248401
0.00288597
0.00325366
0.00355081
0.00375972
0.000161136
0.000776848
0.000992043
0.00124639
0.00162456
0.00209392
0.00259098
0.00306005
0.00347824
0.00385243
0.00413537
0.00434772
0.000172678
0.000850749
0.00119195
0.0015318
0.00196256
0.00246181
0.0029759
0.00344178
0.00385662
0.00421921
0.00449714
0.00471226
0.000180218
0.000924706
0.00134274
0.00174175
0.00219959
0.00270451
0.00320785
0.00367387
0.00408605
0.00442916
0.00468636
0.0048853
0.000185486
0.00096971
0.00145341
0.00188691
0.00236121
0.00285711
0.00334635
0.00378593
0.00416556
0.00447774
0.00472464
0.00491098
0.000188615
0.000935037
0.00154646
0.00199778
0.00246738
0.00292434
0.0033679
0.00377697
0.00412846
0.00442072
0.00465329
0.00482919
0.000187984
0.000908712
0.0015754
0.00203979
0.00247592
0.00289074
0.00329865
0.00367578
0.00400596
0.00428044
0.00449364
0.00466132
0.000207458
0.000900974
0.00156274
0.002029
0.00242151
0.00280215
0.00313672
0.0034801
0.0037968
0.00405824
0.00425778
0.00442074
0.000364843
0.000942679
0.00154565
0.00192013
0.00226281
0.0025792
0.00290723
0.00320463
0.00349245
0.00374648
0.00394823
0.00411177
0.000305691
0.000304918
0.000303201
0.000299369
0.000293518
0.000285293
0.00027433
0.000260254
0.000241744
0.000218917
0.000197474
9.79703e-05
0.0017622
0.00187452
0.00190708
0.00185984
0.00177309
0.00162337
0.00141278
0.00116585
0.000898107
0.000559131
0.000273769
0.000159321
0.0030364
0.00311527
0.00312507
0.00306487
0.00294366
0.00274214
0.00244143
0.00204097
0.00156751
0.00103189
0.000456253
0.000201378
0.00391481
0.00399888
0.00401526
0.00396204
0.00384869
0.00367568
0.0033717
0.00292499
0.00232332
0.00159524
0.000763356
0.000241226
0.00450262
0.00459513
0.0046278
0.00460104
0.00451203
0.00437717
0.00410018
0.00366961
0.00302465
0.00216272
0.00109666
0.000278053
0.00486207
0.00495231
0.00498965
0.0049808
0.00491726
0.00482218
0.00459801
0.00423983
0.0036805
0.00275303
0.00151286
0.000316441
0.00502292
0.00510743
0.00514576
0.00514502
0.00510432
0.00504057
0.00490302
0.00465817
0.00420543
0.0033319
0.00198095
0.000354763
0.00503983
0.00511529
0.00514684
0.00514294
0.0051128
0.00507194
0.00501104
0.00489066
0.0045867
0.00384528
0.00239255
0.000396874
0.00495318
0.00501581
0.00503763
0.00502503
0.00498894
0.00496148
0.00494997
0.00494607
0.00484143
0.00429421
0.00278534
0.000442035
0.00478151
0.00483528
0.0048496
0.00482735
0.00478224
0.00475551
0.0047657
0.00484093
0.0049294
0.00463984
0.0032545
0.000487937
0.00453759
0.00458804
0.00460005
0.00456669
0.00451643
0.00448359
0.00451096
0.00463424
0.0048511
0.00488974
0.00380258
0.000536484
0.00422629
0.00428402
0.00429252
0.00426201
0.00422036
0.00419708
0.00424638
0.00439557
0.004689
0.00497531
0.00441627
0.000588274
4.96516e-05
0.000107499
0.000106269
0.000110568
0.000153773
0.000229759
0.000266464
0.000282277
0.000293407
0.000299902
0.000304102
0.000305658
8.10372e-05
0.000240402
0.000221046
0.000223704
0.000294377
0.000394913
0.00054043
0.00072964
0.000943896
0.00116378
0.00138056
0.00158896
0.000114861
0.000416186
0.000429641
0.000530354
0.000716056
0.000967838
0.0013205
0.00169152
0.00204508
0.00236915
0.00266192
0.00288095
0.000141795
0.00061648
0.000732689
0.000913904
0.0011885
0.0015819
0.00203162
0.0024739
0.00287511
0.00324193
0.00353822
0.00374633
0.000160791
0.000774277
0.000987805
0.00124019
0.00161732
0.00208491
0.00258054
0.00304878
0.00346621
0.00383976
0.00412205
0.00433406
0.000172241
0.000848018
0.00118731
0.00152565
0.00195431
0.0024512
0.00296132
0.00342947
0.00384382
0.00420575
0.0044833
0.00469829
0.000180464
0.000923638
0.00133765
0.00173471
0.00219056
0.00269348
0.0031934
0.00366084
0.00407269
0.00441566
0.00467266
0.00487162
0.000184144
0.00096322
0.0014476
0.00187919
0.00235162
0.00284583
0.0033334
0.00377278
0.00415208
0.00446397
0.00471084
0.00489733
0.000187951
0.000936599
0.0015414
0.00199013
0.00245769
0.00291301
0.00335527
0.00376367
0.00411482
0.00440685
0.00463955
0.0048156
0.000187736
0.000906492
0.00157034
0.00203243
0.00246656
0.00287975
0.00328622
0.00366257
0.00399228
0.00426666
0.00448009
0.00464784
0.000207149
0.000899501
0.00155867
0.0020227
0.00241311
0.00279179
0.00312493
0.00346706
0.00378316
0.00404465
0.00424431
0.00440736
0.000364719
0.000941663
0.00154303
0.0019151
0.00225632
0.0025701
0.00289667
0.00319271
0.00347866
0.00373238
0.00393439
0.00409858
0.000304953
0.000304171
0.000302454
0.000298661
0.000292847
0.000284672
0.000273779
0.000259779
0.000241366
0.00021864
0.000197299
9.78999e-05
0.00175459
0.00186617
0.00189837
0.00185085
0.00176438
0.00161515
0.00140557
0.00116021
0.000894156
0.000557088
0.000273221
0.000159163
0.00302406
0.00310207
0.00311137
0.00305113
0.00293029
0.00272961
0.00242983
0.00203162
0.00156105
0.00102785
0.00045476
0.000201128
0.00390076
0.00398413
0.0040001
0.00394687
0.00383319
0.00366053
0.00335748
0.00291422
0.00231469
0.00158943
0.000760956
0.000240902
0.00448862
0.00458084
0.00461329
0.00458629
0.00449617
0.0043608
0.00408427
0.0036576
0.00301502
0.00215526
0.00109327
0.000277655
0.00484815
0.00493852
0.00497591
0.00496698
0.00490283
0.00480746
0.00458312
0.00422564
0.00366779
0.00274366
0.00150833
0.000315974
0.00500939
0.00509405
0.00513254
0.00513178
0.00509062
0.00502661
0.00488863
0.00464367
0.00419173
0.00332149
0.00197541
0.000354222
0.00502651
0.00510232
0.00513418
0.00513045
0.00510017
0.00505895
0.00499741
0.00487631
0.00457239
0.00383336
0.00238656
0.000396259
0.00494012
0.00500331
0.00502558
0.00501338
0.00497745
0.00494972
0.00493748
0.00493236
0.00482699
0.00428148
0.00277855
0.000441365
0.00476865
0.00482322
0.00483807
0.00481645
0.00477177
0.00474498
0.00475461
0.00482862
0.00491518
0.00462594
0.00324711
0.000487219
0.00452495
0.00457615
0.00458883
0.00455621
0.00450641
0.00447355
0.00450116
0.00462366
0.00483827
0.0048759
0.00379602
0.000535766
0.00421388
0.00427217
0.00428143
0.00425201
0.0042111
0.00418927
0.00423833
0.00438696
0.00467842
0.00496176
0.0044093
0.000587548
0.00217443
0.00216439
0.00210402
0.00208813
0.00213408
0.00228013
0.00252369
0.00283254
0.00311737
0.00336003
0.00356574
0.00372595
0.00329424
0.00282933
0.00247843
0.00235925
0.00225954
0.00225464
0.00230986
0.0024806
0.00272126
0.00296431
0.00316542
0.00332569
0.0042156
0.00363447
0.00310163
0.00278203
0.00250685
0.00237864
0.00228469
0.00233187
0.00245369
0.00262395
0.00280135
0.00295526
0.00453478
0.0040782
0.00357844
0.00313455
0.00275684
0.00257745
0.00239148
0.00223102
0.00229526
0.00241654
0.00256353
0.0027169
0.00384868
0.003925
0.00394217
0.00395555
0.00393907
0.00395083
0.00403702
0.00420343
0.00453593
0.00508294
0.0057207
0.00231742
0.00346965
0.0035456
0.00361411
0.00366517
0.00368263
0.00375246
0.0039815
0.00419172
0.00450918
0.0050031
0.0059555
0.0040081
0.00311845
0.00320353
0.00333451
0.00340823
0.00352035
0.00389802
0.00416921
0.00438927
0.00459548
0.00484447
0.00548139
0.00484627
0.00285375
0.00297614
0.00312033
0.00347933
0.00390594
0.00417207
0.00443011
0.00457461
0.00463956
0.00469588
0.00494565
0.00486663
0.00217055
0.00215883
0.00209798
0.00208376
0.00212997
0.00227654
0.00252374
0.00283497
0.00312143
0.00336531
0.00357079
0.00373081
0.00328727
0.00282135
0.00247263
0.00235408
0.00225153
0.00224819
0.00230456
0.00247821
0.00272174
0.00296635
0.00316726
0.00332794
0.00420786
0.00362489
0.00309421
0.00277267
0.00250113
0.00236946
0.00227759
0.00232613
0.0024499
0.00262228
0.0027998
0.00295498
0.00452597
0.00406782
0.00356925
0.00312266
0.0027482
0.00256906
0.0023787
0.00222261
0.00228916
0.00241229
0.00256016
0.00271515
0.00385285
0.00392755
0.00394343
0.00395652
0.0039382
0.00394876
0.00403365
0.00419895
0.00452976
0.00507578
0.00571462
0.0023184
0.0034716
0.00354551
0.00361394
0.00366388
0.00368041
0.00374855
0.00397648
0.00418704
0.00450432
0.00499789
0.00595031
0.00400861
0.00311744
0.00320249
0.00333236
0.00340538
0.00351587
0.00389334
0.00416512
0.00438575
0.00459338
0.00484291
0.00547969
0.00484746
0.0028518
0.00297309
0.00311615
0.00347449
0.0039014
0.00416805
0.00442754
0.00457455
0.00464141
0.00469885
0.00494885
0.00487028
0.00217226
0.00216204
0.00210215
0.00208819
0.00213574
0.00228338
0.00253102
0.002842
0.00312831
0.00337227
0.00357749
0.00373714
0.00329029
0.00282634
0.00247709
0.00235873
0.00225853
0.0022553
0.00231305
0.00248714
0.00273055
0.00297459
0.00317531
0.00333549
0.00421106
0.00363112
0.00310002
0.00278017
0.00250689
0.00237767
0.00228635
0.00233626
0.00246044
0.00263258
0.00280919
0.00296344
0.00453058
0.00407483
0.00357618
0.00313168
0.00275576
0.00257682
0.00239006
0.00223318
0.00229986
0.00242273
0.00257043
0.00272245
0.00385871
0.00393313
0.00394893
0.00396031
0.00394226
0.00395025
0.0040371
0.00420218
0.00453416
0.00508135
0.00571948
0.0023161
0.00347834
0.0035528
0.0036198
0.0036681
0.00368384
0.00375221
0.00398126
0.00419199
0.00450955
0.00500345
0.00595576
0.0040074
0.00312532
0.00320921
0.00333778
0.00341006
0.00352156
0.00389978
0.00416969
0.0043901
0.00459769
0.0048473
0.00548463
0.00484822
0.00285769
0.00297813
0.00312175
0.00348178
0.00390703
0.00417382
0.00443234
0.00457825
0.0046442
0.0047012
0.00495154
0.00487138
0.00216921
0.00215802
0.00209818
0.00208448
0.00213046
0.00227609
0.00252105
0.00283057
0.00311562
0.00335841
0.00356399
0.00372398
0.00328642
0.00282134
0.00247321
0.00235508
0.00225348
0.00225
0.0023053
0.00247682
0.00271831
0.00296161
0.00316263
0.00332265
0.00420891
0.00362643
0.0030957
0.00277511
0.00250325
0.00237266
0.00227967
0.0023268
0.00244916
0.00261989
0.00279746
0.00295134
0.00452936
0.00407096
0.00357177
0.00312592
0.00275133
0.00257275
0.00238345
0.00222498
0.00228996
0.00241169
0.00255861
0.00271313
0.00384611
0.00392142
0.00393797
0.00395142
0.00393403
0.00394545
0.00403021
0.00419552
0.00452546
0.00507031
0.00571183
0.00231865
0.00346608
0.00354118
0.00360951
0.00366075
0.00367811
0.0037466
0.00397357
0.00418416
0.00449991
0.00499318
0.00594684
0.0040106
0.0031143
0.00319925
0.00333034
0.00340387
0.00351444
0.00388885
0.00416491
0.00438414
0.00459026
0.00483904
0.0054755
0.00484924
0.00285044
0.00297286
0.00311646
0.00347288
0.00390299
0.00416835
0.00442508
0.0045702
0.00463667
0.00469423
0.00494454
0.0048723
0.00398877
0.00357774
0.00316044
0.00283079
0.00257843
0.00240664
0.00229627
0.00216913
0.0022846
0.00239444
0.00247525
0.00257336
0.00352138
0.00316141
0.00285847
0.00263022
0.00243152
0.00231538
0.00226212
0.00224821
0.00232243
0.00230289
0.00220388
0.00208191
0.00316079
0.00287963
0.0026792
0.00250777
0.00236423
0.00231628
0.00230308
0.00229807
0.00226317
0.00209341
0.00178497
0.00136322
0.00292306
0.00272805
0.0025861
0.00246535
0.00237694
0.00236311
0.00234036
0.00228453
0.0021435
0.00185376
0.00127621
0.00064747
0.00279939
0.00321016
0.00355547
0.00407716
0.0044718
0.00465237
0.00470506
0.00467241
0.00458446
0.00449848
0.00448312
0.00431239
0.00228666
0.00302972
0.0037443
0.00433017
0.00468448
0.00479545
0.00475695
0.00463701
0.00442252
0.00423661
0.00407114
0.00383336
0.00122697
0.00284247
0.00377875
0.00435375
0.00470578
0.00479405
0.00470137
0.00452561
0.00423207
0.00395305
0.00370627
0.00344481
0.000560381
0.00265621
0.00370002
0.00428347
0.00463955
0.00471915
0.00459439
0.0043832
0.00404777
0.00371956
0.00343365
0.00316865
0.00397686
0.00356583
0.00314944
0.00282085
0.00256846
0.00239675
0.00228397
0.00216161
0.00227929
0.00239041
0.00247124
0.0025693
0.00350801
0.00314913
0.00284849
0.00261967
0.00242049
0.00230514
0.00225145
0.0022426
0.00231702
0.00229747
0.00219756
0.00207457
0.00314629
0.00286898
0.00266906
0.00249652
0.00235379
0.00230683
0.00229444
0.00229288
0.00225725
0.00208706
0.00177709
0.00135398
0.0029102
0.00271811
0.00257594
0.00245452
0.00236771
0.00235475
0.00233308
0.00227935
0.0021378
0.0018483
0.00126846
0.000638618
0.00279488
0.00320566
0.00355046
0.00407325
0.00446914
0.00465314
0.00470848
0.00467683
0.00458988
0.00450527
0.00448959
0.00431961
0.00227793
0.00302453
0.00373965
0.00432654
0.00468298
0.00479898
0.00476439
0.00464608
0.00443127
0.00424619
0.00408115
0.00384396
0.00121757
0.00283767
0.00377448
0.00435079
0.00470541
0.00479925
0.00470794
0.00453421
0.00424277
0.00396515
0.00371888
0.00345748
0.000557992
0.00265216
0.00369607
0.00428092
0.00463974
0.00472506
0.00460122
0.00439196
0.00405955
0.00373293
0.00344742
0.00318197
0.00398547
0.00357523
0.00315847
0.00282952
0.0025777
0.00240655
0.00229595
0.00217278
0.00228996
0.00239964
0.00247894
0.00257418
0.00351899
0.00315991
0.00285776
0.0026297
0.00243159
0.00231646
0.00226396
0.00225305
0.00232681
0.0023057
0.0022041
0.00207865
0.00315891
0.00287969
0.0026793
0.00250815
0.00236553
0.00231854
0.00230616
0.00230254
0.00226628
0.00209468
0.00178333
0.00135825
0.00292313
0.00272913
0.002587
0.00246679
0.00237923
0.00236599
0.00234369
0.00228824
0.00214589
0.001855
0.00127455
0.000642866
0.00279835
0.00320964
0.0035556
0.00407939
0.00447429
0.00465579
0.00470895
0.00467771
0.00459072
0.00450548
0.00448993
0.00431812
0.00228132
0.00302865
0.00374519
0.00433255
0.00468744
0.00480002
0.00476194
0.00464335
0.00443001
0.00424454
0.00407875
0.00383947
0.00122071
0.00284155
0.0037798
0.00435612
0.00470935
0.00479963
0.00470729
0.00453241
0.00424001
0.0039614
0.00371375
0.00344831
0.000559247
0.00265598
0.00370125
0.0042859
0.00464318
0.00472484
0.00460039
0.00438991
0.00405568
0.00372785
0.00344128
0.00317465
0.00398154
0.00357001
0.0031532
0.0028245
0.00257248
0.00240109
0.00228845
0.00216304
0.00227899
0.00238929
0.00247054
0.0025698
0.00351355
0.00315408
0.0028526
0.00262385
0.00242484
0.00230897
0.00225415
0.00224229
0.00231622
0.00229705
0.00219848
0.00207757
0.00315111
0.00287395
0.0026734
0.00250073
0.00235745
0.00230928
0.00229537
0.00229186
0.00225652
0.00208708
0.00177865
0.00135758
0.00291556
0.00272288
0.00258005
0.00245795
0.00237011
0.00235579
0.00233292
0.0022782
0.0021371
0.00184802
0.00126933
0.000641441
0.00279682
0.00320714
0.0035523
0.00407385
0.00447027
0.00465465
0.00470325
0.00467101
0.00458471
0.00450106
0.00448747
0.00432432
0.00228238
0.003027
0.00374196
0.00432819
0.00468439
0.00479676
0.00475717
0.00463739
0.00442559
0.00424196
0.00408083
0.00384972
0.00122206
0.00284041
0.00377741
0.00435329
0.00470619
0.00479556
0.0047023
0.00452665
0.00423663
0.00396225
0.00372119
0.00346382
0.000559149
0.00265435
0.00369927
0.00428375
0.00464048
0.00472076
0.00459541
0.00438412
0.0040526
0.00372973
0.00344934
0.00318564
0.0028055
0.0026676
0.00256777
0.00248728
0.00242756
0.00240526
0.00234304
0.00222457
0.00200915
0.00166775
0.000999668
0.000197
0.00277504
0.00268025
0.00260673
0.00253286
0.00248003
0.0024252
0.00231635
0.00214537
0.00189176
0.00155087
0.000944183
0.000152169
0.00280828
0.00273803
0.00266069
0.00258768
0.00251988
0.00242606
0.00227671
0.00207253
0.00181121
0.0015046
0.000971017
0.000144503
0.00287385
0.00280216
0.00271762
0.0026378
0.00254516
0.00241629
0.00223821
0.00201838
0.00176519
0.00148399
0.00100559
0.000143303
0.00293397
0.0028521
0.00276646
0.00267279
0.00255485
0.00239859
0.00220186
0.00197547
0.00172745
0.00144498
0.00100462
0.000142357
0.00296455
0.00287751
0.00278923
0.00268084
0.00254131
0.00236423
0.00215359
0.00191945
0.00166404
0.00136669
0.000954573
0.000139676
0.00293739
0.00285521
0.00276455
0.00264407
0.00248749
0.00229369
0.00206939
0.00182286
0.00155281
0.0012424
0.000862805
0.000135772
0.00282276
0.00275279
0.00266244
0.0025342
0.00236571
0.00215888
0.0019223
0.00166478
0.00138602
0.00107591
0.000736914
0.000130026
0.00257124
0.00251994
0.00243506
0.00230556
0.0021334
0.00192185
0.00168284
0.0014277
0.0011579
0.000870308
0.000584656
0.00012216
0.0020973
0.0020706
0.00200033
0.00188135
0.00172295
0.00152755
0.00131287
0.00108812
0.000858351
0.000620481
0.000395323
0.000112712
0.00125544
0.00125144
0.00121117
0.00112992
0.00102848
0.00089683
0.000759254
0.000612127
0.00046691
0.000321387
0.000177355
0.000104771
0.000146487
0.000143749
0.000138603
0.000132611
0.000125151
0.00011563
0.000103595
9.05308e-05
7.75998e-05
6.20038e-05
4.66919e-05
0.000129981
0.000289514
0.00247254
0.00358222
0.0041596
0.00451489
0.00460292
0.00446401
0.00423528
0.003889
0.00354666
0.00325363
0.00300738
0.00028973
0.00238817
0.00344063
0.00399555
0.00434575
0.00445235
0.00431877
0.00408666
0.00376013
0.00343037
0.00315363
0.00293618
0.000286855
0.00230668
0.00326955
0.00379682
0.00413885
0.00426896
0.00416503
0.00394591
0.00365576
0.0033572
0.00311067
0.0029242
0.000282892
0.00220122
0.00306554
0.00356577
0.0038987
0.00405424
0.00399695
0.00381184
0.00356477
0.00330969
0.0031014
0.00295037
0.00027679
0.00206591
0.00282654
0.00330204
0.0036278
0.00380266
0.00379312
0.0036606
0.00346697
0.0032677
0.00309551
0.00298689
0.000268218
0.00189594
0.00255036
0.00300231
0.00332376
0.00350975
0.00354495
0.00346776
0.00333672
0.00319753
0.00306948
0.00300103
0.000256606
0.00168627
0.0022345
0.00266009
0.0029754
0.00317121
0.00324604
0.00322565
0.00315537
0.0030729
0.00299458
0.00296077
0.000241502
0.00143267
0.00187651
0.00226631
0.00256831
0.00276973
0.00287648
0.0029066
0.00289467
0.00286482
0.00283253
0.00283175
0.000221392
0.0011301
0.0014732
0.00180908
0.00208321
0.00227763
0.00240404
0.00247412
0.00251335
0.00252792
0.00253363
0.0025633
0.000195138
0.000782275
0.0010199
0.0012645
0.00148129
0.0016499
0.00177852
0.00187348
0.00194521
0.00199167
0.00202204
0.00207214
0.000166816
0.000369396
0.000485547
0.00063383
0.000768857
0.000872119
0.000960185
0.00103534
0.00109845
0.00114537
0.00118635
0.00122854
0.000223361
5.70094e-05
7.70455e-05
9.62523e-05
0.00010912
0.000118145
0.000125123
0.000131053
0.000136155
0.00014063
0.000143818
0.000145859
0.00279422
0.00265829
0.00255824
0.00247735
0.00241937
0.00239764
0.00233655
0.00221958
0.00200443
0.00166436
0.000997309
0.000195913
0.00276522
0.00267218
0.00259896
0.00252323
0.00247239
0.00241798
0.00231029
0.00214077
0.00188841
0.00155019
0.000945574
0.00015218
0.00279967
0.00272982
0.00265157
0.00257895
0.00251221
0.00241887
0.00227078
0.00206828
0.00180905
0.00150559
0.000974612
0.000144887
0.00286604
0.00279351
0.00270838
0.00262907
0.00253707
0.00240882
0.00223213
0.00201426
0.00176372
0.00148561
0.00100989
0.000143706
0.00292644
0.00284317
0.00275705
0.00266364
0.00254616
0.00239066
0.00219546
0.0019713
0.00172626
0.0014469
0.00100927
0.00014269
0.00295711
0.00286863
0.00277963
0.00267123
0.00253207
0.00235588
0.0021469
0.00191521
0.00166299
0.00136905
0.000959153
0.000139888
0.00293031
0.00284657
0.00275498
0.00263425
0.00247799
0.00228517
0.00206263
0.00181865
0.00155181
0.00124479
0.000867903
0.000135925
0.00281633
0.00274467
0.00265325
0.00252461
0.00235638
0.00215057
0.00191576
0.00166071
0.00138492
0.00107774
0.00074143
0.000130386
0.00256571
0.00251269
0.0024267
0.00229676
0.00212481
0.00191423
0.00167687
0.0014239
0.00115663
0.000871204
0.000583862
0.000123
0.00209294
0.00206475
0.00199345
0.00187414
0.00171586
0.00152129
0.00130795
0.00108481
0.000856836
0.00062113
0.000392743
0.000112699
0.00125317
0.00124793
0.00120689
0.00112557
0.00102403
0.000892963
0.000756236
0.000609952
0.000465627
0.000322617
0.00017148
9.95508e-05
0.000146079
0.000143319
0.000138144
0.000132149
0.000124683
0.000115174
0.000103176
9.01528e-05
7.72383e-05
6.36593e-05
4.00631e-05
0.000114148
0.000289146
0.0024694
0.00357862
0.00415735
0.00451526
0.00460886
0.00447129
0.00424383
0.00390101
0.00356019
0.00326731
0.00302052
0.00028943
0.00238549
0.00343733
0.00399355
0.00434606
0.00445755
0.0043261
0.00409522
0.00377171
0.00344343
0.00316667
0.00294859
0.000286577
0.00230429
0.0032665
0.00379505
0.00413906
0.00427328
0.00417224
0.00395415
0.00366641
0.00336942
0.00312317
0.00293568
0.000282645
0.00219902
0.0030627
0.00356421
0.00389892
0.00405783
0.00400336
0.00381947
0.00357397
0.00332101
0.00311433
0.00296125
0.000276581
0.00206385
0.00282387
0.00330067
0.00362817
0.00380525
0.00379793
0.00366679
0.00347469
0.00327755
0.0031061
0.00299589
0.000268027
0.00189396
0.00254782
0.00300103
0.00332404
0.00351165
0.00354868
0.00347293
0.00334363
0.00320652
0.00307843
0.00300911
0.000256443
0.00168429
0.0022321
0.00265886
0.00297548
0.0031727
0.00324899
0.00322986
0.00316102
0.0030811
0.0030026
0.00296827
0.000241332
0.00143059
0.00187426
0.00226512
0.00256812
0.00277063
0.00287849
0.00290967
0.00289882
0.0028722
0.00283969
0.00283854
0.000221232
0.00112786
0.00147118
0.00180796
0.00208274
0.00227783
0.00240505
0.002476
0.00251627
0.00253394
0.00253969
0.00256902
0.000194946
0.00078006
0.0010182
0.00126351
0.00148068
0.00164948
0.00177863
0.00187435
0.0019472
0.00199555
0.00202665
0.00207639
0.000166459
0.000367956
0.000484476
0.000633261
0.000768304
0.000871619
0.000959996
0.00103584
0.00109937
0.00114712
0.00118859
0.0012311
0.000222285
5.6943e-05
7.709e-05
9.63179e-05
0.000109185
0.000118235
0.000125255
0.000131219
0.000136361
0.000140895
0.000144149
0.000146335
0.00280681
0.00266946
0.00256943
0.00248946
0.00243028
0.00240821
0.00234617
0.00222765
0.00201138
0.00166972
0.00100078
0.000196599
0.00277687
0.00268267
0.00260878
0.00253531
0.00248278
0.00242798
0.00231918
0.00214812
0.00189425
0.00155393
0.000947101
0.000152348
0.00281005
0.00274056
0.00266275
0.00259014
0.00252241
0.00242857
0.00227929
0.00207522
0.00181416
0.00150833
0.000974714
0.000144835
0.00287578
0.00280456
0.00271966
0.00264001
0.00254737
0.00241853
0.00224063
0.00202113
0.00176849
0.00148779
0.00100921
0.000143618
0.00293596
0.00285432
0.00276833
0.00267466
0.00255672
0.00240057
0.00220413
0.00197821
0.00173075
0.00144847
0.00100794
0.000142613
0.00296661
0.00287949
0.00279087
0.00268237
0.00254285
0.00236594
0.00215565
0.00192198
0.001667
0.00136976
0.00095747
0.00013985
0.00293959
0.00285702
0.002766
0.00264533
0.00248875
0.0022951
0.00207114
0.00182497
0.00155522
0.00124489
0.000865946
0.000135906
0.00282503
0.00275445
0.00266372
0.00253522
0.00236669
0.00215995
0.00192362
0.00166634
0.00138778
0.00107761
0.000739498
0.000130416
0.00257333
0.00252137
0.00243611
0.00230631
0.00213404
0.00192248
0.00168365
0.0014286
0.00115906
0.000871123
0.000582279
0.00012306
0.00209876
0.00207163
0.00200099
0.00188174
0.00172316
0.00152774
0.00131312
0.00108843
0.00085876
0.000621364
0.000391788
0.000112815
0.00125642
0.00125191
0.00121131
0.00113001
0.00102838
0.000896719
0.000759151
0.00061205
0.000466731
0.000322917
0.000171108
9.9717e-05
0.00014656
0.000143768
0.000138612
0.00013263
0.000125155
0.000115625
0.000103581
9.04899e-05
7.75056e-05
6.38486e-05
4.01384e-05
0.000114592
0.000289518
0.00247271
0.00358359
0.00416196
0.0045183
0.00460819
0.00446973
0.00424148
0.00389645