/*--------------------------------*- C++ -*----------------------------------*\
  =========                 |
  \\      /  F ield         | OpenFOAM: The Open Source CFD Toolbox
   \\    /   O peration     | Website:  https://openfoam.org
    \\  /    A nd           | Version:  6
     \\/     M anipulation  |
\*---------------------------------------------------------------------------*/
FoamFile
{
    version     2.0;
    format      ascii;
    class       volScalarField;
    location    "100";
    object      p;
}
// * * * * * * * * * * * * * * * * * * * * * * * * * * * * * * * * * * * * * //

dimensions      [0 2 -2 0 0 0 0];

internalField   nonuniform List<scalar> 
3072
(
0.00713994
-0.376189
-0.606526
-0.711176
-0.644378
-0.415969
-0.603484
-1.67587
-2.97639
-4.37813
-5.52496
-6.32649
0.73106
0.416376
0.308133
0.275479
0.609416
1.66678
2.26508
2.38004
2.19606
1.86613
1.53028
1.22019
2.03695
1.80605
2.01151
2.31041
2.59329
2.97333
3.15475
3.10437
2.94144
2.7026
2.44161
2.22064
3.52158
3.52059
3.86946
4.22708
4.51938
4.70557
4.75898
4.78492
4.73392
4.6316
4.50265
4.38368
4.61722
4.89339
5.33442
5.74217
6.05434
6.25505
6.34645
6.36884
6.31226
6.20294
6.06333
5.92164
5.58393
6.14493
6.66172
7.13924
7.47215
7.67488
7.7616
7.76069
7.68528
7.55942
7.40476
7.24337
6.61981
7.39906
7.96519
8.48519
8.82459
9.01065
9.0692
9.03374
8.92697
8.77124
8.58799
8.39686
7.74717
8.71581
9.3224
9.82165
10.1247
10.265
10.2767
10.1969
10.0523
9.8652
9.65565
9.44093
8.99233
10.0552
10.6775
11.1139
11.3463
11.4176
11.371
11.2456
11.0684
10.8588
10.6325
10.4024
10.2521
11.4316
12.017
12.3342
12.4633
12.4497
12.3436
12.1801
11.983
11.7657
11.536
11.3012
11.5061
12.8084
13.3329
13.4661
13.4581
13.3456
13.185
13.0004
12.8031
12.598
12.3831
12.1584
12.4428
14.3215
14.5866
14.4547
14.2997
14.0909
13.8906
13.7078
13.5358
13.3684
13.1895
12.9909
-6.68383
-6.57873
-5.99703
-4.95307
-3.48581
-1.66464
0.392511
2.50842
4.49222
6.23944
7.17615
6.88598
1.04529
1.02642
1.20832
1.60008
2.21173
3.01812
3.9736
4.96861
5.91336
6.96369
7.45282
6.38218
2.09925
2.11997
2.31737
2.68112
3.18568
3.81074
4.50282
5.15534
5.67696
6.20505
6.36501
4.71599
4.3064
4.29568
4.36754
4.52337
4.76377
5.07304
5.41212
5.70325
5.8503
5.86755
5.76165
3.54467
5.80444
5.72361
5.69748
5.74156
5.85012
6.00546
6.17636
6.30307
6.29213
6.0684
5.76098
3.36817
7.08845
6.95824
6.88033
6.86507
6.90347
6.98819
7.09587
7.17865
7.15985
6.96773
6.62403
4.31141
8.20979
8.05212
7.94096
7.88496
7.89171
7.96167
8.08183
8.2134
8.29797
8.24196
8.05934
6.35344
9.23188
9.05042
8.91334
8.83671
8.83774
8.93063
9.11505
9.3655
9.65053
9.88986
10.1567
9.2064
10.1771
9.9762
9.82045
9.73015
9.73459
9.86406
10.135
10.5337
11.0665
11.6844
12.5833
12.8907
11.0706
10.8558
10.6817
10.575
10.5781
10.7383
11.0883
11.6253
12.4049
13.4162
15.1644
17.0702
11.9313
11.707
11.5131
11.3827
11.3712
11.5385
11.9226
12.5396
13.4932
14.8151
17.4471
21.2469
12.7777
12.5483
12.3338
12.17
12.1235
12.2563
12.5941
13.2148
14.1618
15.5268
18.2947
23.306
0.00325015
-0.376217
-0.60451
-0.707545
-0.637943
-0.410621
-0.60596
-1.67755
-2.97332
-4.36648
-5.50508
-6.29885
0.725594
0.416265
0.310452
0.281867
0.622877
1.67732
2.26679
2.37959
2.19475
1.86753
1.53475
1.22926
2.02374
1.79691
2.00544
2.306
2.59259
2.97274
3.15311
3.10443
2.94333
2.70798
2.45039
2.23287
3.50541
3.50782
3.85943
4.21854
4.51236
4.69977
4.75537
4.78342
4.73459
4.63517
4.50919
4.39324
4.60098
4.87983
5.32257
5.73153
6.04503
6.24741
6.34077
6.36536
6.31129
6.20495
6.06817
5.92954
5.56865
6.13181
6.64937
7.12766
7.46156
7.66578
7.75443
7.75585
7.68332
7.56031
7.40883
7.25034
6.6058
7.38653
7.95321
8.47347
8.81338
9.00072
9.06112
9.02812
8.92412
8.7716
8.59138
8.40386
7.73353
8.70424
9.31102
9.81012
10.1134
10.2547
10.2683
10.1907
10.0489
9.8649
9.65856
9.44723
8.98021
10.0449
10.667
11.103
11.3354
11.4075
11.3625
11.2393
11.0648
10.8581
10.6348
10.4078
10.2413
11.4225
12.0071
12.3241
12.4531
12.4404
12.3356
12.1742
11.9795
11.7647
11.5376
11.3055
11.4969
12.7993
13.3239
13.4568
13.449
13.3374
13.1782
12.9953
12.8
12.597
12.3842
12.1617
12.4354
14.3132
14.5784
14.4468
14.2921
14.0841
13.8853
13.7041
13.5336
13.3677
13.1903
12.9932
-6.65098
-6.54281
-5.96132
-4.92039
-3.45918
-1.64608
0.401732
2.50823
4.48362
6.22355
7.15496
6.86499
1.058
1.04197
1.22476
1.61573
2.22437
3.02652
3.97639
4.96561
5.90504
6.95094
7.43618
6.36668
2.11435
2.13713
2.33507
2.69783
3.20004
3.82149
4.50912
5.15694
5.67444
6.19915
6.35697
4.70937
4.31858
4.30971
4.38268
4.53857
4.7777
5.08461
5.42051
5.70814
5.85204
5.86694
5.75997
3.54451
5.81472
5.7371
5.71263
5.75741
5.86487
6.01866
6.18676
6.31079
6.29694
6.07131
5.76258
3.37105
7.09929
6.9717
6.8957
6.88032
6.91861
7.00144
7.10725
7.18692
7.16568
6.97073
6.62557
4.31319
8.2201
8.06475
7.95508
7.89999
7.90618
7.97496
8.0926
8.22162
8.3029
8.24411
8.0585
6.3508
9.24132
9.06203
8.92667
8.8507
8.85155
8.94288
9.12497
9.37222
9.65363
9.88942
10.1517
9.19739
10.1854
9.98665
9.83243
9.74297
9.74717
9.87515
10.1435
10.5388
11.0675
11.6805
12.5739
12.8745
11.0775
10.8647
10.6921
10.5863
10.5892
10.748
11.0953
11.6288
12.4038
13.4109
15.1507
17.0476
11.9366
11.714
11.5216
11.3921
11.3808
11.5466
11.9283
12.5422
13.4915
14.8081
17.4318
21.2212
12.7815
12.5535
12.3402
12.1775
12.1312
12.2627
12.5989
13.2173
14.1601
15.5216
18.2818
23.2871
0.00688802
-0.373235
-0.602034
-0.705233
-0.635525
-0.408156
-0.605529
-1.68216
-2.98404
-4.38353
-5.52742
-6.32517
0.728741
0.418677
0.31264
0.283849
0.625362
1.68122
2.2706
2.38194
2.19462
1.86436
1.52841
1.22014
2.02816
1.80054
2.0091
2.30978
2.59627
2.97621
3.15542
3.10466
2.94106
2.70292
2.44264
2.22284
3.51147
3.51344
3.86538
4.22459
4.51791
4.70409
4.75799
4.78415
4.73311
4.63139
4.50321
4.38534
4.60822
4.88679
5.32993
5.73881
6.0516
6.25265
6.34435
6.36692
6.31062
6.20187
6.06298
5.92234
5.57615
6.13988
6.65783
7.13604
7.46908
7.67194
7.75874
7.75806
7.68302
7.55771
7.40378
7.24346
6.61334
7.39652
7.96233
8.48242
8.82161
9.00754
9.06603
9.0307
8.92421
8.76899
8.58645
8.3963
7.74524
8.71026
9.31998
9.81941
10.1221
10.262
10.2735
10.1936
10.0492
9.86246
9.65356
9.43962
8.98687
10.0567
10.6773
11.1127
11.3442
11.4148
11.3678
11.2422
11.0651
10.8557
10.6299
10.4003
10.2522
11.4309
12.0168
12.3335
12.4616
12.4473
12.3406
12.1769
11.9798
11.7624
11.533
11.2984
11.5065
12.8085
13.3332
13.4655
13.4566
13.3433
13.1823
12.9975
12.8001
12.5949
12.3798
12.155
12.4442
14.3222
14.5875
14.4545
14.2982
14.0886
13.8883
13.7054
13.5335
13.3658
13.1863
12.9872
-6.67935
-6.57117
-5.98747
-4.9422
-3.47494
-1.65467
0.400619
2.51408
4.4953
6.23982
7.1747
6.88457
1.04696
1.03019
1.21368
1.60674
2.21869
3.02498
3.97942
4.97299
5.91621
6.96472
7.45215
6.3819
2.10274
2.12492
2.32335
2.68768
3.19243
3.81723
4.5086
5.16015
5.68078
6.20764
6.3665
4.71798
4.30922
4.29963
4.3725
4.52913
4.76989
5.07921
5.41799
5.70849
5.85485
5.87147
5.76491
3.54862
5.8063
5.72699
5.70215
5.747
5.85594
6.01145
6.18223
6.30858
6.29724
6.07321
5.76532
3.37327
7.0899
6.96114
6.88425
6.86967
6.90857
6.9936
7.10126
7.18389
7.16482
6.97255
6.62868
4.3168
8.21041
8.05374
7.94362
7.88844
7.89584
7.96618
8.0865
8.21801
8.30254
8.24646
8.06379
6.35818
9.23148
9.05094
8.91479
8.83899
8.84073
8.93412
9.1188
9.36934
9.65429
9.89361
10.1605
9.21029
10.1756
9.97552
9.82061
9.73115
9.73639
9.86652
10.1379
10.5368
11.0695
11.6872
12.5862
12.8935
11.0681
10.854
10.6806
10.5747
10.5787
10.7397
11.0903
11.6276
12.4072
13.4182
15.1662
17.0716
11.928
11.704
11.5107
11.3811
11.3706
11.5388
11.9234
12.5413
13.4951
14.8163
17.4476
21.2459
12.7738
12.5445
12.3304
12.1673
12.1217
12.2553
12.5937
13.2156
14.163
15.5273
18.2943
23.3024
-0.00109667
-0.380852
-0.610057
-0.713188
-0.64489
-0.416444
-0.603608
-1.67411
-2.97195
-4.37001
-5.51331
-6.3117
0.719646
0.408731
0.30261
0.274271
0.608757
1.66449
2.26217
2.37715
2.19424
1.86619
1.53256
1.22502
2.01667
1.78819
1.99506
2.29718
2.58246
2.96467
3.14825
3.09951
2.93855
2.70209
2.44353
2.22477
3.49935
3.50013
3.85188
4.21197
4.50629
4.69442
4.74965
4.77764
4.72896
4.62909
4.50255
4.38586
4.59827
4.87499
5.3178
5.72709
6.04068
6.24293
6.33593
6.36033
6.306
6.19918
6.06189
5.92276
5.5676
6.12829
6.64599
7.12444
7.45831
7.66225
7.75054
7.75151
7.67848
7.55493
7.40299
7.24405
6.6048
7.38379
7.9504
8.47094
8.81089
8.99795
9.05787
9.02434
8.91976
8.76671
8.58605
8.39817
7.73299
8.70122
9.3082
9.8079
10.1114
10.2524
10.2655
10.1874
10.0451
9.86055
9.65383
9.44224
8.97898
10.0415
10.6641
11.1008
11.3335
11.4055
11.36
11.2363
11.0612
10.8542
10.6306
10.4035
10.2392
11.4185
12.0039
12.3219
12.4513
12.4383
12.3332
12.1712
11.9761
11.7611
11.5339
11.3019
11.4942
12.7953
13.3207
13.4545
13.447
13.3351
13.1754
12.9922
12.7965
12.5935
12.3809
12.1587
12.4327
14.309
14.5748
14.4442
14.2897
14.0815
13.8822
13.7005
13.5298
13.364
13.1871
12.9905
-6.66707
-6.56131
-5.98073
-4.93956
-3.47657
-1.66042
0.391506
2.50275
4.48303
6.22833
7.16412
6.87378
1.05207
1.03443
1.21622
1.60673
2.21585
3.01909
3.97085
4.96231
5.90422
6.95355
7.44154
6.37072
2.10512
2.12697
2.32453
2.68742
3.19021
3.81272
4.50185
5.15132
5.67032
6.19691
6.35688
4.70735
4.31054
4.30116
4.37377
4.5295
4.76873
5.07601
5.41259
5.70115
5.84598
5.86153
5.75582
3.53847
5.80747
5.72915
5.70419
5.74873
5.85614
6.00997
6.17838
6.30291
6.28961
6.06434
5.75629
3.36292
7.09253
6.9644
6.88808
6.87249
6.91058
6.99328
7.09916
7.17912
7.1582
6.96352
6.61866
4.3041
8.21405
8.05849
7.9485
7.89315
7.89907
7.96763
8.08521
8.21435
8.2958
8.23697
8.05116
6.34277
9.23613
9.05673
8.92119
8.84501
8.84556
8.93657
9.1185
9.36579
9.64737
9.88313
10.1451
9.18994
10.1812
9.98241
9.82815
9.7385
9.74232
9.86983
10.1379
10.5333
11.0623
11.6754
12.5682
12.8686
11.0741
10.8615
10.689
10.583
10.5855
10.7436
11.0905
11.624
12.3994
13.4072
15.1467
17.0441
11.934
11.7117
11.5195
11.3899
11.378
11.543
11.9244
12.5378
13.4878
14.8061
17.4304
21.2228
12.7795
12.5519
12.3389
12.176
12.1291
12.2599
12.596
13.2135
14.1568
15.5209
18.2831
23.2948
15.1132
15.6425
15.4294
15.0824
14.8478
14.6412
14.4648
14.3168
14.1946
14.0902
13.9669
13.8096
14.6131
14.5176
14.689
14.7653
14.8534
14.8856
14.871
14.8305
14.7953
14.7826
14.7275
14.6274
13.66
13.7636
14.0855
14.3927
14.6975
14.9518
15.1346
15.2395
15.3305
15.4124
15.4489
15.4531
12.5693
12.8411
13.3503
13.9554
14.5352
15.0152
15.3916
15.6842
15.939
16.1582
16.3535
16.5634
13.6236
13.3929
13.1525
12.9394
12.8314
12.8764
13.1008
13.6235
14.3444
15.36
16.4092
18.7158
14.4795
14.2496
13.9749
13.6926
13.4908
13.3946
13.498
13.8161
14.2219
14.9126
15.1396
15.9296
15.3752
15.1433
14.8228
14.4346
14.1202
13.9191
13.8384
13.7678
13.7664
14.0697
13.9726
14.2439
16.673
16.2878
15.8414
15.3624
14.8899
14.3829
13.8728
13.4194
13.0347
12.9019
12.6042
12.7123
15.1053
15.6363
15.4244
15.0769
14.8425
14.6368
14.4614
14.3146
14.1935
14.09
13.9676
13.8112
14.607
14.513
14.6865
14.7638
14.8523
14.8849
14.8706
14.8304
14.7955
14.7831
14.7282
14.6284
13.6544
13.7603
14.0855
14.394
14.6996
14.954
15.1369
15.2414
15.3322
15.4135
15.4496
15.4536
12.565
12.8396
13.353
13.9611
14.5415
15.0206
15.3965
15.6892
15.9429
16.1608
16.355
16.564
13.6261
13.3964
13.157
12.9449
12.8372
12.8812
13.105
13.6261
14.3442
15.3574
16.4057
18.7102
14.4807
14.2514
13.9774
13.6959
13.4945
13.3975
13.5015
13.8185
14.2229
14.9135
15.1421
15.9321
15.3752
15.1434
14.8232
14.4355
14.1213
13.9199
13.8408
13.7707
13.7701
14.074
13.9788
14.2508
16.672
16.2855
15.8392
15.3608
14.8885
14.3822
13.8738
13.4226
13.0408
12.9103
12.6151
12.7233
15.1123
15.6433
15.4306
15.0825
14.8467
14.6396
14.463
14.3151
14.1931
14.0883
13.9641
13.8059
14.6143
14.5198
14.6918
14.7673
14.8541
14.8855
14.8705
14.8299
14.795
14.7817
14.7253
14.6239
13.6627
13.7669
14.0893
14.3955
14.6992
14.9529
15.1356
15.2403
15.3319
15.4129
15.4477
15.4503
12.575
12.846
13.3549
13.9589
14.5376
15.017
15.3938
15.6875
15.9425
16.1611
16.3545
16.5619
13.6196
13.3886
13.1482
12.9356
12.8284
12.874
13.0993
13.6227
14.3442
15.36
16.4084
18.7141
14.4755
14.2449
13.9698
13.6877
13.4865
13.3903
13.4956
13.8142
14.2204
14.9115
15.1385
15.929
15.3714
15.1383
14.8168
14.4285
14.1146
13.9135
13.834
13.7636
13.7635
14.0678
13.9717
14.2448
16.6693
16.2821
15.8346
15.3554
14.8823
14.3749
13.8652
13.4132
13.0308
12.9003
12.6049
12.7152
15.1024
15.6327
15.4213
15.0742
14.8397
14.6335
14.4577
14.3104
14.189
14.0858
13.9641
13.8086
14.6063
14.512
14.6849
14.7614
14.8489
14.8806
14.8657
14.8253
14.7901
14.7782
14.7243
14.6257
13.6556
13.7611
14.0852
14.3922
14.6961
14.949
15.1309
15.2354
15.3257
15.4077
15.4451
15.4507
12.5687
12.8428
13.3544
13.9596
14.5374
15.0145
15.3891
15.6808
15.9344
16.1532
16.3491
16.5603
13.6243
13.3952
13.1562
12.9439
12.8356
12.8793
13.1026
13.6235
14.3417
15.3569
16.4073
18.714
14.479
14.2504
13.977
13.6954
13.4936
13.3969
13.4994
13.8165
14.2214
14.9133
15.1436
15.9337
15.3733
15.1423
14.8231
14.4356
14.121
13.9201
13.8401
13.7708
13.7695
14.0738
13.979
14.2499
16.6703
16.2847
15.8391
15.3609
14.8897
14.3845
13.8767
13.4247
13.041
12.9094
12.6138
12.7197
12.4556
12.7475
13.2494
13.8825
14.5343
15.0873
15.4996
15.8268
16.0804
16.2686
16.4091
16.6123
13.0488
13.2837
13.6873
14.195
14.6985
15.155
15.4971
15.7412
15.9233
16.0348
16.0806
16.2315
13.5793
13.788
14.1294
14.5344
14.9447
15.2989
15.5571
15.7331
15.8501
15.9044
15.9011
16.0105
14.0609
14.2446
14.5326
14.8642
15.1843
15.4406
15.619
15.7339
15.8004
15.8119
15.7702
15.7734
16.9605
16.8281
16.4732
15.9158
15.3425
14.7805
14.2016
13.6436
13.1177
12.7703
12.4017
12.4071
16.6828
16.6254
16.3783
15.9793
15.5407
15.1001
14.6303
14.1647
13.7181
13.3838
13.0722
13.0156
16.5758
16.5801
16.3909
16.0937
15.7383
15.3621
14.9611
14.5598
14.174
13.87
13.6121
13.5452
16.5438
16.583
16.4302
16.1945
15.9014
15.5816
15.2399
14.8963
14.5668
14.3006
14.0876
14.0244
12.454
12.7483
13.2536
13.8896
14.5424
15.094
15.5053
15.8324
16.0845
16.2714
16.4107
16.6132
13.049
13.2864
13.6927
14.2021
14.7061
15.1618
15.5025
15.7457
15.9269
16.0372
16.082
16.2329
13.5822
13.7929
14.1356
14.5419
14.9524
15.3055
15.5623
15.7372
15.8532
15.9065
15.9027
16.0122
14.0661
14.2512
14.5403
14.8717
15.1913
15.4466
15.6237
15.7376
15.8031
15.8139
15.772
15.7758
16.9601
16.8263
16.4704
15.9134
15.3404
14.7793
14.2019
13.6463
13.1232
12.7787
12.4123
12.4179
16.6835
16.625
16.3768
15.9778
15.5393
15.0991
14.6304
14.1667
13.7222
13.3901
13.0805
13.024
16.5764
16.5799
16.3898
16.0925
15.737
15.361
14.9608
14.5608
14.1767
13.8745
13.618
13.5512
16.5441
16.5828
16.4294
16.1936
15.9002
15.5804
15.239
14.8964
14.5681
14.3032
14.0915
14.0282
12.4628
12.7538
13.2549
13.8869
14.5375
15.0894
15.5021
15.8306
16.0839
16.2717
16.4107
16.612
13.056
13.2907
13.6936
14.2002
14.7027
15.1585
15.5002
15.7446
15.9266
16.0374
16.082
16.2319
13.587
13.7955
14.1359
14.5402
14.9497
15.303
15.5606
15.7364
15.853
15.9068
15.9028
16.0114
14.0689
14.2523
14.5396
14.87
15.189
15.4445
15.6224
15.7369
15.8031
15.8143
15.7722
15.7754
16.9581
16.8233
16.4667
15.9082
15.3346
14.7725
14.1935
13.6368
13.1129
12.768
12.402
12.4097
16.6814
16.6211
16.373
15.9732
15.5341
15.0932
14.6234
14.1587
13.7135
13.3812
13.0716
13.0168
16.5748
16.5765
16.3863
16.0884
15.7324
15.3559
14.9549
14.5541
14.1694
13.8669
13.6107
13.545
16.5428
16.5802
16.4265
16.1898
15.8961
15.5758
15.234
14.8907
14.5619
14.2969
14.0851
14.0228
12.4576
12.7515
13.2551
13.8882
14.5381
15.0877
15.4977
15.8239
16.0765
16.2638
16.4043
16.6087
13.051
13.2881
13.6929
14.2001
14.7019
15.156
15.4956
15.7381
15.9195
16.0301
16.0758
16.228
13.5826
13.7929
14.1344
14.539
14.9478
15.2998
15.5557
15.7302
15.8462
15.8997
15.8962
16.0067
14.0648
14.2496
14.5378
14.868
15.1864
15.4409
15.6175
15.731
15.7964
15.8071
15.7652
15.769
16.9576
16.8246
16.47
15.914
15.3416
14.7811
14.2046
13.6483
13.1235
12.7772
12.4098
12.4129
16.6804
16.6226
16.3755
15.9772
15.5391
15.0995
14.6312
14.1667
13.7209
13.3871
13.0765
13.0184
16.5732
16.5775
16.3881
16.0913
15.7362
15.3606
14.9605
14.5599
14.1744
13.8704
13.6126
13.5444
16.541
16.5806
16.4275
16.192
15.899
15.5794
15.2381
14.8948
14.5651
14.2985
14.0854
14.0206
14.5174
14.6812
14.904
15.1512
15.3719
15.5383
15.6509
15.7196
15.7513
15.734
15.6747
15.6085
14.9213
15.0499
15.2119
15.3751
15.507
15.6023
15.6631
15.6976
15.7093
15.6885
15.6428
15.613
15.246
15.3435
15.4465
15.5373
15.6011
15.6403
15.6618
15.6725
15.6733
15.6574
15.6283
15.6172
15.4987
15.5635
15.6172
15.6514
15.6623
15.659
15.6526
15.6477
15.6444
15.6367
15.6245
15.6258
15.6876
15.7238
15.7381
15.7289
15.7003
15.6667
15.6411
15.627
15.6235
15.6246
15.6267
15.637
15.8256
15.8382
15.8224
15.7816
15.7249
15.67
15.6319
15.6128
15.6109
15.6198
15.633
15.6493
15.9263
15.9205
15.883
15.8198
15.7434
15.6738
15.6276
15.6054
15.6053
15.6202
15.6415
15.6613
16.0027
15.9831
15.9301
15.8511
15.7607
15.6808
15.6289
15.6041
15.6048
15.6241
15.651
15.672
16.0656
16.0359
15.9718
15.8812
15.7803
15.6922
15.6355
15.6072
15.6075
15.6293
15.6597
15.6806
16.1295
16.0937
16.0204
15.9192
15.8072
15.7098
15.6468
15.6127
15.6102
15.6332
15.6657
15.6869
16.2121
16.1745
16.0922
15.9763
15.8482
15.7359
15.6621
15.6183
15.6115
15.6347
15.6698
15.6907
16.2837
16.2427
16.1535
16.0303
15.892
15.7687
15.6783
15.6291
15.6175
15.6364
15.6687
15.6911
16.7346
16.6467
16.481
16.2866
16.0393
15.7657
15.4747
15.1836
14.9086
14.6872
14.52
14.4735
16.829
16.699
16.5402
16.372
16.1582
15.9205
15.6708
15.4247
15.1985
15.0214
14.8987
14.8749
16.9028
16.7459
16.6035
16.4507
16.2608
16.0502
15.833
15.6234
15.4379
15.2989
15.2122
15.2027
16.9433
16.7873
16.6631
16.5211
16.3489
16.1584
15.966
15.7853
15.6315
15.5225
15.462
15.4622
16.9666
16.8215
16.717
16.5825
16.4235
16.2479
16.074
15.9153
15.7853
15.6981
15.6559
15.6613
16.9721
16.8467
16.7633
16.6347
16.4856
16.321
16.161
16.019
15.9063
15.8342
15.8036
15.8101
16.9653
16.8645
16.8015
16.6777
16.5358
16.3798
16.2305
16.1013
16.0016
15.9395
15.916
15.9211
16.9502
16.8745
16.8309
16.7114
16.5745
16.4255
16.2851
16.1666
16.0772
16.0222
16.0031
16.0054
16.931
16.8787
16.8503
16.7341
16.6002
16.4579
16.3262
16.218
16.1379
16.0888
16.0735
16.0738
16.9141
16.878
16.8542
16.7413
16.6096
16.4749
16.3535
16.2579
16.1884
16.1463
16.1373
16.1394
16.9046
16.873
16.84
16.7321
16.6032
16.4773
16.3688
16.2891
16.233
16.2036
16.2065
16.2174
16.9039
16.8657
16.8244
16.724
16.5996
16.4816
16.3831
16.3107
16.2696
16.2571
16.2683
16.2863
14.5244
14.6886
14.9119
15.1584
15.3783
15.5436
15.6552
15.723
15.7538
15.7361
15.6767
15.6113
14.9286
15.0572
15.2193
15.3817
15.5128
15.6071
15.6672
15.7009
15.7118
15.6908
15.6451
15.6159
15.2534
15.3503
15.4527
15.543
15.6063
15.6448
15.6658
15.6759
15.6762
15.6601
15.6309
15.6202
15.5055
15.5695
15.6226
15.6564
15.6669
15.6634
15.6567
15.6514
15.6476
15.6397
15.6275
15.629
15.6938
15.729
15.7427
15.7332
15.7046
15.671
15.6452
15.631
15.6271
15.6281
15.63
15.6403
15.831
15.8425
15.8262
15.7854
15.7289
15.6742
15.6362
15.617
15.6149
15.6235
15.6364
15.6527
15.931
15.9241
15.8863
15.8231
15.7471
15.678
15.632
15.6098
15.6095
15.6242
15.645
15.6647
16.0066
15.9861
15.9328
15.854
15.7642
15.6849
15.6333
15.6086
15.6093
15.6282
15.6546
15.6753
16.0688
16.0384
15.9739
15.8837
15.7835
15.6961
15.6399
15.6118
15.612
15.6336
15.6634
15.6839
16.1322
16.0956
16.022
15.9212
15.81
15.7134
15.651
15.6172
15.6147
15.6375
15.6694
15.6901
16.2141
16.1756
16.093
15.9776
15.8506
15.7392
15.6661
15.6228
15.6159
15.6389
15.6732
15.694
16.2851
16.2432
16.1538
16.0311
15.8938
15.7717
15.6821
15.6334
15.6218
15.6407
15.6721
15.6942
16.7345
16.6466
16.4805
16.2858
16.0382
15.7644
15.4734
15.183
14.9087
14.6883
14.5217
14.4753
16.8291
16.6991
16.54
16.3714
16.1571
15.9191
15.6694
15.4235
15.1978
15.0212
14.899
14.8753
16.9032
16.7462
16.6035
16.4503
16.2599
16.0489
15.8314
15.622
15.4366
15.2979
15.2116
15.2023
16.9441
16.788
16.6634
16.5208
16.3481
16.1572
15.9645
15.7837
15.6299
15.5211
15.4611
15.4615
16.9677
16.8225
16.7175
16.5824
16.4229
16.2468
16.0725
15.9137
15.7836
15.6966
15.6547
15.6605
16.9735
16.8479
16.7641
16.6349
16.4852
16.3201
16.1597
16.0175
15.9048
15.8328
15.8026
15.8096
16.9669
16.8659
16.8024
16.678
16.5356
16.3791
16.2293
16.0999
16.0001
15.9383
15.9152
15.9208
16.952
16.8762
16.832
16.7119
16.5744
16.4249
16.2841
16.1655
16.076
16.0213
16.0026
16.0055
16.9329
16.8806
16.8516
16.7347
16.6002
16.4575
16.3253
16.2172
16.137
16.0882
16.0733
16.0743
16.916
16.8799
16.8556
16.742
16.6098
16.4747
16.3528
16.2572
16.1878
16.146
16.1375
16.1403
16.9065
16.875
16.8416
16.7329
16.6034
16.4772
16.3683
16.2886
16.2326
16.2037
16.2071
16.2188
16.9057
16.8677
16.8261
16.7249
16.6
16.4816
16.3829
16.3104
16.2695
16.2575
16.2693
16.2882
14.5255
14.6887
14.9108
15.1566
15.3763
15.5418
15.654
15.7225
15.7539
15.7365
15.6771
15.6111
14.9287
15.0567
15.2181
15.3801
15.511
15.6056
15.666
15.7003
15.7118
15.6912
15.6453
15.6157
15.2529
15.3497
15.4518
15.5417
15.6048
15.6433
15.6646
15.6752
15.676
15.6602
15.631
15.62
15.505
15.5691
15.622
15.6554
15.6656
15.662
15.6553
15.6505
15.6471
15.6396
15.6273
15.6286
15.6934
15.7289
15.7424
15.7326
15.7034
15.6696
15.6438
15.6298
15.6264
15.6276
15.6296
15.6398
15.831
15.8429
15.8264
15.785
15.7279
15.6729
15.6347
15.6157
15.6139
15.6229
15.6358
15.6521
15.9313
15.9248
15.8867
15.8231
15.7463
15.6768
15.6304
15.6085
15.6084
15.6234
15.6444
15.6641
16.0073
15.9872
15.9337
15.8543
15.7636
15.6838
15.6318
15.6072
15.608
15.6274
15.6539
15.6746
16.0698
16.04
15.9751
15.8845
15.7831
15.6953
15.6382
15.6106
15.6106
15.6328
15.6627
15.6832
16.1337
16.0975
16.0237
15.9223
15.81
15.7127
15.6497
15.6159
15.6134
15.6366
15.6686
15.6895
16.2163
16.1782
16.0955
15.9793
15.851
15.7388
15.6649
15.6215
15.6146
15.6381
15.6725
15.6934
16.2878
16.2464
16.1568
16.0333
15.8947
15.7716
15.6811
15.6322
15.6205
15.6398
15.6715
15.6936
16.7329
16.6441
16.4776
16.2823
16.0344
15.7603
15.469
15.178
14.9034
14.6828
14.5164
14.4705
16.8271
16.6965
16.537
16.3681
16.1535
15.9154
15.6653
15.4191
15.1931
15.0164
14.8941
14.8708
16.901
16.7435
16.6005
16.447
16.2564
16.0452
15.8276
15.6179
15.4323
15.2934
15.207
15.1978
16.9415
16.7851
16.6603
16.5176
16.3447
16.1537
15.9608
15.7798
15.6258
15.5169
15.4565
15.4569
16.9648
16.8194
16.7143
16.5792
16.4196
16.2433
16.0689
15.9099
15.7796
15.6923
15.6501
15.6557
16.9703
16.8446
16.7608
16.6315
16.4818
16.3166
16.1561
16.0137
15.9008
15.8285
15.7978
15.8045
16.9635
16.8625
16.799
16.6747
16.5322
16.3756
16.2256
16.0961
15.9961
15.9339
15.9103
15.9154
16.9485
16.8725
16.8285
16.7085
16.5709
16.4214
16.2804
16.1616
16.0718
16.0167
15.9975
15.9998
16.9293
16.8768
16.848
16.7313
16.5966
16.454
16.3215
16.2132
16.1327
16.0835
16.068
16.0683
16.9122
16.8761
16.8519
16.7385
16.6062
16.471
16.349
16.2532
16.1833
16.1411
16.132
16.134
16.9028
16.871
16.8378
16.7293
16.5998
16.4735
16.3644
16.2845
16.228
16.1985
16.2012
16.212
16.902
16.8637
16.8222
16.7212
16.5963
16.4778
16.3789
16.3062
16.2648
16.2521
16.2631
16.281
14.5217
14.6857
14.9083
15.154
15.3733
15.5381
15.6493
15.7168
15.7473
15.7292
15.6696
15.6039
14.9247
15.0532
15.2149
15.377
15.5078
15.6019
15.6615
15.6949
15.7054
15.684
15.6379
15.6085
15.2487
15.3456
15.448
15.5383
15.6014
15.6397
15.6603
15.67
15.6699
15.6532
15.6237
15.6129
15.5004
15.5645
15.6177
15.6516
15.6621
15.6584
15.6513
15.6456
15.6413
15.6329
15.6204
15.6218
15.6884
15.7238
15.7378
15.7284
15.6998
15.666
15.6399
15.6251
15.6208
15.6212
15.6229
15.6332
15.8255
15.8373
15.8213
15.7806
15.7241
15.6693
15.6308
15.6111
15.6085
15.6167
15.6294
15.6457
15.9255
15.9189
15.8813
15.8183
15.7423
15.6729
15.6266
15.6039
15.6031
15.6173
15.6381
15.6578
16.0011
15.9809
15.9279
15.8492
15.7594
15.6798
15.6279
15.6027
15.6029
15.6214
15.6477
15.6684
16.0634
16.0333
15.969
15.8789
15.7788
15.691
15.6344
15.6058
15.6057
15.6268
15.6566
15.6771
16.1268
16.0905
16.0171
15.9164
15.8052
15.7084
15.6456
15.6112
15.6083
15.6307
15.6625
15.6834
16.2089
16.1705
16.0882
15.9729
15.8458
15.7342
15.6607
15.6168
15.6096
15.6322
15.6664
15.6872
16.2799
16.2381
16.149
16.0264
15.8891
15.7666
15.6767
15.6275
15.6155
15.634
15.6653
15.6875
16.7322
16.6445
16.4784
16.284
16.0366
15.7631
15.4721
15.1809
14.9054
14.6833
14.5154
14.4674
16.827
16.697
16.5378
16.3694
16.1553
15.9176
15.6677
15.4212
15.1943
15.0162
14.8927
14.8676
16.9011
16.744
16.6012
16.4481
16.2579
16.0471
15.8296
15.6196
15.4331
15.2932
15.2058
15.1953
16.9419
16.7857
16.6611
16.5187
16.3461
16.1554
15.9625
15.7813
15.6266
15.5167
15.4559
15.455
16.9654
16.8201
16.7151
16.5802
16.4208
16.2448
16.0705
15.9113
15.7804
15.6926
15.6501
15.6546
16.971
16.8454
16.7617
16.6326
16.4831
16.3181
16.1576
16.015
15.9018
15.8292
15.7985
15.8041
16.9643
16.8633
16.8
16.6758
16.5334
16.3769
16.2271
16.0975
15.9973
15.935
15.9115
15.9158
16.9493
16.8735
16.8296
16.7096
16.5722
16.4227
16.2819
16.163
16.0733
16.0181
15.9991
16.0008
16.9302
16.8778
16.8491
16.7324
16.598
16.4553
16.323
16.2146
16.1344
16.0851
16.0699
16.0698
16.9132
16.8771
16.8531
16.7397
16.6075
16.4724
16.3505
16.2546
16.1851
16.1429
16.1341
16.1358
16.9038
16.8721
16.8389
16.7305
16.6011
16.4748
16.3658
16.2859
16.2299
16.2005
16.2034
16.2142
16.903
16.8648
16.8234
16.7225
16.5975
16.4792
16.3804
16.3078
16.2665
16.2542
16.2655
16.2836
)
;

boundaryField
{
    rotor
    {
        type            zeroGradient;
    }
    stator
    {
        type            zeroGradient;
    }
    front
    {
        type            empty;
    }
    back
    {
        type            empty;
    }
}


// ************************************************************************* //
