/*--------------------------------*- C++ -*----------------------------------*\
  =========                 |
  \\      /  F ield         | OpenFOAM: The Open Source CFD Toolbox
   \\    /   O peration     | Website:  https://openfoam.org
    \\  /    A nd           | Version:  6
     \\/     M anipulation  |
\*---------------------------------------------------------------------------*/
FoamFile
{
    version     2.0;
    format      ascii;
    class       surfaceScalarField;
    location    "100";
    object      phi;
}
// * * * * * * * * * * * * * * * * * * * * * * * * * * * * * * * * * * * * * //

dimensions      [0 3 -1 0 0 0 0];

internalField   nonuniform List<scalar> 
5952
(
7.6265e-06
-7.82333e-06
1.24582e-05
-4.83722e-06
1.23032e-05
1.56871e-07
6.79588e-06
5.50431e-06
-7.25514e-06
1.40525e-05
-3.04275e-05
2.31707e-05
-5.26967e-05
2.22707e-05
-7.13451e-05
1.86471e-05
-8.69094e-05
1.55655e-05
-9.95151e-05
1.26047e-05
-0.000109486
9.97249e-06
7.22898e-06
-0.000116716
4.43152e-07
-8.27273e-06
-6.39033e-06
1.99222e-06
-2.04331e-05
1.41985e-05
-3.87799e-05
2.38503e-05
-5.45446e-05
2.98174e-05
-6.33892e-05
3.20147e-05
-7.04546e-05
2.93364e-05
-7.76908e-05
2.58826e-05
-8.44758e-05
2.23508e-05
-9.05053e-05
1.86336e-05
-9.52948e-05
1.47624e-05
1.08675e-05
-9.89339e-05
-8.52436e-06
2.46899e-07
-2.0967e-05
1.44325e-05
-3.30857e-05
2.63167e-05
-4.35051e-05
3.42691e-05
-5.13282e-05
3.76405e-05
-5.67246e-05
3.74107e-05
-6.16434e-05
3.42554e-05
-6.6432e-05
3.06707e-05
-7.08218e-05
2.67408e-05
-7.47191e-05
2.25304e-05
-7.80471e-05
1.80908e-05
1.35278e-05
-8.07078e-05
-1.10336e-05
1.12768e-05
-2.11714e-05
2.45686e-05
-2.98152e-05
3.49598e-05
-3.64856e-05
4.09392e-05
-4.14115e-05
4.25665e-05
-4.51363e-05
4.11355e-05
-4.88033e-05
3.79227e-05
-5.23833e-05
3.42508e-05
-5.57622e-05
3.01201e-05
-5.88393e-05
2.56075e-05
-6.15145e-05
2.07664e-05
1.56534e-05
-6.36401e-05
-9.2763e-06
2.05487e-05
-1.6729e-05
3.20189e-05
-2.23091e-05
4.05389e-05
-2.6463e-05
4.50922e-05
-2.96048e-05
4.57082e-05
-3.23434e-05
4.38739e-05
-3.51562e-05
4.07359e-05
-3.79428e-05
3.70376e-05
-4.06372e-05
3.2815e-05
-4.31415e-05
2.8112e-05
-4.53381e-05
2.29635e-05
1.74108e-05
-4.70954e-05
-6.2368e-06
2.67802e-05
-1.09482e-05
3.67266e-05
-1.3958e-05
4.35458e-05
-1.60539e-05
4.71858e-05
-1.77558e-05
4.74081e-05
-1.95068e-05
4.56237e-05
-2.14917e-05
4.27198e-05
-2.36031e-05
3.91486e-05
-2.57387e-05
3.49503e-05
-2.77746e-05
3.01479e-05
-2.9581e-05
2.47696e-05
1.88424e-05
-3.10124e-05
-3.26337e-06
3.00337e-05
-5.18635e-06
3.86432e-05
-5.96539e-06
4.43209e-05
-5.99624e-06
4.72123e-05
-6.18504e-06
4.75937e-05
-6.85005e-06
4.62859e-05
-7.99615e-06
4.38644e-05
-9.45605e-06
4.0607e-05
-1.10619e-05
3.65556e-05
-1.26477e-05
3.17327e-05
-1.40566e-05
2.61785e-05
1.99388e-05
-1.51537e-05
-8.99179e-08
3.01177e-05
1.53836e-07
3.83954e-05
1.79857e-06
4.26717e-05
3.70314e-06
4.53041e-05
5.01034e-06
4.62832e-05
5.46735e-06
4.58266e-05
5.16607e-06
4.41638e-05
4.3465e-06
4.14255e-05
3.2495e-06
3.76518e-05
2.09248e-06
3.28894e-05
1.05615e-06
2.72146e-05
2.07151e-05
2.79888e-07
1.65088e-06
2.84588e-05
4.5479e-06
3.54944e-05
8.85499e-06
3.83611e-05
1.27519e-05
4.1404e-05
1.55975e-05
4.34347e-05
1.72205e-05
4.42014e-05
1.77855e-05
4.3597e-05
1.76068e-05
4.16031e-05
1.70054e-05
3.82525e-05
1.62603e-05
3.36342e-05
1.55861e-05
2.78885e-05
2.11638e-05
1.51375e-05
2.32602e-06
2.61356e-05
7.6504e-06
3.01685e-05
1.4924e-05
3.10863e-05
2.09946e-05
3.53311e-05
2.54477e-05
3.89796e-05
2.82474e-05
4.13997e-05
2.96694e-05
4.21737e-05
3.01156e-05
4.1156e-05
2.99883e-05
3.83794e-05
2.96381e-05
3.39842e-05
2.93226e-05
2.82042e-05
2.12719e-05
2.92147e-05
1.34622e-06
2.47925e-05
1.23951e-05
1.91213e-05
2.2064e-05
2.14171e-05
2.96482e-05
2.77455e-05
3.51552e-05
3.34707e-05
3.87441e-05
3.78087e-05
4.08077e-05
4.01085e-05
4.17648e-05
4.01976e-05
4.20403e-05
3.81031e-05
4.20441e-05
3.39798e-05
4.20696e-05
2.81785e-05
2.10278e-05
4.23137e-05
2.47067e-05
8.8026e-08
3.38787e-05
9.95178e-06
3.96421e-05
1.56548e-05
4.41001e-05
2.32879e-05
4.74751e-05
3.00949e-05
5.00333e-05
3.52496e-05
5.17849e-05
3.83558e-05
5.27689e-05
3.92129e-05
5.31992e-05
3.76721e-05
5.34374e-05
3.37416e-05
5.37466e-05
2.78694e-05
5.43256e-05
2.0449e-05
-0.000121373
4.6577e-06
-0.000123365
1.99154e-06
-0.000122765
-5.98075e-07
-0.000119581
-3.18444e-06
-0.000113745
-5.83478e-06
-0.000105055
-8.69018e-06
-9.3408e-05
-1.16458e-05
-7.86515e-05
-1.47559e-05
-6.07126e-05
-1.7938e-05
-3.97249e-05
-2.09867e-05
-1.72047e-05
-2.25183e-05
-1.72041e-05
-0.000101272
6.99655e-06
-0.000102342
3.06082e-06
-0.000102003
-9.35671e-07
-0.000100084
-5.10408e-06
-9.63414e-05
-9.57608e-06
-9.06773e-05
-1.43538e-05
-8.28972e-05
-1.9425e-05
-7.2836e-05
-2.48162e-05
-6.02022e-05
-3.05708e-05
-4.45394e-05
-3.66484e-05
-2.56041e-05
-4.14525e-05
-4.28079e-05
-8.25458e-05
8.83498e-06
-8.34209e-05
3.93582e-06
-8.31278e-05
-1.22821e-06
-8.14908e-05
-6.74091e-06
-7.84052e-05
-1.26609e-05
-7.3756e-05
-1.90025e-05
-6.74038e-05
-2.57764e-05
-5.92065e-05
-3.30126e-05
-4.90343e-05
-4.07422e-05
-3.67128e-05
-4.89691e-05
-2.09132e-05
-5.72512e-05
-6.37208e-05
-6.50583e-05
1.02536e-05
-6.5625e-05
4.50259e-06
-6.52113e-05
-1.64144e-06
-6.37535e-05
-8.19853e-06
-6.11721e-05
-1.52417e-05
-5.74093e-05
-2.27649e-05
-5.24176e-05
-3.07673e-05
-4.61477e-05
-3.92819e-05
-3.84918e-05
-4.83972e-05
-2.92088e-05
-5.82514e-05
-1.73058e-05
-6.91536e-05
-8.10263e-05
-4.82558e-05
1.14144e-05
-4.87054e-05
4.95225e-06
-4.83695e-05
-1.97702e-06
-4.72033e-05
-9.36446e-06
-4.51638e-05
-1.72807e-05
-4.2226e-05
-2.57022e-05
-3.83909e-05
-3.46016e-05
-3.36808e-05
-4.39911e-05
-2.80617e-05
-5.40153e-05
-2.12552e-05
-6.50571e-05
-1.27038e-05
-7.77041e-05
-9.373e-05
-3.19352e-05
1.23369e-05
-3.22986e-05
5.31598e-06
-3.20646e-05
-2.21106e-06
-3.11633e-05
-1.02652e-05
-2.959e-05
-1.88536e-05
-2.73559e-05
-2.79353e-05
-2.45252e-05
-3.74315e-05
-2.12183e-05
-4.72966e-05
-1.75522e-05
-5.76805e-05
-1.36195e-05
-6.89889e-05
-8.54448e-06
-8.27786e-05
-0.000102273
-1.58721e-05
1.30555e-05
-1.61406e-05
5.58412e-06
-1.59126e-05
-2.43846e-06
-1.51721e-05
-1.10055e-05
-1.39251e-05
-2.00994e-05
-1.22204e-05
-2.96392e-05
-1.01959e-05
-3.94545e-05
-8.09818e-06
-4.93935e-05
-6.19691e-06
-5.95809e-05
-4.65204e-06
-7.05321e-05
-3.09258e-06
-8.4336e-05
-0.000105366
-1.70967e-07
1.35063e-05
-2.35274e-07
5.64878e-06
1.123e-07
-2.7857e-06
8.68365e-07
-1.17606e-05
2.00768e-06
-2.12379e-05
3.44076e-06
-3.10709e-05
4.92206e-06
-4.09349e-05
6.02463e-06
-5.04949e-05
6.26426e-06
-5.98186e-05
5.16647e-06
-6.94338e-05
2.62905e-06
-8.17971e-05
-0.000102734
1.50068e-05
1.36372e-05
1.52544e-05
5.40154e-06
1.58896e-05
-3.42016e-06
1.68992e-05
-1.27694e-05
1.82476e-05
-2.25852e-05
1.97953e-05
-3.26173e-05
2.11474e-05
-4.22855e-05
2.16417e-05
-5.09879e-05
2.05467e-05
-5.87234e-05
1.69895e-05
-6.58736e-05
1.04764e-05
-7.52805e-05
-9.22577e-05
2.94568e-05
1.33955e-05
3.01162e-05
4.74269e-06
3.12242e-05
-4.52739e-06
3.27771e-05
-1.43214e-05
3.47358e-05
-2.45426e-05
3.68877e-05
-3.47682e-05
3.8618e-05
-4.4015e-05
3.89868e-05
-5.13561e-05
3.70456e-05
-5.678e-05
3.14792e-05
-6.03072e-05
2.06552e-05
-6.44559e-05
-7.15997e-05
4.2973e-05
1.27362e-05
4.4162e-05
3.55392e-06
4.59773e-05
-6.34235e-06
4.84372e-05
-1.67806e-05
5.1487e-05
-2.75918e-05
5.47751e-05
-3.80556e-05
5.73554e-05
-4.65947e-05
5.81203e-05
-5.21204e-05
5.60649e-05
-5.47254e-05
4.93718e-05
-5.3612e-05
3.39986e-05
-4.90807e-05
-3.76029e-05
5.54619e-05
1.16001e-05
5.7376e-05
1.64009e-06
6.02553e-05
-9.22132e-06
6.41057e-05
-2.06306e-05
6.87659e-05
-3.22518e-05
7.35908e-05
-4.28804e-05
7.71704e-05
-5.01748e-05
7.87146e-05
-5.3665e-05
7.73629e-05
-5.33729e-05
7.0892e-05
-4.71426e-05
5.41248e-05
-3.23146e-05
1.65232e-05
7.71801e-06
-7.72312e-06
1.24657e-05
-4.75214e-06
1.22638e-05
1.9802e-07
6.70883e-06
5.5523e-06
-7.4062e-06
1.41135e-05
-3.0556e-05
2.31484e-05
-5.27275e-05
2.21715e-05
-7.13025e-05
1.85739e-05
-8.67924e-05
1.54902e-05
-9.93408e-05
1.25474e-05
-0.000109263
9.92239e-06
7.19192e-06
-0.000116456
4.40444e-07
-8.16939e-06
-6.38661e-06
2.07162e-06
-2.04471e-05
1.42567e-05
-3.87713e-05
2.38756e-05
-5.44648e-05
2.98065e-05
-6.32532e-05
3.19362e-05
-7.03134e-05
2.92314e-05
-7.75236e-05
2.57834e-05
-8.42857e-05
2.22523e-05
-9.02875e-05
1.85486e-05
-9.50555e-05
1.46904e-05
1.08126e-05
-9.86768e-05
-8.48099e-06
3.08897e-07
-2.09243e-05
1.45134e-05
-3.30402e-05
2.63719e-05
-4.34355e-05
3.42703e-05
-5.12194e-05
3.759e-05
-5.65945e-05
3.73109e-05
-6.14999e-05
3.41366e-05
-6.62695e-05
3.05525e-05
-7.06446e-05
2.66273e-05
-7.45263e-05
2.24298e-05
-7.78416e-05
1.80057e-05
1.34631e-05
-8.04926e-05
-1.1025e-05
1.13309e-05
-2.11492e-05
2.46364e-05
-2.97739e-05
3.49959e-05
-3.64199e-05
4.09159e-05
-4.13212e-05
4.24912e-05
-4.50347e-05
4.10241e-05
-4.86953e-05
3.77973e-05
-5.22661e-05
3.4123e-05
-5.56349e-05
2.99963e-05
-5.87002e-05
2.54948e-05
-6.13643e-05
2.067e-05
1.55786e-05
-6.34802e-05
-9.27242e-06
2.06002e-05
-1.6717e-05
3.20787e-05
-2.22837e-05
4.05615e-05
-2.64234e-05
4.50546e-05
-2.9555e-05
4.5622e-05
-3.22896e-05
4.37585e-05
-3.50998e-05
4.06071e-05
-3.78807e-05
3.69042e-05
-4.05677e-05
3.26829e-05
-4.30614e-05
2.79889e-05
-4.52473e-05
2.28553e-05
1.73242e-05
-4.69922e-05
-6.23473e-06
2.68279e-05
-1.09442e-05
3.67853e-05
-1.39494e-05
4.35633e-05
-1.60423e-05
4.71453e-05
-1.77449e-05
4.7323e-05
-1.94997e-05
4.55115e-05
-2.14864e-05
4.25933e-05
-2.35973e-05
3.90138e-05
-2.57281e-05
3.4814e-05
-2.77571e-05
3.00167e-05
-2.95533e-05
2.46521e-05
1.87471e-05
-3.09777e-05
-3.26425e-06
3.00878e-05
-5.18473e-06
3.87004e-05
-5.96561e-06
4.43422e-05
-6.00431e-06
4.71803e-05
-6.20495e-06
4.75202e-05
-6.8816e-06
4.61859e-05
-8.03685e-06
4.37464e-05
-9.50139e-06
4.04771e-05
-1.11084e-05
3.64196e-05
-1.2691e-05
3.15988e-05
-1.40957e-05
2.60557e-05
1.98386e-05
-1.51872e-05
-8.00187e-08
3.01605e-05
1.61223e-07
3.84566e-05
1.7967e-06
4.2701e-05
3.68416e-06
4.5289e-05
4.97047e-06
4.62308e-05
5.40728e-06
4.57464e-05
5.08987e-06
4.40619e-05
4.25897e-06
4.13065e-05
3.15564e-06
3.75219e-05
1.99636e-06
3.27573e-05
9.60615e-07
2.7091e-05
2.06111e-05
1.87792e-07
1.66044e-06
2.84979e-05
4.56343e-06
3.55481e-05
8.86068e-06
3.84031e-05
1.27338e-05
4.14121e-05
1.55508e-05
4.34108e-05
1.71458e-05
4.41487e-05
1.76873e-05
4.35183e-05
1.74907e-05
4.15014e-05
1.68772e-05
3.81343e-05
1.61251e-05
3.35087e-05
1.54483e-05
2.77674e-05
2.10585e-05
1.50007e-05
2.36115e-06
2.61314e-05
7.68948e-06
3.022e-05
1.49437e-05
3.11422e-05
2.09867e-05
3.53673e-05
2.54057e-05
3.89891e-05
2.81716e-05
4.13808e-05
2.95635e-05
4.21246e-05
2.99858e-05
4.1078e-05
2.9841e-05
3.82781e-05
2.94795e-05
3.38698e-05
2.91579e-05
2.80887e-05
2.11678e-05
2.90485e-05
1.3526e-06
2.47794e-05
1.24036e-05
1.91644e-05
2.20706e-05
2.14782e-05
2.9636e-05
2.77992e-05
3.51149e-05
3.35079e-05
3.86718e-05
3.78217e-05
4.07041e-05
4.00904e-05
4.1634e-05
4.01465e-05
4.18886e-05
3.80223e-05
4.18778e-05
3.38798e-05
4.18944e-05
2.80717e-05
2.09271e-05
4.21349e-05
2.46354e-05
1.4354e-07
3.3808e-05
9.99475e-06
3.95818e-05
1.57001e-05
4.40404e-05
2.33402e-05
4.7408e-05
3.01398e-05
4.99514e-05
3.52771e-05
5.16823e-05
3.83585e-05
5.26436e-05
3.91841e-05
5.3054e-05
3.76112e-05
5.32767e-05
3.36566e-05
5.35759e-05
2.77725e-05
5.41504e-05
2.03526e-05
-0.000121087
4.63161e-06
-0.000123065
1.97781e-06
-0.000122465
-5.99821e-07
-0.000119292
-3.17345e-06
-0.000113477
-5.81449e-06
-0.000104817
-8.66017e-06
-9.32056e-05
-1.16112e-05
-7.84886e-05
-1.4717e-05
-6.05893e-05
-1.78991e-05
-3.96413e-05
-2.09477e-05
-1.7162e-05
-2.24788e-05
-1.71619e-05
-0.000101005
6.95988e-06
-0.000102071
3.04359e-06
-0.000101737
-9.33508e-07
-9.98288e-05
-5.08249e-06
-9.61062e-05
-9.53684e-06
-9.04663e-05
-1.43002e-05
-8.27161e-05
-1.93613e-05
-7.26875e-05
-2.47456e-05
-6.00894e-05
-3.04969e-05
-4.44626e-05
-3.65742e-05
-2.55668e-05
-4.13745e-05
-4.27285e-05
-8.23249e-05
8.79216e-06
-8.31991e-05
3.91732e-06
-8.29106e-05
-1.22188e-06
-8.12839e-05
-6.70952e-06
-7.82143e-05
-1.26062e-05
-7.35859e-05
-1.89288e-05
-6.72582e-05
-2.56887e-05
-5.90885e-05
-3.29153e-05
-4.8946e-05
-4.06391e-05
-3.66548e-05
-4.88654e-05
-2.08843e-05
-5.71446e-05
-6.36127e-05
-6.48919e-05
1.02041e-05
-6.54572e-05
4.48227e-06
-6.50465e-05
-1.63229e-06
-6.35959e-05
-8.16031e-06
-6.10268e-05
-1.5175e-05
-5.7281e-05
-2.26747e-05
-5.231e-05
-3.06596e-05
-4.60627e-05
-3.91624e-05
-3.84301e-05
-4.82715e-05
-2.91711e-05
-5.8124e-05
-1.72855e-05
-6.90298e-05
-8.08982e-05
-4.81457e-05
1.13568e-05
-4.85916e-05
4.92892e-06
-4.82589e-05
-1.96582e-06
-4.70982e-05
-9.32e-06
-4.50688e-05
-1.7205e-05
-4.21438e-05
-2.55986e-05
-3.83253e-05
-3.44782e-05
-3.36319e-05
-4.38548e-05
-2.80291e-05
-5.38739e-05
-2.12365e-05
-6.49154e-05
-1.26973e-05
-7.75692e-05
-9.35952e-05
-3.1895e-05
1.2275e-05
-3.22542e-05
5.28678e-06
-3.20169e-05
-2.20161e-06
-3.11183e-05
-1.02195e-05
-2.95493e-05
-1.87723e-05
-2.73239e-05
-2.78242e-05
-2.45027e-05
-3.72979e-05
-2.12064e-05
-4.71508e-05
-1.75476e-05
-5.75311e-05
-1.36196e-05
-6.88438e-05
-8.5474e-06
-8.26406e-05
-0.000102143
-1.58989e-05
1.2986e-05
-1.61619e-05
5.55026e-06
-1.593e-05
-2.43384e-06
-1.51866e-05
-1.09617e-05
-1.39399e-05
-2.00186e-05
-1.22371e-05
-2.95257e-05
-1.02167e-05
-3.93175e-05
-8.12218e-06
-4.9244e-05
-6.22261e-06
-5.94303e-05
-4.67608e-06
-7.03894e-05
-3.11056e-06
-8.42055e-05
-0.000105253
-2.57082e-07
1.34308e-05
-3.15851e-07
5.60913e-06
3.79263e-08
-2.78686e-06
7.99595e-07
-1.17227e-05
1.94402e-06
-2.11617e-05
3.38004e-06
-3.09607e-05
4.86362e-06
-4.07997e-05
5.9691e-06
-5.03484e-05
6.21373e-06
-5.96737e-05
5.12565e-06
-6.93002e-05
2.60084e-06
-8.16813e-05
-0.00010265
1.48735e-05
1.35579e-05
1.51268e-05
5.35632e-06
1.57692e-05
-3.42865e-06
1.67874e-05
-1.27397e-05
1.81445e-05
-2.25177e-05
1.96997e-05
-3.25144e-05
2.10585e-05
-4.2157e-05
2.15608e-05
-5.08492e-05
2.04766e-05
-5.85882e-05
1.69329e-05
-6.57563e-05
1.04418e-05
-7.51856e-05
-9.22096e-05
2.92924e-05
1.33142e-05
2.99575e-05
4.69179e-06
3.10736e-05
-4.54401e-06
3.26369e-05
-1.43019e-05
3.46068e-05
-2.44865e-05
3.67688e-05
-3.46749e-05
3.85086e-05
-4.38958e-05
3.88891e-05
-5.12287e-05
3.69608e-05
-5.66591e-05
3.14126e-05
-6.02055e-05
2.0611e-05
-6.43868e-05
-7.15958e-05
4.27953e-05
1.26537e-05
4.39897e-05
3.49744e-06
4.5814e-05
-6.36778e-06
4.82856e-05
-1.67728e-05
5.1348e-05
-2.75479e-05
5.46464e-05
-3.79727e-05
5.72367e-05
-4.64852e-05
5.80147e-05
-5.2006e-05
5.59751e-05
-5.46189e-05
4.9298e-05
-5.35299e-05
3.39534e-05
-4.90385e-05
-3.76431e-05
5.52876e-05
1.15165e-05
5.7208e-05
1.57731e-06
6.00974e-05
-9.25675e-06
6.396e-05
-2.0635e-05
6.86322e-05
-3.22197e-05
7.34666e-05
-4.2807e-05
7.70566e-05
-5.00751e-05
7.86133e-05
-5.35629e-05
7.72735e-05
-5.32795e-05
7.08166e-05
-4.70725e-05
5.40719e-05
-3.22958e-05
1.64287e-05
7.72566e-06
-7.72944e-06
1.24808e-05
-4.75844e-06
1.22785e-05
1.99226e-07
6.71361e-06
5.56247e-06
-7.43061e-06
1.41429e-05
-3.06229e-05
2.31905e-05
-5.28366e-05
2.22135e-05
-7.14492e-05
1.86111e-05
-8.69709e-05
1.55219e-05
-9.95451e-05
1.25729e-05
-0.000109486
9.94122e-06
7.20403e-06
-0.000116691
4.48147e-07
-8.18202e-06
-6.38377e-06
2.07089e-06
-2.04603e-05
1.42743e-05
-3.88142e-05
2.39155e-05
-5.45376e-05
2.98657e-05
-6.33509e-05
3.20031e-05
-7.0433e-05
2.92952e-05
-7.76647e-05
2.58418e-05
-8.44461e-05
2.23031e-05
-9.04638e-05
1.85898e-05
-9.52437e-05
1.47211e-05
1.08325e-05
-9.88729e-05
-8.48506e-06
3.00232e-07
-2.09409e-05
1.45253e-05
-3.30766e-05
2.64092e-05
-4.34948e-05
3.4333e-05
-5.12988e-05
3.76693e-05
-5.66907e-05
3.73942e-05
-6.16127e-05
3.42167e-05
-6.6398e-05
3.06263e-05
-7.07874e-05
2.66922e-05
-7.46816e-05
2.24832e-05
-7.80066e-05
1.8046e-05
1.34894e-05
-8.06642e-05
-1.10354e-05
1.13331e-05
-2.1171e-05
2.46596e-05
-2.98094e-05
3.50468e-05
-3.64699e-05
4.09926e-05
-4.13841e-05
4.25827e-05
-4.511e-05
4.11191e-05
-4.87842e-05
3.789e-05
-5.23688e-05
3.42099e-05
-5.57508e-05
3.00736e-05
-5.8828e-05
2.55596e-05
-6.15019e-05
2.07197e-05
1.56116e-05
-6.36246e-05
-9.28806e-06
2.06177e-05
-1.67351e-05
3.21044e-05
-2.23069e-05
4.0617e-05
-2.64539e-05
4.51378e-05
-2.95936e-05
4.57209e-05
-3.23383e-05
4.38619e-05
-3.51593e-05
4.07097e-05
-3.79525e-05
3.70016e-05
-4.06514e-05
3.27715e-05
-4.31571e-05
2.80643e-05
-4.53527e-05
2.29148e-05
1.73646e-05
-4.71063e-05
-6.27173e-06
2.68843e-05
-1.09461e-05
3.67751e-05
-1.39517e-05
4.36191e-05
-1.60489e-05
4.72319e-05
-1.77568e-05
4.74251e-05
-1.95179e-05
4.56201e-05
-2.15137e-05
4.27024e-05
-2.3634e-05
3.91196e-05
-2.57761e-05
3.49113e-05
-2.78151e-05
3.01017e-05
-2.96217e-05
2.47198e-05
1.87936e-05
-3.10514e-05
-3.04836e-06
2.99235e-05
-5.14558e-06
3.88669e-05
-5.95035e-06
4.44195e-05
-5.99057e-06
4.72671e-05
-6.19106e-06
4.76209e-05
-6.87046e-06
4.62951e-05
-8.03076e-06
4.38588e-05
-9.5027e-06
4.05878e-05
-1.11177e-05
3.65235e-05
-1.27089e-05
3.16903e-05
-1.412e-05
2.61295e-05
1.98885e-05
-1.52167e-05
-4.86756e-07
3.04059e-05
1.07428e-07
3.82677e-05
1.80877e-06
4.27142e-05
3.71382e-06
4.5357e-05
5.00718e-06
4.63235e-05
5.44579e-06
4.5852e-05
5.12688e-06
4.41741e-05
4.29179e-06
4.14194e-05
3.18304e-06
3.76294e-05
2.01813e-06
3.2853e-05
9.77891e-07
2.71681e-05
2.06642e-05
2.01172e-07
2.10645e-06
2.82933e-05
4.65389e-06
3.57165e-05
8.90507e-06
3.84591e-05
1.27814e-05
4.1477e-05
1.56067e-05
4.34944e-05
1.72074e-05
4.42476e-05
1.77508e-05
4.36272e-05
1.75532e-05
4.16136e-05
1.69372e-05
3.82427e-05
1.6182e-05
3.3606e-05
1.55023e-05
2.78463e-05
2.11135e-05
1.50521e-05
2.14385e-06
2.61487e-05
7.68144e-06
3.01779e-05
1.49791e-05
3.11589e-05
2.10426e-05
3.54116e-05
2.54756e-05
3.90584e-05
2.82509e-05
4.14701e-05
2.96478e-05
4.22273e-05
3.0072e-05
4.1187e-05
2.99276e-05
3.83849e-05
2.95656e-05
3.39663e-05
2.92429e-05
2.81679e-05
2.12233e-05
2.91323e-05
1.38705e-06
2.47639e-05
1.24321e-05
1.91333e-05
2.21178e-05
2.14728e-05
2.97033e-05
2.78247e-05
3.51969e-05
3.35629e-05
3.87643e-05
3.79004e-05
4.08034e-05
4.01858e-05
4.17373e-05
4.02508e-05
4.19944e-05
3.81255e-05
4.19857e-05
3.39733e-05
4.20033e-05
2.8149e-05
2.09815e-05
4.22442e-05
2.46693e-05
9.7014e-08
3.38552e-05
9.9487e-06
3.96451e-05
1.5684e-05
4.41184e-05
2.33514e-05
4.75002e-05
3.01811e-05
5.00544e-05
3.53453e-05
5.17919e-05
3.84473e-05
5.2757e-05
3.92842e-05
5.31713e-05
3.77101e-05
5.33983e-05
3.37456e-05
5.37003e-05
2.78464e-05
5.42762e-05
2.04051e-05
-0.000121327
4.63663e-06
-0.000123304
1.97604e-06
-0.000122695
-6.08112e-07
-0.000119507
-3.18866e-06
-0.000113671
-5.83588e-06
-0.000104985
-8.68603e-06
-9.3345e-05
-1.16397e-05
-7.85991e-05
-1.47461e-05
-6.06721e-05
-1.79268e-05
-3.96985e-05
-2.09736e-05
-1.71936e-05
-2.25049e-05
-1.71935e-05
-0.000101205
6.96866e-06
-0.00010227
3.04102e-06
-0.000101931
-9.47727e-07
-0.000100011
-5.10867e-06
-9.62731e-05
-9.57346e-06
-9.06144e-05
-1.43449e-05
-8.28426e-05
-1.94114e-05
-7.27907e-05
-2.47981e-05
-6.01681e-05
-3.05493e-05
-4.45164e-05
-3.66251e-05
-2.55919e-05
-4.14294e-05
-4.27853e-05
-8.24993e-05
8.80381e-06
-8.33721e-05
3.91329e-06
-8.30778e-05
-1.24188e-06
-8.14415e-05
-6.74527e-06
-7.83587e-05
-1.26561e-05
-7.37137e-05
-1.89899e-05
-6.73673e-05
-2.57578e-05
-5.91761e-05
-3.29891e-05
-4.90108e-05
-4.07144e-05
-3.66962e-05
-4.89394e-05
-2.09043e-05
-5.7221e-05
-6.36895e-05
-6.50395e-05
1.02187e-05
-6.56033e-05
4.47679e-06
-6.51875e-05
-1.65764e-06
-6.37281e-05
-8.20488e-06
-6.11463e-05
-1.52378e-05
-5.73845e-05
-2.27519e-05
-5.23951e-05
-3.0747e-05
-4.61285e-05
-3.92556e-05
-3.84762e-05
-4.83664e-05
-2.91977e-05
-5.82175e-05
-1.7299e-05
-6.91193e-05
-8.09885e-05
-4.82626e-05
1.13748e-05
-4.87084e-05
4.92221e-06
-4.83696e-05
-1.99639e-06
-4.72005e-05
-9.37416e-06
-4.51584e-05
-1.72798e-05
-4.22188e-05
-2.56914e-05
-3.8383e-05
-3.45824e-05
-3.36729e-05
-4.39654e-05
-2.80541e-05
-5.39844e-05
-2.12493e-05
-6.5022e-05
-1.2701e-05
-7.76676e-05
-9.36896e-05
-3.19715e-05
1.22939e-05
-3.23298e-05
5.28046e-06
-3.20901e-05
-2.23672e-06
-3.11833e-05
-1.02808e-05
-2.96046e-05
-1.88586e-05
-2.73654e-05
-2.79299e-05
-2.45306e-05
-3.74171e-05
-2.12203e-05
-4.72747e-05
-1.75521e-05
-5.76527e-05
-1.36179e-05
-6.89561e-05
-8.54369e-06
-8.27422e-05
-0.000102233
-1.59317e-05
1.30084e-05
-1.61951e-05
5.54289e-06
-1.59601e-05
-2.47156e-06
-1.52118e-05
-1.10294e-05
-1.39564e-05
-2.01132e-05
-1.22435e-05
-2.96427e-05
-1.02116e-05
-3.94479e-05
-8.108e-06
-4.93784e-05
-6.20208e-06
-5.95582e-05
-4.65474e-06
-7.0503e-05
-3.09456e-06
-8.43021e-05
-0.000105328
-2.46805e-07
1.34556e-05
-3.05559e-07
5.60142e-06
5.00077e-08
-2.82725e-06
8.15815e-07
-1.17946e-05
1.96608e-06
-2.1263e-05
3.4102e-06
-3.10858e-05
4.9013e-06
-4.09386e-05
6.01211e-06
-5.04883e-05
6.25761e-06
-5.98028e-05
5.1632e-06
-6.94087e-05
2.6275e-06
-8.17656e-05
-0.000102699
1.49239e-05
1.35832e-05
1.51774e-05
5.34758e-06
1.58216e-05
-3.47123e-06
1.68428e-05
-1.28153e-05
1.82044e-05
-2.26238e-05
1.97653e-05
-3.26457e-05
2.11286e-05
-4.23007e-05
2.16317e-05
-5.09905e-05
2.0543e-05
-5.87139e-05
1.69884e-05
-6.58518e-05
1.04757e-05
-7.52512e-05
-9.22234e-05
2.93767e-05
1.33385e-05
3.00427e-05
4.68149e-06
3.1161e-05
-4.58922e-06
3.27272e-05
-1.43809e-05
3.47009e-05
-2.45965e-05
3.68671e-05
-3.48111e-05
3.86082e-05
-4.40412e-05
3.8985e-05
-5.13668e-05
3.70483e-05
-5.67756e-05
3.14822e-05
-6.02863e-05
2.06566e-05
-6.44254e-05
-7.15653e-05
4.29056e-05
1.26764e-05
4.41021e-05
3.48465e-06
4.59292e-05
-6.41641e-06
4.8404e-05
-1.68553e-05
5.14701e-05
-2.76622e-05
5.47719e-05
-3.81124e-05
5.73598e-05
-4.66286e-05
5.81301e-05
-5.21368e-05
5.60764e-05
-5.47227e-05
4.93791e-05
-5.35875e-05
3.40016e-05
-4.90472e-05
-3.75655e-05
5.54157e-05
1.15366e-05
5.73392e-05
1.56092e-06
6.02322e-05
-9.30945e-06
6.40986e-05
-2.07215e-05
6.87748e-05
-3.23383e-05
7.36105e-05
-4.2948e-05
7.7193e-05
-5.02117e-05
7.87378e-05
-5.3682e-05
7.73804e-05
-5.33648e-05
7.08992e-05
-4.7108e-05
5.41249e-05
-3.22741e-05
1.65599e-05
7.72487e-06
-7.72976e-06
1.25007e-05
-4.78018e-06
1.23287e-05
1.68393e-07
6.80375e-06
5.52233e-06
-7.23976e-06
1.40422e-05
-3.03955e-05
2.31543e-05
-5.26478e-05
2.22524e-05
-7.12751e-05
1.86262e-05
-8.68182e-05
1.55436e-05
-9.94045e-05
1.25853e-05
-0.000109359
9.95532e-06
7.21616e-06
-0.000116576
4.78366e-07
-8.21374e-06
-6.30362e-06
1.99857e-06
-2.03278e-05
1.41908e-05
-3.86708e-05
2.38645e-05
-5.44527e-05
2.98236e-05
-6.33022e-05
3.20032e-05
-7.03643e-05
2.93143e-05
-7.75905e-05
2.58517e-05
-8.43643e-05
2.23174e-05
-9.03809e-05
1.86013e-05
-9.51593e-05
1.47338e-05
1.08455e-05
-9.87893e-05
-8.43062e-06
2.13971e-07
-2.08704e-05
1.44367e-05
-3.30183e-05
2.6338e-05
-4.34452e-05
3.42909e-05
-5.12626e-05
3.76406e-05
-5.66497e-05
3.73899e-05
-6.15584e-05
3.42228e-05
-6.63357e-05
3.06286e-05
-7.07134e-05
2.6695e-05
-7.4598e-05
2.24853e-05
-7.79144e-05
1.80503e-05
1.34963e-05
-8.05657e-05
-1.10169e-05
1.12279e-05
-2.11487e-05
2.45671e-05
-2.9792e-05
3.49805e-05
-3.64554e-05
4.09537e-05
-4.13717e-05
4.25568e-05
-4.50871e-05
4.11049e-05
-4.87413e-05
3.78771e-05
-5.23077e-05
3.41948e-05
-5.56722e-05
3.00598e-05
-5.87349e-05
2.55477e-05
-6.13969e-05
2.07127e-05
1.56109e-05
-6.35118e-05
-9.27408e-06
2.04988e-05
-1.67271e-05
3.20182e-05
-2.23053e-05
4.05573e-05
-2.64519e-05
4.50996e-05
-2.95861e-05
4.569e-05
-3.23151e-05
4.3834e-05
-3.51174e-05
4.06789e-05
-3.78912e-05
3.69691e-05
-4.05719e-05
3.27401e-05
-4.3061e-05
2.80374e-05
-4.52437e-05
2.28949e-05
1.73551e-05
-4.69872e-05
-6.24307e-06
2.67362e-05
-1.09557e-05
3.67281e-05
-1.39645e-05
4.35633e-05
-1.6057e-05
4.71898e-05
-1.77546e-05
4.73863e-05
-1.95006e-05
4.55781e-05
-2.14775e-05
4.26555e-05
-2.35796e-05
3.90699e-05
-2.57028e-05
3.48636e-05
-2.7726e-05
3.00593e-05
-2.95179e-05
2.46876e-05
1.87752e-05
-3.09394e-05
-3.26446e-06
2.9997e-05
-5.19447e-06
3.86535e-05
-5.97604e-06
4.43428e-05
-6.0082e-06
4.72186e-05
-6.1987e-06
4.75734e-05
-6.86329e-06
4.62405e-05
-8.00699e-06
4.3797e-05
-9.46114e-06
4.05229e-05
-1.10594e-05
3.64605e-05
-1.2635e-05
3.16345e-05
-1.40345e-05
2.60861e-05
1.98632e-05
-1.51224e-05
-9.73785e-08
3.00884e-05
1.45506e-07
3.84084e-05
1.78609e-06
4.2697e-05
3.68537e-06
4.53156e-05
4.98629e-06
4.62695e-05
5.4378e-06
4.57863e-05
5.13381e-06
4.40991e-05
4.31459e-06
4.13406e-05
3.22092e-06
3.75532e-05
2.06919e-06
3.27855e-05
1.03896e-06
2.71159e-05
2.06322e-05
2.69723e-07
1.64924e-06
2.84374e-05
4.54265e-06
3.55102e-05
8.84498e-06
3.83942e-05
1.27333e-05
4.14236e-05
1.55682e-05
4.34316e-05
1.71805e-05
4.41712e-05
1.77374e-05
4.354e-05
1.75539e-05
4.15224e-05
1.69508e-05
3.81552e-05
1.62064e-05
3.35291e-05
1.55351e-05
2.77869e-05
2.10764e-05
1.50906e-05
2.32958e-06
2.6104e-05
7.65266e-06
3.01879e-05
1.49166e-05
3.11241e-05
2.09773e-05
3.53613e-05
2.54169e-05
3.89893e-05
2.82027e-05
4.13833e-05
2.96121e-05
4.21287e-05
3.00488e-05
4.10844e-05
2.99151e-05
3.82879e-05
2.95612e-05
3.38826e-05
2.92446e-05
2.81034e-05
2.11834e-05
2.91376e-05
1.33187e-06
2.47727e-05
1.23682e-05
1.91474e-05
2.20393e-05
2.14559e-05
2.96197e-05
2.77785e-05
3.51182e-05
3.34885e-05
3.8695e-05
3.78041e-05
4.07455e-05
4.00762e-05
4.16909e-05
4.01374e-05
4.19566e-05
3.80209e-05
4.1953e-05
3.38854e-05
4.19736e-05
2.80823e-05
2.09416e-05
4.22153e-05
2.46196e-05
1.52819e-07
3.3786e-05
9.98391e-06
3.95632e-05
1.56748e-05
4.40325e-05
2.33088e-05
4.74135e-05
3.01069e-05
4.99714e-05
3.52449e-05
5.17172e-05
3.83292e-05
5.26921e-05
3.91612e-05
5.31125e-05
3.75998e-05
5.3341e-05
3.36565e-05
5.36427e-05
2.77807e-05
5.42166e-05
2.03677e-05
-0.000121226
4.6499e-06
-0.000123216
1.9894e-06
-0.000122621
-5.94142e-07
-0.000119448
-3.17358e-06
-0.000113628
-5.81906e-06
-0.000104958
-8.67032e-06
-9.33333e-05
-1.16247e-05
-7.85988e-05
-1.47345e-05
-6.06793e-05
-1.79192e-05
-3.97067e-05
-2.09723e-05
-1.71996e-05
-2.25064e-05
-1.71995e-05
-0.000101122
6.98309e-06
-0.000102191
3.05714e-06
-0.000101856
-9.28654e-07
-9.99439e-05
-5.08583e-06
-9.62145e-05
-9.54821e-06
-9.05658e-05
-1.4319e-05
-8.28044e-05
-1.93859e-05
-7.2763e-05
-2.47758e-05
-6.01494e-05
-3.05325e-05
-4.45056e-05
-3.66157e-05
-2.55889e-05
-4.14229e-05
-4.27883e-05
-8.23977e-05
8.81518e-06
-8.32711e-05
3.93012e-06
-8.29808e-05
-1.21869e-06
-8.13511e-05
-6.71582e-06
-7.82774e-05
-1.26217e-05
-7.36439e-05
-1.89525e-05
-6.731e-05
-2.57196e-05
-5.91328e-05
-3.2953e-05
-4.89806e-05
-4.06843e-05
-3.66789e-05
-4.89173e-05
-2.08965e-05
-5.72048e-05
-6.36847e-05
-6.49226e-05
1.02264e-05
-6.5487e-05
4.49423e-06
-6.50756e-05
-1.6298e-06
-6.36247e-05
-8.16688e-06
-6.10554e-05
-1.51906e-05
-5.73091e-05
-2.26988e-05
-5.23367e-05
-3.06918e-05
-4.60865e-05
-3.92029e-05
-3.84502e-05
-4.83205e-05
-2.91855e-05
-5.81815e-05
-1.72944e-05
-6.90954e-05
-8.0979e-05
-4.81397e-05
1.13782e-05
-4.85855e-05
4.94082e-06
-4.8253e-05
-1.96291e-06
-4.7094e-05
-9.32479e-06
-4.50675e-05
-1.72175e-05
-4.21458e-05
-2.56195e-05
-3.83298e-05
-3.45078e-05
-3.36379e-05
-4.38937e-05
-2.80355e-05
-5.39224e-05
-2.12416e-05
-6.49742e-05
-1.26999e-05
-7.76372e-05
-9.36787e-05
-3.18547e-05
1.22946e-05
-3.22144e-05
5.29918e-06
-3.19794e-05
-2.1964e-06
-3.10848e-05
-1.02202e-05
-2.95218e-05
-1.87788e-05
-2.73037e-05
-2.78377e-05
-2.44896e-05
-3.73203e-05
-2.11992e-05
-4.71837e-05
-1.75447e-05
-5.75752e-05
-1.362e-05
-6.88992e-05
-8.54955e-06
-8.27068e-05
-0.000102228
-1.58327e-05
1.30041e-05
-1.60959e-05
5.56292e-06
-1.5867e-05
-2.42552e-06
-1.51297e-05
-1.09564e-05
-1.38919e-05
-2.00161e-05
-1.22002e-05
-2.95281e-05
-1.0191e-05
-3.93286e-05
-8.10614e-06
-4.92671e-05
-6.21361e-06
-5.94673e-05
-4.67134e-06
-7.04404e-05
-3.10787e-06
-8.42693e-05
-0.000105336
-1.7374e-07
1.34476e-05
-2.33247e-07
5.62257e-06
1.16648e-07
-2.77464e-06
8.70806e-07
-1.17098e-05
2.00386e-06
-2.11478e-05
3.42588e-06
-3.0949e-05
4.89536e-06
-4.07967e-05
5.98842e-06
-5.03591e-05
6.22374e-06
-5.97012e-05
5.13032e-06
-6.93456e-05
2.60128e-06
-8.1741e-05
-0.000102732
1.49644e-05
1.35739e-05
1.52158e-05
5.37168e-06
1.5853e-05
-3.41125e-06
1.68622e-05
-1.27178e-05
1.82062e-05
-2.24905e-05
1.97457e-05
-3.24871e-05
2.10895e-05
-4.2139e-05
2.15789e-05
-5.08469e-05
2.0485e-05
-5.86059e-05
1.6936e-05
-6.57966e-05
1.04423e-05
-7.52422e-05
-9.22912e-05
2.93813e-05
1.33305e-05
3.00426e-05
4.71091e-06
3.11518e-05
-4.51963e-06
3.27045e-05
-1.42692e-05
3.46598e-05
-2.44447e-05
3.68061e-05
-3.4632e-05
3.8533e-05
-4.38649e-05
3.89029e-05
-5.12156e-05
3.69661e-05
-5.66683e-05
3.14145e-05
-6.02421e-05
2.06129e-05
-6.44437e-05
-7.16754e-05
4.28736e-05
1.26722e-05
4.40622e-05
3.52242e-06
4.58772e-05
-6.33402e-06
4.8336e-05
-1.67274e-05
5.13829e-05
-2.74907e-05
5.46678e-05
-3.79162e-05
5.72511e-05
-4.64473e-05
5.80229e-05
-5.19867e-05
5.59788e-05
-5.46235e-05
4.93022e-05
-5.35671e-05
3.39575e-05
-4.90952e-05
-3.77187e-05
5.53495e-05
1.15396e-05
5.7261e-05
1.61118e-06
6.0138e-05
-9.21056e-06
6.39856e-05
-2.05745e-05
6.86427e-05
-3.21472e-05
7.34683e-05
-4.27416e-05
7.70579e-05
-5.00368e-05
7.86156e-05
-5.35446e-05
7.72829e-05
-5.32913e-05
7.08336e-05
-4.71173e-05
5.40881e-05
-3.2352e-05
1.63694e-05
9.14096e-05
1.01202e-05
-0.00010144
8.44629e-05
1.69002e-05
7.59834e-05
2.41359e-05
6.97533e-05
2.95187e-05
6.60409e-05
3.38072e-05
6.43204e-05
3.69694e-05
6.38228e-05
3.88526e-05
6.37654e-05
3.92693e-05
6.37799e-05
3.76567e-05
6.3981e-05
3.35402e-05
6.44416e-05
2.74083e-05
1.95699e-05
6.53204e-05
0.000112307
1.19448e-05
-0.00011413
0.000107176
2.20328e-05
0.000100223
3.10912e-05
9.25598e-05
3.71832e-05
8.57415e-05
4.06264e-05
8.0564e-05
4.21473e-05
7.72383e-05
4.21782e-05
7.53139e-05
4.11933e-05
7.42987e-05
3.86719e-05
7.41209e-05
3.37177e-05
7.44911e-05
2.70382e-05
1.83765e-05
7.56846e-05
0.000119949
1.34334e-05
-0.000121437
0.000116716
2.52675e-05
0.000112176
3.5633e-05
0.000106617
4.27432e-05
0.000100658
4.65862e-05
9.50271e-05
4.77783e-05
9.03969e-05
4.68084e-05
8.70697e-05
4.45201e-05
8.51038e-05
4.06373e-05
8.42737e-05
3.45473e-05
8.45025e-05
2.68087e-05
1.64099e-05
8.64674e-05
0.000123017
-0.000124979
1.53968e-05
0.000120246
2.80398e-05
0.000116679
3.92022e-05
0.000112427
4.69971e-05
0.000107844
5.11699e-05
0.000103532
5.20918e-05
9.98252e-05
5.05151e-05
9.70414e-05
4.7304e-05
9.55318e-05
4.21466e-05
9.53054e-05
3.47733e-05
9.67034e-05
2.54097e-05
0.000100962
1.21519e-05
6.70882e-05
9.83179e-06
7.0129e-05
-1.40113e-06
7.46574e-05
-1.375e-05
8.04862e-05
-2.64599e-05
8.70784e-05
-3.88444e-05
9.32476e-05