/*--------------------------------*- C++ -*----------------------------------*\
  =========                 |
  \\      /  F ield         | OpenFOAM: The Open Source CFD Toolbox
   \\    /   O peration     | Website:  https://openfoam.org
    \\  /    A nd           | Version:  6
     \\/     M anipulation  |
\*---------------------------------------------------------------------------*/
FoamFile
{
    version     2.0;
    format      ascii;
    class       volVectorField;
    location    "100";
    object      U;
}
// * * * * * * * * * * * * * * * * * * * * * * * * * * * * * * * * * * * * * //

dimensions      [0 1 -1 0 0 0 0];

internalField   nonuniform List<vector> 
3072
(
(-0.315183 2.29799 0)
(-0.23948 1.87151 0)
(-0.128143 1.68531 2.53965e-19)
(0.0986985 1.84937 1.35869e-18)
(1.0698 1.89651 -1.87917e-18)
(2.49378 2.04311 4.67627e-19)
(3.2081 2.9672 1.56588e-19)
(3.59465 3.42625 2.11397e-18)
(4.09732 3.87666 -3.8078e-18)
(4.53434 4.10566 2.2256e-18)
(5.02217 4.21683 -4.97854e-19)
(5.419 4.20877 1.20321e-19)
(-0.662049 2.80881 -2.69409e-19)
(-0.0269537 2.53546 -3.72243e-19)
(1.00889 2.78372 2.77395e-19)
(2.02541 3.36525 0)
(2.84489 3.72832 4.05491e-19)
(3.37953 3.9183 -7.21733e-19)
(3.57398 4.05376 0)
(3.70837 4.19655 0)
(3.91665 4.32795 0)
(4.14224 4.40768 7.94259e-19)
(4.36881 4.46019 -1.45959e-19)
(4.5907 4.44884 7.58546e-19)
(0.0131731 3.14977 1.80907e-19)
(0.959254 3.20912 0)
(1.92093 3.5532 0)
(2.73912 3.80019 -1.61242e-18)
(3.32999 3.87882 7.86141e-19)
(3.67974 3.85307 -1.51206e-18)
(3.83976 3.88498 1.57778e-18)
(4.00851 3.88029 0)
(4.17359 3.88149 0)
(4.33151 3.86629 -5.15361e-19)
(4.48452 3.83809 -2.6164e-19)
(4.63103 3.7907 1.31292e-18)
(0.400383 3.35097 -1.40209e-18)
(1.42402 3.5088 -1.39545e-18)
(2.30346 3.72159 8.75833e-19)
(2.96695 3.7884 -1.02911e-18)
(3.38693 3.75876 2.99729e-18)
(3.64211 3.70824 -2.63582e-18)
(3.78372 3.64879 -1.66352e-18)
(3.91152 3.61811 -3.84531e-18)
(4.02706 3.59035 3.37194e-20)
(4.13557 3.56366 1.83381e-18)
(4.23876 3.53557 1.92154e-18)
(4.33596 3.50141 -1.50331e-18)
(0.922999 3.44446 0)
(1.78412 3.64889 5.80606e-19)
(2.52067 3.70884 -1.25445e-18)
(3.04064 3.6706 2.12162e-18)
(3.35684 3.58055 2.75138e-19)
(3.54336 3.48952 1.59367e-18)
(3.66536 3.41195 1.37794e-18)
(3.77424 3.35117 1.1768e-18)
(3.86923 3.299 -2.33202e-18)
(3.95427 3.2558 2.11229e-18)
(4.03006 3.21897 -2.711e-18)
(4.09613 3.18559 3.75499e-18)
(1.22281 3.53359 -1.17454e-18)
(1.96251 3.74459 7.24155e-19)
(2.55535 3.67383 2.48273e-18)
(2.99503 3.55841 0)
(3.25381 3.4155 -4.26014e-18)
(3.41251 3.2871 4.19495e-18)
(3.5241 3.18136 0)
(3.61732 3.0956 -2.93895e-18)
(3.69454 3.02619 2.62653e-18)
(3.75836 2.97248 0)
(3.80936 2.93193 1.9449e-19)
(3.84784 2.90263 2.27538e-18)
(1.35551 3.65159 0)
(1.99942 3.8327 -1.90324e-18)
(2.50485 3.66782 1.53471e-18)
(2.87243 3.47908 0)
(3.10085 3.27881 -2.57822e-18)
(3.24964 3.10752 4.26659e-19)
(3.35672 2.96879 3.7008e-18)
(3.44048 2.85854 3.2207e-18)
(3.50443 2.77277 -2.9038e-18)
(3.55072 2.70911 2.78274e-18)
(3.58041 2.66459 -2.42811e-18)
(3.59421 2.63751 -6.66087e-18)
(1.34 3.79024 0)
(1.93538 3.95224 1.89902e-18)
(2.37178 3.6858 -2.979e-18)
(2.68853 3.42778 3.42109e-18)
(2.90806 3.1704 0)
(3.06116 2.95279 -4.41924e-18)
(3.17147 2.77854 4.03019e-18)
(3.25201 2.64297 -3.91225e-20)
(3.30712 2.54054 -6.37288e-18)
(3.33927 2.467 -2.86842e-18)
(3.35056 2.41864 -1.21178e-19)
(3.34337 2.39301 5.09537e-18)
(1.24397 3.97258 0)
(1.78753 4.10523 -2.6898e-18)
(2.1553 3.75144 -4.58667e-18)
(2.45864 3.4148 -3.40671e-18)
(2.68677 3.0972 6.30621e-18)
(2.85497 2.82977 0)
(2.97629 2.61682 0)
(3.05982 2.45385 0)
(3.11023 2.33374 0)
(3.13133 2.25009 3.08758e-18)
(3.12691 2.1976 -2.97713e-18)
(3.10083 2.17268 2.81528e-18)
(1.06477 4.19546 0)
(1.60561 4.33586 3.0169e-18)
(1.89446 3.87454 -5.44923e-19)
(2.19415 3.44461 4.26298e-18)
(2.44299 3.06268 3.80954e-18)
(2.63627 2.74236 -5.7982e-18)
(2.77707 2.48897 0)
(2.86994 2.29717 -1.79447e-19)
(2.92044 2.15838 -1.20358e-17)
(2.93397 2.06411 0)
(2.91649 2.00679 6.95921e-18)
(2.87395 1.98144 -3.10806e-18)
(1.10072 4.50203 0)
(1.29285 4.49391 3.65064e-18)
(1.53704 3.96118 9.851e-18)
(1.87955 3.45631 -8.25209e-18)
(2.17112 3.03282 -1.05024e-17)
(2.40506 2.67652 1.54192e-17)
(2.57589 2.39143 -1.81867e-19)
(2.68653 2.17406 -5.31738e-18)
(2.74307 2.01785 4.0557e-18)
(2.75305 1.91342 -8.30331e-18)
(2.72535 1.85105 -1.10307e-17)
(2.66844 1.82452 1.09978e-17)
(0.394129 3.85797 -1.75542e-18)
(0.80339 3.91649 -1.20366e-17)
(1.11668 3.52232 2.37406e-18)
(1.50704 3.15682 0)
(1.87075 2.85249 0)
(2.16212 2.55399 3.0297e-19)
(2.37313 2.2875 1.80007e-17)
(2.50955 2.06937 1.06625e-17)
(2.57971 1.90664 0)
(2.59129 1.79675 8.88053e-18)
(2.55677 1.73104 0)
(2.48773 1.70387 5.15989e-19)
(5.77274 4.10466 4.12401e-18)
(6.02842 3.92267 -2.05072e-18)
(6.19363 3.67711 1.11099e-18)
(6.25108 3.39052 -1.49858e-19)
(6.20991 3.06099 7.13427e-20)
(6.04502 2.7189 0)
(5.75328 2.36918 0)
(5.32991 2.03718 9.16752e-19)
(4.77097 1.72794 -1.08559e-18)
(4.02614 1.4183 0)
(3.23253 1.03618 0)
(2.82278 0.233273 2.73068e-20)
(4.80603 4.38686 -2.72594e-19)
(4.99815 4.27358 0)
(5.16353 4.11004 -8.87652e-19)
(5.28415 3.90251 -3.67509e-19)
(5.33135 3.6769 -7.46449e-20)
(5.29784 3.4442 1.58644e-18)
(5.17502 3.21709 -2.80252e-18)
(4.96127 3.01502 5.28598e-19)
(4.65757 2.8583 0)
(4.15491 2.74131 0)
(3.60642 2.63571 0)
(3.45209 2.35236 7.48198e-19)
(4.76647 3.72321 5.28891e-19)
(4.87817 3.63881 -1.4592e-18)
(4.9554 3.54279 3.47688e-19)
(4.98845 3.44328 1.18449e-18)
(4.96993 3.3459 -1.23438e-18)
(4.89603 3.26017 0)
(4.76338 3.1953 0)
(4.57346 3.16387 -5.17308e-20)
(4.33277 3.17909 8.62991e-19)
(3.96995 3.24329 0)
(3.55334 3.30964 0)
(3.51657 3.27329 -4.28123e-19)
(4.42152 3.45928 2.42135e-19)
(4.48752 3.41057 1.88076e-18)
(4.52696 3.35895 1.41266e-18)
(4.53419 3.31153 -1.43073e-18)
(4.50589 3.27661 0)
(4.44083 3.26135 9.63165e-19)
(4.33957 3.27354 0)
(4.20496 3.32296 1.90888e-18)
(4.04537 3.42127 -6.98452e-19)
(3.84267 3.5774 0)
(3.50936 3.79743 -3.23997e-19)
(3.68415 4.07692 3.73936e-19)
(4.14861 3.15496 -1.40123e-18)
(4.18086 3.13019 0)
(4.19115 3.11393 0)
(4.17906 3.10764 0)
(4.14326 3.1222 0)
(4.08532 3.16096 -1.79496e-18)
(4.00848 3.22884 -6.22641e-20)
(3.91735 3.33263 -9.82635e-19)
(3.81928 3.48372 0)
(3.72244 3.69738 -7.38486e-19)
(3.48525 3.99288 2.92993e-19)
(3.79936 4.42626 -1.05852e-19)
(3.86967 2.88584 -1.48089e-19)
(3.87592 2.87976 -3.57383e-18)
(3.86678 2.88829 1.81595e-18)
(3.84233 2.91612 3.06464e-21)
(3.80375 2.9665 1.36084e-19)
(3.75501 3.04274 2.82264e-18)
(3.70168 3.14692 -4.55307e-20)
(3.65207 3.28281 -3.36789e-18)
(3.6156 3.46049 -1.39946e-18)
(3.60223 3.69968 6.47432e-19)
(3.49844 4.04444 -9.25464e-19)
(3.93189 4.63099 -2.25117e-19)
(3.59279 2.62809 6.35023e-18)
(3.57818 2.63695 2.05376e-18)
(3.55212 2.66507 0)
(3.51665 2.71519 0)
(3.47497 2.79023 1.39113e-19)
(3.43259 2.89113 -2.09091e-18)
(3.39788 3.01639 3.43856e-18)
(3.38369 3.16568 -6.55544e-20)
(3.40211 3.34554 1.23236e-18)
(3.47172 3.57491 0)
(3.51173 3.91898 -1.78807e-19)
(3.98773 4.56755 -8.85855e-20)
(3.32084 2.38929 -2.45619e-18)
(3.28629 2.40738 -2.21631e-18)
(3.24292 2.44789 2.41446e-18)
(3.19433 2.51282 -2.28193e-18)
(3.14516 2.60384 -1.22026e-20)
(3.10239 2.71944 4.79066e-18)
(3.07809 2.85376 -2.28307e-18)
(3.09178 3.00132 1.35724e-18)
(3.16041 3.16493 0)
(3.31308 3.36219 8.79623e-19)
(3.47967 3.66694 3.83389e-19)
(4.03883 4.27869 -6.23313e-19)
(3.05929 2.17273 2.63086e-18)
(3.00406 2.19648 -2.64899e-18)
(2.94101 2.24448 -2.45873e-18)
(2.87454 2.31774 -5.23706e-18)
(2.80982 2.41717 5.18198e-18)
(2.75523 2.53853 -5.12262e-18)
(2.72771 2.67017 0)
(2.75666 2.80027 -1.33597e-18)
(2.86348 2.92681 0)
(3.09109 3.06183 0)
(3.38868 3.28516 0)
(3.98907 3.82372 3.07721e-19)
(2.81301 1.98408 3.04041e-18)
(2.7363 2.01184 -6.1273e-18)
(2.65022 2.06397 6.01373e-18)
(2.55876 2.14095 5.8646e-18)
(2.46683 2.24316 2.90842e-18)
(2.38464 2.36317 0)
(2.33657 2.48132 0)
(2.36586 2.57991 3.28495e-18)
(2.49435 2.65075 0)
(2.78565 2.69531 -1.03686e-18)
(3.18997 2.77733 5.95989e-19)
(3.8588 3.04494 -9.74168e-19)
(2.58798 1.82917 -7.08405e-18)
(2.48839 1.8597 6.397e-18)
(2.3734 1.91404 -6.28457e-18)
(2.24618 1.99166 -1.62283e-17)
(2.11116 2.09271 -1.89299e-19)
(1.98223 2.20575 1.27589e-19)
(1.89676 2.30135 -3.53414e-18)
(1.91405 2.35838 -3.30445e-18)
(2.04256 2.35809 0)
(2.37044 2.28724 3.14441e-18)
(2.84907 2.14834 8.87119e-19)
(3.57468 1.87895 -1.41609e-18)
(2.38833 1.71072 -5.14905e-19)
(2.26112 1.74326 0)
(2.10618 1.79797 0)
(1.9262 1.87348 3.44047e-18)
(1.72711 1.97043 1.06619e-17)
(1.53358 2.07284 -3.48177e-18)
(1.40525 2.14115 -1.68721e-19)
(1.40719 2.14932 -1.69947e-18)
(1.51669 2.08185 -1.63346e-18)
(1.82557 1.88563 -1.93385e-18)
(2.34594 1.47379 0)
(2.91995 0.172044 1.87131e-18)
(2.29046 0.303285 2.6236e-22)
(1.86958 0.23036 0)
(1.68452 0.120986 -2.5488e-19)
(1.8506 -0.107029 0)
(1.89516 -1.08013 -8.12237e-19)
(2.05168 -2.50033 4.60603e-19)
(2.97086 -3.20328 0)
(3.42822 -3.59144 1.79202e-18)
(3.87571 -4.09117 -3.3361e-18)
(4.10324 -4.52799 2.57884e-18)
(4.21278 -5.01385 -1.6968e-19)
(4.20394 -5.41013 -1.21605e-19)
(2.80749 0.654121 -1.82129e-19)
(2.53503 0.0226777 -8.08283e-20)
(2.78435 -1.0111 1.79267e-19)
(3.36568 -2.02645 0)
(3.72608 -2.84357 -4.10138e-19)
(3.91624 -3.37302 3.62651e-19)
(4.05127 -3.56539 0)
(4.19401 -3.70053 7.40057e-19)
(4.32452 -3.90812 -1.65419e-18)
(4.40362 -4.13407 8.99952e-19)
(4.45509 -4.36029 -2.70427e-19)
(4.44313 -4.58225 -1.58909e-18)
(3.14624 -0.0171699 -1.81248e-19)
(3.20694 -0.964282 0)
(3.55126 -1.92466 -8.29354e-19)
(3.79804 -2.73991 0)
(3.87544 -3.32708 0)
(3.85049 -3.67324 -7.00452e-19)
(3.88253 -3.83165 3.19484e-18)
(3.87794 -3.99998 -2.30488e-18)
(3.87895 -4.16457 6.13944e-19)
(3.86356 -4.32257 0)
(3.83498 -4.47562 1.18369e-18)
(3.78721 -4.62246 -6.77685e-19)
(3.34957 -0.404568 8.02759e-19)
(3.50772 -1.42817 7.22496e-19)
(3.72003 -2.30571 6.91255e-19)
(3.78648 -2.96585 1.63701e-18)
(3.75656 -3.38276 -1.45855e-18)
(3.70645 -3.63553 -1.00186e-18)
(3.64761 -3.77605 0)
(3.61729 -3.9036 0)
(3.58953 -4.0191 1.20817e-18)
(3.56266 -4.12785 0)
(3.53414 -4.23136 3.24843e-19)
(3.49938 -4.32905 5.56846e-19)
(3.44386 -0.925965 6.73115e-19)
(3.64839 -1.78729 -4.732e-19)
(3.70788 -2.52197 -1.25053e-18)
(3.66963 -3.03879 0)
(3.57987 -3.35241 0)
(3.48947 -3.53735 2.02267e-18)
(3.41251 -3.65879 0)
(3.3521 -3.76751 -2.67063e-18)
(3.30008 -3.86256 -9.93774e-19)
(3.25673 -3.94788 2.10573e-18)
(3.21949 -4.02407 -2.70623e-18)
(3.18544 -4.09062 1.78827e-18)
(3.53317 -1.22521 -6.07878e-19)
(3.74438 -1.96522 -6.77769e-19)
(3.67342 -2.55614 1.11433e-18)
(3.55834 -2.99313 1.64926e-19)
(3.41611 -3.24988 2.16707e-18)
(3.28855 -3.40751 -4.0117e-18)
(3.18353 -3.51872 3.39427e-18)
(3.09829 -3.61186 2.38592e-19)
(3.02915 -3.68922 0)
(2.97541 -3.75337 0)
(2.93451 -3.80485 4.4663e-18)
(2.90454 -3.84394 -4.12796e-20)
(3.65134 -1.35766 -7.83452e-20)
(3.83245 -2.00191 -1.07242e-18)
(3.66754 -2.50565 0)
(3.47951 -2.87093 -2.50877e-18)
(3.28025 -3.09774 2.73101e-18)
(3.11004 -3.24578 6.6398e-18)
(2.97224 -3.3526 3.93883e-18)
(2.86272 -3.43636 4.35416e-19)
(2.77741 -3.50052 -5.90568e-18)
(2.71387 -3.54722 2.63542e-18)
(2.66912 -3.57754 2.70797e-18)
(2.64141 -3.59221 1.14066e-19)
(3.78982 -1.34219 9.54299e-20)
(3.95173 -1.93778 1.89178e-18)
(3.68545 -2.37273 0)
(3.42831 -2.68767 -3.41298e-18)
(3.17219 -2.90598 -2.60214e-18)
(2.9559 -3.05851 2.9294e-19)
(2.78283 -3.16863 -7.81364e-18)
(2.64821 -3.24922 1.79589e-19)
(2.54643 -3.30459 -2.02267e-19)
(2.47319 -3.33723 3.04966e-18)
(2.42474 -3.34926 -2.38357e-18)
(2.39855 -3.34302 1.70381e-19)
(3.97238 -1.24564 -2.93977e-18)
(4.10445 -1.78972 1.09668e-18)
(3.75065 -2.15654 -6.66536e-18)
(3.41496 -2.45854 3.39393e-18)
(3.09878 -2.68576 0)
(2.83289 -2.85349 0)
(2.62137 -2.97466 4.59949e-18)
(2.4596 -3.05824 7.93111e-18)
(2.34037 -3.10892 -3.54483e-18)
(2.2572 -3.13053 -3.07822e-18)
(2.20477 -3.12692 -2.86653e-18)
(2.17936 -3.10178 0)
(4.1942 -1.06575 6.10974e-21)
(4.33418 -1.60732 4.52931e-18)
(3.87298 -1.8959 9.82936e-18)
(3.44409 -2.19484 0)
(3.06361 -2.44304 6.78005e-18)
(2.74497 -2.63592 0)
(2.49322 -2.77653 1.61902e-19)
(2.30285 -2.86941 -4.20999e-18)
(2.16516 -2.92013 4.13328e-18)
(2.07158 -2.93416 0)
(2.01448 -2.91746 0)
(1.98881 -2.87584 -6.50277e-18)
(4.50199 -1.09937 -6.32773e-18)
(4.4936 -1.29421 3.6495e-18)
(3.9604 -1.53913 4.76062e-19)
(3.45587 -1.88116 -8.91591e-18)
(3.03341 -2.17229 -3.33416e-18)
(2.67855 -2.40586 -3.09416e-18)
(2.39505 -2.57639 -5.55434e-18)
(2.17921 -2.6869 -1.46787e-17)
(2.02428 -2.74354 -4.04457e-18)
(1.9207 -2.75392 -8.28296e-18)
(1.85872 -2.7269 7.77776e-18)
(1.83204 -2.67087 6.88277e-18)
(3.86049 -0.394699 3.33467e-18)
(3.91941 -0.805053 -1.42572e-18)
(3.52459 -1.11871 3.0218e-19)
(3.15862 -1.50933 7.85548e-18)
(2.85434 -1.8729 0)
(2.55637 -2.16393 -6.70913e-18)
(2.29079 -2.37455 5.8158e-18)
(2.0739 -2.5107 4.90283e-18)
(1.91239 -2.58077 -1.5115e-17)
(1.80342 -2.59257 8.86245e-18)
(1.73822 -2.55858 -8.29169e-18)
(1.71107 -2.49028 0)
(4.09889 -5.76273 -2.0919e-18)
(3.91672 -6.01824 5.29593e-18)
(3.67086 -6.18303 -2.05356e-18)
(3.38442 -6.24097 -2.20298e-18)
(3.05539 -6.20006 1.80632e-18)
(2.71381 -6.03618 -1.7842e-19)
(2.36496 -5.74535 4.12089e-20)
(2.03364 -5.3233 4.82673e-20)
(1.72521 -4.76566 -1.08635e-18)
(1.41607 -4.02223 0)
(1.03431 -3.23053 0)
(0.231032 -2.82147 2.70755e-20)
(4.38055 -4.79742 3.85333e-20)
(4.26697 -4.9896 4.35745e-19)
(4.10324 -5.15511 -8.87709e-19)
(3.89569 -5.27604 0)
(3.67016 -5.32375 5.13747e-19)
(3.43771 -5.29091 0)
(3.21099 -5.16886 7.83374e-19)
(3.00941 -4.95604 1.99013e-18)
(2.85327 -4.65333 -1.66729e-18)
(2.73678 -4.15166 0)
(2.63143 -3.60471 0)
(2.34786 -3.45137 4.50943e-20)
(3.7192 -4.75823 2.0911e-19)
(3.63422 -4.8704 -2.0543e-19)
(3.53764 -4.94822 3.50846e-19)
(3.43758 -4.98195 0)
(3.33978 -4.96412 -5.69262e-19)
(3.25382 -4.89092 1.88506e-18)
(3.18891 -4.75898 -2.68602e-18)
(3.1576 -4.56982 -3.68594e-18)
(3.17307 -4.32992 2.49053e-18)
(3.23762 -3.96786 0)
(3.30395 -3.55224 4.95677e-19)
(3.2679 -3.51616 1.55977e-19)
(3.45647 -4.41516 5.20085e-19)
(3.407 -4.48175 -1.30934e-18)
(3.35464 -4.52183 1.41635e-18)
(3.30646 -4.52973 -1.43539e-18)
(3.2708 -4.50209 0)
(3.25501 -4.43764 9.65929e-19)
(3.26692 -4.33698 8.98028e-19)
(3.31624 -4.20297 6.42855e-19)
(3.41458 -4.04392 -1.36645e-18)
(3.57091 -3.84169 0)
(3.79113 -3.50883 -2.79098e-19)
(4.07039 -3.68416 3.87886e-19)
(3.154 -4.14364 1.6109e-18)
(3.12807 -4.17677 -8.13027e-19)
(3.1108 -4.1878 0)
(3.10363 -4.1765 0)
(3.1172 -4.14138 9.21275e-19)
(3.15513 -4.08404 -8.27986e-19)
(3.22246 -4.00771 -1.34469e-19)
(3.32593 -3.91699 0)
(3.47692 -3.8192 -6.23648e-19)
(3.69062 -3.72255 7.40902e-19)
(3.98651 -3.48528 -6.08543e-19)
(4.4198 -3.79983 -1.31978e-19)
(2.88673 -3.86677 -3.41181e-18)
(2.87968 -3.87382 1.72834e-18)
(2.88685 -3.86554 3.77425e-18)
(2.91337 -3.84186 3.03104e-21)
(2.9625 -3.80393 -4.69013e-18)
(3.03766 -3.75571 -2.05267e-18)
(3.14103 -3.70274 -1.37096e-19)
(3.27643 -3.65329 0)
(3.45394 -3.61682 0)
(3.69321 -3.60326 -6.4899e-19)
(4.03819 -3.49897 -5.35988e-19)
(4.6249 -3.93266 9.44947e-20)
(2.63098 -3.59178 2.14234e-18)
(2.63859 -3.57811 -4.32509e-18)
(2.66527 -3.55295 -1.90894e-18)
(2.7139 -3.51821 -1.20313e-19)
(2.78746 -3.47712 1.93424e-18)
(2.88703 -3.43514 1.99776e-18)
(3.01127 -3.40062 1.18565e-18)
(3.15993 -3.38638 1.18424e-18)
(3.33955 -3.40455 -1.32036e-18)
(3.56903 -3.47372 0)
(3.91335 -3.51314 7.44939e-19)
(4.56219 -3.98871 -2.81494e-19)
(2.39385 -3.32153 0)
(2.41064 -3.28798 2.21492e-18)
(2.44965 -3.24551 0)
(2.51296 -3.19764 -1.24067e-19)
(2.60234 -3.14898 -1.19675e-20)
(2.71641 -3.10649 4.79591e-18)
(2.84955 -3.08224 -4.84588e-18)
(2.99636 -3.09568 0)
(3.1597 -3.16384 -1.51669e-18)
(3.35707 -3.31579 8.8105e-19)
(3.66221 -3.48148 -1.45783e-18)
(4.27499 -4.04011 7.47566e-19)
(2.17858 -3.06131 2.62443e-18)
(2.20105 -3.00715 -2.64454e-18)
(2.24753 -2.94498 -2.68991e-18)
(2.31914 -2.87918 2.67353e-18)
(2.41683 -2.81489 2.60128e-18)
(2.53656 -2.76049 -7.87856e-18)
(2.66688 -2.73291 2.57927e-18)
(2.79618 -2.76147 0)
(2.92242 -2.86763 1.43357e-18)
(3.05765 -3.09435 0)
(3.28144 -3.39095 1.96276e-18)
(3.82106 -3.99028 -1.5451e-18)
(1.9907 -2.816 0)
(2.01728 -2.74029 -6.12153e-18)
(2.06795 -2.65505 -3.23424e-18)
(2.1433 -2.5642 -5.64848e-18)
(2.24378 -2.47262 2.90995e-18)
(2.36208 -2.39059 2.85115e-18)
(2.47887 -2.34239 0)
(2.57667 -2.3712 0)
(2.64723 -2.49894 0)
(2.69202 -2.78924 0)
(2.77469 -3.19252 -5.71841e-19)
(3.04428 -3.86033 -7.00756e-20)
(1.83607 -2.59141 3.38572e-18)
(1.86555 -2.49275 3.04354e-18)
(1.91854 -2.37851 1.30336e-17)
(1.99462 -2.25181 3.47189e-18)
(2.09399 -2.11707 1.3366e-17)
(2.20531 -1.98833 -3.32921e-18)
(2.29957 -1.90274 -3.53758e-18)
(2.35588 -1.91954 0)
(2.35533 -2.04722 -3.61028e-18)
(2.28479 -2.3741 -2.05517e-18)
(2.14682 -2.85191 -1.61245e-18)
(1.87998 -3.57599 -9.26061e-26)
(1.71745 -2.39175 0)
(1.74908 -2.26531 0)
(1.80256 -2.11099 -1.47914e-17)
(1.87665 -1.93142 -1.07753e-17)
(1.972 -1.73259 -3.39844e-18)
(2.07276 -1.53934 0)
(2.13977 -1.41088 3.50992e-18)
(2.14732 -1.41229 0)
(2.0797 -1.52113 -1.02387e-19)
(1.88388 -1.82915 1.93616e-18)
(1.47325 -2.34893 5.38815e-19)
(0.174451 -2.92176 3.71875e-18)
(0.304321 -2.29026 5.9354e-20)
(0.231407 -1.86913 3.84585e-19)
(0.122002 -1.68389 -5.52946e-19)
(-0.106262 -1.85009 1.74725e-19)
(-1.08082 -1.89489 0)
(-2.50274 -2.05273 2.70511e-19)
(-3.20675 -2.97332 0)
(-3.59571 -3.4318 6.00059e-20)
(-4.0963 -3.8803 2.66769e-18)
(-4.53388 -4.10849 -1.39879e-18)
(-5.02041 -4.21856 -3.35764e-18)
(-5.41721 -4.20996 2.05667e-18)
(0.655008 -2.80735 4.69357e-19)
(0.023354 -2.53472 -3.78836e-19)
(-1.01137 -2.78418 2.29259e-19)
(-2.02824 -3.36633 -6.21857e-20)
(-2.84696 -3.72741 -4.10668e-19)
(-3.37763 -3.91824 -9.89124e-20)
(-3.5704 -4.05376 -7.9888e-19)
(-3.70571 -4.19718 -1.27792e-18)
(-3.9135 -4.3283 2.26267e-18)
(-4.13963 -4.40798 -3.94127e-19)
(-4.36602 -4.45988 8.58237e-19)
(-4.58812 -4.44822 6.58064e-19)
(-0.0163332 -3.14672 -3.62916e-19)
(-0.964664 -3.20707 0)
(-1.92656 -3.55188 0)
(-2.74348 -3.79917 -6.42259e-19)
(-3.33197 -3.87687 0)
(-3.67863 -3.85216 -8.10394e-19)
(-3.83717 -3.88465 6.96449e-19)
(-4.00567 -3.88037 1.54672e-18)
(-4.17034 -3.88177 -1.0104e-18)
(-4.32835 -3.86678 -9.65015e-19)
(-4.48137 -3.83858 -1.44044e-18)
(-4.62814 -3.79116 1.30931e-18)
(-0.404131 -3.35003 -1.60851e-18)
(-1.42916 -3.50806 -7.23038e-19)
(-2.30829 -3.72068 1.08529e-18)
(-2.96995 -3.78727 6.08898e-19)
(-3.38781 -3.75738 0)
(-3.64098 -3.70736 -2.90365e-18)
(-3.78163 -3.64863 2.83742e-18)
(-3.90923 -3.61862 0)
(-4.02465 -3.59122 1.68089e-18)
(-4.13327 -3.56478 -2.53797e-18)
(-4.23659 -3.53673 1.59019e-18)
(-4.33406 -3.50244 2.35806e-19)
(-0.926034 -3.44438 1.00379e-18)
(-1.78863 -3.64863 1.33739e-18)
(-2.5248 -3.70815 2.92076e-19)
(-3.04294 -3.66973 0)
(-3.35733 -3.57981 -1.97343e-18)
(-3.54256 -3.48936 3.37765e-18)
(-3.66406 -3.41246 0)
(-3.77275 -3.35226 -1.48465e-18)
(-3.86766 -3.30055 -1.29899e-18)
(-3.95277 -3.25764 2.10313e-18)
(-4.02869 -3.2209 0)
(-4.09494 -3.18742 -1.53169e-18)
(-1.2249 -3.53382 5.635e-19)
(-1.9664 -3.7441 2.65625e-19)
(-2.55878 -3.67298 -1.11466e-18)
(-2.997 -3.55765 -4.99593e-18)
(-3.2544 -3.41512 -7.94867e-20)
(-3.41225 -3.28738 4.17401e-18)
(-3.5235 -3.18234 0)
(-3.61654 -3.09721 4.51353e-18)
(-3.69371 -3.02833 -2.58045e-18)
(-3.75757 -2.975 2.36437e-18)
(-3.8087 -2.93461 1.93519e-19)
(-3.84736 -2.90528 4.16441e-20)
(-1.36195 -3.64574 -7.19781e-19)
(-2.00393 -3.8321 -7.67651e-19)
(-2.5082 -3.66673 0)
(-2.87436 -3.47821 5.29045e-18)
(-3.1017 -3.27846 -7.79594e-18)
(-3.24993 -3.10791 -1.44209e-19)
(-3.35673 -2.96995 -7.62048e-18)
(-3.44036 -2.86044 2.10895e-19)
(-3.50426 -2.77531 -2.89051e-18)
(-3.55059 -2.71212 -2.77094e-18)
(-3.58041 -2.66786 2.70182e-18)
(-3.59445 -2.64081 -2.2909e-18)
(-1.33462 -3.7992 -2.72349e-20)
(-1.93745 -3.95097 -9.68436e-19)
(-2.37451 -3.68458 0)
(-2.69045 -3.42652 3.41159e-18)
(-2.90926 -3.16973 2.45523e-18)
(-3.06196 -2.95294 2.07015e-18)
(-3.17205 -2.77958 -2.236e-19)
(-3.25247 -2.64486 3.89382e-20)
(-3.30751 -2.54318 -3.28223e-18)
(-3.33967 -2.47022 -2.49073e-19)
(-3.35108 -2.42222 1.79805e-19)
(-3.3441 -2.3967 0)
(-1.25496 -3.96361 1.44494e-18)
(-1.79101 -4.10349 0)
(-2.15801 -3.74907 0)
(-2.46066 -3.41281 -3.39357e-18)
(-2.68831 -3.09584 2.83089e-18)
(-2.85621 -2.82931 -5.31944e-18)
(-2.97736 -2.61735 0)
(-3.06073 -2.45538 3.86717e-18)
(-3.11103 -2.33615 -1.91133e-19)
(-3.13209 -2.2532 3.07506e-18)
(-3.12773 -2.20118 -3.12276e-18)
(-3.10183 -2.17648 5.78395e-18)
(-1.06068 -4.19803 4.64933e-18)
(-1.60738 -4.33348 -1.51664e-18)
(-1.89657 -3.87196 -5.17877e-18)
(-2.19619 -3.44182 -8.18328e-18)
(-2.44483 -3.06038 0)
(-2.63793 -2.74096 5.34213e-18)
(-2.77854 -2.48866 -9.85252e-18)
(-2.8712 -2.29799 4.16073e-18)
(-2.92149 -2.16022 4.12884e-18)
(-2.9349 -2.06679 0)
(-2.91738 -2.01004 -3.7174e-18)
(-2.87497 -1.98505 -6.00163e-18)
(-1.09881 -4.50299 -6.386e-18)
(-1.29358 -4.49257 1.63526e-18)
(-1.53906 -3.9589 4.68187e-18)
(-1.88168 -3.45333 3.9341e-18)
(-2.17332 -3.02993 1.62703e-20)
(-2.40718 -2.67427 -9.35374e-18)
(-2.57776 -2.39016 1.06674e-17)
(-2.68807 -2.17396 1.93198e-17)
(-2.74426 -2.01889 -1.28153e-17)
(-2.75398 -1.91539 -8.27215e-18)
(-2.72613 -1.8537 7.26411e-18)
(-2.6692 -1.82762 0)
(-0.393598 -3.86007 5.22593e-18)
(-0.80386 -3.91793 1.82909e-18)
(-1.1181 -3.52246 2.07339e-18)
(-1.5093 -3.15574 8.30295e-18)
(-1.87337 -2.85063 0)
(-2.16466 -2.55184 6.39353e-18)
(-2.37538 -2.28571 -1.21599e-17)
(-2.51138 -2.06846 -5.20379e-18)
(-2.581 -1.90681 -4.97109e-18)
(-2.59209 -1.79787 8.84723e-18)
(-2.55727 -1.73291 4.55224e-18)
(-2.48806 -1.70627 1.24207e-17)
(-5.77013 -4.10501 7.06533e-19)
(-6.0258 -3.92271 9.14069e-20)
(-6.19055 -3.67656 1.61529e-18)
(-6.24828 -3.38968 -4.42549e-18)
(-6.20689 -3.06006 1.74139e-18)
(-6.04235 -2.71781 0)
(-5.75073 -2.36823 -3.40274e-19)
(-5.32776 -2.03619 2.17198e-19)
(-4.76921 -1.72712 0)
(-4.02491 -1.41749 3.58123e-20)
(-3.23192 -1.03545 0)
(-2.82247 -0.232806 -3.80475e-19)
(-4.8034 -4.38581 -8.92016e-19)
(-4.99563 -4.27227 1.34325e-18)
(-5.16106 -4.10849 5.94017e-19)
(-5.28169 -3.90089 -1.44337e-19)
(-5.329 -3.67522 0)
(-5.29568 -3.44253 0)
(-5.17309 -3.21549 1.09478e-18)
(-4.95965 -3.01347 -1.21961e-18)
(-4.65622 -2.8568 0)
(-4.154 -2.73988 6.28153e-19)
(-3.60589 -2.63439 -7.03782e-20)
(-3.45172 -2.35111 -1.16601e-18)
(-4.76377 -3.72346 6.33036e-19)
(-4.8757 -3.63877 -9.35115e-19)
(-4.9532 -3.54245 0)
(-4.98653 -3.44258 -1.15418e-18)
(-4.96828 -3.34489 -1.47106e-18)
(-4.89464 -3.25891 3.45836e-18)
(-4.76222 -3.19387 -3.36179e-18)
(-4.57254 -3.16229 0)
(-4.33202 -3.1774 0)
(-3.96942 -3.24158 0)
(-3.55304 -3.308 -5.64993e-19)
(-3.51631 -3.27171 1.1624e-19)
(-4.4199 -3.46 -5.17654e-19)
(-4.48615 -3.41096 -2.87433e-19)
(-4.52581 -3.35899 0)
(-4.53326 -3.31119 -2.46407e-19)
(-4.50514 -3.27585 0)
(-4.44021 -3.26023 0)
(-4.33907 -3.27217 9.3934e-19)
(-4.20458 -3.32139 -1.26465e-18)
(-4.04504 -3.41955 1.4009e-18)
(-3.84238 -3.57561 0)
(-3.50923 -3.79567 -3.24329e-19)
(-3.68398 -4.07503 -3.74528e-19)
(-4.14761 -3.15655 3.38914e-18)
(-4.18018 -3.13134 -8.04353e-19)
(-4.19072 -3.11463 1.44817e-18)
(-4.17884 -3.10794 7.46269e-19)
(-4.14319 -3.122 -2.58863e-18)
(-4.08533 -3.16031 0)
(-4.00855 -3.22782 -1.05607e-18)
(-3.91742 -3.33131 0)
(-3.81932 -3.48216 0)
(-3.72241 -3.69565 7.39196e-19)
(-3.48529 -3.99115 6.0821e-20)
(-3.79931 -4.42435 4.2006e-19)
(-3.86952 -2.88823 -1.50493e-18)
(-3.87603 -2.88182 -1.16671e-19)
(-3.86712 -2.8898 0)
(-3.84282 -2.91707 0)
(-3.80434 -2.96689 -2.98686e-18)
(-3.75561 -3.04258 1.90381e-18)
(-3.70224 -3.14628 2.04247e-18)
(-3.65252 -3.28179 1.11937e-18)
(-3.61594 -3.45919 -2.6984e-18)
(-3.60243 -3.69815 -6.47917e-19)
(-3.49858 -4.04277 0)
(-3.9319 -4.62914 3.56577e-19)
(-3.59331 -2.63118 -4.4296e-18)
(-3.57896 -2.63966 1.83389e-18)
(-3.55309 -2.66727 2.03524e-18)
(-3.51772 -2.71681 1.1388e-19)
(-3.47606 -2.79124 -2.50929e-19)
(-3.43362 -2.89152 -2.2243e-18)
(-3.39877 -3.01623 -3.35992e-18)
(-3.3844 -3.16506 -1.25736e-18)
(-3.40264 -3.34455 1.23243e-18)
(-3.47207 -3.57363 0)
(-3.51196 -3.91751 1.28881e-18)
(-3.9878 -4.56585 -3.45625e-19)
(-3.32182 -2.39284 4.68346e-18)
(-3.28749 -2.41061 -2.61314e-18)
(-3.24426 -2.45065 -2.40909e-18)
(-3.19571 -2.515 -4.43238e-18)
(-3.14649 -2.6054 4.4633e-18)
(-3.10357 -2.72035 -1.52295e-19)
(-3.07907 -2.85406 7.23356e-18)
(-3.09254 -3.00109 1.19884e-18)
(-3.16094 -3.16426 1.51422e-18)
(-3.31342 -3.36116 0)
(-3.47988 -3.66565 -8.91675e-19)
(-4.03892 -4.27728 -4.28107e-19)
(-3.06046 -2.17648 0)
(-3.00539 -2.19999 2.49322e-18)
(-2.94241 -2.24758 2.45376e-18)
(-2.87591 -2.32032 -2.55977e-18)
(-2.81105 -2.41914 -1.11195e-19)
(-2.75623 -2.53985 -2.74649e-18)
(-2.72849 -2.67083 -2.57536e-18)
(-2.75722 -2.80036 0)
(-2.86383 -2.92642 -1.43149e-18)
(-3.0913 -3.06099 -9.5821e-19)
(-3.38879 -3.28402 3.13935e-18)
(-3.98912 -3.82233 -7.11102e-19)
(-2.81411 -1.98776 0)
(-2.73746 -2.01538 0)
(-2.65134 -2.06718 0)
(-2.55975 -2.14371 -8.84953e-18)
(-2.46759 -2.24537 5.78012e-18)
(-2.38513 -2.36474 5.79389e-18)
(-2.33686 -2.4822 0)
(-2.36601 -2.58021 -3.28571e-18)
(-2.49435 -2.65053 0)
(-2.78563 -2.69457 -2.04792e-18)
(-3.18992 -2.77627 -5.71573e-19)
(-3.85881 -3.04371 -9.74588e-19)
(-2.58872 -1.8325 0)
(-2.48906 -1.86302 0)
(-2.37389 -1.91714 6.73894e-18)
(-2.24642 -1.99441 9.49557e-18)
(-2.11109 -2.09499 3.28186e-19)
(-1.98188 -2.2074 3.45201e-18)
(-1.89634 -2.30228 -1.76353e-18)
(-1.91366 -2.35874 4.97711e-18)
(-2.04211 -2.35789 3.60732e-18)
(-2.37016 -2.28648 1.90998e-18)
(-2.84889 -2.14729 -1.61148e-18)
(-3.57469 -1.87775 -1.63037e-18)
(-2.38849 -1.71349 0)
(-2.261 -1.74615 0)
(-2.10572 -1.80075 -7.13716e-18)
(-1.92536 -1.87601 3.90429e-18)
(-1.7259 -1.97258 -3.39128e-18)
(-1.53218 -2.07438 -3.48047e-18)
(-1.40403 -2.14193 3.67278e-18)
(-1.40614 -2.14956 0)
(-1.51587 -2.08153 -3.30328e-18)
(-1.82526 -1.8847 -1.96999e-18)
(-2.3458 -1.47269 2.03894e-18)
(-2.92022 -0.171085 -3.61454e-18)
(-2.28949 -0.303145 5.7077e-20)
(-1.86925 -0.229943 0)
(-1.68248 -0.121837 0)
(-1.84733 0.102678 1.07807e-18)
(-1.89677 1.06958 -1.08011e-18)
(-2.04252 2.49256 0)
(-2.96589 3.20649 0)
(-3.42468 3.59247 6.04839e-20)
(-3.87448 4.09442 3.33062e-19)
(-4.10303 4.53099 -9.46116e-19)
(-4.21378 5.01822 -3.52279e-18)
(-4.20539 5.41473 1.35102e-18)
(-2.80635 -0.655098 -6.05867e-19)
(-2.53467 -0.0279385 0)
(-2.78023 1.00459 0)
(-3.3606 2.02323 -3.6042e-19)
(-3.72498 2.84363 6.92552e-19)
(-3.91509 3.3775 -1.59571e-18)
(-4.05118 3.57138 1.16067e-18)
(-4.19387 3.70512 6.96345e-19)
(-4.32521 3.91296 1.09033e-19)
(-4.40472 4.13822 7.94181e-19)
(-4.45696 4.36444 0)
(-4.44542 4.58611 1.86037e-19)
(-3.14639 0.0118122 3.598e-19)
(-3.20496 0.959562 0)
(-3.54983 1.9222 0)
(-3.7973 2.74041 -3.89805e-19)
(-3.87642 3.32984 3.1286e-19)
(-3.85068 3.67799 -1.16143e-18)
(-3.88265 3.83715 0)
(-3.87803 4.00499 -2.2475e-18)
(-3.8792 4.1695 2.36141e-18)
(-3.86384 4.32698 -5.15793e-19)
(-3.83543 4.4797 -1.01412e-18)
(-3.78778 4.62611 1.31548e-18)
(-3.35077 0.399627 -8.07466e-19)
(-3.50749 1.42457 7.23202e-19)
(-3.72049 2.30474 0)
(-3.78711 2.96787 6.07049e-19)
(-3.75743 3.38642 -5.88907e-19)
(-3.70695 3.64034 9.98448e-19)
(-3.6476 3.781 0)
(-3.61687 3.90797 -1.41599e-18)
(-3.58901 4.02295 -2.89628e-18)
(-3.56212 4.13105 1.83118e-18)
(-3.53371 4.234 1.59582e-18)
(-3.49913 4.33117 -3.24648e-18)
(-3.44485 0.920953 5.026e-19)
(-3.64859 1.78424 -5.78132e-19)
(-3.7086 2.52175 1.25118e-18)
(-3.67017 3.04113 0)
(-3.58013 3.35603 -4.14202e-18)
(-3.48922 3.54143 3.81355e-18)
(-3.41176 3.66254 1.74783e-18)
(-3.35101 3.77074 1.17418e-18)
(-3.29876 3.86522 0)
(-3.25534 3.94993 0)
(-3.21814 4.02556 0)
(-3.18423 4.09161 -4.27603e-19)
(-3.53431 1.22071 1.21945e-18)
(-3.74472 1.96263 0)
(-3.67399 2.55624 -1.11596e-18)
(-3.55852 2.99535 2.58245e-18)
(-3.41576 3.25297 2.1728e-18)
(-3.28764 3.41064 -3.89921e-18)
(-3.18213 3.52143 1.839e-18)
(-3.09652 3.61403 -6.11914e-18)
(-3.02712 3.69082 3.33946e-20)
(-2.97327 3.75438 -1.67111e-19)
(-2.93237 3.80532 1.93969e-19)
(-2.90253 3.8439 5.79497e-18)
(-3.65199 1.35408 -2.76768e-18)
(-3.83288 1.99981 1.89887e-18)
(-3.66804 2.50577 -2.65507e-18)
(-3.47945 2.87276 -2.51041e-18)
(-3.27954 3.10015 -4.9241e-18)
(-3.1087 3.24804 -2.49648e-18)
(-2.97039 3.35438 -3.69801e-18)
(-2.86046 3.4376 6.24179e-18)
(-2.77487 3.5012 0)
(-2.71119 3.54733 5.21316e-18)
(-2.66641 3.57712 -7.21936e-18)
(-2.63879 3.59128 2.43329e-18)
(-3.79075 1.33894 -1.52169e-18)
(-3.95241 1.93596 -3.05168e-18)
(-3.68601 2.37282 4.52522e-18)
(-3.42826 2.68904 0)
(-3.17137 2.90767 -2.95825e-18)
(-2.95439 3.05996 4.41078e-18)
(-2.78076 3.1696 -2.28395e-19)
(-2.64571 3.24968 -3.83919e-20)
(-2.54361 3.30451 -3.20727e-18)
(-2.47019 3.33663 -5.80281e-18)
(-2.42169 3.34817 2.55229e-18)
(-2.39558 3.34147 -2.51843e-18)
(-3.97309 1.24322 1.79466e-18)
(-4.10528 1.78823 0)
(-3.7515 2.15646 0)
(-3.41519 2.45935 0)
(-3.09817 2.68675 2.83917e-18)
(-2.83152 2.85423 0)
(-2.61937 2.97497 -1.91235e-19)
(-2.45711 3.05807 7.81003e-18)
(-2.33752 3.10829 1.16438e-19)
(-2.25414 3.12945 3.08417e-18)
(-2.20164 3.12541 -2.97889e-18)
(-2.17628 3.09987 8.62735e-18)
(-4.19558 1.06409 6.23781e-21)
(-4.33566 1.60625 8.21295e-18)
(-3.87435 1.89571 -2.40419e-18)
(-3.44487 2.19514 0)
(-3.06351 2.4434 0)
(-2.74403 2.63605 0)
(-2.49157 2.7763 0)
(-2.30063 2.86878 4.28938e-18)
(-2.16253 2.91913 -1.5781e-17)
(-2.06869 2.9328 -7.44558e-18)
(-2.01149 2.91577 6.9605e-18)
(-1.98582 2.87384 3.59772e-18)
(-4.50294 1.09912 -6.38004e-18)
(-4.49485 1.29353 -5.14195e-18)
(-3.96191 1.53862 -2.74634e-18)
(-3.45703 1.88093 0)
(-3.03383 2.17203 0)
(-2.67819 2.40542 6.34593e-18)
(-2.39395 2.57568 -1.09497e-17)
(-2.17748 2.68592 1.95721e-17)
(-2.02206 2.74233 1.30391e-17)
(-1.91817 2.75248 7.78626e-18)
(-1.85605 2.72524 -7.28773e-18)
(-1.82936 2.66902 4.96575e-19)
(-3.86139 0.394819 -1.7581e-18)
(-3.92014 0.804738 0)
(-3.52553 1.11809 4.00488e-18)
(-3.15942 1.5086 -1.23613e-17)
(-2.85471 1.87206 1.11301e-17)
(-2.55624 2.16296 3.03953e-19)
(-2.29012 2.37344 5.81832e-18)
(-2.07268 2.50943 -5.22139e-18)
(-1.91067 2.57943 -2.4789e-17)
(-1.80136 2.59117 0)
(-1.736 2.55712 0)
(-1.7088 2.48877 5.15746e-19)