/*--------------------------------*- C++ -*----------------------------------*\
| =========                 |                                                 |
| \\      /  F ield         | foam-extend: Open Source CFD                    |
|  \\    /   O peration     | Version:     4.0                                |
|   \\  /    A nd           | Web:         http://www.foam-extend.org         |
|    \\/     M anipulation  |                                                 |
\*---------------------------------------------------------------------------*/
FoamFile
{
    version     2.0;
    format      ascii;
    class       volScalarField;
    location    "2500";
    object      epsilon;
}
// * * * * * * * * * * * * * * * * * * * * * * * * * * * * * * * * * * * * * //

dimensions      [0 2 -3 0 0 0 0];

internalField   nonuniform List<scalar> 
34480
(
4930.67
4928.64
4928.53
4930.03
4933.24
4938.4
4951.02
5004.67
5194.52
5725.83
655.443
602.144
601.226
653.199
838.743
1576.06
5099.52
22849.8
103709
382386
618.84
523.178
509.528
569.165
809.965
1829.13
7041.66
35119.1
172535
699243
524.862
439.451
427.412
485.114
733.833
1883.43
8219.38
44412.5
232219
1.01098e+06
456.703
384.821
377.384
433.15
684.848
1927.57
9177.99
52591.4
289184
1.33361e+06
392.528
332.845
326.611
378.482
628.387
1956.29
10121.4
61045.5
350634
1.6987e+06
353.289
302.794
298.397
346.419
591.497
1962.79
10725.7
67199.6
400352
2.02276e+06
321.38
282.119
277.717
317.51
534.207
1820.51
10350.4
66983.7
412652
2.16764e+06
460.061
435.977
433.368
458.777
597.101
1410.14
6840.93
43696
275988
1.49853e+06
5709.12
5709.36
5714.81
5726.76
5743.59
5763.66
5787.87
5823.82
5890.22
5958.89
4856.09
4853.57
4853.08
4854.57
4858.58
4865.59
4876.72
4902.84
4965.48
5186.01
512.07
479.2
473.565
487.685
532.09
648.533
1002.86
2354.53
11801.3
103648
447.068
383.995
370.295
389.701
458.495
645.771
1229.69
3567.12
21358.2
197644
399.665
338.723
325.263
344.971
416.44
620.189
1294.48
4289.56
30234.6
294759
365.889
311.155
300.617
319.827
390.78
598.923
1321.84
4812.22
38717
396503
326.361
278.978
269.171
286.457
352.239
554.146
1294.13
5180.43
47348.7
508566
302.555
260.859
252.681
267.944
328.939
521.465
1256.19
5361.09
54216.3
607813
283.12
249.972
242.295
253.914
301.569
456.65
1074.66
4827.99
54992.1
652021
432.855
410.966
405.863
413.327
443.448
531.687
848.139
2980.67
36399.7
467545
5591.65
5587.34
5587.85
5594.49
5606.17
5620.75
5640.11
5673.13
5740.79
5913.69
4770.95
4768.55
4767.8
4768.62
4771.24
4775.38
4780.2
4791
4815.06
4870.12
399.89
386.445
383.782
388.54
403.674
439.041
527.091
758.599
1516.83
5758.45
308.151
276.92
270.084
279.262
309.674
379.292
550.408
1030.16
2859.52
14988.4
290.284
256.46
248.787
259.363
294.522
378.442
597.23
1279.8
4409.21
28919.6
280.878
247.918
241.47
252.426
289.537
380.325
629.037
1481.34
6140.45
47809.7
261.351
231.096
224.605
235.004
270.702
361.671
625.237
1625.62
8150.8
73152.7
250.557
222.535
216.943
226.434
260.526
349.189
617.196
1724.54
10165.3
101598
243.079
220.111
214.698
222.324
249.661
322.19
549.95
1594.46
11043.2
122896
402.726
386.384
382.633
388.281
408.715
461.625
607.134
1235.56
7680.91
92096.2
5481.98
5474.88
5472.59
5476.17
5484.96
5496.95
5513.46
5544.24
5616.72
5802.13
4674.93
4673.43
4673
4673.63
4675.43
4677.72
4678.72
4681.53
4688.94
4705.05
328.461
324.34
323.52
324.615
328.696
339.05
365.06
421.603
541.212
940.361
219.317
206.063
203.212
207.255
220.647
248.939
309.075
445.238
772.137
2085.83
214.445
197.725
193.792
199.314
217.271
256.762
345.547
565.537
1169.54
4141.66
217.579
199.541
195.953
202.153
222.757
269.304
379.536
675.978
1611.22
7155.36
210.718
192.771
188.734
195.125
216.353
266.433
392.103
761.676
2117.7
11599.9
208.514
190.732
187.086
193.238
214.635
266.166
401.081
827.413
2633.56
17124
209.986
194.709
190.987
196.28
214.35
258.902
379.801
795.216
2860.89
21850.9
375.692
363.707
360.873
365.065
380.028
417.003
508.759
782.71
2181.15
16545.4
5359.99
5352.91
5350.35
5353.41
5361.68
5374.06
5391.19
5422.06
5488.87
5632.08
4569.53
4568.84
4568.7
4569.1
4570.07
4570.78
4569.46
4568.33
4568.27
4570.03
285.509
284.768
284.669
284.438
284.433
286.168
293.405
307.379
329.716
375.955
167.905
162.887
161.846
163.265
168.298
178.519
198.301
237.435
308.117
484.23
166.471
158.747
156.787
159.284
167.54
184.775
219.572
294.214
443.138
889.763
173.918
164.609
162.677
165.767
176.216
198.555
246.037
356.472
601.425
1498
173.618
163.426
160.934
164.479
176.214
202.443
261.464
410.92
783.887
2434.98
176.095
165.193
162.822
166.448
179.081
207.885
275.363
457.579
966.534
3640.76
183.354
173.476
170.906
174.286
185.612
212.181
276.685
463.6
1058.69
4746.63
351.361
342.76
340.577
343.465
354.008
379.261
438.186
581.553
1009.51
3814.35
5230.32
5223.39
5220.67
5223.25
5230.87
5242.95
5259.61
5288
5343.68
5446.04
4455.71
4455.65
4455.73
4455.95
4456.32
4455.99
4453.97
4451.88
4450.1
4449.03
259.797
259.88
259.962
259.442
258.449
258.049
259.946
263.299
268.031
275.304
139.444
137.798
137.529
137.914
139.529
142.772
148.674
159.186
175.182
203.047
137.538
134.157
133.234
134.28
137.832
144.899
157.838
182.367
222.508
303.004
145.047
140.514
139.564
140.992
145.962
156.015
175.325
215.179
286.341
458.042
147.362
141.842
140.389
142.253
148.412
161.441
187.869
247.286
364.054
701.813
151.782
145.382
143.935
145.961
153.088
168.452
200.812
278.312
444.174
1014.09
162.271
156.17
154.494
156.573
163.401
178.662
212.138
297.467
500.453
1320.59
329.482
323.586
321.979
323.932
331.272
348.552
387.058
467.618
640
1290.59
5092.36
5085.83
5083.13
5085.33
5092.25
5103.53
5119.02
5143.94
5187.01
5254.27
4334.2
4334.55
4334.78
4334.88
4334.86
4333.9
4332.03
4330.03
4328.21
4326.87
243.796
243.751
243.776
243.301
242.372
241.927
242.289
243.018
244.121
245.925
123.984
123.572
123.579
123.617
124.004
124.851
126.394
128.976
132.496
137.195
120.667
119.232
118.808
119.223
120.696
123.517
128.269
136.263
147.554
163.747
126.666
124.564
124.141
124.754
127.007
131.346
138.963
152.943
174.38
210.558
129.507
126.629
125.819
126.752
129.859
136.116
147.662
170.703
209.284
285.812
134.273
130.645
129.807
130.879
134.752
142.688
157.84
190.045
247.844
381.557
146.169
142.568
141.526
142.752
146.714
155.222
172.353
210.935
286.966
489.913
310.15
306.301
305.142
306.435
311.516
323.506
349.144
396.334
480.001
667.551
4945.89
4939.96
4937.42
4939.29
4945.41
4955.45
4969.2
4990.19
5022.65
5066.5
4205.5
4206.11
4206.43
4206.45
4206.21
4205.13
4203.64
4202.05
4200.61
4199.54
232.908
232.484
232.379
232.028
231.435
231.251
231.268
231.416
231.803
232.794
115.601
115.579
115.658
115.608
115.615
115.727
115.999
116.502
117.191
117.984
111.053
110.449
110.256
110.415
111.021
112.154
113.944
116.657
120.073
123.797
115.292
114.364
114.202
114.446
115.432
117.258
120.25
125.186
131.928
140.366
117.754
116.307
115.873
116.323
117.847
120.798
125.852
134.851
148.239
167.559
122.085
120.092
119.633
120.172
122.222
126.251
133.356
146.775
167.939
202.423
134.229
132.211
131.594
132.294
134.517
139.159
147.946
165.501
195.872
252.187
293.169
290.808
289.978
290.834
294.386
302.959
320.355
349.002
394.125
462.634
4790.75
4785.57
4783.29
4784.86
4790.1
4798.62
4810.31
4827.3
4851.17
4880.1
4069.95
4070.7
4071.07
4071.05
4070.69
4069.8
4068.7
4067.55
4066.52
4065.73
224.503
223.703
223.467
223.231
222.984
222.932
222.911
222.974
223.259
224.15
111.006
111.069
111.145
111.089
111.014
110.94
110.888
110.889
110.952
111.059
105.704
105.442
105.35
105.412
105.667
106.138
106.847
107.834
108.975
109.979
108.446
108.058
108.01
108.099
108.519
109.274
110.455
112.241
114.482
116.707
110.262
109.561
109.337
109.548
110.279
111.653
113.89
117.508
122.46
128.095
113.879
112.811
112.573
112.833
113.9
115.929
119.31
125.064
133.299
143.385
125.601
124.541
124.197
124.585
125.796
128.288
132.824
140.975
153.817
171.851
278.196
276.873
276.266
276.849
279.404
285.767
297.756
315.705
341.525
371.321
4626.91
4622.58
4620.63
4621.92
4626.25
4633.15
4642.68
4655.89
4672.98
4691.96
3927.95
3928.61
3929
3928.97
3928.61
3927.99
3927.23
3926.43
3925.73
3925.16
216.926
216.032
215.685
215.536
215.482
215.461
215.461
215.538
215.833
216.725
108.393
108.455
108.507
108.465
108.394
108.3
108.2
108.116
108.072
108.077
102.811
102.686
102.638
102.663
102.779
102.988
103.292
103.688
104.115
104.434
104.449
104.294
104.289
104.318
104.495
104.808
105.281
105.948
106.728
107.39
105.649
105.322
105.211
105.308
105.652
106.284
107.281
108.777
110.711
112.634
108.536
107.972
107.856
107.978
108.531
109.557
111.197
113.759
117.16
120.569
119.493
118.986
118.807
119.02
119.662
120.986
123.326
127.18
132.824
139.521
264.785
264.159
263.69
264.112
266.038
270.905
279.256
290.782
306.14
320.302
4454.51
4451.06
4449.48
4450.5
4453.93
4459.28
4466.73
4476.62
4488.52
4500.77
3779.62
3780.14
3780.47
3780.44
3780.21
3779.79
3779.28
3778.75
3778.29
3777.87
209.481
208.599
208.258
208.151
208.116
208.112
208.133
208.227
208.538
209.427
106.794
106.836
106.869
106.841
106.787
106.715
106.636
106.566
106.529
106.536
101.296
101.227
101.2
101.212
101.269
101.371
101.516
101.695
101.88
101.999
102.197
102.134
102.14
102.148
102.226
102.362
102.563
102.829
103.116
103.338
102.916
102.771
102.717
102.761
102.921
103.209
103.654
104.284
105.065
105.813
105.178
104.879
104.824
104.883
105.174
105.704
106.521
107.712
109.189
110.496
115.215
115.009
114.927
115.043
115.377
116.078
117.268
119.1
121.602
124.389
252.453
252.277
251.886
252.219
253.759
257.511
263.349
270.864
280.269
287.088
4273.85
4271.23
4270.02
4270.79
4273.38
4277.37
4282.97
4290.1
4298.14
4305.89
3625.1
3625.52
3625.77
3625.76
3625.62
3625.35
3625.02
3624.67
3624.37
3624.05
201.821
200.966
200.655
200.561
200.535
200.539
200.57
200.671
200.985
201.856
105.699
105.721
105.739
105.721
105.686
105.639
105.589
105.546
105.532
105.552
100.53
100.488
100.472
100.478
100.509
100.563
100.638
100.728
100.821
100.874
100.979
100.947
100.951
100.953
100.993
101.062
101.161
101.283
101.404
101.494
101.368
101.306
101.28
101.301
101.375
101.506
101.704
101.973
102.294
102.619
103.14
102.975
102.95
102.981
103.142
103.429
103.854
104.44
105.118
105.681
112.203
112.15
112.12
112.186
112.359
112.725
113.312
114.17
115.245
116.503
240.736
240.837
240.48
240.768
242.08
244.889
248.949
253.874
259.757
262.812
4085.33
4083.46
4082.59
4083.15
4084.99
4087.87
4091.92
4096.86
4102.13
4106.94
3464.59
3464.93
3465.13
3465.13
3465.05
3464.88
3464.66
3464.44
3464.25
3463.98
193.767
192.947
192.664
192.581
192.559
192.565
192.597
192.695
193.002
193.847
104.848
104.856
104.864
104.852
104.831
104.804
104.776
104.755
104.76
104.79
100.159
100.133
100.124
100.127
100.143
100.172
100.211
100.259
100.311
100.338
100.35
100.328
100.326
100.328
100.353
100.397
100.457
100.528
100.591
100.641
100.535
100.509
100.497
100.507
100.541
100.601
100.69
100.806
100.941
101.098
101.943
101.844
101.832
101.852
101.949
102.115
102.352
102.664
103
103.28
110.018
110.035
110.032
110.072
110.165
110.347
110.619
111.003
111.418
112.027
229.21
229.477
229.124
229.391
230.527
232.497
235.28
238.491
242.217
243.258
3889.53
3888.28
3887.7
3888.09
3889.31
3891.36
3894.16
3897.45
3900.79
3903.71
3298.38
3298.67
3298.82
3298.83
3298.78
3298.68
3298.54
3298.4
3298.28
3298.04
185.211
184.43
184.175
184.103
184.082
184.087
184.115
184.204
184.498
185.309
104.114
104.113
104.114
104.107
104.096
104.082
104.07
104.063
104.079
104.114
99.9895
99.9743
99.9703
99.9718
99.9793
99.9922
100.011
100.034
100.064
100.08
100.045
100.025
100.02
100.021
100.04
100.073
100.117
100.167
100.21
100.245
100.114
100.102
100.096
100.101
100.118
100.146
100.187
100.238
100.296
100.381
101.253
101.188
101.181
101.197
101.261
101.366
101.509
101.691
101.876
102.044
108.329
108.384
108.394
108.42
108.468
108.549
108.66
108.813
108.924
109.246
217.325
217.839
217.515
217.774
218.587
219.933
221.794
223.858
226.22
226.179
3687.21
3686.36
3686.01
3686.25
3687.09
3688.47
3690.32
3692.42
3694.44
3696.19
3126.88
3127.13
3127.24
3127.25
3127.23
3127.16
3127.08
3126.99
3126.91
3126.69
176.069
175.332
175.105
175.044
175.023
175.025
175.048
175.125
175.401
176.174
103.439
103.433
103.429
103.425
103.42
103.415
103.412
103.414
103.437
103.475
99.9214
99.9142
99.9136
99.9141
99.9159
99.9192
99.9248
99.934
99.9504
99.9613
99.9114
99.893
99.8851
99.8867
99.9015
99.9279
99.9624
100
100.034
100.062
99.9195
99.9129
99.9091
99.9115
99.9203
99.9351
99.9549
99.9792
100.004
100.056
100.853
100.807
100.801
100.815
100.86
100.931
101.025
101.14
101.253
101.373
106.922
106.989
107.009
107.026
107.046
107.076
107.108
107.153
107.128
107.32
204.843
205.496
205.299
205.481
206.025
206.909
208.107
209.402
210.877
210.286
3479.12
3478.58
3478.36
3478.52
3479.06
3479.95
3481.11
3482.38
3483.54
3484.56
2950.62
2950.83
2950.91
2950.92
2950.91
2950.87
2950.82
2950.76
2950.7
2950.51
166.262
165.572
165.376
165.327
165.304
165.304
165.319
165.383
165.637
166.37
102.797
102.789
102.782
102.78
102.779
102.779
102.782
102.79
102.815
102.856
99.9046
99.9026
99.904
99.9038
99.9024
99.9001
99.8984
99.8993
99.9073
99.9166
99.8648
99.8484
99.8401
99.8411
99.8525
99.8729
99.8995
99.9286
99.9547
99.9785
99.845
99.8398
99.8367
99.8378
99.8429
99.8514
99.8622
99.8747
99.8866
99.9197
100.607
100.572
100.567
100.578
100.61
100.66
100.724
100.8
100.875
100.969
105.657
105.722
105.745
105.756
105.764
105.77
105.767
105.765
105.687
105.818
191.595
192.299
192.204
192.326
192.669
193.216
193.938
194.721
195.604
194.784
3266.15
3265.82
3265.69
3265.8
3266.13
3266.66
3267.35
3268.07
3268.68
3269.26
2770.32
2770.49
2770.55
2770.56
2770.56
2770.54
2770.5
2770.46
2770.42
2770.24
155.694
155.055
154.886
154.85
154.833
154.831
154.84
154.888
155.115
155.807
102.185
102.174
102.167
102.165
102.166
102.17
102.176
102.186
102.211
102.254
99.9137
99.914
99.916
99.9154
99.9125
99.908
99.9032
99.9003
99.9033
99.913
99.861
99.8474
99.84
99.8403
99.8484
99.8629
99.882
99.9031
99.923
99.9423
99.8324
99.8276
99.825
99.8252
99.8282
99.8334
99.8395
99.8464
99.8524
99.8736
100.43
100.403
100.399
100.407
100.429
100.463
100.506
100.556
100.606
100.683
104.458
104.51
104.532
104.54
104.542
104.539
104.524
104.506
104.416
104.516
177.436
178.119
178.104
178.182
178.378
178.68
179.06
179.502
179.975
179.134
3049.37
3049.19
3049.11
3049.18
3049.36
3049.66
3050.03
3050.4
3050.68
3051
2586.98
2587.12
2587.16
2587.18
2587.17
2587.16
2587.14
2587.1
2587.06
2586.91
144.231
143.653
143.513
143.489
143.484
143.481
143.484
143.516
143.706
144.352
101.609
101.596
101.588
101.586
101.588
101.593
101.601
101.611
101.633
101.677
99.9327
99.9326
99.934
99.9331
99.9303
99.926
99.9212
99.9177
99.9184
99.929
99.8784
99.868
99.8623
99.8622
99.8672
99.8765
99.8887
99.9026
99.9166
99.9315
99.8521
99.8482
99.8461
99.8459
99.8474
99.85
99.8531
99.8563
99.8591
99.8716
100.273
100.253
100.249
100.254
100.268
100.289
100.315
100.345
100.377
100.436
103.291
103.327
103.345
103.35
103.349
103.343
103.325
103.304
103.224
103.304
162.208
162.816
162.864
162.911
162.998
163.119
163.249
163.454
163.628
162.904
2830.08
2829.99
2829.95
2829.98
2830.07
2830.22
2830.4
2830.56
2830.67
2830.83
2401.73
2401.84
2401.87
2401.88
2401.88
2401.87
2401.85
2401.83
2401.8
2401.68
131.646
131.153
131.061
131.051
131.05
131.046
131.042
131.056
131.188
131.768
101.087
101.072
101.065
101.062
101.064
101.069
101.076
101.085
101.102
101.142
99.9496
99.9477
99.9478
99.9469
99.9449
99.9421
99.9391
99.937
99.9374
99.9479
99.9084
99.9014
99.8978
99.8975
99.9002
99.9053
99.9122
99.9202
99.929
99.9392
99.89
99.8876
99.8863
99.8859
99.8862
99.887
99.8878
99.8885
99.8893
99.8949
100.119
100.106
100.103
100.105
100.112
100.123
100.136
100.151
100.168
100.208
102.169
102.188
102.198
102.2
102.196
102.187
102.17
102.151
102.097
102.156
145.451
145.928
145.962
145.998
146.058
146.138
146.22
146.279
146.211
145.692
2609.7
2609.66
2609.65
2609.66
2609.69
2609.74
2609.79
2609.83
2609.87
2609.94
2215.03
2215.09
2215.1
2215.1
2215.1
2215.1
2215.09
2215.09
2215.09
2215.03
117.389
117.051
117.02
117.025
117.027
117.022
117.012
117.005
117.05
117.478
100.625
100.609
100.602
100.598
100.599
100.602
100.608
100.617
100.63
100.662
99.9659
99.9636
99.963
99.9623
99.9614
99.9603
99.9592
99.9586
99.9593
99.9664
99.9506
99.9469
99.9451
99.9449
99.9461
99.9485
99.9517
99.9556
99.9602
99.9658
99.9405
99.9395
99.9389
99.9386
99.9385
99.9383
99.938
99.9376
99.9373
99.9386
100.009
100.004
100.002
100.003
100.006
100.01
100.014
100.019
100.026
100.045
101.125
101.127
101.129
101.128
101.122
101.113
101.1
101.087
101.069
101.111
125.762
126.044
126.062
126.082
126.115
126.157
126.2
126.224
126.174
125.833
2388.98
2388.96
2388.97
2388.97
2388.97
2388.97
2388.97
2388.97
2388.95
2388.99
7183.97
7294.28
7250.54
7044.08
658917
683866
689429
697310
1.49738e+06
1.58409e+06
1.59161e+06
1.57172e+06
2.52526e+06
2.70355e+06
2.70102e+06
2.61951e+06
3.76094e+06
4.05607e+06
4.02974e+06
3.86818e+06
5.30802e+06
5.75136e+06
5.69982e+06
5.48696e+06
6.86853e+06
7.4675e+06
7.4037e+06
7.207e+06
7.88295e+06
8.61089e+06
8.55621e+06
8.42819e+06
5.61979e+06
6.17925e+06
6.11518e+06
6.08138e+06
7903.65
8151.4
7989.04
7569.8
5749.33
5802.12
5804.65
5765.51
308553
324674
345348
377327
689324
780868
824931
861813
1.17797e+06
1.40289e+06
1.4661e+06
1.49203e+06
1.76356e+06
2.17759e+06
2.2515e+06
2.26498e+06
2.45885e+06
3.11246e+06
3.21171e+06
3.24761e+06
3.13177e+06
4.04032e+06
4.2011e+06
4.31993e+06
3.57333e+06
4.70409e+06
4.94537e+06
5.18027e+06
2.8068e+06
3.81863e+06
4.00721e+06
4.32038e+06
7126.37
7357.96
7287.01
7066.65
4937.91
4948.86
4948.01
4938.29
21661.1
25960.5
24597.2
19966.6
61570.1
73410.2
68679.2
55731.5
128749
152840
140888
114033
228361
270536
246270
199440
372379
441933
401382
326406
545329
648542
591609
485408
702805
839403
769576
636850
584458
696873
629357
524659
6344.36
6431.66
6409.34
6314.02
4716.01
4718.14
4718.69
4717.89
1594.31
1711.29
1679.87
1545
4698.16
5172.46
5012.64
4434.63
11230.6
12505.1
11926.4
10213.7
22554.8
25253.8
23699.6
19746.2
41691.5
46923.1
43528.1
35537.3
68295.4
76985.7
70796.9
57129.9
97160.6
109914
100444
80430.4
83358.3
93766.1
84199.9
67266.8
5904.03
5945.72
5942.84
5904.92
4568.01
4568.92
4569.13
4568.6
423.281
436.212
438.466
431.552
710.11
757.051
761.565
731.379
1595.03
1736.82
1729.31
1610.3
3203.61
3529.31
3458.53
3118.66
6140.11
6823.37
6583.11
5758.26
10498.2
11693.8
11109.2
9472.74
15692.2
17555.7
16463.9
13724.7
13860.3
15397.3
14114
11586.5
5578.73
5600.76
5602.24
5586.63
4444.97
4445.71
4445.79
4445.17
275.584
278.457
279.169
277.91
226.357
231.457
233.285
232.246
385.582
403.073
407.311
400.544
674.048
717.857
722.11
696.119
1215.16
1316.47
1312.64
1233.52
2023.64
2211.44
2175.76
1991.41
3046.97
3360.49
3261.96
2904.56
2928.99
3183.32
3023.45
2664.17
5318.18
5328.96
5331.1
5325.53
4322.63
4323.34
4323.4
4322.77
241.774
243.68
244.079
243.022
140.134
140.888
141.241
141.227
175.865
178.564
179.692
179.438
243.199
250.226
252.463
250.763
368.97
386.595
390.324
383.183
549.224
582.686
585.329
565.81
795.524
854.988
852.144
807.135
984.69
1029.73
1010.27
962.502
5095.79
5100.67
5102.52
5101.26
4195.51
4196.21
4196.26
4195.66
228.094
229.812
230.151
229.141
118.189
118.327
118.381
118.358
125.852
126.302
126.527
126.554
146.029
147.259
147.803
147.782
183.405
186.917
188.184
187.623
233.788
240.342
242.098
240.31
314.613
327.187
329.126
323.57
543.033
548.697
546.181
542.491
4893.67
4895.68
4896.96
4897.15
4061.96
4062.62
4062.67
4062.11
219.49
221.144
221.473
220.498
110.888
110.945
110.954
110.915
110.347
110.419
110.457
110.466
117.765
117.976
118.086
118.118
131.711
132.522
132.875
132.843
149.878
151.235
151.776
151.735
187.359
190.301
191.147
190.486
400.186
397.211
396.464
399.123
4698.46
4699.15
4699.92
4700.41
3921.66
3922.27
3922.32
3921.81
212.195
213.794
214.115
213.177
107.868
107.917
107.921
107.881
104.484
104.491
104.494
104.494
107.574
107.596
107.61
107.622
113.656
113.877
113.978
113.969
121.961
122.212
122.351
122.429
144.579
145.283
145.546
145.484
335.331
330.25
329.47
332.885
4503.81
4503.91
4504.34
4504.79
3774.64
3775.2
3775.24
3774.77
205.055
206.595
206.907
206.006
106.338
106.386
106.391
106.353
101.988
101.986
101.984
101.983
103.358
103.35
103.347
103.349
106.198
106.277
106.31
106.297
110.765
110.778
110.805
110.857
126.729
126.859
126.912
126.907
297.592
292.082
291.176
294.491
4307.1
4306.97
4307.2
4307.54
3621.09
3621.59
3621.63
3621.2
197.657
199.135
199.437
198.575
105.37
105.417
105.423
105.388
100.853
100.851
100.849
100.848
101.489
101.481
101.476
101.476
102.817
102.856
102.87
102.856
105.715
105.686
105.684
105.713
117.998
117.976
117.958
117.945
271.428
265.974
265.021
268.136
4107.12
4106.94
4107.05
4107.27
3461.31
3461.74
3461.77
3461.39
189.834
191.247
191.537
190.716
104.624
104.668
104.674
104.641
100.318
100.317
100.316
100.316
100.637
100.632
100.629
100.628
101.224
101.249
101.256
101.244
103.288
103.261
103.254
103.27
113.192
113.133
113.092
113.071
250.82
245.573
244.626
247.549
3903.26
3903.13
3903.18
3903.29
3295.66
3296.03
3296.04
3295.72
181.495
182.841
183.12
182.341
103.966
104.007
104.013
103.983
100.064
100.064
100.064
100.064
100.245
100.243
100.241
100.239
100.469
100.488
100.492
100.482
102.072
102.055
102.049
102.055
110.241
110.18
110.134
110.104
232.985
227.997
227.087
229.832
3695.34
3695.31
3695.33
3695.34
3124.61
3124.91
3124.92
3124.64
172.573
173.852
174.119
173.384
103.349
103.387
103.392
103.365
99.9513
99.9524
99.9525
99.9516
100.065
100.064
100.063
100.061
100.119
100.132
100.135
100.127
101.425
101.42
101.416
101.415
108.201
108.151
108.107
108.067
216.462
211.76
210.904
213.475
3483.46
3483.54
3483.55
3483.47
2948.76
2948.99
2948.97
2948.75
163
164.211
164.468
163.779
102.757
102.792
102.798
102.772
99.9134
99.9155
99.9158
99.9142
99.9828
99.9829
99.9821
99.9809
99.9645
99.9738
99.975
99.9684
101.04
101.044
101.042
101.035
106.605
106.573
106.534
106.484
200.394
196.013
195.224
197.614
3268
3268.19
3268.2
3268.04
2768.85
2769.01
2768.98
2768.8
152.691
153.837
154.086
153.445
102.191
102.224
102.229
102.205
99.9168
99.9199
99.9203
99.918
99.9477
99.9483
99.948
99.9471
99.9035
99.9095
99.9099
99.9049
100.761
100.771
100.771
100.761
105.208
105.199
105.166
105.106
184.225
180.217
179.514
181.7
3049.65
3049.93
3049.94
3049.73
2585.93
2586
2585.96
2585.83
141.542
142.634
142.878
142.281
101.648
101.68
101.685
101.662
99.9387
99.9428
99.9432
99.9401
99.9375
99.9385
99.9386
99.9381
99.889
99.8924
99.8923
99.8891
100.511
100.524
100.525
100.514
103.876
103.891
103.866
103.8
167.523
164.01
163.416
165.336
2829.46
2829.79
2829.81
2829.58
2401.16
2401.14
2401.08
2401.02
129.373
130.425
130.665
130.103
101.141
101.169
101.172
101.151
99.9598
99.9642
99.9646
99.9613
99.9448
99.946
99.9464
99.9463
99.9026
99.9039
99.9038
99.9023
100.268
100.28
100.281
100.272
102.554
102.58
102.565
102.506
149.615
146.67
146.228
147.865
2608.74
2609.11
2609.12
2608.88
2215.02
2214.86
2214.8
2214.85
115.752
116.733
116.939
116.406
100.666
100.683
100.684
100.67
99.9739
99.9765
99.9767
99.9747
99.9697
99.9707
99.9711
99.9712
99.9404
99.9405
99.9404
99.9402
100.077
100.084
100.085
100.08
101.287
101.296
101.288
101.264
128.33
126.309
126.073
127.23
2388.2
2388.59
2388.6
2388.34
6105.83
5442.9
5173.16
5077.02
5022.21
4983.69
4958.09
4943.71
4935.73
4930.99
798393
193284
33403.7
11732.4
5300.81
2836.38
1749.38
1212.55
928.326
765.133
1.42406e+06
247050
44254.4
15129.5
6776.56
3637.51
2200.6
1460.52
1048.32
803.062
1.99548e+06
239538
46768.7
15018.3
6483.34
3391.26
2000.62
1297.56
912.971
688.624
2.45866e+06
252615
48935.5
14561.3
6098.44
3102.34
1792.12
1144.5
795.539
596.741
2.93041e+06
276402
51143.9
13975
5638.77
2768.71
1561.62
981.25
677.426
508.31
3.31264e+06
294978
52003.2
13162.8
5158.89
2467.97
1375.85
861.587
595.662
450.429
3.39663e+06
287395
47702.8
11002.6
4164.41
1946.82
1093.09
700.348
502.966
394.818
2.3417e+06
182159
27372.8
5711.5
2275.31
1237.96
858.047
671.634
568.203
506.592
6016.18
5992.96
5847.18
5822.78
5779.38
5755.08
5735.8
5725.55
5718.64
5712.68
5443.29
5175.2
5045.28
4972.7
4927.15
4897.14
4877.69
4866.14
4859.92
4855.99
180238
44894.9
13613.5
5322.77
2635.49
1567.21
1065.13
802.491
656.258
572.3
375677
86409.5
23467.3
8290.93
3889.13
2187.83
1383.9
956.232
710.814
565.769
595037
126246
30701.7
9651.69
4228.11
2261.61
1372.63
915.882
661.62
515.517
830507
165014
36427.9
10417.7
4317.67
2220
1310.4
857.66
610.426
472.027
1.1098e+06
207214
41753.9
10864.2
4247.25
2091.51
1198.79
768.924
542.107
418.497
1.38892e+06
244456
45356.7
10851
4055.93
1939.32
1095.74
699.619
493.252
382.965
1.5643e+06
258688
43999.6
9553.54
3395.91
1585.37
900.766
587.817
429.954
345.829
1.18226e+06
178734
26854
5249.99
1966.89
1091.44
771.682
615.223
526.614
476.3
6252.84
5952.9
5792.78
5733.95
5683.07
5652.31
5630.01
5616.41
5606.83
5598.53
4904.01
4869.18
4841.71
4818.91
4801.09
4788.17
4779.56
4774.4
4771.54
4769.49
9199.52
4175.81
2298.85
1432.78
985.41
735.87
591.224
504.969
452.255
420.443
23997.9
9564.68
4650.23
2546.87
1542.08
1010.26
712.695
538.361
431.127
364.767
45437.9
15961.9
6938.09
3411.16
1898.34
1159.05
771.549
555.706
428.546
352.752
73594.1
22902.6
9011.82
4056.11
2119.74
1232.37
791.82
556.674
421.555
343.293
112049
31041.8
11040.8
4548.44
2235.31
1237.05
767.208
526.303
393.529
318.999
156047
38869.6
12577.6
4795.15
2251.81
1206.04
734.794
500.606
373.484
303.548
191504
42871.8
12521.5
4385.67
1974.97
1036.76
636.286
443.073
341.778
286.19
141666
27756.1
7304.52
2547.42
1307.88
842.969
642.729
536.586
473.012
436.303
6018.33
5835.85
5711.23
5637.37
5584.28
5551.15
5528.13
5512.46
5500.88
5490.91
4712.99
4704.63
4695.45
4687.21
4680.96
4676.71
4674.05
4672.7
4672.37
4671.98
1208.04
906.491
708.874
570.479
479.265
420.777
383.196
358.483
341.799
331.525
3028.76
1919.52
1270.4
860.773
612.399
460.96
367.188
307.621
268.176
242.309
6221
3481.24
2057.54
1252.19
812.897
564.715
420.26
333.147
278.344
243.99
10747.1
5351.27
2878.32
1610.56
978.857
644.295
460.275
354.612
289.925
250.463
17346.6
7666.82
3761.54
1939.11
1105.24
689.18
472.663
353.787
284.447
243.627
25222.3
9947.86
4496.93
2165.93
1178.9
709.712
476.416
352.877
281.944
240.952
32104
11242.5
4659.37
2095.2
1100.7
652.786
441.617
333.009
272.803
238.107
23544.4
7367.29
2961.84
1443.42
906.152
663.599
542.633
472.68
427.92
401.459
5789.06
5660.53
5561.79
5497.89
5453.8
5424.92
5404.2
5389.34
5378.14
5368.66
4567.58
4566.35
4565.11
4564.14
4563.56
4563.32
4563.34
4563.72
4564.63
4565.47
412.729
382.968
356.672
334.888
318.459
306.415
297.566
290.936
285.857
282.609
637.77
512.555
411.733
334.521
279.764
241.963
216.079
198.177
185.239
176.183
1287.3
926.097
666.281
486.306
369.855
294.974
246.642
214.943
193.47
179.27
2276.16
1481.75
973.409
652.896
462.869
348.845
279.643
236.709
208.352
189.981
3814.34
2241.01
1346.91
830.653
548.86
390.263
299.441
245.701
212.123
191.243
5703.72
3044.37
1696.33
978.331
614.794
420.826
314.961
254.784
217.684
194.945
7460.59
3599.85
1861.21
1012.35
616.771
417.075
313.395
255.929
221.79
201.023
5662.34
2637.04
1436.18
904.149
665.895
539.389
466.867
421.217
389.977
371.108
5535.68
5459.63
5394.36
5347.96
5314.04
5289.78
5271.52
5257.82
5247.24
5238.43
4444.79
4444.91
4445.2
4445.68
4446.27
4446.91
4447.57
4448.37
4449.58
4451.02
277.887
274.889
271.418
267.992
264.974
262.414
260.261
258.413
256.79
255.486
225.927
210.88
194.965
180.655
169.148
160.378
153.853
148.965
145.037
142.076
373.141
321.835
273.241
233.345
203.639
182.284
167.102
156.245
148.28
142.754
613.201
488.041
382.074
302.911
248.82
212.62
188.488
172.251
160.537
152.457
1013.14
737.752
529.285
386.598
296.646
240.222
204.683
181.852
166.427
156.308
1522.13
1022.7
681.303
465.939
339.922
265.2
220.361
192.772
174.285
162.241
2045.5
1266.99
790.199
514.297
364.935
280.921
232.64
203.528
184.884
172.961
1814.38
1182.37
824.908
628.734
519.811
452.695
409.129
379.522
357.94
344.66
5303.34
5261.69
5221.85
5189.96
5164.53
5144.79
5129.22
5117.07
5107.46
5099.58
4322.52
4322.79
4323.24
4323.84
4324.53
4325.21
4325.87
4326.63
4327.77
4329.22
244.175
244.014
243.667
243.198
242.683
242.149
241.601
241.016
240.374
239.617
140.671
138.604
136.042
133.465
131.203
129.35
127.884
126.701
125.585
124.655
176.557
168.272
158.71
149.715
142.178
136.162
131.445
127.754
124.826
122.728
241.579
220.117
197.593
178.253
163.323
152.234
144.105
138.162
133.436
129.974
355.626
303.665
254.574
215.796
187.999
168.571
155.052
145.574
138.636
133.883
503.851
404.344
318.114
255.349
213.452
185.773
167.408
155.119
146.114
139.902
681.124
513.395
382.53
294.839
240.143
205.645
183.59
169.092
159.113
152.473
826.66
675.197
559.131
481.199
428.731
391.952
365.448
346.196
331.332
322.028
5091.78
5069.9
5046.1
5024.51
5005.81
4990.28
4977.47
4967.12
4958.74
4951.97
4195.42
4195.63
4195.96
4196.42
4196.94
4197.44
4197.91
4198.47
4199.39
4200.66
230.441
230.67
230.774
230.786
230.728
230.604
230.41
230.124
229.721
229.084
118.339
118.071
117.707
117.305
116.937
116.635
116.405
116.208
115.927
115.638
126.158
124.612
122.561
120.39
118.365
116.582
115.051
113.751
112.652
111.858
146.603
142.548
137.535
132.672
128.477
125.038
122.287
120.124
118.22
116.742
183.562
172.776
160.743
149.913
141.152
134.337
129.116
125.144
122.025
119.834
231.572
210.502
188.326
169.88
155.9
145.594
138.049
132.589
128.226
125.06
302.859
263.976
227.245
198.86
178.535
164.159
153.998
146.779
141.495
137.891
515.487
472.594
430.214
396.14
369.329
348.455
332.071
319.471
309.236
302.746
4892.53
4880.77
4866.39
4851.93
4838.51
4826.71
4816.58
4808.12
4801.09
4795.51
4061.88
4062.02
4062.23
4062.53
4062.87
4063.18
4063.46
4063.8
4064.5
4065.56
221.791
222.057
222.206
222.275
222.282
222.224
222.094
221.865
221.499
220.867
110.951
110.94
110.928
110.913
110.91
110.929
110.97
111.005
110.953
110.856
110.388
110.046
109.543
108.952
108.349
107.773
107.239
106.755
106.327
106.022
117.935
117.077
115.87
114.565
113.325
112.221
111.277
110.493
109.72
109.081
132.022
129.423
126.186
122.906
119.952
117.43
115.336
113.635
112.222
111.225
150.422
145.529
139.432
133.685
128.788
124.801
121.627
119.179