/*--------------------------------*- C++ -*----------------------------------*\
| =========                 |                                                 |
| \\      /  F ield         | foam-extend: Open Source CFD                    |
|  \\    /   O peration     | Version:     4.0                                |
|   \\  /    A nd           | Web:         http://www.foam-extend.org         |
|    \\/     M anipulation  |                                                 |
\*---------------------------------------------------------------------------*/
FoamFile
{
    version     2.0;
    format      ascii;
    class       volScalarField;
    location    "2500";
    object      k;
}
// * * * * * * * * * * * * * * * * * * * * * * * * * * * * * * * * * * * * * //

dimensions      [0 2 -2 0 0 0 0];

internalField   nonuniform List<scalar> 
34480
(
8.76721
8.76481
8.76468
8.76646
8.77026
8.77638
8.79133
8.85472
9.07726
9.68612
9.27982
8.66812
8.57543
8.85507
9.45417
10.341
11.9397
15.8518
28.7376
67.0237
15.0399
13.5705
13.1244
13.2727
13.8431
14.876
17.2095
22.9052
41.6356
101.406
14.4915
12.964
12.5139
12.7081
13.4186
14.8331
18.0052
25.4062
49.2499
127.782
13.4285
12.0127
11.6617
11.9287
12.7802
14.4903
18.2598
26.9559
55.27
151.575
12.2197
10.9462
10.6338
10.9156
11.8072
13.7007
17.9422
27.9024
61.0603
176.656
11.3267
10.2066
9.95197
10.227
11.1221
13.0878
17.5897
28.4199
65.5179
198.015
9.83984
9.00356
8.79873
9.01448
9.72705
11.3973
15.4915
26.1247
64.5438
205.594
6.88245
6.6139
6.56525
6.67528
7.00471
7.72932
9.7299
16.2734
43.4112
149.667
9.23848
9.23873
9.24461
9.2575
9.27562
9.29722
9.32323
9.3618
9.43283
9.506
8.67858
8.67558
8.675
8.67677
8.68155
8.6899
8.70315
8.7342
8.80843
9.06734
7.92991
7.51004
7.4167
7.57441
8.02142
8.86381
10.3053
12.1078
15.4274
41.173
12.2353
11.1726
10.8804
11.0836
11.7623
13.0234
15.2212
18.1222
23.7876
66.4128
12.1394
10.9711
10.6523
10.8956
11.7006
13.2512
16.0319
20.0142
28.3902
86.1794
11.5988
10.4649
10.1981
10.4742
11.3669
13.1083
16.297
21.0752
31.8418
104.294
10.8053
9.75492
9.49954
9.77338
10.6717
12.4985
15.9681
21.4559
34.8375
123.7
10.2148
9.26272
9.04555
9.29915
10.1726
12.0009
15.608
21.5521
37.1091
140.952
9.05421
8.33233
8.14821
8.33977
9.01753
10.5152
13.6623
19.285
35.7041
147.363
6.64489
6.39755
6.34335
6.41753
6.68225
7.26726
8.61412
11.5618
22.4915
102.417
9.11132
9.10663
9.10718
9.1144
9.12707
9.14289
9.16388
9.1996
9.27261
9.45786
8.57685
8.57397
8.57307
8.57405
8.5772
8.58216
8.58793
8.60085
8.62964
8.69529
6.78261
6.57101
6.51696
6.59287
6.82429
7.2713
8.06583
9.35978
11.1353
16.4367
9.69139
9.07128
8.91796
9.08556
9.60524
10.5602
12.1752
14.5698
17.5471
29.1788
9.88903
9.15106
8.9657
9.17961
9.839
11.0948
13.2872
16.6418
21.1137
40.7609
9.75965
9.00448
8.84167
9.07842
9.81693
11.2606
13.8637
17.9406
23.7779
52.2521
9.33105
8.60364
8.43615
8.67407
9.42844
10.9743
13.8889
18.6188
26.0238
64.9005
9.01606
8.33167
8.18546
8.40809
9.14961
10.7177
13.8026
18.9563
27.7476
76.9243
8.19531
7.66699
7.53774
7.70814
8.28319
9.56567
12.2713
17.1625
26.6519
82.8775
6.37361
6.18139
6.14156
6.20251
6.41345
6.8762
7.9251
10.3685
16.6986
57.1057
8.99179
8.98402
8.98151
8.98543
8.99505
9.00815
9.02618
9.05974
9.13853
9.33854
8.46138
8.45957
8.45905
8.45982
8.46198
8.46475
8.46596
8.46934
8.47827
8.49768
6.00862
5.91782
5.89072
5.92156
6.02178
6.21439
6.55111
7.13252
7.99601
9.88094
7.80871
7.49606
7.42319
7.51863
7.82012
8.38296
9.33402
10.821
12.6577
17.0736
8.12478
7.70734
7.6036
7.74108
8.16722
8.98953
10.4232
12.7266
15.5982
23.5539
8.24747
7.78886
7.69201
7.84983
8.34808
9.33566
11.1225
14.0847
17.8845
30.1248
8.08394
7.61552
7.50591
7.67287
8.20246
9.30161
11.3876
14.9953
19.864
37.6352
7.97593
7.51163
7.41217
7.57369
8.11066
9.25631
11.5228
15.577
21.3676
44.9592
7.44534
7.07505
6.98302
7.11147
7.53538
8.48142
10.4799
14.3819
20.6523
48.7679
6.13164
5.98468
5.95478
6.00076
6.15816
6.49615
7.22482
8.9854
12.9805
33.0373
8.85789
8.85008
8.84727
8.85064
8.85975
8.87338
8.89223
8.92614
8.99931
9.15518
8.33371
8.33288
8.33271
8.33319
8.33437
8.33523
8.33364
8.33226
8.33219
8.33433
5.53763
5.50318
5.49009
5.49997
5.53616
5.60491
5.72018
5.91163
6.17866
6.62113
6.56604
6.42836
6.39756
6.43784
6.57421
6.83252
7.27153
7.98207
8.87906
10.3566
6.87206
6.65541
6.59879
6.66954
6.89677
7.33941
8.11412
9.40818
11.0453
14.0196
7.10209
6.84236
6.78601
6.87332
7.15882
7.72696
8.75924
10.5599
12.8858
17.7758
7.09734
6.81074
6.73903
6.83953
7.16333
7.83579
9.11554
11.4644
14.6136
22.2337
7.12087
6.81809
6.74999
6.85194
7.19684
7.92881
9.37338
12.1313
15.9825
26.6474
6.81347
6.56186
6.49577
6.58185
6.86395
7.48523
8.77852
11.4746
15.6917
29.013
5.91845
5.80757
5.78483
5.81665
5.92765
6.15997
6.63031
7.74138
10.1054
19.2391
8.71445
8.70674
8.70372
8.70659
8.71506
8.72847
8.74695
8.7784
8.83991
8.95244
8.19475
8.19468
8.19477
8.19505
8.1955
8.19509
8.19261
8.19005
8.18787
8.18656
5.27035
5.25895
5.25261
5.25487
5.26617
5.28801
5.32348
5.37806
5.4475
5.53732
5.80942
5.75799
5.74828
5.7617
5.81271
5.90956
6.07212
6.33471
6.67421
7.13892
6.04301
5.93932
5.91055
5.94303
6.05125
6.25974
6.61645
7.21168
7.98783
9.10667
6.28233
6.14567
6.11583
6.15947
6.30773
6.59748
7.11205
8.02112
9.23789
11.2029
6.3511
6.18553
6.14133
6.19754
6.38056
6.75306
7.44439
8.74048
10.5396
13.8037
6.44217
6.25421
6.21043
6.27058
6.47791
6.90719
7.72905
9.34058
11.6533
16.3938
6.29323
6.13034
6.08554
6.1405
6.31827
6.69922
7.46012
9.07704
11.6574
17.7685
5.73295
5.6518
5.63558
5.65691
5.73317
5.88845
6.18401
6.83622
8.10061
11.8448
8.56053
8.5532
8.55018
8.55265
8.5604
8.57304
8.59038
8.61823
8.66627
8.74102
8.04508
8.04552
8.0458
8.04593
8.0459
8.04471
8.0424
8.03992
8.03767
8.03601
5.12661
5.12321
5.11975
5.11968
5.12257
5.12897
5.13907
5.15344
5.16958
5.18565
5.37594
5.361
5.36013
5.363
5.37802
5.40721
5.45622
5.53389
5.63283
5.75053
5.52655
5.47964
5.4657
5.47947
5.52758
5.61834
5.76706
6.00379
6.30875
6.68036
5.7272
5.65978
5.64549
5.66547
5.73717
5.87329
6.1045
6.49906
7.03138
7.75014
5.81507
5.72401
5.69813
5.72772
5.82546
6.01859
6.36061
6.98391
7.86724
9.18693
5.92899
5.81723
5.79064
5.82396
5.94246
6.18002
6.61216
7.43967
8.65431
10.6616
5.88359
5.78313
5.7543
5.7877
5.89433
6.1162
6.53637
7.40179
8.80322
11.4704
5.57814
5.52018
5.50921
5.52295
5.57399
5.67524
5.85872
6.23086
6.89039
8.32516
8.39558
8.38886
8.38598
8.3881
8.39503
8.40639
8.42193
8.44564
8.48222
8.53152
7.88502
7.88578
7.88618
7.88621
7.88591
7.88456
7.88269
7.8807
7.87891
7.87757
5.05199
5.05077
5.04852
5.04801
5.04863
5.05067
5.05363
5.05744
5.061
5.0634
5.13787
5.13622
5.13826
5.13786
5.14012
5.14558
5.15602
5.17355
5.19603
5.22003
5.21961
5.19898
5.19236
5.19796
5.21875
5.25716
5.31721
5.40614
5.51475
5.62679
5.3681
5.33678
5.33079
5.33924
5.37219
5.43288
5.53109
5.68807
5.8927
6.12696
5.44709
5.39924
5.3848
5.39967
5.44977
5.54586
5.70754
5.98375
6.36785
6.85609
5.55774
5.4938
5.47857
5.49603
5.56127
5.68793
5.90593
6.29791
6.86481
7.64808
5.57428
5.51558
5.49808
5.51749
5.57855
5.70234
5.92565
6.35729
7.04566
8.13532
5.45383
5.41324
5.40626
5.41485
5.44843
5.51344
5.62684
5.83778
6.18541
6.75854
8.21908
8.21315
8.21054
8.21234
8.21834
8.22808
8.24144
8.26083
8.28804
8.32095
7.71466
7.71561
7.71608
7.71606
7.7156
7.71448
7.71309
7.71163
7.71033
7.70933
5.01365
5.01275
5.01108
5.01065
5.01093
5.01192
5.01317
5.01455
5.0155
5.01565
5.01145
5.01361
5.01609
5.01508
5.01376
5.01244
5.01195
5.01303
5.01554
5.01856
5.04476
5.03554
5.03232
5.0346
5.0437
5.06024
5.08501
5.11906
5.15789
5.19174
5.14541
5.13165
5.12959
5.13288
5.1475
5.17374
5.21451
5.27516
5.34996
5.42253
5.20533
5.18122
5.17351
5.18072
5.20562
5.25218
5.32728
5.44635
5.60502
5.77831
5.30063
5.2652
5.25695
5.26567
5.30065
5.36669
5.47511
5.65552
5.90509
6.19339
5.35056
5.31837
5.30844
5.31927
5.35259
5.4188
5.5342
5.74203
6.06225
6.49182
5.35789
5.32981
5.32566
5.33097
5.35295
5.39452
5.46461
5.58461
5.76938
6.02089
8.0306
8.0256
8.02334
8.02483
8.02985
8.03783
8.04884
8.06411
8.08383
8.1057
7.53417
7.53501
7.53551
7.53546
7.53501
7.53422
7.53324
7.53222
7.53133
7.5306
4.99322
4.99239
4.99109
4.99082
4.99116
4.99192
4.99283
4.99375
4.99433
4.99423
4.94617
4.94879
4.95088
4.95006
4.94828
4.94586
4.94333
4.94113
4.93966
4.93897
4.94928
4.94483
4.94314
4.94413
4.94835
4.95593
4.96687
4.98092
4.99592
5.00713
5.01296
5.00712
5.00665
5.00784
5.01426
5.02557
5.04258
5.06623
5.09364
5.11683
5.05337
5.0417
5.03772
5.04115
5.05326
5.07543
5.1101
5.16146
5.22691
5.2911
5.13023
5.11097
5.10673
5.11095
5.12948
5.16364
5.21765
5.30111
5.41038
5.51827
5.1957
5.17943
5.17428
5.18012
5.19735
5.23112
5.28882
5.38656
5.53153
5.70579
5.28669
5.2673
5.26505
5.26838
5.28293
5.30978
5.35334
5.42231
5.52053
5.64045
7.82987
7.82582
7.82397
7.82516
7.82919
7.83545
7.84418
7.85576
7.86967
7.88398
7.34328
7.34395
7.34438
7.34434
7.34404
7.3435
7.34284
7.34215
7.34156
7.34101
4.98135
4.98063
4.97967
4.97952
4.97986
4.98054
4.98135
4.98216
4.98272
4.98262
4.91316
4.91533
4.91689
4.91637
4.91498
4.91301
4.91083
4.90874
4.9072
4.90635
4.89945
4.897
4.89603
4.89651
4.89866
4.90247
4.90779
4.91428
4.92088
4.92515
4.93748
4.93493
4.93492
4.93534
4.93828
4.94342
4.95091
4.96067
4.97118
4.97929
4.96218
4.95671
4.95472
4.95635
4.96217
4.97264
4.98862
5.01099
5.03837
5.06425
5.02226
5.01176
5.00965
5.01173
5.02165
5.03952
5.06687
5.10649
5.15534
5.19848
5.09317
5.08592
5.08362
5.08668
5.09501
5.11122
5.13865
5.18313
5.24649
5.32169
5.23575
5.22222
5.22117
5.2234
5.23332
5.25108
5.27851
5.31881
5.37092
5.4318
7.6167
7.61359
7.61215
7.61307
7.61615
7.62088
7.62753
7.63599
7.64553
7.65472
7.14175
7.14229
7.14263
7.14262
7.14243
7.14207
7.14164
7.14118
7.14079
7.14036
4.97347
4.97291
4.97226
4.97218
4.97249
4.97307
4.97376
4.97446
4.975
4.97486
4.89667
4.89828
4.89938
4.89911
4.89821
4.89691
4.89546
4.89407
4.89314
4.89263
4.87472
4.87323
4.87265
4.87291
4.87409
4.87614
4.87896
4.8823
4.88564
4.88753
4.89636
4.89504
4.89505
4.89522
4.89676
4.89943
4.9032
4.9078
4.91235
4.91573
4.91008
4.90757
4.90658
4.90737
4.91017
4.91514
4.92253
4.93242
4.94408
4.95558
4.95689
4.95095
4.94991
4.95104
4.95657
4.9663
4.98068
5.00039
5.02318
5.04215
5.02817
5.02567
5.02497
5.02656
5.03021
5.03731
5.04926
5.06827
5.09393
5.12881
5.20037
5.19076
5.19041
5.19207
5.19917
5.2113
5.22897
5.25309
5.28069
5.31354
7.39104
7.38879
7.38774
7.38841
7.39063
7.39411
7.39898
7.40494
7.41129
7.41708
6.92934
6.9298
6.93007
6.93007
6.92995
6.92973
6.92944
6.92915
6.92889
6.92853
4.96746
4.9671
4.9667
4.96667
4.96693
4.96737
4.96792
4.96848
4.96899
4.96874
4.88842
4.8896
4.89035
4.89025
4.88973
4.88897
4.88814
4.88736
4.88696
4.88674
4.86323
4.86231
4.86198
4.86212
4.86277
4.86388
4.86541
4.86721
4.86908
4.87002
4.87503
4.87413
4.87402
4.87413
4.8751
4.87678
4.87907
4.88172
4.88415
4.88599
4.88185
4.88068
4.88018
4.88058
4.88196
4.88436
4.88783
4.8923
4.89739
4.90306
4.91901
4.9154
4.91485
4.91558
4.9189
4.92458
4.93263
4.94317
4.95461
4.96418
4.98843
4.98821
4.98836
4.98918
4.99053
4.99313
4.99747
5.00457
5.01309
5.03087
5.17623
5.16923
5.16927
5.17066
5.176
5.18458
5.19633
5.21124
5.2258
5.24494
7.15296
7.15142
7.15072
7.15119
7.15269
7.1552
7.15863
7.16267
7.16675
7.17034
6.70592
6.70631
6.70652
6.70653
6.70646
6.70632
6.70614
6.70595
6.70578
6.70546
4.96235
4.96222
4.96202
4.96203
4.96222
4.96253
4.96293
4.96335
4.96382
4.96345
4.88423
4.8851
4.8856
4.8856
4.88533
4.88496
4.88456
4.88421
4.88418
4.88417
4.85845
4.85792
4.85776
4.85784
4.85815
4.8587
4.85946
4.86039
4.86146
4.86199
4.86459
4.86384
4.86362
4.86371
4.86442
4.86565
4.86728
4.8691
4.87071
4.87198
4.86743
4.86685
4.86658
4.86679
4.8675
4.86871
4.87039
4.87248
4.87478
4.8779
4.89783
4.89543
4.89509
4.89565
4.89783
4.90143
4.90631
4.91247
4.91881
4.92461
4.96448
4.96519
4.96573
4.96618
4.96649
4.96704
4.96787
4.96965
4.97065
4.98099
5.15953
5.1544
5.15466
5.15593
5.16005
5.16639
5.17451
5.18409
5.19163
5.20392
6.90271
6.90165
6.90122
6.90152
6.90255
6.90428
6.90659
6.90921
6.91173
6.91391
6.47141
6.47175
6.4719
6.47192
6.47188
6.4718
6.47168
6.47156
6.47144
6.47115
4.95775
4.95783
4.95779
4.95784
4.95797
4.95817
4.95842
4.95871
4.95917
4.95871
4.88199
4.88265
4.88297
4.88301
4.88291
4.88279
4.88268
4.88261
4.88284
4.88298
4.85696
4.85671
4.85667
4.8567
4.8568
4.85699
4.85727
4.85768
4.85828
4.85862
4.85988
4.85922
4.85894
4.85901
4.85955
4.86051
4.86175
4.86311
4.86431
4.86531
4.86061
4.86026
4.86009
4.8602
4.86059
4.86125
4.86211
4.86315
4.86424
4.86613
4.88611
4.88438
4.88413
4.8846
4.88613
4.88857
4.89176
4.89567
4.89956
4.90373
4.94944
4.95038
4.95107
4.95134
4.95126
4.951
4.95044
4.95008
4.94803
4.95503
5.14739
5.1436
5.14401
5.1452
5.14849
5.15336
5.15921
5.16562
5.16928
5.17802
6.6405
6.63981
6.63953
6.63973
6.64042
6.64155
6.64303
6.64465
6.64612
6.64742
6.22587
6.22616
6.22627
6.22629
6.22628
6.22622
6.22615
6.22607
6.22598
6.22571
4.95346
4.95377
4.95384
4.95394
4.95401
4.95411
4.95425
4.95442
4.95492
4.95441
4.88063
4.88113
4.8813
4.88135
4.88136
4.8814
4.88147
4.88159
4.88198
4.88229
4.85702
4.85695
4.85699
4.85699
4.85696
4.85694
4.85694
4.85704
4.85734
4.85764
4.85804
4.85747
4.85719
4.85723
4.85764
4.85836
4.85929
4.86032
4.86124
4.86205
4.85775
4.85749
4.85736
4.85741
4.85764
4.85803
4.85851
4.85907
4.85962
4.86082
4.87923
4.87793
4.87772
4.8781
4.8792
4.88091
4.88308
4.88569
4.88825
4.89155
4.93853
4.93935
4.94005
4.94025
4.94009
4.93964
4.93871
4.93771
4.93472
4.94011
5.13759
5.13481
5.1353
5.13643
5.13912
5.14298
5.14736
5.15181
5.15324
5.16
6.36666
6.36623
6.36607
6.3662
6.36663
6.36732
6.36822
6.36915
6.36994
6.3707
5.96959
5.96984
5.96992
5.96994
5.96993
5.9699
5.96985
5.96979
5.96973
5.96947
4.94938
4.94989
4.95004
4.95017
4.95022
4.95024
4.95027
4.95035
4.95092
4.95047
4.87956
4.8799
4.87995
4.87999
4.88005
4.88018
4.88036
4.88059
4.88107
4.88157
4.85775
4.85776
4.85782
4.8578
4.85772
4.8576
4.85748
4.85742
4.85755
4.85786
4.85756
4.85709
4.85684
4.85686
4.85714
4.85765
4.85831
4.85904
4.85973
4.86037
4.85686
4.85666
4.85655
4.85657
4.85671
4.85693
4.85721
4.85751
4.8578
4.85858
4.87434
4.87336
4.87317
4.87345
4.87421
4.87538
4.87684
4.87855
4.88027
4.88293
4.92852
4.92907
4.92969
4.92986
4.92974
4.92935
4.92849
4.9275
4.92454
4.92896
5.12816
5.12619
5.12669
5.12776
5.12998
5.13308
5.13644
5.13959
5.13968
5.14511
6.08174
6.08149
6.0814
6.08148
6.08172
6.08212
6.08262
6.0831
6.08349
6.08391
5.70321
5.70342
5.70349
5.7035
5.7035
5.70348
5.70344
5.7034
5.70334
5.70311
4.94521
4.94585
4.94608
4.94625
4.94629
4.94626
4.94619
4.94618
4.94677
4.94657
4.87839
4.87852
4.87849
4.87849
4.87856
4.87873
4.87895
4.87924
4.87971
4.88042
4.85859
4.85858
4.85862
4.85859
4.85851
4.85838
4.85824
4.85814
4.85819
4.85854
4.85769
4.85734
4.85715
4.85714
4.85732
4.85763
4.85805
4.85853
4.85901
4.8595
4.85697
4.85681
4.85673
4.85673
4.8568
4.85691
4.85705
4.8572
4.85734
4.85779
4.8697
4.86898
4.86883
4.869
4.86947
4.87019
4.87108
4.87211
4.8732
4.87524
4.91724
4.91752
4.918
4.91814
4.91805
4.91774
4.91707
4.91626
4.91381
4.91738
5.11633
5.11505
5.11551
5.11649
5.11828
5.12072
5.12327
5.12541
5.12469
5.12892
5.78656
5.78643
5.78638
5.78642
5.78655
5.78674
5.787
5.78721
5.78737
5.78758
5.42759
5.42776
5.4278
5.42781
5.42781
5.4278
5.42778
5.42774
5.4277
5.42751
4.93954
4.94018
4.94055
4.94079
4.94084
4.94075
4.94058
4.94042
4.94078
4.94109
4.87679
4.87667
4.87656
4.87651
4.87657
4.87672
4.87695
4.87723
4.87765
4.87849
4.8591
4.85904
4.85904
4.85901
4.85895
4.85886
4.85877
4.85871
4.85874
4.85908
4.85814
4.85791
4.85779
4.85778
4.85787
4.85804
4.85827
4.85855
4.85884
4.85918
4.8576
4.85751
4.85746
4.85745
4.85746
4.8575
4.85754
4.85758
4.85762
4.85783
4.86472
4.86428
4.86417
4.86424
4.86448
4.86484
4.86527
4.86577
4.86637
4.86774
4.90353
4.90357
4.90386
4.90391
4.90378
4.90347
4.90293
4.9023
4.90068
4.9033
5.09505
5.09435
5.09474
5.09554
5.09687
5.09865
5.10043
5.10169
5.10054
5.10334
5.48212
5.48206
5.48205
5.48206
5.4821
5.48216
5.48224
5.4823
5.48235
5.48245
5.14253
5.14263
5.14264
5.14264
5.14264
5.14264
5.14264
5.14263
5.14263
5.14254
4.92471
4.92527
4.92589
4.92622
4.9263
4.92618
4.92589
4.92549
4.92508
4.92571
4.87368
4.87333
4.87313
4.87303
4.87304
4.87316
4.87336
4.87364
4.87404
4.87487
4.85937
4.8593
4.85928
4.85925
4.85922
4.85919
4.85915
4.85914
4.85916
4.85939
4.85895
4.85883
4.85877
4.85876
4.8588
4.85888
4.85899
4.85912
4.85927
4.85945
4.85863
4.85859
4.85857
4.85856
4.85856
4.85855
4.85854
4.85853
4.85853
4.85857
4.86083
4.86064
4.86059
4.86061
4.8607
4.86083
4.86098
4.86115
4.86138
4.86202
4.88685
4.88669
4.88674
4.88669
4.88651
4.8862
4.88578
4.88536
4.88479
4.88649
5.04091
5.04062
5.04087
5.04137
5.04216
5.0432
5.04422
5.04478
5.04377
5.04481
5.16848
5.16845
5.16846
5.16846
5.16846
5.16847
5.16846
5.16846
5.16843
5.16849
11.269
11.3841
11.3385
11.1222
82.8104
84.8877
85.3475
85.9967
143.137
148.611
149.081
147.836
202.8
212.237
212.104
207.815
264.482
278.143
276.938
269.486
332.777
351.057
348.957
340.214
395.161
417.812
415.429
408.038
433.169
459.441
457.494
452.919
345.682
368.26
365.71
364.361
11.4769
11.7155
11.5594
11.1514
9.71377
9.77314
9.77597
9.73198
76.0777
79.3217
80.0812
80.2023
133.885
144.805
145.906
143.741
192.905
214.535
215.07
209.174
256.139
290.982
290.035
280.086
329.51
380.274
378.499
365.624
399.601
466.622
465.655
452.625
446.087
527.576
528.617
517.427
350.522
422.882
420.973
416.138
10.7115
10.9424
10.8719
10.6516
8.77684
8.78981
8.7888
8.77729
26.5381
28.9549
28.2177
25.7086
49.3569
53.763
52.099
47.4254
74.5825
81.3419
78.2226
70.7073
103.456
112.996
107.818
96.7359
139.442
152.805
145.177
129.285
177.31
194.675
184.516
163.493
207.529
228.706
216.446
190.91
164.729
181.622
170.139
149.303
9.91283
10.0036
9.98041
9.8812
8.51189
8.51445
8.51511
8.51415
11.4729
11.7226
11.693
11.4959
21.2127
21.94
21.8766
21.3345
31.9971
33.4839
33.232
31.9164
44.5104
46.9439
46.2798
43.7578
60.6338
64.4024
63.0827
58.7667
78.0554
83.1683
80.9018
74.458
92.5753
99.126
95.8394
87.1475
71.9348
77.0753
73.5636
65.9624
9.44869
9.49312
9.49005
9.44964
8.33287
8.33397
8.33423
8.33358
7.04185
7.13342
7.15862
7.12878
11.6779
11.9742
12.0572
11.9712
16.8711
17.4856
17.5861
17.3194
22.8365
23.8565
23.8924
23.2885
30.7129
32.338
32.2253
31.0366
39.223
41.4579
41.0403
39.0611
46.2613
49.1975
48.3807
45.4007
34.4009
36.6196
35.4295
32.5495
9.09835
9.12229
9.1239
9.10694
8.18255
8.18347
8.18356
8.18279
5.60669
5.62097
5.62619
5.62447
7.45585
7.52579
7.55852
7.55989
9.93738
10.1211
10.1884
10.1633
12.8336
13.1794
13.2657
13.1652
16.796
17.4125
17.5025
17.2348
21.0456
21.9425
21.9659
21.4368
24.4782
25.7302
25.6288
24.6926
17.4808
18.3749
18.0205
17.0168
8.81281
8.82472
8.82708
8.82094
8.03171
8.0326
8.03267
8.03189
5.19692
5.20011
5.20099
5.2
5.8231
5.83892
5.84757
5.84977
6.91425
6.96715
6.99232
6.99342
8.25891
8.37117
8.41552
8.40581
10.2336
10.4612
10.5312
10.4824
12.3586
12.7064
12.7767
12.6576
14.053
14.5727
14.6194
14.3552
10.2218
10.558
10.4796
10.1884
8.56538
8.57085
8.57292
8.57152
7.87347
7.87434
7.87441
7.87366
5.06321
5.06438
5.06439
5.06345
5.23312
5.2355
5.23694
5.23759
5.68404
5.69641
5.70295
5.70433
6.26557
6.29593
6.31049
6.31202
7.19408
7.26969
7.30036
7.29466
8.21561
8.3366
8.37647
8.3578
9.06869
9.26921
9.31381
9.24841
7.33893
7.45167
7.44562
7.37953
8.33737
8.33965
8.34111
8.34133
7.70548
7.70632
7.70639
7.70568
5.01329
5.01422
5.01416
5.01323
5.02032
5.02044
5.0205
5.02054
5.20441
5.20675
5.20804
5.20841
5.45535
5.46197
5.46557
5.46668
5.88057
5.90357
5.91413
5.91399
6.35901
6.39485
6.41017
6.41046
6.80639
6.8777
6.90022
6.88555
6.19852
6.23246
6.2368
6.22628
8.11415
8.11494
8.11583
8.11639
7.52702
7.5278
7.52787
7.52721
4.99133
4.99219
4.99214
4.99126
4.93893
4.93883
4.93873
4.93864
5.00959
5.00982
5.00995
5.01
5.12348
5.12438
5.12496
5.12535
5.32339
5.33041
5.33373
5.33365
5.55977
5.56823
5.57286
5.57492
5.81407
5.83894
5.84803
5.84378
5.69866
5.70622
5.70889
5.70966
7.88847
7.88858
7.88909
7.88961
7.3377
7.33842
7.33848
7.33787
4.97959
4.98037
4.98032
4.97949
4.90613
4.9061
4.90602
4.9059
4.92538
4.92528
4.92522
4.92523
4.9803
4.98016
4.9801
4.98018
5.07668
5.07925
5.08037
5.08006
5.20666
5.20776
5.20884
5.2102
5.36631
5.37603
5.37936
5.37666
5.45416
5.45322
5.4538
5.45609
7.65707
7.65692
7.65718
7.65759
7.13733
7.13798
7.13803
7.13748
4.97183
4.97253
4.97246
4.97167
4.89242
4.89243
4.89237
4.89225
4.8873
4.88718
4.88713
4.88714
4.91575
4.91554
4.91541
4.9154
4.96187
4.96314
4.9636
4.96325
5.04267
5.0422
5.0423
5.04304
5.15355
5.1584
5.15955
5.15697
5.32495
5.32165
5.32115
5.32308
7.41818
7.41797
7.4181
7.41837
6.92579
6.92637
6.92641
6.92591
4.9658
4.9664
4.9663
4.96555
4.88654
4.88656
4.88651
4.88638
4.86973
4.86964
4.86961
4.86964
4.88596
4.88583
4.88574
4.8857
4.90699
4.9078
4.90805
4.90773
4.96376
4.96322
4.96311
4.96348
5.04878
5.052
5.05234
5.04977
5.25295
5.24941
5.2485
5.2498
7.17064
7.17048
7.17054
7.17067
6.70303
6.70353
6.70355
6.70311
4.96066
4.96114
4.96102
4.96031
4.88397
4.884
4.88395
4.88382
4.86175
4.8617
4.86169
4.86171
4.87203
4.87197
4.87191
4.87186
4.88064
4.88121
4.88136
4.88109
4.92485
4.92457
4.92447
4.92458
4.99617
4.99879
4.99883
4.99626
5.21089
5.20785
5.20687
5.20752
6.91368
6.91364
6.91366
6.91367
6.46905
6.46946
6.46947
6.46908
4.9561
4.95647
4.95631
4.95566
4.88285
4.88289
4.88284
4.88271
4.85849
4.85848
4.85847
4.85848
4.86542
4.8654
4.86536
4.86532
4.86809
4.8685
4.8686
4.86838
4.90484
4.90484
4.90479
4.90471
4.96893
4.97136
4.97128
4.96867
5.18476
5.1825
5.18159
5.1816
6.64681
6.64691
6.64693
6.64682
6.22399
6.22431
6.22429
6.22397
4.95205
4.95231
4.95212
4.95151
4.88233
4.88241
4.88237
4.88221
4.85766
4.85768
4.85768
4.85767
4.86219
4.86219
4.86217
4.86214
4.86222
4.86251
4.86256
4.86238
4.89336
4.89359
4.89358
4.89337
4.95328
4.9557
4.95557
4.95288
5.16679
5.16545
5.16468
5.16406
6.36982
6.37007
6.37008
6.36987
5.96819
5.96841
5.96837
5.96811
4.94847
4.94864
4.94844
4.94788
4.88193
4.88208
4.88205
4.88185
4.85805
4.85811
4.85812
4.85808
4.86054
4.86056
4.86055
4.86053
4.85952
4.85971
4.85973
4.85959
4.88513
4.88551
4.88554
4.88523
4.94148
4.94401
4.94389
4.94109
5.15202
5.15169
5.15113
5.14988
6.08284
6.08321
6.08322
6.08294
5.70235
5.70246
5.70239
5.7022
4.94521
4.94538
4.9452
4.94467
4.88123
4.88148
4.88147
4.8812
4.85888
4.85898
4.85899
4.85892
4.85969
4.85972
4.85973
4.85971
4.85835
4.85846
4.85846
4.85837
4.87745
4.87789
4.87795
4.87762
4.92867
4.93133
4.93126
4.92843
5.13572
5.13661
5.13633
5.13438
5.7864
5.78685
5.78687
5.78656
5.42738
5.42735
5.42726
5.42716
4.941
4.94139
4.94128
4.94066
4.8796
4.87994
4.87994
4.8796
4.85947
4.85959
4.8596
4.85952
4.85936
4.8594
4.85941
4.85941
4.85808
4.85813
4.85812
4.85808
4.86956
4.86996
4.87001
4.86974
4.91187
4.91428
4.91426
4.91178
5.10925
5.11165
5.11172
5.10891
5.48141
5.48193
5.48196
5.48162
5.14313
5.14289
5.1428
5.14287
4.92733
4.92821
4.92819
4.92723
4.87564
4.87587
4.87584
4.87558
4.85963
4.8597
4.85971
4.85965
4.85958
4.85961
4.85962
4.85963
4.85863
4.85863
4.85863
4.85863
4.86301
4.86323
4.86327
4.86313
4.89063
4.8918
4.89177
4.89056
5.04765
5.05117
5.05149
5.04806
5.16797
5.16853
5.16854
5.16817
10.1126
9.36666
9.05458
8.94205
8.87758
8.83213
8.80185
8.78483
8.77537
8.76975
103.674
49.1182
35.7479
29.9538
24.5568
19.9492
16.3632
13.6894
11.7814
10.4193
160.952
70.8605
51.0937
43.7432
37.1919
31.426
26.5933
22.7125
19.6688
17.2942
206.427
82.5938
55.9826
46.7288
39.3627
32.7672
27.2292
22.8356
19.444
16.8562
242.065
88.9525
58.8267
47.9661
40.0781
32.737
26.6773
21.9549
18.3682
15.7227
278.039
94.6919
60.9749
48.303
39.8461
31.7877
25.353
20.4653
16.8824
14.3311
307.097
98.1601
61.6912
47.7817
39.0465
30.5202
23.9438
19.0745
15.5949
13.2106
315.211
93.7535
56.6287
42.2284
33.9179
25.7873
19.9245
15.7972
13.0461
11.2292
224.475
56.1348
30.5436
21.1163
16.2835
12.2242
9.95522
8.61311
7.80414
7.27996
9.56918
9.54454
9.38914
9.36299
9.31641
9.29028
9.26952
9.25847
9.25102
9.2446
9.36711
9.05697
8.90474
8.81914
8.7652
8.72958
8.70645
8.6927
8.68529
8.6806
53.1032
28.6709
22.5567
19.4497
16.6689
14.198
12.1633
10.6007
9.46091
8.66876
89.9995
46.2749
35.801
31.0213
27.1817
23.5094
20.2909
17.6319
15.5038
13.8848
122.267
58.6126
42.8654
35.6348
30.551
25.7671
21.6966
18.4234
15.8733
13.9867
152.565
68.7685
47.857
38.521
32.3852
26.6789
21.9779
18.2986
15.486
13.4758
186.44
78.8766
52.1457
40.4763
33.2587
26.6702
21.4546
17.4963
14.5918
12.5916
217.208
86.4759
54.7141
41.2507
33.3541
26.1782
20.6985
16.6613
13.7711
11.8536
233.199
86.7512
51.9186
37.4848
29.5788
22.5779
17.5745
14.0837
11.7636
10.2832
167.409
54.7564
29.0626
19.3797
14.6949
11.2266
9.27463
8.12957
7.43364
7.00278
9.81852
9.50197
9.3308
9.26752
9.21262
9.17934
9.15519
9.14044
9.13004
9.12103
8.73773
8.69631
8.66358
8.63635
8.61505
8.59959
8.58928
8.58309
8.57966
8.5772
19.9484
16.5765
14.5029
12.6846
11.115
9.81192
8.79762
8.04871
7.50995
7.13735
35.9209
28.7126
24.9257
21.6898
18.9142
16.5059
14.5108
12.9064
11.6311
10.6692
51.0381
37.9367
31.5413
26.3508
22.2597
18.8402
16.0969
13.9477
12.2883
11.0744
66.1293
45.693
36.6305
29.5942
24.3796
20.1259
16.8138
14.2907
12.3792
11.026
83.227
53.3446
41.1447
32.0849
25.7358
20.6619
16.8424
14.0204
11.9743
10.5808
99.1255
59.1915
44.151
33.4587
26.3368
20.7057
16.598
13.6545
11.5707
10.1995
108.42
59.7588
42.6001
31.0009
23.7648
18.2181
14.4247
11.857
10.1704
9.09761
75.9445
36.6496
23.8686
16.2729
12.2257
9.68245
8.28974
7.4715
6.9627
6.6433
9.57147
9.37699
9.24303
9.16317
9.10554
9.0695
9.04441
9.02731
9.01465
9.00376
8.50933
8.49926
8.48821
8.47828
8.47074
8.46561
8.4624
8.46077
8.46037
8.4599
10.9415
10.1335
9.28438
8.43996
7.73279
7.19008
6.79127
6.50323
6.29467
6.1496
19.868
18.0288
16.177
14.304
12.6883
11.36
10.2986
9.46281
8.80356
8.309
28.4782
24.6335
21.1906
17.9888
15.4008
13.3286
11.705
10.4521
9.49363
8.79843
37.2437
30.6672
25.4315
20.8638
17.3677
14.6402
12.5635
11.0095
9.84184
9.01753
47.4707
36.9716
29.5249
23.3602
18.865
15.44
12.9155
11.0864
9.77448
8.88363
57.0696
42.0773
32.5535
25.0137
19.7599
15.8316
13.027
11.0614
9.68098
8.76941
62.7993
43.2653
32.0891
23.7126
18.2356
14.3065
11.6798
9.94108
8.80282
8.06977
42.7461
26.2042
17.9726
12.7916
10.0236
8.39136
7.47313
6.91841
6.55963
6.32899
9.32681
9.18825
9.08108
9.01139
8.96315
8.93148
8.90872
8.89239
8.88006
8.86962
8.3334
8.3319
8.33039
8.32921
8.32851
8.32821
8.32824
8.3287
8.32981
8.33083
6.99881
6.75862
6.50566
6.26726
6.06893
5.91253
5.79217
5.70052
5.63117
5.5832
11.6112
10.9253
10.1515
9.37384
8.68705
8.11476
7.65555
7.29396
7.00548
6.78755
16.4402
14.9575
13.3757
11.8596
10.5721
9.52175
8.69356
8.05535
7.56707
7.21427
21.5366
18.9349
16.3583
14.0119
12.1132
10.6149
9.47268
8.62379
7.98362
7.52914
27.7681
23.4444
19.5088
16.0872
13.4439
11.422
9.9334
8.8635
8.09577
7.57181
33.736
27.3832
22.0659
17.6422
14.3794
11.9551
10.2306
9.03393
8.18815
7.62147
37.3945
28.7911
22.2626
17.1544
13.6363
11.1587
9.50877
8.42155
7.7002
7.22516
24.5288
17.3348
12.8094
9.95719
8.36367
7.40493
6.83003
6.46704
6.22052
6.05875
9.05264
8.96953
8.8979
8.8468
8.80936
8.78253
8.76231
8.74711
8.73538
8.72559
8.18337
8.18351
8.18388
8.18446
8.18519
8.18597
8.18678
8.18776
8.18925
8.19101
5.60802
5.5648
5.51344
5.46126
5.41406
5.37359
5.34009
5.31314
5.29257
5.2796
7.5046
7.31354
7.06513
6.80575
6.57052
6.37234
6.21226
6.08443
5.97781
5.89485
9.97777
9.47196
8.8507
8.22744
7.67865
7.22432
6.86234
6.57998
6.36005
6.20033
12.7362
11.7743
10.6616
9.59964
8.707
7.99565
7.45055
7.04307
6.72811
6.50019
16.3274
14.6098
12.7534
11.0609
9.69836
8.64822
7.87071
7.30843
6.89762
6.61333
19.8649
17.2466
14.5835
12.2679
10.4873
9.16069
8.21198
7.55017
7.06994
6.74002
22.1186
18.4204
14.9979
12.2242
10.2382
8.84209
7.90161
7.27198
6.84165
6.55063
14.3943
11.5384
9.42795
8.05198
7.21591
6.68
6.33282
6.10284
5.93849
5.82919
8.79753
8.7514
8.70718
8.67169
8.64334
8.62131
8.6039
8.5903
8.57955
8.57072
8.03259
8.03293
8.03348
8.03424
8.03509
8.03593
8.03675
8.03769
8.0391
8.0409
5.19671
5.18854
5.17888
5.16822
5.15758
5.14755
5.13863
5.13124
5.12618
5.12429
5.83876
5.79282
5.73042
5.66329
5.60092
5.54739
5.50338
5.46696
5.43312
5.40494
6.95007
6.79205
6.58425
6.36811
6.17124
6.00317
5.86452
5.75207
5.66101
5.59417
8.29792
7.96325
7.54439
7.13201
6.77522
6.48487
6.25686
6.0815
5.93868
5.83183
10.2207
9.55378
8.76944
8.0316
7.4193
6.93865
6.57422
6.30298
6.09725
5.95215
12.1905
11.1261
9.92512
8.84932
7.99553
7.3497
6.87717
6.53873
6.28124
6.09836
13.5196
11.9507
10.3399
8.99917
8.00461
7.29198
6.79592
6.45176
6.20677
6.03687
9.42629
8.38634
7.50732
6.88476
6.46191
6.16835
5.96313
5.82084
5.71383
5.6423
8.56198
8.53743
8.51069
8.4864
8.46533
8.44781
8.43335
8.42166
8.41218
8.40452
7.87436
7.87462
7.87504
7.87561
7.87625
7.87688
7.87747
7.87817
7.87933
7.88091
5.06296
5.06119
5.05922
5.05687
5.05425
5.05148
5.04889
5.04683
5.04609
5.047
5.23564
5.22718
5.21544
5.2023
5.18989
5.17938
5.17106
5.16392
5.15498
5.14623
5.69443
5.65146
5.59145
5.52541
5.46178
5.40433
5.35414
5.3111
5.27462
5.24774
6.28733
6.18741
6.05371
5.91585
5.79086
5.68441
5.59688
5.52647
5.4647
5.41643
7.22114
6.98849
6.69975
6.4167
6.17132
5.97025
5.81044
5.68574
5.5866
5.51565
8.22907
7.83671
7.36135
6.91975
6.55426
6.26681
6.04673
5.88214
5.74898
5.65088
8.98508
8.36903
7.69621
7.11396
6.66031
6.32043
6.07146
5.89051
5.75608
5.66118
7.18612
6.82357
6.46918
6.18825
5.97536
5.81563
5.69602
5.60962
5.54126
5.49573
8.33713
8.32377
8.30741
8.29095
8.27565
8.26219
8.25063
8.24097
8.23293
8.22655
7.70636
7.70653
7.70681
7.70719
7.70761
7.70801
7.70836
7.70879
7.70968
7.71102
5.01329
5.01254
5.0118
5.01096
5.00997
5.00886
5.00781
5.00712
5.00735
5.0086
5.02003
5.01895
5.01783
5.01664
5.01585
5.01578
5.01646
5.01712
5.0156
5.01306
5.20582
5.19451
5.17767
5.15772
5.13712
5.11729
5.09886
5.08212
5.06736
5.05657
5.46129
5.43457
5.39595
5.35328
5.312
5.27473
5.24247
5.21527
5.18907
5.16742
5.89252
5.81796
5.72102
5.6196
5.52585
5.44423
5.37552
5.31907
5.27214
5.23843
6.38042
6.25266
6.08404
5.91748
5.77046
5.64771
5.54823
5.47018
5.40262
5.35088
6.80412
6.58121
6.32447
6.08761
5.89035
5.73345
5.61194
5.51944
5.44804
5.39727
6.17812
6.04684
5.90091
5.77166
5.66398
5.57726
5.5082