/*--------------------------------*- C++ -*----------------------------------*\
| =========                 |                                                 |
| \\      /  F ield         | foam-extend: Open Source CFD                    |
|  \\    /   O peration     | Version:     4.0                                |
|   \\  /    A nd           | Web:         http://www.foam-extend.org         |
|    \\/     M anipulation  |                                                 |
\*---------------------------------------------------------------------------*/
FoamFile
{
    version     2.0;
    format      ascii;
    class       volScalarField;
    location    "2500";
    object      MaU;
}
// * * * * * * * * * * * * * * * * * * * * * * * * * * * * * * * * * * * * * //

dimensions      [0 0 0 0 0 0 0];

internalField   nonuniform List<scalar> 
34480
(
0.623808
0.624805
0.62534
0.625452
0.625146
0.624346
0.622913
0.620166
0.61407
0.608273
0.627231
0.628057
0.628517
0.628549
0.627989
0.626695
0.624689
0.621724
0.614705
0.609149
0.629419
0.630177
0.630549
0.630456
0.62972
0.628371
0.626595
0.6243
0.617263
0.612142
0.629415
0.630194
0.630635
0.630673
0.630161
0.629216
0.627941
0.626359
0.61971
0.615063
0.629878
0.630761
0.631343
0.6316
0.631411
0.630944
0.630215
0.629404
0.623539
0.619377
0.629476
0.630418
0.631083
0.63147
0.631518
0.631457
0.631263
0.631274
0.626592
0.62325
0.629682
0.630766
0.631539
0.632066
0.632324
0.632604
0.632905
0.633735
0.6305
0.627959
0.629094
0.630219
0.630948
0.631361
0.631504
0.631738
0.632191
0.633561
0.631842
0.630487
0.628845
0.630126
0.63097
0.631517
0.631837
0.632231
0.632934
0.634799
0.634351
0.632904
0.625042
0.626067
0.626104
0.625226
0.623605
0.621619
0.619718
0.619173
0.618372
0.619156
0.613909
0.615371
0.615944
0.615695
0.614551
0.612235
0.60812
0.60085
0.590139
0.576282
0.618526
0.619834
0.620358
0.620096
0.618854
0.616257
0.611715
0.603867
0.591208
0.575048
0.621598
0.622821
0.623293
0.622997
0.621681
0.619039
0.614567
0.606881
0.593376
0.576038
0.622408
0.623643
0.62418
0.624018
0.62291
0.620611
0.616539
0.609281
0.595385
0.577626
0.623553
0.624863
0.625517
0.625562
0.624753
0.622908
0.619356
0.612741
0.598941
0.581337
0.623691
0.625044
0.625779
0.625959
0.625386
0.623956
0.62095
0.615123
0.601872
0.585057
0.624346
0.625806
0.626636
0.626961
0.626605
0.625547
0.623078
0.618105
0.605781
0.59004
0.62408
0.625569
0.626368
0.626609
0.626198
0.625203
0.623026
0.61877
0.607635
0.593582
0.624078
0.625675
0.626565
0.626921
0.626689
0.625927
0.624141
0.620632
0.610755
0.597503
0.620467
0.62188
0.622214
0.62155
0.619947
0.617552
0.614093
0.609285
0.599883
0.589754
0.60628
0.607847
0.608411
0.608091
0.606849
0.604529
0.600834
0.595266
0.587193
0.577004
0.611182
0.612716
0.613273
0.612896
0.611464
0.608713
0.604138
0.59688
0.58549
0.570333
0.614528
0.61606
0.616612
0.616232
0.614736
0.611806
0.606822
0.598657
0.584639
0.564818
0.615831
0.617426
0.618055
0.617787
0.61642
0.61363
0.608641
0.60005
0.58388
0.559953
0.617453
0.619137
0.619876
0.619789
0.618652
0.61617
0.611418
0.602808
0.585138
0.557922
0.618011
0.619751
0.620576
0.620621
0.619686
0.617525
0.613118
0.604786
0.586229
0.556644
0.619029
0.620863
0.621777
0.621968
0.621235
0.6194
0.615401
0.607544
0.588675
0.557424
0.619063
0.620922
0.621821
0.621957
0.621196
0.619448
0.615721
0.608392
0.589737
0.557644
0.61932
0.621243
0.622212
0.622438
0.621808
0.620253
0.616887
0.610223
0.592211
0.558716
0.615951
0.617705
0.618261
0.617728
0.616089
0.613344
0.608832
0.601397
0.583941
0.550861
0.60072
0.602094
0.602566
0.602258
0.601166
0.599234
0.596364
0.592459
0.5875
0.581969
0.605356
0.606821
0.60733
0.606921
0.605521
0.602984
0.59906
0.593406
0.58558
0.576656
0.608551
0.610135
0.61068
0.610239
0.608687
0.605797
0.601145
0.594101
0.583508
0.570572
0.610052
0.611774
0.612408
0.612032
0.610486
0.607497
0.602448
0.594402
0.58115
0.563936
0.611942
0.613792
0.61453
0.614288
0.612865
0.609977
0.604819
0.596183
0.580679
0.559468
0.61279
0.614724
0.615547
0.615414
0.614121
0.611401
0.606298
0.597403
0.580103
0.555414
0.614081
0.61611
0.617016
0.617011
0.615874
0.613374
0.608455
0.59956
0.58098
0.553346
0.614372
0.616427
0.617329
0.617288
0.616131
0.613682
0.608896
0.600171
0.5809
0.551007
0.614852
0.616942
0.617897
0.61793
0.616879
0.614567
0.609969
0.601578
0.58228
0.549849
0.611731
0.613667
0.614334
0.613826
0.612071
0.608944
0.60358
0.594584
0.575479
0.541848
0.596858
0.59794
0.598301
0.598063
0.597249
0.595865
0.593929
0.591508
0.588755
0.586036
0.600938
0.602178
0.602609
0.602253
0.601078
0.599033
0.596048
0.592101
0.587253
0.582467
0.603679
0.605152
0.605657
0.605238
0.603821
0.601284
0.597415
0.591996
0.58475
0.57713
0.60511
0.606804
0.607415
0.607012
0.605483
0.602642
0.5981
0.5914
0.581616
0.570567
0.607041
0.608921
0.609639
0.609319
0.607801
0.604856
0.599906
0.592244
0.580067
0.56543
0.608017
0.610025
0.610836
0.610593
0.609119
0.60617
0.600992
0.592661
0.578339
0.560219
0.609456
0.611583
0.612476
0.612336
0.610956
0.608094
0.602856
0.594123
0.578017
0.556636
0.609923
0.612091
0.612993
0.612828
0.61142
0.60855
0.603271
0.594351
0.576974
0.552748
0.610575
0.612768
0.613711
0.613605
0.612272
0.609489
0.604264
0.595312
0.577303
0.550003
0.607683
0.609734
0.610481
0.609995
0.608176
0.60483
0.599081
0.589605
0.571371
0.541991
0.594215
0.59502
0.595277
0.595114
0.594561
0.59365
0.59243
0.590996
0.589479
0.588028
0.597698
0.598656
0.598993
0.598716
0.597819
0.596305
0.594199
0.591596
0.588701
0.586123
0.599869
0.601121
0.601554
0.601197
0.600012
0.597956
0.594974
0.591083
0.586396
0.581971
0.601062
0.602597
0.60315
0.602768
0.601384
0.598896
0.595124
0.589941
0.58316
0.576322
0.602857
0.604633
0.605299
0.604954
0.603481
0.600732
0.596359
0.590061
0.581137
0.571553
0.60382
0.605774
0.606541
0.606237
0.604724
0.601815
0.596999
0.589791
0.578787
0.566317
0.605294
0.607401
0.608252
0.608022
0.606532
0.603576
0.598489
0.590597
0.577709
0.56233
0.60585
0.608022
0.608898
0.608645
0.607106
0.604068
0.598779
0.590416
0.576022
0.557901
0.606619
0.608823
0.609731
0.609522
0.608024
0.605014
0.599657
0.590997
0.575624
0.554509
0.60392
0.605997
0.606779
0.606309
0.604478
0.601074
0.595329
0.586173
0.570298
0.546971
0.5924
0.592987
0.593163
0.593062
0.592711
0.592148
0.591418
0.590597
0.589765
0.588935
0.595365
0.596054
0.596302
0.596104
0.595468
0.594419
0.593014
0.591368
0.589668
0.588271
0.596968
0.597958
0.598307
0.598027
0.597104
0.595543
0.593372
0.590701
0.587753
0.58519
0.597849
0.59915
0.599622
0.599293
0.598127
0.59609
0.593138
0.589324
0.584789
0.580596
0.599394
0.600973
0.601562
0.601233
0.599909
0.597513
0.593884
0.588977
0.582699
0.576532
0.600239
0.602037
0.602734
0.602414
0.600979
0.59831
0.594114
0.588218
0.580134
0.571765
0.601654
0.603641
0.604426
0.60415
0.602672
0.599843
0.595228
0.588504
0.57868
0.567966
0.602215
0.604295
0.605117
0.604815
0.603261
0.600281
0.595341
0.587976
0.576659
0.563616
0.60305
0.605178
0.606031
0.605759
0.604211
0.601197
0.596092
0.58827
0.575866
0.560277
0.600503
0.60252
0.603298
0.602849
0.60107
0.597769
0.592347
0.584045
0.570999
0.553482
0.591122
0.591558
0.591677
0.591618
0.591406
0.591073
0.590649
0.590186
0.589721
0.58919
0.59369
0.59416
0.594332
0.5942
0.593773
0.593082
0.592183
0.591171
0.590178
0.589404
0.594794
0.595532
0.595797
0.595591
0.594913
0.593789
0.592278
0.590504
0.588672
0.587177
0.595366
0.596406
0.59679
0.596526
0.5956
0.594021
0.591817
0.589112
0.586136
0.583571
0.596608
0.597938
0.598435
0.598147
0.597028
0.595055
0.59219
0.588518
0.584211
0.580276
0.597271
0.598844
0.599451
0.599147
0.597871
0.595562
0.592092
0.587476
0.581711
0.576169
0.598565
0.600354
0.601052
0.600767
0.599395
0.596847
0.592883
0.587415
0.580174
0.572845
0.599057
0.600964
0.60171
0.601393
0.599919
0.597166
0.592804
0.586632
0.578063
0.5689
0.599917
0.601893
0.602671
0.602372
0.600871
0.598031
0.593433
0.586737
0.577128
0.565989
0.597479
0.599362
0.600102
0.599682
0.598017
0.594955
0.590079
0.582925
0.572654
0.560022
0.590189
0.590528
0.590609
0.590577
0.590453
0.590261
0.59002
0.589761
0.589495
0.589116
0.592475
0.592783
0.592899
0.592815
0.592541
0.592103
0.591545
0.590935
0.590357
0.589921
0.593172
0.593697
0.593888
0.593745
0.59327
0.592495
0.591481
0.590333
0.589206
0.588329
0.593485
0.594277
0.594575
0.594375
0.593676
0.592506
0.590924
0.589062
0.587133
0.585561
0.594417
0.595486
0.595888
0.595652
0.594753
0.593204
0.591035
0.588378
0.585473
0.582972
0.594874
0.596188
0.596697
0.59643
0.595353
0.593452
0.590705
0.587221
0.583194
0.579558
0.596015
0.597559
0.598158
0.59789
0.596685
0.594505
0.591251
0.586974
0.581765
0.576821
0.596382
0.59806
0.598714
0.598409
0.597082
0.594666
0.59099
0.586031
0.579722
0.573405
0.597243
0.59901
0.599698
0.5994
0.598022
0.595478
0.591529
0.586044
0.57883
0.571068
0.594876
0.596565
0.59724
0.596859
0.595359
0.592635
0.588433
0.58253
0.574713
0.565886
0.589482
0.589759
0.589817
0.589801
0.58973
0.589621
0.589485
0.58934
0.589181
0.588884
0.591577
0.591774
0.591851
0.5918
0.59163
0.59136
0.591022
0.590658
0.59032
0.590069
0.591956
0.592313
0.592446
0.59235
0.59203
0.591515
0.590855
0.590129
0.589441
0.588923
0.592081
0.59266
0.592882
0.592738
0.592232
0.591398
0.590299
0.589048
0.587811
0.586845
0.592728
0.59355
0.593861
0.593678
0.592988
0.591822
0.590237
0.588369
0.586436
0.584852
0.592985
0.594037
0.594447
0.594226
0.593358
0.59186
0.589766
0.587216
0.58445
0.582082
0.59397
0.595249
0.595745
0.59551
0.594501
0.592718
0.590151
0.586917
0.583242
0.579943
0.594172
0.59559
0.596142
0.595868
0.59473
0.592702
0.589729
0.585887
0.581349
0.577063
0.595026
0.596549
0.597136
0.596862
0.595655
0.593479
0.590224
0.5859
0.580623
0.575325
0.592698
0.594153
0.594746
0.594413
0.59311
0.590781
0.5873
0.582611
0.576831
0.570821
0.588928
0.589166
0.589208
0.589201
0.589161
0.5891
0.589024
0.588942
0.588842
0.588591
0.5909
0.591024
0.591075
0.591044
0.590942
0.590779
0.590577
0.590362
0.590162
0.590013
0.591028
0.591263
0.591351
0.59129
0.591081
0.590749
0.59033
0.58988
0.589464
0.589158
0.591045
0.591453
0.591613
0.591513
0.591161
0.590587
0.589844
0.58902
0.588233
0.587638
0.591443
0.592051
0.592284
0.592147
0.591639
0.590792
0.58967
0.588388
0.587119
0.586119
0.591528
0.592337
0.592654
0.59248
0.59181
0.590674
0.589131
0.587316
0.585444
0.583913
0.592372
0.593392
0.593788
0.593595
0.592786
0.591385
0.58943
0.587057
0.58451
0.58233
0.592386
0.593537
0.593988
0.593754
0.592818
0.591185
0.588867
0.585988
0.58279
0.579926
0.593244
0.594508
0.594993
0.594755
0.593744
0.591958
0.589376
0.58608
0.582308
0.578754
0.590929
0.592133
0.592634
0.592352
0.591263
0.589347
0.586567
0.58297
0.578803
0.574805
0.588482
0.588694
0.588725
0.588724
0.588701
0.588667
0.588624
0.588577
0.588511
0.588289
0.59038
0.590459
0.590493
0.590476
0.590415
0.590318
0.590198
0.590071
0.589951
0.589858
0.590302
0.590452
0.590508
0.590469
0.590337
0.590129
0.589869
0.589594
0.589346
0.589165
0.590287
0.590566
0.590678
0.590612
0.590375
0.58999
0.5895
0.588967
0.58847
0.588102
0.590475
0.590909
0.591076
0.590978
0.590617
0.590022
0.58925
0.58839
0.587568
0.586939
0.590424
0.591024
0.591261
0.59113
0.590632
0.5898
0.588697
0.587437
0.586189
0.585206
0.591156
0.591942
0.592247
0.592096
0.591473
0.590413
0.588972
0.587278
0.585541
0.584114
0.590969
0.591868
0.592221
0.592032
0.591293
0.590028
0.588281
0.586188
0.583979
0.582091
0.591857
0.59287
0.593256
0.593061
0.592249
0.59084
0.588862
0.586428
0.583787
0.581438
0.589533
0.590489
0.590897
0.590667
0.589791
0.588273
0.586128
0.583457
0.580524
0.577921
0.588117
0.58831
0.588334
0.588335
0.588322
0.588303
0.588279
0.588251
0.588206
0.588005
0.58998
0.590032
0.590056
0.590047
0.590011
0.589954
0.589883
0.589806
0.589731
0.589669
0.589715
0.589807
0.589841
0.589816
0.589735
0.589607
0.58945
0.589286
0.58914
0.589035
0.589738
0.589924
0.590001
0.589959
0.589804
0.589553
0.589236
0.588896
0.588583
0.588355
0.589749
0.590048
0.590163
0.590096
0.589847
0.589442
0.588924
0.588361
0.587835
0.587443
0.589602
0.590031
0.590202
0.590107
0.58975
0.589161
0.588395
0.587541
0.58672
0.586094
0.590256
0.59084
0.591068
0.590954
0.590493
0.589718
0.588689
0.58751
0.586347
0.585418
0.589857
0.590532
0.5908
0.590652
0.590091
0.589146
0.587873
0.586395
0.584898
0.583672
0.590817
0.591602
0.591899
0.591747
0.591119
0.590049
0.588585
0.58684
0.585029
0.583494
0.588463
0.58919
0.58951
0.58933
0.58865
0.587491
0.585892
0.58397
0.581951
0.580294
0.587815
0.587992
0.588009
0.588012
0.588005
0.587994
0.58798
0.587964
0.587931
0.587748
0.589682
0.589719
0.589737
0.589733
0.589711
0.589677
0.589635
0.589587
0.589537
0.58949
0.589221
0.589274
0.589293
0.589278
0.589228
0.589152
0.589059
0.588964
0.588881
0.588822
0.589345
0.589468
0.58952
0.589496
0.589397
0.589237
0.589035
0.588821
0.588625
0.588482
0.589205
0.589404
0.589481
0.589435
0.589269
0.589001
0.588663
0.588302
0.587972
0.587731
0.589
0.589298
0.589417
0.589351
0.589104
0.588699
0.588181
0.587615
0.587084
0.586689
0.589608
0.590027
0.590191
0.590109
0.58978
0.589233
0.58852
0.58772
0.586954
0.586356
0.588988
0.589475
0.58967
0.58956
0.58915
0.588468
0.587568
0.586554
0.585559
0.584777
0.590076
0.590664
0.590885
0.590771
0.590305
0.589521
0.588473
0.587257
0.586041
0.585049
0.587661
0.58819
0.588431
0.588296
0.587788
0.586935
0.585781
0.58444
0.583082
0.582052
0.587556
0.587717
0.587729
0.587732
0.587728
0.587723
0.587715
0.587705
0.587681
0.587515
0.58948
0.589509
0.589523
0.589521
0.589509
0.589488
0.589461
0.58943
0.589393
0.589352
0.588787
0.588815
0.588824
0.588813
0.588784
0.588739
0.588687
0.588634
0.58859
0.58856
0.589075
0.589155
0.58919
0.589176
0.589115
0.589015
0.588889
0.588755
0.588633
0.588542
0.588802
0.588929
0.588979
0.588949
0.588841
0.588669
0.588454
0.588227
0.588024
0.587878
0.588574
0.588773
0.588855
0.588811
0.588645
0.588375
0.588034
0.587667
0.587327
0.587081
0.589153
0.589444
0.589558
0.589501
0.589274
0.5889
0.588421
0.587894
0.5874
0.587018
0.588302
0.588639
0.588776
0.588697
0.588407
0.587932
0.587316
0.586638
0.58599
0.585502
0.589587
0.590014
0.590172
0.59009
0.589758
0.589205
0.588478
0.587655
0.586856
0.586219
0.58706
0.587427
0.587604
0.587505
0.58714
0.586534
0.585729
0.584822
0.583927
0.583307
0.587301
0.587444
0.587453
0.587455
0.587453
0.58745
0.587446
0.58744
0.587423
0.587277
0.58938
0.589405
0.589417
0.589417
0.58941
0.589396
0.589378
0.589355
0.589324
0.589284
0.588391
0.588404
0.588406
0.588398
0.58838
0.588355
0.588326
0.5883
0.588279
0.588268
0.588901
0.588953
0.588976
0.588968
0.588931
0.58887
0.588793
0.588711
0.588635
0.588576
0.588515
0.588594
0.588625
0.588606
0.588538
0.58843
0.588296
0.588157
0.588034
0.587949
0.588293
0.588424
0.588478
0.58845
0.588342
0.588167
0.587948
0.587714
0.5875
0.587348
0.588849
0.589041
0.589117
0.589078
0.588926
0.58868
0.588368
0.588031
0.587722
0.587481
0.587753
0.587978
0.588072
0.588018
0.587821
0.5875
0.587089
0.586648
0.586231
0.585937
0.589316
0.589617
0.589726
0.58967
0.589441
0.589065
0.588578
0.588036
0.587524
0.587115
0.586575
0.586817
0.586942
0.586873
0.586621
0.586205
0.585661
0.585065
0.584487
0.58413
0.586951
0.587073
0.587078
0.58708
0.587079
0.587078
0.587076
0.587074
0.587064
0.58694
0.589406
0.589431
0.589442
0.589444
0.589439
0.589429
0.589415
0.589396
0.589368
0.589323
0.588033
0.588035
0.588035
0.588029
0.588018
0.588005
0.58799
0.587977
0.587969
0.587971
0.588806
0.588838
0.588852
0.588847
0.588824
0.588788
0.588743
0.588694
0.58865
0.588612
0.588336
0.588384
0.588404
0.588393
0.588351
0.588285
0.588203
0.588119
0.588045
0.587995
0.588146
0.588231
0.588267
0.588249
0.588181
0.588071
0.587932
0.587786
0.587652
0.587558
0.588663
0.588784
0.588831
0.588804
0.588706
0.588549
0.588353
0.588144
0.587959
0.587813
0.58734
0.587487
0.587551
0.587516
0.587386
0.587175
0.586907
0.586624
0.586356
0.586184
0.589256
0.589462
0.589535
0.589496
0.589345
0.589097
0.588782
0.588435
0.588117
0.587851
0.586068
0.58622
0.586308
0.586261
0.586093
0.585817
0.585459
0.585079
0.584708
0.584516
0.586284
0.58638
0.586382
0.586383
0.586383
0.586383
0.586384
0.586385
0.586382
0.586287
0.589628
0.589655
0.589663
0.589664
0.58966
0.589653
0.589643
0.589627
0.589601
0.589548
0.587757
0.587759
0.587761
0.587759
0.587754
0.587746
0.587736
0.587727
0.58772
0.587725
0.588773
0.58879
0.588795
0.58879
0.588776
0.588755
0.58873
0.588705
0.588683
0.588662
0.588263
0.588294
0.588308
0.588302
0.588277
0.588237
0.588187
0.588136
0.588089
0.588058
0.588126
0.588181
0.588205
0.588195
0.588152
0.588084
0.587998
0.587907
0.587822
0.58776
0.588582
0.588652
0.588679
0.58866
0.588598
0.5885
0.58838
0.588255
0.58815
0.588069
0.587138
0.587237
0.587283
0.587263
0.587179
0.587043
0.58687
0.586686
0.586506
0.586401
0.58946
0.589593
0.58964
0.589613
0.589514
0.589355
0.589157
0.588943
0.588754
0.58858
0.585311
0.585404
0.585466
0.585436
0.585326
0.585146
0.584915
0.584675
0.584432
0.584339
0.584989
0.585055
0.585058
0.585061
0.585062
0.585062
0.585062
0.585061
0.585061
0.584993
0.590185
0.590203
0.5902
0.590194
0.590189
0.590186
0.590183
0.590179
0.590169
0.590118
0.587679
0.587693
0.587705
0.58771
0.58771
0.587703
0.587692
0.587676
0.587658
0.587647
0.588774
0.588776
0.588773
0.588767
0.588758
0.588746
0.588734
0.588724
0.58872
0.588717
0.588281
0.588303
0.588314
0.588311
0.588296
0.588271
0.588239
0.588206
0.588174
0.588152
0.588202
0.588239
0.588255
0.588249
0.588222
0.588179
0.588124
0.588066
0.588011
0.587968
0.588584
0.588621
0.588635
0.588622
0.588581
0.588519
0.588444
0.58837
0.588313
0.588275
0.587303
0.58738
0.587416
0.587405
0.587351
0.587261
0.587146
0.58702
0.586888
0.586801
0.590052
0.590127
0.590153
0.590132
0.590066
0.589963
0.589837
0.589709
0.589608
0.589511
0.584028
0.584091
0.584136
0.584116
0.584043
0.583924
0.583772
0.583615
0.583445
0.583398
0.583167
0.583208
0.58322
0.583227
0.583229
0.583227
0.58322
0.583207
0.58319
0.583135
0.59111
0.591082
0.591053
0.591033
0.591024
0.591025
0.591037
0.59106
0.591093
0.591103
0.587863
0.587899
0.587922
0.587935
0.587937
0.58793
0.587915
0.587891
0.587854
0.58781
0.588764
0.588756
0.588749
0.588742
0.588734
0.588727
0.588721
0.588719
0.588726
0.588738
0.588336
0.588354
0.588363
0.588361
0.588351
0.588333
0.58831
0.588285
0.588261
0.588242
0.588299
0.588326
0.588337
0.588333
0.588314
0.588282
0.588243
0.588202
0.588162
0.58813
0.588605
0.588628
0.588636
0.588625
0.588595
0.58855
0.588497
0.588446
0.58841
0.588396
0.587823
0.587895
0.587925
0.587919
0.587879
0.587813
0.587727
0.587631
0.587522
0.587423
0.591011
0.591039
0.59105
0.591031
0.590981
0.590905
0.590815
0.590731
0.590685
0.590683
0.582341
0.582399
0.582432
0.582417
0.582362
0.582273
0.582161
0.582045
0.581918
0.581876
0.439205
0.418453
0.425359
0.466317
0.39143
0.368192
0.379233
0.436469
0.348241
0.321094
0.338432
0.417355
0.31017
0.280773
0.305108
0.406435
0.278691
0.248626
0.280195
0.404023
0.251587
0.222071
0.261907
0.401216
0.22987
0.202227
0.250852
0.398581
0.209484
0.185368
0.242832
0.396487
0.191542
0.17352
0.239249
0.398119
0.17208
0.16221
0.234937
0.393623
0.499286
0.489088
0.489413
0.499128
0.468796
0.456181
0.457326
0.470005
0.437919
0.421199
0.423408
0.440982
0.408898
0.387931
0.391526
0.414247
0.384236
0.358772
0.36403
0.392096
0.36219
0.331841
0.337893
0.371223
0.344308
0.308971
0.314858
0.353284
0.327865
0.28773
0.293169
0.336587
0.314322
0.270153
0.275139
0.32295
0.29896
0.252367
0.254967
0.305308
0.56669
0.564474
0.563944
0.565077
0.548931
0.545234
0.54454
0.546841
0.528944
0.523049
0.522241
0.526576
0.506705
0.498437
0.497637
0.504472
0.485707
0.474985
0.474358
0.484092
0.46463
0.451324
0.450915
0.46366
0.445692
0.429719
0.429487
0.445179
0.427057
0.408537
0.408449
0.426907
0.410795
0.390595
0.390553
0.410935
0.391879
0.372167
0.371403
0.391312
0.579155
0.578072
0.577723
0.578073
0.569526
0.568114
0.567624
0.567988
0.557666
0.555182
0.554464
0.555365
0.542893
0.539103
0.538197
0.539922
0.528457
0.523217
0.522199
0.525054
0.512892
0.506078
0.505003
0.50925
0.49829
0.489829
0.488737
0.494577
0.482977
0.472945
0.471893
0.479403
0.468753
0.457775
0.456772
0.465583
0.450911
0.440981
0.439718
0.448068
0.586024
0.585433
0.585233
0.585421
0.580197
0.579717
0.579487
0.579496
0.572718
0.571777
0.571355
0.571426
0.562614
0.560978
0.560326
0.560593
0.552656
0.550152
0.549279
0.549911
0.541361
0.537847
0.536779
0.537958
0.53063
0.526017
0.524798
0.52671
0.518847
0.513158
0.511859
0.514648
0.507676
0.501334
0.500032
0.503606
0.492924
0.487724
0.486294
0.489315
0.588602
0.588127
0.587981
0.588166
0.585158
0.584947
0.584838
0.58483
0.580073
0.579653
0.579436
0.579419
0.57285
0.572088
0.571711
0.571704
0.565796
0.564564
0.563996
0.564051
0.557478
0.555651
0.554878
0.555075
0.54965
0.547134
0.546168
0.546616
0.540752
0.53753
0.536423
0.537242
0.532329
0.528658
0.527514
0.52874
0.520418
0.517866
0.516644
0.517204
0.589728
0.589296
0.589173
0.58936
0.587848
0.587755
0.587704
0.587694
0.58431
0.584115
0.584008
0.583989
0.578941
0.578571
0.578369
0.578332
0.573738
0.573117
0.572788
0.57274
0.567387
0.56643
0.565945
0.565904
0.561545
0.560178
0.559526
0.559536
0.554747
0.55294
0.552145
0.552278
0.548587
0.546469
0.545616
0.545937
0.538913
0.53791
0.537011
0.536569
0.590059
0.589643
0.589529
0.589718
0.58919
0.589143
0.589116
0.58911
0.586728
0.586631
0.586576
0.586565
0.582712
0.582521
0.582412
0.582385
0.578814
0.578485
0.578299
0.578254
0.573853
0.573333
0.573044
0.572979
0.569415
0.568655
0.568248
0.568174
0.564138
0.563114
0.562595
0.562547
0.559728
0.558502
0.557918
0.557938
0.551686
0.551593
0.550995
0.550214
0.590014
0.589603
0.589493
0.589683
0.589806
0.58978
0.589765
0.589761
0.588087
0.588036
0.588007
0.588
0.58509
0.584986
0.584925
0.584908
0.582168
0.581988
0.581883
0.581852
0.578277
0.577986
0.577816
0.577766
0.574912
0.574479
0.574232
0.574163
0.570766
0.570179
0.569854
0.569782
0.567622
0.566907
0.566528
0.566471
0.560803
0.561231
0.560866
0.56001
0.589788
0.589379
0.589269
0.58946
0.590002
0.589987
0.589978
0.589975
0.588787
0.588759
0.588742
0.588739
0.586571
0.586511
0.586476
0.586465
0.584387
0.584284
0.584223
0.584203
0.581341
0.581174
0.581073
0.581039
0.578837
0.578585
0.578435
0.578385
0.575556
0.575213
0.575013
0.574954
0.57335
0.572928
0.572689
0.57263
0.567473
0.568185
0.567978
0.567143
0.589489
0.589079
0.58897
0.589162
0.589972
0.589962
0.589956
0.589953
0.589079
0.589064
0.589055
0.589052
0.587472
0.587436
0.587415
0.587407
0.585841
0.58578
0.585744
0.585732
0.583469
0.583369
0.583308
0.583286
0.581664
0.581512
0.58142
0.581387
0.579037
0.578833
0.578711
0.578669
0.577569
0.577315
0.577167
0.577123
0.572424
0.573277
0.573169
0.572382
0.589174
0.588761
0.588652
0.588845
0.58983
0.589823
0.589817
0.589815
0.589121
0.589112
0.589108
0.589106
0.587997
0.587975
0.587961
0.587956
0.58677
0.586734
0.586712
0.586704
0.584932
0.584872
0.584834
0.58482
0.583698
0.583604
0.583547
0.583525
0.581555
0.581431
0.581356
0.581328
0.580694
0.580538
0.580446
0.580418
0.576116
0.577023
0.576973
0.576241
0.588869
0.588453
0.588345
0.58854
0.589647
0.589641
0.589636
0.589633
0.589011
0.589007
0.589005
0.589005
0.588287
0.588273
0.588263
0.58826
0.58734
0.587318
0.587306
0.587301
0.585924
0.585886
0.585863
0.585853
0.585153
0.585094
0.585057
0.585044
0.583345
0.583269
0.583222
0.583205
0.583008
0.582909
0.582852
0.582836
0.578862
0.579767
0.579751
0.579076
0.588586
0.588167
0.588059
0.588257
0.58947
0.589464
0.589459
0.589456
0.588812
0.588811
0.58881
0.58881
0.588436
0.588426
0.588419
0.588416
0.587668
0.587656
0.587649
0.587646
0.586582
0.586559
0.586544
0.586538
0.586183
0.586145
0.586122
0.586114
0.584578
0.584532
0.584503
0.584491
0.584716
0.584652
0.584617
0.584609
0.580886
0.581751
0.581752
0.581139
0.588319
0.587898
0.587792
0.587994
0.589331
0.589324
0.589319
0.589315
0.588558
0.588559
0.58856
0.588561
0.588509
0.588502
0.588497
0.588495
0.587842
0.587836
0.587832
0.58783
0.587014
0.586999
0.586989
0.586985
0.586905
0.586881
0.586867
0.586862
0.585384
0.585356
0.585338
0.58533
0.58598
0.585937
0.585915
0.585914
0.58235
0.583147
0.583155
0.582608
0.588038
0.587616
0.587515
0.587721
0.589258
0.589249
0.589243
0.589239
0.588273
0.588275
0.588277
0.588278
0.588553
0.588547
0.588544
0.588542
0.587928
0.587925
0.587923
0.587922
0.587304
0.587294
0.587288
0.587285
0.587409
0.587396
0.587388
0.587385
0.585868
0.585851
0.58584
0.585835
0.586933
0.586903
0.58689
0.586894
0.583353
0.584058
0.584068
0.583594
0.587645
0.587227
0.587134
0.587344
0.589288
0.589278
0.58927
0.589266
0.58798
0.587983
0.587985
0.587986
0.588597
0.588593
0.588591
0.58859
0.587982
0.587981
0.58798
0.587979
0.587526
0.587519
0.587514
0.587513
0.587772
0.587766
0.587762
0.587761
0.586142
0.58613
0.586122
0.586118
0.587706
0.587682
0.587675
0.587684
0.583909
0.5845
0.584509
0.584115
0.586914
0.586512
0.586433
0.586645
0.589502
0.589488
0.58948
0.589475
0.587731
0.587733
0.587734
0.587734
0.588657
0.588655
0.588655
0.588656
0.588047
0.588046
0.588045
0.588044
0.587734
0.587728
0.587724
0.587723
0.588055
0.588054
0.588054
0.588054
0.586356
0.586344
0.586336
0.586333
0.58846
0.588441
0.588437
0.588449
0.583894
0.58435
0.584354
0.584051
0.5855
0.585147
0.585091
0.585286
0.590061
0.590046
0.590038
0.590039
0.587632
0.587629
0.587626
0.587623
0.588724
0.588726
0.588728
0.58873
0.588138
0.588136
0.588134
0.588133
0.587943
0.587937
0.587934
0.587934
0.588285
0.588289
0.588291
0.588292
0.586713
0.586691
0.586682
0.586684
0.589434
0.589421
0.589421
0.589437
0.583081
0.58337
0.583368
0.583174
0.58343
0.58321
0.583184
0.583308
0.591077
0.591072
0.591076
0.591089
0.587748
0.587735
0.587726
0.587719
0.588763
0.588769
0.588773
0.588776
0.588225
0.588222
0.58822
0.588219
0.588106
0.588101
0.588099
0.5881
0.588428
0.588436
0.588438
0.588437
0.58726
0.587222
0.587211
0.587223
0.590754
0.590766
0.590772
0.590777
0.581599
0.581673
0.581668
0.581625
0.595279
0.603736
0.607738
0.610842
0.613966
0.616723
0.618961
0.620709
0.622076
0.623222
0.596211
0.599547
0.60697
0.612019
0.616485
0.619873
0.622337
0.624102
0.625346
0.626288
0.600071
0.596428
0.607413
0.613129
0.618412
0.622009
0.624578
0.626401
0.627654
0.628545
0.603486
0.592554
0.607169
0.612742
0.618602
0.622151
0.624707
0.626485
0.627702
0.628566
0.607978
0.590544
0.607916
0.613216
0.619521
0.622921
0.625448
0.627142
0.62827
0.629053
0.611065
0.587888
0.607658
0.612483
0.61924
0.622456
0.624996
0.626642
0.627775
0.628599
0.615065
0.586625
0.608482
0.612592
0.619753
0.622705
0.625261
0.62685
0.627956
0.628756
0.616635
0.583573
0.607487
0.610829
0.618498
0.621251
0.62397
0.625642
0.626948
0.627985
0.618298
0.582089
0.607936
0.609943
0.617756
0.620042
0.62299
0.62481
0.626318
0.627547
0.602753
0.566223
0.594716
0.597069
0.606754
0.610622
0.61527
0.618382
0.620944
0.622964
0.53786
0.559928
0.576274
0.587902
0.595866
0.60141
0.605417
0.608408
0.610717
0.612636
0.52415
0.554695
0.576781
0.59073
0.599583
0.605574
0.609818
0.612893
0.615136
0.616799
0.513886
0.551565
0.577887
0.592905
0.602359
0.608623
0.613012
0.616154
0.61839
0.619985
0.505498
0.548534
0.578061
0.5934
0.603259
0.6096
0.613998
0.617104
0.619295
0.620847
0.501041
0.547716
0.579326
0.594717
0.604865
0.611157
0.615498
0.618505
0.620594
0.622056
0.497844
0.546645
0.579739
0.594895
0.605283
0.611454
0.615738
0.61866
0.620709
0.622174
0.497447
0.547076
0.581244
0.595875
0.606427
0.612376
0.616583
0.619407
0.621395
0.622821
0.496651
0.546128
0.581198
0.59513
0.605875
0.611608
0.615843
0.618684
0.620796
0.622394
0.497142
0.546449
0.582377
0.595052
0.605593
0.610854
0.615184
0.618145
0.620424
0.622208
0.488058
0.536413
0.573092
0.585281
0.596842
0.603123
0.608645
0.612535
0.615576
0.617844
0.568978
0.575253
0.58133
0.586706
0.59129
0.595123
0.598297
0.600918
0.603111
0.605002
0.555743
0.567136
0.577322
0.585649
0.592317
0.597566
0.601661
0.604843
0.607305
0.60918
0.542658
0.559833
0.574203
0.585092
0.593402
0.599653
0.604361
0.60791
0.610565
0.61251
0.529502
0.552409
0.570763
0.583759
0.593342
0.600255
0.605315
0.609047
0.611797
0.613786
0.519578
0.547554
0.569339
0.583918
0.594419
0.601717
0.606946
0.610725
0.613472
0.615435
0.510733
0.543023
0.567749
0.583452
0.594628
0.60213
0.607439
0.611221
0.613972
0.615956
0.504706
0.540499
0.567678
0.584067
0.595697
0.603233
0.608546
0.612284
0.615006
0.61697
0.499014
0.537465
0.566709
0.583411
0.595359
0.602845
0.608186
0.611952
0.614767
0.616864
0.495306
0.536125
0.567105
0.583474
0.595309
0.60251
0.607911
0.611775
0.614721
0.616968
0.485216
0.527233
0.559419
0.575731
0.588266
0.596191
0.602408
0.606936
0.610415
0.612939
0.578792
0.581201
0.584106
0.587054
0.589831
0.592344
0.594566
0.596508
0.598222
0.599781
0.57002
0.574786
0.5802
0.585343
0.58988
0.593739
0.596961
0.599615
0.601771
0.603475
0.5595
0.567578
0.575989
0.583412
0.589634
0.594703
0.598777
0.602017
0.604552
0.606482
0.547184
0.559287
0.571032
0.580715
0.588471
0.594536
0.599257
0.602915
0.605725
0.607828
0.536492
0.552887
0.567915
0.579605
0.58864
0.595452
0.600614
0.604523
0.607479
0.609657
0.525875
0.54658
0.564729
0.578124
0.588205
0.595562
0.601027
0.605097
0.608158
0.610418
0.517343
0.542172
0.563171
0.577915
0.588798
0.596499
0.602144
0.606291
0.609399
0.611682
0.508967
0.537555
0.561096
0.576825
0.588303
0.596204
0.601985
0.606224
0.609438
0.611842
0.502453
0.53467
0.560411
0.576544
0.588223
0.596106
0.602
0.606346
0.609667
0.61219
0.491553
0.526367
0.553559
0.57008
0.582398
0.590845
0.597314
0.602132
0.605823
0.608472
0.585287
0.586048
0.587212
0.588578
0.590013
0.591429
0.592776
0.594029
0.595209
0.596362
0.579955
0.58181
0.584328
0.587051
0.589723
0.592204
0.594431
0.596378
0.598033
0.59939
0.572418
0.57582
0.580129
0.584517
0.588608
0.592235
0.59535
0.597963
0.600103
0.601797
0.562601
0.568213
0.574781
0.58104
0.586592
0.591307
0.595218
0.598406
0.60096
0.602943
0.553481
0.56177
0.570829
0.578964
0.585879
0.591531
0.596077
0.599691
0.602535
0.604703
0.543684
0.554977
0.566635
0.576554
0.584693
0.591125
0.596174
0.600113
0.603182
0.605515
0.535235
0.549714
0.563944
0.575457
0.584634
0.591665
0.597082
0.60124
0.604455
0.606875
0.526541
0.544231
0.560908
0.573756
0.583767
0.591236
0.596934
0.601279
0.604646
0.607201
0.519405