/*--------------------------------*- C++ -*----------------------------------*\
| =========                 |                                                 |
| \\      /  F ield         | foam-extend: Open Source CFD                    |
|  \\    /   O peration     | Version:     4.0                                |
|   \\  /    A nd           | Web:         http://www.foam-extend.org         |
|    \\/     M anipulation  |                                                 |
\*---------------------------------------------------------------------------*/
FoamFile
{
    version     2.0;
    format      ascii;
    class       volVectorField;
    location    "2500";
    object      Urel;
}
// * * * * * * * * * * * * * * * * * * * * * * * * * * * * * * * * * * * * * //

dimensions      [0 1 -1 0 0 0 0];

internalField   nonuniform List<vector> 
34480
(
(209.005 -9.79383 -19.0913)
(209.325 -9.29351 -21.5539)
(209.483 -8.56819 -23.9804)
(209.489 -7.6437 -26.414)
(209.34 -6.55886 -28.9928)
(208.998 -5.31647 -31.8923)
(208.382 -3.89683 -35.513)
(207.215 -2.18371 -40.1991)
(204.544 0.0515056 -48.1214)
(197.607 4.25583 -75.2919)
(209.938 -12.8025 -26.8101)
(210.198 -11.6752 -29.5941)
(210.324 -10.3936 -32.2539)
(210.298 -8.97154 -34.8571)
(210.063 -7.4458 -37.5207)
(209.559 -5.83615 -40.4523)
(208.752 -4.16155 -44.1115)
(207.46 -2.368 -49.2403)
(204.324 -0.294045 -58.0613)
(196.164 3.65919 -88.6315)
(210.628 -17.0999 -33.7471)
(210.862 -15.5487 -36.8324)
(210.956 -13.8203 -39.7795)
(210.885 -11.9088 -42.6023)
(210.59 -9.86999 -45.4281)
(210.062 -7.73803 -48.5136)
(209.31 -5.54042 -52.3873)
(208.167 -3.20745 -58.078)
(204.866 -0.572236 -67.7765)
(195.655 4.13236 -101.291)
(210.635 -20.4951 -41.1594)
(210.87 -18.4131 -44.5391)
(210.979 -16.1554 -47.7258)
(210.942 -13.7038 -50.7507)
(210.708 -11.1151 -53.7484)
(210.293 -8.42627 -57.005)
(209.676 -5.66998 -61.0515)
(208.697 -2.76734 -67.1365)
(205.371 0.454607 -77.4583)
(195.357 5.84608 -112.879)
(210.794 -24.972 -48.0212)
(211.058 -22.4803 -51.6783)
(211.206 -19.7753 -55.1516)
(211.23 -16.8383 -58.4263)
(211.088 -13.7452 -61.6621)
(210.808 -10.5333 -65.1567)
(210.34 -7.22947 -69.4383)
(209.544 -3.7442 -75.9425)
(206.317 0.102587 -86.932)
(195.66 6.19714 -123.872)
(210.679 -28.2267 -55.6175)
(210.955 -25.235 -59.5114)
(211.122 -22.0155 -63.1532)
(211.181 -18.5472 -66.5715)
(211.106 -14.8975 -69.9185)
(210.943 -11.1091 -73.5163)
(210.628 -7.21088 -77.8771)
(210.046 -3.11578 -84.6084)
(207.066 1.37642 -96.0829)
(196.01 8.10835 -134.171)
(210.761 -33.0088 -62.4757)
(211.077 -29.628 -66.6098)
(211.272 -25.984 -70.5012)
(211.37 -22.0659 -74.1262)
(211.354 -17.9486 -77.6659)
(211.288 -13.6689 -81.4439)
(211.114 -9.23118 -85.9758)
(210.749 -4.53229 -92.9912)
(208.099 0.699028 -105.044)
(196.748 8.26182 -144.124)
(210.589 -36.1792 -70.3227)
(210.909 -32.3264 -74.664)
(211.084 -28.1646 -78.6834)
(211.14 -23.7084 -82.4175)
(211.083 -19.0115 -86.0104)
(211 -14.1313 -89.7905)
(210.87 -9.06504 -94.257)
(210.662 -3.70523 -101.229)
(208.421 2.37081 -113.47)
(197.104 10.8378 -153.055)
(210.534 -41.4427 -77.152)
(210.898 -37.2229 -81.6793)
(211.104 -32.6856 -85.8818)
(211.198 -27.8697 -89.7669)
(211.192 -22.8304 -93.5202)
(211.153 -17.5977 -97.4459)
(211.093 -12.1153 -102.078)
(211.024 -6.2307 -109.204)
(209.112 0.774895 -121.818)
(197.68 10.7323 -161.342)
(209.569 -44.6439 -85.1139)
(209.843 -40.0419 -89.9224)
(209.79 -35.0029 -94.3273)
(209.431 -29.6475 -98.3967)
(208.813 -23.9894 -102.257)
(208.027 -18.0692 -106.189)
(207.158 -11.8217 -110.662)
(206.371 -5.05623 -117.278)
(204.433 2.95958 -129.041)
(194.248 14.3052 -166.631)
(205.891 1.91225 3.00056)
(206.369 1.10972 1.54391)
(206.556 0.426618 -0.00996396)
(206.472 -0.117336 -1.61006)
(206.094 -0.546452 -3.31981)
(205.332 -0.86126 -5.15158)
(203.985 -1.06586 -7.15909)
(201.619 -1.17173 -9.31731)
(198.154 -1.25682 -11.2449)
(193.578 -1.15899 -14.3934)
(207.189 2.86866 2.7979)
(207.621 2.16434 1.16178)
(207.792 1.51949 -0.492273)
(207.704 0.943974 -2.18912)
(207.292 0.416599 -3.99634)
(206.437 -0.0686908 -5.97183)
(204.943 -0.527011 -8.20873)
(202.358 -0.993286 -10.9582)
(198.189 -1.58371 -14.0068)
(192.505 -1.82399 -20.5815)
(208.138 2.57769 3.3071)
(208.548 1.77162 1.54472)
(208.705 1.04496 -0.256794)
(208.606 0.422804 -2.09025)
(208.169 -0.133399 -4.02985)
(207.295 -0.63618 -6.15937)
(205.81 -1.11485 -8.66772)
(203.233 -1.5861 -12.0868)
(198.688 -2.15696 -16.3332)
(192.07 -2.071 -26.7166)
(208.382 3.17807 3.30354)
(208.797 2.40354 1.45614)
(208.976 1.69452 -0.403424)
(208.918 1.08835 -2.29704)
(208.544 0.546527 -4.31008)
(207.772 0.0573511 -6.56893)
(206.4 -0.412299 -9.29945)
(203.916 -0.855275 -13.2587)
(199.142 -1.36341 -18.4765)
(191.71 -0.933403 -32.4541)
(208.735 2.66849 3.83838)
(209.178 1.80909 1.93578)
(209.396 1.04223 -0.0203714)
(209.402 0.408668 -2.00867)
(209.121 -0.146834 -4.14618)
(208.485 -0.63557 -6.58671)
(207.263 -1.09242 -9.57245)
(204.941 -1.48854 -14.0629)
(200.089 -1.90215 -20.2308)
(191.949 -1.07285 -37.6931)
(208.771 3.39313 3.6343)
(209.228 2.54126 1.71994)
(209.471 1.78365 -0.206789)
(209.521 1.16378 -2.1756)
(209.313 0.634965 -4.29772)
(208.805 0.182773 -6.77308)
(207.75 -0.224044 -9.84348)
(205.648 -0.547929 -14.6623)
(200.884 -0.830029 -21.5476)
(192.218 0.364754 -42.2099)
(208.976 2.56688 4.16007)
(209.469 1.61611 2.23758)
(209.743 0.786453 0.259127)
(209.839 0.11426 -1.74955)
(209.699 -0.450652 -3.93583)
(209.306 -0.919876 -6.51575)
(208.412 -1.30993 -9.74445)
(206.556 -1.56817 -14.9178)
(201.998 -1.65614 -22.5677)
(192.908 0.00115552 -46.245)
(208.891 3.37385 3.69575)
(209.392 2.4096 1.80353)
(209.656 1.59816 -0.0881848)
(209.725 0.950822 -2.02434)
(209.569 0.441223 -4.12037)
(209.197 0.0372787 -6.62281)
(208.398 -0.263937 -9.7813)
(206.762 -0.418372 -15.0053)
(202.533 -0.208088 -23.0527)
(193.316 1.83446 -49.2173)
(208.903 2.05543 4.24513)
(209.436 0.977369 2.402)
(209.728 0.0661508 0.526012)
(209.834 -0.688922 -1.37768)
(209.735 -1.31841 -3.48067)
(209.437 -1.83474 -6.03046)
(208.759 -2.19004 -9.3354)
(207.35 -2.32161 -14.7936)
(203.46 -1.74186 -23.4885)
(193.992 1.00292 -51.4979)
(207.981 2.86377 3.63694)
(208.458 1.69309 1.78959)
(208.575 0.796312 -0.0346648)
(208.362 0.0677955 -1.90544)
(207.834 -0.474192 -3.92986)
(207.026 -0.855628 -6.35385)
(205.826 -1.0133 -9.46976)
(204.024 -0.832112 -14.564)
(200.282 0.222241 -23.0379)
(191.635 4.03739 -51.3446)
(203.516 1.42795 2.33437)
(204.019 0.833605 1.21629)
(204.201 0.302574 -0.013269)
(204.097 -0.131707 -1.26341)
(203.696 -0.482312 -2.55462)
(202.949 -0.746666 -3.83244)
(201.764 -0.934545 -5.04906)
(199.988 -1.07147 -6.05479)
(197.434 -1.24284 -6.4985)
(194.217 -1.4322 -6.51691)
(204.912 2.41436 2.31323)
(205.407 1.87203 0.946117)
(205.587 1.34574 -0.448813)
(205.464 0.855095 -1.86579)
(205 0.390005 -3.33137)
(204.111 -0.0548762 -4.84815)
(202.638 -0.492861 -6.37974)
(200.31 -0.95558 -7.86299)
(196.686 -1.55441 -8.80245)
(191.847 -2.13649 -9.81072)
(205.947 2.21212 2.94806)
(206.447 1.52893 1.39542)
(206.627 0.890722 -0.20878)
(206.502 0.327267 -1.83809)
(206.014 -0.193486 -3.53885)
(205.061 -0.681458 -5.32777)
(203.445 -1.1614 -7.21466)
(200.8 -1.66349 -9.29203)
(196.299 -2.33205 -11.0027)
(189.857 -2.91107 -13.584)
(206.344 2.89702 2.9942)
(206.866 2.22039 1.31809)
(207.071 1.57962 -0.380883)
(206.981 1.01453 -2.11238)
(206.531 0.491614 -3.94035)
(205.615 0.00111944 -5.92308)
(203.983 -0.488844 -8.10651)
(201.17 -0.995707 -10.7406)
(195.931 -1.68082 -13.2006)
(187.995 -2.16612 -17.5586)
(206.846 2.42647 3.56882)
(207.4 1.65003 1.80547)
(207.642 0.940799 -0.0195682)
(207.609 0.340601 -1.87744)
(207.228 -0.201032 -3.86953)
(206.401 -0.692596 -6.08634)
(204.828 -1.16958 -8.60263)
(201.97 -1.63799 -11.8317)
(196.183 -2.28602 -15.1301)
(186.926 -2.57759 -21.5717)
(207.012 3.20022 3.38976)
(207.585 2.41743 1.59388)
(207.855 1.70786 -0.222482)
(207.863 1.11497 -2.08443)
(207.544 0.594171 -4.09228)
(206.815 0.133143 -6.38754)
(205.341 -0.303562 -9.06304)
(202.542 -0.715497 -12.7146)
(196.409 -1.27653 -16.715)
(186.061 -1.33992 -25.3329)
(207.33 2.39051 3.93882)
(207.935 1.50291 2.11668)
(208.234 0.720224 0.231304)
(208.288 0.0786098 -1.68946)
(208.032 -0.470342 -3.78534)
(207.402 -0.934937 -6.22107)
(206.047 -1.33761 -9.1217)
(203.367 -1.66918 -13.2321)
(197.06 -2.0686 -18.0274)
(185.783 -1.79916 -28.9562)
(207.337 3.23555 3.47886)
(207.95 2.33247 1.68355)
(208.243 1.56583 -0.117597)
(208.28 0.948657 -1.9701)
(208.017 0.454376 -3.9847)
(207.414 0.0567022 -6.36732)
(206.145 -0.257194 -9.26057)
(203.617 -0.487841 -13.5544)
(197.326 -0.620532 -18.8722)
(185.387 -0.0696351 -31.8725)
(207.429 1.90359 4.03278)
(208.061 0.887454 2.27502)
(208.376 0.0349274 0.47271)
(208.441 -0.660662 -1.36158)
(208.22 -1.23121 -3.38783)
(207.68 -1.68696 -5.8152)
(206.521 -1.99262 -8.87652)
(204.188 -2.12668 -13.5149)
(198.029 -1.86072 -19.6421)
(185.306 -0.799278 -34.2637)
(206.573 2.76958 3.39225)
(207.153 1.67668 1.66375)
(207.338 0.850647 -0.0526387)
(207.166 0.187355 -1.82456)
(206.629 -0.293654 -3.74853)
(205.717 -0.615373 -6.03823)
(204.201 -0.726509 -8.92241)
(201.631 -0.547157 -13.3057)
(195.609 0.217595 -19.5469)
(182.828 2.30022 -34.6944)
(201.781 0.94914 1.70179)
(202.218 0.547741 0.911408)
(202.368 0.165675 0.00790032)
(202.27 -0.157831 -0.896415)
(201.921 -0.428552 -1.80008)
(201.306 -0.641129 -2.62148)
(200.395 -0.807784 -3.29566)
(199.161 -0.95203 -3.68718)
(197.601 -1.12926 -3.58049)
(195.87 -1.36484 -2.75288)
(203.102 1.90755 1.79138)
(203.57 1.53208 0.718114)
(203.733 1.13491 -0.387731)
(203.602 0.741886 -1.49713)
(203.154 0.354205 -2.60171)
(202.344 -0.0309205 -3.67095)
(201.095 -0.424145 -4.62884)
(199.302 -0.847936 -5.34702)
(196.838 -1.37049 -5.40303)
(194.04 -1.93782 -4.6197)
(204.091 1.75996 2.50352)
(204.602 1.22008 1.20605)
(204.778 0.690265 -0.150846)
(204.636 0.204705 -1.51801)
(204.136 -0.260069 -2.91218)
(203.207 -0.712381 -4.31343)
(201.717 -1.17165 -5.65532)
(199.468 -1.66415 -6.84636)
(196.113 -2.29559 -7.29998)
(192.034 -2.99142 -6.92402)
(204.551 2.52663 2.5871)
(205.108 1.97223 1.13177)
(205.313 1.42086 -0.354586)
(205.19 0.916174 -1.8612)
(204.689 0.432945 -3.42373)
(203.723 -0.0381224 -5.05639)
(202.095 -0.526105 -6.71337)
(199.508 -1.05344 -8.37936)
(195.291 -1.75926 -9.29351)
(189.826 -2.52559 -9.54028)
(205.137 2.10104 3.20275)
(205.738 1.43203 1.62535)
(205.978 0.800283 -0.0199766)
(205.897 0.249984 -1.68742)
(205.432 -0.261383 -3.45168)
(204.489 -0.741757 -5.35627)
(202.811 -1.2241 -7.38187)
(200.008 -1.72766 -9.61125)
(195.04 -2.44196 -11.1401)
(188.235 -3.18113 -12.3679)
(205.394 2.92939 3.05269)
(206.023 2.23933 1.41839)
(206.29 1.59628 -0.243827)
(206.243 1.0457 -1.94382)
(205.817 0.548812 -3.75865)
(204.923 0.0931272 -5.78008)
(203.254 -0.359043 -8.01115)
(200.343 -0.826298 -10.6685)
(194.77 -1.50674 -12.7413)
(186.758 -2.16644 -15.1349)
(205.796 2.14608 3.63088)
(206.458 1.34322 1.94758)
(206.753 0.623391 0.194425)
(206.746 0.0242683 -1.58898)
(206.368 -0.49816 -3.52106)
(205.538 -0.951686 -5.71767)
(203.915 -1.36284 -8.2217)
(200.976 -1.74464 -11.3675)
(194.944 -2.30041 -14.1235)
(185.843 -2.77396 -17.9493)
(205.884 3.04184 3.18185)
(206.553 2.21937 1.51796)
(206.846 1.51092 -0.15933)
(206.828 0.933876 -1.88663)
(206.444 0.463328 -3.75589)
(205.631 0.0770252 -5.92615)
(204.048 -0.24698 -8.46758)
(201.147 -0.535959 -11.8565)
(194.857 -0.880697 -15.1101)
(184.869 -1.19388 -20.3181)
(206.044 1.70841 3.7645)
(206.724 0.770884 2.12356)
(207.034 -0.0164334 0.423882)
(207.039 -0.652858 -1.30798)
(206.689 -1.16972 -3.21029)
(205.919 -1.57416 -5.4381)
(204.393 -1.84574 -8.14335)
(201.582 -1.99541 -11.8891)
(195.221 -1.94753 -15.9862)
(184.257 -1.89921 -22.3804)
(205.256 2.64801 3.10257)
(205.889 1.6452 1.51469)
(206.107 0.893056 -0.0759142)
(205.943 0.293634 -1.72674)
(205.373 -0.131737 -3.51645)
(204.349 -0.403133 -5.61279)
(202.583 -0.481752 -8.16707)
(199.582 -0.316634 -11.7257)
(193.24 0.228209 -16.0577)
(181.785 1.20164 -22.863)
(200.571 0.551145 1.19393)
(200.913 0.294944 0.666102)
(201.028 0.0340839 0.035756)
(200.952 -0.195252 -0.583091)
(200.694 -0.396626 -1.18743)
(200.255 -0.562367 -1.69751)
(199.643 -0.702035 -2.06662)
(198.88 -0.830769 -2.20479)
(198.015 -0.975046 -2.02033)
(197.164 -1.14156 -1.42912)
(201.727 1.43457 1.31134)
(202.121 1.20008 0.510235)
(202.257 0.920799 -0.321253)
(202.144 0.622231 -1.14563)
(201.771 0.313582 -1.93592)
(201.122 -0.00389666 -2.64898)
(200.178 -0.334718 -3.21067)
(198.933 -0.688686 -3.5126)
(197.411 -1.09406 -3.32758)
(195.914 -1.51122 -2.51764)
(202.577 1.29276 2.05041)
(203.047 0.890667 1.01562)
(203.209 0.470861 -0.0833112)
(203.075 0.0690486 -1.18039)
(202.623 -0.329546 -2.26759)
(201.814 -0.72956 -3.30343)
(200.583 -1.14421 -4.20336)
(198.865 -1.591 -4.83741)
(196.582 -2.1252 -4.81327)
(194.193 -2.69414 -3.92696)
(203.016 2.11738 2.14835)
(203.559 1.69114 0.935471)
(203.755 1.2376 -0.315492)
(203.626 0.803302 -1.57421)
(203.135 0.372953 -2.8471)
(202.225 -0.0599723 -4.11447)
(200.774 -0.519608 -5.29415)
(198.642 -1.02516 -6.27061)
(195.552 -1.66455 -6.46641)
(192.083 -2.36898 -5.60752)
(203.616 1.72879 2.79423)
(204.221 1.17898 1.43093)
(204.453 0.635817 -0.00657454)
(204.349 0.145977 -1.45388)
(203.858 -0.322828 -2.95357)
(202.908 -0.77656 -4.50653)
(201.316 -1.24373 -6.04464)
(198.86 -1.74667 -7.49225)
(194.996 -2.42625 -8.08612)
(190.379 -3.19375 -7.53434)
(203.913 2.60716 2.66957)
(204.56 2.02457 1.22686)
(204.822 1.46017 -0.251862)
(204.742 0.962287 -1.75773)
(204.264 0.500832 -3.33668)
(203.308 0.0646411 -5.02975)
(201.637 -0.383671 -6.78408)
(198.952 -0.870386 -8.60571)
(194.393 -1.55919 -9.55976)
(188.652 -2.35299 -9.45944)
(204.362 1.8534 3.2756)
(205.05 1.15111 1.76109)
(205.338 0.505835 0.169071)
(205.29 -0.0419095 -1.44484)
(204.84 -0.529003 -3.16833)
(203.907 -0.962403 -5.06305)
(202.205 -1.37091 -7.11182)
(199.37 -1.77953 -9.39674)
(194.214 -2.37964 -10.8781)
(187.39 -3.09949 -11.5021)
(204.504 2.80596 2.83927)
(205.204 2.07979 1.3339)
(205.495 1.44069 -0.193545)
(205.439 0.9122 -1.76644)
(204.98 0.473553 -3.44901)
(204.044 0.106155 -5.3444)
(202.327 -0.218574 -7.45839)
(199.42 -0.543127 -9.99068)
(193.839 -0.991189 -11.8663)
(186.055 -1.6565 -13.2454)
(204.717 1.47464 3.45727)
(205.425 0.630504 1.9586)
(205.729 -0.0843074 0.386405)
(205.692 -0.659581 -1.2151)
(205.257 -1.12416 -2.9575)
(204.348 -1.48263 -4.93716)
(202.645 -1.72715 -7.22513)
(199.715 -1.89028 -10.0745)
(193.889 -1.98181 -12.6837)
(185.057 -2.39469 -14.8184)
(203.991 2.50146 2.7747)
(204.656 1.59933 1.34467)
(204.897 0.925135 -0.10376)
(204.741 0.389865 -1.61326)
(204.154 0.0174557 -3.24029)
(203.069 -0.209334 -5.10202)
(201.2 -0.264027 -7.27268)
(198.102 -0.118993 -10.0005)
(192.174 0.260009 -12.811)
(182.634 0.640327 -15.1308)
(199.739 0.251708 0.824871)
(199.993 0.093155 0.488401)
(200.074 -0.0795238 0.0635958)
(200.023 -0.236463 -0.342716)
(199.848 -0.38205 -0.735397)
(199.56 -0.507296 -1.0465)
(199.175 -0.618447 -1.25087)
(198.723 -0.722978 -1.29412)
(198.247 -0.831617 -1.14383)
(197.791 -0.943169 -0.777498)
(200.717 1.04049 0.910849)
(201.019 0.911126 0.336717)
(201.126 0.728273 -0.260163)
(201.038 0.512527 -0.845178)
(200.754 0.2773 -1.38649)
(200.276 0.0268176 -1.84332)
(199.612 -0.237672 -2.15829)
(198.793 -0.516735 -2.25868)
(197.885 -0.815297 -2.03778)
(197.078 -1.1036 -1.43094)
(201.39 0.861616 1.63601)
(201.788 0.575085 0.842224)
(201.926 0.254862 -0.0152856)
(201.812 -0.0660049 -0.863788)
(201.436 -0.395696 -1.68089)
(200.783 -0.734703 -2.41796)
(199.839 -1.08961 -2.99864)
(198.61 -1.46908 -3.3146)
(197.135 -1.89519 -3.14388)
(195.749 -2.32521 -2.34647)
(201.757 1.71209 1.72038)
(202.246 1.40392 0.746217)
(202.423 1.0463 -0.269257)
(202.301 0.68552 -1.28317)
(201.86 0.315226 -2.28034)
(201.068 -0.0669473 -3.22109)
(199.87 -0.477666 -4.01849)
(198.23 -0.929415 -4.5453)
(196.096 -1.46844 -4.43725)
(193.954 -2.04066 -3.43905)
(202.315 1.34316 2.37749)
(202.884 0.910936 1.23664)
(203.097 0.459497 0.017976)
(202.986 0.0360468 -1.20019)
(202.514 -0.381469 -2.43267)
(201.634 -0.795676 -3.64945)
(200.238 -1.22831 -4.76371)
(198.234 -1.69889 -5.64697)
(195.416 -2.29709 -5.7744)
(192.408 -2.96198 -4.76565)
(202.61 2.25829 2.26783)
(203.236 1.78731 1.03186)
(203.482 1.30767 -0.246575)
(203.383 0.869487 -1.54191)
(202.897 0.452117 -2.87082)
(201.964 0.0473569 -4.23244)
(200.423 -0.377596 -5.54365)
(198.122 -0.849183 -6.712)
(194.641 -1.48307 -7.04639)
(190.724 -2.22632 -6.09533)
(203.07 1.53073 2.89453)
(203.746 0.936778 1.56774)
(204.02 0.373394 0.156807)
(203.945 -0.116291 -1.26715)
(203.464 -0.560772 -2.76057)
(202.51 -0.965089 -4.33685)
(200.874 -1.35692 -5.93764)
(198.341 -1.76592 -7.50451)
(194.246 -2.34312 -8.22476)
(189.396 -3.07464 -7.55854)
(203.239 2.5406 2.46826)
(203.937 1.92024 1.14019)
(204.218 1.35845 -0.217923)
(204.135 0.885198 -1.6153)
(203.639 0.485221 -3.08704)
(202.659 0.144023 -4.68429)
(200.957 -0.168871 -6.36134)
(198.267 -0.501213 -8.14044)
(193.685 -0.973303 -9.13443)
(187.954 -1.7169 -8.79333)
(203.488 1.21049 3.1231)
(204.196 0.469762 1.78554)
(204.487 -0.167011 0.360799)
(204.418 -0.679433 -1.08805)
(203.935 -1.09253 -2.64477)
(202.963 -1.40834 -4.3525)
(201.236 -1.6284 -6.21896)
(198.442 -1.79476 -8.2789)
(193.523 -1.95809 -9.83218)
(186.815 -2.51401 -9.91439)
(202.813 2.33616 2.41846)
(203.482 1.54218 1.15875)
(203.733 0.949064 -0.134021)
(203.582 0.478221 -1.48547)
(202.994 0.156477 -2.92836)
(201.898 -0.0308336 -4.53212)
(200.048 -0.068073 -6.30675)
(197.093 0.0556005 -8.29694)
(191.995 0.313713 -9.98366)
(184.568 0.412596 -10.0823)
(199.165 0.0421484 0.576349)
(199.35 -0.0565521 0.369751)
(199.406 -0.170393 0.0876242)
(199.374 -0.27578 -0.17245)
(199.263 -0.379237 -0.42554)
(199.085 -0.471371 -0.616466)
(198.855 -0.556036 -0.73641)
(198.596 -0.635501 -0.752735)
(198.335 -0.712773 -0.658275)
(198.074 -0.784002 -0.451625)
(199.987 0.740742 0.599011)
(200.204 0.682423 0.200219)
(200.282 0.572114 -0.211226)
(200.22 0.423625 -0.609831)
(200.019 0.251764 -0.966824)
(199.689 0.0622198 -1.2503)
(199.247 -0.139667 -1.42134)
(198.729 -0.349534 -1.43692)
(198.196 -0.56225 -1.25228)
(197.758 -0.754234 -0.850814)
(200.485 0.495554 1.28421)
(200.798 0.29646 0.69432)
(200.909 0.0591135 0.0457368)
(200.82 -0.189299 -0.591084)
(200.528 -0.453028 -1.18892)
(200.034 -0.729346 -1.70221)
(199.348 -1.01951 -2.07148)
(198.506 -1.32474 -2.22261)
(197.579 -1.6485 -2.04287)
(196.775 -1.95757 -1.47322)
(200.757 1.34211 1.33064)
(201.169 1.13258 0.573944)
(201.319 0.861582 -0.222741)
(201.215 0.571889 -1.01234)
(200.845 0.263736 -1.76785)
(200.199 -0.0612847 -2.44286)
(199.265 -0.411754 -2.96164)
(198.062 -0.792634 -3.22039)
(196.637 -1.22212 -3.01373)
(195.324 -1.65794 -2.193)
(201.238 0.97271 1.97817)
(201.74 0.646466 1.05177)
(201.928 0.283088 0.0480849)
(201.823 -0.0725251 -0.948049)
(201.401 -0.433678 -1.93192)
(200.638 -0.799282 -2.85721)
(199.486 -1.18343 -3.63816)
(197.931 -1.59943 -4.14865)
(195.952 -2.09685 -4.06604)
(194.019 -2.62777 -3.11848)
(201.497 1.90628 1.86993)
(202.07 1.54177 0.841986)
(202.292 1.14717 -0.231723)
(202.189 0.772199 -1.31392)
(201.731 0.404887 -2.39861)
(200.88 0.0407357 -3.4575)
(199.546 -0.345466 -4.39853)
(197.675 -0.77504 -5.09976)
(195.127 -1.31989 -5.10525)
(192.504 -1.94566 -4.03102)
(201.938 1.19698 2.5064)
(202.573 0.711112 1.3748)
(202.824 0.232253 0.15513)
(202.735 -0.195318 -1.06964)
(202.262 -0.591706 -2.3291)
(201.356 -0.959275 -3.60163)
(199.882 -1.32163 -4.80836)
(197.74 -1.70677 -5.82716)
(194.631 -2.22169 -6.09921)
(191.266 -2.86453 -5.07339)
(202.11 2.25997 2.08453)
(202.774 1.74818 0.943381)
(203.037 1.26778 -0.233645)
(202.94 0.854151 -1.44321)
(202.442 0.497886 -2.6943)
(201.488 0.188625 -3.99749)
(199.91 -0.101998 -5.27597)
(197.561 -0.417615 -6.45329)
(193.978 -0.85781 -6.88313)
(189.88 -1.53909 -5.92329)
(202.378 0.926458 2.77514)
(203.058 0.293498 1.60957)
(203.331 -0.262293 0.345883)
(203.243 -0.711161 -0.935473)
(202.747 -1.07365 -2.29247)
(201.781 -1.3494 -3.7257)
(200.147 -1.54595 -5.201)
(197.646 -1.70588 -6.62898)
(193.704 -1.88952 -7.46372)
(188.791 -2.41857 -6.70005)
(201.741 2.16026 2.04525)
(202.387 1.47794 0.962285)
(202.636 0.967425 -0.165703)
(202.492 0.560757 -1.34765)
(201.924 0.287422 -2.59385)
(200.867 0.134973 -3.93393)
(199.132 0.110297 -5.33123)
(196.475 0.213107 -6.71449)
(192.319 0.38484 -7.61549)
(186.787 0.372409 -6.78106)
(198.759 -0.0984872 0.417768)
(198.896 -0.16271 0.29555)
(198.933 -0.23967 0.107024)
(198.915 -0.310303 -0.0578488)
(198.848 -0.383458 -0.222989)
(198.743 -0.44998 -0.343348)
(198.609 -0.51243 -0.420363)
(198.463 -0.570387 -0.432978)
(198.317 -0.623664 -0.383266)
(198.15 -0.668224 -0.273327)
(199.463 0.530726 0.367243)
(199.61 0.516967 0.0967009)
(199.665 0.457889 -0.176591)
(199.623 0.360836 -0.437997)
(199.489 0.240415 -0.664915)
(199.271 0.102627 -0.835118)
(198.989 -0.0453286 -0.924329)
(198.67 -0.197125 -0.908713)
(198.359 -0.344762 -0.771818)
(198.116 -0.470601 -0.513375)
(199.805 0.204919 1.00204)
(200.038 0.0667434 0.574546)
(200.122 -0.106 0.0960886)
(200.057 -0.293425 -0.370786)
(199.843 -0.498083 -0.80017)
(199.488 -0.715615 -1.15463)
(199.011 -0.943904 -1.39158)
(198.452 -1.17942 -1.46532)
(197.875 -1.41707 -1.32178)
(197.406 -1.6321 -0.946306)
(199.982 1.02646 0.994556)
(200.311 0.892936 0.424432)
(200.432 0.695131 -0.180681)
(200.348 0.470027 -0.776292)
(200.056 0.221844 -1.33176)
(199.557 -0.0450265 -1.80321)
(198.861 -0.332416 -2.13149)
(198.009 -0.639429 -2.24268)
(197.074 -0.96776 -2.02958)
(196.27 -1.28561 -1.4235)
(200.369 0.639179 1.61501)
(200.791 0.401543 0.883265)
(200.949 0.117566 0.0789807)
(200.858 -0.172773 -0.713866)
(200.502 -0.476203 -1.47949)
(199.876 -0.788471 -2.16742)
(198.969 -1.11698 -2.70374)
(197.809 -1.46799 -2.98659)
(196.452 -1.86396 -2.83143)
(195.218 -2.26675 -2.08454)
(200.572 1.57169 1.49514)
(201.072 1.30161 0.664702)
(201.265 0.987254 -0.211052)
(201.168 0.675493 -1.08916)
(200.762 0.361295 -1.949)
(200.029 0.0436972 -2.7488)
(198.93 -0.294024 -3.40236)
(197.471 -0.666011 -3.79555)
(195.657 -1.10998 -3.64696)
(193.921 -1.60334 -2.7122)
(200.977 0.870672 2.12902)
(201.546 0.485737 1.18914)
(201.769 0.0894743 0.161014)
(201.677 -0.274836 -0.865972)
(201.24 -0.619861 -1.90116)
(200.428 -0.945096 -2.90243)
(199.168 -1.26868 -3.78745)
(197.434 -1.61283 -4.42102)
(195.149 -2.04656 -4.44744)
(192.849 -2.56753 -3.45687)
(201.127 1.97915 1.70435)
(201.734 1.57218 0.750235)
(201.971 1.17318 -0.2424)
(201.87 0.820987 -1.26112)
(201.4 0.51154 -2.29431)
(200.524 0.238308 -3.32551)
(199.138 -0.0225195 -4.26585)
(197.18 -0.305811 -5.00176)
(194.477 -0.68359 -5.08971)
(191.604 -1.24162 -4.02932)
(201.403 0.634426 2.42785)
(202.032 0.107774 1.43665)
(202.28 -0.367103 0.340278)
(202.184 -0.753138 -0.76708)
(201.705 -1.06634 -1.92178)
(200.799 -1.30416 -3.09462)
(199.335 -1.47733 -4.22894)
(197.207 -1.62393 -5.18395)
(194.167 -1.7983 -5.56506)
(190.666 -2.23197 -4.57253)
(200.79 1.98328 1.66779)
(201.391 1.41181 0.761355)
(201.627 0.983326 -0.198141)
(201.493 0.639599 -1.20545)
(200.962 0.412117 -2.25179)
(199.986 0.290284 -3.33738)
(198.433 0.274582 -4.3969)
(196.157 0.358305 -5.31037)
(192.901 0.46896 -5.69499)
(188.926 0.424346 -4.59115)
(198.46 -0.191748 0.32127)
(198.567 -0.236972 0.252209)
(198.592 -0.29195 0.122484)
(198.582 -0.340115 0.0170209)
(198.543 -0.392354 -0.0945644)
(198.482 -0.440059 -0.174416)
(198.406 -0.485273 -0.229688)
(198.325 -0.526519 -0.245343)
(198.241 -0.562567 -0.226318)
(198.122 -0.589994 -0.173601)
(199.082 0.396321 0.199416)
(199.178 0.408994 0.019034)
(199.215 0.38441 -0.155808)
(199.188 0.324893 -0.320398)
(199.102 0.244176 -0.458599)
(198.964 0.147928 -0.556193)
(198.789 0.0434121 -0.598982)
(198.597 -0.0628502 -0.574081)
(198.416 -0.163126 -0.477327)
(198.279 -0.244456 -0.311624)
(199.297 -0.0129273 0.785425)
(199.463 -0.111502 0.481363)
(199.523 -0.236449 0.134743)
(199.478 -0.375105 -0.202083)
(199.328 -0.529728 -0.507356)
(199.083 -0.695834 -0.752846)
(198.764 -0.869569 -0.909798)
(198.402 -1.04535 -0.952071)
(198.047 -1.2154 -0.854315)
(197.771 -1.36177 -0.6218)
(199.394 0.772736 0.717074)
(199.644 0.693836 0.29958)
(199.738 0.554553 -0.145922)
(199.675 0.385115 -0.581621)
(199.454 0.191565 -0.978615)
(199.085 -0.0201696 -1.30019)
(198.587 -0.247567 -1.50354)
(198.001 -0.486213 -1.54014)
(197.395 -0.729921 -1.35773)
(196.902 -0.955053 -0.931544)
(199.685 0.356119 1.29886)
(200.023 0.187973 0.735194)
(200.15 -0.0281254 0.106955)
(200.076 -0.258852 -0.508554)
(199.791 -0.506548 -1.09112)
(199.301 -0.764883 -1.59404)
(198.615 -1.0364 -1.95892)
(197.777 -1.32145 -2.11244)
(196.862 -1.62672 -1.9542)
(196.077 -1.92103 -1.41125)
(199.825 1.2698 1.15768)
(200.241 1.07824 0.505678)
(200.402 0.835636 -0.187854)
(200.318 0.583905 -0.87983)
(199.976 0.322933 -1.54232)
(199.375 0.0545066 -2.13057)
(198.507 -0.230266 -2.57195)
(197.408 -0.539141 -2.77556)
(196.142 -0.886684 -2.57469)
(195.003 -1.25721 -1.84128)
(200.182 0.567746 1.77724)
(200.672 0.271719 1.01654)
(200.862 -0.0476968 0.171318)
(200.777 -0.350453 -0.668487)
(200.394 -0.643258 -1.49884)
(199.702 -0.923051 -2.26929)
(198.67 -1.20265 -2.90498)
(197.318 -1.49698 -3.28526)
(195.676 -1.84699 -3.19659)
(194.125 -2.24537 -2.37603)
(200.294 1.7122 1.34259)
(200.826 1.40098 0.567043)
(201.034 1.07965 -0.246113)
(200.937 0.788043 -1.07971)
(200.516 0.526445 -1.90798)
(199.749 0.291551 -2.69977)
(198.585 0.0652548 -3.36781)
(197.018 -0.178068 -3.80028)
(195.032 -0.485327 -3.70296)
(193.052 -0.910342 -2.75644)
(200.569 0.346112 2.0953)
(201.13 -0.0808662 1.27275)
(201.348 -0.477954 0.342414)
(201.253 -0.803546 -0.59275)
(200.815 -1.06951 -1.55272)
(200.007 -1.2715 -2.49085)
(198.754 -1.42126 -3.34287)
(197.018 -1.55008 -3.96243)
(194.741 -1.70148 -4.08201)
(192.304 -2.03015 -3.14715)
(199.969 1.81517 1.29871)
(200.506 1.34963 0.562048)
(200.721 1.00025 -0.231128)
(200.6 0.716969 -1.06538)
(200.123 0.532286 -1.9175)
(199.257 0.437129 -2.76896)
(197.924 0.427793 -3.54127)
(196.053 0.494877 -4.10948)
(193.583 0.562947 -4.17922)
(190.809 0.519249 -3.11543)
(198.232 -0.255795 0.265837)
(198.319 -0.290733 0.229536)
(198.337 -0.333187 0.135465)
(198.332 -0.367319 0.0657969)
(198.31 -0.405643 -0.014009)
(198.275 -0.44013 -0.0711401)
(198.233 -0.472742 -0.11548)
(198.187 -0.501775 -0.135259)
(198.137 -0.525866 -0.13599)
(198.043 -0.54231 -0.116914)
(198.8 0.320936 0.0782124)
(198.861 0.348775 -0.0403056)
(198.885 0.346682 -0.147109)
(198.869 0.313632 -0.245253)
(198.816 0.262391 -0.32416)
(198.731 0.197939 -0.375334)
(198.625 0.126645 -0.390989)
(198.511 0.0543516 -0.363993)
(198.405 -0.0125902 -0.295274)
(198.326 -0.0646397 -0.185939)
(198.915 -0.167976 0.624918)
(199.028 -0.242227 0.411068)
(199.07 -0.333246 0.162485)
(199.04 -0.434565 -0.0787481)
(198.939 -0.548823 -0.295611)
(198.776 -0.672394 -0.468027)
(198.568 -0.800825 -0.577347)
(198.34 -0.928347 -0.609506)
(198.123 -1.04745 -0.552203)
(197.96 -1.14552 -0.417671)
(198.954 0.579846 0.495808)
(199.137 0.537831 0.198408)
(199.207 0.443191 -0.119649)
(199.161 0.319591 -0.428801)
(199.002 0.173368 -0.704643)
(198.739 0.0109967 -0.918879)
(198.393 -0.16302 -1.04216)
(198 -0.342739 -1.04428)
(197.611 -0.51949 -0.902059)
(197.308 -0.676232 -0.609707)
(199.156 0.129439 1.03352)
(199.416 0.012864 0.608898)
(199.515 -0.147796 0.129485)
(199.457 -0.326538 -0.337737)
(199.238 -0.523122 -0.772492)
(198.87 -0.73046 -1.13574)
(198.37 -0.947851 -1.38416)
(197.78 -1.17188 -1.46911)
(197.172 -1.40163 -1.33823)
(196.674 -1.61137 -0.963669)
(199.235 1.00975 0.866129)
(199.568 0.879697 0.368467)
(199.697 0.698197 -0.164654)
(199.627 0.500852 -0.694162)
(199.353 0.290549 -1.19043)
(198.88 0.0708883 -1.61234)
(198.219 -0.160911 -1.90292)
(197.416 -0.408002 -1.99706)
(196.547 -0.67157 -1.79857)
(195.805 -0.940684 -1.25425)
(199.543 0.300168 1.46163)
(199.948 0.0784889 0.861088)
(200.105 -0.172543 0.18311)
(200.031 -0.417912 -0.48708)
(199.711 -0.659994 -1.13801)
(199.146 -0.893827 -1.71955)
(198.335 -1.12797 -2.16946)
(197.314 -1.37036 -2.3923)
(196.156 -1.64413 -2.2674)
(195.12 -1.93652 -1.63859)
(199.605 1.47062 1.01132)
(200.053 1.24248 0.399042)
(200.228 0.992045 -0.246682)
(200.141 0.757759 -0.90824)
(199.781 0.542991 -1.55198)
(199.139 0.34687 -2.14158)
(198.2 0.157252 -2.5994)
(196.989 -0.0438143 -2.83415)
(195.562 -0.284661 -2.65421)
(194.219 -0.594781 -1.88853)
(199.876 0.0717166 1.78967)
(200.358 -0.266191 1.12322)
(200.545 -0.59133 0.350733)
(200.458 -0.860549 -0.421493)
(200.075 -1.08224 -1.20234)
(199.386 -1.25077 -1.93801)
(198.356 -1.37755 -2.56667)
(196.99 -1.48631 -2.95999)
(195.327 -1.60995 -2.94807)
(193.664 -1.84763 -2.17772)
(199.279 1.66538 0.949161)
(199.741 1.29739 0.369855)
(199.929 1.02194 -0.264848)
(199.823 0.795289 -0.933938)
(199.41 0.649787 -1.60484)
(198.672 0.577642 -2.24966)
(197.57 0.572809 -2.78835)
(196.088 0.625863 -3.11459)
(194.265 0.664537 -3.01088)
(192.377 0.633193 -2.10691)
(198.051 -0.304372 0.237546)
(198.126 -0.333748 0.220991)
(198.139 -0.369444 0.147722)
(198.137 -0.395143 0.0987467)
(198.124 -0.424536 0.0372699)
(198.105 -0.450104 -0.00769813)
(198.081 -0.473907 -0.0468952)
(198.055 -0.494353 -0.0705258)
(198.024 -0.510283 -0.0839959)
(197.945 -0.519621 -0.0851078)
(198.587 0.289425 -0.0112734)
(198.626 0.326113 -0.0878375)
(198.641 0.338394 -0.148359)
(198.632 0.323631 -0.201471)
(198.6 0.293656 -0.240956)
(198.549 0.252597 -0.262003)
(198.485 0.205684 -0.260767)
(198.418 0.157765 -0.232984)
(198.355 0.113652 -0.181743)
(198.308 0.0805474 -0.105153)
(198.624 -0.273114 0.509449)
(198.698 -0.333064 0.359341)
(198.726 -0.400723 0.181143)
(198.707 -0.474523 0.00779729)
(198.641 -0.557702 -0.147804)
(198.536 -0.647617 -0.272109)
(198.404 -0.740177 -0.353215)
(198.262 -0.830344 -0.384055)
(198.131 -0.911974 -0.357702)
(198.035 -0.976475 -0.288269)
(198.63 0.441143 0.324)
(198.758 0.422567 0.118187)
(198.808 0.360652 -0.101763)
(198.777 0.273331 -0.314204)
(198.666 0.166402 -0.500175)
(198.485 0.0460186 -0.638975)
(198.252 -0.0829152 -0.711382)
(197.993 -0.214329 -0.699089)
(197.745 -0.339812 -0.593727)
(197.559 -0.4476 -0.395097)