/*--------------------------------*- C++ -*----------------------------------*\
| =========                 |                                                 |
| \\      /  F ield         | foam-extend: Open Source CFD                    |
|  \\    /   O peration     | Version:     4.0                                |
|   \\  /    A nd           | Web:         http://www.foam-extend.org         |
|    \\/     M anipulation  |                                                 |
\*---------------------------------------------------------------------------*/
FoamFile
{
    version     2.0;
    format      ascii;
    class       volScalarField;
    location    "4450";
    object      divFlux;
}
// * * * * * * * * * * * * * * * * * * * * * * * * * * * * * * * * * * * * * //

dimensions      [1 -3 -1 0 0 0 0];

internalField   nonuniform List<scalar> 
34480
(
1.8151e-05
6.60749e-06
6.73906e-06
6.20168e-06
5.73929e-06
5.38556e-06
5.11405e-06
0.000297456
0.000179075
4.56311e-06
5.32702e-06
2.93026e-06
2.77997e-06
2.55689e-06
2.41095e-06
2.34893e-06
2.33936e-06
2.33873e-06
0.00346492
2.26685e-06
1.36462e-06
8.82388e-07
8.83075e-07
8.20899e-07
8.37165e-07
8.68551e-07
8.97234e-07
9.32744e-07
0.00334155
9.29124e-07
5.07897e-07
3.62163e-07
3.2589e-07
3.1581e-07
3.35168e-07
3.42767e-07
3.54947e-07
3.94237e-07
0.00080162
3.65524e-07
2.08789e-07
1.69073e-07
1.36345e-07
1.30978e-07
1.48258e-07
1.46556e-07
1.40927e-07
1.64229e-07
1.65408e-07
1.48651e-07
1.06716e-07
7.19936e-08
6.15697e-08
6.0997e-08
6.71826e-08
5.77323e-08
6.08824e-08
8.24748e-08
6.75262e-08
5.5785e-08
7.47682e-08
3.35499e-08
2.91207e-08
2.59134e-08
3.03426e-08
2.7848e-08
2.85098e-08
3.43136e-08
2.65752e-08
3.1208e-08
3.59682e-08
1.53036e-08
1.21421e-08
1.43414e-08
1.622e-08
8.79731e-09
1.54411e-08
1.81444e-08
1.42498e-08
1.47996e-08
8.09648e-09
8.78898e-09
9.83032e-09
9.83032e-09
5.45666e-09
7.37274e-09
1.12882e-08
7.24778e-09
5.16509e-09
8.87228e-09
4.3242e-09
8.01838e-09
6.03288e-09
5.19286e-09
5.7656e-09
5.7656e-09
4.46738e-09
4.35283e-09
7.17836e-09
7.522e-09
2.51143e-05
8.44216e-06
8.56562e-06
8.0313e-06
7.52438e-06
7.15007e-06
6.9081e-06
6.77591e-06
6.76643e-06
0.0010671
8.04821e-06
4.10831e-06
4.01253e-06
3.76979e-06
3.59483e-06
3.52151e-06
3.52774e-06
3.58684e-06
3.71042e-06
0.00345734
2.37682e-06
1.56823e-06
1.48474e-06
1.43018e-06
1.41974e-06
1.46647e-06
1.55839e-06
1.63753e-06
1.71101e-06
0.00431147
8.86658e-07
6.7478e-07
6.19299e-07
6.23026e-07
6.20471e-07
6.57813e-07
7.01544e-07
7.36365e-07
7.89751e-07
0.00149824
3.78155e-07
3.21655e-07
2.70784e-07
2.99688e-07
2.87822e-07
2.97132e-07
3.31148e-07
3.4563e-07
3.54453e-07
3.81053e-07
2.34986e-07
1.53716e-07
1.32791e-07
1.52225e-07
1.35985e-07
1.35613e-07
1.75812e-07
1.58188e-07
1.61436e-07
1.83922e-07
1.3194e-07
8.77935e-08
5.20609e-08
8.55691e-08
7.12761e-08
6.34669e-08
8.63264e-08
7.5157e-08
9.11538e-08
8.78527e-08
4.018e-08
5.06458e-08
3.35225e-08
5.22644e-08
2.44497e-08
3.44596e-08
5.80999e-08
4.02099e-08
3.90172e-08
5.10238e-08
2.93435e-08
1.65347e-08
3.15979e-08
2.24593e-08
2.58282e-08
3.33017e-08
2.47052e-08
1.2585e-08
3.20239e-08
3.71256e-08
2.18072e-07
1.65767e-08
3.35083e-08
2.49892e-08
1.3311e-08
1.32045e-08
2.56991e-08
2.75804e-08
2.22915e-08
2.29127e-08
2.35587e-05
6.29272e-06
6.63284e-06
6.28467e-06
5.90598e-06
5.63526e-06
5.49499e-06
5.47799e-06
2.99538e-05
0.000875345
6.95994e-06
2.94298e-06
2.91847e-06
2.74494e-06
2.59615e-06
2.49428e-06
2.46305e-06
2.51908e-06
8.1749e-05
0.001354
1.90472e-06
1.12007e-06
1.06491e-06
9.97792e-07
9.62312e-07
9.40256e-07
9.48215e-07
9.95535e-07
0.000120541
0.00127453
7.59958e-07
4.96197e-07
4.49636e-07
4.06804e-07
3.90668e-07
3.88193e-07
3.73938e-07
4.08685e-07
4.66696e-07
5.72476e-07
2.83016e-07
1.96746e-07
1.81585e-07
1.47135e-07
1.52283e-07
1.71346e-07
1.5019e-07
1.64275e-07
2.04524e-07
2.54485e-07
1.19977e-07
6.87026e-08
7.33059e-08
5.47938e-08
7.45928e-08
7.84536e-08
4.56368e-08
7.91466e-08
1.07459e-07
1.07923e-07
5.52008e-08
3.28664e-08
4.0786e-08
1.65872e-08
3.26904e-08
4.1446e-08
2.23069e-08
4.0742e-08
3.94661e-08
4.85544e-08
2.61199e-08
2.35212e-08
1.2909e-08
8.23639e-09
3.31436e-08
1.44533e-08
1.34633e-09
2.46696e-08
2.8273e-08
2.67658e-08
1.94267e-08
1.08355e-08
1.17354e-08
1.33553e-08
1.09795e-08
6.47968e-10
1.60912e-08
2.47308e-08
6.47968e-09
1.0489e-08
3.32273e-08
3.66282e-09
4.65277e-09
3.89381e-09
1.48163e-08
8.28259e-09
2.0789e-09
3.59682e-09
7.09465e-09
1.41192e-08
2.34177e-05
5.59603e-06
5.95482e-06
5.70646e-06
5.3866e-06
5.15186e-06
5.03167e-06
5.02809e-06
1.49543e-05
0.000375185
7.02574e-06
2.7809e-06
2.76212e-06
2.59688e-06
2.44752e-06
2.34339e-06
2.29374e-06
2.30718e-06
3.54655e-05
0.00114486
1.86754e-06
9.95205e-07
9.68775e-07
9.19005e-07
8.79064e-07
8.56425e-07
8.6607e-07
8.83813e-07
0.000122002
0.00229003
6.75279e-07
4.29225e-07
4.17077e-07
3.96861e-07
3.71338e-07
3.6916e-07
3.61307e-07
3.71431e-07
0.00011321
0.00210579
2.9983e-07
2.01728e-07
1.97626e-07
1.81534e-07
1.5361e-07
1.60289e-07
1.62971e-07
1.55346e-07
4.51738e-05
0.00157001
1.39971e-07
7.95134e-08
8.93145e-08
7.32554e-08
6.11995e-08
8.4575e-08
6.52488e-08
5.89448e-08
1.07603e-05
0.00098704
6.01054e-08
2.88768e-08
4.72417e-08
3.33351e-08
2.07782e-08
3.94704e-08
2.85905e-08
3.34987e-08
4.06156e-08
0.0004149
2.62393e-08
2.1314e-08
2.42589e-08
5.74263e-09
1.66389e-08
2.73511e-08
8.90844e-09
1.14853e-08
2.29337e-08
0.000156092
2.10549e-08
1.01734e-08
1.22483e-08
1.014e-08
1.36873e-08
7.19502e-09
4.68513e-09
1.70673e-08
1.59294e-08
9.03143e-09
2.23056e-08
9.29497e-09
8.4667e-09
1.59518e-09
9.08023e-09
1.01539e-08
5.8592e-09
6.04326e-09
7.36235e-09
1.0917e-08
2.30788e-05
5.01559e-06
5.26934e-06
5.12005e-06
4.87283e-06
4.66584e-06
4.54898e-06
4.53657e-06
1.95777e-05
0.000144446
6.84144e-06
2.53902e-06
2.52028e-06
2.38648e-06
2.25229e-06
2.15497e-06
2.10424e-06
2.09363e-06
3.18953e-06
0.00057971
2.0058e-06
1.00238e-06
9.61761e-07
8.99033e-07
8.50438e-07
8.13479e-07
8.03829e-07
8.00817e-07
7.6668e-05
0.00133488
6.46195e-07
3.85619e-07
3.65913e-07
3.5636e-07
3.44069e-07
3.36255e-07
3.30808e-07
3.36511e-07
7.89511e-05
0.00142041
2.59514e-07
1.83329e-07
1.66072e-07
1.67099e-07
1.55952e-07
1.47641e-07
1.48277e-07
1.46517e-07
5.30159e-05
0.0012796
1.41862e-07
8.42704e-08
8.41421e-08
8.11905e-08
6.64753e-08
7.27635e-08
6.97263e-08
6.24542e-08
4.01469e-05
0.00101552
6.02251e-08
3.45257e-08
4.01532e-08
4.07996e-08
2.87461e-08
3.36131e-08
3.1902e-08
3.11796e-08
5.86773e-06
0.000666438
2.43769e-08
1.8856e-08
2.30653e-08
1.71108e-08
1.08824e-08
2.1628e-08
1.6529e-08
1.28673e-08
8.62474e-06
0.00049907
2.16723e-08
8.27538e-09
1.3813e-08
1.09509e-08
9.61313e-09
1.20086e-08
4.97767e-09
1.16975e-08
1.72974e-08
0.00030569
1.40825e-08
9.15425e-09
9.09722e-09
3.96399e-09
6.73023e-09
9.5535e-09
6.64468e-09
5.61803e-09
8.01354e-09
0.000402773
2.20016e-05
4.66447e-06
4.55336e-06
4.44504e-06
4.31219e-06
4.14143e-06
4.02592e-06
3.99323e-06
4.04867e-06
2.54641e-05
6.46638e-06
2.28389e-06
2.24806e-06
2.14284e-06
2.03388e-06
1.94838e-06
1.89843e-06
1.88173e-06
1.5263e-05
0.00022328
1.98155e-06
9.35445e-07
9.18456e-07
8.61574e-07
8.11563e-07
7.74532e-07
7.5468e-07
7.37851e-07
3.51885e-05
0.000718576
7.47086e-07
4.13973e-07
3.82345e-07
3.55092e-07
3.37091e-07
3.2365e-07
3.14556e-07
3.11879e-07
4.16434e-05
0.000847969
2.42278e-07
1.71793e-07
1.53068e-07
1.4666e-07
1.44842e-07
1.39979e-07
1.37662e-07
1.33208e-07
3.69197e-05
0.000863323
1.20911e-07
7.61138e-08
7.19383e-08
7.15406e-08
6.54563e-08
6.66096e-08
6.28317e-08
6.04855e-08
3.52178e-05
0.000779492
5.8253e-08
3.80348e-08
3.71865e-08
3.65148e-08
3.16368e-08
3.22024e-08
3.10712e-08
3.10359e-08
1.93409e-05
0.000594024
2.66493e-08
2.05197e-08
1.88654e-08
1.96289e-08
1.43479e-08
1.72747e-08
1.66703e-08
1.46024e-08
2.61507e-05
0.000524111
2.24159e-08
8.90778e-09
1.19445e-08
1.20891e-08
8.67641e-09
1.1019e-08
8.47396e-09
9.86219e-09
9.54819e-06
0.000446867
9.87648e-09
1.0525e-08
7.15804e-09
7.13153e-09
5.32876e-09
7.39664e-09
8.03291e-09
5.83248e-09
2.60678e-05
0.000523456
1.90394e-05
4.93017e-06
3.97443e-06
3.68102e-06
3.67013e-06
3.5995e-06
3.50555e-06
3.45394e-06
3.4737e-06
1.16473e-06
5.99997e-06
2.09372e-06
1.98455e-06
1.90263e-06
1.81842e-06
1.74407e-06
1.69564e-06
1.66821e-06
1.0179e-05
7.16976e-05
1.83614e-06
7.94117e-07
7.98524e-07
7.6333e-07
7.2367e-07
6.98058e-07
6.80224e-07
6.6449e-07
1.36134e-05
0.000378241
7.14058e-07
3.84992e-07
3.67444e-07
3.42725e-07
3.24166e-07
3.09675e-07
2.97401e-07
2.92127e-07
1.65096e-05
0.000490394
2.76285e-07
1.81126e-07
1.59409e-07
1.48847e-07
1.41115e-07
1.36679e-07
1.33087e-07
1.26032e-07
1.75809e-05
0.000542703
1.15779e-07
7.17193e-08
6.83921e-08
6.54716e-08
6.17378e-08
6.33274e-08
5.78191e-08
5.80039e-08
2.02166e-05
0.000536485
5.09873e-08
3.52928e-08
3.35512e-08
3.13823e-08
2.9575e-08
2.9575e-08
2.90163e-08
2.82605e-08
1.59426e-05
0.000441539
2.50835e-08
2.08504e-08
1.73605e-08
1.77154e-08
1.57339e-08
1.66507e-08
1.43734e-08
1.46692e-08
2.56579e-05
0.000433089
2.33899e-08
9.32956e-09
1.13191e-08
1.21257e-08
8.63051e-09
1.0647e-08
8.54986e-09
1.00286e-08
1.94453e-05
0.000409052
6.87637e-09
1.15342e-08
5.47137e-09
6.62972e-09
6.4572e-09
6.7776e-09
6.72831e-09
5.84106e-09
3.31418e-05
0.000468897
1.10393e-05
6.52594e-06
4.03544e-06
2.98795e-06
2.93264e-06
2.99973e-06
3.0096e-06
2.98799e-06
2.98002e-06
3.14674e-06
5.26513e-06
1.96351e-06
1.71091e-06
1.61836e-06
1.56348e-06
1.51203e-06
1.47189e-06
1.44426e-06
2.65475e-06
1.49386e-05
1.78843e-06
7.1465e-07
7.13303e-07
6.82674e-07
6.45585e-07
6.23975e-07
6.04674e-07
5.88975e-07
4.97868e-06
0.000180893
6.21209e-07
3.16478e-07
3.11873e-07
2.97805e-07
2.86349e-07
2.74642e-07
2.66691e-07
2.62361e-07
5.34269e-06
0.000267005
2.55273e-07
1.6736e-07
1.49842e-07
1.41358e-07
1.33306e-07
1.28122e-07
1.24783e-07
1.16849e-07
5.83176e-06
0.000321776
1.25439e-07
7.39931e-08
6.95253e-08
6.44733e-08
6.09678e-08
6.07616e-08
5.58127e-08
5.56065e-08
8.01514e-06
0.000350036
4.9133e-08
3.3176e-08
3.2565e-08
2.93574e-08
2.81966e-08
2.74023e-08
2.79522e-08
2.70968e-08
8.85852e-06
0.000302727
2.30227e-08
1.88059e-08
1.5864e-08
1.5754e-08
1.44068e-08
1.54241e-08
1.33621e-08
1.32521e-08
1.91508e-05
0.000325765
2.1027e-08
1.06227e-08
1.04727e-08
1.05727e-08
8.09821e-09
9.87282e-09
7.82328e-09
9.72286e-09
1.8214e-05
0.000311953
4.77976e-09
1.18682e-08
5.06347e-09
7.53792e-09
5.33841e-09
6.41525e-09
6.75893e-09
5.40714e-09
3.05371e-05
0.000366776
9.56518e-06
9.9353e-06
5.49962e-06
2.86354e-06
2.19295e-06
2.18715e-06
2.30709e-06
2.40756e-06
2.47832e-06
2.63001e-06
4.15041e-06
1.98203e-06
1.50883e-06
1.34685e-06
1.29666e-06
1.2679e-06
1.24592e-06
1.23317e-06
1.21822e-06
2.40844e-07
1.68349e-06
6.33744e-07
6.24108e-07
5.98242e-07
5.65705e-07
5.45283e-07
5.27647e-07
5.12414e-07
1.65185e-06
7.98279e-05
6.14916e-07
2.85519e-07
2.79151e-07
2.64688e-07
2.53463e-07
2.42345e-07
2.36275e-07
2.32846e-07
1.62004e-06
0.000135655
2.13021e-07
1.40102e-07
1.25606e-07
1.21224e-07
1.15784e-07
1.1279e-07
1.09978e-07
1.03333e-07
1.03902e-06
0.000176953
1.1416e-07
6.75725e-08
6.3515e-08
5.92977e-08
5.63903e-08
5.53999e-08
5.06075e-08
1.22725e-05
1.45497e-06
0.000214848
5.00302e-08
3.33691e-08
3.15516e-08
2.84561e-08
2.73485e-08
2.55877e-08
2.64681e-08
2.55877e-08
3.57612e-06
0.00019013
2.2888e-08
1.68947e-08
1.52845e-08
1.47477e-08
1.31375e-08
1.55656e-08
1.28052e-08
1.01699e-05
1.24133e-05
0.000227325
1.83566e-08
1.01076e-08
9.61961e-09
1.02237e-08
8.6437e-09
8.94577e-09
6.64543e-09
9.10842e-09
1.36349e-05
0.000214239
2.197e-09
1.14804e-08
4.49418e-09
6.24074e-09
5.72955e-09
6.34724e-09
5.60175e-09
4.82433e-06
2.4415e-05
0.000264504
5.2388e-05
1.40221e-05
8.75865e-06
4.49451e-06
2.54065e-06
1.81143e-06
1.62049e-06
1.6334e-06
1.70771e-06
1.83585e-06
2.52932e-06
2.1879e-06
1.46607e-06
1.17658e-06
1.07254e-06
1.02703e-06
1.0071e-06
1.00553e-06
1.00012e-06
9.5695e-07
1.49308e-06
5.46048e-07
5.25614e-07
5.0392e-07
4.7593e-07
4.61056e-07
4.44447e-07
4.30095e-07
1.61384e-07
3.17109e-05
5.76243e-07
2.50736e-07
2.48935e-07
2.34718e-07
2.24322e-07
2.12066e-07
2.06601e-07
2.04225e-07
4.77019e-07
6.42925e-05
2.04127e-07
1.25593e-07
1.12083e-07
1.07908e-07
1.01459e-07
9.9592e-08
9.75214e-08
9.13435e-08
3.81871e-07
9.10422e-05
9.6893e-08
5.65806e-08
5.3759e-08
5.1175e-08
4.92741e-08
4.8086e-08
4.46704e-08
1.75924e-05
1.32624e-06
0.000125597
4.53007e-08
3.00971e-08
2.72986e-08
2.62426e-08
2.44209e-08
2.32064e-08
2.252e-08
2.22032e-08
8.25479e-07
0.000108974
2.36454e-08
1.47317e-08
1.48743e-08
1.35199e-08
1.21418e-08
1.42803e-08
1.2023e-08
1.90084e-05
7.39155e-06
0.000150125
1.43065e-08
1.06708e-08
8.3163e-09
8.1867e-09
7.60348e-09
8.46751e-09
6.13462e-09
8.05709e-09
8.82388e-06
0.000136398
2.01983e-09
1.05736e-08
4.67297e-09
6.39563e-09
4.25715e-09
5.90061e-09
5.04918e-09
1.01658e-05
1.79212e-05
0.00018033
0.000114445
1.2375e-05
9.54439e-06
6.42716e-06
4.37501e-06
3.13199e-06
2.415e-06
2.0137e-06
1.80345e-06
1.74241e-06
2.9769e-07
2.3776e-06
1.48948e-06
1.12593e-06
9.78816e-07
8.96452e-07
8.46006e-07
8.21791e-07
8.15054e-07
7.32026e-07
1.28734e-06
4.81561e-07
4.42198e-07
4.23511e-07
4.00517e-07
3.85805e-07
3.7063e-07
3.57443e-07
3.50198e-07
1.0861e-05
5.04436e-07
2.04967e-07
2.0482e-07
1.96628e-07
1.8805e-07
1.77227e-07
1.71907e-07
1.69496e-07
5.65661e-08
2.73924e-05
1.85833e-07
1.10792e-07
1.00126e-07
9.56135e-08
8.89869e-08
8.74406e-08
8.5358e-08
8.12873e-08
5.46007e-07
4.39826e-05
8.93899e-08
5.01971e-08
4.72151e-08
4.38742e-08
4.33495e-08
4.11959e-08
3.92631e-08
1.68655e-05
2.24763e-06
7.1334e-05
3.90641e-08
2.58931e-08
2.34634e-08
2.28007e-08
2.12299e-08
2.01746e-08
1.93401e-08
1.87756e-08
2.00788e-07
5.66569e-05
2.33039e-08
1.2922e-08
1.30325e-08
1.23698e-08
1.10003e-08
1.19943e-08
9.15763e-07
2.11579e-05
4.06691e-06
9.62067e-05
1.14899e-08
1.05023e-08
7.34959e-09
8.33355e-09
6.70701e-09
7.87169e-09
5.50215e-09
6.86765e-09
4.88481e-06
7.99428e-05
5.76527e-10
9.13009e-09
4.98842e-09
5.79835e-09
3.11086e-09
5.96401e-09
4.80434e-09
1.1216e-05
1.2382e-05
0.000117769
0.000121843
5.0428e-07
1.56714e-07
5.10184e-07
8.86772e-07
1.04853e-06
1.10346e-06
1.11876e-06
1.13119e-06
1.18474e-06
1.65877e-06
2.33058e-06
1.252e-06
8.85249e-07
7.84347e-07
7.24925e-07
6.78722e-07
6.45507e-07
6.33083e-07
5.44527e-07
1.05344e-06
4.26628e-07
3.52375e-07
3.3644e-07
3.2186e-07
3.13195e-07
3.00484e-07
2.8958e-07
2.79477e-07
3.39642e-06
4.40316e-07
1.65492e-07
1.6503e-07
1.59554e-07
1.54147e-07
1.44273e-07
1.37651e-07
1.33937e-07
1.33355e-07
8.95783e-06
1.55861e-07
8.83577e-08
8.2256e-08
7.82077e-08
7.32207e-08
7.2282e-08
7.10499e-08
6.82044e-08
3.55455e-07
1.97492e-05
7.86359e-08
4.39185e-08
4.11207e-08
3.80405e-08
3.77838e-08
3.5602e-08
1.2116e-06
1.4306e-05
2.35376e-06
3.98287e-05
3.44251e-08
2.23143e-08
1.9873e-08
1.94623e-08
1.81846e-08
1.75914e-08
1.64962e-08
1.60399e-08
2.41898e-07
2.53898e-05
2.24818e-08
9.93877e-09
1.10271e-08
9.87717e-09
9.67182e-09
1.05959e-08
1.64375e-05
2.02908e-05
1.99131e-06
6.09816e-05
7.17043e-09
1.02113e-08
6.88844e-09
6.17907e-09
6.1604e-09
6.10439e-09
5.67503e-09
5.54436e-09
2.07684e-06
4.15758e-05
9.09889e-10
6.79355e-09
4.44918e-09
4.58607e-09
3.57645e-09
4.53474e-09
3.508e-09
1.01521e-05
8.17998e-06
7.43463e-05
6.20115e-05
2.06379e-06
1.46296e-06
1.44177e-06
1.51326e-06
1.55314e-06
1.56886e-06
1.57257e-06
1.55241e-06
1.53286e-06
5.00258e-06
2.39774e-06
1.02674e-06
5.84409e-07
5.42459e-07
5.56585e-07
5.57206e-07
5.54843e-07
5.60809e-07
5.34106e-07
7.50716e-07
4.13026e-07
2.75408e-07
2.48988e-07
2.44177e-07
2.44406e-07
2.36178e-07
2.2965e-07
4.02355e-07
2.26255e-06
3.74375e-07
1.36269e-07
1.29763e-07
1.27106e-07
1.24052e-07
1.16097e-07
1.11691e-07
1.0703e-07
1.045e-07
8.94321e-08
1.3243e-07
6.88594e-08
6.47415e-08
6.27507e-08
5.77328e-08
5.62329e-08
5.4733e-08
5.32058e-08
1.71508e-07
8.2842e-06
6.50105e-08
3.48149e-08
3.324e-08
3.13072e-08
3.03527e-08
2.91596e-08
8.89632e-06
1.17073e-05
2.16261e-06
2.21903e-05
2.86576e-08
1.91322e-08
1.61839e-08
1.67141e-08
1.55263e-08
1.5293e-08
1.38719e-08
1.27477e-08
1.34689e-08
8.04627e-06
2.94381e-06
8.49494e-09
9.35397e-09
8.30404e-09
7.80771e-09
1.57312e-05
2.42283e-05
1.84368e-05
7.45741e-07
3.89732e-05
4.07128e-09
9.40604e-09
5.77899e-09
5.83105e-09
5.08481e-09
5.67486e-09
4.42535e-09
4.33858e-09
2.90754e-07
1.69382e-05
1.10095e-09
5.13832e-09
4.13611e-09
4.15202e-09
3.11799e-09
3.38843e-09
1.96734e-06
8.32978e-06
5.23269e-06
4.57213e-05
2.54515e-05
2.07257e-06
2.533e-06
2.55708e-06
2.448e-06
2.34965e-06
2.22587e-06
2.02403e-06
1.73298e-06
1.3297e-06
1.17817e-05
3.57454e-06
1.41786e-06
5.02337e-07
3.00027e-07
2.80084e-07
2.90421e-07
3.00049e-07
3.06526e-07
2.98471e-07
5.79859e-05
7.04037e-06
9.4082e-06
7.07368e-06
5.79911e-06
4.86657e-06
3.69809e-06
1.46758e-06
1.77108e-06
3.99329e-06
2.96069e-07
1.15515e-07
9.91734e-08
9.60973e-08
9.42783e-08
9.0448e-08
8.72832e-08
8.3867e-08
8.00515e-08
6.98109e-08
1.12966e-07
5.25803e-08
5.13888e-08
4.87015e-08
4.59381e-08
4.36057e-08
4.2693e-08
4.09691e-08
1.05947e-07
3.57151e-06
9.75311e-06
2.69081e-08
2.57102e-08
2.44458e-08
2.35585e-08
7.38126e-06
1.19274e-05
9.61009e-06
1.92057e-06
1.25974e-05
2.20523e-08
1.53211e-08
1.3093e-08
1.34676e-08
1.18704e-08
1.26592e-08
1.14958e-08
1.0569e-08
9.95776e-09
9.82454e-09
5.02709e-05
4.56832e-05
4.1101e-05
3.65105e-05
3.47314e-05
3.23324e-05
2.75805e-05
1.65872e-05
8.87325e-11
2.57271e-05
9.70701e-10
7.85686e-09
4.74316e-09
4.71089e-09
4.35596e-09
4.30756e-09
4.16236e-09
4.04943e-09
4.16236e-09
2.04245e-06
2.43789e-09
2.97254e-09
3.46057e-09
2.72113e-09
2.6324e-09
3.23874e-09
5.08743e-06
6.3838e-06
3.25607e-06
2.74737e-05
9.12295e-05
1.26368e-05
1.25991e-05
1.20344e-05
1.15212e-05
1.06649e-05
9.43574e-06
7.94222e-06
6.29658e-06
4.52244e-06
2.7243e-05
4.61653e-06
2.02298e-06
7.19571e-07
3.34142e-07
2.54086e-07
2.45384e-07
2.56561e-07
2.8836e-07
3.32096e-07
0.000199894
0.000128367
6.98867e-05
3.98097e-05
2.2389e-05
1.25726e-05
6.4517e-06
1.51196e-06
3.83009e-06
7.118e-06
2.06521e-07
1.03469e-07
7.6151e-08
6.72559e-08
6.69947e-08
6.56062e-08
6.34064e-08
6.13442e-08
5.85534e-08
4.92833e-08
9.22761e-08
3.96418e-08
3.81334e-08
3.66251e-08
3.40561e-08
3.37733e-08
3.21471e-08
1.64294e-07
1.46618e-07
2.11117e-06
3.93667e-05
3.00159e-05
1.96651e-05
1.57391e-05
1.50342e-05
1.43042e-05
1.23452e-05
7.94378e-06
1.71006e-06
7.40502e-06
1.57499e-08
1.14018e-08
1.03019e-08
9.917e-09
8.98212e-09
9.25709e-09
9.03711e-09
8.39553e-09
8.02892e-09
7.37273e-09
0.000219226
4.34995e-05
7.9938e-05
7.01321e-05
5.46519e-05
4.07531e-05
2.8688e-05
1.51861e-05
4.7771e-07
1.80478e-05
1.97581e-09
6.58411e-09
3.41954e-09
4.13944e-09
3.83948e-09
3.28456e-09
3.16457e-09
2.9696e-09
2.86461e-09
3.37909e-09
4.77823e-09
1.80101e-09
3.51953e-09
1.97973e-09
1.71852e-09
1.74601e-09
5.26902e-06
4.37968e-06
1.90797e-06
1.57223e-05
0.000280688
3.21645e-05
3.69621e-05
3.53139e-05
3.04317e-05
2.4441e-05
1.84775e-05
1.29915e-05
7.95714e-06
3.11559e-06
3.40874e-05
7.13166e-06
3.85618e-06
1.89428e-06
1.07659e-06
7.23423e-07
4.97434e-07
2.48362e-07
1.16886e-07
6.6276e-07
0.000339002
0.000242205
0.00011756
6.11707e-05
3.07623e-05
1.49614e-05
6.1436e-06
2.59347e-08
6.74082e-06
1.12854e-05
1.07669e-07
9.97922e-08
6.46962e-08
5.10847e-08
4.38764e-08
4.30712e-08
4.16269e-08
4.27772e-08
4.2266e-08
3.32433e-08
1.83468e-05
2.86581e-08
2.69491e-08
2.03105e-07
1.59e-06
2.41039e-06
2.46394e-06
1.62731e-06
2.28739e-07
1.85155e-06
3.98197e-05
4.50264e-05
3.52055e-05
2.63125e-05
1.99959e-05
1.5152e-05
1.09232e-05
6.33802e-06
1.4913e-06
4.40925e-06
1.05661e-08
7.92407e-09
7.22539e-09
6.79937e-09
6.42446e-09
5.99844e-09
6.04956e-09
6.16885e-09
5.64058e-09
5.03855e-09
0.000486733
1.65037e-05
8.40241e-05
8.30549e-05
6.35284e-05
4.44315e-05
2.87644e-05
1.43141e-05
8.40172e-07
1.37388e-05
4.52798e-09
5.66072e-09
2.53756e-09
1.91014e-09
2.55151e-09
2.45391e-09
2.43996e-09
1.88226e-09
2.57939e-09
1.89823e-09
6.8427e-09
4.47327e-10
2.53059e-09
1.77653e-09
1.78931e-09
3.63613e-08
2.91199e-06
2.17998e-06
9.12368e-07
7.57638e-06
0.000903516
0.000108923
9.83468e-05
7.26223e-05
5.04785e-05
3.36231e-05
2.10632e-05
1.1452e-05
3.48898e-06
3.92845e-06
6.99487e-05
1.07917e-06
5.2636e-07
1.52043e-06
1.62763e-06
1.21041e-06
5.04385e-07
4.21708e-07
1.60749e-06
3.03366e-06
0.000486125
0.000365989
0.000159584
7.49939e-05
3.30084e-05
1.31062e-05
3.20819e-06
3.11733e-06
1.05433e-05
1.64502e-05
3.8281e-08
9.00851e-08
5.7625e-08
4.0694e-08
2.99888e-08
2.53788e-08
2.39174e-08
2.14935e-08
2.22064e-08
2.43511e-08
5.89393e-05
3.53649e-05
2.04341e-05
1.31755e-05
8.93681e-06
6.15415e-06
4.02704e-06
2.0923e-06
2.73076e-07
1.63475e-06
2.92341e-05
3.71504e-05
3.07051e-05
2.28632e-05
1.65946e-05
1.1777e-05
7.92347e-06
4.42211e-06
1.15833e-06
2.40988e-06
7.09624e-09
4.89516e-09
5.08526e-09
4.49911e-09
4.4199e-09
4.29316e-09
4.21395e-09
3.91296e-09
3.64364e-09
3.2611e-09
0.000834373
0.000119403
6.16366e-05
7.95995e-05
6.31622e-05
4.36557e-05
2.73289e-05
1.33493e-05
1.13228e-06
1.09743e-05
5.93638e-09
4.03105e-09
1.85351e-09
1.49058e-09
1.50354e-09
1.73685e-09
1.49058e-09
1.80166e-09
1.23135e-09
1.64895e-09
6.97616e-09
4.39614e-10
1.12874e-09
1.03369e-09
9.98042e-10
1.08121e-09
9.8616e-10
2.60667e-07
2.4477e-07
2.14927e-06
0.00284503
6.11878e-05
4.93685e-05
3.12528e-05
1.77144e-05
8.53042e-06
2.13529e-06
2.8159e-06
7.41294e-06
1.235e-05
2.49967e-05
1.49418e-05
1.07889e-05
7.22879e-06
4.37987e-06
2.11305e-06
1.90185e-07
1.63675e-06
3.62199e-06
5.73109e-06
0.000552657
0.00046029
0.00017861
7.49662e-05
2.78723e-05
7.8067e-06
7.98756e-07
5.71138e-06
1.21519e-05
1.86063e-05
1.96782e-09
5.92807e-08
4.16191e-08
2.86408e-08
2.00916e-08
1.30888e-08
5.94243e-09
9.49906e-10
5.73257e-09
1.99493e-08
5.05933e-05
3.42691e-05
1.93654e-05
1.20492e-05
7.73425e-06
4.98651e-06
3.06069e-06
1.53311e-06
2.23509e-07
1.05484e-06
1.6542e-05
1.99959e-05
1.69649e-05
1.26781e-05
9.08435e-06
6.29897e-06
4.12344e-06
2.28597e-06
6.73809e-07
1.00259e-06
3.85653e-09
2.76872e-09
3.18108e-09
2.90126e-09
2.75399e-09
2.68035e-09
2.20908e-09
2.62145e-09
1.87036e-09
1.97769e-09
0.00106778
0.000215522
2.05505e-05
5.77095e-05
4.97714e-05
3.49489e-05
2.17405e-05
1.06757e-05
1.18812e-06
7.87561e-06
6.0594e-09
2.6991e-09
1.25315e-09
1.53029e-09
9.27815e-10
9.76013e-10
1.27725e-09
9.27815e-10
9.88063e-10
8.44459e-10
1.23763e-06
7.9231e-07
4.30771e-10
7.84224e-10
8.39452e-10
4.95542e-07
8.04813e-07
3.80747e-07
2.00541e-07
1.24698e-06
0.00239127
0.000684841
0.000487538
0.000332761
0.000231567
0.000158597
0.00010244
5.8454e-05
1.32325e-05
2.33502e-05
7.53017e-06
7.31436e-06
4.14088e-06
1.65521e-06
2.78474e-08
1.07728e-06
1.95726e-06
2.8114e-06
3.76161e-06
4.50829e-06
0.000286878
0.000372824
0.000125107
4.63059e-05
1.34237e-05
8.96969e-07
3.69389e-06
6.09902e-06
9.79562e-06
1.4542e-05
5.36763e-08
1.76921e-08
2.01565e-08
2.28981e-08
2.51058e-08
2.81349e-08
3.08765e-08
3.37721e-08
3.55999e-08
3.66263e-08
2.06659e-05
1.52869e-05
8.3819e-06
5.0599e-06
3.14374e-06
1.96273e-06
1.17362e-06
5.85904e-07
9.94021e-08
3.8516e-07
6.23274e-06
5.83758e-06
4.94913e-06
3.69566e-06
2.63051e-06
1.80255e-06
1.16529e-06
6.4913e-07
2.16064e-07
2.33165e-07
2.45394e-09
8.48839e-10
1.57446e-09
1.25957e-09
7.66693e-10
1.73875e-09
9.72057e-10
1.3554e-09
9.58366e-10
6.89738e-10
0.000713966
0.000178238
8.16904e-06
2.39409e-05
2.35967e-05
1.71076e-05
1.07189e-05
5.33467e-06
7.32571e-07
3.62975e-06
5.24904e-09
2.57639e-10
5.71286e-10
7.61714e-10
3.92059e-10
2.6884e-10
4.48067e-10
4.25664e-10
5.60084e-10
6.45213e-10
9.12312e-05
0.000129195
8.54064e-05
5.05435e-05
2.88954e-05
1.62737e-05
8.7122e-06
3.49992e-06
8.27474e-07
5.54186e-06
0.00272089
0.000680685
0.000506631
0.000380563
0.000284707
0.000209875
0.000150071
0.000101308
6.01016e-05
2.65263e-05
5.15241e-06
1.07973e-05
7.57919e-06
5.10712e-06
3.44117e-06
2.36024e-06
1.6464e-06
1.12632e-06
6.20794e-07
1.36441e-07
9.74151e-05
8.3947e-05
1.99349e-05
5.68427e-06
3.76394e-07
1.14895e-06
1.43377e-06
1.5241e-06
2.00207e-06
3.24266e-06
2.39581e-08
7.35018e-09
3.47463e-09
1.52731e-09
1.4414e-09
3.39827e-09
5.36468e-09
7.10199e-09
9.23068e-09
9.69842e-09
1.7087e-06
1.78856e-06
9.40229e-07
5.51501e-07
3.3165e-07
2.01196e-07
1.18525e-07
5.97287e-08
1.16676e-08
4.22356e-08
7.93205e-07
4.52523e-07
3.7002e-07
2.72167e-07
1.9088e-07
1.28394e-07
8.07995e-08
4.53754e-08
1.76977e-08
1.49485e-08
6.57325e-10
5.34559e-10
4.58193e-10
8.65476e-10
5.72741e-10
1.14548e-10
2.80007e-10
5.98197e-10
3.30917e-10
3.05462e-10
5.29851e-05
2.82564e-05
2.45364e-06
2.70892e-06
2.99457e-06
2.23231e-06
1.41194e-06
7.11288e-07
1.13071e-07
4.71045e-07
9.94531e-10
3.74885e-10
3.33231e-10
2.7075e-10
7.28944e-11
5.31087e-10
1.04135e-10
4.7902e-10
5.20674e-11
1.56202e-10
0.000264521
0.000160051
9.49267e-05
5.42217e-05
3.05262e-05
1.69731e-05
8.92746e-06
3.59732e-06
7.56601e-07
5.34292e-06
0.52606
0.418997
0.530187
0.919675
0.686154
0.623887
0.739224
1.1157
0.849588
0.791495
0.937849
1.44124
0.61665
0.593191
0.702759
1.09976
0.450503
0.449067
0.533224
0.863289
0.298415
0.294926
0.365825
0.622514
0.198638
0.189616
0.253269
0.455009
0.128207
0.118233
0.169408
0.315545
0.0885346
0.0808784
0.122103
0.230978
0.0666966
0.061565
0.0993557
0.188053
0.0358436
0.00179873
1.32886e-05
0.0190213
0.0785202
0.00652294
9.8979e-06
0.0409495
0.136618
0.0152028
5.38966e-06
0.0704203
0.124984
0.0170211
2.70167e-06
0.0603789
0.110289
0.0169904
1.41673e-06
0.0489185
0.0853365
0.0142368
7.28147e-07
0.0375745
0.0644173
0.0110626
3.64296e-07
0.0305243
0.0464398
0.00833724
1.9911e-07
0.0231947
0.0357247
0.00714224
0.00104054
0.0184316
0.0301011
0.00824458
0.00382103
0.0155012
0.017117
0.0134561
0.0141338
0.0196872
0.0387208
0.0266673
0.0261785
0.0408132
0.074946
0.0486886
0.0492576
0.07967
0.071053
0.0430733
0.0446864
0.0749956
0.065097
0.0370619
0.0395673
0.0699576
0.0519879
0.0280393
0.0306785
0.0566916
0.0404136
0.0206548
0.023233
0.045203
0.0299335
0.0145388
0.0166893
0.0336758
0.0234818
0.0104547
0.0123936
0.0259865
0.0200752
0.00850507
0.0105695
0.0215276
0.00192915
0.00139239
0.00134101
0.00195302
0.00609678
0.00417548
0.00386435
0.00631624
0.0162362
0.0110091
0.0104775
0.0165946
0.0190444
0.012555
0.0123946
0.0189697
0.0207151
0.0131692
0.0136027
0.0207296
0.0189496
0.0116301
0.0124463
0.0190386
0.0164221
0.00967204
0.0106894
0.0167374
0.0133859
0.0076039
0.00860504
0.0136688
0.0111886
0.00583602
0.00691428
0.0112359
0.00994034
0.0050817
0.0064815
0.0100755
0.000615239
0.000572514
0.00060228
0.00082003
0.00226871
0.00210466
0.00236602
0.00340871
0.00609292
0.00574254
0.00640336
0.0088924
0.00729316
0.00654801
0.00705847
0.00960004
0.00837968
0.00713434
0.00763224
0.0103483
0.00813588
0.00655908
0.00704048
0.00951439
0.00745546
0.0056825
0.00617901
0.00841258
0.0064867
0.00469295
0.00517426
0.00704973
0.00583505
0.00387388
0.00445886
0.00604618
0.00558701
0.0036906
0.00456163
0.00582657
0.000115927
0.000106401
0.000106233
0.000165608
0.000767591
0.000722261
0.000846339
0.00123527
0.00245467
0.00248873
0.00298631
0.00410897
0.00301948
0.00305294
0.00354279
0.00471754
0.00358397
0.00355014
0.0040379
0.00531281
0.00361438
0.00344899
0.00386838
0.00503558
0.00342469
0.00313023
0.00349268
0.00451896
0.00315362
0.00273741
0.00304619
0.00389818
0.00305447
0.00244027
0.0027935
0.0034706
0.00302855
0.00238181
0.00289286
0.00336868
1.29135e-05
1.09134e-05
6.27587e-06
2.51537e-05
0.000271864
0.000251903
0.000301291
0.000460176
0.0011736
0.00119808
0.00148043
0.00206848
0.00149197
0.00157102
0.00189606
0.00252749
0.0017991
0.00191345
0.00227572
0.00297671
0.00184289
0.00193171
0.0022604
0.00291522
0.00174882
0.00179569
0.00207857
0.00264658
0.00166975
0.00164266
0.00187394
0.00235158
0.00169589
0.00155562
0.00178888
0.00213894
0.00169418
0.00153251
0.00182973
0.00205677
1.09461e-05
3.89374e-06
3.7383e-06
3.82995e-06
7.58717e-05
6.34902e-05
7.56597e-05
0.000129512
0.000536411
0.000529154
0.000659815
0.000947271
0.000755388
0.000795534
0.000972286
0.00130433
0.000954787
0.00103526
0.00125501
0.00164671
0.00102085
0.00110784
0.00132605
0.00171299
0.00097138
0.0010544
0.00125079
0.00158567
0.000959501
0.00101063
0.00117665
0.00146877
0.00096185
0.000966127
0.00111382
0.00131132
0.000976102
0.000979342
0.00115425
0.00128491
9.2846e-06
3.19968e-06
3.03031e-06
3.09415e-06
1.22527e-05
6.29108e-06
6.11528e-06
2.02404e-05
0.000232827
0.000210141
0.000261919
0.000400923
0.000377005
0.000390953
0.000479457
0.000649298
0.000503538
0.000548176
0.000670064
0.000883534
0.000577632
0.000635103
0.000767692
0.000995746
0.000554178
0.00061883
0.000742757
0.000939241
0.000574623
0.000627539
0.00073872
0.000921629
0.000548127
0.000583955
0.000672905
0.000789276
0.000579495
0.000624112
0.000727938
0.000809886
6.06666e-06
2.08912e-06
2.00135e-06
2.05586e-06
2.17254e-06
8.27085e-07
7.89199e-07
8.59593e-07
8.77509e-05
6.0543e-05
7.3654e-05
0.000138312
0.000181588
0.000181943
0.000222612
0.000305822
0.000256241
0.000276703
0.000339755
0.000451793
0.000321534
0.000353883
0.00042988
0.000561568
0.00030723
0.000349138
0.00042154
0.000531426
0.000343637
0.000382275
0.000452677
0.000566684
0.000313639
0.000346261
0.000398787
0.000468312
0.000350031
0.000393688
0.00045569
0.000507908
5.12803e-06
1.54399e-06
1.41896e-06
1.38787e-06
1.83504e-06
6.65627e-07
6.57388e-07
7.20965e-07
2.2287e-05
2.55206e-07
2.45129e-07
2.17797e-05
8.32501e-05
7.85399e-05
9.51309e-05
0.000133347
0.000125204
0.000132415
0.000163084
0.00022009
0.000176902
0.000192996
0.000235225
0.000310967
0.000163254
0.000187858
0.000227764
0.000285683
0.00020463
0.000228857
0.00027222
0.000343521
0.000177289
0.000199553
0.000229797
0.000270377
0.000212093
0.000244328
0.000281758
0.000314344
4.13755e-06
1.30263e-06
1.3181e-06
1.46311e-06
1.13364e-06
3.63137e-07
3.44194e-07
3.78516e-07
5.14478e-07
1.9618e-07
1.93141e-07
2.2363e-07
3.48205e-05
2.94824e-05
3.47014e-05
4.9787e-05
5.73914e-05
5.83616e-05
7.20081e-05
9.96923e-05
9.62174e-05
0.00010314
0.000126007
0.000169594
8.11986e-05
9.47354e-05
0.000115279
0.000142943
0.000121874
0.000135527
0.000161904
0.000207162
9.56283e-05
0.000108661
0.000125096
0.0001472
0.000127268
0.000148347
0.000171174
0.000190677
6.37995e-06
1.60599e-06
1.35909e-06
1.16186e-06
1.07535e-06
3.8984e-07
3.89855e-07
4.59271e-07
3.88384e-07
1.32615e-07
1.29626e-07