/*--------------------------------*- C++ -*----------------------------------*\
| =========                 |                                                 |
| \\      /  F ield         | foam-extend: Open Source CFD                    |
|  \\    /   O peration     | Version:     4.0                                |
|   \\  /    A nd           | Web:         http://www.foam-extend.org         |
|    \\/     M anipulation  |                                                 |
\*---------------------------------------------------------------------------*/
FoamFile
{
    version     2.0;
    format      ascii;
    class       regIOobject;
    location    "4000/uniform";
    object      profilingInfo;
}
// * * * * * * * * * * * * * * * * * * * * * * * * * * * * * * * * * * * * * //

profilingInfo
(

    {
        id              24;
        parentId        16;
        description     "Foam::Time::writeObject - outputTime";
        calls           20;
        totalTime       7.5925;
        childTime       0;
        onStack         1;
    }

    {
        id              16;
        parentId        1;
        description     "Foam::Time::writeObject";
        calls           4000;
        totalTime       7.61506;
        childTime       7.5925;
        onStack         1;
    }

    {
        id              1;
        description     "application::main";
        calls           1;
        totalTime       1114.38;
        childTime       557.393;
        onStack         1;
    }

    {
        id              19;
        parentId        17;
        description     "FO::Mach::execute";
        calls           3999;
        totalTime       7.68161;
        childTime       0;
        onStack         0;
    }

    {
        id              18;
        parentId        17;
        description     "FO::flux::execute";
        calls           3999;
        totalTime       3.91656;
        childTime       0;
        onStack         0;
    }

    {
        id              21;
        parentId        17;
        description     "FO::minMaxP::execute";
        calls           3999;
        totalTime       0.620101;
        childTime       0;
        onStack         0;
    }

    {
        id              22;
        parentId        17;
        description     "FO::minMaxRho::execute";
        calls           3999;
        totalTime       0.587614;
        childTime       0;
        onStack         0;
    }

    {
        id              23;
        parentId        17;
        description     "FO::minMaxT::execute";
        calls           3999;
        totalTime       0.576112;
        childTime       0;
        onStack         0;
    }

    {
        id              20;
        parentId        17;
        description     "FO::minMaxU::execute";
        calls           3999;
        totalTime       1.89143;
        childTime       0;
        onStack         0;
    }

    {
        id              3;
        parentId        2;
        description     "functionObjectList::read";
        calls           1;
        totalTime       0.005587;
        childTime       0;
        onStack         0;
    }

    {
        id              17;
        parentId        1;
        description     "functionObjects_.execute()";
        calls           3999;
        totalTime       15.3565;
        childTime       15.2734;
        onStack         0;
    }

    {
        id              2;
        parentId        1;
        description     "functionObjects_.start()";
        calls           1;
        totalTime       0.005601;
        childTime       0.005587;
        onStack         0;
    }

    {
        id              4;
        parentId        1;
        description     "fvMatrix::solve_U";
        calls           4000;
        totalTime       55.5898;
        childTime       47.5696;
        onStack         0;
    }

    {
        id              12;
        parentId        1;
        description     "fvMatrix::solve_epsilon";
        calls           4000;
        totalTime       29.6965;
        childTime       18.3923;
        onStack         0;
    }

    {
        id              10;
        parentId        1;
        description     "fvMatrix::solve_i";
        calls           4000;
        totalTime       17.2422;
        childTime       15.6773;
        onStack         0;
    }

    {
        id              14;
        parentId        1;
        description     "fvMatrix::solve_k";
        calls           4000;
        totalTime       20.6447;
        childTime       19.1669;
        onStack         0;
    }

    {
        id              8;
        parentId        1;
        description     "fvMatrix::solve_p";
        calls           8000;
        totalTime       411.242;
        childTime       407.993;
        onStack         0;
    }

    {
        id              5;
        parentId        4;
        description     "lduMatrix::solver_Ux";
        calls           4000;
        totalTime       16.0477;
        childTime       0;
        onStack         0;
    }

    {
        id              6;
        parentId        4;
        description     "lduMatrix::solver_Uy";
        calls           4000;
        totalTime       15.7669;
        childTime       0;
        onStack         0;
    }

    {
        id              7;
        parentId        4;
        description     "lduMatrix::solver_Uz";
        calls           4000;
        totalTime       15.755;
        childTime       0;
        onStack         0;
    }

    {
        id              13;
        parentId        12;
        description     "lduMatrix::solver_epsilon";
        calls           4000;
        totalTime       18.3923;
        childTime       0;
        onStack         0;
    }

    {
        id              11;
        parentId        10;
        description     "lduMatrix::solver_i";
        calls           4000;
        totalTime       15.6773;
        childTime       0;
        onStack         0;
    }

    {
        id              15;
        parentId        14;
        description     "lduMatrix::solver_k";
        calls           4000;
        totalTime       19.1669;
        childTime       0;
        onStack         0;
    }

    {
        id              9;
        parentId        8;
        description     "lduMatrix::solver_p";
        calls           8000;
        totalTime       407.993;
        childTime       0;
        onStack         0;
    }
);


// ************************************************************************* //
