/*--------------------------------*- C++ -*----------------------------------*\
| =========                 |                                                 |
| \\      /  F ield         | foam-extend: Open Source CFD                    |
|  \\    /   O peration     | Version:     4.0                                |
|   \\  /    A nd           | Web:         http://www.foam-extend.org         |
|    \\/     M anipulation  |                                                 |
\*---------------------------------------------------------------------------*/
FoamFile
{
    version     2.0;
    format      ascii;
    class       volScalarField;
    location    "500";
    object      alphat;
}
// * * * * * * * * * * * * * * * * * * * * * * * * * * * * * * * * * * * * * //

dimensions      [1 -1 -1 0 0 0 0];

internalField   nonuniform List<scalar> 
34480
(
0.00191524
0.00191376
0.00191318
0.00191345
0.00191489
0.0019182
0.00192587
0.00194573
0.00198856
0.00206429
0.0161941
0.0153272
0.0149198
0.0144904
0.0125879
0.00776629
0.00326972
0.0014164
0.00111113
0.00161536
0.0445848
0.0427129
0.0408184
0.0369756
0.0275786
0.0137633
0.00493676
0.00190989
0.00137266
0.00196451
0.0485926
0.0463313
0.0442488
0.0397998
0.0286123
0.0133202
0.00462419
0.00183138
0.00139595
0.00210351
0.0475937
0.0452237
0.0434047
0.0392034
0.0277604
0.0124027
0.00423282
0.00171456
0.00139153
0.00220957
0.0456596
0.043314
0.0416314
0.0374938
0.0257423
0.0109055
0.00369515
0.00157062
0.00139317
0.00233921
0.0434414
0.0412941
0.0398208
0.03587
0.0242058
0.00991291
0.00334907
0.00147418
0.00140097
0.00245563
0.0360591
0.0344908
0.0334464
0.0304644
0.0206271
0.00820064
0.0027306
0.00126446
0.00132906
0.00247524
0.0123134
0.0120038
0.011895
0.0116033
0.00976325
0.00500166
0.00166521
0.000763216
0.000901714
0.0018992
0.00181165
0.00181033
0.00181075
0.00181284
0.00181668
0.0018221
0.00182944
0.00183984
0.0018553
0.00181214
0.00191267
0.00191082
0.00190999
0.00191011
0.00191139
0.00191422
0.00191967
0.00193016
0.00195028
0.00199503
0.0153721
0.0146916
0.0144157
0.0145176
0.0148614
0.0148454
0.0129776
0.00780356
0.00276395
0.00237325
0.0413561
0.0399533
0.0391644
0.0385078
0.0367563
0.0318612
0.0228607
0.0114738
0.00357937
0.00314305
0.0453162
0.0435615
0.0427019
0.0420423
0.0400501
0.0343097
0.0240059
0.0115067
0.00351869
0.00344707
0.0448336
0.0429218
0.0421971
0.0418105
0.0402132
0.0347022
0.0241923
0.0112174
0.00339158
0.00369533
0.0434176
0.0414694
0.0407931
0.0405637
0.0392514
0.0340292
0.0236508
0.0106853
0.00328659
0.00403423
0.0416928
0.039861
0.0392824
0.0391443
0.0380875
0.0332688
0.0232413
0.0103447
0.00323874
0.00437304
0.0349974
0.0336257
0.0331868
0.0331752
0.0326392
0.0292442
0.0209304
0.00923523
0.00297746
0.00448668
0.0122876
0.0119867
0.0119206
0.0119864
0.0121514
0.0120942
0.0106925
0.00544575
0.00179271
0.00305725
0.0018092
0.00180584
0.00180432
0.00180446
0.00180633
0.00180969
0.00181495
0.00182339
0.00184549
0.00188833
0.00190642
0.00190493
0.0019043
0.00190448
0.00190563
0.00190792
0.00191192
0.00191892
0.00192986
0.0019453
0.0145179
0.0140695
0.0138665
0.0139514
0.0143479
0.0149908
0.0155151
0.0147413
0.0106513
0.00637874
0.0379515
0.0368529
0.0364126
0.0364999
0.0368291
0.0364405
0.0334782
0.0258254
0.0138813
0.00763214
0.0417439
0.0403703
0.039887
0.0400864
0.040604
0.040242
0.0365747
0.0268427
0.0128496
0.00756321
0.0416943
0.0402076
0.0398002
0.0401611
0.0410139
0.0411395
0.0376353
0.0266353
0.0115129
0.00740852
0.04076
0.0392329
0.03883
0.0392738
0.0403625
0.0409869
0.0378673
0.0258591
0.0102581
0.00744023
0.0395218
0.0380621
0.0377109
0.0381637
0.0393598
0.0403708
0.0377898
0.0250589
0.0092768
0.007548
0.0336204
0.0325207
0.0322291
0.0325783
0.0335842
0.0348405
0.0336168
0.0222177
0.00790202
0.00734818
0.0122048
0.0119508
0.0118998
0.0119695
0.0121996
0.0125601
0.0127924
0.0106353
0.00446806
0.00474206
0.00180356
0.00179995
0.00179819
0.00179813
0.0017999
0.00180348
0.00180947
0.00181976
0.00184419
0.00189385
0.00189712
0.00189618
0.00189578
0.00189596
0.00189678
0.00189829
0.00190069
0.00190466
0.00191038
0.00191645
0.0138965
0.0136369
0.0134948
0.0135339
0.0137804
0.014231
0.014894
0.0156571
0.015591
0.0137801
0.0348221
0.0340365
0.0337488
0.0339056
0.0345169
0.0353364
0.0355336
0.0334042
0.0266494
0.018286
0.0383876
0.0373857
0.0370577
0.0373261
0.0381845
0.0392974
0.0394101
0.0360236
0.0264003
0.0172809
0.0387019
0.0376225
0.0373447
0.0377153
0.0387915
0.0402626
0.0406364
0.0365395
0.0248326
0.0161288
0.0382084
0.0370805
0.0367892
0.0372139
0.0384406
0.0402693
0.0410574
0.036426
0.0229977
0.015406
0.0374187
0.036313
0.0360525
0.0364757
0.0377471
0.0397808
0.0409651
0.0359276
0.0211624
0.0148714
0.0323163
0.0314704
0.0312449
0.0315583
0.0325296
0.0342824
0.0358277
0.0318713
0.0181335
0.0138425
0.0121598
0.011948
0.0119073
0.0119622
0.0121436
0.0124537
0.0127399
0.0128266
0.00946536
0.00850397
0.00179617
0.00179258
0.00179083
0.00179078
0.00179262
0.00179647
0.00180299
0.00181417
0.00183822
0.00188261
0.00188547
0.00188499
0.00188479
0.00188492
0.00188543
0.00188626
0.00188759
0.00188978
0.00189286
0.00189542
0.0135383
0.0134114
0.0133182
0.0133283
0.0134575
0.0136976
0.0141212
0.0147721
0.0154124
0.0156581
0.0322734
0.0317865
0.0315981
0.0316824
0.0321089
0.0328926
0.033905
0.0345036
0.033123
0.0288656
0.0355406
0.0348804
0.0346496
0.034818
0.0354545
0.0365775
0.0379058
0.0383088
0.035232
0.0284749
0.0360962
0.0353731
0.0351768
0.035419
0.0362074
0.0375786
0.0391785
0.0394537
0.0349024
0.0268452
0.0359488
0.0351637
0.0349442
0.0352335
0.036139
0.0377678
0.0397375
0.0400239
0.0340566
0.0255983
0.0355227
0.0347225
0.0345205
0.0348172
0.0357679
0.0375271
0.039751
0.0400057
0.0327071
0.0244553
0.0311569
0.0305275
0.0303482
0.0305741
0.0312931
0.0327014
0.0346922
0.0353378
0.0286793
0.0223005
0.0121599
0.0119838
0.0119513
0.0119905
0.0121214
0.0123439
0.0124816
0.0129138
0.0126666
0.0123421
0.00178723
0.00178376
0.00178206
0.00178205
0.00178391
0.00178786
0.00179447
0.00180543
0.0018264
0.00186087
0.00187185
0.00187173
0.00187168
0.00187177
0.00187203
0.00187242
0.00187311
0.00187436
0.00187626
0.0018776
0.0134065
0.0133623
0.0133077
0.0133042
0.0133617
0.0134961
0.0137626
0.0141896
0.01465
0.0149258
0.0304532
0.0301884
0.0300726
0.030097
0.0303223
0.0308052
0.0316122
0.0326138
0.0331985
0.0328399
0.0333527
0.0329589
0.0328031
0.0328817
0.0332537
0.0339997
0.0351951
0.0366146
0.0370494
0.0354
0.0339931
0.0335497
0.0334189
0.0335512
0.0340317
0.0349508
0.03639
0.0380436
0.0380828
0.0350474
0.0340636
0.0335521
0.033394
0.0335678
0.0341483
0.03527
0.0370336
0.0390246
0.0386198
0.0344365
0.0338912
0.033343
0.0331929
0.0333805
0.0340157
0.0352519
0.0372095
0.0393813
0.0383773
0.0333873
0.0301646
0.0297171
0.0295805
0.029732
0.030222
0.0311958
0.0327717
0.0347695
0.0340169
0.0301149
0.0122085
0.0120635
0.0120391
0.0120657
0.0121557
0.012294
0.0123027
0.0125416
0.0129749
0.0138921
0.00177659
0.00177332
0.00177172
0.00177175
0.00177358
0.0017774
0.00178373
0.00179378
0.00181087
0.00183583
0.00185661
0.00185666
0.00185672
0.00185677
0.00185688
0.00185704
0.0018574
0.00185818
0.00185954
0.00186048
0.013459
0.0134479
0.0134181
0.0134093
0.0134394
0.0135295
0.0137195
0.0140313
0.0143665
0.014534
0.029311
0.0291755
0.0291083
0.0291045
0.0292097
0.0294749
0.0299698
0.0306685
0.0312826
0.0316049
0.0318243
0.0316046
0.031503
0.0315295
0.0317226
0.0321427
0.0328983
0.0340206
0.0350389
0.0354394
0.032422
0.0321715
0.0320896
0.0321523
0.0324158
0.032941
0.0338558
0.0352561
0.0365068
0.0367392
0.0325918
0.0322787
0.03217
0.0322651
0.0326082
0.0332863
0.034452
0.0362541
0.0377775
0.0377471
0.0325688
0.0322124
0.0321059
0.0322152
0.0326122
0.0333923
0.0347174
0.0367702
0.0383283
0.0378263
0.0293704
0.0290667
0.0289669
0.0290624
0.0293776
0.0299951
0.0310099
0.0327206
0.0341749
0.0340671
0.0123144
0.0121951
0.0121784
0.0121952
0.0122531
0.0123225
0.0122455
0.0122829
0.0125151
0.0132918
0.00176406
0.00176108
0.00175962
0.00175968
0.00176141
0.00176497
0.00177071
0.00177944
0.00179281
0.00181036
0.00183987
0.00184001
0.0018401
0.00184013
0.00184017
0.00184022
0.00184041
0.00184095
0.00184203
0.00184281
0.0136434
0.0136516
0.0136331
0.0136256
0.0136463
0.0137148
0.0138664
0.0141226
0.0144035
0.0145353
0.0286772
0.0286101
0.0285705
0.0285595
0.028611
0.0287644
0.0290758
0.0295341
0.0299447
0.0301559
0.0308394
0.0307207
0.0306558
0.0306592
0.0307559
0.0309848
0.0314257
0.0321289
0.0328524
0.0332651
0.0313272
0.0311964
0.0311483
0.0311738
0.03131
0.0315895
0.0320988
0.0329536
0.0339292
0.0345655
0.0315128
0.0313321
0.0312605
0.0313084
0.0315014
0.0318847
0.0325568
0.0336966
0.0350621
0.0360735
0.0315583
0.031338
0.0312656
0.0313244
0.031562
0.0320254
0.0328139
0.0341569
0.0357618
0.0369517
0.0287833
0.0285869
0.0285173
0.028574
0.0287666
0.0291327
0.0297115
0.0307751
0.0321858
0.033496
0.0124838
0.012385
0.0123755
0.0123852
0.0124187
0.0124359
0.0123102
0.0122286
0.0122479
0.0125771
0.00174953
0.00174689
0.0017456
0.00174569
0.00174726
0.00175043
0.0017554
0.00176265
0.00177279
0.00178493
0.00182163
0.0018218
0.0018219
0.00182192
0.00182193
0.00182193
0.00182204
0.00182245
0.00182337
0.00182408
0.0139236
0.0139451
0.0139351
0.01393
0.0139463
0.0140025
0.0141312
0.0143551
0.014609
0.0147294
0.0283785
0.0283468
0.0283244
0.0283149
0.0283442
0.0284452
0.028665
0.0290017
0.0293097
0.0294558
0.030248
0.0301846
0.0301433
0.0301392
0.0301895
0.0303208
0.030591
0.0310434
0.0315265
0.0317716
0.0306121
0.0305495
0.0305226
0.0305311
0.0306003
0.0307481
0.0310283
0.0315212
0.0321257
0.0325118
0.0307693
0.0306709
0.0306253
0.0306475
0.0307535
0.0309652
0.0313368
0.0319804
0.0328312
0.0335374
0.030832
0.0307021
0.0306544
0.0306836
0.0308222
0.03109
0.0315364
0.0323008
0.0333282
0.034282
0.0283949
0.0282741
0.0282278
0.0282594
0.0283711
0.0285743
0.0288777
0.0294486
0.0303183
0.031339
0.0127222
0.0126391
0.0126363
0.0126411
0.0126562
0.0126344
0.0124888
0.0123549
0.0122614
0.0123669
0.00173289
0.00173063
0.00172952
0.00172962
0.00173099
0.0017337
0.00173783
0.00174362
0.00175109
0.00175935
0.00180182
0.00180199
0.00180209
0.00180211
0.00180211
0.00180209
0.00180216
0.00180249
0.00180327
0.00180395
0.014281
0.0143129
0.01431
0.0143074
0.0143211
0.0143688
0.0144807
0.0146814
0.0149176
0.0150339
0.0282842
0.0282716
0.0282603
0.0282545
0.0282749
0.0283494
0.0285196
0.0287928
0.0290584
0.0291913
0.0299163
0.0298826
0.0298565
0.0298515
0.0298801
0.0299621
0.0301417
0.0304597
0.0308218
0.0310086
0.0301732
0.0301465
0.0301321
0.030134
0.0301703
0.030252
0.0304142
0.0307138
0.0311067
0.0313581
0.0302882
0.0302374
0.0302089
0.0302185
0.0302769
0.0303949
0.0306025
0.0309656
0.0314733
0.0318982
0.0303431
0.0302692
0.0302383
0.0302518
0.0303324
0.030487
0.0307394
0.0311618
0.0317511
0.0323013
0.0281826
0.0281121
0.028083
0.0280994
0.0281605
0.028264
0.0284117
0.0286959
0.0291624
0.02975
0.0130339
0.0129624
0.0129665
0.0129679
0.012969
0.0129175
0.0127744
0.0126293
0.0124916
0.0125251
0.00171405
0.00171219
0.00171128
0.00171137
0.00171252
0.00171473
0.00171804
0.00172249
0.00172786
0.0017334
0.00178033
0.0017805
0.00178059
0.0017806
0.00178059
0.00178057
0.00178062
0.00178089
0.00178156
0.0017822
0.0147104
0.0147511
0.0147543
0.0147539
0.0147659
0.0148065
0.0149042
0.0150849
0.0153065
0.0154216
0.0283089
0.0283075
0.0283035
0.0283012
0.0283173
0.0283757
0.0285136
0.0287462
0.0289914
0.0291281
0.0297438
0.029726
0.0297098
0.0297059
0.0297239
0.0297787
0.0299055
0.030144
0.0304415
0.0306221
0.0299202
0.0299109
0.0299033
0.0299033
0.0299239
0.0299726
0.030073
0.0302686
0.0305486
0.0307577
0.0299963
0.0299713
0.0299536
0.0299575
0.0299906
0.0300585
0.0301785
0.0303913
0.0307089
0.0310028
0.0300366
0.0299953
0.0299752
0.0299811
0.0300291
0.0301206
0.0302671
0.0305056
0.0308452
0.0311769
0.0281153
0.0280764
0.0280596
0.0280675
0.0280982
0.0281436
0.0282109
0.0283454
0.0285846
0.0289324
0.013424
0.0133609
0.0133719
0.0133711
0.013361
0.0132923
0.0131639
0.0130298
0.0128857
0.0129117
0.00169298
0.0016915
0.00169077
0.00169086
0.00169178
0.00169351
0.00169607
0.00169938
0.00170315
0.0017068
0.00175704
0.0017572
0.00175727
0.00175728
0.00175727
0.00175725
0.00175729
0.0017575
0.00175806
0.00175866
0.0152154
0.0152641
0.0152726
0.0152742
0.0152846
0.015319
0.0154034
0.0155648
0.0157724
0.0158884
0.0284016
0.0284069
0.0284076
0.0284079
0.0284212
0.0284677
0.0285803
0.0287809
0.0290124
0.0291593
0.0296625
0.0296532
0.0296432
0.0296407
0.0296527
0.0296907
0.0297823
0.0299658
0.0302201
0.0304102
0.0297837
0.0297816
0.0297773
0.029777
0.02979
0.0298214
0.0298873
0.0300212
0.0302323
0.0304292
0.0298307
0.0298186
0.0298074
0.0298089
0.0298287
0.0298696
0.0299417
0.0300714
0.0302802
0.0305114
0.0298595
0.0298359
0.0298226
0.0298252
0.0298551
0.0299118
0.0300006
0.0301406
0.0303428
0.0305646
0.0281601
0.0281394
0.0281311
0.0281345
0.0281475
0.0281637
0.0281915
0.0282523
0.0283729
0.0286027
0.0138988
0.013842
0.0138606
0.0138581
0.0138383
0.0137672
0.0136587
0.0135458
0.0134135
0.0134564
0.00166964
0.0016685
0.00166795
0.00166802
0.00166872
0.00167004
0.00167195
0.00167433
0.00167692
0.0016793
0.00173182
0.00173197
0.00173203
0.00173203
0.00173202
0.00173201
0.00173203
0.00173219
0.00173264
0.00173319
0.0158071
0.0158633
0.0158764
0.0158797
0.0158887
0.0159171
0.0159885
0.0161301
0.0163224
0.0164408
0.0285327
0.028542
0.0285454
0.0285473
0.0285582
0.0285947
0.0286853
0.0288565
0.0290749
0.0292359
0.0296294
0.0296246
0.0296185
0.0296169
0.029625
0.0296513
0.029717
0.0298576
0.0300753
0.0302769
0.0297146
0.0297145
0.0297117
0.0297116
0.0297205
0.0297419
0.0297864
0.0298796
0.0300411
0.0302301
0.0297426
0.0297363
0.029729
0.0297296
0.029742
0.0297678
0.0298125
0.0298935
0.0300344
0.0302264
0.0297666
0.0297519
0.0297427
0.0297442
0.0297637
0.0298009
0.0298574
0.0299429
0.0300666
0.0302247
0.0282877
0.0282737
0.0282711
0.0282724
0.0282753
0.0282805
0.0282906
0.0283168
0.028377
0.0285448
0.0144759
0.014417
0.0144438
0.0144401
0.0144111
0.0143536
0.0142668
0.0141776
0.0140643
0.0141311
0.00164402
0.00164317
0.00164276
0.00164281
0.00164333
0.0016443
0.00164568
0.00164734
0.00164908
0.00165062
0.00170454
0.00170468
0.00170473
0.00170473
0.00170472
0.00170471
0.00170472
0.00170484
0.00170518
0.00170566
0.0165033
0.0165669
0.0165839
0.0165885
0.016596
0.0166186
0.016677
0.0167977
0.0169721
0.0170928
0.0286853
0.0286966
0.0287012
0.0287037
0.0287123
0.02874
0.0288106
0.0289526
0.0291546
0.0293318
0.0296191
0.0296163
0.0296125
0.0296115
0.0296168
0.0296344
0.0296801
0.0297847
0.0299666
0.030175
0.0296808
0.0296805
0.0296782
0.0296782
0.0296846
0.0296995
0.0297296
0.0297936
0.0299151
0.0300913
0.0296976
0.0296935
0.0296885
0.0296887
0.0296968
0.0297135
0.0297418
0.0297927
0.0298878
0.0300473
0.0297228
0.0297122
0.0297056
0.0297067
0.0297202
0.0297457
0.029783
0.0298369
0.0299138
0.0300286
0.0284703
0.0284573
0.0284564
0.0284567
0.0284575
0.0284591
0.0284623
0.0284733
0.028503
0.0286339
0.0151823
0.0151141
0.0151387
0.0151341
0.0151121
0.0150692
0.0150034
0.0149368
0.0148433
0.0149337
0.00161611
0.00161549
0.0016152
0.00161523
0.0016156
0.00161629
0.00161726
0.00161838
0.00161952
0.00162051
0.0016751
0.00167523
0.00167527
0.00167526
0.00167526
0.00167524
0.00167525
0.00167533
0.00167557
0.00167597
0.0173301
0.017401
0.0174211
0.0174266
0.0174325
0.0174496
0.017495
0.0175934
0.017746
0.0178665
0.028849
0.0288605
0.0288652
0.0288677
0.0288742
0.0288941
0.0289463
0.0290587
0.0292384
0.02943
0.0296167
0.0296147
0.0296123
0.0296115
0.0296147
0.0296258
0.029656
0.0297299
0.0298749
0.0300798
0.0296626
0.0296614
0.0296591
0.0296591
0.0296636
0.0296739
0.029694
0.0297364
0.0298239
0.0299794
0.029673
0.0296696
0.0296659
0.0296659
0.0296713
0.0296823
0.0297002
0.0297319
0.0297946
0.0299231
0.0297029
0.0296945
0.0296895
0.0296904
0.0297
0.0297178
0.029743
0.0297777
0.0298256
0.0299082
0.0286845
0.0286714
0.0286709
0.0286712
0.0286717
0.0286727
0.028674
0.0286789
0.0286933
0.0287988
0.0160456
0.0159692
0.0159877
0.0159851
0.0159704
0.0159412
0.0158945
0.0158471
0.0157718
0.0158822
0.00158591
0.00158548
0.00158527
0.00158529
0.00158555
0.00158602
0.00158667
0.00158741
0.00158814
0.00158877
0.00164348
0.00164356
0.00164358
0.00164358
0.00164357
0.00164356
0.00164356
0.00164361
0.00164377
0.00164406
0.0183249
0.018403
0.0184254
0.0184313
0.0184357
0.0184476
0.0184804
0.0185553
0.018681
0.0187944
0.0290158
0.0290261
0.0290302
0.0290323
0.0290367
0.02905
0.029086
0.0291687
0.0293189
0.0295163
0.0296139
0.0296121
0.0296104
0.0296097
0.0296114
0.0296178
0.0296362
0.0296846
0.0297919
0.0299788
0.0296481
0.0296461
0.0296439
0.0296438
0.0296469
0.0296537
0.0296665
0.029693
0.029752
0.0298791
0.0296548
0.0296517
0.0296489
0.0296488
0.0296523
0.0296595
0.0296707
0.0296898
0.0297294
0.0298276
0.0296901
0.0296831
0.0296793
0.02968
0.0296868
0.0296991
0.0297161
0.0297384
0.0297682
0.0298268
0.0289105
0.0288978
0.0288973
0.0288977
0.0288985
0.0288999
0.0289011
0.028904
0.0289108
0.0289961
0.0171064
0.0170234
0.0170353
0.0170345
0.0170265
0.0170097
0.0169799
0.0169479
0.0168887
0.0170137
0.00155345
0.00155315
0.00155301
0.00155303
0.0015532
0.0015535
0.00155393
0.00155439
0.00155485
0.00155526
0.00160966
0.00160972
0.00160974
0.00160973
0.00160973
0.00160972
0.00160972
0.00160974
0.00160983
0.00161002
0.019543
0.0196281
0.0196516
0.0196574
0.0196604
0.0196676
0.0196887
0.01974
0.0198332
0.0199268
0.0291776
0.0291859
0.029189
0.0291905
0.0291932
0.0292013
0.0292234
0.0292783
0.029392
0.0295784
0.029606
0.0296041
0.0296028
0.0296023
0.029603
0.0296063
0.0296161
0.0296443
0.0297155
0.0298683
0.0296306
0.0296283
0.0296265
0.0296263
0.0296282
0.0296324
0.0296399
0.0296551
0.0296912
0.0297851
0.029635
0.0296323
0.0296303
0.0296301
0.0296323
0.0296367
0.0296435
0.0296544
0.0296778
0.0297473
0.0296732
0.0296675
0.0296646
0.0296652
0.0296697
0.0296778
0.0296888
0.0297027
0.0297212
0.0297625
0.0291295
0.0291181
0.0291177
0.0291182
0.0291193
0.0291212
0.0291228
0.0291251
0.0291281
0.0291944
0.0184239
0.0183364
0.0183409
0.0183414
0.0183396
0.0183342
0.0183193
0.0182995
0.0182559
0.0183883
0.00151881
0.00151862
0.00151853
0.00151854
0.00151865
0.00151884
0.0015191
0.00151938
0.00151966
0.00151992
0.00157395
0.00157399
0.001574
0.001574
0.00157399
0.00157398
0.00157398
0.00157398
0.00157401
0.00157411
0.021069
0.0211603
0.0211833
0.0211884
0.02119
0.0211934
0.0212045
0.0212337
0.0212904
0.0213446
0.0293241
0.0293302
0.0293322
0.0293331
0.0293346
0.0293388
0.0293505
0.0293814
0.0294549
0.0296067
0.0295901
0.0295884
0.0295875
0.0295872
0.0295874
0.0295886
0.0295929
0.0296066
0.0296467
0.029753
0.0296068
0.0296048
0.0296035
0.0296033
0.0296044
0.0296067
0.0296106
0.0296181
0.0296373
0.0296974
0.0296095
0.0296075
0.0296063
0.0296062
0.0296074
0.0296099
0.0296135
0.0296191
0.0296315
0.0296757
0.0296446
0.0296404
0.0296384
0.0296388
0.0296416
0.0296464
0.0296528
0.0296608
0.0296719
0.0297009
0.0293206
0.0293117
0.0293114
0.0293119
0.0293131
0.0293149
0.0293166
0.0293185
0.0293195
0.0293659
0.0200853
0.0199956
0.0199909
0.0199919
0.0199957
0.0200017
0.0200007
0.0199916
0.0199668
0.0200966
0.00148222
0.0014821
0.00148204
0.00148205
0.00148211
0.00148223
0.00148239
0.00148255
0.00148273
0.00148287
0.00153652
0.00153663
0.00153664
0.00153663
0.00153663
0.00153663
0.00153662
0.00153662
0.00153663
0.00153667
0.0230403
0.023134
0.0231543
0.0231583
0.0231591
0.0231599
0.0231635
0.0231744
0.0231949
0.0231895
0.0294416
0.0294454
0.0294466
0.0294471
0.0294478
0.0294495
0.0294544
0.0294678
0.029504
0.0295988
0.0295656
0.0295643
0.0295639
0.0295639
0.0295639
0.0295642
0.0295655
0.0295703
0.0295874
0.029645
0.0295763
0.029575
0.0295744
0.0295744
0.029575
0.029576
0.0295776
0.0295805
0.0295885
0.0296196
0.0295777
0.0295767
0.0295762
0.0295763
0.029577
0.0295781
0.0295797
0.0295819
0.0295871
0.0296107
0.0296015
0.0295989
0.0295979
0.0295982
0.0295997
0.0296022
0.0296053
0.029609
0.0296148
0.0296342
0.0294598
0.029454
0.029454
0.0294544
0.0294553
0.0294565
0.0294576
0.0294588
0.0294587
0.0294846
0.0222132
0.0221303
0.0221266
0.0221274
0.0221302
0.0221347
0.0221397
0.0221441
0.0221482
0.0222619
0.0014438
0.00144373
0.0014437
0.00144371
0.00144375
0.00144382
0.00144391
0.00144401
0.00144412
0.0014442
0.00149694
0.00149691
0.0014969
0.0014969
0.0014969
0.0014969
0.00149691
0.00149692
0.00149695
0.00149698
0.0257041
0.0257854
0.0257994
0.0258021
0.0258025
0.0258022
0.0258017
0.0258016
0.0257968
0.0257356
0.029515
0.0295166
0.0295169
0.029517
0.0295173
0.029518
0.0295195
0.0295233
0.0295337
0.0295673
0.0295343
0.0295337
0.0295339
0.0295341
0.0295343
0.0295344
0.0295346
0.0295354
0.0295397
0.0295596
0.0295414
0.0295411
0.029541
0.0295412
0.0295416
0.0295421
0.0295427
0.0295434
0.0295454
0.029556
0.0295419
0.0295418
0.0295419
0.0295421
0.0295426
0.0295431
0.0295437
0.0295443
0.0295455
0.0295541
0.0295506
0.0295496
0.0295494
0.0295496
0.0295505
0.0295517
0.029553
0.0295544
0.0295565
0.0295662
0.0295301
0.0295275
0.0295276
0.0295279
0.0295282
0.0295285
0.0295287
0.0295289
0.0295288
0.0295378
0.0251516
0.0250892
0.025087
0.0250876
0.0250894
0.0250922
0.0250954
0.025098
0.0251003
0.0251875
0.00140285
0.0014028
0.00140278
0.00140278
0.00140282
0.00140288
0.00140295
0.00140302
0.00140309
0.00140314
0.00237505
0.00239419
0.00238256
0.00234811
0.00146042
0.00147768
0.00147111
0.00146366
0.00192297
0.00195713
0.00194275
0.00191379
0.00228916
0.00233768
0.00231229
0.00226023
0.00262104
0.00268106
0.00264566
0.00257707
0.00294925
0.00301999
0.00298112
0.00290595
0.00321721
0.00329673
0.00325806
0.00318256
0.00337462
0.00346201
0.00342799
0.00335691
0.00300904
0.00309209
0.00306128
0.00300339
0.00235862
0.00237533
0.00234466
0.0022676
0.00205944
0.00206418
0.00206437
0.00206046
0.00263281
0.00269367
0.00257224
0.00235293
0.00358869
0.0036772
0.00351859
0.00324764
0.00430205
0.00444107
0.00425139
0.00391879
0.00506688
0.00526917
0.005039
0.0046216
0.00604601
0.00633092
0.00605048
0.00551874
0.0069983
0.00736134
0.00702105
0.00637601
0.00768428
0.00812207
0.00772827
0.00698717
0.00608097
0.00646086
0.006076
0.00543896
0.00217672
0.00220833
0.00220156
0.00216661
0.00195863
0.0019601
0.00195973
0.00195809
0.0045132
0.00446175
0.00443129
0.004492
0.00538373
0.00532835
0.00529782
0.00537273
0.00576355
0.00574992
0.00571844
0.00574401
0.00620722
0.00623003
0.0061703
0.00609601
0.00693238
0.00699507
0.00687579
0.00665655
0.00768961
0.00777117
0.00756992
0.00719345
0.00825954
0.00836774
0.00808798
0.00755674
0.00633
0.00641947
0.00615663
0.00565456
0.00204693
0.00206351
0.00206128
0.00204393
0.00191778
0.00191748
0.00191724
0.00191712
0.0111028
0.0107744
0.0108633
0.0113476
0.0127869
0.0123787
0.0126251
0.0135073
0.0119648
0.0117309
0.0120595
0.0129629
0.0113999
0.0113025
0.0116505
0.012496
0.011412
0.011425
0.011753
0.0125009
0.0115659
0.011637
0.0119075
0.0125211
0.0115522
0.0116922
0.0118891
0.0123087
0.00821236
0.00836546
0.00841805
0.00849236
0.00195997
0.00197008
0.00197094
0.00196342
0.00189494
0.00189451
0.00189423
0.00189413
0.0156569
0.0155654
0.0155443
0.0155933
0.0253572
0.024981
0.0251013
0.0256567
0.0233332
0.0229885
0.0232916
0.0241853
0.0210515
0.0208414
0.0212943
0.0224059
0.0197526
0.019711
0.0202703
0.0215088
0.0188075
0.0188781
0.0194663
0.0207385
0.0176157
0.0178231
0.0183711
0.0194952
0.0110819
0.0113148
0.0115282
0.0118921
0.00190061
0.00190692
0.0019084
0.00190534
0.00187662
0.00187614
0.00187585
0.00187576
0.0152322
0.0151404
0.0150858
0.0150762
0.032232
0.0320939
0.0320498
0.0320985
0.0333143
0.0330344
0.0330585
0.0333578
0.0315068
0.0311877
0.0313687
0.0319948
0.0297883
0.0295615
0.0299473
0.0308943
0.0280047
0.0278875
0.0284281
0.0296159
0.0252596
0.02535
0.0259454
0.027103
0.0134152
0.0136538
0.0138227
0.0139891
0.00185606
0.00185989
0.00186125
0.00186018
0.00185944
0.00185896
0.00185868
0.00185862
0.0148184
0.0147177
0.0146633
0.0146604
0.0317743
0.0317587
0.0317115
0.0316405
0.0353685
0.0353362
0.0352989
0.0352659
0.0361636
0.0360795
0.0360841
0.0361803
0.036418
0.0363123
0.0364226
0.0367324
0.0355589
0.0354472
0.0356851
0.0362364
0.0318163
0.0318752
0.0322128
0.0328035
0.0136202
0.0138915
0.0139381
0.0138163
0.00182064
0.00182298
0.00182401
0.00182373
0.00184186
0.00184139
0.00184113
0.0018411
0.0148146
0.014711
0.014659
0.0146626
0.0303219
0.0303086
0.0302642
0.0301944
0.0333985
0.0333982
0.0333558
0.0332815
0.0347253
0.0347352
0.034712
0.0346712
0.0363016
0.0363466
0.0363679
0.0363832
0.0369981
0.037048
0.0371121
0.0372044
0.0335247
0.0336919
0.0338137
0.0339017
0.0127045
0.0129645
0.0129941
0.0128389
0.00179028
0.00179177
0.00179248
0.00179244
0.00182326
0.00182283
0.00182259
0.00182258
0.0150137
0.0149086
0.0148582
0.0148666
0.0295991
0.0295865
0.0295481
0.0294883
0.0318357
0.0318249
0.0317829
0.0317183
0.0325964
0.0325905
0.0325601
0.0325179
0.033788
0.0338224
0.0338218
0.0338018
0.0346262
0.0346919
0.0347139
0.0347104
0.0317382
0.0319157
0.0319757
0.0319373
0.0122409
0.0124804
0.0125197
0.0123832
0.00176225
0.00176325
0.00176372
0.0017637
0.00180333
0.00180293
0.00180272
0.00180274
0.0153257
0.0152184
0.0151689
0.0151814
0.0293261
0.0293157
0.0292824
0.0292306
0.0310469
0.0310345
0.0309977
0.0309447
0.0313896
0.0313766
0.0313483
0.0313156
0.0320259
0.0320363
0.0320276
0.0320117
0.0324856
0.0325161
0.0325218
0.032515
0.029966
0.0300963
0.0301354
0.0300936
0.0122874
0.0125262
0.0125699
0.0124342
0.00173501
0.00173573
0.00173604
0.00173598
0.00178181
0.00178147
0.00178129
0.00178132
0.0157232
0.0156132
0.0155641
0.0155808
0.0292552
0.0292457
0.0292159
0.0291705
0.0306596
0.0306498
0.030619
0.0305757
0.0307931
0.0307846
0.0307624
0.0307363
0.0311002
0.0311076
0.0310994
0.0310854
0.0312938
0.0313125
0.031313
0.031304
0.0290455
0.0291489
0.0291775
0.0291367
0.0126273
0.0128781
0.0129245
0.0127804
0.00170771
0.00170827
0.00170847
0.00170838
0.00175853
0.00175825
0.0017581
0.00175813
0.0162027
0.0160899
0.0160412
0.0160624
0.0292778
0.0292682
0.0292408
0.0292015
0.0304571
0.0304512
0.0304261
0.0303909
0.0304887
0.0304884
0.0304726
0.0304503
0.0306199
0.0306331
0.0306282
0.0306133
0.0306753
0.0306955
0.030696
0.0306829
0.0286867
0.0287795
0.0288031
0.0287608
0.0131446
0.0134127
0.013462
0.0133069
0.00167981
0.00168026
0.0016804
0.00168028
0.00173332
0.0017331
0.00173299
0.00173302
0.0167724
0.0166566
0.0166086
0.0166351
0.0293475
0.029338
0.029313
0.0292798
0.030341
0.0303404
0.030321
0.0302924
0.0303191
0.030328
0.030318
0.0302972
0.0303546
0.0303752
0.0303736
0.0303563
0.030341
0.0303652
0.0303668
0.0303501
0.0286219
0.0287087
0.0287294
0.0286859
0.0137948
0.0140824
0.0141349
0.0139682
0.00165089
0.00165128
0.00165138
0.00165124
0.00170605
0.00170589
0.0017058
0.00170582
0.0174481
0.0173296
0.0172827
0.0173152
0.0294425
0.0294344
0.0294127
0.0293859
0.0302639
0.0302706
0.0302571
0.030233
0.0302091
0.0302268
0.0302217
0.0302006
0.0301907
0.0302173
0.0302182
0.0301979
0.0301436
0.0301696
0.030172
0.0301533
0.0287058
0.0287864
0.0288046
0.0287615
0.0145707
0.0148793
0.0149353
0.0147564
0.00162065
0.001621
0.00162106
0.00162092
0.00167658
0.00167647
0.00167641
0.00167642
0.0182534
0.0181324
0.0180872
0.0181263
0.0295493
0.0295455
0.0295283
0.0295072
0.0301988
0.0302143
0.0302068
0.0301849
0.0301191
0.0301443
0.0301429
0.0301201
0.0300704
0.0301003
0.0301024
0.0300797
0.0300099
0.0300343
0.0300368
0.0300186
0.0288626
0.0289352
0.0289508
0.0289099
0.0154887
0.0158204
0.0158802
0.0156884
0.00158885
0.00158916
0.0015892
0.00158905
0.00164484
0.00164478
0.00164474
0.00164473
0.0192216
0.019098
0.0190549
0.0191009
0.0296548
0.0296587
0.0296472
0.0296299
0.0301259
0.0301506
0.0301484
0.0301261
0.0300268
0.0300564
0.0300574
0.0300328
0.0299638
0.0299932
0.0299954
0.0299721
0.0299042
0.0299237
0.0299257
0.0299106
0.0290494
0.0291124
0.0291251
0.0290882
0.0165856
0.0169434
0.0170072
0.0168012
0.0015553
0.00155558
0.00155561
0.00155546
0.00161089
0.00161086
0.00161083
0.00161081
0.0203999
0.0202721
0.020231
0.0202843
0.0297409
0.0297548
0.0297492
0.0297324
0.030029
0.0300602
0.0300616
0.0300377
0.0299204
0.0299497
0.0299514
0.029927
0.0298571
0.0298817
0.0298833
0.0298624
0.0298103
0.0298224
0.0298235
0.0298139
0.0292373
0.0292895
0.0292995
0.0292679
0.0179207
0.0183073
0.0183752
0.0181538
0.00151995
0.00152019
0.00152022
0.00152008
0.00157499
0.00157497
0.00157494
0.00157492
0.021858
0.0217205
0.0216801
0.0217422
0.0297827
0.0298056
0.0298044
0.0297847
0.0298981
0.0299293
0.029932
0.0299083
0.0297987
0.0298218
0.029823
0.0298027
0.0297484
0.0297647
0.0297653
0.0297502
0.0297217
0.0297261
0.0297263
0.0297226
0.0293997
0.0294408
0.0294482
0.029423
0.0195813
0.0199944
0.0200657
0.0198307
0.00148292
0.00148312
0.00148314
0.00148302
0.00153748
0.00153745
0.00153743
0.00153741
0.0237117
0.0235511
0.0235087
0.0235852
0.0297512
0.0297753
0.0297753
0.0297541
0.0297405
0.0297624
0.0297642
0.0297457
0.0296738
0.0296863
0.0296864
0.0296742
0.0296459
0.029653
0.0296527
0.0296452
0.0296381
0.0296371
0.0296365
0.0296369
0.0295098
0.0295393
0.0295442
0.0295258
0.0217125
0.0221591
0.0222276
0.0219678
0.00144435
0.00144452
0.00144453
0.00144443
0.00149766
0.00149763
0.00149762
0.00149762
0.0261755
0.0259768
0.0259325
0.0260332
0.0296424
0.0296546
0.0296533
0.0296403
0.0295918
0.0295988
0.0295984
0.0295906
0.0295701
0.0295725
0.0295717
0.0295681
0.0295635
0.0295641
0.0295632
0.0295614
0.029565
0.0295621
0.0295609
0.0295622
0.029553
0.0295687
0.029571
0.0295609
0.0247155
0.025143
0.0251939
0.0249343
0.00140353
0.00140366
0.00140367
0.00140356
0.00218903
0.00206919
0.00200329
0.00197043
0.00195068
0.00193768
0.00192904
0.00192348
0.00192015
0.00191805
0.00185966
0.00179478
0.00513287
0.00985987
0.0143724
0.0175211
0.0189726
0.019064
0.0183941
0.0174517
0.00246518
0.00295903
0.00783609
0.0161381
0.0255527
0.033737
0.0398359
0.0436885
0.0454823
0.0456909
0.00284424
0.00397725
0.00881344
0.0183944
0.0295584
0.0389304
0.0455427
0.0493257
0.0506632
0.0502935
0.00313738
0.00413022
0.0091956
0.019809
0.0322125
0.0420067
0.0482587
0.051093
0.0512746
0.0499587
0.00345642
0.0042512
0.00943245
0.0208398
0.0341762
0.044016
0.0495786
0.0513066
0.0504272
0.0483849
0.0037086
0.00428666
0.00952863
0.0215486
0.0356112
0.0451524
0.0497284