/*--------------------------------*- C++ -*----------------------------------*\
| =========                 |                                                 |
| \\      /  F ield         | foam-extend: Open Source CFD                    |
|  \\    /   O peration     | Version:     4.0                                |
|   \\  /    A nd           | Web:         http://www.foam-extend.org         |
|    \\/     M anipulation  |                                                 |
\*---------------------------------------------------------------------------*/
FoamFile
{
    version     2.0;
    format      ascii;
    class       volScalarField;
    location    "500";
    object      epsilon;
}
// * * * * * * * * * * * * * * * * * * * * * * * * * * * * * * * * * * * * * //

dimensions      [0 2 -3 0 0 0 0];

internalField   nonuniform List<scalar> 
34480
(
4881.02
4877.88
4876.38
4876.68
4878.93
4884.56
4903.67
4976.81
5208.05
5807.04
646.751
587.292
582.985
635.975
838.194
1674.32
5723.12
25986.2
116976
424323
592.466
500.834
487.887
550.786
812.948
1951.68
7802.99
38990.9
189169
752738
496.1
418.62
409.736
472.138
741.259
2002.1
8947.7
48155.6
248248
1.06024e+06
428.455
366.035
362.947
424.287
695.739
2044.03
9883.06
56242.9
304755
1.37828e+06
368.294
317.611
315.792
373.175
641.826
2069.53
10793.7
64505.3
365050
1.73456e+06
331.964
289.706
289.275
342.078
603.087
2058.53
11282.6
69945.4
410670
2.03603e+06
308.284
274.818
273.303
316.628
545.506
1893.84
10738.3
68655.2
416900
2.1502e+06
456.321
435.304
434.161
460.639
602.921
1438.91
6972.71
44033.7
274495
1.46621e+06
5656.84
5652.71
5654.36
5663.08
5677.44
5696.37
5719.12
5753.97
5823.24
5894.73
4805.57
4802.8
4801.4
4801.87
4804.6
4810.53
4824.69
4861.78
4947.71
5209.59
518.222
476.809
466.613
479.703
526.808
656.19
1065.06
2664.84
13741.1
117548
444.931
380.028
364.178
382.953
454.981
658.871
1312.12
3973.14
24024.1
216232
390.544
332.033
318.827
339.216
413.816
630.578
1362.35
4660.22
33070.3
313854
352.382
302.6
293.885
314.865
389.15
607.946
1377.81
5143.41
41725.2
415961
312.757
270.797
263.247
282.501
351.384
561.676
1339.06
5473.14
50529.5
527984
289.121
252.895
246.957
263.985
327.374
525.579
1286.63
5588.92
57210.3
624190
274.813
245.581
239.556
252.368
301.544
460.008
1095.02
4989.91
57479.5
663254
430.67
411.079
407.016
414.683
444.092
530.415
851.233
3037.34
37562.8
471232
5544.01
5536.33
5533.73
5537.58
5546.92
5560.34
5577.57
5607.2
5672.74
5851.48
4720.76
4718.71
4717.5
4717.57
4719.01
4721.85
4728.94
4749.2
4791.11
4866.28
410.286
388.923
382.136
386.225
403.9
447.719
560.517
862.486
1839.55
6994.03
316.154
281.086
271.592
279.959
312.137
390.188
590.528
1164.55
3350.01
17281.1
291.58
257.147
248.597
259.159
295.729
385.669
628.188
1401.65
4970.83
31993.6
276.625
245.449
239.532
251.334
290.017
385.493
653.172
1589.82
6785.39
51813
255.049
227.402
221.951
233.412
270.582
365.065
643.652
1723.39
8921.5
78480.7
242.94
218.002
213.625
224.14
259.38
350.359
629.441
1807.12
11028.7
108008
238.184
217.53
213.069
221.414
249.454
323.216
558.469
1661.35
11927.2
129912
401.513
386.777
383.784
389.591
409.48
459.862
606.528
1260.77
8205.12
96960.8
5439.61
5429.99
5425.11
5426.22
5432.77
5443.56
5457.65
5484.62
5553.08
5739.34
4626.19
4625.45
4624.91
4625
4625.67
4626.5
4629.29
4639.63
4661.61
4691.67
338.705
328.065
323.785
324.385
330.685
347.335
387.338
475.495
653.741
1166.48
229.178
212.358
207.227
210.618
225.255
258.74
334.614
510.3
921.893
2473.85
219.498
201.292
196.264
201.612
220.455
263.557
365.24
623.783
1329.76
4662.88
217.876
200.163
196.559
203.207
224.802
274.171
394.744
726.544
1782.05
7848.13
208.589
191.722
188.094
195.114
217.274
269.519
403.462
805.414
2310.03
12580.6
204.647
188.502
185.488
192.304
214.478
267.574
408.85
863.415
2846.34
18440
207.404
193.441
190.254
196.043
214.617
260.053
385.298
823.598
3084
23511.5
375.357
364.485
362.191
366.485
380.96
415.607
507.42
789.276
2303.43
17793.2
5322.17
5313.15
5308.39
5309.22
5315.35
5326.46
5341.02
5368.04
5430.65
5572.99
4523.1
4523.48
4523.5
4523.52
4523.41
4522.72
4523.19
4528.1
4540.01
4552.5
294.599
288.596
285.619
284.986
286.841
293.366
308.909
340.565
388.668
457.836
176.437
168.748
165.987
166.885
172.688
186.033
214.567
272.948
372.628
587.994
171.926
162.83
159.916
162.187
170.937
190.258
232.199
325.863
508.895
1017.9
175.916
166.475
164.352
167.656
178.691
202.674
255.869
383.827
667.146
1657.37
173.56
163.767
161.383
165.283
177.594
205.14
268.777
434.146
851.536
2651.25
174.463
164.429
162.36
166.408
179.576
209.447
280.602
476.429
1035.15
3930.76
182.264
173.128
170.841
174.559
186.257
213.473
280.474
477.831
1124.94
5123.58
351.792
343.974
342.165
345.09
355.17
378.35
436.669
582.254
1035.02
4087.95
5196.9
5188.54
5183.99
5184.61
5190.26
5201.06
5215.21
5239.98
5291.85
5392.54
4412.44
4413.46
4413.92
4413.87
4413.21
4412.09
4411.77
4414.75
4423.31
4431.28
267.851
263.755
261.407
260.55
261.158
264.028
271.409
286.723
308.111
326.422
146.022
142.516
141.009
140.98
143.04
148.164
159.193
180.351
209.982
247.731
142.156
137.769
136.115
136.929
140.711
148.933
165.863
200.577
255.889
350.964
147.316
142.612
141.457
142.956
148.232
159.184
181.607
230.793
318.36
511.722
148.126
142.756
141.279
143.315
149.805
163.593
192.554
260.553
395.369
768.116
151.353
145.437
144.106
146.376
153.856
169.916
204.368
289.295
473.795
1096.36
162.056
156.38
154.828
157.119
164.213
179.93
214.826
305.73
526.202
1421.38
330.549
325.199
323.833
325.754
332.653
348.24
385.817
466.951
644.288
1351.96
5063.19
5055.64
5051.43
5051.94
5057.1
5067.13
5080.36
5102.1
5141.94
5207.39
4295
4296.07
4296.67
4296.6
4295.94
4294.88
4294.45
4296.86
4304.28
4311.04
250.775
247.823
245.87
245.107
245.278
246.768
251.236
261.13
275.406
286.089
128.817
127.157
126.289
126.013
126.66
128.686
133.523
142.923
155.017
164.484
124.191
122.094
121.15
121.361
122.922
126.394
133.492
147.46
167.317
189.025
128.616
126.434
125.849
126.461
128.857
133.676
143.013
162.197
192.31
235.744
130.434
127.651
126.773
127.772
131.054
137.736
150.665
178.458
226.227
314.015
134.396
131.083
130.269
131.464
135.558
143.932
160.255
196.607
263.366
413.259
146.405
143.064
142.056
143.401
147.548
156.37
174.306
216.014
299.772
525.081
311.75
308.281
307.258
308.465
313.13
323.713
348.48
395.748
480.416
683.074
4920.78
4914.15
4910.39
4910.84
4915.45
4924.34
4936.15
4954.53
4984.44
5026.72
4171.03
4172.02
4172.59
4172.56
4172.03
4171.19
4170.92
4173.19
4180.12
4186.49
238.829
236.486
234.929
234.282
234.307
235.295
238.565
246.22
257.959
267.289
119.059
118.221
117.702
117.421
117.584
118.482
121.062
126.493
133.762
138.519
113.595
112.589
112.04
112.04
112.673
114.198
117.481
124.084
133.36
140.847
116.763
115.853
115.583
115.799
116.847
118.941
122.941
130.987
143.102
155.57
118.553
117.21
116.708
117.167
118.78
121.976
127.821
139.547
158.307
183.02
122.399
120.65
120.174
120.763
122.947
127.256
135.036
150.793
176.922
218.176
134.65
132.81
132.181
132.937
135.288
140.152
149.428
168.763
203.269
268.251
295.232
293.128
292.35
293.083
296.257
303.64
320.447
349.053
394.501
467.924
4769.48
4763.86
4760.62
4761.02
4765.02
4772.57
4782.61
4797.56
4819.55
4847.37
4040.52
4041.41
4041.91
4041.92
4041.54
4040.93
4040.86
4043.08
4049.6
4055.7
229.404
227.442
226.18
225.653
225.659
226.432
229.068
235.472
245.861
254.804
113.425
112.974
112.654
112.436
112.458
112.94
114.595
118.414
124.026
128.066
107.474
106.986
106.661
106.606
106.869
107.597
109.322
113.049
118.69
123.17
109.469
109.165
109.056
109.113
109.561
110.482
112.299
116.079
122.033
127.475
110.848
110.265
109.987
110.183
110.963
112.493
115.22
120.494
128.896
138.168
114.212
113.353
113.085
113.355
114.505
116.725
120.529
127.651
138.869
152.753
126.065
125.136
124.757
125.166
126.469
129.131
134.007
143.217
158.509
180.911
280.684
279.521
278.895
279.335
281.561
286.973
298.672
316.598
342.632
374.3
4609.24
4604.66
4601.97
4602.33
4605.68
4611.78
4619.97
4631.67
4647.43
4665.71
3903.43
3904.21
3904.65
3904.68
3904.43
3904.02
3904.1
3906.22
3912.26
3918.09
221.067
219.386
218.358
217.938
217.952
218.594
220.789
226.278
235.647
244.351
110.052
109.801
109.602
109.453
109.447
109.762
110.956
113.925
118.727
122.747
104.016
103.777
103.582
103.528
103.648
104.038
105.06
107.466
111.531
115.291
105.124
105.082
105.048
105.051
105.246
105.673
106.571
108.573
112.067
115.631
106.035
105.829
105.678
105.755
106.131
106.877
108.203
110.753
115.028
119.847
108.83
108.446
108.298
108.412
109.022
110.19
112.121
115.524
120.803
126.772
119.937
119.526
119.304
119.519
120.235
121.702
124.311
128.835
136.006
145.372
267.684
267.133
266.584
266.857
268.511
272.753
280.985
292.54
308.056
322.873
4440.17
4436.59
4434.46
4434.76
4437.44
4442.12
4448.56
4457.37
4468.37
4480.16
3759.71
3760.4
3760.77
3760.82
3760.66
3760.39
3760.56
3762.5
3767.95
3773.48
213.059
211.607
210.772
210.441
210.463
210.997
212.824
217.523
225.953
234.416
107.907
107.771
107.651
107.556
107.554
107.785
108.692
111.079
115.299
119.382
102.113
101.994
101.878
101.838
101.902
102.136
102.794
104.466
107.628
111.138
102.631
102.683
102.678
102.669
102.763
102.985
103.477
104.652
106.952
109.819
103.156
103.118
103.036
103.063
103.25
103.629
104.306
105.625
108.023
111.173
105.431
105.28
105.196
105.24
105.576
106.22
107.253
108.981
111.655
114.802
115.624
115.483
115.354
115.466
115.865
116.698
118.111
120.394
123.862
128.441
255.759
255.583
255.053
255.242
256.565
259.995
265.817
273.409
282.913
289.766
4262.49
4259.84
4258.23
4258.48
4260.51
4263.94
4268.82
4275.21
4282.66
4290.09
3609.39
3610
3610.31
3610.36
3610.26
3610.09
3610.29
3611.97
3616.74
3621.9
204.977
203.719
203.046
202.787
202.812
203.245
204.741
208.703
216.195
224.389
106.431
106.362
106.292
106.236
106.242
106.419
107.113
109.028
112.712
116.811
101.096
101.035
100.965
100.939
100.978
101.129
101.569
102.76
105.267
108.579
101.265
101.333
101.334
101.326
101.381
101.518
101.817
102.554
104.153
106.593
101.52
101.543
101.497
101.505
101.604
101.811
102.178
102.899
104.329
106.627
103.374
103.323
103.271
103.289
103.488
103.869
104.46
105.397
106.827
108.706
112.581
112.565
112.49
112.55
112.783
113.269
114.045
115.219
116.903
119.402
244.439
244.474
243.924
244.075
245.217
247.928
252.038
257.067
263.005
265.758
4076.61
4074.76
4073.63
4073.82
4075.26
4077.7
4081.25
4085.71
4090.6
4095.15
3452.6
3453.13
3453.39
3453.43
3453.36
3453.25
3453.43
3454.82
3458.84
3463.55
196.599
195.507
194.968
194.769
194.791
195.13
196.318
199.574
206.1
213.968
105.322
105.29
105.252
105.221
105.233
105.368
105.887
107.389
110.529
114.555
100.57
100.536
100.494
100.477
100.503
100.602
100.895
101.736
103.695
106.749
100.56
100.61
100.608
100.603
100.644
100.739
100.937
101.415
102.534
104.59
100.648
100.681
100.654
100.655
100.713
100.835
101.047
101.458
102.334
104.066
102.18
102.163
102.127
102.136
102.266
102.51
102.875
103.417
104.214
105.404
110.363
110.406
110.361
110.396
110.544
110.829
111.257
111.867
112.661
114.141
233.169
233.425
232.831
232.97
234.017
235.971
238.839
242.164
245.922
246.517
3883.13
3881.86
3881.14
3881.26
3882.2
3883.94
3886.42
3889.4
3892.5
3895.22
3289.57
3290.02
3290.23
3290.26
3290.21
3290.13
3290.28
3291.36
3294.6
3298.77
187.785
186.833
186.405
186.254
186.27
186.522
187.426
190.005
195.529
202.969
104.422
104.407
104.385
104.37
104.383
104.483
104.858
105.988
108.565
112.401
100.312
100.287
100.261
100.25
100.267
100.329
100.518
101.093
102.569
105.274
100.223
100.247
100.24
100.238
100.27
100.342
100.479
100.789
101.553
103.219
100.221
100.245
100.226
100.226
100.263
100.341
100.471
100.71
101.247
102.542
101.511
101.498
101.469
101.477
101.568
101.736
101.976
102.309
102.766
103.538
108.647
108.715
108.695
108.718
108.808
108.975
109.21
109.527
109.87
110.814
221.435
221.919
221.445
221.579
222.327
223.688
225.648
227.825
230.221
229.73
3682.74
3681.88
3681.41
3681.48
3682.13
3683.31
3684.96
3686.88
3688.76
3690.34
3120.67
3121.05
3121.21
3121.23
3121.19
3121.13
3121.23
3122.01
3124.47
3128.01
178.426
177.591
177.252
177.141
177.15
177.324
177.973
179.914
184.401
191.255
103.648
103.633
103.619
103.612
103.625
103.696
103.952
104.755
106.758
110.253
100.193
100.17
100.154
100.147
100.156
100.192
100.308
100.678
101.729
103.993
100.081
100.083
100.072
100.07
100.096
100.151
100.245
100.442
100.941
102.217
100.038
100.049
100.034
100.033
100.059
100.111
100.193
100.335
100.656
101.6
101.136
101.117
101.093
101.101
101.167
101.285
101.45
101.665
101.935
102.447
107.209
107.28
107.278
107.294
107.349
107.446
107.573
107.735
107.852
108.501
208.966
209.577
209.256
209.348
209.855
210.767
212.066
213.468
214.995
214.044
3476.21
3475.65
3475.34
3475.39
3475.81
3476.58
3477.63
3478.8
3479.88
3480.77
2946.44
2946.74
2946.85
2946.87
2946.84
2946.79
2946.84
2947.36
2949.09
2951.91
168.415
167.679
167.413
167.334
167.336
167.443
167.873
169.232
172.668
178.709
102.954
102.932
102.92
102.917
102.928
102.975
103.138
103.665
105.107
108.089
100.144
100.121
100.11
100.105
100.108
100.127
100.192
100.412
101.102
102.855
100.035
100.022
100.009
100.008
100.027
100.067
100.13
100.25
100.555
101.467
99.9779
99.9787
99.9673
99.9664
99.984
100.019
100.072
100.156
100.341
101.006
100.907
100.882
100.862
100.868
100.915
100.999
101.112
101.254
101.42
101.78
105.908
105.972
105.98
105.992
106.026
106.082
106.147
106.228
106.238
106.711
195.562
196.217
196.025
196.084
196.408
196.984
197.804
198.69
199.647
198.608
3264.43
3264.07
3263.88
3263.92
3264.17
3264.64
3265.26
3265.92
3266.5
3267.01
2767.62
2767.85
2767.93
2767.93
2767.91
2767.87
2767.89
2768.18
2769.28
2771.32
157.63
156.98
156.774
156.72
156.716
156.772
157.022
157.879
160.29
165.243
102.314
102.286
102.275
102.274
102.282
102.311
102.405
102.715
103.645
105.948
100.124
100.102
100.094
100.089
100.09
100.098
100.129
100.246
100.652
101.874
100.028
100.01
99.9983
99.997
100.01
100.036
100.076
100.145
100.316
100.917
99.9736
99.9694
99.9604
99.9596
99.971
99.9938
100.027
100.075
100.178
100.628
100.73
100.702
100.685
100.689
100.721
100.777
100.853
100.945
101.053
101.33
104.663
104.717
104.73
104.739
104.76
104.79
104.822
104.86
104.825
105.171
181.059
181.694
181.61
181.648
181.835
182.161
182.638
183.176
183.74
182.832
3048.47
3048.27
3048.16
3048.17
3048.32
3048.57
3048.91
3049.25
3049.52
3049.81
2585.27
2585.44
2585.49
2585.49
2585.48
2585.45
2585.44
2585.57
2586.15
2587.42
145.908
145.336
145.182
145.148
145.141
145.159
145.277
145.734
147.208
150.809
101.719
101.692
101.685
101.684
101.69
101.706
101.753
101.909
102.416
103.94
100.109
100.088
100.081
100.077
100.076
100.078
100.091
100.143
100.349
101.088
100.031
100.015
100.006
100.004
100.012
100.027
100.05
100.086
100.172
100.535
99.9875
99.9827
99.9762
99.9753
99.9818
99.9949
100.014
100.04
100.094
100.383
100.545
100.519
100.505
100.507
100.526
100.56
100.605
100.661
100.733
100.962
103.443
103.486
103.5
103.507
103.518
103.532
103.544
103.558
103.511
103.735
165.281
165.853
165.864
165.89
165.977
166.114
166.343
166.635
166.894
166.231
2829.68
2829.56
2829.5
2829.51
2829.58
2829.7
2829.86
2829.99
2830.1
2830.27
2400.71
2400.77
2400.8
2400.8
2400.79
2400.77
2400.75
2400.79
2401.01
2401.6
132.98
132.487
132.386
132.367
132.36
132.357
132.389
132.566
133.266
135.389
101.175
101.158
101.155
101.155
101.158
101.166
101.185
101.245
101.456
102.228
100.081
100.062
100.056
100.053
100.051
100.051
100.055
100.074
100.158
100.531
100.03
100.019
100.013
100.011
100.015
100.022
100.033
100.049
100.087
100.284
99.9995
99.9963
99.9923
99.9916
99.9945
100
100.009
100.021
100.047
100.215
100.326
100.307
100.297
100.298
100.307
100.324
100.346
100.374
100.418
100.597
102.261
102.292
102.302
102.306
102.309
102.312
102.311
102.309
102.272
102.373
147.928
148.368
148.374
148.393
148.45
148.537
148.639
148.729
148.71
148.323
2609.47
2609.41
2609.4
2609.4
2609.42
2609.45
2609.49
2609.52
2609.55
2609.64
2214.35
2214.42
2214.43
2214.43
2214.43
2214.42
2214.41
2214.41
2214.47
2214.62
118.214
117.855
117.813
117.811
117.807
117.797
117.788
117.809
117.977
118.791
100.681
100.674
100.671
100.67
100.67
100.673
100.679
100.695
100.745
100.967
100.037
100.023
100.02
100.018
100.017
100.017
100.017
100.021
100.046
100.192
100.021
100.015
100.012
100.011
100.012
100.015
100.019
100.024
100.037
100.122
100.001
99.9998
99.9984
99.9982
99.999
100.001
100.003
100.005
100.014
100.09
100.118
100.108
100.103
100.103
100.107
100.113
100.12
100.13
100.149
100.256
101.155
101.168
101.174
101.175
101.173
101.168
101.16
101.152
101.136
101.158
127.29
127.546
127.546
127.556
127.585
127.63
127.681
127.721
127.702
127.504
2388.69
2388.67
2388.68
2388.68
2388.68
2388.67
2388.66
2388.65
2388.62
2388.67
7291.82
7386.54
7330.12
7114.38
726987
744304
744569
750315
1.59322e+06
1.66305e+06
1.65776e+06
1.62591e+06
2.60595e+06
2.75372e+06
2.73032e+06
2.62197e+06
3.817e+06
4.06306e+06
4.01153e+06
3.82172e+06
5.3162e+06
5.68957e+06
5.61668e+06
5.38098e+06
6.77471e+06
7.28342e+06
7.20315e+06
6.96741e+06
7.65669e+06
8.28114e+06
8.22008e+06
8.03745e+06
5.38668e+06
5.87326e+06
5.8254e+06
5.75046e+06
7752.33
7983.08
7829.71
7448.97
5790.13
5834.17
5829.07
5782.77
326910
334849
351878
380347
710660
784836
821012
848910
1.18918e+06
1.38238e+06
1.4327e+06
1.44326e+06
1.7577e+06
2.11626e+06
2.18112e+06
2.18647e+06
2.42386e+06
2.99189e+06
3.10162e+06
3.14104e+06
3.0529e+06
3.84903e+06
4.03325e+06
4.14658e+06
3.44617e+06
4.44291e+06
4.72047e+06
4.9346e+06
2.68277e+06
3.57517e+06
3.81719e+06
4.1018e+06
7038.64
7255.63
7190.69
6964.55
4933.11
4940.22
4935.45
4922.19
23470
27349.3
25645
20721.9
64478.3
74950.1
69315.8
55684.4
131406
152287
138700
110711
230152
266451
240837
192243
372387
432208
392436
315000
540296
628359
574164
464977
690522
806340
742190
606423
570939
663653
604372
497598
6267.71
6348.17
6321.16
6224.72
4696.61
4695.68
4693.66
4690.87
1831.13
1912.36
1843.17
1682.8
5115.68
5479.49
5214.82
4569.59
11745.1
12740.7
11938.6
10098.3
23163.4
25289.6
23349.2
19178.4
42442
46611
42637.1
34302.9
68891.3
75753
68771.5
54632.7
97419.3
107419
97066.9
76514.5
83337.4
90995.6
80946
63702.7
5835.48
5873.55
5868.07
5831.24
4544.36
4542.75
4540.92
4538.79
497.621
503.394
498.125
485.616
803.998
836.605
826.137
785.328
1708.93
1818.29
1778.92
1640.19
3346.14
3606
3473.47
3098.5
6334.99
6889.87
6537.42
5653.34
10718.5
11673.5
10907.1
9183.82
15938.3
17405.8
16066.1
13216.7
14047.2
15167
13685.2
11088.2
5519.72
5539.7
5540.06
5525.83
4420.43
4418.7
4416.94
4415.07
322.278
321.886
318.95
314.552
265.915
267.225
264.844
260.224
427.892
439.299
436.789
424.662
723.603
757.547
750.531
716.054
1280.89
1364.89
1341.27
1248.76
2103.5
2258.54
2188.79
1985.98
3145.54
3402.37
3251.53
2872.97
3000.65
3192.53
2982.96
2610.46
5268
5277.55
5279.31
5275
4299.38
4297.56
4295.88
4294.33
279.437
279.308
277.213
273.756
164.645
163.613
161.896
159.955
198.23
198.766
197.458
195.108
266.372
270.87
270.088
265.832
397.261
411.673
411.217
400.638
582.768
611.184
607.4
583.307
836.819
888.331
875.798
825.298
1010.45
1046.47
1016.49
963.985
5053.75
5057.77
5059.61
5059.46
4174.58
4172.66
4171.08
4169.86
261.149
261.38
259.734
256.685
137.156
136.188
134.869
133.488
141.315
140.624
139.537
138.411
160.217
160.396
159.7
158.63
198.974
201.541
201.552
199.937
250.872
256.43
256.698
253.716
334.99
346.665
346.72
339.664
553.938
558.732
553.814
548.249
4859.1
4860.38
4861.75
4862.91
4043.86
4041.87
4040.39
4039.51
249.375
249.865
248.506
245.72
127.115
126.419
125.388
124.257
122.87
122.264
121.439
120.646
128.355
128.062
127.5
126.926
142.334
142.83
142.664
142.158
160.49
161.678
161.769
161.299
199.477
202.643
203.108
201.903
405.914
403.294
401.979
403.894
4670.55
4670.57
4671.41
4672.75
3906.64
3904.62
3903.28
3902.7
239.57
240.232
239.074
236.499
122.353
121.878
121.043
120.067
115.402
115.018
114.4
113.764
116.342
116.168
115.767
115.324
121.922
122.127
121.971
121.631
129.553
129.916
129.897
129.706
152.922
154.069
154.297
153.911
338.898
334.208
333.37
336.572
4481.68
4481.14
4481.61
4482.82
3762.73
3760.78
3759.58
3759.27
230.279
231.074
230.078
227.693
119.515
119.217
118.528
117.666
111.811
111.634
111.173
110.626
110.933
110.944
110.674
110.274
113.013
113.259
113.16
112.842
116.57
116.826
116.804
116.616
132.956
133.573
133.688
133.411
300.118
294.807
293.998
297.412
4289.89
4289.15
4289.4
4290.41
3612.19
3610.37
3609.33
3609.24
220.934
221.849
221.002
218.8
117.457
117.315
116.748
115.98
109.794
109.8
109.463
108.97
108.118
108.289
108.117
107.729
108.534
108.861
108.814
108.488
110.231
110.504
110.503
110.298
122.811
123.26
123.33
123.065
273.464
267.994
267.175
270.595
4094.03
4093.29
4093.41
4094.22
3455.17
3453.56
3452.69
3452.77
211.258
212.295
211.595
209.574
115.72
115.73
115.277
114.588
108.447
108.614
108.381
107.92
106.41
106.703
106.603
106.217
106.003
106.384
106.375
106.04
106.772
107.053
107.071
106.863
116.957
117.321
117.367
117.111
252.708
247.259
246.442
249.813
3893.61
3892.97
3893.03
3893.64
3291.93
3290.58
3289.89
3290.06
201.061
202.229
201.683
199.84
114.088
114.25
113.908
113.287
107.355
107.661
107.517
107.073
105.173
105.544
105.498
105.112
104.389
104.785
104.796
104.464
104.693
104.949
104.974
104.787
113.186
113.478
113.505
113.27
234.956
229.629
228.827
232.105
3688.49
3688.02
3688.04
3688.48
3122.82
3121.78
3121.26
3121.46
190.164
191.472
191.087
189.42
112.426
112.74
112.508
111.939
106.301
106.713
106.643
106.211
104.118
104.52
104.509
104.137
103.225
103.593
103.611
103.302
103.329
103.526
103.55
103.405
110.487
110.706
110.716
110.514
218.653
213.534
212.757
215.893
3478.85
3478.57
3478.58
3478.85
2948.34
2947.61
2947.25
2947.42
178.361
179.804
179.588
178.094
110.627
111.075
110.945
110.417
105.167
105.635
105.621
105.206
103.127
103.506
103.513
103.175
102.3
102.599
102.613
102.353
102.367
102.483
102.499
102.413
108.347
108.496
108.492
108.332
202.847
198.032
197.295
200.223
3265.13
3265.04
3265.05
3265.16
2769.21
2768.76
2768.52
2768.64
165.405
166.951
166.904
165.588
108.598
109.133
109.087
108.592
103.91
104.364
104.383
104.008
102.178
102.48
102.491
102.218
101.531
101.731
101.736
101.549
101.653
101.683
101.687
101.666
106.481
106.571
106.559
106.446
186.877
182.482
181.803
184.441
3048.05
3048.12
3048.13
3048.13
2586.46
2586.23
2586.09
2586.14
151.051
152.622
152.733
151.613
106.296
106.826
106.83
106.385
102.578
102.937
102.964
102.665
101.317
101.504
101.507
101.327
100.904
100.996
100.99
100.892
101.097
101.059
101.052
101.083
104.716
104.768
104.756
104.684
170.187
166.384
165.789
168.021
2828.68
2828.87
2828.89
2828.8
2401.43
2401.32
2401.24
2401.24
135.147
136.611
136.844
135.957
103.824
104.222
104.234
103.893
101.335
101.535
101.547
101.365
100.629
100.696
100.689
100.612
100.437
100.443
100.43
100.409
100.64
100.573
100.557
100.608
102.988
103.017
103.01
102.972
151.988
148.857
148.4
150.22
2608.36
2608.67
2608.69
2608.51
2214.89
2214.77
2214.72
2214.75
117.786
118.943
119.195
118.573
101.553
101.717
101.714
101.559
100.428
100.472
100.464
100.403
100.197
100.188
100.176
100.169
100.15
100.123
100.11
100.12
100.276
100.223
100.205
100.239
101.403
101.41
101.409
101.399
130.011
127.909
127.655
128.881
2387.9
2388.27
2388.28
2388.03
6185.38
5466.09
5164.62
5054.21
4988.07
4941.91
4911.45
4893.41
4884.6
4880.55
813134
183584
32597.2
11395.8
5112.64
2732.27
1690.12
1181.86
914.08
757.917
1.41004e+06
221973
42036.3
14341.6
6365.27
3389.55
2043.31
1360.58
984.614
761.997
1.90337e+06
214365
43548.2
13867.9
5921.7
3061.59
1800.89
1175.01
836.329
640.32
2.30901e+06
230299
44878.8
13164.6
5429.99
2724.17
1571.94
1013.94
716.077
547.629
2.73126e+06
250635
46388.9
12456
4928.16
2384.69
1347.45
859.249
605.611
465.077
3.0384e+06
264360
46533.6
11572.3
4426.07
2091.34
1173.23
749.381
531.357
412.254
3.06693e+06
254888
42246.1
9614.15
3551.98
1653.83
943.265
621.32
459.646
370.185
2.08902e+06
159791
23944.3
4995.17
2007.98
1125.23
802.243
641.937
551.986
497.279
6003.51
5945.96
5801.37
5770.71
5727.74
5704.48
5686.64
5676.64
5669.51
5663.04
5444.25
5159.21
5019
4937.56
4884.7
4849.33
4826.62
4813.34
4806.71
4803.95
180575
45322.2
13948.1
5458.64
2690.33
1589.44
1077.76
815.108
669.613
584.848
364096
83608.9
23015.8
8163.28
3816.2
2132.43
1344.58
931.692
697.502
559.859
559999
118036
28980.3
9167.91
3997.05
2120.41
1284.29
862.007
629.326
496.798
776905
152347
33717.8
9666.89
3968.28
2017.42
1189.04
785.262
566.86
445.75
1.03978e+06
190519
38283.1
9939.6
3831.18
1861.87
1067.27
693.387
497.768
392.04
1.28967e+06
222198
41031.4
9775
3590.9
1695.85
961.459
624.43
450.018
357.282
1.44117e+06
232967
39414.9
8533.23
2987.44
1387.29
797.531
533.002
399.896
328.859
1.0842e+06
159689
23756.9
4668.97
1775.29
1010.21
731.035
593.282
514.63
469.444
6190.59
5896.88
5741.43
5681.48
5632.33
5603.55
5583.04
5570.18
5560.78
5552.79
4881.44
4840.25
4806.01
4776.43
4753.06
4736.45
4725.93
4720.18
4717.81
4717.36
9686.12
4442.45
2458.16
1526.4
1040.46
769.738
615.544
526.328
471.944
437.387
24000.3
9630.48
4716.31
2587.27
1562.81
1019.81
718.623
544.795
439.058
373.722
43629.4
15389.3
6750.14
3327.15
1844.5
1120.89
746.447
541.399
421.737
350.903
69428.6
21621.7
8579.46
3858.88
1998.96
1152.96
741.051
525.839
403.317
332.989
105231
29075.6
10410.8
4267.72
2069.49
1133.87
704.095
488.873
371.246
305.808
145297
36054.2
11734.8
4434.53
2047.56
1085.91
664.111
459.402
349.057
288.743
177469
39553.7
11620.7
4030.47
1787.02
934.703
579.858
411.957
324.144
275.986
130799
25381.5
6697.89
2338.61
1214.05
797.65
618.348
522.687
465.106
431.626
5952.61
5778.32
5657.45
5585.53
5535.83
5505.54
5484.56
5470.04
5459.01
5449.7
4682.38
4669.28
4654.77
4641.38
4631.15
4624.46
4620.78
4619.42
4619.78
4621.1
1316.41
992.129
775.519
619.336
513.588
445.477
403.098
376.913
359.576
347.139
3111.03
1983.05
1322.6
899.896
639.187
479.077
380.93
319.958
280.196
253.99
6095.79
3432.74
2049.85
1253.84
812.188
562.059
418.529
333.918
281.336
248.542
10286.7
5160.98
2804.48
1571.35
948.341
620.084
443.25
344.333
284.46
248.266
16444.2
7333.72
3629.96
1865.47
1051.53
650.342
446.642
337.753
274.839
238.164
23672.4
9440.11
4295.7
2052.68
1101.63
658.094
443.358
332.524
269.371
233.159
30027.4
10648.4
4433.5
1973.57
1024.29
606.387
413.973
316.962
263.296
232.441
21948.6
6927.77
2785.22
1359.13
861.852
639.621
528.685
464.27
422.973
398.515
5728.25
5605.88
5510.65
5450.01
5409.43
5383.25
5364.44
5350.76
5340.22
5331.51
4534.87
4529.55
4523.76
4518.64
4515.02
4513.05
4512.49
4513.13
4514.8
4517
459.352
423.445
391.292
362.889
340.107
323.481
312.35
305.205
300.085
295.719
679.075
546.489
441.035
358.409
297.885
255.663
227.413
208.736
195.588
186.183
1300.28
940.293
683.769
500.962
379.135
300.463
250.875
219.56
198.74
184.969
2238.93
1469.44
976.771
655.768
460.906
344.534
275.887
234.865
208.186
191.028
3707.42
2202.64
1337.82
822.615
537.289
378.688
290.5
240.052
208.875
189.665
5483.84
2967.68
1665.32
953.27
591.118
401.59
301.158
245.742
211.852
191.245
7150.6
3503.73
1817.37
979.251
590.516
398.59
301.315
248.536
217.217
198.212
5412.39
2542.05
1381.13
870.841
645.839
527.37
459.412
416.56
387.241
369.587
5481.83
5409.84
5347.85
5304.78
5273.98
5252.15
5235.65
5223.11
5213.27
5205.25
4412.74
4409.6
4405.97
4402.86
4400.9
4400.16
4400.45
4401.63
4403.66
4406.14
309.635
302.342
295.134
287.592
280.576
275.112
271.545
269.452
267.918
266.163
248.677
230.058
211.944
195.09
180.712
169.665
161.96
156.783
152.832
149.666
390.445
337.198
288.107
245.547
212.148
188.067
171.758
160.892
153.157
147.717
623.846
500.277
395.534
312.459
253.348
214.086
189.101
173.261
162.072
154.373
1017.14
749.333
542.841
394.032
297.929
238.597
202.721
180.704
166.002
156.413
1510.53
1028.64
689.578
467.112
335.743
259.588
215.534
189.393
172.002
160.748
2023.25
1269.47
793.135
510.944
358.718
275.121
228.347
200.8
183.132
171.844
1781.92
1162.9
808.539
616.417
511.473
447.354
405.742
377.452
356.862
344.294
5256.96
5218.11
5180.98
5151.91
5129.07
5111.41
5097.38
5086.31
5077.45
5070.34
4293.04
4290.74
4287.65
4284.98
4283.38
4282.87
4283.26
4284.43
4286.41
4288.85
270.776
266.597
262.799
258.777
254.998
252.161
250.502
249.708
249.138
248.143
156.336
151.862
147.683
143.321
139.144
135.818
133.63
132.318
131.23
130.165
189.346
179.872
169.524
158.592
148.61
140.775
135.261
131.503
128.662
126.536
253.449
231.959
208.818
186.465
168.077
154.726
145.738
139.781
135.174
131.771
369.183
318.207
267.694
224.123
191.82
169.873
155.526
146.082
139.232
134.528
517.224
419.529
330.396
261.445
214.893
185.124
166.328
154.294
145.51
139.466
695.952
528.857
392.979
298.937
240.616
204.924
182.818
168.653
158.83
152.265
826.348
672.974
555.228
477.433
426.028
390.314
364.591
345.895
331.487
322.587
5052.9
5032.9
5011.12
4991.73
4975.08
4961.23
4949.73
4940.34
4932.64
4926.56
4169.42
4167.65
4164.75
4162.14
4160.54
4159.97
4160.23
4161.2
4162.95
4165.2
254.302
250.66
247.349
243.972
240.953
238.801
237.624
237.116
236.741
235.927
131.199
128.873
126.916
124.838
122.833
121.336
120.532
120.225
119.956
119.558
136.394
133.896
130.895
127.077
123.213
120.102
117.969
116.574
115.484
114.61
156.133
151.815
145.879
138.815
132.285
127.294
123.882
121.601
119.664
118.122
194.633
183.868
170.326
156.361
144.718
136.179
130.246
126.102
122.846
120.51
243.587
222.342
197.686
175.344
158.356
146.485
138.372
132.799
128.325
125.063
316.955
276.472
236.042
203.608
180.744
165.228
154.67
147.356
141.899
138.119
519.115
474.358
430.553
396.068
369.481
348.951
332.834
320.412
310.331
304.057
4860.61
4850.1
4837.17
4824.35
4812.47
4802
4792.91
4785.26
4778.83
4773.82
4039.82
4038.46
4035.67
4033.09
4031.45
4030.79
4030.87
4031.62
4033.09
4035.09
243.678
240.26
237.038
233.811
231.032
229.114
228.077
227.609
227.239
226.453
122.394
120.453
118.77
117.045
115.493
114.432
113.951
113.861
113.796
113.6
119.371
118.036
116.39
114.232
112.088
110.45
109.424
108.824
108.355
107.945
125.886
124.48
122.184
119.12
116.201
114.004
112.568
111.644
110.779
110.031
140.658
137.616
133.005
127.59
122.773
119.113
116.494
114.585
112.967
111.758
159.277
153.776
145.892
137.766
131.032
126.019
122.386
119.738