/*--------------------------------*- C++ -*----------------------------------*\
| =========                 |                                                 |
| \\      /  F ield         | foam-extend: Open Source CFD                    |
|  \\    /   O peration     | Version:     4.0                                |
|   \\  /    A nd           | Web:         http://www.foam-extend.org         |
|    \\/     M anipulation  |                                                 |
\*---------------------------------------------------------------------------*/
FoamFile
{
    version     2.0;
    format      ascii;
    class       volScalarField;
    location    "500";
    object      k;
}
// * * * * * * * * * * * * * * * * * * * * * * * * * * * * * * * * * * * * * //

dimensions      [0 2 -2 0 0 0 0];

internalField   nonuniform List<scalar> 
34480
(
8.71212
8.70871
8.70704
8.70732
8.70978
8.71622
8.73886
8.82533
9.09514
9.77536
9.22355
8.5532
8.40838
8.65429
9.25753
10.2709
12.3061
17.2145
32.2288
74.0305
14.6631
13.1993
12.736
12.8788
13.5099
14.7806
17.6807
24.5239
45.6183
109.117
14.0202
12.5794
12.1631
12.3827
13.1535
14.7445
18.3483
26.7306
52.7889
134.515
12.9057
11.6318
11.3483
11.6617
12.5654
14.3929
18.4742
27.9967
58.5009
157.779
11.7254
10.609
10.3724
10.7015
11.6289
13.5898
18.0536
28.7279
64.1527
182.709
10.8678
9.90229
9.71828
10.0315
10.9421
12.9358
17.5925
29.0211
68.3485
203.481
9.54269
8.81491
8.65768
8.89414
9.60561
11.2829
15.4935
26.6252
67.0937
210.322
6.79044
6.5505
6.51298
6.62599
6.95243
7.68491
9.75415
16.5747
44.89
152.481
9.18082
9.17659
9.17844
9.1879
9.20356
9.22409
9.24876
9.28659
9.36136
9.43881
8.62144
8.61846
8.61696
8.61749
8.62056
8.62743
8.64428
8.6886
8.79025
9.09532
8.02826
7.53175
7.38183
7.5109
7.96153
8.87565
10.5614
12.9312
17.417
46.9778
12.2133
11.0997
10.76
10.9412
11.649
13.0447
15.5772
19.1653
26.2103
73.2339
11.9874
10.8428
10.5222
10.7703
11.609
13.2585
16.2859
20.8133
30.5136
92.3878
11.3342
10.2831
10.0511
10.3578
11.2926
13.1085
16.4636
21.6215
33.6913
110.204
10.5119
9.56574
9.35769
9.66905
10.6084
12.4865
16.0624
21.7934
36.5376
129.864
9.9116
9.07065
8.90207
9.19069
10.097
11.9565
15.6276
21.7013
38.6557
147.268
8.85361
8.20993
8.05917
8.27301
8.97075
10.4872
13.6815
19.3781
37.1689
153.913
6.57273
6.34707
6.30113
6.37969
6.64791
7.24743
8.62824
11.6193
23.346
107.264
9.05851
9.05036
9.04758
9.05178
9.06204
9.07678
9.09564
9.12808
9.19922
9.39137
8.51923
8.51705
8.51576
8.51584
8.51743
8.52072
8.52924
8.55366
8.60369
8.69238
6.93208
6.64686
6.54184
6.59642
6.83864
7.35502
8.36401
10.0986
12.5094
18.828
9.84742
9.15412
8.94571
9.09288
9.64132
10.7156
12.6217
15.5402
19.2649
32.3212
9.92592
9.17169
8.96569
9.17705
9.86348
11.2067
13.6198
17.3954
22.5802
43.7332
9.66903
8.94959
8.79853
9.05418
9.82665
11.3404
14.1032
18.4738
24.9844
55.0568
9.18311
8.51279
8.3696
8.63311
9.4217
11.0229
14.0535
18.9669
27.0541
67.8862
8.83194
8.21641
8.09898
8.34729
9.11838
10.7286
13.8991
19.1428
28.634
80.2514
8.066
7.58682
7.47789
7.66566
8.26043
9.57317
12.3485
17.2846
27.4856
86.8278
6.31484
6.13757
6.10327
6.16855
6.38405
6.86193
7.94531
10.4266
17.1604
60.3051
8.94449
8.93415
8.92886
8.93009
8.9373
8.94927
8.96482
8.99454
9.06925
9.27026
8.40469
8.40403
8.40353
8.40364
8.40437
8.40536
8.40873
8.42132
8.44778
8.48339
6.15511
6.0028
5.93305
5.94673
6.05694
6.30499
6.80634
7.72435
9.02688
11.323
8.02046
7.63617
7.51249
7.5908
7.91811
8.58127
9.77671
11.6906
14.0068
18.967
8.24693
7.79778
7.66747
7.79913
8.24616
9.14092
10.7645
13.4277
16.7375
25.2793
8.25513
7.80608
7.70887
7.87724
8.40035
9.44536
11.3729
14.6041
18.7913
31.651
8.02836
7.58747
7.48812
7.67117
8.22555
9.37111
11.5636
15.3595
20.5873
39.1265
7.87519
7.4511
7.36739
7.54653
8.10601
9.28956
11.6389
15.8086
21.933
46.5259
7.36788
7.02698
6.94653
7.08772
7.52774
8.50196
10.5667
14.5419
21.128
50.6401
6.08484
5.94804
5.92153
5.97116
6.13287
6.48344
7.23707
9.03796
13.2019
34.531
8.81536
8.80558
8.80039
8.80133
8.80814
8.82049
8.83666
8.8666
8.93535
9.09
8.27909
8.27973
8.27987
8.27991
8.27976
8.27893
8.2795
8.28554
8.29995
8.3147
5.6609
5.57794
5.53025
5.52589
5.56941
5.68026
5.91505
6.34818
6.92232
7.56857
6.76748
6.57058
6.49804
6.52387
6.67903
7.01287
7.64092
8.68541
9.93116
11.6332
7.01437
6.76567
6.68386
6.74722
6.9878
7.48362
8.40839
10.0009
11.9638
15.184
7.15429
6.89348
6.83197
6.92407
7.22533
7.83445
8.97866
11.0185
13.63
18.7923
7.09375
6.81933
6.75032
6.85993
7.1997
7.9054
9.27121
11.805
15.2053
23.1826
7.07468
6.7952
6.73487
6.84817
7.20872
7.96946
9.48239
12.3722
16.4322
27.5738
6.77222
6.53797
6.47787
6.57289
6.86723
7.51068
8.85607
11.6433
16.0322
30.0254
5.88223
5.77842
5.75749
5.7921
5.90667
6.14814
6.63327
7.77476
10.2246
19.9458
8.67657
8.66742
8.66242
8.66314
8.66945
8.6815
8.69735
8.72497
8.78237
8.89272
8.14324
8.14469
8.14532
8.1453
8.14453
8.14311
8.14271
8.1464
8.15679
8.16621
5.36774
5.31862
5.28436
5.27475
5.29146
5.34572
5.47126
5.70784
6.00991
6.24241
5.97514
5.87886
5.837
5.83847
5.90163
6.05173
6.35112
6.86179
7.4648
8.05967
6.17249
6.04284
5.99317
6.01803
6.13338
6.37729
6.8422
7.66712
8.70108
9.95041
6.34617
6.20626
6.17028
6.21509
6.37217
6.6882
7.28275
8.38408
9.83571
11.9436
6.37164
6.21146
6.16626
6.2268
6.41926
6.81334
7.56662
9.02217
11.0322
14.4887
6.4283
6.2543
6.21345
6.28021
6.49791
6.94726
7.81903
9.55473
12.0391
17.0332
6.27519
6.12251
6.08002
6.14083
6.32769
6.72501
7.52252
9.22683
11.9369
18.3956
5.70573
5.62954
5.61389
5.63709
5.71607
5.87768
6.18115
6.85233
8.15972
12.1795
8.52717
8.51883
8.51417
8.51477
8.52058
8.5318
8.54677
8.57119
8.61565
8.68807
7.99789
7.99939
8.00024
8.00019
7.99936
7.99802
7.99748
8.00044
8.00947
8.01752
5.20114
5.16881
5.14287
5.13302
5.14002
5.17195
5.25396
5.41574
5.62683
5.76782
5.50185
5.45471
5.43017
5.42366
5.44651
5.5132
5.6607
5.92191
6.2262
6.44465
5.63083
5.5655
5.53571
5.54267
5.59407
5.70774
5.93102
6.33469
6.84282
7.31021
5.78554
5.71644
5.69696
5.71626
5.79237
5.94445
6.22881
6.76286
7.48493
8.30527
5.84246
5.75481
5.72662
5.75762
5.8605
6.06692
6.44982
7.19234
8.25364
9.70624
5.9317
5.82938
5.80315
5.83978
5.96485
6.21578
6.68106
7.60523
8.96945
11.1403
5.87878
5.78471
5.75605
5.79293
5.90617
6.13987
6.58404
7.51726
9.02938
11.9024
5.55859
5.50422
5.49296
5.50773
5.56075
5.66621
5.85386
6.23702
6.91856
8.47605
8.36658
8.35919
8.35499
8.35551
8.36075
8.37078
8.38423
8.40506
8.43876
8.48598
7.84307
7.84445
7.84525
7.84525
7.84458
7.84351
7.84315
7.84593
7.85437
7.86203
5.10811
5.08481
5.06468
5.05618
5.05995
5.08278
5.14553
5.27487
5.45223
5.57533
5.22877
5.20495
5.19017
5.18283
5.19049
5.22322
5.30695
5.46583
5.65828
5.7776
5.29767
5.26524
5.24734
5.24748
5.26973
5.32342
5.43547
5.6456
5.9155
6.11523
5.41438
5.38381
5.37415
5.38128
5.4163
5.48685
5.62
5.87364
6.2247
6.54668
5.47237
5.42792
5.41111
5.42585
5.47865
5.58298
5.77105
6.12904
6.65178
7.2477
5.56715
5.51066
5.49465
5.51334
5.58266
5.71823
5.95761
6.41601
7.10112
8.00524
5.57582
5.52159
5.50317
5.52442
5.59029
5.72274
5.96193
6.44005
7.21564
8.44182
5.44095
5.40309
5.39523
5.4042
5.43918
5.50704
5.6231
5.84084
6.20213
6.83008
8.19425
8.18791
8.18425
8.18472
8.1893
8.1979
8.20945
8.22655
8.25158
8.28295
7.67846
7.67969
7.68041
7.68044
7.67996
7.67917
7.67906
7.68177
7.68971
7.69713
5.05557
5.03793
5.02216
5.0153
5.01809
5.03648
5.08856
5.19964
5.35984
5.4792
5.07446
5.06201
5.053
5.04716
5.04987
5.06904
5.12491
5.23929
5.38976
5.4903
5.10053
5.08449
5.07366
5.07192
5.08182
5.10908
5.17131
5.29577
5.4667
5.58945
5.17908
5.16797
5.1637
5.16569
5.18134
5.21411
5.27852
5.40639
5.59336
5.74871
5.22514
5.2048
5.19515
5.20162
5.22803
5.2801
5.37277
5.54672
5.80827
6.07409
5.31151
5.28253
5.27315
5.28197
5.31955
5.39182
5.51453
5.73854
6.07375
6.4548
5.35429
5.32556
5.31426
5.32593
5.36286
5.43573
5.56246
5.8011
6.18466
6.70966
5.35111
5.32513
5.31978
5.32499
5.34799
5.39165
5.46409
5.58898
5.78376
6.06201
8.00971
8.00448
8.00141
8.00183
8.00569
8.01274
8.02224
8.03576
8.05391
8.07472
7.50367
7.50475
7.50537
7.50543
7.5051
7.50456
7.50463
7.50722
7.51458
7.52175
5.02461
5.0111
4.99885
4.99352
4.99596
5.01144
5.05593
5.15365
5.30153
5.41995
4.98817
4.9817
4.9763
4.97232
4.97373
4.98702
5.02862
5.11934
5.24989
5.35035
4.98811
4.9802
4.97363
4.97185
4.9767
4.99215
5.03066
5.11362
5.23935
5.34253
5.03623
5.03404
5.03245
5.03262
5.03974
5.0557
5.0892
5.16025
5.27427
5.3778
5.06757
5.05974
5.05435
5.05694
5.07007
5.09632
5.14321
5.23167
5.37243
5.51844
5.14051
5.12691
5.12154
5.12536
5.14571
5.18457
5.24872
5.36082
5.52961
5.70996
5.19958
5.18607
5.17947
5.18561
5.20571
5.2449
5.31141
5.42997
5.61917
5.86292
5.28576
5.26797
5.26434
5.26731
5.28265
5.31129
5.3573
5.43038
5.53622
5.66957
7.81264
7.8085
7.80604
7.8064
7.80952
7.81499
7.82255
7.83285
7.84567
7.85926
7.31823
7.31919
7.31972
7.3198
7.31958
7.31921
7.3194
7.32176
7.32842
7.33527
5.0051
4.99492
4.9856
4.98157
4.98378
4.99686
5.0349
5.12094
5.25764
5.37576
4.93996
4.93692
4.93388
4.93146
4.93267
4.94281
4.97531
5.0499
5.16675
5.27007
4.92642
4.92254
4.91858
4.91726
4.92002
4.92971
4.95544
5.01478
5.11463
5.21252
4.95338
4.95463
4.95419
4.95393
4.9575
4.96613
4.98527
5.02858
5.10588
5.19078
4.9721
4.97012
4.96715
4.96807
4.97477
4.98848
5.01325
5.06083
5.14281
5.24076
5.03169
5.02596
5.02286
5.02439
5.03573
5.0574
5.09231
5.15095
5.24013
5.33975
5.09655
5.09139
5.08774
5.09088
5.10161
5.12243
5.15711
5.2161
5.30963
5.4367
5.24066
5.22828
5.22578
5.22751
5.23811
5.25758
5.28759
5.33163
5.38939
5.45597
7.60282
7.5997
7.59783
7.59812
7.60052
7.60458
7.61038
7.61795
7.62675
7.63543
7.12175
7.12261
7.12306
7.12313
7.12299
7.12274
7.12297
7.12503
7.13086
7.1373
4.99186
4.98448
4.97762
4.97468
4.97664
4.98749
5.01955
5.09442
5.21976
5.33774
4.91289
4.91191
4.91041
4.90912
4.91032
4.91827
4.94385
5.00522
5.10956
5.2151
4.894
4.8921
4.88974
4.88888
4.89065
4.8971
4.91488
4.9584
5.03946
5.13411
4.90774
4.90976
4.90967
4.90943
4.91157
4.91693
4.92891
4.95701
5.01231
5.08671
4.91744
4.91775
4.91607
4.91634
4.91999
4.9276
4.94139
4.96832
5.01887
5.09227
4.96604
4.96385
4.96195
4.96257
4.96931
4.9822
5.00236
5.03477
5.0841
5.14587
5.03114
5.03005
5.02818
5.02978
5.03551
5.04659
5.06458
5.09396
5.13973
5.21345
5.2112
5.20228
5.2005
5.20162
5.2093
5.22311
5.24336
5.2709
5.30256
5.33623
7.38017
7.37794
7.3766
7.37682
7.37855
7.38149
7.38577
7.39113
7.397
7.40241
6.91391
6.91468
6.91505
6.91511
6.915
6.91484
6.91505
6.91675
6.92168
6.92758
4.9823
4.97728
4.97247
4.97043
4.97209
4.98082
5.00714
5.07088
5.184
5.30157
4.89767
4.89786
4.89729
4.89673
4.89788
4.90406
4.92382
4.97334
5.06469
5.1707
4.87787
4.87688
4.87549
4.87495
4.87613
4.88047
4.89272
4.9244
4.98951
5.07938
4.88407
4.8857
4.88559
4.88547
4.88699
4.89072
4.89871
4.91744
4.95739
5.02228
4.88813
4.88898
4.88796
4.88802
4.89018
4.89474
4.90283
4.91864
4.95067
5.00771
4.92856
4.92767
4.92637
4.9267
4.93107
4.93934
4.95182
4.97081
4.99909
5.03974
4.99131
4.99188
4.99104
4.9919
4.99503
5.00102
5.01032
5.02491
5.04653
5.09331
5.19292
5.18623
5.18488
5.18574
5.1916
5.20174
5.21591
5.23384
5.25129
5.26841
7.14477
7.1432
7.14233
7.14248
7.14363
7.14575
7.14879
7.15245
7.15624
7.15953
6.69445
6.69514
6.69542
6.69547
6.69539
6.69527
6.69544
6.69676
6.70074
6.70599
4.97515
4.97209
4.96893
4.96762
4.96893
4.97566
4.99646
5.04897
5.14857
5.26463
4.88926
4.88996
4.88988
4.88974
4.89076
4.89539
4.91013
4.94867
5.02603
5.12987
4.87047
4.86984
4.869
4.86866
4.86943
4.87224
4.88042
4.90278
4.95339
5.03571
4.8727
4.87357
4.87333
4.87328
4.87446
4.87721
4.88268
4.89513
4.92337
4.97799
4.87362
4.87429
4.87361
4.8736
4.87499
4.8779
4.88287
4.89232
4.91262
4.95669
4.90825
4.90761
4.90661
4.90688
4.90993
4.9156
4.92381
4.93554
4.95216
4.97952
4.96753
4.96854
4.9683
4.96882
4.9706
4.97393
4.97871
4.9859
4.99527
5.02733
5.18185
5.17664
5.17565
5.1764
5.18095
5.18864
5.19888
5.21103
5.22066
5.2298
6.89681
6.89571
6.89512
6.89522
6.89602
6.8975
6.89956
6.90196
6.90431
6.90628
6.46323
6.46384
6.46406
6.46409
6.46403
6.46394
6.46405
6.46501
6.46804
6.47251
4.96971
4.96822
4.96636
4.9656
4.96656
4.97142
4.98699
5.02824
5.11276
5.22491
4.88485
4.88557
4.88566
4.88572
4.88655
4.88986
4.90029
4.92873
4.9911
5.08901
4.86752
4.86697
4.86645
4.86622
4.86666
4.86837
4.87353
4.88848
4.92582
4.99736
4.86776
4.86793
4.86756
4.86754
4.86845
4.87047
4.87421
4.88225
4.90135
4.9449
4.86717
4.86746
4.86694
4.86693
4.86787
4.8698
4.87294
4.8786
4.89118
4.92431
4.89745
4.8967
4.89588
4.89614
4.89835
4.90235
4.90797
4.9155
4.92548
4.94412
4.95275
4.95368
4.95378
4.95415
4.95523
4.95714
4.95958
4.96307
4.96633
4.98981
5.17484
5.17061
5.16988
5.17057
5.17417
5.18013
5.18773
5.19624
5.20154
5.20734
6.63649
6.63575
6.63536
6.63542
6.63596
6.63693
6.63827
6.63976
6.64115
6.64233
6.2204
6.22084
6.22099
6.221
6.22095
6.22088
6.22094
6.22158
6.22372
6.22729
4.96549
4.96523
4.96432
4.96395
4.96457
4.96775
4.97853
5.00881
5.07664
5.18062
4.88272
4.88318
4.88326
4.88338
4.884
4.88621
4.89308
4.91255
4.95939
5.04637
4.8666
4.86604
4.86569
4.86552
4.86572
4.86665
4.86965
4.87888
4.90441
4.96221
4.86585
4.86555
4.86513
4.86511
4.86577
4.86719
4.86965
4.8746
4.88669
4.91911
4.86467
4.86466
4.86425
4.86423
4.86486
4.86615
4.86814
4.87149
4.87899
4.90291
4.89118
4.89026
4.88957
4.88978
4.89137
4.89419
4.89804
4.90297
4.90914
4.92225
4.94203
4.94273
4.94301
4.94332
4.94402
4.94515
4.94639
4.94808
4.94842
4.96633
5.1693
5.16577
5.16522
5.16586
5.16874
5.1734
5.17913
5.18526
5.18812
5.19312
6.36414
6.36366
6.36341
6.36345
6.36378
6.36438
6.3652
6.36607
6.36684
6.36755
5.96607
5.9664
5.9665
5.96651
5.96647
5.96641
5.96643
5.9668
5.96815
5.97074
4.962
4.96262
4.96235
4.96224
4.96254
4.96432
4.97094
4.99099
5.04091
5.13045
4.88169
4.8818
4.88182
4.88193
4.88235
4.88371
4.88779
4.89978
4.93148
5.00193
4.86635
4.86576
4.86549
4.86535
4.86541
4.86583
4.86736
4.87245
4.88814
4.93027
4.86508
4.86458
4.86419
4.86415
4.86459
4.86551
4.86702
4.86984
4.87686
4.89901
4.86382
4.86365
4.86333
4.8633
4.86371
4.86453
4.86575
4.86767
4.87191
4.88831
4.88618
4.8852
4.88462
4.88477
4.88584
4.88773
4.89028
4.89346
4.89741
4.90722
4.932
4.93251
4.93287
4.93314
4.93361
4.9343
4.93493
4.93573
4.93484
4.94831
5.16281
5.15984
5.15938
5.15998
5.16226
5.1659
5.17025
5.17471
5.17617
5.1816
6.08029
6.08
6.07985
6.07987
6.08006
6.0804
6.08085
6.08131
6.0817
6.08214
5.70101
5.70124
5.7013
5.7013
5.70127
5.70123
5.70122
5.70138
5.7021
5.7037
4.95847
4.95954
4.95962
4.95964
4.9597
4.96041
4.96371
4.97494
5.00675
5.07418
4.88079
4.88071
4.88072
4.88079
4.88105
4.88178
4.88388
4.89018
4.90848
4.95765
4.86587
4.86527
4.86504
4.86492
4.86489
4.86503
4.86567
4.86806
4.87634
4.90295
4.86442
4.86394
4.86363
4.86358
4.86383
4.86436
4.86519
4.86663
4.87025
4.88386
4.86334
4.86316
4.86293
4.8629
4.86313
4.86359
4.86427
4.86528
4.86752
4.87798
4.88038
4.87948
4.87901
4.87908
4.87973
4.88086
4.88239
4.88429
4.88687
4.89461
4.92046
4.92086
4.92122
4.92144
4.92173
4.92211
4.92237
4.92269
4.92144
4.93043
5.1519
5.14944
5.14905
5.14958
5.15133
5.15409
5.15733
5.16047
5.16111
5.16726
5.78579
5.78563
5.78554
5.78555
5.78564
5.78581
5.78602
5.78622
5.78639
5.78666
5.42602
5.42632
5.42636
5.42636
5.42634
5.42631
5.42629
5.42633
5.42661
5.42736
4.95265
4.95355
4.95379
4.95385
4.95377
4.9538
4.95479
4.95931
4.97463
5.01357
4.87919
4.87915
4.87919
4.87923
4.87935
4.87968
4.88053
4.88308
4.89115
4.91762
4.86455
4.86397
4.86377
4.86368
4.86363
4.86364
4.86384
4.8647
4.86821
4.88197
4.8634
4.86305
4.86284
4.8628
4.86291
4.86316
4.86354
4.86415
4.86573
4.873
4.86259
4.86247
4.86233
4.86231
4.8624
4.86261
4.8629
4.86334
4.86438
4.87031
4.87287
4.8722
4.87189
4.8719
4.87221
4.87277
4.87352
4.87446
4.876
4.88187
4.906
4.90633
4.90662
4.90675
4.90685
4.90692
4.90688
4.90684
4.90581
4.91025
5.12811
5.12619
5.12588
5.12629
5.12753
5.12946
5.13167
5.13364
5.13373
5.14008
5.48162
5.48154
5.48152
5.48152
5.48155
5.48159
5.48165
5.4817
5.48175
5.48192
5.1416
5.14165
5.14166
5.14166
5.14166
5.14165
5.14163
5.14164
5.1417
5.1419
4.93501
4.93517
4.93555
4.9357
4.93562
4.93537
4.93515
4.93562
4.93876
4.95002
4.87548
4.87547
4.87544
4.87541
4.87544
4.87555
4.8758
4.87645
4.8785
4.88655
4.86233
4.8619
4.86177
4.86172
4.86169
4.86167
4.86169
4.86188
4.86288
4.86811
4.86194
4.86174
4.86164
4.86161
4.86165
4.86174
4.86186
4.86205
4.86254
4.86549
4.86135
4.86129
4.86125
4.86124
4.86127
4.86132
4.86138
4.86148
4.86181
4.86438
4.86511
4.86477
4.86463
4.86463
4.86474
4.86493
4.86518
4.86549
4.86616
4.86962
4.88786
4.88802
4.88818
4.88821
4.88814
4.88797
4.88771
4.88745
4.88699
4.8882
5.06477
5.06354
5.06333
5.06357
5.06426
5.06535
5.06658
5.06755
5.06741
5.07241
5.16795
5.16792
5.16793
5.16793
5.16793
5.16792
5.16791
5.16789
5.16785
5.16794
11.3744
11.4719
11.4126
11.187
88.2383
89.6334
89.6441
90.0587
148.756
153.056
152.713
150.716
206.451
214.156
212.914
207.235
266.274
277.569
275.184
266.465
332.279
347.649
344.648
335.026
390.966
410.335
407.319
398.541
424.865
447.755
445.598
439.197
336.771
356.86
354.928
352.045
11.3355
11.5599
11.4107
11.0357
9.75804
9.80718
9.80112
9.7488
82.3636
84.2743
84.3901
83.9187
140.946
149.792
149.796
146.42
198.507
217.16
216.195
208.572
260.551
291.065
288.835
277.443
332.546
377.379
375.51
361.699
399.86
459.6
459.38
445.002
443.253
516.43
519.203
506.125
347.181
412.32
413.145
406.325
10.6257
10.8435
10.7776
10.5506
8.77185
8.78011
8.77438
8.7587
28.9379
31.0486
29.9597
27.1157
52.1981
55.9559
53.6489
48.4282
76.8302
82.5464
78.5462
70.3447
105.16
113.241
107.119
95.1596
140.849
152.236
143.788
126.824
178.126
192.839
181.894
159.695
207.946
225.829
212.967
186.272
165.233
179.105
167.354
145.722
9.83266
9.91673
9.88833
9.78749
8.48947
8.48813
8.48563
8.48237
12.7272
12.8117
12.6291
12.3329
22.7762
23.1885
22.8438
22.1181
33.2987
34.329
33.6884
32.1236
45.5301
47.3457
46.1795
43.348
61.4892
64.4297
62.4856
57.8132
78.6754
82.6808
79.6679
72.8372
93.2165
98.3726
94.2698
85.2009
72.5855
76.4608
72.3184
64.4776
9.37465
9.41548
9.40955
9.37002
8.30501
8.30283
8.30054
8.29806
7.88864
7.91074
7.86374
7.77648
12.7422
12.8999
12.8492
12.6655
17.7891
18.21
18.1287
17.738
23.6007
24.3704
24.1739
23.4202
31.3885
32.6866
32.2829
30.9251
39.7699
41.5598
40.7853
38.6313
46.8193
49.1826
47.9616
44.8184
34.8209
36.5324
35.0173
32.02
9.03322
9.05509
9.05544
9.03976
8.15332
8.15103
8.14881
8.14664
6.26592
6.24324
6.20344
6.15845
8.27127
8.27363
8.23084
8.16471
10.6537
10.7485
10.7211
10.6186
13.455
13.695
13.6699
13.4843
17.3778
17.8661
17.8241
17.4676
21.565
22.2919
22.1534
21.538
24.9952
26.0318
25.7407
24.7298
17.7741
18.487
17.9756
16.917
8.75647
8.76712
8.76902
8.7641
8.00378
8.00141
7.99932
7.99751
5.75609
5.73523
5.7031
5.6668
6.46486
6.44296
6.40422
6.35846
7.4773
7.48373
7.45489
7.4067
8.75556
8.81825
8.80561
8.74725
10.7163
10.8917
10.9013
10.8054
12.8136
13.0993
13.1011
12.9368
14.5006
14.9505
14.9211
14.616
10.418
10.7038
10.5651
10.2432
8.51744
8.52202
8.52406
8.52377
7.84814
7.84571
7.84375
7.84232
5.56395
5.54701
5.51974
5.48787
5.76503
5.74342
5.71132
5.67535
6.13723
6.1221
6.09441
6.06287
6.65786
6.66228
6.64536
6.61896
7.57823
7.63115
7.6332
7.60388
8.58495
8.68446
8.69589
8.6556
9.43061
9.61606
9.63327
9.54668
7.46188
7.56894
7.54321
7.45988
8.29734
8.29887
8.30041
8.30164
7.68347
7.681
7.67919
7.67814
5.47295
5.45919
5.43514
5.40608
5.4834
5.46727
5.44136
5.41121
5.58816
5.57339
5.55082
5.52695
5.77547
5.76823
5.75276
5.73595
6.18673
6.2004
6.19653
6.18354
6.64733
6.67779
6.68147
6.67119
7.08716
7.16248
7.17698
7.15107
6.27708
6.31693
6.31601
6.2962
8.08135
8.08143
8.0824
8.08387
7.50869
7.50625
7.5046
7.50391
5.41888
5.40741
5.38559
5.35869
5.35433
5.34303
5.32165
5.29542
5.34842
5.33844
5.32089
5.30147
5.39674
5.39153
5.37971
5.36653
5.57647
5.5819
5.57744
5.5682
5.78757
5.79816
5.79805
5.79304
6.03336
6.06874
6.07693
6.06495
5.75115
5.76599
5.76848
5.76459
7.86206
7.86149
7.86205
7.86339
7.32318
7.32086
7.3194
7.31903
5.38028
5.37076
5.35077
5.32578
5.28476
5.27736
5.25939
5.23613
5.23154
5.22657
5.21311
5.19656
5.21991
5.21941
5.21112
5.19944
5.29179
5.29808
5.295
5.28629
5.39007
5.39745
5.39686
5.39167
5.54116
5.56365
5.56862
5.55886
5.48975
5.49441
5.49654
5.49737
7.63621
7.6354
7.63571
7.63684
7.12656
7.12445
7.1232
7.12307
5.34893
5.34136
5.32311
5.3
5.24036
5.23638
5.22127
5.20052
5.16681
5.16645
5.15638
5.14175
5.12789
5.1319
5.12645
5.11536
5.1464
5.15517
5.15361
5.1446
5.19069
5.19871
5.19866
5.19266
5.29434
5.31241
5.31599
5.30632
5.34899
5.34871
5.3502
5.3532
7.40206
7.40124
7.4014
7.40232
6.91852
6.91669
6.91566
6.91571
5.32104
5.3157
5.2993
5.27811
5.20706
5.20646
5.19405
5.17556
5.12509
5.129
5.12186
5.10851
5.07316
5.08086
5.07764
5.06666
5.0645
5.07526
5.07487
5.06542
5.08166
5.09028
5.09078
5.08441
5.16205
5.17778
5.1806
5.17101
5.2695
5.26624
5.26723
5.27176
7.15854
7.15784
7.15792
7.15862
6.69883
6.69735
6.69654
6.6967
5.29426
5.29162
5.27733
5.25808
5.17816
5.18118
5.17152
5.15502
5.09277
5.10059
5.09605
5.08348
5.03459
5.04494
5.0434
5.0324
5.01272
5.02439
5.0247
5.01505
5.01639
5.0246
5.02537
5.01933
5.08662
5.10019
5.10238
5.09328
5.22355
5.21824
5.21884
5.22456
6.90495
6.90443
6.90447
6.90497
6.46736
6.46625
6.46565
6.46584
5.26635
5.26695
5.25511
5.23776
5.14948
5.15638
5.14959
5.13472
5.06253
5.07366
5.07136
5.05922
5.00216
5.01388
5.01349
5.00265
4.97538
4.98665
4.98724
4.97793
4.97337
4.98006
4.98081
4.97584
5.04022
5.05143
5.05298
5.04484
5.19683
5.19019
5.19048
5.19698
6.64083
6.64054
6.64056
6.64086
6.22407
6.22334
6.22293
6.22308
5.2343
5.23859
5.22955
5.214
5.11738
5.12812
5.12415
5.11043
5.02994
5.0432
5.04268
5.03089
4.97124
4.98278
4.98302
4.97286
4.94507
4.95464
4.95516
4.94697
4.94239
4.94671
4.94723
4.94396
5.00822
5.01695
5.01792
5.01112
5.18118
5.17407
5.17412
5.18079
6.36602
6.36596
6.36598
6.3661
5.96923
5.96884
5.96857
5.96863
5.19378
5.2017
5.19573
5.18198
5.07808
5.09182
5.09029
5.07729
4.99261
5.00611
5.00669
4.99569
4.94044
4.95011
4.9505
4.94191
4.91879
4.92557
4.9258
4.91961
4.91852
4.92015
4.92033
4.91908
4.98202
4.98844
4.98899
4.98375
5.17101
5.1645
5.16442
5.17041
6.08066
6.08081
6.08083
6.08079
5.70351
5.70336
5.7032
5.70317
5.1392
5.14964
5.14675
5.13516
5.02842
5.04291
5.04294
5.03076
4.95088
4.96212
4.963
4.95384
4.91083
4.91721
4.91739
4.91139
4.89611
4.8996
4.8995
4.89593
4.89917
4.89853
4.89835
4.89887
4.95586
4.9604
4.96073
4.95701
5.16044
5.15586
5.15578
5.15997
5.78531
5.78562
5.78565
5.78549
5.42803
5.42798
5.42788
5.42781
5.06542
5.07561
5.0754
5.0671
4.96847
4.98002
4.98034
4.97041
4.90923
4.91587
4.91633
4.91042
4.8855
4.88809
4.88794
4.88511
4.87818
4.87882
4.87848
4.87742
4.88292
4.88113
4.88069
4.88205
4.92642
4.9294
4.92965
4.92731
5.13834
5.13709
5.13711
5.1383
5.48086
5.48132
5.48135
5.48108
5.14306
5.14292
5.14285
5.14285
4.9714
4.97691
4.978
4.97461
4.90672
4.91168
4.91152
4.90672
4.87645
4.87812
4.87794
4.87582
4.8683
4.86825
4.86792
4.86749
4.86643
4.8658
4.86542
4.86558
4.86995
4.86843
4.86791
4.86888
4.89498
4.89632
4.89648
4.89549
5.07423
5.07647
5.07657
5.07452
5.16749
5.16803
5.16804
5.16768
10.1938
9.392
9.04607
8.91768
8.8401
8.78563
8.74957
8.72822
8.71797
8.71338
107.377
50.6668
36.4081
29.9813
24.3128
19.6578
16.1066
13.5114
11.678
10.3615
162.778
71.6157
51.1872
43.0949
36.2235
30.4233
25.6961
21.9754
19.0832
16.8304
203.401
81.7355
55.3761
45.3114
37.6283
31.0962
25.8213
21.7208
18.5799
16.2015
235.857
86.5225
57.5457
45.8858
37.6693
30.5071
24.861
20.5565
17.3124
14.9465
270.04
91.7444
59.3568
45.8302
36.9993
29.2387
23.3442
18.9726
15.7962
13.5616
296.115
94.8239
59.8773
44.985
35.8413
27.7641
21.8386
17.5585
14.5316
12.479
302.179
90.4914
54.9882
39.6773
31.0197
23.4347
18.22
14.6424
12.2864
10.7359
213.654
53.7961
29.4052
19.8174
15.0643
11.4147
9.43858
8.28342
7.59106
7.13962
9.55178
9.49141
9.33674
9.30409
9.25799
9.23313
9.21415
9.20363
9.1962
9.18942
9.36674
9.03898
8.8755
8.77973
8.71718
8.67514
8.64807
8.63226
8.62445
8.62134
55.4208
30.1652
23.6637
20.0993
17.0361
14.4006
12.2941
10.7205
9.58985
8.80113
90.9374
47.0937
36.5283
31.2896
27.1647
23.3581
20.1212
17.5029
15.4278
13.8521
120.25
58.1661
42.7868
35.2142
29.8441
25.0087
21.043
17.9218
15.5074
13.7354
148.449
67.3423
47.1704
37.5184
31.0639
25.3776
20.8931
17.4696
14.8722
13.0389
180.998
76.9076
51.1807
39.1141
31.526
25.0277
20.1265
16.5099
13.88
12.0951
209.743
84.0401
53.5522
39.5716
31.2606
24.2788
19.2087
15.5836
13.0166
11.3376
224.55
84.2929
50.8509
35.8866
27.6192
20.9042
16.3321
13.2386
11.2082
9.92668
160.977
52.9077
28.1602
18.4382
13.8152
10.6208
8.87863
7.87102
7.26276
6.89029
9.75174
9.43972
9.27286
9.20834
9.15531
9.12429
9.10225
9.08852
9.07853
9.06992
8.71188
8.66339
8.6228
8.58756
8.55961
8.53968
8.52704
8.52017
8.51741
8.51702
21.0266
17.4823
15.254
13.2626
11.5335
10.1106
9.02912
8.25639
7.71062
7.32799
36.5835
29.3144
25.4488
22.0916
19.198
16.7035
14.6717
13.0669
11.8024
10.8477
50.5665
37.7744
31.4794
26.2299
22.0495
18.6008
15.897
13.8202
12.2272
11.0694
64.5745
44.9528
36.1389
29.0292
23.706
19.4621
16.2582
13.8768
12.0869
10.8352
80.904
52.3446
40.4553
31.2348
24.7415
19.7176
16.0704
13.4501
11.5682
10.3054
96.0922
58.0422
43.2902
32.3215
25.0406
19.529
15.6642
12.9761
11.0941
9.87404
105.319
58.793
41.8046
29.8653
22.5132
17.1555
13.6303
11.3139
9.80957
8.86382
73.96
35.8913
23.1429
15.5438
11.6382
9.28354
8.02128
7.28833
6.8355
6.5551
9.49994
9.31299
9.18266
9.10479
9.0508
9.01789
8.99515
8.97944
8.96756
8.95741
8.47371
8.45826
8.44089
8.42476
8.41239
8.40428
8.39982
8.3982
8.39872
8.40046
11.673
10.7978
9.86578
8.91242
8.09158
7.45938
7.00931
6.70253
6.48783
6.33285
20.4746
18.579
16.6952
14.7636
13.0653
11.6635
10.5603
9.7118
9.05069
8.55221
28.5081
24.7235
21.3466
18.1287
15.4748
13.3561
11.7304
10.5062
9.57883
8.90979
36.7064
30.3959
25.303
20.7075
17.1289
14.3715
12.33
10.8454
9.74176
8.97243
46.5083
36.5354
29.2484
22.9994
18.3993
14.9674
12.5171
10.7942
9.57186
8.75449
55.7095
41.5233
32.105
24.4118
19.0574
15.1724
12.492
10.6692
9.40368
8.58064
61.4319
42.8177
31.619
23.0533
17.5222
13.6928
11.2146
9.61932
8.58455
7.9261
41.8225
25.7331
17.4518
12.3233
9.66676
8.14196
7.29647
6.79095
6.46599
6.26034
9.25966
9.12699
9.02347
8.95725
8.91282
8.88414
8.86356
8.84863
8.83714
8.82754
8.29486
8.28867
8.28171
8.27545
8.271
8.26856
8.26787
8.26867
8.27076
8.27357
7.5647
7.25462
6.93406
6.61696
6.33889
6.121
5.96658
5.86357
5.79118
5.73579
12.1834
11.429
10.6201
9.79338
9.0387
8.40498
7.90931
7.53505
7.24276
7.01837
16.7291
15.2265
13.6671
12.1212
10.7644
9.65675
8.80729
8.17666
7.70188
7.3594
21.5503
19.0137
16.5021
14.1094
12.1192
10.5628
9.41492
8.59376
7.98383
7.55571
27.5916
23.441
19.5754
16.0657
13.3098
11.2386
9.76421
8.74131
8.01633
7.52855
33.3591
27.2866
21.9992
17.4459
14.077
11.6366
9.95845
8.83117
8.04318
7.52277
37.0047
28.7057
22.1254
16.878
13.2977
10.8484
9.26521
8.24977
7.58009
7.14394
24.1669
17.077
12.5237
9.70112
8.16252
7.25488
6.71666
6.38023
6.15295
6.00626
8.99227
8.91326
8.8452
8.79772
8.7637
8.73957
8.72134
8.70752
8.69668
8.68775
8.14528
8.14166
8.13724
8.13338
8.13091
8.12996
8.13029
8.13175
8.13428
8.13742
6.06831
5.95485
5.84302
5.7276
5.61964
5.53349
5.47522
5.44038
5.41802
5.39957
8.00573
7.74295
7.45392
7.1484
6.85638
6.60887
6.42032
6.28299
6.17342
6.08441
10.331
9.79215
9.16861
8.50676
7.8912
7.38066
6.99272
6.70911
6.49421
6.33699
12.9602
12.0133
10.9219
9.80304
8.81952
8.04262
7.4747
7.07362
6.7702
6.55243
16.487
14.8311
12.9941
11.2113
9.7373
8.62088
7.82799
7.27977
6.88448
6.614
19.9383
17.4133
14.741
12.3072
10.4181
9.04471
8.09904
7.46317
7.0062
6.69613
22.1821
18.5579
15.0787
12.1881
10.1286
8.71846
7.79629
7.19532
6.78515
6.51017
14.311
11.445
9.30465
7.92785
7.10911
6.59336
6.26259
6.04556
5.89095
5.7899
8.74484
8.70172
8.6605
8.62813
8.60265
8.58294
8.5673
8.55497
8.5451
8.53709
7.99731
7.99466
7.99085
7.98748
7.98542
7.98473
7.98519
7.98664
7.9891
7.99218
5.59798
5.52128
5.45299
5.38447
5.32118
5.27276
5.24323
5.22907
5.22238
5.21607
6.26536
6.1523
6.04617
5.9336
5.82194
5.72833
5.66208
5.61848
5.58237
5.54902
7.29141
7.10038
6.87509
6.61553
6.35868
6.14221
5.98
5.86351
5.77353
5.70564
8.57798
8.24384
7.81957
7.34696
6.90973
6.56076
6.30761
6.12988
5.98948
5.88466
10.4939
9.85135
9.05543
8.2313
7.52118
6.97767
6.58929
6.31713
6.11319
5.97002
12.4331
11.3995
10.1658
8.98446
8.03326
7.33512
6.84816
6.5142
6.26175
6.084
13.7539
12.1881
10.5167
9.07534
8.00913
7.26688
6.76688
6.42936
6.18761
6.02045
9.45162
8.37708
7.46618
6.83001
6.40821
6.12064
5.92153
5.78452
5.68142
5.61366
8.51723
8.4948
8.47036
8.44854
8.42977
8.41416
8.4012
8.39063
8.38196
8.37505
7.84306
7.84098
7.83734
7.83402
7.83195
7.83118
7.83146
7.83266
7.83484
7.83765
5.42783
5.35949
5.29917
5.24072
5.18908
5.15154
5.13034
5.12183
5.11933
5.11647
5.60705
5.53666
5.47881
5.41943
5.36152
5.31609
5.28876
5.27521
5.26394
5.25064
6.00249
5.92784
5.84109
5.7304
5.61454
5.51698
5.44678
5.39875
5.36123
5.33167
6.55738
6.44948
6.29495
6.10059
5.91041
5.75747
5.64837
5.5728
5.50938
5.45945
7.50306
7.27475
6.95767
6.60018
6.27821
6.02731
5.84529
5.71444
5.61108
5.53643
8.50259
8.11276
7.59388
7.066
6.62445
6.29322
6.05576
5.88708
5.7506
5.65027
9.25257
8.6145
7.8823
7.21999
6.70837
6.33951
6.07967
5.89587
5.75665
5.65743
7.23626
6.84324
6.46324
6.16834
5.95151
5.79197
5.67355
5.58831
5.52043
5.47586
8.29988
8.28801
8.27334
8.25874
8.24522
8.23328
8.22293
8.21421
8.20689
8.20114
7.67968
7.67803
7.6745
7.67119
7.66905
7.66815
7.66822
7.66913
7.67096
7.67344
5.35135
5.28663
5.22802
5.17194
5.12395
5.09019
5.07172
5.06469
5.06307
5.06105
5.35403
5.29457
5.24522
5.1963
5.15155
5.11921
5.10242
5.09671
5.09263
5.08603
5.48531
5.44163
5.39166
5.32657
5.25957
5.20582
5.17017
5.148
5.13098
5.1168
5.70458
5.66202
5.59411
5.50075
5.4079
5.33505
5.28561
5.25278
5.22327
5.19853
6.14431
6.06003
5.92839
5.76701
5.61698
5.49898
5.41269
5.34907
5.29577
5.25611
6.62422
6.48363
6.2719
6.04096
5.84016
5.68555
5.57126
5.4867
5.41263
5.35552
7.043
6.78859
6.48102
6.18639
5.94775
5.76822
5.63562
5.53703
5.45766
5.39935
6.2268
6.07364
5.90994
5.76992
5.65759
5.56897
5.49891
5.44627
5.40175
5.37274
8.08369
8.07725
8.06839
8.05879
8.04929
8.04046