/*--------------------------------*- C++ -*----------------------------------*\
| =========                 |                                                 |
| \\      /  F ield         | foam-extend: Open Source CFD                    |
|  \\    /   O peration     | Version:     4.0                                |
|   \\  /    A nd           | Web:         http://www.foam-extend.org         |
|    \\/     M anipulation  |                                                 |
\*---------------------------------------------------------------------------*/
FoamFile
{
    version     2.0;
    format      ascii;
    class       volScalarField;
    location    "500";
    object      MaU;
}
// * * * * * * * * * * * * * * * * * * * * * * * * * * * * * * * * * * * * * //

dimensions      [0 0 0 0 0 0 0];

internalField   nonuniform List<scalar> 
34480
(
0.601253
0.602609
0.603481
0.60396
0.604069
0.603756
0.602892
0.600767
0.595203
0.589829
0.60316
0.604706
0.605745
0.606259
0.606139
0.605295
0.603725
0.601112
0.594333
0.589603
0.605018
0.606561
0.607564
0.608014
0.607796
0.607021
0.605829
0.60411
0.597673
0.594121
0.604879
0.606527
0.607685
0.608386
0.608549
0.608362
0.607875
0.607144
0.601453
0.599015
0.605026
0.606883
0.608281
0.609327
0.609952
0.610381
0.610589
0.610843
0.606241
0.604862
0.604274
0.606315
0.607916
0.609216
0.610191
0.611108
0.611928
0.613143
0.609964
0.609916
0.604206
0.606491
0.608287
0.609801
0.611035
0.612309
0.613638
0.615742
0.614203
0.615416
0.603758
0.60614
0.607932
0.609341
0.610435
0.611601
0.613029
0.615674
0.615788
0.618546
0.604248
0.606702
0.608522
0.609942
0.611031
0.612188
0.613765
0.616908
0.618484
0.621507
0.601122
0.603307
0.604352
0.604362
0.603487
0.602212
0.601159
0.601903
0.603266
0.608817
0.592325
0.594032
0.594853
0.594891
0.594083
0.592158
0.588492
0.581704
0.571427
0.557784
0.595279
0.597222
0.598266
0.598445
0.597608
0.595417
0.591238
0.583621
0.571037
0.555266
0.597855
0.599779
0.600832
0.60105
0.600225
0.598108
0.594154
0.586933
0.573875
0.557642
0.598405
0.600404
0.601592
0.602047
0.601568
0.599975
0.59664
0.590148
0.5771
0.561111
0.599102
0.601257
0.602646
0.603418
0.603365
0.602366
0.599719
0.594118
0.581512
0.566264
0.598767
0.60107
0.602643
0.60366
0.603946
0.603452
0.601451
0.596816
0.585051
0.571132
0.599037
0.601536
0.603282
0.60451
0.605061
0.604968
0.603543
0.59988
0.589294
0.576966
0.598785
0.601363
0.603114
0.604272
0.604752
0.60468
0.603516
0.600609
0.591396
0.58118
0.59934
0.601951
0.603726
0.604908
0.605436
0.605468
0.604617
0.602466
0.594723
0.585737
0.596271
0.598685
0.599926
0.600099
0.599236
0.597587
0.595027
0.591562
0.584394
0.578943
0.585299
0.587035
0.587777
0.587666
0.586671
0.584628
0.581223
0.57591
0.567928
0.557417
0.588515
0.590612
0.591623
0.591622
0.590529
0.588089
0.58373
0.576471
0.564743
0.549036
0.591283
0.593433
0.594503
0.594583
0.593525
0.591031
0.586423
0.578487
0.564464
0.544613
0.59226
0.594509
0.59571
0.595994
0.595196
0.593023
0.588644
0.580596
0.564825
0.541465
0.593355
0.595748
0.597128
0.597692
0.597245
0.595526
0.591572
0.583779
0.566879
0.540813
0.59336
0.595891
0.597445
0.598243
0.598096
0.596802
0.593317
0.586014
0.568557
0.540673
0.593915
0.596613
0.598327
0.599333
0.599439
0.598517
0.59551
0.588842
0.571374
0.54236
0.593857
0.596624
0.598357
0.599326
0.599401
0.598547
0.595816
0.589762
0.572742
0.543344
0.594496
0.597268
0.59902
0.600013
0.600126
0.59938
0.596975
0.591644
0.575502
0.545152
0.591537
0.594129
0.595484
0.595724
0.594811
0.592837
0.589258
0.583171
0.567717
0.538203
0.580011
0.581502
0.582098
0.581935
0.581011
0.57926
0.576564
0.572784
0.56778
0.561798
0.583007
0.584983
0.585892
0.585797
0.584662
0.582339
0.578506
0.57268
0.564269
0.554338
0.585613
0.58775
0.588754
0.588713
0.58753
0.58498
0.580567
0.573546
0.562615
0.548976
0.586772
0.589056
0.590187
0.590292
0.589238
0.586764
0.582185
0.574463
0.561227
0.543771
0.588104
0.590546
0.591837
0.592166
0.591351
0.589127
0.584634
0.576595
0.561448
0.540472
0.588364
0.59095
0.592404
0.592934
0.592346
0.590399
0.586103
0.578027
0.561398
0.537418
0.589148
0.59189
0.593489
0.594212
0.593836
0.592172
0.588151
0.580252
0.562644
0.5362
0.589267
0.592074
0.593704
0.594413
0.594026
0.592417
0.588561
0.580949
0.562898
0.534633
0.58997
0.59277
0.594417
0.595159
0.594819
0.593295
0.589621
0.582443
0.56462
0.534263
0.587132
0.589772
0.591145
0.591351
0.590297
0.587931
0.583473
0.575717
0.558254
0.527136
0.576175
0.577337
0.577783
0.577642
0.576935
0.575662
0.573821
0.571445
0.568589
0.565417
0.578712
0.580421
0.581201
0.581102
0.580123
0.578208
0.575214
0.57098
0.565409
0.559438
0.580895
0.582864
0.583771
0.583689
0.582566
0.580273
0.576521
0.570967
0.563177
0.554532
0.581998
0.584171
0.585206
0.585208
0.584086
0.581651
0.577444
0.570883
0.56085
0.549118
0.583374
0.585741
0.586927
0.587093
0.586091
0.583696
0.57927
0.572005
0.559877
0.544928
0.583756
0.586293
0.587638
0.587967
0.587105
0.584817
0.580309
0.572592
0.558596
0.540537
0.584674
0.587376
0.588859
0.589355
0.588649
0.586523
0.582057
0.57412
0.558609
0.537679
0.584912
0.587689
0.589216
0.589715
0.589002
0.58689
0.582437
0.574446
0.557896
0.534494
0.585647
0.588423
0.589969
0.590504
0.589835
0.587789
0.583406
0.575496
0.558573
0.532502
0.58292
0.585555
0.586918
0.58708
0.585919
0.583296
0.578385
0.569988
0.553012
0.525262
0.57337
0.574228
0.574543
0.574443
0.573956
0.57311
0.571939
0.57051
0.568878
0.567027
0.575445
0.576833
0.577475
0.577407
0.576651
0.575204
0.573023
0.570065
0.566388
0.562581
0.577113
0.578811
0.579593
0.579512
0.578552
0.576658
0.5737
0.569565
0.564217
0.558649
0.57801
0.57995
0.580859
0.580809
0.579748
0.577566
0.57401
0.568826
0.561633
0.55391
0.579277
0.581448
0.582502
0.582561
0.581511
0.579197
0.575215
0.569148
0.560067
0.549884
0.579666
0.582041
0.583251
0.58343
0.582431
0.580067
0.57578
0.569002
0.558077
0.545294
0.580624
0.583188
0.584534
0.584848
0.583939
0.581607
0.577156
0.569864
0.557284
0.541892
0.580916
0.583574
0.584979
0.585303
0.584375
0.582
0.577409
0.56978
0.555901
0.538067
0.581651
0.584327
0.585756
0.586117
0.585219
0.582872
0.578247
0.570432
0.555809
0.535334
0.579013
0.58157
0.582884
0.582993
0.581764
0.579019
0.574013
0.565747
0.550781
0.52843
0.571258
0.571879
0.572096
0.572033
0.571723
0.571196
0.570488
0.569655
0.568714
0.56755
0.572978
0.574059
0.574574
0.574546
0.574009
0.572985
0.571465
0.569431
0.566933
0.564318
0.574148
0.575535
0.576184
0.576128
0.575371
0.573908
0.571695
0.568715
0.565052
0.561329
0.57477
0.576409
0.577175
0.577112
0.576193
0.574375
0.571546
0.567636
0.5626
0.557458
0.575829
0.577721
0.578626
0.578623
0.577635
0.575571
0.572217
0.567414
0.560855
0.553969
0.576136
0.578261
0.57932
0.579396
0.578382
0.576145
0.572347
0.566728
0.558563
0.549696
0.577058
0.5794
0.580593
0.580772
0.57978
0.577462
0.573346
0.56705
0.557333
0.546348
0.577338
0.579799
0.581062
0.581252
0.58022
0.577797
0.573423
0.566606
0.555572
0.542494
0.578045
0.580551
0.581846
0.58207
0.58105
0.578609
0.574112
0.566941
0.55502
0.539691
0.575468
0.577878
0.57911
0.579168
0.577924
0.575201
0.570402
0.562798
0.550371
0.533378
0.569596
0.570051
0.570198
0.570164
0.569976
0.569662
0.569246
0.568764
0.568203
0.567408
0.571105
0.571925
0.57233
0.572337
0.57198
0.571287
0.570253
0.568845
0.567062
0.565105
0.57185
0.572935
0.573455
0.573429
0.572871
0.571798
0.570204
0.56809
0.565529
0.562901
0.572198
0.573512
0.574134
0.574078
0.573337
0.571908
0.56976
0.566901
0.563391
0.559882
0.573
0.57457
0.57532
0.575289
0.574428
0.572699
0.570016
0.566362
0.561713
0.557033
0.57317
0.57499
0.575887
0.575902
0.574958
0.572979
0.569796
0.565339
0.559402
0.553297
0.574006
0.576063
0.577093
0.577179
0.576203
0.574058
0.570469
0.565284
0.558023
0.550308
0.574216
0.576414
0.577523
0.577616
0.576576
0.574274
0.570351
0.564565
0.556119
0.546754
0.574877
0.577152
0.5783
0.578422
0.577371
0.575008
0.570894
0.564673
0.555352
0.544249
0.572334
0.574536
0.575659
0.575672
0.574468
0.571894
0.567522
0.560887
0.551011
0.538609
0.568232
0.568576
0.568677
0.568661
0.568551
0.56837
0.56813
0.567851
0.567502
0.566928
0.569662
0.570274
0.570591
0.570621
0.570397
0.569942
0.569242
0.568245
0.5669
0.565326
0.570074
0.570892
0.571296
0.571295
0.570907
0.570152
0.569034
0.567542
0.565699
0.563734
0.57019
0.571195
0.571681
0.57164
0.571077
0.570005
0.568435
0.566392
0.563933
0.561459
0.570729
0.571971
0.57257
0.572532
0.571827
0.570452
0.568395
0.565701
0.562439
0.559224
0.570742
0.572232
0.572969
0.572951
0.57213
0.570474
0.567923
0.564514
0.560275
0.556085
0.571464
0.573203
0.574066
0.574095
0.573202
0.57133
0.568345
0.564241
0.558942
0.553589
0.57156
0.573454
0.574402
0.574431
0.573454
0.571391
0.568041
0.563336
0.557049
0.550472
0.572171
0.574171
0.575164
0.575216
0.574209
0.572048
0.568466
0.56331
0.556247
0.548413
0.569638
0.571585
0.572578
0.572561
0.571444
0.569116
0.565304
0.559767
0.55218
0.543407
0.567081
0.567352
0.567423
0.567418
0.567355
0.567252
0.567115
0.566951
0.566724
0.566295
0.568535
0.568987
0.569233
0.569276
0.569142
0.568847
0.56837
0.567639
0.566568
0.565231
0.568697
0.569291
0.569596
0.569613
0.569355
0.568842
0.568071
0.567013
0.565643
0.564095
0.568644
0.569375
0.569741
0.569718
0.569309
0.568536
0.567423
0.565987
0.564249
0.562445
0.568938
0.569875
0.570336
0.570302
0.569753
0.568706
0.567186
0.565251
0.562979
0.560743
0.5688
0.569969
0.570553
0.570523
0.569847
0.568523
0.566557
0.564029
0.561047
0.55818
0.569407
0.57082
0.571523
0.57152
0.57075
0.569193
0.566811
0.563671
0.559877
0.556206
0.569357
0.57093
0.571716
0.571707
0.570843
0.569081
0.566339
0.562653
0.558081
0.553546
0.569929
0.57163
0.572465
0.572474
0.571564
0.569683
0.566695
0.562583
0.557367
0.551965
0.567388
0.569052
0.569905
0.569868
0.568875
0.566856
0.563662
0.559216
0.553552
0.547501
0.566099
0.566322
0.566374
0.566375
0.56634
0.566282
0.566203
0.566104
0.565951
0.565627
0.567651
0.567978
0.568167
0.568213
0.568137
0.567947
0.567616
0.56706
0.566172
0.564993
0.567624
0.568036
0.56826
0.568285
0.56812
0.56778
0.567255
0.566497
0.565446
0.564175
0.567469
0.567972
0.568239
0.568228
0.567944
0.567406
0.566636
0.565638
0.564397
0.563043
0.56755
0.568221
0.568563
0.568537
0.568129
0.567361
0.566271
0.564913
0.563341
0.561773
0.567284
0.568159
0.568607
0.568576
0.568046
0.567029
0.565564
0.563739
0.561671
0.559725
0.567792
0.568896
0.56945
0.569434
0.568803
0.567562
0.565727
0.563395
0.560727
0.558249
0.567577
0.568834
0.569466
0.569438
0.56871
0.56727
0.565108
0.562313
0.559057
0.555999
0.568135
0.569533
0.570217
0.570202
0.569421
0.567853
0.565454
0.562285
0.558518
0.554874
0.565574
0.566947
0.567656
0.56761
0.566763
0.56508
0.562501
0.559053
0.554928
0.550845
0.565272
0.565461
0.565499
0.565502
0.565483
0.565451
0.565405
0.565344
0.565238
0.564994
0.566967
0.567193
0.567335
0.567379
0.567337
0.567215
0.56698
0.566546
0.56579
0.564728
0.566784
0.567049
0.567207
0.567233
0.567132
0.566912
0.566557
0.566009
0.565185
0.564112
0.566593
0.566914
0.5671
0.567099
0.566908
0.566544
0.566022
0.565336
0.564443
0.563407
0.566494
0.566945
0.567189
0.567171
0.566879
0.566334
0.565574
0.56464
0.563563
0.562467
0.566132
0.566756
0.567088
0.567062
0.566662
0.565909
0.564849
0.563563
0.56215
0.560853
0.566567
0.567395
0.567819
0.567799
0.567305
0.566353
0.564985
0.563298
0.561455
0.559823
0.566176
0.56714
0.567633
0.567599
0.567013
0.565882
0.564234
0.562177
0.559904
0.557899
0.56676
0.567871
0.568413
0.56839
0.567748
0.566494
0.564635
0.562267
0.559601
0.557196
0.564168
0.565259
0.565832
0.565785
0.565091
0.56374
0.561728
0.559139
0.556202
0.553503
0.564594
0.564759
0.564786
0.564791
0.56478
0.564763
0.564736
0.564698
0.564623
0.564442
0.566461
0.566603
0.566706
0.566743
0.566721
0.566642
0.566472
0.566128
0.56548
0.564515
0.566127
0.566275
0.566378
0.566401
0.566341
0.566201
0.565963
0.565567
0.564914
0.563999
0.565961
0.566142
0.566266
0.56627
0.566146
0.565906
0.565558
0.56509
0.564449
0.563654
0.56571
0.565988
0.566155
0.566144
0.565942
0.565567
0.565049
0.564419
0.563692
0.562942
0.565286
0.565706
0.565945
0.565925
0.565635
0.565095
0.564349
0.563462
0.562514
0.561682
0.565678
0.566273
0.566588
0.566571
0.566199
0.565494
0.564503
0.563313
0.562063
0.56103
0.565103
0.565812
0.566184
0.566152
0.565699
0.564842
0.563625
0.562154
0.560598
0.559337
0.565764
0.566618
0.567035
0.567011
0.566507
0.565541
0.564147
0.562428
0.560577
0.559031
0.563131
0.563965
0.564412
0.564371
0.563823
0.562779
0.561261
0.559376
0.557328
0.555579
0.564068
0.564213
0.564232
0.564237
0.564232
0.564222
0.564207
0.564183
0.56413
0.563999
0.566124
0.566195
0.566264
0.566293
0.566282
0.56623
0.566107
0.565834
0.565283
0.564409
0.565617
0.565671
0.565731
0.565748
0.565713
0.565626
0.565469
0.565185
0.564674
0.563898
0.565534
0.565612
0.56569
0.565696
0.565617
0.565461
0.565234
0.564918
0.564464
0.563866
0.565151
0.565302
0.56541
0.565404
0.565268
0.565016
0.564671
0.564255
0.563775
0.563292
0.5647
0.564964
0.565129
0.565116
0.564913
0.564536
0.564023
0.563423
0.5628
0.562307
0.565075
0.565483
0.565709
0.565696
0.565427
0.564921
0.564224
0.563404
0.562573
0.561964
0.564305
0.564804
0.565075
0.565048
0.564712
0.564085
0.563213
0.562187
0.561143
0.560401
0.565108
0.565742
0.566052
0.566033
0.565652
0.564936
0.563924
0.562708
0.561447
0.560485
0.562412
0.563024
0.563363
0.563329
0.562914
0.562135
0.561027
0.559693
0.558294
0.557185
0.563693
0.563821
0.563834
0.563838
0.563835
0.56383
0.563821
0.563806
0.563771
0.563677
0.565957
0.565969
0.56601
0.56603
0.566025
0.56599
0.565901
0.56569
0.565233
0.564453
0.565228
0.56521
0.565236
0.565246
0.565226
0.565172
0.565071
0.564874
0.564487
0.563848
0.565286
0.565292
0.565338
0.565343
0.565295
0.565195
0.565047
0.564838
0.564526
0.564102
0.564789
0.564849
0.564916
0.564912
0.564823
0.564657
0.564432
0.564161
0.563857
0.563584
0.564338
0.564489
0.5646
0.564593
0.564454
0.564198
0.563852
0.563453
0.563054
0.562809
0.564713
0.564976
0.565134
0.565125
0.564937
0.564586
0.564108
0.563554
0.563016
0.562703
0.563734
0.564067
0.564259
0.564238
0.563998
0.563554
0.562945
0.562247
0.561559
0.561174
0.564752
0.565207
0.565432
0.565417
0.565141
0.564628
0.563916
0.563078
0.562237
0.561661
0.561952
0.562383
0.562632
0.562605
0.562303
0.561742
0.560958
0.560042
0.559105
0.558419
0.563443
0.563557
0.563565
0.563569
0.563567
0.563565
0.56356
0.563551
0.563528
0.563463
0.565968
0.565934
0.565953
0.565966
0.565963
0.565939
0.565877
0.56572
0.565357
0.564683
0.564942
0.564872
0.564875
0.564878
0.564866
0.564833
0.56477
0.564641
0.564367
0.563873
0.565201
0.565163
0.565186
0.56519
0.56516
0.565096
0.565001
0.564866
0.564665
0.564399
0.564607
0.564609
0.564649
0.564647
0.564589
0.564482
0.564336
0.564163
0.56398
0.563873
0.564181
0.564256
0.564329
0.564325
0.564234
0.564063
0.563834
0.563573
0.563323
0.563254
0.564554
0.564712
0.564817
0.564811
0.564683
0.564447
0.564129
0.563765
0.563426
0.563314
0.563351
0.563561
0.563693
0.563679
0.563512
0.563208
0.562794
0.56233
0.561883
0.56173
0.564667
0.564983
0.56514
0.565129
0.564937
0.564583
0.564098
0.563536
0.562987
0.562658
0.561673
0.561962
0.562139
0.56212
0.561908
0.561518
0.56098
0.56037
0.559753
0.559343
0.563235
0.563332
0.563336
0.563338
0.563338
0.563337
0.563335
0.56333
0.563319
0.563273
0.566178
0.566114
0.566118
0.566124
0.566122
0.566105
0.566062
0.565953
0.565686
0.565137
0.564757
0.564658
0.564647
0.564646
0.564638
0.564618
0.56458
0.564502
0.564328
0.563992
0.565271
0.565208
0.565215
0.565217
0.565197
0.565157
0.565098
0.565015
0.5649
0.564779
0.564605
0.564576
0.564598
0.564597
0.564561
0.564492
0.564399
0.564291
0.564188
0.564206
0.564226
0.564254
0.5643
0.564298
0.564238
0.564128
0.56398
0.563812
0.56366
0.563705
0.564578
0.564661
0.564726
0.56472
0.564635
0.564482
0.564277
0.564047
0.563844
0.563858
0.563156
0.563281
0.56337
0.56336
0.563249
0.563046
0.562772
0.562469
0.562181
0.562165
0.56485
0.56506
0.565164
0.565155
0.565026
0.56479
0.564472
0.564107
0.563761
0.56358
0.561445
0.56163
0.561752
0.561738
0.561594
0.561333
0.560975
0.560581
0.56018
0.55995
0.562837
0.562914
0.562915
0.562916
0.562917
0.562917
0.562918
0.562918
0.562916
0.562886
0.566641
0.566565
0.566558
0.566559
0.566555
0.566543
0.566515
0.566448
0.566277
0.56588
0.564713
0.56461
0.564595
0.564593
0.564587
0.564574
0.564551
0.564508
0.564416
0.564243
0.565481
0.565408
0.565403
0.565399
0.565385
0.56536
0.565326
0.565284
0.565236
0.565241
0.564789
0.564748
0.564758
0.564755
0.564731
0.564689
0.564632
0.564568
0.564518
0.564614
0.564474
0.564475
0.5645
0.564496
0.564458
0.564389
0.564297
0.564195
0.564109
0.56421
0.564775
0.564807
0.56484
0.564831
0.564776
0.56468
0.564556
0.564421
0.564313
0.564393
0.563228
0.563301
0.563359
0.563352
0.563279
0.563148
0.562972
0.562778
0.562592
0.562632
0.565354
0.565482
0.565545
0.565535
0.565449
0.565297
0.565098
0.564874
0.564671
0.564577
0.561045
0.561157
0.561239
0.561228
0.561132
0.560962
0.56073
0.560482
0.560222
0.560106
0.56192
0.56196
0.561961
0.561962
0.561962
0.561963
0.561964
0.561964
0.561966
0.561945
0.567477
0.5674
0.567377
0.567365
0.567356
0.567347
0.567335
0.56731
0.567239
0.567029
0.564915
0.564836
0.564827
0.564825
0.564819
0.564808
0.564792
0.564768
0.56473
0.564696
0.565801
0.565727
0.565708
0.565695
0.565681
0.565667
0.565653
0.565642
0.565646
0.565742
0.565143
0.565102
0.565099
0.565092
0.565074
0.565048
0.565018
0.564987
0.564974
0.565098
0.5649
0.564887
0.564894
0.564885
0.564858
0.564816
0.564764
0.564711
0.564674
0.564785
0.565135
0.565134
0.565142
0.565129
0.56509
0.565031
0.564961
0.564893
0.564853
0.564956
0.563737
0.563785
0.563821
0.563814
0.563764
0.563679
0.563568
0.563448
0.563329
0.563362
0.566316
0.566378
0.566408
0.566394
0.566335
0.566237
0.566116
0.56599
0.565895
0.565867
0.560195
0.560265
0.560318
0.560307
0.560243
0.56013
0.55998
0.559824
0.559651
0.559599
0.560498
0.560529
0.560536
0.56054
0.56054
0.560537
0.56053
0.560521
0.560509
0.560481
0.568717
0.568621
0.568571
0.568538
0.568519
0.56851
0.568512
0.568527
0.568553
0.568561
0.565429
0.565396
0.565395
0.565391
0.565383
0.56537
0.565352
0.565331
0.565309
0.565335
0.566181
0.566111
0.566081
0.566059
0.566043
0.566032
0.566028
0.566036
0.566069
0.566193
0.565616
0.565579
0.565565
0.565551
0.565534
0.565516
0.5655
0.565491
0.565501
0.565605
0.565438
0.565417
0.565409
0.565395
0.565372
0.565343
0.565313
0.56529
0.565289
0.565378
0.565612
0.565594
0.565587
0.565569
0.565538
0.565497
0.565454
0.565423
0.565426
0.565525
0.56471
0.564749
0.56477
0.564761
0.564723
0.564661
0.564585
0.564506
0.564432
0.564431
0.567753
0.567761
0.567768
0.56775
0.567703
0.567632
0.56755
0.567478
0.567456
0.567522
0.559019
0.559074
0.559109
0.559099
0.559048
0.558964
0.558857
0.558747
0.558627
0.558597
0.423946
0.40322
0.409458
0.449539
0.376427
0.352931
0.36286
0.41921
0.335421
0.307967
0.323805
0.401618
0.299574
0.269726
0.292112
0.392317
0.270175
0.239336
0.269111
0.387533
0.244813
0.214015
0.252302
0.381036
0.224138
0.194892
0.241618
0.378544
0.204503
0.178519
0.233898
0.376713
0.187168
0.167101
0.230665
0.378632
0.168412
0.156259
0.226757
0.374872
0.481486
0.471144
0.471186
0.480553
0.450814
0.437762
0.438284
0.450315
0.421785
0.40458
0.405969
0.42268
0.394939
0.37345
0.376006
0.39764
0.372193
0.346085
0.34938
0.375945
0.351897
0.320744
0.323619
0.354993
0.335432
0.299218
0.301444
0.337676
0.320176
0.279084
0.280435
0.321493
0.307667
0.262493
0.262972
0.308417
0.293727
0.246081
0.243943
0.29195
0.546381
0.543978
0.543319
0.544389
0.52685
0.522832
0.521861
0.52393
0.50806
0.501788
0.500607
0.504581
0.487742
0.479068
0.4778
0.484132
0.468373
0.457189
0.455929
0.464921
0.448718
0.434847
0.433567
0.445275
0.431058
0.414433
0.41312
0.427592
0.413561
0.394286
0.392911
0.410011
0.398296
0.377241
0.375796
0.394767
0.381018
0.360372
0.358173
0.376501
0.558249
0.557005
0.556585
0.556958
0.546192
0.544483
0.543811
0.544109
0.534976
0.532143
0.531188
0.531959
0.521694
0.517529
0.516331
0.51783
0.508507
0.502856
0.501466
0.503974
0.494032
0.486751
0.4852
0.488964
0.480443
0.471465
0.4698
0.475032
0.466064
0.455453
0.453734
0.460537
0.452712
0.441103
0.43941
0.447482
0.436486
0.425934
0.423949
0.431419
0.564737
0.564004
0.563754
0.563994
0.556088
0.555322
0.554951
0.554965
0.548886
0.54761
0.547011
0.547063
0.539947
0.537958
0.53709
0.537275
0.530974
0.528093
0.526954
0.527418
0.520532
0.516608
0.515213
0.516126
0.510588
0.505535
0.503931
0.505481
0.49956
0.493396
0.491662
0.494014
0.489163
0.482331
0.480612
0.483729
0.475872
0.470247
0.468391
0.470837
0.567042
0.566446
0.566264
0.566507
0.560561
0.560077
0.559846
0.559868
0.555542
0.554807
0.554446
0.554452
0.549239
0.548152
0.547604
0.547581
0.542955
0.541384
0.540608
0.540591
0.535295
0.533103
0.532077
0.532136
0.528072
0.525165
0.523902
0.524143
0.519787
0.516146
0.51471
0.515264
0.512083
0.508003
0.506558
0.507505
0.501419
0.498551
0.497015
0.497194
0.5679
0.567373
0.567224
0.567464
0.56288
0.562529
0.562366
0.562394
0.559316
0.558832
0.558599
0.558616
0.554704
0.554043
0.553699
0.55367
0.550114
0.549197
0.548701
0.54862
0.544265
0.542994
0.542309
0.542192
0.538878
0.537175
0.53629
0.53618
0.532576
0.530411
0.529358
0.529336
0.527087
0.52464
0.523555
0.523709
0.518404
0.517159
0.516006
0.515313
0.567962
0.567477
0.567345
0.567574
0.56393
0.563639
0.563507
0.563536
0.561411
0.56105
0.560881
0.560906
0.558049
0.557603
0.557372
0.557358
0.554661
0.554081
0.553758
0.553696
0.550093
0.549314
0.548867
0.548755
0.545999
0.544965
0.544377
0.544229
0.541125
0.539812
0.539098
0.538956
0.537313
0.535835
0.535078
0.534986
0.529976
0.529699
0.528908
0.527949
0.567647
0.567199
0.567077
0.567289
0.564316
0.564063
0.563946
0.563969
0.562547
0.562257
0.562122
0.562144
0.560138
0.559812
0.559644
0.559639
0.55766
0.557271
0.557051
0.55701
0.554093
0.553595
0.5533
0.553219
0.550998
0.550353
0.549968
0.54985
0.547188
0.546381
0.545912
0.545777
0.544542
0.543649
0.543143
0.542998
0.538137
0.538433
0.537923
0.536935
0.567165
0.566751
0.566637
0.566827
0.564342
0.564118
0.56401
0.564024
0.563109
0.562866
0.562749
0.562765
0.561439
0.561188
0.561056
0.561054
0.559658
0.559384
0.559228
0.559202
0.556896
0.556567
0.556369
0.556315
0.554617
0.554207
0.553955
0.55387
0.551621
0.551124
0.55082
0.550714
0.549805
0.549272
0.548942
0.548801
0.544059
0.544682
0.544369
0.543428
0.566637
0.566258
0.566149
0.566314
0.564206
0.564005
0.563903
0.563909
0.563342
0.563134
0.56303
0.56304
0.562257
0.562057
0.561951
0.56195
0.561006
0.560809
0.560695
0.560679
0.558897
0.558678
0.558543
0.558507
0.55729
0.557032
0.556866
0.556805
0.554913
0.554616
0.55442
0.554335
0.553726
0.553423
0.553211
0.553081
0.548443
0.549243
0.549058
0.548182
0.566134
0.565788
0.565683
0.565823
0.564027
0.563846
0.563749
0.56375
0.563402
0.563221
0.563128
0.563134
0.56279
0.562629
0.562542
0.562543
0.561935
0.561794
0.561711
0.561703
0.560353
0.560213
0.560122
0.560097
0.559301
0.55915
0.559043
0.558994
0.55738
0.55722
0.557097
0.55702
0.556694
0.556547
0.556413
0.556285
0.551729
0.552611
0.552507
0.551699
0.565695
0.565381
0.56528
0.565394
0.563885
0.56372
0.563629
0.563628
0.563389
0.563231
0.563148
0.563156
0.563175
0.563047
0.562976
0.562982
0.562605
0.562509
0.562451
0.56245
0.561444
0.561366
0.561309
0.561287
0.560846
0.560777
0.560712
0.560664
0.559235
0.559177
0.559104
0.559023
0.558969
0.558933
0.55885
0.558716
0.554215
0.555116
0.555062
0.554321
0.565341
0.565055
0.564957
0.565048
0.563834
0.56368
0.563596
0.563601
0.563372
0.563232
0.56316
0.563177
0.563511
0.56341
0.563355
0.563369
0.563129
0.563074
0.563037
0.563039
0.562299
0.562275
0.562243
0.562219
0.562064
0.562063
0.562028
0.561972
0.560629
0.560652
0.560612
0.560518
0.560737
0.560784
0.560735
0.560589
0.556109
0.556986
0.556961
0.556288
0.565074
0.564811
0.564717
0.564789
0.563916
0.563769
0.563694
0.563712
0.563396
0.563271
0.563212
0.563243
0.563866
0.563791
0.563754
0.563776
0.563591
0.563574
0.563557
0.563559
0.563014
0.563039
0.563027
0.562993
0.563052
0.563111
0.563098
0.563025
0.561669
0.561758
0.561741
0.561626
0.562138
0.562247
0.562222
0.56206
0.557562
0.558382
0.558373
0.557773
0.564869
0.564622
0.564533
0.564593
0.564171
0.564028
0.563964
0.564002
0.563495
0.563384
0.563342
0.563392
0.564292
0.564245
0.564225
0.564254
0.564055
0.564076
0.564075
0.56407
0.56366
0.563732
0.563735
0.563683
0.563882
0.563994
0.563997
0.563901
0.562436
0.562579
0.562577
0.562436
0.563286
0.563442
0.563432
0.563256
0.558667
0.559401
0.5594
0.55888
0.564629
0.564392
0.564311
0.564369
0.564652
0.564512
0.564461
0.564524
0.563706
0.563614
0.563589
0.563657
0.564823
0.564808
0.564804
0.564833
0.564563
0.564624
0.564636
0.564614
0.56429
0.564405
0.564418
0.564341
0.564603
0.564763
0.564776
0.564652
0.563011
0.563195
0.563201
0.563034
0.56429
0.564476
0.564476
0.564292
0.559435
0.560058
0.560059
0.559627
0.564116
0.563889
0.56382
0.563884
0.565452
0.565321
0.565286
0.565373
0.564087
0.564022
0.564016
0.564091
0.56546
0.565484
0.565496
0.565513
0.565134
0.565234
0.565254
0.565206
0.564929
0.56508
0.565098
0.564993
0.56525
0.565444
0.565463
0.565314
0.563518
0.563723
0.563731
0.563547
0.565292
0.565489
0.565496
0.565315
0.55974
0.560226
0.560226
0.559893
0.562946
0.562743
0.562695
0.562764
0.566735
0.566634
0.566621
0.566718
0.564715
0.56469
0.564698
0.564756
0.566141
0.566211
0.566235
0.566226
0.565723
0.565855
0.565879
0.565802
0.565544
0.565716
0.565736
0.56561
0.565815
0.566023
0.566045
0.565887
0.564135
0.564328
0.564335
0.564159
0.56652
0.56671
0.566723
0.566563
0.559345
0.559659
0.559656
0.559441
0.561096
0.56098
0.560959
0.561
0.568537
0.568509
0.568528
0.568605
0.56551
0.565534
0.565549
0.565562
0.566683
0.566788
0.566818
0.566781
0.566188
0.566326
0.566348
0.566262
0.566014
0.566173
0.566192
0.566079
0.566228
0.566411
0.566433
0.566302
0.564918
0.565058
0.565063
0.564938
0.568133
0.568306
0.568325
0.568202
0.558367
0.558459
0.558456
0.5584
0.572148
0.579862
0.584188
0.587424
0.59062
0.593432
0.595739
0.597591
0.599109
0.600442
0.569803
0.572495
0.580339
0.585624
0.590382
0.594017
0.596749
0.598822
0.600414
0.601737
0.573346
0.56927
0.580598
0.586415
0.591909
0.595706
0.598537
0.600672
0.60228
0.603571
0.576664
0.565843
0.580439
0.586104
0.592032
0.595706
0.598487
0.600554
0.602112
0.603386
0.580767
0.564044
0.581127
0.586436
0.592656
0.596093
0.598801
0.600776
0.602256
0.603481
0.583513
0.561431
0.580746
0.585413
0.591915
0.595087
0.597783
0.599729
0.601262
0.602587
0.587174
0.560182
0.581396
0.585198
0.591908
0.594794
0.597499
0.59943
0.600999
0.602379
0.588461
0.557238
0.580385
0.583363
0.590451
0.593189
0.596087
0.598169
0.600004
0.601693
0.590039
0.556179
0.581282
0.583176
0.590543
0.592973
0.596111
0.5983
0.60026
0.602082
0.575321
0.541603
0.569076
0.571557
0.580784
0.584735
0.589428
0.592802
0.595723
0.598266
0.517481
0.539046
0.555109
0.566453
0.574187
0.579591
0.583528
0.586512
0.588869
0.590878
0.501076
0.530776
0.55244
0.566103
0.574927
0.58099
0.585366
0.588632
0.591125
0.593089
0.491132
0.527599
0.55327
0.567845
0.57719
0.583478
0.587983
0.591311
0.593798
0.595709
0.483469
0.525006
0.553533
0.568345
0.577975
0.584253
0.588713
0.591972
0.594396
0.596264
0.47938
0.524304
0.554672
0.56943
0.579215
0.58535
0.589701
0.592846
0.595174
0.596973
0.476338
0.523179
0.55487
0.569235
0.579112
0.585039
0.589303
0.592376
0.594702
0.596551
0.475838
0.523455
0.556108
0.569811
0.579699
0.585354
0.589534
0.592543
0.594866
0.59674
0.474873
0.522411
0.555937
0.568893
0.578885
0.584344
0.588583
0.59167
0.594176
0.596283
0.475277
0.522938
0.557443
0.569322
0.579243
0.584357
0.588719
0.591894
0.594502
0.596742
0.466729
0.513724
0.548882
0.560445
0.571426
0.577535
0.582998
0.58703
0.590334
0.593005
0.548206
0.554527
0.560585
0.565864
0.570329
0.574058
0.577161
0.579754
0.581965
0.583906
0.532331
0.543443
0.553495
0.561766
0.568443
0.573743
0.577931
0.58126
0.583933
0.586077
0.519735
0.536248
0.550206
0.560842
0.569037
0.575266
0.580029
0.583704
0.586557
0.588777
0.507694
0.529469
0.547082
0.559612
0.568918
0.575695
0.580734
0.584543
0.587461
0.58971
0.498422
0.524885
0.545654
0.559577
0.569651
0.576708
0.581851
0.585675
0.588582
0.590809
0.489924
0.5204
0.543884
0.558749
0.56935
0.576519
0.581702
0.585527
0.58846
0.590737
0.484102
0.517829
0.543572
0.558954
0.569877
0.577017
0.582185
0.585986
0.58893
0.591234
0.47852
0.514781
0.542486
0.558092
0.569258
0.576344
0.581565
0.585438
0.58852
0.591001
0.474994
0.513719
0.543205
0.558554
0.569686
0.576567
0.581865
0.58581
0.588973
0.591561
0.46559
0.505529
0.536105
0.551464
0.563315
0.570903
0.576966
0.581531
0.585183
0.588009
0.557845
0.560494
0.56349
0.566419
0.569134
0.571581
0.573753
0.575674
0.577402
0.578993
0.546128
0.550958
0.556444
0.561665
0.566288
0.57024
0.57357
0.576372
0.578732
0.580697
0.535939
0.543824
0.552079
0.559411
0.5656
0.570685
0.574821
0.578177
0.580894
0.583079
0.524674
0.536219
0.547517
0.556897
0.56446
0.570418
0.575112
0.578824
0.581771
0.584099
0.514681
0.530165
0.54448
0.555668
0.564356
0.570947
0.576004
0.579921
0.582991
0.585378
0.504516
0.523991
0.541183
0.553886
0.563472
0.570509
0.575816
0.579876
0.583056
0.585535
0.496315
0.519623
0.539443
0.553317
0.563573
0.57088
0.576337
0.580477
0.583726
0.586259
0.488208
0.515083
0.537298
0.552043
0.562814
0.570296
0.575897
0.580154
0.583539
0.586222
0.482058
0.512565
0.536959
0.552102
0.56309
0.57058
0.576293
0.580633
0.584085
0.586852
0.471955
0.504897
0.530583
0.546098
0.557718
0.565758
0.572018
0.576804
0.580598
0.583464
0.564097
0.565159
0.566475
0.567879
0.569299
0.570686
0.572009
0.573256
0.574453
0.575628
0.555596
0.557694
0.560423
0.563332
0.566163
0.568782
0.571147
0.573257
0.575123
0.576742
0.548202
0.551699
0.556061
0.560505
0.564657
0.568354
0.57156
0.574303
0.576626
0.578569
0.5393
0.544739
0.551137
0.557275
0.562744
0.567411
0.571319
0.574566
0.577248
0.579434
0.530824
0.538657
0.547324
0.55516
0.561844
0.567331
0.57179
0.575405
0.578338
0.580676
0.521475
0.532037
0.543082
0.552523
0.560289
0.566454
0.571352
0.575259
0.578406
0.580902
0.513372
0.526861
0.54027
0.551132
0.559806
0.566489
0.571714
0.575828
0.579126
0.581723
0.505011
0.521521
0.537219
0.549288
0.558707
0.565787