/*--------------------------------*- C++ -*----------------------------------*\
| =========                 |                                                 |
| \\      /  F ield         | foam-extend: Open Source CFD                    |
|  \\    /   O peration     | Version:     4.0                                |
|   \\  /    A nd           | Web:         http://www.foam-extend.org         |
|    \\/     M anipulation  |                                                 |
\*---------------------------------------------------------------------------*/
FoamFile
{
    version     2.0;
    format      ascii;
    class       volScalarField;
    location    "500";
    object      p;
}
// * * * * * * * * * * * * * * * * * * * * * * * * * * * * * * * * * * * * * //

dimensions      [1 -1 -2 0 0 0 0];

internalField   nonuniform List<scalar> 
34480
(
110333
110212
110148
110134
110183
110321
110611
111224
112095
112297
110113
109990
109925
109904
109943
110067
110337
110914
111824
111571
109853
109723
109656
109624
109644
109731
109950
110444
111331
110467
109680
109539
109459
109404
109390
109422
109575
109959
110764
109276
109511
109348
109249
109166
109115
109093
109182
109456
110148
108079
109445
109270
109152
109048
108968
108905
108938
109104
109652
107024
109276
109078
108942
108818
108718
108627
108618
108693
109079
105960
109281
109080
108941
108827
108744
108672
108661
108677
108887
105277
109093
108891
108751
108643
108577
108531
108525
108497
108506
104499
109143
108951
108861
108852
108927
109064
109254
109407
109426
104947
110954
110818
110757
110759
110838
111009
111307
111794
112562
113579
110690
110544
110479
110480
110560
110744
111078
111665
112726
114209
110410
110255
110188
110179
110247
110413
110740
111359
112633
114443
110219
110051
109968
109937
109978
110106
110398
110990
112381
114395
110041
109851
109750
109691
109699
109782
110025
110560
111999
114111
109967
109764
109644
109564
109544
109587
109782
110241
111669
113765
109793
109570
109433
109331
109290
109300
109453
109837
111209
113234
109794
109568
109426
109330
109296
109313
109454
109778
111050
112919
109607
109381
109236
109140
109108
109133
109270
109554
110677
112434
109651
109434
109327
109306
109377
109530
109795
110189
111266
112824
111430
111310
111260
111274
111357
111521
111782
112158
112665
113257
111177
111036
110978
110993
111092
111290
111616
112114
112884
113837
110907
110750
110689
110699
110796
111001
111357
111942
112969
114307
110711
110537
110460
110453
110535
110726
111087
111713
112940
114624
110529
110333
110240
110208
110267
110430
110775
111404
112777
114749
110447
110238
110127
110076
110113
110248
110569
111172
112638
114820
110267
110039
109914
109844
109860
109969
110263
110831
112343
114679
110262
110033
109901
109833
109853
109962
110249
110785
112286
114694
110077
109846
109712
109641
109655
109761
110037
110555
111988
114479
110112
109888
109779
109762
109847
110038
110393
110981
112380
114865
111772
111680
111643
111656
111724
111849
112032
112272
112555
112831
111566
111444
111395
111413
111504
111674
111937
112300
112781
113279
111338
111192
111135
111150
111249
111445
111762
112232
112944
113741
111158
110988
110916
110918
111013
111216
111569
112123
113061
114179
110987
110792
110703
110687
110767
110960
111328
111932
113063
114496
110905
110695
110590
110557
110621
110801
111169
111795
113085
114797
110726
110497
110378
110329
110378
110539
110900
111531
112938
114901
110719
110487
110362
110313
110363
110526
110887
111518
112991
115146
110534
110301
110173
110122
110168
110326
110680
111314
112789
115146
110560
110333
110223
110209
110304
110520
110926
111609
113072
115563
112018
111955
111929
111940
111989
112074
112193
112338
112493
112630
111868
111772
111734
111750
111823
111956
112148
112395
112685
112952
111697
111570
111521
111537
111626
111793
112050
112398
112855
113308
111544
111389
111324
111332
111426
111616
111925
112371
113021
113709
111394
111210
111129
111124
111212
111409
111753
112275
113112
114054
111320
111118
111021
111003
111083
111279
111646
112221
113230
114424
111147
110926
110816
110783
110854
111043
111419
112030
113188
114629
111141
110915
110798
110766
110838
111032
111420
112057
113325
114984
110960
110732
110613
110577
110647
110838
111229
111891
113212
115110
110980
110756
110648
110639
110742
110973
111398
112101
113438
115523
112201
112160
112144
112151
112183
112237
112309
112392
112476
112543
112101
112031
112003
112016
112069
112164
112295
112455
112626
112770
111988
111886
111846
111860
111932
112064
112258
112504
112793
113052
111868
111735
111679
111689
111773
111936
112188
112528
112965
113383
111746
111582
111510
111511
111597
111779
112078
112501
113094
113697
111686
111501
111414
111405
111491
111684
112018
112510
113259
114061
111525
111318
111218
111199
111280
111476
111835
112381
113276
114287
111524
111311
111204
111184
111269
111474
111854
112445
113463
114673
111350
111131
111022
111000
111084
111290
111681
112310
113410
114850
111367
111152
111049
111044
111150
111384
111801
112467
113603
115221
112345
112319
112310
112314
112334
112366
112408
112455
112500
112534
112283
112235
112215
112224
112261
112325
112410
112509
112609
112689
112223
112144
112113
112124
112179
112277
112415
112583
112766
112918
112135
112026
111980
111989
112058
112190
112385
112633
112925
113183
112043
111903
111842
111845
111923
112079
112324
112652
113065
113454
112000
111837
111761
111759
111842
112017
112304
112704
113247
113782
111854
111667
111580
111569
111653
111840
112160
112623
113292
113991
111863
111668
111573
111562
111651
111851
112200
112716
113501
114363
111696
111494
111396
111383
111473
111678
112044
112604
113477
114532
111714
111514
111418
111417
111522
111747
112134
112729
113646
114844
112464
112448
112443
112445
112457
112475
112499
112525
112550
112568
112429
112397
112383
112389
112413
112454
112507
112567
112626
112670
112411
112353
112330
112338
112377
112446
112541
112652
112766
112856
112350
112265
112228
112235
112290
112390
112533
112709
112902
113064
112287
112172
112122
112127
112192
112320
112510
112754
113039
113292
112263
112125
112061
112062
112136
112286
112521
112833
113220
113580
112133
111971
111896
111892
111970
112138
112409
112784
113275
113757
112155
111983
111900
111896
111981
112165
112469
112898
113487
114096
111997
111816
111729
111723
111812
112004
112328
112802
113470
114224
112019
111838
111752
111754
111852
112059
112403
112908
113621
114480
112566
112557
112554
112555
112561
112572
112586
112600
112613
112623
112547
112526
112517
112520
112535
112561
112593
112629
112664
112689
112562
112521
112504
112509
112536
112583
112646
112717
112788
112842
112520
112456
112428
112433
112474
112547
112649
112770
112897
112999
112484
112394
112354
112358
112410
112509
112652
112828
113022
113187
112476
112365
112312
112315
112377
112500
112684
112919
113190
113432
112363
112227
112165
112164
112233
112375
112596
112888
113241
113573
112400
112254
112183
112183
112260
112420
112673
113016
113449
113873
112250
112093
112019
112017
112099
112269
112544
112928
113426
113953
112279
112121
112046
112049
112139
112321
112613
113025
113563
114164
112655
112649
112648
112648
112652
112658
112665
112673
112681
112686
112643
112630
112624
112626
112635
112650
112670
112691
112711
112726
112683
112655
112643
112645
112663
112694
112734
112780
112824
112857
112653
112606
112585
112589
112617
112669
112739
112821
112904
112969
112639
112570
112540
112543
112582
112656
112760
112884
113015
113122
112646
112558
112516
112519
112569
112665
112804
112976
113164
113325
112547
112436
112386
112387
112445
112560
112733
112953
113203
113430
112600
112479
112421
112423
112490
112623
112825
113089
113401
113692
112457
112324
112262
112263
112335
112479
112703
113003
113366
113728
112494
112361
112297
112302
112379
112533
112773
113096
113492
113904
112732
112728
112728
112728
112730
112733
112737
112742
112746
112749
112721
112712
112708
112709
112714
112723
112735
112748
112760
112769
112779
112760
112751
112752
112763
112783
112809
112838
112865
112885
112753
112720
112704
112706
112726
112761
112809
112864
112918
112960
112758
112707
112684
112686
112715
112768
112841
112927
113014
113085
112775
112708
112676
112679
112717
112789
112891
113014
113143
113250
112688
112601
112561
112563
112609
112699
112830
112991
113166
113319
112757
112661
112615
112618
112672
112778
112935
113132
113353
113550
112618
112509
112460
112462
112521
112639
112815
113042
113301
113546
112667
112558
112506
112510
112575
112700
112889
113136
113420
113698
112796
112794
112793
112793
112794
112796
112798
112801
112803
112805
112780
112775
112771
112771
112774
112780
112787
112795
112803
112809
112853
112840
112834
112834
112841
112853
112869
112887
112905
112917
112826
112802
112791
112791
112804
112828
112860
112896
112932
112960
112844
112808
112791
112792
112812
112850
112900
112958
113016
113063
112869
112819
112795
112797
112825
112878
112951
113037
113124
113196
112790
112724
112694
112695
112731
112798
112894
113010
113130
113233
112876
112802
112766
112769
112812
112894
113011
113154
113308
113439
112737
112651
112612
112614
112662
112754
112888
113055
113237
113401
112800
112714
112672
112676
112728
112826
112971
113153
113353
113538
112846
112844
112844
112844
112844
112845
112847
112848
112849
112850
112820
112817
112814
112814
112816
112819
112823
112828
112834
112838
112907
112898
112893
112893
112897
112905
112915
112926
112937
112945
112872
112856
112847
112847
112855
112871
112892
112916
112940
112959
112903
112877
112865
112865
112879
112904
112939
112978
113016
113047
112931
112895
112878
112879
112899
112936
112987
113046
113105
113153
112859
112810
112787
112788
112814
112864
112932
113013
113094
113164
112960
112906
112878
112881
112913
112974
113059
113160
113266
113352
112818
112752
112722
112724
112760
112830
112928
113048
113173
113283
112897
112831
112799
112802
112842
112917
113024
113154
113292
113414
112880
112879
112879
112879
112879
112879
112880
112881
112882
112882
112840
112838
112836
112835
112836
112838
112841
112845
112848
112852
112941
112935
112932
112931
112934
112938
112945
112952
112959
112964
112895
112883
112877
112876
112882
112892
112906
112922
112937
112952
112936
112918
112909
112909
112918
112935
112958
112984
113009
113030
112965
112940
112927
112927
112941
112967
113002
113042
113082
113113
112897
112862
112845
112846
112865
112899
112947
113002
113057
113104
113015
112976
112956
112958
112981
113025
113085
113155
113226
113283
112864
112814
112792
112794
112821
112871
112941
113025
113110
113183
112962
112914
112890
112892
112922
112976
113053
113144
113237
113317
112899
112898
112898
112898
112898
112898
112898
112899
112899
112899
112838
112836
112835
112834
112834
112836
112838
112841
112844
112847
112956
112952
112950
112950
112951
112954
112958
112962
112967
112970
112895
112887
112882
112881
112884
112891
112900
112911
112922
112933
112944
112932
112926
112926
112932
112943
112958
112975
112992
113006
112972
112955
112946
112946
112955
112973
112996
113023
113050
113071
112909
112885
112873
112874
112886
112910
112942
112979
113015
113048
113044
113016
113002
113003
113020
113050
113092
113139
113187
113223
112878
112842
112827
112828
112847
112882
112931
112988
113044
113093
113002
112968
112950
112952
112973
113012
113065
113127
113189
113240
112905
112904
112904
112904
112904
112904
112905
112905
112905
112905
112812
112810
112809
112808
112808
112809
112811
112813
112816
112820
112953
112950
112949
112949
112949
112951
112954
112957
112960
112961
112873
112867
112864
112863
112865
112869
112875
112883
112890
112899
112929
112921
112917
112917
112920
112927
112937
112949
112960
112970
112955
112943
112937
112937
112943
112954
112970
112988
113006
113021
112898
112882
112874
112875
112883
112899
112920
112944
112967
112989
113049
113031
113021
113022
113033
113053
113081
113112
113145
113167
112864
112839
112828
112828
112841
112865
112898
112936
112972
113006
113025
113002
112990
112991
113005
113032
113068
113108
113149
113181
112911
112910
112910
112910
112910
112910
112910
112910
112910
112909
112759
112757
112756
112755
112755
112756
112757
112760
112762
112767
112929
112928
112927
112926
112927
112928
112930
112932
112934
112935
112831
112827
112825
112825
112826
112828
112832
112837
112841
112848
112891
112886
112883
112883
112885
112889
112895
112903
112910
112917
112913
112905
112901
112901
112905
112912
112922
112933
112945
112956
112866
112856
112851
112852
112857
112867
112880
112895
112909
112923
113028
113017
113010
113010
113018
113031
113049
113069
113091
113105
112820
112803
112796
112797
112805
112821
112842
112866
112888
112912
113046
113030
113022
113023
113033
113050
113074
113099
113126
113144
112943
112943
112943
112943
112943
112943
112943
112943
112942
112941
112672
112670
112670
112670
112670
112670
112671
112673
112675
112680
112879
112879
112878
112878
112878
112879
112880
112881
112883
112883
112770
112769
112769
112769
112770
112771
112773
112775
112777
112780
112830
112827
112826
112826
112827
112830
112833
112837
112841
112846
112848
112844
112841
112842
112844
112848
112854
112861
112867
112874
112813
112808
112806
112806
112810
112816
112824
112832
112838
112846
112971
112963
112959
112959
112964
112973
112984
112997
113011
113020
112739
112729
112725
112726
112732
112742
112754
112768
112781
112797
113088
113079
113073
113074
113080
113091
113107
113123
113140
113150
113036
113036
113036
113036
113036
113036
113036
113036
113035
113035
112541
112541
112543
112544
112545
112546
112546
112545
112544
112547
112794
112793
112793
112793
112793
112794
112795
112796
112797
112798
112698
112700
112702
112703
112704
112705
112705
112704
112703
112702
112751
112750
112751
112751
112753
112754
112756
112757
112758
112759
112765
112764
112763
112764
112766
112769
112772
112775
112777
112779
112742
112741
112741
112742
112745
112748
112753
112756
112757
112758
112861
112855
112853
112853
112857
112862
112870
112878
112886
112892
112607
112603
112602
112603
112607
112614
112622
112629
112634
112640
113175
113169
113165
113166
113171
113179
113189
113199
113211
113216
113149
113147
113146
113146
113146
113146
113147
113149
113150
113153
112381
112388
112394
112397
112399
112400
112399
112397
112392
112387
112682
112681
112681
112681
112682
112683
112685
112687
112689
112692
112623
112627
112630
112632
112634
112635
112635
112634
112631
112626
112664
112666
112667
112669
112670
112672
112673
112673
112672
112669
112675
112676
112677
112679
112680
112683
112685
112686
112686
112682
112661
112662
112663
112664
112667
112670
112673
112676
112675
112669
112715
112711
112710
112710
112713
112718
112724
112730
112736
112739
112441
112442
112441
112443
112447
112452
112459
112464
112465
112457
113262
113257
113254
113255
113259
113266
113274
113283
113292
113295
124195
125405
125255
124058
127000
128403
128036
126523
129590
131178
130628
128769
131482
133196
132463
130344
132895
134696
133886
131591
134016
135878
135174
132780
134771
136665
136091
133626
135477
137373
136954
134443
135345
137210
136925
134418
134994
136849
136801
134436
114934
115128
115178
115078
116962
117336
117410
117153
118946
119502
119582
119123
120823
121548
121621
120933
122527
123393
123442
122529
124151
125133
125158
124066
125495
126565
126567
125328
126850
127983
127973
126629
127543
128713
128703
127307
128177
129392
129431
128070
113775
113867
113899
113879
114940
115113
115159
115103
116202
116474
116536
116424
117480
117859
117933
117747
118714
119200
119277
118998
120006
120596
120675
120290
121131
121814
121888
121392
122372
123134
123201
122598
123105
123915
123979
123286
123883
124737
124820
124073
112950
112975
112989
112992
113595
113653
113678
113676
114387
114497
114536
114520
115277
115452
115510
115470
116165
116414
116488
116411
117152
117480
117568
117440
118023
118429
118526
118336
119063
119540
119642
119383
119699
120227
120336
120017
120426
121000
121130
120773
112678
112689
112696
112698
113078
113104
113118
113121
113576
113630
113654
113655
114187
114276
114315
114313
114815
114948
115002
114991
115548
115732
115801
115774
116183
116421
116503
116450
117007
117297
117390
117303
117519
117851
117958
117842
118146
118516
118645
118508
112563
112568
112571
112572
112820
112831
112838
112842
113161
113185
113199
113204
113593
113637
113661
113669
114049
114119
114156
114165
114604
114707
114757
114763
115066
115204
115267
115266
115718
115892
115967
115954
116120
116325
116414
116389
116624
116856
116963
116928
112544
112547
112548
112549
112715
112721
112725
112727
112973
112985
112993
112997
113288
113312
113327
113334
113631
113669
113693
113704
114061
114120
114154
114167
114396
114477
114522
114536
114916
115021
115076
115087
115214
115341
115408
115414
115604
115748
115827
115829
112573
112574
112575
112575
112684
112688
112690
112692
112887
112894
112899
112902
113123
113136
113146
113152
113390
113413
113428
113436
113734
113769
113791
113802
113980
114029
114059
114073
114401
114465
114503
114517
114602
114680
114727
114740
114902
114991
115045
115058
112626
112626
112627
112627
112698
112700
112702
112703
112861
112866
112870
112872
113035
113044
113050
113054
113246
113260
113270
113276
113524
113546
113561
113568
113705
113735
113755
113765
114051
114090
114116
114128
114171
114220
114251
114263
114406
114462
114497
114510
112688
112688
112689
112689
112732
112734
112736
112737
112869
112873
112876
112878
112993
112999
113003
113006
113160
113169
113176
113179
113384
113398
113408
113413
113511
113530
113544
113551
113801
113826
113843
113852
113860
113890
113911
113920
114048
114084
114107
114117
112750
112750
112750
112750
112774
112775
112777
112778
112894
112897
112899
112901
112976
112981
112984
112986
113110
113116
113120
113123
113289
113298
113305
113309
113372
113384
113393
113398
113619
113636
113647
113653
113629
113649
113663
113670
113787
113810
113825
113832
112806
112806
112806
112806
112812
112814
112815
112816
112924
112926
112928
112929
112971
112975
112977
112979
113080
113084
113087
113089
113223
113229
113233
113236
113269
113277
113283
113286
113485
113496
113503
113507
113456
113469
113478
113482
113594
113608
113618
113624
112851
112851
112851
112851
112841
112842
112844
112845
112950
112952
112954
112954
112968
112970
112972
112973
113059
113062
113064
113065
113172
113177
113180
113181
113188
113194
113198
113200
113384
113391
113396
113399
113320
113329
113335
113338
113449
113459
113465
113469
112883
112883
112883
112883
112855
112856
112857
112858
112968
112969
112970
112971
112958
112960
112961
112962
113039
113041
113042
113042
113128
113131
113133
113134
113121
113125
113127
113129
113305
113310
113313
113315
113209
113215
113219
113221
113339
113345
113350
113352
112900
112900
112900
112900
112849
112850
112851
112852
112973
112974
112975
112975
112937
112939
112940
112940
113012
113014
113015
113015
113083
113085
113086
113086
113059
113061
113063
113064
113239
113243
113245
113246
113111
113115
113118
113120
113254
113257
113260
113262
112905
112905
112905
112905
112822
112822
112823
112823
112964
112965
112965
112964
112902
112903
112903
112903
112975
112976
112976
112976
113030
113032
113032
113032
112996
112997
112998
112999
113179
113182
113183
113183
113019
113021
113023
113024
113189
113191
113193
113194
112909
112909
112909
112909
112768
112768
112768
112768
112937
112937
112937
112936
112850
112850
112850
112849
112922
112922
112922
112922
112963
112965
112965
112965
112926
112927
112927
112928
113115
113117
113118
113118
112920
112922
112923
112924
113148
113149
113150
113152
112940
112940
112940
112940
112680
112680
112679
112679
112887
112887
112885
112884
112780
112780
112779
112778
112849
112849
112849
112848
112880
112881
112881
112880
112846
112845
112845
112845
113031
113032
113033
113032
112801
112802
112803
112803
113152
113151
113152
113154
113034
113034
113034
113034
112543
112542
112540
112539
112804
112803
112802
112801
112698
112697
112695
112694
112760
112759
112758
112758
112781
112780
112780
112779
112753
112751
112751
112751
112905
112907
112907
112906
112635
112634
112634
112634
113222
113222
113222
113223
113152
113153
113153
113154
112369
112363
112359
112358
112698
112698
112696
112695
112617
112613
112611
112610
112663
112661
112659
112659
112676
112674
112672
112672
112655
112651
112650
112651
112746
112747
112747
112746
112424
112416
112415
112419
113315
113318
113318
113315
118102
115715
113880
112660
111897
111399
111054
110807
110626
110486
119012
115991
113737
112426
111638
111132
110790
110549
110377
110248
119268
115929
113366
112130
111336
110831
110484
110238
110070
109964
119183
115723
112961
111865
111089
110619
110289
110057
109895
109792
118795
115386
112552
111574
110813
110386
110077
109864
109712
109621
118312
115144
112267
111426
110678
110300
110010
109815
109668
109567
117628
114787
111873
111174
110433
110103
109828
109646
109503
109405
117189
114730
111780
111221
110479
110185
109906
109722
109564
109435
116484
114350
111419
111022
110296
110037
109747
109558
109396
109256
116943
114990
112039
111647
110803
110444
110051
109780
109552
109344
114580
113899
113282
112763
112333
111981
111694
111461
111272
111122
116016
114763
113705
112906
112299
111840
111492
111224
111015
110859
117143
115344
113900
112894
112150
111613
111218
110923
110705
110561
117974
115716
113957
112830
112013
111448
111042
110744
110522
110375
118471
115877
113863
112669
111812
111247
110844
110555
110337
110196
118833
116024
113806
112592
111717
111169
110778
110499
110284
110135
118892
115968
113581
112383
111500
110977
110596
110328
110114
109967
119044
116100
113582
112428
111542
111041
110659
110387
110164
109991
118812
115868
113305
112245
111379
110898
110506
110226
109997
109813
119234
116351
113750
112694
111750
111197
110732
110393
110119
109885
113742
113455
113128
112810
112522
112268
112049
111863
111706
111578
114780
114193
113570
113029
112583
112221
111927
111688
111494
111344
115829
114864
113909
113141
112540
112077
111719
111439
111222
111071
116797
115432
114170
113225
112515
111988
111590
111286
111052
110889
117596
115831
114285
113203
112411
111847
111429
111117
110875
110711
118349
116211
114412
113231
112384
111803
111378
111063
110817
110642
118844
116371
114349
113104
112218
111633
111205
110892
110643
110468
119414
116668
114464
113191
112280
111694
111260
110939
110681
110484
119551
116591
114302
113058
112146
111562
111112
110781
110515
110308
120051
116989
114651
113388
112417
111780
111280
110906
110609
110366
112976
112891
112768
112626
112479
112336
112202
112081
111972
111881
113615
113410
113145
112873
112614
112378
112169
111987
111833
111708
114374
113980
113512
113068
112675
112339
112058
111825
111635
111496
115196
114573
113883
113273
112757
112337
111997
111723
111502
111340
115953
115067
114145
113381
112762
112277
111896
111595
111353
111181
116741
115573
114421
113524
112821
112290
111880
111562
111306
111117
117338
115881
114507
113499
112728
112164
111735
111406
111139
110946
118047
116318
114745
113653
112829
112242
111793
111449
111172
110958
118378
116412
114711
113580
112723
112116
111647
111290
111004
110782
118963
116816
115018
113833
112923
112274
111768
111381
111073
110826
112692
112658
112602
112532
112454
112374
112295
112220
112151
112092
113101
113017
112893
112748
112597
112449
112309
112183
112070
111978
113609
113438
113205
112954
112708
112481
112278
112099
111947
111832
114227
113940
113569
113196
112848
112541
112275
112048
111858
111712
114842
114405
113877
113375
112929
112549
112231
111966
111746
111582
115530
114918
114219
113592
113056
112616
112255
111961
111718
111532
116079
115269
114390
113646
113029
112539
112145
111828
111566
111371
116774
115758
114706
113859
113173
112641
112216
111878
111601
111385
117165
115953
114763
113840
113098
112529
112078
111724
111437
111213
117731
116343
115042
114050
113257
112651
112171
111793
111491
111247
112570
112556
112530
112496
112456
112412
112368
112325
112283
112247
112837
112801
112740
112664
112578
112490
112402
112319
112244
112179
113193
113118
113001
112862
112713
112566
112426
112297
112184
112096
113647
113514
113319
113098
112874
112660
112463
112287
112134
112013
114122
113911
113617
113303
112997
112716
112466
112248
112060
111916
114686
114376
113968
113554
113167
112824
112526
112272
112055
111885
115139
114707
114170
113654
113188
112789
112449
112165
111924
111740
115756
115188
114518
113904
113365
112914
112538
112227
111967
111761
116122
115411
114618
113916
113313
112819
112413
112084
111811
111595
116606
115762
114872
114102
113451
112923
112490
112141
111856
111625
112548
112541
112528
112511
112490
112466
112442
112417
112393
112372
112725
112706
112675
112633
112585
112533
112479
112427
112378
112336
112993
112955
112892
112812
112722
112628
112534
112445
112365
112302
113327
113261
113154
113022
112878
112733
112593
112463
112347
112251
113691
113585
113419
113223
113018
112817
112628
112458
112306
112187
114143
113984
113746
113477
113206
112949
112714
112506
112324
112176
114496
114266
113942
113593
113254
112943
112665
112424
112213
112049
115019
114705
114286
113856
113450
113088
112771
112500
112269
112081
115314
114903
114387
113879
113413
113007
112660
112369
112123
111925
115702
115205
114615
114049
113539
113102
112732
112422
112165
111954
112575
112571
112565
112556
112544
112532
112518
112505
112491
112479
112691
112682
112665
112642
112614
112584
112552
112520
112490
112463
112900
112880
112845
112798
112743
112684
112624
112564
112510
112467
113149
113114
113053
112973
112881
112784
112688
112595
112510
112439
113432
113376
113279
113155
113019
112878
112742
112614
112497
112403
113795
113709
113567
113393
113206
113020
112843
112679
112533
112411
114061
113936
113738
113506
113264
113030
112813
112617
112442
112302
114494
114319
114058
113763
113467
113187
112933
112708
112511
112348
114704
114468
114138
113782
113436
113118
112834
112588
112375
112202
115009
114722
114340
113939
113556
113210
112905
112643
112420
112234
112627
112625
112622
112617
112611
112604
112596
112589
112581
112574
112703
112698
112689
112676
112660
112642
112623
112604
112585
112568
112871
112860
112839
112811
112778
112741
112703
112664
112628
112600
113053
113034
112997
112948
112890
112827
112762
112698
112638
112586
113275
113243
113184
113106
113016
112920
112824
112731
112644
112574
113566
113518
113431
113318
113191
113059
112929
112806
112693
112596
113763
113691
113568
113414
113245
113074
112910
112757
112617
112503
114120
114020
113855
113657
113445
113237
113040
112861
112701
112564
114251
114115
113906
113663
113413
113172
112949
112750
112572
112426
114493
114327
114084
113808
113528
113264
113023
112809
112623
112465
112689
112687
112686
112683
112680
112676
112672
112668
112663
112660
112737
112734
112729
112722
112712
112702
112691
112679
112667
112657
112877
112870
112858
112842
112821
112798
112774
112748
112725
112708
113006
112995
112973
112943
112906
112865
112822
112778
112737
112700
113179
113160
113124
113075
113016
112952
112885
112819
112757
112706
113413
113384
113330
113257
113172
113080
112988
112897
112813
112739
113551
113508
113431
113329
113214
113092
112971
112856
112748
112659
113849
113790
113686
113554
113406
113255
113108
112970
112844
112734
113917
113837
113705
113542
113366
113189
113019
112863
112721
112602
114112
114016
113862
113675
113477
113282
113097
112929
112779
112650
112750
112750
112749
112747
112745
112743
112741
112739
112736
112734
112778
112777
112774
112769
112764
112758
112751
112744
112737
112730
112900
112896
112889
112879
112866
112852
112836
112820
112805
112795
112986
112980
112966
112948
112924
112898
112870
112840
112812
112787
113123
113112
113089
113058
113019
112976
112931
112886
112842
112806
113308
113291
113257
113210
113153
113091
113026
112962
112900
112845
113399
113373
113324
113257
113178
113093
113006
112922
112841
112774
113652
113616
113550
113463
113361
113254
113147
113044
112949
112863
113669
113622
113538
113430
113308
113181
113055
112937
112827
112734
113832
113775
113678
113554
113417
113276
113139
113011
112895
112793
112806
112806
112805
112804
112803
112802
112801
112799
112798
112797
112817
112816
112814
112812
112808
112805
112800
112796
112791
112786
112929
112926
112922
112916
112908
112899
112889
112878
112869
112863
112979
112975
112967
112955
112940
112923
112905
112886
112867
112849
113089
113082
113068
113048
113023
112994
112964
112933
112903
112878
113235
113225
113203
113172
113135
113093
113048
113004
112960
112920
113287
113270
113239
113195
113142
113084
113023
112962
112904
112855
113506
113485
113443
113385
113317
113243
113167
113092
113021
112957
113483
113454
113401
113329
113246
113157
113067
112980
112897
112826
113625
113591
113530
113449
113356
113257
113158
113064
112976
112898
112851
112851
112850
112850
112849
112849
112848
112847
112846
112846
112845
112845
112844
112842
112840
112838
112835
112832
112829
112825
112954
112952
112950
112946
112941
112935
112928
112922
112916
112913
112974
112971
112966
112959
112950
112939
112926
112914
112901
112889
113065
113060
113051
113038
113022
113004
112984
112963
112942
112926
113180
113174
113160
113140
113115
113087
113057
113026
112996
112968
113201
113190
113170
113141
113105
113066
113024
112982
112940
112905
113398
113385
113358
113320
113274
113224
113171
113118
113068
113020
113338
113320
113286
113239
113183
113122
113058
112996
112935
112884
113471
113451
113412
113360
113297
113229
113160
113092
113028
112970
112883
112882
112882
112882
112882
112881
112881
112880
112880
112880
112858
112858
112858
112857
112856
112854
112853
112851
112848
112845
112970
112969
112967
112965
112962
112958
112954
112949
112946
112945
112962
112961
112958
112953
112947
112940
112932
112924
112915
112907
113042
113039
113034
113025
113015
113003
112989
112975
112962
112951
113133
113129
113120
113107
113091
113072
113052
113031
113010
112991
113129
113122
113109