/*--------------------------------*- C++ -*----------------------------------*\
| =========                 |                                                 |
| \\      /  F ield         | foam-extend: Open Source CFD                    |
|  \\    /   O peration     | Version:     4.0                                |
|   \\  /    A nd           | Web:         http://www.foam-extend.org         |
|    \\/     M anipulation  |                                                 |
\*---------------------------------------------------------------------------*/
FoamFile
{
    version     2.0;
    format      ascii;
    class       surfaceScalarField;
    location    "500";
    object      phi;
}
// * * * * * * * * * * * * * * * * * * * * * * * * * * * * * * * * * * * * * //

dimensions      [1 0 -1 0 0 0 0];

internalField   nonuniform List<scalar> 
97302
(
-0.000110461
6.27e-07
-0.000853811
0.000862966
-0.000119924
8.23747e-07
-0.000855239
0.000863879
-0.000129586
9.12064e-07
-0.000856106
0.000864856
-0.00014002
8.91497e-07
-0.000856466
0.000866008
-0.000152057
7.48972e-07
-0.000856336
0.000867624
-0.000167189
4.73939e-07
-0.000855505
0.000870164
-0.000188503
3.89138e-08
-0.00085336
0.000874635
-0.000222934
-5.96733e-07
-0.000847993
0.000883021
-0.000271367
-1.54244e-06
-0.000838233
0.000888202
-4.1418e-06
-0.000810356
-0.000352832
0.000895963
-0.000152142
8.492e-07
-0.00114124
0.00115123
-0.00016194
1.22771e-06
-0.00114349
0.00115289
-0.000171885
1.4189e-06
-0.00114504
0.00115448
-0.000182506
1.42299e-06
-0.00114573
0.00115582
-0.000194593
1.21293e-06
-0.00114539
0.00115701
-0.000209862
7.72241e-07
-0.00114369
0.00115866
-0.000232136
3.48104e-08
-0.00114016
0.00116244
-0.000270757
-1.08683e-06
-0.00113292
0.00117203
-0.000326925
-2.86863e-06
-0.0011196
0.00117709
-7.19145e-06
-0.00108097
-0.000430665
0.00118776
-0.000192324
7.10614e-07
-0.0014282
0.00143882
-0.000202335
1.26754e-06
-0.00143095
0.00144092
-0.000212393
1.58468e-06
-0.0014329
0.00144279
-0.000222985
1.66998e-06
-0.00143365
0.001444
-0.00023504
1.48642e-06
-0.00143301
0.0014448
-0.0002507
1.01198e-06
-0.00143093
0.00144635
-0.000274395
1.51208e-07
-0.00142735
0.00145093
-0.000317217
-1.18225e-06
-0.00142056
0.00146348
-0.000379896
-3.41369e-06
-0.00140669
0.00146992
-8.95637e-06
-0.0013581
-0.000498172
0.00147814
-0.000232166
5.90357e-07
-0.00171106
0.00172181
-0.000242395
1.35522e-06
-0.00171448
0.00172462
-0.000252723
1.81093e-06
-0.00171707
0.00172718
-0.000263642
1.98825e-06
-0.00171843
0.00172903
-0.000276151
1.84176e-06
-0.0017184
0.00173056
-0.000292569
1.34905e-06
-0.00171707
0.00173316
-0.000317637
3.88181e-07
-0.00171436
0.0017392
-0.000363738
-1.11435e-06
-0.00170855
0.00175458
-0.00043122
-3.74405e-06
-0.0016949
0.00176271
-1.04677e-05
-0.00163625
-0.000558494
0.00176504
-0.000271872
7.09022e-07
-0.00199394
0.00200458
-0.000282229
1.59927e-06
-0.00199828
0.00200839
-0.000292719
2.12635e-06
-0.00200184
0.00201201
-0.000303851
2.34195e-06
-0.00200414
0.00201492
-0.000316696
2.20664e-06
-0.00200515
0.00201763
-0.000333683
1.70044e-06
-0.00200498
0.00202162
-0.000359829
6.88487e-07
-0.00200351
0.00202936
-0.000408564
-8.90352e-07
-0.0019991
0.00204761
-0.000480103
-3.77438e-06
-0.00198665
0.00205822
-1.15802e-05
-0.00191737
-0.000613342
0.00205173
-0.00031215
9.61792e-07
-0.00227452
0.00228513
-0.000322617
1.89992e-06
-0.00227995
0.00229011
-0.0003332
2.40685e-06
-0.00228444
0.00229474
-0.000344424
2.57393e-06
-0.00228768
0.00229868
-0.000357414
2.38212e-06
-0.00228972
0.00230253
-0.000374662
1.82634e-06
-0.0022908
0.00230792
-0.000401446
7.79336e-07
-0.0022908
0.0023175
-0.000452075
-7.92406e-07
-0.00228826
0.00233879
-0.000526916
-3.68995e-06
-0.0022783
0.00235306
-1.2323e-05
-0.00219832
-0.000664046
0.00233619
-0.00035242
1.43453e-06
-0.00255474
0.00256515
-0.000362868
2.24844e-06
-0.00256143
0.00257153
-0.000373405
2.62385e-06
-0.00256698
0.00257731
-0.000384556
2.63042e-06
-0.00257115
0.00258225
-0.000397499
2.28921e-06
-0.00257418
0.00258722
-0.000414738
1.60577e-06
-0.00257647
0.00259393
-0.0004418
5.23172e-07
-0.0025781
0.00260542
-0.000493667
-9.42187e-07
-0.00257795
0.00262997
-0.000571138
-3.41561e-06
-0.00257181
0.002649
-1.22264e-05
-0.00248117
-0.000710308
0.00262024
-0.000394117
1.75844e-06
-0.00283652
0.00284723
-0.000404689
2.3081e-06
-0.00284433
0.00285485
-0.000415283
2.40857e-06
-0.00285036
0.00286117
-0.000426417
2.11016e-06
-0.00285473
0.00286639
-0.000439223
1.46987e-06
-0.00285784
0.00287146
-0.000456136
5.20446e-07
-0.00286047
0.00287847
-0.000482832
-6.79157e-07
-0.00286313
0.00289103
-0.000534745
-2.0387e-06
-0.00286515
0.00291816
-0.000613484
-3.54525e-06
-0.00286367
0.00294254
-1.12951e-05
-0.00276434
-0.000753007
0.00290294
-0.000435484
1.17011e-06
-0.00311759
0.0031288
-0.000445729
1.29927e-06
-0.00312638
0.00313763
-0.000456045
1.04357e-06
-0.00313306
0.00314474
-0.000466961
3.20603e-07
-0.00313796
0.00315067
-0.000479575
-7.41903e-07
-0.00314161
0.00315644
-0.000496229
-2.09342e-06
-0.00314511
0.00316437
-0.000522639
-3.50921e-06
-0.0031494
0.00317864
-0.000574112
-4.70443e-06
-0.00315452
0.00320866
-0.000652573
-4.91213e-06
-0.00315718
0.00323701
-9.54405e-06
-0.00304927
-0.000789429
0.00318437
-0.000477285
-0.00338052
0.00339278
-0.000488176
-0.00338904
0.00340123
-0.000499133
-0.00339364
0.00340564
-0.000510693
-0.00339421
0.00340609
-0.000523787
-0.0033915
0.00340385
-0.000540479
-0.00338721
0.00340181
-0.000566004
-0.0033832
0.00340522
-0.000614662
-0.00338196
0.00342591
-0.000686894
-0.00338612
0.00345344
-0.00329049
-0.000816401
0.00341045
1.54887e-05
5.19723e-07
-0.000845389
6.70823e-06
7.48829e-07
-0.000847208
-2.19846e-06
8.59192e-07
-0.000848058
-1.14229e-05
8.42786e-07
-0.000848085
-2.1172e-05
6.84052e-07
-0.000847271
-3.16897e-05
3.63232e-07
-0.000845351
-4.316e-05
-1.54978e-07
-0.000841735
-5.50299e-05
-9.49188e-07
-0.000835174
-6.65787e-05
-2.21015e-06
-0.000824474
-3.85346e-06
-0.000807366
-6.57158e-05
1.6511e-05
6.98612e-07
-0.00113147
6.93129e-06
1.1239e-06
-0.00113429
-2.74953e-06
1.34937e-06
-0.00113585
-1.28466e-05
1.36504e-06
-0.00113615
-2.36156e-05
1.13346e-06
-0.00113507
-3.54418e-05
6.27414e-07
-0.00113213
-4.92083e-05
-2.20092e-07
-0.00112633
-6.60195e-05
-1.52158e-06
-0.00111553
-8.74867e-05
-3.64882e-06
-0.0010967
-6.48923e-06
-0.00106592
-9.98937e-05
1.83447e-05
5.69872e-07
-0.0014174
8.14507e-06
1.18805e-06
-0.00142082
-2.1105e-06
1.54613e-06
-0.00142284
-1.27288e-05
1.64416e-06
-0.00142331
-2.40376e-05
1.42602e-06
-0.001422
-3.68138e-05
8.59642e-07
-0.00141839
-5.28509e-05
-1.56885e-07
-0.00141138
-7.49602e-05
-1.73573e-06
-0.00139824
-0.000107513
-4.45038e-06
-0.00137334
-8.29276e-06
-0.00132834
-0.000135466
2.02518e-05
4.61916e-07
-0.00169985
9.63126e-06
1.30717e-06
-0.00170398
-1.10594e-06
1.81389e-06
-0.0017066
-1.23088e-05
2.0103e-06
-0.00170759
-2.44212e-05
1.82794e-06
-0.00170669
-3.84714e-05
1.23738e-06
-0.0017034
-5.68086e-05
9.338e-08
-0.00169628
-8.36699e-05
-1.70006e-06
-0.00168172
-0.000126951
-4.93879e-06
-0.00165113
-9.75878e-06
-0.00159058
-0.000171163
2.20034e-05
5.9175e-07
-0.00198265
1.11198e-05
1.5742e-06
-0.00198766
8.33857e-08
2.16059e-06
-0.00199115
-1.14985e-05
2.40307e-06
-0.00199295
-2.42056e-05
2.23737e-06
-0.00199285
-3.92411e-05
1.63915e-06
-0.00199035
-5.94205e-05
4.23669e-07
-0.00198366
-9.0308e-05
-1.48768e-06
-0.00196842
-0.000143809
-5.08989e-06
-0.00193299
-1.07555e-05
-0.0018562
-0.000203984
2.32562e-05
8.81074e-07
-0.00226313
1.21612e-05
1.92447e-06
-0.0022692
9.38978e-07
2.50232e-06
-0.00227356
-1.08451e-05
2.70965e-06
-0.00227621
-2.38892e-05
2.50107e-06
-0.00227694
-3.95364e-05
1.87032e-06
-0.00227538
-6.10354e-05
6.19049e-07
-0.0022695
-9.51552e-05
-1.3107e-06
-0.00225432
-0.000158207
-5.01289e-06
-0.00221533
-1.13231e-05
-0.00212231
-0.000233645
2.40127e-05
1.3579e-06
-0.00254338
1.28715e-05
2.28057e-06
-0.00255064
1.63855e-06
2.73811e-06
-0.00255599
-1.01246e-05
2.80456e-06
-0.00255948
-2.32416e-05
2.48629e-06
-0.00256105
-3.91473e-05
1.77384e-06
-0.00256047
-6.14823e-05
4.99846e-07
-0.00255565
-9.80796e-05
-1.39394e-06
-0.00254127
-0.000169841
-4.79957e-06
-0.00250026
-1.14174e-05
-0.00239134
-0.000259577
2.38963e-05
1.72877e-06
-0.00282484
1.26497e-05
2.39137e-06
-0.0028332
1.43824e-06
2.60744e-06
-0.00283902
-1.02079e-05
2.42833e-06
-0.00284271
-2.31555e-05
1.90095e-06
-0.0028443
-3.88962e-05
1.02379e-06
-0.00284398
-6.13793e-05
-2.66631e-07
-0.00283988
-9.92939e-05
-2.05413e-06
-0.00282658
-0.000178401
-4.57853e-06
-0.00278478
-1.09309e-05
-0.00266122
-0.000282017
2.32595e-05
1.1552e-06
-0.00310526
1.23989e-05
1.36521e-06
-0.00311449
1.60264e-06
1.24997e-06
-0.0031209
-9.59748e-06
6.88529e-07
-0.00312502
-2.21703e-05
-1.79491e-07
-0.00312696
-3.7716e-05
-1.34318e-06
-0.00312719
-6.04143e-05
-2.71017e-06
-0.00312426
-9.94647e-05
-4.25904e-06
-0.00311327
-0.000184439
-5.50728e-06
-0.00307128
-9.24717e-06
-0.0029311
-0.000304289
2.19408e-05
-0.0033674
1.07937e-05
-0.00337653
-1.06069e-07
-0.00338149
-1.12783e-05
-0.00338235
-2.35392e-05
-0.00337942
-3.84488e-05
-0.00337364
-6.00241e-05
-0.00336433
-9.77067e-05
-0.00334854
-0.000184041
-0.00330529
-0.00316104
-0.000322736
1.28662e-05
3.66813e-07
-0.000838627
5.4943e-06
6.12156e-07
-0.000840448
-2.09043e-06
7.30927e-07
-0.000841204
-9.80938e-06
7.07351e-07
-0.000841073
-1.75476e-05
5.28411e-07
-0.000840061
-2.50712e-05
1.75429e-07
-0.000838003
-3.1841e-05
-3.75598e-07
-0.000834589
-3.65535e-05
-1.16371e-06
-0.000829298
-3.73279e-05
-2.27029e-06
-0.00082143
-3.46253e-06
-0.000810869
-3.03621e-05
1.48113e-05
4.99821e-07
-0.00112298
6.1605e-06
9.49652e-07
-0.00112598
-2.67169e-06
1.18436e-06
-0.00112747
-1.17793e-05
1.18573e-06
-0.00112752
-2.11661e-05
9.15677e-07
-0.00112607
-3.06945e-05
3.42932e-07
-0.00112277
-3.99868e-05
-5.90511e-07
-0.00111682
-4.79299e-05
-1.9561e-06
-0.0011068
-5.21802e-05
-3.95502e-06
-0.00109076
-6.19752e-06
-0.00106914
-4.6228e-05
1.74432e-05
4.17657e-07
-0.00140744
7.7106e-06
1.06862e-06
-0.0014112
-2.18263e-06
1.43458e-06
-0.0014132
-1.24131e-05
1.50879e-06
-0.00141341
-2.3064e-05
1.23002e-06
-0.00141166
-3.42304e-05
5.54103e-07
-0.00140743
-4.60724e-05
-6.21882e-07
-0.0013995
-5.82042e-05
-2.3906e-06
-0.00138567
-6.84127e-05
-5.15209e-06
-0.00136194
-8.44558e-06
-0.00132739
-6.71124e-05
1.97854e-05
3.68997e-07
-0.00168915
9.32617e-06
1.25646e-06
-0.00169371
-1.34837e-06
1.77147e-06
-0.00169627
-1.25089e-05
1.93871e-06
-0.00169686
-2.43852e-05
1.68262e-06
-0.00169527
-3.73436e-05
9.58022e-07
-0.00169085
-5.19956e-05
-3.9295e-07
-0.00168185
-6.86555e-05
-2.48208e-06
-0.00166497
-8.59025e-05
-5.97732e-06
-0.00163306
-1.03642e-05
-0.00158321
-9.13472e-05
2.18212e-05
5.49726e-07
-0.00197158
1.08829e-05
1.57865e-06
-0.00197705
-2.88549e-07
2.17701e-06
-0.00198038
-1.2057e-05
2.39347e-06
-0.00198164
-2.4829e-05
2.15444e-06
-0.00198055
-3.92247e-05
1.41676e-06
-0.00197641
-5.63166e-05
-3.34016e-08
-0.00196693
-7.72655e-05
-2.32817e-06
-0.00194763
-0.000102222
-6.41857e-06
-0.0019076
-1.18201e-05
-0.00184082
-0.000116152
2.3297e-05
8.88715e-07
-0.00225178
1.20025e-05
1.98192e-06
-0.00225831
5.07524e-07
2.57891e-06
-0.00226247
-1.16284e-05
2.77258e-06
-0.00226445
-2.4966e-05
2.50196e-06
-0.00226395
-4.03653e-05
1.74132e-06
-0.00226031
-5.93991e-05
2.52556e-07
-0.00225075
-8.41922e-05
-2.10831e-06
-0.00222974
-0.000117236
-6.50661e-06
-0.0021822
-1.27419e-05
-0.00209764
-0.000140981
2.41907e-05
1.38317e-06
-0.00253191
1.27647e-05
2.35671e-06
-0.00253959
1.18333e-06
2.84504e-06
-0.00254467
-1.10263e-05
2.92047e-06
-0.00254742
-2.45872e-05
2.57595e-06
-0.00254756
-4.05595e-05
1.78477e-06
-0.00254454
-6.10227e-05
3.19456e-07
-0.00253525
-8.90894e-05
-2.01326e-06
-0.0025133
-0.000130188
-6.33384e-06
-0.00245933
-1.31937e-05
-0.00235676
-0.000164318
2.41578e-05
1.75967e-06
-0.002813
1.26162e-05
2.47031e-06
-0.00282177
1.05187e-06
2.73847e-06
-0.00282735
-1.10575e-05
2.61746e-06
-0.0028303
-2.45192e-05
2.13509e-06
-0.0028304
-4.05692e-05
1.27131e-06
-0.00282742
-6.17714e-05
-1.01767e-07
-0.00281826
-9.21756e-05
-2.22716e-06
-0.00279596
-0.000140703
-5.71773e-06
-0.00273687
-1.27803e-05
-0.00261664
-0.00018569
2.34433e-05
1.21035e-06
-0.00309276
1.22898e-05
1.449e-06
-0.00310232
1.16124e-06
1.41782e-06
-0.00310845
-1.04495e-05
9.77202e-07
-0.00311177
-2.34688e-05
2.57495e-07
-0.00311206
-3.93695e-05
-7.44625e-07
-0.00310928
-6.12457e-05
-1.99182e-06
-0.00310049
-9.39424e-05
-3.61434e-06
-0.00307918
-0.000148788
-5.67152e-06
-0.00301648
-1.06389e-05
-0.00287629
-0.000205737
2.2108e-05
-0.00335426
1.08462e-05
-0.00336382
-2.13662e-07
-0.00336901
-1.16404e-05
-0.00336994
-2.4222e-05
-0.00336658
-3.94288e-05
-0.00335918
-6.03864e-05
-0.00334537
-9.28272e-05
-0.00331971
-0.000150303
-0.00325349
-0.00310144
-0.00022054
9.98772e-06
1.63732e-07
-0.000833586
4.2785e-06
4.13508e-07
-0.000835152
-1.69764e-06
5.36411e-07
-0.000835765
-7.67668e-06
5.0919e-07
-0.000835603
-1.33568e-05
3.23682e-07
-0.000834705
-1.83157e-05
-3.27185e-08
-0.000833011
-2.19067e-05
-5.69932e-07
-0.000830428
-2.30699e-05
-1.29079e-06
-0.000826844
-2.0178e-05
-2.18799e-06
-0.000822134
-3.00772e-06
-0.000816443
-1.15972e-05
1.25375e-05
2.26739e-07
-0.00111609
5.21697e-06
6.88022e-07
-0.00111893
-2.35299e-06
9.26479e-07
-0.00112029
-1.0038e-05
9.15416e-07
-0.00112025
-1.76218e-05
6.20991e-07
-0.00111878
-2.47184e-05
1.72111e-08
-0.00111572
-3.05629e-05
-9.33071e-07
-0.00111061
-3.36336e-05
-2.25148e-06
-0.00110276
-3.11134e-05
-3.98192e-06
-0.00109149
-5.65047e-06
-0.0010783
-1.9314e-05
1.57878e-05
1.95203e-07
-0.00139883
6.99319e-06
8.63925e-07
-0.00140258
-2.04061e-06
1.22838e-06
-0.00140446
-1.13018e-05
1.27339e-06
-0.0014045
-2.06758e-05
9.40267e-07
-0.00140261
-2.98793e-05
1.83943e-07
-0.00139839
-3.82469e-05
-1.08177e-06
-0.00139099
-4.42042e-05
-2.90753e-06
-0.00137906
-4.38787e-05
-5.47538e-06
-0.00136077
-8.14902e-06
-0.00133818
-3.05889e-05
1.85512e-05
2.17336e-07
-0.00167947
8.69688e-06
1.13128e-06
-0.00168412
-1.44981e-06
1.64282e-06
-0.00168653
-1.19958e-05
1.76964e-06
-0.00168681
-2.29755e-05
1.43731e-06
-0.00168479
-3.43226e-05
5.94542e-07
-0.00167991
-4.55924e-05
-9.05436e-07
-0.00167076
-5.52643e-05
-3.15411e-06
-0.00165505
-5.85965e-05
-6.57834e-06
-0.00162862
-1.03889e-05
-0.00159381
-4.57531e-05
2.09096e-05
4.57508e-07
-0.00196122
1.03058e-05
1.51789e-06
-0.00196683
-5.95318e-07
2.11569e-06
-0.00196995
-1.20291e-05
2.29111e-06
-0.00197073
-2.42209e-05
1.96811e-06
-0.00196889
-3.73662e-05
1.09171e-06
-0.00196376
-5.13382e-05
-5.51661e-07
-0.00195331
-6.48773e-05
-3.10212e-06
-0.00193414
-7.29372e-05
-7.28722e-06
-0.00189883
-1.22311e-05
-0.0018494
-6.2506e-05
2.26545e-05
8.52265e-07
-0.00224092
1.14978e-05
1.98116e-06
-0.00224762
7.95178e-08
2.58498e-06
-0.00225152
-1.19464e-05
2.7495e-06
-0.00225288
-2.49772e-05
2.40448e-06
-0.00225135
-3.94861e-05
1.50678e-06
-0.00224622
-5.57697e-05
-1.95633e-07
-0.00223482
-7.30581e-05
-2.88536e-06
-0.00221267
-8.67149e-05
-7.56312e-06
-0.00216826
-1.35016e-05
-0.00210253
-8.05611e-05
2.3739e-05
1.37203e-06
-0.00252072
1.23175e-05
2.38422e-06
-0.00252857
6.84399e-07
2.89087e-06
-0.00253335
-1.15721e-05
2.95776e-06
-0.00253537
-2.50321e-05
2.56445e-06
-0.00253426
-4.04302e-05
1.66876e-06
-0.00252931
-5.8553e-05
1.31547e-08
-0.00251734
-7.92642e-05
-2.66721e-06
-0.0024928
-9.90357e-05
-7.46626e-06
-0.00243966
-1.42762e-05
-0.00235655
-9.84655e-05
2.38565e-05
1.75396e-06
-0.00280136
1.227e-05
2.50316e-06
-0.0028103
6.00333e-07
2.80787e-06
-0.0028156
-1.16373e-05
2.72186e-06
-0.00281782
-2.51269e-05
2.25097e-06
-0.0028166
-4.08452e-05
1.36251e-06
-0.00281139
-6.0131e-05
-1.21507e-07
-0.00279884
-8.362e-05
-2.54447e-06
-0.00277259
-0.000109596
-6.63189e-06
-0.00271173
-1.39372e-05
-0.0026108
-0.000115775
2.32147e-05
1.23999e-06
-0.00308038
1.19795e-05
1.5018e-06
-0.00309008
7.08738e-07
1.53902e-06
-0.00309591
-1.10686e-05
1.19395e-06
-0.00309847
-2.41454e-05
5.82881e-07
-0.00309732
-3.97294e-05
-3.15826e-07
-0.00309201
-5.98181e-05
-1.51284e-06
-0.00307901
-8.61849e-05
-3.22835e-06
-0.00305213
-0.000118158
-5.76009e-06
-0.00298538
-1.13396e-05
-0.00286436
-0.000132689
2.19489e-05
-0.00334132
1.07382e-05
-0.0033511
-3.37352e-07
-0.0033564
-1.18332e-05
-0.00335725
-2.44357e-05
-0.00335339
-3.93747e-05
-0.00334456
-5.87395e-05
-0.00332752
-8.54201e-05
-0.00329626
-0.000120453
-0.00322421
-0.00308781
-0.000145423
7.37429e-06
-4.84319e-08
-0.00082993
3.20054e-06
1.895e-07
-0.000831168
-1.24441e-06
3.104e-07
-0.00083163
-5.63566e-06
2.83864e-07
-0.000831496
-9.62869e-06
1.06798e-07
-0.000830818
-1.28119e-05
-2.25739e-07
-0.000829602
-1.46777e-05
-7.08136e-07
-0.000827854
-1.45951e-05
-1.31945e-06
-0.000825607
-1.18455e-05
-2.0083e-06
-0.000822875
-2.56324e-06
-0.000819631
-6.09345e-06
1.01294e-05
-7.53644e-08
-0.00111076
4.25627e-06
3.76446e-07
-0.00111324
-1.90843e-06
6.10634e-07
-0.00111443
-8.08385e-06
5.91698e-07
-0.00111438
-1.39227e-05
2.92067e-07
-0.00111313
-1.89467e-05
-3.03149e-07
-0.00111062
-2.24206e-05
-1.20561e-06
-0.00110664
-2.3215e-05
-2.39182e-06
-0.0011009
-1.96492e-05
-3.79919e-06
-0.00109326
-4.98966e-06
-0.00108489
-1.0625e-05
1.37389e-05
-7.4494e-08
-0.00139175
6.15614e-06
5.90682e-07
-0.00139522
-1.72984e-06
9.44944e-07
-0.00139691
-9.72477e-06
9.63064e-07
-0.00139688
-1.7545e-05
5.92916e-07
-0.00139509
-2.47153e-05
-2.01141e-07
-0.00139133
-3.03452e-05
-1.47639e-06
-0.00138509
-3.28444e-05
-3.23335e-06
-0.00137572
-2.93047e-05
-5.47446e-06
-0.00136263
-7.53602e-06
-0.00134798
-1.69639e-05
1.68165e-05
7.6672e-09
-0.00167113
7.89841e-06
9.28849e-07
-0.00167554
-1.38424e-06
1.42817e-06
-0.00167773
-1.09403e-05
1.51336e-06
-0.00167781
-2.05976e-05
1.11588e-06
-0.00167565
-3.00014e-05
1.88944e-07
-0.0016709
-3.82553e-05
-1.3826e-06
-0.0016626
-4.34228e-05
-3.64581e-06
-0.00164947
-4.11697e-05
-6.78037e-06
-0.00162957
-9.90873e-06
-0.00160625
-2.63535e-05
1.94692e-05
3.00833e-07
-0.00195192
9.5369e-06
1.37665e-06
-0.00195735
-7.60235e-07
1.96537e-06
-0.00196019
-1.14694e-05
2.09481e-06
-0.0019606
-2.25912e-05
1.69105e-06
-0.00195834
-3.39769e-05
6.96445e-07
-0.00195289
-4.48586e-05
-1.07618e-06
-0.00194273
-5.31286e-05
-3.73326e-06
-0.00192579
-5.31754e-05
-7.71443e-06
-0.00189785
-1.19804e-05
-0.00186339
-3.71162e-05
2.14881e-05
7.46982e-07
-0.00223088
1.07891e-05
1.8995e-06
-0.00223744
-2.39473e-07
2.50243e-06
-0.00224103
-1.17783e-05
2.63038e-06
-0.00224188
-2.39955e-05
2.20832e-06
-0.00223965
-3.69968e-05
1.18243e-06
-0.0022337
-5.02912e-05
-6.85145e-07
-0.00222192
-6.18315e-05
-3.56406e-06
-0.0022013
-6.51372e-05
-8.16765e-06
-0.0021645
-1.34965e-05
-0.00211678
-4.93618e-05
2.2788e-05
1.29445e-06
-0.00251015
1.16646e-05
2.3379e-06
-0.00251789
2.62853e-07
2.8567e-06
-0.0025223
-1.1693e-05
2.90704e-06
-0.0025237
-2.45606e-05
2.45676e-06
-0.00252164
-3.87149e-05
1.45028e-06
-0.00251542
-5.40508e-05
-3.72223e-07
-0.00250231
-6.87688e-05
-3.2784e-06
-0.00247837
-7.60526e-05
-8.15581e-06
-0.00243239
-1.44812e-05
-0.00236975
-6.18705e-05
2.30979e-05
1.67774e-06
-0.00279022
1.17289e-05
2.46429e-06
-0.00279906
2.02526e-07
2.7989e-06
-0.00280401
-1.18587e-05
2.73635e-06
-0.00280559
-2.49306e-05
2.2614e-06
-0.00280333
-3.96422e-05
1.32781e-06
-0.00279656
-5.63953e-05
-2.69647e-07
-0.00278219
-7.39049e-05
-2.90149e-06
-0.00275546
-8.56987e-05
-7.22548e-06
-0.00270086
-1.42008e-05
-0.00262224
-7.45381e-05
2.25889e-05
1.2227e-06
-0.00306843
1.15052e-05
1.50781e-06
-0.00307804
3.0809e-07
1.60449e-06
-0.00308352
-1.13778e-05
1.33749e-06
-0.00308538
-2.41519e-05
8.0934e-07
-0.00308309
-3.88459e-05
-2.00828e-08
-0.00307597
-5.64027e-05
-1.20018e-06
-0.00306052
-7.6712e-05
-2.99028e-06
-0.00303173
-9.34746e-05
-5.73377e-06
-0.00297011
-1.12298e-05
-0.0028733
-8.75065e-05
2.14292e-05
-0.00332885
1.0457e-05
-0.00333862
-4.63278e-07
-0.00334387
-1.18185e-05
-0.00334456
-2.41389e-05
-0.00334026
-3.83221e-05
-0.00333039
-5.5444e-05
-0.0033116
-7.62709e-05
-0.00327842
-9.5675e-05
-0.00321054
-0.00309793
-9.67855e-05
5.25574e-06
-2.41395e-07
-0.000827283
2.33504e-06
-2.77447e-08
-0.00082822
-8.28551e-07
8.58836e-08
-0.000828553
-3.92774e-06
6.37115e-08
-0.00082846
-6.65228e-06
-9.3104e-08
-0.000828001
-8.6695e-06
-3.83501e-07
-0.000827202
-9.63291e-06
-7.91044e-07
-0.0008261
-9.20271e-06
-1.28389e-06
-0.000824753
-7.11011e-06
-1.79838e-06
-0.000823169
-2.16965e-06
-0.000821165
-3.40712e-06
7.88228e-06
-3.66692e-07
-0.00110677
3.37336e-06
5.55164e-08
-0.00110882
-1.43546e-06
2.77333e-07
-0.00110981
-6.20536e-06
2.56218e-07
-0.0011098
-1.05521e-05
-2.8756e-08
-0.00110885
-1.40165e-05
-5.81462e-07
-0.00110696
-1.60107e-05
-1.39125e-06
-0.00110404
-1.58202e-05
-2.40726e-06
-0.00109997
-1.26381e-05
-3.51808e-06
-0.00109473
-4.35665e-06
-0.00108905
-6.29789e-06
1.15745e-05
-3.56807e-07
-0.00138615
5.29041e-06
2.80121e-07
-0.00138916
-1.33442e-06
6.14833e-07
-0.00139062
-7.97992e-06
6.12268e-07
-0.00139059
-1.4259e-05
2.28783e-07
-0.00138907
-1.96373e-05
-5.57159e-07
-0.00138597
-2.32877e-05
-1.76897e-06
-0.00138106
-2.3997e-05
-3.36629e-06
-0.00137405
-2.00127e-05
-5.2463e-06
-0.00136489
-6.81171e-06
-0.00135507
-1.04661e-05
1.47888e-05
-2.37355e-07
-0.00166421
7.00488e-06
6.6619e-07
-0.00166814
-1.19852e-06
1.14374e-06
-0.00167006
-9.55764e-06
1.19174e-06
-0.00167003
-1.77358e-05
7.50951e-07
-0.001668
-2.52176e-05
-2.12527e-07
-0.00166376
-3.10208e-05
-1.77189e-06
-0.00165679
-3.34453e-05
-3.92412e-06
-0.00164649
-2.94354e-05
-6.66867e-06
-0.00163216
-9.17426e-06
-0.00161652
-1.68089e-05
1.76404e-05
9.124e-08
-0.00194388
8.63509e-06
1.16013e-06
-0.00194883
-7.95343e-07
1.73035e-06
-0.00195135
-1.05074e-05
1.81498e-06
-0.00195151
-2.02924e-05
1.34654e-06
-0.00194915
-2.97514e-05
2.73979e-07
-0.00194391
-3.78612e-05
-1.54479e-06
-0.00193485
-4.25375e-05
-4.16326e-06
-0.00192087
-3.92658e-05
-7.76936e-06
-0.00190002
-1.13318e-05
-0.00187645
-2.40449e-05
1.98885e-05
5.74794e-07
-0.00222193
9.92388e-06
1.73306e-06
-0.00222805
-4.37452e-07
2.32644e-06
-0.00223126
-1.11869e-05
2.41545e-06
-0.00223173
-2.22573e-05
1.9252e-06
-0.00222916
-3.34366e-05
8.00662e-07
-0.00222305
-4.38107e-05
-1.15719e-06
-0.00221193
-5.10963e-05
-4.07296e-06
-0.00219411
-4.94085e-05
-8.36534e-06
-0.0021656
-1.2966e-05
-0.00213203
-3.25162e-05
2.1392e-05
1.14654e-06
-0.00250049
1.0843e-05
2.20918e-06
-0.00250781
-5.47799e-08
2.73315e-06
-0.00251181
-1.14036e-05
2.76276e-06
-0.00251269
-2.33156e-05
2.25836e-06
-0.00251006
-3.58097e-05
1.15835e-06
-0.00250328
-4.8204e-05
-7.73887e-07
-0.0024903
-5.81922e-05
-3.76229e-06
-0.00246869
-5.87851e-05
-8.42411e-06
-0.00243174
-1.40208e-05
-0.00238633
-4.11373e-05
2.19108e-05
1.52478e-06
-0.00277984
1.10184e-05
2.34385e-06
-0.0027883
-1.11635e-07
2.70115e-06
-0.00279285
-1.17068e-05
2.65274e-06
-0.00279389
-2.4004e-05
2.16589e-06
-0.00279094
-3.72527e-05
1.18781e-06
-0.00278334
-5.11484e-05
-4.8756e-07
-0.00276858
-6.36556e-05
-3.20122e-06
-0.00274351
-6.72353e-05
-7.45403e-06
-0.00269826
-1.37234e-05
-0.00263965
-5.01125e-05
2.15661e-05
1.15185e-06
-0.00305719
1.08733e-05
1.45816e-06
-0.00306646
-1.92059e-08
1.60461e-06
-0.00307153
-1.13472e-05
1.39895e-06
-0.0030728
-2.34897e-05
9.31654e-07
-0.00306971
-3.68845e-05
1.4862e-07
-0.00306154
-5.16063e-05
-1.023e-06
-0.00304526
-6.64726e-05
-2.82984e-06
-0.00301724
-7.36932e-05
-5.57224e-06
-0.00296477
-1.04913e-05
-0.00289096
-5.92553e-05
2.05431e-05
-0.00331712
1.00049e-05
-0.00332663
-5.71976e-07
-0.00333169
-1.15632e-05
-0.00333217
-2.33108e-05
-0.00332758
-3.63508e-05
-0.00331721
-5.09317e-05
-0.00329804
-6.64336e-05
-0.00326575
-7.56786e-05
-0.00320687
-0.00311908
-6.50086e-05
3.67555e-06
-3.97262e-07
-0.000825315
1.69035e-06
-2.14715e-07
-0.00082602
-4.96094e-07
-1.11398e-07
-0.000826255
-2.62963e-06
-1.27094e-07
-0.0008262
-4.46368e-06
-2.57333e-07
-0.000825909
-5.75351e-06
-4.97237e-07
-0.000825415
-6.27797e-06
-8.25592e-07
-0.00082475
-5.86407e-06
-1.2087e-06
-0.000823958
-4.43359e-06
-1.58607e-06
-0.000823013
-1.82919e-06
-0.00082166
-2.10892e-06
5.96581e-06
-6.16078e-07
-0.00110382
2.62148e-06
-2.38688e-07
-0.00110545
-1.00413e-06
-3.55132e-08
-0.00110626
-4.57948e-06
-5.39188e-08
-0.0011063
-7.7461e-06
-3.08929e-07
-0.00110563
-1.01176e-05
-7.95589e-07
-0.00110429
-1.12682e-05
-1.48832e-06
-0.00110223
-1.07776e-05
-2.32445e-06
-0.00109934
-8.32343e-06
-3.18171e-06
-0.00109558
-3.76333e-06
-0.00109139
-4.04908e-06
9.5032e-06
-6.18154e-07
-0.00138185
4.46159e-06
-3.28603e-08
-0.00138432
-9.27225e-07
2.73175e-07
-0.00138554
-6.28712e-06
2.57277e-07
-0.00138554
-1.1198e-05
-1.15591e-07
-0.00138435
-1.51504e-05
-8.53487e-07
-0.00138196
-1.74773e-05
-1.94942e-06
-0.00137827
-1.73688e-05
-3.33627e-06
-0.00137315
-1.3917e-05
-4.8634e-06
-0.00136666
-6.03826e-06
-0.00135973
-6.9802e-06
1.26537e-05
-4.88686e-07
-0.00165866
6.07556e-06
3.69596e-07
-0.00166197
-9.49865e-07
8.1522e-07
-0.00166358
-8.04368e-06
8.33498e-07
-0.00166351
-1.47723e-05
3.76076e-07
-0.00166176
-2.05674e-05
-5.74126e-07
-0.00165824
-2.45429e-05
-2.04797e-06
-0.00165272
-2.54252e-05
-3.9989e-06
-0.00164494
-2.13595e-05
-6.31648e-06
-0.00163477
-8.29231e-06
-0.00162403
-1.15857e-05
1.55669e-05
-1.49606e-07
-0.00193713
7.64863e-06
8.84755e-07
-0.00194143
-7.35401e-07
1.42577e-06
-0.00194358
-9.28798e-06
1.47096e-06
-0.0019436
-1.7647e-05
9.62391e-07
-0.00194138
-2.52702e-05
-1.37265e-07
-0.00193673
-3.11199e-05
-1.91757e-06
-0.00192913
-3.34804e-05
-4.37556e-06
-0.00191813
-2.92701e-05
-7.51503e-06
-0.00190303
-1.04273e-05
-0.00188686
-1.67134e-05
1.7958e-05
3.49603e-07
-0.00221418
8.93983e-06
1.48927e-06
-0.00221964
-5.29505e-07
2.06268e-06
-0.00222243
-1.0267e-05
2.11444e-06
-0.00222263
-2.00101e-05
1.57447e-06
-0.00222003
-2.93209e-05
3.95659e-07
-0.00221427
-3.71305e-05
-1.56667e-06
-0.00220448
-4.1396e-05
-4.37732e-06
-0.00218984
-3.76931e-05
-8.20722e-06
-0.00216861
-1.20689e-05
-0.00214526
-2.28218e-05
1.9618e-05
9.35771e-07
-0.00249191
9.88046e-06
1.99901e-06
-0.00249859
-2.69627e-07
2.51902e-06
-0.00250211
-1.07574e-05
2.52667e-06
-0.00250262
-2.14724e-05
1.97967e-06
-0.00249975
-3.21443e-05
8.19548e-07
-0.00249304
-4.1781e-05
-1.14746e-06
-0.00248109
-4.81499e-05
-4.07312e-06
-0.00246263
-4.55244e-05
-8.31161e-06
-0.00243426
-1.30688e-05
-0.002402
-2.88541e-05
2.03369e-05
1.29882e-06
-0.00277044
1.01575e-05
2.13973e-06
-0.00277826
-3.36564e-07
2.51074e-06
-0.00278235
-1.12067e-05
2.46918e-06
-0.00278296
-2.24603e-05
1.96953e-06
-0.00277968
-3.40134e-05
9.60398e-07
-0.00277193
-4.51003e-05
-7.42221e-07
-0.0027579
-5.35409e-05
-3.40471e-06
-0.00273574
-5.27063e-05
-7.33552e-06
-0.00270006
-1.2667e-05
-0.00265752
-3.52247e-05
2.01676e-05
1.0271e-06
-0.00304691
1.00934e-05
1.34905e-06
-0.0030556
-2.66227e-07
1.53476e-06
-0.0030602
-1.09847e-05
1.37539e-06
-0.00306099
-2.22224e-05
9.52263e-07
-0.00305746
-3.40641e-05
2.0372e-07
-0.00304894
-4.59901e-05
-9.51527e-07
-0.00303313
-5.6281e-05
-2.71124e-06
-0.00300764
-5.78142e-05
-5.28723e-06
-0.00296528
-9.37623e-06
-0.00291083
-4.12253e-05
1.93044e-05
-0.0033064
9.39051e-06
-0.00331536
-6.51591e-07
-0.00332011
-1.10607e-05
-0.00332038
-2.1983e-05
-0.00331571
-3.36148e-05
-0.00330537
-4.56161e-05
-0.00328699
-5.65857e-05
-0.00325749
-5.95997e-05
-0.00320914
-0.00314357
-4.44667e-05
2.56227e-06
-5.08684e-07
-0.000823796
1.2361e-06
-3.58007e-07
-0.000824336
-2.50858e-07
-2.66073e-07
-0.000824502
-1.70266e-06
-2.7471e-07
-0.000824473
-2.93613e-06
-3.77042e-07
-0.000824299
-3.77903e-06
-5.66846e-07
-0.000824005
-4.0922e-06
-8.22431e-07
-0.000823614
-3.78643e-06
-1.11331e-06
-0.000823151
-2.84802e-06
-1.38777e-06
-0.000822564
-1.54374e-06
-0.000821587
-1.37768e-06
4.43802e-06
-8.04942e-07
-0.00110164
2.01908e-06
-4.80287e-07
-0.00110291
-6.4758e-07
-2.99448e-07
-0.00110356
-3.27307e-06
-3.12034e-07
-0.00110364
-5.55426e-06
-5.28332e-07
-0.0011032
-7.18921e-06
-9.37925e-07
-0.00110228
-7.88239e-06
-1.50816e-06
-0.00110085
-7.3911e-06
-2.17548e-06
-0.00109877
-5.60935e-06
-2.82512e-06
-0.00109593
-3.21731e-06
-0.00109258
-2.74422e-06
7.65977e-06
-8.32884e-07
-0.00137859
3.71613e-06
-3.17752e-07
-0.00138054
-5.54428e-07
-4.72052e-08
-0.00138153
-4.77716e-06
-6.98442e-08
-0.00138156
-8.55259e-06
-4.13448e-07
-0.00138069
-1.14399e-05
-1.07451e-06
-0.00137894
-1.29358e-05
-2.02571e-06
-0.00137626
-1.2525e-05
-3.18754e-06
-0.00137255
-9.78394e-06
-4.39763e-06
-0.00136783
-5.2626e-06
-0.00136265
-4.81745e-06
1.05679e-05
-7.18916e-07
-0.00165431
5.16397e-06
6.83765e-08
-0.00165695
-6.84774e-07
4.72441e-07
-0.00165825
-6.54775e-06
4.69384e-07
-0.00165819
-1.19619e-05
2.17069e-08
-0.00165678
-1.63818e-05
-8.72138e-07
-0.00165403
-1.90805e-05
-2.20764e-06
-0.00164984
-1.91723e-05
-3.90834e-06
-0.00164413
-1.5632e-05
-5.80899e-06
-0.0016369
-7.33602e-06
-0.0016293
-8.29509e-06
1.33949e-05
-3.97169e-07
-0.00193164
6.62899e-06
5.73647e-07
-0.00193517
-6.16246e-07
1.07446e-06
-0.00193693
-7.94528e-06
1.08806e-06
-0.00193688
-1.4911e-05
5.67426e-07
-0.00193496
-2.09248e-05
-5.08223e-07
-0.00193108
-2.50609e-05
-2.17806e-06
-0.00192503
-2.60297e-05
-4.39165e-06
-0.00191668
-2.19306e-05
-7.03546e-06
-0.0019059
-9.36223e-06
-0.0018947
-1.20671e-05
1.58195e-05
9.18948e-08
-0.00220768
7.88212e-06
1.18412e-06
-0.00221231
-5.38062e-07
1.72607e-06
-0.00221466
-9.12429e-06
1.7455e-06
-0.00221471
-1.74804e-05
1.18044e-06
-0.00221229
-2.50472e-05
-1.38873e-09
-0.00220721
-3.07791e-05
-1.88799e-06
-0.00219903
-3.30302e-05
-4.48258e-06
-0.0021875
-2.88329e-05
-7.77404e-06
-0.00217206
-1.09254e-05
-0.00215587
-1.66507e-05
1.7561e-05
6.76609e-07
-0.00248454
8.81405e-06
1.7164e-06
-0.00249037
-3.92476e-07
2.22159e-06
-0.0024934
-9.82987e-06
2.20884e-06
-0.00249364
-1.92155e-05
1.63751e-06
-0.00249082
-2.80869e-05
4.60179e-07
-0.00248463
-3.53569e-05
-1.46457e-06
-0.00247424
-3.91089e-05
-4.20678e-06
-0.00245915
-3.52139e-05
-7.90227e-06
-0.00243802
-1.17931e-05
-0.00241538
-2.09588e-05
1.84483e-05
1.01028e-06
-0.00276216
9.17571e-06
1.85666e-06
-0.00276913
-4.75337e-07
2.23095e-06
-0.00277271
-1.04089e-05
2.19151e-06
-0.00277301
-2.04401e-05
1.68508e-06
-0.00276969
-3.0239e-05
6.68824e-07
-0.00276234
-3.88165e-05
-1.00452e-06
-0.00274978
-4.4146e-05
-3.50869e-06
-0.00273111
-4.11906e-05
-6.96489e-06
-0.00270396
-1.12699e-05
-0.00267365