/*--------------------------------*- C++ -*----------------------------------*\
| =========                 |                                                 |
| \\      /  F ield         | foam-extend: Open Source CFD                    |
|  \\    /   O peration     | Version:     4.0                                |
|   \\  /    A nd           | Web:         http://www.foam-extend.org         |
|    \\/     M anipulation  |                                                 |
\*---------------------------------------------------------------------------*/
FoamFile
{
    version     2.0;
    format      ascii;
    class       volScalarField;
    location    "500";
    object      rho;
}
// * * * * * * * * * * * * * * * * * * * * * * * * * * * * * * * * * * * * * //

dimensions      [1 -3 0 0 0 0 0];

internalField   nonuniform List<scalar> 
34480
(
1.3685
1.36763
1.36732
1.36751
1.3684
1.37032
1.37403
1.38143
1.39108
1.39386
1.3679
1.36715
1.36695
1.36715
1.36793
1.3696
1.37297
1.38005
1.39038
1.38964
1.36508
1.36431
1.36416
1.36428
1.36487
1.36618
1.36918
1.37579
1.3864
1.37998
1.36266
1.36186
1.36168
1.36168
1.36206
1.363
1.36556
1.3714
1.38175
1.3695
1.36034
1.35942
1.35917
1.359
1.35917
1.35976
1.36191
1.36699
1.37682
1.35927
1.35903
1.3581
1.35777
1.35751
1.35752
1.35786
1.35967
1.36401
1.37304
1.35051
1.35667
1.3556
1.35519
1.35482
1.35475
1.35496
1.35655
1.36031
1.36843
1.34171
1.35638
1.35541
1.35503
1.35485
1.35502
1.35552
1.35722
1.36066
1.36764
1.33685
1.35397
1.35307
1.35274
1.35269
1.35313
1.35403
1.35597
1.35925
1.36478
1.33074
1.35096
1.35024
1.3504
1.35126
1.35293
1.35544
1.35906
1.36393
1.3698
1.33223
1.37399
1.37281
1.3723
1.37235
1.37307
1.37461
1.3772
1.38117
1.38757
1.39597
1.3733
1.37207
1.37159
1.37165
1.37238
1.37398
1.37684
1.38179
1.39111
1.40453
1.37065
1.36931
1.36879
1.36874
1.36932
1.37072
1.37355
1.37902
1.3908
1.40801
1.36845
1.36697
1.3663
1.36605
1.3664
1.36749
1.37006
1.37541
1.38864
1.40833
1.36646
1.36475
1.36392
1.36342
1.36349
1.36419
1.36638
1.37128
1.38523
1.40627
1.36543
1.36362
1.3626
1.36191
1.36175
1.3621
1.36389
1.36814
1.38219
1.40334
1.36336
1.36135
1.36018
1.35928
1.35893
1.35901
1.36045
1.36406
1.37778
1.39844
1.36329
1.36127
1.36003
1.35919
1.35891
1.35908
1.36046
1.36356
1.37643
1.39577
1.36106
1.35905
1.35779
1.35695
1.35671
1.35701
1.35844
1.36129
1.37278
1.39129
1.35817
1.35621
1.35526
1.35505
1.35567
1.35706
1.35957
1.3634
1.37455
1.39201
1.3778
1.37684
1.37644
1.37657
1.37731
1.37872
1.38092
1.38398
1.38787
1.39208
1.37727
1.37616
1.37576
1.37594
1.37683
1.37854
1.38125
1.38522
1.39122
1.39833
1.3748
1.37352
1.37308
1.37322
1.37411
1.37588
1.37888
1.38372
1.39221
1.40281
1.37267
1.3712
1.37062
1.37061
1.37138
1.37308
1.37622
1.38152
1.39195
1.40574
1.37075
1.36905
1.36831
1.36809
1.36868
1.37017
1.37324
1.37864
1.39052
1.40704
1.36973
1.36791
1.36701
1.36662
1.36702
1.3683
1.3712
1.37645
1.3893
1.40781
1.36767
1.36567
1.36464
1.36407
1.3643
1.36536
1.36808
1.37308
1.38648
1.40649
1.36759
1.36558
1.36448
1.36394
1.36419
1.36529
1.368
1.37278
1.38619
1.40692
1.36541
1.3634
1.36226
1.36168
1.36189
1.36297
1.36565
1.37044
1.38326
1.4048
1.36253
1.36054
1.3596
1.35946
1.36024
1.362
1.36531
1.37076
1.38342
1.40534
1.38049
1.3798
1.37951
1.37963
1.38019
1.38121
1.38268
1.38451
1.38653
1.38817
1.38043
1.37951
1.37919
1.37938
1.38016
1.38157
1.38366
1.3864
1.38983
1.39304
1.37844
1.37727
1.37687
1.37705
1.37791
1.37956
1.38215
1.38584
1.39138
1.39718
1.37656
1.37514
1.37459
1.37465
1.3755
1.37726
1.38025
1.38477
1.39239
1.40104
1.37484
1.37316
1.37246
1.37235
1.37309
1.37481
1.37799
1.38303
1.39248
1.40395
1.3739
1.37208
1.37122
1.37098
1.37159
1.37322
1.37647
1.38177
1.39272
1.40672
1.37192
1.36992
1.36893
1.36853
1.36902
1.37052
1.37375
1.37917
1.39127
1.40761
1.37186
1.36984
1.36878
1.36839
1.3689
1.37042
1.37372
1.37922
1.39199
1.41014
1.36971
1.36768
1.36659
1.36618
1.36665
1.36814
1.37141
1.37708
1.38994
1.40998
1.36683
1.36481
1.36386
1.36375
1.36461
1.36657
1.37025
1.37638
1.38926
1.41084
1.38244
1.382
1.38181
1.3819
1.38229
1.38297
1.38389
1.38498
1.38606
1.38682
1.38288
1.3822
1.38197
1.38214
1.38275
1.38381
1.38529
1.38708
1.389
1.39052
1.38146
1.38048
1.38015
1.38033
1.38108
1.38246
1.3845
1.38714
1.39047
1.39351
1.3799
1.37864
1.37814
1.37824
1.37906
1.38068
1.38324
1.38678
1.39182
1.39685
1.37845
1.3769
1.37625
1.37623
1.37702
1.37873
1.38166
1.38592
1.39264
1.39986
1.37765
1.37592
1.37513
1.375
1.37573
1.37747
1.38063
1.38542
1.39371
1.40312
1.37579
1.37386
1.37295
1.3727
1.37336
1.37505
1.37835
1.38352
1.39319
1.4048
1.37578
1.37382
1.37284
1.37258
1.37326
1.37502
1.37847
1.38395
1.39466
1.40821
1.3737
1.3717
1.3707
1.37042
1.37108
1.37283
1.37634
1.38213
1.3934
1.40912
1.37084
1.36886
1.36794
1.36787
1.36879
1.37086
1.37465
1.38083
1.39231
1.40993
1.38393
1.38367
1.38356
1.38361
1.38386
1.38428
1.38483
1.38543
1.38599
1.38628
1.38479
1.38433
1.38418
1.38432
1.38475
1.38549
1.38646
1.38754
1.38856
1.38922
1.38393
1.38317
1.38291
1.38306
1.38366
1.38473
1.38623
1.38804
1.39002
1.39157
1.38272
1.38165
1.38123
1.38134
1.38205
1.38342
1.38547
1.38812
1.39137
1.39425
1.38158
1.3802
1.37963
1.37966
1.38041
1.38197
1.38446
1.38787
1.39249
1.39694
1.38095
1.37938
1.37866
1.37861
1.37937
1.38104
1.38389
1.38794
1.39394
1.40006
1.37925
1.37746
1.37663
1.37649
1.37722
1.37894
1.38204
1.3866
1.39391
1.40185
1.37932
1.37748
1.37658
1.37644
1.3772
1.37902
1.38235
1.38736
1.39579
1.40547
1.37732
1.37543
1.3745
1.37433
1.3751
1.37695
1.38039
1.38582
1.39505
1.4068
1.37454
1.37265
1.37177
1.37174
1.37268
1.37475
1.37841
1.38418
1.39378
1.40723
1.38513
1.385
1.38494
1.38497
1.38512
1.38537
1.38568
1.38602
1.3863
1.38638
1.3863
1.38603
1.38594
1.38604
1.38633
1.38681
1.38741
1.38803
1.38853
1.38873
1.38594
1.38539
1.3852
1.38531
1.38576
1.38654
1.38758
1.38877
1.38993
1.39071
1.38504
1.38419
1.38384
1.38394
1.38452
1.3856
1.38716
1.38907
1.39117
1.39284
1.38422
1.38305
1.38257
1.38261
1.38328
1.38459
1.38661
1.38922
1.39238
1.39515
1.38378
1.38241
1.38179
1.38178
1.3825
1.38399
1.38641
1.38967
1.39394
1.39794
1.38225
1.38065
1.37992
1.37985
1.38058
1.3822
1.38492
1.38876
1.39414
1.39953
1.38244
1.38077
1.37997
1.3799
1.38068
1.38243
1.38543
1.38977
1.39618
1.40297
1.38053
1.37879
1.37796
1.37787
1.37867
1.38048
1.38365
1.38842
1.39565
1.40418
1.37787
1.37612
1.37531
1.37531
1.37623
1.3782
1.38155
1.38663
1.39429
1.40411
1.38617
1.38611
1.38609
1.3861
1.38619
1.38633
1.38651
1.38669
1.38682
1.38682
1.38754
1.38739
1.38735
1.38742
1.38761
1.3879
1.38826
1.38858
1.38877
1.38874
1.38758
1.38719
1.38706
1.38714
1.38746
1.388
1.38869
1.38943
1.39008
1.39042
1.38693
1.38627
1.386
1.38608
1.38653
1.38734
1.38847
1.38979
1.39113
1.39209
1.38639
1.38545
1.38505
1.3851
1.38565
1.3867
1.38826
1.39019
1.39232
1.39407
1.38614
1.38499
1.38446
1.38448
1.38511
1.38638
1.38833
1.39085
1.39387
1.39651
1.38479
1.3834
1.38279
1.38276
1.38344
1.38486
1.38715
1.39023
1.39413
1.39782
1.38512
1.38365
1.38296
1.38293
1.38368
1.38526
1.38784
1.39141
1.39619
1.40094
1.38331
1.38175
1.38102
1.38099
1.38176
1.38343
1.3862
1.39019
1.39568
1.40172
1.3808
1.37923
1.3785
1.37853
1.37939
1.38117
1.38411
1.38838
1.39427
1.40125
1.3871
1.38709
1.38708
1.38709
1.38714
1.38721
1.38731
1.38741
1.38747
1.38742
1.38857
1.3885
1.38848
1.38853
1.38865
1.38883
1.38902
1.38917
1.38919
1.38904
1.38892
1.38865
1.38856
1.38862
1.38884
1.38919
1.38964
1.39008
1.39041
1.3905
1.38843
1.38795
1.38774
1.3878
1.38812
1.38871
1.3895
1.39039
1.39122
1.39176
1.38815
1.38741
1.38709
1.38713
1.38756
1.38837
1.38953
1.3909
1.39233
1.39342
1.38806
1.38712
1.3867
1.38673
1.38725
1.38827
1.38978
1.39167
1.39376
1.39551
1.38687
1.38572
1.3852
1.3852
1.38579
1.38699
1.38882
1.39121
1.394
1.39652
1.38735
1.38611
1.38552
1.38553
1.3862
1.38755
1.38968
1.39251
1.39599
1.39929
1.38564
1.38428
1.38367
1.38366
1.38437
1.38583
1.38816
1.39136
1.39541
1.3996
1.38332
1.38195
1.38132
1.38136
1.38213
1.38369
1.38616
1.38961
1.39401
1.39886
1.38793
1.38795
1.38794
1.38795
1.38798
1.38802
1.38807
1.38812
1.38815
1.38809
1.38943
1.3894
1.3894
1.38943
1.3895
1.38961
1.38971
1.38976
1.38969
1.38947
1.39
1.38983
1.38977
1.38981
1.38995
1.39017
1.39045
1.39069
1.39084
1.39078
1.38961
1.38926
1.38911
1.38914
1.38937
1.38978
1.39032
1.3909
1.39141
1.39168
1.38953
1.38896
1.38872
1.38875
1.38908
1.38967
1.3905
1.39146
1.3924
1.39307
1.38957
1.38884
1.3885
1.38853
1.38894
1.38973
1.39086
1.39223
1.39367
1.39481
1.38853
1.38759
1.38718
1.38719
1.38768
1.38864
1.39006
1.39184
1.39381
1.39552
1.38916
1.38815
1.38766
1.38769
1.38825
1.38937
1.39105
1.39321
1.39571
1.39796
1.38752
1.38639
1.38588
1.38589
1.3865
1.38772
1.3896
1.39208
1.39501
1.39788
1.38543
1.38428
1.38375
1.38379
1.38445
1.38576
1.38776
1.39044
1.39365
1.39697
1.38868
1.3887
1.3887
1.3887
1.38872
1.38874
1.38877
1.3888
1.3888
1.38875
1.39013
1.39012
1.39012
1.39015
1.39019
1.39025
1.39029
1.39029
1.39018
1.38994
1.39087
1.39075
1.39071
1.39073
1.39082
1.39096
1.39113
1.39125
1.39129
1.39116
1.39051
1.39025
1.39013
1.39015
1.39031
1.39059
1.39095
1.39133
1.39162
1.39175
1.39059
1.39016
1.38998
1.38999
1.39023
1.39066
1.39124
1.39189
1.3925
1.39291
1.39072
1.39015
1.38989
1.38992
1.39023
1.39082
1.39164
1.39261
1.3936
1.39434
1.38979
1.38905
1.38873
1.38874
1.38913
1.38987
1.39093
1.39223
1.3936
1.39475
1.39058
1.38977
1.38939
1.38941
1.38987
1.39075
1.39204
1.39364
1.3954
1.39693
1.38898
1.38806
1.38765
1.38767
1.38818
1.38916
1.39062
1.39248
1.39456
1.39651
1.38715
1.38621
1.38578
1.38582
1.38636
1.38742
1.38899
1.39101
1.3933
1.39554
1.38931
1.38933
1.38934
1.38934
1.38935
1.38936
1.38938
1.38939
1.38939
1.38934
1.39066
1.39066
1.39066
1.39068
1.3907
1.39073
1.39075
1.39072
1.39059
1.39035
1.39153
1.39145
1.39142
1.39143
1.39148
1.39157
1.39167
1.39172
1.3917
1.39153
1.39114
1.39095
1.39086
1.39087
1.39097
1.39115
1.39139
1.39164
1.39181
1.39185
1.39134
1.39102
1.39089
1.3909
1.39106
1.39136
1.39176
1.3922
1.39259
1.39284
1.39153
1.39111
1.39091
1.39093
1.39116
1.39158
1.39217
1.39284
1.39351
1.394
1.3907
1.39013
1.38988
1.38989
1.39018
1.39074
1.39151
1.39244
1.39337
1.39416
1.39163
1.39101
1.39071
1.39074
1.39109
1.39176
1.39272
1.39387
1.3951
1.39613
1.39005
1.38932
1.389
1.38902
1.38942
1.39018
1.39128
1.39264
1.3941
1.39541
1.38851
1.38777
1.38742
1.38746
1.38789
1.38871
1.3899
1.39138
1.39298
1.39447
1.38982
1.38984
1.38985
1.38985
1.38985
1.38986
1.38987
1.38987
1.38987
1.38983
1.39101
1.39101
1.39101
1.39102
1.39103
1.39105
1.39105
1.39101
1.39089
1.39065
1.392
1.39193
1.39191
1.39191
1.39195
1.392
1.39205
1.39207
1.39202
1.39184
1.39153
1.39138
1.39131
1.39131
1.39138
1.3915
1.39165
1.39181
1.39191
1.39192
1.39183
1.3916
1.39149
1.3915
1.39161
1.39181
1.39208
1.39237
1.39263
1.39279
1.39205
1.39174
1.39159
1.3916
1.39176
1.39206
1.39247
1.39293
1.39338
1.39372
1.39128
1.39085
1.39067
1.39067
1.39089
1.39129
1.39183
1.39248
1.39311
1.39367
1.39236
1.39189
1.39167
1.39169
1.39195
1.39245
1.39314
1.39395
1.39479
1.39549
1.39076
1.3902
1.38996
1.38997
1.39028
1.39084
1.39164
1.39261
1.39361
1.39451
1.38954
1.38897
1.38871
1.38874
1.38907
1.38968
1.39055
1.3916
1.3927
1.39369
1.39019
1.39021
1.39022
1.39021
1.39022
1.39022
1.39023
1.39023
1.39022
1.39019
1.39116
1.39115
1.39115
1.39115
1.39116
1.39117
1.39117
1.39113
1.39101
1.3908
1.39227
1.39221
1.39219
1.39219
1.39221
1.39224
1.39227
1.39228
1.39221
1.39204
1.39168
1.39156
1.39151
1.3915
1.39155
1.39162
1.39173
1.39183
1.39189
1.39189
1.39207
1.39189
1.39182
1.39182
1.39189
1.39203
1.39221
1.3924
1.39257
1.39268
1.3923
1.39207
1.39196
1.39196
1.39207
1.39228
1.39255
1.39287
1.39318
1.39342
1.39158
1.39126
1.39113
1.39113
1.39128
1.39156
1.39194
1.39238
1.39281
1.39321
1.39279
1.39246
1.3923
1.39231
1.3925
1.39285
1.39334
1.39389
1.39447
1.39494
1.39114
1.39072
1.39054
1.39055
1.39077
1.39118
1.39175
1.39242
1.39309
1.39371
1.39028
1.38987
1.38967
1.38969
1.38993
1.39038
1.391
1.39172
1.39246
1.39312
1.39043
1.39043
1.39044
1.39044
1.39044
1.39044
1.39045
1.39045
1.39044
1.39042
1.39109
1.39107
1.39106
1.39106
1.39107
1.39107
1.39107
1.39104
1.39094
1.39076
1.39235
1.39229
1.39227
1.39227
1.39228
1.3923
1.39232
1.39232
1.39226
1.39211
1.39161
1.39151
1.39147
1.39146
1.39149
1.39154
1.39161
1.39168
1.39172
1.39172
1.39207
1.39194
1.39188
1.39188
1.39193
1.39202
1.39213
1.39227
1.39238
1.39247
1.39229
1.39212
1.39204
1.39204
1.39211
1.39225
1.39244
1.39265
1.39286
1.39305
1.39162
1.3914
1.3913
1.3913
1.39141
1.39159
1.39185
1.39214
1.39243
1.39273
1.39298
1.39275
1.39263
1.39264
1.39277
1.39301
1.39335
1.39372
1.39411
1.39444
1.39122
1.39091
1.39079
1.39079
1.39095
1.39123
1.39162
1.39208
1.39252
1.39296
1.3908
1.39051
1.39037
1.39038
1.39055
1.39086
1.39129
1.39178
1.39227
1.39269
1.39053
1.39055
1.39056
1.39055
1.39056
1.39056
1.39056
1.39056
1.39055
1.39053
1.39078
1.39074
1.39073
1.39073
1.39073
1.39074
1.39074
1.39072
1.39065
1.39049
1.39222
1.39217
1.39215
1.39215
1.39216
1.39217
1.39218
1.39218
1.39213
1.39201
1.39132
1.39123
1.3912
1.39119
1.39121
1.39124
1.39129
1.39134
1.39137
1.39139
1.39184
1.39174
1.3917
1.39169
1.39172
1.39178
1.39185
1.39194
1.39203
1.39211
1.39203
1.39191
1.39185
1.39185
1.39189
1.39198
1.39211
1.39225
1.3924
1.39256
1.39144
1.39129
1.39122
1.39122
1.39129
1.39141
1.39158
1.39177
1.39195
1.39219
1.39294
1.39277
1.39269
1.3927
1.39279
1.39295
1.39317
1.39342
1.39368
1.39391
1.39103
1.39081
1.39072
1.39073
1.39083
1.39102
1.39128
1.39158
1.39187
1.39218
1.39117
1.39097
1.39087
1.39088
1.391
1.39121
1.39149
1.39181
1.39213
1.3924
1.39066
1.39068
1.39068
1.39068
1.39068
1.39068
1.39068
1.39068
1.39067
1.39065
1.39019
1.39014
1.39013
1.39013
1.39013
1.39013
1.39014
1.39013
1.39008
1.38997
1.39188
1.39183
1.39181
1.39181
1.39181
1.39182
1.39183
1.39183
1.3918
1.39171
1.39082
1.39075
1.39073
1.39073
1.39074
1.39076
1.39078
1.39082
1.39084
1.39088
1.39136
1.39129
1.39126
1.39126
1.39128
1.39131
1.39136
1.39141
1.39148
1.39157
1.39153
1.39144
1.3914
1.3914
1.39143
1.39149
1.39156
1.39166
1.39176
1.3919
1.39105
1.39095
1.39091
1.39092
1.39096
1.39104
1.39114
1.39125
1.39136
1.39154
1.39263
1.39252
1.39246
1.39247
1.39252
1.39263
1.39277
1.39293
1.39311
1.39328
1.39055
1.3904
1.39035
1.39035
1.39042
1.39054
1.3907
1.39089
1.39107
1.39131
1.39154
1.39141
1.39134
1.39135
1.39142
1.39156
1.39174
1.39194
1.39215
1.39232
1.39107
1.39109
1.39109
1.39109
1.39109
1.39109
1.39109
1.39108
1.39107
1.39106
1.38926
1.38922
1.38921
1.38921
1.38921
1.38921
1.38922
1.38921
1.38919
1.38913
1.39125
1.39121
1.3912
1.3912
1.3912
1.3912
1.39121
1.39121
1.3912
1.39116
1.39014
1.3901
1.3901
1.3901
1.39011
1.39012
1.39013
1.39014
1.39014
1.39019
1.39066
1.39062
1.3906
1.39061
1.39062
1.39063
1.39066
1.39069
1.39072
1.39081
1.3908
1.39074
1.39073
1.39073
1.39075
1.39078
1.39082
1.39087
1.39093
1.39104
1.39045
1.3904
1.39039
1.39039
1.39042
1.39047
1.39052
1.39058
1.39063
1.39075
1.39195
1.39187
1.39183
1.39184
1.39187
1.39194
1.39203
1.39213
1.39225
1.39237
1.38971
1.38962
1.38959
1.3896
1.38964
1.38972
1.38982
1.38993
1.39002
1.39018
1.39213
1.39205
1.392
1.39201
1.39206
1.39215
1.39227
1.39239
1.39253
1.39262
1.3921
1.39209
1.39209
1.39209
1.39209
1.39209
1.39209
1.39209
1.39208
1.39207
1.38789
1.38788
1.38789
1.3879
1.38791
1.38792
1.38791
1.3879
1.38787
1.38783
1.39026
1.39023
1.39022
1.39022
1.39022
1.39023
1.39023
1.39024
1.39025
1.39025
1.38935
1.38934
1.38936
1.38937
1.38938
1.38939
1.38938
1.38937
1.38936
1.38937
1.3898
1.38978
1.38978
1.38979
1.3898
1.38981
1.38982
1.38983
1.38983
1.38988
1.3899
1.38988
1.38988
1.38989
1.38991
1.38993
1.38995
1.38996
1.38998
1.39004
1.38969
1.38967
1.38967
1.38969
1.38971
1.38974
1.38977
1.38979
1.3898
1.38984
1.39074
1.39068
1.39066
1.39067
1.3907
1.39074
1.3908
1.39086
1.39093
1.39102
1.38837
1.38834
1.38833
1.38834
1.38837
1.38843
1.38849
1.38855
1.38857
1.38864
1.39315
1.3931
1.39307
1.39308
1.39312
1.39318
1.39326
1.39334
1.39344
1.39348
1.39319
1.39318
1.39317
1.39317
1.39317
1.39318
1.39318
1.3932
1.39322
1.39324
1.38628
1.38635
1.38641
1.38644
1.38646
1.38646
1.38646
1.38643
1.38639
1.38631
1.38903
1.38901
1.38901
1.38901
1.38902
1.38903
1.38904
1.38906
1.38908
1.38913
1.38853
1.38856
1.38859
1.38861
1.38862
1.38863
1.38863
1.38862
1.3886
1.38857
1.38887
1.38888
1.3889
1.38891
1.38892
1.38893
1.38894
1.38895
1.38894
1.38892
1.38896
1.38896
1.38897
1.38898
1.389
1.38902
1.38904
1.38905
1.38905
1.38903
1.38883
1.38884
1.38885
1.38886
1.38888
1.38891
1.38894
1.38896
1.38895
1.38891
1.38923
1.38919
1.38918
1.38919
1.38922
1.38926
1.38931
1.38936
1.3894
1.38944
1.38675
1.38676
1.38676
1.38677
1.38681
1.38685
1.38691
1.38695
1.38696
1.38688
1.39409
1.39405
1.39402
1.39403
1.39407
1.39412
1.3942
1.39427
1.39434
1.39437
1.48733
1.49309
1.48986
1.48316
1.51512
1.52106
1.51448
1.5045
1.53837
1.54377
1.53442
1.52206
1.55513
1.55956
1.54741
1.53324
1.56782
1.57099
1.55724
1.54121
1.57785
1.57964
1.56626
1.54793
1.58434
1.58452
1.5717
1.55117
1.59045
1.58889
1.57683
1.55416
1.58795
1.5845
1.57292
1.54837
1.58112
1.57668
1.56659
1.54107
1.39146
1.39122
1.39185
1.39301
1.40972
1.41111
1.41214
1.41198
1.42642
1.42914
1.43046
1.42886
1.44254
1.44649
1.44796
1.44458
1.45766
1.46247
1.4638
1.45863
1.47242
1.4778
1.47874
1.47223
1.48473
1.49041
1.49098
1.48345
1.49759
1.50338
1.50366
1.49553
1.50384
1.50965
1.50978
1.50142
1.50777
1.51412
1.51431
1.50617
1.39523
1.39567
1.39588
1.39595
1.40547
1.40645
1.40675
1.40665
1.41561
1.4172
1.41764
1.41739
1.4256
1.42786
1.42844
1.42791
1.43539
1.43833
1.43898
1.43796
1.44587
1.44946
1.45012
1.44848
1.45492
1.45903
1.45965
1.45729
1.46551
1.47003
1.47058
1.46747
1.47081
1.47565
1.47616
1.47226
1.47444
1.48005
1.48062
1.47571
1.38861
1.38855
1.3886
1.38875
1.39457
1.39479
1.3949
1.39496
1.40108
1.40161
1.40183
1.40186
1.40819
1.40916
1.40954
1.40948
1.41534
1.41681
1.41735
1.4171
1.42338
1.42539
1.42605
1.42553
1.43028
1.43281
1.43357
1.43267
1.43907
1.44206
1.44288
1.44154
1.44333
1.44674
1.44766
1.44586
1.44602
1.4503
1.45141
1.44894
1.38722
1.38714
1.38715
1.38724
1.3911
1.3912
1.39126
1.39131
1.39516
1.39544
1.39557
1.3956
1.40007
1.40059
1.40082
1.40085
1.40519
1.406
1.40634
1.40634
1.41119
1.41234
1.4128
1.41272
1.41616
1.41766
1.41822
1.41801
1.42315
1.42499
1.42566
1.42526
1.42653
1.42872
1.42957
1.429
1.42851
1.4315
1.43259
1.43158
1.38653
1.38641
1.3864
1.38649
1.38925
1.38924
1.38926
1.38931
1.39201
1.39208
1.39215
1.39222
1.39548
1.3957
1.39584
1.39594
1.39926
1.39966
1.39989
1.4
1.40386
1.40449
1.40481
1.40491
1.40745
1.40831
1.40873
1.40879
1.41308
1.41419
1.4147
1.4147
1.41578
1.41715
1.41785
1.4178
1.4169
1.41894
1.41983
1.41945
1.38662
1.38649
1.38646
1.38654
1.38863
1.3886
1.38861
1.38864
1.3908
1.3908
1.39084
1.3909
1.39333
1.39343
1.39352
1.3936
1.3962
1.39641
1.39656
1.39667
1.39979
1.40014
1.40037
1.40049
1.40235
1.40286
1.40315
1.40329
1.40691
1.40758
1.40796
1.40809
1.40894
1.4098
1.41031
1.41043
1.40921
1.41063
1.41127
1.41111
1.38705
1.38692
1.38689
1.38697
1.38857
1.38853
1.38852
1.38855
1.39036
1.39034
1.39036
1.3904
1.39228
1.39232
1.39237
1.39243
1.39458
1.39468
1.39478
1.39486
1.39747
1.39767
1.39781
1.39792
1.39931
1.3996
1.3998
1.39993
1.40305
1.40346
1.40372
1.40386
1.40436
1.4049
1.40525
1.40539
1.40397
1.40499
1.40542
1.4053
1.38768
1.38755
1.38752
1.38759
1.38885
1.38881
1.3888
1.38882
1.39038
1.39035
1.39036
1.3904
1.39181
1.39182
1.39186
1.3919
1.39368
1.39374
1.3938
1.39386
1.39606
1.39618
1.39628
1.39635
1.39738
1.39756
1.39769
1.39779
1.40052
1.40077
1.40095
1.40105
1.40116
1.4015
1.40174
1.40185
1.40032
1.40109
1.40138
1.40125
1.38838
1.38826
1.38823
1.38829
1.38929
1.38925
1.38924
1.38925
1.39065
1.39062
1.39062
1.39065
1.39168
1.39168
1.3917
1.39173
1.39321
1.39324
1.39328
1.39332
1.39516
1.39523
1.3953
1.39535
1.39606
1.39617
1.39626
1.39633
1.39874
1.39891
1.39902
1.3991
1.39887
1.39909
1.39925
1.39932
1.39775
1.39836
1.39855
1.39841
1.38907
1.38896
1.38893
1.38898
1.38976
1.38972
1.38971
1.38973
1.39102
1.391
1.391
1.39102
1.39172
1.39171
1.39172
1.39175
1.39299
1.39301
1.39303
1.39306
1.39458
1.39463
1.39467
1.3947
1.39512
1.3952
1.39526
1.39531
1.39747
1.39758
1.39766
1.39771
1.39719
1.39735
1.39745
1.3975
1.39593
1.39644
1.39657
1.39641
1.38969
1.38959
1.38956
1.3896
1.39019
1.39016
1.39014
1.39016
1.39141
1.39138
1.39138
1.39139
1.39181
1.39181
1.39181
1.39183
1.39289
1.39291
1.39292
1.39294
1.39419
1.39422
1.39425
1.39427
1.39444
1.3945
1.39454
1.39457
1.39654
1.39663
1.39668
1.39671
1.39593
1.39605
1.39612
1.39614
1.39464
1.39508
1.39517
1.395
1.39021
1.39012
1.39009
1.39012
1.39051
1.39047
1.39046
1.39047
1.39173
1.3917
1.3917
1.39171
1.39188
1.39187
1.39188
1.39189
1.39284
1.39284
1.39285
1.39286
1.39389
1.39392
1.39394
1.39395
1.39391
1.39396
1.39399
1.394
1.39584
1.39591
1.39595
1.39596
1.39493
1.39503
1.39508
1.39508
1.39373
1.39411
1.39417
1.394
1.3906
1.39051
1.39048
1.39051
1.39066
1.39063
1.39062
1.39063
1.39194
1.39192
1.39191
1.39192
1.39186
1.39185
1.39186
1.39187
1.39274
1.39275
1.39275
1.39276
1.39359
1.39363
1.39364
1.39364
1.39344
1.39348
1.39351
1.39351
1.39528
1.39535
1.39537
1.39536
1.39409
1.39418
1.39422
1.3942
1.39308
1.39341
1.39346
1.39329
1.39083
1.39076
1.39073
1.39075
1.39062
1.39059
1.39058
1.39059
1.39201
1.39199
1.39198
1.39199
1.39171
1.3917
1.3917
1.39171
1.39255
1.39257
1.39257
1.39257
1.39325
1.39328
1.3933
1.39329
1.39297
1.39301
1.39303
1.39302
1.39478
1.39485
1.39487
1.39484
1.39332
1.3934
1.39342
1.39339
1.39261
1.3929
1.39293
1.39278
1.39095
1.39088
1.39085
1.39087
1.39036
1.39033
1.39032
1.39033
1.39193
1.3919
1.39189
1.3919
1.3914
1.3914
1.39139
1.3914
1.39223
1.39225
1.39225
1.39224
1.39279
1.39283
1.39284
1.39282
1.39244
1.39249
1.3925
1.39248
1.39427
1.39434
1.39436
1.39432
1.39252
1.3926
1.39262
1.39258
1.39231
1.39255
1.39257
1.39243
1.39105
1.39098
1.39096
1.39097
1.38984
1.3898
1.38979
1.38981
1.39166
1.39164
1.39162
1.39163
1.39091
1.39091
1.39091
1.39091
1.39172
1.39175
1.39175
1.39174
1.39216
1.39221
1.39221
1.39219
1.3918
1.39185
1.39186
1.39182
1.39365
1.39373
1.39374
1.39369
1.39161
1.39169
1.39171
1.39166
1.39221
1.39241
1.39242
1.39231
1.39141
1.39134
1.39132
1.39134
1.389
1.38896
1.38894
1.38897
1.39115
1.39113
1.39111
1.39112
1.39024
1.39025
1.39024
1.39024
1.391
1.39103
1.39103
1.39101
1.39132
1.39137
1.39138
1.39134
1.39099
1.39105
1.39105
1.39101
1.39276
1.39284
1.39285
1.39279
1.39044
1.39052
1.39053
1.39047
1.39253
1.39267
1.39268
1.3926
1.39236
1.3923
1.39228
1.3923
1.3877
1.38765
1.38763
1.38765
1.39031
1.3903
1.39029
1.39029
1.38944
1.38944
1.38943
1.38941
1.39007
1.3901
1.3901
1.39007
1.39028
1.39033
1.39033
1.39028
1.39002
1.39006
1.39006
1.39001
1.39139
1.39148
1.39148
1.39142
1.38877
1.38882
1.38882
1.38877
1.39348
1.39357
1.39358
1.39353
1.39341
1.39338
1.39338
1.3934
1.38608
1.386
1.38596
1.38596
1.38926
1.38925
1.38924
1.38923
1.38859
1.38858
1.38856
1.38854
1.38902
1.38904
1.38902
1.389
1.38913
1.38915
1.38914
1.38911
1.38893
1.38894
1.38893
1.3889
1.38967
1.38973
1.38973
1.38968
1.38665
1.3866
1.38659
1.38661
1.39455
1.39461
1.39461
1.39456
1.44777
1.42469
1.40482
1.39146
1.38345
1.37844
1.37511
1.37279
1.37117
1.36997
1.45724
1.42612
1.4025
1.3889
1.38122
1.37648
1.3734
1.37131
1.36989
1.3689
1.45763
1.42295
1.39688
1.3847
1.37731
1.37275
1.36972
1.36766
1.36635
1.36569
1.45392
1.41799
1.39068
1.38051
1.37359
1.36955
1.3668
1.36496
1.36377
1.36318
1.44695
1.41178
1.38469
1.37616
1.36964
1.36618
1.36374
1.36217
1.36115
1.36075
1.43844
1.40654
1.37992
1.37318
1.36703
1.36421
1.36209
1.3608
1.35991
1.35948
1.42788
1.40035
1.37414
1.36918
1.36331
1.36111
1.35924
1.35819
1.35741
1.35709
1.4199
1.39739
1.3716
1.36842
1.36274
1.36106
1.35929
1.35832
1.35752
1.35697
1.4093
1.39105
1.36631
1.36505
1.35977
1.35857
1.35683
1.35593
1.35518
1.3546
1.40694
1.39103
1.36684
1.36597
1.35985
1.358
1.35552
1.35406
1.35287
1.35177
1.39682
1.39459
1.39166
1.38861
1.38561
1.38287
1.3805
1.37851
1.37688
1.37563
1.41142
1.40443
1.3977
1.39189
1.38704
1.3832
1.38022
1.37789
1.37606
1.37472
1.42236
1.41063
1.40035
1.39228
1.38592
1.38117
1.37765
1.37502
1.37307
1.37187
1.43032
1.41442
1.4011
1.39163
1.38445
1.37937
1.3757
1.373
1.37099
1.36973
1.43517
1.41615
1.40027
1.38996
1.38234
1.37721
1.37356
1.37093
1.36893
1.36773
1.43865
1.4176
1.3996
1.38895
1.38113
1.37616
1.37261
1.37009
1.36813
1.36684
1.43915
1.41696
1.39719
1.38654
1.37862
1.37388
1.37043
1.36802
1.36607
1.36482
1.44068
1.41827
1.39714
1.38682
1.3789
1.37436
1.37092
1.36848
1.36648
1.36497
1.43807
1.41555
1.39411
1.3846
1.37689
1.37249
1.36896
1.36647
1.36442
1.36282
1.43895
1.4166
1.39472
1.3851
1.3767
1.37169
1.36757
1.36458
1.36218
1.36008
1.39537
1.39368
1.39142
1.38907
1.38683
1.3848
1.38302
1.38149
1.38021
1.3792
1.4051
1.40109
1.39636
1.39213
1.38862
1.38574
1.38336
1.38141
1.37982
1.37861
1.41436
1.40725
1.39957
1.39325
1.38828
1.38444
1.38144
1.37909
1.37727
1.37608
1.42279
1.41225
1.40184
1.39391
1.38792
1.38345
1.38005
1.37745
1.37544
1.3741
1.42993
1.41581
1.40283
1.39361
1.38686
1.38201
1.3784
1.3757
1.37358
1.37223
1.43672
1.41916
1.40385
1.3937
1.38643
1.38141
1.37772
1.37499
1.37283
1.37136
1.4411
1.42037
1.40297
1.39219
1.38453
1.37945
1.37573
1.37301
1.37081
1.36934
1.44648
1.42313
1.40407
1.393
1.3851
1.38001
1.37621
1.37342
1.37116
1.36947
1.4472
1.42185
1.40224
1.39144
1.38351
1.37837
1.3744
1.3715
1.36916
1.36739
1.44865
1.42218
1.40217
1.39109
1.38261
1.37699
1.37261
1.36935
1.36677
1.36462
1.38881
1.38854
1.3879
1.38701
1.386
1.38496
1.38395
1.38301
1.38219
1.38153
1.3948
1.39368
1.39202
1.3902
1.38838
1.38664
1.38505
1.38365
1.38245
1.3815
1.4012
1.39863
1.39527
1.39196
1.38895
1.38632
1.38409
1.38221
1.38068
1.37963
1.40805
1.40371
1.39849
1.39373
1.38962
1.38621
1.38342
1.38115
1.37931
1.378
1.41449
1.40801
1.40081
1.39469
1.38964
1.38562
1.38243
1.37989
1.37782
1.37642
1.42125
1.41243
1.40323
1.39592
1.39009
1.38564
1.38217
1.37946
1.37726
1.37568
1.42626
1.41496
1.40377
1.39543
1.38897
1.3842
1.38053
1.37771
1.3754
1.37377
1.43266
1.41901
1.40607
1.39696
1.38999
1.38498
1.38112
1.37815
1.37574
1.37391
1.435
1.4194
1.4055
1.39601
1.3887
1.38344
1.37936
1.37625
1.37375
1.37184
1.43726
1.41999
1.40518
1.39508
1.38727
1.38163
1.37725
1.37388
1.37122
1.36902
1.38721
1.38709
1.38678
1.38633
1.38579
1.38521
1.38463
1.38407
1.38357
1.38318
1.39125
1.39082
1.39009
1.38917
1.38814
1.38709
1.38607
1.38514
1.38431
1.38365
1.39536
1.39428
1.39268
1.3909
1.3891
1.3874
1.38584
1.38445
1.38327
1.38243
1.40038
1.39842
1.39573
1.39292
1.39026
1.38785
1.38573
1.3839
1.38236
1.38121
1.40548
1.40237
1.39838
1.3945
1.39097
1.38792
1.38532
1.38314
1.38129
1.37997
1.41125
1.40676
1.40134
1.39639
1.39208
1.38848
1.38549
1.38303
1.38097
1.37942
1.41568
1.40956
1.40262
1.39664
1.3916
1.38754
1.38423
1.38155
1.37931
1.37768
1.42183
1.41403
1.40561
1.39872
1.39304
1.38858
1.38498
1.38209
1.37971
1.37787
1.42472
1.41541
1.4059
1.39828
1.39205
1.3872
1.38332
1.38027
1.37778
1.37587
1.42685
1.41594
1.40539
1.39708
1.39037
1.38519
1.38106
1.37781
1.3752
1.37304
1.38646
1.38645
1.38634
1.38613
1.38586
1.38555
1.38523
1.38493
1.38465
1.38444
1.38938
1.38926
1.38896
1.38853
1.38799
1.3874
1.3868
1.38623
1.3857
1.38528
1.39226
1.39187
1.39114
1.39022
1.38918
1.38812
1.38709
1.38612
1.38527
1.38466
1.3959
1.39508
1.39375
1.39217
1.39051
1.38888
1.38736
1.38597
1.38475
1.38382
1.39984
1.39841
1.3963
1.39396
1.39162
1.38941
1.3874
1.38563
1.38408
1.38294
1.40453
1.40234
1.39931
1.39614
1.3931
1.39035
1.38792
1.38582
1.38401
1.3826
1.40807
1.40492
1.40083
1.39679
1.39307
1.38981
1.387
1.38463
1.38258
1.38105
1.4135
1.40928
1.40408
1.39919
1.39482
1.39109
1.38793
1.38531
1.38309
1.38134
1.41623
1.41094
1.40473
1.39902
1.39402
1.38987
1.38641
1.3836
1.38126
1.37943
1.41763
1.41115
1.40404
1.39771
1.39226
1.3878
1.38412
1.38114
1.3787
1.37666
1.38651
1.38653
1.38648
1.38639
1.38625
1.38608
1.38591
1.38574
1.3856
1.3855
1.38872
1.3887
1.38859
1.38839
1.38813
1.38781
1.38748
1.38715
1.38684
1.3866
1.39097
1.39082
1.39047
1.38998
1.38938
1.38873
1.38807
1.38742
1.38685
1.38645
1.39365
1.39329
1.39261
1.39171
1.39068
1.3896
1.38854
1.38753
1.38663
1.38591
1.39669
1.39603
1.39489
1.39348
1.39194
1.39038
1.38889
1.38752
1.38629
1.38536
1.40044
1.39938
1.39767
1.39567
1.39358
1.39155
1.38965
1.38795
1.38644
1.38523
1.40314
1.40153
1.39913
1.39647
1.39379
1.39128
1.38901
1.38701
1.38524
1.38388
1.40775
1.40549
1.40232
1.39895
1.3957
1.39273
1.3901
1.38784
1.38589
1.3843
1.40992
1.40691
1.40292
1.39883
1.39501
1.39164
1.38872
1.38626
1.38416
1.38249
1.41049
1.40672
1.40207
1.39747
1.39326
1.38961
1.38649
1.38387
1.38168
1.37983
1.38692
1.38694
1.38694
1.38689
1.38682
1.38674
1.38664
1.38656
1.38648
1.38646
1.38863
1.38867
1.38866
1.3886
1.38849
1.38833
1.38816
1.38798
1.38782
1.3877
1.39048
1.39045
1.39029
1.39004
1.38971
1.38933
1.38892
1.38852
1.38815
1.3879
1.39251
1.39236
1.39201
1.39149
1.39086
1.39017
1.38945
1.38875
1.38811
1.38758
1.39493
1.39461
1.39399
1.39313
1.39212
1.39105
1.38998
1.38897
1.38803
1.38731
1.39797
1.39743
1.39645
1.39518
1.39376
1.3923
1.39088
1.38956
1.38836
1.38736
1.39996
1.39912
1.3977
1.39594
1.39406
1.39219
1.39041
1.38881
1.38735
1.38621
1.40381
1.40259
1.40065
1.39837
1.39601
1.39374
1.39164
1.38978
1.38814
1.38676
1.40524
1.40353
1.401
1.39817
1.39535
1.39273
1.39037
1.38831
1.38651
1.38505
1.40516
1.40299
1.4
1.39678
1.39365
1.39079
1.38825
1.38605
1.38417
1.38254
1.38752
1.38754
1.38755
1.38753
1.3875
1.38745
1.3874
1.38736
1.38733
1.38735
1.3889
1.38896
1.389
1.38901
1.38899
1.38893
1.38885
1.38877
1.3887
1.38864
1.39047
1.39049
1.39044
1.39033
1.39016
1.38995
1.38971
1.38947
1.38925
1.38911
1.39198
1.39193
1.39176
1.39148
1.39111
1.39067
1.3902
1.38973
1.38929
1.38891
1.39393
1.39378
1.39344
1.39292
1.39227
1.39155
1.39081
1.39008
1.3894
1.38886
1.39641
1.39614
1.39556
1.39476
1.3938
1.39277
1.39174
1.39076
1.38984
1.38905
1.39785
1.39739
1.39653
1.39538
1.39407
1.39271
1.39138
1.39014
1.38898
1.38805
1.40108
1.4004
1.39919
1.39766
1.39599
1.39431
1.3927
1.39123
1.3899
1.38875
1.40182
1.40083
1.39923
1.39731
1.3953
1.39333
1.39149
1.38984
1.38835
1.38713
1.40129
1.40003
1.39814
1.39594