/*--------------------------------*- C++ -*----------------------------------*\
| =========                 |                                                 |
| \\      /  F ield         | foam-extend: Open Source CFD                    |
|  \\    /   O peration     | Version:     4.0                                |
|   \\  /    A nd           | Web:         http://www.foam-extend.org         |
|    \\/     M anipulation  |                                                 |
\*---------------------------------------------------------------------------*/
FoamFile
{
    version     2.0;
    format      ascii;
    class       volScalarField;
    location    "500";
    object      T;
}
// * * * * * * * * * * * * * * * * * * * * * * * * * * * * * * * * * * * * * //

dimensions      [0 0 0 1 0 0 0];

internalField   nonuniform List<scalar> 
34480
(
280.235
280.106
280.007
279.931
279.873
279.832
279.81
279.852
280.088
280.033
279.797
279.64
279.514
279.42
279.36
279.335
279.332
279.353
279.554
279.068
279.714
279.541
279.401
279.296
279.227
279.179
279.122
279.032
279.119
278.24
279.771
279.574
279.406
279.267
279.154
279.042
278.908
278.694
278.633
277.346
279.815
279.589
279.387
279.207
279.044
278.867
278.653
278.313
278.074
276.375
279.916
279.66
279.427
279.213
279.007
278.775
278.49
278.026
277.583
275.451
279.971
279.683
279.421
279.176
278.936
278.658
278.31
277.729
277.065
274.502
280.042
279.727
279.448
279.194
278.947
278.658
278.281
277.618
276.737
273.723
280.059
279.727
279.434
279.167
278.907
278.602
278.191
277.447
276.347
272.949
280.811
280.468
280.202
280.002
279.847
279.681
279.42
278.814
277.665
273.812
280.687
280.582
280.531
280.529
280.579
280.698
280.924
281.34
281.966
282.804
280.16
280.04
279.975
279.964
280.017
280.156
280.418
280.89
281.66
282.638
279.991
279.871
279.806
279.794
279.848
279.983
280.233
280.684
281.488
282.518
279.956
279.831
279.757
279.73
279.763
279.866
280.079
280.487
281.297
282.333
279.912
279.777
279.691
279.644
279.649
279.715
279.886
280.241
281.031
282.046
279.932
279.788
279.69
279.628
279.612
279.646
279.777
280.074
280.818
281.777
279.915
279.759
279.65
279.574
279.541
279.55
279.645
279.882
280.559
281.445
279.932
279.771
279.661
279.589
279.561
279.568
279.646
279.835
280.429
281.2
279.914
279.75
279.639
279.565
279.532
279.532
279.589
279.731
280.232
280.893
280.619
280.469
280.392
280.381
280.436
280.54
280.699
280.915
281.36
281.72
281.111
281.005
280.96
280.967
281.028
281.153
281.36
281.682
282.162
282.789
280.579
280.45
280.387
280.387
280.455
280.606
280.876
281.321
282.031
282.967
280.4
280.267
280.2
280.196
280.262
280.418
280.705
281.194
282.044
283.228
280.339
280.199
280.125
280.107
280.158
280.294
280.568
281.066
282.025
283.421
280.271
280.122
280.036
280.001
280.03
280.139
280.388
280.872
281.905
283.469
280.271
280.113
280.016
279.967
279.977
280.059
280.279
280.736
281.806
283.489
280.236
280.068
279.961
279.898
279.892
279.952
280.143
280.562
281.638
283.404
280.241
280.068
279.96
279.899
279.895
279.95
280.124
280.505
281.557
283.355
280.216
280.043
279.933
279.871
279.865
279.912
280.065
280.402
281.402
283.252
280.899
280.738
280.654
280.639
280.696
280.82
281.041
281.415
282.354
284.097
281.424
281.334
281.298
281.308
281.364
281.471
281.634
281.861
282.161
282.517
280.917
280.796
280.74
280.746
280.816
280.959
281.193
281.548
282.055
282.648
280.749
280.618
280.556
280.558
280.632
280.789
281.061
281.49
282.15
282.961
280.678
280.537
280.467
280.46
280.526
280.68
280.962
281.436
282.235
283.269
280.596
280.445
280.365
280.344
280.395
280.534
280.813
281.308
282.224
283.467
280.58
280.42
280.329
280.297
280.334
280.456
280.723
281.222
282.229
283.65
280.531
280.361
280.262
280.217
280.241
280.346
280.597
281.086
282.156
283.728
280.525
280.351
280.25
280.206
280.23
280.331
280.572
281.044
282.142
283.824
280.496
280.322
280.22
280.173
280.195
280.29
280.52
280.966
282.053
283.855
281.155
280.992
280.907
280.894
280.96
281.107
281.381
281.854
282.902
284.708
281.646
281.577
281.55
281.559
281.602
281.678
281.789
281.931
282.102
282.29
281.179
281.075
281.027
281.033
281.093
281.21
281.392
281.649
281.985
282.342
281.038
280.917
280.862
280.867
280.936
281.076
281.306
281.643
282.112
282.627
280.97
280.837
280.773
280.773
280.842
280.992
281.25
281.649
282.252
282.948
280.886
280.741
280.667
280.657
280.719
280.867
281.139
281.583
282.312
283.196
280.863
280.707
280.624
280.603
280.657
280.799
281.076
281.548
282.39
283.455
280.806
280.64
280.548
280.518
280.562
280.694
280.969
281.456
282.391
283.624
280.793
280.622
280.527
280.497
280.541
280.672
280.947
281.438
282.435
283.812
280.761
280.59
280.495
280.461
280.503
280.63
280.901
281.387
282.409
283.94
281.396
281.234
281.151
281.141
281.212
281.374
281.674
282.183
283.194
284.795
281.804
281.753
281.735
281.741
281.77
281.821
281.891
281.976
282.073
282.182
281.377
281.293
281.254
281.258
281.304
281.392
281.524
281.703
281.925
282.152
281.268
281.165
281.117
281.122
281.181
281.296
281.476
281.726
282.048
282.38
281.213
281.095
281.039
281.042
281.107
281.241
281.457
281.771
282.203
282.661
281.136
281.003
280.939
280.935
281
281.142
281.385
281.753
282.297
282.9
281.113
280.967
280.893
280.882
280.944
281.089
281.351
281.762
282.417
283.171
281.054
280.897
280.814
280.795
280.851
280.994
281.267
281.711
282.465
283.371
281.038
280.874
280.788
280.768
280.825
280.972
281.253
281.717
282.549
283.595
281.006
280.841
280.753
280.731
280.787
280.931
281.215
281.691
282.569
283.767
281.616
281.46
281.38
281.373
281.449
281.617
281.921
282.419
283.306
284.596
281.918
281.882
281.869
281.873
281.892
281.923
281.965
282.015
282.07
282.139
281.526
281.461
281.429
281.431
281.464
281.526
281.618
281.741
281.891
282.048
281.448
281.364
281.324
281.328
281.374
281.463
281.597
281.776
281.997
282.219
281.41
281.31
281.264
281.267
281.323
281.434
281.605
281.841
282.143
282.449
281.346
281.231
281.175
281.176
281.236
281.362
281.565
281.855
282.248
282.657
281.327
281.198
281.133
281.129
281.191
281.327
281.558
281.897
282.385
282.909
281.271
281.128
281.055
281.044
281.105
281.247
281.497
281.878
282.459
283.106
281.255
281.105
281.028
281.016
281.079
281.228
281.494
281.906
282.565
283.333
281.225
281.072
280.992
280.979
281.041
281.191
281.465
281.899
282.612
283.51
281.812
281.666
281.591
281.587
281.663
281.829
282.119
282.575
283.31
284.294
282.005
281.978
281.97
281.972
281.983
282.002
282.026
282.055
282.088
282.134
281.639
281.589
281.565
281.564
281.586
281.628
281.69
281.775
281.882
282
281.587
281.521
281.49
281.491
281.525
281.59
281.686
281.814
281.967
282.124
281.565
281.486
281.448
281.451
281.496
281.583
281.713
281.885
282.095
282.304
281.517
281.422
281.376
281.378
281.43
281.535
281.697
281.918
282.196
282.474
281.507
281.396
281.342
281.341
281.398
281.518
281.711
281.979
282.334
282.695
281.456
281.331
281.268
281.263
281.323
281.453
281.67
281.983
282.416
282.872
281.445
281.311
281.243
281.238
281.301
281.441
281.679
282.027
282.531
283.082
281.416
281.278
281.208
281.2
281.264
281.408
281.658
282.033
282.59
283.242
281.981
281.848
281.779
281.779
281.852
282.008
282.271
282.668
283.252
283.972
282.072
282.052
282.046
282.047
282.054
282.065
282.079
282.095
282.115
282.149
281.725
281.688
281.669
281.667
281.681
281.708
281.75
281.811
281.892
281.986
281.694
281.644
281.62
281.62
281.644
281.689
281.757
281.846
281.957
282.074
281.686
281.626
281.596
281.599
281.633
281.697
281.792
281.915
282.062
282.21
281.654
281.579
281.543
281.545
281.588
281.671
281.795
281.957
282.152
282.343
281.653
281.563
281.518
281.52
281.569
281.669
281.823
282.028
282.281
282.53
281.609
281.504
281.452
281.45
281.504
281.618
281.798
282.044
282.36
282.677
281.605
281.49
281.433
281.431
281.49
281.615
281.817
282.1
282.474
282.862
281.579
281.458
281.397
281.394
281.455
281.586
281.803
282.113
282.534
282.996
282.121
282.004
281.943
281.945
282.012
282.153
282.381
282.712
283.16
283.672
282.126
282.11
282.106
282.106
282.11
282.116
282.124
282.133
282.146
282.171
281.792
281.765
281.75
281.748
281.756
281.774
281.802
281.846
281.911
281.991
281.777
281.741
281.722
281.721
281.737
281.768
281.814
281.878
281.96
282.053
281.779
281.735
281.713
281.714
281.739
281.786
281.853
281.939
282.043
282.151
281.762
281.705
281.677
281.679
281.712
281.775
281.867
281.983
282.119
282.252
281.77
281.699
281.664
281.666
281.707
281.787
281.905
282.056
282.235
282.405
281.733
281.648
281.605
281.606
281.652
281.746
281.889
282.078
282.304
282.522
281.737
281.642
281.595
281.595
281.648
281.754
281.919
282.14
282.412
282.68
281.713
281.61
281.559
281.559
281.614
281.728
281.908
282.155
282.466
282.785
282.232
282.132
282.081
282.083
282.143
282.264
282.455
282.72
283.055
283.409
282.168
282.155
282.152
282.152
282.154
282.157
282.162
282.167
282.176
282.195
281.845
281.825
281.814
281.811
281.816
281.827
281.847
281.88
281.934
282.004
281.841
281.816
281.803
281.801
281.811
281.832
281.863
281.909
281.972
282.048
281.85
281.819
281.803
281.804
281.821
281.853
281.9
281.96
282.034
282.115
281.845
281.804
281.784
281.785
281.81
281.856
281.922
282.003
282.097
282.191
281.861
281.808
281.781
281.783
281.815
281.876
281.964
282.073
282.197
282.313
281.83
281.763
281.73
281.731
281.769
281.844
281.954
282.094
282.253
282.401
281.844
281.768
281.73
281.732
281.776
281.862
281.992
282.16
282.353
282.535
281.819
281.735
281.694
281.695
281.742
281.837
281.981
282.171
282.396
282.612
282.315
282.233
282.19
282.193
282.244
282.345
282.499
282.704
282.948
283.188
282.199
282.188
282.186
282.186
282.187
282.189
282.192
282.195
282.201
282.215
281.885
281.872
281.863
281.86
281.863
281.87
281.884
281.91
281.956
282.02
281.891
281.875
281.866
281.864
281.87
281.884
281.905
281.938
281.987
282.051
281.902
281.883
281.871
281.872
281.883
281.905
281.936
281.977
282.031
282.093
281.908
281.881
281.866
281.867
281.885
281.917
281.963
282.019
282.084
282.149
281.93
281.892
281.872
281.874
281.898
281.943
282.006
282.083
282.168
282.246
281.903
281.853
281.828
281.829
281.859
281.916
281.998
282.099
282.209
282.307
281.928
281.87
281.84
281.842
281.877
281.945
282.044
282.167
282.303
282.422
281.901
281.834
281.801
281.803
281.841
281.917
282.028
282.17
282.329
282.472
282.372
282.307
282.272
282.275
282.317
282.397
282.517
282.671
282.845
283.004
282.22
282.211
282.21
282.209
282.21
282.211
282.212
282.215
282.219
282.229
281.915
281.906
281.9
281.898
281.899
281.904
281.914
281.935
281.974
282.032
281.931
281.922
281.915
281.914
281.918
281.926
281.94
281.964
282.003
282.058
281.94
281.929
281.921
281.921
281.928
281.943
281.964
281.992
282.03
282.078
281.955
281.938
281.928
281.929
281.941
281.963
281.994
282.032
282.076
282.121
281.98
281.955
281.94
281.942
281.959
281.991
282.036
282.089
282.146
282.196
281.956
281.92
281.902
281.903
281.925
281.967
282.027
282.098
282.173
282.235
281.992
281.949
281.927
281.929
281.956
282.007
282.08
282.168
282.261
282.336
281.959
281.908
281.883
281.884
281.914
281.972
282.056
282.159
282.27
282.362
282.405
282.355
282.328
282.331
282.363
282.426
282.516
282.628
282.75
282.853
282.23
282.223
282.222
282.222
282.222
282.223
282.224
282.225
282.228
282.235
281.934
281.93
281.925
281.924
281.924
281.927
281.935
281.951
281.984
282.037
281.961
281.958
281.954
281.953
281.955
281.96
281.97
281.987
282.017
282.064
281.965
281.96
281.956
281.955
281.96
281.969
281.983
282.002
282.029
282.065
281.988
281.979
281.972
281.973
281.981
281.996
282.017
282.042
282.07
282.1
282.015
281.999
281.989
281.99
282.002
282.024
282.055
282.091
282.129
282.158
281.992
281.968
281.954
281.955
281.971
282.001
282.043
282.092
282.142
282.179
282.039
282.009
281.993
281.994
282.015
282.052
282.104
282.166
282.228
282.272
281.997
281.959
281.94
281.941
281.964
282.007
282.068
282.141
282.216
282.274
282.417
282.38
282.36
282.362
282.387
282.433
282.499
282.579
282.662
282.727
282.23
282.225
282.224
282.224
282.224
282.224
282.225
282.226
282.228
282.233
281.943
281.942
281.94
281.939
281.939
281.941
281.946
281.959
281.987
282.034
281.984
281.985
281.983
281.983
281.984
281.987
281.993
282.005
282.028
282.067
281.98
281.979
281.976
281.976
281.979
281.985
281.994
282.006
282.025
282.051
282.009
282.006
282.002
282.002
282.007
282.017
282.031
282.047
282.065
282.082
282.036
282.027
282.02
282.021
282.029
282.044
282.065
282.089
282.113
282.128
282.013
281.998
281.988
281.989
282
282.021
282.05
282.083
282.115
282.134
282.073
282.053
282.041
282.043
282.057
282.083
282.12
282.162
282.203
282.226
282.017
281.989
281.976
281.977
281.993
282.024
282.067
282.117
282.167
282.202
282.411
282.386
282.371
282.373
282.391
282.424
282.471
282.525
282.581
282.621
282.224
282.218
282.217
282.217
282.217
282.217
282.217
282.218
282.219
282.223
281.942
281.943
281.942
281.941
281.942
281.943
281.947
281.956
281.978
282.019
282.001
282.005
282.005
282.004
282.005
282.007
282.011
282.019
282.035
282.065
281.984
281.987
281.985
281.985
281.987
281.99
281.996
282.004
282.017
282.033
282.02
282.02
282.017
282.017
282.021
282.027
282.036
282.046
282.058
282.064
282.045
282.041
282.036
282.036
282.042
282.052
282.066
282.082
282.097
282.101
282.023
282.013
282.007
282.007
282.015
282.029
282.048
282.07
282.09
282.097
282.095
282.083
282.075
282.076
282.086
282.104
282.129
282.156
282.183
282.192
282.02
282.001
281.992
281.993
282.004
282.025
282.054
282.088
282.121
282.141
282.394
282.376
282.366
282.367
282.38
282.403
282.435
282.471
282.508
282.532
282.212
282.207
282.206
282.206
282.206
282.206
282.206
282.207
282.207
282.21
281.927
281.932
281.931
281.931
281.931
281.932
281.935
281.941
281.958
281.991
282.011
282.017
282.018
282.018
282.018
282.02
282.022
282.027
282.037
282.058
281.98
281.984
281.983
281.983
281.984
281.987
281.99
281.995
282.002
282.01
282.02
282.021
282.02
282.02
282.022
282.026
282.032
282.038
282.045
282.044
282.042
282.04
282.038
282.038
282.041
282.048
282.057
282.067
282.076
282.074
282.021
282.016
282.012
282.012
282.017
282.027
282.039
282.053
282.065
282.064
282.107
282.099
282.094
282.094
282.101
282.113
282.129
282.148
282.165
282.166
282.008
281.995
281.989
281.99
281.997
282.012
282.031
282.052
282.073
282.084
282.371
282.36
282.352
282.353
282.362
282.377
282.399
282.422
282.446
282.46
282.211
282.206
282.206
282.206
282.206
282.205
282.205
282.205
282.205
282.207
281.898
281.904
281.904
281.904
281.904
281.905
281.907
281.911
281.921
281.945
282.014
282.02
282.02
282.021
282.021
282.022
282.023
282.026
282.031
282.042
281.967
281.971
281.972
281.972
281.973
281.974
281.976
281.979
281.982
281.982
282.008
282.011
282.01
282.01
282.012
282.014
282.018
282.022
282.025
282.019
282.027
282.027
282.025
282.026
282.028
282.032
282.038
282.044
282.049
282.043
282.009
282.007
282.005
282.005
282.009
282.014
282.022
282.03
282.037
282.032
282.102
282.098
282.094
282.094
282.099
282.107
282.117
282.129
282.14
282.138
281.976
281.969
281.965
281.966
281.971
281.98
281.992
282.005
282.017
282.023
282.356
282.349
282.345
282.345
282.351
282.361
282.375
282.39
282.405
282.412
282.233
282.235
282.235
282.235
282.235
282.235
282.235
282.235
282.235
282.236
281.847
281.853
281.854
281.855
281.855
281.856
281.856
281.858
281.862
281.876
282.002
282.006
282.006
282.006
282.007
282.007
282.008
282.01
282.012
282.015
281.948
281.952
281.953
281.954
281.955
281.956
281.956
281.957
281.957
281.952
281.987
281.989
281.989
281.99
281.991
281.993
281.994
281.996
281.997
281.99
282.001
282.002
282.002
282.002
282.004
282.006
282.009
282.013
282.015
282.009
281.987
281.987
281.987
281.987
281.99
281.993
281.997
282.002
282.004
281.998
282.071
282.068
282.066
282.067
282.069
282.075
282.081
282.088
282.096
282.094
281.918
281.914
281.912
281.913
281.916
281.922
281.93
281.937
281.943
281.945
282.366
282.362
282.359
282.36
282.363
282.37
282.379
282.388
282.399
282.402
282.294
282.291
282.29
282.29
282.29
282.29
282.291
282.291
282.292
282.294
281.774
281.779
281.781
281.783
281.785
281.785
281.785
281.784
281.783
281.783
281.97
281.972
281.972
281.972
281.973
281.973
281.974
281.976
281.977
281.976
281.925
281.929
281.931
281.932
281.933
281.933
281.934
281.933
281.931
281.924
281.958
281.961
281.961
281.962
281.963
281.964
281.965
281.966
281.965
281.959
281.969
281.97
281.971
281.971
281.973
281.975
281.976
281.978
281.978
281.973
281.958
281.959
281.96
281.961
281.963
281.965
281.968
281.97
281.97
281.964
282.013
282.01
282.009
282.009
282.012
282.015
282.02
282.025
282.029
282.029
281.83
281.83
281.829
281.831
281.833
281.838
281.843
281.847
281.848
281.844
282.393
282.39
282.388
282.388
282.391
282.396
282.403
282.409
282.416
282.418
290.239
291.937
292.221
290.735
291.352
293.42
293.852
292.307
292.8
295.352
295.907
294.065
293.873
296.859
297.543
295.491
294.628
298.017
298.84
296.773
295.223
298.987
299.977
298.155
295.672
299.792
300.969
299.427
296.077
300.515
301.891
300.678
296.257
300.992
302.578
301.746
296.764
301.689
303.526
303.217
287.104
287.639
287.634
287.144
288.384
289.023
288.992
288.393
289.843
290.643
290.57
289.779
291.127
292.075
291.953
290.98
292.171
293.267
293.118
291.98
293.077
294.32
294.189
292.912
293.792
295.169
295.061
293.656
294.413
295.901
295.821
294.308
294.791
296.35
296.304
294.722
295.486
297.034
297.088
295.554
283.44
283.58
283.618
283.555
284.257
284.486
284.54
284.42
285.318
285.666
285.729
285.506
286.437
286.904
286.967
286.624
287.472
288.056
288.115
287.643
288.494
289.195
289.249
288.655
289.386
290.199
290.249
289.538
290.238
291.148
291.195
290.385
290.923
291.88
291.929
291.066
292.043
292.941
293.024
292.237
282.727
282.8
282.825
282.803
283.127
283.227
283.266
283.248
283.776
283.939
283.994
283.949
284.539
284.775
284.841
284.756
285.282
285.596
285.672
285.531
286.083
286.479
286.56
286.354
286.819
287.296
287.381
287.101
287.578
288.13
288.213
287.858
288.262
288.85
288.929
288.521
289.474
289.994
290.084
289.721
282.329
282.373
282.388
282.374
282.54
282.586
282.608
282.606
282.96
283.035
283.07
283.067
283.484
283.6
283.65
283.639
284.004
284.17
284.234
284.207
284.601
284.823
284.901
284.849
285.162
285.444
285.531
285.444
285.773
286.111
286.204
286.074
286.345
286.713
286.803
286.634
287.473
287.771
287.865
287.737
282.18
282.216
282.227
282.212
282.273
282.301
282.315
282.314
282.564
282.608
282.629
282.628
282.937
283.001
283.033
283.034
283.306
283.397
283.442
283.443
283.752
283.878
283.937
283.933
284.167
284.334
284.405
284.391
284.639
284.845
284.925
284.893
285.083
285.31
285.389
285.336
286.095
286.253
286.335
286.325
282.117
282.148
282.157
282.143
282.133
282.154
282.164
282.162
282.339
282.367
282.381
282.38
282.612
282.651
282.672
282.673
282.884
282.938
282.967
282.971
283.227
283.302
283.341
283.348
283.541
283.64
283.691
283.697
283.906
284.031
284.091
284.092
284.234
284.373
284.434
284.425
285.139
285.209
285.273
285.312
282.1
282.129
282.137
282.123
282.07
282.087
282.095
282.093
282.213
282.235
282.245
282.243
282.413
282.439
282.453
282.454
282.614
282.648
282.668
282.671
282.884
282.93
282.956
282.963
283.125
283.185
283.219
283.228
283.41
283.486
283.528
283.536
283.645
283.73
283.773
283.779
284.466
284.482
284.526
284.581
282.105
282.132
282.139
282.126
282.046
282.061
282.068
282.066
282.145
282.162
282.17
282.169
282.288
282.308
282.318
282.318
282.436
282.459
282.472
282.474
282.648
282.677
282.694
282.699
282.83
282.868
282.891
282.898
283.055
283.102
283.13
283.138
283.223
283.275
283.305
283.313
283.977
283.959
283.988
284.046
282.118
282.143
282.15
282.138
282.044
282.057
282.063
282.062
282.111
282.126
282.133
282.132
282.211
282.226
282.233
282.233
282.317
282.333
282.342
282.344
282.481
282.501
282.513
282.516
282.616
282.641
282.655
282.66
282.794
282.824
282.842
282.848
282.914
282.945
282.964
282.972
283.61
283.573
283.592
283.647
282.134
282.156
282.163
282.153
282.051
282.063
282.069
282.069
282.097
282.11
282.116
282.115
282.162
282.174
282.18
282.18
282.237
282.248
282.255
282.256
282.362
282.375
282.383
282.386
282.458
282.473
282.483
282.487
282.6
282.617
282.629
282.634
282.681
282.699
282.711
282.719
283.329
283.282
283.292
283.344
282.146
282.167
282.173
282.165
282.061
282.072
282.078
282.078
282.094
282.104
282.11
282.109
282.13
282.139
282.145
282.145
282.181
282.189
282.194
282.195
282.276
282.284
282.289
282.291
282.338
282.347
282.354
282.357
282.453
282.463
282.47
282.475
282.504
282.512
282.52
282.528
283.109
283.057
283.063
283.111
282.154
282.172
282.178
282.172
282.069
282.079
282.084
282.084
282.094
282.104
282.109
282.108
282.107
282.114
282.119
282.118
282.141
282.147
282.15
282.15
282.211
282.215
282.219
282.22
282.246
282.25
282.254
282.257
282.343
282.347
282.351
282.356
282.367
282.369
282.374
282.382
282.934
282.88
282.883
282.927
282.155
282.172
282.178
282.172
282.071
282.08
282.086
282.085
282.095
282.104
282.108
282.107
282.087
282.093
282.096
282.095
282.11
282.113
282.115
282.115
282.159
282.161
282.163
282.164
282.173
282.174
282.176
282.179
282.26
282.259
282.261
282.266
282.26
282.257
282.26
282.269
282.791
282.739
282.74
282.78
282.149
282.165
282.171
282.166
282.066
282.074
282.079
282.078
282.094
282.101
282.105
282.103
282.065
282.07
282.072
282.071
282.082
282.083
282.084
282.084
282.117
282.115
282.116
282.118
282.114
282.111
282.112
282.116
282.197
282.192
282.193
282.2
282.175
282.168
282.17
282.179
282.673
282.624
282.624
282.66
282.139
282.153
282.159
282.155
282.05
282.058
282.062
282.06
282.088
282.094
282.097
282.094
282.04
282.043
282.044
282.042
282.054
282.053
282.053
282.053
282.078
282.074
282.074
282.077
282.064
282.058
282.058
282.063
282.151
282.143
282.143
282.151
282.104
282.095
282.096
282.106
282.572
282.529
282.529
282.56
282.129
282.143
282.148
282.144
282.02
282.029
282.032
282.028
282.075
282.081
282.082
282.078
282.008
282.009
282.009
282.008
282.024
282.02
282.019
282.021
282.04
282.033
282.032
282.037
282.021
282.012
282.011
282.018
282.116
282.106
282.105
282.115
282.043
282.032
282.032
282.043
282.49
282.453
282.453
282.479
282.133
282.147
282.151
282.147
281.972
281.98
281.982
281.976
282.052
282.056
282.057
282.052
281.97
281.968
281.968
281.967
281.989
281.983
281.982
281.985
282.001
281.992
281.991
281.998
281.982
281.97
281.969
281.978
282.086
282.074
282.073
282.084
281.981
281.969
281.969
281.98
282.434
282.405
282.405
282.425
282.176
282.188
282.191
282.187
281.894
281.9
281.901
281.895
282.014
282.016
282.016
282.012
281.929
281.925
281.923
281.924
281.953
281.946
281.944
281.949
281.964
281.954
281.953
281.96
281.947
281.935
281.934
281.943
282.048
282.037
282.036
282.047
281.906
281.895
281.894
281.903
282.417
282.398
282.398
282.411
282.257
282.264
282.265
282.263
281.785
281.787
281.786
281.781
281.966
281.965
281.964
281.963
281.896
281.889
281.888
281.89
281.925
281.917
281.916
281.921
281.935
281.926
281.925
281.931
281.922
281.911
281.91
281.918
282.001
281.992
281.992
281.999
281.808
281.798
281.796
281.804
282.432
282.426
282.427
282.43
283.541
282.315
281.767
281.425
281.137
280.901
280.712
280.56
280.433
280.321
283.87
282.7
281.878
281.357
280.939
280.628
280.392
280.209
280.063
279.938
284.406
283.179
282.088
281.465
280.973
280.628
280.368
280.166
280.006
279.873
284.928
283.667
282.333
281.653
281.108
280.746
280.472
280.26
280.091
279.948
285.368
284.086
282.529
281.81
281.218
280.846
280.56
280.339
280.162
280.011
285.888
284.544
282.787
282.046
281.412
281.031
280.729
280.496
280.304
280.135
286.337
284.917
282.98
282.229
281.557
281.169
280.851
280.605
280.398
280.215
286.874
285.377
283.268
282.508
281.791
281.388
281.042
280.77
280.533
280.316
287.293
285.729
283.446
282.696
281.94
281.525
281.144
280.847
280.587
280.348
288.909
287.333
284.912
284.097
283.218
282.685
282.193
281.802
281.468
281.159
285.121
283.878
282.935
282.259
281.793
281.465
281.225
281.043
280.899
280.776
285.71
284.029
282.766
281.949
281.414
281.043
280.774
280.572
280.418
280.296
286.265
284.213
282.715
281.841
281.271
280.884
280.605
280.398
280.244
280.125
286.692
284.367
282.703
281.812
281.223
280.835
280.559
280.356
280.205
280.089
286.926
284.412
282.639
281.748
281.148
280.768
280.498
280.302
280.157
280.045
287.106
284.482
282.631
281.762
281.154
280.787
280.522
280.331
280.186
280.07
287.149
284.472
282.56
281.728
281.118
280.767
280.507
280.32
280.175
280.058
287.209
284.534
282.572
281.784
281.169
280.83
280.567
280.375
280.219
280.088
287.172
284.512
282.496
281.776
281.167
280.85
280.579
280.38
280.217
280.077
288.015
285.487
283.481
282.801
282.143
281.773
281.44
281.192
280.988
280.823
283.33
282.958
282.599
282.284
282.017
281.792
281.605
281.448
281.314
281.196
283.936
283.292
282.701
282.208
281.807
281.485
281.23
281.026
280.861
280.729
284.654
283.709
282.894
282.262
281.768
281.388
281.096
280.87
280.694
280.556
285.334
284.103
283.082
282.338
281.777
281.363
281.054
280.818
280.638
280.498
285.851
284.369
283.17
282.343
281.735
281.303
280.986
280.749
280.568
280.43
286.321
284.628
283.277
282.395
281.754
281.315
280.995
280.758
280.576
280.434
286.644
284.777
283.299
282.384
281.723
281.285
280.966
280.73
280.547
280.403
286.948
284.95
283.363
282.436
281.761
281.326
281.004
280.764
280.573
280.419
287.135
285.018
283.331
282.421
281.749
281.328
281.001
280.757
280.56
280.399
288.048
285.925
284.21
283.318
282.616
282.161
281.793
281.515
281.291
281.117
282.75
282.593
282.416
282.241
282.079
281.932
281.801
281.686
281.582
281.487
283.13
282.846
282.521
282.21
281.933
281.694
281.492
281.322
281.178
281.058
283.719
283.261
282.776
282.341
281.969
281.662
281.411
281.206
281.039
280.905
284.367
283.705
283.047
282.493
282.04
281.679
281.394
281.167
280.986
280.843
284.934
284.057
283.229
282.568
282.048
281.649
281.34
281.1
280.912
280.764
285.504
284.413
283.424
282.676
282.103
281.677
281.353
281.104
280.908
280.755
285.958
284.663
283.528
282.711
282.097
281.655
281.321
281.067
280.867
280.71
286.4
284.92
283.654
282.788
282.144
281.691
281.349
281.088
280.879
280.714
286.736
285.07
283.684
282.797
282.141
281.688
281.339
281.073
280.86
280.689
287.699
285.943
284.509
283.616
282.933
282.454
282.077
281.787
281.556
281.381
282.368
282.305
282.226
282.143
282.058
281.975
281.896
281.821
281.75
281.68
282.569
282.444
282.282
282.108
281.938
281.78
281.638
281.51
281.397
281.298
282.999
282.793
282.535
282.271
282.022
281.8
281.606
281.439
281.298
281.18
283.52
283.204
282.828
282.465
282.138
281.857
281.621
281.424
281.26
281.127
284.011
283.56
283.054
282.592
282.193
281.863
281.594
281.374
281.195
281.052
284.546
283.944
283.305
282.75
282.288
281.917
281.621
281.383
281.191
281.038
285.003
284.242
283.47
282.833
282.318
281.916
281.599
281.349
281.147
280.988
285.469
284.547
283.649
282.943
282.384
281.959
281.627
281.365
281.153
280.984
285.843
284.748
283.734
282.983
282.398
281.961
281.617
281.348
281.131
280.958
286.798
285.599
284.527
283.749
283.136
282.676
282.312
282.025
281.795
281.623
282.213
282.179
282.138
282.094
282.048
282.002
281.955
281.91
281.863
281.814
282.288
282.22
282.13
282.027
281.922
281.82
281.722
281.631
281.548
281.472
282.593
282.485
282.34
282.179
282.017
281.864
281.724
281.597
281.485
281.388
282.984
282.822
282.606
282.374
282.15
281.945
281.763
281.604
281.467
281.352
283.369
283.134
282.831
282.521
282.233
281.979
281.76
281.574
281.416
281.288
283.821
283.494
283.094
282.706
282.357
282.058
281.806
281.595
281.42
281.278
284.222
283.79
283.287
282.821
282.416
282.078
281.799
281.57
281.38
281.228
284.649
284.1
283.493
282.957
282.503
282.134
281.833
281.587
281.385
281.222
284.997
284.315
283.61
283.023
282.535
282.145
281.829
281.573
281.364
281.196
285.904
285.138
284.377
283.753
283.235
282.824
282.489
282.22
282.001
281.836
282.148
282.127
282.103
282.079
282.054
282.029
282.002
281.975
281.945
281.91
282.142
282.099
282.042
281.978
281.911
281.844
281.778
281.715
281.655
281.598
282.354
282.291
282.204
282.104
281.999
281.896
281.797
281.705
281.62
281.544
282.644
282.553
282.424
282.277
282.127
281.982
281.849
281.727
281.619
281.525
282.936
282.806
282.623
282.42
282.22
282.033
281.865
281.715
281.585
281.476
283.3
283.119
282.872
282.609
282.356
282.128
281.925
281.75
281.598
281.474
283.628
283.384
283.064
282.738
282.434
282.166
281.933
281.735
281.566
281.429
283.99
283.671
283.274
282.887
282.536
282.234
281.976
281.758
281.575
281.426
284.281
283.874
283.404
282.969
282.583
282.256
281.98
281.75
281.558
281.403
285.122
284.659
284.141
283.669
283.254
282.905
282.612
282.37
282.17
282.019
282.132
282.118
282.103
282.089
282.075
282.061
282.045
282.029
282.009
281.984
282.075
282.043
282.003
281.958
281.912
281.867
281.822
281.777
281.734
281.693
282.222
282.179
282.122
282.056
281.986
281.916
281.847
281.78
281.718
281.661
282.432
282.375
282.294
282.197
282.096
281.996
281.901
281.811
281.728
281.656
282.648
282.571
282.456
282.323
282.185
282.052
281.927
281.813
281.71
281.622
282.936
282.831
282.675
282.499
282.322
282.153
281.998
281.857
281.734
281.63
283.194
283.052
282.849
282.626
282.406
282.201
282.017
281.853
281.71
281.593
283.489
283.302
283.046
282.776
282.516
282.278
282.068
281.884
281.725
281.595
283.718
283.48
283.175
282.864
282.571
282.309
282.079
281.882
281.714
281.576
284.491
284.218
283.877
283.535
283.215
282.933
282.688
282.479
282.303
282.169
282.139
282.13
282.12
282.112
282.103
282.095
282.086
282.076
282.063
282.043
282.051
282.024
281.993
281.958
281.924
281.891
281.859
281.827
281.796
281.765
282.151
282.119
282.078
282.03
281.981
281.932
281.884
281.836
281.791
281.749
282.301
282.261
282.205
282.139
282.07
282.001
281.933
281.868
281.808
281.754
282.457
282.407
282.331
282.241
282.148
282.055
281.964
281.879
281.802
281.735
282.682
282.616
282.516
282.398
282.275
282.154
282.038
281.931
281.834
281.751
282.878
282.793
282.662
282.511
282.356
282.205
282.063
281.934
281.818
281.722
283.114
283.003
282.839
282.654
282.466
282.287
282.121
281.972
281.841
281.732
283.289
283.151
282.955
282.74
282.525
282.323
282.139
281.976
281.834
281.716
283.996