/*--------------------------------*- C++ -*----------------------------------*\
| =========                 |                                                 |
| \\      /  F ield         | foam-extend: Open Source CFD                    |
|  \\    /   O peration     | Version:     4.0                                |
|   \\  /    A nd           | Web:         http://www.foam-extend.org         |
|    \\/     M anipulation  |                                                 |
\*---------------------------------------------------------------------------*/
FoamFile
{
    version     2.0;
    format      ascii;
    class       volVectorField;
    location    "500";
    object      U;
}
// * * * * * * * * * * * * * * * * * * * * * * * * * * * * * * * * * * * * * //

dimensions      [0 1 -1 0 0 0 0];

internalField   nonuniform List<vector> 
34480
(
(201.957 2.0987 3.49599)
(202.395 1.16997 1.85808)
(202.664 0.406971 0.135204)
(202.79 -0.202031 -1.70947)
(202.776 -0.686258 -3.81519)
(202.591 -1.03868 -6.36179)
(202.156 -1.22837 -9.74786)
(201.186 -1.12877 -14.3071)
(198.681 -0.500504 -22.1585)
(191.879 2.11292 -49.164)
(202.436 2.7439 3.22318)
(202.927 1.96363 1.51304)
(203.241 1.28281 -0.242696)
(203.372 0.695454 -2.08213)
(203.28 0.169129 -4.1244)
(202.922 -0.307432 -6.58069)
(202.258 -0.744826 -9.90533)
(201.084 -1.07317 -14.8331)
(198.037 -1.10749 -23.5083)
(190.148 0.796381 -54.0104)
(203.026 2.26059 3.80272)
(203.514 1.43101 2.03553)
(203.813 0.717048 0.192555)
(203.92 0.128272 -1.70042)
(203.794 -0.389288 -3.77311)
(203.452 -0.86255 -6.29053)
(202.892 -1.31015 -9.77121)
(201.94 -1.64513 -15.2457)
(198.846 -1.67397 -24.8156)
(190.123 0.420965 -58.3977)
(202.991 2.77445 3.91116)
(203.509 2.02107 2.09189)
(203.852 1.35187 0.208387)
(204.032 0.799323 -1.72256)
(204.018 0.311823 -3.84278)
(203.849 -0.138971 -6.44829)
(203.489 -0.574509 -10.0546)
(202.789 -0.894052 -15.9257)
(199.779 -0.898738 -26.1665)
(190.418 1.31874 -61.8221)
(203.05 2.31151 4.519)
(203.631 1.50071 2.66344)
(204.047 0.780716 0.699243)
(204.331 0.195203 -1.31214)
(204.454 -0.319529 -3.53925)
(204.465 -0.786982 -6.2927)
(204.303 -1.21662 -10.0785)
(203.854 -1.49471 -16.3602)
(201.036 -1.41751 -27.3072)
(191.177 0.957135 -64.6247)
(202.827 3.12984 4.3558)
(203.461 2.33494 2.50007)
(203.935 1.6162 0.571765)
(204.292 1.03154 -1.41347)
(204.519 0.533101 -3.6197)
(204.674 0.0968876 -6.37939)
(204.69 -0.283916 -10.1764)
(204.501 -0.495786 -16.6566)
(202.007 -0.310992 -28.1048)
(191.884 2.17059 -66.6824)
(202.821 2.51114 4.84566)
(203.529 1.6065 2.98796)
(204.06 0.789247 1.02238)
(204.48 0.115127 -0.98959)
(204.782 -0.46518 -3.2411)
(205.041 -0.963067 -6.06405)
(205.204 -1.35366 -9.94325)
(205.259 -1.50345 -16.6524)
(203.163 -1.1118 -28.6649)
(192.882 1.66922 -68.318)
(202.694 3.51869 4.29931)
(203.424 2.56729 2.4741)
(203.947 1.73145 0.592936)
(204.328 1.04447 -1.34905)
(204.58 0.486157 -3.50323)
(204.802 0.0329998 -6.20621)
(204.995 -0.27688 -9.92436)
(205.211 -0.311415 -16.5209)
(203.573 0.384441 -28.6957)
(193.44 3.52511 -68.9149)
(202.871 2.39865 4.73482)
(203.618 1.30788 2.96061)
(204.145 0.328258 1.10041)
(204.524 -0.530699 -0.824494)
(204.77 -1.28572 -2.98521)
(204.984 -1.93187 -5.69412)
(205.216 -2.37401 -9.46512)
(205.578 -2.43821 -16.1313)
(204.338 -1.37709 -28.6426)
(194.211 2.64719 -68.849)
(202.095 3.13896 4.12755)
(202.75 1.9363 2.30749)
(203.025 0.951043 0.443232)
(202.952 0.117327 -1.50738)
(202.575 -0.536837 -3.64323)
(202.021 -1.02323 -6.24424)
(201.432 -1.24444 -9.77073)
(201.075 -0.989825 -15.8727)
(199.854 0.504655 -27.536)
(191.067 5.34301 -65.8963)
(199.125 1.79419 3.1849)
(199.685 1.02463 1.80771)
(199.953 0.363194 0.311039)
(199.962 -0.166959 -1.25124)
(199.689 -0.586502 -2.94002)
(199.048 -0.893904 -4.77384)
(197.833 -1.08895 -6.81058)
(195.603 -1.17949 -9.03282)
(192.248 -1.23577 -11.0613)
(187.696 -1.06036 -14.406)
(199.925 2.49968 3.099)
(200.56 1.82786 1.55958)
(200.898 1.22301 -0.0399222)
(200.949 0.688765 -1.69856)
(200.665 0.200164 -3.47916)
(199.935 -0.249088 -5.44287)
(198.548 -0.674141 -7.6866)
(196.021 -1.10318 -10.475)
(191.847 -1.63716 -13.5749)
(186.217 -1.72258 -20.4633)
(200.723 2.10032 3.75975)
(201.356 1.33773 2.10288)
(201.701 0.667598 0.353116)
(201.766 0.103658 -1.44838)
(201.485 -0.398737 -3.36492)
(200.774 -0.855448 -5.48919)
(199.447 -1.29612 -8.0127)
(197.003 -1.73004 -11.4873)
(192.571 -2.2463 -15.7993)
(186.21 -1.99644 -26.5801)
(200.885 2.67421 3.90286)
(201.546 1.9722 2.16632)
(201.935 1.33306 0.352862)
(202.075 0.791299 -1.51685)
(201.903 0.304505 -3.51849)
(201.353 -0.142267 -5.79021)
(200.209 -0.582425 -8.55299)
(197.953 -0.998229 -12.5968)
(193.418 -1.4693 -17.9093)
(186.424 -0.888305 -32.3754)
(201.096 2.23449 4.53069)
(201.81 1.46468 2.74284)
(202.266 0.769154 0.834139)
(202.508 0.193825 -1.13318)
(202.469 -0.3151 -3.26496)
(202.102 -0.769787 -5.73025)
(201.163 -1.20143 -8.75808)
(199.15 -1.57136 -13.3541)
(194.645 -1.95006 -19.6384)
(187.099 -0.974938 -37.6734)
(200.983 3.08035 4.38278)
(201.746 2.32059 2.58312)
(202.261 1.62217 0.703099)
(202.58 1.04341 -1.24604)
(202.648 0.543882 -3.36757)
(202.439 0.112152 -5.87434)
(201.699 -0.278644 -8.98671)
(199.965 -0.580571 -13.9169)
(195.641 -0.82825 -20.9265)
(187.712 0.512007 -42.235)
(201.064 2.46342 4.88284)
(201.892 1.59363 3.07613)
(202.463 0.802623 1.15101)
(202.851 0.147262 -0.830464)
(203.003 -0.412865 -3.00804)
(202.918 -0.883359 -5.60843)
(202.356 -1.27127 -8.861)
(200.908 -1.51263 -14.1288)
(196.876 -1.56056 -21.8882)
(188.669 0.240857 -46.2544)
(200.983 3.49065 4.34938)
(201.835 2.57778 2.57505)
(202.407 1.77229 0.74302)
(202.772 1.10723 -1.16049)
(202.903 0.570793 -3.23881)
(202.826 0.141595 -5.7481)
(202.349 -0.170949 -8.90737)
(201.137 -0.319357 -14.1951)
(197.498 -0.0734651 -22.3234)
(189.289 2.09645 -49.2015)
(201.169 2.36255 4.79146)
(202.03 1.31625 3.06806)
(202.609 0.393298 1.25408)
(202.981 -0.397473 -0.620031)
(203.127 -1.0696 -2.69727)
(203.085 -1.62778 -5.23024)
(202.706 -2.00916 -8.50172)
(201.728 -2.15167 -13.9791)
(198.502 -1.55013 -22.7172)
(190.177 1.2743 -51.4444)
(200.394 3.16812 4.15764)
(201.195 2.02031 2.42873)
(201.605 1.10198 0.661366)
(201.659 0.33126 -1.19284)
(201.367 -0.254068 -3.19882)
(200.796 -0.678104 -5.60239)
(199.882 -0.871145 -8.67411)
(198.505 -0.722954 -13.7626)
(195.464 0.31835 -22.2589)
(188.105 4.18183 -51.2902)
(196.925 1.28062 2.49665)
(197.486 0.711019 1.43271)
(197.726 0.196762 0.236608)
(197.688 -0.225546 -0.995083)
(197.364 -0.567816 -2.28485)
(196.7 -0.825606 -3.58173)
(195.598 -1.00586 -4.84022)
(193.889 -1.13155 -5.9154)
(191.344 -1.28444 -6.45336)
(188.001 -1.4235 -6.61028)
(197.813 2.03696 2.5933)
(198.489 1.51848 1.3003)
(198.814 1.02521 -0.0609899)
(198.81 0.56913 -1.46071)
(198.452 0.135337 -2.92384)
(197.656 -0.282372 -4.45605)
(196.242 -0.696335 -6.02315)
(193.896 -1.13273 -7.57349)
(190.137 -1.69028 -8.60271)
(185.077 -2.1545 -9.85638)
(198.671 1.74432 3.36316)
(199.37 1.09738 1.89503)
(199.717 0.507493 0.324716)
(199.739 -0.00716229 -1.29283)
(199.388 -0.483907 -2.99493)
(198.568 -0.934875 -4.8048)
(197.061 -1.38435 -6.73622)
(194.469 -1.85673 -8.90227)
(189.93 -2.4789 -10.7351)
(183.413 -2.91667 -13.6557)
(198.968 2.4094 3.54041)
(199.702 1.79622 1.95512)
(200.092 1.21608 0.286729)
(200.179 0.705494 -1.43895)
(199.909 0.228341 -3.2768)
(199.184 -0.22716 -5.29461)
(197.734 -0.692624 -7.53929)
(195.072 -1.17616 -10.2922)
(189.918 -1.82745 -12.9107)
(182.071 -2.17717 -17.7112)
(199.303 2.00694 4.1957)
(200.088 1.3095 2.52892)
(200.538 0.663032 0.738482)
(200.715 0.113046 -1.11382)
(200.554 -0.388697 -3.11787)
(199.966 -0.850478 -5.37788)
(198.636 -1.30402 -7.96442)
(196.015 -1.74781 -11.334)
(190.426 -2.36156 -14.82)
(181.415 -2.51861 -21.8048)
(199.297 2.89088 4.06457)
(200.127 2.19048 2.36804)
(200.634 1.53432 0.588769)
(200.884 0.977764 -1.26657)
(200.817 0.483124 -3.28726)
(200.361 0.0412898 -5.62853)
(199.171 -0.379124 -8.37329)
(196.676 -0.767498 -12.1738)
(190.842 -1.29321 -16.3786)
(180.887 -1.21889 -25.6297)
(199.468 2.27541 4.58613)
(200.354 1.46159 2.8675)
(200.913 0.715872 1.0286)
(201.23 0.0907917 -0.875921)
(201.243 -0.451922 -2.97368)
(200.902 -0.914885 -5.44258)
(199.855 -1.31165 -8.39464)
(197.533 -1.62259 -12.6421)
(191.619 -1.98007 -17.6386)
(180.881 -1.57041 -29.2596)
(199.446 3.31961 4.06237)
(200.354 2.4653 2.37508)
(200.918 1.70839 0.628493)
(201.224 1.07946 -1.20012)
(201.228 0.56599 -3.20634)
(200.909 0.150674 -5.60779)
(199.95 -0.168756 -8.52991)
(197.81 -0.38783 -12.9359)
(191.989 -0.48315 -18.4365)
(180.715 0.192181 -32.1701)
(199.658 2.16622 4.51511)
(200.567 1.18153 2.86978)
(201.136 0.323469 1.12868)
(201.449 -0.399697 -0.679917)
(201.466 -1.00349 -2.6889)
(201.182 -1.49205 -5.11564)
(200.325 -1.81693 -8.17765)
(198.401 -1.95412 -12.894)
(192.791 -1.65706 -19.1741)
(180.863 -0.502009 -34.5447)
(198.909 3.03232 3.8467)
(199.762 1.96331 2.23108)
(200.205 1.12156 0.573101)
(200.281 0.422841 -1.18024)
(199.975 -0.0961003 -3.0908)
(199.305 -0.45548 -5.37548)
(198.08 -0.597653 -8.24965)
(195.925 -0.443705 -12.684)
(190.5 0.322182 -19.0527)
(178.659 2.47023 -34.923)
(195.264 0.784377 1.85166)
(195.742 0.400336 1.09427)
(195.933 0.0300104 0.205101)
(195.881 -0.28427 -0.695604)
(195.583 -0.548574 -1.61027)
(195.021 -0.7561 -2.45864)
(194.158 -0.917508 -3.17633)
(192.954 -1.05432 -3.62927)
(191.369 -1.22041 -3.59487)
(189.483 -1.42283 -2.85679)
(196.09 1.53651 2.05654)
(196.722 1.17635 1.03564)
(197.013 0.804495 -0.0556476)
(196.981 0.438697 -1.16525)
(196.614 0.0748198 -2.2851)
(195.867 -0.29137 -3.38677)
(194.637 -0.669217 -4.3946)
(192.776 -1.07728 -5.18565)
(190.106 -1.57185 -5.32736)
(186.966 -2.04899 -4.70194)
(196.898 1.32069 2.88632)
(197.588 0.808543 1.65074)
(197.911 0.317631 0.309621)
(197.896 -0.129 -1.06365)
(197.511 -0.55965 -2.47977)
(196.684 -0.984361 -3.92351)
(195.258 -1.42186 -5.32916)
(192.998 -1.8933 -6.61782)
(189.509 -2.48915 -7.19405)
(185.17 -3.07178 -7.05451)
(197.254 2.07425 3.08393)
(197.993 1.57205 1.69726)
(198.359 1.07054 0.225081)
(198.39 0.610006 -1.29225)
(198.043 0.163061 -2.88438)
(197.233 -0.281122 -4.57283)
(195.743 -0.75069 -6.31221)
(193.237 -1.26123 -8.10816)
(188.989 -1.94189 -9.18357)
(183.395 -2.59981 -9.76052)
(197.664 1.71385 3.76678)
(198.459 1.1106 2.26556)
(198.879 0.53141 0.640598)
(198.981 0.0228563 -1.03579)
(198.708 -0.455581 -2.82988)
(197.97 -0.911196 -4.79676)
(196.491 -1.37364 -6.91514)
(193.853 -1.85725 -9.29819)
(188.955 -2.54491 -11.0203)
(182.154 -3.17747 -12.6706)
(197.738 2.63854 3.65626)
(198.581 2.01848 2.10363)
(199.053 1.42133 0.467029)
(199.219 0.90204 -1.23899)
(199.016 0.427998 -3.08198)
(198.362 -0.0104595 -5.16637)
(196.937 -0.447902 -7.4905)
(194.261 -0.894177 -10.3133)
(188.852 -1.54617 -12.6021)
(180.974 -2.09629 -15.5055)
(197.981 2.03102 4.20534)
(198.876 1.29207 2.61089)
(199.397 0.605725 0.895289)
(199.624 0.02232 -0.883009)
(199.488 -0.492813 -2.83047)
(198.919 -0.942513 -5.07656)
(197.571 -1.34557 -7.65818)
(194.923 -1.70655 -10.963)
(189.147 -2.22629 -13.9416)
(180.313 -2.58537 -18.3458)
(198.015 3.10079 3.69839)
(198.93 2.32216 2.13037)
(199.46 1.6252 0.500301)
(199.683 1.04122 -1.21237)
(199.544 0.557922 -3.08556)
(198.993 0.160692 -5.29056)
(197.696 -0.164312 -7.88911)
(195.124 -0.438471 -11.4193)
(189.168 -0.749653 -14.8883)
(179.568 -0.959571 -20.7306)
(198.246 1.93149 4.18714)
(199.159 1.0234 2.64885)
(199.693 0.234778 1.00638)
(199.927 -0.422511 -0.705021)
(199.803 -0.964958 -2.59996)
(199.281 -1.39445 -4.8443)
(198.039 -1.67909 -7.58228)
(195.591 -1.82463 -11.4474)
(189.645 -1.74137 -15.7434)
(179.195 -1.60397 -22.8089)
(197.526 2.87287 3.49638)
(198.389 1.89355 2.01332)
(198.836 1.1301 0.479395)
(198.901 0.501117 -1.15334)
(198.552 0.0427009 -2.93624)
(197.765 -0.261737 -5.04251)
(196.277 -0.367153 -7.61671)
(193.649 -0.220733 -11.2679)
(187.78 0.334655 -15.7817)
(176.982 1.37553 -23.2319)
(194.054 0.37737 1.33676)
(194.425 0.132785 0.82565)
(194.568 -0.120528 0.195818)
(194.523 -0.343413 -0.429563)
(194.296 -0.540438 -1.05177)
(193.89 -0.702911 -1.5908)
(193.304 -0.839656 -1.99926)
(192.549 -0.964421 -2.18675)
(191.645 -1.10311 -2.05453)
(190.644 -1.24721 -1.51867)
(194.743 1.08062 1.56572)
(195.288 0.854031 0.797818)
(195.536 0.592756 -0.0347996)
(195.504 0.314135 -0.872738)
(195.19 0.0221001 -1.68968)
(194.578 -0.283626 -2.44301)
(193.624 -0.606099 -3.05743)
(192.278 -0.953007 -3.42682)
(190.515 -1.34162 -3.31278)
(188.629 -1.68589 -2.60366)
(195.421 0.894759 2.40392)
(196.053 0.511778 1.40978)
(196.344 0.121291 0.310553)
(196.316 -0.251298 -0.806935)
(195.954 -0.625012 -1.93019)
(195.216 -1.00607 -3.02091)
(194.013 -1.40771 -3.99318)
(192.238 -1.84229 -4.72313)
(189.763 -2.35069 -4.80613)
(187.029 -2.82594 -4.07727)
(195.761 1.71245 2.59848)
(196.46 1.32641 1.43284)
(196.793 0.911568 0.180825)
(196.793 0.511195 -1.10239)
(196.428 0.108141 -2.41927)
(195.64 -0.305704 -3.75566)
(194.284 -0.753222 -5.02911)
(192.176 -1.24928 -6.13543)
(188.981 -1.87215 -6.47594)
(185.265 -2.49018 -5.85061)
(196.186 1.38543 3.29803)
(196.952 0.887198 1.9908)
(197.336 0.385753 0.55976)
(197.388 -0.0709197 -0.909112)
(197.058 -0.513585 -2.45266)
(196.276 -0.947676 -4.08127)
(194.837 -1.39958 -5.72586)
(192.485 -1.88829 -7.32937)
(188.602 -2.54954 -8.10011)
(183.843 -3.23557 -7.85895)
(196.299 2.34483 3.20528)
(197.121 1.81881 1.82619)
(197.556 1.29187 0.360946)
(197.659 0.819915 -1.1621)
(197.373 0.377735 -2.78235)
(196.621 -0.0436396 -4.55157)
(195.148 -0.4795 -6.41559)
(192.634 -0.949706 -8.40883)
(188.137 -1.61848 -9.56485)
(182.359 -2.33039 -9.85001)
(196.584 1.74683 3.78129)
(197.462 1.09735 2.34001)
(197.943 0.480767 0.775315)
(198.099 -0.0527801 -0.843897)
(197.861 -0.532274 -2.5953)
(197.156 -0.960558 -4.55368)
(195.686 -1.36026 -6.70052)
(193.077 -1.74961 -9.1566)
(188.065 -2.32116 -10.8515)
(181.313 -2.95475 -11.9246)
(196.655 2.84659 3.29366)
(197.557 2.15788 1.87059)
(198.051 1.53024 0.381304)
(198.208 0.998179 -1.18614)
(197.968 0.551547 -2.88469)
(197.267 0.178257 -4.82948)
(195.799 -0.144373 -7.02409)
(193.161 -0.452895 -9.71639)
(187.793 -0.872228 -11.8063)
(180.187 -1.45784 -13.6908)
(196.896 1.6634 3.8257)
(197.796 0.845298 2.41801)
(198.297 0.131557 0.896336)
(198.465 -0.459356 -0.69102)
(198.24 -0.943541 -2.43621)
(197.559 -1.3209 -4.44742)
(196.111 -1.57371 -6.79271)
(193.487 -1.72796 -9.78662)
(187.955 -1.78254 -12.6073)
(179.416 -2.11657 -15.2934)
(196.201 2.6925 3.11428)
(197.058 1.81217 1.7789)
(197.5 1.12965 0.382567)
(197.551 0.569661 -1.11156)
(197.171 0.168504 -2.73932)
(196.309 -0.087069 -4.62441)
(194.694 -0.164525 -6.83876)
(191.914 -0.0327876 -9.68391)
(186.337 0.362086 -12.6945)
(177.216 0.804255 -15.5439)
(193.166 0.0751451 0.96259)
(193.439 -0.075757 0.631251)
(193.54 -0.243992 0.1978)
(193.508 -0.396865 -0.22141)
(193.353 -0.540025 -0.635383)
(193.083 -0.66383 -0.974809)
(192.711 -0.774003 -1.21367)
(192.258 -0.877256 -1.29633)
(191.741 -0.984174 -1.18469)
(191.155 -1.07998 -0.855541)
(193.716 0.710993 1.15575)
(194.157 0.583738 0.599334)
(194.362 0.412627 -0.0104914)
(194.339 0.210249 -0.618502)
(194.098 -0.0148036 -1.19314)
(193.638 -0.259364 -1.69292)
(192.944 -0.521176 -2.05825)
(192.007 -0.799488 -2.21683)
(190.843 -1.08894 -2.05086)
(189.641 -1.31615 -1.51177)
(194.235 0.512165 1.96129)
(194.777 0.237142 1.19005)
(195.027 -0.0626357 0.319512)
(195.001 -0.363232 -0.559683)
(194.693 -0.676309 -1.42116)
(194.086 -1.00401 -2.21788)
(193.142 -1.3534 -2.87098)
(191.825 -1.72862 -3.27442)
(190.129 -2.138 -3.19203)
(188.369 -2.48825 -2.50392)
(194.511 1.3613 2.12555)
(195.133 1.08173 1.1797)
(195.425 0.752129 0.150487)
(195.408 0.415662 -0.898235)
(195.066 0.0644201 -1.94827)
(194.365 -0.305588 -2.96368)
(193.226 -0.709791 -3.85654)
(191.571 -1.15883 -4.50452)
(189.287 -1.68908 -4.52032)
(186.847 -2.19071 -3.69003)
(194.904 1.04994 2.82361)
(195.603 0.655411 1.72044)
(195.943 0.23506 0.495955)
(195.961 -0.163543 -0.753727)
(195.62 -0.561407 -2.03939)
(194.872 -0.960876 -3.33801)
(193.588 -1.38299 -4.56213)
(191.639 -1.84507 -5.59343)
(188.745 -2.43227 -5.87648)
(185.522 -3.03444 -5.09604)
(195.021 2.03043 2.73938)
(195.786 1.60269 1.54978)
(196.177 1.15188 0.273351)
(196.232 0.734032 -1.04844)
(195.907 0.332103 -2.42808)
(195.139 -0.0606429 -3.87293)
(193.752 -0.475643 -5.30013)
(191.566 -0.935564 -6.63527)
(188.079 -1.55706 -7.15217)
(184.027 -2.23983 -6.48979)
(195.319 1.43831 3.33603)
(196.147 0.885718 2.0668)
(196.583 0.345471 0.672602)
(196.681 -0.132172 -0.765646)
(196.382 -0.569575 -2.29698)
(195.62 -0.968395 -3.94602)
(194.172 -1.35175 -5.65528)
(191.806 -1.74415 -7.39378)
(187.772 -2.29949 -8.31165)
(182.873 -2.96743 -7.98683)
(195.407 2.56848 2.86558)
(196.266 1.97837 1.60551)
(196.719 1.42664 0.275558)
(196.821 0.951826 -1.12488)
(196.516 0.547034 -2.62296)
(195.74 0.203353 -4.28022)
(194.245 -0.105599 -6.05184)
(191.763 -0.422392 -7.99703)
(187.303 -0.870432 -9.19485)
(181.609 -1.55331 -9.24343)
(195.646 1.36982 3.44268)
(196.511 0.650717 2.1831)
(196.972 0.0158602 0.800347)
(197.085 -0.508342 -0.641094)
(196.79 -0.936513 -2.21005)
(196.022 -1.26642 -3.96092)
(194.513 -1.49121 -5.90071)
(191.962 -1.64623 -8.11273)
(187.238 -1.77398 -9.87289)
(180.669 -2.26166 -10.3872)
(194.97 2.49728 2.70998)
(195.799 1.72238 1.53315)
(196.223 1.12271 0.285753)
(196.257 0.631055 -1.05457)
(195.857 0.284349 -2.50573)
(194.963 0.072168 -4.14371)
(193.333 0.0159622 -5.97859)
(190.637 0.130703 -8.09623)
(185.784 0.406956 -9.97898)
(178.6 0.558981 -10.4881)
(192.495 -0.132197 0.708985)
(192.693 -0.225698 0.499773)
(192.762 -0.337152 0.203424)
(192.742 -0.440346 -0.0732129)
(192.643 -0.543057 -0.348886)
(192.475 -0.635323 -0.566535)
(192.25 -0.720538 -0.716697)
(191.986 -0.800714 -0.765185)
(191.688 -0.878918 -0.700605)
(191.319 -0.939205 -0.521263)
(192.939 0.440949 0.83408)
(193.282 0.380501 0.441211)
(193.446 0.27687 0.0085826)
(193.437 0.136186 -0.419224)
(193.266 -0.0307548 -0.81306)
(192.94 -0.218869 -1.13952)
(192.458 -0.422553 -1.35719)
(191.814 -0.636135 -1.42243)
(191.024 -0.844624 -1.27959)
(190.197 -0.983366 -0.92632)
(193.302 0.198037 1.58145)
(193.744 0.00434831 0.999713)
(193.951 -0.220259 0.328955)
(193.933 -0.456231 -0.345113)
(193.691 -0.710451 -0.991252)
(193.224 -0.982019 -1.56409)
(192.519 -1.27232 -2.00116)
(191.572 -1.57929 -2.22819)
(190.41 -1.89393 -2.11774)
(189.232 -2.13625 -1.62519)
(193.495 1.04786 1.69215)
(194.018 0.856377 0.948287)
(194.263 0.603818 0.128318)
(194.243 0.329837 -0.702841)
(193.949 0.0334387 -1.5154)
(193.367 -0.285083 -2.26522)
(192.464 -0.633631 -2.87456)
(191.22 -1.01703 -3.24052)
(189.623 -1.44415 -3.13527)
(187.999 -1.82292 -2.43542)
(193.824 0.731613 2.36925)
(194.431 0.430424 1.46477)
(194.722 0.0883258 0.445375)
(194.72 -0.250141 -0.589196)
(194.402 -0.597635 -1.63113)
(193.738 -0.953081 -2.63863)
(192.662 -1.33098 -3.52502)
(191.126 -1.74335 -4.16823)
(189.041 -2.23567 -4.21733)
(186.863 -2.7186 -3.43644)
(193.915 1.71538 2.28121)
(194.598 1.38168 1.28407)
(194.938 1.00765 0.20246)
(194.962 0.647502 -0.913131)
(194.634 0.291697 -2.05407)
(193.913 -0.0635021 -3.1976)
(192.693 -0.442175 -4.25241)
(190.893 -0.864366 -5.10603)
(188.295 -1.4029 -5.2709)
(185.493 -1.98443 -4.41108)
(194.203 1.12178 2.88842)
(194.957 0.666245 1.79955)
(195.341 0.204723 0.586619)
(195.398 -0.213416 -0.659647)
(195.075 -0.603908 -1.96385)
(194.325 -0.966363 -3.31295)
(192.996 -1.32129 -4.62942)
(190.969 -1.69296 -5.80868)
(187.867 -2.1916 -6.25774)
(184.387 -2.78757 -5.48848)
(194.288 2.27931 2.4298)
(195.08 1.79034 1.34238)
(195.486 1.31772 0.183461)
(195.546 0.903394 -1.03664)
(195.211 0.544172 -2.32194)
(194.426 0.234417 -3.69114)
(193.014 -0.0514936 -5.06919)
(190.817 -0.35287 -6.40536)
(187.292 -0.773383 -7.0221)
(183.146 -1.40771 -6.35767)
(194.517 1.0607 3.05087)
(195.324 0.444398 1.94974)
(195.741 -0.109761 0.718561)
(195.811 -0.567727 -0.561974)
(195.479 -0.941985 -1.93916)
(194.688 -1.22821 -3.42317)
(193.233 -1.42704 -4.97987)
(190.916 -1.57468 -6.55445)
(187.093 -1.72584 -7.57744)
(182.219 -2.19649 -7.14074)
(193.852 2.29503 2.29445)
(194.629 1.62839 1.28169)
(195.026 1.11217 0.191016)
(195.043 0.687801 -0.984879)
(194.641 0.392839 -2.24609)
(193.76 0.219114 -3.62805)
(192.209 0.178923 -5.09501)
(189.751 0.276245 -6.60435)
(185.756 0.466594 -7.68384)
(180.345 0.498356 -7.15415)
(191.965 -0.266291 0.544275)
(192.109 -0.32676 0.414573)
(192.156 -0.402591 0.208833)
(192.145 -0.472409 0.0256023)
(192.086 -0.546107 -0.162157)
(191.986 -0.613952 -0.307412)
(191.854 -0.678149 -0.41116)
(191.701 -0.738291 -0.45078)
(191.522 -0.794365 -0.425335)
(191.27 -0.831971 -0.337013)
(192.348 0.264157 0.591096)
(192.608 0.245542 0.317758)
(192.737 0.189229 0.0180701)
(192.739 0.0955616 -0.276222)
(192.625 -0.0239895 -0.541429)
(192.405 -0.163846 -0.753504)
(192.078 -0.316885 -0.885741)
(191.632 -0.475384 -0.913078)
(191.068 -0.621942 -0.808739)
(190.448 -0.700605 -0.586827)
(192.578 -0.0401167 1.27107)
(192.924 -0.177588 0.840971)
(193.089 -0.343894 0.334432)
(193.081 -0.525407 -0.17315)
(192.903 -0.726503 -0.651712)
(192.561 -0.944461 -1.06304)
(192.054 -1.1769 -1.36157)
(191.382 -1.41805 -1.49961)
(190.57 -1.65173 -1.40898)
(189.738 -1.81134 -1.08796)
(192.686 0.787853 1.31367)
(193.105 0.663216 0.744559)
(193.304 0.475632 0.109807)
(193.286 0.25893 -0.530863)
(193.049 0.0164146 -1.1441)
(192.593 -0.248383 -1.68696)
(191.91 -0.537394 -2.09777)
(191.001 -0.850265 -2.30061)
(189.889 -1.18031 -2.16791)
(188.779 -1.45269 -1.64707)
(192.936 0.448687 1.95386)
(193.438 0.225257 1.23133)
(193.678 -0.0459942 0.404214)
(193.668 -0.325951 -0.431008)
(193.392 -0.621002 -1.25581)
(192.838 -0.927321 -2.02226)
(191.98 -1.25302 -2.65513)
(190.815 -1.60386 -3.05211)
(189.339 -1.99859 -3.00453)
(187.858 -2.36505 -2.3758)
(192.986 1.4173 1.8501)
(193.568 1.16704 1.03725)
(193.856 0.865857 0.145804)
(193.86 0.563772 -0.77013)
(193.557 0.257287 -1.68813)
(192.922 -0.0543458 -2.56969)
(191.904 -0.386815 -3.32916)
(190.482 -0.754651 -3.85512)
(188.597 -1.19627 -3.84038)
(186.668 -1.65744 -3.06077)
(193.246 0.813392 2.45624)
(193.907 0.448785 1.54584)
(194.238 0.0643103 0.515814)
(194.265 -0.293392 -0.537924)
(193.95 -0.634096 -1.62142)
(193.259 -0.955118 -2.69856)
(192.106 -1.27274 -3.68797)
(190.446 -1.60642 -4.46352)
(188.135 -2.02811 -4.64165)
(185.694 -2.51404 -3.83955)
(193.31 1.99268 2.00228)
(194.015 1.60147 1.08839)
(194.371 1.20757 0.104587)
(194.4 0.854682 -0.93078)
(194.065 0.543158 -2.00324)
(193.324 0.270318 -3.10214)
(192.065 0.014138 -4.14015)
(190.212 -0.256549 -5.01897)
(187.523 -0.618164 -5.26977)
(184.563 -1.13874 -4.42855)
(193.524 0.747104 2.66428)
(194.254 0.232082 1.72418)
(194.623 -0.242126 0.650855)
(194.661 -0.635557 -0.461698)
(194.321 -0.958152 -1.64244)
(193.56 -1.20385 -2.8698)
(192.237 -1.37769 -4.08684)
(190.24 -1.51214 -5.17517)
(187.265 -1.65768 -5.71813)
(183.747 -2.04122 -4.96487)
(192.86 2.09483 1.87982)
(193.568 1.53534 1.03074)
(193.928 1.10139 0.0999854)
(193.932 0.742419 -0.90647)
(193.545 0.496269 -1.97316)
(192.716 0.356455 -3.10492)
(191.31 0.328302 -4.23706)
(189.179 0.409145 -5.26734)
(186.021 0.537806 -5.80567)
(182.088 0.529338 -4.92036)
(191.528 -0.349262 0.440054)
(191.637 -0.391522 0.360679)
(191.67 -0.446077 0.212561)
(191.665 -0.494372 0.0882491)
(191.63 -0.548076 -0.0451829)
(191.572 -0.597955 -0.148022)
(191.496 -0.645832 -0.227113)
(191.407 -0.690374 -0.265881)
(191.296 -0.730609 -0.267267)
(191.114 -0.754802 -0.232405)
(191.892 0.16506 0.410141)
(192.086 0.171379 0.2207)
(192.187 0.146711 0.0165454)
(192.196 0.0872179 -0.182709)
(192.125 0.00434334 -0.359296)
(191.981 -0.0966282 -0.497107)
(191.759 -0.208502 -0.579778)
(191.443 -0.32339 -0.592681)
(191.018 -0.424736 -0.522148)
(190.519 -0.46446 -0.385348)
(192.018 -0.207115 1.02598)
(192.278 -0.308549 0.71174)
(192.407 -0.432029 0.33386)
(192.406 -0.569957 -0.0447066)
(192.283 -0.725702 -0.398002)
(192.042 -0.89594 -0.696539)
(191.687 -1.07646 -0.908812)
(191.213 -1.26012 -1.0054)
(190.629 -1.42931 -0.94814)
(190.006 -1.52947 -0.754343)
(192.054 0.586327 0.995214)
(192.374 0.508731 0.570372)
(192.529 0.372923 0.0917644)
(192.516 0.206017 -0.389815)
(192.336 0.0133762 -0.842826)
(191.995 -0.199622 -1.23041)
(191.496 -0.431095 -1.5073)
(190.847 -0.677284 -1.62104)
(190.068 -0.924484 -1.50176)
(189.286 -1.11261 -1.13443)
(192.221 0.212047 1.58854)
(192.618 0.0492715 1.02452)
(192.81 -0.161156 0.369075)
(192.797 -0.387101 -0.290044)
(192.572 -0.630802 -0.929998)
(192.132 -0.886817 -1.50514)
(191.476 -1.15802 -1.95578)
(190.619 -1.44499 -2.20497)
(189.583 -1.75074 -2.13285)
(188.565 -2.01651 -1.67081)
(192.223 1.14917 1.46036)
(192.699 0.968135 0.815411)
(192.935 0.732462 0.100758)
(192.929 0.485935 -0.631009)
(192.666 0.229263 -1.35053)
(192.137 -0.035749 -2.01473)
(191.323 -0.317348 -2.55103)
(190.238 -0.624229 -2.86662)
(188.894 -0.971212 -2.77489)
(187.57 -1.31713 -2.14998)
(192.449 0.527116 2.05424)
(193.005 0.242832 1.31185)
(193.282 -0.0697319 0.457943)
(193.291 -0.368618 -0.411774)
(193.004 -0.658799 -1.29104)
(192.404 -0.935548 -2.13322)
(191.449 -1.21075 -2.86381)
(190.139 -1.49713 -3.36485)
(188.455 -1.83794 -3.40123)
(186.761 -2.20875 -2.71475)
(192.477 1.72122 1.59757)
(193.083 1.41955 0.850146)
(193.386 1.10064 0.0378922)
(193.395 0.807842 -0.816774)
(193.082 0.544394 -1.68662)
(192.421 0.310023 -2.54421)
(191.35 0.0877802 -3.30316)
(189.849 -0.144723 -3.8588)
(187.853 -0.438385 -3.89714)
(185.775 -0.83172 -3.1087)
(192.674 0.439889 2.29643)
(193.314 0.019876 1.51257)
(193.632 -0.377799 0.596589)
(193.648 -0.709762 -0.34871)
(193.325 -0.983431 -1.33829)
(192.631 -1.19144 -2.33115)
(191.484 -1.34094 -3.26201)
(189.836 -1.45848 -3.99759)
(187.588 -1.58483 -4.25052)
(185.109 -1.86979 -3.48723)
(192.004 1.90609 1.47805)
(192.629 1.44892 0.786431)
(192.947 1.09398 0.0136757)
(192.941 0.797465 -0.82443)
(192.583 0.596766 -1.70048)
(191.836 0.486603 -2.5992)
(190.615 0.467504 -3.44193)
(188.844 0.533607 -4.11297)
(186.426 0.618393 -4.30914)
(183.648 0.603963 -3.39735)
(191.158 -0.399824 0.375105)
(191.244 -0.432256 0.327108)
(191.267 -0.474638 0.214717)
(191.266 -0.509514 0.126642)
(191.246 -0.549903 0.0263196)
(191.213 -0.58715 -0.0517764)
(191.169 -0.623107 -0.117307)
(191.117 -0.656288 -0.156971)
(191.045 -0.685648 -0.175151)
(190.909 -0.702467 -0.170969)
(191.536 0.125656 0.273729)
(191.679 0.146645 0.141724)
(191.757 0.14247 0.004406)
(191.77 0.106989 -0.128747)
(191.728 0.0513866 -0.245195)
(191.635 -0.0196763 -0.334624)
(191.484 -0.0997845 -0.387383)
(191.252 -0.18189 -0.39408)
(190.913 -0.251529 -0.347157)
(190.49 -0.267599 -0.260895)
(191.583 -0.31465 0.836636)
(191.772 -0.394498 0.607802)
(191.869 -0.487865 0.326955)
(191.874 -0.592332 0.0447978)
(191.792 -0.711105 -0.217607)
(191.629 -0.841144 -0.438777)
(191.384 -0.977844 -0.597594)
(191.048 -1.11425 -0.675874)
(190.613 -1.23424 -0.650114)
(190.123 -1.2939 -0.542837)
(191.566 0.440256 0.73459)
(191.799 0.393565 0.424516)
(191.915 0.297136 0.0723503)
(191.908 0.171652 -0.281422)
(191.778 0.0229706 -0.609811)
(191.532 -0.143044 -0.883659)
(191.179 -0.322546 -1.0716)
(190.723 -0.510218 -1.13835)
(190.173 -0.690633 -1.04618)
(189.602 -0.81618 -0.793546)
(191.657 0.0256514 1.27736)
(191.956 -0.0923724 0.84578)
(192.103 -0.252793 0.337247)
(192.092 -0.43107 -0.17255)
(191.917 -0.627078 -0.660844)
(191.583 -0.834824 -1.08859)
(191.099 -1.05357 -1.41155)
(190.483 -1.28043 -1.57553)
(189.762 -1.51079 -1.51336)
(189.054 -1.69623 -1.19257)
(191.612 0.918429 1.12064)
(191.985 0.791393 0.622258)
(192.171 0.611916 0.0649355)
(192.162 0.416168 -0.504105)
(191.946 0.207326 -1.05397)
(191.524 -0.0108413 -1.54415)
(190.898 -0.241178 -1.91736)
(190.095 -0.487491 -2.10393)
(189.15 -0.750711 -1.99305)
(188.243 -0.998653 -1.52275)
(191.802 0.273352 1.69295)
(192.254 0.0565165 1.10187)
(192.478 -0.191732 0.410479)
(192.477 -0.435622 -0.29074)
(192.231 -0.676649 -0.98873)
(191.733 -0.90868 -1.63548)
(190.972 -1.13979 -2.16854)
(189.972 -1.37619 -2.49122)
(188.767 -1.64238 -2.46665)
(187.605 -1.91086 -1.93108)
(191.785 1.47523 1.2274)
(192.287 1.25157 0.633015)
(192.538 1.00124 -0.018004)
(192.535 0.76508 -0.703241)
(192.258 0.548335 -1.38837)
(191.696 0.352446 -2.03913)
(190.822 0.166059 -2.57809)
(189.649 -0.0259666 -2.91565)
(188.199 -0.255141 -2.84511)
(186.767 -0.536454 -2.19134)
(191.969 0.14844 1.95906)
(192.512 -0.186457 1.32036)
(192.779 -0.513412 0.554847)
(192.782 -0.788366 -0.231046)
(192.49 -1.01652 -1.04283)
(191.888 -1.18972 -1.83057)
(190.934 -1.31579 -2.53062)
(189.623 -1.41454 -3.0213)
(187.966 -1.51682 -3.11543)
(186.257 -1.71588 -2.46691)
(191.288 1.73779 1.09969)
(191.82 1.37493 0.554225)
(192.093 1.09379 -0.0675162)
(192.081 0.855606 -0.744216)
(191.763 0.696498 -1.44075)
(191.117 0.611983 -2.1312)
(190.097 0.599716 -2.73441)
(188.679 0.653098 -3.14741)
(186.878 0.706787 -3.14363)
(184.962 0.699035 -2.34245)
(190.842 -0.432408 0.335555)
(190.913 -0.45955 0.306957)
(190.929 -0.495352 0.216325)
(190.929 -0.522167 0.150067)
(190.918 -0.553966 0.0698325)
(190.9 -0.582691 0.00608641)
(190.874 -0.610329 -0.0517462)
(190.843 -0.63557 -0.0923289)
(190.794 -0.657624 -0.120686)
(190.691 -0.670815 -0.133973)
(191.256 0.129555 0.16691)
(191.36 0.159541 0.0739026)
(191.419 0.168441 -0.0170946)
(191.434 0.149507 -0.104447)
(191.41 0.113611 -0.179899)
(191.35 0.0647621 -0.236984)
(191.245 0.00822863 -0.270258)
(191.069 -0.0501677 -0.272686)
(190.788 -0.0983552 -0.240038)
(190.414 -0.101389 -0.181367)
(191.244 -0.376986 0.692069)
(191.375 -0.444714 0.524431)
(191.446 -0.517551 0.314641)
(191.454 -0.597154 0.102571)
(191.402 -0.686931 -0.0952537)
(191.293 -0.784573 -0.263772)
(191.127 -0.885921 -0.389024)
(190.886 -0.985046 -0.459219)
(190.553 -1.06841 -0.458012)
(190.15 -1.10127 -0.406744)
(191.195 0.341489 0.525346)
(191.355 0.313854 0.304017)
(191.44 0.246362 0.0508805)
(191.437 0.154142 -0.203358)
(191.346 0.0425576 -0.437208)
(191.175 -0.0828906 -0.628845)
(190.931 -0.217796 -0.757542)
(190.615 -0.356612 -0.799328)
(190.221 -0.484924 -0.734403)
(189.793 -0.565476 -0.56134)
(191.219 -0.111974 1.01885)