/*--------------------------------*- C++ -*----------------------------------*\
| =========                 |                                                 |
| \\      /  F ield         | foam-extend: Open Source CFD                    |
|  \\    /   O peration     | Version:     4.0                                |
|   \\  /    A nd           | Web:         http://www.foam-extend.org         |
|    \\/     M anipulation  |                                                 |
\*---------------------------------------------------------------------------*/
FoamFile
{
    version     2.0;
    format      ascii;
    class       volScalarField;
    location    "4700";
    object      divFlux;
}
// * * * * * * * * * * * * * * * * * * * * * * * * * * * * * * * * * * * * * //

dimensions      [1 -3 -1 0 0 0 0];

internalField   nonuniform List<scalar> 
34480
(
2.16235e-05
8.04465e-06
8.1797e-06
7.53789e-06
6.98141e-06
6.54533e-06
6.2121e-06
0.000298581
0.000182466
5.54226e-06
6.72045e-06
3.36159e-06
3.34275e-06
3.10649e-06
2.92951e-06
2.84893e-06
2.84355e-06
2.84893e-06
0.00346332
2.75162e-06
1.89239e-06
1.07208e-06
1.10539e-06
1.03565e-06
1.02008e-06
1.05531e-06
1.11336e-06
1.1524e-06
0.00334098
1.1365e-06
7.13822e-07
3.74191e-07
4.40094e-07
3.94962e-07
4.00843e-07
4.21347e-07
4.4712e-07
4.64188e-07
0.000801465
4.59224e-07
3.2157e-07
1.23778e-07
1.97481e-07
1.57422e-07
1.6783e-07
1.75095e-07
1.85175e-07
1.91459e-07
1.94601e-07
1.90412e-07
1.24657e-07
5.91069e-08
8.5453e-08
6.82135e-08
7.39409e-08
7.68046e-08
8.10429e-08
8.33339e-08
8.40784e-08
8.27039e-08
6.79017e-08
1.72077e-08
4.30701e-08
2.88662e-08
3.4059e-08
3.47209e-08
3.68082e-08
3.73682e-08
3.84882e-08
3.78773e-08
8.47084e-09
2.87287e-08
1.23254e-08
1.7503e-08
1.63575e-08
1.76404e-08
1.75946e-08
1.75488e-08
1.79612e-08
1.88776e-08
3.51559e-08
1.12466e-09
1.50371e-08
7.53936e-09
1.05384e-08
9.70536e-09
9.5804e-09
1.10383e-08
1.03302e-08
1.05801e-08
4.68693e-09
1.32494e-08
2.55824e-09
9.69842e-09
5.91833e-09
6.68198e-09
6.72017e-09
6.18561e-09
6.72017e-09
6.26197e-09
2.97563e-05
1.03002e-05
1.03463e-05
9.68847e-06
9.09831e-06
8.65152e-06
8.35822e-06
8.2047e-06
8.19231e-06
0.00106534
9.4389e-06
4.98875e-06
4.87684e-06
4.57979e-06
4.36825e-06
4.27917e-06
4.28141e-06
4.36016e-06
4.50796e-06
0.00345614
3.21706e-06
1.75233e-06
1.81524e-06
1.73231e-06
1.72643e-06
1.78717e-06
1.88194e-06
1.98698e-06
2.10075e-06
0.0043109
1.84364e-06
5.95695e-07
8.26667e-07
7.51203e-07
7.66892e-07
8.05654e-07
8.53857e-07
9.06533e-07
9.59884e-07
0.00149801
1.50901e-06
6.77264e-08
4.44329e-07
3.35225e-07
3.53175e-07
3.76116e-07
3.94615e-07
4.20963e-07
4.4512e-07
4.57363e-07
1.05691e-06
2.29482e-08
2.25489e-07
1.59253e-07
1.6873e-07
1.82574e-07
1.89336e-07
2.00677e-07
2.13455e-07
2.1695e-07
9.6409e-07
1.15622e-07
1.16948e-07
9.58393e-08
7.4731e-08
9.26683e-08
9.46561e-08
1.00146e-07
1.0663e-07
1.07796e-07
8.39393e-09
1.3967e-07
1.74215e-08
7.48824e-08
3.69301e-08
4.95383e-08
5.12847e-08
5.3457e-08
5.83129e-08
5.82011e-08
1.62973e-07
8.0931e-08
7.50838e-08
2.67576e-08
3.0746e-08
3.05137e-08
3.27596e-08
3.21788e-08
3.6903e-08
3.72176e-08
9.20827e-07
5.33505e-08
2.11201e-08
2.33564e-08
2.97812e-08
2.08007e-08
2.54152e-08
2.67285e-08
2.76159e-08
2.86719e-08
2.80405e-05
7.825e-06
8.07364e-06
7.59474e-06
7.15078e-06
6.83452e-06
6.66372e-06
6.64191e-06
3.12203e-05
0.000873719
8.56127e-06
3.60788e-06
3.56773e-06
3.34618e-06
3.16215e-06
3.0391e-06
3.00074e-06
3.06731e-06
8.11258e-05
0.00135316
2.63774e-06
1.22093e-06
1.26476e-06
1.19059e-06
1.13939e-06
1.11833e-06
1.1384e-06
1.21055e-06
0.000120291
0.00127419
1.20317e-06
3.74499e-07
5.26357e-07
4.72306e-07
4.58347e-07
4.53299e-07
4.64023e-07
4.98902e-07
5.60279e-07
7.01671e-07
7.33183e-07
3.99375e-08
2.60951e-07
1.92277e-07
1.95784e-07
1.92164e-07
1.96859e-07
2.11227e-07
2.40586e-07
3.06079e-07
3.35779e-07
1.54432e-08
1.20725e-07
8.17205e-08
8.85016e-08
8.53338e-08
8.60268e-08
9.43919e-08
1.0736e-07
1.38531e-07
2.66203e-07
4.1534e-08
7.02205e-08
3.42743e-08
4.1138e-08
3.87181e-08
3.9862e-08
4.35139e-08
4.91456e-08
6.58593e-08
2.25251e-08
6.4426e-08
4.47458e-09
2.64119e-08
1.97594e-08
1.9799e-08
1.98386e-08
2.18977e-08
2.49468e-08
3.4084e-08
1.85245e-08
1.19874e-08
3.26864e-08
8.60358e-09
1.25994e-08
1.20594e-08
1.23834e-08
1.32473e-08
1.50833e-08
2.1032e-08
8.54802e-08
1.02295e-08
7.25964e-09
1.63012e-08
5.87371e-09
8.0846e-09
8.94256e-09
8.24959e-09
1.00645e-08
1.58722e-08
2.73694e-05
7.02104e-06
7.33489e-06
6.93131e-06
6.54243e-06
6.26999e-06
6.12879e-06
6.12596e-06
1.60877e-05
0.000373772
8.51169e-06
3.38521e-06
3.34725e-06
3.13972e-06
2.96431e-06
2.84173e-06
2.78085e-06
2.80174e-06
3.49073e-05
0.0011441
2.60855e-06
1.20997e-06
1.2262e-06
1.15968e-06
1.09982e-06
1.06058e-06
1.05366e-06
1.08911e-06
0.000121762
0.00228965
1.1932e-06
4.10788e-07
5.1834e-07
4.72571e-07
4.49318e-07
4.35023e-07
4.33458e-07
4.53275e-07
0.000113107
0.00210558
7.03694e-07
6.38947e-08
2.52423e-07
1.95996e-07
1.92262e-07
1.8653e-07
1.8611e-07
1.94787e-07
4.51299e-05
0.00156991
2.92367e-07
3.18882e-08
1.17982e-07
8.35167e-08
8.75199e-08
8.33326e-08
8.22282e-08
8.69678e-08
1.07498e-05
0.000986986
2.32754e-07
2.91631e-08
6.91652e-08
3.49303e-08
4.23335e-08
3.84069e-08
3.81206e-08
4.11883e-08
4.65055e-08
0.000414872
2.92889e-08
6.38316e-08
8.17221e-09
2.42589e-08
2.05041e-08
1.99152e-08
1.92525e-08
2.16085e-08
2.4443e-08
0.00015608
6.01119e-08
2.22544e-08
3.18924e-08
9.43719e-09
1.26499e-08
1.33526e-08
1.2516e-08
1.33192e-08
1.48251e-08
1.96294e-08
2.24681e-08
3.24864e-08
1.07981e-08
1.73936e-08
6.13529e-09
8.43603e-09
8.52806e-09
8.62008e-09
1.03993e-08
1.53747e-08
2.67938e-05
6.20324e-06
6.57087e-06
6.2329e-06
5.89323e-06
5.65373e-06
5.52549e-06
5.51097e-06
2.05867e-05
0.000143244
8.19216e-06
3.1071e-06
3.08618e-06
2.89642e-06
2.73866e-06
2.62684e-06
2.56383e-06
2.55369e-06
3.70268e-06
0.000579112
2.54411e-06
1.16473e-06
1.15532e-06
1.09663e-06
1.04204e-06
1.00177e-06
9.8113e-07
9.86982e-07
7.64567e-05
0.0013346
1.13969e-06
4.21381e-07
4.96126e-07
4.61306e-07
4.37664e-07
4.19613e-07
4.11399e-07
4.1505e-07
7.88532e-05
0.00142025
6.88676e-07
8.38916e-08
2.39404e-07
1.97507e-07
1.89392e-07
1.81325e-07
1.79467e-07
1.80641e-07
5.29709e-05
0.00127951
2.73706e-07
3.94831e-08
1.14385e-07
8.41849e-08
8.55965e-08
8.29871e-08
7.995e-08
8.19605e-08
4.01272e-05
0.00101546
2.16753e-07
2.41832e-08
6.74164e-08
3.60086e-08
4.06475e-08
3.8138e-08
3.76056e-08
3.87463e-08
5.85899e-06
0.000666403
3.62406e-08
6.22147e-08
1.18406e-08
2.27231e-08
2.03276e-08
2.0088e-08
1.86507e-08
2.0088e-08
8.62112e-06
0.000499046
8.88077e-08
2.61639e-08
2.86838e-08
1.11687e-08
1.29108e-08
1.2942e-08
1.1822e-08
1.38442e-08
1.37508e-08
0.000305674
1.89894e-08
4.62561e-08
1.34034e-08
1.74244e-08
6.61616e-09
8.41279e-09
8.78352e-09
8.4413e-09
1.06087e-08
0.000402757
2.58009e-05
5.32998e-06
5.76153e-06
5.50307e-06
5.21034e-06
5.00018e-06
4.88459e-06
4.86095e-06
4.92693e-06
2.44795e-05
7.76716e-06
2.78444e-06
2.78666e-06
2.62084e-06
2.47807e-06
2.37786e-06
2.31873e-06
2.30071e-06
1.56983e-05
0.00022279
2.45504e-06
1.11564e-06
1.08325e-06
1.025e-06
9.72985e-07
9.33472e-07
9.0958e-07
9.00418e-07
3.50062e-05
0.000718371
1.06693e-06
4.11693e-07
4.60023e-07
4.34917e-07
4.14795e-07
3.97987e-07
3.87303e-07
3.82743e-07
4.15533e-05
0.00084784
6.61322e-07
9.27591e-08
2.22013e-07
1.93108e-07
1.83519e-07
1.75156e-07
1.70657e-07
1.69657e-07
3.68772e-05
0.000863253
2.65519e-07
4.27096e-08
1.10035e-07
8.41865e-08
8.32719e-08
7.98917e-08
7.77443e-08
7.73466e-08
3.51959e-05
0.000779443
2.14253e-07
2.16685e-08
6.40512e-08
3.67623e-08
3.97669e-08
3.80702e-08
3.71865e-08
3.70097e-08
1.93282e-05
0.000593989
4.21407e-08
5.86641e-08
1.44433e-08
2.16014e-08
2.02334e-08
2.01061e-08
1.89927e-08
1.96289e-08
2.61417e-05
0.000524084
1.06275e-07
2.66366e-08
2.49881e-08
1.24073e-08
1.14239e-08
1.25808e-08
1.18578e-08
1.28989e-08
9.54854e-06
0.000446848
4.76975e-08
5.46397e-08
1.33617e-08
1.68081e-08
6.1241e-09
8.61616e-09
8.03291e-09
8.35105e-09
2.60625e-05
0.000523436
2.48727e-05
4.44349e-06
4.95248e-06
4.77833e-06
4.53054e-06
4.33865e-06
4.23075e-06
4.19725e-06
4.23371e-06
1.95838e-06
7.28282e-06
2.43387e-06
2.46152e-06
2.32341e-06
2.19986e-06
2.1098e-06
2.05601e-06
2.03272e-06
1.05455e-05
7.12831e-05
2.25802e-06
1.02891e-06
9.91737e-07
9.35101e-07
8.90147e-07
8.54096e-07
8.29667e-07
8.16654e-07
1.34581e-05
0.000378082
1.00793e-06
4.08923e-07
4.27703e-07
4.04857e-07
3.85732e-07
3.69983e-07
3.59582e-07
3.53174e-07
1.6434e-05
0.000490295
6.25853e-07
9.70904e-08
1.99293e-07
1.82097e-07
1.72338e-07
1.65366e-07
1.60761e-07
1.57888e-07
1.75439e-05
0.000542648
2.54328e-07
4.21074e-08
1.01812e-07
8.14051e-08
8.00003e-08
7.62295e-08
7.47138e-08
7.27544e-08
2.01957e-05
0.000536446
2.16461e-07
2.22798e-08
6.03658e-08
3.71659e-08
3.84146e-08
3.59829e-08
3.53257e-08
3.46027e-08
1.59291e-05
0.000441512
4.5405e-08
5.35603e-08
1.74197e-08
1.91646e-08
1.99927e-08
1.92829e-08
1.81295e-08
1.86618e-08
2.56482e-05
0.000433065
1.138e-07
2.33373e-08
2.08907e-08
1.29323e-08
1.14536e-08
1.26635e-08
1.0647e-08
1.22333e-08
1.94425e-05
0.000409033
6.79362e-08
6.09244e-08
1.38509e-08
1.47382e-08
6.50649e-09
7.91131e-09
7.86201e-09
8.15776e-09
3.3136e-05
0.000468879
2.40332e-05
3.48552e-06
4.10487e-06
4.06447e-06
3.86885e-06
3.7016e-06
3.60129e-06
3.56864e-06
3.60118e-06
3.83527e-06
6.75434e-06
2.0882e-06
2.13295e-06
2.01991e-06
1.91402e-06
1.83611e-06
1.78432e-06
1.76147e-06
2.96749e-06
1.46412e-05
2.04292e-06
9.20634e-07
8.8525e-07
8.34688e-07
7.91853e-07
7.6172e-07
7.38377e-07
7.24823e-07
4.84718e-06
0.000180756
8.93241e-07
3.88787e-07
3.90506e-07
3.689e-07
3.5167e-07
3.38221e-07
3.27407e-07
3.19319e-07
5.27654e-06
0.000266935
5.89157e-07
1.06244e-07
1.78161e-07
1.68891e-07
1.59661e-07
1.52906e-07
1.48742e-07
1.44893e-07
5.79912e-06
0.000321731
2.44394e-07
3.91445e-08
9.1761e-08
7.66394e-08
7.44742e-08
7.19998e-08
6.92847e-08
6.78413e-08
7.99833e-06
0.000350008
2.21004e-07
2.44696e-08
5.47129e-08
3.5956e-08
3.58949e-08
3.47035e-08
3.37564e-08
3.30844e-08
8.84825e-06
0.000302706
4.55424e-08
4.65747e-08
2.01531e-08
1.8201e-08
1.88608e-08
1.77886e-08
1.77886e-08
1.79535e-08
1.91411e-05
0.000325745
1.14381e-07
1.89958e-08
1.63714e-08
1.3447e-08
1.10976e-08
1.17974e-08
1.09976e-08
1.14975e-08
1.82108e-05
0.000311939
8.57499e-08
6.46108e-08
1.23035e-08
1.31971e-08
6.8964e-09
7.67539e-09
7.85868e-09
7.78995e-09
3.05307e-05
0.000366762
2.39305e-05
2.46215e-06
3.20116e-06
3.33456e-06
3.22991e-06
3.08991e-06
2.99029e-06
2.94659e-06
2.96058e-06
3.13968e-06
6.12675e-06
1.75101e-06
1.8066e-06
1.72164e-06
1.63247e-06
1.56276e-06
1.51771e-06
1.49506e-06
1.48803e-06
4.59162e-07
1.81812e-06
7.95406e-07
7.71048e-07
7.27444e-07
6.92377e-07
6.6283e-07
6.41974e-07
6.28939e-07
1.54064e-06
7.97111e-05
7.63416e-07
3.53145e-07
3.46947e-07
3.27351e-07
3.12356e-07
2.99811e-07
2.89609e-07
2.83453e-07
1.56346e-06
0.000135607
5.25117e-07
1.11767e-07
1.5708e-07
1.52407e-07
1.44958e-07
1.38422e-07
1.34113e-07
1.30973e-07
1.00905e-06
0.000176917
2.31926e-07
3.94253e-08
8.12148e-08
7.08313e-08
6.81476e-08
6.54e-08
6.34511e-08
1.22853e-05
1.44062e-06
0.000214826
2.26487e-07
2.67237e-08
4.84775e-08
3.41927e-08
3.32271e-08
3.16368e-08
3.11256e-08
3.0728e-08
3.56967e-06
0.000190117
4.13834e-08
3.76489e-08
2.16743e-08
1.64858e-08
1.76871e-08
1.69458e-08
1.58468e-08
1.01734e-05
1.24049e-05
0.00022731
1.09581e-07
1.32909e-08
1.32211e-08
1.28494e-08
1.0154e-08
1.0247e-08
1.02934e-08
1.05955e-08
1.36314e-05
0.000214229
1.02099e-07
6.64756e-08
1.04154e-08
1.0884e-08
6.70933e-09
6.70933e-09
6.60283e-09
4.82614e-06
2.44108e-05
0.000264495
2.56189e-05
1.55733e-06
2.31173e-06
2.62993e-06
2.67797e-06
2.61108e-06
2.52726e-06
2.46279e-06
2.43541e-06
2.5179e-06
5.40103e-06
1.41921e-06
1.48075e-06
1.42892e-06
1.3634e-06
1.30735e-06
1.26678e-06
1.24528e-06
1.23883e-06
1.17025e-06
1.63719e-06
6.75022e-07
6.53661e-07
6.19161e-07
5.882e-07
5.64368e-07
5.46048e-07
5.33764e-07
6.83362e-08
3.16234e-05
6.50835e-07
3.07624e-07
3.03149e-07
2.84675e-07
2.7024e-07
2.59686e-07
2.51509e-07
2.44202e-07
4.34349e-07
6.42512e-05
4.38147e-07
1.13713e-07
1.36591e-07
1.32857e-07
1.27494e-07
1.22335e-07
1.17413e-07
1.14867e-07
4.07261e-07
9.10176e-05
2.08281e-07
4.0245e-08
7.0748e-08
6.33524e-08
6.09763e-08
5.85705e-08
5.63429e-08
1.76047e-05
1.34077e-06
0.000125579
2.3331e-07
2.8381e-08
4.08423e-08
3.19452e-08
2.97011e-08
2.88562e-08
2.78002e-08
2.70874e-08
8.19987e-07
0.000108964
3.25745e-08
2.6731e-08
2.12897e-08
1.51832e-08
1.53733e-08
1.5801e-08
1.51594e-08
1.90117e-05
7.38483e-06
0.000150115
1.0229e-07
8.42431e-09
9.50435e-09
1.1794e-08
9.89316e-09
9.93636e-09
9.67715e-09
9.67715e-09
8.82161e-06
0.000136391
1.16909e-07
6.56988e-08
7.40547e-09
8.1777e-09
7.00946e-09
6.55404e-09
5.94022e-09
1.01679e-05
1.79172e-05
0.000180322
2.70149e-05
8.45104e-07
1.25664e-06
1.55659e-06
1.76684e-06
1.88444e-06
1.94604e-06
1.98587e-06
2.03222e-06
2.17173e-06
4.70541e-06
1.14597e-06
1.17229e-06
1.13656e-06
1.09763e-06
1.06096e-06
1.03084e-06
1.01046e-06
9.96183e-07
9.20254e-07
1.41083e-06
5.60639e-07
5.39434e-07
5.09658e-07
4.86796e-07
4.67579e-07
4.52978e-07
4.42022e-07
4.32612e-07
1.0794e-05
5.60426e-07
2.56048e-07
2.54704e-07
2.40733e-07
2.29228e-07
2.19122e-07
2.11925e-07
2.06071e-07
2.33406e-08
2.73542e-05
3.44894e-07
1.10287e-07
1.17387e-07
1.1401e-07
1.08835e-07
1.04607e-07
1.01294e-07
9.79802e-08
5.65035e-07
4.39664e-05
1.6997e-07
4.19138e-08
6.02752e-08
5.46149e-08
5.33724e-08
5.09702e-08
4.94516e-08
1.68759e-05
2.25951e-06
7.1322e-05
2.34553e-07
2.74885e-08
3.30598e-08
2.81266e-08
2.64576e-08
2.57459e-08
2.43224e-08
2.43224e-08
2.05133e-07
5.66493e-05
1.75759e-08
1.6633e-08
2.0366e-08
1.48438e-08
1.38498e-08
1.34522e-08
9.17862e-07
2.11614e-05
4.06123e-06
9.61999e-05
9.29729e-08
4.37763e-09
7.57048e-09
1.0442e-08
8.83558e-09
8.57452e-09
8.25323e-09
8.57452e-09
4.88236e-06
7.9939e-05
1.27799e-07
6.12232e-08
2.66908e-09
5.87198e-09
6.05605e-09
5.77994e-09
5.74312e-09
1.12181e-05
1.23789e-05
0.000117764
2.92406e-05
2.47877e-06
1.98757e-06
1.4545e-06
1.20947e-06
1.12071e-06
1.0983e-06
1.09362e-06
1.07348e-06
1.04865e-06
3.79197e-06
9.938e-07
9.36765e-07
8.79243e-07
8.41408e-07
8.15021e-07
7.95256e-07
7.88685e-07
7.87632e-07
7.43357e-07
1.17078e-06
4.61516e-07
4.39996e-07
4.11001e-07
3.91103e-07
3.74634e-07
3.60732e-07
3.518e-07
3.44222e-07
3.34561e-06
4.95664e-07
2.0521e-07
2.07503e-07
1.97766e-07
1.87327e-07
1.79781e-07
1.7386e-07
1.67905e-07
1.62634e-07
8.92653e-06
2.5629e-07
1.00297e-07
9.88597e-08
9.39901e-08
9.13206e-08
8.72723e-08
8.42214e-08
8.13172e-08
3.69771e-07
1.97349e-05
1.22542e-07
4.1326e-08
5.1773e-08
4.63827e-08
4.47656e-08
4.31741e-08
1.21865e-06
1.43134e-05
2.36205e-06
3.98218e-05
2.26249e-07
2.36605e-08
2.61931e-08
2.40484e-08
2.26566e-08
2.17896e-08
2.13789e-08
2.05118e-08
2.46028e-07
2.53846e-05
2.01817e-10
7.08446e-09
1.69206e-08
1.29163e-08
1.19306e-08
1.16021e-08
1.64403e-05
2.02936e-05
1.98736e-06
6.09765e-05
8.4048e-08
1.5681e-09
5.93638e-09
8.2512e-09
7.95251e-09
7.39248e-09
6.92578e-09
7.2618e-09
2.07553e-06
4.1573e-05
1.31632e-07
5.34586e-08
9.58284e-10
4.67163e-09
5.28767e-09
5.08233e-09
5.11655e-09
1.01535e-05
8.17772e-06
7.4343e-05
1.01393e-06
4.99213e-06
4.44831e-06
3.61751e-06
3.07076e-06
2.73664e-06
2.5565e-06
2.50187e-06
2.54037e-06
2.68444e-06
2.20133e-06
9.43892e-07
8.15538e-07
7.37174e-07
7.03481e-07
6.77924e-07
6.59574e-07
6.40318e-07
6.17171e-07
5.27636e-07
8.87028e-07
3.63927e-07
3.4457e-07
3.23132e-07
3.08796e-07
2.96368e-07
2.87415e-07
2.80257e-07
3.494e-07
2.21568e-06
4.33939e-07
1.59606e-07
1.63011e-07
1.55884e-07
1.48725e-07
1.42203e-07
1.37812e-07
1.33008e-07
1.29142e-07
6.96851e-08
1.87133e-07
8.43494e-08
7.99315e-08
7.68771e-08
7.30046e-08
7.09593e-08
6.73868e-08
6.55596e-08
1.83289e-07
8.27087e-06
7.48812e-08
3.82749e-08
4.33814e-08
3.84658e-08
3.6366e-08
3.48865e-08
8.9025e-06
1.17135e-05
2.16881e-06
2.21835e-05
2.0665e-07
1.81777e-08
1.92382e-08
2.05109e-08
1.82837e-08
1.82201e-08
1.67353e-08
1.65869e-08
1.59293e-08
8.04313e-06
2.93863e-06
1.43173e-09
1.35919e-08
1.09384e-08
9.98394e-09
1.57329e-05
2.42296e-05
1.84391e-05
7.42209e-07
3.89699e-05
7.65973e-08
2.77669e-10
5.0154e-09
6.95908e-09
6.99379e-09
6.33432e-09
6.4558e-09
6.0393e-09
2.8921e-07
1.69362e-05
1.24733e-07
4.20133e-08
4.15202e-09
3.40434e-09
4.39064e-09
4.00885e-09
1.96748e-06
8.33067e-06
5.23051e-06
4.57191e-05
6.55798e-05
2.96035e-06
3.83931e-06
4.09913e-06
4.08646e-06
4.07822e-06
4.06593e-06
3.96801e-06
3.73567e-06
3.3414e-06
2.37942e-06
1.14334e-06
7.68645e-07
5.60324e-07
4.60499e-07
4.03489e-07
3.782e-07
3.82016e-07
4.07726e-07
4.08203e-07
5.83655e-05
6.83938e-06
9.42352e-06
7.13617e-06
5.85846e-06
4.91017e-06
3.73482e-06
1.5013e-06
1.74029e-06
3.96618e-06
3.71101e-07
1.20883e-07
1.24181e-07
1.20454e-07
1.15397e-07
1.09511e-07
1.04187e-07
1.01052e-07
9.60234e-08
8.16561e-08
1.36671e-07
6.75128e-08
6.34311e-08
5.88677e-08
5.75494e-08
5.41775e-08
5.2986e-08
5.03494e-08
1.1444e-07
3.56351e-06
9.73625e-06
3.17662e-08
3.53821e-08
3.04574e-08
2.88381e-08
7.38709e-06
1.19336e-05
9.61583e-06
1.92589e-06
1.25918e-05
1.76304e-07
1.28761e-08
1.47493e-08
1.51042e-08
1.5538e-08
1.41183e-08
1.45127e-08
1.30733e-08
1.29944e-08
1.23194e-08
5.02641e-05
4.56748e-05
4.11038e-05
3.65129e-05
3.47339e-05
3.23347e-05
2.7583e-05
1.65889e-05
2.07634e-09
2.57246e-05
6.83562e-08
2.90397e-10
4.32369e-09
5.61435e-09
5.27555e-09
4.93675e-09
4.96902e-09
5.13035e-09
5.00129e-09
2.04152e-06
1.05132e-07
2.82317e-08
6.09297e-09
2.82465e-09
3.17958e-09
3.4162e-09
5.08803e-06
6.38476e-06
3.25505e-06
2.74722e-05
0.000125775
2.26887e-05
2.15875e-05
2.00507e-05
1.94263e-05
1.8539e-05
1.69346e-05
1.46636e-05
1.19031e-05
8.74926e-06
4.32232e-06
3.35255e-07
2.11357e-07
2.4691e-07
3.35297e-07
3.7485e-07
3.67385e-07
3.50268e-07
3.7254e-07
4.4455e-07
0.00020071
0.000127933
6.97691e-05
3.98189e-05
2.24289e-05
1.26159e-05
6.49364e-06
1.5529e-06
3.79285e-06
7.08583e-06
3.00572e-07
8.58572e-08
8.71632e-08
8.5266e-08
8.37949e-08
8.19527e-08
7.94918e-08
7.69346e-08
7.36626e-08
6.21142e-08
1.01991e-07
5.0766e-08
4.69244e-08
4.44497e-08
4.19986e-08
4.09616e-08
3.89583e-08
1.70917e-07
1.53005e-07
2.10655e-06
3.93353e-05
3.00201e-05
1.96723e-05
1.57444e-05
1.50382e-05
1.43076e-05
1.23495e-05
7.94762e-06
1.71385e-06
7.40106e-06
1.39396e-07
6.61744e-09
9.75202e-09
1.21534e-08
1.16218e-08
1.08519e-08
1.02653e-08
1.01553e-08
9.93533e-09
8.7979e-09
0.000219215
4.34932e-05
7.99394e-05
7.0134e-05
5.46533e-05
4.07551e-05
2.86893e-05
1.51881e-05
4.7964e-07
1.80462e-05
6.21383e-08
1.79976e-09
3.62951e-09
3.83948e-09
4.25943e-09
4.18444e-09
3.95947e-09
3.62951e-09
3.50953e-09
3.61432e-09
7.65719e-08
1.53017e-08
5.73298e-09
2.85961e-09
2.70838e-09
2.88711e-09
5.26946e-06
4.37998e-06
1.9072e-06
1.57214e-05
0.000511832
4.57615e-05
5.9292e-05
6.26543e-05
5.75283e-05
4.80709e-05
3.73051e-05
2.67369e-05
1.67748e-05
7.14821e-06
1.01736e-05
3.94548e-06
2.29423e-06
1.42501e-06
1.12418e-06
9.8718e-07
7.89602e-07
4.27133e-07
2.06358e-07
1.18544e-06
0.000340568
0.000241667
0.000117354
6.11148e-05
3.07568e-05
1.49674e-05
6.15158e-06
1.73154e-08
6.72185e-06
1.12577e-05
2.15648e-07
6.43384e-08
6.04913e-08
5.56219e-08
5.41649e-08
5.28996e-08
5.34108e-08
5.45355e-08
5.30785e-08
4.28987e-08
1.8354e-05
3.49682e-08
3.32154e-08
2.08648e-07
1.59578e-06
2.41683e-06
2.46861e-06
1.63345e-06
2.34545e-07
1.84725e-06
3.97869e-05
4.50286e-05
3.52108e-05
2.6316e-05
1.99989e-05
1.51546e-05
1.09259e-05
6.34107e-06
1.49357e-06
4.40719e-06
9.91676e-08
8.86133e-10
6.25405e-09
8.16265e-09
8.19673e-09
7.85591e-09
7.49805e-09
7.19131e-09
6.98682e-09
6.5163e-09
0.000486726
1.65079e-05
8.40257e-05
8.30548e-05
6.35299e-05
4.44322e-05
2.87659e-05
1.43152e-05
8.40954e-07
1.37378e-05
5.84552e-08
3.93183e-09
2.81642e-09
3.52749e-09
2.7467e-09
3.08133e-09
2.85824e-09
2.83036e-09
2.66305e-09
3.19039e-09
4.37767e-08
5.18899e-09
4.76722e-09
2.81177e-09
1.81487e-09
3.63101e-08
2.91253e-06
2.18065e-06
9.12125e-07
7.57587e-06
0.00132494
0.000239319
0.00021787
0.000160809
0.000110667
7.23136e-05
4.39835e-05
2.27159e-05
5.56815e-06
1.00022e-05
3.9974e-05
3.64458e-06
4.33597e-06
4.65576e-06
4.12687e-06
2.95684e-06
1.36958e-06
5.82749e-07
3.00574e-06
5.89192e-06
0.000487884
0.000365465
0.000159354
7.49067e-05
3.29691e-05
1.30736e-05
3.16094e-06
3.20049e-06
1.06877e-05
1.66361e-05
1.5833e-07
5.38586e-08
4.6005e-08
3.67968e-08
3.00007e-08
2.41075e-08
2.07331e-08
1.73469e-08
1.87727e-08
2.70961e-08
5.89491e-05
3.5368e-05
2.04372e-05
1.31793e-05
8.94007e-06
6.15845e-06
4.03146e-06
2.09583e-06
2.76987e-07
1.63149e-06
2.92108e-05
3.71501e-05
3.07073e-05
2.28658e-05
1.6597e-05
1.1779e-05
7.92531e-06
4.42318e-06
1.15999e-06
2.4084e-06
5.86444e-08
3.18423e-09
4.911e-09
5.7031e-09
5.06942e-09
5.29121e-09
4.7209e-09
4.76842e-09
4.4199e-09
4.0865e-09
0.000834379
0.000119404
6.16377e-05
7.96e-05
6.31621e-05
4.36564e-05
2.73293e-05
1.33501e-05
1.13282e-06
1.09738e-05
5.58827e-08
4.48471e-09
1.4517e-09
1.69797e-09
2.4627e-09
1.59427e-09
2.15162e-09
1.89239e-09
2.06089e-09
1.30213e-09
1.23594e-08
2.28124e-09
1.48518e-09
1.68717e-09
1.46142e-09
1.62776e-09
9.38634e-10
2.61202e-07
2.44152e-07
2.14906e-06
0.0064169
0.00013067
9.82909e-05
5.36925e-05
2.31861e-05
4.64221e-06
6.73035e-06
1.46675e-05
2.17897e-05
2.96837e-05
3.70712e-05
2.93722e-05
2.19081e-05
1.50166e-05
9.09373e-06
4.22093e-06
8.0637e-08
3.80545e-06
7.98078e-06
1.24007e-05
0.000554016
0.000460015
0.000178553
7.50403e-05
2.80302e-05
8.04133e-06
4.6958e-07
5.25541e-06
1.15421e-05
1.79763e-05
6.41296e-08
3.95868e-08
3.66266e-08
2.93698e-08
1.94731e-08
9.77519e-09
3.46826e-09
1.51101e-08
2.91268e-08
5.72574e-08
5.06018e-05
3.42709e-05
1.93674e-05
1.20502e-05
7.7358e-06
4.98886e-06
3.06132e-06
1.53449e-06
2.25781e-07
1.05126e-06
1.65331e-05
1.99944e-05
1.6966e-05
1.26787e-05
9.08571e-06
6.2999e-06
4.12485e-06
2.28741e-06
6.74621e-07
1.00221e-06
2.44181e-08
4.55071e-09
3.53453e-09
3.63762e-09
2.94544e-09
3.49035e-09
3.16635e-09
2.73926e-09
2.59199e-09
2.315e-09
0.0010678
0.000215523
2.05514e-05
5.77097e-05
4.97712e-05
3.4948e-05
2.174e-05
1.0675e-05
1.18711e-06
7.87615e-06
4.58497e-08
1.72308e-09
1.16881e-09
1.83153e-09
9.51914e-10
1.45799e-09
9.39864e-10
1.02421e-09
1.22905e-09
1.21678e-09
1.24333e-06
7.88875e-07
1.215e-10
7.51088e-10
8.28406e-10
4.95553e-07
8.04868e-07
3.80879e-07
2.01247e-07
1.24653e-06
0.00409523
0.000558231
0.000370705
0.000249712
0.000175266
0.000120364
7.57249e-05
3.87347e-05
2.59893e-06
3.7273e-05
2.87735e-05
1.76047e-05
8.5261e-06
1.96389e-06
1.83308e-06
3.99862e-06
5.43703e-06
6.70754e-06
8.10305e-06
8.98458e-06
0.000287239
0.00037216
0.000124683
4.60025e-05
1.31531e-05
6.10042e-07
4.026e-06
6.48829e-06
1.02356e-05
1.49195e-05
4.28743e-08
3.75816e-09
1.82055e-08
3.22216e-08
4.46667e-08
5.38876e-08
6.29441e-08
7.03886e-08
7.31199e-08
7.28699e-08
2.06629e-05
1.52872e-05
8.3816e-06
5.05955e-06
3.14366e-06
1.96159e-06
1.17256e-06
5.84355e-07
9.75186e-08
3.87556e-07
6.23772e-06
5.83748e-06
4.94909e-06
3.69591e-06
2.63124e-06
1.80264e-06
1.16574e-06
6.49901e-07
2.16202e-07
2.32816e-07
5.16606e-09
2.99832e-09
2.25901e-09
1.24588e-09
1.506e-09
1.60184e-09
1.34171e-09
1.27326e-09
1.15004e-09
9.50852e-10
0.000713987
0.000178242
8.17035e-06
2.39392e-05
2.35953e-05
1.71062e-05
1.07171e-05
5.33391e-06
7.30526e-07
3.63062e-06
1.91111e-08
9.9695e-10
5.71286e-10
7.95319e-10
7.95319e-10
6.60899e-10
7.16908e-10
4.92874e-10
3.92059e-10
4.41318e-10
9.12457e-05
0.000129194
8.54056e-05
5.05419e-05
2.88946e-05
1.62728e-05
8.71124e-06
3.49914e-06
8.2809e-07
5.54289e-06
0.00831224
0.000674005
0.000506721
0.000384584
0.000290398
0.000216054
0.000156308
0.000107579
6.658e-05
3.34084e-05
1.86889e-05
3.97747e-05
2.765e-05
1.83061e-05
1.19208e-05
7.64104e-06
4.65196e-06
2.29904e-06
3.5109e-08
3.01086e-06
9.71778e-05
8.34385e-05
1.96504e-05
5.51888e-06
2.59463e-07
1.27333e-06
1.60708e-06
1.79101e-06
2.39736e-06
3.65951e-06
2.82299e-08
3.21212e-08
1.73541e-08
5.7465e-09
4.00919e-09
1.32303e-08
2.21842e-08
3.17012e-08
3.75814e-08
4.72989e-08
1.69823e-06
1.78741e-06
9.39443e-07
5.50175e-07
3.31012e-07
2.00901e-07
1.17199e-07
5.88287e-08
1.0113e-08
4.54593e-08
7.95487e-07
4.52824e-07
3.69891e-07
2.72668e-07
1.89978e-07
1.27893e-07
8.11288e-08
4.56475e-08
1.76261e-08
1.47624e-08
1.1021e-09
1.01821e-09
7.25472e-10
7.00017e-10
8.52748e-10
3.94555e-10
2.80007e-10
4.07283e-10
1.52731e-10
3.05462e-10
5.29918e-05
2.82576e-05
2.4551e-06
2.70833e-06
2.9933e-06
2.23133e-06
1.41087e-06
7.10394e-07
1.11455e-07
4.7234e-07
8.54588e-10
2.49923e-10
3.12404e-11
1.87443e-10
2.3951e-10
5.10261e-10
4.16539e-11
1.77029e-10
8.33078e-11
2.29097e-10
0.000264519
0.000160045
9.49211e-05
5.42169e-05
3.05212e-05
1.69673e-05
8.92217e-06
3.59197e-06
7.62204e-07
5.34878e-06
0.525999
0.418958
0.530143
0.919607
0.686115
0.623857
0.739191
1.11565
0.849565
0.791477
0.937829
1.44121
0.616636
0.59318
0.702746
1.09974
0.450495
0.449059
0.533215
0.863276
0.298409
0.294921
0.365819
0.622504
0.198634
0.189612
0.253265
0.455002
0.128204
0.11823
0.169405
0.315539
0.0885326
0.0808768
0.122101
0.230974
0.0666953
0.0615639
0.099354
0.18805
0.0358328
0.00179584
1.61025e-05
0.0190168
0.0785121
0.00652073
1.1973e-05
0.0409458
0.136613
0.0152015
6.44593e-06
0.0704179
0.12498
0.0170203
3.31998e-06
0.0603774
0.110286
0.0169898
1.70729e-06
0.0489175
0.0853346
0.0142365
8.73993e-07
0.0375738
0.0644159
0.0110623
4.64379e-07
0.0305237
0.0464387
0.00833703
2.65759e-07
0.0231943
0.0357238
0.00714213
0.00104048
0.0184312
0.0301004
0.0082444
0.00382093
0.015501
0.0171085
0.0134515
0.0141294
0.0196824
0.0387152
0.0266642
0.0261757
0.0408102
0.0749425
0.0486867
0.0492558
0.0796676
0.0710507
0.043072
0.0446852
0.0749941
0.0650953
0.037061
0.0395665
0.0699564
0.0519867
0.0280388
0.030678
0.0566906
0.0404127
0.0206545
0.0232326
0.0452023
0.0299329
0.0145384
0.016689
0.0336753
0.0234812
0.0104545
0.0123933
0.025986
0.0200748
0.00850488
0.0105693
0.0215272
0.00192398
0.00139014
0.00133884
0.00195078
0.00609446
0.00417418
0.00386318
0.00631506
0.0162347
0.0110083
0.0104769
0.016594
0.0190435
0.0125545
0.0123941
0.0189691
0.0207144
0.0131688
0.0136024
0.0207292
0.018949
0.0116299
0.012446
0.0190383
0.0164217
0.00967187
0.0106892
0.0167371
0.0133856
0.00760372
0.00860485
0.0136686
0.0111884
0.00583593
0.00691413
0.0112357
0.00994012
0.00508159
0.00648137
0.0100753
0.000610941
0.000570759
0.00060059
0.000818331
0.00226726
0.00210385
0.00236514
0.00340763
0.00609209
0.00574205
0.00640298
0.00889214
0.0072927
0.00654775
0.00705814
0.00959959
0.00837936
0.00713407
0.00763204
0.0103482
0.0081356
0.00655893
0.00704034
0.00951426
0.00745526
0.00568241
0.00617889
0.00841242
0.00648656
0.00469283
0.00517414
0.00704962
0.0058349
0.00387382
0.00445876
0.00604608
0.00558688
0.00369052
0.00456154
0.00582647
0.000112236
0.00010494
0.000104839
0.000164187
0.000766428
0.000721841
0.000845863
0.00123461
0.00245418
0.0024884
0.00298601
0.00410871
0.00301918
0.00305283
0.00354265
0.0047173
0.00358381
0.00354997
0.00403774
0.00531267
0.00361422
0.00344889
0.00386829
0.00503551
0.00342457
0.00313017
0.00349262
0.00451888
0.00315356
0.00273734
0.00304611
0.00389811
0.00305438
0.00244023
0.00279345
0.00347054
0.00302848
0.00238175
0.0028928
0.00336862
9.97126e-06
9.81913e-06
5.2203e-06
2.40269e-05
0.000270702
0.00025156
0.000300997
0.000459867
0.00117326
0.00119786
0.00148019
0.00206818
0.00149171
0.00157095
0.00189601
0.00252743
0.00179902
0.00191336
0.00227561
0.00297659
0.0018428
0.00193164
0.00226033
0.00291514
0.00174874
0.00179565
0.00207853
0.00264655
0.00166971
0.00164262
0.0018739
0.00235154
0.00169584
0.00155559
0.00178885
0.00213891
0.00169413
0.00153247
0.0018297
0.00205674
1.3446e-05
4.85331e-06
4.65143e-06
4.80104e-06
7.4889e-05
6.312e-05
7.53599e-05
0.000129255
0.000536141
0.000529033
0.000659682
0.00094708
0.000755176
0.000795434
0.000972213
0.00130428
0.000954716
0.00103522
0.00125496
0.00164666
0.00102079
0.0011078
0.00132601
0.00171292
0.000971332
0.00105436
0.00125076
0.00158565
0.000959477
0.00101061
0.00117662
0.00146874
0.000961813
0.000966107
0.0011138
0.0013113
0.000976074
0.000979316
0.00115423
0.00128489
1.09277e-05
3.83307e-06
3.69834e-06
3.82918e-06
1.16391e-05
5.99499e-06
5.84058e-06
1.99621e-05
0.000232568
0.000210047
0.000261836
0.00040083
0.000376873
0.000390858
0.000479374
0.000649222
0.00050346
0.000548146
0.000670028
0.000883493
0.000577583
0.00063509
0.000767679
0.000995714
0.00055415
0.000618802
0.000742737
0.000939221
0.000574604
0.000627524
0.000738702
0.000921612
0.000548104
0.00058394
0.000672889
0.000789261
0.000579474
0.000624091
0.000727924
0.000809872
8.26199e-06
2.73466e-06
2.62106e-06
2.73941e-06
2.59517e-06
1.0253e-06
9.99413e-07
1.10357e-06
8.75416e-05
6.04667e-05
7.35824e-05
0.000138244
0.000181511
0.000181889
0.000222559
0.00030576
0.000256172
0.000276673
0.000339726
0.00045176
0.000321488
0.000353866
0.000429868
0.000561556
0.000307214
0.00034912
0.000421525
0.000531409
0.000343621
0.000382266
0.000452665
0.000566672
0.000313623
0.00034625
0.000398775
0.000468305
0.000350018
0.000393675
0.000455677
0.000507898
7.73706e-06
2.60427e-06
2.48247e-06
2.56838e-06
2.13711e-06
7.36425e-07
7.25224e-07
8.02336e-07
2.21239e-05
3.21718e-07
3.08508e-07
2.1707e-05
8.31898e-05
7.85168e-05
9.50969e-05
0.000133305
0.000125163
0.000132393
0.000163063
0.000220066
0.000176872
0.000192974
0.000235208
0.000310956
0.000163241
0.000187847
0.000227755
0.000285672
0.000204619
0.000228848
0.000272212
0.000343513
0.000177278
0.000199543
0.000229792
0.000270369
0.000212083
0.000244321
0.000281748
0.000314338
2.00469e-06
5.90231e-07
6.80814e-07
7.88486e-07
1.60768e-06
5.52262e-07
5.41944e-07
6.07651e-07
6.30267e-07
2.32641e-07
2.2664e-07
2.55935e-07
3.47529e-05
2.94629e-05
3.46804e-05
4.97671e-05
5.73639e-05
5.83461e-05
7.19931e-05
9.96744e-05
9.61981e-05
0.000103129
0.000125993
0.000169581
8.11884e-05
9.47282e-05
0.000115275
0.000142936
0.000121865
0.000135521
0.000161898
0.000207156
9.56215e-05
0.000108656
0.000125094
0.000147194
0.000127261
0.00014834
0.000171171
0.000190673
1.10546e-05
2.95945e-06
2.522e-06
2.26307e-06
1.26403e-06
4.2965e-07
4.31886e-07
5.06274e-07
4.70133e-07
1.68135e-07