/*--------------------------------*- C++ -*----------------------------------*\
| =========                 |                                                 |
| \\      /  F ield         | foam-extend: Open Source CFD                    |
|  \\    /   O peration     | Version:     4.0                                |
|   \\  /    A nd           | Web:         http://www.foam-extend.org         |
|    \\/     M anipulation  |                                                 |
\*---------------------------------------------------------------------------*/
FoamFile
{
    version     2.0;
    format      ascii;
    class       volScalarField;
    location    "2800";
    object      divFlux;
}
// * * * * * * * * * * * * * * * * * * * * * * * * * * * * * * * * * * * * * //

dimensions      [1 -3 -1 0 0 0 0];

internalField   nonuniform List<scalar> 
34480
(
0.0618379
0.0197206
0.0201627
0.0186184
0.0169107
0.0152823
0.0137615
0.0123839
0.0111952
0.0101933
0.0157449
0.00796282
0.00802395
0.00776463
0.00752066
0.00722364
0.00681545
0.00631878
0.00579678
0.00530225
0.0035917
0.00236735
0.00241819
0.00245903
0.00253486
0.00259757
0.00258524
0.00248
0.00231028
0.00211295
0.000959549
0.00072077
0.000741692
0.000768317
0.000810328
0.000853634
0.000872858
0.000853452
0.000799759
0.000724563
0.000241126
0.000199726
0.000209506
0.000221481
0.000237811
0.000254983
0.000264624
0.000260507
0.000242171
0.000213636
3.65488e-05
3.62209e-05
4.20078e-05
4.79662e-05
5.42417e-05
5.99434e-05
6.27526e-05
6.0896e-05
5.39959e-05
4.42512e-05
1.92981e-05
1.2266e-05
8.24489e-06
4.7444e-06
2.14941e-06
6.51434e-07
5.60222e-07
1.94104e-06
4.67244e-06
7.97838e-06
3.35895e-05
2.57957e-05
2.23816e-05
1.97324e-05
1.82832e-05
1.80263e-05
1.866e-05
1.97607e-05
2.09272e-05
2.21207e-05
4.34701e-05
3.44197e-05
3.02499e-05
2.69011e-05
2.47175e-05
2.36719e-05
2.3495e-05
2.38845e-05
2.43563e-05
2.49556e-05
4.52515e-05
3.65936e-05
3.24128e-05
2.889e-05
2.62091e-05
2.44098e-05
2.35099e-05
2.3437e-05
2.3824e-05
2.46325e-05
0.0799868
0.0228377
0.0233067
0.0218008
0.0201149
0.0186226
0.0173588
0.0163746
0.0157651
0.0166324
0.0221764
0.0102108
0.0103044
0.00999724
0.00968726
0.00943866
0.00921782
0.0089966
0.00880471
0.00941081
0.00544031
0.00334326
0.00342117
0.00348046
0.00358861
0.00369973
0.00378402
0.00381445
0.00378364
0.00404568
0.00158786
0.00113046
0.0011614
0.00119808
0.00126202
0.00133121
0.00138772
0.00141594
0.00140344
0.0014811
0.000428127
0.000341177
0.000355725
0.000373228
0.00039778
0.000425174
0.000446462
0.000454955
0.000443601
0.000453613
6.09539e-05
6.1594e-05
7.15166e-05
8.11487e-05
9.02273e-05
9.8194e-05
0.000102347
0.00010052
9.07768e-05
8.21856e-05
5.25402e-05
3.34681e-05
2.52997e-05
1.87421e-05
1.5189e-05
1.46971e-05
1.70753e-05
2.2514e-05
2.99506e-05
4.08597e-05
8.98841e-05
6.72249e-05
5.91364e-05
5.32539e-05
5.10647e-05
5.26631e-05
5.68675e-05
6.31141e-05
6.86775e-05
7.83187e-05
0.000127503
9.88528e-05
8.73518e-05
7.8316e-05
7.28371e-05
7.13187e-05
7.30678e-05
7.76439e-05
8.16091e-05
9.02134e-05
0.000142312
0.000112403
0.000100281
9.00969e-05
8.27509e-05
7.89274e-05
7.84256e-05
8.1022e-05
8.44306e-05
9.35231e-05
0.0805374
0.019682
0.0204628
0.0193921
0.0182136
0.0172284
0.0164915
0.0160696
0.0161435
0.022776
0.0215795
0.00842434
0.00859438
0.00828047
0.00800525
0.00787072
0.00785964
0.0079581
0.00824552
0.0067184
0.00499305
0.00263061
0.00268461
0.0026848
0.00271843
0.00280336
0.0029388
0.0031041
0.00331294
0.00044705
0.00138795
0.000856849
0.000873359
0.000883075
0.000909425
0.000951797
0.00101482
0.00109036
0.00117642
0.00136564
0.00036262
0.000253459
0.000261139
0.000267439
0.000278695
0.000294259
0.000315574
0.000340306
0.000365093
0.000416105
5.81128e-05
5.00031e-05
5.58886e-05
6.10828e-05
6.61864e-05
7.12591e-05
7.63016e-05
8.03761e-05
8.1223e-05
8.19117e-05
2.86213e-05
1.49508e-05
9.79304e-06
5.20474e-06
2.18591e-06
7.94529e-07
1.3032e-06
4.40327e-06
1.1327e-05
2.5822e-05
5.21562e-05
3.4929e-05
3.00162e-05
2.56652e-05
2.31353e-05
2.27174e-05
2.47315e-05
2.98792e-05
3.88143e-05
5.69923e-05
6.68501e-05
4.66769e-05
4.12786e-05
3.64364e-05
3.31977e-05
3.19446e-05
3.31394e-05
3.76833e-05
4.65426e-05
6.65558e-05
6.37591e-05
4.47141e-05
4.01634e-05
3.60817e-05
3.33593e-05
3.22279e-05
3.28636e-05
3.62161e-05
4.4491e-05
6.77201e-05
0.081391
0.0178618
0.0187579
0.0180056
0.0171268
0.0164058
0.0159018
0.0143814
0.00558331
0.0116389
0.0222155
0.00796264
0.00814746
0.00783071
0.00753208
0.00735089
0.00730324
0.00739821
0.0065939
0.005408
0.005178
0.00254554
0.00259356
0.00256379
0.00255666
0.0025975
0.00269411
0.00284458
0.00305001
0.00160914
0.00145988
0.000851737
0.000866434
0.000867397
0.000878226
0.000904332
0.000951517
0.00101917
0.00110545
0.000231424
0.000387987
0.000258868
0.000266211
0.000270307
0.000277715
0.00028834
0.000304935
0.0003273
0.000353527
0.000449232
6.52024e-05
5.33401e-05
5.92396e-05
6.40636e-05
6.85295e-05
7.26972e-05
7.69469e-05
8.09178e-05
8.31544e-05
0.000199081
2.80224e-05
1.39912e-05
8.76433e-06
4.11846e-06
9.43852e-07
7.16716e-07
5.49203e-07
2.0747e-06
8.14779e-06
1.96969e-05
5.33107e-05
3.51061e-05
3.01938e-05
2.57612e-05
2.29837e-05
2.20707e-05
2.35496e-05
2.82267e-05
3.68479e-05
5.21441e-05
6.72544e-05
4.65795e-05
4.14739e-05
3.68318e-05
3.3653e-05
3.22081e-05
3.31384e-05
3.74653e-05
4.64035e-05
6.40968e-05
6.34236e-05
4.43073e-05
4.00431e-05
3.62359e-05
3.37371e-05
3.26936e-05
3.34813e-05
3.70759e-05
4.55897e-05
6.66317e-05
0.080461
0.0158738
0.0168468
0.016341
0.0156718
0.0151083
0.0128045
0.00915616
0.00452062
0.00382512
0.0223694
0.00736134
0.00758009
0.00730362
0.00701421
0.00679968
0.00668011
0.00667003
0.0041974
0.00232001
0.00530838
0.00242688
0.00247413
0.00242586
0.00238963
0.00238852
0.0024297
0.00251775
0.00254131
0.000477468
0.0015215
0.000835079
0.000849585
0.000843479
0.000842753
0.000853251
0.000879373
0.000923124
0.000982665
0.000481363
0.000410751
0.000260535
0.000267923
0.000270637
0.000274459
0.000280548
0.000290851
0.000306085
0.000325305
0.000568211
7.1444e-05
5.57066e-05
6.1695e-05
6.6206e-05
7.00744e-05
7.33327e-05
7.64158e-05
7.92996e-05
8.12744e-05
0.00042445
2.76731e-05
1.30077e-05
7.79189e-06
3.19024e-06
4.22862e-08
1.88522e-06
2.09209e-06
2.36686e-07
4.30149e-06
0.000228277
5.43964e-05
3.48516e-05
3.00747e-05
2.5731e-05
2.28522e-05
2.15678e-05
2.23533e-05
2.58792e-05
3.27813e-05
0.000106955
6.7381e-05
4.57646e-05
4.1019e-05
3.66833e-05
3.36789e-05
3.21714e-05
3.27327e-05
3.62533e-05
4.38297e-05
1.4796e-05
6.29685e-05
4.32175e-05
3.92626e-05
3.57431e-05
3.3435e-05
3.24642e-05
3.32659e-05
3.66879e-05
4.43369e-05
6.21407e-05
0.0778382
0.0137976
0.014786
0.0144608
0.0137993
0.0121865
0.0103018
0.00840151
0.0061715
0.00252255
0.0219302
0.00663132
0.00687894
0.00665899
0.00640721
0.00619991
0.0060513
0.00555641
0.00376998
0.000333257
0.00536793
0.00227458
0.00232362
0.00226638
0.00221278
0.00218258
0.00218043
0.0022097
0.002153
0.000495142
0.00156771
0.000806757
0.000821576
0.00081033
0.000801108
0.000799373
0.000807946
0.0008284
0.000888634
0.000700694
0.000429878
0.000258405
0.0002661
0.000267323
0.000268437
0.000270805
0.000275722
0.000283842
0.000294265
0.000590863
7.70959e-05
5.72537e-05
6.3303e-05
6.75308e-05
7.07848e-05
7.32605e-05
7.5305e-05
7.70155e-05
7.80242e-05
0.000445183
2.71127e-05
1.18624e-05
6.72216e-06
2.22707e-06
1.0032e-06
2.95959e-06
3.48592e-06
2.36151e-06
6.94831e-07
0.000287721
5.50539e-05
3.41259e-05
2.95527e-05
2.53654e-05
2.24512e-05
2.08997e-05
2.10772e-05
2.34236e-05
2.8311e-05
0.000206801
6.70862e-05
4.4416e-05
4.00343e-05
3.60056e-05
3.31796e-05
3.16703e-05
3.19346e-05
3.46033e-05
4.04356e-05
0.000126706
6.22858e-05
4.16889e-05
3.80402e-05
3.47858e-05
3.26308e-05
3.17007e-05
3.24138e-05
3.54268e-05
4.18122e-05
9.28553e-05
0.0733757
0.0113146
0.0121827
0.011738
0.0108448
0.00997806
0.00890314
0.00796411
0.00678468
0.00515023
0.0209346
0.00582004
0.00608145
0.00591601
0.00570968
0.0055312
0.00537271
0.0048719
0.0037636
0.00190883
0.00533203
0.00209042
0.00214379
0.00208732
0.00202853
0.00198438
0.00195781
0.00195047
0.00190356
0.000941724
0.00159091
0.000765861
0.000781858
0.000768307
0.000754415
0.000745056
0.000741948
0.000745909
0.000875732
0.000747016
0.000443304
0.000251967
0.000260024
0.000260301
0.000259667
0.000259467
0.000260553
0.000263335
0.000266728
0.000537311
8.19791e-05
5.7882e-05
6.39408e-05
6.78724e-05
7.06465e-05
7.25358e-05
7.38036e-05
7.45776e-05
7.45945e-05
0.000392963
2.60488e-05
1.04665e-05
5.47909e-06
1.15017e-06
2.02483e-06
4.03094e-06
4.79234e-06
4.23513e-06
2.28371e-06
0.000258667
5.4962e-05
3.28247e-05
2.85044e-05
2.45213e-05
2.16388e-05
1.99274e-05
1.96491e-05
2.10426e-05
2.42431e-05
0.00020023
6.61393e-05
4.25061e-05
3.84801e-05
3.4745e-05
3.2085e-05
3.06051e-05
3.065e-05
3.2614e-05
3.69152e-05
0.000141399
6.11764e-05
3.97174e-05
3.63681e-05
3.33581e-05
3.1327e-05
3.04102e-05
3.09624e-05
3.34556e-05
3.85475e-05
0.000115931
0.0673602
0.00861591
0.00954561
0.00944592
0.00893088
0.00846484
0.00781752
0.00736544
0.00665254
0.00595331
0.0195141
0.00498708
0.00524632
0.00512527
0.00495901
0.0048108
0.00465271
0.00431407
0.00367626
0.00269182
0.00517039
0.0018767
0.00193445
0.00188557
0.00183084
0.00178545
0.00175153
0.00176634
0.00170006
0.00112639
0.0015809
0.000711296
0.000728964
0.000715805
0.000700972
0.000688794
0.000680302
0.000675859
0.000805572
0.000706685
0.000448477
0.000240652
0.00024909
0.000249032
0.000247665
0.000246215
0.000245222
0.000244908
0.000285648
0.000455016
8.56954e-05
5.74178e-05
6.33865e-05
6.70474e-05
6.95079e-05
7.10439e-05
7.18514e-05
7.20435e-05
7.57605e-05
0.000321184
2.43237e-05
8.80896e-06
4.06284e-06
3.9376e-08
3.09389e-06
5.08897e-06
6.00291e-06
5.84031e-06
4.61674e-06
0.000205885
5.38868e-05
3.08913e-05
2.68711e-05
2.31432e-05
2.03554e-05
1.85947e-05
1.80194e-05
1.87346e-05
2.07285e-05
0.000163364
6.43486e-05
3.99998e-05
3.63256e-05
3.2874e-05
3.0376e-05
2.89396e-05
2.88132e-05
3.02268e-05
3.33718e-05
0.000112023
5.94611e-05
3.72706e-05
3.42189e-05
3.14386e-05
2.95197e-05
2.85978e-05
2.89536e-05
3.09011e-05
3.48304e-05
9.17004e-05
0.0616435
0.00687233
0.00772344
0.00777653
0.00745556
0.00719413
0.0067663
0.0065508
0.00605387
0.00578336
0.0178216
0.00418288
0.0044278
0.00434113
0.00420766
0.00409776
0.00395725
0.00373035
0.00336203
0.00282506
0.0048814
0.00164176
0.00170115
0.00166162
0.0016145
0.00157388
0.00154167
0.00156882
0.00150008
0.00116383
0.0015315
0.000643802
0.000662601
0.000651154
0.000637477
0.000625516
0.000615971
0.00060902
0.000705602
0.000636287
0.000443418
0.000224317
0.000232918
0.000232856
0.0002314
0.000229661
0.000227986
0.000226488
0.000274726
0.000371614
8.78162e-05
5.5717e-05
6.14488e-05
6.48239e-05
6.70571e-05
6.84147e-05
6.90383e-05
6.90115e-05
0.000105307
0.00025201
2.19037e-05
6.95254e-06
2.53729e-06
1.26764e-06
4.13197e-06
6.0551e-06
7.04752e-06
7.14398e-06
6.38135e-06
0.000153774
5.1703e-05
2.8348e-05
2.46698e-05
2.12293e-05
1.86101e-05
1.68924e-05
1.61573e-05
1.64355e-05
1.45843e-05
0.000123979
6.15955e-05
3.69084e-05
3.35857e-05
3.04236e-05
2.80871e-05
2.67041e-05
2.64344e-05
2.74079e-05
2.96988e-05
7.39288e-05
5.70126e-05
3.4346e-05
3.15931e-05
2.9042e-05
2.72333e-05
2.63087e-05
2.64629e-05
2.78968e-05
3.08414e-05
6.06878e-05
0.0559217
0.00558269
0.00630117
0.00641291
0.00619409
0.0060385
0.00572834
0.00563084
0.005248
0.0051756
0.0159859
0.00344017
0.00366263
0.00360226
0.00351152
0.00342059
0.00329993
0.0031455
0.00292556
0.00261449
0.00449325
0.00139992
0.00145737
0.00142608
0.00138639
0.00135136
0.00132295
0.00134636
0.00128904
0.00109212
0.00144494
0.000567041
0.000585808
0.000576193
0.00056414
0.000553324
0.000544327
0.000537264
0.000596528
0.000553037
0.00042766
0.000203621
0.000211982
0.000211931
0.000210546
0.000208856
0.000207107
0.000205367
0.000239368
0.00029621
8.80235e-05
5.27515e-05
5.80749e-05
6.10902e-05
6.30776e-05
6.42934e-05
6.48445e-05
6.47939e-05
0.000104628
0.000190838
1.88756e-05
5.01568e-06
1.0147e-06
2.42259e-06
5.02839e-06
6.81671e-06
7.81367e-06
8.06305e-06
7.58949e-06
0.000107107
4.84035e-05
2.52927e-05
2.19905e-05
1.88723e-05
1.64755e-05
1.48623e-05
1.40684e-05
1.40867e-05
8.3444e-07
8.82885e-05
5.78375e-05
3.33e-05
3.03353e-05
2.74636e-05
2.53127e-05
2.39945e-05
2.3606e-05
2.42186e-05
2.58488e-05
4.12618e-05
5.37561e-05
3.09855e-05
2.85321e-05
2.62135e-05
2.45344e-05
2.36199e-05
2.35953e-05
2.45846e-05
2.62675e-05
3.44245e-05
0.0502499
0.00453877
0.00511578
0.00524349
0.00508342
0.0049852
0.0047426
0.00470646
0.00438871
0.00440359
0.0140993
0.0028235
0.00298046
0.00295354
0.00288
0.00279219
0.00269606
0.0025896
0.00245389
0.00226028
0.00403991
0.00116479
0.00121739
0.00119282
0.0011596
0.00112963
0.00113257
0.00112245
0.00107621
0.00095479
0.00132842
0.000486002
0.000503615
0.00049555
0.000484979
0.000475312
0.000467094
0.000460423
0.000491611
0.000464352
0.000402019
0.0001798
0.000187523
0.00018738
0.000186005
0.000184354
0.000182622
0.00018086
0.000199665
0.000232489
8.61441e-05
4.86237e-05
5.3384e-05
5.59605e-05
5.76383e-05
5.86608e-05
5.9118e-05
5.90573e-05
9.24722e-05
0.000141351
1.54211e-05
3.14586e-06
3.76557e-07
3.38759e-06
5.67861e-06
7.27417e-06
8.20674e-06
8.52111e-06
8.22254e-06
6.92081e-05
4.40905e-05
2.1884e-05
1.8986e-05
1.6221e-05
1.40834e-05
1.26145e-05
1.18236e-05
1.16903e-05
6.36251e-06
5.94875e-05
5.31106e-05
2.92891e-05
2.66915e-05
2.41267e-05
2.21857e-05
2.09509e-05
2.04775e-05
2.07991e-05
2.19078e-05
1.80369e-05
4.96821e-05
2.7273e-05
2.51259e-05
2.30522e-05
2.15261e-05
2.0644e-05
2.0481e-05
2.111e-05
1.94339e-05
1.57863e-05
0.0443923
0.00361112
0.00405441
0.00418245
0.0040666
0.00401027
0.00382148
0.00383406
0.00357049
0.00363881
0.0122134
0.00226805
0.00238993
0.00236142
0.00229763
0.00222554
0.00215331
0.00208016
0.00199449
0.00186472
0.00354804
0.000945505
0.000991263
0.000972079
0.000946477
0.000944052
0.000933911
0.000911512
0.000874009
0.000793211
0.00118967
0.000405125
0.000420747
0.000413971
0.000404748
0.000396175
0.000388765
0.000382608
0.000395069
0.000377195
0.000367868
0.000154218
0.000161004
0.000160706
0.000159295
0.000157645
0.000155922
0.000154168
0.000162774
0.00018019
8.2101e-05
4.35194e-05
4.76121e-05
4.97042e-05
5.10292e-05
5.18121e-05
5.21287e-05
5.20199e-05
7.80744e-05
0.000103849
1.17955e-05
1.48866e-06
1.51199e-06
4.06197e-06
6.00136e-06
7.3622e-06
8.18126e-06
8.49556e-06
8.29915e-06
4.15754e-05
3.89611e-05
1.83123e-05
1.58365e-05
1.34482e-05
1.1595e-05
1.02983e-05
9.55443e-06
9.33595e-06
8.21605e-06
3.88866e-05
4.753e-05
2.50314e-05
2.28089e-05
2.05714e-05
1.88598e-05
1.77343e-05
1.72187e-05
1.7326e-05
1.80292e-05
3.17738e-06
4.48418e-05
2.33356e-05
2.14977e-05
1.96857e-05
1.83336e-05
1.75101e-05
1.72567e-05
1.76136e-05
1.53862e-05
4.18363e-06
0.0393024
0.00288725
0.0032024
0.00329737
0.00318222
0.0031167
0.00292781
0.00293523
0.0026664
0.00272338
0.0103594
0.00172761
0.00183403
0.00181704
0.00177356
0.00172325
0.00167518
0.00162953
0.00157929
0.00149238
0.00306708
0.000783135
0.000821021
0.000807018
0.000787419
0.0007674
0.000745948
0.000720907
0.000690025
0.000631712
0.00103523
0.000327656
0.000340747
0.000335084
0.000327176
0.000319725
0.000313208
0.000307701
0.000308179
0.000296156
0.000326701
0.000128106
0.000133775
0.000133322
0.000131897
0.000130273
0.000128596
0.000126901
0.000130234
0.000137563
7.58917e-05
3.76722e-05
4.10427e-05
4.26533e-05
4.36254e-05
4.41611e-05
4.43261e-05
4.65835e-05
6.42839e-05
7.59637e-05
8.28866e-06
1.64656e-07
2.30189e-06
4.37851e-06
5.9543e-06
7.06252e-06
7.73706e-06
8.01314e-06
7.87214e-06
2.28375e-05
3.32791e-05
1.47713e-05
1.27244e-05
1.07255e-05
9.17035e-06
8.0675e-06
7.40255e-06
2.60903e-06
8.98993e-06
2.54183e-05
4.12831e-05
2.07034e-05
1.88571e-05
1.69609e-05
1.54974e-05
1.45062e-05
1.39935e-05
1.39581e-05
1.43648e-05
5.34347e-06
3.93542e-05
1.93237e-05
1.77926e-05
1.62562e-05
1.50958e-05
1.43577e-05
1.4062e-05
1.42275e-05
1.23755e-05
1.99989e-06
0.0322644
0.00220167
0.00248357
0.00265885
0.00266706
0.00271077
0.00263173
0.00273249
0.00253471
0.00264801
0.00854507
0.00128111
0.00137947
0.00136318
0.00131998
0.00127397
0.00123232
0.00119647
0.00116162
0.00109261
0.00252588
0.00061836
0.000656316
0.000644781
0.000623163
0.000600001
0.000576681
0.000552904
0.000527293
0.000482778
0.000870673
0.000255853
0.000266119
0.000261431
0.000254833
0.000248562
0.000243032
0.000238305
0.000232718
0.000223531
0.000280068
0.000102521
0.000106996
0.000106431
0.000105056
0.000103526
0.000101966
0.000100402
0.000102108
0.000102916
6.76059e-05
3.13465e-05
3.39944e-05
3.51622e-05
3.58174e-05
3.61347e-05
3.61687e-05
4.53351e-05
5.1803e-05
5.51343e-05
5.17959e-06
7.50922e-07
2.69616e-06
4.31644e-06
5.53793e-06
6.39558e-06
6.91855e-06
7.13567e-06
7.02351e-06
1.07756e-05
2.73493e-05
1.14367e-05
9.80823e-06
8.19802e-06
6.94365e-06
6.0446e-06
1.51024e-06
4.75184e-06
9.55801e-06
1.71435e-05
3.46198e-05
1.6485e-05
1.50069e-05
1.3458e-05
1.22519e-05
1.14158e-05
1.09442e-05
1.08299e-05
1.10344e-05
9.39428e-06
3.3398e-05
1.5401e-05
1.41656e-05
1.29102e-05
1.19534e-05
1.13234e-05
1.1027e-05
1.10714e-05
9.77266e-06
4.54202e-06
0.0265359
0.000990197
0.000880238
0.00077224
0.000586123
0.000486332
0.000338749
0.000421926
0.000230656
0.000389946
0.00678294
0.000951983
0.00104149
0.00105145
0.00104109
0.00102605
0.00101093
0.000997001
0.000982329
0.000954638
0.00196223
0.000445586
0.000493686
0.000491098
0.000474201
0.000453091
0.000430875
0.000408568
0.000385509
0.000347889
0.00070174
0.000191562
0.000198953
0.00019511
0.000189773
0.000184686
0.00018018
0.000176302
0.000171713
0.000160554
0.000229769
7.84078e-05
8.17081e-05
8.10975e-05
7.98486e-05
7.84892e-05
7.71181e-05
7.57571e-05
7.79921e-05
7.48758e-05
5.74969e-05
2.48489e-05
2.68163e-05
2.76066e-05
2.80043e-05
3.00844e-05
3.69901e-05
3.99429e-05
4.06088e-05
3.9373e-05
2.69279e-06
1.24048e-06
2.70198e-06
3.90464e-06
4.80362e-06
5.4294e-06
5.80808e-06
5.96172e-06
5.86408e-06
5.18502e-06
0.000184484
6.22237e-05
1.74783e-05
8.68777e-06
7.68109e-06
8.35553e-06
9.35364e-06
9.4083e-06
1.0176e-05
1.23865e-05
2.78344e-05
1.25465e-05
1.14151e-05
1.02066e-05
9.25761e-06
8.58741e-06
8.18658e-06
8.04212e-06
8.12144e-06
8.39198e-06
2.72023e-05
1.17237e-05
1.07667e-05
9.78671e-06
9.03511e-06
8.52691e-06
8.26151e-06
8.25067e-06
7.4895e-06
5.04869e-06
0.0419948
0.00457379
0.00518997
0.00536895
0.00524336
0.0050071
0.00461593
0.00432639
0.00377634
0.00354388
0.00478871
0.0004731
0.000469276
0.000419917
0.000371367
0.000335973
0.000315461
0.000307731
0.000308303
0.000306095
0.0013734
0.000275062
0.000346288
0.000358682
0.000351796
0.000336888
0.000318895
0.000300342
0.000281499
0.00025115
0.000532393
0.000135352
0.00014018
0.000137236
0.00013325
0.000129425
0.000125981
0.000122946
0.000119301
0.00010906
0.000177888
5.65408e-05
5.87652e-05
5.81814e-05
5.7138e-05
5.66806e-05
5.81356e-05
5.82199e-05
5.72006e-05
5.2249e-05
0.000113914
5.63871e-05
4.11948e-05
3.63151e-05
3.5e-05
3.45194e-05
3.3823e-05
3.22113e-05
3.03458e-05
2.71616e-05
9.58983e-07
1.34572e-06
2.37972e-06
3.22041e-06
3.84095e-06
4.26852e-06
4.52179e-06
4.61761e-06
4.53044e-06
3.95387e-06
0.000618495
0.000270156
0.000117007
5.85019e-05
3.37949e-05
2.22397e-05
1.63782e-05
1.24888e-05
1.08404e-05
9.87164e-06
2.12402e-05
9.02987e-06
8.21088e-06
7.32221e-06
6.61926e-06
6.11455e-06
5.79945e-06
5.66113e-06
5.67248e-06
5.75095e-06
2.10303e-05
8.42632e-06
7.72305e-06
7.00169e-06
6.4465e-06
6.06431e-06
5.85128e-06
5.85426e-06
5.55549e-06
4.7186e-06
0.0983964
0.00940666
0.00985212
0.00894536
0.00773945
0.00651477
0.00536698
0.00432678
0.00351326
0.00257063
0.00496816
0.00115017
0.00124222
0.00125336
0.00121729
0.00115023
0.00106434
0.000968291
0.000865673
0.000769021
0.000897643
0.000104247
0.00020428
0.000225868
0.000224636
0.000213351
0.000198304
0.000182742
0.000167399
0.000145185
0.000375517
8.93032e-05
9.18545e-05
8.94822e-05
8.65406e-05
8.38184e-05
8.14329e-05
7.93477e-05
7.67645e-05
6.92485e-05
0.000141295
5.18044e-05
5.14679e-05
4.93118e-05
4.71985e-05
4.52349e-05
4.32887e-05
4.11986e-05
3.89125e-05
3.39316e-05
0.000128033
7.25948e-05
5.04762e-05
3.92818e-05
3.2927e-05
2.87758e-05
2.56771e-05
2.29305e-05
2.06205e-05
1.73764e-05
2.0469e-08
1.15846e-06
1.8348e-06
2.38026e-06
2.77631e-06
3.04399e-06
3.1969e-06
3.248e-06
3.17187e-06
2.71426e-06
0.0010617
0.000465293
0.000201246
9.63809e-05
5.15549e-05
3.07267e-05
2.02143e-05
1.40287e-05
1.09943e-05
8.36723e-06
1.51295e-05
6.04041e-06
5.48587e-06
4.88107e-06
4.40096e-06
4.05208e-06
3.82747e-06
3.71724e-06
3.69934e-06
3.67921e-06
1.51656e-05
5.60513e-06
5.128e-06
4.63778e-06
4.261e-06
3.99918e-06
3.84625e-06
3.79949e-06
3.83815e-06
3.97101e-06
0.391772
0.0153213
0.015221
0.0130722
0.0107516
0.00867769
0.00691986
0.00545087
0.00411069
0.00319416
0.00197511
0.00166213
0.00156172
0.00139176
0.00118501
0.000965203
0.000746847
0.00053661
0.000335
0.00015768
0.000256316
2.93672e-05
0.000140858
0.000189124
0.000198655
0.000187735
0.000167037
0.000142242
0.000114895
7.9486e-05
0.000228234
5.17048e-05
5.25975e-05
5.11613e-05
4.95738e-05
4.81968e-05
4.70845e-05
4.6261e-05
4.52859e-05
4.12261e-05
9.58017e-05
3.71863e-05
3.64497e-05
3.39071e-05
3.13291e-05
2.89936e-05
2.69015e-05
2.49736e-05
2.30455e-05
1.93975e-05
8.53602e-05
5.02249e-05
3.46122e-05
2.61171e-05
2.09823e-05
1.75798e-05
1.51392e-05
1.32047e-05
1.16598e-05
9.50833e-06
3.72564e-07
8.07636e-07
1.19974e-06
1.51503e-06
1.74097e-06
1.88988e-06
1.97015e-06
1.98991e-06
1.93035e-06
1.60336e-06
0.00130658
0.000564908
0.000236373
0.000108175
5.45979e-05
3.04992e-05
1.87382e-05
1.23102e-05
9.04893e-06
6.25506e-06
9.73802e-06
3.63675e-06
3.2914e-06
2.92388e-06
2.63182e-06
2.41909e-06
2.2793e-06
2.20611e-06
2.18345e-06
2.1279e-06
9.88614e-06
3.32017e-06
3.03084e-06
2.73829e-06
2.51317e-06
2.35727e-06
2.26471e-06
2.35761e-06
2.25246e-06
2.40681e-06
0.574779
0.00669552
0.00616394
0.00522331
0.00426681
0.00339389
0.00261904
0.00190919
0.00147969
0.000839057
0.00509571
0.00273634
0.00235279
0.0019221
0.00152714
0.00118454
0.000890851
0.000636167
0.000407443
0.000208058
0.000195416
0.000191958
2.98373e-05
2.01198e-05
4.51362e-05
5.75434e-05
6.47829e-05
7.08596e-05
7.73852e-05
8.16112e-05
0.000119634
2.57115e-05
2.57204e-05
2.43338e-05
2.26579e-05
2.09325e-05
1.91778e-05
1.7344e-05
1.51338e-05
1.14519e-05
4.84627e-05
1.689e-05
1.66314e-05
1.55433e-05
1.44054e-05
1.33692e-05
1.24561e-05
1.16496e-05
1.08131e-05
9.04406e-06
3.14306e-05
1.84629e-05
1.30662e-05
1.00522e-05
8.16892e-06
6.90993e-06
6.01411e-06
5.32406e-06
4.75615e-06
3.84404e-06
3.00596e-07
4.20512e-07
6.00951e-07
7.48369e-07
8.519e-07
9.17894e-07
9.51416e-07
9.54722e-07
9.14984e-07
7.19824e-07
0.000857345
0.000385724
0.000155634
6.84622e-05
3.27769e-05
1.7176e-05
9.80152e-06
5.97402e-06
4.00819e-06
2.51696e-06
5.22852e-06
1.81203e-06
1.63098e-06
1.44634e-06
1.3034e-06
1.19937e-06
1.13126e-06
1.09418e-06
1.07968e-06
1.02684e-06
9.39778e-05
8.93772e-05
6.06514e-05
3.58155e-05
2.03073e-05
1.13379e-05
6.30749e-06
3.49903e-06
1.72204e-06
5.59985e-07
0.112148
0.0042305
0.00359762
0.00287134
0.00221743
0.00166298
0.00120003
0.000802244
0.000443666
0.000124563
2.05453e-05
0.00046466
0.000394601
0.000310449
0.000228018
0.000151295
8.01877e-05
1.30382e-05
5.23454e-05
0.000113751
0.000151593
3.57482e-05
1.47151e-05
2.2333e-05
2.21376e-05
1.76661e-05
1.1181e-05
3.63034e-06
4.77462e-06
1.32155e-05
3.48365e-05
7.83788e-06
8.06009e-06
8.11063e-06
8.16882e-06
8.27378e-06
8.43576e-06
8.65189e-06
8.7861e-06
8.02505e-06
1.34625e-05
4.06498e-06
4.00444e-06
3.8106e-06
3.59848e-06
3.39262e-06
3.19803e-06
3.00997e-06
2.7785e-06
2.20754e-06
4.56372e-06
2.42719e-06
2.00361e-06
1.76014e-06
1.59174e-06
1.46848e-06
1.37167e-06
1.28862e-06
1.19242e-06
9.3637e-07
5.91248e-08
1.16937e-07
1.76114e-07
2.22648e-07
2.54925e-07
2.74889e-07
2.83859e-07
2.82927e-07
2.66298e-07
1.91952e-07
7.31155e-05
5.63875e-05
2.25001e-05
9.69348e-06
4.27241e-06
1.88578e-06
7.62791e-07
1.87288e-07
1.33855e-07
3.32139e-07
1.69986e-06
6.24011e-07
5.56156e-07
4.95495e-07
4.48737e-07
4.15851e-07
3.94579e-07
3.83282e-07
3.77213e-07
3.4657e-07
0.000209142
0.000123097
7.45153e-05
4.33819e-05
2.49868e-05
1.46158e-05
8.90701e-06
5.74769e-06
3.84369e-06
2.56755e-06
1.24517
1.25996
1.4533
1.88186
0.944232
0.998188
1.19446
1.76349
0.521707
0.505338
0.704937
1.1629
0.218958
0.1859
0.329912
0.58455
0.0625586
0.0481579
0.107009
0.196354
0.00202111
0.000279966
0.00228715
0.00470468
0.0248674
0.0140098
0.0351738
0.0778134
0.0311412
0.0170428
0.0455836
0.107547
0.03181
0.0166239
0.0483464
0.120809
0.0288708
0.014244
0.0472753
0.124701
0.108524
0.0263433
0.0194815
0.0651597
0.121623
0.0342217
0.01846
0.0467911
0.083424
0.0240932
0.00993801
0.028208
0.0426838
0.011694
0.000936703
0.0216668
0.0144185
0.00317069
0.00133672
0.0101032
0.00123832
0.000114817
0.000123931
0.00019806
0.00851223
0.000363299
0.000200891
9.20848e-05
0.0115833
0.000255412
0.000324048
0.00032463
0.0132892
0.000345942
0.00039348
0.000392028
0.0135759
0.000427723
0.000506994
0.000501185
0.109876
0.105324
0.102067
0.131522
0.0926206
0.0839624
0.0805379
0.114376
0.0569754
0.0493673
0.049719
0.0715756
0.0268892
0.022445
0.0251346
0.0368644
0.00840198
0.00716377
0.00925652
0.0143117
0.00125474
4.96161e-05
0.000732861
0.00168206
0.00609878
0.00332373
0.00352773
0.00497219
0.00843152
0.00479074
0.00519089
0.00757148
0.0101347
0.00555449
0.00588856
0.00865231
0.0119914
0.00624134
0.00654028
0.00857566
0.0220359
0.0287048
0.0308221
0.0341299
0.02124
0.0230963
0.0253259
0.0326581
0.0148221
0.0148937
0.0171744
0.0233908
0.00743994
0.00733576
0.00885074
0.0130516
0.00225686
0.00247787
0.00317307
0.00525558
0.000818334
5.42784e-05
0.000279878
0.000778638
0.00251004
0.00125276
0.000938804
0.00136481
0.00342305
0.00175422
0.00126573
0.00217331
0.00402476
0.00182992
0.00106889
0.0023003
0.00413796
0.00137169
0.00039882
0.00179454
0.00508889
0.0102559
0.0114857
0.0131255
0.00650896
0.0100256
0.012456
0.0164483
0.00472858
0.00681376
0.00872741
0.0119279
0.00225714
0.00350711
0.00461546
0.00664606
0.000494914
0.00120481
0.00171379
0.00271652
0.000613012
7.85086e-05
0.000196279
0.000516845
0.00130235
0.000783433
0.000548537
0.000649067
0.00174421
0.00114951
0.000830456
0.00116282
0.00209883
0.00131024
0.000809719
0.00131465
0.00223479
0.00124224
0.000591734
0.00122766
0.00409118
0.000741543
8.42422e-05
0.00108322
1.61174e-05
0.00306855
0.00472317
0.00685274
0.000816268
0.00263947
0.00388945
0.00566273
0.000313205
0.00145045
0.00221376
0.00330795
0.00012933
0.000490621
0.000858137
0.00140207
0.000454108
8.81053e-05
0.000108909
0.000308106
0.000689474
0.000435129
0.000282439
0.000293679
0.000869253
0.000633733
0.000440841
0.000568826
0.00102019
0.000728898
0.000417747
0.000644308
0.000974007
0.000651084
0.000276566
0.000633887
0.00707666
0.00478741
0.00427752
0.00366492
0.00281701
0.000304193
0.000615157
0.00170501
0.000625717
0.000813339
0.00155859
0.00250781
0.000357668
0.000533036
0.0010232
0.00158888
0.000316214
0.000166851
0.000420933
0.000706401
0.00035263
8.64786e-05
5.60688e-05
0.00017559
0.000415205
0.000264531
0.000164306
0.000144548
0.000486764
0.000381781
0.000269661
0.00030517
0.000544385
0.000442774
0.000260181
0.000349573
0.000449339
0.000379662
0.00018677
0.000372686
0.00771885
0.00604976
0.00575616
0.00540214
0.00401693
0.00201867
0.0015489
0.00103593
0.00128157
0.000137619
0.000274219
0.000760935
0.000628445
6.1211e-05
0.000351106
0.000626515
0.00036788
1.26654e-06
0.000163478
0.000307982
0.000278887
8.14139e-05
1.64368e-05
8.52012e-05
0.000263256
0.000162523
9.59748e-05
7.24521e-05
0.000282112
0.000227244
0.000159802
0.000161141
0.00028579
0.000256933
0.000149639
0.000183111
0.000184201
0.000202353
0.000110172
0.000212823
0.00725549
0.00597942
0.00581533
0.00561173
0.00414255
0.00254381
0.00230756
0.00209945
0.00152012
0.000591312
0.000374324
0.000139802
0.000727282
0.00017726
1.4808e-05
0.000105066
0.00037148
8.21648e-05
1.59054e-05
8.55911e-05
0.000225708
7.54117e-05
1.00657e-05
2.86804e-05
0.000174012
0.0001033
5.83741e-05
3.89819e-05
0.000167771
0.000137302
9.48205e-05
8.60406e-05
0.000139893
0.000141742
7.82101e-05
8.98326e-05
5.38448e-05
9.85042e-05
5.63749e-05
0.000116315
0.00635287
0.00535368
0.00526384
0.00514663
0.00376062
0.00247476
0.00235626
0.00230452
0.00149034
0.000737093
0.000626485
0.00052308
0.000719928
0.000278689
0.000192758
0.000155008
0.000348382
0.000119546
6.3933e-05
3.54929e-05
0.000183677
6.82905e-05
2.65721e-05
6.30488e-06
0.000115729
6.60175e-05
3.61083e-05
2.24721e-05
9.73344e-05
8.13685e-05
5.36798e-05
4.38789e-05
5.61874e-05
7.00743e-05
3.18243e-05
3.49697e-05
1.09919e-05
3.78629e-05
1.9098e-05
5.61597e-05
0.00531594
0.00452087
0.00446866
0.00439854
0.00319239
0.00216485
0.00210729
0.00213483
0.00131366
0.000707922
0.000651247
0.000609298
0.000644845
0.000292922
0.000249246
0.000250438
0.000305964
0.000125741
9.58515e-05
8.86766e-05
0.00014757
5.9328e-05
3.3863e-05
2.47404e-05
7.59711e-05
4.16035e-05
2.26007e-05
1.4074e-05
5.29786e-05
4.59935e-05
2.81135e-05
2.00239e-05
1.14537e-05
2.88489e-05
5.57221e-06
5.35119e-06
4.02807e-05
4.72049e-06
3.58152e-06
2.01103e-05
0.0043623
0.00373663
0.00371299
0.00367999
0.0025871
0.00177835
0.0017526
0.00181931
0.00108198
0.000603574
0.000573957
0.000558714
0.000538776
0.000262156
0.000240872
0.000257753
0.000254055
0.000113623
9.82154e-05
0.00010036
0.00011598
4.90971e-05
3.40803e-05
3.10068e-05
4.90862e-05
2.58137e-05
1.44938e-05
9.81767e-06
2.63521e-05
2.44989e-05
1.33859e-05
7.54823e-06
1.02823e-05
6.75536e-06
7.35695e-06
8.7613e-06
4.96719e-05
1.13502e-05
1.50652e-05
2.08702e-07
0.00319577
0.0027131
0.00269409
0.00268693
0.002045
0.00142254
0.00141547
0.0015013
0.000845499
0.000477677
0.000461623
0.0004567
0.000425883
0.000213875
0.000204397
0.000225767
0.000200732
9.34306e-05
8.58199e-05
9.09823e-05
8.86805e-05
3.87276e-05
3.01041e-05
2.98455e-05
3.11821e-05
1.58457e-05
9.63931e-06
7.54987e-06
1.15897e-05
1.23439e-05
5.78375e-06
2.02999e-06
1.89154e-05
3.96206e-06
1.23426e-05
1.39673e-05
4.80402e-05
1.71494e-05
1.88559e-05
9.11769e-06
0.00318662
0.00271058
0.00267499
0.00264736
0.00142749
0.00101333
0.00101738
0.00104267
0.00062875
0.000356716
0.000347379
0.000344791
0.00031926