/*--------------------------------*- C++ -*----------------------------------*\
| =========                 |                                                 |
| \\      /  F ield         | foam-extend: Open Source CFD                    |
|  \\    /   O peration     | Version:     4.0                                |
|   \\  /    A nd           | Web:         http://www.foam-extend.org         |
|    \\/     M anipulation  |                                                 |
\*---------------------------------------------------------------------------*/
FoamFile
{
    version     2.0;
    format      ascii;
    class       volScalarField;
    location    "2800";
    object      epsilon;
}
// * * * * * * * * * * * * * * * * * * * * * * * * * * * * * * * * * * * * * //

dimensions      [0 2 -3 0 0 0 0];

internalField   nonuniform List<scalar> 
34480
(
4843.35
4836.87
4834.48
4834.08
4837.03
4853.81
4914.54
5079.94
5443.18
6228.6
5609.44
6908.39
9583.07
15792.4
32427.1
80978.7
220961
581072
1.3223e+06
2.41278e+06
7330.32
8765.22
11504.8
17306.6
31908.9
75616.6
216554
646044
1.72726e+06
3.72259e+06
6076.73
7336.57
9666.05
14400.4
25907.7
60960.7
183541
605749
1.83005e+06
4.45446e+06
4877.78
5999.23
8049.5
12124.2
21829.5
51601.7
161916
578798
1.92696e+06
5.17589e+06
3838.84
4777.36
6515.53
10017.6
18467.2
45077.3
149516
576203
2.08244e+06
6.05774e+06
2994.38
3749.65
5177.65
8121.86
15417.3
39133.4
136944
562578
2.17608e+06
6.7578e+06
2115.72
2636.77
3641.43
5797.14
11408.3
30729.5
115333
506568
2.08841e+06
6.87429e+06
1189.34
1386.66
1774.98
2673.88
5316.76
15637.2
65112.7
310352
1.37004e+06
4.74836e+06
5631.16
5614.63
5616.98
5644.46
5704.89
5793.86
5891.8
5996.28
6182.4
6430.35
4773.9
4772.34
4780.03
4797.49
4824.24
4861.79
4922.39
5032
5234.85
5629.21
3020.57
3487.53
4378.61
6076.82
9652.35
18307.2
43851.6
130495
410606
1.14525e+06
4165.8
4795.89
5924.96
7968.37
11947.5
21030.7
46853.2
142452
513709
1.67023e+06
3670.1
4285.52
5370.88
7312.02
10963.6
19052
41879.7
132824
541410
1.98644e+06
3090.65
3679.3
4720.42
6567.04
10024.5
17502.3
38433
126389
571446
2.31175e+06
2534.05
3048.3
3974.79
5654.49
8873.2
15849.2
35599.3
123648
619734
2.73244e+06
2052.43
2480.64
3269.72
4733.69
7629.38
13999.9
32347.3
118364
649913
3.0801e+06
1511.74
1812.74
2376.15
3458.62
5680.58
10729.9
25836.1
102000
621831
3.1711e+06
961.754
1075.86
1289.6
1710.99
2630.55
4873.46
12228.7
55844.7
402916
2.30048e+06
5508.05
5484.86
5476.11
5488.99
5536.9
5624.18
5724.72
5806.56
6049.61
6662.18
4694.98
4693.34
4699.06
4713.7
4737.96
4772.36
4820.03
4890.5
5002.58
5183.48
1613.56
1795.34
2123.8
2707.29
3776.83
5856.94
10330.2
20991.7
47295.2
104687
2196.21
2485.6
2989.91
3837.56
5306.97
8091.49
14066.4
29331.3
73604
189741
2084.46
2393.36
2931.6
3849.66
5407.19
8338.87
14703.5
32151.6
90806.2
270382
1870.8
2186.78
2745.53
3703.83
5342.19
8409.44
15124.1
34640.5
109313
369628
1616.06
1906.01
2431.18
3360.09
5006.8
8138.93
15181.7
37099.7
131805
500532
1371.87
1624.57
2094.07
2945.81
4518.39
7583.67
14698.9
38322.8
152210
639471
1065.38
1249.69
1597.35
2252.56
3516
6076.88
12323.1
34903
157244
730812
786.654
860.781
1000.52
1266.52
1811.86
3012.05
6218.41
19323.8
101801
540879
5401.55
5376.24
5361.95
5364.18
5392.43
5454.6
5542.2
5618.36
5750.34
6165.41
4605.86
4604.48
4608.46
4619.11
4637.16
4663.34
4698.82
4746.98
4817.8
4937.05
907.433
972.202
1079.1
1263.43
1573.01
2100.5
3030.05
4726.57
7877.1
13281.7
1092.9
1212.68
1414.57
1738.82
2262.61
3136.55
4675.75
7615.3
13756.3
26357.3
1123.06
1264.59
1506.41
1904.17
2541.26
3614.86
5541.15
9414.77
18532.2
40679.1
1087.98
1244.8
1519.88
1979
2720.44
3985.3
6294.05
11148
23924.4
59990.4
1000.81
1153.44
1429.79
1908.96
2716.34
4135.97
6826.52
12837.4
30569.7
87584
898.505
1039.3
1301.79
1768.84
2592.92
4091.35
7049.81
14069.3
37144.7
120316
745.259
853.016
1056.44
1433.03
2130.2
3459.14
6240.55
13396.7
39875.4
146302
651.072
697.892
786.012
946.892
1257.93
1899.49
3385.69
7621.88
25399.6
107147
5279.71
5255.85
5240.98
5239
5255.8
5298.94
5371.53
5455.45
5554.25
5829.92
4505.04
4503.62
4505.97
4512.86
4524.58
4541.53
4564.48
4595.77
4642.53
4727.52
577.051
599.678
631.317
683.009
762.345
884.497
1073.6
1361.94
1780.1
2356.94
547.004
591.04
661.761
770.568
936.04
1188.11
1578.63
2193.2
3161.89
4676.66
598.091
656.053
751.903
903.987
1135.47
1494.39
2063.82
3001.15
4620.58
7575.21
625.524
696.365
817.895
1013.25
1313.34
1787.87
2557.15
3872.25
6362.49
11684.1
614.465
688.314
820.129
1042.32
1398.23
1984.9
2979.15
4778.15
8550.43
17866.6
585.016
657.945
792.602
1025.05
1415.55
2084.9
3271.01
5537.68
10788.3
25599.5
522.311
581.732
692.178
890.306
1239.46
1869.48
3058.49
5514.18
11887.7
32265.3
545.113
573.73
626.857
718.802
883.752
1198.38
1852.88
3350.27
7665.21
23429.5
5153.12
5131.31
5117.08
5113.18
5123.16
5152.49
5206.56
5281.71
5369.64
5549.73
4393.66
4392.22
4393.59
4398.23
4406.2
4417.57
4432.78
4453.6
4486.37
4551.66
421.056
429.825
439.48
453.879
473.442
500.08
536.168
583.009
637.324
698.597
300.922
316.098
338.888
372.478
420.619
488.24
582.656
711.498
876.725
1079.88
335.389
357.23
391.809
444.992
522.124
633.359
793.249
1020.89
1332.64
1768.09
371.223
401.023
450.33
526.29
637.576
801.877
1044.31
1402.36
1928.32
2790.24
385.507
419.004
477.051
571.472
715.644
939.634
1288.19
1835.24
2713.95
4389.62
386.567
422.302
486.662
593.374
763.69
1040.01
1491.31
2239.23
3549.43
6439.99
371.449
402.889
459.416
556.525
718.161
994.311
1476.09
2340.04
4025.05
8277.46
462.548
479.704
510.784
561.593
646.011
793.664
1070.32
1616.31
2784.47
6105.49
5020.4
5001.13
4988.44
4984.39
4991.27
5012.7
5052.92
5113.14
5187.27
5302.17
4272.99
4271.54
4272.33
4275.65
4281.53
4289.98
4301.26
4316.8
4342.2
4396
341.582
345.484
348.707
352.803
357.427
362.664
368.387
373.643
375.785
374.691
194.642
199.813
206.846
216.68
229.87
246.958
268.675
295.062
323.936
353.374
211.254
219.048
230.686
248.139
272.225
304.639
347.317
401.434
463.567
532.052
238.786
250.755
269.56
297.132
335.493
388.368
459.992
554.342
668.905
816.725
256.468
271.016
295.058
332.469
386.836
466.265
580.797
742.627
956.525
1276.99
266.624
283.501
312.632
358.444
427.651
533.468
694.026
934.245
1276.64
1872.55
273.127
289.346
316.993
361.941
431.989
544.482
726.938
1023.36
1492.21
2427.83
399.35
409.475
427.131
454.364
496.522
564.111
677.985
877.922
1224.16
1982.63
4880.67
4864.15
4853.39
4850.09
4855.81
4872.95
4904.22
4951.35
5010.23
5082.23
4144.51
4143.07
4143.51
4146.07
4150.78
4157.63
4166.85
4179.67
4201.03
4247.77
296.575
298.529
299.78
300.976
301.862
302.353
302.199
300.552
295.56
286.355
148.16
150.022
152.214
155.042
158.531
162.655
167.407
172.575
177.457
181.868
153.489
156.227
160.001
165.576
172.877
182.045
193.133
205.801
218.326
229.451
171.298
176.05
183.013
192.63
205.227
221.362
241.413
265.242
290.069
316.268
185.518
191.727
201.338
215.532
235.022
261.673
297.312
343.384
396.173
460.51
196.022
203.869
216.638
235.419
262.158
300.383
354.21
428.121
518.817
646.905
210.473
218.77
231.909
251.913
280.905
324.24
389.393
486.927
620.365
836.008
351.377
357.298
367.047
381.25
402.021
432.832
479.944
554.996
670.426
869.591
4733.14
4719.34
4710.62
4708.35
4713.68
4728.21
4753.56
4790.79
4835.7
4882.4
4009.28
4007.87
4008.12
4010.23
4014.23
4020.14
4028.15
4039.32
4058.02
4099.61
267.88
268.919
269.517
269.91
269.953
269.572
268.57
266.239
261.01
251.288
126.788
127.528
128.247
129.05
129.922
130.826
131.743
132.612
133.272
133.898
126.139
127.118
128.328
130.122
132.349
134.962
137.87
140.862
143.371
145.028
136.747
138.672
141.256
144.576
148.622
153.397
158.806
164.581
169.722
174.195
146.681
149.351
153.156
158.455
165.268
173.943
184.684
197.458
210.477
223.739
154.938
158.591
164.129
171.664
181.717
195.072
212.466
234.486
258.447
286.75
171.05
175.319
181.475
190.179
201.86
217.99
240.408
271.509
310.035
362.23
315.028
318.49
323.713
330.91
341.052
355.191
375.219
404.976
450.331
515.326
4577.26
4566.01
4559.16
4557.87
4562.94
4575.42
4596.18
4625.69
4659.46
4691.5
3867.98
3866.61
3866.75
3868.59
3872.14
3877.42
3884.63
3894.63
3911.3
3948.6
247.339
247.879
248.233
248.433
248.392
248.053
247.25
245.355
240.908
231.882
116.338
116.662
116.916
117.131
117.303
117.424
117.5
117.535
117.518
117.627
112.842
113.201
113.587
114.178
114.873
115.636
116.42
117.142
117.618
117.722
118.778
119.586
120.563
121.715
122.999
124.373
125.768
127.073
127.99
128.568
125.301
126.473
127.989
129.968
132.327
135.11
138.301
141.805
145.016
147.73
131.103
132.818
135.225
138.232
141.979
146.601
152.172
158.705
165.078
171.476
146.392
148.624
151.491
155.229
159.846
165.721
173.292
183.111
194.612
208.254
287.256
289.317
292.017
295.551
300.472
307.051
315.898
328.571
349.917
376.981
4412.7
4403.72
4398.49
4397.94
4402.63
4413.19
4430.01
4453.15
4478.39
4501.39
3721
3719.68
3719.77
3721.41
3724.63
3729.46
3736.03
3745.11
3760.06
3793.51
231.097
231.335
231.579
231.751
231.792
231.653
231.188
229.822
226.175
218.013
110.887
111.038
111.135
111.181
111.181
111.137
111.063
110.98
110.915
111.015
106.28
106.414
106.534
106.733
106.954
107.18
107.393
107.565
107.631
107.531
109.343
109.691
110.067
110.467
110.863
111.23
111.542
111.768
111.828
111.78
113.489
114.016
114.623
115.361
116.162
117.024
117.934
118.856
119.615
120.102
117.32
118.129
119.174
120.37
121.759
123.355
125.146
127.115
128.845
130.307
131.007
132.202
133.532
135.11
136.88
138.939
141.413
144.465
148.068
152.063
265.567
266.853
268.188
269.867
272.259
275.407
279.524
285.396
297.098
310.691
4239.41
4232.36
4228.44
4228.39
4232.54
4241.26
4254.63
4272.5
4291.33
4308.37
3568.57
3567.31
3567.37
3568.86
3571.82
3576.25
3582.29
3590.55
3603.94
3633.77
217.223
217.266
217.442
217.618
217.743
217.775
217.578
216.631
213.642
206.315
107.816
107.886
107.925
107.928
107.9
107.845
107.777
107.717
107.701
107.85
103.046
103.099
103.135
103.202
103.273
103.339
103.395
103.432
103.426
103.34
104.416
104.565
104.71
104.847
104.962
105.044
105.086
105.08
105.012
104.924
107.005
107.247
107.49
107.76
108.015
108.254
108.473
108.67
108.804
108.826
109.431
109.807
110.254
110.722
111.231
111.779
112.356
112.963
113.441
113.763
121.403
122.063
122.677
123.321
123.955
124.604
125.321
126.183
127.324
128.658
247.964
248.839
249.459
250.233
251.425
253.024
255.101
258.127
265.239
272.859
4057.6
4052.12
4049.22
4049.43
4052.96
4059.98
4070.42
4084.06
4098.19
4111.16
3410.9
3409.71
3409.75
3411.11
3413.82
3417.9
3423.44
3430.94
3442.87
3469.22
204.658
204.573
204.697
204.871
205.046
205.185
205.161
204.507
202.029
195.476
105.91
105.938
105.955
105.951
105.929
105.895
105.858
105.836
105.866
106.054
101.475
101.498
101.51
101.532
101.554
101.571
101.583
101.588
101.578
101.528
101.898
101.96
102.014
102.061
102.093
102.106
102.099
102.07
102.019
101.976
103.507
103.62
103.717
103.812
103.882
103.927
103.95
103.954
103.939
103.884
105.004
105.171
105.354
105.532
105.718
105.91
106.104
106.31
106.453
106.523
115.359
115.739
116.021
116.269
116.462
116.608
116.736
116.892
117.21
117.722
232.887
233.553
233.814
234.166
234.803
235.704
236.885
238.659
243.202
247.676
3867.69
3863.46
3861.31
3861.62
3864.52
3870.06
3878.12
3888.46
3899.22
3909.35
3248.2
3247.08
3247.11
3248.35
3250.83
3254.56
3259.62
3266.39
3276.94
3299.91
192.764
192.593
192.674
192.833
193.025
193.214
193.285
192.821
190.736
184.887
104.591
104.596
104.603
104.601
104.592
104.579
104.567
104.572
104.63
104.838
100.726
100.74
100.746
100.753
100.757
100.758
100.757
100.754
100.749
100.728
100.663
100.685
100.704
100.721
100.733
100.737
100.733
100.722
100.703
100.698
101.668
101.722
101.762
101.793
101.806
101.799
101.778
101.745
101.707
101.658
102.59
102.657
102.724
102.791
102.863
102.941
103.024
103.118
103.184
103.214
111.462
111.69
111.819
111.905
111.939
111.927
111.879
111.83
111.861
112.097
219.151
219.712
219.801
219.967
220.35
220.931
221.699
222.888
225.777
228.404
3670.32
3667.05
3665.45
3665.77
3668.09
3672.4
3678.58
3686.44
3694.79
3702.91
3080.75
3079.71
3079.73
3080.85
3083.1
3086.49
3091.08
3097.15
3106.37
3126.09
181.117
180.891
180.93
181.066
181.249
181.448
181.556
181.208
179.423
174.199
103.581
103.574
103.577
103.579
103.58
103.58
103.585
103.605
103.674
103.886
100.376
100.388
100.393
100.394
100.392
100.387
100.381
100.375
100.374
100.372
100.097
100.102
100.108
100.115
100.123
100.131
100.137
100.141
100.144
100.158
100.733
100.759
100.776
100.786
100.784
100.771
100.748
100.719
100.688
100.658
101.321
101.339
101.358
101.384
101.419
101.464
101.518
101.584
101.637
101.673
108.811
108.953
109.013
109.036
109.023
108.976
108.898
108.812
108.744
108.886
205.878
206.382
206.393
206.481
206.743
207.166
207.722
208.579
210.332
211.814
3466.34
3463.78
3462.57
3462.86
3464.68
3468.02
3472.77
3478.79
3485.41
3492.07
2908.95
2907.99
2908
2909.01
2911.04
2914.09
2918.21
2923.6
2931.55
2948.16
169.411
169.15
169.154
169.259
169.417
169.598
169.707
169.423
167.863
163.157
102.748
102.737
102.738
102.742
102.748
102.757
102.77
102.796
102.864
103.067
100.214
100.226
100.23
100.23
100.226
100.218
100.21
100.203
100.204
100.213
99.8714
99.8696
99.8707
99.8753
99.8826
99.8921
99.9029
99.9144
99.926
99.9469
100.276
100.289
100.297
100.3
100.297
100.288
100.273
100.255
100.235
100.218
100.676
100.674
100.674
100.686
100.709
100.744
100.789
100.845
100.894
100.939
106.848
106.939
106.966
106.967
106.949
106.909
106.845
106.774
106.676
106.789
192.425
192.887
192.864
192.919
193.117
193.448
193.877
194.461
195.457
196.226
3256.73
3254.71
3253.77
3254.01
3255.43
3258.02
3261.7
3266.4
3271.72
3277.27
2733.39
2732.52
2732.52
2733.42
2735.22
2737.93
2741.58
2746.32
2753.08
2766.73
157.408
157.13
157.103
157.175
157.297
157.442
157.527
157.276
155.888
151.592
102.031
102.02
102.02
102.025
102.034
102.046
102.062
102.088
102.148
102.329
100.136
100.146
100.151
100.15
100.145
100.138
100.129
100.122
100.123
100.14
99.8113
99.808
99.8077
99.8107
99.8168
99.8254
99.8359
99.8476
99.8599
99.8789
100.067
100.073
100.077
100.079
100.077
100.072
100.064
100.053
100.041
100.034
100.354
100.344
100.339
100.346
100.364
100.392
100.429
100.473
100.515
100.56
105.246
105.303
105.314
105.31
105.297
105.272
105.231
105.185
105.087
105.19
178.302
178.717
178.682
178.721
178.878
179.141
179.478
179.885
180.355
180.691
3042.69
3041.08
3040.34
3040.52
3041.64
3043.66
3046.54
3050.26
3054.59
3059.27
2554.91
2554.13
2554.13
2554.91
2556.49
2558.87
2562.07
2566.17
2571.83
2582.73
144.916
144.636
144.584
144.62
144.699
144.796
144.842
144.608
143.372
139.39
101.409
101.399
101.399
101.404
101.413
101.425
101.441
101.464
101.51
101.656
100.089
100.097
100.101
100.1
100.097
100.091
100.084
100.078
100.079
100.097
99.8262
99.8236
99.8231
99.8249
99.829
99.8349
99.8423
99.8507
99.8597
99.8731
99.985
99.9889
99.9911
99.9917
99.9906
99.9878
99.9829
99.9764
99.9687
99.9646
100.18
100.17
100.166
100.17
100.183
100.202
100.227
100.258
100.287
100.324
103.831
103.866
103.869
103.866
103.858
103.845
103.821
103.792
103.709
103.801
163.067
163.419
163.382
163.411
163.532
163.736
163.994
164.295
164.501
164.593
2825.65
2824.35
2823.76
2823.9
2824.77
2826.36
2828.65
2831.62
2835.15
2839.11
2374.35
2373.75
2373.75
2374.44
2375.82
2377.9
2380.68
2384.21
2388.87
2397.28
131.83
131.565
131.493
131.489
131.513
131.545
131.536
131.312
130.26
126.604
100.884
100.877
100.877
100.881
100.888
100.899
100.913
100.931
100.962
101.062
100.049
100.054
100.056
100.056
100.054
100.05
100.046
100.042
100.043
100.058
99.8719
99.8705
99.8702
99.8711
99.8731
99.8762
99.88
99.8844
99.8893
99.8966
99.9684
99.9711
99.9725
99.9727
99.9717
99.9693
99.9656
99.9606
99.955
99.9515
100.063
100.056
100.053
100.056
100.063
100.074
100.087
100.101
100.117
100.141
102.534
102.556
102.557
102.555
102.55
102.54
102.524
102.504
102.448
102.515
146.119
146.382
146.349
146.368
146.453
146.596
146.774
146.975
147.086
147.18
2607.11
2606.05
2605.57
2605.68
2606.36
2607.63
2609.47
2611.86
2614.75
2618.09
2192.43
2191.83
2191.83
2192.43
2193.61
2195.4
2197.78
2200.79
2204.57
2211
117.387
117.217
117.181
117.182
117.195
117.214
117.218
117.116
116.488
113.44
100.466
100.463
100.463
100.466
100.472
100.48
100.491
100.505
100.524
100.573
100.017
100.019
100.021
100.021
100.02
100.018
100.016
100.014
100.014
100.022
99.9313
99.9308
99.9306
99.931
99.9317
99.9328
99.9342
99.9357
99.9376
99.9403
99.9847
99.9865
99.9873
99.9873
99.9863
99.9844
99.9816
99.9779
99.9739
99.9709
99.992
99.9892
99.988
99.989
99.9919
99.9959
100
100.004
100.008
100.018
101.345
101.356
101.358
101.357
101.352
101.343
101.33
101.315
101.291
101.329
126.174
126.309
126.284
126.292
126.339
126.419
126.517
126.623
126.663
126.731
2387.88
2387
2386.6
2386.68
2387.23
2388.25
2389.74
2391.68
2394.07
2396.91
8538.5
9003.97
8766.79
7686.68
2.71894e+06
2.61872e+06
2.55751e+06
2.47539e+06
5.07806e+06
4.92435e+06
4.76453e+06
4.43139e+06
6.88261e+06
6.70474e+06
6.42665e+06
5.91469e+06
8.92507e+06
8.71328e+06
8.26542e+06
7.61996e+06
1.1449e+07
1.107e+07
1.03101e+07
9.43562e+06
1.37949e+07
1.32155e+07
1.21878e+07
1.11864e+07
1.49159e+07
1.41783e+07
1.29949e+07
1.19091e+07
1.03473e+07
9.67506e+06
8.70515e+06
7.81694e+06
9638.24
9841.99
9743.95
9573.3
6444.66
6785.28
6928.03
6756.55
1.77002e+06
1.42597e+06
1.38896e+06
1.41126e+06
2.85889e+06
2.41511e+06
2.33606e+06
2.20437e+06
3.71446e+06
3.27286e+06
3.15962e+06
2.84599e+06
4.70257e+06
4.29945e+06
4.07004e+06
3.55845e+06
5.96334e+06
5.46671e+06
4.88556e+06
4.05164e+06
7.07314e+06
6.43644e+06
5.50127e+06
4.47132e+06
7.62541e+06
6.8926e+06
5.73995e+06
4.49022e+06
6.00212e+06
5.34448e+06
4.30559e+06
3.18419e+06
9233.2
9313.49
9122.6
8755.02
5639.24
5782.28
5822.83
5730.8
179407
180654
164608
132300
350159
348816
311711
239416
529112
521661
460597
348571
764743
750240
655429
492582
1.09906e+06
1.07628e+06
929110
679900
1.48393e+06
1.44827e+06
1.23781e+06
895214
1.78811e+06
1.7294e+06
1.45428e+06
1.02999e+06
1.46329e+06
1.39061e+06
1.13741e+06
761765
7065.37
7152.73
7136.28
7040.79
5376.37
5441.74
5451.91
5391.95
17748.1
17958.7
16829.1
14187.2
38355.6
38452.8
34881.8
28453.4
63311.6
62268.1
55206.8
44108.8
99586.9
96552.9
84054.6
65421.3
154530
147896
126391
96230.2
224818
212845
179520
135199
289985
271620
226872
169903
232765
212102
173601
125707
6145.32
6197.99
6224.14
6229.43
5166.57
5214.42
5215.74
5166.42
2764.35
2816.77
2709.74
2480.91
5818.24
5936.75
5590.78
4932.57
9945.8
10018.1
9274.58
8028.28
16248.6
16175.3
14728.1
12466.5
26438.5
26098.3
23517.2
19687
40352.3
39569.3
35419.6
29468.7
54549.4
53222.8
47535.4
39482.3
43929.6
42243
37565.2
30534.5
5628.3
5663.79
5693.36
5717.31
4984.37
5025.01
5025.43
4983.1
761.89
761.433
749.131
729.793
1194.62
1211.76
1176.92
1104.27
2028.8
2049.63
1973.4
1832.25
3353.29
3374.94
3217.48
2944.53
5590.51
5623.25
5340.96
4860.37
8735.24
8782.33
8322.11
7540.37
12079.8
12155.1
11533.6
10434.8
9703.98
9704.59
9263.83
8297.2
5276.67
5296.52
5319.04
5345.6
4816.86
4853.39
4853.49
4815.73
409.645
404.902
401.832
400.995
367.066
369.204
364.685
354.695
563.106
566.866
558.602
541.108
893.908
901.35
884.182
848.224
1467.17
1486.82
1459.65
1396.26
2275.77
2317.05
2276.72
2170.82
3155.26
3230.23
3185.43
3034.36
2696.74
2760.04
2755.16
2627.72
5010.3
5020.96
5037.24
5061.79
4653.48
4686.91
4686.89
4652.58
318.719
314.51
312.935
314.031
184.528
184.666
183.626
181.518
232.969
233.371
232.265
229.842
327.523
328.977
326.758
321.217
493.196
498.367
496.231
487.274
722.926
735.124
733.769
719.138
984.507
1008.39
1011.29
991.395
1026.24
1050.84
1066.46
1055.22
4790.76
4795.91
4807.26
4828.04
4488.19
4518.72
4518.66
4487.51
283.255
279.953
278.958
280.233
135.329
135.313
134.888
134.076
145.139
145.076
144.881
144.543
175.772
175.966
175.536
174.442
229.644
230.803
230.764
229.375
301.855
304.909
305.639
303.61
394.639
401.202
403.957
401.718
553.967
562.653
570.754
573.136
4592.86
4594.71
4602.38
4619
4318.72
4346.32
4346.25
4318.21
263.347
260.81
260.167
261.369
118.942
118.972
118.737
118.25
117.511
117.427
117.387
117.378
128.689
128.674
128.531
128.232
148.742
148.971
149.012
148.784
174.481
175.197
175.54
175.316
215.824
217.622
218.717
218.679
386.662
389.883
393.527
396.288
4402.03
4401.96
4406.99
4419.85
4144.08
4168.67
4168.61
4143.71
248.723
246.831
246.427
247.455
112.315
112.395
112.249
111.889
107.381
107.329
107.326
107.365
111.732
111.704
111.638
111.523
120.207
120.239
120.253
120.218
130.798
130.949
131.073
131.101
153.918
154.445
154.844
154.974
311.811
313.032
314.738
316.703
4211.5
4210.38
4213.6
4223.36
3963.86
3985.38
3985.31
3963.6
236.105
234.83
234.596
235.322
109.116
109.228
109.135
108.845
103.266
103.239
103.245
103.281
104.894
104.878
104.843
104.785
108.783
108.779
108.781
108.779
113.727
113.74
113.782
113.833
129.07
129.236
129.379
129.457
270.894
271.269
272.127
273.513
4018.62
4017
4019.01
4026.3
3777.97
3796.38
3796.31
3777.77
224.271
223.707
223.598
223.82
107.261
107.393
107.333
107.089
101.506
101.494
101.501
101.524
101.974
101.969
101.949
101.915
103.836
103.829
103.829
103.83
106.396
106.378
106.392
106.434
117.743
117.797
117.846
117.878
244.386
244.351
244.812
245.855
3822.3
3820.53
3821.75
3827.12
3586.54
3602.1
3602.05
3586.38
212.641
212.54
212.485
212.429
105.971
106.112
106.075
105.865
100.737
100.735
100.741
100.752
100.712
100.713
100.702
100.681
101.627
101.624
101.623
101.624
103.097
103.076
103.081
103.113
112.018
112.038
112.051
112.055
224.478
224.221
224.478
225.323
3622.12
3620.42
3621.14
3625.02
3389.94
3402.88
3402.85
3389.85
200.881
200.959
200.925
200.747
104.933
105.075
105.054
104.87
100.402
100.406
100.41
100.411
100.179
100.183
100.177
100.163
100.642
100.641
100.641
100.641
101.587
101.571
101.574
101.597
108.799
108.812
108.813
108.8
207.598
207.218
207.362
208.083
3418.05
3416.56
3416.96
3419.71
3188.78
3199.21
3199.19
3188.74
188.524
188.698
188.678
188.447
104.016
104.155
104.143
103.982
100.258
100.266
100.268
100.261
99.9671
99.9714
99.9683
99.9588
100.212
100.213
100.213
100.211
100.883
100.874
100.877
100.892
106.73
106.747
106.743
106.717
191.959
191.524
191.603
192.229
3210.36
3209.14
3209.35
3211.25
2983.75
2991.8
2991.79
2983.73
175.397
175.549
175.539
175.357
103.164
103.296
103.29
103.148
100.193
100.205
100.205
100.192
99.8953
99.8988
99.897
99.8906
100.032
100.033
100.032
100.03
100.531
100.529
100.531
100.539
105.174
105.2
105.194
105.154
176.612
176.189
176.229
176.751
2999.63
2998.72
2998.82
3000.07
2775.86
2781.72
2781.72
2775.85
161.244
161.195
161.192
161.228
102.354
102.47
102.468
102.349
100.151
100.165
100.164
100.149
99.8841
99.8864
99.8851
99.8809
99.9638
99.964
99.9628
99.9596
100.316
100.319
100.32
100.321
103.824
103.861
103.852
103.797
161.024
160.718
160.734
161.085
2786.82
2786.2
2786.24
2787
2566.42
2570.34
2570.34
2566.42
145.543
145.024
145.024
145.539
101.58
101.668
101.667
101.579
100.102
100.114
100.113
100.1
99.9022
99.9032
99.9023
99.8999
99.9497
99.9488
99.9469
99.944
100.146
100.152
100.153
100.15
102.54
102.579
102.567
102.504
144.354
144.182
144.195
144.4
2573.17
2572.84
2572.85
2573.22
2356.1
2358.48
2358.48
2356.1
126.768
125.624
125.623
126.766
100.854
100.897
100.897
100.855
100.044
100.051
100.05
100.043
99.942
99.9421
99.9415
99.9406
99.9682
99.9667
99.965
99.963
100.026
100.03
100.032
100.029
101.309
101.323
101.309
101.27
124.916
124.913
124.925
124.955
2359.32
2359.23
2359.23
2359.32
6110.86
5480.66
5193.67
5080.52
5028.36
4984.37
4939.99
4901.18
4872.46
4854.47
1.84344e+06
554620
126982
37707.3
17978.2
10754
7479.4
5869.01
5170.73
5084.09
2.33612e+06
403566
87050.9
33447.4
17941.2
11689
8776.93
7331.74
6702.8
6689.45
2.2676e+06
258594
68983.7
27282.2
14841.6
9705.15
7282.44
6063
5507.66
5501.31
2.05644e+06
237315
62594.2
24596.1
13030.7
8290.6
6064.65
4943.65
4403.92
4375.08
1.9728e+06
256550
64434.7
24243.8
12149.1
7366.28
5161.71
4066.04
3520.11
3444.27
2.07719e+06
287138
65930.3
23375
11036.8
6407.98
4328.84
3316.03
2798.48
2695.72
2.09946e+06
292441
59429.6
19614.6
8696.55
4861.78
3198.54
2415.46
2019.8
1923.3
1.46838e+06
179936
29522.1
8926.8
3897.08
2300.13
1625.92
1315.78
1161.2
1114.34
9368.42
7010.31
6391.24
6122.13
5954.67
5844.03
5770.52
5718.6
5675.77
5645.83
5745.11
5332.87
5132.9
5022.09
4951.62
4898.28
4854.55
4819.86
4795.64
4781.51
654909
196960
61883.5
23303.8
11211.5
6609.12
4536.67
3503.62
3019.51
2870.92
808563
197582
58144.4
22448.3
11637.8
7406.05
5446.72
4462.98
4006.46
3911.02
844214
174703
49127.7
19020.5
10027.6
6430.46
4746
3894.92
3487.94
3412.27
887996
165499
45461.6
17533.7
9092.34
5708.2
4128.97
3334.74
2936.15
2852.24
1.01141e+06
179499
47774.2
17786.2
8795.85
5281.54
3669.45
2869.71
2456.85
2345.56
1.18426e+06
202330
50221.2
17668.7
8268.03
4762.5
3196.07
2435.88
2034.59
1909.34
1.29493e+06
210662
46910.7
15337.3
6749.72
3745.62
2450.55
1843.17
1528.3
1421.34
953299
134267
24599
7358.23
3233.78
1923.59
1366.59
1106.22
975.15
926.271
8139.24
6698.27
6196.64
5962.5
5818.14
5721.09
5654.5
5605.92
5564.59
5532.15
5229.63
5050.08
4952.9
4885.15
4831.49
4787.63
4752.8
4726.79
4709.57
4700.23
63143.9
27614.2
13401.3
7318.24
4460.21
3007.28
2237.07
1819.19
1616.71
1552.66
95594.4
36895.1
16982.7
8928.22
5418.92
3708.78
2821.22
2349.72
2126.96
2078.74
118361
40266.2
17390.3
8742.2
5193.5
3515.91
2662.56
2214.22
1998.18
1955.45
145603
44339.3
18255
8777.05
5032.98
3317.35
2461.9
2019.17
1795.76
1744.76
192697
54290.7
20855.8
9453.95
5131.9
3229.43
2302.9
1830.61
1585.02
1513.58
255146
66150.4
23021.7
9794.2
5026.38
3034.95
2092.52
1623.83
1374.39
1291.35
307762
72746.6
22100.8
8792.72
4258.49
2484.12
1674.28
1285.51
1083.51
1012.66
223417
44904.8
11276.3
4396.24
2227.41
1435.59
1067.14
886.308
796.413
763.745
6967.8
6309.28
5978.99
5799.61
5683.36
5602.97
5545
5500.28
5460.35
5427.87
4946.49
4841.06
4778.62
4731.67
4694.03
4663.97
4640.85
4624.14
4613.65
4608.77
9585.03
5913.7
3745.4
2481.34
1754.19
1336.02
1097.28
961.243
895.815
878.88
16737.8
9252.09
5435.55
3371.08
2274.58
1671.36
1333.26
1145.41
1056.75
1040.87
23396.5
11653.4
6343.76
3720.85
2428.39
1747.7
1377.34
1175.15
1078.09
1061.56
31580.2
14340.2
7288.21
4044.12
2534.32
1772.46
1369.29
1154.44
1046.59
1023.98
45262.6
19020.4
8884.05
4628.17
2740.38
1828.57
1358.29
1111.32
983.016
946.527
63659.6
24259
10228.1
5014.44
2810.3
1800.91
1295.46
1037.05
899.343
853.764
81691.5
27454.4
10133.4
4695.01
2494.97
1551.7
1095.8
870.872
754.341
714.359
61092.3
16840.8
5371.32
2605.23
1514.95
1065.71
835.273
715.52
657.044
636.439
6302.48
5946.71
5738.88
5609.66
5521.79
5457.44
5408.84
5369.83
5333.8
5304.15
4725.05
4651.5
4610.28
4580.78
4557.55
4539.03
4524.77
4514.61
4508.63
4506.61
2061.42
1574.03
1201.93
946.421
781.588
678.475
615.966
578.719
562.259
561.967
3734.17
2537.3
1736.84
1229
920.764
734.341
622.733
558.234
528.436
525.522
5731.24
3583.87
2262.93
1507.52
1081.52
836.136
694.262
613.784
575.531
570.998
8365.43
4829.3
2816.67
1768.72
1214.46
911.134
741.761
649.006
602.933
595.061
12825.3
6857.03
3659.02
2152.51
1393.42
996.493
780.556
663.755
603.254
587.169
18836.1
9113.33
4408.67
2444.68
1498.77
1030.17
782.768
652.739
583.379
561.072
25085.4
10577.1
4556.97
2407.96
1408.12
944.463
707.578
587.203
525.07
504.62
19097.1
6590.65
2700.09
1586.68
1053.5
805.005
663.955
585.944
548.896
536.03
5821.11
5629.89
5511.49
5423.35
5358.65
5307.59
5267.14
5233.6
5201.69
5175.25
4547.79
4490.07
4460.62
4440.93
4425.74
4413.64
4404.4
4398.03
4394.74
4394.42
661.54
600.628
539.392
490.459
455.762
432.772
418.511
410.078
407.988
411.971
965.304
765.839
601.381
483.313
403.524
351.57
318.895
299.524
291.232
292.1
1549.21
1143.22
828.208
624.61
495.675
415.421
366.459
337.607
324.214
323.942
2385.41
1627.55
1087.6
772.696
586.255
476.615
412.42
376.44
358.949
357.279
3844.87
2425.6
1484.83
986.088
704.22
545.579
454.79
404.217
378.174
372.212
5832.06
3331.25
1862.81
1166.22
789.428
588.32
476.521
416.098
383.801
374.051
7935.81
3975.45
2025.69
1215.92
790.827
577.729
462.441
401.934
370.889
361.418
6187.15
2711.85
1473.22
1020.39
762.832
625.387
539.182
488.261
465.08
457.011
5461.98
5365.21
5300
5240.48
5192.64
5152.14
5118.73
5090.37
5062.74
5039.8
4392.7
4343.62
4320.13
4305.22
4293.98
4285.19
4278.66
4274.44
4272.68
4273.31
362.898
360.934
352.554
343.864
337.252
333.004
330.743
329.892
331.332
335.69
333.846
297.686
263.806
237.226
217.885
204.681
196.159
191.116
189.462
190.84
501.737
421.482
348.406
295.893
259.325
235.023
219.459
209.896
205.685
206.425
761.262
594.116
456.698
367.199
309.076
272.713
250.557
237.936
232.097
232.46
1228.44
889.778
630.226
473.905
376.429
317.621
282.27
261.985
251.683
250.039
1867.85
1232.71
805.713
571.688
431.711
351.257
304.124
277.912
263.878
260.127
2561.56
1512.65
922.756
630.856
460.858
368.219
314.929
285.97
271.326
267.425
2209.91
1280.94
895.736
705.195
579.701
502.499
449.339
415.708
401.27
396.075
5181.96
5135.98
5098.83
5058.12
5022.4
4990.43
4963.2
4939.75
4916.46
4897.15
4245.35
4201.47
4181.17
4168.69
4159.48
4152.45
4147.4
4144.38
4143.48
4144.6
279.394
286.31
287.399
286.636
285.907
285.752
286.148
286.976
288.886
292.624
176.316
168.802
161.574
155.65
151.202
148.151
146.24
145.225
145.276
146.37
223.818
207.163
190.122
176.767
166.722
159.653
154.904
151.835
150.631
151.36
305.612
267.595
233.357
208.789
191.648
180.356
173.275
169.244
167.609
168.359
457.12
376.189
306.898
259.668
227.615
206.94
193.902
186.212
182.445
182.348
662.441
504.004
384.782
309.327
259.95
229.333
210.399
199.588
193.828
192.627
899.649
630.241
458.412
356.619
291.354
252.393
228.493
215.067
208.52
207.189
978.44
732.794
609.226
525.375
462.498
418.048
384.729
362.102
353.053
349.536
4946.75
4925.33
4902.38
4873.95
4847.1
4822.13
4800.33
4781.44
4762.4
4746.7
4097.95
4058.07
4039.94
4028.93
4020.91
4014.9
4010.72
4008.37
4007.92
4009.27
246.693
254.776
257.522
258.22
258.539
259.027
259.724
260.635
262.228
265.207
131.483
129.496
127.829
126.506
125.568
125.005
124.756
124.757
125.121
125.87
143.611
139.929
135.763
132.273
129.471
127.394
125.931
124.927
124.621
125.136
171.057
161.844
153.188
146.502
141.588
138.232
136.122
134.978
134.685
135.323
223.427
203.636
185.077