/*--------------------------------*- C++ -*----------------------------------*\
| =========                 |                                                 |
| \\      /  F ield         | foam-extend: Open Source CFD                    |
|  \\    /   O peration     | Version:     4.0                                |
|   \\  /    A nd           | Web:         http://www.foam-extend.org         |
|    \\/     M anipulation  |                                                 |
\*---------------------------------------------------------------------------*/
FoamFile
{
    version     2.0;
    format      ascii;
    class       volScalarField;
    location    "2800";
    object      MaU;
}
// * * * * * * * * * * * * * * * * * * * * * * * * * * * * * * * * * * * * * //

dimensions      [0 0 0 0 0 0 0];

internalField   nonuniform List<scalar> 
34480
(
0.634088
0.639237
0.644164
0.649099
0.654323
0.659722
0.663456
0.659768
0.638853
0.573126
0.641733
0.647865
0.653509
0.658754
0.664121
0.670064
0.675918
0.677772
0.66746
0.613016
0.645501
0.652468
0.659026
0.665277
0.671655
0.678888
0.68698
0.693031
0.690591
0.646289
0.64645
0.654922
0.66308
0.671034
0.679032
0.687779
0.697682
0.706855
0.71053
0.674009
0.647014
0.65681
0.66635
0.675806
0.685327
0.695529
0.707031
0.718845
0.727671
0.697135
0.646456
0.657292
0.66787
0.67846
0.689189
0.700601
0.713418
0.727434
0.74064
0.715014
0.646265
0.657773
0.668957
0.680204
0.691663
0.703861
0.717647
0.733627
0.751011
0.73022
0.645316
0.657133
0.668534
0.67998
0.691634
0.704028
0.71817
0.735579
0.756971
0.741417
0.645102
0.656992
0.668437
0.67998
0.691777
0.70428
0.718516
0.736855
0.762001
0.750992
0.640778
0.652727
0.664246
0.675801
0.687385
0.699337
0.712732
0.730743
0.759204
0.753699
0.60903
0.611882
0.613398
0.613299
0.611126
0.606053
0.59679
0.581606
0.555946
0.501392
0.622612
0.626904
0.630022
0.631541
0.631132
0.628098
0.620904
0.607305
0.583713
0.528624
0.630141
0.63552
0.639898
0.643007
0.644513
0.6439
0.639738
0.629285
0.60913
0.555036
0.633616
0.640521
0.646587
0.651631
0.655225
0.656875
0.655283
0.647631
0.630779
0.578619
0.635908
0.644152
0.651679
0.658369
0.663802
0.667447
0.668108
0.663067
0.649403
0.599693
0.636654
0.645994
0.654666
0.662632
0.669538
0.674829
0.677393
0.674698
0.663903
0.616315
0.637429
0.64752
0.656933
0.665736
0.673658
0.680177
0.684319
0.683874
0.676074
0.6311
0.637162
0.647673
0.657478
0.666727
0.675223
0.682512
0.687804
0.689359
0.684789
0.643434
0.637143
0.647778
0.657736
0.667267
0.676257
0.684284
0.69061
0.693908
0.692703
0.655109
0.63328
0.643974
0.654087
0.663757
0.672818
0.6809
0.687492
0.691714
0.693981
0.661179
0.590465
0.59199
0.592008
0.590303
0.586488
0.580029
0.570225
0.556265
0.536761
0.508845
0.60665
0.609553
0.611049
0.610763
0.608197
0.602577
0.592764
0.577197
0.553538
0.517871
0.616358
0.62044
0.623242
0.624424
0.623522
0.619699
0.611475
0.5966
0.571732
0.530067
0.62164
0.627194
0.631604
0.634583
0.635567
0.633682
0.627225
0.613371
0.587949
0.541381
0.625285
0.632153
0.637998
0.642581
0.6453
0.645258
0.640608
0.628096
0.602801
0.552642
0.627101
0.635085
0.642114
0.648001
0.652187
0.653746
0.650761
0.6397
0.614942
0.562294
0.628686
0.637472
0.645326
0.652146
0.65744
0.660301
0.658834
0.649408
0.625786
0.571912
0.629055
0.638339
0.646701
0.654117
0.660177
0.664024
0.663864
0.656154
0.63424
0.5803
0.629439
0.638885
0.647453
0.655205
0.661855
0.666619
0.667791
0.661927
0.642143
0.588152
0.626216
0.635705
0.644435
0.652335
0.659093
0.663988
0.665764
0.661363
0.644182
0.590315
0.577381
0.578104
0.577505
0.575457
0.571777
0.566271
0.558827
0.549574
0.538822
0.526266
0.593779
0.595603
0.596034
0.594808
0.591569
0.585857
0.577124
0.564866
0.548658
0.528754
0.604424
0.607362
0.608933
0.608819
0.606607
0.601661
0.593078
0.579758
0.560492
0.534559
0.610847
0.615131
0.618114
0.619465
0.618654
0.614882
0.60691
0.593025
0.571169
0.539319
0.615505
0.621029
0.625327
0.628097
0.628705
0.626249
0.6192
0.605272
0.581499
0.544431
0.618198
0.624817
0.630257
0.634252
0.63614
0.634942
0.628896
0.615217
0.590001
0.54838
0.620486
0.627926
0.634214
0.639146
0.642082
0.642006
0.637014
0.623945
0.597976
0.552798
0.621427
0.629416
0.636276
0.641867
0.645612
0.646494
0.642562
0.630411
0.604411
0.556704
0.622142
0.630341
0.63745
0.643403
0.647729
0.649485
0.646757
0.635959
0.610695
0.560699
0.61936
0.627623
0.634932
0.641083
0.645614
0.647606
0.645439
0.63578
0.612125
0.560154
0.569354
0.569705
0.569082
0.567439
0.564731
0.560944
0.55618
0.550836
0.545773
0.541507
0.58423
0.585351
0.585298
0.583917
0.581023
0.57642
0.569949
0.561606
0.551683
0.5412
0.594591
0.596658
0.597459
0.59676
0.594275
0.589633
0.582414
0.57228
0.559185
0.544182
0.601395
0.604625
0.606563
0.606911
0.605264
0.601054
0.59355
0.581962
0.565724
0.545728
0.606592
0.610948
0.614017
0.615494
0.614848
0.611353
0.60397
0.591407
0.572399
0.547471
0.60985
0.615241
0.619346
0.621879
0.622221
0.619526
0.612468
0.599251
0.577793
0.548113
0.612637
0.618839
0.62376
0.627156
0.628374
0.626487
0.619938
0.60648
0.583129
0.549239
0.614022
0.620799
0.62631
0.630358
0.632313
0.631199
0.625307
0.612009
0.587409
0.549962
0.615054
0.62208
0.62787
0.632283
0.634757
0.634352
0.629319
0.61672
0.591696
0.551013
0.612639
0.619757
0.625772
0.630409
0.633126
0.63298
0.628364
0.616364
0.591855
0.548401
0.565042
0.56523
0.564767
0.56365
0.561894
0.559547
0.55675
0.553899
0.551901
0.551649
0.577606
0.578286
0.578074
0.576891
0.574672
0.571377
0.567027
0.561768
0.555956
0.550334
0.58689
0.588309
0.588664
0.587807
0.585576
0.581804
0.576371
0.569303
0.560923
0.552237
0.593469
0.595843
0.597045
0.596846
0.594976
0.591102
0.584885
0.576106
0.564901
0.552536
0.598782
0.602133
0.604249
0.604862
0.603583
0.599912
0.59326
0.583068
0.569108
0.552802
0.602306
0.6066
0.609604
0.61105
0.610435
0.607121
0.600252
0.588881
0.572254
0.551848
0.60539
0.610454
0.614198
0.616376
0.61641
0.613554
0.606704
0.594515
0.575562
0.551224
0.607077
0.612716
0.617028
0.619794
0.62042
0.61808
0.611469
0.598855
0.578055
0.550112
0.608363
0.614283
0.618888
0.622002
0.623052
0.621206
0.615059
0.602547
0.580629
0.54935
0.606224
0.612257
0.617102
0.620449
0.621745
0.620129
0.614228
0.601844
0.579654
0.545526
0.563227
0.56335
0.563064
0.562385
0.561343
0.559988
0.558439
0.557024
0.556599
0.558387
0.573349
0.573767
0.573558
0.572689
0.571151
0.568968
0.566214
0.563042
0.55971
0.556647
0.581147
0.582105
0.582234
0.581452
0.579686
0.576888
0.573076
0.568389
0.563163
0.558067
0.587077
0.588784
0.589501
0.589074
0.587344
0.584152
0.579393
0.57311
0.565641
0.557967
0.592152
0.594672
0.596087
0.596188
0.594716
0.591377
0.585894
0.578132
0.568303
0.557696
0.595672
0.599016
0.601155
0.601856
0.600756
0.597426
0.591387
0.582254
0.569987
0.556151
0.598859
0.602908
0.605681
0.606954
0.606271
0.603089
0.596714
0.586471
0.571919
0.55481
0.600697
0.605297
0.608586
0.610348
0.610084
0.607157
0.600677
0.589652
0.573124
0.552861
0.602164
0.607062
0.610641
0.612717
0.612769
0.610128
0.603772
0.592425
0.574495
0.551285
0.600217
0.605241
0.609059
0.611354
0.611623
0.609148
0.602878
0.591337
0.572707
0.547029
0.562908
0.563003
0.562848
0.562466
0.561882
0.561136
0.560313
0.559675
0.560019
0.56285
0.570849
0.57111
0.570959
0.570382
0.56939
0.568021
0.566346
0.56448
0.562586
0.560893
0.57707
0.57771
0.577741
0.577124
0.575835
0.573885
0.571334
0.568325
0.565107
0.562077
0.58212
0.583323
0.58374
0.583272
0.581843
0.579397
0.575944
0.571615
0.566727
0.561922
0.586705
0.588559
0.589481
0.58932
0.587922
0.585139
0.580885
0.575219
0.568464
0.561547
0.590003
0.59255
0.594034
0.594268
0.593013
0.590014
0.585051
0.578052
0.569265
0.559919
0.593125
0.596293
0.598296
0.598941
0.597903
0.594822
0.589319
0.581142
0.57035
0.558441
0.594969
0.598644
0.601092
0.602114
0.601329
0.598286
0.592445
0.583332
0.570715
0.556258
0.596543
0.600515
0.603233
0.604519
0.603947
0.601018
0.595062
0.585391
0.571375
0.554537
0.594714
0.598814
0.601754
0.603229
0.602824
0.599982
0.593978
0.583932
0.569067
0.550263
0.563382
0.563462
0.563388
0.563185
0.562871
0.562474
0.562051
0.561816
0.562516
0.565875
0.569556
0.569724
0.569632
0.569276
0.568671
0.567848
0.56686
0.565783
0.564714
0.563768
0.574314
0.574738
0.574738
0.574296
0.573411
0.572112
0.570462
0.568573
0.566609
0.564797
0.578419
0.579253
0.579493
0.579082
0.577989
0.576211
0.573802
0.570897
0.567738
0.564717
0.582367
0.583705
0.584294
0.584035
0.582843
0.580664
0.577506
0.573496
0.56893
0.564415
0.585292
0.587192
0.588199
0.588173
0.586971
0.584462
0.580579
0.575399
0.569234
0.562942
0.58822
0.590646
0.592059
0.592306
0.591168
0.588436
0.583939
0.577658
0.56985
0.561626
0.589943
0.592816
0.594595
0.59511
0.59409
0.591244
0.586289
0.57907
0.569715
0.55953
0.591557
0.594712
0.596727
0.597447
0.59655
0.593694
0.588484
0.580627
0.570031
0.558031
0.589783
0.593056
0.595266
0.596137
0.595349
0.592504
0.587154
0.578849
0.567429
0.553943
0.564202
0.564271
0.564242
0.564139
0.563975
0.563767
0.563557
0.56352
0.564361
0.567971
0.569037
0.569147
0.569099
0.568891
0.568537
0.568057
0.567488
0.566875
0.566276
0.565745
0.572539
0.572819
0.572815
0.57252
0.571943
0.571109
0.57007
0.568904
0.567712
0.566625
0.575756
0.576326
0.576467
0.576148
0.575359
0.57412
0.57249
0.57058
0.568556
0.566655
0.579012
0.57996
0.580334
0.58007
0.579129
0.577503
0.57524
0.572469
0.569422
0.56648
0.581482
0.582869
0.583541
0.583398
0.58236
0.580374
0.577455
0.573726
0.56947
0.565253
0.584133
0.585951
0.586927
0.586946
0.585874
0.583601
0.580083
0.575408
0.569869
0.564233
0.585633
0.587829
0.589094
0.589288
0.588234
0.585763
0.581756
0.576235
0.569458
0.562364
0.587238
0.589688
0.591147
0.591489
0.590485
0.587922
0.583604
0.577466
0.569665
0.561234
0.585465
0.588016
0.589639
0.590089
0.589143
0.586535
0.582026
0.575443
0.566932
0.557421
0.565112
0.565172
0.565165
0.565114
0.56503
0.564923
0.564821
0.564874
0.565741
0.569442
0.568975
0.569047
0.569026
0.568911
0.568709
0.568436
0.568113
0.567769
0.567436
0.567137
0.571452
0.571636
0.571636
0.57145
0.571088
0.570569
0.56993
0.56922
0.568502
0.56785
0.573911
0.574295
0.574381
0.574152
0.573609
0.572776
0.571702
0.570467
0.569182
0.567985
0.57649
0.577149
0.577385
0.577161
0.57646
0.575296
0.573723
0.571848
0.569836
0.567925
0.578482
0.579474
0.579915
0.57974
0.578907
0.577407
0.575285
0.572665
0.569769
0.566959
0.580816
0.582149
0.582811
0.58272
0.581799
0.580004
0.577353
0.573967
0.570104
0.566274
0.582021
0.583661
0.58454
0.584551
0.583587
0.581562
0.578454
0.574357
0.569547
0.564661
0.583588
0.585448
0.586479
0.586587
0.585621
0.583462
0.580039
0.575403
0.569788
0.563942
0.581774
0.583713
0.584875
0.585055
0.584106
0.581868
0.578241
0.573208
0.567028
0.560419
0.565978
0.56603
0.566032
0.566008
0.565965
0.565909
0.565862
0.565948
0.566778
0.570473
0.569158
0.569207
0.5692
0.569138
0.569026
0.568873
0.568692
0.5685
0.568317
0.568148
0.570821
0.570941
0.570945
0.570833
0.570613
0.570298
0.569912
0.569486
0.569057
0.568667
0.572683
0.572938
0.572993
0.572838
0.572479
0.571935
0.571242
0.570457
0.569648
0.568898
0.574642
0.575091
0.575241
0.575069
0.574571
0.573766
0.572701
0.571457
0.570145
0.568911
0.576179
0.576874
0.577161
0.576997
0.576365
0.575276
0.57378
0.571981
0.570037
0.568179
0.578196
0.579151
0.579592
0.579464
0.578725
0.577369
0.575437
0.573045
0.570394
0.567816
0.579057
0.580253
0.580851
0.580774
0.579962
0.578381
0.576056
0.573101
0.569751
0.566426
0.580586
0.581964
0.582675
0.582656
0.581809
0.580082
0.577471
0.574074
0.570116
0.566113
0.578698
0.580131
0.580944
0.580966
0.58011
0.578291
0.57549
0.571765
0.567382
0.562855
0.566739
0.566785
0.56679
0.566779
0.566756
0.566727
0.566705
0.566795
0.567554
0.57117
0.569458
0.56949
0.569491
0.569458
0.569396
0.569311
0.56921
0.569103
0.569003
0.568908
0.570472
0.570549
0.570554
0.57049
0.57036
0.570173
0.569944
0.569691
0.569437
0.569206
0.571905
0.572072
0.572108
0.572008
0.571777
0.571431
0.570994
0.570501
0.569997
0.569529
0.573319
0.57362
0.573716
0.573593
0.573252
0.572712
0.572009
0.571198
0.570354
0.569564
0.574456
0.574932
0.575116
0.574983
0.574526
0.573762
0.572736
0.571526
0.570242
0.569026
0.576179
0.576849
0.577138
0.577012
0.576451
0.575465
0.574099
0.572449
0.570661
0.568944
0.576674
0.577524
0.577923
0.577815
0.577172
0.575989
0.574308
0.572233
0.569944
0.567711
0.578186
0.579183
0.579662
0.579585
0.578894
0.577573
0.575651
0.573231
0.570496
0.56779
0.576197
0.577227
0.57778
0.577724
0.577009
0.575598
0.573515
0.570839
0.567801
0.564746
0.567375
0.567415
0.56742
0.567416
0.567403
0.567388
0.567377
0.567456
0.568121
0.571598
0.569802
0.569823
0.569826
0.569809
0.569775
0.569727
0.56967
0.569611
0.569557
0.569501
0.57028
0.570329
0.570334
0.570298
0.570223
0.570114
0.56998
0.569833
0.569684
0.569548
0.571443
0.571551
0.571575
0.571513
0.571369
0.571153
0.570882
0.570578
0.570266
0.569978
0.572393
0.57259
0.572651
0.572568
0.572343
0.57199
0.571536
0.571018
0.570482
0.569983
0.573199
0.573518
0.573635
0.573535
0.573218
0.572699
0.572013
0.571217
0.570382
0.569598
0.574668
0.575127
0.575313
0.575208
0.574802
0.57411
0.573172
0.57206
0.570874
0.569745
0.574789
0.575377
0.575636
0.575531
0.575048
0.574196
0.573018
0.571598
0.570066
0.568589
0.576332
0.577035
0.577351
0.577259
0.576726
0.575756
0.574389
0.572709
0.570857
0.569054
0.574212
0.574929
0.575297
0.575212
0.57465
0.573602
0.572107
0.57024
0.568181
0.566152
0.567878
0.567914
0.567918
0.567916
0.567909
0.5679
0.567893
0.567956
0.568512
0.571786
0.570157
0.570171
0.570174
0.570165
0.570146
0.570119
0.570086
0.570052
0.570023
0.569989
0.570161
0.570191
0.570195
0.570176
0.570133
0.570071
0.569994
0.569908
0.569822
0.569744
0.571199
0.571268
0.571284
0.571247
0.571159
0.571028
0.570863
0.570677
0.570488
0.57031
0.57176
0.571886
0.571925
0.571871
0.571727
0.571502
0.571215
0.57089
0.570555
0.570244
0.572311
0.57252
0.572594
0.572523
0.57231
0.571968
0.571521
0.571008
0.570475
0.569977
0.573567
0.573873
0.573993
0.573912
0.57363
0.573161
0.572536
0.571804
0.571033
0.570301
0.573313
0.573709
0.573874
0.573785
0.573438
0.572846
0.572045
0.571099
0.570095
0.569138
0.574959
0.575443
0.575647
0.575562
0.575171
0.574486
0.573544
0.572409
0.571181
0.569996
0.572663
0.573145
0.573384
0.5733
0.572881
0.572132
0.571095
0.569829
0.568466
0.567143
0.568229
0.568261
0.568264
0.568264
0.56826
0.568254
0.568249
0.568294
0.568731
0.571729
0.57052
0.570529
0.570532
0.570526
0.570515
0.570499
0.57048
0.57046
0.570444
0.570422
0.570058
0.570076
0.57008
0.570069
0.570045
0.570009
0.569965
0.569917
0.569868
0.569824
0.571101
0.571145
0.571156
0.571135
0.571083
0.571005
0.570906
0.570796
0.570682
0.570575
0.571345
0.571424
0.571448
0.571414
0.571324
0.571184
0.571007
0.570806
0.570601
0.57041
0.571715
0.571849
0.571895
0.571847
0.571709
0.571489
0.571205
0.570882
0.570547
0.570237
0.572791
0.57299
0.573065
0.573008
0.57282
0.572512
0.572107
0.571637
0.571147
0.570681
0.572171
0.572429
0.572532
0.572463
0.572223
0.571825
0.571296
0.570682
0.570038
0.569433
0.574007
0.574332
0.574461
0.574392
0.574119
0.573652
0.573024
0.572277
0.571482
0.570712
0.571444
0.571758
0.571909
0.571837
0.571539
0.571025
0.570329
0.569494
0.568615
0.567769
0.568348
0.568376
0.568379
0.56838
0.568379
0.568377
0.568374
0.568403
0.568717
0.571346
0.570912
0.570918
0.570919
0.570916
0.57091
0.5709
0.570889
0.570878
0.570869
0.570853
0.56995
0.56996
0.569962
0.569955
0.569941
0.56992
0.569894
0.569866
0.569838
0.569813
0.5711
0.571128
0.571136
0.571125
0.571096
0.571051
0.570994
0.57093
0.570864
0.5708
0.571102
0.57115
0.571165
0.571144
0.571088
0.571003
0.570895
0.570773
0.570648
0.570532
0.571359
0.571443
0.571471
0.57144
0.571353
0.571215
0.571039
0.570838
0.570631
0.57044
0.572271
0.572397
0.572444
0.572405
0.572284
0.572089
0.571834
0.571542
0.571239
0.570948
0.571322
0.571486
0.571548
0.571498
0.571338
0.571077
0.570735
0.570345
0.569937
0.569566
0.573441
0.573653
0.573733
0.573682
0.573498
0.573192
0.572785
0.572306
0.571804
0.571306
0.570398
0.570596
0.570688
0.570633
0.57043
0.570088
0.569634
0.569098
0.568545
0.568016
0.568039
0.56806
0.568063
0.568065
0.568065
0.568064
0.568062
0.568078
0.568271
0.570413
0.571401
0.571406
0.571407
0.571406
0.571404
0.5714
0.571396
0.571391
0.571387
0.571377
0.569867
0.569871
0.56987
0.569865
0.569854
0.56984
0.569822
0.569802
0.569782
0.569766
0.571156
0.571174
0.57118
0.571176
0.571161
0.571137
0.571107
0.571072
0.571036
0.571001
0.571001
0.57103
0.571039
0.571026
0.570992
0.57094
0.570874
0.5708
0.570724
0.570653
0.571205
0.571257
0.571274
0.571255
0.571201
0.571116
0.571007
0.570883
0.570756
0.570638
0.571964
0.572041
0.57207
0.572045
0.57197
0.571848
0.571692
0.571515
0.571333
0.571156
0.570811
0.570914
0.570951
0.570916
0.570811
0.570642
0.570422
0.570173
0.569912
0.569686
0.573284
0.573418
0.573467
0.573432
0.573312
0.573116
0.57286
0.57256
0.572252
0.571925
0.56927
0.569394
0.569449
0.56941
0.569275
0.569053
0.568762
0.568421
0.568079
0.56775
0.567011
0.56703
0.567029
0.567024
0.567017
0.567007
0.566995
0.566988
0.56706
0.568534
0.572134
0.572141
0.572143
0.572146
0.57215
0.572155
0.572161
0.572167
0.572173
0.572174
0.569912
0.569912
0.569909
0.569903
0.569892
0.569878
0.56986
0.56984
0.569819
0.569796
0.571226
0.571239
0.571244
0.571243
0.571237
0.571226
0.571211
0.571195
0.571179
0.571164
0.571009
0.571027
0.571032
0.571024
0.571003
0.57097
0.570929
0.570882
0.570833
0.570787
0.571202
0.571235
0.571246
0.571234
0.5712
0.571146
0.571077
0.570999
0.570918
0.570841
0.571825
0.571874
0.571892
0.571876
0.571828
0.571752
0.571655
0.571547
0.571439
0.571334
0.57077
0.570838
0.570862
0.570838
0.570768
0.570655
0.570509
0.57034
0.570158
0.570001
0.573644
0.573727
0.573758
0.573734
0.573655
0.573529
0.573367
0.573181
0.573
0.572786
0.567748
0.567838
0.567873
0.567848
0.567757
0.56761
0.567418
0.567193
0.566968
0.566742
0.56541
0.56541
0.565399
0.565381
0.565354
0.565319
0.565276
0.565222
0.565163
0.565671
0.573166
0.573174
0.573181
0.57319
0.573203
0.57322
0.573243
0.573273
0.573308
0.573355
0.570149
0.570147
0.570143
0.570136
0.570125
0.570109
0.570089
0.570065
0.570036
0.569999
0.571258
0.571267
0.571272
0.571272
0.57127
0.571264
0.571257
0.571251
0.571247
0.571246
0.571063
0.571076
0.571079
0.571074
0.571059
0.571036
0.571006
0.570973
0.570938
0.570903
0.571261
0.571285
0.571293
0.571285
0.571261
0.571222
0.571173
0.571117
0.571059
0.571003
0.571779
0.571815
0.571828
0.571816
0.571782
0.571727
0.571658
0.571583
0.57151
0.571445
0.571183
0.571236
0.571255
0.571237
0.571185
0.571102
0.570992
0.570862
0.570713
0.570566
0.574495
0.574553
0.574575
0.574557
0.574499
0.574408
0.574294
0.57417
0.574064
0.573959
0.565915
0.566007
0.566039
0.566022
0.565955
0.565845
0.565699
0.565528
0.565348
0.56514
0.357245
0.262853
0.259867
0.358736
0.35065
0.254702
0.250215
0.355902
0.341338
0.244934
0.239497
0.335527
0.329565
0.232247
0.223676
0.300893
0.316232
0.218593
0.206604
0.269097
0.303412
0.208527
0.197223
0.260252
0.292253
0.202267
0.192978
0.256448
0.279663
0.194506
0.186465
0.247409
0.267041
0.186946
0.179501
0.236118
0.255013
0.180069
0.170999
0.219537
0.393813
0.357273
0.351141
0.374997
0.397524
0.355627
0.347696
0.371519
0.396401
0.350197
0.337598
0.358401
0.393067
0.342367
0.323611
0.339325
0.388688
0.333927
0.309794
0.320042
0.379882
0.321003
0.292063
0.297396
0.370944
0.309012
0.276375
0.276668
0.361932
0.298272
0.263736
0.262128
0.353544
0.288688
0.252319
0.24801
0.345459
0.278453
0.238411
0.228769
0.47167
0.458367
0.454104
0.460452
0.475796
0.458233
0.452583
0.460114
0.473946
0.453782
0.446386
0.451886
0.468958
0.445953
0.436224
0.439183
0.462795
0.437043
0.424872
0.4257
0.454558
0.42646
0.412652
0.412564
0.446491
0.416355
0.401093
0.399736
0.437835
0.406016
0.389361
0.38606
0.429876
0.397089
0.379042
0.373129
0.423133
0.390506
0.37013
0.359184
0.505295
0.500736
0.498667
0.499053
0.511202
0.503179
0.500121
0.501823
0.510336
0.500679
0.496368
0.497026
0.506305
0.49472
0.488888
0.488422
0.501253
0.487753
0.48044
0.478964
0.493842
0.47847
0.469763
0.467201
0.486119
0.468968
0.458914
0.455164
0.477572
0.45883
0.447463
0.442229
0.469033
0.449283
0.436727
0.429567
0.459675
0.440277
0.426369
0.415463
0.526847
0.52588
0.52469
0.523234
0.533435
0.52951
0.527586
0.527633
0.533217
0.528303
0.525507
0.524789
0.530163
0.523988
0.520149
0.518564
0.526293
0.518817
0.513927
0.511467
0.520338
0.511534
0.505571
0.502155
0.514078
0.503967
0.496931
0.492497
0.506838
0.49548
0.487354
0.481745
0.499667
0.487442
0.478331
0.471194
0.491795
0.47978
0.469699
0.459437
0.539362
0.540023
0.539344
0.537295
0.546437
0.544359
0.543181
0.542895
0.546635
0.54394
0.542162
0.541318
0.544355
0.540834
0.538329
0.536835
0.54138
0.536978
0.533709
0.531532
0.536469
0.531127
0.527048
0.524132
0.53128
0.524992
0.520098
0.516414
0.525121
0.517921
0.512213
0.507686
0.519117
0.511289
0.504889
0.499275
0.512054
0.504372
0.497421
0.489609
0.547203
0.548666
0.548274
0.546017
0.554553
0.553403
0.55269
0.552408
0.554971
0.553418
0.552299
0.55163
0.553321
0.551224
0.549602
0.548468
0.55108
0.548389
0.546223
0.544584
0.547096
0.543762
0.541012
0.538824
0.542913
0.538926
0.535587
0.532833
0.537802
0.533189
0.529271
0.525923
0.532982
0.527949
0.523567
0.519481
0.526783
0.521778
0.517061
0.511549
0.552274
0.554165
0.55394
0.551591
0.559701
0.559047
0.558618
0.558409
0.560275
0.559349
0.558648
0.558183
0.559132
0.55784
0.556795
0.556007
0.557497
0.555801
0.554376
0.553228
0.554303
0.552169
0.550333
0.54879
0.551
0.548422
0.546172
0.544228
0.546809
0.543811
0.541163
0.538813
0.54308
0.539809
0.536864
0.534041
0.537615
0.53432
0.53117
0.527478
0.55572
0.557859
0.55773
0.555325
0.563056
0.562675
0.562418
0.562279
0.563726
0.563167
0.56273
0.56242
0.562999
0.56219
0.561519
0.56099
0.561864
0.560778
0.559842
0.559062
0.559354
0.557966
0.556743
0.555685
0.556836
0.555145
0.553635
0.552295
0.553444
0.551475
0.549696
0.548081
0.550694
0.548546
0.546575
0.54467
0.545861
0.543673
0.541576
0.539161
0.558174
0.560465
0.560392
0.557944
0.565301
0.565076
0.564921
0.564834
0.56598
0.56564
0.565367
0.565166
0.565583
0.565072
0.564642
0.564293
0.564851
0.56415
0.563537
0.563014
0.562926
0.562016
0.561203
0.560487
0.561098
0.55998
0.558968
0.558056
0.558379
0.557075
0.555881
0.554784
0.556449
0.555024
0.553705
0.552434
0.552175
0.550712
0.549316
0.54775
0.560003
0.562392
0.562351
0.559869
0.566849
0.566714
0.566621
0.566568
0.567459
0.567252
0.567083
0.566954
0.567312
0.566989
0.566713
0.566486
0.566879
0.566425
0.566024
0.565678
0.565441
0.564843
0.564303
0.563822
0.564208
0.563466
0.562789
0.562175
0.562033
0.561166
0.560365
0.559625
0.56078
0.559828
0.558945
0.558103
0.556987
0.556007
0.555075
0.554062
0.561424
0.563874
0.56385
0.561346
0.567951
0.567869
0.567813
0.567783
0.568431
0.568305
0.568201
0.568119
0.568474
0.56827
0.568094
0.567948
0.568239
0.567946
0.567685
0.567457
0.567188
0.566796
0.566439
0.56612
0.566451
0.565958
0.565507
0.565097
0.564689
0.564113
0.563577
0.563081
0.564006
0.563369
0.562779
0.562224
0.560609
0.559952
0.559331
0.558677
0.56257
0.565049
0.565035
0.562524
0.568766
0.568714
0.568681
0.568664
0.569064
0.568988
0.568924
0.568873
0.569263
0.569134
0.569023
0.56893
0.569135
0.568947
0.568779
0.568631
0.568383
0.568127
0.567893
0.567683
0.568045
0.567719
0.567421
0.567149
0.566569
0.566187
0.565831
0.5655
0.566381
0.565954
0.565563
0.565199
0.563286
0.562846
0.562434
0.562013
0.563525
0.565998
0.565991
0.563499
0.569394
0.569361
0.56934
0.569332
0.569464
0.569419
0.56938
0.569349
0.56981
0.56973
0.56966
0.569602
0.569712
0.569593
0.569485
0.569391
0.569184
0.569019
0.568867
0.568731
0.569157
0.568944
0.568749
0.568572
0.567846
0.567596
0.567362
0.567144
0.568107
0.567823
0.567565
0.567331
0.565215
0.564923
0.564652
0.564383
0.564346
0.566769
0.566765
0.564331
0.569905
0.569883
0.56987
0.569867
0.569695
0.569669
0.569646
0.569626
0.570205
0.570155
0.570113
0.570077
0.570076
0.570001
0.569934
0.569874
0.569714
0.569609
0.569512
0.569425
0.56992
0.569783
0.569657
0.569543
0.568662
0.568501
0.568349
0.568207
0.569354
0.569165
0.568998
0.568852
0.566554
0.566363
0.566186
0.566017
0.565056
0.56737
0.567368
0.565048
0.570353
0.570338
0.57033
0.57033
0.569796
0.569781
0.569768
0.569756
0.570508
0.570478
0.570452
0.57043
0.570307
0.570261
0.570219
0.570182
0.570071
0.570006
0.569945
0.56989
0.570438
0.570351
0.570271
0.5702
0.569135
0.569034
0.568937
0.568845
0.570268
0.570141
0.570034
0.569947
0.56741
0.567286
0.567173
0.567069
0.56562
0.56774
0.567739
0.565616
0.570797
0.570787
0.570781
0.570782
0.569799
0.56979
0.569783
0.569776
0.570759
0.57074
0.570725
0.570712
0.570469
0.570441
0.570416
0.570394
0.570337
0.570296
0.570259
0.570226
0.570797
0.570742
0.570693
0.570649
0.569384
0.569321
0.569261
0.569203
0.570986
0.570899
0.570832
0.570785
0.567807
0.567728
0.567657
0.567594
0.565863
0.567671
0.567671
0.565861
0.571331
0.571324
0.57132
0.571321
0.569757
0.569752
0.569747
0.569744
0.570976
0.570965
0.570956
0.570948
0.570613
0.570596
0.570581
0.570568
0.570571
0.570546
0.570523
0.570503
0.571067
0.571034
0.571004
0.570976
0.569568
0.569528
0.56949
0.569456
0.571677
0.571614
0.571572
0.571552
0.567634
0.567585
0.567541
0.567502
0.56545
0.566774
0.566774
0.565449
0.572138
0.572135
0.572133
0.572131
0.569785
0.569778
0.569775
0.569777
0.571151
0.571146
0.57114
0.571134
0.570759
0.570747
0.570738
0.570731
0.570794
0.570777
0.570763
0.570752
0.571286
0.571266
0.571247
0.571229
0.569889
0.569857
0.569833
0.569818
0.572585
0.572535
0.572508
0.572505
0.56667
0.566639
0.566611
0.566587
0.564392
0.564966
0.564966
0.564391
0.573358
0.573373
0.573371
0.573353
0.569973
0.569961
0.569959
0.569968
0.571246
0.571245
0.571241
0.571234
0.570879
0.570869
0.570863
0.570859
0.570964
0.57095
0.57094
0.570934
0.571425
0.571413
0.571399
0.571383
0.570402
0.570364
0.570347
0.57035
0.573875
0.573843
0.573823
0.573816
0.565048
0.565019
0.564998
0.564987
0.524414
0.56361
0.57901
0.58829
0.596176
0.603772
0.610942
0.61737
0.623257
0.628763
0.518335
0.544
0.564002
0.579545
0.592596
0.603236
0.612449
0.620649
0.628148
0.635126
0.501901
0.527001
0.55632
0.574556
0.589944
0.602296
0.612934
0.622318
0.630748
0.638322
0.477384
0.509175
0.543334
0.564652
0.582385
0.596589
0.608856
0.619693
0.629433
0.63808
0.454022
0.492873
0.531116
0.555809
0.575603
0.59154
0.605247
0.617335
0.62817
0.637659
0.425048
0.476218
0.518517
0.546598
0.568378
0.58597
0.600975
0.614184
0.625994
0.636247
0.395879
0.462703
0.508389
0.539765
0.563188
0.582197
0.59824
0.612316
0.624813
0.635519
0.36609
0.450359
0.498645
0.533298
0.558078
0.578364
0.595257
0.610029
0.623059
0.634183
0.337391
0.441209
0.490939
0.528734
0.554646
0.576194
0.593813
0.609116
0.622393
0.633746
0.302362
0.430813
0.47987
0.520279
0.547365
0.570131
0.588616
0.604689
0.618498
0.630257
0.458024
0.503199
0.531047
0.551247
0.566313
0.577855
0.58699
0.594359
0.600336
0.605167
0.454303
0.50171
0.533692
0.556256
0.572769
0.585348
0.595468
0.603898
0.611081
0.617274
0.44901
0.499492
0.534979
0.558174
0.575344
0.588675
0.59965
0.608971
0.617027
0.62399
0.437808
0.491098
0.528781
0.553014
0.571504
0.586114
0.598367
0.608936
0.618211
0.626259
0.42553
0.480997
0.520947
0.547006
0.567046
0.583053
0.596563
0.608278
0.618617
0.627549
0.40848
0.468201
0.511141
0.539608
0.561367
0.578833
0.593553
0.606341
0.617658
0.627402
0.389734
0.456672
0.502668
0.533817
0.55713
0.575916
0.591645
0.605286
0.617318
0.627589
0.366787
0.445703
0.494129
0.528107
0.552725
0.572694
0.58924
0.603556
0.616136
0.626869
0.343352
0.437611
0.48713
0.523925
0.549569
0.570659
0.587884
0.60271
0.615554
0.626588
0.315731
0.428974
0.476902
0.516071
0.542723
0.564925
0.582935
0.598471
0.611816
0.623312
0.491346
0.511887
0.528327
0.542277
0.554073
0.563898
0.571987
0.578551
0.583749
0.587691
0.484549
0.510102
0.5312
0.548366
0.562334
0.573712
0.583065
0.590802
0.597197
0.602458
0.479176
0.508047
0.532393
0.551268
0.566446
0.578776
0.589023
0.597667
0.605
0.611187
0.46928
0.500641
0.527546
0.548033
0.564598
0.57816
0.589606
0.599438
0.607962
0.61526
0.458768
0.491653
0.521167
0.543493
0.561571
0.576456
0.589109
0.600057
0.609652
0.617888
0.443988
0.480154
0.512594
0.537157
0.556906
0.5732
0.587051
0.599072
0.609668
0.618774
0.427749
0.469433
0.504876
0.531925
0.553255
0.570864
0.58575
0.598647
0.610006
0.619718
0.408759
0.459151
0.49702
0.526678
0.549352
0.568123
0.58384
0.597423
0.609357
0.619579
0.389275
0.45175
0.490692
0.523007
0.546712
0.566518
0.582874
0.596936
0.609137
0.619679
0.367045
0.44444
0.481783
0.516257
0.540766
0.561471
0.578447
0.593074
0.605668
0.616594
0.516856
0.524422
0.533086
0.541979
0.550233
0.557478
0.563623
0.568675
0.572641
0.575531
0.509638
0.522509
0.535609
0.547626
0.558176
0.567217
0.574868
0.581261
0.586491
0.590669
0.505016
0.520355
0.536183
0.550189
0.562268
0.57256
0.58133
0.588785
0.595067
0.600278
0.496286
0.513637
0.53184
0.547668
0.561302
0.572964
0.58301
0.591693
0.599181
0.605522
0.4866
0.505587
0.52613
0.543849
0.559081
0.572132
0.583429
0.59326
0.601845
0.609163
0.473822
0.495153
0.51824
0.538132
0.555078
0.569577
0.582114
0.593052
0.602671
0.610909
0.460133
0.485168
0.510923
0.533208
0.551813
0.56768
0.581313
0.593174
0.603609
0.612521
0.44421
0.475363
0.503411
0.528194
0.548237
0.565303
0.579812
0.592396
0.603448
0.612913
0.427806
0.468099
0.497312
0.524686
0.545841
0.563934
0.579096
0.592171
0.603523
0.613327
0.409645
0.460865
0.489043
0.518456
0.540376
0.559285
0.575002
0.588577
0.600289
0.610467
0.536514
0.53764
0.541342
0.546218
0.551225
0.555891
0.560007
0.563472
0.566207
0.568161
0.530062
0.536013
0.543267
0.550742
0.557863
0.564334
0.570024
0.57488
0.578863
0.582003
0.526537
0.533833
0.543065
0.552399
0.56116
0.569068
0.576044
0.582078
0.587178
0.591375
0.519359
0.527802
0.538902
0.550031
0.560427
0.569807
0.578137
0.585443
0.591754
0.59707
0.51114
0.520623
0.5336
0.546555
0.558582
0.569411
0.579043
0.587537
0.594966
0.601279
0.500249
0.511227
0.526249
0.541231
0.554969
0.567276
0.578193
0.587834
0.596327
0.603591
0.488675
0.502089
0.519303
0.536502
0.551924
0.565644
0.577714
0.588331
0.597688
0.605678
0.475446
0.492935
0.512128
0.531638
0.548546
0.563499
0.576499
0.587883