/*--------------------------------*- C++ -*----------------------------------*\
| =========                 |                                                 |
| \\      /  F ield         | foam-extend: Open Source CFD                    |
|  \\    /   O peration     | Version:     4.0                                |
|   \\  /    A nd           | Web:         http://www.foam-extend.org         |
|    \\/     M anipulation  |                                                 |
\*---------------------------------------------------------------------------*/
FoamFile
{
    version     2.0;
    format      ascii;
    class       volScalarField;
    location    "2800";
    object      mut;
}
// * * * * * * * * * * * * * * * * * * * * * * * * * * * * * * * * * * * * * //

dimensions      [1 -1 -1 0 0 0 0];

internalField   nonuniform List<scalar> 
34480
(
0.00190197
0.00189973
0.00189862
0.00189899
0.00190181
0.00190939
0.00192657
0.00195851
0.0020052
0.00212232
0.0178337
0.016358
0.0137603
0.00989715
0.0058254
0.00306442
0.00187951
0.00169751
0.00200296
0.00236916
0.0516387
0.0468944
0.0394181
0.0290429
0.0174482
0.0083817
0.00387534
0.00255406
0.00265257
0.00304881
0.0641722
0.0592639
0.0513521
0.0397061
0.0252858
0.0124172
0.00528354
0.00299338
0.00293646
0.00339422
0.069524
0.0652675
0.058085
0.046699
0.0311921
0.0158147
0.00650174
0.00334444
0.00316819
0.00370127
0.0714135
0.0679573
0.0616424
0.0507827
0.034806
0.0179243
0.00726077
0.00358983
0.00342105
0.00407782
0.0700466
0.0676093
0.0624793
0.052572
0.0367823
0.0192097
0.00777182
0.00377989
0.00366425
0.00445178
0.0593664
0.0585204
0.0555
0.047948
0.0341601
0.0179538
0.00732097
0.00364159
0.0037216
0.00467963
0.0192289
0.0199238
0.020445
0.0195027
0.0151915
0.0085137
0.00377851
0.00216676
0.00265241
0.0038283
0.00177348
0.00176215
0.00175338
0.00174746
0.00174544
0.00174689
0.0017508
0.0017575
0.00175692
0.00172602
0.00191527
0.0019142
0.00191497
0.00191806
0.0019239
0.00193328
0.00194881
0.00197526
0.00201975
0.00209593
0.016537
0.0162388
0.0156622
0.0143886
0.0119101
0.00821625
0.00461136
0.00272004
0.00244106
0.00326284
0.0497382
0.0475305
0.0436911
0.0377875
0.0299192
0.0204725
0.0110396
0.00519707
0.00376627
0.00491195
0.0613711
0.0591024
0.0550812
0.0485618
0.039433
0.0279774
0.0154929
0.00671805
0.0043987
0.00582006
0.0661594
0.0644325
0.0611242
0.0552299
0.0460655
0.0337826
0.0192769
0.007984
0.00490075
0.00665074
0.0678139
0.0667586
0.0643379
0.0593476
0.0505518
0.0379351
0.0220775
0.00889211
0.00536788
0.00766915
0.066507
0.066237
0.0649284
0.0611706
0.0532477
0.0408489
0.0242534
0.00960736
0.00579131
0.00872535
0.056242
0.0569435
0.0572159
0.0556756
0.0501829
0.0397598
0.0241489
0.00944026
0.00583552
0.00938946
0.0180032
0.0187044
0.0198279
0.0212149
0.0220849
0.0206235
0.0140764
0.00549347
0.00374086
0.00703468
0.00177523
0.00176306
0.00175284
0.00174523
0.00174173
0.00174299
0.00174723
0.00175368
0.00178472
0.0018944
0.00192052
0.00192037
0.00192182
0.00192539
0.00193141
0.00194021
0.00195249
0.00196973
0.00199461
0.00202982
0.0146329
0.014595
0.0146228
0.014491
0.0137569
0.0120488
0.00950135
0.00695997
0.00533941
0.00480208
0.0461614
0.0450948
0.0430048
0.0395678
0.0345538
0.02779
0.019795
0.0124672
0.00816942
0.00700645
0.0566318
0.0556195
0.0534984
0.0496515
0.0438386
0.0356566
0.0252607
0.0150021
0.0091224
0.00801635
0.0607593
0.0602211
0.0587783
0.0555606
0.0499763
0.0414498
0.0295694
0.0168176
0.00965768
0.00888086
0.0621814
0.0621858
0.0615495
0.0592541
0.0542498
0.0457786
0.0328556
0.0180026
0.00999476
0.00983066
0.0610781
0.0616555
0.0619494
0.0608221
0.0568119
0.0488583
0.03538
0.0187664
0.0101713
0.0107634
0.0517835
0.0528958
0.0542426
0.0548674
0.0530352
0.0471217
0.0347859
0.0179905
0.00971408
0.0112279
0.0168121
0.017361
0.0183432
0.0197722
0.0214014
0.0220955
0.0188484
0.0103541
0.00590125
0.00791613
0.00177098
0.00176005
0.00175094
0.00174436
0.00174155
0.00174415
0.00175274
0.00176646
0.00179832
0.00189744
0.00191769
0.00191791
0.00191915
0.00192177
0.00192592
0.00193177
0.00193948
0.0019495
0.00196293
0.00198197
0.013033
0.0130382
0.0132211
0.0135315
0.0137636
0.0136348
0.012922
0.0116504
0.0101826
0.00906276
0.0423675
0.0418929
0.0408628
0.0390604
0.0362229
0.0321284
0.0268822
0.0210992
0.0160218
0.0130242
0.0514873
0.0511152
0.0500799
0.0479621
0.0445043
0.0393458
0.0324438
0.0245012
0.017561
0.0140622
0.0548899
0.0549078
0.0544492
0.0528209
0.0496026
0.0442622
0.0364404
0.0267505
0.0182532
0.0147388
0.0561087
0.05653
0.0567241
0.0558632
0.053181
0.0479824
0.0395271
0.0282848
0.0185683
0.0155114
0.0552999
0.0561128
0.0570137
0.0570966
0.0552706
0.0505752
0.0418135
0.029192
0.0184755
0.0161432
0.0472395
0.0483138
0.0498503
0.0511806
0.0510498
0.0480703
0.0404304
0.0278286
0.0172256
0.0160434
0.0157958
0.0161897
0.0169425
0.0180732
0.0195298
0.0208086
0.0202458
0.01559
0.010249
0.0107812
0.00176483
0.0017553
0.00174756
0.00174222
0.00174026
0.00174346
0.00175375
0.00177206
0.00180475
0.00188207
0.0019087
0.00190905
0.00190992
0.00191148
0.00191377
0.00191681
0.00192068
0.0019256
0.00193255
0.0019441
0.01199
0.0119716
0.0121075
0.0124265
0.012886
0.0133999
0.0138292
0.0140123
0.0138261
0.0133437
0.0387049
0.0386081
0.0383258
0.0377107
0.0365306
0.0345608
0.0317229
0.0281462
0.0242128
0.0208818
0.0464645
0.0464815
0.0462059
0.0453692
0.0437174
0.0409594
0.0369848
0.0319476
0.0264227
0.0220876
0.0491698
0.0494712
0.0496122
0.0491234
0.0476619
0.0448136
0.0403241
0.034253
0.027411
0.02257
0.0502262
0.0507894
0.0513956
0.0514583
0.0504281
0.0477511
0.042965
0.0359905
0.0279945
0.0231482
0.0497377
0.0505415
0.0516272
0.0523561
0.0519713
0.0497214
0.0448535
0.0370514
0.0279559
0.0234307
0.0429835
0.043876
0.0452747
0.0467695
0.0475494
0.0466033
0.0427414
0.035222
0.0260699
0.0225386
0.0149631
0.015226
0.0157656
0.0165803
0.0176868
0.0189471
0.0196763
0.0183778
0.0148294
0.0140807
0.00175748
0.00174936
0.00174297
0.00173885
0.00173778
0.00174134
0.00175152
0.00177017
0.00180042
0.00185669
0.00189509
0.00189548
0.00189602
0.00189679
0.0018978
0.001899
0.00190042
0.00190229
0.0019056
0.00191318
0.0115471
0.0115038
0.0115613
0.011753
0.0120763
0.0125283
0.0130971
0.0137546
0.0144322
0.0149776
0.0351529
0.0352567
0.0354006
0.0355181
0.0354664
0.0350668
0.0341698
0.0327056
0.0307255
0.0286255
0.0416777
0.0419067
0.042113
0.0421585
0.0418412
0.0409234
0.0392346
0.0367278
0.0334943
0.030253
0.0438621
0.0442768
0.0447512
0.0450264
0.0448389
0.0438686
0.0418717
0.0387475
0.0345583
0.0305386
0.0448396
0.0453994
0.0461583
0.0467896
0.0469172
0.046111
0.0440067
0.0404152
0.0353703
0.0309027
0.0446667
0.0453591
0.0464089
0.0474488
0.0480076
0.0475263
0.0454608
0.0414589
0.0355278
0.0308449
0.03918
0.0398625
0.0410011
0.0423986
0.0436114
0.0439917
0.0427285
0.039155
0.0332034
0.0290652
0.0143119
0.0144743
0.0148425
0.0153939
0.0161562
0.0171375
0.0181514
0.0185254
0.0172919
0.0164643
0.00174868
0.00174191
0.0017368
0.0017338
0.00173358
0.00173736
0.00174672
0.00176335
0.0017888
0.00182777
0.00187818
0.00187858
0.00187889
0.00187916
0.0018794
0.00187956
0.00187967
0.00187994
0.00188138
0.00188686
0.0115816
0.0115302
0.011541
0.011638
0.0118193
0.012087
0.0124481
0.0129227
0.0135402
0.0142769
0.0320611
0.0321831
0.0323962
0.0326981
0.0330444
0.0333607
0.0335582
0.0335454
0.0332539
0.0327409
0.0373948
0.0376429
0.0379787
0.0383726
0.038725
0.0389021
0.0387614
0.0381904
0.0371314
0.0357943
0.039232
0.0396057
0.0401251
0.0406926
0.0411685
0.0413609
0.0410682
0.0401366
0.0384575
0.0364033
0.0401952
0.0406471
0.0413316
0.0421286
0.0428388
0.0431977
0.0429136
0.041764
0.0395404
0.03688
0.0402959
0.0408233
0.0416813
0.0427138
0.0436934
0.0442841
0.0440803
0.0427512
0.0399353
0.0367458
0.0359591
0.0364408
0.0372759
0.0384001
0.0396289
0.0406498
0.0409535
0.0400087
0.0372359
0.0341924
0.0138474
0.0139359
0.0141753
0.0145267
0.015009
0.0156572
0.0164596
0.0171988
0.0171809
0.0169388
0.00173816
0.00173267
0.00172871
0.00172667
0.00172711
0.00173093
0.00173921
0.00175308
0.00177306
0.00179922
0.00185891
0.00185931
0.00185948
0.00185946
0.00185926
0.00185886
0.00185828
0.00185773
0.00185819
0.00186251
0.0119231
0.0118758
0.0118671
0.0119143
0.0120157
0.0121713
0.0123874
0.0126905
0.0131386
0.0137979
0.0299302
0.0299979
0.0301222
0.0303169
0.0305757
0.030881
0.0312075
0.0315165
0.0317499
0.0318554
0.034088
0.0342473
0.0344808
0.0348058
0.0351926
0.0355986
0.0359653
0.0362226
0.036296
0.0361961
0.0355806
0.0358307
0.0362007
0.0366722
0.0372025
0.0377239
0.0381412
0.0383485
0.0382334
0.0378543
0.0364903
0.0367901
0.0372667
0.0379026
0.0386315
0.0393569
0.0399282
0.040178
0.0399039
0.0391981
0.0367592
0.0371124
0.0377069
0.0384959
0.0394135
0.0403343
0.0410437
0.0412963
0.0407551
0.0396201
0.0333831
0.0336953
0.0342462
0.0350243
0.0359778
0.0370243
0.0379454
0.0384105
0.0378849
0.0366863
0.0135652
0.0136017
0.01375
0.0139619
0.0142461
0.0146265
0.0151201
0.0156602
0.0157858
0.0157482
0.00172571
0.00172138
0.00171841
0.00171714
0.00171799
0.00172162
0.00172867
0.00173976
0.00175463
0.00177192
0.00183787
0.00183826
0.00183835
0.00183817
0.00183774
0.00183703
0.00183609
0.00183511
0.00183501
0.00183859
0.0124375
0.0123999
0.0123847
0.0124066
0.0124649
0.0125598
0.0126989
0.0129118
0.0132698
0.0138855
0.0287708
0.0287978
0.0288485
0.0289334
0.0290526
0.0292018
0.0293747
0.0295582
0.0297222
0.0298175
0.0319318
0.0320072
0.032118
0.0322843
0.0324962
0.0327417
0.0330021
0.0332484
0.0334368
0.0335435
0.033028
0.0331629
0.0333623
0.0336266
0.0339462
0.0343049
0.0346735
0.0350105
0.035252
0.0353906
0.0337924
0.0339606
0.0342293
0.0346065
0.0350767
0.0356229
0.036202
0.0367461
0.0371362
0.0373457
0.0340982
0.0343072
0.0346617
0.0351473
0.0357595
0.0364778
0.0372394
0.0379401
0.0383759
0.0385314
0.0314544
0.0316396
0.0319682
0.0324372
0.0330349
0.0337646
0.034581
0.0353592
0.0357666
0.0358292
0.0134568
0.0134578
0.013545
0.0136663
0.0138244
0.01403
0.0142938
0.0145817
0.0145334
0.0143581
0.00171113
0.00170784
0.0017057
0.00170499
0.00170602
0.00170923
0.00171497
0.00172349
0.0017341
0.00174537
0.00181533
0.00181572
0.00181578
0.00181552
0.00181496
0.0018141
0.00181297
0.00181174
0.00181128
0.00181431
0.0130452
0.0130187
0.0130026
0.0130106
0.0130435
0.0131027
0.0131975
0.0133608
0.0136726
0.0142744
0.0282668
0.0282762
0.0282935
0.0283251
0.0283724
0.0284348
0.0285117
0.0285995
0.0286831
0.028725
0.0306922
0.0307219
0.0307648
0.0308345
0.0309254
0.0310323
0.0311477
0.031259
0.0313455
0.0313912
0.0314181
0.0314812
0.0315722
0.031692
0.031837
0.0320014
0.0321753
0.032343
0.0324772
0.0325712
0.031989
0.0320719
0.0322023
0.0323876
0.0326217
0.0329028
0.0332206
0.0335534
0.033848
0.0340762
0.0322386
0.032349
0.0325366
0.0327916
0.0331188
0.0335192
0.0339807
0.034473
0.0349005
0.0352391
0.0301162
0.0302157
0.0303951
0.0306478
0.0309665
0.0313632
0.031839
0.0323603
0.0327535
0.0330385
0.0135113
0.0134888
0.0135372
0.0136031
0.0136869
0.0137916
0.0139215
0.0140506
0.0138815
0.0136199
0.00169431
0.0016919
0.00169042
0.00169009
0.00169112
0.00169377
0.0016982
0.00170444
0.0017117
0.00171884
0.00179143
0.00179182
0.00179185
0.00179155
0.00179093
0.00178998
0.00178875
0.00178738
0.00178666
0.00178922
0.0137098
0.0136943
0.0136796
0.0136796
0.0136962
0.0137323
0.0137989
0.013932
0.0142178
0.0148184
0.0281259
0.0281297
0.0281348
0.0281457
0.0281641
0.0281911
0.0282285
0.0282766
0.0283269
0.0283469
0.0300359
0.030046
0.0300608
0.0300883
0.0301254
0.0301693
0.0302168
0.0302621
0.0302953
0.0303073
0.0304765
0.0305031
0.0305407
0.0305899
0.0306482
0.0307127
0.0307791
0.0308415
0.0308896
0.030922
0.0308665
0.0309032
0.0309602
0.0310419
0.0311441
0.0312655
0.0314026
0.0315474
0.0316787
0.0317797
0.0310259
0.0310778
0.0311681
0.0312888
0.031443
0.0316313
0.0318498
0.0320883
0.0323029
0.032478
0.0292707
0.0293175
0.029408
0.0295325
0.0296836
0.0298669
0.0300862
0.0303292
0.0305017
0.0306334
0.0137183
0.0136807
0.0137053
0.0137394
0.0137818
0.0138328
0.0138932
0.0139419
0.013735
0.013479
0.00167514
0.00167347
0.00167249
0.00167239
0.00167329
0.00167533
0.00167855
0.00168288
0.00168758
0.00169189
0.00176614
0.00176652
0.00176655
0.00176622
0.00176557
0.00176458
0.00176329
0.00176182
0.00176089
0.00176301
0.0144234
0.0144181
0.0144059
0.0144011
0.0144071
0.0144275
0.0144752
0.0145886
0.0148592
0.0154645
0.0281679
0.0281705
0.0281719
0.0281753
0.0281826
0.0281958
0.0282173
0.0282493
0.028286
0.0282976
0.02971
0.0297128
0.0297175
0.0297286
0.0297443
0.0297636
0.0297849
0.0298055
0.0298203
0.0298229
0.0299573
0.029967
0.0299815
0.030001
0.0300241
0.0300493
0.0300748
0.0300981
0.0301158
0.0301283
0.0302084
0.0302228
0.0302457
0.0302797
0.0303219
0.0303713
0.0304264
0.030484
0.0305366
0.0305754
0.0302852
0.0303058
0.0303455
0.030399
0.0304678
0.0305516
0.0306482
0.030753
0.0308454
0.0309163
0.0288047
0.0288218
0.0288638
0.0289207
0.0289856
0.0290603
0.0291468
0.0292377
0.0292791
0.0293063
0.0140699
0.0140228
0.0140335
0.0140502
0.014071
0.0140949
0.0141216
0.0141335
0.0139358
0.0137251
0.00165357
0.00165249
0.00165189
0.00165191
0.00165261
0.00165406
0.00165624
0.00165904
0.00166186
0.00166421
0.00173939
0.00173978
0.00173979
0.00173946
0.00173879
0.00173777
0.00173644
0.00173491
0.00173379
0.00173548
0.0151953
0.0151993
0.0151901
0.0151829
0.0151818
0.0151915
0.0152262
0.0153266
0.0155888
0.0162026
0.0282966
0.0282995
0.0283001
0.028301
0.0283041
0.0283114
0.0283258
0.0283503
0.0283807
0.028389
0.0295583
0.029559
0.0295605
0.0295652
0.0295724
0.0295816
0.0295924
0.0296034
0.0296116
0.0296122
0.0296861
0.0296885
0.0296936
0.0297015
0.0297114
0.0297227
0.0297344
0.0297455
0.0297548
0.0297627
0.0298427
0.0298473
0.0298558
0.0298695
0.0298869
0.0299073
0.02993
0.0299539
0.0299762
0.0299927
0.029862
0.0298674
0.0298828
0.0299056
0.0299365
0.0299752
0.0300202
0.0300695
0.0301123
0.0301436
0.0286107
0.0286123
0.0286301
0.0286541
0.0286791
0.0287054
0.0287338
0.0287594
0.0287503
0.0287433
0.0145637
0.0145107
0.0145137
0.0145214
0.0145314
0.0145426
0.0145538
0.0145498
0.014383
0.0142263
0.00162959
0.00162896
0.00162863
0.00162869
0.00162918
0.00163011
0.00163144
0.00163306
0.00163453
0.00163555
0.00171109
0.00171147
0.00171148
0.00171114
0.00171046
0.00170942
0.00170807
0.00170648
0.0017052
0.00170644
0.0160466
0.0160591
0.0160533
0.0160452
0.0160395
0.016042
0.0160678
0.0161598
0.0164184
0.0170445
0.0284641
0.0284676
0.0284682
0.0284685
0.0284699
0.0284746
0.0284854
0.0285057
0.0285328
0.0285404
0.0294935
0.0294938
0.0294945
0.0294966
0.0295
0.0295047
0.0295105
0.0295169
0.0295223
0.0295228
0.0295522
0.0295518
0.0295533
0.0295568
0.0295619
0.0295683
0.0295754
0.0295827
0.0295895
0.0295962
0.0296494
0.0296502
0.0296529
0.0296585
0.0296661
0.0296752
0.0296856
0.0296966
0.0297074
0.0297159
0.0296377
0.0296363
0.0296411
0.0296507
0.0296657
0.0296857
0.02971
0.0297371
0.0297612
0.0297791
0.0285985
0.0285929
0.0285995
0.0286086
0.0286168
0.0286236
0.0286293
0.0286308
0.0286087
0.0285974
0.0152055
0.0151488
0.0151476
0.0151511
0.015156
0.0151614
0.0151658
0.015155
0.0150281
0.0149221
0.00160318
0.0016029
0.00160276
0.00160282
0.00160311
0.00160361
0.00160428
0.00160503
0.00160557
0.00160569
0.00168112
0.00168149
0.0016815
0.00168116
0.00168046
0.00167942
0.00167804
0.0016764
0.00167496
0.00167574
0.0170081
0.0170286
0.0170264
0.0170185
0.0170103
0.0170079
0.0170277
0.0171143
0.0173735
0.018018
0.028647
0.0286508
0.0286518
0.028652
0.0286529
0.0286563
0.0286649
0.0286825
0.0287077
0.0287165
0.0294691
0.0294696
0.0294701
0.0294711
0.0294727
0.0294749
0.029478
0.0294819
0.0294857
0.0294866
0.0294905
0.0294893
0.0294895
0.0294913
0.0294944
0.0294988
0.0295039
0.0295095
0.0295151
0.0295209
0.0295514
0.0295509
0.0295517
0.0295541
0.0295578
0.0295625
0.0295679
0.0295738
0.0295798
0.0295849
0.0295292
0.0295256
0.029526
0.0295303
0.0295386
0.0295507
0.029566
0.0295836
0.0295998
0.0296127
0.0286983
0.0286901
0.0286918
0.0286948
0.0286966
0.0286968
0.028695
0.0286892
0.0286684
0.0286618
0.0160125
0.0159534
0.0159503
0.0159518
0.0159546
0.0159574
0.015959
0.015947
0.0158605
0.0157979
0.00157438
0.00157434
0.00157434
0.00157439
0.0015745
0.00157467
0.00157485
0.00157498
0.00157487
0.0015744
0.00164939
0.00164977
0.00164978
0.00164942
0.00164872
0.00164767
0.00164627
0.00164459
0.00164299
0.00164329
0.0181221
0.0181503
0.018152
0.0181453
0.0181359
0.0181307
0.0181464
0.0182295
0.0184927
0.0191671
0.028833
0.0288369
0.0288382
0.0288386
0.0288394
0.028842
0.0288491
0.0288644
0.0288882
0.0288997
0.0294617
0.0294624
0.0294629
0.0294633
0.0294639
0.0294648
0.0294662
0.0294685
0.0294713
0.0294728
0.0294643
0.029463
0.0294629
0.0294639
0.0294661
0.0294692
0.0294731
0.0294773
0.0294818
0.0294865
0.0295027
0.029502
0.0295022
0.0295033
0.0295054
0.0295081
0.0295114
0.0295149
0.0295185
0.0295218
0.0294828
0.0294789
0.0294779
0.0294801
0.0294854
0.0294936
0.0295041
0.0295165
0.0295282
0.0295387
0.0288589
0.0288504
0.0288503
0.028851
0.0288509
0.0288495
0.0288463
0.0288399
0.0288246
0.0288241
0.0170186
0.0169581
0.0169541
0.0169549
0.0169566
0.0169584
0.0169587
0.0169522
0.0168995
0.0168719
0.00154324
0.00154338
0.00154346
0.00154348
0.00154347
0.00154339
0.00154323
0.00154293
0.0015424
0.00154153
0.00161594
0.00161631
0.00161632
0.00161596
0.00161525
0.00161418
0.00161277
0.00161104
0.0016093
0.00160908
0.0194467
0.0194826
0.0194886
0.0194837
0.0194745
0.019468
0.0194811
0.0195614
0.0198305
0.0205506
0.0290137
0.0290175
0.0290189
0.0290195
0.0290203
0.0290224
0.0290281
0.0290411
0.0290634
0.0290783
0.0294597
0.0294604
0.0294609
0.0294611
0.0294611
0.0294612
0.0294617
0.0294629
0.029465
0.029467
0.0294538
0.0294528
0.0294527
0.0294533
0.0294548
0.0294569
0.0294596
0.0294627
0.0294659
0.0294694
0.0294776
0.029477
0.029477
0.0294777
0.0294789
0.0294806
0.0294826
0.0294847
0.0294869
0.0294891
0.0294653
0.029462
0.0294608
0.0294621
0.0294657
0.0294713
0.0294786
0.0294872
0.0294955
0.0295039
0.0290426
0.0290351
0.0290344
0.0290344
0.029034
0.0290329
0.0290304
0.0290258
0.0290162
0.0290207
0.0182818
0.018221
0.0182168
0.0182174
0.0182186
0.0182196
0.0182192
0.0182165
0.0181932
0.0181928
0.00150988
0.00151014
0.00151028
0.00151028
0.00151017
0.00150992
0.00150952
0.00150895
0.00150814
0.00150703
0.00158093
0.00158131
0.00158131
0.00158095
0.00158023
0.00157916
0.00157773
0.00157597
0.00157408
0.00157333
0.0210626
0.0211058
0.0211162
0.0211142
0.0211069
0.0211012
0.0211129
0.0211896
0.0214626
0.0222468
0.0291799
0.0291832
0.0291844
0.0291851
0.0291859
0.0291877
0.0291921
0.0292025
0.0292221
0.0292402
0.0294575
0.0294581
0.0294585
0.0294585
0.0294584
0.0294582
0.0294581
0.0294586
0.02946
0.0294623
0.0294488
0.0294482
0.0294481
0.0294485
0.0294494
0.0294508
0.0294525
0.0294544
0.0294565
0.0294588
0.0294627
0.0294623
0.0294623
0.0294627
0.0294634
0.0294644
0.0294655
0.0294667
0.0294679
0.0294692
0.0294568
0.0294545
0.0294536
0.0294544
0.0294567
0.0294603
0.029465
0.0294704
0.0294757
0.0294818
0.0292188
0.029213
0.0292123
0.0292122
0.029212
0.0292115
0.0292101
0.0292076
0.0292022
0.0292097
0.0198993
0.0198399
0.0198361
0.0198365
0.0198373
0.0198377
0.0198365
0.019833
0.0198237
0.0198429
0.00147455
0.00147489
0.00147505
0.00147504
0.00147486
0.00147451
0.00147396
0.00147322
0.00147222
0.00147097
0.00154453
0.00154488
0.00154489
0.00154454
0.00154383
0.00154277
0.00154135
0.0015396
0.00153761
0.00153631
0.0230692
0.0231181
0.0231335
0.0231362
0.0231342
0.0231334
0.0231471
0.0232181
0.0234823
0.0243329
0.029319
0.0293213
0.0293223
0.0293229
0.0293237
0.0293251
0.0293283
0.0293355
0.0293506
0.0293696
0.0294531
0.0294535
0.0294537
0.0294537
0.0294535
0.0294533
0.0294531
0.0294532
0.029454
0.0294559
0.0294452
0.0294448
0.0294448
0.029445
0.0294455
0.0294462
0.0294472
0.0294483
0.0294495
0.0294509
0.0294522
0.029452
0.029452
0.0294522
0.0294526
0.0294531
0.0294537
0.0294543
0.0294549
0.0294556
0.0294475
0.0294461
0.0294456
0.029446
0.0294473
0.0294494
0.029452
0.0294548
0.0294578
0.0294616
0.0293602
0.0293566
0.0293562
0.0293561
0.0293561
0.0293559
0.0293551
0.0293538
0.0293505
0.0293585
0.0220372
0.0219827
0.0219797
0.02198
0.0219803
0.02198
0.0219781
0.0219737
0.0219633
0.0219756
0.00143743
0.00143779
0.00143797
0.00143795
0.00143773
0.00143731
0.00143668
0.00143584
0.00143477
0.00143345
0.00150579
0.00150617
0.00150618
0.00150585
0.00150516
0.00150412
0.00150274
0.00150101
0.00149898
0.00149724
0.0257133
0.0257524
0.0257621
0.025763
0.0257607
0.025758
0.0257621
0.0258007
0.0259891
0.0268274
0.0294181
0.0294192
0.0294197
0.0294202
0.0294207
0.0294217
0.0294235
0.0294273
0.0294358
0.0294504
0.0294477
0.0294478
0.0294479
0.0294479
0.0294479
0.0294478
0.0294477
0.0294477
0.029448
0.0294488
0.0294428
0.0294426
0.0294425
0.0294426
0.0294429
0.0294434
0.0294439
0.0294446
0.0294453
0.029446
0.0294452
0.0294451
0.029445
0.0294452
0.0294454
0.0294458
0.0294462
0.0294466
0.029447
0.0294475
0.029438
0.0294371
0.0294368
0.0294371
0.0294379
0.029439
0.0294404
0.0294419
0.0294434
0.0294453
0.0294467
0.0294451
0.029445
0.0294451
0.0294451
0.0294451
0.0294449
0.0294448
0.0294444
0.0294502
0.0250078
0.0249665
0.0249648
0.0249648
0.0249649
0.0249645
0.0249628
0.0249591
0.0249504
0.0249535
0.00139778
0.00139814
0.00139832
0.00139829
0.00139805
0.00139761
0.00139695
0.00139608
0.00139498
0.00139368
0.00239285
0.00246255
0.0024326
0.002311
0.00232589
0.00232648
0.00229756
0.00225643
0.00287981
0.00288864
0.00284981
0.00275969
0.00319441
0.00321061
0.00317094
0.00305625
0.00349145
0.00351369
0.00347125
0.00334513
0.00381602
0.00383415
0.00378239
0.00365065
0.00408596
0.00409776
0.00404278
0.00392222
0.00421932
0.00422317
0.00416669
0.00405226
0.00372986
0.00371281
0.00364536
0.0035291
0.00255893
0.00262101
0.0026591
0.00265929
0.00204782
0.00209954
0.0021189
0.00209331
0.00411217
0.00429189
0.00425029
0.00394152
0.00627332
0.00644902
0.00634473
0.00589836
0.0075766
0.00772502
0.0075858
0.00710703
0.00889019
0.00906822
0.00891491
0.00841751
0.0107288
0.0110408
0.0109305
0.0104828
0.0127044
0.013126
0.0130312
0.0126284
0.01422
0.0147178
0.0146588
0.0143859
0.0119096
0.0123257
0.0122445
0.0119876
0.0023579
0.00239049
0.00239442
0.00237526
0.00193774
0.00196076
0.00196691
0.00195416
0.00475879
0.00497821
0.00507275
0.00518521
0.00700865
0.00728842
0.00736916
0.00752298
0.00819132
0.00846725
0.00853482
0.00867899
0.00934398
0.00963217
0.00969825
0.00978253
0.0108242
0.0112323
0.0114179
0.0116295
0.012475
0.0130224
0.0133151
0.0136087
0.0137736
0.0144453
0.0148307
0.0152283
0.0108038
0.0113623
0.0116646
0.0119329
0.00214144
0.00216789
0.0021785
0.00217637
0.00188462
0.00189572
0.00189803
0.00188992
0.00821261
0.00824442
0.00852913
0.00921291
0.0116679
0.0117596
0.0122175
0.0132349
0.0127135
0.0129078
0.0134662
0.0146166
0.0135761
0.0138685
0.0144946
0.0157155
0.0147054
0.0151291
0.015882
0.0172853
0.015833
0.0163799
0.0172296
0.0187325
0.0164402
0.0171165
0.0180563
0.0195912
0.0120143
0.0126065
0.0133218
0.0143222
0.002008
0.0020245
0.00203584
0.00204388
0.0018481
0.00185584
0.00185663
0.00185
0.0124907
0.0125098
0.012787
0.013381
0.0193418
0.0193473
0.0199151
0.0210673
0.020378
0.0205408
0.0213137
0.0227196
0.020904
0.0212345
0.0221584
0.0237208
0.0217586
0.0223072
0.0234315
0.0251708
0.0224531
0.0231879
0.0244446
0.0262444
0.0221697
0.0230422
0.0243303
0.0260187
0.0146182
0.0152973
0.0161069
0.016946
0.00193344
0.00194454
0.00195346
0.00196109
0.0018186
0.00182492
0.00182533
0.00181952
0.0139987
0.0140885
0.0142461
0.0144858
0.0274846
0.027387
0.0277519
0.0285119
0.0288607
0.0288572
0.0294138
0.0304305
0.0290361
0.0291704
0.0298802
0.0310509
0.0294605
0.0297776
0.0306615
0.0319795
0.0295652
0.0300422
0.0310391
0.0324096
0.0281319
0.0287174
0.0297087
0.0309499
0.0165006
0.0168927
0.0173698
0.0177832
0.00187889
0.00188594
0.00189246
0.00189901
0.00179331
0.00179891
0.00179913
0.00179378
0.0130477
0.0131811
0.0132768
0.0133501
0.0322201
0.032174
0.0322963
0.0325586
0.0351837
0.0351515
0.0353783
0.0358026
0.0356035
0.0356173
0.0359419
0.0364894
0.0359411
0.0360415
0.0364902
0.0371749
0.0357108
0.0358961
0.0364316
0.0371864
0.0332396
0.0334849
0.0340092
0.0346764
0.0170578
0.0172011
0.0173413
0.0173803
0.00183707
0.00184151
0.00184615
0.00185143
0.00176977
0.00177493
0.00177504
0.00176999
0.0124436
0.0125753
0.0126408
0.0126504
0.0315291
0.0315108
0.0315321
0.0315895
0.0360916
0.0360906
0.036134
0.0362085
0.0376801
0.037684
0.0377617
0.0378869
0.0389063
0.0389335
0.0390813
0.039308
0.0391645
0.0392088
0.039407
0.0397009
0.0361975
0.0362517
0.0364311
0.0366696
0.0160495
0.0160926
0.0160843
0.0159694
0.00180236
0.00180512
0.00180837
0.00181251
0.00174656
0.00175137
0.00175142
0.00174666
0.0124415
0.0125673
0.0126137
0.0125876
0.0294907
0.0294658
0.0294701
0.0295036
0.0335318
0.0335367
0.0335412
0.0335432
0.0354214
0.0354348
0.0354402
0.0354327
0.0374107
0.0374464
0.0374858
0.0375194
0.038581
0.0386248
0.0386868
0.0387504
0.0358917
0.0359257
0.0359629
0.0359809
0.0146107
0.0146285
0.0146016
0.0144919
0.00177151
0.00177316
0.0017754
0.00177858
0.00172294
0.00172744
0.00172747
0.00172298
0.0127354
0.0128535
0.0128867
0.0128402
0.0284031
0.0283739
0.0283762
0.0284104
0.0313707
0.031371
0.0313742
0.0313794
0.0325942
0.0326012
0.0325992
0.0325865
0.0341581
0.0341846
0.0341999
0.0342011
0.0353887
0.0354311
0.0354584
0.035465
0.0332641
0.0333028
0.0333103
0.0332769
0.0137831
0.0137874
0.0137636
0.0136866
0.00174235
0.00174329
0.0017448
0.00174721
0.0016985
0.00170268
0.00170269
0.00169851
0.0131762
0.0132837
0.0133071
0.0132512
0.0280402
0.02801
0.0280115
0.028045
0.0302855
0.0302843
0.030288
0.0302961
0.0309294
0.0309324
0.0309318
0.0309268
0.0318155
0.0318282
0.0318367
0.0318395
0.0325598
0.0325828
0.0325978
0.0326019
0.030795
0.0308186
0.0308194
0.0307918
0.0136106
0.0136096
0.0135887
0.0135326
0.00171371
0.0017142
0.00171521
0.00171701
0.00167294
0.00167678
0.00167679
0.00167294
0.0137099
0.0138008
0.0138164
0.0137626
0.0280085
0.0279784
0.0279792
0.0280113
0.0298044
0.0298031
0.0298063
0.0298136
0.030132
0.030134
0.0301343
0.0301328
0.0305893
0.0305953
0.0306004
0.0306041
0.0309505
0.0309608
0.030969
0.0309741
0.0294073
0.0294184
0.0294159
0.0293964
0.013864
0.0138638
0.0138461
0.0138019
0.00168494
0.00168514
0.0016858
0.00168714
0.00164605
0.00164953
0.00164953
0.00164604
0.0143228
0.0143849
0.0143938
0.0143581
0.0281191
0.0280897
0.02809
0.0281203
0.0295972
0.029596
0.0295983
0.029604
0.0297662
0.0297678
0.0297685
0.0297681
0.0299992
0.0300024
0.0300057
0.0300087
0.0301587
0.0301635
0.0301683
0.0301727
0.0288163
0.0288223
0.0288189
0.0288044
0.0143901
0.014394
0.01438
0.0143427
0.00165557
0.0016556
0.00165602
0.00165701
0.00161764
0.00162077
0.00162077
0.00161762
0.0150236
0.0150661
0.0150716
0.0150441
0.0282918
0.0282641
0.0282642
0.0282922
0.0295109
0.0295097
0.0295112
0.0295153
0.0295997
0.0296011
0.0296018
0.0296017
0.0297198
0.0297218
0.0297239
0.029726
0.029787
0.0297895
0.0297925
0.029796
0.0286576
0.0286618
0.0286588
0.0286478
0.0151184
0.0151278
0.0151175
0.015084
0.00162526
0.00162518
0.00162545
0.00162617
0.00158757
0.00159036
0.00159036
0.00158757
0.0158345
0.0158741
0.0158781
0.0158492
0.0284922
0.0284672
0.0284672
0.0284923
0.0294775
0.0294766
0.0294774
0.0294801
0.0295241
0.0295253
0.0295259
0.0295259
0.0295876
0.0295889
0.0295903
0.0295916
0.0296176
0.0296191
0.0296211
0.0296237
0.0287139
0.0287176
0.0287155
0.0287071
0.0160298
0.0160452
0.0160381
0.0160067
0.0015937
0.00159358
0.00159375
0.00159427
0.00155578
0.0015582
0.0015582
0.00155577
0.0168099
0.0168538
0.0168564
0.0168198
0.0287035
0.0286823
0.0286822
0.0287036
0.0294665
0.0294659
0.0294663
0.0294678
0.0294892
0.0294901
0.0294905
0.0294905
0.0295237
0.0295246
0.0295255
0.0295262
0.0295419
0.0295429
0.0295443
0.0295462
0.0288693
0.0288727
0.0288715
0.0288651
0.0171394
0.0171602
0.017156
0.0171258
0.00156069
0.00156056
0.00156066
0.00156103
0.00152224
0.00152426
0.00152425
0.00152223
0.018007
0.0180681
0.0180697
0.018013
0.0289151
0.0288986
0.0288987
0.0289152
0.0294635
0.0294633
0.0294635
0.0294639
0.0294714
0.0294721
0.0294723
0.0294722
0.0294904
0.029491
0.0294914
0.0294918
0.029506
0.0295067
0.0295077
0.0295089
0.0290594
0.0290625
0.0290618
0.0290569
0.0184895
0.0185131
0.0185114
0.0184838
0.00152613
0.00152601
0.00152607
0.00152632
0.00148714
0.00148872
0.00148872
0.00148714
0.0195178
0.0196215
0.0196222
0.0195207
0.0291154
0.0291051
0.0291051
0.0291156
0.0294612
0.0294614
0.0294614
0.0294612
0.0294603
0.0294607
0.0294608
0.0294607
0.0294701
0.0294704
0.0294706
0.0294706
0.0294833
0.0294838
0.0294844
0.0294851
0.029242
0.029245
0.0292444
0.0292401
0.0201455
0.0201633
0.0201636
0.0201464
0.00149008
0.00149
0.00149003
0.00149019
0.0014508
0.0014519
0.0014519
0.0014508
0.0215059
0.0217019
0.0217021
0.0215066
0.0292886
0.0292853
0.0292853
0.0292889
0.0294563
0.0294567
0.0294567
0.0294562
0.0294518
0.0294521
0.0294521
0.029452
0.029456
0.0294561
0.0294561
0.029456
0.0294627
0.0294631
0.0294634
0.0294637
0.0293842
0.029387
0.0293862
0.0293818
0.0222598
0.0222714
0.0222718
0.0222612
0.00145267
0.00145262
0.00145264
0.00145272
0.00141253
0.00141314
0.00141314
0.00141253
0.0243526
0.0246971
0.0246971
0.0243527
0.0294159
0.029418
0.029418
0.0294161
0.0294493
0.0294495
0.0294495
0.0294493
0.0294465
0.0294466
0.0294467
0.0294466
0.0294476
0.0294476
0.0294476
0.0294475
0.0294457
0.029446
0.0294463
0.0294466
0.0294636
0.0294648
0.0294639
0.0294609
0.0251695
0.0251706
0.0251713
0.0251714
0.00141309
0.0014131
0.00141311
0.00141313
0.00219647
0.00208298
0.00202162
0.00198584
0.00196461
0.00194878
0.00193521
0.00192361
0.00191421
0.00190674
0.00280746
0.00252469
0.00384789
0.00830366
0.0133666
0.0171446
0.019222
0.0198342
0.0195578
0.0188277
0.00403141
0.00498199
0.0114508
0.0211217
0.0322214
0.041796
0.0487838
0.053018
0.0547403
0.0542147
0.00557295
0.00896916
0.0176592
0.0302526
0.0434544
0.0540512
0.0614677
0.0657971
0.0674388
0.0668285
0.00876599
0.0121159
0.02306
0.0370094
0.0505316
0.0609147
0.0677767
0.0714745
0.0725817
0.0718562
0.0132367
0.0159588
0.0274704
0.0417028
0.0549633
0.0648107
0.0708949
0.073761
0.0742135
0.0733469
0.0167111
0.01884
0.0294899
0.0436962
0.056525
0.0656476
0.0707074
0.0725955
0.0723418
0.0714111
0.0185317
0.0194617