/*--------------------------------*- C++ -*----------------------------------*\
| =========                 |                                                 |
| \\      /  F ield         | foam-extend: Open Source CFD                    |
|  \\    /   O peration     | Version:     4.0                                |
|   \\  /    A nd           | Web:         http://www.foam-extend.org         |
|    \\/     M anipulation  |                                                 |
\*---------------------------------------------------------------------------*/
FoamFile
{
    version     2.0;
    format      ascii;
    class       volScalarField;
    location    "2800";
    object      p;
}
// * * * * * * * * * * * * * * * * * * * * * * * * * * * * * * * * * * * * * //

dimensions      [1 -1 -2 0 0 0 0];

internalField   nonuniform List<scalar> 
34480
(
107861
107574
107356
107235
107245
107439
107917
108688
109396
112514
107122
106697
106324
106025
105834
105807
106057
106667
107075
109443
106720
106174
105666
105201
104801
104526
104499
104849
104873
106278
106503
105814
105158
104523
103920
103402
103098
103163
102782
103204
106381
105570
104796
104024
103255
102530
101981
101763
100983
100496
106390
105489
104628
103756
102863
101976
101225
100747
99589.6
98330.5
106291
105327
104415
103484
102519
101528
100630
99918.4
98397
96430
106362
105376
104444
103498
102514
101487
100507
99607.2
97720
95002.6
106156
105166
104234
103308
102368
101385
100395
99345.8
97080
93609.1
106273
105268
104314
103380
102471
101571
100675
99653.1
97127.5
92814
109718
109562
109509
109591
109849
110337
111147
112402
114300
117347
108621
108341
108151
108080
108179
108525
109243
110512
112588
116405
107963
107563
107243
107019
106933
107072
107592
108734
110795
115097
107552
107012
106548
106162
105889
105812
106101
107056
109012
113612
107296
106633
106045
105523
105089
104818
104885
105621
107412
112149
107201
106443
105759
105129
104567
104135
104003
104513
106098
110825
107032
106202
105452
104750
104100
103549
103256
103546
104888
109469
107053
106187
105398
104658
103960
103338
102927
103012
104068
108374
106846
105959
105146
104388
103682
103048
102579
102499
103228
107278
106917
106019
105185
104406
103693
103075
102625
102512
102982
106893
111088
111018
111056
111225
111550
112057
112780
113753
115020
116600
109869
109698
109634
109705
109952
110424
111195
112349
113989
116252
109054
108778
108603
108553
108675
109036
109745
110949
112834
115719
108502
108099
107795
107607
107583
107801
108394
109571
111610
115048
108135
107614
107195
106883
106720
106794
107250
108349
110466
114359
107947
107331
106815
106400
106121
106063
106384
107375
109515
113761
107712
107020
106432
105940
105572
105408
105606
106472
108577
113061
107686
106948
106311
105768
105339
105094
105187
105916
107918
112515
107484
106715
106041
105459
104991
104700
104721
105328
107156
111856
107529
106749
106050
105442
104946
104630
104622
105179
106821
111653
111950
111919
111974
112126
112386
112759
113251
113858
114561
115304
110806
110702
110696
110809
111062
111480
112092
112918
113962
115138
109964
109772
109681
109712
109901
110293
110946
111925
113281
114942
109351
109049
108852
108779
108873
109195
109834
110904
112531
114695
108922
108513
108214
108038
108028
108262
108851
109960
111805
114447
108675
108174
107785
107516
107412
107554
108077
109188
111203
114279
108395
107817
107357
107014
106830
106890
107341
108423
110554
114003
108334
107705
107190
106792
106547
106537
106914
107938
110118
113864
108120
107458
106906
106467
106176
106116
106433
107389
109535
113564
108138
107464
106887
106423
106105
106015
106293
107199
109254
113556
112440
112426
112472
112583
112759
113000
113300
113646
114020
114385
111470
111408
111425
111533
111742
112058
112485
113015
113626
114244
110686
110555
110514
110578
110770
111110
111622
112319
113193
114137
110070
109850
109728
109723
109866
110196
110757
111595
112733
114052
109619
109304
109098
109015
109093
109386
109963
110905
112292
114000
109338
108938
108653
108494
108504
108748
109319
110335
111948
114047
109031
108557
108205
107980
107927
108120
108669
109730
111534
114003
108944
108418
108013
107736
107630
107771
108286
109358
111301
114103
108723
108163
107721
107405
107257
107358
107837
108897
110904
114031
108723
108150
107683
107344
107170
107244
107693
108728
110721
114150
112672
112665
112696
112766
112874
113016
113186
113375
113569
113752
111906
111870
111890
111974
112125
112342
112619
112942
113292
113621
111232
111144
111129
111196
111358
111621
111989
112454
112993
113532
110658
110500
110427
110456
110604
110891
111335
111943
112698
113499
110218
109981
109842
109817
109932
110221
110718
111452
112430
113523
109929
109616
109411
109329
109403
109679
110210
111052
112251
113656
109610
109229
108966
108830
108861
109114
109662
110589
111995
113716
109511
109079
108767
108586
108576
108800
109349
110332
111909
113933
109285
108820
108474
108258
108215
108412
108951
109965
111659
113979
109275
108795
108426
108189
108122
108299
108822
109840
111572
114154
112746
112742
112760
112800
112862
112941
113034
113135
113236
113329
112171
112149
112165
112223
112323
112462
112633
112826
113025
113206
111626
111567
111564
111621
111744
111933
112184
112485
112815
113128
111122
111010
110967
111006
111136
111365
111696
112119
112610
113102
110718
110542
110451
110458
110578
110831
111229
111772
112443
113144
110441
110201
110057
110024
110126
110390
110842
111500
112360
113297
110126
109825
109634
109560
109637
109901
110395
111153
112200
113388
110025
109678
109443
109334
109383
109639
110157
110994
112209
113647
109799
109420
109155
109017
109042
109285
109815
110707
112054
113737
109784
109390
109104
108948
108956
109186
109712
110628
112037
113927
112733
112730
112739
112761
112794
112837
112887
112939
112992
113039
112315
112301
112312
112348
112410
112495
112597
112709
112823
112924
111899
111859
111860
111903
111990
112118
112284
112475
112676
112862
111474
111396
111371
111409
111512
111683
111918
112206
112523
112830
111123
110995
110936
110956
111064
111269
111571
111961
112415
112869
110872
110691
110593
110588
110693
110922
111286
111781
112386
113012
110573
110341
110204
110172
110266
110511
110927
111520
112280
113096
110481
110208
110035
109976
110056
110308
110761
111439
112346
113355
110259
109955
109758
109676
109742
109992
110469
111211
112241
113442
110245
109927
109711
109616
109669
109914
110398
111173
112270
113624
112678
112676
112681
112692
112709
112732
112758
112785
112812
112837
112379
112371
112377
112399
112435
112485
112544
112608
112673
112729
112078
112052
112053
112083
112141
112225
112330
112449
112572
112684
111732
111678
111664
111694
111771
111892
112054
112245
112450
112643
111441
111349
111312
111335
111423
111579
111800
112073
112378
112674
111225
111092
111026
111035
111130
111316
111595
111957
112377
112796
110951
110775
110679
110671
110766
110976
111308
111757
112299
112859
110876
110666
110542
110516
110605
110831
111206
111734
112396
113099
110660
110422
110278
110236
110319
110551
110956
111545
112311
113156
110653
110402
110243
110190
110266
110500
110917
111542
112368
113323
112610
112609
112611
112616
112625
112636
112650
112664
112678
112691
112396
112390
112393
112406
112427
112455
112489
112525
112561
112593
112191
112173
112174
112193
112230
112283
112348
112422
112496
112563
111914
111878
111870
111892
111945
112028
112136
112261
112392
112514
111684
111619
111595
111616
111683
111797
111953
112140
112342
112535
111507
111411
111367
111382
111460
111603
111809
112066
112354
112635
111261
111131
111066
111070
111154
111324
111579
111908
112290
112672
111210
111052
110965
110958
111045
111234
111530
111927
112401
112888
111002
110819
110717
110700
110785
110986
111313
111764
112320
112907
111006
110813
110698
110674
110756
110962
111304
111789
112394
113059
112543
112542
112543
112546
112550
112556
112563
112570
112578
112584
112385
112382
112383
112390
112402
112418
112437
112457
112478
112495
112257
112246
112246
112258
112280
112313
112353
112397
112442
112482
112038
112014
112008
112024
112060
112115
112185
112265
112347
112424
111864
111819
111804
111820
111869
111949
112056
112181
112314
112439
111726
111658
111629
111644
111704
111810
111957
112136
112331
112517
111510
111416
111372
111382
111451
111581
111769
112005
112269
112528
111486
111370
111310
111314
111389
111540
111765
112055
112388
112720
111286
111149
111078
111076
111153
111318
111571
111906
112300
112703
111305
111160
111079
111072
111150
111321
111590
111952
112385
112843
112485
112484
112484
112485
112488
112490
112494
112497
112502
112505
112362
112360
112361
112364
112371
112380
112390
112402
112413
112423
112295
112287
112287
112294
112307
112327
112351
112377
112404
112427
112118
112102
112099
112109
112132
112167
112212
112262
112314
112362
111994
111964
111954
111966
112000
112054
112125
112208
112294
112374
111891
111844
111825
111838
111882
111958
112060
112181
112311
112433
111704
111637
111608
111619
111672
111769
111903
112068
112247
112420
111709
111626
111586
111594
111655
111770
111935
112141
112370
112594
111516
111416
111368
111373
111438
111566
111755
111996
112271
112544
111553
111446
111391
111394
111460
111596
111798
112062
112365
112675
112437
112437
112437
112437
112438
112439
112441
112443
112445
112447
112333
112332
112333
112335
112338
112343
112349
112355
112362
112368
112315
112310
112309
112313
112321
112333
112347
112362
112378
112392
112167
112157
112155
112161
112176
112198
112226
112257
112289
112319
112086
112066
112060
112068
112091
112126
112173
112226
112281
112332
112012
111980
111969
111978
112010
112062
112131
112211
112296
112376
111851
111805
111786
111795
111835
111904
111997
112109
112229
112343
111886
111828
111801
111811
111857
111941
112059
112201
112356
112505
111696
111625
111593
111601
111652
111748
111884
112053
112241
112424
111754
111678
111641
111648
111701
111804
111951
112137
112344
112552
112402
112401
112401
112401
112401
112402
112403
112404
112405
112405
112304
112303
112304
112305
112307
112309
112313
112316
112320
112323
112326
112322
112322
112324
112329
112335
112344
112353
112362
112370
112195
112188
112187
112191
112200
112213
112230
112250
112269
112287
112149
112136
112132
112138
112153
112176
112205
112239
112273
112305
112099
112078
112070
112077
112099
112133
112179
112231
112286
112337
111960
111929
111916
111924
111952
111999
112062
112137
112215
112290
112024
111984
111967
111976
112010
112069
112150
112246
112349
112445
111833
111784
111763
111770
111809
111878
111973
112089
112214
112335
111915
111862
111838
111846
111887
111961
112065
112192
112331
112467
112378
112377
112377
112377
112377
112378
112378
112378
112379
112379
112274
112274
112275
112275
112276
112278
112280
112282
112284
112286
112333
112331
112331
112332
112334
112338
112343
112348
112354
112358
112208
112204
112203
112206
112211
112219
112229
112241
112253
112264
112192
112184
112181
112185
112194
112209
112227
112248
112269
112289
112158
112144
112140
112145
112159
112181
112210
112244
112278
112310
112039
112018
112010
112016
112035
112066
112108
112156
112206
112254
112130
112104
112094
112100
112124
112165
112219
112282
112348
112409
111933
111899
111885
111892
111919
111967
112031
112109
112190
112269
112044
112008
111993
112000
112029
112081
112152
112237
112327
112415
112369
112369
112369
112368
112368
112368
112369
112368
112369
112368
112244
112245
112245
112245
112246
112247
112248
112249
112251
112252
112340
112339
112339
112339
112341
112343
112346
112349
112352
112355
112213
112210
112209
112211
112214
112218
112224
112231
112238
112245
112218
112213
112212
112214
112220
112229
112240
112253
112266
112278
112195
112187
112184
112187
112196
112210
112229
112250
112271
112291
112094
112081
112076
112080
112092
112112
112139
112169
112200
112231
112211
112194
112187
112192
112209
112235
112271
112311
112354
112391
111999
111976
111968
111973
111992
112024
112066
112116
112168
112219
112150
112127
112118
112123
112144
112179
112225
112281
112338
112393
112387
112386
112386
112385
112385
112385
112384
112384
112384
112382
112211
112211
112212
112212
112213
112213
112214
112214
112215
112216
112347
112346
112346
112347
112348
112349
112351
112353
112355
112356
112211
112210
112209
112210
112211
112214
112217
112221
112225
112229
112231
112229
112228
112229
112233
112238
112245
112253
112261
112268
112214
112209
112207
112209
112215
112224
112235
112248
112261
112273
112131
112122
112119
112122
112130
112142
112159
112177
112196
112215
112265
112254
112251
112254
112265
112282
112305
112331
112358
112379
112034
112019
112014
112018
112030
112051
112077
112109
112142
112175
112252
112237
112232
112236
112249
112272
112302
112337
112373
112407
112453
112452
112452
112452
112451
112451
112450
112450
112450
112447
112167
112166
112167
112167
112167
112167
112167
112167
112168
112168
112347
112347
112347
112347
112348
112350
112351
112353
112354
112356
112207
112206
112206
112206
112207
112208
112209
112211
112213
112215
112234
112232
112231
112232
112234
112238
112242
112247
112252
112256
112218
112214
112213
112215
112218
112224
112231
112239
112247
112255
112151
112146
112145
112146
112151
112159
112169
112180
112191
112202
112284
112278
112275
112278
112285
112296
112311
112328
112346
112359
112032
112023
112019
112022
112030
112043
112060
112080
112099
112122
112375
112365
112362
112365
112374
112389
112408
112431
112453
112474
112591
112591
112591
112592
112593
112594
112595
112596
112598
112596
112094
112094
112094
112093
112093
112092
112091
112090
112089
112087
112328
112328
112328
112329
112330
112331
112333
112335
112337
112339
112205
112204
112204
112204
112204
112205
112205
112206
112207
112207
112228
112227
112227
112227
112229
112231
112234
112237
112241
112244
112212
112210
112209
112210
112212
112216
112220
112226
112231
112237
112160
112157
112156
112157
112160
112165
112172
112179
112186
112193
112255
112250
112248
112250
112255
112263
112273
112286
112299
112310
111981
111975
111973
111975
111980
111989
112000
112012
112024
112039
112545
112537
112535
112537
112543
112553
112567
112583
112598
112615
112753
112754
112755
112757
112760
112764
112768
112775
112782
112789
112004
112003
112003
112002
112000
111998
111996
111992
111988
111980
112292
112292
112293
112293
112294
112296
112297
112300
112302
112306
112209
112208
112207
112207
112208
112208
112208
112209
112209
112209
112223
112222
112222
112222
112223
112225
112228
112230
112233
112236
112206
112204
112204
112204
112206
112209
112213
112217
112222
112226
112166
112163
112162
112163
112165
112170
112175
112181
112187
112191
112197
112192
112191
112192
112196
112203
112211
112222
112234
112247
111901
111896
111894
111896
111900
111908
111917
111926
111934
111938
112719
112711
112708
112709
112714
112723
112735
112748
112763
112781
128801
132341
132374
130320
129743
133715
133687
131793
130452
134650
135026
133350
130748
135119
136233
134810
131065
135589
137367
136135
131825
136586
139081
138406
132602
137522
140530
140473
133382
138366
141722
142183
133065
137997
141577
142507
131682
136430
140177
141656
120881
122472
122848
121964
121427
123275
123813
123034
121850
123920
124617
124060
122255
124522
125431
125160
122780
125198
126349
126317
123416
125902
127179
127253
123943
126446
127797
127969
124569
127050
128434
128787
124629
127048
128489
129063
124367
126743
128339
129169
118003
118698
118881
118598
118338
119192
119472
119259
118660
119679
120082
119954
119003
120194
120754
120738
119461
120810
121523
121612
120117
121600
122437
122636
120730
122325
123266
123573
121458
123126
124140
124559
121783
123463
124524
125060
122012
123647
124722
125351
115867
116189
116303
116216
116002
116416
116601
116567
116212
116729
116998
117029
116475
117104
117473
117590
116839
117577
118040
118243
117368
118205
118752
119044
117858
118782
119405
119790
118503
119498
120190
120677
118832
119863
120610
121194
119089
120129
120914
121575
114646
114803
114868
114846
114654
114867
114981
114999
114763
115045
115216
115280
114955
115312
115549
115676
115245
115678
115981
116171
115698
116206
116574
116831
116122
116701
117129
117455
116719
117362
117846
118247
117061
117741
118268
118737
117376
118066
118621
119138
113879
113959
113997
113994
113828
113942
114012
114038
113863
114022
114132
114192
113990
114201
114357
114462
114216
114480
114683
114836
114591
114909
115160
115364
114935
115304
115602
115858
115461
115878
116219
116529
115773
116222
116595
116950
116085
116548
116942
117328
113394
113435
113457
113459
113318
113381
113423
113444
113316
113409
113478
113523
113388
113517
113618
113695
113557
113723
113859
113970
113863
114067
114238
114386
114133
114376
114581
114766
114588
114865
115102
115325
114850
115151
115411
115663
115135
115446
115721
115992
113074
113096
113108
113111
112985
113021
113047
113062
112973
113029
113072
113103
113003
113083
113149
113201
113125
113232
113322
113398
113367
113500
113616
113719
113568
113728
113868
113998
113953
114138
114301
114456
114154
114356
114535
114709
114402
114612
114802
114987
112855
112867
112874
112876
112763
112784
112799
112809
112751
112786
112813
112833
112751
112802
112844
112879
112838
112906
112966
113018
113026
113113
113191
113262
113166
113273
113368
113457
113489
113613
113724
113831
113623
113759
113882
114001
113835
113977
114107
114233
112701
112707
112711
112713
112612
112623
112633
112639
112604
112626
112642
112655
112581
112613
112641
112664
112641
112686
112726
112761
112786
112844
112896
112944
112875
112947
113011
113072
113146
113229
113305
113378
113218
113310
113394
113474
113399
113495
113583
113668
112589
112593
112595
112596
112505
112512
112517
112522
112507
112520
112531
112539
112466
112487
112504
112520
112508
112537
112563
112586
112616
112655
112690
112722
112663
112711
112755
112796
112892
112948
113000
113049
112911
112974
113031
113085
113069
113134
113194
113251
112508
112510
112511
112512
112427
112431
112434
112437
112444
112451
112458
112463
112388
112401
112412
112422
112419
112437
112454
112469
112498
112524
112547
112568
112510
112542
112571
112599
112708
112746
112781
112814
112684
112726
112764
112801
112826
112869
112909
112948
112449
112450
112451
112451
112369
112370
112372
112375
112402
112407
112411
112414
112335
112343
112350
112356
112360
112373
112383
112393
112418
112434
112449
112463
112402
112423
112442
112461
112580
112605
112628
112650
112517
112545
112571
112595
112651
112680
112707
112732
112407
112407
112408
112408
112323
112323
112324
112326
112377
112380
112382
112384
112297
112302
112306
112310
112324
112331
112338
112344
112364
112374
112384
112393
112328
112341
112354
112366
112494
112510
112526
112540
112397
112415
112432
112448
112531
112550
112568
112585
112380
112380
112380
112381
112284
112284
112285
112286
112363
112365
112366
112367
112269
112272
112275
112277
112300
112305
112309
112313
112328
112334
112340
112346
112278
112287
112295
112302
112441
112452
112461
112471
112311
112323
112334
112344
112456
112468
112480
112491
112369
112369
112369
112369
112249
112248
112249
112250
112358
112360
112360
112361
112247
112249
112251
112252
112285
112288
112291
112293
112302
112306
112310
112313
112245
112251
112256
112261
112411
112418
112424
112430
112247
112254
112261
112268
112419
112426
112434
112440
112383
112382
112382
112383
112211
112211
112211
112212
112359
112360
112361
112361
112229
112230
112231
112232
112273
112274
112276
112277
112280
112283
112285
112288
112223
112226
112229
112232
112393
112397
112401
112405
112193
112198
112202
112206
112422
112426
112431
112435
112448
112446
112446
112448
112162
112161
112161
112163
112359
112360
112360
112360
112215
112215
112216
112217
112260
112261
112262
112263
112260
112261
112263
112264
112206
112207
112209
112212
112370
112373
112375
112377
112134
112137
112140
112142
112482
112485
112488
112491
112602
112599
112599
112602
112080
112079
112079
112081
112344
112345
112345
112344
112206
112206
112206
112207
112246
112247
112248
112248
112240
112242
112242
112243
112193
112194
112195
112197
112324
112326
112328
112328
112044
112046
112047
112049
112620
112622
112624
112626
112811
112809
112809
112811
111967
111962
111962
111967
112310
112312
112312
112310
112207
112207
112207
112208
112237
112238
112239
112239
112229
112230
112231
112232
112191
112191
112192
112194
112264
112267
112269
112268
111924
111922
111924
111929
112789
112792
112793
112794
120056
116535
114354
112639
111410
110490
109757
109153
108650
108222
121296
117349
114652
112777
111407
110364
109517
108803
108186
107623
122382
118086
114933
113013
111548
110408
109461
108650
107941
107305
123647
118997
115587
113580
111977
110720
109656
108732
107909
107188
124996
119936
116343
114148
112409
111029
109857
108836
107914
107139
126562
121009
117217
114808
112936
111435
110167
109058
108056
107218
128066
121818
117887
115240
113255
111641
110287
109105
108036
107165
129698
122610
118658
115761
113697
111980
110560
109316
108201
107278
130753
122858
118985
115890
113785
111984
110509
109213
108074
107107
131854
123323
119569
116296
114120
112227
110683
109324
108148
107140
119504
117121
115408
114069
112992
112116
111398
110815
110348
109982
120190
117473
115426
113827
112566
111561
110742
110063
109501
109017
120889
117904
115512
113782
112412
111320
110418
109659
109014
108449
121691
118541
115933
114087
112608
111416
110413
109551
108798
108141
122474
119314
116484
114494
112896
111597
110494
109538
108686
107963
123555
120251
117211
115048
113325
111915
110717
109675
108739
107945
124691
121013
117803
115434
113595
112075
110790
109674
108666
107829
126124
121792
118517
115928
114002
112385
111033
109852
108795
107901
127200
122068
118843
116077
114103
112405
110995
109761
108673
107736
128409
122414
119334
116414
114379
112604
111142
109860
108747
107782
117756
116580
115485
114518
113685
112980
112394
111916
111542
111264
118295
116805
115391
114172
113152
112307
111606
111025
110553
110162
118876
117131
115431
114035
112882
111931
111138
110472
109915
109439
119563
117653
115747
114218
112948
111892
110995
110225
109562
108989
120316
118308
116209
114538
113145
111978
110979
110112
109349
108703
121329
119149
116866
115026
113502
112222
111124
110168
109318
108595
122357
119881
117423
115382
113732
112338
111150
110116
109190
108416
123675
120681
118120
115865
114114
112621
111360
110259
109280
108446
124680
121039
118483
116056
114243
112665
111339
110182
109165
108288
125744
121415
118946
116370
114495
112847
111476
110277
109236
108332
115919
115399
114833
114272
113747
113276
112868
112527
112260
112065
116259
115567
114779
114012
113309
112686
112147
111691
111321
111019
116717
115868
114865
113915
113060
112312
111666
111115
110655
110265
117318
116350
115177
114076
113088
112220
111463
110804
110238
109751
118021
116951
115618
114368
113247
112262
111396
110636
109969
109403
118955
117733
116241
114824
113567
112464
111495
110642
109885
109238
119898
118430
116780
115170
113780
112559
111494
110558
109722
109017
121088
119230
117461
115650
114148
112823
111679
110673
109778
109012
122000
119655
117844
115858
114273
112857
111644
110582
109646
108839
122937
120069
118272
116140
114492
113013
111760
110661
109703
108872
114731
114494
114207
113898
113589
113299
113038
112816
112639
112512
114906
114589
114166
113708
113253
112827
112443
112111
111839
111620
115219
114817
114253
113645
113052
112502
112010
111580
111219
110914
115693
115225
114538
113794
113070
112398
111791
111253
110788
110389
116286
115755
114949
114066
113212
112420
111702
111060
110495
110016
117083
116458
115528
114495
113507
112596
111772
111034
110378
109815
117879
117095
116034
114829
113708
112678
111753
110929
110191
109568
118904
117858
116688
115303
114065
112928
111920
111023
110224
109538
119687
118304
117071
115519
114185
112955
111876
110923
110080
109355
120473
118720
117464
115780
114384
113096
111979
110992
110127
109378
113947
113839
113697
113533
113362
113194
113039
112904
112795
112717
114019
113874
113652
113388
113109
112833
112576
112349
112162
112009
114207
114025
113718
113348
112957
112575
112218
111900
111628
111399
114551
114343
113956
113477
112972
112476
112011
111589
111222
110905
115017
114786
114316
113723
113100
112490
111917
111394
110931
110537
115667
115393
114835
114116
113372
112647
111970
111352
110799
110324
116306
115948
115290
114428
113558
112719
111941
111236
110602
110064
117158
116647
115898
114885
113902
112958
112096
111317
110620
110020
117790
117070
116255
115094
114011
112976
112043
111209
110468
109831
118417
117460
116611
115338
114196
113108
112138
111272
110508
109846
113440
113390
113319
113235
113142
113049
112961
112883
112819
112773
113446
113379
113262
113113
112946
112775
112612
112464
112341
112239
113552
113472
113307
113086
112837
112581
112333
112106
111911
111746
113780
113698
113484
113184
112843
112490
112147
111829
111550
111308
114128
114047
113781
113395
112955
112501
112060
111648
111281
110968
114639
114551
114225
113743
113199
112642
112103
111601
111150
110759
115130
115009
114613
114018
113365
112702
112068
111481
110951
110500
115821
115626
115162
114447
113690
112930
112214
111555
110963
110452
116304
115993
115469
114631
113781
112937
112154
111443
110807
110260
116791
116345
115788
114861
113957
113064
112245
111502
110843
110272
113103
113080
113045
113002
112953
112903
112855
112811
112775
112749
113068
113037
112976
112893
112796
112695
112595
112503
112426
112360
113128
113095
113006
112875
112719
112552
112386
112232
112097
111982
113268
113241
113124
112940
112714
112471
112226
111995
111790
111610
113518
113505
113357
113110
112807
112478
112149
111836
111554
111313
113909
113907
113723
113406
113019
112602
112186
111791
111433
111122
114269
114265
114036
113635
113157
112648
112145
111672
111241
110874
114823
114793
114516
114024
113458
112863
112285
111744
111255
110831
115171
115085
114759
114172
113526
112858
112219
111629
111096
110639
115547
115394
115041
114387
113693
112981
112308
111688
111133
110652
112873
112863
112845
112824
112799
112772
112746
112723
112703
112688
112816
112802
112770
112725
112670
112611
112552
112497
112450
112408
112851
112838
112789
112713
112617
112512
112404
112302
112212
112134
112927
112922
112858
112745
112599
112435
112266
112104
111958
111830
113103
113114
113032
112876
112671
112440
112201
111971
111761
111581
113397
113427
113325
113119
112849
112546
112234
111933
111657
111417
113650
113692
113563
113297
112955
112574
112188
111817
111476
111186
114091
114133
113973
113642
113228
112776
112323
111891
111498
111155
114322
114344
114148
113748
113270
112757
112250
111773
111339
110966
114616
114610
114394
113946
113428
112877
112339
111835
111379
110984
112711
112707
112699
112688
112675
112661
112647
112635
112624
112616
112645
112639
112623
112599
112568
112535
112501
112469
112441
112414
112668
112663
112637
112592
112535
112470
112402
112337
112278
112227
112697
112700
112665
112596
112504
112396
112283
112173
112072
111982
112819
112836
112791
112693
112557
112398
112230
112066
111914
111784
113038
113074
113017
112885
112701
112486
112259
112036
111831
111650
113206
113258
113187
113012
112773
112496
112207
111925
111663
111440
113558
113622
113532
113313
113018
112683
112338
112004
111697
111427
113694
113756
113643
113377
113033
112648
112257
111883
111538
111242
113929
113984
113858
113558
113181
112765
112347
111949
111585
111268
112596
112594
112590
112585
112578
112571
112564
112557
112551
112546
112527
112524
112516
112503
112487
112468
112449
112430
112414
112398
112547
112546
112532
112506
112472
112433
112391
112350
112313
112281
112542
112547
112528
112486
112429
112360
112286
112213
112146
112084
112625
112641
112617
112556
112467
112361
112246
112131
112025
111934
112786
112818
112787
112703
112580
112431
112270
112110
111961
111829
112887
112935
112896
112783
112619
112422
112212
112003
111809
111642
113173
113235
113186
113044
112839
112597
112341
112089
111856
111650
113234
113302
113240
113066
112823
112542
112249
111963
111697
111469
113427
113497
113427
113230
112964
112659
112343
112037
111754
111508
112511
112511
112509
112507
112503
112500
112496
112492
112489
112486
112442
112441
112437
112430
112421
112411
112401
112390
112381
112370
112467
112468
112460
112446
112426
112402
112377
112352
112329
112309
112437
112442
112431
112407
112372
112328
112281
112234
112190
112149
112495
112508
112495
112457
112400
112331
112254
112176
112104
112042
112611
112636
112620
112567
112486
112385
112275
112162
112058
111964
112661
112698
112678
112606
112495
112359
112210
112060
111919
111799
112898
112950
112924
112833
112693
112523
112339
112155
111984
111830
112900
112960
112927
112815
112648
112448
112234
112022
111822
111652
113066
113131
113094
112968
112784
112565
112333
112104
111891
111705
112450
112451
112450
112449
112447
112445
112443
112441
112439
112438
112379
112379
112377
112374
112369
112363
112357
112352
112346
112339
112416
112417
112413
112405
112393
112379
112364
112349
112335
112323
112366
112370
112364
112350
112328
112302
112272
112243
112215
112188
112410
112419
112412
112389
112353
112308
112258
112207
112159
112118
112492
112510
112502
112469
112416
112350
112275
112199
112128
112063
112502
112529
112519
112474
112401
112308
112206
112101
112002
111918
112706
112746
112734
112676
112583
112466
112337
112206
112084
111973
112661
112707
112691
112619
112507
112368
112216
112063
111918
111794
112812
112864
112846
112766
112641
112489
112323
112158
112002
111865
112408
112408
112407
112407
112406
112405
112404
112403
112402
112402
112330
112330
112330
112328
112325
112323
112319
112316
112313
112308
112384
112385
112383
112379
112372
112364
112355
112345
112337
112330
112317
112319
112317
112308
112296
112280
112262
112243
112226
112209
112355
112361
112357
112344
112321
112293
112261
112228
112197
112170
112411
112424
112420
112400
112367
112324
112275
112224
112176
112133
112393
112412