/*--------------------------------*- C++ -*----------------------------------*\
| =========                 |                                                 |
| \\      /  F ield         | foam-extend: Open Source CFD                    |
|  \\    /   O peration     | Version:     4.0                                |
|   \\  /    A nd           | Web:         http://www.foam-extend.org         |
|    \\/     M anipulation  |                                                 |
\*---------------------------------------------------------------------------*/
FoamFile
{
    version     2.0;
    format      ascii;
    class       surfaceScalarField;
    location    "2800";
    object      phi;
}
// * * * * * * * * * * * * * * * * * * * * * * * * * * * * * * * * * * * * * //

dimensions      [1 0 -1 0 0 0 0];

internalField   nonuniform List<scalar> 
97302
(
-0.000109159
5.33185e-06
-0.000614709
0.000631514
-0.000133909
5.79792e-06
-0.0006183
0.000637252
-0.000162523
6.22108e-06
-0.000621114
0.000643507
-0.000196839
6.63521e-06
-0.000623147
0.000650828
-0.000239381
7.05905e-06
-0.000624255
0.000659738
-0.000293225
7.4763e-06
-0.000623701
0.000670069
-0.000361121
7.79433e-06
-0.000619432
0.000679533
-0.000442349
7.78826e-06
-0.000606793
0.000680234
-0.000532907
7.05861e-06
-0.0005751
0.0006586
4.58609e-06
-0.000491037
-0.000669235
0.000622778
-0.000137843
7.91671e-06
-0.00085974
0.000875225
-0.0001581
8.81084e-06
-0.000865518
0.000882762
-0.000181384
9.47941e-06
-0.000870272
0.000890298
-0.000209471
9.98741e-06
-0.000873839
0.000898574
-0.000245385
1.0379e-05
-0.000876509
0.000909103
-0.000293529
1.06554e-05
-0.000878128
0.000923093
-0.000359411
1.0728e-05
-0.000876868
0.000939817
-0.000446171
1.03272e-05
-0.000867449
0.00095167
-0.000549437
8.84874e-06
-0.000836513
0.000937989
4.59673e-06
-0.000726326
-0.000721814
0.000898692
-0.000168266
8.43859e-06
-0.00110358
0.00111819
-0.000185284
9.69494e-06
-0.00111156
0.00112769
-0.000204954
1.06178e-05
-0.00111852
0.00113705
-0.000228894
1.12817e-05
-0.00112432
0.00114697
-0.000260227
1.17311e-05
-0.00112925
0.00115923
-0.00030416
1.19825e-05
-0.00113379
0.0011764
-0.000367982
1.19591e-05
-0.00113686
0.00119945
-0.000457887
1.13575e-05
-0.00113287
0.00122174
-0.000569509
9.37496e-06
-0.00110629
0.00121738
3.59172e-06
-0.000974924
-0.000767607
0.00117403
-0.000199694
8.5267e-06
-0.0013439
0.00135783
-0.000215525
1.00053e-05
-0.0013554
0.00137092
-0.000233883
1.10872e-05
-0.00136589
0.00138378
-0.000256175
1.18425e-05
-0.00137522
0.00139695
-0.000285328
1.22925e-05
-0.00138336
0.00141195
-0.000326784
1.2446e-05
-0.00139102
0.00143202
-0.000389033
1.22315e-05
-0.0013979
0.00145987
-0.000480725
1.13276e-05
-0.0013991
0.00149083
-0.00059759
8.70144e-06
-0.00137791
0.00149545
1.11003e-06
-0.00122758
-0.000811544
0.00144401
-0.000233301
8.4448e-06
-0.00158428
0.00159774
-0.000248478
9.97917e-06
-0.00159973
0.00161493
-0.000266124
1.10769e-05
-0.00161422
0.00163187
-0.000287475
1.18068e-05
-0.00162752
0.0016489
-0.000315263
1.2176e-05
-0.00163935
0.00166726
-0.000354966
1.21734e-05
-0.00165039
0.00169037
-0.000415919
1.17249e-05
-0.00166094
0.00172241
-0.000508793
1.05004e-05
-0.00166725
0.00176096
-0.000629458
7.19201e-06
-0.00165189
0.00177406
-2.36931e-06
-0.00148266
-0.000852992
0.00170967
-0.000269428
8.23492e-06
-0.00182311
0.00183619
-0.000284094
9.66574e-06
-0.00184268
0.00185765
-0.000301178
1.06444e-05
-0.00186117
0.00187869
-0.000321809
1.12425e-05
-0.00187843
0.00189963
-0.000348557
1.1458e-05
-0.00189405
0.00192151
-0.000386862
1.12685e-05
-0.0019085
0.00194771
-0.000446697
1.06122e-05
-0.00192253
0.00198348
-0.000540585
9.19732e-06
-0.00193352
0.00202871
-0.000665166
5.48525e-06
-0.00192343
0.00204971
-5.6777e-06
-0.00173226
-0.000898881
0.00196928
-0.00030743
8.00687e-06
-0.00206108
0.00207379
-0.000321633
9.13886e-06
-0.00208441
0.00209914
-0.000338172
9.85929e-06
-0.00210652
0.00212385
-0.000358076
1.02125e-05
-0.0021273
0.00214824
-0.000383748
1.01875e-05
-0.00214637
0.00217331
-0.000420498
9.76546e-06
-0.00216401
0.00220226
-0.000478727
8.95201e-06
-0.00218144
0.00224133
-0.00057266
7.58469e-06
-0.00219734
0.00229288
-0.000700062
4.02366e-06
-0.00219335
0.00232222
-7.87654e-06
-0.00198026
-0.000942651
0.00222505
-0.000348439
7.22818e-06
-0.00229924
0.00231187
-0.000361995
7.89544e-06
-0.00232593
0.00234073
-0.00037784
8.29971e-06
-0.00235102
0.00236843
-0.000396922
8.41155e-06
-0.00237474
0.00239562
-0.000421419
8.18913e-06
-0.00239666
0.00242315
-0.000456338
7.60415e-06
-0.00241694
0.00245402
-0.000512199
6.76638e-06
-0.00243724
0.00249529
-0.000604743
5.74043e-06
-0.00245795
0.00255234
-0.000733301
3.12735e-06
-0.00246158
0.00259103
-8.1262e-06
-0.00222915
-0.000982709
0.0024788
-0.000390222
5.05658e-06
-0.00253425
0.00254699
-0.000402693
5.04718e-06
-0.00256345
0.00257877
-0.000417624
4.98842e-06
-0.0025909
0.00260915
-0.000436071
4.77473e-06
-0.00261751
0.00263959
-0.000459985
4.37125e-06
-0.00264306
0.0026708
-0.000493693
3.73215e-06
-0.0026673
0.00270488
-0.000547096
3.04867e-06
-0.00269125
0.00274838
-0.00063696
2.61502e-06
-0.00271671
0.0028097
-0.000764504
1.67016e-06
-0.0027287
0.0028577
-7.24333e-06
-0.0024815
-0.00101449
0.00273061
-0.00043259
-0.0027543
0.00276791
-0.000443465
-0.00278614
0.00280207
-0.000456895
-0.00281617
0.00283458
-0.00047406
-0.00284525
0.00286719
-0.000496869
-0.00287306
0.00290024
-0.000529217
-0.00289959
0.00293567
-0.000579851
-0.00292624
0.00297992
-0.00066525
-0.00295709
0.00304511
-0.000788331
-0.00298301
0.00310776
-0.00273969
-0.00103719
0.00298131
1.23281e-05
5.38518e-06
-0.000599573
-1.01147e-05
5.84984e-06
-0.000601708
-3.49038e-05
6.23814e-06
-0.000602563
-6.2663e-05
6.55729e-06
-0.000601946
-9.43056e-05
6.80258e-06
-0.000599415
-0.000130716
6.94148e-06
-0.000594232
-0.000171781
6.90109e-06
-0.000585268
-0.000214223
6.53604e-06
-0.000570887
-0.000247647
5.58675e-06
-0.000547263
3.53371e-06
-0.000505123
-0.000237095
2.25633e-05
7.97556e-06
-0.000844397
2.61339e-06
8.92868e-06
-0.000848647
-1.96445e-05
9.63716e-06
-0.000851413
-4.47831e-05
1.01313e-05
-0.000852275
-7.41129e-05
1.04168e-05
-0.000850793
-0.000109741
1.04681e-05
-0.000846027
-0.000153792
1.02154e-05
-0.000836131
-0.000206169
9.47665e-06
-0.000818013
-0.000259402
7.89599e-06
-0.00078559
4.63563e-06
-0.00072094
-0.00026589
3.21706e-05
8.48947e-06
-0.00108821
1.43773e-05
9.88662e-06
-0.00109472
-5.77876e-06
1.09328e-05
-0.00109966
-2.90245e-05
1.16734e-05
-0.00110262
-5.67752e-05
1.21052e-05
-0.00110318
-9.18277e-05
1.22029e-05
-0.00110047
-0.000138166
1.1897e-05
-0.0010922
-0.000198833
1.09676e-05
-0.00107369
-0.000270199
8.91807e-06
-0.00103595
4.49632e-06
-0.000947978
-0.000297005
4.14843e-05
8.43269e-06
-0.00132865
2.42932e-05
1.01603e-05
-0.00133848
4.58682e-06
1.14748e-05
-0.00134673
-1.84071e-05
1.24205e-05
-0.00135298
-4.6099e-05
1.29743e-05
-0.00135653
-8.14766e-05
1.30881e-05
-0.00135653
-0.000129748
1.26792e-05
-0.00135041
-0.000197088
1.15091e-05
-0.00133231
-0.000284532
8.934e-06
-0.00129049
3.21663e-06
-0.00117862
-0.000332211
4.89283e-05
8.14489e-06
-0.00156908
3.19259e-05
1.00587e-05
-0.00158262
1.23091e-05
1.15187e-05
-0.00159464
-1.07365e-05
1.25694e-05
-0.00160462
-3.86285e-05
1.31807e-05
-0.00161167
-7.44012e-05
1.32753e-05
-0.00161481
-0.000124117
1.27474e-05
-0.0016113
-0.000196827
1.13496e-05
-0.00159439
-0.000298338
8.27136e-06
-0.00154971
1.21522e-06
-0.0014136
-0.000365387
5.41356e-05
7.66975e-06
-0.00180789
3.72569e-05
9.62344e-06
-0.00182536
1.77118e-05
1.11088e-05
-0.00184122
-5.35592e-06
1.2175e-05
-0.00185497
-3.33749e-05
1.27892e-05
-0.00186564
-6.94085e-05
1.28574e-05
-0.00187205
-0.000120136
1.22589e-05
-0.00187131
-0.000197078
1.07633e-05
-0.00185599
-0.000310492
7.41983e-06
-0.00180916
-7.05995e-07
-0.00164784
-0.000392989
5.7088e-05
7.07521e-06
-0.00204587
4.03828e-05
8.87604e-06
-0.00206696
2.10381e-05
1.0256e-05
-0.00208633
-1.82733e-06
1.12453e-05
-0.00210351
-2.96443e-05
1.1807e-05
-0.00211757
-6.5472e-05
1.18382e-05
-0.00212716
-0.000116456
1.12349e-05
-0.00212943
-0.000196351
9.84641e-06
-0.00211653
-0.000319843
6.6792e-06
-0.00206912
-2.08733e-06
-0.00188327
-0.000415454
5.74954e-05
5.89632e-06
-0.00228384
4.12759e-05
7.34421e-06
-0.00230818
2.24673e-05
8.53216e-06
-0.00233049
1.66615e-07
9.4322e-06
-0.00235063
-2.70174e-05
9.9931e-06
-0.00236766
-6.20691e-05
1.00888e-05
-0.00238014
-0.000112396
9.65985e-06
-0.00238534
-0.000193735
8.67632e-06
-0.00237544
-0.000325725
6.39114e-06
-0.0023293
-2.25305e-06
-0.00212087
-0.000433839
5.58598e-05
3.41219e-06
-0.00251852
4.06935e-05
4.24194e-06
-0.00254518
2.29449e-05
5.03823e-06
-0.00256966
1.53022e-06
5.68492e-06
-0.00259235
-2.50486e-05
6.17745e-06
-0.00261267
-5.95972e-05
6.37896e-06
-0.00262904
-0.000109159
6.28699e-06
-0.00263832
-0.000190798
5.98873e-06
-0.00263238
-0.00032996
5.37362e-06
-0.00258852
-1.41587e-06
-0.00235918
-0.000453115
5.31588e-05
-0.00273902
3.92768e-05
-0.00276802
2.29801e-05
-0.00279483
3.10782e-06
-0.00281969
-2.18963e-05
-0.00284188
-5.50023e-05
-0.0028601
-0.000102727
-0.00287222
-0.000182689
-0.00287114
-0.000327133
-0.0028332
-0.00259062
-0.000477619
6.83486e-06
5.29874e-06
-0.000587486
-1.19278e-05
5.708e-06
-0.000588653
-3.20008e-05
6.00905e-06
-0.000588499
-5.32741e-05
6.2039e-06
-0.000586876
-7.54587e-05
6.27238e-06
-0.000583503
-9.78453e-05
6.16865e-06
-0.000578014
-0.000118916
5.8221e-06
-0.000570019
-0.00013574
5.13983e-06
-0.000559204
-0.000141922
4.01045e-06
-0.000545092
2.34472e-06
-0.000526495
-0.000122895
1.61533e-05
7.99822e-06
-0.000830655
-2.08922e-06
8.87628e-06
-0.000833573
-2.2153e-05
9.49105e-06
-0.000834832
-4.40077e-05
9.85884e-06
-0.000834075
-6.77111e-05
9.96124e-06
-0.000830779
-9.31614e-05
9.73841e-06
-0.000824147
-0.0001195
9.09964e-06
-0.00081307
-0.000144145
7.91285e-06
-0.000796141
-0.000160327
6.01375e-06
-0.000771411
3.25527e-06
-0.000736804
-0.000145374
2.57217e-05
8.72727e-06
-0.00107355
8.43189e-06
1.00544e-05
-0.00107861
-1.09748e-05
1.10152e-05
-0.00108178
-3.2784e-05
1.16354e-05
-0.00108258
-5.74284e-05
1.18869e-05
-0.00108047
-8.55297e-05
1.16978e-05
-0.00107433
-0.000117262
1.09475e-05
-0.00106232
-0.00015087
9.43617e-06
-0.00104161
-0.000179645
6.86965e-06
-0.00100803
2.92006e-06
-0.000954964
-0.000172324
3.51868e-05
8.77949e-06
-0.00131363
1.80277e-05
1.04605e-05
-0.00132173
-1.58628e-06
1.1712e-05
-0.00132781
-2.41374e-05
1.25643e-05
-0.00133135
-5.02589e-05
1.29614e-05
-0.00133149
-8.10424e-05
1.28069e-05
-0.00132686
-0.000117623
1.19418e-05
-0.00131482
-0.000159607
1.01011e-05
-0.00129099
-0.000201474
6.83823e-06
-0.00124859
1.5976e-06
-0.00117424
-0.000204525
4.31097e-05
8.545e-06
-0.00155384
2.58793e-05
1.04458e-05
-0.00156538
5.95694e-06
1.18781e-05
-0.00157489
-1.72569e-05
1.28742e-05
-0.00158172
-4.46157e-05
1.33658e-05
-0.00158471
-7.75554e-05
1.32265e-05
-0.00158229
-0.000118118
1.22554e-05
-0.00157105
-0.000167575
1.01232e-05
-0.00154495
-0.00022232
6.19118e-06
-0.00149432
-4.08856e-07
-0.00139686
-0.000237062
4.89628e-05
8.06123e-06
-0.00179247
3.17045e-05
1.00369e-05
-0.00180769
1.16132e-05
1.15335e-05
-0.00182078
-1.2012e-05
1.25888e-05
-0.00183106
-4.02239e-05
1.31311e-05
-0.00183719
-7.47542e-05
1.30145e-05
-0.0018373
-0.000118498
1.201e-05
-0.00182733
-0.000174543
9.74525e-06
-0.00179957
-0.00024174
5.38554e-06
-0.00174116
-2.35614e-06
-0.00161897
-0.000268657
5.26228e-05
7.37323e-06
-0.00203031
3.54722e-05
9.22383e-06
-0.002049
1.54616e-05
1.06496e-05
-0.00206543
-8.18979e-06
1.16757e-05
-0.00207895
-3.66981e-05
1.22326e-05
-0.00208816
-7.20511e-05
1.21597e-05
-0.00209095
-0.000117948
1.12256e-05
-0.00208275
-0.000179418
9.06645e-06
-0.00205438
-0.000258299
4.70838e-06
-0.00198956
-3.86612e-06
-0.00184244
-0.000297623
5.36729e-05
6.06056e-06
-0.00226803
3.70017e-05
7.55922e-06
-0.00228985
1.75131e-05
8.79094e-06
-0.00230914
-5.65402e-06
9.73747e-06
-0.00232552
-3.38201e-05
1.03373e-05
-0.0023376
-6.91602e-05
1.0418e-05
-0.00234306
-0.00011606
9.7843e-06
-0.002337
-0.0001815
8.12471e-06
-0.00230906
-0.000271032
4.55164e-06
-0.00223961
-4.24441e-06
-0.00206837
-0.000323153
5.23813e-05
3.55375e-06
-0.00250236
3.67336e-05
4.4062e-06
-0.00252638
1.83542e-05
5.22053e-06
-0.00254771
-3.80932e-06
5.88217e-06
-0.00256633
-3.13394e-05
6.40476e-06
-0.00258121
-6.65693e-05
6.63821e-06
-0.00259003
-0.000114085
6.48473e-06
-0.0025875
-0.000182225
5.72556e-06
-0.00256184
-0.00028079
3.91349e-06
-0.00248931
-3.26312e-06
-0.002294
-0.00034696
5.00197e-05
-0.00272299
3.55419e-05
-0.00274914
1.85696e-05
-0.00277264
-2.03089e-06
-0.00279321
-2.78334e-05
-0.00280967
-6.14543e-05
-0.00281984
-0.000107798
-0.00281939
-0.000176299
-0.00279692
-0.000280719
-0.00272486
-0.00250942
-0.000365184
3.95394e-06
4.93792e-06
-0.000579035
-1.02956e-05
5.27647e-06
-0.00057968
-2.50576e-05
5.48419e-06
-0.000579221
-3.99129e-05
5.56419e-06
-0.000577585
-5.42502e-05
5.49792e-06
-0.000574664
-6.71611e-05
5.25143e-06
-0.000570355
-7.72976e-05
4.78269e-06
-0.000564666
-8.26677e-05
4.04791e-06
-0.000557881
-8.01222e-05
3.01617e-06
-0.000550653
1.74792e-06
-0.000543121
-6.52438e-05
1.13575e-05
7.67615e-06
-0.000819399
-4.05947e-06
8.45067e-06
-0.00082133
-2.06571e-05
8.94329e-06
-0.000821693
-3.8075e-05
9.16723e-06
-0.00082026
-5.57712e-05
9.09966e-06
-0.000816684
-7.28184e-05
8.68313e-06
-0.000810531
-8.7618e-05
7.84638e-06
-0.000801334
-9.74832e-05
6.52221e-06
-0.00078875
-9.7826e-05
4.68383e-06
-0.000772736
2.47634e-06
-0.000754246
-8.11125e-05
2.00316e-05
8.67033e-06
-0.00106045
4.2167e-06
9.88339e-06
-0.00106423
-1.32585e-05
1.07123e-05
-0.00106607
-3.22723e-05
1.11684e-05
-0.00106557
-5.26066e-05
1.12168e-05
-0.00106225
-7.37157e-05
1.07751e-05
-0.00105531
-9.41952e-05
9.72972e-06
-0.00104372
-0.000110945
7.94463e-06
-0.00102628
-0.000117645
5.30319e-06
-0.00100195
1.93454e-06
-0.000971039
-0.000101029
2.90539e-05
8.90371e-06
-0.00129952
1.26969e-05
1.04865e-05
-0.00130597
-5.80404e-06
1.16181e-05
-0.00131022
-2.6581e-05
1.23149e-05
-0.00131172
-4.96447e-05
1.25051e-05
-0.00130971
-7.4814e-05
1.20745e-05
-0.00130299
-0.000101049
1.08558e-05
-0.00128971
-0.000125263
8.62967e-06
-0.00126746
-0.000140077
5.15188e-06
-0.00123362
5.14252e-07
-0.00118686
-0.000126043
3.70311e-05
8.78433e-06
-0.00153912
2.01852e-05
1.06163e-05
-0.00154866
8.14966e-07
1.19578e-05
-0.00155586
-2.13893e-05
1.28296e-05
-0.00156003
-4.66892e-05
1.31338e-05
-0.00156004
-7.52967e-05
1.27213e-05
-0.00155433
-0.000106695
1.13642e-05
-0.00154016
-0.000138219
8.74907e-06
-0.00151355
-0.000162095
4.45198e-06
-0.00146975
-1.54322e-06
-0.00140442
-0.000152479
4.32365e-05
8.34298e-06
-0.00177726
2.60889e-05
1.0284e-05
-0.00179021
6.1625e-06
1.17267e-05
-0.00180062
-1.70096e-05
1.26982e-05
-0.00180776
-4.39692e-05
1.30902e-05
-0.00181019
-7.53022e-05
1.27269e-05
-0.00180598
-0.000111129
1.13304e-05
-0.00179146
-0.000149544
8.50063e-06
-0.00176091
-0.00018302
3.60473e-06
-0.00170683
-3.57879e-06
-0.0016206
-0.000179357
4.74241e-05
7.61433e-06
-0.00201476
3.02179e-05
9.45893e-06
-0.00203097
1.01248e-05
1.08625e-05
-0.00204448
-1.3459e-05
1.18453e-05
-0.00205451
-4.13459e-05
1.23037e-05
-0.00205949
-7.4495e-05
1.20406e-05
-0.00205712
-0.000113756
1.07504e-05
-0.00204291
-0.00015832
7.97697e-06
-0.00200929
-0.000201602
2.88644e-06
-0.00194556
-5.26156e-06
-0.00183719
-0.00020517
4.9051e-05
6.21318e-06
-0.0022521
3.22376e-05
7.71836e-06
-0.00227129
1.25408e-05
8.93249e-06
-0.00228752
-1.07788e-05
9.84387e-06
-0.0023002
-3.87579e-05
1.0371e-05
-0.00230769
-7.27007e-05
1.03158e-05
-0.00230739
-0.000114222
9.40098e-06
-0.00229413
-0.000163897
7.16123e-06
-0.00225856
-0.000216976
2.7187e-06
-0.00218636
-5.8058e-06
-0.00205547
-0.000229331
4.8323e-05
3.67911e-06
-0.002486
3.24531e-05
4.53809e-06
-0.00250733
1.38132e-05
5.34115e-06
-0.00252548
-8.50875e-06
5.97038e-06
-0.00254013
-3.59031e-05
6.43369e-06
-0.00254987
-7.00723e-05
6.5746e-06
-0.00255212
-0.000113234
6.24925e-06
-0.00254119
-0.000167168
5.08115e-06
-0.00250583
-0.000229424
2.44674e-06
-0.00242679
-4.60344e-06
-0.00227259
-0.000252037
4.6439e-05
-0.00270649
3.16427e-05
-0.0027298
1.43372e-05
-0.00274999
-6.47889e-06
-0.00276642
-3.21735e-05
-0.00277754
-6.47264e-05
-0.00278071
-0.000107152
-0.00277072
-0.000162919
-0.00273607
-0.000231871
-0.00265346
-0.00247773
-0.000268159
2.51026e-06
4.39898e-06
-0.000573822
-7.61733e-06
4.66779e-06
-0.00057422
-1.78466e-05
4.80036e-06
-0.000573792
-2.77132e-05
4.80191e-06
-0.00057252
-3.66479e-05
4.66274e-06
-0.000570392
-4.39499e-05
4.36643e-06
-0.000567419
-4.87854e-05
3.89837e-06
-0.000563729
-5.01959e-05
3.24914e-06
-0.00055972
-4.6968e-05
2.42202e-06
-0.000556303
1.47911e-06
-0.00055413
-3.74376e-05
7.95909e-06
7.0814e-06
-0.000810901
-4.27225e-06
7.74026e-06
-0.000812171
-1.71544e-05
8.11236e-06
-0.000812123
-3.0189e-05
8.2124e-06
-0.000810636
-4.26899e-05
8.02481e-06
-0.000807546
-5.36782e-05
7.51238e-06
-0.000802689
-6.17927e-05
6.63949e-06
-0.000795961
-6.52556e-05
5.39469e-06
-0.000787432
-6.18762e-05
3.82728e-06
-0.00077752
2.13666e-06
-0.000767276
-4.95037e-05
1.53614e-05
8.31781e-06
-0.00104941
1.65382e-06
9.38871e-06
-0.00105217
-1.32235e-05
1.0068e-05
-0.00105315
-2.88758e-05
1.03597e-05
-0.00105207
-4.47308e-05
1.02325e-05
-0.0010486
-5.98347e-05
9.61736e-06
-0.00104232
-7.2582e-05
8.43864e-06
-0.00103277
-8.04044e-05
6.63962e-06
-0.0010197
-7.94468e-05
4.23335e-06
-0.00100331
1.48798e-06
-0.0009851
-6.47375e-05
2.35303e-05
8.76045e-06
-0.0012869
8.62525e-06
1.02065e-05
-0.00129188
-8.006e-06
1.11871e-05
-0.0012947
-2.61687e-05
1.17053e-05
-0.00129491
-4.54335e-05
1.16897e-05
-0.0012919
-6.49601e-05
1.10316e-05
-0.00128488
-8.3031e-05
9.59866e-06
-0.0012728
-9.64232e-05
7.26194e-06
-0.00125469
-9.96522e-05
3.95476e-06
-0.00123012
2.07231e-08
-0.00120089
-8.4152e-05
3.11875e-05
8.79541e-06
-0.00152541
1.53168e-05
1.05134e-05
-0.0015331
-2.7411e-06
1.17222e-05
-0.00153833
-2.2996e-05
1.24289e-05
-0.0015405
-4.52128e-05
1.25238e-05
-0.00153866
-6.87879e-05
1.18558e-05
-0.00153158
-9.20959e-05
1.02224e-05
-0.00151747
-0.000111522
7.39702e-06
-0.00149426
-0.000120165
3.17406e-06
-0.00146032
-2.07825e-06
-0.00141729
-0.000105191
3.74502e-05
8.43868e-06
-0.00176273
2.09399e-05
1.02979e-05
-0.00177349
1.88179e-06
1.1638e-05
-0.00178148
-1.99125e-05
1.24743e-05
-0.00178601
-4.44624e-05
1.26743e-05
-0.00178579
-7.14772e-05
1.20533e-05
-0.00177916
-9.9611e-05
1.03405e-05
-0.00176345
-0.000125169
7.20363e-06
-0.00173516
-0.000140203
2.25242e-06
-0.00169088
-4.19149e-06
-0.00163142
-0.000127269
4.19573e-05
7.71735e-06
-0.00199962
2.51511e-05
9.51244e-06
-0.00201338
5.60224e-06
1.08444e-05
-0.00202413
-1.70542e-05
1.17262e-05
-0.0020311
-4.31387e-05
1.2027e-05
-0.00203276
-7.27216e-05
1.15338e-05
-0.00202701
-0.000104921
9.92421e-06
-0.00201029
-0.00013632
6.76691e-06
-0.00197746
-0.000158439
1.45777e-06
-0.00192265
-5.99465e-06
-0.00184492
-0.000148901
4.40455e-05
6.26626e-06
-0.00223638
2.74747e-05
7.74845e-06
-0.00225296
8.10767e-06
8.90852e-06
-0.00226621
-1.46005e-05
9.73734e-06
-0.0022755
-4.12603e-05
1.01299e-05
-0.00227913
-7.23336e-05
9.87665e-06
-0.00227466
-0.000107559
8.66689e-06
-0.00225765
-0.00014418
6.00895e-06
-0.00222119
-0.000173956
1.19307e-06
-0.00215632
-6.67249e-06
-0.00205916
-0.000169583
4.38957e-05
3.73602e-06
-0.00246977
2.81325e-05
4.58927e-06
-0.00248841
9.67676e-06
5.36471e-06
-0.00250348
-1.21743e-05
5.94006e-06
-0.00251449
-3.84161e-05
6.30877e-06
-0.00251981
-7.0023e-05
6.30808e-06
-0.00251694
-0.000107474
5.7631e-06
-0.00250084
-0.000148844
4.25126e-06
-0.0024627
-0.000186528
1.20603e-06
-0.00238911
-5.30069e-06
-0.00227133
-0.000189154
4.247e-05
-0.00268994
2.76696e-05
-0.00271041
1.04275e-05
-0.00272738
-1.00724e-05
-0.00273998
-3.48403e-05
-0.00274646
-6.51152e-05
-0.00274413
-0.00010216
-0.00272791
-0.00014572
-0.00268826
-0.000189445
-0.00260853
-0.00247079
-0.00020169
1.81908e-06
3.77718e-06
-0.000571072
-5.02124e-06
3.98629e-06
-0.000571366
-1.18098e-05
4.06796e-06
-0.000571072
-1.81603e-05
4.029e-06
-0.000570199
-2.36505e-05
3.86805e-06
-0.00056877
-2.78248e-05
3.58188e-06
-0.000566827
-3.02264e-05
3.17306e-06
-0.0005645
-3.04447e-05
2.64814e-06
-0.00056215
-2.80757e-05
2.01594e-06
-0.000560688
1.30682e-06
-0.000561168
-2.2345e-05
5.61895e-06
6.30805e-06
-0.000804971
-3.58706e-06
6.85321e-06
-0.000805832
-1.30981e-05
7.12327e-06
-0.000805667
-2.2418e-05
7.13596e-06
-0.000804423
-3.09352e-05
6.88653e-06
-0.000802047
-3.78847e-05
6.35968e-06
-0.000798517
-4.23421e-05
5.55005e-06
-0.00079388
-4.32991e-05
4.47928e-06
-0.000788306
-3.98552e-05
3.22229e-06
-0.000782171
1.95277e-06
-0.000776151
-3.16255e-05
1.16814e-05
7.71868e-06
-0.00104065
3.66271e-07
8.63471e-06
-0.00104264
-1.17074e-05
9.16749e-06
-0.00104312
-2.40325e-05
9.32064e-06
-0.00104193
-3.5937e-05
9.0722e-06
-0.00103888
-4.64674e-05
8.37612e-06
-0.0010338
-5.43046e-05
7.19728e-06
-0.00102658
-5.77348e-05
5.53899e-06
-0.00101733
-5.4766e-05
3.48336e-06
-0.00100654
1.29988e-06
-0.000995417
-4.37954e-05
1.87678e-05
8.36188e-06
-0.00127611
5.75901e-06
9.64562e-06
-0.00127989
-8.55044e-06
1.04631e-05
-0.00128169
-2.37515e-05
1.08098e-05
-0.00128119
-3.91906e-05
1.06248e-05
-0.00127802
-5.38218e-05
9.82137e-06
-0.00127169
-6.59789e-05
8.31583e-06
-0.00126176
-7.31647e-05
6.06458e-06
-0.00124803
-7.20231e-05
3.12107e-06
-0.00123089
-1.23063e-07
-0.00121232
-5.9175e-05
2.58174e-05
8.56729e-06
-0.00151313
1.14158e-05
1.01353e-05
-0.00151918
-4.77083e-06
1.11858e-05
-0.00152287
-2.24934e-05
1.17135e-05
-0.00152368
-4.12e-05
1.16134e-05
-0.00152094
-5.98862e-05
1.07512e-05
-0.00151382
-7.66835e-05
8.97557e-06
-0.00150134
-8.83859e-05
6.1628e-06
-0.00148265
-9.01332e-05
2.28162e-06
-0.00145774
-2.18072e-06
-0.00142926
-7.61025e-05
3.18682e-05
8.32572e-06
-0.00174929
1.64793e-05
1.00623e-05
-0.00175803
-1.10765e-06
1.12641e-05
-0.00176397
-2.0819e-05
1.19346e-05
-0.00176652
-4.22722e-05
1.19352e-05
-0.00176466
-6.46305e-05
1.10916e-05
-0.00175714
-8.59989e-05
9.17764e-06
-0.00174228
-0.000102646
5.96871e-06
-0.00171831
-0.000108266
1.29772e-06
-0.00168428
-4.29297e-06
-0.00164344
-9.41312e-05
3.64795e-05
7.65611e-06
-0.00198528
2.05253e-05
9.36292e-06
-0.00199672
2.10664e-06
1.05849e-05
-0.00200503
-1.88842e-05
1.13263e-05
-0.0020095
-4.23233e-05
1.14426e-05
-0.00200882
-6.76422e-05
1.0726e-05
-0.00200133
-9.31218e-05
8.88215e-06
-0.00198452
-0.00011477
5.57093e-06
-0.00195541
-0.000125046
4.35315e-07
-0.00191151
-6.12796e-06
-0.00185632
-0.000111812
3.88773e-05
6.19942e-06
-0.00222126
2.29511e-05
7.63078e-06
-0.0022353
4.44797e-06
8.70794e-06
-0.00224583
-1.69397e-05
9.42159e-06
-0.00225221
-4.13794e-05
9.64911e-06
-0.0022529
-6.865e-05
9.18464e-06
-0.00224585
-9.74205e-05
7.72604e-06
-0.00222772
-0.000123788
4.83829e-06
-0.00219409
-0.000139481
4.81132e-08
-0.00214024
-6.89237e-06
-0.00206921
-0.000128669
3.92339e-05
3.71574e-06
-0.00245402
2.39294e-05
4.54809e-06
-0.00247002
6.11485e-06
5.27976e-06
-0.00248224
-1.46613e-05
5.78354e-06
-0.00249007
-3.89311e-05
6.03803e-06
-0.00249193
-6.69728e-05
5.88027e-06
-0.0024856
-9.81236e-05
5.12894e-06
-0.00246709
-0.000128935
3.3856e-06
-0.00243044
-0.000150674
2.46364e-07
-0.00236757
-5.43209e-06
-0.00227948
-0.000143981
3.82181e-05
-0.0026737
2.3746e-05
-0.00269139
6.98181e-06
-0.00270534
-1.26673e-05
-0.00271455
-3.57972e-05
-0.00271729
-6.29452e-05
-0.0027111
-9.40471e-05
-0.00269168
-0.000126865
-0.00265205
-0.000153199
-0.00258195
-0.00247703
-0.000152388
1.44295e-06
3.15174e-06
-0.000569968
-3.01674e-06
3.31366e-06
-0.00057022
-7.40097e-06
3.36556e-06
-0.000570053
-1.14273e-05
3.31481e-06
-0.000569487
-1.48118e-05
3.16549e-06
-0.000568551
-1.72781e-05
2.92164e-06
-0.000567282
-1.85878e-05
2.59359e-06
-0.000565784
-1.8579e-05
2.19216e-06
-0.000564351
-1.71387e-05
1.72044e-06
-0.000563849
1.17397e-06
-0.000565679
-1.38012e-05
3.99729e-06
5.4516e-06
-0.000801153
-2.64458e-06
5.89392e-06
-0.00080177
-9.40702e-06
6.08669e-06
-0.000801626
-1.58648e-05
6.04988e-06
-0.000800701
-2.15423e-05
5.78796e-06
-0.000798992
-2.59096e-05
5.30149e-06
-0.00079653
-2.84035e-05
4.60376e-06
-0.000793397
-2.85016e-05
3.73075e-06
-0.000789747
-2.58745e-05
2.75661e-06
-0.000785834
1.81251e-06
-0.000782034
-2.06307e-05
8.82921e-06
6.94745e-06
-0.00103407
-1.16846e-07
7.70952e-06
-0.00103551
-9.52373e-06
8.11277e-06
-0.00103574
-1.88904e-05
8.16407e-06
-0.00103467
-2.75978e-05
7.8529e-06
-0.00103224
-3.48627e-05
7.15607e-06
-0.00102839
-3.97389e-05
6.06913e-06
-0.00102317
-4.11881e-05
4.62898e-06
-0.00101678
-3.82657e-05
2.94014e-06
-0.00100965
1.22734e-06
-0.00100253
-3.05662e-05
1.47632e-05
7.75224e-06
-0.00126731
3.85671e-06
8.86177e-06
-0.00127013
-7.97968e-06
9.51971e-06
-0.00127126
-2.02459e-05
9.72081e-06
-0.00127049
-3.22405e-05
9.4203e-06
-0.00126759
-4.29737e-05
8.55958e-06
-0.00126236
-5.10955e-05
7.09998e-06
-0.00125467
-5.49042e-05
5.0578e-06
-0.00124465
-5.25533e-05
2.54791e-06
-0.00123285
-7.55447e-08
-0.0012207
-4.28623e-05
2.10204e-05
8.11991e-06
-0.00150256
8.4166e-06
9.51336e-06
-0.00150723
-5.57143e-06
1.03953e-05
-0.00150976
-2.05277e-05
1.07526e-05
-0.00150975
-3.5757e-05
1.04968e-05
-0.00150679
-5.01637e-05
9.5228e-06
-0.00150038
-6.20544e-05
7.73517e-06
-0.00149008
-6.90053e-05
5.09597e-06
-0.00147574
-6.79909e-05
1.68617e-06
-0.00145789
-2.01954e-06
-0.00143876
-5.6551e-05
2.66428e-05
8.00749e-06
-0.00173727
1.27565e-05
9.58889e-06
-0.00174422
-2.93022e-06
1.0631e-05
-0.00174852
-2.01361e-05
1.11268e-05
-0.00174969
-3.82449e-05
1.09492e-05
-0.001747
-5.61746e-05
9.94973e-06
-0.00173964
-7.20094e-05
7.96298e-06
-0.00172668
-8.26617e-05
4.86977e-06
-0.00170744
-8.37973e-05
6.71363e-07
-0.00168212
-4.05228e-06
-0.00165392
-7.12881e-05
3.1159e-05
7.42461e-06
-0.00197211
1.64479e-05
9.00955e-06
-0.00198143
-3.66732e-07
1.00947e-05
-0.00198768
-1.91641e-05
1.06751e-05
-0.00199026
-3.95032e-05
1.06096e-05
-0.00198815
-6.0447e-05
9.71316e-06
-0.00198015
-8.00287e-05
7.74791e-06
-0.00196472
-9.46438e-05
4.4843e-06
-0.00194041
-9.86169e-05
-2.24163e-07
-0.00190664
-5.82945e-06
-0.0018675
-8.56555e-05
3.37064e-05
6.00351e-06
-0.00220708
1.87965e-05
7.3573e-06
-0.00221874
1.62202e-06
8.32927e-06
-0.00222689
-1.78848e-05
8.90866e-06
-0.00223094
-3.95249e-05
8.96642e-06
-0.00222961
-6.26158e-05
8.31558e-06
-0.00222136
-8.53545e-05
6.69597e-06
-0.00220393
-0.000103881
3.76998e-06
-0.00217484
-0.000111427
-7.08771e-07
-0.00213221
-6.62724e-06
-0.00208068
-9.91646e-05
3.44659e-05
3.61272e-06
-0.00243908
1.99626e-05
4.40714e-06
-0.00245257
3.21036e-06
5.0801e-06
-0.00246224
-1.59844e-05
5.49983e-06
-0.00246747
-3.77277e-05
5.63482e-06
-0.00246686
-6.17372e-05
5.33061e-06
-0.0024586
-8.66919e-05
4.42349e-06
-0.00243986
-0.000108902
2.58364e-06
-0.00240704
-0.000120696
-4.11604e-07
-0.00235608
-5.17323e-06
-0.00229113
-0.000110502
3.37981e-05
-0.00265817
1.99816e-05
-0.00267317
4.09141e-06
-0.00268437
-1.42287e-05
-0.00269073
-3.51835e-05
-0.00269071
-5.87372e-05
-0.00268222
-8.39754e-05
-0.00266202
-0.000107903
-0.00262554
-0.00012289
-0.00256738
-0.0024891
-0.000116
1.18631e-06
2.57462e-06
-0.000569846
-1.65508e-06
2.70059e-06
-0.000570079
-4.44348e-06
2.7371e-06
-0.000570002
-6.98557e-06
2.69105e-06
-0.000569636
-9.09895e-06
2.56925e-06
-0.000569007
-1.06192e-05
2.37864e-06
-0.000568141
-1.14223e-05
2.13157e-06
-0.000567112
-1.14487e-05
1.83753e-06
-0.000566162
-1.06818e-05
1.49135e-06
-0.000566107
1.05827e-06
-0.000568628
-8.79179e-06
2.85251e-06
4.59185e-06
-0.000798912
-1.77635e-06
4.94589e-06
-0.000799387
-6.446e-06
5.08436e-06
-0.000799304
-1.0824e-05
5.0277e-06
-0.000798659
-1.4565e-05
4.78642e-06
-0.000797468
-1.73184e-05
4.36999e-06
-0.000795768
-1.87524e-05
3.79986e-06
-0.000793631
-1.8607e-05
3.11393e-06
-0.000791169
-1.67879e-05
2.37564e-06
-0.000788537
1.67908e-06
-0.000785929
-1.35136e-05
6.63395e-06
6.08511e-06
-0.00102938
-1.87308e-07
6.70385e-06
-0.00103044
-7.27198e-06
7.00076e-06
-0.00103057
-1.41838e-05
6.98636e-06
-0.00102972
-2.04193e-05
6.66041e-06
-0.00102788
-2.53985e-05
6.01768e-06
-0.00102506
-2.84922e-05
5.07275e-06
-0.00102135
-2.9098e-05
3.87553e-06
-0.00101694
-2.67785e-05
2.52605e-06
-0.00101212
1.19665e-06
-0.00100733
-2.14934e-05
1.14576e-05
6.99343e-06
-0.00126044
2.6394e-06
7.9292e-06
-0.00126254
-6.81382e-06
8.44264e-06
-0.00126325
-1.64001e-05
8.53189e-06
-0.00126244
-2.5478e-05
8.16971e-06
-0.00126002
-3.32301e-05
7.32496e-06
-0.00125591
-3.86655e-05
5.99332e-06
-0.00125016
-4.06981e-05
4.22474e-06
-0.00124296
-3.83587e-05
2.15159e-06
-0.00123482
6.37764e-08
-0.00122662
-3.13059e-05
1.68344e-05
7.49349e-06
-0.00149378
6.17067e-06
8.70046e-06
-0.00149734
-5.51638e-06
9.41713e-06
-0.00149905
-1.77363e-05
9.62779e-06
-0.00149863
-2.97809e-05
9.26641e-06
-0.00149584
-4.06494e-05
8.26139e-06
-0.00149044
-4.89826e-05
6.56721e-06
-0.00148232
-5.30921e-05
4.20473e-06
-0.00147161
-5.12064e-05
1.30895e-06
-0.00145893
-1.71206e-06
-0.00144584
-4.2349e-05
2.18779e-05
7.50581e-06
-0.00172686
9.73599e-06
8.91004e-06
-0.00173228
-3.8155e-06
9.78501e-06
-0.00173534
-1.83579e-05
1.01167e-05
-0.00173563
-3.31828e-05
9.80013e-06
-0.00173271
-4.71925e-05
8.72269e-06
-0.00172609
-5.87182e-05
6.78097e-06
-0.00171536
-6.54457e-05
3.93979e-06
-0.00170044
-6.46161e-05
3.02896e-07
-0.00168195
-3.60125e-06
-0.00166229
-5.43585e-05
2.61328e-05
7.03103e-06
-0.00196036
1.29557e-05
8.46773e-06
-0.00196781
-1.93389e-06
9.4015e-06
-0.00197241
-1.82385e-05
9.8196e-06
-0.00197365
-3.53431e-05
9.59755e-06
-0.00197084
-5.21732e-05
8.58552e-06
-0.00196318
-6.68715e-05
6.61424e-06
-0.00194985
-7.65495e-05
3.55748e-06
-0.00193035
-7.73039e-05
-5.83834e-07
-0.001905
-5.24916e-06
-0.0018772
-6.59607e-05
2.86795e-05
5.67806e-06
-0.00219411
1.50916e-05
6.93047e-06
-0.00220361
-4.00143e-07
7.78286e-06
-0.00220978
-1.76547e-05
8.22332e-06
-0.00221209
-3.62196e-05
8.12811e-06
-0.00220958
-5.51688e-05
7.34063e-06
-0.00220117
-7.26396e-05
5.66288e-06
-0.00218551
-8.53368e-05
2.8651e-06
-0.00216145
-8.83017e-05
-1.12183e-06
-0.00212871
-6.02732e-06
-0.00209149
-7.67096e-05
2.97267e-05
3.42631e-06
-0.00242525
1.63287e-05
4.16592e-06
-0.0024364
9.9117e-07
4.76822e-06
-0.00244389
-1.62475e-05
5.09848e-06
-0.0024471
-3.51654e-05
5.12189e-06
-0.00244493
-5.51052e-05