/*--------------------------------*- C++ -*----------------------------------*\
| =========                 |                                                 |
| \\      /  F ield         | foam-extend: Open Source CFD                    |
|  \\    /   O peration     | Version:     4.0                                |
|   \\  /    A nd           | Web:         http://www.foam-extend.org         |
|    \\/     M anipulation  |                                                 |
\*---------------------------------------------------------------------------*/
FoamFile
{
    version     2.0;
    format      ascii;
    class       volScalarField;
    location    "2800";
    object      rho;
}
// * * * * * * * * * * * * * * * * * * * * * * * * * * * * * * * * * * * * * //

dimensions      [1 -3 0 0 0 0 0];

internalField   nonuniform List<scalar> 
34480
(
1.34785
1.34641
1.34585
1.34658
1.3492
1.35435
1.36267
1.37232
1.37578
1.39537
1.34204
1.33923
1.33699
1.33565
1.33589
1.33867
1.34528
1.35548
1.35977
1.37518
1.3377
1.33364
1.33002
1.32695
1.32495
1.32515
1.32929
1.33815
1.34107
1.34926
1.33462
1.32933
1.32445
1.31989
1.31595
1.31374
1.31527
1.32211
1.3229
1.32306
1.33259
1.32628
1.32047
1.31479
1.3094
1.30522
1.30445
1.30912
1.30753
1.29997
1.33187
1.32487
1.31841
1.31197
1.30556
1.2999
1.29728
1.2999
1.29597
1.28209
1.32999
1.3225
1.31572
1.30887
1.30193
1.29539
1.29146
1.29224
1.28606
1.26666
1.33012
1.32255
1.31569
1.30883
1.30188
1.29509
1.29045
1.28972
1.28117
1.25593
1.32704
1.31949
1.31272
1.30627
1.30009
1.29413
1.28964
1.28774
1.27675
1.24568
1.32443
1.31668
1.30969
1.3032
1.29743
1.29249
1.28913
1.28777
1.27585
1.23886
1.36383
1.36276
1.36257
1.36356
1.36608
1.37054
1.37768
1.38844
1.40391
1.42529
1.35591
1.35374
1.35233
1.3519
1.35299
1.35633
1.36301
1.3745
1.39278
1.42303
1.35011
1.34678
1.34413
1.34227
1.34164
1.34314
1.34829
1.3592
1.37827
1.41425
1.3461
1.3415
1.33757
1.33429
1.33195
1.33146
1.33453
1.34399
1.36279
1.40271
1.34365
1.33793
1.33291
1.32844
1.32465
1.32235
1.32333
1.33089
1.34863
1.39079
1.34274
1.33617
1.3303
1.32488
1.31995
1.31612
1.31521
1.32068
1.33674
1.37916
1.34089
1.33366
1.3272
1.32113
1.31541
1.31048
1.30802
1.31144
1.32538
1.36656
1.34108
1.33352
1.32671
1.32031
1.31419
1.30861
1.30503
1.30651
1.31787
1.35663
1.33836
1.33059
1.32354
1.31703
1.31101
1.30555
1.30162
1.3016
1.31008
1.34727
1.33554
1.32767
1.32041
1.31371
1.30764
1.30245
1.2989
1.29882
1.30545
1.34376
1.37519
1.37478
1.37525
1.37683
1.37968
1.384
1.38997
1.39778
1.40756
1.41882
1.36651
1.36528
1.36494
1.36573
1.368
1.37211
1.37866
1.3882
1.40136
1.4188
1.35941
1.35723
1.35591
1.35565
1.35687
1.36016
1.3664
1.37675
1.39247
1.41561
1.35417
1.35087
1.34845
1.34702
1.34699
1.3491
1.35445
1.36476
1.38217
1.4105
1.35074
1.34638
1.34296
1.34047
1.33927
1.34014
1.34435
1.3541
1.37248
1.40516
1.34898
1.34378
1.33951
1.33615
1.33394
1.33367
1.3367
1.34556
1.36435
1.40046
1.34655
1.34064
1.33574
1.33171
1.32873
1.32754
1.32951
1.33731
1.35601
1.39452
1.34635
1.34002
1.33467
1.33019
1.3267
1.32481
1.32588
1.3325
1.35043
1.39018
1.34389
1.33723
1.33149
1.32664
1.32286
1.3207
1.32131
1.32702
1.3435
1.38463
1.34104
1.33427
1.32827
1.32315
1.31908
1.31668
1.31715
1.32273
1.33783
1.38114
1.38195
1.38179
1.38229
1.38356
1.38566
1.38863
1.39249
1.39723
1.40269
1.40805
1.37423
1.3735
1.37355
1.37457
1.37672
1.38016
1.38508
1.39162
1.39971
1.40841
1.36708
1.36559
1.36493
1.36528
1.36694
1.37027
1.37573
1.3838
1.39478
1.40762
1.36143
1.359
1.35746
1.35696
1.35786
1.36068
1.36614
1.37516
1.38865
1.40588
1.35753
1.35414
1.35175
1.35039
1.35045
1.35258
1.35769
1.36716
1.38274
1.40424
1.3553
1.3511
1.34793
1.34581
1.34508
1.34645
1.35105
1.3606
1.37782
1.40323
1.35252
1.34762
1.34383
1.34107
1.33967
1.34037
1.34439
1.35377
1.37218
1.40102
1.35205
1.34669
1.3424
1.33917
1.33726
1.33738
1.34082
1.34975
1.36873
1.40038
1.34956
1.34386
1.33917
1.33555
1.33327
1.33305
1.33614
1.34465
1.36346
1.39795
1.34659
1.34076
1.33584
1.33197
1.32942
1.32893
1.33172
1.34
1.35823
1.39574
1.38566
1.3856
1.38599
1.38687
1.38824
1.39009
1.39238
1.39508
1.39815
1.40125
1.37958
1.37915
1.37935
1.38027
1.38198
1.3845
1.38784
1.3919
1.39651
1.40107
1.37306
1.37206
1.3718
1.37238
1.37399
1.37678
1.38093
1.3865
1.39339
1.40062
1.36749
1.36574
1.36481
1.36486
1.36612
1.36891
1.37357
1.38043
1.38963
1.39999
1.36348
1.3609
1.35927
1.35869
1.35945
1.362
1.36688
1.37472
1.38613
1.39981
1.36099
1.35767
1.35538
1.35418
1.3544
1.35659
1.36148
1.37003
1.38347
1.40051
1.35802
1.35404
1.35117
1.34942
1.34912
1.35091
1.35569
1.3647
1.37993
1.40025
1.35737
1.35292
1.34957
1.34737
1.34664
1.34804
1.35259
1.36178
1.37833
1.40165
1.35489
1.35009
1.34637
1.3438
1.34273
1.34385
1.34824
1.3575
1.37471
1.40108
1.35187
1.34694
1.343
1.34021
1.33889
1.33977
1.34393
1.3531
1.37032
1.39971
1.38731
1.38729
1.38753
1.38806
1.38887
1.38993
1.39121
1.3927
1.39447
1.3965
1.38301
1.38275
1.38294
1.38363
1.38483
1.38652
1.38865
1.39108
1.39368
1.3961
1.3775
1.37684
1.37676
1.37734
1.37866
1.38077
1.38369
1.38732
1.39149
1.39558
1.37239
1.37115
1.37061
1.3709
1.37216
1.37454
1.37815
1.38302
1.38901
1.39524
1.36855
1.36662
1.36554
1.36542
1.36645
1.36891
1.37303
1.37903
1.38693
1.39559
1.36603
1.36346
1.36183
1.36125
1.36197
1.36437
1.36885
1.37581
1.38563
1.39691
1.36302
1.35983
1.35771
1.35669
1.35707
1.35932
1.36402
1.37177
1.38344
1.39743
1.3623
1.35867
1.35611
1.3547
1.35476
1.35682
1.36158
1.3699
1.38312
1.39976
1.35984
1.35587
1.35299
1.35126
1.35104
1.35292
1.35772
1.36646
1.38077
1.40007
1.35685
1.35274
1.34965
1.34774
1.34731
1.34902
1.35369
1.36253
1.37725
1.39903
1.38776
1.38774
1.38788
1.38818
1.38863
1.38921
1.3899
1.39072
1.39181
1.39335
1.38502
1.38487
1.385
1.38546
1.38624
1.3873
1.3886
1.39004
1.39152
1.39285
1.38066
1.38022
1.38022
1.38069
1.38168
1.38318
1.38514
1.38746
1.38997
1.39234
1.37621
1.37533
1.37503
1.37538
1.37646
1.37833
1.38098
1.38433
1.38818
1.39198
1.37274
1.37132
1.37063
1.37073
1.37178
1.37389
1.37716
1.38154
1.38689
1.39241
1.37037
1.36841
1.36728
1.36708
1.368
1.37025
1.37402
1.3794
1.38635
1.39382
1.36744
1.36494
1.3634
1.36288
1.36361
1.36591
1.37009
1.37636
1.38493
1.39452
1.36674
1.36384
1.36193
1.3611
1.36163
1.3639
1.36834
1.37535
1.3854
1.39712
1.36433
1.36111
1.35893
1.35784
1.35817
1.36037
1.365
1.3726
1.38385
1.39773
1.36144
1.35808
1.35571
1.35447
1.35465
1.35675
1.36136
1.3692
1.38103
1.39676
1.38757
1.38756
1.38763
1.38779
1.38803
1.38833
1.3887
1.38916
1.38989
1.39119
1.38606
1.38596
1.38605
1.38633
1.3868
1.38744
1.3882
1.38903
1.38988
1.39062
1.38282
1.38252
1.38253
1.38288
1.38357
1.38458
1.38586
1.38732
1.38885
1.39025
1.37908
1.37847
1.3783
1.37862
1.37946
1.38084
1.38271
1.38497
1.38744
1.38981
1.37612
1.37508
1.37464
1.37483
1.37575
1.37744
1.3799
1.38303
1.38662
1.39017
1.374
1.37253
1.37176
1.37178
1.37269
1.37462
1.37762
1.38164
1.38648
1.39144
1.37124
1.36932
1.36824
1.36803
1.36888
1.37098
1.37445
1.37933
1.38549
1.39203
1.37066
1.36839
1.36699
1.36657
1.36732
1.36951
1.37335
1.37898
1.3864
1.39457
1.36832
1.36576
1.36415
1.36353
1.36416
1.36637
1.37047
1.37673
1.38526
1.39508
1.36558
1.36289
1.36111
1.36038
1.36091
1.36309
1.36726
1.37381
1.38292
1.39408
1.38711
1.38711
1.38714
1.38722
1.38735
1.3875
1.3877
1.38796
1.38848
1.38967
1.38647
1.38642
1.38646
1.38663
1.3869
1.38727
1.38771
1.38818
1.38866
1.38908
1.38422
1.38402
1.38403
1.38426
1.38471
1.38536
1.38618
1.38709
1.38802
1.38886
1.38116
1.38075
1.38065
1.3809
1.38151
1.38248
1.38376
1.38526
1.38685
1.38834
1.37875
1.37801
1.37773
1.37793
1.37867
1.37994
1.38172
1.3839
1.38631
1.38862
1.37696
1.37589
1.37537
1.37548
1.37628
1.37783
1.38011
1.38303
1.38638
1.38969
1.37444
1.373
1.37224
1.37221
1.37304
1.37481
1.37756
1.38123
1.3856
1.39007
1.37403
1.3723
1.3713
1.37113
1.37194
1.37386
1.37701
1.38136
1.38674
1.39241
1.37179
1.3698
1.36863
1.36832
1.36908
1.37109
1.37453
1.37945
1.38574
1.39261
1.36925
1.36714
1.36584
1.36545
1.36615
1.36818
1.37173
1.37696
1.38376
1.39157
1.38659
1.38659
1.38661
1.38665
1.38671
1.38679
1.38689
1.38705
1.38746
1.38858
1.38653
1.38649
1.38652
1.38661
1.38676
1.38697
1.38722
1.38749
1.38776
1.38799
1.38508
1.38494
1.38495
1.3851
1.38538
1.38579
1.38629
1.38684
1.38741
1.38792
1.38262
1.38234
1.38228
1.38246
1.38289
1.38354
1.38439
1.38536
1.38637
1.38732
1.38074
1.38023
1.38005
1.38022
1.38077
1.38169
1.38294
1.38442
1.38602
1.38753
1.3793
1.37853
1.37819
1.37833
1.37898
1.38015
1.38183
1.38389
1.38618
1.3884
1.37706
1.37599
1.37548
1.37554
1.37626
1.37767
1.37976
1.38244
1.3855
1.38854
1.37687
1.37557
1.37488
1.37486
1.37561
1.3772
1.37966
1.38291
1.38675
1.39065
1.37472
1.37321
1.37238
1.37227
1.37302
1.37474
1.37748
1.38122
1.38575
1.3905
1.37244
1.37082
1.36989
1.36973
1.37046
1.37222
1.37509
1.3791
1.38405
1.38945
1.38611
1.38612
1.38613
1.38615
1.38618
1.38621
1.38627
1.38637
1.38671
1.38779
1.38639
1.38637
1.38638
1.38643
1.38651
1.38663
1.38677
1.38692
1.38707
1.3872
1.38557
1.38549
1.38549
1.38558
1.38575
1.386
1.3863
1.38663
1.38697
1.38728
1.3836
1.38341
1.38337
1.3835
1.38378
1.38421
1.38475
1.38537
1.38601
1.3866
1.38221
1.38186
1.38175
1.38188
1.38228
1.38291
1.38376
1.38475
1.38579
1.38677
1.3811
1.38057
1.38034
1.38047
1.38097
1.38183
1.38301
1.38444
1.38598
1.38745
1.37914
1.37837
1.37802
1.37812
1.3787
1.37977
1.38131
1.38321
1.38531
1.38737
1.3792
1.37825
1.37778
1.37783
1.37847
1.37973
1.38158
1.38393
1.38661
1.38927
1.37715
1.37602
1.37545
1.37545
1.37612
1.3775
1.37961
1.38236
1.38555
1.3888
1.37515
1.37394
1.37329
1.37326
1.37393
1.37538
1.37761
1.38059
1.38409
1.38779
1.38573
1.38574
1.38575
1.38575
1.38577
1.38578
1.38581
1.38588
1.38616
1.38722
1.38616
1.38615
1.38615
1.38618
1.38623
1.38629
1.38637
1.38645
1.38654
1.38661
1.38585
1.38579
1.38579
1.38584
1.38594
1.38609
1.38627
1.38647
1.38667
1.38685
1.38422
1.3841
1.38408
1.38416
1.38434
1.38461
1.38496
1.38534
1.38574
1.38611
1.38327
1.38303
1.38296
1.38306
1.38333
1.38376
1.38432
1.38496
1.38564
1.38626
1.38246
1.38209
1.38194
1.38205
1.38241
1.38302
1.38383
1.38479
1.38581
1.38678
1.38075
1.38021
1.37998
1.38008
1.38052
1.38131
1.38239
1.38371
1.38513
1.38651
1.38107
1.3804
1.38008
1.38016
1.38067
1.38162
1.38296
1.38462
1.38646
1.38824
1.3791
1.37828
1.37789
1.37795
1.3785
1.37956
1.38112
1.38308
1.3853
1.38748
1.37743
1.37654
1.3761
1.37614
1.37671
1.37783
1.3795
1.38164
1.38408
1.38657
1.38546
1.38547
1.38547
1.38547
1.38548
1.38549
1.3855
1.38555
1.38579
1.38681
1.3859
1.3859
1.3859
1.38591
1.38594
1.38597
1.38602
1.38607
1.38612
1.38616
1.38599
1.38595
1.38595
1.38598
1.38604
1.38612
1.38623
1.38635
1.38647
1.38657
1.3846
1.38452
1.3845
1.38455
1.38467
1.38484
1.38505
1.38529
1.38553
1.38576
1.38401
1.38386
1.38381
1.38388
1.38405
1.38434
1.3847
1.38511
1.38554
1.38594
1.38344
1.38319
1.3831
1.38318
1.38343
1.38385
1.38439
1.38503
1.38569
1.38632
1.38196
1.38159
1.38144
1.38153
1.38185
1.3824
1.38315
1.38404
1.38499
1.38589
1.38254
1.38208
1.38187
1.38195
1.38234
1.38302
1.38397
1.38511
1.38634
1.38751
1.38062
1.38003
1.37978
1.37985
1.38028
1.38107
1.38218
1.38355
1.38505
1.3865
1.37931
1.37868
1.37838
1.37845
1.3789
1.37974
1.38094
1.38244
1.38409
1.38575
1.3853
1.38531
1.38531
1.38531
1.38532
1.38532
1.38533
1.38535
1.38556
1.38654
1.38564
1.38564
1.38564
1.38565
1.38567
1.38569
1.38571
1.38574
1.38577
1.38579
1.38607
1.38604
1.38604
1.38606
1.38609
1.38614
1.3862
1.38627
1.38634
1.3864
1.3848
1.38476
1.38474
1.38477
1.38484
1.38495
1.38508
1.38522
1.38537
1.38551
1.38452
1.38442
1.38439
1.38443
1.38455
1.38473
1.38496
1.38522
1.38549
1.38573
1.38414
1.38397
1.38392
1.38397
1.38414
1.38442
1.38477
1.38518
1.38561
1.386
1.38286
1.38261
1.38252
1.38258
1.38281
1.38318
1.38368
1.38427
1.38488
1.38547
1.38369
1.38337
1.38324
1.38331
1.38359
1.38407
1.38471
1.38547
1.38629
1.38704
1.38176
1.38136
1.38119
1.38126
1.38158
1.38214
1.3829
1.38383
1.38483
1.38578
1.38086
1.38042
1.38023
1.3803
1.38064
1.38124
1.38208
1.3831
1.38419
1.38528
1.38526
1.38527
1.38527
1.38527
1.38527
1.38527
1.38527
1.38529
1.38546
1.38638
1.38538
1.38539
1.38539
1.3854
1.38541
1.38542
1.38543
1.38545
1.38547
1.38548
1.38613
1.38611
1.38611
1.38612
1.38614
1.38617
1.3862
1.38624
1.38628
1.38631
1.3849
1.38487
1.38486
1.38488
1.38492
1.38498
1.38506
1.38514
1.38523
1.38532
1.38486
1.3848
1.38478
1.3848
1.38488
1.38499
1.38513
1.38529
1.38546
1.38561
1.3846
1.3845
1.38446
1.3845
1.38461
1.38479
1.38502
1.38528
1.38555
1.38579
1.38351
1.38334
1.38328
1.38333
1.38348
1.38373
1.38405
1.38443
1.38482
1.3852
1.38456
1.38436
1.38428
1.38433
1.38452
1.38485
1.38527
1.38577
1.3863
1.38676
1.38258
1.38231
1.3822
1.38226
1.38248
1.38287
1.38338
1.384
1.38464
1.38526
1.38214
1.38185
1.38173
1.38179
1.38203
1.38245
1.38301
1.38368
1.38439
1.38509
1.38537
1.38537
1.38537
1.38537
1.38537
1.38537
1.38537
1.38537
1.38551
1.38635
1.38513
1.38513
1.38514
1.38514
1.38515
1.38515
1.38516
1.38517
1.38518
1.38519
1.38618
1.38618
1.38617
1.38618
1.38619
1.38621
1.38623
1.38625
1.38628
1.38629
1.38492
1.3849
1.3849
1.38491
1.38493
1.38496
1.38501
1.38506
1.38511
1.38516
1.38506
1.38502
1.38501
1.38503
1.38508
1.38514
1.38523
1.38533
1.38543
1.38552
1.38489
1.38482
1.3848
1.38483
1.3849
1.38501
1.38515
1.38531
1.38548
1.38563
1.38396
1.38386
1.38382
1.38385
1.38395
1.3841
1.38431
1.38454
1.38478
1.38502
1.38521
1.38508
1.38503
1.38507
1.3852
1.38542
1.38569
1.38601
1.38634
1.38662
1.38312
1.38294
1.38288
1.38292
1.38307
1.38332
1.38366
1.38405
1.38446
1.38486
1.38327
1.38308
1.383
1.38305
1.38322
1.38349
1.38386
1.3843
1.38474
1.38518
1.38573
1.38573
1.38573
1.38573
1.38572
1.38572
1.38571
1.38571
1.38581
1.38654
1.38484
1.38484
1.38485
1.38485
1.38485
1.38486
1.38486
1.38487
1.38488
1.38488
1.38624
1.38623
1.38623
1.38623
1.38624
1.38626
1.38627
1.38629
1.3863
1.38631
1.38491
1.38489
1.38489
1.38489
1.3849
1.38492
1.38494
1.38497
1.385
1.38503
1.38515
1.38513
1.38513
1.38514
1.38516
1.38521
1.38526
1.38532
1.38538
1.38543
1.38502
1.38498
1.38496
1.38498
1.38502
1.38509
1.38518
1.38528
1.38538
1.38548
1.38426
1.38419
1.38417
1.38419
1.38425
1.38435
1.38447
1.38462
1.38476
1.38491
1.38563
1.38555
1.38552
1.38555
1.38564
1.38577
1.38595
1.38615
1.38636
1.38652
1.38339
1.38327
1.38323
1.38326
1.38336
1.38352
1.38374
1.38399
1.38424
1.3845
1.38439
1.38427
1.38423
1.38426
1.38437
1.38455
1.38478
1.38506
1.38533
1.3856
1.38658
1.38658
1.38657
1.38657
1.38657
1.38656
1.38656
1.38655
1.38661
1.38719
1.38444
1.38444
1.38444
1.38444
1.38444
1.38444
1.38444
1.38444
1.38445
1.38444
1.38621
1.38621
1.38621
1.38622
1.38623
1.38624
1.38625
1.38627
1.38628
1.38629
1.38487
1.38486
1.38486
1.38486
1.38486
1.38487
1.38488
1.3849
1.38491
1.38492
1.38515
1.38514
1.38513
1.38514
1.38516
1.38518
1.38522
1.38525
1.38529
1.38533
1.38502
1.38499
1.38498
1.38499
1.38502
1.38506
1.38512
1.38518
1.38525
1.3853
1.38442
1.38438
1.38437
1.38438
1.38442
1.38448
1.38456
1.38464
1.38472
1.38481
1.38572
1.38567
1.38565
1.38567
1.38573
1.38582
1.38593
1.38607
1.38621
1.38631
1.38332
1.38325
1.38323
1.38325
1.38331
1.38341
1.38355
1.3837
1.38385
1.38403
1.38576
1.38568
1.38566
1.38568
1.38575
1.38587
1.38602
1.3862
1.38637
1.38654
1.38812
1.38811
1.38811
1.38812
1.38813
1.38814
1.38815
1.38817
1.38821
1.38861
1.38376
1.38376
1.38376
1.38375
1.38375
1.38374
1.38373
1.38372
1.38371
1.38369
1.38599
1.38599
1.38599
1.386
1.38601
1.38602
1.38604
1.38606
1.38608
1.3861
1.38487
1.38486
1.38485
1.38485
1.38485
1.38486
1.38486
1.38487
1.38487
1.38487
1.38509
1.38508
1.38508
1.38508
1.38509
1.38511
1.38513
1.38516
1.38519
1.38521
1.38494
1.38492
1.38492
1.38492
1.38494
1.38497
1.38501
1.38505
1.3851
1.38514
1.38449
1.38446
1.38445
1.38446
1.38449
1.38453
1.38458
1.38464
1.38469
1.38474
1.38534
1.3853
1.38529
1.3853
1.38535
1.38541
1.3855
1.3856
1.38571
1.3858
1.38281
1.38276
1.38274
1.38276
1.3828
1.38287
1.38296
1.38306
1.38315
1.38327
1.38761
1.38754
1.38752
1.38754
1.38759
1.38767
1.38778
1.38791
1.38804
1.38817
1.38977
1.38978
1.38979
1.38981
1.38984
1.38987
1.38992
1.38998
1.39005
1.39028
1.38296
1.38295
1.38294
1.38294
1.38292
1.3829
1.38288
1.38284
1.3828
1.38271
1.38562
1.38562
1.38563
1.38563
1.38564
1.38565
1.38567
1.38569
1.38571
1.38575
1.38492
1.38491
1.38491
1.38491
1.38491
1.38491
1.38492
1.38492
1.38492
1.38491
1.38504
1.38503
1.38503
1.38503
1.38504
1.38506
1.38508
1.3851
1.38512
1.38515
1.38489
1.38487
1.38487
1.38487
1.38489
1.38492
1.38495
1.38499
1.38502
1.38506
1.38454
1.38452
1.38451
1.38452
1.38454
1.38458
1.38462
1.38467
1.38472
1.38476
1.38475
1.38471
1.3847
1.38471
1.38474
1.3848
1.38487
1.38496
1.38507
1.38518
1.38208
1.38204
1.38202
1.38203
1.38207
1.38214
1.38221
1.38229
1.38236
1.38238
1.38943
1.38935
1.38933
1.38934
1.38938
1.38946
1.38956
1.38967
1.3898
1.38996
1.53313
1.55011
1.54495
1.53347
1.54817
1.56807
1.56084
1.54966
1.55654
1.57739
1.57339
1.5609
1.56015
1.58181
1.58449
1.57003
1.56374
1.58635
1.595
1.57928
1.57295
1.59826
1.61451
1.605
1.58277
1.6102
1.63205
1.62929
1.59241
1.62103
1.6465
1.64854
1.59018
1.61875
1.6463
1.65201
1.57464
1.60163
1.63034
1.64009
1.44105
1.4523
1.45556
1.45004
1.44997
1.46319
1.46806
1.46381
1.45408
1.46913
1.47504
1.47285
1.45762
1.4742
1.48154
1.48171
1.4623
1.47998
1.48935
1.49132
1.46717
1.48512
1.49547
1.4979
1.47075
1.48869
1.49965
1.5025
1.47581
1.49351
1.50488
1.50969
1.47559
1.49259
1.50446
1.51135
1.47185
1.4879
1.50067
1.5092
1.42565
1.43059
1.43173
1.43003
1.43271
1.43852
1.44049
1.43985
1.43593
1.44307
1.44611
1.44603
1.43857
1.44711
1.4515
1.45215
1.44226
1.45207
1.45777
1.45919
1.44773
1.45865
1.46552
1.46809
1.45272
1.46456
1.47242
1.47605
1.45902
1.47143
1.47993
1.48453
1.46125
1.47369
1.48248
1.48786
1.46145
1.47345
1.4818
1.48701
1.4088
1.4114
1.41224
1.4114
1.41405
1.4169
1.41833
1.41839
1.41632
1.41998
1.42211
1.42268
1.41833
1.42286
1.42579
1.42711
1.42128
1.42663
1.43034
1.43244
1.42557
1.43165
1.43604
1.43896
1.42929
1.436
1.44101
1.44477
1.43472
1.44193
1.44747
1.45212
1.43655
1.444
1.44993
1.45528
1.43561
1.4433
1.44935
1.45466
1.39996
1.4015
1.40198
1.40141
1.40387
1.40536
1.40622
1.40645
1.40516
1.40721
1.40852
1.4091
1.40659
1.40922
1.41105
1.41217
1.409
1.4122
1.41455
1.41619
1.4128
1.41655
1.4194
1.42162
1.41615
1.42042
1.42373
1.42653
1.42136
1.42609
1.42981
1.43321
1.42358
1.42854
1.43254
1.43637
1.4234
1.42858
1.43264
1.43623
1.39419
1.39525
1.39553
1.39502
1.3975
1.3983
1.39882
1.39906
1.39802
1.3992
1.40003
1.40053
1.3989
1.40048
1.40167
1.40254
1.40079
1.40277
1.40433
1.40559
1.40395
1.40632
1.40824
1.40992
1.40664
1.40939
1.41165
1.41376
1.4113
1.41438
1.41695
1.4195
1.4134
1.41671
1.4195
1.4223
1.41331
1.41684
1.41973
1.42228
1.39056
1.3914
1.39156
1.39103
1.39359
1.39404
1.39435
1.39453
1.39374
1.39444
1.39496
1.39531
1.39414
1.39511
1.39589
1.3965
1.39556
1.39682
1.39786
1.39875
1.39813
1.39968
1.40099
1.40218
1.40023
1.40205
1.40362
1.4051
1.40432
1.4064
1.40819
1.40997
1.40611
1.40836
1.41031
1.41224
1.40592
1.40832
1.41034
1.41208
1.38818
1.38891
1.389
1.38845
1.39102
1.39127
1.39146
1.39158
1.39109
1.39151
1.39183
1.39207
1.39112
1.39172
1.39223
1.39265
1.39214
1.39295
1.39364
1.39425
1.39417
1.39518
1.39607
1.39689
1.39567
1.39689
1.39796
1.39899
1.39917
1.40057
1.40181
1.40305
1.4005
1.40204
1.4034
1.40472
1.40011
1.40175
1.40317
1.40437
1.38659
1.38727
1.38732
1.38674
1.38928
1.38942
1.38953
1.38962
1.38937
1.38963
1.38984
1.39
1.38916
1.38954
1.38987
1.39015
1.38989
1.39042
1.39088
1.39129
1.39146
1.39214
1.39274
1.39329
1.39245
1.39327
1.394
1.3947
1.39542
1.39637
1.39722
1.39807
1.39621
1.39726
1.39821
1.39911
1.39563
1.39675
1.39773
1.39856
1.38551
1.38617
1.3862
1.38559
1.38808
1.38815
1.38822
1.38828
1.38823
1.38839
1.38852
1.38862
1.38783
1.38808
1.38829
1.38847
1.38836
1.3887
1.38901
1.38928
1.38956
1.39001
1.39042
1.3908
1.39013
1.39068
1.39118
1.39166
1.39265
1.3933
1.39388
1.39446
1.39292
1.39363
1.39429
1.3949
1.39221
1.39298
1.39365
1.39422
1.38478
1.38545
1.38546
1.38482
1.38722
1.38726
1.3873
1.38734
1.38747
1.38757
1.38765
1.38771
1.38693
1.38708
1.38722
1.38734
1.38731
1.38754
1.38774
1.38792
1.38822
1.38852
1.38879
1.38904
1.38843
1.3888
1.38914
1.38947
1.39061
1.39105
1.39145
1.39184
1.39043
1.39091
1.39136
1.39178
1.38968
1.3902
1.39066
1.39105
1.3843
1.38498
1.38499
1.38433
1.3866
1.38662
1.38664
1.38667
1.38698
1.38704
1.38708
1.38712
1.38631
1.38641
1.38649
1.38657
1.38661
1.38676
1.38689
1.38701
1.38728
1.38748
1.38766
1.38783
1.38721
1.38746
1.38769
1.3879
1.38913
1.38943
1.3897
1.38996
1.38858
1.38891
1.38921
1.3895
1.38787
1.38822
1.38853
1.3888
1.38403
1.38471
1.38472
1.38404
1.38612
1.38613
1.38614
1.38616
1.38665
1.38669
1.38672
1.38674
1.38588
1.38594
1.386
1.38605
1.38616
1.38626
1.38634
1.38641
1.38664
1.38677
1.38689
1.387
1.38635
1.38651
1.38667
1.38681
1.3881
1.3883
1.38848
1.38865
1.38724
1.38746
1.38766
1.38785
1.38664
1.38687
1.38708
1.38726
1.38392
1.3846
1.38461
1.38393
1.38574
1.38574
1.38575
1.38577
1.38646
1.38648
1.3865
1.38651
1.38558
1.38561
1.38565
1.38568
1.38588
1.38594
1.38599
1.38604
1.38622
1.3863
1.38637
1.38644
1.38577
1.38587
1.38597
1.38606
1.38743
1.38755
1.38767
1.38779
1.38627
1.38642
1.38655
1.38668
1.38588
1.38603
1.38617
1.38629
1.38397
1.38464
1.38464
1.38397
1.38542
1.38541
1.38542
1.38544
1.38636
1.38637
1.38638
1.38639
1.38535
1.38537
1.38539
1.38541
1.3857
1.38574
1.38577
1.3858
1.38593
1.38598
1.38603
1.38607
1.38538
1.38544
1.38551
1.38557
1.38701
1.3871
1.38717
1.38724
1.38558
1.38567
1.38576
1.38584
1.38549
1.38559
1.38568
1.38576
1.38419
1.38483
1.38483
1.38419
1.38512
1.38511
1.38512
1.38513
1.38633
1.38634
1.38635
1.38635
1.38517
1.38518
1.3852
1.38521
1.38558
1.3856
1.38562
1.38564
1.38572
1.38575
1.38578
1.3858
1.38513
1.38517
1.38521
1.38524
1.38678
1.38684
1.38688
1.38693
1.38507
1.38513
1.38518
1.38523
1.38544
1.3855
1.38556
1.38561
1.38468
1.38528
1.38528
1.38468
1.3848
1.38479
1.38479
1.38481
1.38635
1.38635
1.38636
1.38636
1.38503
1.38503
1.38504
1.38505
1.38547
1.38549
1.3855
1.38551
1.38553
1.38555
1.38557
1.38559
1.38496
1.38498
1.385
1.38503
1.38663
1.38667
1.3867
1.38672
1.38463
1.38466
1.3847
1.38473
1.38577
1.38581
1.38584
1.38587
1.38572
1.38622
1.38622
1.38572
1.38436
1.38434
1.38434
1.38436
1.38633
1.38634
1.38634
1.38633
1.38491
1.38491
1.38492
1.38493
1.38536
1.38537
1.38537
1.38538
1.38534
1.38536
1.38537
1.38538
1.38482
1.38484
1.38485
1.38487
1.38641
1.38643
1.38645
1.38646
1.38411
1.38413
1.38415
1.38417
1.38664
1.38666
1.38668
1.38671
1.38767
1.38802
1.38802
1.38767
1.38359
1.38357
1.38357
1.38359
1.38615
1.38616
1.38616
1.38615
1.38485
1.38485
1.38485
1.38486
1.38523
1.38524
1.38525
1.38525
1.38517
1.38518
1.38519
1.38519
1.38473
1.38474
1.38475
1.38477
1.38593
1.38596
1.38597
1.38597
1.38327
1.38328
1.38329
1.38331
1.38824
1.38826
1.38827
1.38829
1.39013
1.39027
1.39027
1.39013
1.38256
1.3825
1.3825
1.38256
1.38579
1.38581
1.38581
1.38579
1.38489
1.38489
1.38489
1.3849
1.38516
1.38517
1.38517
1.38517
1.38509
1.38509
1.3851
1.38511
1.38475
1.38475
1.38476
1.38477
1.38535
1.38538
1.38539
1.38538
1.38218
1.38215
1.38216
1.38222
1.39005
1.39007
1.39009
1.39009
1.45334
1.42588
1.40613
1.38913
1.3772
1.36876
1.36239
1.35735
1.35337
1.3502
1.46695
1.43148
1.4065
1.38923
1.37702
1.36796
1.3608
1.35495
1.35007
1.34573
1.47382
1.43515
1.407
1.38998
1.37729
1.36757
1.35962
1.35296
1.34726
1.34221
1.48151
1.44069
1.41037
1.39314
1.37941
1.36879
1.35991
1.35232
1.34566
1.33994
1.49094
1.44674
1.41511
1.39648
1.38167
1.37008
1.36034
1.35197
1.34449
1.33842
1.50122
1.45415
1.42106
1.40073
1.38491
1.37237
1.36189
1.35286
1.34475
1.3382
1.51089
1.45899
1.42515
1.40281
1.38617
1.37271
1.36158
1.35199
1.34336
1.33661
1.52258
1.46384
1.43063
1.40612
1.38903
1.37479
1.36322
1.35317
1.34425
1.33706
1.52874
1.46289
1.4313
1.40509
1.38802
1.37322
1.36134
1.35094
1.3419
1.33434
1.53398
1.46189
1.43211
1.40423
1.3868
1.37128
1.3589
1.34804
1.33879
1.33097
1.44027
1.42366
1.41071
1.40019
1.3914
1.38404
1.37793
1.37295
1.36898
1.36592
1.44939
1.42924
1.41329
1.40024
1.38961
1.38098
1.37392
1.36808
1.36331
1.35919
1.45636
1.43385
1.41472
1.40028
1.38855
1.37907
1.37125
1.36469
1.35915
1.35427
1.46314
1.43931
1.41812
1.40256
1.38985
1.37954
1.37085
1.36338
1.35688
1.35118
1.46948
1.44598
1.42266
1.40586
1.39213
1.38091
1.37135
1.36306
1.35564
1.3494
1.47826
1.45392
1.42882
1.41055
1.39579
1.38361
1.37324
1.3642
1.35603
1.34916
1.48739
1.46014
1.4337
1.41364
1.39789
1.38474
1.3736
1.36389
1.35504
1.34779
1.49936
1.46675
1.44008
1.41809
1.40162
1.38762
1.37587
1.36557
1.35627
1.34846
1.50739
1.46802
1.44203
1.41857
1.40176
1.38707
1.37481
1.36402
1.35443
1.34617
1.51457
1.4678
1.44285
1.41799
1.40064
1.3853
1.3726
1.36142
1.35168
1.34322
1.42823
1.41971
1.41103
1.40319
1.39639
1.39061
1.38578
1.38184
1.37877
1.37653
1.43465
1.42351
1.4122
1.4022
1.39375
1.38672
1.38087
1.37602
1.37212
1.36887
1.44018
1.42688
1.41301
1.40135
1.39165
1.38361
1.3769
1.37128
1.36662
1.3626
1.44581
1.43116
1.41547
1.40265
1.39192
1.38295
1.37531
1.36876
1.36315
1.35827
1.4521
1.43663
1.41929
1.40526
1.39345
1.38351
1.37497
1.36756
1.36103
1.35553
1.46044
1.4437
1.42489
1.40941
1.39648
1.38555
1.37616
1.36797
1.36066
1.35448
1.46866
1.44968
1.42953
1.41228
1.39825
1.3863
1.37609
1.3672
1.35919
1.35255
1.4798
1.45664
1.43585
1.41671
1.40182
1.38899
1.37812
1.36861
1.3601
1.35289
1.48739
1.4591
1.43853
1.41795
1.40257
1.38898
1.37751
1.36745
1.35854
1.35088
1.49339
1.45965
1.43949
1.41756
1.40157
1.38734
1.37545
1.36502
1.35594
1.34807
1.413
1.40892
1.40448
1.40016
1.3961
1.39242
1.3892
1.3865
1.38437
1.38283
1.41679
1.41194
1.40601
1.40007
1.3945
1.3895
1.38513
1.38141
1.3784
1.37594
1.42108
1.41499
1.40723
1.39963
1.39266
1.38649
1.38115
1.37659
1.37279
1.36955
1.42596
1.41897
1.40979
1.40086
1.39271
1.38548
1.37913
1.3736
1.36887
1.36476
1.43184
1.42404
1.41354
1.40332
1.394
1.38574
1.37843
1.37201
1.36635
1.36157
1.4397
1.43066
1.41891
1.40725
1.39677
1.38747
1.37927
1.37201
1.36556
1.36005
1.44748
1.4364
1.42343
1.41009
1.39843
1.38808
1.37901
1.37102
1.36382
1.3578
1.45771
1.44346
1.42966
1.41453
1.40191
1.39063
1.38085
1.37221
1.36448
1.35787
1.46465
1.44671
1.43263
1.41604
1.40271
1.3906
1.38016
1.37096
1.36281
1.3558
1.46957
1.44768
1.43334
1.41545
1.4015
1.38882
1.37801
1.3685
1.36018
1.35298
1.4041
1.40166
1.39924
1.39685
1.39451
1.39229
1.39029
1.38857
1.3872
1.38621
1.40603
1.40384
1.40074
1.39727
1.39376
1.39041
1.38737
1.38471
1.38254
1.38077
1.40886
1.40602
1.40175
1.397
1.39227
1.38784
1.38384
1.38035
1.37741
1.37491
1.41262
1.40928
1.40405
1.39813
1.39227
1.38677
1.38176
1.3773
1.37346
1.37012
1.41754
1.41372
1.40754
1.40045
1.39347
1.38692
1.38093
1.37555
1.3708
1.36678
1.4242
1.41964
1.41253
1.40416
1.39604
1.38845
1.38154
1.37531
1.36976
1.36499
1.4307
1.42486
1.41674
1.4069
1.39761
1.38897
1.38116
1.37417
1.36786
1.36256
1.43957
1.43163
1.42272
1.41131
1.40101
1.39143
1.38286
1.3752
1.36834
1.36244
1.44555
1.43518
1.42576
1.41297
1.40181
1.39135
1.38212
1.3739
1.36661
1.36034
1.44926
1.43614
1.42623
1.41227
1.40053
1.38955
1.37997
1.37147
1.364
1.35754
1.39814
1.39644
1.39507
1.39379
1.39251
1.39126
1.3901
1.38908
1.38826
1.38765
1.39906
1.39808
1.39648
1.39453
1.39241
1.39029
1.38829
1.3865
1.38503
1.38381
1.40073
1.39946
1.3972
1.39436
1.39132
1.38829
1.38545
1.38289
1.38071
1.37885
1.40336
1.40192
1.39903
1.3953
1.39129
1.38729
1.3835
1.38005
1.37704
1.37442
1.4072
1.4056
1.40208
1.3974
1.39238
1.3874
1.38267
1.37833
1.37447
1.37118
1.41262
1.4107
1.40652
1.4008
1.39475
1.38878
1.38315
1.37797
1.37334
1.36933
1.41778
1.4152
1.41026
1.40332
1.3962
1.38923
1.38271
1.37676
1.37138
1.36683
1.42519
1.42142
1.41581
1.40759
1.39949
1.39159
1.38432
1.37769
1.37175
1.36662
1.43
1.42479
1.41865
1.40919
1.40019
1.39145
1.38352
1.37637
1.36999
1.36451
1.4324
1.42546
1.41886
1.40844
1.3989
1.38969
1.38142
1.37399
1.36743
1.36177
1.3943
1.39293
1.39207
1.39139
1.3907
1.39002
1.38937
1.3888
1.38832
1.38796
1.39463
1.39418
1.39334
1.39225
1.391
1.3897
1.38845
1.38731
1.38636
1.38555
1.39556
1.39503
1.39383
1.39217
1.39026
1.38825
1.3863
1.3845
1.38295
1.38162
1.39722
1.39667
1.39511
1.39282
1.39014
1.38733
1.38457
1.38199
1.37972
1.37773
1.40007
1.39956
1.3976
1.3946
1.3911
1.38743
1.38382
1.38042
1.37738
1.37479
1.40431
1.40377
1.40137
1.39759
1.39322
1.38867
1.38423
1.38005
1.37628
1.37301
1.40821
1.40743
1.4045
1.39978
1.39448
1.38903
1.38374
1.37883
1.37435
1.37056
1.41427
1.41293
1.4095
1.40377
1.39759
1.39128
1.38527
1.37971
1.37469
1.37035
1.41789
1.41582
1.4119
1.40514
1.39812
1.39105
1.38443
1.37837
1.37292
1.36825
1.4192
1.41615
1.41187
1.40436
1.39687
1.38936
1.38242
1.37609
1.37046
1.3656
1.39174
1.39052
1.38993
1.38955
1.38919
1.38883
1.38848
1.38817
1.3879
1.38769
1.3917
1.39149
1.39105
1.39044
1.38973
1.38897
1.38821
1.38751
1.38693
1.38641
1.39228
1.39206
1.39142
1.39045
1.38926
1.38797
1.38667
1.38545
1.38439
1.38347
1.39319
1.39304
1.3922
1.3908
1.38905
1.38712
1.38516
1.3833
1.38165
1.38019
1.39523
1.3952
1.39413
1.39223
1.38984
1.3872
1.38452
1.38196
1.37964
1.37766
1.39846
1.39854
1.39721
1.39475
1.39167
1.38829
1.38488
1.38162
1.37866
1.37607
1.40125
1.40135
1.39968
1.39653
1.39269
1.38852
1.38437
1.38042
1.37681
1.37374
1.40615
1.40607
1.40405
1.40016
1.39556
1.39066
1.38584
1.3813
1.37718
1.37359
1.40869
1.4083
1.40586
1.40118
1.39587
1.39031
1.38494
1.37995
1.37542
1.37154
1.40917
1.40831
1.40561
1.40038
1.39466
1.38872
1.38306
1.37781
1.3731
1.36903
1.38999
1.38884
1.3884
1.38818
1.38799
1.38781
1.38762
1.38745
1.3873
1.38718
1.38973
1.38963
1.3894
1.38907
1.38867
1.38824
1.3878
1.38739
1.38704
1.3867
1.39014
1.39006
1.38971
1.38914
1.38841
1.3876
1.38676
1.38597
1.38527
1.38465
1.39054
1.39053
1.39007
1.38921
1.38808
1.38679
1.38545
1.38416
1.383
1.38195
1.39197
1.3921
1.39151
1.39031
1.3887
1.38686
1.38493
1.38306
1.38135
1.37988
1.39439
1.39469
1.39396
1.39237
1.39023
1.38779
1.38525
1.38278
1.38052
1.37853
1.39629
1.39671
1.39578
1.39371
1.39097
1.38788
1.3847
1.38163
1.37879
1.37638
1.40022
1.40068
1.39952
1.39693
1.39359
1.38988
1.38613
1.38253
1.37924
1.37636
1.40182
1.40217
1.40072
1.39755
1.39365
1.38941
1.38517
1.38117
1.3775
1.37436
1.40174
1.40191
1.40029