/*--------------------------------*- C++ -*----------------------------------*\
| =========                 |                                                 |
| \\      /  F ield         | foam-extend: Open Source CFD                    |
|  \\    /   O peration     | Version:     4.0                                |
|   \\  /    A nd           | Web:         http://www.foam-extend.org         |
|    \\/     M anipulation  |                                                 |
\*---------------------------------------------------------------------------*/
FoamFile
{
    version     2.0;
    format      ascii;
    class       volVectorField;
    location    "2800";
    object      U;
}
// * * * * * * * * * * * * * * * * * * * * * * * * * * * * * * * * * * * * * //

dimensions      [0 1 -1 0 0 0 0];

internalField   nonuniform List<vector> 
34480
(
(212.107 7.06713 2.3113)
(213.717 5.2529 -1.77416)
(215.133 3.65266 -6.58298)
(216.364 2.27174 -12.4)
(217.387 1.11897 -19.624)
(217.968 0.212 -28.7397)
(217.243 -0.417071 -40.099)
(212.898 -0.83189 -54.2072)
(200.035 -1.35747 -73.6023)
(167.926 -1.95277 -94.2174)
(214.235 10.7565 2.60336)
(216.149 9.67244 -0.763742)
(217.836 8.58589 -4.59171)
(219.284 7.52475 -9.1556)
(220.574 6.48132 -14.927)
(221.677 5.42979 -22.6039)
(222.074 4.36751 -32.9813)
(219.995 3.282 -46.9058)
(210.884 1.85386 -68.0983)
(180.444 -0.146063 -96.4798)
(215.429 10.1986 4.88043)
(217.612 9.42334 1.93896)
(219.615 8.56652 -1.37481)
(221.441 7.65617 -5.33044)
(223.165 6.69759 -10.3663)
(224.865 5.65244 -17.292)
(226.229 4.50103 -27.198)
(225.771 3.25621 -41.2472)
(219.384 1.62631 -63.88)
(190.57 -0.71079 -98.702)
(215.714 10.4739 6.68631)
(218.374 9.775 3.88926)
(220.886 8.96842 0.718064)
(223.263 8.0909 -3.06312)
(225.527 7.14159 -7.84737)
(227.769 6.08095 -14.4352)
(229.81 4.878 -24.068)
(230.446 3.54018 -38.2462)
(225.99 1.75917 -61.9533)
(198.232 -0.885201 -101.554)
(215.909 9.7738 8.56643)
(218.995 8.9624 5.85283)
(221.949 8.03237 2.69782)
(224.803 7.04568 -1.04777)
(227.555 5.97885 -5.77877)
(230.278 4.79111 -12.2433)
(232.868 3.43771 -21.7626)
(234.356 1.91969 -36.1654)
(231.393 -0.0954073 -60.8963)
(204.231 -3.14454 -104.296)
(215.743 10.05 9.39628)
(219.154 9.14476 6.78603)
(222.434 8.10908 3.69561)
(225.641 7.03694 0.0208784)
(228.768 5.89984 -4.64435)
(231.872 4.66776 -10.9959)
(234.887 3.29224 -20.3885)
(237.044 1.7578 -34.962)
(235.239 -0.335339 -60.6293)
(208.282 -3.68802 -107.231)
(215.729 9.0206 10.4294)
(219.353 7.92178 7.88997)
(222.823 6.71046 4.8109)
(226.232 5.49338 1.15982)
(229.582 4.22568 -3.48245)
(232.93 2.89053 -9.75524)
(236.255 1.45527 -19.0205)
(239.005 -0.0664952 -33.7156)
(238.29 -2.04173 -60.2256)
(211.65 -5.2447 -109.576)
(215.475 9.25066 10.1764)
(219.186 8.03853 7.7976)
(222.713 6.74223 4.86338)
(226.175 5.46344 1.34941)
(229.579 4.16375 -3.14209)
(232.988 2.84959 -9.18817)
(236.448 1.53318 -18.1085)
(239.671 0.264865 -32.562)
(240.103 -1.308 -59.4563)
(214.22 -4.03243 -110.931)
(215.496 7.32583 10.6415)
(219.217 5.95792 8.42373)
(222.746 4.58613 5.58617)
(226.225 3.26168 2.11957)
(229.658 1.92604 -2.37758)
(233.088 0.597854 -8.39245)
(236.58 -0.656329 -17.1365)
(240.122 -1.6858 -31.3073)
(241.631 -2.58573 -58.4552)
(216.606 -4.10197 -111.348)
(214.419 6.91307 10.0464)
(218.151 5.46746 8.17791)
(221.699 4.0207 5.64274)
(225.184 2.63644 2.42427)
(228.558 1.3155 -1.85755)
(231.835 0.107913 -7.65815)
(235.115 -0.877358 -16.0751)
(238.698 -1.43156 -29.5096)
(241.416 -1.58218 -56.0885)
(218.283 -1.87046 -109.223)
(204.291 6.14197 1.56054)
(205.22 4.59767 -1.86983)
(205.647 3.24362 -5.77706)
(205.458 2.10562 -10.2265)
(204.466 1.18212 -15.3698)
(202.341 0.483647 -21.3319)
(198.579 0.00793178 -28.1626)
(192.523 -0.272226 -35.6722)
(182.725 -0.419352 -42.8907)
(164.057 -0.559852 -45.4032)
(208.277 9.63085 1.58835)
(209.656 8.68343 -1.42732)
(210.612 7.71603 -4.82984)
(210.994 6.7851 -8.67515)
(210.663 5.89249 -13.1616)
(209.335 5.02101 -18.5795)
(206.397 4.15047 -25.3173)
(200.928 3.27402 -33.6394)
(191.477 2.35873 -43.4763)
(171.618 1.28205 -50.4693)
(210.607 9.17345 3.66752)
(212.336 8.46407 0.905865)
(213.713 7.67669 -2.18058)
(214.639 6.83797 -5.75953)
(214.978 5.97591 -9.99466)
(214.504 5.06919 -15.2714)
(212.631 4.09066 -22.1938)
(208.215 3.02142 -31.4298)
(199.592 1.82902 -43.7746)
(178.841 0.424539 -55.8126)
(211.629 9.51181 5.41671)
(213.848 8.86821 2.74354)
(215.771 8.12482 -0.265607)
(217.325 7.30193 -3.81377)
(218.347 6.42645 -8.06043)
(218.623 5.48113 -13.4048)
(217.603 4.43952 -20.5571)
(214.08 3.27302 -30.5175)
(206.24 1.91605 -44.9318)
(184.754 0.280327 -61.8755)
(212.307 8.86354 7.33345)
(214.962 8.11924 4.71282)
(217.361 7.26694 1.68087)
(219.449 6.34757 -1.90382)
(221.067 5.36336 -6.25736)
(221.99 4.29945 -11.7496)
(221.702 3.11862 -19.1585)
(218.992 1.78942 -29.7744)
(211.911 0.233051 -45.9998)
(189.78 -1.60926 -67.6744)
(212.487 9.22602 8.23346)
(215.494 8.40136 5.70235)
(218.261 7.45346 2.71551)
(220.758 6.45551 -0.831892)
(222.847 5.40141 -5.21107)
(224.297 4.29089 -10.7678)
(224.618 3.08618 -18.3214)
(222.631 1.75188 -29.4112)
(216.245 0.166022 -47.0615)
(193.409 -1.7635 -72.9481)
(212.718 8.24678 9.38474)
(215.968 7.24602 6.91892)
(218.978 6.14108 3.93158)
(221.745 5.02122 0.38702)
(224.16 3.85946 -4.03237)
(226.003 2.66647 -9.64789)
(226.83 1.40698 -17.3023)
(225.54 0.0625538 -28.7712)
(219.924 -1.45635 -47.6564)
(196.593 -3.27685 -77.5007)
(212.628 8.55068 9.26091)
(216.007 7.44527 6.95804)
(219.137 6.26284 4.12046)
(222.044 5.09415 0.713291)
(224.642 3.91374 -3.58662)
(226.733 2.74645 -9.08106)
(227.939 1.5863 -16.6052)
(227.298 0.444904 -28.11)
(222.613 -0.766536 -47.791)
(199.274 -2.38976 -81.1482)
(212.672 6.69727 9.83861)
(216.082 5.42141 7.71168)
(219.254 4.15465 4.99966)
(222.246 2.94471 1.68632)
(224.998 1.74726 -2.59802)
(227.321 0.586551 -8.13153)
(228.855 -0.51388 -15.7034)
(228.781 -1.48027 -27.228)
(225.073 -2.19525 -47.6307)
(201.922 -3.22079 -84.0151)
(211.705 6.48514 9.27341)
(215.127 5.09089 7.43979)
(218.342 3.7391 5.04431)
(221.379 2.44979 2.02386)
(224.163 1.23647 -1.96974)
(226.525 0.145022 -7.25178)
(228.177 -0.75631 -14.6348)
(228.48 -1.31583 -25.7669)
(225.914 -1.36176 -46.3573)
(203.738 -1.22797 -84.6922)
(198.506 4.90341 0.455516)
(198.999 3.72679 -2.21866)
(198.967 2.70217 -5.15297)
(198.331 1.84197 -8.36222)
(196.959 1.16301 -11.8022)
(194.674 0.67332 -15.3721)
(191.256 0.357845 -18.8723)
(186.469 0.163103 -21.9777)
(179.962 0.00975648 -23.9479)
(171.056 -0.208847 -23.0072)
(203.363 8.23794 0.413037)
(204.29 7.46148 -2.14161)
(204.736 6.65362 -4.96472)
(204.573 5.86224 -8.06805)
(203.628 5.09824 -11.489)
(201.639 4.35907 -15.2145)
(198.227 3.63392 -19.1712)
(192.882 2.90694 -23.137)
(184.901 2.16279 -26.4406)
(173.288 1.36551 -27.0815)
(206.388 7.99829 2.3292)
(207.696 7.37321 -0.151599)
(208.573 6.66369 -2.91333)
(208.897 5.90412 -6.03157)
(208.507 5.11613 -9.57176)
(207.109 4.28855 -13.6385)
(204.194 3.40783 -18.3058)
(198.994 2.46018 -23.4948)
(190.414 1.43333 -28.674)
(176.487 0.301701 -31.7283)
(207.99 8.44901 3.94669)
(209.773 7.86897 1.47309)
(211.168 7.18578 -1.30466)
(212.072 6.41905 -4.5409)
(212.289 5.59924 -8.29043)
(211.508 4.71103 -12.7327)
(209.133 3.74122 -18.0522)
(204.174 2.67373 -24.3472)
(195.179 1.48643 -31.3292)
(179.138 0.154703 -37.1169)
(209.102 7.86143 5.83543)
(211.313 7.18295 3.36)
(213.176 6.3991 0.50404)
(214.599 5.53892 -2.8688)
(215.373 4.61645 -6.85703)
(215.175 3.61325 -11.6681)
(213.351 2.50575 -17.5866)
(208.734 1.2722 -24.9157)
(199.528 -0.111709 -33.6543)
(181.635 -1.63685 -42.4727)
(209.621 8.30845 6.75511)
(212.19 7.55736 4.33607)
(214.434 6.6879 1.48956)
(216.276 5.75454 -1.90569)
(217.517 4.76572 -6.01083)
(217.824 3.7143 -11.0468)
(216.509 2.57399 -17.3865)
(212.278 1.31647 -25.5498)
(203.004 -0.111187 -35.8338)
(183.512 -1.72514 -47.7098)
(210.104 7.36069 7.99175)
(212.935 6.44688 5.61591)
(215.447 5.4365 2.74403)
(217.59 4.39736 -0.688406)
(219.186 3.31858 -4.90255)
(219.904 2.20073 -10.1258)
(219.056 1.0168 -16.8078)
(215.28 -0.257493 -25.7043)
(206.138 -1.65693 -37.4525)
(185.361 -3.20635 -52.4992)
(210.206 7.72697 7.96377)
(213.191 6.71559 5.73843)
(215.861 5.6344 3.00664)
(218.192 4.55595 -0.304523)
(220.032 3.4714 -4.44073)
(221.064 2.39104 -9.6397)
(220.63 1.30631 -16.4025)
(217.368 0.210821 -25.7031)
(208.6 -0.932716 -38.586)
(186.943 -2.3735 -56.596)
(210.362 5.90718 8.62495)
(213.393 4.72086 6.55293)
(216.125 3.54759 3.93444)
(218.561 2.42411 0.721735)
(220.588 1.33012 -3.39236)
(221.91 0.278795 -8.66551)
(221.89 -0.709603 -15.6276)
(219.187 -1.60189 -25.3124)
(210.934 -2.29133 -39.2978)
(188.494 -3.29448 -59.8485)
(209.571 5.86758 8.11116)
(212.611 4.54723 6.28544)
(215.39 3.28896 3.9599)
(217.874 2.08541 1.02321)
(219.944 0.970569 -2.80694)
(221.329 -0.0152596 -7.81149)
(221.529 -0.80403 -14.6003)
(219.329 -1.28859 -24.187)
(211.838 -1.30418 -38.8531)
(189.045 -1.19848 -60.8216)
(194.403 3.82624 -0.0960004)
(194.635 3.00829 -1.97589)
(194.426 2.29129 -3.97608)
(193.73 1.68771 -6.06944)
(192.493 1.21281 -8.1666)
(190.655 0.868764 -10.1443)
(188.194 0.64022 -11.8176)
(185.171 0.477041 -12.9431)
(181.725 0.299175 -13.1121)
(177.801 0.0197729 -11.7335)
(199.379 6.84117 -0.297147)
(199.958 6.26023 -2.29985)
(200.076 5.63657 -4.44075)
(199.645 5.00638 -6.72333)
(198.547 4.38942 -9.10102)
(196.639 3.78966 -11.4634)
(193.752 3.20091 -13.6255)
(189.749 2.61148 -15.2887)
(184.542 2.01664 -15.8844)
(178.271 1.42745 -14.6616)
(202.711 6.79124 1.32543)
(203.649 6.27417 -0.77522)
(204.137 5.66873 -3.08179)
(204.065 5.01338 -5.60397)
(203.297 4.32626 -8.34192)
(201.622 3.60525 -11.2511)
(198.751 2.84315 -14.1975)
(194.347 2.03059 -16.8715)
(188.08 1.16266 -18.5551)
(179.825 0.253052 -18.1477)
(204.685 7.36485 2.70964)
(206.057 6.86747 0.525272)
(206.998 6.26302 -1.90752)
(207.395 5.5774 -4.67196)
(207.069 4.83711 -7.76848)
(205.753 4.0355 -11.2181)
(203.039 3.16852 -14.9394)
(198.378 2.22724 -18.6539)
(191.166 1.20126 -21.554)
(180.892 0.103902 -22.3268)
(206.125 6.84226 4.49047)
(207.902 6.24224 2.2377)
(209.271 5.5385 -0.342006)
(210.125 4.75671 -3.35089)
(210.249 3.91533 -6.80107)
(209.337 2.99849 -10.7702)
(206.876 1.99622 -15.2418)
(202.113 0.895401 -20.0155)
(194.136 -0.31651 -24.2502)
(181.957 -1.60133 -26.6177)
(206.925 7.37363 5.36733)
(209.054 6.70504 3.12491)
(210.79 5.92295 0.506582)
(212.036 5.07026 -2.60158)
(212.566 4.16431 -6.26101)
(212.042 3.19493 -10.585)
(209.867 2.1493 -15.6317)
(205.103 1.00913 -21.3134)
(196.504 -0.25757 -26.8023)
(182.557 -1.6358 -30.9313)
(207.631 6.45866 6.64282)
(210.028 5.63567 4.41007)
(212.039 4.72372 1.72934)
(213.587 3.77439 -1.47325)
(214.451 2.78926 -5.32022)
(214.275 1.76219 -9.95047)
(212.408 0.677826 -15.5032)
(207.76 -0.482442 -22.0421)
(198.742 -1.74539 -28.8219)
(183.242 -3.09553 -34.9915)
(207.908 6.90423 6.67503)
(210.476 5.98955 4.57081)
(212.668 5.01022 2.00793)
(214.424 4.02414 -1.10678)
(215.545 3.03701 -4.93097)
(215.672 2.04958 -9.6336)
(214.13 1.05701 -15.4257)
(209.724 0.0492875 -22.5454)
(200.547 -1.00684 -30.4238)
(183.793 -2.29542 -38.6408)
(208.16 5.13114 7.4437)
(210.791 4.0429 5.466)
(213.06 2.9662 2.98977)
(214.932 1.93 -0.0442654)
(216.239 0.93338 -3.8576)
(216.645 -0.0162453 -8.66121)
(215.474 -0.894235 -14.7455)
(211.453 -1.6855 -22.4625)
(202.349 -2.32848 -31.5362)
(184.417 -3.25678 -41.6448)
(207.486 5.26311 6.98289)
(210.137 4.0383 5.21722)
(212.466 2.88427 3.00781)
(214.402 1.77836 0.223517)
(215.782 0.770772 -3.33197)
(216.28 -0.105382 -7.8842)
(215.311 -0.777885 -13.8119)
(211.668 -1.16513 -21.5964)
(202.974 -1.14091 -31.552)
(184.159 -1.05135 -42.6975)
(191.877 2.90994 -0.317699)
(191.989 2.37839 -1.54434)
(191.783 1.90333 -2.82107)
(191.242 1.4982 -4.10485)
(190.356 1.17343 -5.31846)
(189.123 0.929294 -6.36973)
(187.583 0.755114 -7.13787)
(185.868 0.610925 -7.50634)
(184.265 0.428846 -7.30407)
(182.949 0.127493 -6.34013)
(196.414 5.53578 -0.659627)
(196.768 5.13885 -2.12946)
(196.74 4.68877 -3.6462)
(196.281 4.21451 -5.20759)
(195.331 3.73945 -6.74536)
(193.833 3.27131 -8.14985)
(191.744 2.80994 -9.26254)
(189.073 2.34981 -9.87512)
(185.932 1.89389 -9.68242)
(182.652 1.46625 -8.45878)
(199.667 5.61459 0.643461)
(200.325 5.21069 -1.0425)
(200.571 4.71915 -2.85844)
(200.327 4.1774 -4.77974)
(199.502 3.60286 -6.76826)
(197.976 2.99922 -8.72617)
(195.625 2.36382 -10.4866)
(192.356 1.69251 -11.7753)
(188.184 0.987004 -12.1176)
(183.473 0.27471 -11.0367)
(201.773 6.29996 1.7458)
(202.805 5.89472 -0.0982927)
(203.414 5.38254 -2.12441)
(203.503 4.79233 -4.36201)
(202.936 4.14872 -6.7732)
(201.531 3.45233 -9.29358)
(199.058 2.70446 -11.7555)
(195.282 1.90238 -13.8371)
(190.067 1.04389 -14.8835)
(183.753 0.160462 -14.1809)
(203.393 5.83747 3.36344)
(204.792 5.32484 1.38974)
(205.767 4.71047 -0.849827)
(206.217 4.02194 -3.40414)
(205.963 3.27603 -6.24079)
(204.767 2.46454 -9.33628)
(202.295 1.58531 -12.542)
(198.145 0.631823 -15.5252)
(191.973 -0.402384 -17.4641)
(184.023 -1.46703 -17.4864)
(204.379 6.44837 4.1473)
(206.11 5.87023 2.13594)
(207.418 5.18282 -0.189329)
(208.204 4.4239 -2.91376)
(208.26 3.61454 -6.02589)
(207.304 2.74661 -9.54531)
(204.902 1.81621 -13.3598)
(200.481 0.811436 -17.1609)
(193.441 -0.29027 -19.9887)
(183.877 -1.45821 -20.8987)
(205.245 5.56644 5.41825)
(207.24 4.84029 3.37824)
(208.814 4.03072 0.949642)
(209.878 3.17987 -1.92831)
(210.211 2.29718 -5.29536)
(209.499 1.37565 -9.20264)
(207.227 0.40815 -13.5946)
(202.66 -0.619882 -18.2271)
(194.904 -1.73323 -22.0552)
(183.826 -2.89665 -24.1546)
(205.66 6.09941 5.47469)
(207.836 5.28846 3.53425)
(209.597 4.41527 1.19297)
(210.867 3.52884 -1.63964)
(211.433 2.64443 -5.03976)
(210.963 1.76035 -9.09689)
(208.883 0.874628 -13.8183)
(204.318 -0.0268663 -19.0628)
(196.064 -0.979336 -23.7816)
(183.654 -2.1056 -27.1464)
(206.005 4.37194 6.33841)
(208.26 3.39221 4.49331)
(210.108 2.41964 2.20256)
(211.496 1.48078 -0.584004)
(212.23 0.586887 -4.00418)
(211.986 -0.255369 -8.19322)
(210.167 -1.02271 -13.2542)
(205.777 -1.71372 -19.154)
(197.266 -2.29623 -24.949)
(183.594 -3.10541 -29.6309)
(205.43 4.67553 5.90437)
(207.713 3.5639 4.24379)
(209.632 2.52407 2.19112)
(211.092 1.52905 -0.378816)
(211.909 0.638047 -3.58414)
(211.759 -0.11994 -7.57607)
(210.089 -0.676366 -12.5313)
(205.895 -0.968865 -18.5395)
(197.464 -0.913995 -25.1209)
(182.772 -0.833277 -30.4954)
(190.516 2.15598 -0.357222)
(190.576 1.82874 -1.11091)
(190.426 1.52753 -1.88507)
(190.065 1.26497 -2.63762)
(189.498 1.0469 -3.31718)
(188.744 0.873358 -3.86661)
(187.848 0.739016 -4.21478)
(186.94 0.61427 -4.31965)
(186.312 0.444441 -4.10334)
(186.253 0.142326 -3.53159)
(194.353 4.38329 -0.79198)
(194.567 4.1391 -1.8121)
(194.494 3.83618 -2.82696)
(194.11 3.49751 -3.83426)
(193.394 3.14623 -4.77381)
(192.337 2.79205 -5.56589)
(190.948 2.44001 -6.10678)
(189.279 2.09049 -6.27874)
(187.448 1.75151 -5.93518)
(185.688 1.44614 -5.04339)
(197.274 4.51711 0.221293)
(197.724 4.21916 -1.0663)
(197.832 3.83848 -2.4239)
(197.549 3.40795 -3.8171)
(196.823 2.9442 -5.19577)
(195.604 2.45393 -6.46218)
(193.859 1.93834 -7.47913)
(191.605 1.3982 -8.0611)
(188.956 0.840771 -7.95008)
(186.236 0.293557 -6.9713)
(199.321 5.28912 1.03423)
(200.076 4.97691 -0.45629)
(200.453 4.5622 -2.06578)
(200.376 4.07313 -3.79396)
(199.758 3.53311 -5.58458)
(198.494 2.94744 -7.34539)
(196.481 2.32075 -8.91056)
(193.664 1.65572 -10.0259)
(190.107 0.958117 -10.2797)
(186.229 0.263273 -9.32747)
(200.986 4.87446 2.45867)
(202.059 4.45222 0.793378)
(202.73 3.93289 -1.07494)
(202.912 3.34436 -3.1527)
(202.474 2.70173 -5.38526)
(201.259 2.00326 -7.69685)
(199.08 1.25128 -9.90811)
(195.776 0.445042 -11.7142)
(191.31 -0.413941 -12.5292)
(186.168 -1.27392 -11.852)
(202.063 5.55448 3.11415)
(203.438 5.07055 1.37012)
(204.395 4.48225 -0.623689)
(204.84 3.82559 -2.91424)
(204.609 3.12082 -5.45241)
(203.493 2.36441 -8.19282)
(201.219 1.55749 -10.959)
(197.5 0.693549 -13.4196)
(192.146 -0.239504 -14.8158)
(185.678 -1.20347 -14.5097)
(203.027 4.70356 4.34337)
(204.654 4.07795 2.5337)
(205.85 3.37336 0.399678)
(206.53 2.62719 -2.09291)
(206.502 1.85235 -4.92782)
(205.518 1.04399 -8.0882)
(203.222 0.200108 -11.4231)
(199.191 -0.689865 -14.6063)
(193.033 -1.64325 -16.729)
(185.25 -2.61258 -17.0498)
(203.538 5.32678 4.38947)
(205.347 4.62476 2.64754)
(206.723 3.86162 0.567705)
(207.589 3.08175 -1.92173)
(207.748 2.30521 -4.83375)
(206.922 1.53128 -8.18836)
(204.685 0.759593 -11.875)
(200.482 -0.026826 -15.6103)
(193.678 -0.86026 -18.3867)
(184.674 -1.80718 -19.4003)
(203.959 3.64025 5.32527)
(205.857 2.77604 3.64487)
(207.328 1.9134 1.57476)
(208.307 1.08013 -0.912453)
(208.601 0.293615 -3.88538)
(207.932 -0.438199 -7.40201)
(205.832 -1.09571 -11.4357)
(201.623 -1.68824 -15.778)
(194.384 -2.19898 -19.4231)
(184.211 -2.85856 -21.2822)
(203.456 4.11678 4.89236)
(205.391 3.12988 3.37266)
(206.936 2.2111 1.51105)
(207.99 1.33583 -0.795292)
(208.367 0.566012 -3.60061)
(207.779 -0.0718407 -6.98273)
(205.764 -0.517638 -10.9719)
(201.595 -0.727357 -15.427)
(194.216 -0.654245 -19.645)
(183.072 -0.570725 -21.8916)
(189.942 1.55402 -0.313784)
(189.981 1.3601 -0.755613)
(189.889 1.17481 -1.20897)
(189.672 1.0094 -1.6378)
(189.338 0.866277 -2.01292)
(188.905 0.745948 -2.30196)
(188.412 0.646999 -2.46247)
(187.963 0.54653 -2.4899)
(187.832 0.398993 -2.3337)
(188.412 0.107558 -2.0252)
(193.028 3.41319 -0.792427)
(193.158 3.28329 -1.46854)
(193.09 3.09489 -2.11587)
(192.811 2.86573 -2.73519)
(192.319 2.61662 -3.28275)
(191.624 2.35774 -3.70776)
(190.75 2.09716 -3.95067)
(189.748 1.83937 -3.95267)
(188.699 1.59484 -3.64728)
(187.739 1.3812 -3.05665)
(195.485 3.53428 -0.0131691)
(195.788 3.32631 -0.953674)
(195.826 3.044 -1.92435)
(195.573 2.71422 -2.8937)
(195.005 2.35198 -3.8156)
(194.11 1.96496 -4.61346)
(192.894 1.557 -5.19194)
(191.408 1.1322 -5.43984)
(189.76 0.700354 -5.22844)
(188.163 0.284456 -4.51105)
(197.335 4.36084 0.532108)
(197.877 4.13477 -0.624027)
(198.101 3.81396 -1.84793)
(197.958 3.42368 -3.12804)
(197.397 2.98581 -4.40644)
(196.369 2.50831 -5.59579)
(194.844 1.99799 -6.56446)
(192.844 1.46134 -7.13951)
(190.485 0.909158 -7.09088)
(188.081 0.373467 -6.27219)
(198.932 3.97723 1.7562)
(199.737 3.64202 0.400849)
(200.185 3.21719 -1.09966)
(200.209 2.72838 -2.72739)
(199.724 2.18976 -4.42084)
(198.637 1.60402 -6.09073)
(196.865 0.976278 -7.57612)
(194.376 0.310368 -8.6452)
(191.254 -0.385715 -8.93391)
(187.92 -1.06578 -8.18736)
(200.016 4.711 2.26446)
(201.084 4.31965 0.801934)
(201.764 3.83065 -0.849141)
(201.977 3.27817 -2.70283)
(201.605 2.68021 -4.69729)
(200.511 2.03788 -6.75501)
(198.546 1.35514 -8.69728)
(195.599 0.630349 -10.2447)
(191.688 -0.139111 -10.8853)
(187.329 -0.916263 -10.2414)
(201.016 3.88678 3.42396)
(202.315 3.36121 1.86546)
(203.2 2.76121 0.0459619)
(203.595 2.12159 -2.03857)
(203.352 1.45544 -4.3439)
(202.293 0.761542 -6.81125)
(200.199 0.041108 -9.2629)
(196.866 -0.711813 -11.3917)
(192.194 -1.50519 -12.5388)
(186.775 -2.28895 -12.1978)
(201.577 4.59836 3.4308)
(203.05 4.00637 1.90998)
(204.099 3.35427 0.114576)
(204.649 2.68416 -2.00124)
(204.537 2.01716 -4.40965)
(203.553 1.35492 -7.08189)
(201.413 0.698568 -9.85749)
(197.807 0.0316536 -12.432)
(192.479 -0.673405 -14.0227)
(186.036 -1.44502 -14.011)
(202.053 2.94566 4.41528)
(203.621 2.19946 2.92255)
(204.764 1.44914 1.09664)
(205.415 0.725272 -1.06155)
(205.405 0.0468449 -3.57125)
(204.51 -0.576396 -6.4283)
(202.399 -1.12822 -9.53153)
(198.665 -1.62288 -12.6137)
(192.844 -2.0517 -14.8544)
(185.417 -2.56528 -15.3596)
(201.598 3.59699 3.96002)
(203.207 2.74068 2.60706)
(204.424 1.94609 0.96154)
(205.146 1.1943 -1.04935)
(205.207 0.545011 -3.43324)
(204.369 0.0226627 -6.20737)
(202.288 -0.323353 -9.31221)
(198.487 -0.464652 -12.5014)
(192.413 -0.383177 -15.1191)
(184.174 -0.298675 -15.7967)
(189.84 1.08592 -0.241234)
(189.87 0.973379 -0.490281)
(189.82 0.861139 -0.750822)
(189.698 0.759385 -0.991659)
(189.512 0.667905 -1.19912)
(189.275 0.587602 -1.35557)
(189.013 0.519503 -1.43308)
(188.811 0.444542 -1.44487)
(188.923 0.322762 -1.34422)
(189.83 0.0469477 -1.19447)
(192.249 2.62932 -0.728243)
(192.331 2.5777 -1.15922)
(192.282 2.4723 -1.55457)
(192.098 2.32634 -1.91872)
(191.782 2.15768 -2.22359)
(191.349 1.97597 -2.43898)
(190.819 1.79022 -2.53272)
(190.23 1.60669 -2.477)
(189.634 1.43649 -2.24269)
(189.102 1.29206 -1.85927)
(194.212 2.68808 -0.121713)
(194.415 2.54969 -0.783071)
(194.423 2.34788 -1.45219)
(194.225 2.1036 -2.10375)
(193.814 1.82937 -2.70191)
(193.193 1.53258 -3.19371)
(192.383 1.21819 -3.51922)
(191.432 0.891606 -3.61655)
(190.417 0.562486 -3.4231)
(189.466 0.248496 -2.93725)
(195.791 3.5367 0.194164)
(196.172 3.3841 -0.669261)
(196.302 3.14683 -1.56362)
(196.15 2.84655 -2.47605)
(195.691 2.50314 -3.35639)
(194.91 2.12575 -4.13544)
(193.811 1.7223 -4.72076)
(192.439 1.30123 -5.00451)
(190.898 0.87513 -4.86511)
(189.391 0.470247 -4.24628)
(197.238 3.16589 1.22806)
(197.829 2.90906 0.16128)
(198.121 2.57224 -1.00261)
(198.065 2.17739 -2.23525)
(197.612 1.73787 -3.47872)
(196.715 1.25902 -4.65193)
(195.352 0.747677 -5.63018)
(193.546 0.210616 -6.25439)
(191.408 -0.340868 -6.31295)
(189.234 -0.868912 -5.68716)
(198.258 3.93457 1.58549)
(199.071 3.62918 0.398031)
(199.542 3.23499 -0.923297)
(199.61 2.78264 -2.37265)
(199.199 2.2887 -3.88672)
(198.227 1.75739 -5.38303)
(196.629 1.19441 -6.71024)
(194.39 0.601882 -7.65949)
(191.603 -0.0163372 -7.91166)
(188.665 -0.629549 -7.26155)
(199.242 3.13111 2.65734)
(200.256 2.70069 1.35356)
(200.894 2.20142 -0.152971)
(201.093 1.66567 -1.84036)
(200.747 1.105 -3.65677)
(199.741 0.522188 -5.52455)
(197.956 -0.0795928 -7.27957)
(195.323 -0.701812 -8.6722)
(191.882 -1.34473 -9.26754)
(188.124 -1.96225 -8.74869)
(199.808 3.92498 2.6036)
(200.982 3.43964 1.31312)
(201.762 2.89598 -0.192393)
(202.08 2.33441 -1.93317)
(201.812 1.77465 -3.86094)
(200.813 1.22119 -5.91871)
(198.913 0.676676 -7.94183)
(195.969 0.127861 -9.66237)
(191.937 -0.447505 -10.5326)
(187.368 -1.05953 -10.1316)
(200.315 2.29699 3.61616)
(201.586 1.66676 2.32356)
(202.452 1.02746 0.752495)
(202.855 0.412362 -1.069)
(202.656 -0.161083 -3.13044)
(201.691 -0.681522 -5.38625)
(199.745 -1.13541 -7.70591)
(196.607 -1.53726 -9.82732)
(192.105 -1.8809 -11.1573)
(186.761 -2.26556 -11.061)
(199.886 3.12529 3.11764)
(201.198 2.40007 1.94691)
(202.134 1.72885 0.531637)
(202.598 1.0992 -1.17042)
(202.452 0.565101 -3.13721)
(201.516 0.148817 -5.34293)
(199.555 -0.111578 -7.68511)
(196.294 -0.200206 -9.89517)
(191.505 -0.117999 -11.4578)
(185.525 -0.038753 -11.3985)
(189.987 0.728536 -0.16539)
(190.012 0.662993 -0.300883)
(189.989 0.594643 -0.45094)
(189.924 0.533196 -0.586507)
(189.824 0.476324 -0.70388)
(189.698 0.425047 -0.793469)
(189.564 0.381644 -0.834268)
(189.49 0.329172 -0.84835)
(189.713 0.231396 -0.786063)
(190.786 -0.0284252 -0.728864)
(191.848 2.01818 -0.641705)
(191.9 2.01603 -0.907219)
(191.87 1.96712 -1.13815)
(191.757 1.88101 -1.34169)
(191.565 1.77272 -1.50172)
(191.305 1.65097 -1.60117)
(190.993 1.52459 -1.62323)
(190.654 1.4 -1.55486)
(190.317 1.2877 -1.38333)
(190.019 1.19589 -1.13281)
(193.35 1.98503 -0.151926)
(193.484 1.89594 -0.602977)
(193.484 1.7557 -1.05183)
(193.343 1.57991 -1.47894)
(193.062 1.37828 -1.85902)
(192.649 1.1571 -2.15764)
(192.127 0.921288 -2.33917)
(191.53 0.676071 -2.37076)
(190.911 0.429449 -2.22224)
(190.341 0.194032 -1.90547)
(194.636 2.82888 -0.0210875)
(194.899 2.73435 -0.644257)
(194.974 2.56652 -1.27511)
(194.842 2.34353 -1.90345)
(194.494 2.08281 -2.48997)
(193.928 1.79357 -2.98475)
(193.165 1.48394 -3.32765)
(192.246 1.16285 -3.45546)
(191.251 0.84247 -3.30669)
(190.303 0.543177 -2.86218)
(195.884 2.4541 0.843712)
(196.309 2.26375 0.0292505)
(196.496 2.00439 -0.846241)
(196.411 1.69395 -1.75258)
(196.029 1.34457 -2.64045)
(195.332 0.962955 -3.44486)
(194.325 0.556675 -4.07754)
(193.051 0.133844 -4.43693)
(191.608 -0.293658 -4.40527)
(190.188 -0.696708 -3.93198)
(196.792 3.23764 1.05883)
(197.397 3.008 0.124249)
(197.716 2.69992 -0.899521)
(197.705 2.33968 -1.99732)
(197.316 1.9426 -3.11094)
(196.511 1.51478 -4.16694)
(195.27 1.06294 -5.04997)
(193.622 0.591496 -5.61629)
(191.671 0.107647 -5.67697)
(189.693 -0.366234 -5.12821)
(197.717 2.44867 2.03451)
(198.492 2.1049 0.974061)
(198.942 1.69943 -0.238069)
(199.017 1.26068 -1.5654)
(198.646 0.799311 -2.9558)
(197.764 0.320657 -4.33136)
(196.318 -0.170756 -5.55835)
(194.309 -0.672892 -6.45215)
(191.829 -1.18132 -6.74295)
(189.236 -1.65699 -6.24442)
(198.248 3.31568 1.90688)
(199.164 2.92958 0.84339)
(199.73 2.48829 -0.382139)
(199.889 2.02983 -1.77021)
(199.554 1.57145 -3.26636)
(198.633 1.12012 -4.8019)
(197.037 0.679744 -6.23217)
(194.724 0.2412 -7.34713)
(191.75 -0.21211 -7.78771)
(188.539 -0.684955 -7.29469)
(198.767 1.70171 2.93138)
(199.774 1.18121 1.84062)
(200.417 0.648073 0.5222)
(200.642 0.137047 -0.974162)
(200.346 -0.33773 -2.62456)
(199.418 -0.763826 -4.36128)
(197.735 -1.1301 -6.05531)
(195.209 -1.44919 -7.48189)
(191.827 -1.71372 -8.2413)
(188.032 -1.99241 -7.92708)
(198.344 2.70917 2.37164)
(199.39 2.11072 1.38838)
(200.094 1.55812 0.206122)
(200.367 1.04476 -1.19105)
(200.106 0.616804 -2.76594)
(199.182 0.294113 -4.46703)
(197.453 0.104096 -6.1819)
(194.782 0.0533437 -7.66581)
(191.13 0.130127 -8.55485)
(186.859 0.198036 -8.19701)
(190.243 0.457535 -0.0961033)
(190.264 0.417903 -0.167076)
(190.255 0.374813 -0.256346)
(190.222 0.338083 -0.334684)
(190.17 0.303655 -0.404698)
(190.104 0.272502 -0.460984)
(190.038 0.247452 -0.485694)
(190.026 0.2128 -0.505937)
(190.294 0.135209 -0.467607)
(191.444 -0.110495 -0.464475)
(191.688 1.55687 -0.556236)
(191.722 1.58358 -0.71461)
(191.706 1.57103 -0.842229)
(191.64 1.52596 -0.947732)
(191.528 1.46092 -1.02322)
(191.377 1.38362 -1.05938)
(191.197 1.30217 -1.04771)
(191.004 1.22251 -0.981895)
(190.815 1.15421 -0.856312)
(190.648 1.10216 -0.687881)
(192.794 1.41771 -0.137388)
(192.883 1.36077 -0.437729)
(192.881 1.26506 -0.733198)
(192.788 1.14156 -1.00901)
(192.605 0.997151 -1.24835)
(192.341 0.836712 -1.4296)
(192.012 0.664396 -1.53196)
(191.644 0.484416 -1.53826)
(191.268 0.302546 -1.43358)
(190.925 0.127087 -1.23231)
(193.803 2.23914 -0.148725)
(193.983 2.18745 -0.584412)
(194.027 2.07425 -1.01525)
(193.925 1.91447 -1.43466)
(193.674 1.72284 -1.81407)
(193.282 1.50787 -2.1193)
(192.766 1.27716 -2.31287)
(192.163 1.03907 -2.35905)
(191.526 0.804364 -2.22808)
(190.928 0.588577 -1.91504)
(194.834 1.84789 0.573301)
(195.135 1.71098 -0.0314974)
(195.253 1.51667 -0.672595)
(195.168 1.27893 -1.32272)
(194.868 1.00831 -1.94273)
(194.35 0.711812 -2.48418)
(193.631 0.39693 -2.88782)
(192.753 0.0718588 -3.09182)
(191.79 -0.252543 -3.03277)
(190.863 -0.554793 -2.69245)
(195.603 2.62734 0.662984)
(196.044 2.46131 -0.0504895)
(196.256 2.22804 -0.819618)
(196.209 1.94925 -1.62704)
(195.877 1.63877 -2.4232)
(195.243 1.30354 -3.14864)
(194.314 0.95066 -3.72089)
(193.132 0.58561 -4.04657)
(191.787 0.216689 -4.01824)
(190.461 -0.141573 -3.58763)
(196.442 1.84781 1.54161)
(197.022 1.57981 0.702278)
(197.332 1.25843 -0.246749)
(197.336 0.907361 -1.26405)
(196.991 0.536484 -2.30187)
(196.262 0.152384 -3.29154)
(195.137 -0.239675 -4.1321)
(193.648 -0.635394 -4.69553)
(191.893 -1.02834 -4.8231)
(190.116 -1.38667 -4.40919)
(196.905 2.77698 1.33447)
(197.604 2.47972 0.484106)
(198.006 2.13185 -0.483006)
(198.065 1.76752 -1.55713)
(197.724 1.40196 -2.68417)
(196.931 1.04319 -3.79701)
(195.649 0.696018 -4.77901)
(193.89 0.354826 -5.47803)
(191.743 0.00834124 -5.66882)
(189.508 -0.348301 -5.20695)
(197.42 1.16529 2.36004)
(198.202 0.744875 1.46299)
(198.666 0.309967 0.38395)
(198.772 -0.10523 -0.814356)
(198.447 -0.490044 -2.10424)
(197.622 -0.831937 -3.41181)
(196.237 -1.12203 -4.62607)
(194.275 -1.37076 -5.57053)
(191.796 -1.56847 -5.99013)
(189.133 -1.7658 -5.64328)
(196.988 2.35423 1.72416)
(197.802 1.87419 0.924271)
(198.318 1.43196 -0.0328728)
(198.459 1.02544 -1.1435)
(198.152 0.69199 -2.36637)
(197.312 0.449023 -3.63852)
(195.866 0.314744 -4.85731)
(193.761 0.289588 -5.82137)
(191.051 0.356944 -6.29476)
(188.045 0.410542 -5.85608)
(190.526 0.250237 -0.0352963)
(190.545 0.224304 -0.0706909)
(190.542 0.19511 -0.127924)
(190.526 0.173028 -0.176147)
(190.5 0.152632 -0.222022)
(190.466 0.134811 -0.262259)
(190.434 0.122613 -0.280407)
(190.451 0.101213 -0.306982)
(190.726 0.039983 -0.283011)
(191.904 -0.19378 -0.312783)
(191.67 1.21934 -0.482978)
(191.693 1.26142 -0.574063)
(191.686 1.27109 -0.63855)
(191.649 1.25298 -0.685483)
(191.586 1.21767 -0.712267)
(191.5 1.17192 -0.713997)
(191.398 1.12296 -0.686531)
(191.289 1.07607 -0.626629)
(191.184 1.04 -0.531814)
(191.09 1.01737 -0.412624)
(192.454 0.970109 -0.100278)
(192.512 0.932359 -0.296799)
(192.512 0.86732 -0.489222)
(192.453 0.782047 -0.666394)
(192.338 0.680909 -0.817483)
(192.174 0.567288 -0.929208)
(191.972 0.444271 -0.989453)
(191.748 0.314753 -0.989083)
(191.521 0.182249 -0.920119)
(191.315 0.0514972 -0.795993)
(193.225 1.76076 -0.216795)
(193.346 1.73868 -0.511901)
(193.373 1.66642 -0.796729)
(193.3 1.55621 -1.06797)
(193.128 1.42004 -1.30613)
(192.865 1.26528 -1.48866)
(192.525 1.09848 -1.59278)
(192.136 0.926886 -1.59863)
(191.731 0.759499 -1.49238)
(191.354 0.608255 -1.27365)
(194.042 1.34647 0.389356)
(194.251 1.25054 -0.0483811)
(194.326 1.10864 -0.506679)
(194.255 0.931149 -0.963221)
(194.032 0.726827 -1.3887)
(193.662 0.502181 -1.74882)
(193.163 0.264041 -2.00513)
(192.57 0.0198316 -2.12105)
(191.934 -0.221385 -2.06294)
(191.331 -0.444149 -1.82707)
(194.664 2.10531 0.375456)
(194.979 1.99033 -0.152803)
(195.118 1.81945 -0.713365)
(195.062 1.61009 -1.29062)
(194.796 1.37424 -1.84506)
(194.32 1.11884 -2.33159)
(193.647 0.850726 -2.69373)
(192.817 0.575489 -2.87308)
(191.903 0.301142 -2.81007)
(191.019 0.0360442 -2.4855)
(195.404 1.33286 1.16146)
(195.828 1.12863 0.514497)
(196.038 0.879933 -0.209468)
(196.009 0.60562 -0.970715)
(195.714 0.314546 -1.72861)
(195.141 0.0135517 -2.42754)
(194.297 -0.292001 -2.99516)
(193.221 -0.596742 -3.34633)
(191.998 -0.894169 -3.39214)
(190.79 -1.15819 -3.07323)
(195.776 2.31244 0.875879)
(196.297 2.09175 0.217173)
(196.576 1.82607 -0.521642)