/*--------------------------------*- C++ -*----------------------------------*\
| =========                 |                                                 |
| \\      /  F ield         | foam-extend: Open Source CFD                    |
|  \\    /   O peration     | Version:     4.0                                |
|   \\  /    A nd           | Web:         http://www.foam-extend.org         |
|    \\/     M anipulation  |                                                 |
\*---------------------------------------------------------------------------*/
FoamFile
{
    version     2.0;
    format      ascii;
    class       volScalarField;
    location    "1050";
    object      alphat;
}
// * * * * * * * * * * * * * * * * * * * * * * * * * * * * * * * * * * * * * //

dimensions      [1 -1 -1 0 0 0 0];

internalField   nonuniform List<scalar> 
34480
(
0.00188837
0.0018871
0.00188693
0.00188776
0.00188989
0.00189382
0.00190133
0.00191946
0.0019585
0.00202939
0.0158196
0.0150059
0.0147044
0.0144377
0.0128288
0.00817948
0.00338365
0.00134349
0.00098498
0.00145568
0.0440878
0.0424166
0.0407277
0.0372823
0.0284667
0.0145362
0.00507014
0.00182004
0.00124188
0.00181457
0.0482421
0.0460761
0.0441354
0.040092
0.0295055
0.0140222
0.00474834
0.00176732
0.00128904
0.00198218
0.0475843
0.0451608
0.0433974
0.0395513
0.0286705
0.013071
0.00437057
0.00167743
0.00130105
0.00210248
0.0458664
0.0433812
0.0417219
0.0379287
0.0266897
0.0115244
0.00382933
0.00154788
0.00130778
0.00223069
0.0437628
0.0414396
0.03998
0.0363592
0.0251514
0.010481
0.00347221
0.00145692
0.00131499
0.00233968
0.0363389
0.0346489
0.0336211
0.0308702
0.0213488
0.0085955
0.00279964
0.00123725
0.0012375
0.00234475
0.0124237
0.0121044
0.0120016
0.0117255
0.00993038
0.0051251
0.00167615
0.000736816
0.000835043
0.00178748
0.00180326
0.00180312
0.00180473
0.00180794
0.00181265
0.00181868
0.00182655
0.00183757
0.00185387
0.00181457
0.00188867
0.0018868
0.00188619
0.0018867
0.00188857
0.00189205
0.00189756
0.00190695
0.00192458
0.00196526
0.0148697
0.0142252
0.0140283
0.0142112
0.014629
0.0147011
0.0129075
0.00762322
0.00249312
0.00204839
0.0406018
0.0393569
0.0386874
0.0381593
0.0365613
0.0318706
0.0229174
0.011252
0.00327841
0.0028086
0.0446869
0.0430055
0.0422008
0.0416366
0.0398036
0.0343171
0.0241143
0.0113929
0.00329802
0.00317936
0.0445364
0.0425708
0.0418242
0.0414718
0.0399935
0.0347303
0.0243669
0.01124
0.0032362
0.00346398
0.0433472
0.0412742
0.0405458
0.0403241
0.0391095
0.0341162
0.0238817
0.0108112
0.0031649
0.00379771
0.0417628
0.0397738
0.0391352
0.0389951
0.0380148
0.0333821
0.0234713
0.0105215
0.00312844
0.00411355
0.0350942
0.0336203
0.0331516
0.0331336
0.0326216
0.0293056
0.0210544
0.00936565
0.00285395
0.004182
0.0123655
0.012058
0.0119967
0.0120544
0.0121889
0.0120519
0.0106228
0.00545877
0.00170772
0.00280484
0.00179846
0.00179596
0.00179543
0.00179657
0.00179931
0.00180336
0.00180938
0.00181903
0.00184307
0.00189001
0.0018844
0.00188277
0.00188222
0.00188268
0.00188429
0.00188709
0.00189109
0.00189705
0.00190595
0.00191944
0.0139896
0.0135621
0.0134221
0.0135719
0.0140159
0.0146746
0.0151089
0.0141924
0.0101015
0.00584147
0.0371028
0.0361193
0.0357752
0.0359273
0.0362583
0.0358612
0.0329522
0.025317
0.0133265
0.00710324
0.0409851
0.0396684
0.039234
0.0394652
0.0399719
0.0396353
0.0361312
0.0265637
0.0125207
0.00721236
0.0412261
0.0397006
0.0392808
0.0396235
0.0404324
0.0405736
0.0372965
0.0266357
0.0114001
0.00719163
0.0405051
0.0388898
0.0384506
0.0388547
0.039883
0.0405062
0.0376382
0.0261205
0.0102869
0.00726939
0.039414
0.037841
0.0374448
0.0378513
0.0389785
0.0399564
0.0375956
0.0254777
0.00936421
0.00735487
0.033591
0.0324244
0.0321137
0.0324292
0.033366
0.0345273
0.0333867
0.0226091
0.00795798
0.00706256
0.0122618
0.0120054
0.0119607
0.0120209
0.0122187
0.012476
0.0126244
0.010656
0.00448837
0.00446603
0.00179095
0.00178802
0.00178712
0.00178797
0.0017906
0.00179491
0.00180181
0.00181348
0.00184004
0.00189334
0.0018764
0.00187524
0.00187485
0.0018752
0.00187638
0.00187828
0.00188063
0.00188369
0.00188763
0.00189228
0.0134139
0.0131537
0.0130566
0.0131524
0.0134499
0.013924
0.0144241
0.0148486
0.014588
0.0128663
0.0339609
0.0332638
0.0330616
0.0332667
0.0338422
0.034539
0.0345895
0.0323864
0.0256786
0.0173878
0.0375795
0.0366266
0.0363526
0.0366461
0.0374601
0.0384778
0.0385537
0.035264
0.0257806
0.0167296
0.0381355
0.0370331
0.0367595
0.037117
0.0381315
0.0395183
0.0399265
0.0361095
0.0246154
0.0158957
0.0378301
0.0366458
0.0363399
0.0367351
0.0378924
0.0396361
0.0404937
0.0363128
0.0231176
0.0153576
0.03718
0.0359979
0.0357132
0.0360998
0.0372977
0.0392331
0.0404715
0.0360188
0.0214938
0.0148734
0.0321908
0.0313049
0.0310731
0.0313585
0.0322622
0.0338914
0.035388
0.0319779
0.018507
0.013751
0.0121983
0.0119866
0.0119534
0.0119994
0.0121507
0.012365
0.0125661
0.012688
0.0095903
0.00833593
0.00178186
0.0017788
0.00177776
0.00177854
0.0017812
0.00178582
0.00179331
0.00180589
0.00183191
0.00187916
0.00186546
0.00186475
0.0018645
0.00186474
0.00186552
0.00186667
0.00186787
0.00186929
0.00187086
0.00187231
0.0131444
0.0129942
0.0129276
0.0129877
0.0131753
0.0134554
0.0137052
0.0140015
0.0142917
0.014421
0.0314561
0.031043
0.0309296
0.031056
0.0314463
0.0320742
0.0327816
0.0330854
0.0316517
0.027477
0.0347352
0.0341221
0.0339469
0.0341432
0.0347418
0.0357337
0.0368491
0.0371025
0.0341089
0.0274864
0.035484
0.0347505
0.0345687
0.0348096
0.0355535
0.0368222
0.0382928
0.0385694
0.0342403
0.0263253
0.0354937
0.0346748
0.0344555
0.0347308
0.0355888
0.0371272
0.0390155
0.0394396
0.0338269
0.0254218
0.0351903
0.0343395
0.0341282
0.0344032
0.0353021
0.0369684
0.0391205
0.0396152
0.0328083
0.0244736
0.0309591
0.0303069
0.0301298
0.0303365
0.0310035
0.0323075
0.0341847
0.0350221
0.0289228
0.0223274
0.012182
0.0120069
0.0119825
0.0120138
0.0121179
0.0122581
0.012324
0.0127149
0.0125864
0.012234
0.00177136
0.00176828
0.00176718
0.0017679
0.00177053
0.00177525
0.00178281
0.00179509
0.00181771
0.0018543
0.00185213
0.00185177
0.00185163
0.00185178
0.00185224
0.00185285
0.00185338
0.00185396
0.00185453
0.00185491
0.0131133
0.0130338
0.0129893
0.0130294
0.0131504
0.01331
0.0134124
0.0135331
0.0136601
0.0137568
0.0297207
0.0295162
0.0294619
0.0295226
0.0297215
0.0300612
0.030531
0.0311021
0.0314458
0.031087
0.0325899
0.0322388
0.0321341
0.0322413
0.0325891
0.0332167
0.0341376
0.0352001
0.0355123
0.0339769
0.0333759
0.0329284
0.0328155
0.0329544
0.0334091
0.0342428
0.0354912
0.0369058
0.036949
0.0340961
0.03357
0.0330383
0.0328883
0.0330594
0.0336126
0.0346639
0.0362885
0.0381468
0.0378811
0.0338826
0.0334974
0.032915
0.0327652
0.0329428
0.0335455
0.0347119
0.0365555
0.038678
0.0379607
0.0331357
0.0299163
0.029456
0.0293269
0.0294665
0.0299185
0.0308137
0.0322753
0.0342203
0.0337841
0.0299954
0.0122165
0.0120724
0.0120563
0.0120762
0.0121428
0.0122157
0.0121641
0.0123557
0.012765
0.0136645
0.00175928
0.0017563
0.00175521
0.00175587
0.0017584
0.00176298
0.00177017
0.00178137
0.00179978
0.00182623
0.00183681
0.00183667
0.00183662
0.0018367
0.00183695
0.00183721
0.0018374
0.0018376
0.00183776
0.00183779
0.0132451
0.0132132
0.0131854
0.0132135
0.0132927
0.0133762
0.0134197
0.013466
0.0135021
0.0134954
0.0286758
0.028589
0.0285678
0.0285934
0.0286802
0.0288236
0.0290244
0.029304
0.029603
0.0298246
0.0311272
0.0309407
0.0308812
0.0309337
0.0311132
0.0314414
0.0319492
0.0326631
0.0333877
0.0337869
0.0318272
0.0315722
0.0315066
0.0315791
0.0318298
0.0322939
0.0330336
0.0341071
0.0351307
0.0354311
0.0320878
0.0317602
0.0316623
0.0317613
0.0320906
0.0327206
0.033756
0.0353073
0.0366947
0.0367648
0.0321393
0.0317576
0.0316563
0.0317635
0.0321415
0.0328738
0.0340953
0.0359682
0.0375042
0.0371451
0.0290894
0.0287776
0.0286877
0.0287769
0.0290647
0.0296258
0.0305514
0.0321257
0.033587
0.0335944
0.0123104
0.0121911
0.0121823
0.0121934
0.0122312
0.0122477
0.0121232
0.0121238
0.0123094
0.0130106
0.00174549
0.00174272
0.00174167
0.00174228
0.00174464
0.00174887
0.00175536
0.00176505
0.00177941
0.00179797
0.0018197
0.00181971
0.00181971
0.00181976
0.00181988
0.00181994
0.00181998
0.00182001
0.00182002
0.00181993
0.0134827
0.0134856
0.0134711
0.0134913
0.0135423
0.0135807
0.0136023
0.0136215
0.013626
0.0135863
0.0281285
0.0280984
0.0280934
0.0281038
0.0281383
0.028189
0.0282593
0.0283575
0.0284669
0.0285538
0.030211
0.0301144
0.030081
0.0301055
0.0301943
0.030354
0.0305966
0.0309386
0.0313318
0.0316693
0.0307668
0.0306277
0.0305917
0.0306271
0.0307575
0.030995
0.0313686
0.0319264
0.032591
0.0331707
0.0310149
0.030821
0.0307596
0.0308142
0.031001
0.0313526
0.0319245
0.0328212
0.0339153
0.0348652
0.031111
0.0308697
0.0308041
0.0308654
0.0310923
0.0315238
0.0322343
0.0333902
0.0347995
0.0359532
0.0284832
0.0282799
0.0282205
0.0282745
0.0284475
0.0287738
0.0292891
0.0302224
0.0314962
0.032747
0.0124699
0.0123696
0.0123669
0.0123717
0.0123882
0.0123603
0.0122007
0.0120914
0.0120702
0.0123366
0.00172988
0.00172739
0.00172643
0.00172698
0.00172908
0.00173283
0.00173843
0.00174643
0.00175728
0.00177008
0.00180094
0.00180104
0.00180107
0.00180109
0.00180113
0.00180112
0.00180109
0.00180106
0.00180102
0.00180089
0.0137922
0.0138229
0.0138193
0.0138341
0.0138645
0.0138802
0.0138924
0.0139009
0.0138937
0.0138429
0.027895
0.0278905
0.0278927
0.0278974
0.0279097
0.0279243
0.0279458
0.0279755
0.0280063
0.0280225
0.0296777
0.0296264
0.0296071
0.0296187
0.0296632
0.0297414
0.0298561
0.0300097
0.0301822
0.0303207
0.0300855
0.0300108
0.0299916
0.0300083
0.0300746
0.0301927
0.030372
0.0306282
0.0309369
0.0312108
0.0302839
0.0301719
0.0301345
0.0301638
0.030267
0.0304569
0.0307557
0.031207
0.0317833
0.0323462
0.0303774
0.0302284
0.0301873
0.0302211
0.0303536
0.0305995
0.0309899
0.0316061
0.0324139
0.0332256
0.0280844
0.0279564
0.0279191
0.0279501
0.0280477
0.0282226
0.0284807
0.0289517
0.0296663
0.0305355
0.0127001
0.0126137
0.012616
0.0126165
0.0126176
0.0125575
0.0123889
0.0122332
0.0121058
0.0121671
0.00171233
0.00171019
0.00170935
0.00170983
0.00171164
0.00171481
0.00171946
0.00172579
0.00173375
0.00174242
0.00178057
0.0017807
0.00178075
0.00178075
0.00178076
0.00178072
0.00178068
0.00178064
0.00178058
0.00178045
0.0141649
0.0142138
0.0142196
0.0142304
0.0142445
0.0142531
0.0142607
0.014264
0.0142514
0.0141949
0.0278453
0.0278512
0.0278565
0.0278591
0.0278621
0.0278655
0.027871
0.0278787
0.027885
0.0278817
0.0293883
0.0293594
0.0293478
0.0293536
0.029377
0.0294175
0.0294748
0.0295477
0.0296258
0.029681
0.0296729
0.0296321
0.0296217
0.0296296
0.0296638
0.0297234
0.0298106
0.0299281
0.0300645
0.0301743
0.0298143
0.0297503
0.0297278
0.0297434
0.0298001
0.0299019
0.0300565
0.0302767
0.0305519
0.030807
0.0298851
0.0297939
0.0297687
0.029787
0.0298637
0.0300022
0.0302136
0.0305288
0.0309342
0.0313216
0.0278662
0.0277877
0.0277659
0.0277827
0.0278333
0.0279163
0.0280302
0.028242
0.0285784
0.0290035
0.0130054
0.0129286
0.0129353
0.0129327
0.0129227
0.0128424
0.0126817
0.0125186
0.0123522
0.0123525
0.00169281
0.00169103
0.00169033
0.00169073
0.00169223
0.00169481
0.00169851
0.00170335
0.00170903
0.0017148
0.00175857
0.0017587
0.00175876
0.00175876
0.00175875
0.00175872
0.00175868
0.00175864
0.00175859
0.00175845
0.0146036
0.0146589
0.0146733
0.0146812
0.0146875
0.0146938
0.0146988
0.014699
0.014683
0.0146223
0.0278987
0.0279071
0.0279138
0.0279156
0.0279162
0.0279166
0.0279175
0.0279187
0.0279178
0.0279099
0.0292432
0.0292258
0.0292186
0.0292216
0.0292347
0.0292572
0.0292881
0.029326
0.0293654
0.0293905
0.0294371
0.0294136
0.0294076
0.0294116
0.0294301
0.0294618
0.0295067
0.029564
0.0296279
0.0296756
0.0295298
0.029493
0.0294796
0.0294881
0.0295195
0.0295746
0.0296556
0.0297647
0.0298968
0.030014
0.0295756
0.0295193
0.0295039
0.0295141
0.0295589
0.0296375
0.0297534
0.0299162
0.0301169
0.0302956
0.0277946
0.0277474
0.0277357
0.0277441
0.027767
0.0277969
0.0278377
0.02792
0.0280602
0.0282599
0.0133908
0.0133204
0.0133309
0.0133261
0.0133076
0.0132194
0.0130762
0.0129268
0.0127586
0.0127589
0.00167127
0.00166985
0.00166929
0.00166961
0.0016708
0.00167281
0.00167565
0.00167922
0.00168318
0.00168695
0.0017349
0.00173502
0.00173507
0.00173507
0.00173507
0.00173504
0.00173501
0.00173497
0.00173493
0.0017348
0.0151138
0.0151729
0.0151898
0.0151961
0.0152016
0.0152066
0.0152099
0.015208
0.0151897
0.015125
0.0280082
0.0280173
0.0280235
0.0280254
0.0280258
0.0280256
0.0280253
0.0280247
0.0280218
0.0280129
0.029178
0.0291671
0.0291624
0.0291642
0.0291719
0.0291849
0.0292026
0.0292238
0.0292458
0.0292591
0.0293099
0.0292955
0.0292916
0.0292938
0.0293047
0.029323
0.029348
0.0293788
0.029412
0.0294364
0.0293674
0.029346
0.0293379
0.0293427
0.0293605
0.029391
0.0294343
0.0294902
0.0295562
0.029615
0.0293947
0.0293591
0.0293495
0.0293555
0.0293825
0.0294284
0.029494
0.0295814
0.0296843
0.0297735
0.0278342
0.0278062
0.0278008
0.0278046
0.0278118
0.0278152
0.0278219
0.0278449
0.0278936
0.0279958
0.013863
0.0137969
0.0138111
0.0138045
0.0137788
0.0136945
0.0135738
0.0134481
0.0132961
0.013319
0.00164768
0.0016466
0.00164617
0.00164641
0.00164732
0.00164884
0.00165094
0.00165348
0.00165617
0.0016586
0.00170948
0.0017096
0.00170964
0.00170964
0.00170964
0.00170962
0.0017096
0.00170957
0.00170953
0.00170941
0.0157069
0.0157699
0.0157872
0.0157934
0.0157987
0.0158032
0.0158052
0.0158019
0.0157817
0.015713
0.028148
0.0281571
0.0281628
0.0281647
0.0281652
0.0281651
0.0281647
0.0281637
0.0281603
0.0281513
0.0291542
0.0291474
0.0291445
0.0291455
0.02915
0.0291576
0.0291678
0.0291802
0.0291933
0.0292013
0.0292455
0.0292361
0.0292333
0.0292347
0.0292416
0.029253
0.0292684
0.0292866
0.0293058
0.0293205
0.0292802
0.0292675
0.0292626
0.0292654
0.0292757
0.029293
0.0293169
0.0293465
0.0293811
0.0294136
0.0292975
0.0292743
0.0292682
0.0292721
0.0292891
0.0293171
0.0293559
0.0294055
0.0294614
0.0295118
0.0279525
0.0279362
0.0279348
0.027936
0.0279348
0.0279281
0.0279213
0.0279203
0.02793
0.0279912
0.0144326
0.0143695
0.0143876
0.0143794
0.0143465
0.0142784
0.0141819
0.0140829
0.013954
0.0140056
0.00162203
0.00162124
0.00162093
0.00162111
0.00162177
0.00162287
0.00162437
0.00162612
0.0016279
0.00162945
0.00168225
0.00168235
0.00168239
0.00168239
0.00168239
0.00168237
0.00168236
0.00168233
0.00168231
0.00168219
0.0164013
0.0164683
0.0164856
0.0164917
0.0164972
0.0165014
0.0165025
0.0164983
0.0164767
0.0164038
0.0283042
0.0283133
0.0283183
0.0283201
0.0283207
0.0283209
0.0283207
0.0283197
0.0283164
0.0283076
0.0291504
0.0291464
0.0291448
0.0291453
0.0291478
0.029152
0.0291577
0.0291648
0.0291728
0.029178
0.0292152
0.0292089
0.0292068
0.0292077
0.0292123
0.02922
0.02923
0.0292416
0.0292537
0.0292636
0.0292362
0.0292285
0.0292255
0.0292271
0.0292332
0.0292433
0.0292568
0.0292731
0.0292921
0.0293115
0.0292508
0.0292352
0.0292312
0.029234
0.0292451
0.0292631
0.0292873
0.029317
0.0293495
0.0293819
0.0281251
0.0281135
0.0281142
0.0281142
0.0281094
0.0281017
0.0280917
0.0280832
0.0280784
0.0281222
0.0151252
0.0150554
0.0150782
0.0150682
0.015039
0.0149883
0.0149154
0.014842
0.014737
0.014816
0.00159433
0.00159377
0.00159355
0.00159368
0.00159414
0.00159492
0.00159595
0.00159712
0.00159826
0.00159923
0.00165312
0.00165321
0.00165324
0.00165324
0.00165324
0.00165323
0.00165322
0.0016532
0.00165318
0.00165307
0.0172228
0.0172945
0.0173111
0.0173169
0.0173229
0.0173273
0.0173278
0.017323
0.0173005
0.0172229
0.028469
0.0284777
0.0284821
0.0284838
0.0284844
0.0284847
0.0284848
0.028484
0.0284813
0.0284728
0.0291553
0.0291532
0.0291524
0.0291527
0.0291539
0.029156
0.0291589
0.0291627
0.0291675
0.0291713
0.0292023
0.029198
0.0291963
0.029197
0.0292001
0.0292053
0.0292121
0.0292198
0.0292278
0.0292348
0.0292151
0.0292104
0.0292084
0.0292094
0.0292131
0.0292191
0.0292269
0.0292361
0.0292468
0.0292592
0.0292316
0.0292208
0.0292181
0.0292203
0.0292279
0.0292399
0.0292555
0.0292743
0.0292942
0.0293171
0.0283298
0.028319
0.0283201
0.0283197
0.0283161
0.0283099
0.0283012
0.0282925
0.0282839
0.0283195
0.0159708
0.0158935
0.0159104
0.0159041
0.0158844
0.0158498
0.0157988
0.0157482
0.0156654
0.015767
0.00156457
0.00156419
0.00156404
0.00156413
0.00156444
0.00156497
0.00156565
0.0015664
0.00156711
0.0015677
0.00162206
0.00162214
0.00162216
0.00162217
0.00162217
0.00162216
0.00162215
0.00162214
0.00162212
0.00162201
0.0182086
0.0182858
0.0183028
0.0183082
0.018313
0.018318
0.0183181
0.018313
0.0182899
0.0182073
0.0286365
0.0286447
0.0286484
0.0286498
0.0286504
0.0286508
0.0286511
0.0286508
0.0286487
0.028641
0.0291633
0.0291624
0.0291621
0.0291622
0.0291627
0.0291634
0.0291646
0.0291664
0.0291692
0.0291721
0.0291972
0.0291943
0.029193
0.0291934
0.0291955
0.029199
0.0292036
0.0292087
0.0292141
0.0292191
0.0292049
0.0292019
0.0292006
0.0292012
0.0292034
0.029207
0.0292116
0.0292169
0.0292231
0.0292312
0.0292248
0.0292173
0.0292155
0.0292172
0.0292224
0.0292306
0.0292409
0.0292529
0.0292654
0.0292824
0.0285479
0.0285376
0.0285383
0.0285381
0.0285361
0.0285322
0.0285264
0.02852
0.0285118
0.0285426
0.0170077
0.0169249
0.0169358
0.0169328
0.0169218
0.0169016
0.0168706
0.0168393
0.0167762
0.016894
0.00153277
0.00153252
0.00153242
0.00153248
0.00153268
0.00153302
0.00153346
0.00153392
0.00153435
0.00153471
0.00158914
0.00158921
0.00158923
0.00158923
0.00158923
0.00158923
0.00158922
0.0015892
0.00158918
0.00158908
0.0194132
0.0194966
0.0195167
0.0195221
0.019525
0.0195276
0.0195271
0.0195222
0.0194992
0.019411
0.0288009
0.0288081
0.0288108
0.0288119
0.0288124
0.0288129
0.0288135
0.0288136
0.0288125
0.0288062
0.0291713
0.029171
0.0291711
0.0291712
0.0291712
0.0291713
0.0291715
0.029172
0.0291735
0.0291758
0.0291947
0.0291927
0.0291917
0.0291919
0.0291933
0.0291956
0.0291986
0.0292019
0.0292054
0.0292091
0.029199
0.029197
0.0291961
0.0291964
0.0291977
0.0291998
0.0292025
0.0292055
0.0292091
0.0292144
0.0292207
0.0292156
0.0292144
0.0292156
0.0292192
0.0292246
0.0292313
0.0292389
0.0292466
0.029259
0.0287617
0.0287522
0.0287525
0.0287527
0.0287519
0.0287501
0.0287471
0.0287434
0.0287372
0.0287638
0.0182927
0.018207
0.0182117
0.0182115
0.0182083
0.0182011
0.0181885
0.0181736
0.0181289
0.0182544
0.00149901
0.00149886
0.00149879
0.00149883
0.00149896
0.00149917
0.00149944
0.00149971
0.00149997
0.00150017
0.00155457
0.00155463
0.00155465
0.00155465
0.00155465
0.00155465
0.00155464
0.00155462
0.0015546
0.00155451
0.0209194
0.0210087
0.0210312
0.0210363
0.0210374
0.0210375
0.0210367
0.021032
0.0210101
0.0209163
0.0289537
0.0289591
0.0289607
0.0289612
0.0289615
0.0289621
0.0289629
0.0289636
0.0289637
0.0289599
0.0291776
0.0291777
0.0291779
0.0291779
0.0291778
0.0291777
0.0291774
0.0291774
0.0291779
0.0291796
0.0291923
0.0291909
0.0291902
0.0291902
0.029191
0.0291924
0.0291943
0.0291964
0.0291987
0.0292013
0.029194
0.0291928
0.0291922
0.0291922
0.029193
0.0291942
0.0291957
0.0291974
0.0291994
0.0292026
0.0292132
0.0292099
0.0292091
0.0292099
0.0292122
0.0292155
0.0292196
0.029224
0.0292285
0.0292369
0.0289519
0.0289438
0.0289438
0.0289441
0.0289441
0.0289437
0.0289426
0.028941
0.028937
0.0289591
0.0199087
0.0198238
0.0198213
0.0198234
0.0198274
0.0198327
0.019838
0.0198382
0.0198131
0.0199348
0.0014635
0.0014634
0.00146335
0.00146338
0.00146346
0.00146358
0.00146375
0.00146391
0.00146407
0.00146418
0.00151857
0.0015186
0.00151861
0.00151861
0.00151861
0.00151861
0.0015186
0.0015186
0.00151858
0.00151853
0.0228609
0.022953
0.0229729
0.0229771
0.0229779
0.0229778
0.0229767
0.0229726
0.0229529
0.0228557
0.0290827
0.0290853
0.0290856
0.0290855
0.0290857
0.0290863
0.0290873
0.0290886
0.0290899
0.0290896
0.0291816
0.0291817
0.0291818
0.0291818
0.0291818
0.0291816
0.0291814
0.0291813
0.0291813
0.0291822
0.0291898
0.0291888
0.0291882
0.0291882
0.0291886
0.0291895
0.0291906
0.0291919
0.0291934
0.0291951
0.0291899
0.0291891
0.0291887
0.0291887
0.0291891
0.0291897
0.0291906
0.0291915
0.0291926
0.0291943
0.0292007
0.0291988
0.0291983
0.0291987
0.0292
0.0292018
0.029204
0.0292064
0.0292088
0.0292136
0.0290974
0.0290912
0.0290911
0.0290913
0.0290914
0.0290915
0.0290912
0.0290907
0.0290889
0.0291059
0.022012
0.0219339
0.021932
0.0219337
0.0219368
0.0219409
0.021945
0.0219478
0.0219482
0.0220502
0.00142635
0.00142628
0.00142625
0.00142627
0.00142631
0.00142639
0.00142649
0.0014266
0.00142671
0.00142677
0.00148025
0.00148024
0.00148022
0.00148022
0.00148021
0.00148022
0.00148023
0.00148024
0.00148027
0.00148029
0.0254764
0.0255573
0.0255713
0.0255742
0.0255748
0.0255745
0.0255733
0.0255698
0.0255547
0.0254661
0.0291743
0.0291739
0.029173
0.0291725
0.0291725
0.029173
0.029174
0.0291756
0.0291779
0.0291811
0.029184
0.029184
0.029184
0.029184
0.029184
0.029184
0.029184
0.0291841
0.0291841
0.0291842
0.0291888
0.0291881
0.0291877
0.0291877
0.0291879
0.0291885
0.0291892
0.02919
0.029191
0.0291922
0.0291885
0.0291879
0.0291876
0.0291876
0.0291878
0.0291883
0.0291889
0.0291895
0.0291902
0.0291912
0.0291895
0.0291886
0.0291883
0.0291885
0.0291892
0.0291902
0.0291915
0.0291927
0.029194
0.0291961
0.0291866
0.0291827
0.0291822
0.0291821
0.029182
0.029182
0.029182
0.0291821
0.0291825
0.0291936
0.0249137
0.024855
0.024854
0.0248552
0.0248572
0.0248599
0.0248627
0.0248643
0.0248644
0.0249405
0.0013868
0.00138675
0.00138673
0.00138674
0.00138678
0.00138684
0.00138692
0.001387
0.00138708
0.00138713
0.00234242
0.00236325
0.00235308
0.00231928
0.00141
0.0014328
0.00143016
0.0014256
0.00188672
0.00192854
0.00191935
0.0018948
0.00227346
0.00233132
0.00231174
0.00226549
0.00262063
0.00269143
0.00265938
0.00259473
0.00296148
0.00304336
0.00300343
0.00292992
0.00324266
0.00333262
0.00329063
0.00321716
0.00340915
0.00350536
0.00346563
0.00339671
0.00304007
0.00312903
0.00309061
0.00303464
0.0023743
0.00239095
0.00235642
0.00227572
0.00202728
0.00203295
0.00203407
0.00203108
0.00235783
0.00243801
0.00233852
0.00214712
0.00331604
0.00343032
0.00329995
0.00306189
0.00408104
0.00424881
0.00408972
0.00379112
0.0048634
0.00509804
0.00490234
0.00452546
0.00583826
0.00616218
0.00591898
0.00543256
0.00680059
0.00721132
0.00690788
0.00630819
0.00749108
0.00798535
0.00762569
0.00692938
0.00590901
0.0063421
0.00598912
0.0053918
0.00218209
0.00221438
0.00220766
0.00217207
0.00193341
0.00193544
0.00193559
0.00193435
0.00407216
0.00404786
0.00405843
0.00415037
0.00499968
0.00498149
0.00500128
0.00510594
0.0055061
0.00552567
0.00554464
0.00559482
0.00602306
0.00607611
0.0060777
0.00603611
0.00676776
0.00686258
0.00681976
0.00664069
0.00752384
0.00764453
0.00752743
0.0071883
0.00805563
0.00821285
0.00802234
0.00752271
0.00612292
0.00626009
0.00608261
0.00560198
0.0020489
0.00206602
0.00206416
0.00204651
0.00189498
0.0018952
0.00189532
0.00189536
0.010249
0.00997036
0.0101063
0.0106212
0.0119611
0.0116273
0.0119305
0.012825
0.0114544
0.0112732
0.0116453
0.0125419
0.0111059
0.0110435
0.0114395
0.0122715
0.0112254
0.0112654
0.0116526
0.01238
0.0114199
0.0115181
0.0118527
0.0124314
0.0113636
0.0115366
0.0118025
0.0121737
0.00802126
0.00820244
0.00832306
0.00836544
0.00195784
0.0019683
0.00196931
0.00196139
0.00187323
0.00187327
0.0018733
0.00187331
0.0144962
0.0144361
0.0144638
0.0145725
0.0238606
0.0235367
0.0237241
0.0243509
0.022268
0.0219752
0.0223274
0.0232542
0.0204045
0.0202233
0.0207021
0.0218101
0.0193537
0.0193202
0.0198885
0.0210872
0.0185369
0.0186073
0.0191965
0.0203886
0.0173417
0.0175478
0.0180987
0.0191123
0.0108856
0.0111163
0.0113551
0.0116706
0.00189466
0.00190115
0.00190264
0.00189928
0.00185531
0.00185528
0.00185527
0.00185526
0.0140917
0.014018
0.0140082
0.0140625
0.0304295
0.0303211
0.0303456
0.0304913
0.0318257
0.0315847
0.0316732
0.0320483
0.0304603
0.0301699
0.0303877
0.0310445
0.0290517
0.0288289
0.0292147
0.030143
0.0274696
0.0273354
0.0278462
0.0289743
0.0247869
0.0248435
0.0253964
0.0264759
0.0131803
0.0134071
0.0135802
0.0137426
0.00184672
0.00185065
0.00185194
0.00185062
0.00183808
0.00183803
0.00183801
0.001838
0.0137879
0.0136972
0.0136794
0.0137333
0.0299439
0.0299452
0.0299581
0.0299826
0.0337081
0.0337085
0.0337385
0.0337956
0.0348538
0.0348032
0.0348609
0.035015
0.0353721
0.0352813
0.0354136
0.0357392
0.0347271
0.034606
0.0348339
0.0353677
0.0311116
0.031133
0.0314405
0.032008
0.0133218
0.0135931
0.0136516
0.0135456
0.00180834
0.00181073
0.00181169
0.0018112
0.00182018
0.00182012
0.00182009
0.00182008
0.0138657
0.0137686
0.0137484
0.0138036
0.0286472
0.0286391
0.0286409
0.028653
0.0317888
0.0318122
0.0318275
0.031835
0.0333434
0.0333844
0.033414
0.0334339
0.0350749
0.0351417
0.0351988
0.0352488
0.0359328
0.0359891
0.0360705
0.0361783
0.0326298
0.0327772
0.032899
0.0329996
0.0123982
0.0126492
0.0126874
0.0125503
0.00177546
0.00177697
0.00177762
0.0017774
0.00180113
0.00180107
0.00180103
0.00180103
0.0141237
0.0140235
0.0140024
0.0140589
0.0280847
0.028071
0.0280687
0.0280784
0.0303652
0.0303711
0.0303746
0.0303759
0.0313024
0.0313202
0.0313304
0.0313338
0.0325765
0.0326279
0.0326556
0.0326618
0.0335033
0.0335744
0.0336136
0.0336265
0.0307785
0.030936
0.0309999
0.0309786
0.0119641
0.0121845
0.0122244
0.0121042
0.00174532
0.00174634
0.00174675
0.00174659
0.00178068
0.00178061
0.00178058
0.00178058
0.0144811
0.014378
0.0143561
0.0144141
0.0279346
0.0279204
0.0279177
0.0279266
0.029694
0.0296936
0.0296934
0.0296935
0.0301974
0.0302002
0.0302016
0.030202
0.0308977
0.0309165
0.030926
0.0309269
0.0314235
0.0314507
0.0314653
0.0314692
0.0290471
0.029149
0.0291851
0.0291579
0.0120399
0.0122561
0.0122965
0.0121753
0.0017164
0.00171714
0.0017174
0.00171723
0.00175869
0.00175861
0.00175858
0.00175858
0.0149157
0.0148094
0.0147868
0.0148462
0.027959
0.0279456
0.0279429
0.0279514
0.0293951
0.0293936
0.0293929
0.0293928
0.0296793
0.0296785
0.0296778
0.0296775
0.0300473
0.0300533
0.030056
0.0300557
0.03031
0.0303165
0.0303202
0.030322
0.0281924
0.0282608
0.0282825
0.0282574
0.0124056
0.012634
0.0126759
0.0125451
0.00168784
0.00168842
0.00168858
0.00168839
0.00173504
0.00173496
0.00173492
0.00173493
0.0154272
0.0153171
0.0152935
0.0153549
0.0280587
0.0280462
0.0280437
0.0280516
0.0292614
0.02926
0.0292594
0.0292594
0.0294363
0.0294352
0.0294343
0.0294339
0.0296296
0.029632
0.0296327
0.0296321
0.0297648
0.0297656
0.0297661
0.0297666
0.0278975
0.0279517
0.0279672
0.0279438
0.0129471
0.0131951
0.0132401
0.0130971
0.00165908
0.00165955
0.00165966
0.00165946
0.00170965
0.00170956
0.00170952
0.00170954
0.0160257
0.0159111
0.0158864
0.0159498
0.0281935
0.0281818
0.0281795
0.0281868
0.0292027
0.0292015
0.029201
0.0292011
0.0293201
0.0293193
0.0293187
0.0293183
0.0294219
0.0294231
0.0294234
0.0294228
0.0295011
0.0295012
0.029501
0.0295009
0.0278921
0.0279395
0.0279523
0.0279306
0.0136203
0.0138919
0.0139409
0.0137842
0.00162969
0.00163009
0.00163016
0.00162996
0.00168244
0.00168234
0.0016823
0.00168232
0.0167288
0.0166089
0.0165827
0.0166487
0.0283457
0.0283348
0.0283326
0.0283393
0.0291789
0.0291779
0.0291776
0.0291778
0.0292635
0.029263
0.0292626
0.0292622
0.0293171
0.0293179
0.0293181
0.0293176
0.0293746
0.0293751
0.029375
0.0293745
0.0280319
0.0280747
0.0280861
0.0280662
0.0144173
0.014715
0.0147686
0.0145969
0.00159933
0.00159968
0.00159972
0.00159953
0.00165333
0.00165322
0.00165318
0.00165321
0.0175627
0.0174361
0.0174082
0.0174771
0.0285064
0.0284965
0.0284944
0.0285004
0.0291718
0.029171
0.0291707
0.0291709
0.0292349
0.0292346
0.0292343
0.029234
0.0292632
0.0292638
0.0292638
0.0292634
0.0293139
0.0293149
0.0293149
0.0293143
0.0282417
0.0282805
0.0282908
0.0282725
0.0153524
0.0156791
0.0157375
0.0155491
0.00156772
0.00156804
0.00156806
0.00156788
0.00162229
0.00162217
0.00162213
0.00162217
0.0185648
0.0184297
0.0183994
0.0184721
0.0286695
0.0286605
0.0286586
0.0286638
0.0291724
0.0291717
0.0291715
0.0291717
0.0292193
0.0292191
0.0292189
0.0292186
0.0292341
0.0292344
0.0292344
0.0292341
0.0292825
0.0292838
0.029284
0.0292832
0.0284796
0.0285145
0.0285235
0.0285067
0.0164589
0.0168177
0.0168809
0.0166738
0.00153468
0.00153495
0.00153497
0.0015348
0.00158939
0.00158926
0.00158922
0.00158926
0.0197897
0.0196435
0.0196099
0.0196873
0.0288288
0.0288211
0.0288193
0.0288238
0.0291759
0.0291755
0.0291753
0.0291755
0.0292093
0.0292092
0.029209
0.0292088
0.0292163
0.0292165
0.0292165
0.0292162
0.0292612
0.0292626
0.0292628
0.029262
0.0287178
0.0287488
0.0287562
0.0287407
0.0177906
0.0181834
0.0182509
0.0180238
0.00150012
0.00150036
0.00150037
0.00150022
0.00155485
0.00155472
0.00155468
0.00155473
0.0213181
0.0211563
0.0211184
0.0212022
0.028978
0.0289719
0.0289704
0.0289737
0.0291796
0.0291793
0.0291793
0.0291793
0.0292015
0.0292014
0.0292013
0.0292012
0.0292037
0.0292037
0.0292036
0.0292035
0.0292398
0.029241
0.0292413
0.0292406
0.0289317
0.0289585
0.0289643
0.0289499
0.0194263
0.0198485
0.0199186
0.0196737
0.00146414
0.00146433
0.00146435
0.00146423
0.00151891
0.00151878
0.00151875
0.0015188
0.0232761
0.0230916
0.023048
0.0231418
0.0291042
0.0291001
0.0290989
0.029101
0.0291818
0.0291816
0.0291816
0.0291817
0.0291952
0.0291951
0.029195
0.0291951
0.0291945
0.0291944
0.0291943
0.0291944
0.0292159
0.0292167
0.0292169
0.0292165
0.0290966
0.0291179
0.0291217
0.0291092
0.0215175
0.0219695
0.0220365
0.0217692
0.00142686
0.00142701
0.00142703
0.00142693
0.00148072
0.00148062
0.00148061
0.00148067
0.0258585
0.0256495
0.0256039
0.0257114
0.0291906
0.0291887
0.0291878
0.0291886
0.0291832
0.029183
0.029183
0.0291832
0.0291921
0.029192
0.029192
0.0291921
0.0291909
0.0291907
0.0291906
0.0291908
0.0291968
0.029197
0.0291971
0.0291971
0.0291955
0.0292077
0.0292094
0.0292017
0.0244752
0.0249
0.0249496
0.0246902
0.0013875
0.00138763
0.00138763
0.00138753
0.00215459
0.00203827
0.00197404
0.00194163
0.00192258
0.00191025
0.00190213
0.00189697
0.00189365
0.00189136
0.00175134
0.00159298
0.00478299
0.00943433
0.0139297
0.0170985
0.018589
0.0187194
0.0180692
0.0171154
0.00236952
0.00259672
0.00735098
0.0155626
0.0249383
0.0330306
0.0389882
0.0427618
0.044609
0.0449713
0.00277516
0.00364075
0.00831833
0.0178482
0.0291396
0.0384677
0.0449208
0.0486247
0.0500333
0.0497988
0.00308301
0.00395656
0.00873816
0.0193501
0.0320596
0.0419223
0.0480883
0.0509164
0.0512051
0.049969
0.00339406
0.00407974
0.00894895
0.0204142
0.0342481
0.0442839
0.0498463
0.0516124
0.050814
0.0487552
0.00363428
0.00408886
0.00897293
0.0211648
0.0358919
0.045749
0.0504118
0.0510161
0.0492698
0.0467228