/*--------------------------------*- C++ -*----------------------------------*\
| =========                 |                                                 |
| \\      /  F ield         | foam-extend: Open Source CFD                    |
|  \\    /   O peration     | Version:     4.0                                |
|   \\  /    A nd           | Web:         http://www.foam-extend.org         |
|    \\/     M anipulation  |                                                 |
\*---------------------------------------------------------------------------*/
FoamFile
{
    version     2.0;
    format      ascii;
    class       volScalarField;
    location    "1050";
    object      divFlux;
}
// * * * * * * * * * * * * * * * * * * * * * * * * * * * * * * * * * * * * * //

dimensions      [1 -3 -1 0 0 0 0];

internalField   nonuniform List<scalar> 
34480
(
0.000431368
0.000105413
1.61092e-05
4.40881e-06
4.45062e-06
8.64717e-06
9.15893e-06
0.0140494
0.536923
9.24057e-06
0.000125596
4.0631e-05
1.5106e-05
7.38212e-06
1.73058e-05
8.23235e-06
3.55661e-06
7.67204e-06
0.317612
1.93748e-05
0.000228292
5.30582e-05
4.65031e-05
1.59405e-05
2.70684e-05
1.89012e-05
1.14858e-05
1.12732e-05
0.123738
6.37906e-06
0.000243621
9.25075e-05
5.04716e-05
2.28026e-05
2.69871e-05
1.58563e-05
1.02636e-05
1.37658e-05
0.0195125
8.3435e-06
0.00015708
7.85106e-05
3.20158e-05
1.90761e-05
1.76693e-05
9.44977e-06
5.05204e-06
9.07104e-06
6.3912e-06
4.1562e-06
8.5236e-05
3.99182e-05
1.97716e-05
9.96702e-06
8.95527e-06
4.87019e-06
2.51101e-06
4.02001e-06
4.02557e-06
1.76977e-08
2.85401e-05
2.17195e-05
8.4084e-06
3.66814e-06
3.20842e-06
1.71685e-06
1.12461e-06
2.4609e-06
2.68623e-06
7.65539e-07
4.97325e-06
7.59249e-06
1.99868e-06
5.38331e-07
8.17233e-07
7.10062e-07
8.55859e-07
2.08675e-06
2.56891e-06
2.18384e-06
1.32218e-06
3.90443e-06
4.04543e-07
2.82539e-07
3.99794e-07
4.58193e-07
9.22134e-07
1.7817e-06
1.94807e-06
2.21566e-06
3.24506e-07
2.06286e-06
3.57162e-07
5.93131e-07
2.97367e-07
4.0783e-07
6.52734e-07
1.13662e-06
1.07393e-06
1.17752e-06
0.000180429
2.48369e-05
6.01356e-06
1.59856e-05
1.55374e-05
1.39143e-05
1.83429e-05
2.16276e-05
5.3177e-06
0.0556188
1.39503e-05
8.48178e-05
1.36709e-05
2.63168e-05
2.30885e-05
1.77878e-05
1.81689e-05
1.03943e-05
2.38358e-06
0.0864224
0.000229071
0.00017101
1.71531e-05
3.29349e-05
2.68871e-05
1.83967e-05
1.58702e-05
2.25729e-06
6.29988e-06
0.0464433
8.73018e-05
0.000111549
1.81442e-05
2.90826e-05
1.46983e-05
1.03331e-05
1.65944e-05
8.32808e-07
3.83677e-06
0.00669927
4.52639e-05
7.83491e-05
1.74232e-05
2.406e-05
7.6296e-06
2.18136e-06
1.48911e-05
1.00844e-05
1.27405e-05
5.56672e-05
0.000105301
1.17051e-05
2.38205e-05
1.18886e-05
5.47258e-06
1.62591e-06
6.32374e-06
1.29103e-05
4.62387e-06
2.84422e-05
3.23877e-05
2.66315e-07
1.21714e-05
4.35465e-07
2.71455e-06
9.03966e-07
4.81667e-06
1.28978e-05
3.02497e-06
2.51797e-05
0.000112524
2.68846e-05
6.10433e-06
4.61443e-06
2.18147e-06
1.44138e-06
6.98945e-06
1.45773e-05
8.09024e-06
1.90429e-05
4.42897e-05
3.92871e-06
1.31894e-06
3.13881e-06
2.34127e-06
2.73551e-06
6.77361e-06
1.16241e-05
8.65233e-06
1.04209e-05
0.000169044
9.98626e-05
4.35944e-05
2.1806e-05
5.73708e-06
9.4526e-07
2.91579e-06
4.39193e-06
5.57597e-06
3.69893e-06
8.42778e-05
4.0912e-05
4.54059e-05
4.0784e-05
3.19283e-05
2.68552e-05
2.62731e-05
2.61596e-05
0.0133243
0.0564102
5.57573e-06
3.34208e-05
8.86897e-06
2.10785e-05
2.12509e-05
2.00754e-05
1.97528e-05
1.68444e-05
0.00944057
0.0374365
0.000213124
3.88006e-05
4.27074e-05
1.15297e-05
1.08289e-06
5.75209e-06
6.35244e-06
4.40833e-06
0.00384431
0.0127789
0.000166467
4.40327e-06
3.68077e-05
1.57173e-05
7.25133e-06
4.13173e-07
1.41919e-06
3.20398e-06
2.72814e-06
7.18797e-06
0.000166848
9.29655e-06
3.34662e-05
1.77896e-05
1.25191e-05
5.04847e-06
2.60951e-07
3.49283e-06
1.98686e-06
5.30156e-06
7.58986e-05
3.7034e-05
1.76422e-05
1.62777e-05
1.07418e-05
5.06009e-06
5.00173e-07
1.13844e-06
3.16908e-06
1.655e-06
7.36724e-05
2.43661e-05
1.04736e-05
1.01123e-05
5.66771e-06
2.40237e-06
6.07698e-07
1.57662e-06
4.48664e-06
1.7291e-06
2.03648e-05
1.83315e-05
3.5051e-06
4.05753e-06
1.71297e-06
2.71682e-07
1.78904e-07
2.99326e-06
6.57126e-06
4.3885e-06
4.05418e-05
1.12073e-06
2.95063e-06
6.78963e-07
3.05265e-07
4.8774e-07
3.68766e-07
3.53823e-06
7.02462e-06
5.13717e-06
2.71909e-05
1.69202e-05
8.65445e-06
2.09513e-06
1.7764e-06
3.92846e-07
1.05697e-06
3.32911e-06
5.08663e-06
4.20184e-06
2.17091e-05
2.13459e-05
2.65899e-05
2.24046e-05
1.88012e-05
1.93456e-05
2.13591e-05
1.92359e-05
0.00172603
0.0307218
0.0001356
2.77662e-06
3.12753e-06
9.10538e-07
4.00374e-07
2.86786e-06
6.08494e-06
5.62557e-06
0.00888178
0.0389421
0.000220896
6.92561e-06
5.5097e-05
3.0966e-05
1.94467e-05
1.20045e-05
7.53021e-06
8.5249e-06
0.00462275
0.0231903
0.00015155
4.57939e-05
5.5421e-05
2.69617e-05
1.48861e-05
6.40058e-06
3.54957e-06
7.9641e-06
0.000611928
0.000837123
0.000116692
2.25283e-05
3.53216e-05
1.50214e-05
8.14071e-06
1.56234e-06
7.92294e-07
4.52853e-06
0.00199273
0.020204
4.18903e-05
3.28152e-05
1.43096e-05
9.75608e-06
4.21789e-06
2.17972e-07
1.96073e-06
2.64745e-06
0.00147772
0.031398
3.95993e-05
1.34443e-05
3.56685e-06
3.59189e-06
2.17353e-07
1.07543e-06
2.90036e-07
4.66213e-06
1.03246e-05
0.0236487
5.74736e-06
5.80275e-06
1.65966e-06
3.41392e-07
1.31433e-06
6.74907e-07
1.89382e-06
6.91619e-06
1.0896e-05
0.0137784
2.20127e-05
6.57736e-06
1.66704e-06
1.28386e-06
1.62574e-06
1.29945e-07
3.22735e-06
7.09677e-06
9.37595e-06
1.23638e-05
2.86134e-05
1.06374e-05
8.04579e-06
8.79157e-07
9.65634e-07
8.90415e-07
3.16102e-06
4.92001e-06
5.16426e-06
6.81612e-06
3.64395e-05
6.45674e-06
2.51899e-07
2.4897e-06
1.36045e-06
3.09616e-06
8.6851e-06
1.00354e-05
0.0019623
0.0151615
8.81999e-05
1.02092e-05
5.13126e-06
1.55147e-06
3.2489e-07
1.4521e-06
2.58351e-06
1.35012e-06
0.00736626
0.0226697
0.000151561
5.92072e-05
7.99171e-06
6.7003e-06
5.13531e-06
4.17639e-06
1.69742e-06
5.50213e-06
0.00319351
0.0110642
5.38856e-05
1.22889e-05
1.12878e-05
2.9185e-06
1.16439e-06
2.13228e-07
2.1371e-06
1.01428e-05
0.00121203
0.00571974
5.59097e-05
4.58104e-06
1.47678e-05
3.02552e-06
9.61526e-07
9.85335e-07
7.43584e-07
7.46083e-06
0.00475723
0.0251117
7.93905e-06
1.5086e-05
3.09097e-06
1.3485e-06
6.50594e-07
1.6499e-06
5.63799e-08
5.19397e-06
0.00795931
0.0422754
4.69686e-06
3.01845e-06
2.90598e-06
8.81736e-07
1.84868e-06
8.31773e-07
2.10664e-06
6.60243e-06
0.00231078
0.0467471
1.46396e-05
5.09866e-07
3.3059e-06
1.26175e-06
1.02726e-06
1.08143e-06
4.3962e-06
7.88761e-06
0.00430971
0.0521817
4.26458e-06
6.62015e-06
2.14687e-06
7.45718e-08
1.18251e-07
2.33428e-06
5.19062e-06
6.92671e-06
6.4365e-06
0.0391019
2.87455e-05
9.95974e-06
4.81046e-06
2.13057e-06
9.88288e-07
2.35644e-06
3.63797e-06
3.33035e-06
1.73854e-06
0.0553495
5.90763e-05
1.18906e-05
7.35695e-06
4.90098e-06
4.50522e-06
5.34213e-06
6.82975e-06
1.01687e-05
8.31831e-06
0.00386596
1.78664e-05
1.18351e-05
6.42307e-06
5.07823e-06
4.90246e-06
5.35775e-06
3.34106e-06
1.49953e-06
0.00285711
0.00865049
0.000167271
4.69448e-05
7.98106e-06
5.10101e-06
5.49919e-06
5.27051e-06
2.44993e-06
8.42454e-07
0.00104175
0.00257527
1.52195e-05
4.47425e-05
1.52661e-05
1.33787e-05
9.94968e-06
6.65412e-06
1.324e-06
3.89472e-06
0.00304728
0.00939484
8.93076e-06
3.66608e-05
6.55422e-06
9.26473e-06
6.30453e-06
3.64042e-06
4.47025e-07
4.16539e-06
0.00699578
0.0248346
4.47893e-05
5.5402e-06
8.66131e-06
6.19731e-06
4.04398e-06
1.8593e-06
1.27294e-06
3.5447e-06
0.0122052
0.0420138
3.28785e-05
5.0604e-06
7.82895e-06
3.7085e-06
2.1255e-06
2.66314e-07
3.07025e-06
4.33954e-06
0.00968596
0.0506517
2.65495e-05
3.61389e-06
4.01165e-06
1.13008e-06
3.63947e-08
2.35875e-06
4.42691e-06
4.56979e-06
0.0154754
0.0636441
5.81986e-06
4.40551e-06
1.86167e-06
1.26491e-06
1.1498e-06
3.0626e-06
4.06076e-06
2.60261e-06
0.00589468
0.0635054
2.72649e-05
9.91771e-06
3.02398e-06
2.32408e-06
1.35793e-06
1.78826e-06
1.37652e-06
8.3476e-07
0.0144198
0.0783897
1.84405e-05
7.18105e-07
4.13865e-06
6.38637e-06
7.16606e-06
7.00229e-06
5.59844e-06
6.15278e-06
1.7094e-05
0.00058974
4.36243e-05
6.09204e-06
1.13804e-06
1.73173e-06
2.7711e-06
3.17838e-06
2.32825e-06
3.026e-06
0.000659133
0.00225605
9.26518e-05
4.61742e-05
9.73913e-06
1.80552e-06
1.97738e-07
5.21081e-07
1.00286e-06
3.60643e-06
0.000411887
0.00144058
5.49543e-05
2.18608e-05
1.02692e-06
1.41691e-06
9.38882e-07
6.96983e-08
1.03399e-06
3.05561e-06
0.00385485
0.0100139
3.78086e-05
2.88359e-05
3.27522e-07
3.22198e-06
1.72819e-06
2.27812e-07
1.46459e-06
1.49472e-06
0.00751835
0.0214963
2.70552e-05
1.81738e-06
3.76763e-06
2.95602e-06
1.13128e-06
5.95381e-07
1.4511e-06
1.03346e-06
0.0136028
0.0363654
2.08719e-05
1.0392e-06
3.68984e-06
1.45713e-06
8.98422e-08
1.32075e-06
1.71308e-06
7.92083e-07
0.0127052
0.0448745
1.52086e-05
8.79323e-07
1.26193e-06
2.69191e-07
9.16173e-07
1.98661e-06
1.64452e-06
1.09466e-06
0.020365
0.059995
1.24743e-06
1.07865e-06
8.64073e-07
1.78549e-06
9.65945e-07
1.46617e-06
3.19947e-07
3.03644e-06
0.0133684
0.063361
2.0563e-05
1.07211e-05
2.33965e-06
1.33053e-06
2.56859e-07
2.42589e-07
1.81792e-06
4.27023e-06
0.0205933
0.075224
7.36781e-05
4.8365e-06
8.97546e-06
9.41653e-06
7.79206e-06
5.45088e-06
2.30243e-06
1.76697e-06
1.35133e-06
7.1091e-06
6.3219e-05
1.04486e-05
6.27518e-06
5.435e-06
4.84099e-06
4.43532e-06
5.49772e-06
9.57421e-06
3.16105e-05
0.000134165
9.59776e-05
2.93962e-05
1.00547e-05
4.98328e-06
3.3136e-06
2.70716e-06
4.09767e-06
7.81163e-06
0.000767773
0.00232202
3.01511e-05
2.17451e-05
2.74202e-06
4.75783e-07
7.29941e-07
7.72923e-07
1.48772e-06
6.95333e-06
0.00340504
0.00830313
5.44395e-05
2.47242e-05
3.30241e-06
1.56334e-06
1.78734e-06
1.90399e-06
8.57418e-08
4.74832e-06
0.00630704
0.0164298
9.25162e-06
2.13728e-06
2.14779e-06
1.50993e-06
1.86567e-06
1.69404e-06
2.0318e-07
4.03628e-06
0.0123576
0.0286447
5.69196e-06
6.9943e-06
1.61475e-06
1.53315e-06
1.58075e-06
1.10834e-06
8.27201e-07
4.21629e-06
0.0120013
0.0355841
4.05306e-07
5.80961e-06
2.1081e-06
1.71235e-06
1.13132e-06
5.48697e-07
1.57153e-06
4.54942e-06
0.0204465
0.0502479
5.46161e-06
6.05299e-06
1.56466e-08
1.70185e-06
1.45193e-07
6.52606e-07
2.78354e-06
5.38256e-06
0.0145542
0.0517445
1.52703e-05
1.10528e-05
1.75283e-06
6.14329e-07
4.56308e-07
1.42403e-06
2.92233e-06
3.83059e-06
0.0212739
0.0621071
7.21677e-05
4.419e-07
5.89358e-06
8.83339e-06
9.9327e-06
1.07491e-05
1.15241e-05
9.90239e-06
1.81654e-06
1.40825e-05
7.53404e-06
3.01281e-08
4.42017e-07
1.58918e-06
2.07245e-06
2.39079e-06
3.61518e-06
3.98246e-06
9.84386e-07
0.000172394
7.80515e-05
9.32208e-06
4.43889e-07
1.0373e-06
4.52809e-07
1.10373e-06
3.4636e-06
1.60781e-06
0.000577787
0.00184053
4.68798e-05
8.89397e-06
1.24389e-07
8.38772e-08
1.5768e-07
1.51946e-06
3.87203e-06
3.13683e-06
0.00242158
0.00578905
6.73934e-05
2.29015e-05
2.20405e-06
1.23945e-06
3.58378e-07
8.19871e-07
2.95824e-06
3.01363e-06
0.00446163
0.0111332
2.4996e-06
5.53424e-07
1.77149e-06
1.01455e-06
5.19621e-07
6.35852e-07
2.5475e-06
0.00146619
0.00984576
0.0205625
6.86779e-06
4.03877e-06
1.11944e-06
5.36292e-07
1.54691e-07
9.73328e-07
2.7645e-06
3.42714e-06
0.00918588
0.0251783
1.91598e-06
2.78096e-06
8.65593e-07
3.32655e-07
4.26994e-07
1.36116e-06
3.00634e-06
0.00260337
0.0177179
0.0381955
1.19552e-06
4.8296e-06
2.02493e-06
1.88907e-08
1.09471e-06
1.87922e-06
3.02186e-06
2.99488e-06
0.0125831
0.0375538
1.88181e-05
7.88778e-06
2.72107e-06
5.43349e-07
8.7136e-07
1.348e-06
1.52398e-06
0.0020937
0.0188647
0.0466685
9.36889e-05
5.31362e-06
2.94831e-06
1.14058e-06
2.70339e-07
2.57647e-06
6.74913e-06
1.25752e-05
1.7994e-05
2.39534e-05
2.59049e-05
4.12194e-06
2.82537e-06
2.40558e-06
2.2956e-06
2.04881e-06
1.09636e-06
2.29649e-06
1.03345e-05
1.32528e-05
3.89923e-05
6.92517e-06
2.29323e-06
7.74818e-07
6.51594e-07
1.18971e-06
1.02136e-06
2.0536e-06
0.000280449
0.00110341
2.87198e-05
2.09145e-06
1.95774e-06
6.29009e-07
4.38824e-07
1.7729e-06
1.7008e-06
2.36789e-06
0.00140829
0.00354622
7.56927e-05
1.93561e-05
1.60196e-06
9.47889e-07
6.47517e-07
1.85067e-06
1.79374e-06
1.50528e-06
0.00278342
0.00688014
7.57632e-06
7.67921e-07
1.59367e-06
4.72841e-07
5.91319e-07
1.59097e-06
1.57927e-06
0.00204421
0.00731843
0.0138376
3.27872e-06
2.28577e-06
6.34969e-07
4.88814e-07
9.89878e-07
1.63863e-06
1.66812e-06
1.07161e-07
0.0059828
0.0160489
1.31072e-06
9.47108e-08
4.60794e-07
9.1054e-07
1.37022e-06
1.61144e-06
1.48577e-06
0.00444614
0.0142135
0.0271204
6.88653e-06
4.22548e-06
3.18132e-06
9.39029e-07
1.2342e-06
1.21999e-06
6.17242e-07
1.1713e-06
0.00933302
0.0250285
1.92222e-05
6.4848e-06
2.42343e-06
7.96543e-07
4.96681e-07
2.26005e-07
8.5052e-07
0.00374605
0.0151608
0.0327728
0.000120962
3.71054e-06
4.9754e-06
3.82383e-06
1.34072e-06
1.85284e-06
5.31671e-06
8.03789e-06
9.48061e-06
8.62924e-06
4.52064e-06
5.35353e-07
7.11871e-07
1.55415e-06
2.33002e-06
2.86002e-06
2.66423e-06
3.46622e-06
7.29355e-06
1.17874e-05
2.0407e-05
2.6592e-06
1.9556e-06
1.45321e-06
9.82516e-07
3.10062e-07
1.29563e-06
4.76127e-07
9.57498e-05
0.000553782
6.10778e-07
2.62168e-06
5.44492e-07
1.42273e-06
1.51254e-06
1.17055e-06
4.83803e-07
1.3937e-06
0.000566621
0.00189108
6.68646e-05
1.96763e-05
1.6479e-06
6.39128e-07
1.1881e-06
9.23286e-07
7.87187e-07
2.39211e-06
0.00152001
0.0039358
4.62189e-06
3.586e-06
4.56219e-07
4.66518e-07
7.06956e-07
4.73642e-07
9.49327e-07
0.00202865
0.0052337
0.00898992
5.07656e-06
4.62788e-07
7.11755e-10
6.89396e-07
6.50765e-07
2.84186e-07
8.7082e-07
2.12042e-06
0.00319591
0.00925709
2.31029e-07
1.38478e-06
3.27226e-07
4.21523e-07
4.83836e-07
2.72357e-08
0.000341922
0.00487256
0.0109636
0.0185723
1.1157e-05
5.25984e-06
2.17879e-06
1.87314e-07
4.46799e-08
6.22848e-07
1.92533e-06
3.10767e-06
0.00589196
0.0152422
1.83994e-05
6.16195e-06
6.89635e-07
1.15617e-07
6.05531e-07
1.19453e-06
2.2729e-06
0.00392123
0.01131
0.0218077
5.20768e-05
3.36921e-06
9.65517e-06
1.31152e-05
1.43892e-05
1.48802e-05
1.46996e-05
1.40688e-05
1.28886e-05
9.75651e-06
2.3713e-05
2.74181e-06
2.53649e-06
1.88354e-06
1.20908e-06
8.10144e-07
5.80566e-07
1.68987e-06
6.65487e-06
1.01888e-05
4.66374e-07
1.95239e-06
1.95667e-06
1.40059e-06
5.82815e-07
9.55478e-08
2.94796e-07
1.65368e-06
8.58897e-05
0.000271704
1.18388e-05
3.93752e-08
5.39018e-07
4.50291e-07
2.30827e-07
5.18928e-07
7.88e-07
1.26076e-06
5.7932e-06
0.000784872
6.31707e-05
1.65322e-05
2.413e-06
4.12571e-07
1.5885e-07
5.93628e-07
1.29723e-06
1.55623e-07
0.000702676
0.00207355
6.45658e-06
3.12455e-06
1.00787e-06
4.23502e-07
1.65561e-08
7.49387e-07
0.00021205
0.00177824
0.00366487
0.00571978
3.12285e-06
1.62842e-06
8.82762e-08
2.50386e-07
1.52915e-07
8.84816e-07
1.57076e-06
1.16372e-06
0.0010494
0.00461995
2.13597e-06
2.66016e-06
1.25015e-07
2.58983e-07
4.48333e-07
1.10665e-06
0.00175162
0.0046372
0.00831817
0.0125299
1.4909e-05
5.68999e-06
1.20322e-06
2.82016e-07
7.41992e-07
1.32118e-06
1.9785e-06
1.66603e-06
0.0028604
0.00818008
1.62501e-05
4.83779e-06
2.25077e-07
1.80003e-07
6.23792e-07
1.0851e-06
1.20586e-06
0.00340135
0.00794461
0.0138694
0.000128927
5.66618e-05
4.837e-05
4.10437e-05
3.9069e-05
3.7732e-05
3.40935e-05
2.73406e-05
1.68048e-05
2.74759e-06
1.08676e-05
1.88988e-08
6.19939e-08
1.47134e-07
2.02542e-07
4.13388e-07
2.82552e-07
1.51069e-06
4.35847e-06
9.10979e-06
2.73055e-07
1.53615e-07
4.20547e-07
3.49877e-07
2.92073e-08
6.29771e-08
1.25992e-06
2.8814e-05
0.000207243
0.000197916
2.32173e-05
1.61531e-07
1.33827e-06
7.3136e-07
6.54174e-07
6.94787e-07
2.81478e-07
1.1992e-06
4.2357e-07
9.85122e-05
5.7046e-05
1.25464e-05
2.09237e-06
3.51388e-07
7.17829e-07
7.31683e-07
4.12066e-08
9.42842e-07
0.000271625
0.00100314
4.62663e-06
1.23301e-06
4.10072e-07
1.10458e-07
5.34895e-07
6.68714e-07
0.000586188
0.00147946
0.00255544
0.00360178
5.3248e-07
1.51e-06
7.57757e-07
3.09466e-07
4.74232e-07
6.59996e-07
3.93482e-07
2.25004e-07
2.3105e-07
0.00165286
0.000283409
2.51181e-06
2.97475e-07
5.87372e-07
5.01201e-07
0.00097783
0.00247131
0.00416713
0.00633016
0.00847048
1.42942e-05
6.41683e-06
2.00199e-07
1.85535e-07
3.53629e-07
3.87852e-07
1.01679e-07
5.61898e-07
0.000501882
0.00341349
1.20804e-05
3.18355e-06
7.87261e-07
6.62255e-08
5.0906e-09
8.16087e-08
0.000324688
0.00266256
0.0053083
0.00847791
0.00119566
0.00010567
0.000134775
0.000151282
0.000147341
0.000125845
9.44925e-05
5.9037e-05
2.26465e-05
1.37886e-05
5.45113e-06
1.04795e-06
6.30001e-08
2.23289e-06
3.64223e-06
4.17733e-06
4.97703e-06
5.88567e-06
6.12971e-06
8.67579e-06
8.15425e-05
3.99594e-05
7.17612e-05
9.0399e-05
0.000119095
0.000162449
0.000222666
0.000255588
0.000373649
0.000241633
2.02543e-05
5.25149e-08
1.51605e-06
9.81618e-07
2.40539e-07
3.97832e-07
7.66471e-07
2.61761e-07
1.9864e-06
2.66945e-06
5.00961e-05
8.14514e-06
1.90367e-06
8.14564e-08
2.13516e-07
3.6535e-07
8.14666e-07
5.50522e-07
0.000120521
0.000467442
0.000116144
7.70575e-07
9.206e-08
1.0974e-07
5.7299e-08
0.000287027
0.000731105
0.00120288
0.00179296
0.00226633
2.85701e-06
1.5766e-06
9.80711e-07
2.35812e-07
7.92283e-08
4.12902e-07
6.64784e-07
5.55623e-07
5.21925e-07
2.10057e-06
0.00155764
0.00103287
0.000809474
0.000929731
0.00128661
0.00187647
0.00275948
0.00366874
0.00491051
0.00584045
1.65683e-05
5.35499e-06
6.77916e-08
2.70957e-07
3.73838e-07
7.14216e-07
1.18114e-06
1.30537e-06
3.98748e-07
0.000427097
7.67831e-06
6.20536e-07
7.17417e-07
1.86797e-07
3.7982e-07
7.7919e-07
0.000626332
0.00192255
0.00337261
0.00496775
0.0025119
0.000547389
0.000557682
0.000446282
0.000303906
0.000174775
7.33684e-05
1.79104e-06
5.83434e-05
0.00010586
3.59057e-05
1.13571e-05
1.50256e-06
8.39695e-07
2.57734e-06
2.37611e-06
3.20407e-07
4.46512e-06
1.05422e-05
1.82309e-05
0.000180094
0.0002337
0.000305673
0.000346934
0.000371581
0.000395842
0.000425219
0.000425953
0.000502192
0.000313291
1.58081e-05
1.67087e-06
9.49722e-08
2.52883e-07
2.25153e-07
6.51153e-07
3.23906e-07
2.38489e-07
5.87458e-08
9.75461e-07
3.86372e-05
4.06698e-06
1.85381e-06
7.94604e-07
5.79284e-07
8.06835e-07
6.29319e-07
9.08846e-06
0.000129171
0.000257755
0.000393879
0.000251705
0.000203035
0.00023015
0.000329935
0.000491988
0.000717116
0.000943955
0.00125023
0.00142418
3.35286e-06
2.54198e-06
5.97806e-07
5.12164e-08
5.289e-07
7.94258e-07
7.00532e-07
3.49533e-07
3.08197e-07
1.21033e-06
0.00234909
0.00188779
0.00169912
0.0017697
0.00197046
0.00229272
0.00277589
0.00321185
0.00391231
0.00417797
1.67699e-05
3.84277e-06
5.61824e-08
4.72106e-07
5.5407e-07
8.24214e-07
9.65675e-07
6.77009e-07
3.01084e-07
5.5859e-07
1.22412e-06
1.52419e-06
3.12482e-07
9.25938e-08
3.46495e-07
6.73041e-07
0.000577175
0.00121173
0.00195119
0.00268897
0.0119271
0.00103795
0.000645068
0.0001848
9.03308e-05
0.000222263
0.000270087
0.00027489
0.000262287
0.000246818
0.000114086
4.0089e-06
1.71285e-05
2.31872e-05
1.68367e-05
6.62035e-06
3.78666e-06
1.40614e-05
2.55515e-05
3.66402e-05
0.000102419
0.00022611
0.000348107
0.000411434
0.000441321
0.000458985
0.000472514
0.000465822
0.000512629
0.000344122
2.70774e-06
1.85363e-06
1.24708e-06
7.50295e-07
4.65117e-07
2.36227e-07
2.07368e-07
2.91069e-07
1.01794e-06
1.82531e-06
3.72926e-05
2.11562e-07
6.44019e-07
7.68336e-07
2.78606e-06
3.54913e-05
7.77224e-05
0.000116202
0.00016295
0.00018744
0.000411083
0.000351401
0.000329725
0.000344099
0.000389495
0.000461166
0.000559166
0.000653688
0.000797257
0.00084106
5.33884e-06
3.47691e-06
2.31468e-07
1.74807e-07
1.49399e-07
2.67374e-08
1.07273e-07
8.68069e-08
2.2351e-07
1.00714e-06
0.00276792
0.00222774
0.00203286
0.00205576
0.00215512
0.00231375
0.00255236
0.00273609
0.00312158
0.00307533
1.65394e-05
2.59692e-06
2.84904e-07
5.96048e-08
3.09945e-08
3.71153e-08
1.47234e-07
2.59919e-07
1.24647e-08
6.5585e-07
6.06111e-06
2.38558e-06
5.58008e-08
2.8965e-07
1.99584e-07
2.75771e-07
0.000269133
0.000519645
0.000863938
0.0011533
0.0208433
0.00245958
0.00234568
0.00184445
0.00139356
0.0010358
0.000757861
0.000539423
0.000361413
0.000204532
0.000564258
0.000139416
6.17021e-05
7.75437e-06
1.97798e-05
3.05906e-05
3.19799e-05
2.86145e-05
2.18327e-05
1.06151e-05
0.000278265
0.000157658
3.92339e-05
0.000122015
0.000160361
0.000176638
0.000182435
0.000180972
0.000193105
0.000146657
3.02133e-06
1.1999e-06
3.96828e-07
4.95219e-08
1.71354e-07
5.1158e-07
4.95456e-07
2.1471e-07
1.68051e-07
3.63603e-07
2.86074e-05
3.69181e-05
4.64367e-05
5.30076e-05
6.04036e-05
6.98336e-05
8.06704e-05
8.89381e-05
0.000102043
9.94155e-05
0.000217459
0.00019817
0.000194325
0.000201564
0.000217036
0.000239431
0.000268693
0.000296092
0.000343942
0.000351301
9.08375e-06
3.89178e-06
3.87446e-07
3.53925e-07
2.91729e-07
3.94844e-07
3.83327e-07
9.98042e-08
1.08406e-07
1.42033e-07
0.00264798
0.00191492
0.00168514
0.00166693
0.00170536
0.0017704
0.00186625
0.00193277
0.00211711
0.00200802
1.5138e-05
1.78716e-06
4.61238e-07
3.26282e-07
2.99153e-07
3.96404e-07
5.47847e-07
4.72359e-07
2.45907e-07
1.79166e-07
1.05319e-05
1.82804e-06
2.0025e-07
1.95901e-07
1.90341e-07
2.91488e-07
3.09072e-07
3.05134e-05
0.00017344
0.000239206
0.0740149
0.00203429
0.00204454
0.00165094
0.00124697
0.000901602
0.000618932
0.000385694
0.000183071
8.16694e-06
0.000411325
0.000422152
0.000315724
0.000227519
0.00015852
0.000102518
5.37479e-05
6.4537e-06
4.64189e-05
0.000107964
0.00116181
0.00114402
0.000855929
0.000755912
0.00071087
0.000696387
0.00069744
0.000699615
0.000742735
0.000564038
1.39094e-05
3.76825e-07
8.60073e-07
5.75632e-07
3.53774e-07
3.1876e-07
4.25116e-07
4.29954e-07
5.24061e-07
1.10963e-06
8.53678e-05
6.95729e-05
5.39293e-05
4.77853e-05
4.54276e-05
4.5523e-05
4.73191e-05
4.92444e-05
5.49037e-05
4.83573e-05
4.17925e-05
4.84721e-05
4.264e-05
3.84221e-05
3.64564e-05
3.64434e-05
3.83622e-05
4.13336e-05
4.88383e-05
4.61509e-05
1.23983e-05
2.32001e-06
6.48425e-07
1.15638e-07
2.90509e-07
3.2313e-07
2.97033e-07
2.19082e-07
1.48377e-07
3.26713e-07
0.00138474
0.000529077
0.000288524
0.000250232
0.000257533
0.000271558
0.000284372
0.000289353
0.000301752
0.000299493
1.47203e-05
1.42322e-06
4.40073e-07
2.58125e-07
2.22061e-07
2.42148e-07
2.45365e-07
1.81864e-07
1.86298e-07
4.11412e-07
9.12627e-06
3.58976e-09
4.94061e-08
5.86512e-08
1.77213e-07
6.89598e-07
1.42031e-05
1.79642e-05
5.10342e-05
4.64713e-05
0.0715559
0.0043606
0.00385744
0.00312245
0.00257527
0.00217495
0.00187025
0.00167402
0.00129664
0.000812341
0.000969512
0.000337953
0.000260598
0.000186396
0.000120401
6.21608e-05
8.26218e-06
4.6236e-05
0.000106814
0.000167862
0.00206254
0.00226224
0.00196977
0.00186955
0.0018264
0.0018151
0.00182457
0.00184787
0.00195382
0.00165246
7.55824e-06
2.59525e-06
1.02163e-06
5.78336e-07
5.8194e-07
7.23139e-07
8.28809e-07
8.34518e-07
1.00793e-06
1.50693e-06
0.000130281
0.000135665
0.000121159
0.000115272
0.000113561
0.000115381
0.000120319
0.000126154
0.0001435
0.000132978
0.0001355
0.000134214
0.000127963
0.000125745
0.000127024
0.000131231
0.000138859
0.000148268
0.000174442
0.000178932
6.1339e-06
4.90629e-07
4.19723e-07
2.39017e-07
1.63497e-07
1.47027e-07
1.83596e-07
1.29763e-07
8.6253e-10
8.12918e-08
0.00107006
0.00158712
0.00172328
0.00174227
0.00174144
0.0017467
0.00176987
0.00180587
0.00193978
0.00185606
1.21555e-05
3.95699e-07
4.19727e-08
1.68518e-07
1.81422e-07
1.54527e-07
2.10984e-07
2.3146e-07
1.3004e-07
1.44323e-07
0.00108066
0.00112178
0.00105774
0.00102463
0.00100439
0.000997029
0.00100484
0.00100059
0.00108711
0.001018
0.038797
0.00949705
0.00949184
0.00948625
0.00949993
0.00952559
0.00956569
0.00963651
0.00964129
0.0101851
7.8956e-05
0.000230501
0.00015473
9.38605e-05
4.86302e-05
1.36653e-05
1.62129e-05
4.51908e-05
7.63253e-05
0.000102187
0.00163922
0.00176285
0.00166608
0.00161763
0.0015999
0.00159911
0.0016148
0.00165214
0.00174995
0.00179915
1.4615e-05
7.40679e-07
3.04765e-07
8.52812e-08
6.53784e-08
1.9813e-07
2.7566e-07
3.96767e-07
5.40849e-07
6.32058e-07
6.61378e-05
6.16116e-05
5.40182e-05
4.99911e-05
4.82396e-05
4.85006e-05
5.12067e-05
5.63328e-05
7.15409e-05
9.72673e-05
4.61991e-05
3.51512e-05
3.22511e-05
3.12477e-05
3.11071e-05
3.17144e-05
3.37796e-05
3.76518e-05
5.34075e-05
7.85736e-05
1.11587e-06
2.87873e-07
2.64683e-07
2.19182e-07
1.97354e-07
1.74966e-07
1.66655e-07
1.83099e-07
1.15503e-07
1.39927e-07
0.00177909
0.00177811
0.00177688
0.00177022
0.00176607
0.00176704
0.0017785
0.0018025
0.0019137
0.00196382
4.25636e-06
7.86322e-08
1.53255e-07
1.69511e-07
1.61753e-07
1.6017e-07
1.49985e-07
1.64044e-07
1.15006e-07
1.18401e-07
0.00900376
0.00889632
0.00879304
0.00873929
0.00870229
0.00867889
0.00867213
0.00866753
0.00879241
0.00843377
10.139
6.75392
7.53532
11.8746
8.07497
6.45509
6.98142
9.89361
4.19941
3.41445
3.68908
5.44245
0.640591
0.462814
0.493344
0.937318
2.20698
2.09436
2.2991
3.30809
4.02502
3.7079
4.444
7.07321
4.98599
4.42559
5.84567
9.98662
5.19793
4.4767
6.45393
11.5803
4.54752
3.91408
6.11481
11.3879
3.66293
3.21365
5.49208
10.4981
0.981514
0.0396097
3.67939e-05
0.335559
1.14051
0.0805114
0.000117463
0.411979
0.822547
0.0782396
1.79149e-05
0.291496
0.231132
0.02588
8.79734e-05
0.0748042
0.515018
0.0731379
4.87978e-05
0.174857
1.21785
0.185371
4.57212e-05
0.417536
1.77428
0.278679
8.63368e-07
0.666415
2.11361
0.350277
5.64374e-06
0.864765
2.15644
0.403633
0.0578676
0.956605
2.02943
0.52956
0.23972
0.94704
0.584426
0.386267
0.347729
0.426174
0.623418
0.364583
0.30742
0.42152
0.441306
0.242005
0.208446
0.29245
0.0879042
0.0415704
0.0338155
0.0456117
0.382436
0.195845
0.189206
0.304426
0.853714
0.41106
0.405123
0.678104
1.25304
0.572624
0.581687
1.02613
1.52454
0.668073
0.699685
1.2918
1.6036
0.653253
0.717832
1.39723
1.55215
0.612623
0.719095
1.38495
0.0781643
0.0461938
0.037452
0.0477412
0.106725
0.0591202
0.0445315
0.0620131
0.0839139
0.0459351
0.0351884
0.0462191
0.00354369
0.00333436
0.0042958
0.0079281
0.164822
0.091233
0.0829069
0.113361
0.368567
0.196857
0.184958
0.252488
0.57715
0.296848
0.288902
0.403621
0.758556
0.380498
0.38355
0.548473
0.845717
0.395974
0.425359
0.631127
0.854921
0.399844
0.472357
0.683317
0.0279988
0.0207652
0.0181011
0.021268
0.0399466
0.0287261
0.025266
0.0299797
0.0222014
0.0156496
0.0128394
0.0136636
0.0185608
0.0146354
0.0142176
0.0179837
0.09204
0.0662307
0.0605082
0.0721057
0.191358
0.131152
0.120526
0.142715
0.3
0.195648
0.183061
0.218537
0.409222
0.257035
0.247338
0.298558
0.480902
0.28297
0.290565
0.354864
0.52091
0.311346
0.351852
0.41336
0.00587739
0.00390498
0.00311535
0.00411928
0.011751
0.00825658
0.00736654
0.00869676
0.00251189
0.00134523
0.000618842
6.20685e-05
0.017915
0.0151821
0.0148991
0.0173718
0.0532266
0.0435143
0.041132
0.0465065
0.102825
0.0816764
0.0766137
0.0857724
0.157761
0.121099
0.113848
0.126987
0.220526
0.163723
0.156206
0.174515
0.270701
0.189789
0.191541
0.212149
0.300569
0.21224
0.233629
0.248272
0.00123296
0.000495841
0.00024665
0.00060292
0.00281591
0.00186951
0.0016498
0.0019904
0.00276751
0.00243595
0.0026382
0.00337099
0.0150185
0.0128292
0.0126476
0.0143648
0.0345237
0.0297512
0.0287899
0.0318008
0.0622606
0.0534074
0.0512573
0.0559617
0.091189
0.0774064
0.0741111
0.0801199
0.128013
0.106352
0.102466
0.110808
0.159331
0.127317
0.128019
0.135442
0.176514
0.142541
0.153297
0.156341
8.8139e-05
3.51617e-05
3.3689e-05
3.50137e-05
4.66098e-05
1.37068e-05
2.66844e-06
1.74193e-05
0.00325435
0.00252393
0.00254954
0.00314917
0.010973
0.00916417
0.00899604
0.0101661
0.0225053
0.0194967
0.0190007
0.0208688
0.0397724
0.034893
0.0338548
0.0366925
0.0561463
0.0497827
0.0482375
0.0514093
0.0792514
0.0697977
0.0678891
0.0723871
0.0945784
0.0823
0.0824522
0.0854291
0.10557
0.0941459
0.0994351
0.09994
0.000111538
3.4517e-05
3.11325e-05
3.09769e-05
0.000313324
0.000108401
7.61725e-05
0.000169349
0.0022885
0.00162711
0.0016171
0.00205393
0.00719089
0.00588218
0.00576524
0.00652945
0.0140633
0.01214
0.0118652
0.0130366
0.0253802
0.0223923
0.0218189
0.0236527
0.0348642
0.0315521
0.0307341
0.0325241
0.0503226
0.0456364
0.0446035
0.0473236
0.0558768
0.051314
0.0511242
0.0525503
0.0644112
0.0614092
0.0639126
0.0639586
7.91949e-05
3.05291e-05
2.87275e-05
2.83939e-05
9.45792e-05
9.8342e-06
8.93344e-06
1.16676e-05
0.00121888
0.000716276
0.000702585
0.00102918
0.0043235
0.0034504
0.00337297
0.0038537
0.00830857
0.00711378
0.00696089
0.0076808
0.0157813
0.0138919
0.0135514
0.0147518
0.0208775
0.0191471
0.0186851
0.0196589
0.0316436
0.0291094
0.0285062
0.0302651
0.0328921
0.0311664
0.0308917
0.0316728
0.0395982
0.0392877
0.0404397
0.0404232
2.12784e-05
4.73085e-06
4.97323e-06
6.96882e-06
1.96968e-05
5.06225e-07
1.84116e-06
4.99543e-06
0.000482649
9.48421e-05
7.50827e-05
0.000324168
0.00243611
0.0018561
0.00179434
0.00207668
0.00467863
0.00393157
0.00383948
0.00427387
0.00967979
0.00842824
0.00820781
0.00900308
0.0119848
0.0111048
0.0108323
0.0112962
0.0197576
0.018219
0.0178479
0.0190408
0.0189944
0.0182835
0.0180318
0.0184458
0.0241816
0.0245099
0.0250633
0.0250135
1.78364e-05
1.32313e-05
1.41552e-05
1.68057e-05
1.21514e-05
5.79524e-06
6.82678e-06
7.92152e-06
5.1738e-05
1.11924e-05
8.37091e-06
7.56481e-06
0.00123807
0.000868534
0.000820868
0.000952597
0.00245237
0.00198551
0.00193425
0.00218543
0.00584711
0.00498154
0.00483593
0.00536806
0.00644556
0.00603552
0.00587873
0.00602995
0.0123046
0.0112355
0.0110013
0.011853
0.0103867
0.0100569
0.0098628
0.0100369
0.014471
0.0148024
0.0151073
0.0150175
4.4355e-05
3.57044e-05
3.83487e-05
4.43933e-05
3.5215e-05
1.52097e-05
1.44139e-05
1.46934e-05
8.38923e-06
8.18007e-07
7.88466e-07
4.00695e-06
0.000500014
0.000302945
0.000274254
0.00030724
0.00114465
0.000869457
0.000849146
0.000991777
0.00346015
0.00285808
0.00276455
0.00312587
0.00303564
0.00291192
0.00283183
0.00279832
0.00763336
0.00681887
0.00667208
0.00731448
0.00503599
0.00489347
0.00475951
0.00477705
0.00837699
0.00857797
0.00878168
0.00865737
0.000203331
8.95912e-05
8.82632e-05
9.5681e-05
3.30586e-05
1.7529e-05
1.77201e-05
1.98993e-05
3.85169e-07
1.34074e-06
9.07409e-07
2.82796e-07
7.90762e-05
1.58641e-05
2.77633e-06
1.09724e-06
0.000453193
0.000307436
0.000305146
0.000389156
0.00201334
0.00160707
0.00154715
0.00179478
0.00102716
0.00109407
0.0010641
0.000930606
0.00474373
0.0040978
0.0040069
0.00451629
0.00179848
0.00179298
0.00170527
0.00161834
0.00458008
0.00466961
0.00483702
0.00470044
0.000659361
0.0001928
0.000181909
0.000191857
3.69123e-05
1.94279e-05
2.15057e-05
2.69114e-05
1.20572e-05
5.25984e-06
4.91414e-06
4.68171e-06
5.66626e-06
2.02782e-06