/*--------------------------------*- C++ -*----------------------------------*\
| =========                 |                                                 |
| \\      /  F ield         | foam-extend: Open Source CFD                    |
|  \\    /   O peration     | Version:     4.0                                |
|   \\  /    A nd           | Web:         http://www.foam-extend.org         |
|    \\/     M anipulation  |                                                 |
\*---------------------------------------------------------------------------*/
FoamFile
{
    version     2.0;
    format      ascii;
    class       volScalarField;
    location    "1050";
    object      epsilon;
}
// * * * * * * * * * * * * * * * * * * * * * * * * * * * * * * * * * * * * * //

dimensions      [0 2 -3 0 0 0 0];

internalField   nonuniform List<scalar> 
34480
(
4927.63
4925.52
4925.36
4926.87
4930.19
4935.61
4948.31
5001.03
5189.23
5717.3
651.449
599.26
598.645
650.602
835.853
1573.37
5100.39
22863.6
103725
382168
608.473
514.853
501.992
561.915
802.601
1822.37
7041.71
35149.7
172630
699121
516.045
432.339
420.942
478.801
727.1
1876.1
8213.51
44412.2
232163
1.0101e+06
449.867
379.255
372.227
427.988
679.002
1920
9165.12
52544.5
288871
1.33145e+06
387.561
328.749
322.785
374.575
623.757
1949.33
10103.2
60949.1
349991
1.69467e+06
349.517
299.605
295.368
343.278
587.639
1956.19
10702.5
67051.9
399336
2.0165e+06
318.777
279.871
275.591
315.314
531.513
1815.38
10326.7
66806.1
411349
2.15941e+06
458.449
434.503
431.938
457.243
594.94
1405.6
6821.1
43543.9
274837
1.49115e+06
5705.77
5706.04
5711.48
5723.35
5740.1
5760.2
5783.96
5819.31
5884.83
5951.47
4853.39
4850.75
4850.18
4851.67
4855.77
4863.06
4874.45
4900.18
4962.3
5181.12
510.164
477.882
472.405
486.522
530.599
646.355
999.54
2350.78
11804.7
103637
440.729
378.707
365.365
384.891
453.434
640.036
1222.54
3559.06
21372.2
197725
393.93
333.912
320.756
340.522
411.593
614.19
1285.53
4275.32
30236.5
294795
361.249
307.224
296.875
316.06
386.493
593.175
1311.98
4792.19
38692.9
396373
322.927
276.027
266.345
283.555
348.811
549.207
1284.58
5156.73
47289.5
508081
299.901
258.521
250.407
265.573
326.057
517.13
1247.13
5334.64
54111.1
606819
281.305
248.341
240.721
252.265
299.55
453.547
1067.84
4803.94
54849
650466
431.628
409.817
404.744
412.145
441.863
528.847
843.625
2965.89
36270.9
465920
5588.02
5583.76
5584.28
5590.85
5602.43
5617.14
5636.13
5668.62
5735.57
5907.04
4768.53
4765.98
4765.14
4765.96
4768.71
4773.17
4778.33
4788.96
4812.85
4867.5
399.355
386.153
383.557
388.32
403.265
438.226
525.694
757.512
1518.01
5769.68
304.79
273.901
267.15
276.371
306.665
376.052
546.888
1026.95
2861.36
15016.9
286.981
253.48
245.883
256.467
291.402
374.808
592.613
1274.23
4409.71
28968.9
278.045
245.342
238.931
249.852
286.653
376.72
623.852
1473.68
6138.52
47883.1
259.194
229.111
222.644
232.976
268.34
358.503
620.151
1616.77
8146.39
73243.8
248.841
220.924
215.333
224.741
258.492
346.338
612.283
1714.76
10154.6
101654
241.922
219.008
213.606
221.163
248.237
320.112
546.148
1585.73
11025.2
122846
401.83
385.522
381.788
387.378
407.546
459.303
603.927
1229.49
7661.67
91941.7
5478.21
5471.17
5468.89
5472.42
5481.12
5493.3
5509.49
5539.81
5611.7
5796.28
4672.72
4671.05
4670.53
4671.18
4673.12
4675.76
4677.1
4679.85
4687.2
4703.15
328.597
324.589
323.806
324.898
328.839
338.882
364.576
421.522
542.108
943.398
217.674
204.44
201.56
205.624
218.99
247.248
307.46
444.196
772.895
2091
212.673
195.97
192.012
197.536
215.397
254.692
343.22
563.336
1169.63
4150.61
215.952
197.926
194.309
200.49
220.938
267.151
376.791
672.698
1610.28
7171.29
209.441
191.494
187.437
193.789
214.827
264.486
389.304
757.668
2115.79
11626.4
207.454
189.662
185.994
192.093
213.281
264.347
398.252
822.752
2629.79
17154.3
209.287
193.999
190.273
195.519
213.414
257.558
377.524
790.93
2855.52
21869.8
375.025
363.058
360.242
364.39
379.132
415.127
506.339
779.034
2175.22
16538.4
5356.16
5349.13
5346.58
5349.6
5357.78
5370.36
5387.21
5417.7
5484.04
5626.79
4567.5
4566.64
4566.39
4566.82
4567.94
4569.03
4567.97
4566.83
4566.76
4568.44
285.905
285.252
285.19
284.945
284.803
286.233
293.3
307.596
330.501
377.319
167.138
162.037
160.937
162.37
167.418
177.677
197.606
237.213
308.815
485.944
165.561
157.741
155.723
158.227
166.462
183.658
218.46
293.447
443.621
892.346
173.026
163.628
161.644
164.733
175.121
197.339
244.653
355.156
601.484
1502.21
172.903
162.635
160.11
163.64
175.284
201.319
260.001
409.173
783.408
2441.84
175.469
164.506
162.107
165.706
178.224
206.786
273.796
455.356
965.077
3649.2
182.966
173.047
170.47
173.823
185.041
211.366
275.372
461.432
1056.45
4753.49
350.852
342.263
340.103
342.961
353.316
377.739
436.321
579.031
1006.28
3814.3
5226.49
5219.59
5216.88
5219.42
5226.98
5239.25
5255.68
5283.76
5339.09
5441.18
4453.84
4453.6
4453.57
4453.82
4454.36
4454.41
4452.51
4450.42
4448.65
4447.51
260.241
260.419
260.551
260.006
258.862
258.127
259.98
263.558
268.641
276.136
139.094
137.352
137.026
137.418
139.054
142.339
148.364
159.186
175.672
203.816
137.083
133.584
132.601
133.653
137.211
144.293
157.299
182.116
222.955
304.056
144.577
139.928
138.925
140.356
145.311
155.334
174.627
214.666
286.648
459.565
146.988
141.371
139.883
141.742
147.861
160.81
187.121
246.556
364.135
704.059
151.432
144.953
143.48
145.493
152.559
167.8
199.955
277.269
443.731
1016.7
162.085
155.936
154.253
156.316
163.075
178.189
211.399
296.386
499.556
1322.73
329.077
323.193
321.613
323.544
330.719
347.299
385.578
465.767
637.898
1290.11
5088.58
5082.07
5079.37
5081.54
5088.41
5099.87
5115.17
5139.86
5182.68
5249.79
4332.45
4332.63
4332.74
4332.88
4333.03
4332.43
4330.57
4328.57
4326.75
4325.37
244.181
244.247
244.337
243.829
242.735
241.966
242.372
243.25
244.578
246.495
123.83
123.335
123.297
123.337
123.737
124.611
126.241
129.011
132.803
137.589
120.446
118.903
118.429
118.847
120.331
123.175
127.988
136.171
147.852
164.246
126.427
124.216
123.747
124.363
126.616
130.955
138.591
152.722
174.635
211.228
129.33
126.359
125.517
126.45
129.54
135.764
147.273
170.389
209.467
286.728
134.086
130.383
129.523
130.589
134.428
142.299
157.358
189.531
247.751
382.535
146.107
142.461
141.412
142.629
146.545
154.958
171.938
210.384
286.629
490.696
309.802
305.969
304.842
306.12
311.049
322.456
347.935
394.894
478.487
666.913
4942.21
4936.29
4933.75
4935.59
4941.68
4951.88
4965.48
4986.31
5018.59
5062.35
4203.86
4204.3
4204.5
4204.56
4204.49
4203.62
4202.14
4200.55
4199.12
4198.03
233.183
232.881
232.859
232.468
231.698
231.316
231.366
231.61
232.146
233.214
115.536
115.451
115.497
115.445
115.458
115.588
115.914
116.53
117.378
118.206
110.95
110.26
110.027
110.187
110.802
111.95
113.782
116.611
120.255
124.064
115.174
114.157
113.957
114.204
115.192
117.022
120.034
125.07
132.092
140.707
117.684
116.159
115.699
116.15
117.665
120.599
125.641
134.701
148.391
168.012
121.991
119.933
119.456
119.993
122.022
126.012
133.068
146.492
167.933
202.874
134.236
132.181
131.561
132.254
134.444
139.017
147.711
165.204
195.75
252.561
292.844
290.505
289.711
290.556
293.966
302.064
319.343
347.829
392.941
462.003
4787.21
4782.04
4779.76
4781.3
4786.55
4795.19
4806.77
4823.63
4847.38
4876.26
4068.41
4068.99
4069.24
4069.26
4069.08
4068.26
4067.16
4066.01
4064.99
4064.19
224.647
223.974
223.837
223.558
223.117
223.005
223.008
223.133
223.521
224.477
110.98
110.998
111.051
110.991
110.916
110.854
110.835
110.903
111.063
111.193
105.659
105.332
105.211
105.272
105.532
106.011
106.745
107.803
109.082
110.135
108.389
107.932
107.857
107.946
108.367
109.124
110.317
112.166
114.577
116.902
110.247
109.484
109.242
109.453
110.177
111.54
113.769
117.427
122.565
128.359
113.832
112.713
112.462
112.72
113.772
115.775
119.125
124.885
133.3
143.634
125.643
124.556
124.21
124.594
125.778
128.215
132.69
140.805
153.772
172.079
277.869
276.576
276.008
276.583
279
284.994
296.892
314.718
340.541
370.719
4623.57
4619.25
4617.29
4618.56
4622.91
4629.9
4639.34
4652.47
4669.47
4688.43
3926.38
3927
3927.27
3927.28
3927.03
3926.42
3925.66
3924.87
3924.18
3923.6
217.055
216.164
215.932
215.74
215.569
215.537
215.552
215.669
216.041
216.993
108.387
108.411
108.449
108.404
108.332
108.245
108.164
108.12
108.137
108.161
102.794
102.622
102.553
102.577
102.694
102.906
103.223
103.661
104.177
104.532
104.421
104.215
104.191
104.22
104.396
104.707
105.185
105.889
106.777
107.508
105.658
105.286
105.162
105.258
105.596
106.219
107.208
108.727
110.78
112.805
108.511
107.908
107.783
107.904
108.444
109.449
111.067
113.631
117.149
120.722
119.547
119.023
118.845
119.053
119.673
120.951
123.251
127.078
132.806
139.681
264.441
263.852
263.426
263.842
265.631
270.234
278.509
289.934
305.292
319.728
4451.41
4447.96
4446.37
4447.38
4450.83
4456.25
4463.63
4473.46
4485.29
4497.53
3778.04
3778.56
3778.85
3778.84
3778.62
3778.22
3777.71
3777.18
3776.73
3776.31
209.598
208.694
208.382
208.253
208.201
208.187
208.215
208.337
208.708
209.656
106.795
106.811
106.831
106.801
106.748
106.679
106.609
106.562
106.565
106.59
101.291
101.189
101.148
101.158
101.215
101.317
101.467
101.67
101.913
102.064
102.18
102.082
102.075
102.082
102.157
102.29
102.491
102.777
103.135
103.411
102.934
102.756
102.694
102.738
102.892
103.171
103.607
104.249
105.106
105.93
105.159
104.832
104.772
104.829
105.11
105.623
106.422
107.611
109.164
110.591
115.27
115.055
114.974
115.087
115.402
116.069
117.228
119.038
121.594
124.508
252.086
251.951
251.605
251.935
253.337
256.923
262.701
270.13
279.525
286.542
4271.01
4268.39
4267.17
4267.94
4270.56
4274.57
4280.13
4287.21
4295.21
4302.95
3623.54
3623.96
3624.19
3624.18
3624.05
3623.79
3623.46
3623.12
3622.83
3622.5
201.926
201.054
200.757
200.663
200.62
200.609
200.642
200.762
201.126
202.058
105.701
105.705
105.715
105.696
105.66
105.614
105.568
105.538
105.551
105.589
100.529
100.465
100.44
100.444
100.474
100.526
100.602
100.706
100.837
100.919
100.964
100.91
100.905
100.907
100.944
101.008
101.104
101.237
101.403
101.538
101.386
101.302
101.271
101.291
101.36
101.482
101.672
101.946
102.317
102.702
103.12
102.937
102.909
102.938
103.091
103.364
103.774
104.355
105.081
105.736
112.253
112.197
112.169
112.231
112.389
112.732
113.295
114.134
115.242
116.593
240.341
240.489
240.179
240.464
241.637
244.377
248.389
253.236
259.103
262.297
4082.79
4080.91
4080.03
4080.59
4082.47
4085.35
4089.36
4094.27
4099.51
4104.31
3463.08
3463.43
3463.6
3463.6
3463.54
3463.38
3463.17
3462.95
3462.76
3462.49
193.859
193.026
192.767
192.686
192.643
192.628
192.658
192.771
193.122
194.028
104.848
104.844
104.847
104.835
104.813
104.785
104.759
104.745
104.768
104.815
100.158
100.117
100.103
100.105
100.12
100.146
100.184
100.239
100.317
100.371
100.335
100.298
100.292
100.293
100.315
100.355
100.411
100.486
100.579
100.667
100.549
100.509
100.494
100.503
100.533
100.586
100.667
100.783
100.95
101.156
101.918
101.808
101.795
101.814
101.904
102.06
102.284
102.589
102.955
103.307
110.063
110.079
110.079
110.115
110.195
110.362
110.617
110.984
111.419
112.098
228.798
229.105
228.802
229.069
230.113
232.057
234.803
237.942
241.645
242.78
3887.3
3886.04
3885.46
3885.84
3887.09
3889.12
3891.9
3895.17
3898.48
3901.39
3296.97
3297.26
3297.39
3297.4
3297.37
3297.28
3297.14
3297
3296.88
3296.64
185.288
184.499
184.279
184.209
184.162
184.141
184.165
184.266
184.599
185.473
104.11
104.103
104.101
104.094
104.081
104.066
104.054
104.052
104.08
104.133
99.9876
99.9632
99.9561
99.9568
99.9627
99.9732
99.99
100.017
100.065
100.106
100.028
100
99.9924
99.9934
100.01
100.039
100.079
100.129
100.191
100.259
100.123
100.103
100.096
100.099
100.113
100.135
100.169
100.219
100.296
100.422
101.225
101.153
101.146
101.161
101.219
101.316
101.45
101.625
101.826
102.048
108.372
108.422
108.435
108.458
108.5
108.571
108.668
108.808
108.929
109.304
216.969
217.492
217.174
217.435
218.237
219.565
221.397
223.393
225.728
225.746
3685.27
3684.43
3684.1
3684.34
3685.16
3686.53
3688.37
3690.45
3692.45
3694.19
3125.6
3125.85
3125.94
3125.95
3125.94
3125.9
3125.81
3125.72
3125.64
3125.42
176.133
175.388
175.209
175.152
175.099
175.07
175.087
175.174
175.485
176.323
103.431
103.421
103.417
103.412
103.406
103.4
103.398
103.402
103.434
103.489
99.918
99.9053
99.9033
99.9032
99.9038
99.9049
99.9087
99.9193
99.9476
99.982
99.8932
99.8708
99.862
99.863
99.8758
99.8989
99.93
99.9675
100.012
100.068
99.9242
99.9129
99.9084
99.91
99.9159
99.9261
99.9406
99.9624
99.9998
100.084
100.822
100.773
100.768
100.78
100.821
100.887
100.973
101.082
101.203
101.361
106.961
107.027
107.047
107.063
107.079
107.102
107.123
107.158
107.137
107.37
204.55
205.213
205.023
205.205
205.742
206.614
207.789
209.017
210.465
209.905
3477.48
3476.95
3476.74
3476.9
3477.44
3478.32
3479.47
3480.73
3481.87
3482.87
2949.5
2949.72
2949.78
2949.8
2949.79
2949.78
2949.72
2949.66
2949.6
2949.4
166.312
165.614
165.459
165.415
165.377
165.338
165.349
165.42
165.704
166.503
102.786
102.776
102.77
102.767
102.765
102.765
102.768
102.777
102.81
102.867
99.9001
99.895
99.8959
99.8954
99.893
99.8891
99.8857
99.8868
99.9023
99.9321
99.8465
99.8284
99.8199
99.8205
99.8304
99.8484
99.8723
99.9002
99.9326
99.9787
99.8461
99.8383
99.835
99.8354
99.8384
99.8435
99.8503
99.8605
99.8793
99.9391
100.575
100.539
100.535
100.545
100.575
100.621
100.679
100.75
100.827
100.946
105.694
105.758
105.781
105.791
105.796
105.797
105.787
105.778
105.701
105.865
191.37
192.083
191.994
192.117
192.456
192.994
193.699
194.416
195.273
194.462
3264.81
3264.49
3264.37
3264.48
3264.8
3265.33
3266.01
3266.73
3267.32
3267.89
2769.4
2769.59
2769.65
2769.66
2769.66
2769.64
2769.6
2769.56
2769.51
2769.32
155.73
155.082
154.928
154.894
154.874
154.854
154.86
154.914
155.165
155.919
102.172
102.161
102.152
102.15
102.15
102.154
102.161
102.173
102.204
102.264
99.9085
99.9074
99.9093
99.9086
99.9051
99.8995
99.8933
99.8899
99.8968
99.9226
99.8437
99.8296
99.8223
99.8224
99.8294
99.8423
99.8595
99.8794
99.9026
99.9394
99.831
99.8248
99.8221
99.8218
99.8234
99.8263
99.8297
99.8346
99.8443
99.8862
100.4
100.374
100.37
100.377
100.398
100.43
100.469
100.515
100.564
100.653
104.492
104.543
104.565
104.572
104.572
104.566
104.546
104.524
104.434
104.561
177.283
177.975
177.964
178.044
178.237
178.533
178.902
179.276
179.727
178.879
3048.33
3048.15
3048.08
3048.15
3048.33
3048.62
3048.99
3049.36
3049.63
3049.93
2586.29
2586.44
2586.49
2586.5
2586.5
2586.49
2586.46
2586.42
2586.38
2586.21
144.255
143.67
143.529
143.505
143.501
143.497
143.498
143.532
143.737
144.436
101.595
101.581
101.572
101.569
101.571
101.576
101.584
101.597
101.626
101.687
99.9276
99.9272
99.9288
99.9279
99.9247
99.9197
99.9139
99.9096
99.9115
99.932
99.8633
99.8529
99.8474
99.8471
99.8515
99.8598
99.8709
99.8838
99.8994
99.927
99.8496
99.845
99.8427
99.8421
99.8427
99.844
99.8455
99.8473
99.8519
99.879
100.248
100.229
100.225
100.23
100.243
100.262
100.286
100.314
100.343
100.406
103.321
103.356
103.373
103.378
103.376
103.367
103.347
103.323
103.245
103.347
162.132
162.746
162.797
162.845
162.931
163.048
163.172
163.308
163.466
162.726
2829.32
2829.23
2829.2
2829.23
2829.32
2829.46
2829.65
2829.81
2829.91
2830.05
2401.26
2401.39
2401.43
2401.44
2401.44
2401.43
2401.41
2401.38
2401.35
2401.21
131.658
131.163
131.073
131.064
131.064
131.059
131.052
131.064
131.2
131.813
101.073
101.056
101.047
101.044
101.046
101.051
101.058
101.071
101.094
101.155
99.9456
99.944
99.9445
99.9435
99.9413
99.9382
99.9347
99.9319
99.9317
99.9451
99.897
99.8901
99.8866
99.8862
99.8886
99.8932
99.8994
99.9069
99.9163
99.9343
99.8879
99.885
99.8834
99.8828
99.8827
99.8828
99.8828
99.8829
99.8843
99.8987
100.101
100.09
100.087
100.089
100.095
100.105
100.117
100.13
100.146
100.184
102.194
102.211
102.221
102.222
102.218
102.208
102.19
102.17
102.117
102.196
145.389
145.871
145.907
145.944
146.003
146.082
146.16
146.213
146.137
145.599
2609.22
2609.18
2609.17
2609.18
2609.21
2609.25
2609.3
2609.35
2609.38
2609.44
2214.81
2214.88
2214.89
2214.89
2214.89
2214.89
2214.88
2214.88
2214.87
2214.81
117.392
117.058
117.03
117.036
117.038
117.033
117.021
117.01
117.049
117.476
100.613
100.595
100.587
100.583
100.583
100.587
100.594
100.604
100.623
100.673
99.9642
99.9623
99.9617
99.961
99.96
99.9588
99.9576
99.9567
99.9567
99.9619
99.9442
99.9405
99.9387
99.9385
99.9396
99.9418
99.9448
99.9485
99.9532
99.9621
99.94
99.9386
99.9378
99.9373
99.937
99.9367
99.9362
99.9356
99.9355
99.9406
100.001
99.9959
99.9944
99.9951
99.9976
100.001
100.006
100.01
100.016
100.032
101.142
101.143
101.144
101.142
101.137
101.127
101.114
101.102
101.085
101.139
125.721
126.007
126.026
126.047
126.08
126.121
126.162
126.183
126.128
125.771
2388.75
2388.73
2388.73
2388.74
2388.74
2388.74
2388.74
2388.73
2388.71
2388.75
7169.93
7279.53
7235.85
7029.73
658356
683004
688486
696403
1.49646e+06
1.58241e+06
1.58969e+06
1.56963e+06
2.52135e+06
2.69817e+06
2.69531e+06
2.61339e+06
3.75175e+06
4.0444e+06
4.01773e+06
3.85548e+06
5.29059e+06
5.72986e+06
5.6785e+06
5.46675e+06
6.84057e+06
7.43368e+06
7.36991e+06
7.1737e+06
7.84467e+06
8.56486e+06
8.50971e+06
8.38103e+06
5.58546e+06
6.13824e+06
6.07415e+06
6.03919e+06
7887.35
8133.46
7972.36
7557.95
5742.49
5794.98
5797.48
5758.41
308030
323721
344209
376016
688224
778729
822366
858794
1.1754e+06
1.39834e+06
1.46084e+06
1.48596e+06
1.75874e+06
2.16952e+06
2.24249e+06
2.2548e+06
2.45034e+06
3.09836e+06
3.19792e+06
3.23388e+06
3.11924e+06
4.02027e+06
4.18139e+06
4.29941e+06
3.55703e+06
4.67841e+06
4.9198e+06
5.15274e+06
2.79154e+06
3.7942e+06
3.98333e+06
4.29387e+06
7114.07
7343.64
7273.3
7054.07
4934.86
4945.7
4944.85
4935.2
21630
25892.5
24521.1
19902.7
61499.1
73250.3
68494.5
55556.1
128564
152470
140471
113623
227968
269806
245477
198658
371597
440599
400181
325263
543866
646203
589492
483417
700385
835725
766231
633748
581889
693086
626040
521632
6336.41
6423.04
6400.83
6306.11
4713.9
4715.97
4716.51
4715.73
1596.44
1711.96
1679.57
1544.51
4700.29
5170.25
5007.24
4427.98
11227.3
12489.6
11903.5
10188.8
22539.4
25210.9
23642.4
19686.7
41654.3
46832.7
43420.4
35431.7
68193.7
76789.1
70579.7
56925.2
96931.5
109536
100053
80075.2
83081.8
93344
83791.8
66914.3
5897.81
5939.19
5936.29
5898.64
4566.26
4567.13
4567.33
4566.82
424.563
437.363
439.495
432.502
711.631
758.262
762.416
731.935
1596.19
1736.85
1728.37
1608.89
3203.6
3526.14
3453.18
3112.78
6138.16
6814.48
6570.27
5745.14
10488.1
11670
11079.2
9443.76
15663
17503.5
16404.2
13669.9
13822.6
15335.6
14049.6
11531.4
5573.48
5595.33
5596.8
5581.33
4443.33
4444.05
4444.13
4443.52
276.327
279.15
279.823
278.542
226.997
232.024
233.775
232.673
386.206
403.485
407.534
400.663
674.465
717.701
721.522
695.416
1215.13
1315.13
1310.43
1231.25
2021.87
2206.98
2169.77
1985.66
3041.2
3350.01
3249.43
2893.01
2921.42
3170.66
3009.58
2652.39
5313.55
5324.24
5326.37
5320.88
4321.04
4321.74
4321.79
4321.18
242.266
244.142
244.522
243.457
140.413
141.125
141.444
141.411
176.114
178.721
179.779
179.493
243.369
250.2
252.298
250.564
368.958
386.178
389.648
382.494
548.621
581.322
583.523
564.065
793.755
851.916
848.435
803.701
982.23
1025.84
1005.89
958.692
5091.6
5096.44
5098.29
5097.07
4193.94
4194.62
4194.68
4194.08
228.458
230.156
230.482
229.468
118.329
118.44
118.474
118.441
125.956
126.351
126.536
126.547
146.087
147.216
147.692
147.654
183.377
186.704
187.858
187.29
233.508
239.756
241.334
239.566
313.911
325.993
327.685
322.224
541.801
546.92
544.183
540.66
4889.84
4891.83
4893.11
4893.32
4060.39
4061.04
4061.09
4060.53
219.782
221.423
221.742
220.764
110.968
111.007
111.003
110.958
110.395
110.432
110.443
110.441
117.784
117.932
118.001
118.023
131.688
132.393
132.682
132.645
149.729
150.926
151.375
151.343
187.037
189.738
190.462
189.845
399.365
396.135
395.262
397.965
4694.94
4695.62
4696.39
4696.88
3920.09
3920.7
3920.75
3920.23
212.443
214.032
214.346
213.404
107.919
107.956
107.952
107.908
104.509
104.492
104.476
104.468
107.579
107.56
107.547
107.551
113.642
113.795
113.855
113.844
121.875
122.03
122.113
122.195
144.419
144.984
145.176
145.137
334.697
329.487
328.625
332.038
4500.59
4500.68
4501.1
4501.56
3773.08
3773.63
3773.67
3773.2
205.272
206.806
207.112
206.207
106.373
106.414
106.414
106.373
102.003
101.984
101.969
101.961
103.358
103.323
103.301
103.298
106.193
106.226
106.23
106.216
110.714
110.664
110.653
110.708
126.649
126.692
126.699
126.707
297.066
291.492
290.53
293.823
4304.18
4304.03
4304.25
4304.6
3619.55
3620.05
3620.08
3619.65
197.853
199.325
199.621
198.754
105.398
105.44
105.443
105.405
100.864
100.849
100.838
100.832
101.488
101.461
101.443
101.438
102.817
102.825
102.819
102.805
105.682
105.611
105.584
105.614
117.962
117.883
117.834
117.831
270.974
265.492
264.5
267.583
4104.49
4104.3
4104.4
4104.63
3459.82
3460.25
3460.27
3459.89
190.011
191.419
191.703
190.876
104.646
104.688
104.692
104.658
100.327
100.317
100.308
100.304
100.636
100.618
100.606
100.601
101.228
101.231
101.224
101.213
103.264
103.209
103.185
103.2
113.184
113.087
113.026
113.01
250.42
245.164
244.19
247.079
3900.93
3900.79
3900.83
3900.95
3294.25
3294.62
3294.63
3294.29
181.655
182.996
183.268
182.483
103.985
104.025
104.029
103.999
100.073
100.065
100.059
100.056
100.244
100.233
100.224
100.22
100.475
100.478
100.473
100.464
102.05
102.016
101.998
102.004
110.251
110.165
110.106
110.079
232.63
227.643
226.713
229.426
3693.32
3693.27
3693.29
3693.3
3123.32
3123.62
3123.62
3123.33
172.718
173.99
174.249
173.508
103.365
103.402
103.407
103.379
99.9593
99.9539
99.9495
99.9471
100.063
100.056
100.05
100.046
100.126
100.128
100.124
100.118
101.403
101.386
101.375
101.373
108.224
108.157
108.104
108.067
216.149
211.453
210.582
213.127
3481.74
3481.81
3481.82
3481.74
2947.61
2947.84
2947.82
2947.59
163.127
164.33
164.579
163.883
102.771
102.806
102.811
102.785
99.9199
99.9167
99.9135
99.9118
99.9805
99.9759
99.9714
99.9689
99.9717
99.9728
99.9697
99.9647
101.015
101.012
101.005
100.999
106.638
106.596
106.55
106.501
200.129
195.752
194.953
197.323
3266.59
3266.76
3266.77
3266.62
2767.89
2768.04
2768.01
2767.83
152.798
153.936
154.176
153.529
102.203
102.236
102.24
102.215
99.9207
99.9197
99.9179
99.9166
99.9449
99.9416
99.9384
99.9367
99.9104
99.9106
99.908
99.9045
100.733
100.739
100.736
100.727
105.249
105.234
105.197
105.137
184.017
180.011
179.302
181.474
3048.55
3048.81
3048.81
3048.61
2585.18
2585.24
2585.2
2585.07
141.624
142.707
142.944
142.342
101.661
101.691
101.693
101.668
99.9387
99.94
99.9398
99.9389
99.9342
99.9319
99.9296
99.9287
99.895
99.8943
99.8921
99.89
100.482
100.492
100.492
100.483
103.923
103.935
103.907
103.839
167.391
163.875
163.278
165.193
2828.65
2828.96
2828.97
2828.75
2400.64
2400.61
2400.55
2400.5
129.419
130.465
130.701
130.138
101.154
101.179
101.178
101.153
99.9555
99.9584
99.9595
99.9592
99.9409
99.9394
99.9379
99.9376
99.9065
99.9051
99.9035
99.9028
100.242
100.252
100.254
100.246
102.601
102.627
102.609
102.547
149.497
146.542
146.099
147.743
2608.21
2608.57
2608.58
2608.35
2214.75
2214.58
2214.52
2214.58
115.747
116.728
116.937
116.409
100.679
100.69
100.685
100.667
99.9673
99.9696
99.971
99.9715
99.9654
99.9643
99.9635
99.9637
99.9415
99.9398
99.9388
99.9391
100.06
100.066
100.067
100.064
101.323
101.331
101.321
101.295
128.241
126.211
125.974
127.139
2387.95
2388.33
2388.34
2388.08
6096.94
5436.75
5168.51
5072.98
5018.45
4980.25
4954.98
4940.93
4932.95
4928.09
796723
192016
33237.1
11656
5255.45
2807.84
1730.19
1199.25
918.947
758.65
1.42045e+06
244996
43993.5
15011.2
6704.84
3590.11
2167.57
1436.5
1030.23
789.096
1.98825e+06
236858
46441.9
14883.5
6407.31
3343.36
1969.02
1275.76
897.274
676.78
2.4447e+06
250826
48569.5
14418.8
6024.59
3058.46
1764.62
1126.37
783.08
587.589
2.91278e+06
274366
50741.4
13835.1
5572.07
2731.69
1539.58
967.341
668.239
501.715
3.28927e+06
292617
51576.5
13031.5
5101.32
2437.96
1358.68
851.042
588.863
445.567
3.36905e+06
284947
47302
10896.6
4121.02
1925.83
1081.49
693.351
498.476
391.576
2.31948e+06
180491
27139.4
5661.17
2256.37
1228.93
852.646
667.905
565.456
504.724
6012.83
5989.27
5843.93
5819.54
5776.24
5752
5732.76
5722.52
5715.56
5709.36
5437.7
5171.04
5041.82
4969.55
4924.22
4894.41
4875.16
4863.81
4857.58
4853.49
179513
44695.5
13554.1
5294.44
2618.15
1555.16
1056.34
795.986
651.529
568.999
374085
85993.9
23351.7
8238.2
3855.77
2164.06
1366.34
942.852
700.409
557.464
592113
125545
30528.1
9582.36
4187.46
2234.64
1354.07
902.654
651.907
507.997
825733
163991
36192.7
10336.7
4274.57
2193.46
1293.21
846.031
602.336
465.962
1.1039e+06
205986
41489.1
10779.9
4206.24
2068.08
1184.48
759.698
535.986
414.042
1.38067e+06
242885
45055.7
10766.8
4019.02
1919.72
1084.31
692.462
488.635
379.636
1.55396e+06
256885
43695.2
9480.23
3367.11
1571.29
892.887
582.992
426.889
343.625
1.17332e+06
177333
26655.8
5212.42
1953.8
1085
767.68
612.328
524.38
474.87
6246.16
5948.18
5788.75
5730.18
5679.48
5648.83
5626.6
5613.04
5603.5
5594.95
4901.15
4866.59
4839.28
4816.58
4798.85
4786.02
4777.51
4772.44
4769.52
4767.29
9176.38
4164.54
2292.13
1427.73
981.212
732.318
588.244
502.494
450.427
419.25
23924.9
9534.99
4633.1
2533.82
1531.34
1001.42
705.469
532.408
426.216
360.651
45273.1
15907.7
6909.54
3390.73
1882.87
1147.47
762.926
549.176
423.527
348.697
73287.2
22811.3
8969.16
4029.49
2101.53
1219.87
783.161
550.508
417.102
339.826
111599
30915.6
10986.9
4518.32
2216.73
1225.31
759.593
521.173
390.028
316.372
155313
38685.2
12510.6
4763.07
2234.15
1195.7
728.423
496.452
370.743
301.524
190430
42631
12448.5
4356.22
1960.59
1029.02
631.725
440.177
339.919
284.85
140727
27573.1
7259.8
2532.44
1300.95
838.975
639.984
534.453
471.294
435.253
6012.39
5830.93
5706.85
5633.34
5580.47
5547.47
5524.53
5508.92
5497.38
5487.19
4710.9
4702.66
4693.57
4685.37
4679.15
4674.93
4672.31
4670.99
4670.6
4670.01
1207.75
906.146
708.622
570.068
478.633
420.003
382.377
357.692
341.227
331.297
3023.27
1916.13
1267.79
858.097
609.587
458.187
364.598
305.265
266.09
240.461
6205.29
3473.82
2051.73
1246.61
807.798
560.366
416.694
330.244
275.989
241.99
10715
5337.99
2868.47
1602.11
971.987
639.026
456.326
351.629
287.678
248.635
17294.9
7647.11
3747.79
1928.56
1097.56
683.81
468.931
351.145
282.589
242.19
25131.1
9916.18
4478.34
2153.74
1171
704.619
473.068
350.595
280.405
239.792
31958.2
11197.2
4637.7
2083.27
1093.86
648.721
439.069
331.328
271.72
237.34
23418.7
7332.52
2947.98
1436.72
902.269
660.973
540.638
471.034
426.553
400.658
5783.64
5655.75
5557.42
5493.82
5449.92
5421.16
5400.52
5385.72
5374.57
5364.9
4565.86
4564.71
4563.5
4562.54
4561.97
4561.73
4561.76
4562.14
4563.05
4563.68
413.55
383.693
357.294
335.283
318.612
306.39
297.436
290.758
285.724
282.74
637.955
512.804
411.868
334.293
279.183
241.165
215.195
197.285
184.396
175.398
1286.07
925.666
665.573
485.046
368.306
293.417
245.226
213.708
192.423
178.341
2272.46
1480.25
971.441
650.411
460.408
346.718
277.914
235.329
207.282
189.078
3807.32
2238.16
1343.54
827.093
545.809
387.901
297.681
244.398
211.195
190.513
5689.38
3038.45
1690.96
973.724
611.339
418.378
313.243
253.563
216.857
194.321
7435.06
3589.93
1854.27
1007.47
613.547
414.972
311.995
254.974
221.185
200.621
5640.6
2628.46
1430.93
900.735
663.486
537.528
465.336
419.896
388.858
370.468
5530.79
5455.1
5390.11
5343.92
5310.15
5286
5267.81
5254.16
5243.64
5234.66
4443.19
4443.37
4443.68
4444.16
4444.75
4445.39
4446.05
4446.85
4448.06
4449.37
278.493
275.49
271.963
268.404
265.241
262.569
260.345
258.461
256.852
255.702
226.269
211.253
195.271
180.766
169.055
160.142
153.542
148.626
144.706
141.757
373.224
322.076
273.296
233.073
203.138
181.695
166.521
155.717
147.828
142.342
612.796
488.056
381.725
302.154
247.907
211.741
187.723
171.618
160.047
152.039
1012
737.455
528.44
385.366
295.42
239.18
203.858
181.224
165.99
155.973
1519.19
1021.48
679.638
464.144
338.392
264.016
219.478
192.126
173.858
161.931
2039.72
1264.49
787.813
512.248
363.407
279.836
231.875
202.996
184.563
172.782
1809.17
1179.44
822.406
626.698
518.144
451.28
407.899
378.428
357.001
344.118
5298.88
5257.43
5217.76
5186.02
5160.7
5141.04
5125.53
5113.44
5103.88
5095.87
4320.95
4321.26
4321.73
4322.33
4323.02
4323.7
4324.36
4325.12
4326.25
4327.7
244.609
244.46
244.08
243.533
242.935
242.337
241.748
241.144
240.504
239.783
140.844
138.815
136.229
133.56
131.195
129.269
127.765
126.571
125.462
124.533
176.618
168.414
158.777
149.628
141.97
135.899
131.179
127.516
124.633
122.556
241.483
220.188
197.512
177.966
162.93
151.828
143.74
137.861
133.218
129.794
355.287
303.648
254.317
215.315
187.463
168.082
154.649
145.269
138.444
133.754
502.924
403.999
317.506
254.58
212.726
185.167
166.933
154.767
145.897
139.762
679.335
512.618
381.614
293.923
239.386
205.065
183.163
168.797
158.957
152.421
824.656
673.703
557.587
479.766
427.449
390.8
364.414
345.258
330.516
321.531
5087.67
5065.89
5042.19
5020.7
5002.08
4986.62
4973.86
4963.56
4955.23
4948.37
4193.86
4194.09
4194.43
4194.89
4195.41
4195.91
4196.38
4196.93
4197.86
4199.12
230.77
231.006
231.087
231.052
230.945
230.785
230.571
230.277
229.876
229.253
118.423
118.183
117.808
117.359
116.939
116.602
116.357
116.162
115.891
115.604
126.16
124.663
122.579
120.333
118.249
116.439
114.911
113.635
112.571
111.795
146.527
142.564
137.486
132.522
128.269
124.819
122.091
119.969
118.123
116.674
183.385
172.765
160.633
149.687
140.885
134.083
128.903
124.992
121.949
119.804
231.155
210.348
188.047
169.498
155.513
145.252
137.771
132.385
128.114
125.006
302.141
263.671
226.839
198.407
178.129
163.83
153.749
146.613
141.428
137.904
514.292
471.532
429.052
395.002
368.264
347.469
331.17
318.645
308.507
302.256
4888.73
4877.02
4862.69
4848.3
4834.94
4823.19
4813.1
4804.69
4797.7
4792.06
4060.3
4060.44
4060.66
4060.97
4061.3
4061.62
4061.89
4062.24
4062.93
4063.99
222.055
222.321
222.451
222.49
222.468
222.391
222.251
222.02
221.657
221.024
110.994
111
110.981
110.941
110.911
110.914
110.952
110.994
110.954
110.86
110.368
110.053
109.532
108.901
108.268
107.681
107.155
106.693
106.295
106.006
117.869
117.063
115.823
114.464
113.192
112.084
111.157
110.404
109.676
109.061
131.912
129.407
126.123
122.78
119.8
117.283
115.215
113.554
112.199
111.24
150.195
145.436
139.272
133.462
128.552