/*--------------------------------*- C++ -*----------------------------------*\
| =========                 |                                                 |
| \\      /  F ield         | foam-extend: Open Source CFD                    |
|  \\    /   O peration     | Version:     4.0                                |
|   \\  /    A nd           | Web:         http://www.foam-extend.org         |
|    \\/     M anipulation  |                                                 |
\*---------------------------------------------------------------------------*/
FoamFile
{
    version     2.0;
    format      ascii;
    class       volScalarField;
    location    "1050";
    object      k;
}
// * * * * * * * * * * * * * * * * * * * * * * * * * * * * * * * * * * * * * //

dimensions      [0 2 -2 0 0 0 0];

internalField   nonuniform List<scalar> 
34480
(
8.7632
8.76067
8.76047
8.76228
8.76625
8.7727
8.78776
8.85015
9.07096
9.67662
9.21872
8.61346
8.5223
8.80202
9.40046
10.2901
11.8983
15.8264
28.7395
67.0202
14.8787
13.4277
12.9923
13.1498
13.7276
14.7714
17.1245
22.8577
41.6576
101.465
14.3377
12.8282
12.3884
12.5911
13.3067
14.7267
17.9086
25.3404
49.2646
127.852
13.2994
11.8987
11.5553
11.8276
12.6805
14.3908
18.1609
26.8772
55.2684
151.628
12.1188
10.8569
10.5499
10.8346
11.7255
13.6156
17.8509
27.8194
61.038
176.653
11.2464
10.1343
9.88314
10.1596
11.0532
13.0141
17.506
28.3336
65.4594
197.892
9.78392
8.95292
8.75069
8.96734
9.67904
11.3457
15.4306
26.0501
64.449
205.305
6.86412
6.59684
6.54875
6.65858
6.98725
7.71174
9.70685
16.2372
43.3187
149.287
9.23508
9.23534
9.24118
9.25397
9.27201
9.29366
9.3192
9.35714
9.42725
9.49832
8.67503
8.67186
8.67117
8.67295
8.67786
8.68657
8.70013
8.73076
8.80445
9.06164
7.88977
7.47217
7.3788
7.53623
7.98206
8.82509
10.2704
12.0793
15.4221
41.1996
12.1233
11.0697
10.7819
10.9899
11.6721
12.9384
15.144
18.0633
23.7805
66.492
12.0293
10.8703
10.5559
10.8032
11.6095
13.1602
15.9406
19.9348
28.3727
86.3016
11.5043
10.3783
10.1144
10.3925
11.2832
13.0195
16.2006
20.9826
31.8127
104.452
10.7311
9.68655
9.43315
9.70726
10.6014
12.4195
15.8763
21.3599
34.7987
123.866
10.1552
9.20689
8.99066
9.24348
10.1115
11.9295
15.5215
21.4558
37.0532
141.056
9.01317
8.29374
8.11056
8.30128
8.97458
10.4636
13.5984
19.2078
35.6382
147.334
6.6307
6.38394
6.32999
6.40372
6.66677
7.25025
8.59093
11.5313
22.4471
102.271
9.1076
9.10293
9.10348
9.1106
9.12318
9.13916
9.15973
9.19491
9.26718
9.45105
8.57365
8.57058
8.56957
8.57057
8.57388
8.57924
8.58539
8.59815
8.62675
8.69201
6.75879
6.54661
6.49172
6.5675
6.79852
7.24637
8.04411
9.34338
11.1318
16.4564
9.62108
9.00319
8.85038
9.01991
9.54103
10.4991
12.1212
14.5299
17.5371
29.2084
9.81709
9.08161
8.89689
9.11226
9.77114
11.026
13.2191
16.5832
21.0923
40.8087
9.69587
8.94285
8.78016
9.01724
9.75286
11.1915
13.7889
17.8682
23.7454
52.3329
9.28041
8.55443
8.38694
8.62413
9.37398
10.9116
13.8152
18.54
25.9831
65.0159
8.97461
8.29091
8.14431
8.36555
9.10161
10.6598
13.7307
18.874
27.6956
77.0401
8.1673
7.63937
7.51016
7.67932
8.24989
9.52399
12.2175
17.0951
26.5988
82.9453
6.36308
6.17093
6.13114
6.19161
6.40108
6.86249
7.90621
10.3424
16.6689
57.0963
8.98791
8.98017
8.97766
8.98152
8.99103
9.00435
9.02202
9.0551
9.13328
9.33254
8.45848
8.45646
8.45581
8.45661
8.45896
8.46215
8.46374
8.46707
8.47594
8.49519
5.99529
5.90269
5.87446
5.90532
6.00582
6.19967
6.53917
7.12596
7.99869
9.89612
7.76779
7.45362
7.37945
7.47571
7.77823
8.34356
9.30087
10.8009
12.6582
17.0927
8.08093
7.66204
7.55713
7.69514
8.12082
8.94265
10.3781
12.6921
15.5899
23.5772
8.20695
7.74702
7.649
7.80682
8.30302
9.2872
11.071
14.0382
17.866
30.1621
8.0513
7.58168
7.47124
7.63756
8.16386
9.25705
11.3355
14.9416
19.8362
37.6927
7.94841
7.48297
7.38268
7.54312
8.07602
9.21423
11.4703
15.5171
21.3278
45.0233
7.4272
7.0562
6.96391
7.09139
7.51192
8.45158
10.4405
14.3316
20.6115
48.8182
6.12378
5.97667
5.94677
5.99236
6.14863
6.48555
7.21044
8.96548
12.9582
33.0497
8.85392
8.84614
8.84332
8.84664
8.85566
8.86951
8.88805
8.92155
8.99424
9.14971
8.33107
8.33002
8.32971
8.33023
8.3316
8.33291
8.3316
8.33022
8.33014
8.33218
5.53037
5.49394
5.47976
5.48969
5.52637
5.59633
5.71384
5.90989
6.18401
6.6326
6.54355
6.4029
6.37025
6.41098
6.54845
6.80912
7.25343
7.97513
8.888
10.3747
6.84689
6.62702
6.5686
6.63964
6.86698
7.31005
8.08742
9.39168
11.0496
14.0395
7.07775
6.81503
6.75707
6.84445
7.12904
7.69567
8.72731
10.5345
12.8829
17.8012
7.07756
6.78847
6.71565
6.81583
7.13776
7.80677
9.08239
11.4328
14.603
22.2681
7.10347
6.79864
6.72965
6.83097
7.17331
7.90055
9.33851
12.0929
15.9605
26.6841
6.80259
6.54973
6.48334
6.5688
6.84865
7.46569
8.75244
11.4416
15.6667
29.0442
5.91254
5.80141
5.77867
5.81022
5.92038
6.15178
6.61944
7.72692
10.0898
19.249
8.71044
8.70275
8.69973
8.70255
8.71094
8.72457
8.74279
8.77391
8.83507
8.94737
8.19231
8.19202
8.19198
8.19229
8.19295
8.193
8.19065
8.18809
8.18592
8.18453
5.26636
5.25321
5.24594
5.24823
5.25995
5.28264
5.31977
5.37773
5.45213
5.54508
5.79751
5.74295
5.73142
5.74508
5.79709
5.89592
6.06249
6.33333
6.68422
7.15347
6.02928
5.92198
5.89134
5.92399
6.03263
6.24199
6.60136
7.20488
7.99668
9.12349
6.26847
6.12833
6.09684
6.14059
6.28862
6.57804
7.09322
8.00853
9.24291
11.2225
6.33997
6.17149
6.12617
6.18225
6.36433
6.73508
7.42462
8.72364
10.5399
13.8274
6.43176
6.24146
6.19683
6.25664
6.46243
6.88892
7.70707
9.31783
11.6445
16.417
6.28752
6.12319
6.07808
6.13268
6.30898
6.6872
7.44402
9.05728
11.6452
17.7881
5.72841
5.64698
5.63077
5.65192
5.72752
5.88195
6.17557
6.82549
8.08982
11.8494
8.55654
8.54922
8.54619
8.54862
8.55632
8.56916
8.58629
8.61389
8.66167
8.7363
8.04282
8.04305
8.04318
8.04335
8.04354
8.04276
8.04046
8.03799
8.03574
8.03403
5.12429
5.11948
5.11529
5.1152
5.11836
5.12524
5.13655
5.15323
5.17274
5.19059
5.36974
5.35209
5.34968
5.35264
5.36841
5.39902
5.45074
5.53385
5.64021
5.75998
5.51938
5.46917
5.45361
5.46745
5.51597
5.60757
5.75837
6.00091
6.31655
6.69234
5.71967
5.64896
5.63321
5.65328
5.72502
5.86125
6.09335
6.49271
7.03755
7.76418
5.80937
5.71552
5.68864
5.71819
5.81545
6.00772
6.34909
6.97519
7.87123
9.20349
5.9231
5.80906
5.78174
5.81489
5.93245
6.16835
6.59844
7.42635
8.65201
10.677
5.8813
5.77945
5.75036
5.78354
5.88919
6.10926
6.52685
7.3905
8.79851
11.4832
5.57447
5.51623
5.5053
5.51892
5.56943
5.66986
5.85186
6.2224
6.88232
8.32623
8.39166
8.38495
8.38206
8.38414
8.39104
8.40257
8.41796
8.44147
8.47788
8.5271
7.88291
7.88347
7.88371
7.88379
7.88371
7.8826
7.88074
7.87876
7.87697
7.8756
5.05047
5.04817
5.04536
5.04479
5.04553
5.04787
5.05163
5.05698
5.06286
5.06653
5.13467
5.13087
5.1317
5.1313
5.13403
5.14038
5.15253
5.17346
5.20059
5.22559
5.21603
5.19269
5.18477
5.19036
5.21143
5.25042
5.31187
5.40456
5.52002
5.63435
5.36416
5.33006
5.32288
5.33137
5.36439
5.42524
5.52414
5.68437
5.89729
6.13606
5.44457
5.39432
5.37906
5.39391
5.44373
5.53932
5.70074
5.97902
6.37182
6.86719
5.55455
5.48862
5.4728
5.49016
5.55478
5.68036
5.89712
6.28965
6.86453
7.65814
5.57411
5.51419
5.4965
5.51576
5.57612
5.69864
5.92019
6.35086
7.04435
8.14408
5.45061
5.4098
5.40287
5.41138
5.44452
5.50875
5.62097
5.83068
6.17875
6.7578
8.21528
8.20936
8.20674
8.2085
8.2145
8.22439
8.23761
8.25687
8.28395
8.31683
7.71267
7.71344
7.71375
7.71378
7.71354
7.71249
7.71111
7.70966
7.70837
7.70735
5.01246
5.01074
5.00866
5.00814
5.00844
5.00965
5.0114
5.01382
5.01643
5.01764
5.00976
5.0103
5.01188
5.01082
5.00976
5.00894
5.00947
5.01262
5.01803
5.02171
5.04304
5.03174
5.02753
5.02976
5.03901
5.05586
5.08147
5.11785
5.16105
5.19634
5.14337
5.12742
5.12445
5.12774
5.14238
5.16867
5.20986
5.27256
5.35273
5.42815
5.20452
5.17849
5.17015
5.17735
5.20203
5.24821
5.3231
5.4435
5.60794
5.78563
5.2989
5.26185
5.25316
5.2618
5.29633
5.36158
5.46912
5.6499
5.90497
6.19993
5.35156
5.31839
5.30833
5.31905
5.35184
5.41709
5.53117
5.73832
6.06223
6.49815
5.35482
5.32659
5.32252
5.32775
5.34935
5.3902
5.45933
5.57832
5.76343
6.01911
8.02698
8.02197
8.01971
8.02117
8.0262
8.03429
8.04521
8.06038
8.08001
8.10187
7.53216
7.53296
7.53331
7.53331
7.53299
7.53221
7.53124
7.53023
7.52934
7.5286
4.99219
4.99066
4.98906
4.98869
4.98903
4.98993
4.99117
4.9928
4.99464
4.99554
4.9452
4.94664
4.94809
4.94719
4.94554
4.94337
4.9414
4.94044
4.94082
4.94069
4.94846
4.94248
4.94008
4.941
4.94527
4.95297
4.96435
4.97981
4.99764
5.00996
5.01181
5.00436
5.00324
5.00439
5.01077
5.02202
5.03921
5.0641
5.09499
5.12026
5.05337
5.04025
5.03582
5.03922
5.05113
5.07296
5.10738
5.15952
5.22876
5.29601
5.12917
5.10868
5.10412
5.10828
5.12644
5.15996
5.21327
5.29688
5.40985
5.52249
5.19724
5.18025
5.17502
5.18077
5.19757
5.23056
5.28722
5.38439
5.5319
5.71056
5.28356
5.26409
5.26194
5.26522
5.27943
5.30564
5.3484
5.41651
5.51492
5.6379
7.82646
7.82241
7.82055
7.82173
7.82578
7.83212
7.84077
7.85228
7.86612
7.88043
7.34126
7.34193
7.34231
7.34229
7.34201
7.34149
7.34083
7.34015
7.33956
7.339
4.98036
4.97906
4.97783
4.97759
4.97796
4.97871
4.97973
4.98105
4.98264
4.98352
4.91249
4.91381
4.91493
4.91435
4.913
4.91114
4.90924
4.90789
4.90755
4.90724
4.899
4.89548
4.89403
4.89444
4.89657
4.90038
4.90589
4.91322
4.92168
4.92692
4.93669
4.933
4.93255
4.93293
4.93579
4.9408
4.94829
4.95876
4.97155
4.98133
4.96246
4.95596
4.95366
4.95525
4.96088
4.97103
4.98673
5.00951
5.03938
5.06758
5.0214
5.01002
5.00771
5.00972
5.01933
5.03668
5.06344
5.10303
5.15434
5.20112
5.09487
5.08712
5.08478
5.08777
5.09574
5.11131
5.1379
5.18185
5.24691
5.32536
5.23244
5.21891
5.21796
5.22015
5.22977
5.247
5.27376
5.31334
5.36548
5.42865
7.61355
7.61044
7.60899
7.6099
7.61301
7.61778
7.62438
7.63279
7.64228
7.65147
7.13974
7.1403
7.1406
7.14059
7.14042
7.14009
7.13965
7.1392
7.13882
7.13838
4.97246
4.97142
4.97054
4.97039
4.9707
4.97132
4.97215
4.97324
4.97467
4.97553
4.89608
4.89711
4.89792
4.89759
4.89669
4.89542
4.89411
4.89315
4.893
4.89304
4.87439
4.87218
4.87128
4.87148
4.87261
4.87461
4.87748
4.88129
4.88589
4.88868
4.89565
4.89357
4.89329
4.89343
4.89486
4.89738
4.90106
4.90604
4.91208
4.91688
4.91036
4.90715
4.90597
4.90672
4.90935
4.91402
4.92113
4.93119
4.94449
4.95784
4.956
4.94947
4.9483
4.94937
4.95464
4.96394
4.97782
4.9974
5.02178
5.04361
5.02981
5.02699
5.02629
5.02781
5.03117
5.03774
5.04902
5.06756
5.0943
5.13165
5.19685
5.18729
5.18705
5.18869
5.19551
5.20722
5.22433
5.24785
5.27538
5.30992
7.38819
7.38592
7.38486
7.38553
7.3878
7.39127
7.39611
7.40203
7.40834
7.41413
6.9274
6.92787
6.9281
6.9281
6.92801
6.9278
6.92752
6.92723
6.92698
6.92661
4.96639
4.96563
4.96504
4.96495
4.9652
4.96566
4.9663
4.96719
4.96849
4.96929
4.8878
4.88859
4.88917
4.88903
4.88848
4.88772
4.88695
4.88642
4.88655
4.88687
4.8629
4.8615
4.86098
4.86108
4.86167
4.8627
4.86421
4.86627
4.869
4.8708
4.87428
4.87291
4.87263
4.87271
4.87357
4.8751
4.87727
4.88009
4.88349
4.88654
4.882
4.88039
4.87979
4.88014
4.88137
4.88352
4.88673
4.89122
4.89737
4.90457
4.91799
4.91401
4.9134
4.91408
4.91719
4.92251
4.93015
4.9405
4.95292
4.96476
4.98991
4.98951
4.98967
4.99044
4.99154
4.99373
4.99754
5.00423
5.01341
5.03308
5.1725
5.1656
5.16575
5.16713
5.17225
5.1805
5.1918
5.2062
5.22061
5.24095
7.15042
7.14888
7.14816
7.14863
7.15016
7.15265
7.15605
7.16007
7.16412
7.16769
6.70408
6.70448
6.70465
6.70466
6.70462
6.7045
6.70432
6.70413
6.70396
6.70363
4.96122
4.96073
4.96038
4.96035
4.96052
4.96084
4.9613
4.96199
4.96321
4.96394
4.88354
4.88417
4.88458
4.88455
4.88426
4.88386
4.88349
4.88328
4.88363
4.88413
4.85808
4.85725
4.85699
4.85703
4.8573
4.85776
4.85847
4.85953
4.86121
4.86254
4.86377
4.86276
4.86246
4.86252
4.86314
4.86423
4.86574
4.86761
4.86983
4.87214
4.86743
4.86659
4.86626
4.86644
4.86702
4.86803
4.86948
4.87153
4.8745
4.87887
4.89667
4.89407
4.89371
4.89423
4.89624
4.89956
4.90411
4.91007
4.91697
4.9245
4.96578
4.9664
4.96696
4.96736
4.96748
4.96771
4.96814
4.96959
4.97095
4.98274
5.15568
5.15067
5.15102
5.15229
5.15626
5.16234
5.1701
5.17926
5.1866
5.19967
6.90047
6.89942
6.899
6.8993
6.90033
6.90204
6.90433
6.90693
6.90942
6.91159
6.46971
6.47007
6.47018
6.4702
6.47019
6.47013
6.47001
6.46988
6.46977
6.46946
4.95656
4.95633
4.95617
4.95619
4.9563
4.95649
4.95679
4.9573
4.95847
4.95916
4.88122
4.88176
4.88203
4.88205
4.88194
4.88179
4.88169
4.88171
4.88221
4.88285
4.85655
4.85613
4.85604
4.85605
4.85611
4.85622
4.85645
4.85691
4.85792
4.85901
4.85902
4.85824
4.85792
4.85797
4.85845
4.85929
4.86042
4.86178
4.86335
4.86522
4.86047
4.85998
4.85979
4.85987
4.86016
4.86066
4.86135
4.86231
4.86381
4.86672
4.88486
4.88304
4.8828
4.88323
4.88464
4.88687
4.88981
4.89353
4.8977
4.90311
4.95057
4.95147
4.95218
4.95241
4.95218
4.9517
4.95083
4.95022
4.94836
4.95649
5.1435
5.13985
5.14035
5.14154
5.14472
5.14939
5.15496
5.16103
5.16446
5.17363
6.63857
6.63789
6.63762
6.63783
6.63851
6.63963
6.6411
6.6427
6.64415
6.64543
6.22437
6.22468
6.22476
6.22478
6.22478
6.22475
6.22467
6.22459
6.2245
6.22421
4.95224
4.95227
4.95225
4.95233
4.9524
4.95248
4.95263
4.95299
4.95412
4.95483
4.87982
4.88027
4.88043
4.88046
4.88045
4.88047
4.88055
4.88074
4.88134
4.88213
4.8566
4.85643
4.85645
4.85644
4.85639
4.8563
4.85625
4.85636
4.85693
4.85787
4.85719
4.85658
4.85629
4.85632
4.85667
4.85731
4.85816
4.85915
4.86028
4.8618
4.85751
4.85719
4.85705
4.85708
4.85724
4.85751
4.85786
4.85834
4.85912
4.86115
4.87797
4.87665
4.87646
4.87681
4.87783
4.87939
4.88138
4.88382
4.88647
4.89058
4.93952
4.94031
4.94102
4.94119
4.94093
4.94032
4.93918
4.938
4.9351
4.94138
5.13376
5.13113
5.1317
5.13284
5.13546
5.13917
5.14333
5.14751
5.14869
5.15556
6.36506
6.36464
6.36448
6.36462
6.36504
6.36573
6.36662
6.36754
6.36832
6.36905
5.96833
5.9686
5.96868
5.9687
5.9687
5.96868
5.96862
5.96856
5.96849
5.96821
4.94815
4.94843
4.94852
4.94865
4.9487
4.94871
4.94873
4.94893
4.95003
4.95081
4.87875
4.87907
4.87911
4.87913
4.87917
4.8793
4.8795
4.87979
4.88046
4.88144
4.85734
4.85731
4.85737
4.85734
4.85724
4.85708
4.85691
4.85685
4.85712
4.85793
4.85677
4.8563
4.85606
4.85607
4.85631
4.85676
4.85736
4.85805
4.85885
4.86004
4.85659
4.85635
4.85624
4.85624
4.85633
4.85648
4.85666
4.8569
4.85732
4.85872
4.87317
4.8722
4.87204
4.8723
4.87301
4.87408
4.87541
4.877
4.87869
4.88178
4.92937
4.9299
4.93051
4.93066
4.93047
4.92998
4.92899
4.92788
4.92497
4.93015
5.1245
5.12269
5.12326
5.12434
5.12652
5.12951
5.13271
5.13564
5.13548
5.14077
6.08046
6.08023
6.08014
6.08022
6.08047
6.08085
6.08135
6.08183
6.0822
6.0826
5.70224
5.70247
5.70254
5.70256
5.70256
5.70254
5.7025
5.70244
5.70238
5.70213
4.94402
4.94452
4.94472
4.94492
4.94496
4.94491
4.94481
4.94483
4.94579
4.94671
4.87762
4.87774
4.87767
4.87765
4.87772
4.87789
4.87814
4.87849
4.87918
4.88041
4.85822
4.85822
4.85827
4.85824
4.85814
4.85798
4.85781
4.85769
4.85778
4.85844
4.85701
4.85667
4.85649
4.85648
4.85664
4.85692
4.8573
4.85774
4.85827
4.85916
4.85671
4.85654
4.85645
4.85644
4.85647
4.85654
4.85662
4.85673
4.85692
4.85782
4.86871
4.86803
4.8679
4.86806
4.8685
4.86916
4.86997
4.8709
4.87193
4.8741
4.91797
4.91821
4.91868
4.9188
4.91867
4.9183
4.91756
4.91668
4.91427
4.91852
5.11301
5.11188
5.1124
5.11339
5.11516
5.11753
5.11996
5.12192
5.12097
5.12485
5.7856
5.78548
5.78544
5.78548
5.78561
5.7858
5.78605
5.78627
5.78641
5.7866
5.42692
5.42712
5.42717
5.42718
5.42718
5.42717
5.42714
5.4271
5.42705
5.42684
4.93849
4.9391
4.93952
4.93979
4.93985
4.93974
4.93951
4.9393
4.93976
4.94081
4.87611
4.87595
4.8758
4.87573
4.87579
4.87595
4.8762
4.87656
4.87721
4.87865
4.85883
4.85879
4.85881
4.85878
4.85871
4.85861
4.85849
4.85841
4.85842
4.85885
4.85765
4.85742
4.8573
4.85729
4.85737
4.85753
4.85774
4.85799
4.85831
4.85888
4.8574
4.8573
4.85725
4.85723
4.85723
4.85725
4.85726
4.85727
4.85734
4.8578
4.86403
4.86361
4.86352
4.86359
4.86381
4.86415
4.86454
4.86498
4.86551
4.86682
4.90414
4.90413
4.9044
4.90444
4.90429
4.90396
4.90339
4.90273
4.90115
4.90436
5.09227
5.0917
5.09214
5.09296
5.09428
5.09601
5.09772
5.09884
5.09748
5.09982
5.48149
5.48144
5.48143
5.48144
5.48148
5.48154
5.48162
5.48168
5.48172
5.4818
5.14221
5.14232
5.14233
5.14233
5.14233
5.14233
5.14232
5.14232
5.14231
5.1422
4.92399
4.92467
4.92537
4.92575
4.92584
4.9257
4.92535
4.92483
4.92427
4.92483
4.87319
4.87278
4.87255
4.87243
4.87245
4.87257
4.87279
4.87313
4.8737
4.87509
4.85925
4.85919
4.85917
4.85915
4.85911
4.85908
4.85904
4.85901
4.85901
4.85917
4.85868
4.85856
4.8585
4.85849
4.85853
4.8586
4.8587
4.85883
4.85898
4.85926
4.85855
4.85851
4.85848
4.85846
4.85845
4.85844
4.85843
4.85841
4.85841
4.85856
4.8605
4.86033
4.86028
4.8603
4.86038
4.8605
4.86064
4.86079
4.86098
4.86152
4.88732
4.88711
4.88716
4.88709
4.8869
4.88659
4.88617
4.88576
4.88523
4.88732
5.03908
5.03888
5.03917
5.03968
5.04047
5.04148
5.04246
5.04293
5.04179
5.04241
5.16817
5.16814
5.16815
5.16816
5.16816
5.16816
5.16816
5.16815
5.16812
5.16817
11.2545
11.369
11.3235
11.1075
82.7578
84.8099
85.264
85.9226
143.074
148.501
148.956
147.706
202.6
211.965
211.815
207.503
264.078
277.638
276.415
268.918
332.088
350.223
348.126
339.408
394.126
416.588
414.201
406.802
431.782
457.816
455.849
451.223
344.277
366.631
364.082
362.669
11.4612
11.6985
11.5435
11.1401
9.70606
9.76508
9.76791
9.72403
76.0723
79.262
80.0182
80.1474
133.916
144.745
145.827
143.642
192.876
214.362
214.855
208.91
255.985
290.613
289.598
279.571
329.123
379.536
377.764
364.87
398.846
465.399
464.434
451.345
444.87
525.765
526.81
515.521
349.205
420.978
419.135
414.195
10.6996
10.9286
10.8588
10.6394
8.77307
8.78592
8.78489
8.77346
26.5337
28.9337
28.1909
25.6852
49.3592
53.7405
52.0619
47.3815
74.578
81.2956
78.1501
70.6209
103.441
112.912
107.694
96.5904
139.391
152.654
145.001
129.083
177.146
194.365
184.181
163.139
207.159
228.139
215.867
190.334
164.282
180.993
169.539
148.735
9.9049
9.99501
9.97197
9.87331
8.50919
8.5117
8.51234
8.51139
11.4827
11.7271
11.6942
11.4962
21.2238
21.9425
21.8719
21.3254
32.0019
33.4734
33.2094
31.8872
44.5117
46.9189
46.2354
43.7039
60.6314
64.3585
63.012
58.6854
78.0205
83.0726
80.7719
74.318
92.4662
98.9354
95.6139
86.92
71.8003
76.8678
73.3409
65.7538
9.44236
9.48648
9.48341
9.44325
8.3306
8.33166
8.33191
8.33127
7.05184
7.14212
7.1662
7.13562
11.6915
11.9848
12.0649
11.9765
16.88
17.4885
17.5837
17.3139
22.8413
23.8499
23.8771
23.2693
30.7143
32.3207
32.195
31.0018
39.2085
41.4147
40.9791
38.9957
46.2138
49.1104
48.2731
45.2927
34.3487
36.5324
35.331
32.4586
9.09291
9.11668
9.11828
9.10147
8.18043
8.18133
8.18141
8.18066
5.6135
5.62725
5.63199
5.62994
7.4671
7.53554
7.56679
7.56699
9.94636
10.1269
10.1914
10.1647
12.8387
13.1785
13.2603
13.158
16.7971
17.4034
17.4864
17.2171
21.0359
21.9171
21.9307
21.4008
24.4511
25.6813
25.5685
24.634
17.4556
18.3317
17.9708
16.9724
8.80794
8.81976
8.82212
8.81606
8.02966
8.03054
8.0306
8.02983
5.20104
5.20391
5.20452
5.20339
5.82966
5.84443
5.85222
5.85391
6.92008
6.97083
6.99436
6.99465
8.26223
8.37062
8.41223
8.40166
10.2333
10.4546
10.5204
10.471
12.3504
12.6886
12.7532
12.6343
14.0348
14.5414
14.5813
14.3191
10.2073
10.5339
10.4516
10.1637
8.56093
8.56636
8.56843
8.56708
7.87145
7.87231
7.87237
7.87162
5.06574
5.06669
5.06654
5.06551
5.2365
5.23815
5.23903
5.23939
5.68709
5.69796
5.7034
5.70429
6.26714
6.29489
6.30767
6.30867
7.19325
7.2646
7.29261
7.28663
8.20926
8.324
8.36026
8.34185
9.05639
9.2485
9.28891
9.22504
7.32959
7.4369
7.42862
7.36427
8.33325
8.33551
8.33697
8.33721
7.70347
7.70429
7.70436
7.70364
5.01491
5.0157
5.01552
5.01453
5.02201
5.02163
5.02132
5.02117
5.2059
5.20719
5.20772
5.20773
5.4559
5.46076
5.46315
5.46389
5.87976
5.89988
5.90867
5.90834
6.35461
6.38633
6.39929
6.39973
6.79872
6.86454
6.88434
6.87069
6.19173
6.22245
6.22533
6.21565
8.11032
8.1111
8.11199
8.11256
7.525
7.52577
7.52583
7.52516
4.99243
4.9932
4.99306
4.99211
4.93974
4.93933
4.93898
4.93875
5.0103
5.00981
5.00939
5.00918
5.12355
5.12326
5.12301
5.12313
5.32279
5.32785
5.32996
5.32975
5.55686
5.56259
5.56563
5.56776
5.80956
5.83078
5.83805
5.83446
5.69316
5.69875
5.70041
5.70154
7.88493
7.88502
7.88552
7.88606
7.33568
7.33639
7.33644
7.33582
4.98038
4.98109
4.98096
4.98005
4.90651
4.90627
4.90603
4.90583
4.92573
4.92511
4.92467
4.92447
4.98017
4.97922
4.97859
4.97847
5.0763
5.07751
5.0778
5.0774
5.20471
5.20398
5.20397
5.20535
5.36374
5.37098
5.37308
5.37082
5.44937
5.44722
5.44709
5.44948
7.65381
7.65364
7.6539
7.65431
7.13532
7.13597
7.13601
7.13544
4.97243
4.97306
4.97292
4.97204
4.89258
4.89247
4.89231
4.89214
4.88748
4.887
4.88666
4.88651
4.91554
4.91479
4.91427
4.9141
4.96164
4.96197
4.96186
4.96145
5.04128
5.0396
5.03894
5.03967
5.15218
5.15533
5.15564
5.15338
5.32055
5.31652
5.31551
5.3174
7.41521
7.41497
7.4151
7.41537
6.92383
6.9244
6.92443
6.92392
4.96627
4.9668
4.96662
4.96578
4.88659
4.88655
4.88644
4.88629
4.86984
4.86948
4.86923
4.86913
4.88572
4.88524
4.88486
4.8847
4.90687
4.90702
4.90687
4.90653
4.96268
4.96134
4.96072
4.96105
5.04818
5.05023
5.05
5.04766
5.24871
5.24476
5.2435
5.24467
7.16796
7.16778
7.16784
7.16798
6.70114
6.70163
6.70164
6.70119
4.96104
4.96144
4.96121
4.96041
4.88398
4.88398
4.8839
4.88376
4.86183
4.86157
4.86138
4.86131
4.87178
4.87148
4.87122
4.87108
4.88057
4.88068
4.88056
4.88029
4.92389
4.9231
4.92265
4.92271
4.99609
4.99791
4.99757
4.99517
5.20666
5.2034
5.20217
5.20267
6.91131
6.91125
6.91127
6.91129
6.46729
6.46769
6.46769
6.4673
4.95642
4.95668
4.9564
4.95563
4.88284
4.88287
4.88282
4.88267
4.85854
4.85836
4.85822
4.85817
4.86515
4.86497
4.86479
4.86467
4.86805
4.86814
4.86804
4.86783
4.90388
4.90357
4.90329
4.90317
4.96923
4.97111
4.97077
4.9683
5.18043
5.17806
5.17698
5.17686
6.64477
6.64485
6.64486
6.64476
6.22241
6.22271
6.22269
6.22237
4.95231
4.95244
4.95211
4.95137
4.88232
4.8824
4.88235
4.88218
4.85767
4.85755
4.85746
4.85742
4.86191
4.8618
4.86167
4.86158
4.86219
4.86225
4.86217
4.86201
4.89233
4.89238
4.89223
4.89198
4.95388
4.95593
4.95564
4.95304
5.16232
5.16089
5.16
5.15931
6.36811
6.36834
6.36834
6.36815
5.96684
5.96704
5.96699
5.96674
4.94865
4.94867
4.94831
4.94762
4.88195
4.88208
4.88204
4.88182
4.85799
4.85795
4.8579
4.85786
4.86025
4.86018
4.86009
4.86002
4.85949
4.85951
4.85944
4.85933
4.88402
4.88429
4.88425
4.88394
4.94235
4.94465
4.94441
4.94166
5.14742
5.14698
5.14634
5.14509
6.08147
6.08181
6.08182
6.08156
5.70127
5.70136
5.70129
5.70111
4.94524
4.94526
4.94492
4.94427
4.88131
4.88152
4.88146
4.88114
4.85872
4.85875
4.85874
4.85872
4.8594
4.85935
4.85928
4.85924
4.85831
4.8583
4.85824
4.85817
4.87633
4.87671
4.87673
4.87643
4.92979
4.93233
4.93215
4.9293
5.13113
5.13183
5.1315
5.12965
5.78537
5.78579
5.78581
5.78552
5.42662
5.42657
5.42648
5.42639
4.94071
4.94097
4.94076
4.94011
4.8798
4.88004
4.87992
4.87948
4.8592
4.85929
4.85932
4.8593
4.85908
4.85905
4.859
4.85898
4.85802
4.85799
4.85794
4.85791
4.86857
4.86892
4.86898
4.86874
4.9131
4.91546
4.91535
4.91282
5.105
5.10714
5.10719
5.10458
5.48073
5.48123
5.48126
5.48093
5.14272
5.14246
5.14237
5.14246
4.9264
4.92729
4.92733
4.92648
4.87588
4.87596
4.87576
4.87536
4.85932
4.85939
4.85943
4.85944
4.85933
4.8593
4.85928
4.85929
4.85855
4.8585
4.85847
4.85848
4.86236
4.86255
4.86259
4.8625
4.89164
4.89277
4.89267
4.89142
5.0445
5.04777
5.04808
5.04486
5.16764
5.16818
5.1682
5.16783
10.103
9.35957
9.04895
8.93706
8.87288
8.82777
8.79784
8.78115
8.77169
8.76592
103.677
49.1059
35.7212
29.8689
24.4439
19.8319
16.2514
13.5882
11.6927
10.3438
160.924
70.8644
51.0241
43.5754
36.971
31.1894
26.36
22.4909
19.4635
17.108
206.252
82.6103
55.8699
46.5126
39.098
32.5005
26.9806
22.6107
19.2437
16.6781
241.525
88.7688
58.6549
47.7143
39.7999
32.4717
26.4416
21.7508
18.1945
15.5725
277.296
94.3991
60.7394
48.0288
39.5751
31.5455
25.1474
20.2942
16.7425
14.2133
305.991
97.7666
61.4158
47.5055
38.7977
30.31
23.7716
18.935
15.4838
13.1182
313.749
93.295
56.3464
41.9806
33.7132
25.6257
19.7973
15.6975
12.9687
11.1655
223.124
55.8209
30.3918
21.0038
16.1997
12.1679
9.91633
8.58471
7.78261
7.26073
9.56635
9.54118
9.38617
9.35999
9.31347
9.28737
9.26661
9.25553
9.248
9.24128
9.3607
9.05193
8.90041
8.81514
8.76144
8.72603
8.70312
8.68959
8.68217
8.67729
53.0828
28.6624
22.5396
19.4045
16.6082
14.132
12.0985
10.5405
9.40673
8.62126
89.938
46.25
35.7609
30.9261
27.0503
23.3621
20.1411
17.4862
15.3668
13.7585
122.113
58.5596
42.7997
35.5048
30.3835
25.5913
21.5287
18.269
15.7348
13.862
152.255
68.6643
47.7513
38.364
32.2015
26.4981
21.814
18.1546
15.3631
13.3685
186.008
78.7133
52.0003
40.2995
33.0756
26.5023
21.3095
17.374
14.492
12.5071
216.526
86.234
54.5333
41.0655
33.1826
26.0306
20.5758
16.5606
13.6913
11.787
232.241
86.437
51.7216
37.3131
29.4354
22.4634
17.4834
14.0116
11.7082
10.2378
166.546
54.5144
28.9484
19.2995
14.6363
11.1865
9.24639
8.10847
7.41798
6.98861
9.81201
9.49743
9.32695
9.2639
9.20915
9.17595
9.15184
9.1371
9.12672
9.11741
8.73413
8.69297
8.6604
8.63329
8.61209
8.59674
8.58653
8.58044
8.57695
8.57428
19.9376
16.5613
14.4823
12.6583
11.0843
9.77917
8.76503
8.01745
7.48103
7.1111
35.8882
28.6832
24.8835
21.6295
18.8391
16.4226
14.4248
12.8213
11.5497
10.5928
50.9797
37.8986
31.4818
26.2641
22.157
18.7336
15.9943
13.8524
12.2021
10.9958
66.0375
45.6375
36.5506
29.4877
24.2622
20.0114
16.7095
14.1985
12.3003
10.9563
83.0966
53.2667
41.0454
31.9668
25.6169
20.553
16.7477
13.9402
11.9092
10.5253
98.9148
59.0755
44.0299
33.334
26.2231
20.6076
16.5159
13.5869
11.5175
10.155
108.102
59.6027
42.4682
30.8842
23.6687
18.1408
14.363
11.8084
10.1337
9.06762
75.672
36.5347
23.7923
16.2183
12.1876
9.65593
8.27046
7.4566
6.95149
6.63315
9.56557
9.37217
9.23872
9.15919
9.10178
9.06585
9.04082
9.02375
9.01113
8.99997
8.5066
8.49666
8.48569
8.4758
8.4683
8.4632
8.46004
8.45844
8.45798
8.45729
10.9408
10.13
9.27957
8.43246
7.72215
7.17712
6.77712
6.48865
6.2805
6.13618
19.8542
18.015
16.1595
14.2782
12.6536
11.319
10.2544
9.41773
8.75954
8.26671
28.4487
24.6117
21.1596
17.9435
15.3455
13.2697
11.6472
10.3978
9.44423
8.7527
37.198
30.6376
25.3874
20.803
17.2992
14.5724
12.5011
10.9542
9.79461
8.97538
47.4086
36.9336
29.4697
23.2904
18.7926
15.3725
12.8564
11.0366
9.73449
8.84953
56.9715
42.0195
32.4839
24.9371
19.6874
15.7678
12.9734
11.0176
9.64712
8.74125
62.6527
43.1855
32.0118
23.6393
18.1729
14.255
11.6388
9.90921
8.7794
8.05109
42.6331
26.146
17.9273
12.7576
9.99918
8.37345
7.45947
6.90752
6.55136
6.32166
9.32135
9.18346
9.0767
9.0073
8.95925
8.92769
8.905
8.88871
8.87642
8.86575
8.33111
8.32969
8.32822
8.32705
8.32635
8.32606
8.3261
8.32656
8.32767
8.32846
7.00439
6.76319
6.50913
6.26816
6.06691
5.90822
5.78643
5.69398
5.62443
5.57659
11.6129
10.9273
10.1518
9.36828
8.67465
8.09714
7.63492
7.27201
6.98356
6.76587
16.4327
14.9536
13.3668
11.841
10.5458
9.49169
8.66321
8.02657
7.5409
7.1897
21.5199
18.9261
16.3401
13.9814
12.0761
10.5768
9.43734
8.59258
7.95735
7.50554
27.7427
23.4317
19.4833
16.0491
13.4017
11.3818
9.89815
8.83415
8.07284
7.55248
33.6919
27.3597
22.0301
17.5972
14.3342
11.9145
10.1965
9.0065
8.16768
7.60477
37.3266
28.7557
22.221
17.11
13.5962
11.1252
9.48229
8.4014
7.68615
7.21451
24.4819
17.3076
12.7841
9.93633
8.34756
7.39231
6.81992
6.45877
6.21421
6.05337
9.04763
8.96492
8.89357
8.84268
8.80538
8.77865
8.7585
8.74335
8.73166
8.72169
8.18124
8.18145
8.18184
8.18242
8.18315
8.18393
8.18474
8.18572
8.18721
8.18883
5.61298
5.56954
5.51739
5.46342
5.41424
5.3722
5.33769
5.31014
5.28936
5.27635
7.51008
7.31975
7.07026
6.80689
6.567
6.36523
6.20305
6.07427
5.96753
5.88439
9.97813
9.4748
8.85063
8.22097
7.66674
7.20959
6.84709
6.56553
6.34714
6.18811
12.7305
11.7736
10.6552
9.58508
8.68752
7.97507
7.43134
7.02633
6.71449
6.48803
16.316
14.6067
12.7421
11.0406
9.6745
8.62507
7.85052
7.292
6.88547
6.60347
19.8424
17.237
14.5648
12.2414
10.4595
9.13542
8.1909
7.53357
7.05824
6.7309
22.0841
18.4047
14.9755
12.1975
10.2131
8.82107
7.88513
7.25981
6.83393
6.54545
14.3727
11.5247
9.41305
8.03848
7.2046
6.67058
6.32496
6.09629
5.93348
5.82512
8.79289
8.74699
8.70294
8.6676
8.63936
8.61741
8.60006
8.58652
8.57581
8.56684
8.03053
8.0309
8.03148
8.03224
8.03309
8.03393
8.03475
8.03568
8.03709
8.03888
5.19995
5.19181
5.18163
5.16983
5.15797
5.147
5.13748
5.12976
5.12459
5.12259
5.84249
5.7974
5.73442
5.66489
5.59978
5.5442
5.49908
5.46225
5.42849
5.40015
6.95117
6.79498
6.58553
6.36551
6.16532
5.99557
5.85667
5.74489
5.65496
5.58856
8.2952
7.96397
7.54197
7.12456
6.76467
6.47355
6.24636
6.07265
5.93199
5.8261
10.214
9.55288
8.76392
8.02043
7.40575
6.92542
6.5628
6.29405
6.09132
5.94785
12.1765
11.1208
9.91428
8.8332
7.97832
7.33403
6.86414
6.52873
6.27477
6.09381
13.4996
11.9426
10.327
8.98311
7.98924
7.27904
6.78586
6.44465
6.20299
6.03513
9.41429
8.37784
7.49728
6.87497
6.45319
6.16075
5.95659
5.81531
5.70961
5.63899
8.55765
8.53322
8.50659
8.4824
8.46141
8.44396
8.42955
8.41791
8.40847
8.40071
7.87232
7.87259
7.87303
7.8736
7.87425
7.87488
7.87546
7.87616
7.87732
7.8789
5.06494
5.06319
5.06084
5.05777
5.05441
5.0511
5.04819
5.046
5.04522
5.04603
5.23735
5.22955
5.21749
5.20301
5.18913
5.17759
5.16882
5.16167
5.15298
5.14417
5.69447
5.65273
5.5918
5.52358
5.45815
5.39985
5.34973
5.30738
5.27188
5.24542
6.28507
6.1874
6.052
5.91127
5.78452
5.67768
5.59078
5.52162
5.46151
5.41401
7.21634
6.98764
6.69643
6.41012
6.16332
5.96245
5.80381
5.68087
5.58398
5.51433
8.21945
7.83283
7.35431
6.90953
6.54334
6.25678
6.03838
5.8759
5.74539
5.64884
8.97243
8.36408
7.68853
7.10422
6.65088
6.31244
6.06531
5.88647
5.7546
5.66142
7.17778
6.81692
6.46126
6.18027
5.968
5.80904
5.69022
5.60465
5.53741
5.49273
8.33308
8.31977
8.30347
8.28708
8.27185
8.25844
8.24692
8.2373
8.22931
8.22286
7.70431
7.70449
7.70477
7.70516
7.70558
7.70598
7.70633
7.70676
7.70765
7.70899
5.0145
5.01368
5.01264
5.01132
5.00988
5.00846
5.00726
5.00653
5.00677
5.00793
5.02061
5.01993
5.0186
5.01667
5.0151
5.01456
5.01514
5.01599
5.0148
5.01227
5.20518
5.19458
5.17719
5.15601
5.13445
5.11426
5.09607
5.08
5.06614
5.05577
5.45919
5.43385
5.39426
5.34994
5.30768
5.27027
5.23854
5.21235
5.18749
5.16653
5.88901
5.817
5.71869
5.61538
5.5208
5.43932
5.37143
5.3163
5.27112
5.23852
6.37379
6.24958
6.0791
5.9106
5.76308
5.64086
5.54249
5.46598
5.40046
5.35003
6.7962
6.57813
6.31976
6.08158
5.88443
5.72841
5.60813
5.51718
5.4478
5.3985
6.17134
6.04081
5.89393
5.7646
5.65736
5.57121
5.50278
5.45177
5.40964
5.38206
8.11033
8.10283
8.09281
8.08188
8.07111