/*--------------------------------*- C++ -*----------------------------------*\
| =========                 |                                                 |
| \\      /  F ield         | foam-extend: Open Source CFD                    |
|  \\    /   O peration     | Version:     4.0                                |
|   \\  /    A nd           | Web:         http://www.foam-extend.org         |
|    \\/     M anipulation  |                                                 |
\*---------------------------------------------------------------------------*/
FoamFile
{
    version     2.0;
    format      ascii;
    class       volScalarField;
    location    "1050";
    object      MaU;
}
// * * * * * * * * * * * * * * * * * * * * * * * * * * * * * * * * * * * * * //

dimensions      [0 0 0 0 0 0 0];

internalField   nonuniform List<scalar> 
34480
(
0.622343
0.623348
0.623892
0.624016
0.623727
0.622952
0.621552
0.61885
0.612805
0.607031
0.625587
0.626436
0.626919
0.626976
0.626452
0.625204
0.623255
0.620354
0.613403
0.607926
0.62763
0.628417
0.628826
0.628778
0.628099
0.62682
0.625119
0.622902
0.615949
0.610964
0.627631
0.628438
0.628915
0.628998
0.628545
0.627669
0.626468
0.62497
0.618414
0.613946
0.628136
0.629041
0.629651
0.629945
0.629807
0.629404
0.628748
0.628026
0.622265
0.618316
0.627802
0.628753
0.629435
0.62985
0.62994
0.629937
0.629816
0.629924
0.625357
0.622256
0.628068
0.629147
0.629923
0.630467
0.63076
0.631096
0.631476
0.632413
0.629307
0.627029
0.627526
0.628634
0.629357
0.629781
0.629958
0.630251
0.630792
0.63228
0.630707
0.629631
0.627281
0.628544
0.629379
0.62994
0.630299
0.630762
0.631565
0.633566
0.633286
0.632135
0.623498
0.624502
0.624535
0.623677
0.622106
0.620201
0.618412
0.618012
0.617387
0.618475
0.612423
0.613892
0.614474
0.614237
0.613108
0.610814
0.606728
0.599497
0.588836
0.57503
0.61688
0.618208
0.618752
0.618513
0.617301
0.614744
0.610251
0.60246
0.589866
0.573789
0.619839
0.621086
0.621588
0.62133
0.620062
0.61748
0.613075
0.605461
0.59204
0.574827
0.620664
0.621921
0.62249
0.622367
0.621308
0.619071
0.615069
0.607892
0.59409
0.576489
0.621859
0.623186
0.623866
0.623943
0.623179
0.621393
0.617913
0.611385
0.597687
0.580267
0.622069
0.623431
0.624181
0.624385
0.623851
0.622476
0.619542
0.613807
0.600669
0.584058
0.622789
0.624246
0.625079
0.625419
0.625097
0.624093
0.6217
0.616828
0.604628
0.58911
0.622572
0.624048
0.624842
0.625094
0.624716
0.623778
0.621682
0.617537
0.606539
0.592724
0.622583
0.624163
0.625046
0.625414
0.62522
0.624522
0.622829
0.619444
0.609724
0.596728
0.618995
0.620389
0.620717
0.620072
0.618512
0.616191
0.612832
0.608156
0.598917
0.589061
0.60478
0.606353
0.606924
0.606613
0.605383
0.60308
0.599406
0.593863
0.585814
0.575635
0.609543
0.611092
0.611666
0.611308
0.609901
0.607182
0.602644
0.595425
0.58407
0.568936
0.612806
0.614357
0.614934
0.614584
0.613128
0.610245
0.605315
0.597205
0.583241
0.563475
0.614133
0.615746
0.616401
0.616166
0.61484
0.612102
0.607173
0.598647
0.582543
0.558695
0.615811
0.61751
0.61827
0.618211
0.617113
0.614682
0.609993
0.601457
0.583863
0.556747
0.616443
0.618191
0.619028
0.619096
0.618195
0.616084
0.611741
0.60349
0.585018
0.555549
0.617527
0.619359
0.620277
0.620483
0.61978
0.617995
0.614065
0.606297
0.587524
0.556404
0.617612
0.619462
0.620357
0.620504
0.619774
0.618078
0.614425
0.607194
0.588647
0.556699
0.617888
0.619797
0.620761
0.621
0.620404
0.618908
0.615625
0.60907
0.591186
0.557855
0.614545
0.616282
0.616835
0.616318
0.614718
0.612038
0.607615
0.600295
0.582975
0.550084
0.599213
0.600593
0.60107
0.600769
0.599687
0.597766
0.59491
0.59102
0.586073
0.580537
0.603728
0.605207
0.60573
0.605336
0.603955
0.601441
0.597544
0.591914
0.5841
0.575166
0.606868
0.608468
0.609033
0.608617
0.607096
0.604242
0.599629
0.592623
0.582056
0.56913
0.608402
0.61014
0.610795
0.610446
0.608934
0.605986
0.600984
0.592985
0.579771
0.562582
0.610352
0.612215
0.612971
0.612753
0.611363
0.608518
0.603411
0.594832
0.579375
0.558202
0.611275
0.613216
0.614052
0.613937
0.612675
0.609997
0.604949
0.596117
0.578873
0.554232
0.612632
0.614661
0.615571
0.61558
0.614471
0.612015
0.607155
0.598331
0.579818
0.552243
0.612974
0.615022
0.615923
0.615892
0.614763
0.612362
0.60764
0.598995
0.579801
0.549981
0.613477
0.615557
0.616508
0.616554
0.615534
0.613275
0.608748
0.600447
0.581246
0.548909
0.610386
0.612308
0.612972
0.612479
0.610758
0.607688
0.6024
0.5935
0.574499
0.540989
0.595351
0.596439
0.596804
0.596572
0.595763
0.594387
0.592459
0.590047
0.587297
0.584564
0.599324
0.600578
0.601021
0.600677
0.599516
0.597486
0.594518
0.590584
0.585733
0.580917
0.602035
0.603522
0.604044
0.603644
0.602251
0.59974
0.595897
0.5905
0.583261
0.575623
0.603507
0.605216
0.605845
0.605463
0.60396
0.60115
0.596642
0.589975
0.580207
0.569148
0.605501
0.607394
0.608128
0.607827
0.606335
0.603425
0.598515
0.590893
0.578741
0.564101
0.606552
0.608569
0.60939
0.609163
0.607715
0.6048
0.599666
0.591382
0.577092
0.558976
0.608056
0.610185
0.611082
0.610955
0.609599
0.606774
0.601584
0.592906
0.576842
0.555473
0.608574
0.610738
0.61164
0.611485
0.610102
0.607272
0.602045
0.593189
0.575863
0.551659
0.609254
0.611439
0.612379
0.612285
0.610979
0.608241
0.603076
0.594195
0.576255
0.548998
0.606393
0.608434
0.609178
0.608705
0.606916
0.603618
0.597932
0.588532
0.570374
0.541063
0.592717
0.593527
0.593788
0.593629
0.593079
0.592173
0.590958
0.589527
0.588011
0.586539
0.596105
0.597076
0.597423
0.597155
0.596268
0.594765
0.592668
0.590069
0.587161
0.584545
0.598265
0.599531
0.599978
0.599635
0.598466
0.596429
0.593464
0.589583
0.584888
0.58043
0.599505
0.601055
0.601623
0.601257
0.599892
0.597428
0.593679
0.588515
0.581735
0.574867
0.601366
0.603156
0.603834
0.603505
0.602053
0.599329
0.594986
0.588714
0.579799
0.570189
0.602403
0.604366
0.605142
0.604852
0.603359
0.600477
0.595695
0.588519
0.57753
0.565037
0.603939
0.606051
0.606906
0.606687
0.605217
0.602291
0.597242
0.58939
0.576525
0.561129
0.604545
0.606716
0.607592
0.607349
0.605831
0.602826
0.597579
0.589264
0.574901
0.556772
0.605345
0.607544
0.608451
0.608252
0.606777
0.603804
0.598495
0.589889
0.574562
0.553459
0.602681
0.604748
0.605529
0.60507
0.603264
0.5999
0.594205
0.585108
0.569286
0.545995
0.590919
0.591512
0.591691
0.591591
0.591243
0.590683
0.589955
0.589136
0.588302
0.587448
0.593796
0.5945
0.594756
0.594566
0.593936
0.592893
0.591494
0.589846
0.588128
0.586686
0.595402
0.596408
0.596769
0.596499
0.595587
0.594039
0.591878
0.589209
0.586245
0.58364
0.596337
0.597654
0.598139
0.597821
0.596669
0.594648
0.591711
0.587907
0.583363
0.579129
0.59795
0.599543
0.600143
0.599825
0.598516
0.596139
0.592531
0.58764
0.58136
0.575153
0.598866
0.600674
0.601379
0.601069
0.599651
0.597002
0.59283
0.586957
0.578877
0.570469
0.600342
0.602334
0.603123
0.602856
0.601395
0.598589
0.594003
0.587307
0.577493
0.566745
0.60095
0.603031
0.603854
0.603561
0.602024
0.59907
0.594162
0.586831
0.575533
0.562463
0.601818
0.603943
0.604795
0.604532
0.603002
0.600019
0.59495
0.587169
0.574794
0.559198
0.599307
0.601317
0.602094
0.601654
0.599896
0.596627
0.591244
0.582985
0.569975
0.552475
0.589666
0.590108
0.590229
0.590171
0.589961
0.589629
0.589206
0.588744
0.588276
0.587719
0.592149
0.592636
0.592817
0.59269
0.592268
0.59158
0.590683
0.589666
0.588652
0.587829
0.593268
0.594023
0.594299
0.594101
0.59343
0.592313
0.590808
0.589031
0.587178
0.585635
0.593897
0.594954
0.595349
0.595094
0.594178
0.592609
0.590415
0.587713
0.584722
0.582108
0.595207
0.596552
0.597058
0.596779
0.59567
0.593711
0.59086
0.587197
0.582882
0.578897
0.595938
0.597522
0.598136
0.597841
0.596576
0.594283
0.59083
0.586228
0.58046
0.57487
0.597289
0.599086
0.599788
0.599509
0.59815
0.595621
0.591677
0.586228
0.57899
0.571617
0.597826
0.599737
0.600485
0.600175
0.598714
0.595981
0.591644
0.585496
0.576935
0.567735
0.598721
0.600696
0.601474
0.601182
0.599696
0.596879
0.592309
0.585642
0.576051
0.564894
0.596321
0.598198
0.598937
0.598525
0.596877
0.593839
0.588992
0.58187
0.571623
0.558997
0.588766
0.58911
0.589193
0.589161
0.589038
0.588847
0.588606
0.588347
0.588077
0.587672
0.590968
0.591294
0.591419
0.591339
0.591068
0.590632
0.590074
0.589457
0.588855
0.588367
0.591686
0.592229
0.592431
0.592293
0.591823
0.591052
0.590041
0.588888
0.587736
0.586806
0.592058
0.592869
0.593176
0.592982
0.59229
0.591127
0.58955
0.587687
0.58574
0.584113
0.593057
0.594141
0.594551
0.594321
0.59343
0.591891
0.589731
0.587078
0.584159
0.581604
0.593579
0.594905
0.595419
0.595158
0.59409
0.5922
0.589465
0.585989
0.581954
0.578265
0.594774
0.596326
0.596928
0.596665
0.59547
0.593303
0.590064
0.5858
0.580589
0.575594
0.595183
0.596865
0.597521
0.597222
0.595905
0.593504
0.589846
0.584904
0.578597
0.572237
0.596078
0.597845
0.598533
0.598241
0.596874
0.594348
0.590419
0.584955
0.577752
0.569966
0.593749
0.595433
0.596108
0.595733
0.594245
0.591539
0.58736
0.581479
0.573677
0.564852
0.588095
0.588377
0.588436
0.588421
0.58835
0.588242
0.588106
0.587961
0.587798
0.587474
0.590106
0.590323
0.590409
0.590361
0.590193
0.589924
0.589585
0.589214
0.58885
0.588542
0.590509
0.590887
0.591029
0.590939
0.590622
0.590109
0.589449
0.588716
0.588002
0.587426
0.590695
0.591293
0.591523
0.591384
0.590883
0.590053
0.588957
0.587703
0.586445
0.585419
0.591405
0.592243
0.592562
0.592383
0.591699
0.590539
0.58896
0.587092
0.585144
0.5835
0.591723
0.592788
0.593202
0.592986
0.592124
0.590634
0.588548
0.586003
0.583227
0.580801
0.592757
0.594045
0.594544
0.594314
0.593312
0.591538
0.588982
0.585755
0.582076
0.578723
0.592999
0.594422
0.594977
0.594707
0.593576
0.591559
0.588599
0.584768
0.580229
0.575898
0.593887
0.59541
0.595998
0.595728
0.59453
0.592367
0.589126
0.584816
0.579546
0.574222
0.591596
0.593048
0.593641
0.593311
0.592018
0.589703
0.586237
0.581564
0.575793
0.569784
0.58758
0.587823
0.587866
0.58786
0.58782
0.587759
0.587683
0.5876
0.587497
0.587219
0.589466
0.589612
0.589672
0.589646
0.589544
0.589382
0.589178
0.588955
0.588728
0.588518
0.589621
0.589877
0.589975
0.589918
0.589712
0.589381
0.588961
0.588502
0.588059
0.58769
0.589697
0.590125
0.590293
0.590197
0.589847
0.589275
0.588534
0.587707
0.586897
0.586238
0.590156
0.59078
0.591018
0.590885
0.59038
0.589538
0.588419
0.587137
0.585851
0.584788
0.590296
0.591118
0.591439
0.591268
0.590602
0.589472
0.587934
0.586121
0.584239
0.582647
0.591184
0.592214
0.592613
0.592422
0.591619
0.590225
0.588277
0.585909
0.583356
0.58112
0.591235
0.592392
0.592844
0.592614
0.591683
0.590058
0.587749
0.584877
0.581678
0.578765
0.592125
0.59339
0.593876
0.593641
0.592636
0.59086
0.588287
0.585001
0.581233
0.577652
0.589845
0.591047
0.591548
0.591269
0.590187
0.588281
0.585512
0.581925
0.577765
0.573767
0.587173
0.58739
0.587422
0.587421
0.587398
0.587365
0.587321
0.587274
0.587204
0.586956
0.588984
0.589086
0.58913
0.589116
0.589056
0.58896
0.588838
0.588702
0.588553
0.588395
0.588933
0.589105
0.589171
0.589136
0.589005
0.588797
0.588537
0.588253
0.587976
0.587728
0.588975
0.589274
0.589393
0.58933
0.589095
0.588712
0.588222
0.587685
0.587164
0.586728
0.589219
0.589669
0.589841
0.589746
0.589386
0.588794
0.588025
0.587164
0.586324
0.58563
0.589218
0.58983
0.590071
0.589942
0.589447
0.588619
0.587519
0.586261
0.585001
0.583955
0.58999
0.590785
0.591092
0.590943
0.590324
0.589268
0.587833
0.586142
0.584398
0.582914
0.589835
0.590741
0.591096
0.590908
0.590173
0.588913
0.587173
0.585085
0.582873
0.580937
0.590753
0.591768
0.592154
0.591961
0.591153
0.589751
0.58778
0.585353
0.582715
0.580339
0.588463
0.589417
0.589824
0.589597
0.588725
0.587214
0.585077
0.582414
0.579485
0.576882
0.586845
0.587042
0.587067
0.587068
0.587055
0.587036
0.587012
0.586984
0.586935
0.586709
0.58862
0.588697
0.588731
0.588725
0.58869
0.588632
0.588559
0.588474
0.58837
0.588237
0.58838
0.588496
0.58854
0.588518
0.588438
0.58831
0.588152
0.587979
0.587804
0.587627
0.588457
0.588664
0.588747
0.588708
0.588554
0.588304
0.587987
0.587643
0.587307
0.587007
0.58852
0.588834
0.588954
0.588888
0.588641
0.588238
0.587722
0.587157
0.586615
0.586155
0.588417
0.588858
0.589033
0.588939
0.588584
0.587997
0.587233
0.58638
0.585548
0.584859
0.589107
0.589699
0.589928
0.589816
0.589358
0.588586
0.587561
0.586384
0.585214
0.58423
0.588737
0.589418
0.589687
0.58954
0.588982
0.588041
0.586772
0.585297
0.583797
0.582524
0.589723
0.59051
0.590807
0.590656
0.590031
0.588966
0.587507
0.585767
0.583957
0.582398
0.5874
0.588126
0.588445
0.588267
0.58759
0.586436
0.584842
0.582926
0.58091
0.579253
0.586574
0.586754
0.586773
0.586776
0.586768
0.586758
0.586744
0.586727
0.586691
0.586485
0.588354
0.588416
0.588444
0.588442
0.588422
0.588388
0.588343
0.588287
0.588207
0.588086
0.587917
0.587995
0.588023
0.58801
0.587961
0.587885
0.587791
0.587688
0.587576
0.587441
0.588092
0.588235
0.588293
0.58827
0.588171
0.588012
0.587811
0.587592
0.587375
0.587157
0.587998
0.588212
0.588293
0.588248
0.588083
0.587816
0.58748
0.587117
0.586771
0.586461
0.587832
0.58814
0.588263
0.588197
0.587951
0.587548
0.587032
0.586467
0.585925
0.585469
0.58847
0.588897
0.589062
0.588981
0.588653
0.588109
0.587398
0.586601
0.585829
0.585177
0.587876
0.588369
0.588564
0.588455
0.588046
0.587367
0.586471
0.585459
0.584461
0.583634
0.588987
0.589577
0.589797
0.589684
0.58922
0.58844
0.587395
0.586183
0.584968
0.583953
0.5866
0.587128
0.587369
0.587234
0.586729
0.585878
0.584729
0.583392
0.582035
0.581006
0.586338
0.586502
0.586515
0.586518
0.586514
0.586508
0.5865
0.58649
0.586464
0.586278
0.588178
0.588231
0.588255
0.588256
0.588244
0.588223
0.588195
0.588155
0.58809
0.587972
0.587508
0.587561
0.587578
0.587569
0.58754
0.587496
0.587442
0.587383
0.587311
0.587202
0.587843
0.587941
0.587981
0.587968
0.587908
0.587808
0.587683
0.587545
0.587403
0.587237
0.587611
0.587751
0.587804
0.587775
0.587667
0.587496
0.587282
0.587055
0.586837
0.586625
0.587416
0.587625
0.587709
0.587665
0.5875
0.587231
0.586891
0.586525
0.586177
0.585872
0.588022
0.588319
0.588434
0.588377
0.588151
0.58778
0.587303
0.586777
0.586278
0.585846
0.587192
0.587535
0.587672
0.587594
0.587305
0.586832
0.586218
0.585542
0.584891
0.584363
0.588497
0.588926
0.589084
0.589003
0.588671
0.58812
0.587397
0.586576
0.585778
0.585121
0.585996
0.586362
0.586537
0.586439
0.586076
0.585472
0.58467
0.583765
0.582872
0.582253
0.586095
0.586241
0.58625
0.586253
0.586251
0.586248
0.586244
0.586237
0.586219
0.586055
0.588095
0.588145
0.588165
0.588168
0.588161
0.588147
0.588127
0.588097
0.58804
0.58792
0.587131
0.587165
0.587174
0.587168
0.587151
0.587126
0.587097
0.587064
0.587019
0.586929
0.587681
0.58775
0.587777
0.58777
0.587733
0.587672
0.587596
0.587511
0.587419
0.587287
0.587331
0.587422
0.587456
0.587437
0.587369
0.587262
0.587129
0.58699
0.586855
0.586707
0.587139
0.587278
0.587333
0.587305
0.587198
0.587024
0.586806
0.586573
0.586352
0.586147
0.587717
0.587915
0.587991
0.587953
0.587802
0.587557
0.587247
0.58691
0.586598
0.586313
0.586641
0.586871
0.586965
0.586911
0.586714
0.586395
0.585986
0.585546
0.585127
0.584798
0.58822
0.588523
0.588632
0.588576
0.588348
0.587973
0.587488
0.586948
0.586437
0.586011
0.585501
0.585742
0.585867
0.585799
0.585547
0.585133
0.58459
0.583997
0.58342
0.583063
0.585745
0.585869
0.585874
0.585876
0.585875
0.585874
0.585873
0.58587
0.585859
0.585722
0.588129
0.588176
0.588194
0.588197
0.588193
0.588183
0.588169
0.588144
0.588092
0.587969
0.58678
0.586802
0.586807
0.586802
0.586792
0.586779
0.586764
0.586747
0.586718
0.586644
0.587589
0.587635
0.587651
0.587647
0.587625
0.587589
0.587544
0.587494
0.587436
0.587333
0.587151
0.587209
0.58723
0.587219
0.587178
0.587112
0.587031
0.586947
0.586864
0.58676
0.586987
0.587078
0.587115
0.587098
0.58703
0.58692
0.586783
0.586637
0.586498
0.586359
0.587524
0.58765
0.587697
0.587671
0.587573
0.587417
0.587222
0.587014
0.586826
0.586644
0.586219
0.58637
0.586434
0.586399
0.58627
0.58606
0.585793
0.585511
0.585241
0.585042
0.588149
0.588356
0.588429
0.588391
0.58824
0.587993
0.587678
0.587334
0.587015
0.586737
0.58498
0.585132
0.58522
0.585174
0.585005
0.58473
0.584373
0.583994
0.583625
0.583433
0.585064
0.585161
0.585163
0.585164
0.585164
0.585165
0.585166
0.585166
0.585163
0.585058
0.588345
0.58839
0.588404
0.588406
0.588403
0.588396
0.588385
0.588365
0.588321
0.588196
0.5865
0.586517
0.586523
0.586522
0.586517
0.586509
0.586499
0.586487
0.586465
0.586403
0.587547
0.587574
0.587581
0.587577
0.587563
0.587542
0.587518
0.587491
0.58746
0.587385
0.587066
0.587104
0.587119
0.587114
0.587089
0.587049
0.586999
0.586947
0.586895
0.58682
0.586953
0.587013
0.587038
0.587028
0.586985
0.586917
0.586831
0.58674
0.586651
0.586556
0.587429
0.587503
0.58753
0.587511
0.587449
0.587351
0.587231
0.587107
0.587
0.586892
0.586003
0.586105
0.586151
0.58613
0.586047
0.585911
0.585738
0.585555
0.585373
0.585248
0.588336
0.588471
0.588518
0.588491
0.588393
0.588234
0.588036
0.587822
0.587633
0.587449
0.584205
0.584299
0.584361
0.584331
0.584221
0.584042
0.58381
0.583571
0.583328
0.583235
0.583738
0.583806
0.583809
0.583812
0.583813
0.583814
0.583813
0.583812
0.583811
0.583738
0.588882
0.588914
0.588914
0.58891
0.588905
0.588901
0.588898
0.588891
0.588867
0.58876
0.586402
0.586427
0.586442
0.586448
0.586448
0.58644
0.586428
0.58641
0.586381
0.58632
0.587525
0.587535
0.587535
0.587529
0.58752
0.587507
0.587494
0.587482
0.587471
0.587429
0.587059
0.587087
0.587099
0.587097
0.587082
0.587057
0.587024
0.586988
0.586952
0.586899
0.587005
0.587046
0.587063
0.587058
0.587031
0.586987
0.586931
0.586871
0.586811
0.586746
0.587407
0.587448
0.587463
0.587449
0.587409
0.587346
0.58727
0.587195
0.587134
0.587079
0.586144
0.586224
0.586261
0.58625
0.586196
0.586106
0.585989
0.585862
0.585727
0.585627
0.588905
0.588982
0.589008
0.588988
0.588921
0.588818
0.588691
0.588562
0.588459
0.588355
0.582898
0.582963
0.583008
0.582988
0.582915
0.582796
0.582643
0.582486
0.582314
0.582267
0.581874
0.581916
0.581929
0.581936
0.581938
0.581936
0.581928
0.581914
0.581897
0.581839
0.589775
0.589756
0.58973
0.589712
0.589703
0.589703
0.589712
0.589731
0.589755
0.58973
0.586551
0.586595
0.586622
0.586635
0.586638
0.58663
0.586612
0.586583
0.586538
0.586465
0.587479
0.587477
0.587473
0.587467
0.58746
0.587451
0.587442
0.587436
0.587435
0.587425
0.587079
0.587102
0.587113
0.587113
0.587102
0.587083
0.587057
0.587028
0.586997
0.586959
0.587066
0.587098
0.587112
0.587108
0.587089
0.587056
0.587015
0.586969
0.586923
0.586876
0.587394
0.587421
0.587431
0.587421
0.587391
0.587345
0.587289
0.587234
0.587192
0.587166
0.586631
0.586705
0.586738
0.586732
0.586693
0.586625
0.586538
0.586438
0.586324
0.586216
0.589831
0.589862
0.589874
0.589856
0.589806
0.589729
0.589638
0.589552
0.589501
0.589493
0.581179
0.581238
0.581272
0.581258
0.581203
0.581113
0.581
0.580883
0.580753
0.580708
0.438106
0.41739
0.424288
0.465198
0.390459
0.367252
0.378262
0.435443
0.347413
0.320289
0.337567
0.416423
0.309469
0.280083
0.304329
0.405581
0.278088
0.248017
0.279463
0.403212
0.251101
0.221539
0.261305
0.399991
0.229442
0.201725
0.250253
0.397339
0.209112
0.184893
0.242234
0.395228
0.191226
0.173071
0.238656
0.396845
0.171813
0.161765
0.234328
0.392301
0.498081
0.487881
0.488199
0.497899
0.467651
0.455031
0.456158
0.468807
0.436888
0.420162
0.42234
0.439864
0.407984
0.387006
0.390554
0.413211
0.38342
0.357936
0.363128
0.391117
0.361474
0.331086
0.33697
0.37019
0.343671
0.308283
0.313976
0.35228
0.327305
0.287106
0.292324
0.335609
0.313843
0.269597
0.274329
0.322003
0.29857
0.251876
0.254177
0.304385
0.565247
0.563016
0.562484
0.563625
0.547485
0.543772
0.543068
0.545363
0.527593
0.521686
0.520863
0.525179
0.505473
0.497193
0.496371
0.503175
0.484579
0.473842
0.473185
0.482879
0.463595
0.450263
0.449808
0.462493
0.444738
0.428732
0.428441
0.444063
0.426182
0.40762
0.40746
0.42584
0.41
0.389748
0.38962
0.409918
0.391174
0.371385
0.370519
0.390343
0.577646
0.576545
0.576195
0.576555
0.567963
0.566531
0.566034
0.566401
0.556183
0.553683
0.552955
0.553848
0.54152
0.537717
0.536798
0.538507
0.527184
0.521932
0.520896
0.523727
0.511705
0.504873
0.503774
0.507991
0.497179
0.488696
0.487575
0.493379
0.481938
0.471878
0.47079
0.478261
0.467786
0.456774
0.455727
0.464496
0.450039
0.440057
0.43874
0.447046
0.584475
0.583868
0.583666
0.583864
0.578576
0.578078
0.577843
0.577858
0.571161
0.570207
0.569776
0.569846
0.561163
0.559516
0.558853
0.559112
0.551304
0.548789
0.547904
0.548522
0.540094
0.536567
0.535486
0.536645
0.529437
0.52481
0.523574
0.525464
0.517721
0.512015
0.510695
0.51346
0.506614
0.500249
0.498921
0.502471
0.491957
0.486722
0.48526
0.488256
0.587041
0.58655
0.586402
0.586597
0.583522
0.583298
0.583184
0.58318
0.578491
0.57806
0.577837
0.577818
0.571366
0.570595
0.57021
0.570197
0.564406
0.563166
0.562589
0.562635
0.556173
0.554337
0.553554
0.553739
0.548416
0.545891
0.544913
0.545347
0.539582
0.536347
0.535228
0.536031
0.531213
0.527525
0.526365
0.527578
0.5194
0.516824
0.515582
0.516126
0.58817
0.587724
0.587599
0.587795
0.586217
0.586114
0.586059
0.586051
0.582727
0.582524
0.582412
0.58239
0.577448
0.577071
0.576863
0.576822
0.572335
0.571707
0.571371
0.571316
0.566065
0.565101
0.564608
0.564559
0.560292
0.558918
0.558257
0.558258
0.553553
0.551736
0.550933
0.551055
0.547439
0.545307
0.544443
0.544759
0.537869
0.536849
0.535936
0.535488
0.588518
0.588088
0.587972
0.58817
0.587577
0.587521
0.58749
0.587485
0.585158
0.585053
0.584994
0.584981
0.581224
0.581026
0.580912
0.580882
0.577409
0.577073
0.576881
0.576831
0.572524
0.571997
0.571702
0.571632
0.568152
0.567384
0.56697
0.566891
0.562929
0.561896
0.561371
0.561317
0.558561
0.557321
0.55673
0.556751
0.550631
0.550524
0.549918
0.549135
0.588498
0.588074
0.587962
0.588161
0.588217
0.588183
0.588164
0.58816
0.586536
0.586478
0.586444
0.586436
0.583614
0.583503
0.583437
0.583418
0.580768
0.58058
0.580469
0.580436
0.576947
0.576647
0.576472
0.576419
0.573642
0.5732
0.572947
0.572876
0.569547
0.568949
0.568619
0.568545
0.566444
0.565716
0.565332
0.56528
0.559745
0.560162
0.559791
0.558937
0.588304
0.587881
0.58777
0.58797
0.588441
0.588418
0.588404
0.588401
0.587258
0.587223
0.587202
0.587197
0.585111
0.585043
0.585003
0.58499
0.582996
0.582883
0.582817
0.582796
0.580013
0.579835
0.579729
0.579695
0.577563
0.577299
0.577144
0.577096
0.574328
0.573972
0.573768
0.573712
0.572167
0.57173
0.571488
0.571438
0.566416
0.567119
0.566908
0.566076
0.58804
0.587615
0.587504
0.587707
0.588439
0.588419
0.588408
0.588406
0.587574
0.587549
0.587536
0.587533
0.586029
0.585983
0.585956
0.585949
0.584459
0.584387
0.584345
0.584334
0.582144
0.582031
0.581964
0.581945
0.580387
0.580221
0.580124
0.580096
0.577803
0.577584
0.577458
0.577423
0.576384
0.576114
0.575963
0.575931
0.571369
0.572215
0.572104
0.57132
0.58776
0.587332
0.587221
0.587427
0.588322
0.588303
0.588293
0.588292
0.587637
0.587618
0.587608
0.587608
0.58657
0.586535
0.586516
0.586513
0.585398
0.585347
0.58532
0.585316
0.583611
0.583534
0.583491
0.583482
0.582419
0.582308
0.582246
0.582233
0.580316
0.580175
0.580096
0.580078
0.579508
0.579334
0.57924
0.579226
0.575062
0.575963
0.575912
0.575184
0.587489
0.587057
0.586947
0.587156
0.588161
0.588141
0.588131
0.58813
0.587546
0.587528
0.58752
0.587523
0.586873
0.586843
0.586828
0.586828
0.585975
0.585936
0.585918
0.585919
0.584604
0.584548
0.584519
0.584518
0.583872
0.583793
0.583752
0.58375
0.582102
0.582006
0.581956
0.581951
0.58182
0.581703
0.581644
0.581644
0.577808
0.578707
0.57869
0.578019
0.587237
0.586801
0.586692
0.586905
0.588
0.587978
0.587967
0.587968
0.587361
0.587343
0.587336
0.587341
0.587032
0.587003
0.58699
0.586993
0.586309
0.586276
0.586263
0.586269
0.585264
0.585218
0.585198
0.585204
0.5849
0.58484
0.584812
0.584818
0.583332
0.583263
0.58323
0.583235
0.583527
0.583443
0.583406
0.583416
0.579829
0.580689
0.580689
0.58008
0.586995
0.586556
0.586449
0.586667
0.587871
0.587846
0.587834
0.587836
0.587117
0.587098
0.587092
0.587099
0.58711
0.587081
0.58707
0.587076
0.586485
0.586454
0.586444
0.586455
0.585695
0.585654
0.58564
0.585651
0.58562
0.58557
0.585552
0.585565
0.584134
0.584081
0.58406
0.584072
0.584788
0.584724
0.584701
0.584719
0.581286
0.582078
0.582086
0.581542
0.586732
0.586291
0.586189
0.586412
0.587802
0.587772
0.587759
0.587763
0.586836
0.586815
0.58681
0.58682
0.587155
0.587124
0.587114
0.587125
0.58657
0.586539
0.586532
0.586547
0.585983
0.585945
0.585935
0.585951
0.586122
0.586081
0.586069
0.586087
0.584617
0.584573
0.584559
0.584575
0.585738
0.585686
0.585672
0.585696
0.582278
0.582979
0.582989
0.582518
0.586348
0.585912
0.585818
0.586045
0.58783
0.587795
0.587781
0.587786
0.586542
0.586518
0.586513
0.586527
0.587196
0.587164
0.587156
0.587171
0.586621
0.58659
0.586584
0.586603
0.586203
0.586166
0.586157
0.586177
0.586483
0.586448
0.586441
0.586464
0.584888
0.584849
0.584839
0.584858
0.586506
0.586461
0.586452
0.586481
0.582819
0.583407
0.583415
0.583024
0.585617
0.585199
0.58512
0.585346
0.588035
0.587995
0.587979
0.587988
0.586287
0.58626
0.586255
0.586271
0.587251
0.58722
0.587214
0.587234
0.586682
0.58665
0.586645
0.586667
0.586408
0.586372
0.586366
0.586388
0.586765
0.586736
0.586734
0.586757
0.585101
0.585063
0.585054
0.585074
0.587254
0.587214
0.587209
0.58724
0.582784
0.583237
0.583241
0.58294
0.584194
0.583827
0.58377
0.583978
0.588583
0.58854
0.588527
0.588543
0.586182
0.586149
0.586141
0.586157
0.587314
0.587287
0.587285
0.587308
0.58677
0.586739
0.586735
0.586757
0.586616
0.586583
0.586577
0.5866
0.586994
0.586974
0.586974
0.586996
0.585456
0.585412
0.585402
0.585424
0.588219
0.588188
0.588187
0.588218
0.581945
0.582232
0.58223
0.582037
0.582103
0.581873
0.581847
0.581978
0.589598
0.589568
0.589568
0.589597
0.586299
0.58626
0.586247
0.586259
0.587354
0.587335
0.587337
0.587359
0.586857
0.586831
0.586827
0.586844
0.586776
0.58675
0.586746
0.586764
0.587133
0.587122
0.587123
0.587137
0.585995
0.585941
0.585929
0.585955
0.589523
0.589521
0.589527
0.589542
0.580428
0.5805
0.580496
0.580452
0.593884
0.60232
0.606316
0.609399
0.612506
0.61525
0.617477
0.619217
0.620579
0.621729
0.594727
0.598031
0.605412
0.610411
0.61484
0.618198
0.620642
0.622397
0.623641
0.6246
0.598524
0.594839
0.605777
0.611436
0.616673
0.62023
0.622769
0.624573
0.625819
0.62672
0.60188
0.590917
0.605501
0.611028
0.61685
0.620366
0.622901
0.624666
0.625879
0.626754
0.606281
0.588858
0.606205
0.611491
0.617776
0.621159
0.623676
0.625365
0.626496
0.627292
0.60929
0.586153
0.605935
0.61077
0.617532
0.620747
0.62329
0.624938
0.626078
0.626915
0.613216
0.584846
0.606749
0.610895
0.618088
0.621057
0.623627
0.625223
0.626335
0.627143
0.614723
0.581769
0.605758
0.609158
0.616876
0.619662
0.6224
0.624081
0.625391
0.626428
0.616351
0.580274
0.606198
0.608263
0.616124
0.618446
0.621418
0.623253
0.624769
0.625997
0.600803
0.564442
0.592998
0.595405
0.605138
0.609045
0.613722
0.616852
0.619421
0.621438
0.536547
0.558566
0.574871
0.586463
0.594401
0.599927
0.603921
0.606903
0.609207
0.611127
0.522767
0.553241
0.575262
0.58915
0.597962
0.603923
0.608146
0.61121
0.613448
0.615118
0.512497
0.550083
0.576326
0.591269
0.60067
0.606893
0.611252
0.614374
0.6166
0.618199
0.504118
0.547049
0.576497
0.591767
0.601577
0.607881
0.612253
0.615341
0.617525
0.619082
0.499657
0.546218
0.577749
0.593093
0.603206
0.609472
0.613795
0.616792
0.618878
0.620347
0.496461
0.545137
0.578171
0.593298
0.60367
0.609829
0.614105
0.617022
0.619072
0.620544
0.496046
0.545552
0.579683
0.594306
0.604863
0.610815
0.615024
0.617847
0.619836
0.621264
0.495236
0.544593
0.579648
0.59359
0.604356
0.610104
0.614346
0.617188
0.619298
0.620895
0.495725
0.544911
0.580828
0.593512
0.604074
0.609352
0.613694
0.616661
0.618942
0.620723
0.48665
0.53489
0.571559
0.583755
0.59534
0.601642
0.607181
0.611081
0.614125
0.616388
0.567557
0.57382
0.579879
0.585236
0.589804
0.593624
0.596787
0.5994
0.601588
0.603481
0.55426
0.565616
0.575764
0.584058
0.590699
0.595927
0.600006
0.603177
0.605634
0.607514
0.541206
0.558318
0.572632
0.583472
0.591743
0.597962
0.602644
0.606176
0.60882
0.610768
0.528103
0.550931
0.569225
0.58217
0.591711
0.59859
0.603625
0.607339
0.610081
0.612072
0.518222
0.546107
0.567831
0.582364
0.592829
0.600099
0.605308
0.609073
0.611814
0.61378
0.509404
0.541601
0.566275
0.581943
0.593094
0.600577
0.605873
0.609646
0.612393
0.614381
0.503398
0.539096
0.566234
0.5826
0.59422
0.601747
0.607053
0.610785
0.613504
0.615469
0.497726
0.536078
0.565291
0.58198
0.593928
0.601414
0.606754
0.610515
0.613325
0.61542
0.494048
0.534755
0.5657
0.582053
0.593888
0.601092
0.606494
0.610358
0.6133
0.615543
0.483993
0.525884
0.558032
0.574329
0.586867
0.5948
0.601023
0.605554
0.60903
0.611549
0.577315
0.579727
0.582623
0.58556
0.588327
0.590831
0.593044
0.594981
0.596692
0.598254
0.568459
0.573214
0.578612
0.583739
0.588261
0.592107
0.595318
0.597965
0.600117
0.601824
0.557978
0.566024
0.574403
0.581797
0.587993
0.59304
0.597096
0.600323
0.602851
0.604782
0.545733
0.557793
0.5695
0.579148
0.586874
0.592912
0.597613
0.601257
0.604059
0.606164
0.535103
0.551449
0.566437
0.578092
0.587098
0.593886
0.599029
0.602925
0.605875
0.608055
0.524537
0.54519
0.563304
0.57667
0.586728
0.594065
0.599516
0.603576
0.606633
0.608895
0.516048
0.540824
0.561792
0.576515
0.587383
0.595072
0.600706
0.604845
0.607947
0.61023
0.507712
0.536241
0.559754
0.575467
0.586937
0.594831
0.600605
0.604837
0.608045
0.610446
0.501243
0.533388
0.559093
0.575204
0.586875
0.594752
0.600643
0.604985
0.608301
0.61082
0.490398
0.525117
0.552266
0.568766
0.581079
0.589525
0.595994
0.600811
0.604498
0.60714
0.58377
0.584544
0.585708
0.587068
0.588497
0.589908
0.59125
0.5925
0.593678
0.594836
0.578345
0.580205
0.582721
0.58544
0.588105
0.59058
0.592801
0.594742
0.596396
0.597757
0.570844
0.574236
0.578533
0.582908
0.586985
0.590598
0.593702
0.596306
0.598442
0.600139
0.561107
0.566701
0.573251
0.57949
0.585023
0.58972
0.593615
0.596792
0.599341
0.601328
0.55206
0.560328
0.569368
0.577481
0.584375
0.590008
0.594539
0.598142
0.600981
0.603153
0.542328
0.5536
0.56524
0.575139
0.58326
0.589675
0.594711
0.59864
0.601706
0.604041
0.533934
0.548392
0.562607
0.574104
0.583266
0.590285
0.59569
0.599839
0.60305
0.605471
0.52529
0.542956
0.559617
0.57245
0.58245
0.58991
0.595599
0.599936