/*--------------------------------*- C++ -*----------------------------------*\
| =========                 |                                                 |
| \\      /  F ield         | foam-extend: Open Source CFD                    |
|  \\    /   O peration     | Version:     4.0                                |
|   \\  /    A nd           | Web:         http://www.foam-extend.org         |
|    \\/     M anipulation  |                                                 |
\*---------------------------------------------------------------------------*/
FoamFile
{
    version     2.0;
    format      ascii;
    class       surfaceScalarField;
    location    "1050";
    object      phi;
}
// * * * * * * * * * * * * * * * * * * * * * * * * * * * * * * * * * * * * * //

dimensions      [1 0 -1 0 0 0 0];

internalField   nonuniform List<scalar> 
97302
(
-0.000109776
9.62498e-07
-0.00086781
0.000877029
-0.000119549
1.15515e-06
-0.00086883
0.000877447
-0.000129434
1.21777e-06
-0.000869369
0.000878037
-0.000140004
1.15986e-06
-0.000869423
0.000878833
-0.000152086
9.72733e-07
-0.000868986
0.000880095
-0.000167159
6.45959e-07
-0.000867838
0.000882265
-0.000188312
1.52587e-07
-0.000865376
0.000886376
-0.000222538
-5.52707e-07
-0.000859782
0.000894561
-0.000271056
-1.59374e-06
-0.000850033
0.000900147
-4.35046e-06
-0.000822566
-0.000352623
0.000908483
-0.000150869
1.64612e-06
-0.00116353
0.00117353
-0.000161089
2.0157e-06
-0.00116453
0.00117389
-0.000171388
2.13991e-06
-0.00116516
0.00117453
-0.000182305
2.05373e-06
-0.00116522
0.00117524
-0.000194638
1.743e-06
-0.00116446
0.00117603
-0.000210102
1.19598e-06
-0.00116251
0.00117742
-0.000232543
3.54649e-07
-0.00115897
0.00118121
-0.000271327
-8.77844e-07
-0.00115223
0.00119134
-0.000328047
-2.80765e-06
-0.00113999
0.00119792
-7.37647e-06
-0.00110217
-0.000432361
0.00120951
-0.000191216
1.99999e-06
-0.00145831
0.00146902
-0.000201719
2.50438e-06
-0.00145938
0.0014694
-0.00021218
2.68952e-06
-0.00146006
0.00146998
-0.000223108
2.61579e-06
-0.00145993
0.0014703
-0.000235436
2.26658e-06
-0.00145867
0.00147047
-0.000251299
1.63146e-06
-0.0014561
0.00147152
-0.000275167
6.31947e-07
-0.00145232
0.00147591
-0.000318123
-8.31923e-07
-0.00144583
0.00148874
-0.0003814
-3.21726e-06
-0.00143275
0.00149644
-9.00969e-06
-0.00138419
-0.000500322
0.00150475
-0.000231537
2.24523e-06
-0.00174944
0.00176058
-0.000242333
2.88644e-06
-0.00175074
0.00176115
-0.000253083
3.14605e-06
-0.00175168
0.00176197
-0.00026432
3.10925e-06
-0.00175176
0.0017625
-0.000277038
2.74884e-06
-0.00175068
0.00176291
-0.000293563
2.05689e-06
-0.00174836
0.00176446
-0.000318694
9.32574e-07
-0.00174492
0.00176975
-0.000364779
-7.17411e-07
-0.00173882
0.00178479
-0.000432743
-3.50306e-06
-0.00172531
0.00179356
-1.04658e-05
-0.0016657
-0.000560464
0.00179487
-0.000271789
2.51285e-06
-0.00204194
0.0020533
-0.000282757
3.21879e-06
-0.0020436
0.00205423
-0.000293673
3.51209e-06
-0.00204503
0.00205558
-0.000305098
3.48878e-06
-0.00204557
0.00205661
-0.000318095
3.11897e-06
-0.00204501
0.00205764
-0.000335107
2.39495e-06
-0.00204333
0.00206
-0.000361231
1.20178e-06
-0.00204055
0.0020664
-0.000409847
-5.46335e-07
-0.00203516
0.00208361
-0.000481754
-3.61092e-06
-0.00202205
0.00209407
-1.16755e-05
-0.0019507
-0.000614985
0.00208514
-0.000312623
2.60223e-06
-0.00233318
0.00234488
-0.000323694
3.32979e-06
-0.00233526
0.00234622
-0.000334675
3.60883e-06
-0.00233704
0.00234793
-0.000346151
3.5575e-06
-0.00233798
0.00234938
-0.000359237
3.15413e-06
-0.00233793
0.00235098
-0.000376464
2.39993e-06
-0.002337
0.00235423
-0.000403203
1.17819e-06
-0.00233517
0.00236193
-0.00045371
-5.79919e-07
-0.00233093
0.00238147
-0.00052893
-3.70132e-06
-0.00231937
0.00239468
-1.26382e-05
-0.00223599
-0.000665735
0.00237376
-0.000353281
2.54755e-06
-0.00262432
0.00263618
-0.000364294
3.18265e-06
-0.00262694
0.0026381
-0.000375193
3.39266e-06
-0.00262924
0.00264035
-0.00038657
3.25856e-06
-0.00263061
0.00264229
-0.000399594
2.78488e-06
-0.00263113
0.00264453
-0.000416827
1.9652e-06
-0.00263103
0.0026487
-0.000443894
7.363e-07
-0.00263036
0.00265787
-0.000495738
-9.21371e-07
-0.00262777
0.00267996
-0.000573747
-3.66547e-06
-0.00261891
0.00269689
-1.28134e-05
-0.00252328
-0.000712573
0.00266228
-0.000395194
2.12385e-06
-0.00291597
0.0029283
-0.000406256
2.57345e-06
-0.00291913
0.0029308
-0.000417149
2.602e-06
-0.00292151
0.00293319
-0.000428469
2.26721e-06
-0.0029228
0.00293512
-0.000441348
1.60466e-06
-0.00292322
0.00293728
-0.000458295
6.12056e-07
-0.0029233
0.0029416
-0.000485082
-6.82814e-07
-0.00292336
0.00295157
-0.000537118
-2.21224e-06
-0.00292227
0.0029756
-0.000616601
-3.99614e-06
-0.00291684
0.00299666
-1.20116e-05
-0.00281079
-0.000755838
0.00294922
-0.000436482
1.10739e-06
-0.00320385
0.00321631
-0.000447119
1.17656e-06
-0.00320782
0.00321986
-0.000457614
8.87559e-07
-0.0032108
0.00322301
-0.000468623
1.58653e-07
-0.00321271
0.00322583
-0.000481321
-8.93365e-07
-0.00321394
0.00322913
-0.000498103
-2.24429e-06
-0.00321506
0.0032347
-0.00052474
-3.71066e-06
-0.00321659
0.00324626
-0.000576508
-5.01764e-06
-0.00321788
0.00327245
-0.000655935
-5.42249e-06
-0.00321496
0.00329581
-1.01292e-05
-0.00309825
-0.000792678
0.00323311
-0.00047796
-0.00347235
0.00348537
-0.000489241
-0.00347579
0.00348825
-0.000500344
-0.0034764
0.00348839
-0.000511961
-0.00347386
0.00348563
-0.00052514
-0.00346882
0.0034811
-0.000542021
-0.00346234
0.00347698
-0.000567849
-0.0034556
0.00347772
-0.000616835
-0.00345009
0.00349406
-0.000689911
-0.003447
0.00351465
-0.0033388
-0.000819012
0.00345777
1.44195e-05
9.0458e-07
-0.000859408
5.37037e-06
1.13222e-06
-0.000860913
-3.70474e-06
1.21596e-06
-0.00086151
-1.29906e-05
1.16182e-06
-0.000861299
-2.26877e-05
9.60307e-07
-0.000860249
-3.30162e-05
5.92782e-07
-0.000858103
-4.41266e-05
2.46345e-08
-0.00085429
-5.54415e-05
-8.2381e-07
-0.000847644
-6.61808e-05
-2.14982e-06
-0.000837144
-3.92234e-06
-0.000820893
-6.39315e-05
1.54694e-05
1.56364e-06
-0.00115377
5.49622e-06
1.98713e-06
-0.00115541
-4.47394e-06
2.14609e-06
-0.00115612
-1.47594e-05
2.07231e-06
-0.00115584
-2.56273e-05
1.74498e-06
-0.00115438
-3.7444e-05
1.14135e-06
-0.00115124
-5.10478e-05
1.98691e-07
-0.00114554
-6.74841e-05
-1.20103e-06
-0.00113542
-8.81583e-05
-3.44776e-06
-0.00111801
-6.52202e-06
-0.00108907
-9.86537e-05
1.68086e-05
1.93502e-06
-0.00144739
6.1374e-06
2.50764e-06
-0.00144923
-4.44962e-06
2.73502e-06
-0.00145007
-1.52871e-05
2.67596e-06
-0.0014497
-2.67161e-05
2.29924e-06
-0.00144779
-3.94753e-05
1.58104e-06
-0.00144378
-5.53102e-05
4.28835e-07
-0.00143671
-7.69496e-05
-1.28107e-06
-0.00142411
-0.000108491
-4.13774e-06
-0.00140052
-8.26167e-06
-0.00135705
-0.000133898
1.8009e-05
2.19881e-06
-0.00173782
6.85493e-06
2.92645e-06
-0.00174
-4.21259e-06
3.23751e-06
-0.00174111
-1.55944e-05
3.22127e-06
-0.00174092
-2.77506e-05
2.83232e-06
-0.00173905
-4.16773e-05
2.04922e-06
-0.00173491
-5.96848e-05
7.38995e-07
-0.00172722
-8.58976e-05
-1.21359e-06
-0.00171267
-0.000127883
-4.60632e-06
-0.00168286
-9.7287e-06
-0.00162308
-0.000169033
1.90982e-05
2.47996e-06
-0.00202988
7.65448e-06
3.2822e-06
-0.00203251
-3.69135e-06
3.63324e-06
-0.00203408
-1.54032e-05
3.63666e-06
-0.00203427
-2.80799e-05
3.24261e-06
-0.00203274
-4.29039e-05
2.42941e-06
-0.00202888
-6.26525e-05
1.025e-06
-0.00202109
-9.27505e-05
-1.07592e-06
-0.0020052
-0.000144712
-4.86098e-06
-0.00196984
-1.08585e-05
-0.00189283
-0.000201459
1.97731e-05
2.60186e-06
-0.00232066
8.14928e-06
3.43493e-06
-0.00232379
-3.32481e-06
3.77926e-06
-0.00232572
-1.51735e-05
3.76481e-06
-0.00232626
-2.81171e-05
3.34802e-06
-0.00232509
-4.35025e-05
2.51714e-06
-0.00232171
-6.45382e-05
1.07981e-06
-0.00231419
-9.78209e-05
-1.05964e-06
-0.00229766
-0.000159186
-4.98763e-06
-0.00225787
-1.16698e-05
-0.00216344
-0.000230926
2.01563e-05
2.53832e-06
-0.00261149
8.55498e-06
3.27705e-06
-0.00261518
-2.86478e-06
3.5571e-06
-0.0026176
-1.46456e-05
3.47197e-06
-0.00261854
-2.76389e-05
3.01681e-06
-0.00261781
-4.33035e-05
2.1624e-06
-0.00261501
-6.52294e-05
7.3258e-07
-0.00260809
-0.000101056
-1.36939e-06
-0.00259163
-0.000171118
-5.0418e-06
-0.0025488
-1.20525e-05
-0.00243702
-0.000256992
1.988e-05
2.13768e-06
-0.00290268
8.27782e-06
2.694e-06
-0.00290694
-3.0319e-06
2.82227e-06
-0.00290946
-1.46404e-05
2.58825e-06
-0.00291031
-2.74557e-05
2.02266e-06
-0.00290941
-4.30115e-05
1.09195e-06
-0.00290667
-6.52001e-05
-2.96887e-07
-0.00290015
-0.000102498
-2.25532e-06
-0.00288409
-0.000179982
-5.05987e-06
-0.00283934
-1.17461e-05
-0.0027114
-0.000279679
1.93514e-05
1.11617e-06
-0.00319028
8.2146e-06
1.26289e-06
-0.00319525
-2.59107e-06
1.10419e-06
-0.00319827
-1.36884e-05
5.2339e-07
-0.00319955
-2.6142e-05
-3.48552e-07
-0.00319911
-4.15967e-05
-1.52114e-06
-0.00319699
-6.41539e-05
-2.93852e-06
-0.00319139
-0.000102785
-4.59446e-06
-0.00317691
-0.00018625
-6.06301e-06
-0.00313049
-9.98947e-06
-0.00298407
-0.000302181
1.82046e-05
-0.00345852
6.81055e-06
-0.00346314
-4.04723e-06
-0.00346444
-1.50701e-05
-0.00346231
-2.72109e-05
-0.00345703
-4.20856e-05
-0.00344899
-6.36299e-05
-0.00343699
-0.000101048
-0.00341727
-0.000185929
-0.00336818
-0.00321437
-0.000320347
1.20489e-05
7.99236e-07
-0.000852788
4.47102e-06
1.042e-06
-0.000854377
-3.227e-06
1.13259e-06
-0.000854945
-1.09559e-05
1.07112e-06
-0.000854641
-1.85936e-05
8.51406e-07
-0.000853463
-2.58969e-05
4.57409e-07
-0.000851257
-3.23159e-05
-1.33238e-07
-0.000847738
-3.65481e-05
-9.59489e-07
-0.000842452
-3.67146e-05
-2.10671e-06
-0.000834871
-3.38873e-06
-0.000825211
-2.90076e-05
1.39277e-05
1.42096e-06
-0.00114534
4.93766e-06
1.86804e-06
-0.00114725
-4.12029e-06
2.03585e-06
-0.00114796
-1.33381e-05
1.95006e-06
-0.0011475
-2.27238e-05
1.59035e-06
-0.00114573
-3.21295e-05
9.31815e-07
-0.00114231
-4.11573e-05
-8.01444e-08
-0.00113656
-4.86578e-05
-1.51994e-06
-0.00112736
-5.21716e-05
-3.60672e-06
-0.001113
-6.04115e-06
-0.00109377
-4.48199e-05
1.60358e-05
1.82695e-06
-0.00143734
5.88472e-06
2.43044e-06
-0.00143964
-4.26844e-06
2.66788e-06
-0.00144055
-1.46218e-05
2.59113e-06
-0.00143998
-2.52738e-05
2.16425e-06
-0.00143771
-3.62922e-05
1.35178e-06
-0.00143318
-4.77938e-05
5.75009e-08
-0.00142535
-5.93138e-05
-1.81839e-06
-0.00141229
-6.84514e-05
-4.69144e-06
-0.0013903
-8.22824e-06
-0.00135828
-6.50295e-05
1.76702e-05
2.14015e-06
-0.00172673
6.73355e-06
2.91023e-06
-0.00172955
-4.1987e-06
3.23414e-06
-0.00173075
-1.54425e-05
3.19635e-06
-0.00173029
-2.72479e-05
2.74504e-06
-0.00172783
-3.99499e-05
1.84239e-06
-0.00172269
-5.41126e-05
3.39078e-07
-0.00171334
-6.99341e-05
-1.88793e-06
-0.00169678
-8.57204e-05
-5.50675e-06
-0.00166625
-1.01521e-05
-0.00161854
-8.83384e-05
1.90535e-05
2.46546e-06
-0.00201809
7.60692e-06
3.31755e-06
-0.00202147
-3.81006e-06
3.68593e-06
-0.00202311
-1.5623e-05
3.6694e-06
-0.00202293
-2.82623e-05
3.21096e-06
-0.00202057
-4.23167e-05
2.26882e-06
-0.00201526
-5.88042e-05
6.38392e-07
-0.0020049
-7.87241e-05
-1.83155e-06
-0.00198534
-0.000101845
-6.07535e-06
-0.00194615
-1.17584e-05
-0.00188082
-0.000112251
1.99674e-05
2.63564e-06
-0.00230822
8.18207e-06
3.5234e-06
-0.00231221
-3.51511e-06
3.88981e-06
-0.00231422
-1.56454e-05
3.8628e-06
-0.00231432
-2.87984e-05
3.38722e-06
-0.00231212
-4.38145e-05
2.42984e-06
-0.00230685
-6.22004e-05
7.55573e-07
-0.00229592
-8.5863e-05
-1.81054e-06
-0.00227402
-0.000116787
-6.40711e-06
-0.00222662
-1.29607e-05
-0.00214261
-0.000136412
2.04954e-05
2.59524e-06
-0.00259857
8.62916e-06
3.38853e-06
-0.00260318
-3.10649e-06
3.69619e-06
-0.00260567
-1.52801e-05
3.61126e-06
-0.00260611
-2.8649e-05
3.12111e-06
-0.00260417
-4.42653e-05
2.1796e-06
-0.00259914
-6.41227e-05
5.49497e-07
-0.00258802
-9.1067e-05
-1.9954e-06
-0.0025645
-0.000129901
-6.55438e-06
-0.00250982
-1.37472e-05
-0.00240663
-0.000159504
2.0305e-05
2.20605e-06
-0.00288925
8.40874e-06
2.81252e-06
-0.00289447
-3.2404e-06
2.98437e-06
-0.0028971
-1.52748e-05
2.79061e-06
-0.00289746
-2.85478e-05
2.24722e-06
-0.00289526
-4.43017e-05
1.30718e-06
-0.00289005
-6.5001e-05
-1.82233e-07
-0.00287871
-9.43897e-05
-2.48934e-06
-0.00285421
-0.000140622
-6.23635e-06
-0.00279343
-1.35801e-05
-0.00267133
-0.000180861
1.96957e-05
1.19694e-06
-0.00317652
8.2474e-06
1.37623e-06
-0.00318237
-2.90291e-06
1.29716e-06
-0.00318544
-1.43931e-05
8.25212e-07
-0.00318609
-2.72357e-05
8.39565e-08
-0.00318411
-4.29155e-05
-9.47666e-07
-0.00317905
-6.44053e-05
-2.26306e-06
-0.00316782
-9.62413e-05
-4.00793e-06
-0.00314356
-0.000148843
-6.28336e-06
-0.00307784
-1.14259e-05
-0.00293416
-0.000200904
1.85421e-05
-0.00344462
7.00629e-06
-0.00345022
-4.03884e-06
-0.0034521
-1.53155e-05
-0.00345021
-2.77279e-05
-0.00344453
-4.27724e-05
-0.00343489
-6.34635e-05
-0.00341856
-9.52255e-05
-0.00338951
-0.000150655
-0.00331903
-0.00316073
-0.000215721
9.35455e-06
6.36074e-07
-0.000848005
3.50141e-06
8.82048e-07
-0.000849406
-2.53712e-06
9.76294e-07
-0.000849883
-8.48825e-06
9.12618e-07
-0.000849602
-1.40463e-05
6.89969e-07
-0.000848595
-1.87898e-05
2.99241e-07
-0.000846812
-2.20774e-05
-2.66779e-07
-0.000844184
-2.28711e-05
-1.01128e-06
-0.000840647
-1.95876e-05
-1.93232e-06
-0.000836222
-2.82112e-06
-0.000831352
-1.06254e-05
1.1764e-05
1.18341e-06
-0.00113858
4.17257e-06
1.64038e-06
-0.00114042
-3.55351e-06
1.81282e-06
-0.00114107
-1.12778e-05
1.71884e-06
-0.00114059
-1.87859e-05
1.34245e-06
-0.00113888
-2.5691e-05
6.65385e-07
-0.00113577
-3.12362e-05
-3.44837e-07
-0.00113094
-3.39055e-05
-1.7122e-06
-0.00112399
-3.08615e-05
-3.50115e-06
-0.00111448
-5.33051e-06
-0.00110389
-1.8236e-05
1.44723e-05
1.61293e-06
-0.00142868
5.33735e-06
2.23261e-06
-0.0014311
-3.87061e-06
2.4728e-06
-0.001432
-1.31552e-05
2.3754e-06
-0.00143136
-2.2413e-05
1.90619e-06
-0.00142902
-3.1353e-05
1.03035e-06
-0.0014246
-3.93003e-05
-3.30833e-07
-0.00141741
-4.46484e-05
-2.23264e-06
-0.00140642
-4.34762e-05
-4.87524e-06
-0.0013901
-7.75252e-06
-0.00137053
-2.8805e-05
1.65447e-05
1.97686e-06
-0.00171673
6.29719e-06
2.77624e-06
-0.00171984
-4.01754e-06
3.1045e-06
-0.00172106
-1.45418e-05
3.03684e-06
-0.00172042
-2.53246e-05
2.52187e-06
-0.00171766
-3.62822e-05
1.51758e-06
-0.00171222
-4.69506e-05
-1.13704e-07
-0.00170289
-5.5751e-05
-2.46658e-06
-0.00168774
-5.78405e-05
-5.97046e-06
-0.00166307
-9.98644e-06
-0.00163115
-4.29939e-05
1.82772e-05
2.35171e-06
-0.00200708
7.24521e-06
3.24306e-06
-0.00201091
-3.8195e-06
3.6202e-06
-0.00201256
-1.51993e-05
3.57136e-06
-0.00201208
-2.71361e-05
3.03805e-06
-0.00200915
-3.9798e-05
1.96918e-06
-0.00200305
-5.30279e-05
1.62401e-07
-0.00199194
-6.54674e-05
-2.53083e-06
-0.00197283
-7.18806e-05
-6.81956e-06
-0.00193888
-1.19762e-05
-0.00189195
-5.87557e-05
1.94909e-05
2.58146e-06
-0.00229634
7.90773e-06
3.51503e-06
-0.00230089
-3.64637e-06
3.89521e-06
-0.00230294
-1.55813e-05
3.84195e-06
-0.00230265
-2.83171e-05
3.29378e-06
-0.00229964
-4.22993e-05
2.20324e-06
-0.0022931
-5.77754e-05
3.23938e-07
-0.00228061
-7.38188e-05
-2.54478e-06
-0.00225797
-8.54836e-05
-7.36834e-06
-0.00221441
-1.35436e-05
-0.00215057
-7.59618e-05
2.02283e-05
2.58547e-06
-0.00258601
8.40948e-06
3.42611e-06
-0.00259127
-3.33045e-06
3.75258e-06
-0.00259379
-1.5481e-05
3.65208e-06
-0.00259377
-2.86513e-05
3.10292e-06
-0.00259081
-4.35483e-05
2.04753e-06
-0.00258409
-6.08834e-05
2.24441e-07
-0.00257059
-8.03035e-05
-2.65321e-06
-0.00254498
-9.78328e-05
-7.6383e-06
-0.00249202
-1.46925e-05
-0.00240999
-9.33269e-05
2.01979e-05
2.22574e-06
-0.00287606
8.27617e-06
2.87564e-06
-0.002882
-3.45239e-06
3.07793e-06
-0.0028847
-1.55635e-05
2.90322e-06
-0.0028846
-2.87801e-05
2.34966e-06
-0.00288129
-4.40591e-05
1.36254e-06
-0.00287408
-6.26411e-05
-2.52227e-07
-0.00285966
-8.48906e-05
-2.85877e-06
-0.00283175
-0.000108482
-7.16222e-06
-0.00277031
-1.46724e-05
-0.0026695
-0.000110329
1.96552e-05
1.24977e-06
-0.00316291
8.12337e-06
1.45704e-06
-0.00316942
-3.16809e-06
1.44277e-06
-0.00317251
-1.47961e-05
1.05546e-06
-0.00317262
-2.7624e-05
4.07006e-07
-0.00316934
-4.2842e-05
-5.39649e-07
-0.00316193
-6.23132e-05
-1.81994e-06
-0.00314678
-8.75186e-05
-3.66841e-06
-0.00311754
-0.000117035
-6.40757e-06
-0.00304908
-1.21314e-05
-0.00292682
-0.00012692
1.85759e-05
-0.00343091
7.07852e-06
-0.00343727
-3.99671e-06
-0.00343958
-1.53312e-05
-0.00343782
-2.77059e-05
-0.00343175
-4.23522e-05
-0.00342079
-6.12352e-05
-0.0034015
-8.69286e-05
-0.00336749
-0.000119692
-0.00329268
-0.00315282
-0.000139732
6.86745e-06
4.5613e-07
-0.000844706
2.60402e-06
6.88884e-07
-0.000845832
-1.86193e-06
7.81271e-07
-0.000846198
-6.20038e-06
7.20765e-07
-0.000845985
-1.00674e-05
5.11222e-07
-0.000845239
-1.30588e-05
1.51565e-07
-0.000843973
-1.46812e-05
-3.50054e-07
-0.000842211
-1.43302e-05
-9.73262e-07
-0.000840025
-1.13335e-05
-1.67375e-06
-0.000837545
-2.28801e-06
-0.000835
-5.39772e-06
9.41605e-06
8.96354e-07
-0.00113344
3.34499e-06
1.34226e-06
-0.001135
-2.90692e-06
1.51255e-06
-0.00113555
-9.06099e-06
1.4168e-06
-0.00113513
-1.47762e-05
1.04474e-06
-0.0011337
-1.95845e-05
3.89528e-07
-0.0011312
-2.27722e-05
-5.54713e-07
-0.00112755
-2.32365e-05
-1.76777e-06
-0.00112273
-1.9313e-05
-3.21076e-06
-0.00111686
-4.5447e-06
-0.0011111
-9.84267e-06
1.24805e-05
1.31853e-06
-0.0014216
4.6488e-06
1.9346e-06
-0.00142386
-3.32104e-06
2.17115e-06
-0.00142469
-1.12491e-05
2.05793e-06
-0.00142407
-1.88632e-05
1.56589e-06
-0.00142193
-2.56937e-05
6.70474e-07
-0.00141805
-3.08669e-05
-6.75695e-07
-0.00141212
-3.28054e-05
-2.47726e-06
-0.00140378
-2.86237e-05
-4.76036e-06
-0.00139273
-6.99796e-06
-0.00138123
-1.54742e-05
1.49016e-05
1.71459e-06
-0.00170813
5.69075e-06
2.52719e-06
-0.00171122
-3.66286e-06
2.85424e-06
-0.00171239
-1.30975e-05
2.75856e-06
-0.00171169
-2.24528e-05
2.19365e-06
-0.00170893
-3.13671e-05
1.124e-06
-0.00170376
-3.89507e-05
-5.54458e-07
-0.00169543
-4.32748e-05
-2.88578e-06
-0.00168301
-4.00217e-05
-6.05743e-06
-0.00166503
-9.34763e-06
-0.00164489
-2.39335e-05
1.69692e-05
2.13082e-06
-0.00199723
6.70651e-06
3.04931e-06
-0.00200117
-3.66231e-06
3.43026e-06
-0.00200277
-1.42202e-05
3.34758e-06
-0.00200211
-2.49776e-05
2.74537e-06
-0.00199894
-3.5763e-05
1.57311e-06
-0.00199271
-4.58039e-05
-3.41333e-07
-0.00198212
-5.29733e-05
-3.10357e-06
-0.00196545
-5.16363e-05
-7.13598e-06
-0.00193914
-1.15518e-05
-0.00190765
-3.37367e-05
1.84982e-05
2.42062e-06
-0.0022854
7.45588e-06
3.39195e-06
-0.0022902
-3.63148e-06
3.78173e-06
-0.00229221
-1.4992e-05
3.69816e-06
-0.00229164
-2.68086e-05
3.07734e-06
-0.00228815
-3.91552e-05
1.86546e-06
-0.00228105
-5.15123e-05
-1.64797e-07
-0.00226843
-6.17689e-05
-3.18841e-06
-0.00224762
-6.33438e-05
-7.87879e-06
-0.00221209
-1.33636e-05
-0.00216697
-4.51251e-05
1.94771e-05
2.48278e-06
-0.00257419
8.01797e-06
3.36691e-06
-0.00257978
-3.432e-06
3.70937e-06
-0.00258226
-1.52071e-05
3.5888e-06
-0.00258189
-2.76851e-05
2.97573e-06
-0.00257823
-4.11994e-05
1.80391e-06
-0.00257051
-5.55867e-05
-1.83217e-07
-0.00255618
-6.89275e-05
-3.26271e-06
-0.00253156
-7.41956e-05
-8.26749e-06
-0.00248636
-1.47476e-05
-0.0024258
-5.69979e-05
1.96526e-05
2.1644e-06
-0.00286348
7.98519e-06
2.85844e-06
-0.00286982
-3.56301e-06
3.08691e-06
-0.00287253
-1.54396e-05
2.92287e-06
-0.00287205
-2.81492e-05
2.34774e-06
-0.00286796
-4.22805e-05
1.29842e-06
-0.00285945
-5.81452e-05
-4.37634e-07
-0.00284354
-7.42802e-05
-3.24557e-06
-0.00281563
-8.3861e-05
-7.74268e-06
-0.00276125
-1.4852e-05
-0.00268404
-6.92219e-05
1.92357e-05
1.25357e-06
-0.00314977
7.87143e-06
1.48958e-06
-0.00315669
-3.332e-06
1.53211e-06
-0.00315975
-1.48315e-05
1.21357e-06
-0.00315941
-2.72808e-05
6.34805e-07
-0.00315517
-4.14757e-05
-2.57202e-07
-0.00314618
-5.82255e-05
-1.53018e-06
-0.00312894
-7.71763e-05
-3.45457e-06
-0.00309838
-9.15608e-05
-6.38834e-06
-0.00303605
-1.19978e-05
-0.00293955
-8.16909e-05
1.82651e-05
-0.0034177
7.00953e-06
-0.00342452
-3.91111e-06
-0.00342713
-1.5084e-05
-0.00342543
-2.71135e-05
-0.00341908
-4.08816e-05
-0.00340728
-5.73463e-05
-0.00338657
-7.69919e-05
-0.0033513
-9.41797e-05
-0.00328188
-0.00316788
-9.1114e-05
4.83203e-06
2.87296e-07
-0.000842493
1.86477e-06
4.93878e-07
-0.000843358
-1.28844e-06
5.79528e-07
-0.000843624
-4.31881e-06
5.26319e-07
-0.00084348
-6.92019e-06
3.41964e-07
-0.000842979
-8.77036e-06
3.13396e-08
-0.000842154
-9.54004e-06
-3.87512e-07
-0.000841054
-8.91404e-06
-8.8345e-07
-0.000839767
-6.66105e-06
-1.40125e-06
-0.000838397
-1.82596e-06
-0.000836963
-2.87179e-06
7.18834e-06
6.00827e-07
-0.00112967
2.55141e-06
1.01496e-06
-0.00113088
-2.28088e-06
1.17603e-06
-0.00113132
-6.97826e-06
1.08543e-06
-0.00113099
-1.11693e-05
7.38424e-07
-0.0011299
-1.44136e-05
1.39396e-07
-0.00112806
-1.61531e-05
-6.95714e-07
-0.0011255
-1.5707e-05
-1.72012e-06
-0.00112234
-1.22917e-05
-2.84921e-06
-0.00111883
-3.82083e-06
-0.00111569
-5.71375e-06
1.03469e-05
9.82501e-07
-0.00141605
3.90705e-06
1.5714e-06
-0.00141798
-2.71476e-06
1.79697e-06
-0.00141869
-9.21631e-06
1.67619e-06
-0.00141816
-1.52261e-05
1.18681e-06
-0.00141636
-2.0226e-05
3.1874e-07
-0.00141323
-2.34202e-05
-9.40988e-07
-0.00140868
-2.36341e-05
-2.55495e-06
-0.00140273
-1.91628e-05
-4.44933e-06
-0.0013956
-6.17102e-06
-0.00138888
-9.16068e-06
1.29538e-05
1.38182e-06
-0.00170105
4.98289e-06
2.18538e-06
-0.00170387
-3.19566e-06
2.50445e-06
-0.00170492
-1.13463e-05
2.38807e-06
-0.00170425
-1.91449e-05
1.7978e-06
-0.00170175
-2.60796e-05
7.12028e-07
-0.00169722
-3.11927e-05
-9.28962e-07
-0.00169033
-3.2833e-05
-3.11579e-06
-0.00168081
-2.80195e-05
-5.8615e-06
-0.00166843
-8.4961e-06
-0.00165597
-1.46118e-05
1.5272e-05
1.82073e-06
-0.00198874
6.04267e-06
2.747e-06
-0.0019925
-3.36556e-06
3.12549e-06
-0.00199398
-1.2838e-05
3.01368e-06
-0.00199327
-2.21741e-05
2.36235e-06
-0.00199017
-3.09604e-05
1.13049e-06
-0.00198434
-3.81869e-05
-8.06109e-07
-0.00197501
-4.18048e-05
-3.49294e-06
-0.00196145
-3.73801e-05
-7.10482e-06
-0.00194232
-1.07671e-05
-0.00192182
-2.09399e-05
1.70794e-05
2.16079e-06
-0.00227568
6.86577e-06
3.15493e-06
-0.00228039
-3.47257e-06
3.54888e-06
-0.00228229
-1.39622e-05
3.43655e-06
-0.00228158
-2.45459e-05
2.75638e-06
-0.00227796
-3.49838e-05
1.45758e-06
-0.00227094
-4.43498e-05
-6.44537e-07
-0.00225922
-5.03627e-05
-3.66916e-06
-0.00224143
-4.71936e-05
-7.9953e-06
-0.00221437
-1.26852e-05
-0.00218366
-2.85943e-05
1.82934e-05
2.28679e-06
-0.00256341
7.48406e-06
3.20493e-06
-0.00256903
-3.39663e-06
3.55963e-06
-0.00257139
-1.44925e-05
3.41913e-06
-0.00257077
-2.59284e-05
2.75023e-06
-0.00256679
-3.76797e-05
1.4855e-06
-0.00255879
-4.90223e-05
-6.01963e-07
-0.00254488
-5.76021e-05
-3.73551e-06
-0.00252291
-5.64274e-05
-8.47175e-06
-0.00248706
-1.41501e-05
-0.00244419
-3.65779e-05
1.8694e-05
2.01646e-06
-0.00285179
7.55486e-06
2.75134e-06
-0.00285823
-3.55145e-06
3.00139e-06
-0.00286086
-1.49035e-05
2.84279e-06
-0.00286013
-2.67572e-05
2.24383e-06
-0.0028556
-3.93152e-05
1.13978e-06
-0.00284654
-5.21956e-05
-6.75022e-07
-0.00283058
-6.32547e-05
-3.54882e-06
-0.00280476
-6.48544e-05
-7.93355e-06
-0.00276019
-1.42847e-05
-0.00270366
-4.50943e-05
1.84351e-05
1.20146e-06
-0.00313743
7.49405e-06
1.4646e-06
-0.00314446
-3.3789e-06
1.55544e-06
-0.00314743
-1.4479e-05
1.29111e-06
-0.00314675
-2.62252e-05
7.63253e-07
-0.00314195
-3.90128e-05
-9.2393e-08
-0.00313216
-5.28031e-05
-1.3608e-06
-0.00311447
-6.62189e-05
-3.29555e-06
-0.00308522
-7.1266e-05
-6.20425e-06
-0.00303273
-1.1212e-05
-0.00296013
-5.3759e-05
1.76014e-05
-0.00340526
6.799e-06
-0.00341226
-3.76648e-06
-0.00341501
-1.45477e-05
-0.00341336
-2.5943e-05
-0.00340693
-3.84647e-05
-0.00339485
-5.22635e-05
-0.00337413
-6.64951e-05
-0.00334036
-7.37291e-05
-0.00328085
-0.00319305
-5.9773e-05
3.30415e-06
1.46419e-07
-0.000841014
1.30472e-06
3.19823e-07
-0.000841679
-8.48137e-07
3.95619e-07
-0.000841867
-2.90209e-06
3.51845e-07
-0.000841778
-4.617e-06
1.98828e-07
-0.000841463
-5.75994e-06
-5.54498e-08
-0.000840955
-6.12657e-06
-3.88718e-07
-0.000840299
-5.56484e-06
-7.68299e-07
-0.00083956
-4.02556e-06
-1.14325e-06
-0.000838793
-1.4357e-06
-0.000837888
-1.66497e-06
5.25912e-06
3.28433e-07
-0.00112697
1.85051e-06
6.95195e-07
-0.00112785
-1.74112e-06
8.41267e-07
-0.00112817
-5.19998e-06
7.61252e-07
-0.00112794
-8.18619e-06
4.54858e-07
-0.00112717
-1.03374e-05
-6.52139e-08
-0.0011259
-1.12607e-05
-7.69244e-07
-0.0011242
-1.05729e-05
-1.59909e-06
-0.0011222
-7.97239e-06
-2.46144e-06
-0.00112011
-3.16749e-06
-0.00111835
-3.57978e-06
8.28695e-06
6.42282e-07
-0.00141182
3.17791e-06
1.18146e-06
-0.00141335
-2.12883e-06
1.38866e-06
-0.00141393
-7.28074e-06
1.26906e-06
-0.00141351
-1.1879e-05
8.07013e-07
-0.00141212
-1.54386e-05
6.36753e-09
-0.00140975
-1.73321e-05
-1.1174e-06
-0.00140644
-1.68009e-05
-2.49843e-06
-0.00140236
-1.29927e-05
-4.01826e-06
-0.00139785
-5.33074e-06
-0.00139388
-5.82322e-06
1.0892e-05
1.01373e-06
-0.0016954
4.22949e-06
1.78286e-06
-0.00169781
-2.68301e-06
2.08602e-06
-0.00169871
-9.49651e-06
1.95861e-06
-0.00169813
-1.57937e-05
1.37176e-06
-0.00169601
-2.10185e-05
3.20623e-07
-0.00169231
-2.43223e-05
-1.21099e-06
-0.00168693
-2.45026e-05
-3.16851e-06
-0.00167996
-1.98051e-05
-5.45977e-06
-0.00167168
-7.53762e-06
-0.00166399
-9.57976e-06
1.33321e-05
1.45027e-06
-0.00198168
5.2962e-06
2.35894e-06
-0.00198504
-2.97691e-06
2.72684e-06
-0.00198635
-1.12159e-05
2.59435e-06
-0.00198566
-1.90677e-05
1.92186e-06
-0.00198287
-2.59871e-05
6.84163e-07
-0.00197779
-3.09633e-05
-1.18928e-06
-0.00197006
-3.23469e-05
-3.68333e-06
-0.00195955
-2.71916e-05
-6.79395e-06
-0.00194614
-9.76787e-06
-0.00193292
-1.38559e-05
1.53374e-05
1.82238e-06
-0.00226731
6.16793e-06
2.81704e-06
-0.00227168
-3.19842e-06
3.20755e-06
-0.00227341
-1.26062e-05
3.07206e-06
-0.00227265
-2.18013e-05
2.35561e-06
-0.0022692
-3.03279e-05
1.01909e-06
-0.00226275
-3.71212e-05
-1.06628e-06
-0.00225255
-4.01792e-05
-3.95206e-06
-0.00223811
-3.52266e-05
-7.77436e-06
-0.00221834
-1.16761e-05
-0.00219778
-1.91957e-05
1.6743e-05
2.00932e-06
-0.0025539
6.82792e-06
2.94463e-06
-0.00255924
-3.23815e-06
3.30543e-06
-0.00256143
-1.34091e-05
3.14834e-06
-0.00256068
-2.35828e-05
2.44082e-06
-0.0025567
-3.34525e-05
1.12314e-06
-0.00254902
-4.20041e-05
-9.83991e-07
-0.00253641
-4.70008e-05
-4.02535e-06
-0.00251784
-4.28485e-05
-8.29618e-06
-0.00249069
-1.30847e-05
-0.00246101
-2.46165e-05
1.73611e-05
1.78704e-06
-0.00284125
6.99723e-06
2.55308e-06
-0.00284748
-3.42275e-06
2.81841e-06
-0.00284996
-1.39956e-05
2.66254e-06
-0.00284907
-2.47409e-05
2.04497e-06
-0.00284446
-3.55328e-05
9.07062e-07
-0.00283553
-4.55494e-05
-9.2904e-07
-0.00282062
-5.25489e-05
-3.73151e-06
-0.00279805
-4.99776e-05
-7.75841e-06
-0.0027633
-1.31402e-05
-0.00272302
-3.05617e-05
1.72721e-05
1.09331e-06
-0.00312616
6.99518e-06
1.37825e-06
-0.00313301
-3.31064e-06
1.50821e-06
-0.00313582
-1.37598e-05
1.28568e-06
-0.00313493
-2.45408e-05
7.9578e-07
-0.00312992
-3.56994e-05
-3.04012e-08
-0.00312007
-4.66329e-05
-1.28079e-06
-0.00310318
-5.54874e-05
-3.15677e-06
-0.00307694
-5.51197e-05
-5.87309e-06
-0.00303498
-1.0035e-05
-0.00298212
-3.62339e-05
1.6596e-05
-0.00339388
6.45087e-06
-0.00340073
-3.55807e-06
-0.00340349
-1.37266e-05
-0.00340191
-2.42432e-05
-0.00339561
-3.52807e-05
-0.00338384
-4.64286e-05
-0.00336426
-5.61301e-05
-0.00333382
-5.7406e-05
-0.00328545
-0.00322067
-3.98262e-05
2.22307e-06
3.97144e-08
-0.000840016
9.06201e-07
1.78975e-07
-0.000840541
-5.30145e-07
2.43867e-07
-0.000840674
-1.89447e-06
2.09853e-07
-0.000840624
-3.01176e-06
8.88456e-08
-0.000840435
-3.72196e-06
-1.10496e-07
-0.000840135
-3.90124e-06
-3.65775e-07
-0.000839754
-3.47826e-06
-6.47953e-07
-0.000839336
-2.4622e-06
-9.15553e-07
-0.000838893
-1.11669e-06
-0.000838249
-9.8391e-07
3.69641e-06
9.83213e-08
-0.00112504
1.27008e-06
4.09681e-07
-0.00112565
-1.31146e-06
5.37324e-07
-0.00112588
-3.78159e-06
4.71007e-07
-0.00112573
-5.85992e-06
2.13499e-07
-0.00112522
-7.2708e-06
-2.18024e-07
-0.00112438
-7.75275e-06
-7.88125e-07
-0.00112329
-7.10162e-06
-1.43802e-06
-0.00112206
-5.22949e-06
-2.08322e-06
-0.00112082
-2.59154e-06
-0.00111979
-2.31659e-06
6.44281e-06
3.27456e-07
-0.00140866
2.51169e-06
7.99681e-07
-0.00140981
-1.60749e-06
9.82464e-07
-0.00141025
-5.56978e-06
8.7123e-07
-0.00140995
-9.00195e-06
4.55534e-07
-0.00140893
-1.14928e-05
-2.50372e-07
-0.00140722
-1.25832e-05
-1.21266e-06
-0.00140492
-1.18165e-05
-2.35205e-06
-0.00140221
-8.82517e-06
-3.54028e-06
-0.00139939
-4.52614e-06
-0.001397
-3.7704e-06
8.87802e-06
6.44525e-07
-0.00169103
3.48348e-06
1.35515e-06
-0.00169297
-2.1763e-06
1.63452e-06
-0.0016937
-7.70327e-06
1.50577e-06
-0.00169323
-1.26541e-05
9.49372e-07
-0.00169156
-1.65027e-05
-2.40258e-08
-0.00168869
-1.85687e-05
-1.39609e-06
-0.00168468
-1.80487e-05
-3.08211e-06
-0.00167975
-1.40285e-05
-4.93889e-06
-0.00167431
-6.5469e-06
-0.00166953
-6.4663e-06
1.12991e-05
1.05213e-06
-0.00197596
4.51462e-06
1.91559e-06
-0.00197881
-2.54188e-06
2.2638e-06
-0.00197992
-9.50024e-06
2.12075e-06
-0.00197932
-1.59251e-05
1.45752e-06
-0.00197695
-2.12353e-05
2.66961e-07
-0.00197277
-2.45423e-05
-1.47251e-06
-0.00196668
-2.46401e-05
-3.69631e-06
-0.00195884
-1.97897e-05
-6.28922e-06
-0.00194964
-8.65167e-06
-0.00194114
-9.46549e-06
1.3396e-05
1.43314e-06
-0.00226032
5.40153e-06
2.40113e-06
-0.00226417
-2.84361e-06
2.77891e-06
-0.00226568
-1.10459e-05
2.62851e-06
-0.00226495
-1.88182e-05
1.90438e-06
-0.00226188
-2.55949e-05
5.84461e-07
-0.00225629
-3.03502e-05
-1.40222e-06
-0.00224787
-3.15027e-05
-4.04291e-06
-0.00223661
-2.62796e-05
-7.2992e-06
-0.00222255
-1.04601e-05
-0.0022089
-1.33494e-05
1.49204e-05
1.67036e-06
-0.00254575
6.07938e-06
2.59981e-06
-0.0025506
-2.98008e-06
2.95846e-06
-0.00255255
-1.20496e-05
2.79056e-06
-0.00255177
-2.08528e-05
2.06802e-06
-0.00254806
-2.89036e-05
7.45884e-07
-0.00254114
-3.51135e-05
-1.2998e-06
-0.00253031
-3.75923e-05
-4.1297e-06
-0.00251528
-3.24133e-05
-7.82826e-06
-0.00249534
-1.17238e-05
-0.00247507
-1.70943e-05
1.57247e-05
1.48897e-06
-0.00283201
6.33474e-06
2.27034e-06
-0.00283776
-3.19176e-06
2.54307e-06
-0.00284001
-1.27829e-05
2.38981e-06
-0.00283908
-2.22621e-05
1.7656e-06
-0.00283467
-3.12685e-05
6.24706e-07
-0.00282641
-3.87832e-05
-1.17049e-06
-0.00281324
-4.27569e-05
-3.79289e-06
-0.00279442
-3.83216e-05
-7.31812e-06
-0.00276825
-1.16622e-05
-0.00274006
-2.13431e-05
1.57963e-05
9.34662e-07