/*--------------------------------*- C++ -*----------------------------------*\
| =========                 |                                                 |
| \\      /  F ield         | foam-extend: Open Source CFD                    |
|  \\    /   O peration     | Version:     4.0                                |
|   \\  /    A nd           | Web:         http://www.foam-extend.org         |
|    \\/     M anipulation  |                                                 |
\*---------------------------------------------------------------------------*/
FoamFile
{
    version     2.0;
    format      ascii;
    class       volScalarField;
    location    "3800";
    object      divFlux;
}
// * * * * * * * * * * * * * * * * * * * * * * * * * * * * * * * * * * * * * //

dimensions      [1 -3 -1 0 0 0 0];

internalField   nonuniform List<scalar> 
34480
(
2.82602e-05
1.04973e-05
1.0575e-05
9.76008e-06
9.05867e-06
8.50284e-06
8.08062e-06
0.00030046
0.000187073
7.21158e-06
8.35425e-06
4.50467e-06
4.36085e-06
4.04968e-06
3.82494e-06
3.72333e-06
3.71824e-06
3.72351e-06
0.00346097
3.59676e-06
2.27487e-06
1.4883e-06
1.43039e-06
1.35992e-06
1.34086e-06
1.38764e-06
1.46301e-06
1.51451e-06
0.00334021
1.49307e-06
8.18724e-07
5.71329e-07
5.48533e-07
5.26769e-07
5.27991e-07
5.55559e-07
5.91107e-07
6.12299e-07
0.000801323
6.06419e-07
3.25039e-07
2.3826e-07
2.27591e-07
2.19344e-07
2.21176e-07
2.32828e-07
2.46115e-07
2.54624e-07
2.57832e-07
2.51941e-07
1.3957e-07
1.04926e-07
9.9657e-08
9.6106e-08
9.73088e-08
1.02177e-07
1.07675e-07
1.11398e-07
1.1157e-07
1.08935e-07
6.43698e-08
4.79066e-08
4.5972e-08
4.43938e-08
4.45466e-08
4.63793e-08
4.88739e-08
4.9943e-08
5.15213e-08
5.00449e-08
3.27723e-08
2.45133e-08
2.26806e-08
2.19016e-08
2.13518e-08
2.28638e-08
2.39635e-08
2.50632e-08
2.45592e-08
2.45133e-08
1.9947e-08
1.53703e-08
1.36208e-08
1.26628e-08
1.33709e-08
1.32459e-08
1.30377e-08
1.32043e-08
1.39124e-08
1.29544e-08
1.34642e-08
1.14548e-08
9.46932e-09
9.24023e-09
8.70567e-09
8.17111e-09
8.8584e-09
9.27841e-09
8.8584e-09
9.12568e-09
3.85774e-05
1.3393e-05
1.34318e-05
1.25943e-05
1.18363e-05
1.12661e-05
1.08865e-05
1.06908e-05
1.06705e-05
0.00106252
1.26901e-05
6.56851e-06
6.36666e-06
5.97973e-06
5.71149e-06
5.596e-06
5.60229e-06
5.7067e-06
5.89587e-06
0.0034543
3.80517e-06
2.45506e-06
2.36987e-06
2.27744e-06
2.2702e-06
2.35356e-06
2.47568e-06
2.6139e-06
2.76217e-06
0.00431007
1.50613e-06
1.07532e-06
1.03123e-06
1.0022e-06
1.01384e-06
1.0658e-06
1.12955e-06
1.19977e-06
1.26866e-06
0.00149771
6.53477e-07
5.03172e-07
4.78953e-07
4.60455e-07
4.73294e-07
4.9593e-07
5.25382e-07
5.58485e-07
5.91344e-07
6.06876e-07
2.99388e-07
2.41994e-07
2.37841e-07
2.19153e-07
2.306e-07
2.39598e-07
2.53495e-07
2.67605e-07
2.84643e-07
2.88689e-07
1.35225e-07
1.13161e-07
1.32424e-07
1.03696e-07
1.15244e-07
1.21065e-07
1.25514e-07
1.33654e-07
1.42221e-07
1.43972e-07
5.37206e-08
5.55442e-08
7.83327e-08
5.57146e-08
6.29558e-08
6.52133e-08
6.80246e-08
7.1347e-08
7.76085e-08
7.68898e-08
7.32106e-08
2.59831e-08
5.56062e-08
4.23242e-08
4.0117e-08
4.18595e-08
4.31761e-08
4.44152e-08
4.8365e-08
5.00881e-08
8.97384e-08
2.90358e-08
3.69869e-08
3.40407e-08
3.34018e-08
3.27628e-08
3.20884e-08
3.49636e-08
3.65964e-08
3.8704e-08
3.60853e-05
1.0175e-05
1.04954e-05
9.89192e-06
9.32511e-06
8.91929e-06
8.69702e-06
8.67059e-06
3.33579e-05
0.000871181
1.11242e-05
4.72444e-06
4.67425e-06
4.38405e-06
4.14423e-06
3.98574e-06
3.93436e-06
4.0239e-06
8.00773e-05
0.00135183
3.15574e-06
1.70478e-06
1.65662e-06
1.56527e-06
1.50243e-06
1.47503e-06
1.5018e-06
1.59873e-06
0.000119858
0.00127364
1.14689e-06
6.88709e-07
6.66072e-07
6.32645e-07
6.1014e-07
6.01461e-07
6.15057e-07
6.61188e-07
7.42595e-07
9.2784e-07
4.60762e-07
2.96816e-07
2.84653e-07
2.69663e-07
2.60272e-07
2.55068e-07
2.61856e-07
2.81995e-07
3.18991e-07
4.0646e-07
1.9808e-07
1.3201e-07
1.27209e-07
1.19042e-07
1.15973e-07
1.13052e-07
1.14884e-07
1.2508e-07
1.42652e-07
1.84957e-07
8.9537e-08
6.0541e-08
5.97931e-08
5.46013e-08
5.38533e-08
5.20494e-08
5.30614e-08
5.82091e-08
6.67447e-08
8.82707e-08
4.33722e-08
3.13221e-08
3.07677e-08
2.73227e-08
2.7481e-08
2.61743e-08
2.66891e-08
2.95005e-08
3.39355e-08
4.6107e-08
3.2318e-08
1.9403e-08
1.91511e-08
1.77111e-08
1.71352e-08
1.64152e-08
1.65592e-08
1.77471e-08
2.0231e-08
2.77501e-08
2.24946e-08
1.43873e-08
1.10875e-08
1.24734e-08
1.01305e-08
1.10545e-08
1.18794e-08
1.18464e-08
1.38923e-08
2.05415e-08
3.55714e-05
9.20109e-06
9.56976e-06
9.04784e-06
8.54855e-06
8.20034e-06
8.0218e-06
8.01223e-06
1.80247e-05
0.000371556
1.10901e-05
4.41497e-06
4.39127e-06
4.12223e-06
3.89298e-06
3.73133e-06
3.65485e-06
3.68035e-06
3.39666e-05
0.00114297
3.21807e-06
1.65999e-06
1.62104e-06
1.52518e-06
1.44825e-06
1.39848e-06
1.38961e-06
1.43555e-06
0.000121384
0.00228919
1.191e-06
6.85987e-07
6.61875e-07
6.258e-07
5.96166e-07
5.76748e-07
5.75766e-07
6.004e-07
0.000112968
0.0021055
4.76567e-07
2.95598e-07
2.85291e-07
2.69252e-07
2.57577e-07
2.49163e-07
2.47533e-07
2.59155e-07
4.50797e-05
0.00157002
2.06466e-07
1.33995e-07
1.29117e-07
1.21111e-07
1.15037e-07
1.11217e-07
1.10527e-07
1.17153e-07
1.07279e-05
0.000987184
9.42342e-08
6.27027e-08
6.05758e-08
5.57084e-08
5.45223e-08
5.17819e-08
5.14546e-08
5.48086e-08
6.22937e-08
0.000415017
4.66664e-08
3.22471e-08
3.11059e-08
2.88236e-08
2.73143e-08
2.70934e-08
2.57682e-08
2.85659e-08
3.20998e-08
0.000156162
3.12408e-08
2.02799e-08
1.98114e-08
1.7837e-08
1.68999e-08
1.72346e-08
1.66657e-08
1.76027e-08
1.99453e-08
2.65086e-08
1.95946e-08
1.62892e-08
1.11662e-08
1.2608e-08
1.12276e-08
1.1473e-08
1.13503e-08
1.1565e-08
1.40498e-08
1.96099e-08
3.4626e-05
8.19091e-06
8.59587e-06
8.1511e-06
7.71603e-06
7.40653e-06
7.24329e-06
7.22664e-06
2.23385e-05
0.000141302
1.08242e-05
4.04545e-06
4.04922e-06
3.80817e-06
3.60322e-06
3.455e-06
3.37343e-06
3.36038e-06
4.53482e-06
0.000578238
3.21388e-06
1.56902e-06
1.54055e-06
1.45161e-06
1.37865e-06
1.32492e-06
1.29771e-06
1.30579e-06
7.61341e-05
0.00133428
1.2104e-06
6.66236e-07
6.46302e-07
6.10198e-07
5.79113e-07
5.56413e-07
5.45377e-07
5.50767e-07
7.87405e-05
0.0014202
4.88734e-07
2.91616e-07
2.8047e-07
2.65461e-07
2.51724e-07
2.41653e-07
2.38182e-07
2.4131e-07
5.29468e-05
0.00127963
2.10448e-07
1.31282e-07
1.26662e-07
1.20075e-07
1.14385e-07
1.09851e-07
1.07541e-07
1.09124e-07
4.01489e-05
0.0010157
9.58119e-08
6.21691e-08
6.03819e-08
5.60472e-08
5.38418e-08
5.12562e-08
5.0876e-08
5.19787e-08
5.85625e-06
0.000666667
4.89881e-08
3.13469e-08
3.14838e-08
2.83696e-08
2.75141e-08
2.65559e-08
2.59399e-08
2.7035e-08
8.63426e-06
0.000499342
3.16403e-08
1.99107e-08
1.86041e-08
1.82307e-08
1.69552e-08
1.65197e-08
1.61152e-08
1.79507e-08
1.89774e-08
0.000305894
1.64468e-08
1.65974e-08
1.08938e-08
1.22627e-08
1.12361e-08
1.04661e-08
1.14357e-08
1.14642e-08
1.29757e-08
0.000403075
3.32153e-05
7.15372e-06
7.58328e-06
7.21989e-06
6.8429e-06
6.57092e-06
6.41779e-06
6.38476e-06
6.47201e-06
2.28079e-05
1.03615e-05
3.63171e-06
3.65851e-06
3.4487e-06
3.26629e-06
3.13602e-06
3.05839e-06
3.03362e-06
1.64368e-05
0.000222074
3.17553e-06
1.46135e-06
1.44093e-06
1.35748e-06
1.28794e-06
1.23646e-06
1.20446e-06
1.19291e-06
3.47233e-05
0.000718122
1.18883e-06
6.28158e-07
6.1241e-07
5.79589e-07
5.51461e-07
5.28979e-07
5.14637e-07
5.09732e-07
4.14578e-05
0.000847805
4.89874e-07
2.80822e-07
2.70597e-07
2.56508e-07
2.44146e-07
2.34193e-07
2.27467e-07
2.2624e-07
3.68649e-05
0.00086335
2.12163e-07
1.28447e-07
1.24073e-07
1.17392e-07
1.10989e-07
1.06893e-07
1.04189e-07
1.03116e-07
3.52368e-05
0.000779645
9.58134e-08
6.09406e-08
5.91024e-08
5.53909e-08
5.25984e-08
5.05481e-08
4.93463e-08
4.90282e-08
1.93634e-05
0.000594238
4.92411e-08
3.07319e-08
3.05092e-08
2.89185e-08
2.69142e-08
2.64688e-08
2.53554e-08
2.55781e-08
2.62113e-05
0.0005244
3.13679e-08
2.00136e-08
1.89146e-08
1.74107e-08
1.68322e-08
1.67744e-08
1.61381e-08
1.70347e-08
9.57098e-06
0.000447163
1.45464e-08
1.69672e-08
1.11878e-08
1.16915e-08
1.14264e-08
1.10552e-08
1.11878e-08
1.10552e-08
2.61288e-05
0.000523833
3.14706e-05
6.1142e-06
6.56182e-06
6.27448e-06
5.95354e-06
5.7146e-06
5.57266e-06
5.53072e-06
5.58247e-06
3.41135e-06
9.74452e-06
3.20556e-06
3.24522e-06
3.06397e-06
2.90467e-06
2.78822e-06
2.71572e-06
2.68685e-06
1.11972e-05
7.06608e-05
3.04251e-06
1.32463e-06
1.3168e-06
1.24283e-06
1.17972e-06
1.13314e-06
1.09972e-06
1.08221e-06
1.3203e-05
0.000377865
1.16256e-06
5.8275e-07
5.70107e-07
5.39152e-07
5.14112e-07
4.93409e-07
4.79262e-07
4.69503e-07
1.63441e-05
0.000490251
4.7518e-07
2.6402e-07
2.54978e-07
2.41839e-07
2.30812e-07
2.21094e-07
2.14841e-07
2.10574e-07
1.753e-05
0.000542707
2.09286e-07
1.2244e-07
1.17561e-07
1.12015e-07
1.06877e-07
1.02071e-07
9.90392e-08
9.74126e-08
2.02336e-05
0.00053659
9.59181e-08
5.83284e-08
5.63896e-08
5.33007e-08
5.12633e-08
4.92588e-08
4.732e-08
4.732e-08
1.59728e-05
0.000441698
4.98294e-08
2.91905e-08
2.95454e-08
2.76526e-08
2.6233e-08
2.50796e-08
2.49021e-08
2.49909e-08
2.57292e-05
0.00043332
3.05025e-08
1.93313e-08
1.79332e-08
1.76106e-08
1.6078e-08
1.5621e-08
1.51908e-08
1.6562e-08
1.94949e-05
0.000409306
1.36056e-08
1.65373e-08
1.07949e-08
1.14357e-08
1.07209e-08
9.90762e-09
1.04005e-08
1.1066e-08
3.32217e-05
0.00046921
2.95451e-05
5.10097e-06
5.56505e-06
5.36127e-06
5.09094e-06
4.88267e-06
4.75182e-06
4.70627e-06
4.73808e-06
5.0366e-06
8.96217e-06
2.76933e-06
2.82153e-06
2.67135e-06
2.53257e-06
2.43081e-06
2.36417e-06
2.33355e-06
3.53923e-06
1.40904e-05
2.85228e-06
1.17187e-06
1.17075e-06
1.10856e-06
1.05365e-06
1.01079e-06
9.81121e-07
9.6358e-07
4.61813e-06
0.000180559
1.10666e-06
5.29235e-07
5.20689e-07
4.93402e-07
4.68313e-07
4.49801e-07
4.35779e-07
4.25973e-07
5.18774e-06
0.000266876
4.54912e-07
2.43046e-07
2.35623e-07
2.23997e-07
2.13471e-07
2.05223e-07
1.98192e-07
1.93872e-07
5.77691e-06
0.000321751
1.99817e-07
1.14375e-07
1.10526e-07
1.04511e-07
9.9803e-08
9.60226e-08
9.32388e-08
9.09706e-08
8.02311e-06
0.000350094
9.27314e-08
5.54156e-08
5.31549e-08
5.03445e-08
4.79616e-08
4.60676e-08
4.51817e-08
4.40209e-08
8.8806e-06
0.000302826
4.98467e-08
2.77414e-08
2.81538e-08
2.60643e-08
2.50195e-08
2.43321e-08
2.38647e-08
2.32324e-08
1.92099e-05
0.000325925
2.91225e-08
1.90708e-08
1.63464e-08
1.67213e-08
1.55466e-08
1.56216e-08
1.47717e-08
1.52466e-08
1.82595e-05
0.000312127
1.17662e-08
1.49842e-08
1.08143e-08
1.09747e-08
9.94364e-09
1.01498e-08
1.02186e-08
1.01269e-08
3.06076e-05
0.000366994
2.74467e-05
4.08896e-06
4.56999e-06
4.46705e-06
4.26385e-06
4.08915e-06
3.97403e-06
3.92653e-06
3.94229e-06
4.16814e-06
8.09058e-06
2.34162e-06
2.40082e-06
2.27756e-06
2.16133e-06
2.07372e-06
2.01334e-06
1.98523e-06
1.97379e-06
9.20674e-07
2.6224e-06
1.01772e-06
1.02242e-06
9.67753e-07
9.19932e-07
8.83024e-07
8.55675e-07
8.37477e-07
1.33642e-06
7.95338e-05
1.02028e-06
4.65159e-07
4.61282e-07
4.36617e-07
4.17299e-07
4.00451e-07
3.87054e-07
3.77852e-07
1.47814e-06
0.00013554
4.27997e-07
2.18788e-07
2.13968e-07
2.02795e-07
1.9301e-07
1.85196e-07
1.79573e-07
1.74972e-07
9.79142e-07
0.00017691
1.88982e-07
1.04186e-07
1.00288e-07
9.54322e-08
9.12468e-08
8.76685e-08
8.49848e-08
1.23024e-05
1.44909e-06
0.000214868
8.74808e-08
5.11755e-08
4.93295e-08
4.69156e-08
4.47856e-08
4.28829e-08
4.13777e-08
4.07813e-08
3.58603e-06
0.000190181
4.78533e-08
2.55338e-08
2.59938e-08
2.46648e-08
2.34635e-08
2.23389e-08
2.16999e-08
1.01729e-05
1.24522e-05
0.000227419
2.74391e-08
1.81007e-08
1.57306e-08
1.49638e-08
1.44526e-08
1.43829e-08
1.39879e-08
1.41273e-08
1.36658e-05
0.00021434
1.23999e-08
1.39511e-08
9.94684e-09
1.01172e-08
9.35046e-09
9.43566e-09
9.20136e-09
4.82332e-06
2.44658e-05
0.000264637
2.60327e-05
3.18132e-06
3.64699e-06
3.62331e-06
3.49502e-06
3.36109e-06
3.26502e-06
3.2153e-06
3.21039e-06
3.35102e-06
7.14541e-06
1.93514e-06
1.99716e-06
1.90114e-06
1.80636e-06
1.73318e-06
1.68138e-06
1.65331e-06
1.64274e-06
1.54337e-06
2.34068e-06
8.57434e-07
8.68127e-07
8.24573e-07
7.84394e-07
7.51556e-07
7.27368e-07
7.11472e-07
1.06876e-07
3.14682e-05
9.30293e-07
4.02925e-07
3.99816e-07
3.8051e-07
3.62175e-07
3.47305e-07
3.35563e-07
3.26989e-07
3.56789e-07
6.41877e-05
3.90116e-07
1.91411e-07
1.86998e-07
1.78614e-07
1.70365e-07
1.63271e-07
1.5784e-07
1.53801e-07
4.39542e-07
9.09964e-05
1.73685e-07
9.23704e-08
9.0024e-08
8.60143e-08
8.18562e-08
7.86782e-08
7.57378e-08
1.76191e-05
1.34341e-06
0.000125592
8.04775e-08
4.64393e-08
4.4512e-08
4.20039e-08
4.02351e-08
3.87302e-08
3.75422e-08
3.65653e-08
8.23948e-07
0.000108991
4.49208e-08
2.3547e-08
2.35233e-08
2.25253e-08
2.1361e-08
2.05056e-08
2.01492e-08
1.90066e-05
7.41282e-06
0.000150172
2.36721e-08
1.76694e-08
1.36301e-08
1.43861e-08
1.30469e-08
1.27877e-08
1.26581e-08
1.24205e-08
8.83999e-06
0.000136448
1.17556e-08
1.18012e-08
9.99936e-09
8.98953e-09
9.00933e-09
8.2965e-09
8.1579e-09
1.01616e-05
1.79517e-05
0.0001804
2.43706e-05
2.419e-06
2.8096e-06
2.82702e-06
2.75786e-06
2.69172e-06
2.64659e-06
2.6349e-06
2.66335e-06
2.81525e-06
6.15212e-06
1.5544e-06
1.61652e-06
1.5457e-06
1.47134e-06
1.41264e-06
1.37305e-06
1.34812e-06
1.33423e-06
1.24016e-06
2.0508e-06
7.06691e-07
7.17846e-07
6.84293e-07
6.50939e-07
6.24035e-07
6.04331e-07
5.89289e-07
5.75947e-07
1.06679e-05
8.16691e-07
3.38513e-07
3.3658e-07
3.21118e-07
3.06337e-07
2.93801e-07
2.82978e-07
2.75799e-07
4.40122e-08
2.72952e-05
3.50287e-07
1.63427e-07
1.61123e-07
1.5336e-07
1.46387e-07
1.40517e-07
1.35658e-07
1.31335e-07
5.94792e-07
4.39417e-05
1.57249e-07
8.01276e-08
7.84986e-08
7.44673e-08
7.12921e-08
6.85585e-08
6.57698e-08
1.68895e-05
2.26851e-06
7.13192e-05
7.24756e-08
4.04473e-08
3.90974e-08
3.70358e-08
3.50723e-08
3.44587e-08
3.26671e-08
3.2029e-08
2.09084e-07
5.66551e-05
4.0913e-08
2.12496e-08
2.05869e-08
2.01451e-08
1.87093e-08
1.85989e-08
9.22059e-07
2.11585e-05
4.074e-06
9.62252e-05
1.96814e-08
1.63458e-08
1.27915e-08
1.28517e-08
1.23096e-08
1.16871e-08
1.1185e-08
1.16871e-08
4.88953e-06
7.9961e-05
1.17471e-08
1.05107e-08
8.24654e-09
8.02565e-09
7.58387e-09
7.9152e-09
7.30776e-09
1.1214e-05
1.23962e-05
0.000117799
2.20334e-05
1.83936e-06
2.09948e-06
2.00709e-06
1.8532e-06
1.72726e-06
1.64243e-06
1.58694e-06
1.5422e-06
1.52963e-06
5.22787e-06
1.22977e-06
1.28064e-06
1.21699e-06
1.15086e-06
1.1005e-06
1.06485e-06
1.04742e-06
1.04188e-06
9.76629e-07
1.74746e-06
5.67598e-07
5.78112e-07
5.52382e-07
5.24476e-07
5.02504e-07
4.85152e-07
4.73139e-07
4.61599e-07
3.24407e-06
7.01031e-07
2.77321e-07
2.76602e-07
2.63443e-07
2.51259e-07
2.41111e-07
2.32025e-07
2.25317e-07
2.18215e-07
8.87768e-06
3.02737e-07
1.35617e-07
1.34091e-07
1.28576e-07
1.21859e-07
1.17341e-07
1.12589e-07
1.0898e-07
3.97404e-07
1.97108e-05
1.38054e-07
6.71997e-08
6.60189e-08
6.31954e-08
6.05002e-08
5.75484e-08
1.23352e-06
1.43266e-05
2.37411e-06
3.98116e-05
6.40134e-08
3.41103e-08
3.38366e-08
3.2285e-08
3.0551e-08
2.9068e-08
2.82694e-08
2.77446e-08
2.52394e-07
2.53806e-05
3.60994e-08
1.83991e-08
1.80294e-08
1.69206e-08
1.65715e-08
1.54421e-08
1.64436e-05
2.02939e-05
1.98915e-06
6.09817e-05
1.51945e-08
1.43183e-08
1.09954e-08
1.09954e-08
9.91264e-09
1.0342e-08
9.63262e-09
9.63262e-09
2.07482e-06
4.15774e-05
1.29535e-08
8.24809e-09
8.04274e-09
7.34114e-09
6.94756e-09
6.41708e-09
6.87911e-09
1.0152e-05
8.18334e-06
7.43536e-05
2.16861e-05
2.80279e-06
3.42039e-06
3.56875e-06
3.49645e-06
3.37165e-06
3.27247e-06
3.20679e-06
3.18539e-06
3.23808e-06
3.88907e-06
8.9204e-07
9.93788e-07
9.8379e-07
9.52411e-07
9.18885e-07
8.90059e-07
8.63572e-07
8.31215e-07
7.23988e-07
1.42334e-06
4.36945e-07
4.48933e-07
4.30493e-07
4.13446e-07
3.97334e-07
3.84315e-07
3.75133e-07
2.56433e-07
2.13585e-06
5.79426e-07
2.18848e-07
2.18959e-07
2.09399e-07
1.99774e-07
1.91566e-07
1.85075e-07
1.79078e-07
1.72969e-07
3.1729e-08
2.54546e-07
1.09002e-07
1.0783e-07
1.03303e-07
9.85849e-08
9.48215e-08
9.07581e-08
8.80855e-08
2.05924e-07
8.25075e-06
1.16854e-07
5.51216e-08
5.39524e-08
5.159e-08
4.91322e-08
4.77005e-08
8.91465e-06
1.17261e-05
2.18129e-06
2.2171e-05
5.55874e-08
2.84225e-08
2.71074e-08
2.63863e-08
2.53257e-08
2.43288e-08
2.32259e-08
2.25895e-08
2.1635e-08
8.03715e-06
2.9537e-06
1.52145e-08
1.51573e-08
1.41646e-08
1.38973e-08
1.57365e-05
2.42341e-05
1.84433e-05
7.37227e-07
3.89646e-05
1.1535e-08
1.19918e-08
9.89196e-09
9.07631e-09
8.67716e-09
8.60774e-09
8.45155e-09
8.10446e-09
2.87197e-07
1.69336e-05
1.25044e-08
6.17235e-09
6.34734e-09
5.83828e-09
5.90191e-09
5.55193e-09
1.96936e-06
8.33248e-06
5.22884e-06
4.5717e-05
2.03431e-05
7.29828e-06
6.8396e-06
6.03029e-06
5.52787e-06
5.1489e-06
4.73551e-06
4.21167e-06
3.56975e-06
2.79254e-06
4.71187e-06
7.75544e-07
7.46129e-07
6.67867e-07
5.96593e-07
5.50252e-07
5.3346e-07
5.40226e-07
5.59592e-07
5.2989e-07
5.88213e-05
6.88477e-06
9.49823e-06
7.21502e-06
5.93409e-06
4.98414e-06
3.80654e-06
1.57126e-06
1.67115e-06
3.9096e-06
4.58578e-07
1.69494e-07
1.68932e-07
1.61301e-07
1.52472e-07
1.46675e-07
1.40419e-07
1.35332e-07
1.30481e-07
1.10603e-07
2.06269e-07
8.39663e-08
8.40931e-08
8.02649e-08
7.64621e-08
7.35466e-08
7.0555e-08
6.80198e-08
1.31578e-07
3.54748e-06
9.79617e-06
4.27025e-08
4.25251e-08
4.07504e-08
3.88427e-08
7.39736e-06
1.19445e-05
9.62692e-06
1.93907e-06
1.25787e-05
4.57697e-08
2.28535e-08
2.20845e-08
2.09803e-08
2.00141e-08
1.92057e-08
1.92451e-08
1.75493e-08
1.72535e-08
1.63189e-08
5.02618e-05
4.56911e-05
4.11072e-05
3.65172e-05
3.47386e-05
3.23409e-05
2.75896e-05
1.65978e-05
1.30614e-08
2.57126e-05
8.63031e-09
9.38951e-09
8.22792e-09
7.2922e-09
7.37286e-09
6.79207e-09
6.64687e-09
6.61461e-09
6.55007e-09
2.03902e-06
1.27667e-08
5.14649e-09
5.82677e-09
4.67325e-09
4.62888e-09
4.54015e-09
5.08961e-06
6.38858e-06
3.24941e-06
2.74641e-05
0.000212069
2.09567e-05
2.31666e-05
2.30677e-05
2.17799e-05
1.95668e-05
1.67775e-05
1.37099e-05
1.05108e-05
7.18708e-06
1.52084e-06
3.93946e-07
3.79655e-08
2.87742e-07
3.96627e-07
4.24983e-07
4.25746e-07
4.44429e-07
5.29352e-07
6.7137e-07
0.000201059
0.000127953
6.9834e-05
3.98906e-05
2.24965e-05
1.26753e-05
6.54787e-06
1.60279e-06
3.74707e-06
7.05238e-06
3.43112e-07
1.23857e-07
1.21176e-07
1.17175e-07
1.13161e-07
1.09064e-07
1.04761e-07
1.01324e-07
9.63333e-08
8.08123e-08
1.59094e-07
6.2833e-08
6.21966e-08
5.96984e-08
5.70116e-08
5.44427e-08
5.26515e-08
1.83762e-07
1.66557e-07
2.0944e-06
3.93995e-05
3.00301e-05
1.96791e-05
1.57527e-05
1.50477e-05
1.43167e-05
1.23598e-05
7.95917e-06
1.72647e-06
7.38899e-06
3.62348e-08
1.68094e-08
1.67361e-08
1.59478e-08
1.54896e-08
1.50313e-08
1.36015e-08
1.38215e-08
1.32715e-08
1.18823e-08
0.000219216
4.35121e-05
7.99482e-05
7.01432e-05
5.46635e-05
4.07657e-05
2.87019e-05
1.52019e-05
4.95511e-07
1.80291e-05
8.19581e-09
6.6891e-09
6.6741e-09
5.9542e-09
5.41427e-09
5.41427e-09
5.26429e-09
5.08431e-09
5.09931e-09
5.14481e-09
1.06449e-08
3.82198e-09
3.72575e-09
4.15194e-09
3.64326e-09
3.54702e-09
5.27228e-06
4.38527e-06
1.9002e-06
1.57121e-05
0.000491108
7.0183e-05
7.25988e-05
6.3843e-05
5.21899e-05
4.04045e-05
2.96324e-05
2.01272e-05
1.15885e-05
3.41266e-06
1.41862e-05
2.51656e-06
1.87944e-06
1.55135e-06
1.35854e-06
1.14477e-06
8.30724e-07
3.68124e-07
3.29629e-07
1.33159e-06
0.000340821
0.000241603
0.000117363
6.11637e-05
3.08197e-05
1.50343e-05
6.22079e-06
5.28663e-08
6.64728e-06
1.1192e-05
2.29552e-07
8.71265e-08
8.44297e-08
7.9458e-08
7.7183e-08
7.45246e-08
7.30932e-08
7.21474e-08
7.10738e-08
5.49374e-08
1.83909e-05
4.43675e-08
4.3995e-08
2.1923e-07
1.60661e-06
2.42685e-06
2.47965e-06
1.64346e-06
2.44339e-07
1.83797e-06
3.98439e-05
4.50398e-05
3.52184e-05
2.63247e-05
2.00081e-05
1.51648e-05
1.09364e-05
6.35196e-06
1.50587e-06
4.39478e-06
2.69478e-08
1.25251e-08
1.17924e-08
1.18094e-08
1.07699e-08
1.04632e-08
1.0395e-08
9.50889e-09
9.54297e-09
8.30012e-09
0.000486715
1.64845e-05
8.4043e-05
8.30729e-05
6.35476e-05
4.44518e-05
2.87857e-05
1.43368e-05
8.65677e-07
1.37144e-05
7.69111e-09
4.78233e-09
4.26645e-09
4.01548e-09
4.62896e-09
3.70875e-09
3.94577e-09
3.76452e-09
3.6948e-09
4.07231e-09
8.50011e-09
2.79899e-09
2.79899e-09
2.82455e-09
2.78621e-09
3.72048e-08
2.91493e-06
2.18474e-06
9.0576e-07
7.56731e-06
0.00180363
0.000161186
0.000145671
0.000107223
7.39384e-05
4.85863e-05
2.97286e-05
1.52932e-05
3.28513e-06
7.99364e-06
2.57305e-05
6.92413e-06
5.88167e-06
4.89397e-06
3.69609e-06
2.33606e-06
8.43933e-07
8.3823e-07
2.87071e-06
5.2511e-06
0.000488259
0.000365317
0.000159275
7.48782e-05
3.29709e-05
1.30904e-05
3.18578e-06
3.17025e-06
1.06421e-05
1.65839e-05
1.57374e-07
5.99894e-08
5.51299e-08
4.98427e-08
4.52089e-08
4.22267e-08
3.92682e-08
3.79256e-08
3.90662e-08
4.23003e-08
5.89702e-05
3.53771e-05
2.04457e-05
1.31886e-05
8.94907e-06
6.16725e-06
4.03981e-06
2.10568e-06
2.85827e-07
1.62393e-06
2.92504e-05
3.71619e-05
3.07169e-05
2.28745e-05
1.66056e-05
1.17886e-05
7.93568e-06
4.43393e-06
1.17193e-06
2.39771e-06
1.85869e-08
8.36454e-09
8.49128e-09
7.5566e-09
7.30313e-09
6.93877e-09
6.82787e-09
6.5744e-09
6.16251e-09
5.495e-09
0.000834343
0.000119372
6.16673e-05
7.96301e-05
6.31929e-05
4.36873e-05
2.73621e-05
1.33833e-05
1.16855e-06
1.09401e-05
6.64121e-09
3.68109e-09
3.18855e-09
3.29224e-09
2.70897e-09
2.73489e-09
2.6312e-09
2.57935e-09
2.21643e-09
2.29922e-09
6.09153e-09
1.80598e-09
1.91291e-09
1.71093e-09
1.94856e-09
1.81786e-09
1.6634e-09
2.61962e-07
2.41015e-07
2.14496e-06
0.00423646
8.544e-05
6.59214e-05
3.96354e-05
2.07181e-05
8.24257e-06
2.8305e-07
6.91484e-06
1.32327e-05
2.02538e-05
2.6448e-05
1.97582e-05
1.44451e-05
9.71831e-06
5.79304e-06
2.58357e-06
1.85066e-07
2.84776e-06
5.76428e-06
8.83446e-06
0.000554349
0.000459957
0.000178489
7.49719e-05
2.79555e-05
7.94408e-06
6.06274e-07
5.45587e-06
1.18264e-05
1.82819e-05
7.40004e-08
3.9896e-08
3.66929e-08
3.11591e-08
2.43883e-08
1.63583e-08
8.95783e-09
1.65681e-10
1.0217e-08
3.22134e-08
5.06115e-05
3.42784e-05
1.93749e-05
1.20588e-05
7.74305e-06
4.99651e-06
3.06984e-06
1.54241e-06
2.33469e-07
1.04527e-06
1.65515e-05
2.00053e-05
1.69746e-05
1.26867e-05
9.09366e-06
6.30791e-06
4.13343e-06
2.2957e-06
6.84065e-07
9.9351e-07
1.12098e-08
4.85998e-09
4.78635e-09
4.46235e-09
4.35926e-09
4.21198e-09
3.85853e-09
3.79962e-09
3.59344e-09
2.83599e-09
0.00106773
0.000215476
2.0596e-05
5.7755e-05
4.98164e-05
3.49939e-05
2.17865e-05
1.07219e-05
1.23735e-06
7.83001e-06
3.20408e-09
1.50619e-09
1.60259e-09
1.93998e-09
1.75923e-09
2.04842e-09
1.12061e-09
1.62669e-09
1.3134e-09
1.71705e-09
1.23603e-06
7.93933e-07
1.18186e-09
1.1929e-09
8.72588e-10
4.96768e-07
8.06293e-07
3.8332e-07
1.9652e-07
1.24264e-06
0.00271674
0.000660983
0.000464179
0.000315763
0.000219674
0.000150056
9.58678e-05
5.28271e-05
7.76672e-06
2.92393e-05
1.01539e-05
9.46067e-06
4.84081e-06
1.39243e-06
7.60504e-07
2.15484e-06
3.22968e-06
4.27155e-06
5.43732e-06
6.25584e-06
0.000287295
0.000372583
0.000124966
4.62148e-05
1.33483e-05
8.17419e-07
3.78825e-06
6.21339e-06
9.92705e-06
1.4657e-05
5.34582e-08
9.28246e-09
2.09574e-08
2.92028e-08
3.55177e-08
3.96456e-08
4.60118e-08
4.91128e-08
5.14951e-08
5.22493e-08
2.06712e-05
1.52929e-05
8.38734e-06
5.06484e-06
3.14931e-06
1.96769e-06
1.17822e-06
5.91273e-07
1.03468e-07
3.80582e-07
6.23595e-06
5.84302e-06
4.95389e-06
3.70047e-06
2.63541e-06
1.80709e-06
1.1699e-06
6.5446e-07
2.21146e-07
2.27549e-07
5.89808e-09
1.87566e-09
2.58759e-09
2.71081e-09
1.60184e-09
2.64235e-09
1.47862e-09
1.99888e-09
1.87566e-09
1.47503e-09
0.000713918
0.000178192
8.12187e-06
2.39871e-05
2.36434e-05
1.71547e-05
1.07658e-05
5.38257e-06
7.81526e-07
3.58271e-06
2.15873e-09
7.28109e-10
7.84118e-10
7.05706e-10
1.01935e-09
7.28109e-10
1.20978e-09
4.36866e-10
1.04176e-09
2.83592e-10
9.12607e-05
0.000129228
8.54393e-05
5.05758e-05
2.89279e-05
1.63062e-05
8.74527e-06
3.53295e-06
7.92161e-07
5.5085e-06
0.00399903
0.000680349
0.000507602
0.000382266
0.000286696
0.000211949
0.00015218
0.000103486
6.24157e-05
2.90291e-05
8.21307e-06
1.75466e-05
1.22595e-05
8.20356e-06
5.46305e-06
3.66023e-06
2.44094e-06
1.51552e-06
6.06089e-07
6.72513e-07
9.73524e-05
8.38379e-05
1.98839e-05
5.665e-06
3.71194e-07
1.15292e-06
1.44836e-06
1.55955e-06
2.06636e-06
3.31498e-06
2.01551e-08
1.18176e-08
6.49107e-09
1.14548e-09
2.60597e-09
6.32879e-09
1.0338e-08
1.39749e-08
1.60654e-08
1.90055e-08
1.71005e-06
1.79057e-06
9.42192e-07
5.52401e-07
3.33515e-07
2.03405e-07
1.19834e-07
6.10051e-08
1.30094e-08
4.15483e-08
7.9429e-07
4.53926e-07
3.71623e-07
2.73599e-07
1.92069e-07
1.29483e-07
8.23029e-08
4.70221e-08
1.89434e-08
1.34451e-08
2.48891e-09
5.34559e-10
3.43645e-10
4.2001e-10
7.50928e-10
3.81828e-10
6.36379e-10
6.61834e-10
4.83648e-10
6.10924e-10
5.29645e-05
2.82347e-05
2.43217e-06
2.73123e-06
3.01622e-06
2.25431e-06
1.43298e-06
7.33109e-07
1.35213e-07
4.49591e-07
2.11479e-09
8.01838e-10
1.87443e-10
4.37366e-10
1.04135e-11
3.43645e-10
3.95712e-10
2.49924e-10
4.16539e-11
3.43645e-10
0.000264635
0.000160165
9.5041e-05
5.4337e-05
3.06412e-05
1.70875e-05
9.04175e-06
3.71096e-06
6.42549e-07
5.23526e-06
0.52592
0.418908
0.530086
0.919519
0.686061
0.623815
0.739145
1.11559
0.849542
0.791458
0.937808
1.44118
0.616639
0.593182
0.702748
1.09974
0.450517
0.449078
0.533237
0.863307
0.298444
0.294952
0.365854
0.62256
0.198676
0.189649
0.25331
0.455079
0.12825
0.118268
0.169456
0.31563
0.0885756
0.0809127
0.122153
0.231069
0.0667344
0.0615973
0.0994063
0.188147
0.0358183
0.00179111
2.0911e-05
0.0190105
0.0785016
0.00651706
1.56488e-05
0.0409406
0.136608
0.0151994
8.47744e-06
0.070415
0.12498
0.0170195
4.38739e-06
0.0603769
0.110292
0.0169902
2.26815e-06
0.048919
0.0853451
0.0142379
1.1671e-06
0.037577
0.0644302
0.0110644
6.15087e-07
0.0305287
0.0464556
0.00833966
3.52394e-07
0.0232006
0.0357416
0.00714531
0.00104085
0.0184385
0.0301184
0.00824888
0.00382286
0.0155086
0.0170969
0.0134458
0.0141239
0.0196766
0.0387084
0.0266604
0.0261721
0.0408062
0.0749394
0.0486848
0.049254
0.0796657
0.071051
0.043072
0.0446851
0.0749943
0.0650989
0.0370627
0.039568
0.069959
0.0519933
0.0280418
0.0306809
0.0566956
0.0404218
0.0206585
0.0232366
0.0452094
0.0299438
0.0145431
0.0166938
0.0336842
0.0234929
0.0104591
0.0123984
0.0259958
0.0200866
0.00850944
0.0105746
0.0215373
0.00191548
0.00138655
0.00133532
0.00194722
0.00609099
0.00417242
0.00386152
0.00631334
0.0162332
0.0110074
0.010476
0.0165932
0.0190433
0.0125543
0.0123939
0.018969
0.0207156
0.0131694
0.0136029
0.0207299
0.0189515
0.0116311
0.0124472
0.0190399
0.0164254
0.00967374
0.010691
0.0167396
0.0133905
0.00760611
0.00860725
0.013672
0.0111938
0.00583844
0.0069168
0.0112396
0.00994576
0.00508419
0.00648442
0.0100797
0.000603658
0.000567796
0.000597689
0.000815402
0.00226482
0.00210271
0.00236406
0.0034065
0.00609119
0.00574157
0.00640252
0.00889165
0.00729251
0.00654767
0.00705806
0.00959954
0.00837979
0.00713438
0.00763231
0.0103485
0.00813667
0.00655965
0.00704099
0.00951503
0.00745695
0.00568349
0.00617989
0.00841361
0.00648887
0.00469426
0.00517551
0.00705127
0.00583761
0.00387539
0.00446038
0.00604804
0.00558988
0.00369229
0.00456353
0.0058288
0.000106098
0.000102593
0.000102558
0.000161862
0.000764399
0.000720952
0.000845005
0.00123369
0.00245351
0.00248808
0.00298571
0.00410838
0.00301899
0.00305276
0.00354257
0.00471723
0.00358396
0.00355012
0.00403788
0.00531283
0.00361468
0.00344926
0.00386863
0.00503589
0.00342533
0.00313075
0.00349315
0.00451947
0.00315464
0.00273814
0.00304686
0.00389895
0.00305571
0.00244115
0.00279437
0.00347156
0.00302998
0.0023828
0.00289396
0.00336985
4.68441e-06
7.83484e-06
3.33212e-06
2.2083e-05
0.000269014
0.000250865
0.000300324
0.000459127
0.00117268
0.0011976
0.00147995
0.00206791
0.00149152
0.00157087
0.00189593
0.00252735
0.00179904
0.00191341
0.00227566
0.00297666
0.00184301
0.00193183
0.00226051
0.00291534
0.0017491
0.00179595
0.00207882
0.00264686
0.00167024
0.00164306
0.00187432
0.00235199
0.00169651
0.00155613
0.00178938
0.00213946
0.00169489
0.00153308
0.00183035
0.0020574
1.77302e-05
6.39915e-06
6.14805e-06
6.33721e-06
7.34494e-05
6.25691e-05
7.48284e-05
0.000128675
0.000535635
0.000528804
0.000659461
0.000946841
0.000754976
0.000795352
0.000972137
0.0013042
0.000954684
0.00103522
0.00125497
0.00164666
0.00102087
0.00110789
0.0013261
0.00171301
0.000971501
0.00105452
0.00125091
0.00158581
0.000959745
0.00101084
0.00117685
0.00146898
0.000962144
0.000966395
0.00111408
0.00131159
0.000976452
0.000979653
0.00115458
0.00128524
1.44284e-05
5.01874e-06
4.84598e-06
5.01188e-06
1.04377e-05
5.54209e-06
5.39899e-06
1.94764e-05
0.000232145
0.00020987
0.000261667
0.000400641
0.000376679
0.000390773
0.000479294
0.000649136
0.000503397
0.000548127
0.00067001
0.000883476
0.000577603
0.000635121
0.000767708
0.000995751
0.000554222
0.000618873
0.000742806
0.000939296
0.000574736
0.000627644
0.000738822
0.000921738
0.000548259
0.000584083
0.000673029
0.00078941
0.000579661
0.000624269
0.000728108
0.000810057
1.11397e-05
3.68853e-06
3.554e-06
3.70846e-06
3.50358e-06
1.35134e-06
1.31611e-06
1.45388e-06
8.71828e-05
6.03184e-05
7.34426e-05
0.000138087
0.000181347
0.000181815
0.000222491
0.000305686
0.000256101
0.000276639
0.000339696
0.000451729
0.000321476
0.000353872
0.00042987
0.000561561
0.000307233
0.000349148
0.000421548
0.000531437
0.000343678
0.00038232
0.00045272
0.00056673
0.000313689
0.000346312
0.000398841
0.000468367
0.000350102
0.00039376
0.000455765
0.000507989
9.86739e-06
3.26037e-06
3.11595e-06
3.23108e-06
2.87281e-06
1.00198e-06
9.79937e-07
1.08572e-06
2.18467e-05
4.32108e-07
4.15248e-07
2.15871e-05
8.30505e-05
7.84567e-05
9.50431e-05
0.000133241
0.000125095
0.000132363
0.000163031
0.000220037
0.000176843
0.000192966
0.000235201
0.000310946
0.000163238
0.00018785
0.000227759
0.000285677
0.000204636
0.000228867
0.000272232
0.000343534
0.000177299
0.000199567
0.00022981
0.000270395
0.000212114
0.000244353
0.000281782
0.000314375
3.53409e-06
1.14542e-06
1.21787e-06
1.40562e-06
2.12188e-06
7.25309e-07
7.04863e-07
7.89824e-07
8.43208e-07
3.10474e-07
2.98321e-07
3.39909e-07
3.46438e-05
2.94181e-05
3.46387e-05
4.97155e-05
5.73082e-05
5.83204e-05
7.19684e-05
9.96471e-05
9.61703e-05
0.000103115
0.00012598
0.000169566
8.1176e-05
9.47226e-05
0.000115267
0.00014293
0.000121865
0.000135522
0.000161901
0.000207157
9.56209e-05
0.00010866
0.000125096
0.000147199
0.000127267
0.000148344
0.00017118
0.000190679
1.25108e-05
3.22643e-06
2.7577e-06
2.49867e-06
1.67179e-06
5.77221e-07
5.79898e-07
6.69529e-07