/*--------------------------------*- C++ -*----------------------------------*\
| =========                 |                                                 |
| \\      /  F ield         | foam-extend: Open Source CFD                    |
|  \\    /   O peration     | Version:     4.0                                |
|   \\  /    A nd           | Web:         http://www.foam-extend.org         |
|    \\/     M anipulation  |                                                 |
\*---------------------------------------------------------------------------*/
FoamFile
{
    version     2.0;
    format      ascii;
    class       volScalarField;
    location    "250";
    object      epsilon;
}
// * * * * * * * * * * * * * * * * * * * * * * * * * * * * * * * * * * * * * //

dimensions      [0 2 -3 0 0 0 0];

internalField   nonuniform List<scalar> 
34480
(
4818.16
4775.91
4746.07
4738.87
4759.85
4848.69
5122.54
5800.21
7166.21
9650.42
943.692
780.675
706.348
806.527
1467.31
4760.8
20974.5
96874.1
411296
1.41104e+06
694.226
547.228
490.587
586.283
1176.76
4223.14
20423.2
103289
477887
1.79518e+06
513.835
401.356
364.25
447.787
937.583
3620.79
19028.9
104074
517884
2.09352e+06
392.383
309.083
289.634
363.61
773.864
3114.83
17324.8
100581
532341
2.29176e+06
308.502
246.813
237.455
302.154
655.683
2746.58
15940.2
96705.7
537773
2.44217e+06
259.15
213.022
209.953
266.605
575.388
2443.78
14546.1
91104.8
527388
2.50742e+06
242.659
207.971
207.116
253.401
510.248
2103.49
12633.1
80929
484264
2.40063e+06
403.966
380.744
380.127
406.373
552.513
1454.45
7441.17
46930.4
287941
1.48844e+06
5499.63
5498.5
5502.92
5510.7
5520.29
5531.69
5547.57
5583.32
5700.97
5895.53
4756.57
4715.1
4682.41
4670.84
4679.91
4732.4
4913.25
5384.63
6301.96
7761.06
800.205
664.449
573.77
560.662
674.309
1187.41
3273.65
11735.3
56216
359186
567.297
442.157
371.28
370.932
487.541
953.185
2868.29
11803.4
69065.9
497266
437.6
335.379
283.626
289.642
379.384
723.826
2240.83
10685.3
77960.4
622949
346.586
266.872
233.734
244.272
315.301
571.666
1731.77
9162.4
82073.6
721669
279.781
218.71
197.5
208.938
266.249
467.381
1385.69
7900.57
84228.7
802735
239.584
192.685
179.506
190.612
239.128
406.78
1168.14
6860.73
83471.8
851167
228.518
192.671
183.851
192.929
229.674
357.374
939.165
5504.34
75680.9
830475
389.623
365.246
360.336
365.57
385.412
445.733
705.762
2890.75
42803.4
531146
5384.33
5380.03
5381.07
5385.02
5389.86
5395.63
5405.91
5429.78
5527.55
5877.25
4680.79
4641.11
4609.39
4597.82
4604.31
4646.85
4798.92
5206.47
5980.45
6881.72
655.759
556.687
479.824
457.977
513.699
777.663
1704.28
4327.67
11164.9
36596.7
438.258
347.821
288.155
276.27
331.925
557.709
1362.86
4060.18
13355.8
57448.8
353.394
274.399
228.831
224.131
265.217
420.865
1029.68
3562.99
15342.1
84893.4
291.977
227.722
197.417
198.554
230.753
338.583
778.069
2978.06
16709.2
115857
243.743
193.245
173.278
176.941
203.002
283.489
614.763
2533.83
18108.4
150915
214.236
174.838
162.022
166.674
189.217
255.052
521.826
2215.66
19208.1
183911
209.81
179.4
170.815
175.252
192.724
242.461
441.266
1813.35
18441.5
199945
371.244
350.568
346.139
349.582
361.764
392.341
494.563
1154.44
10511.1
131035
5281.73
5275.37
5274.26
5275.98
5278.72
5282.56
5291.17
5314.25
5411.02
5775.52
4596.56
4558.52
4528.02
4516.78
4521.53
4556.14
4683.51
5037.69
5724.77
6454.05
553.539
478.331
413.093
390.158
422.89
592.745
1162.71
2538.89
4784.91
8647.31
343.061
279.137
230.681
216.803
249.249
388.797
853.491
2128.26
4752.61
11050.5
286.672
227.452
189.545
182.186
205.462
298.411
640.02
1799.63
5007.53
15477.1
246.043
196.099
170.425
168.615
186.948
249.468
488.922
1466.64
5113.62
21259.3
212.417
172.205
155.04
156.042
171.375
217.965
395.57
1225.66
5291.75
28992.4
191.602
159.777
148.59
150.92
164.758
203.507
345.964
1061.88
5469.43
37569.1
192.838
167.938
160.418
163.14
174.43
204.799
312.395
882.684
5176.81
43126.3
353.616
336.612
332.857
335.323
344.062
365.123
425.94
699.59
2983.37
28244.2
5168.74
5162.32
5160.73
5161.88
5164.4
5168.74
5178.76
5203.55
5291.46
5603.37
4504.2
4467.47
4438.13
4427.19
4430.56
4459.21
4567.64
4878.17
5491.64
6113.85
486.455
424.83
367.983
345.756
366.527
486.777
887.74
1809.11
3075.97
4246.88
280.873
233.672
193.628
179.709
199.275
291.727
592.288
1343
2517.65
3850.21
239.319
194.084
162.718
154.628
167.806
225.921
435.718
1079.54
2389.95
4471.02
210.727
171.935
150.68
147.574
157.829
195.027
335.069
854.697
2259.15
5541.63
187.063
155.382
141.089
140.671
149.57
177.069
278.031
705.213
2194.64
7244.34
172.45
147.194
137.793
138.728
147.149
170.371
250.194
607.709
2146.33
9312.27
177.902
157.928
151.569
153.134
160.362
179.236
240.117
519.633
1962.59
10797.1
336.805
323.185
320.066
321.718
327.739
341.818
378.41
515.2
1251.57
7217.92
5048.97
5042.74
5040.87
5041.62
5043.99
5048.64
5059.13
5082.96
5157.36
5405.32
4403.37
4367.84
4339.7
4329.12
4331.55
4356.02
4450.89
4729.07
5286.23
5833.89
442.421
388.466
337.683
316.792
331.307
423.882
734.494
1445.11
2397.63
3085.11
242.279
204.869
170.844
157.721
170.189
235.776
448.951
964.129
1698.56
2191.9
207.143
171.29
145.205
137.382
144.93
182.884
321.094
727.764
1454.81
2063.37
184.454
154.039
136.683
133.236
138.846
161.271
246.971
553.563
1269.84
2176.83
167.056
142.244
130.633
129.556
134.579
150.691
209.51
449.638
1159.76
2550.33
156.546
136.829
129.183
129.321
134.296
147.957
193.018
386.195
1073.89
3051.47
164.87
149.214
144.03
144.838
149.329
160.806
195.296
343.486
957.665
3422.94
320.751
310.221
307.736
308.797
312.841
322.045
344.065
418.454
728.924
2465.8
4922.09
4916.33
4914.38
4914.93
4917.22
4922.03
4932.36
4953.95
5013.47
5201.82
4293.76
4259.53
4232.76
4222.67
4224.48
4245.9
4330.58
4583.67
5096.99
5589.5
411.731
362.431
316.33
296.931
307.899
383.549
639.956
1233.14
2039.69
2574.67
218.27
186.559
156.937
144.897
153.405
203.151
366.817
762.701
1324.86
1630.58
185.326
155.851
134.027
126.926
131.415
157.703
255.75
543.045
1046.33
1342.31
165.122
141.02
126.99
123.702
126.743
140.753
196.416
395.418
847.386
1232.03
151.553
132.218
122.973
121.677
124.434
133.945
169.566
314.884
728.177
1270.88
143.637
128.481
122.428
122.148
124.987
132.917
158.789
269.03
640.637
1367.31
153.737
141.754
137.659
137.984
140.661
147.46
167.062
249.195
564.106
1445.41
305.566
297.75
295.843
296.483
299.119
304.97
318.157
360.002
520.503
1197.29
4787.85
4782.79
4780.92
4781.37
4783.57
4788.29
4797.88
4816.5
4863.52
5009.62
4175.15
4142.52
4117.42
4107.97
4109.38
4128.4
4204.69
4436.38
4912.84
5362.4
387.828
341.782
299.696
281.876
290.606
354.637
574.396
1092.18
1814.03
2270.68
202.326
174.168
148.029
137.165
143.337
183.032
316.131
644.3
1124.95
1375.44
169.91
145.097
126.834
120.632
123.445
142.714
216.926
438.937
841.659
1067.73
150.739
131.551
120.344
117.45
119.105
128.3
166.902
308.385
641.638
904.47
139.625
124.68
117.463
116.191
117.664
123.404
146.165
241.422
521.642
846.409
133.34
121.888
117.218
116.758
118.319
122.906
138.276
205.244
437.809
823.741
144.402
135.462
132.323
132.363
133.88
137.802
149.083
196.71
382.647
815.596
291.28
285.765
284.36
284.718
286.39
290.015
297.879
321.828
415.393
769.027
4646
4641.77
4640.11
4640.51
4642.58
4646.97
4655.4
4670.68
4707.34
4825.26
4047.45
4016.86
3993.78
3985.14
3986.31
4003.26
4071.94
4283.53
4726.38
5141.17
366.616
323.328
285.091
268.981
276.153
331.217
523.046
985.974
1651.69
2058.04
190.311
164.705
141.62
131.986
136.668
169.305
281.304
565.709
1001.59
1231.92
158.181
137.122
121.964
116.709
118.564
133.266
191.95
373.839
723.774
939.62
139.766
124.552
115.744
113.327
114.238
120.564
148.785
256.581
527.551
765.934
130.452
119.051
113.536
112.408
113.167
116.73
132.037
199.102
410.154
674.263
125.247
116.764
113.251
112.753
113.575
116.238
125.744
169.158
331.065
609.59
136.703
130.217
127.882
127.769
128.573
130.771
137.362
166.367
287.837
569.949
277.853
274.219
273.229
273.411
274.449
276.647
281.315
295.206
353.43
577.421
4496.32
4492.98
4491.6
4491.99
4493.86
4497.72
4504.74
4516.67
4544.52
4641.43
3910.8
3882.73
3862.05
3854.38
3855.39
3870.4
3931.64
4122.95
4531.94
4918.96
345.714
305.246
271.011
256.793
262.79
310.209
478.332
896.32
1521.8
1897.56
179.797
156.409
136.253
127.92
131.579
158.72
254.318
506.136
914.01
1140.05
148.474
130.711
118.345
114.029
115.306
126.751
174.142
327.578
644.216
868.51
131.128
119.228
112.452
110.519
111.03
115.533
136.818
222.217
453.804
692.908
123.369
114.835
110.721
109.782
110.152
112.425
123.095
172.576
341.149
585.257
118.959
112.822
110.247
109.787
110.198
111.762
117.847
147.432
267.633
501.722
130.429
125.865
124.178
123.999
124.386
125.579
129.477
147.89
232.406
447.985
265.17
263.013
262.353
262.436
263.073
264.39
267.148
275.3
312.955
468.693
4338.64
4336.19
4335.11
4335.49
4337.1
4340.32
4345.85
4354.68
4375.12
4454.33
3765.52
3740.47
3722.52
3715.94
3716.85
3729.93
3783.55
3953.62
4326.87
4690.9
323.882
286.667
256.759
244.615
249.665
290.072
436.27
813.257
1407.08
1770.99
169.497
148.4
131.215
124.251
127.166
149.647
231.071
454.922
842.099
1076.02
139.898
125.194
115.369
111.95
112.861
121.791
160.109
290.3
580.634
821.162
124.143
115.039
109.971
108.485
108.783
112.051
128.259
196.707
397.793
642.991
117.869
111.635
108.648
107.903
108.07
109.556
117.126
154.338
291.934
524.91
114.115
109.795
107.96
107.572
107.767
108.707
112.698
133.39
225.08
431.295
125.342
122.233
121.049
120.855
121.014
121.645
123.972
135.976
196.564
371.483
253.051
252.005
251.598
251.634
252.029
252.819
254.446
259.268
283.986
396.337
4172.9
4171.26
4170.49
4170.85
4172.17
4174.68
4178.8
4184.98
4199.43
4262.66
3612.17
3590.56
3575.57
3570.16
3571
3582.12
3627.84
3775.35
4109.94
4453.2
300.661
267.366
242.126
232.183
236.414
270.108
394.853
730.981
1295.99
1666.76
158.902
140.401
126.27
120.709
123.052
141.347
209.557
406.404
774.195
1027.02
132.087
120.278
112.748
110.153
110.825
117.703
148.199
257.236
521.765
781.532
118.414
111.658
107.992
106.897
107.086
109.471
121.702
175.981
349.145
598.488
113.582
109.16
107.053
106.485
106.553
107.549
112.924
140.77
252.437
473.019
110.407
107.458
106.186
105.88
105.972
106.563
109.219
123.727
193.511
374.675
121.2
119.15
118.34
118.161
118.208
118.542
119.946
127.851
171.419
314.326
241.272
241.024
240.804
240.824
241.078
241.561
242.522
245.377
261.562
343.149
3999.18
3998.22
3997.72
3998.04
3999.06
4000.92
4003.79
4007.84
4017.61
4066.18
3451.48
3433.66
3421.72
3417.49
3418.25
3427.39
3465
3588.76
3881.15
4203.84
276.161
247.517
227.162
219.436
222.918
250.098
353.329
646.267
1179.79
1574.11
148.041
132.515
121.452
117.259
119.135
133.569
188.983
357.756
702.616
983.049
124.999
115.903
110.388
108.518
109.025
114.184
137.7
226.321
461.788
739.156
113.725
108.898
106.35
105.577
105.714
107.444
116.442
158.224
303.274
550.3
110.24
107.204
105.762
105.343
105.372
106.057
109.822
130.139
218.302
421.108
107.582
105.634
104.778
104.549
104.599
104.996
106.776
116.765
168.514
323.063
117.776
116.463
115.922
115.77
115.772
115.96
116.825
122.006
152.738
266.858
229.591
229.882
229.794
229.816
229.989
230.296
230.865
232.535
242.903
300.613
3817.7
3817.26
3816.98
3817.27
3818.01
3819.27
3821.13
3823.57
3829.8
3865.25
3284.42
3270.52
3261.54
3258.43
3259.1
3266.27
3295.81
3395.18
3641.85
3941.59
250.907
227.515
212.019
206.39
209.16
230.103
311.854
557.986
1051.48
1480.81
137.313
125.04
116.909
113.965
115.435
126.321
169.322
308.177
622.286
933.686
118.754
112.109
108.286
107.018
107.406
111.125
128.416
197.114
398.324
685.645
109.957
106.658
104.962
104.443
104.557
105.793
112.147
142.805
258.811
493.335
107.649
105.631
104.67
104.373
104.393
104.877
107.45
121.638
188.022
365.895
105.442
104.196
103.634
103.472
103.511
103.799
104.993
111.624
148.229
273.668
114.875
114.05
113.692
113.573
113.566
113.691
114.243
117.581
138.428
225.655
217.765
218.391
218.392
218.421
218.548
218.75
219.086
220.027
226.381
265.191
3628.83
3628.75
3628.65
3628.88
3629.38
3630.17
3631.26
3632.55
3636.21
3660.48
3112.08
3101.97
3095.68
3093.56
3094.12
3099.42
3121.26
3196.58
3394.83
3666.43
225.708
207.832
196.854
193.064
195.158
210.341
271.282
467.125
906.255
1371.75
127.312
118.329
112.8
110.902
112.011
119.739
151.055
258.583
530.905
867.153
113.5
108.946
106.463
105.66
105.958
108.502
120.414
170.212
331.858
614.275
107.018
104.871
103.791
103.459
103.562
104.428
108.673
129.703
216.461
425.621
105.653
104.35
103.724
103.52
103.545
103.898
105.596
114.909
161.594
307.456
103.832
103.057
102.697
102.588
102.629
102.85
103.647
107.82
131.993
226.83
112.339
111.818
111.582
111.494
111.495
111.598
111.969
114.065
127.409
190.008
205.553
206.36
206.415
206.453
206.551
206.687
206.88
207.364
210.972
235.173
3433.12
3433.26
3433.28
3433.46
3433.77
3434.2
3434.75
3435.27
3437.17
3452.47
2935.58
2928.88
2924.85
2923.53
2923.97
2927.59
2942.51
2995.43
3144.43
3379.62
201.466
188.881
181.768
179.455
180.927
191.089
232.95
376.963
743.207
1228.87
118.647
112.664
109.238
108.131
108.921
113.995
134.935
211.383
429.999
771.386
109.321
106.424
104.925
104.454
104.679
106.313
113.85
146.782
265.587
521.506
104.805
103.474
102.817
102.615
102.709
103.301
105.947
119.132
178.245
348.824
104.122
103.299
102.898
102.763
102.797
103.06
104.138
109.775
139.683
248.658
102.63
102.161
101.935
101.866
101.909
102.084
102.609
105.058
119.6
184.675
110.049
109.711
109.553
109.493
109.506
109.602
109.866
111.144
119.046
160.347
192.711
193.584
193.668
193.712
193.789
193.88
193.979
194.175
195.967
209.461
3231.27
3231.52
3231.61
3231.76
3231.92
3232.11
3232.3
3232.37
3233.13
3241.77
2756.1
2752.16
2749.87
2749.16
2749.46
2751.69
2760.85
2794.4
2896.18
3083.41
178.932
170.896
166.772
165.524
166.468
172.595
198.334
292.877
568.146
1034.18
111.752
108.181
106.267
105.688
106.213
109.236
121.728
169.946
326.161
638.072
106.188
104.487
103.65
103.397
103.564
104.545
108.824
128.049
204.923
410.055
103.192
102.404
102.019
101.904
101.988
102.382
103.907
111.254
146.665
269.051
102.946
102.433
102.181
102.097
102.136
102.334
102.992
106.077
122.972
194.517
101.741
101.464
101.327
101.288
101.329
101.464
101.802
103.121
110.845
149.965
107.923
107.694
107.588
107.55
107.572
107.662
107.859
108.617
112.852
137.26
178.962
179.815
179.909
179.954
180.013
180.07
180.104
180.121
180.785
187.05
3024.2
3024.47
3024.59
3024.7
3024.78
3024.82
3024.8
3024.63
3024.74
3028.9
2574.64
2572.87
2571.79
2571.47
2571.65
2572.82
2577.65
2596
2655.8
2786.04
158.458
153.843
151.76
151.191
151.741
154.966
168.56
221.178
395.871
780.085
106.74
104.838
103.868
103.594
103.917
105.524
111.925
137.578
231.113
470.998
103.948
103.028
102.596
102.472
102.595
103.149
105.281
114.743
156.073
292.408
102.04
101.595
101.378
101.318
101.39
101.649
102.458
105.976
123.68
196.495
102.028
101.719
101.565
101.518
101.558
101.705
102.094
103.592
111.634
150.723
101.084
100.931
100.854
100.834
100.87
100.968
101.175
101.816
105.284
124.811
105.914
105.759
105.688
105.667
105.693
105.771
105.919
106.357
108.359
120.824
163.928
164.691
164.78
164.823
164.865
164.894
164.885
164.798
164.834
166.788
2813.07
2813.3
2813.42
2813.5
2813.53
2813.5
2813.39
2813.15
2812.95
2814.47
2392.65
2392.09
2391.71
2391.61
2391.7
2392.19
2394.23
2402.13
2429.74
2501.16
139.694
137.397
136.507
136.314
136.634
138.088
143.777
166.219
249.839
489.537
103.389
102.464
102.002
101.879
102.065
102.821
105.499
116.109
158.515
296.636
102.371
101.912
101.702
101.649
101.738
102.041
102.965
106.644
123.442
190.742
101.223
100.988
100.874
100.848
100.905
101.07
101.473
102.87
109.681
142.223
101.301
101.128
101.042
101.019
101.055
101.16
101.384
102.025
105.042
121.261
100.604
100.532
100.495
100.488
100.515
100.58
100.698
100.976
102.207
109.582
104.012
103.913
103.868
103.857
103.88
103.94
104.045
104.29
105.106
110.29
146.968
147.574
147.647
147.682
147.708
147.716
147.682
147.552
147.319
147.212
2599.33
2599.49
2599.59
2599.64
2599.65
2599.6
2599.49
2599.28
2599.02
2599.29
2210.47
2210.12
2210.02
2210.01
2210.05
2210.2
2210.75
2212.86
2220.69
2244.46
121.158
120.325
120.116
120.101
120.228
120.66
122.174
128.031
151.435
235.589
101.309
100.894
100.689
100.637
100.732
101.04
101.887
104.783
116.599
163.382
101.215
101.015
100.921
100.901
100.957
101.112
101.462
102.489
106.79
126.705
100.632
100.528
100.476
100.469
100.507
100.601
100.786
101.23
102.967
112.011
100.711
100.632
100.592
100.585
100.61
100.674
100.791
101.032
101.829
106.136
100.276
100.252
100.238
100.238
100.255
100.292
100.353
100.461
100.767
102.527
102.221
102.164
102.139
102.135
102.15
102.187
102.251
102.375
102.659
104.222
126.67
127.033
127.077
127.099
127.111
127.109
127.075
126.968
126.73
126.138
2383.99
2384.06
2384.12
2384.14
2384.14
2384.11
2384.04
2383.92
2383.76
2383.69
13593
13756.3
13502.8
12716.3
2.9131e+06
2.93907e+06
2.909e+06
2.87675e+06
4.13053e+06
4.21262e+06
4.16006e+06
4.00661e+06
5.28645e+06
5.43707e+06
5.35101e+06
5.07332e+06
6.28093e+06
6.49853e+06
6.37636e+06
6.01626e+06
7.20833e+06
7.49514e+06
7.34863e+06
6.95711e+06
7.90399e+06
8.25441e+06
8.1031e+06
7.73711e+06
8.02944e+06
8.43663e+06
8.30979e+06
8.01843e+06
5.14204e+06
5.44905e+06
5.38398e+06
5.26701e+06
7567.11
7771.06
7674.23
7441.8
9586.03
9704.27
9605.23
9294.94
787217
782201
782972
777475
1.30817e+06
1.36864e+06
1.39012e+06
1.36182e+06
1.87942e+06
2.05518e+06
2.10459e+06
2.04354e+06
2.42005e+06
2.74166e+06
2.82734e+06
2.74807e+06
2.92876e+06
3.41425e+06
3.55413e+06
3.48198e+06
3.32831e+06
3.97497e+06
4.19094e+06
4.16652e+06
3.49135e+06
4.27328e+06
4.57881e+06
4.63281e+06
2.54298e+06
3.21031e+06
3.49868e+06
3.66654e+06
6972.24
7134.86
7065.43
6831.11
7264.5
7266.95
7181.25
7016.29
79765.2
86693.4
83089.6
71136.3
149115
164336
154604
126360
250039
277728
257584
203900
374534
417037
382998
298074
524529
584380
535309
414785
678717
755202
693455
540153
794717
885118
817794
643279
605944
666277
613225
491434
6239.99
6280.37
6236.54
6149.3
6541.89
6507.23
6428.62
6311.32
12254.7
12658.6
12189
11044.4
18256.6
19015
17925.6
15560.6
29774.8
31224.7
28805.8
23957
46694.7
49034.4
44287.2
35430.6
71248.2
74707.3
66456.8
51683.8
101170
105452
92867.6
70988.4
129036
134077
117615
89233.5
100592
102187
88911.7
68696.7
5814.48
5819.61
5800.73
5778.77
6093.72
6045.86
5970.82
5870.89
5132.27
5250.12
5111.14
4746.89
4786.82
4884.01
4704.42
4304.66
6016.64
6159.7
5858.68
5249.39
8337.37
8560.64
7987.24
6945.16
12324.3
12659.7
11568.1
9755.97
17716
18080.1
16172.2
13275.4
23382.3
23768.6
20941.6
16846.4
18771.5
18593.1
16115.3
13093.5
5500.94
5494.39
5484.93
5485.97
5743.41
5684.98
5612.19
5526.05
3560
3619.92
3518.08
3272.02
2423.83
2432.75
2339.3
2160.2
2226.15
2211.21
2108.82
1942.14
2409.37
2385.14
2253.81
2061.29
3048.87
3024.01
2825.37
2553.53
4024.08
3980.79
3653.83
3246.51
5154.89
5099.26
4607.28
4025.35
4389.45
4233.91
3773.83
3360.68
5247.12
5235.77
5230.61
5239.66
5446.19
5379.1
5308.37
5234.17
2899.74
2935.21
2844.54
2641.88
1723.34
1714.03
1639.44
1510.12
1307.97
1271.25
1200.49
1105.71
1142.02
1090.75
1020.8
945.51
1186.46
1126.47
1050.25
981.019
1342.88
1271.78
1177.48
1103.39
1581.48
1505.68
1387.05
1300.11
1572.32
1485.71
1376.4
1329.21
5032.97
5020.67
5017.59
5028.95
5177.87
5103.74
5034.96
4971.23
2486.3
2499.74
2412.01
2236.14
1404.86
1384.91
1316.98
1209.94
986.667
944.59
883.872
812.073
772.807
721.078
667.201
619.228
701.994
646.133
596.384
563.631
693.142
634.507
585.439
562.684
744.364
687.319
638.241
622.84
881.094
829.764
789.313
789.414
4841.85
4830.19
4827.85
4838.8
4925.85
4846.46
4779.8
4725.48
2175.91
2167.34
2078.62
1922.8
1211.85
1181.64
1115.83
1022.87
836.849
791.316
735.09
675.387
634.648
585.335
538.687
501.951
543.882
495.528
456.159
434.333
497.685
452.052
417.736
405.82
500.569
460.086
430.452
426.183
643.625
611.492
589.938
593.887
4657.64
4647.35
4645.24
4654.72
4683.59
4601.03
4536.96
4491.21
1925.09
1894.58
1802.59
1663.07
1074.55
1033.56
967.441
885.01
750.625
701.575
647.439
596.055
570.775
523.884
481.501
451.459
480.021
438.514
405.161
388.567
423.282
387.984
361.274
352.963
407.915
379.576
358.712
356.343
528.718
508.399
494.86
497.367
4471.81
4463.28
4461.37
4469.12
4447.08
4363.81
4303.08
4265.25
1716.96
1665.28
1568.9
1443.44
969.646
917.893
850.254
776.619
693.999
641.807
588.806
544.161
535.15
490.975
451.808
426.738
447.295
412.198
383.38
370.187
385.561
358.825
337.422
330.938
360.241
341.172
325.888
323.778
456.138
443.654
434.77
435.717
4281.09
4274.48
4272.83
4278.84
4213.53
4132.32
4075.87
4045.39
1543.02
1471.9
1371.03
1258.51
887.387
825.743
756.348
690.801
653.365
599.262
547.447
508.973
510.741
470.187
434.189
413.41
424.59
395.944
371.26
360.731
358.832
339.599
322.62
317.342
327.093
315.411
304.357
302.087
401.182
393.954
388.149
388.012
4084.47
4079.69
4078.34
4082.7
3980.95
3904.57
3853.4
3829.68
1397.02
1309.4
1205.07
1105.28
821.961
752.448
682.02
624.587
620.977
567.132
517.419
485.141
488.939
453.393
421.17
404.474
402.721
380.802
360.356
352.115
333.327
320.831
307.887
303.484
297.758
292.019
284.391
281.756
354.836
351.024
347.284
346.366
3881.96
3878.79
3877.72
3880.62
3747.24
3678.49
3633.64
3615.99
1272.23
1172.68
1067.24
980.759
767.825
693.892
624.24
575.531
590.239
539.676
493.772
468.055
463.695
434.728
407.279
394.611
376.431
361.448
345.511
339.247
304.554
297.992
288.812
285.019
267.934
266.815
261.964
258.835
312.349
310.447
308.022
306.772
3674.21
3672.3
3671.48
3673.21
3510.28
3451.79
3414.25
3401.88
1159.54
1054.67
952.062
880.222
717.704
644.441
578.602
539.682
554.058
510.352
470.569
451.821
429.885
408.851
387.25
378.412
342.371
334.137
322.856
318.145
270.62
268.926
263.13
259.699
236.262
238.391
235.67
232.043
272.948
271.734
270.107
269.011
3462.34
3461.28
3460.66
3461.56
3267.94
3221.85
3192.4
3184.4
1045.8
944.519
850.53
795.218
661.513
595.471
537.682
509.735
504.743
471.356
440.152
428.364
383.4
370.911
355.86
350.243
299.025
296.674
289.788
286.051
231.838
233.578
230.539
227.283
203.385
207.326
206.052
202.095
236.974
235.583
234.402
233.863
3247.6
3247.04
3246.57
3246.97
3018.5
2986.03
2965.01
2960.37
913.112
826.231
748.269
711.28
586.639
534.858
489.879
473.358
435.423
414.6
393.698
387.853
322.51
317.874
309.194
305.675
247.635
249.464
246.131
242.803
190.94
194.375
193.209
190.128
171.442
175.799
175.308
171.398
204.935
202.899
201.961
202.219
3031.24
3030.91
3030.57
3030.73
2762.11
2742.81
2729.8
2727.47
741.529
679.712
625.172
606.422
481.009
448.701
419.963
413.131
343.8
335.147
324.337
322.103
250.53
251.402
247.695
245.012
193.408
197.03
195.907
192.803
152.894
156.286
156.033
153.406
143.36
146.981
146.761
143.445
176.899
174.176
173.409
174.473
2814.4
2814.18
2813.95
2814.03
2502.67
2493.91
2487.55
2486.61
519.502
488.511
460.596
455.273
341.939
328.849
315.511
313.528
238.992
238.468
234.802
233.417
178.695
181.434
180.365
177.984
145.519
148.522
148.225
145.791
123.446
125.577
125.516
123.779
121.759
123.971
123.776
121.587
152.035
149.024
148.449
150.028
2598.12
2598.03
2597.9
2597.93
2250.29
2247.63
2245.62
2245.53
270.972
263.67
255.486
254.281
194.063
191.315
186.768
185.172
147.619
148.438
147.347
146.244
124.81
125.978
125.475
124.257
113.691
114.694
114.439
113.437
106.322
106.929
106.809
106.209
107.945
108.708
108.542
107.684
127.959
125.543
125.229
126.676
2382.64
2382.75
2382.7
2382.61
10377.1
7853.64
6442.2
5789.68
5373.36
5118.59
4974.35
4897.18
4857.56
4836.26
1.9466e+06
410980
89139.7
30417.6
12859.1
6239.29
3406.55
2105.73
1478.28
1156.76
2.44223e+06
352486
77913.4
25614.9
10511.1
5031.21
2748.26
1703.71
1183.95
901.336
2.69144e+06
322091
67762.4
20433.3
7865.02
3591.4
1929
1207.5
857.67
662.685
2.7833e+06
291814
58452.2
15998.9
5785.59
2550.1
1367.79
874.211
638.235
501.925
2.78848e+06
269663
51491
12808.3
4402.33
1890.45
1014.49
657.617
490.38
391.51
2.70519e+06
251198
45734.4
10475.2
3490.09
1484.39
804.454
529.411
400.74
324.39
2.46276e+06
223967
38524.9
8083.44
2630.93
1128.11
636.964
439.487
348.633
293.208
1.54973e+06
132124
20324.2
3957.78
1507.41
860.369
638.541
533.962
480.386
444.577
6077.82
5866.54
5672.16
5613.68
5565.02
5541.17
5523.6
5513.3
5506.31
5501.64
8076.98
6879.48
6133.67
5613.21
5248.88
5015.2
4880.76
4811.66
4779.71
4766.35
435267
129125
44023.2
17807.8
8394.18
4390.15
2524.07
1622.27
1177.57
955.846
632073
159184
47557.4
17284.4
7607.24
3803.51
2130.64
1341.73
944.339
732.92
819070
184650
48808.6
15682.6
6251.69
2908.83
1575.43
993.421
713.445
562.576
984785
203168
47886.4
13565.7
4927.64
2169.45
1159.27
743.178
549.234
442.365
1.14162e+06
218719
46563.4
11754.3
3955.13
1671.87
885.648
573.081
432.412
354.478
1.26807e+06
227636
44325.5
10150
3244.1
1346.99
717.813
470.93
360.558
299.887
1.31381e+06
221211
39395.2
8172.75
2505.08
1044.31
579.414
398.579
319.776
276.255
933840
141835
21850.8
4110.59
1448.57
813.332
600.33
503.109
456.078
430.097
6173.43
5812.6
5602.92
5518.21
5464.04
5435.73
5416.1
5403.44
5394.56
5388.91
6571.69
6066.93
5641.99
5286.26
5020.38
4848.19
4751.26
4704.92
4687.53
4683.21
40472
18973
10489
6260.81
3807.32
2344.15
1518.7
1080.79
855.491
740.049
60211.4
24715
12314.2
6622.97
3683.77
2117.45
1304.46
886.051
663.603
540.054
84313.3
30945.6
13847
6571.71
3265.59
1726.97
1021.53
692.444
528.03
435.638
110209
36230.5
14502
6082.47
2739.45
1362.7
791.652
544.22
426.394
358.727
140771
41517.9
14896
5585.28
2326.55
1105.66
633.001
437.112
348.399
297.8
171102
45470.3
14749.1
5039.76
1995.7
928.7
532.745
371.642
299.631
259.278
191021
45586.6
13326
4167.73
1599.78
752.206
450.43
328.637
275.777
246.366
132549
26902.4
6842.9
2155.48
1039.2
670.139
524.58
455.35
421.721
404.019
5939.96
5685.83
5511.04
5421.24
5369.52
5340.25
5319.87
5305.01
5294.49
5287.75
6019.81
5647.58
5311.89
5029.96
4824.31
4695.39
4626.43
4597.41
4591.05
4593.55
8259.18
5678.79
4114.88
2930.65
2006.72
1361.18
969.984
758.998
651.717
596.397
10357.7
6467.98
4325.7
2830.29
1793.91
1141.52
770.866
571.339
462.214
399.02
14195.9
8134.37
4930.74
2864.29
1629.33
959.709
626.034
465.084
383.578
335.207
18805.3
9873
5376.79
2767.92
1429.31
794.819
510.747
384.994
325.307
288.564
24925.8
11903.7
5817.5
2681.69
1279.71
680.127
430.13
324.439
277.243
248.7
31495.2
13611.2
6016.66
2533.84
1149.16
598.816
379.007
287.493
247.038
223.228
36530.2
14097.1
5626.21
2187.54
970.701
516.927
342.123
269.127
237.641
219.577
25760.6
8436.78
3047.18
1298.73
762.613
552.693
459.267
413.304
390.8
379.706
5721.32
5512.05
5366.18
5291.19
5249.26
5223.81
5205.05
5190.56
5180.58
5174.43
5637.55
5329.39
5049.43
4818.67
4655.15
4556.24
4506.6
4489.48
4490.59
4497.7
3842.83
2940.04
2296.02
1735.93
1257.62
909.037
697.217
587.497
535.595
509.216
3372.1
2504.76
1898.87
1374.32
947.8
654.243
481.224
388.809
339.511
310.166
3926.19
2809.07
2000.55
1323.63
837.853
545.985
394.201
322.485
288.146
266.489
4884.78
3322.17
2167.9
1290.06
750.219
467.309
335.223
278.53
253.71
236.742
6442.47
4103.56
2420.57
1296.13
699.391
418.942
296.451
245.496
224.457
210.594
8243.91
4858.87
2595.08
1271.67
653.75
385.895
273.222
226.187
206.445
193.983
9795.78
5235.81
2527.69
1154.58
588.783
359.228
264.703
224.052
207.065
196.987
7294.53
3386.65
1558.94
845.755
582.633
464.717
407.34
377.813
363.551
357.365
5472.16
5312.56
5206.76
5152.4
5120.45
5098.97
5081.86
5068.5
5059.38
5053.95
5336.2
5077.56
4837.7
4641.43
4505.36
4425.81
4388.51
4379.01
4384.9
4394.94
2673.6
2077
1637.37
1252.05
926.56
694.604
559.254
494.945
468.784
456.016
1751.76
1362.79
1073.96
808.29
582.8
425.558
335.044
290.636
269.982
257.761
1585.53
1258.46
979.736
703.789
482.787
343.117
271.203
241.054
229.965
222.395
1683.32
1343.81
996.046
662.824
428.258
297.279
236.294
213.37
206.346
200.342
2068.37
1611.66
1098.9
667.434
405.943
274.781
216.634
194.355
187.435
182.15
2583.27
1913.15
1186.52
664.326
388.831
261.715
206.523
184.269
176.407
170.946
3110.26
2124.24
1195.09
633.628
374.321
261.751
212.588
191.17
183.087
178.215
2628.43
1594.6
906.451
598.265
465.941
400.153
366.197
347.943
339.518
336.826
5240.01
5118.42
5045.07
5007.14
4983.18
4965.41
4950.33
4938.62
4930.65
4926.09
5080.14
4861.22
4651.85
4480.48
4363.61
4297.27
4268.25
4263.73
4272.71
4284.53
2158.42
1675.63
1316.18
1005.93
752.067
577.682
481.021
439.899
427.011
421.154
1223.7
952.102
750.119
568.087
417.567
315.974
261.021
238.133
230.919
227.055
916.48
750.692
604.738
452.179
326.403
247.032
208.518
196.176
195.367
194.476
815.74
706.592
563.428
403.192
282.289
213.61
183.264
174.986
175.797
175.168
883.457
780.626
587.723
393.333
265.721
199.909
171.416
162.499
162.178
161.33
1023.66
884.327
613.902
385.742
255.665
193.561
166.461
156.624
154.785
153.202
1218.59
984.296
627.389
382.179
259.839
204.049
178.614
167.793
164.696
162.921
1262.85
901.912
603.387
458.326
389.565
353.435
333.854
322.995
318.459
318.083
5032.72
4934.71
4882.24
4855.6
4837.77
4823.3
4810.71
4800.95
4794.3
4790.69
4848.14
4662.41
4477.63
4325.67
4223.32
4166.63
4143.46
4142.3
4153.21
4166
1828.75
1422.1
1116.01
853.404
643.608
503.998
430.337
402.724
397.482
395.441
980.451
762.07
597.354
451.476
334.906
259.327
221.21
208.544
207.827
208.05
677.754
561.744
455.6
344.757
255.245
200.532
175.966
170.848
174.133
176.103
547.669
489.689
399.025
294.131
215.615
172.248
154.627
152.089
155.781
157.468
533.227
495.76
388.173
274.137
199.145
161.241
145.854
142.655
144.944
146.102
562.36
518.849
381.534
259.734
189.674
156.522
142.547
138.515
139.36
139.691
641.807
558.828
385.803
261.994
198.995
169.912
156.524
151.297
150.751
150.639
791.296
606.43
450.941
375.345
338.643
319.402
308.277
302.08
299.985
301.03
4840.76
4756.55
4716.78
4697.78
4684.61
4673.14
4663.26
4655.52
4650.25
4647.61
4629.55
4472.09
4307.8
4171.71
4080.87
4031.7
4012.86
4013.95
4025.92
4039.02
1576.66
1233.64
971.363
745.088
566.884
451.243
392.895
373.969
373.477
373.635
832.47
651.376
510.598
385.594
287.924
226.612
197.512
190.124
192.666
194.85
571.407
480.079
388.945
294.044
219.884
176.215
157.796
155.467
160.061
163.015
454.06
409.734
331.092
244.339
182.762
150.429
138.292
137.775
142.117
144.572
421.23
391.228
304.287
218.651
165.629
140.322
130.913
130.011
133.007
134.861
414.837
379.885
281.147
199.731
155.54
135.732
127.991
126.558