/*--------------------------------*- C++ -*----------------------------------*\
| =========                 |                                                 |
| \\      /  F ield         | foam-extend: Open Source CFD                    |
|  \\    /   O peration     | Version:     4.0                                |
|   \\  /    A nd           | Web:         http://www.foam-extend.org         |
|    \\/     M anipulation  |                                                 |
\*---------------------------------------------------------------------------*/
FoamFile
{
    version     2.0;
    format      ascii;
    class       volScalarField;
    location    "250";
    object      MaU;
}
// * * * * * * * * * * * * * * * * * * * * * * * * * * * * * * * * * * * * * //

dimensions      [0 0 0 0 0 0 0];

internalField   nonuniform List<scalar> 
34480
(
0.550617
0.552909
0.554425
0.555479
0.556193
0.556582
0.556467
0.554853
0.548864
0.541735
0.541309
0.544757
0.547465
0.549261
0.550075
0.549716
0.547682
0.54368
0.535833
0.534385
0.538529
0.541977
0.544878
0.547071
0.548529
0.549137
0.548222
0.545568
0.538351
0.539847
0.53798
0.541533
0.54447
0.546768
0.548557
0.549858
0.550038
0.548963
0.542825
0.546931
0.538606
0.542044
0.544743
0.546956
0.548933
0.550834
0.552126
0.552843
0.548357
0.554821
0.538776
0.541846
0.544124
0.546115
0.548142
0.550521
0.552875
0.555466
0.553291
0.562209
0.53953
0.54215
0.543969
0.545718
0.547747
0.550525
0.553891
0.558334
0.558929
0.570118
0.540131
0.542189
0.543452
0.544772
0.546529
0.549351
0.553388
0.55939
0.562984
0.576477
0.541849
0.54338
0.544252
0.545382
0.547144
0.550216
0.555102
0.562986
0.570005
0.5843
0.541099
0.541893
0.541888
0.541693
0.541775
0.542879
0.545726
0.552082
0.560489
0.578392
0.540958
0.54353
0.544955
0.54552
0.54526
0.54399
0.541062
0.534915
0.524705
0.510135
0.532797
0.536546
0.539273
0.540731
0.540755
0.538988
0.534384
0.525477
0.5117
0.497603
0.531513
0.535199
0.538074
0.539882
0.540472
0.539588
0.536054
0.528157
0.514207
0.501574
0.53212
0.535907
0.53879
0.540686
0.541611
0.54142
0.538947
0.532412
0.518745
0.507792
0.533751
0.537426
0.540054
0.541877
0.543027
0.543477
0.542107
0.537281
0.524598
0.515631
0.534724
0.538056
0.540279
0.541924
0.543189
0.544181
0.543873
0.540882
0.529902
0.523384
0.536144
0.53904
0.540833
0.542297
0.543641
0.54511
0.545828
0.54468
0.535965
0.532028
0.537125
0.539495
0.540787
0.541908
0.543099
0.544738
0.546207
0.546692
0.540642
0.539601
0.538944
0.540756
0.541683
0.542661
0.543919
0.545881
0.548249
0.550695
0.548146
0.54899
0.538182
0.539281
0.539545
0.539554
0.539611
0.54021
0.541269
0.543037
0.542542
0.548506
0.533155
0.535626
0.536864
0.537172
0.536611
0.535061
0.532133
0.527035
0.518368
0.505559
0.525575
0.529391
0.532016
0.533204
0.532854
0.530609
0.5255
0.516527
0.502949
0.487348
0.525319
0.529134
0.531931
0.533461
0.533585
0.531946
0.527387
0.518413
0.502859
0.48436
0.526845
0.530802
0.533596
0.535185
0.535591
0.534534
0.530734
0.522333
0.505307
0.484202
0.529308
0.533178
0.535725
0.537248
0.537871
0.537413
0.534533
0.527232
0.509587
0.48658
0.530961
0.534531
0.536717
0.538108
0.538873
0.538952
0.537006
0.531065
0.513644
0.489652
0.532939
0.536111
0.537921
0.539192
0.540083
0.540663
0.53966
0.535199
0.518743
0.494445
0.53426
0.536953
0.538338
0.53935
0.54017
0.540994
0.540744
0.537727
0.522893
0.498951
0.536166
0.538292
0.539353
0.540272
0.541184
0.542342
0.542956
0.541779
0.529762
0.505427
0.535393
0.53682
0.537356
0.537547
0.53758
0.537753
0.537506
0.536101
0.526197
0.504426
0.527078
0.529228
0.530243
0.530407
0.529806
0.528393
0.525973
0.522163
0.516176
0.507297
0.519709
0.523397
0.525869
0.526852
0.526311
0.523999
0.519159
0.511117
0.49993
0.488113
0.52017
0.523953
0.526608
0.527869
0.527647
0.525654
0.520923
0.512329
0.498924
0.484192
0.522409
0.526378
0.529014
0.530281
0.530237
0.528635
0.524321
0.515732
0.500307
0.482291
0.525526
0.529438
0.531837
0.533031
0.533148
0.532004
0.528328
0.520288
0.503458
0.482388
0.527727
0.531387
0.53347
0.534561
0.534807
0.534097
0.531106
0.5239
0.506323
0.482849
0.530154
0.533465
0.535225
0.536242
0.536626
0.536352
0.534093
0.527893
0.510233
0.484998
0.531762
0.534646
0.536049
0.536879
0.537245
0.537208
0.535562
0.530447
0.513438
0.487144
0.533733
0.536056
0.537167
0.537939
0.538416
0.538679
0.537699
0.53406
0.519158
0.491609
0.532964
0.534612
0.535315
0.535561
0.535431
0.535037
0.533523
0.529742
0.51659
0.490263
0.522539
0.524295
0.525091
0.525194
0.524708
0.523639
0.521911
0.519331
0.515341
0.509067
0.515253
0.518702
0.520996
0.521857
0.521319
0.519226
0.514997
0.508176
0.499207
0.49041
0.516144
0.519786
0.522274
0.523341
0.522963
0.520942
0.516535
0.508936
0.497974
0.486846
0.518873
0.522732
0.525181
0.526195
0.525881
0.524053
0.519797
0.511893
0.498955
0.484912
0.522429
0.526259
0.528486
0.52941
0.529184
0.527644
0.523756
0.51602
0.501491
0.484396
0.525009
0.528639
0.530598
0.531439
0.531303
0.530058
0.526581
0.519255
0.503557
0.483703
0.527745
0.531086
0.532777
0.533574
0.533564
0.532654
0.529659
0.522911
0.506519
0.484324
0.529556
0.53253
0.533931
0.534598
0.534601
0.53389
0.531317
0.525269
0.508844
0.48489
0.531552
0.533994
0.535136
0.535769
0.535883
0.535437
0.53336
0.528316
0.513275
0.487698
0.530764
0.532567
0.533396
0.53366
0.533365
0.532492
0.530091
0.524922
0.511096
0.485951
0.519251
0.520646
0.521256
0.521334
0.52099
0.52025
0.519086
0.517357
0.514559
0.509611
0.51212
0.515297
0.517411
0.518202
0.51776
0.515995
0.512422
0.506632
0.499138
0.492046
0.513267
0.516693
0.518998
0.519928
0.519523
0.51767
0.513798
0.507266
0.498233
0.489448
0.516303
0.519942
0.522178
0.522996
0.522556
0.520749
0.516884
0.509987
0.499363
0.4883
0.52009
0.523716
0.52574
0.526449
0.526021
0.524346
0.520646
0.513734
0.501744
0.488159
0.522878
0.526354
0.528155
0.528786
0.528399
0.526873
0.523347
0.516558
0.503419
0.48739
0.525777
0.52903
0.530618
0.531223
0.530927
0.529613
0.526332
0.519783
0.505769
0.487507
0.527696
0.530646
0.532007
0.532523
0.532246
0.531068
0.528013
0.521817
0.507436
0.487377
0.529671
0.532136
0.53327
0.533768
0.533588
0.532617
0.52989
0.524291
0.510767
0.489273
0.528832
0.530707
0.531606
0.531851
0.531405
0.53016
0.527224
0.521476
0.508709
0.487582
0.516975
0.51808
0.518545
0.518614
0.51839
0.517907
0.517143
0.51597
0.513891
0.509739
0.510164
0.513087
0.515037
0.515788
0.515474
0.514044
0.511057
0.506067
0.499503
0.493333
0.511462
0.514644
0.516764
0.517599
0.517247
0.515658
0.512364
0.506776
0.499093
0.491694
0.514665
0.518013
0.520021
0.520695
0.520239
0.518611
0.515287
0.509435
0.500626
0.491496
0.518505
0.521833
0.523634
0.524178
0.523671
0.522057
0.518781
0.512886
0.503107
0.492035
0.521344
0.524561
0.526179
0.526645
0.526126
0.524535
0.521261
0.515341
0.504667
0.49166
0.524276
0.527333
0.528787
0.529234
0.528761
0.527263
0.52404
0.518132
0.506669
0.49183
0.526204
0.529023
0.530306
0.530691
0.530226
0.528788
0.525624
0.519805
0.507899
0.491564
0.528111
0.530503
0.531595
0.531971
0.531579
0.530279
0.527292
0.52177
0.510409
0.493157
0.527182
0.529046
0.529964
0.530171
0.529609
0.528129
0.524982
0.519275
0.508334
0.49178
0.515533
0.516418
0.516777
0.516841
0.516703
0.516395
0.515893
0.515069
0.513434
0.509815
0.50922
0.51193
0.513736
0.514459
0.514266
0.51313
0.510616
0.506214
0.500208
0.494441
0.510609
0.513549
0.515489
0.516257
0.515995
0.51469
0.511932
0.507116
0.500329
0.493646
0.513877
0.516896
0.518673
0.519243
0.518839
0.517469
0.514721
0.509819
0.502343
0.494361
0.517626
0.520593
0.522162
0.522585
0.522088
0.52066
0.517916
0.513044
0.505023
0.495616
0.520386
0.523266
0.524682
0.525025
0.524471
0.522974
0.52013
0.515192
0.506617
0.495797
0.523241
0.526014
0.527309
0.527632
0.52708
0.525575
0.522645
0.517597
0.508453
0.496282
0.525085
0.52768
0.528852
0.529129
0.528564
0.527048
0.524049
0.518921
0.509416
0.496189
0.526883
0.52912
0.530136
0.530408
0.529886
0.528438
0.52549
0.520456
0.511357
0.497866
0.525826
0.527601
0.528492
0.528655
0.528023
0.526447
0.523352
0.518105
0.509211
0.496857
0.514792
0.515514
0.515796
0.515854
0.515772
0.515579
0.515244
0.514641
0.513304
0.510106
0.509127
0.511665
0.513343
0.514038
0.513944
0.513044
0.510901
0.50693
0.501255
0.495575
0.510564
0.513278
0.515048
0.51576
0.515592
0.514553
0.512257
0.508052
0.501854
0.495459
0.513821
0.516499
0.518051
0.518543
0.518225
0.517133
0.514924
0.510838
0.504327
0.496968
0.517367
0.519945
0.521282
0.521617
0.521183
0.520003
0.517805
0.513868
0.507202
0.498861
0.51995
0.522447
0.523654
0.523907
0.523386
0.52208
0.519738
0.515765
0.508883
0.499602
0.522645
0.525074
0.526195
0.526425
0.52587
0.524483
0.521977
0.517848
0.510656
0.500495
0.524326
0.526627
0.527664
0.527857
0.527266
0.525809
0.52315
0.518856
0.511454
0.500701
0.525987
0.528002
0.528915
0.529105
0.528528
0.527078
0.524373
0.52005
0.513016
0.50264
0.524769
0.526389
0.527217
0.527336
0.526684
0.525133
0.522281
0.517733
0.510791
0.501908
0.514643
0.51524
0.515465
0.515517
0.515469
0.515348
0.515119
0.514663
0.51355
0.510718
0.509731
0.512123
0.51368
0.514341
0.514319
0.513603
0.511753
0.508112
0.502633
0.496838
0.511175
0.513679
0.515284
0.515941
0.515856
0.515045
0.513134
0.509418
0.503616
0.497234
0.51436
0.516705
0.518041
0.518468
0.518242
0.517411
0.515673
0.512267
0.506471
0.499402
0.517621
0.519806
0.520921
0.521191
0.520844
0.519924
0.518229
0.5151
0.50948
0.50181
0.519958
0.522055
0.523057
0.523245
0.522797
0.521727
0.519884
0.51678
0.511241
0.50305
0.522439
0.524495
0.525435
0.525599
0.525091
0.523897
0.521857
0.518605
0.512998
0.504356
0.523892
0.525859
0.526744
0.526875
0.526313
0.52501
0.522774
0.519333
0.513677
0.504872
0.525407
0.527155
0.527948
0.528075
0.527503
0.52616
0.523816
0.520279
0.514994
0.507103
0.524002
0.525422
0.52616
0.52624
0.525612
0.524181
0.52169
0.517937
0.512698
0.5065
0.514977
0.515476
0.515656
0.515701
0.515674
0.515598
0.515439
0.515089
0.514157
0.511668
0.510883
0.513137
0.514572
0.515188
0.515214
0.514643
0.513035
0.509672
0.504324
0.498284
0.512292
0.51459
0.51603
0.516627
0.516604
0.515983
0.514395
0.511089
0.505578
0.499043
0.515354
0.517376
0.518508
0.518878
0.518734
0.518126
0.516784
0.513946
0.508713
0.501741
0.518268
0.520075
0.520983
0.521203
0.520946
0.520264
0.519001
0.516548
0.511763
0.504532
0.520317
0.522024
0.522831
0.522973
0.522614
0.521782
0.520391
0.518027
0.513559
0.506178
0.522557
0.524236
0.525
0.525117
0.524686
0.523713
0.522124
0.519647
0.515307
0.507851
0.523734
0.525351
0.526082
0.526168
0.525672
0.524571
0.522775
0.520121
0.515872
0.508619
0.525112
0.526573
0.527239
0.527321
0.526798
0.525627
0.523692
0.520917
0.517042
0.511092
0.523506
0.5247
0.525332
0.525382
0.524813
0.523562
0.521486
0.518517
0.514677
0.510467
0.515681
0.516098
0.51624
0.516279
0.516265
0.516218
0.516107
0.515837
0.515066
0.512909
0.512439
0.514546
0.515848
0.516408
0.516462
0.516007
0.514617
0.511517
0.506283
0.499922
0.513764
0.515848
0.517115
0.517643
0.517663
0.517196
0.515887
0.512953
0.507699
0.500923
0.51666
0.518373
0.519311
0.519625
0.519546
0.519119
0.518101
0.515752
0.511009
0.504045
0.519186
0.52064
0.52136
0.521538
0.521361
0.520879
0.519969
0.518075
0.513993
0.50709
0.520927
0.52227
0.522901
0.52301
0.522739
0.522122
0.52111
0.519355
0.515762
0.509041
0.522921
0.524243
0.524844
0.524929
0.524584
0.523829
0.522638
0.520809
0.517485
0.511007
0.523791
0.525067
0.52565
0.525706
0.525292
0.524407
0.523022
0.521045
0.517907
0.511928
0.525063
0.526239
0.526778
0.52683
0.52638
0.525413
0.523881
0.521782
0.519006
0.514559
0.523247
0.52421
0.524732
0.52476
0.52427
0.52323
0.52157
0.51931
0.516569
0.513779
0.516633
0.516979
0.51709
0.517122
0.517116
0.517088
0.517012
0.516807
0.516183
0.51435
0.514257
0.516194
0.517348
0.517841
0.517909
0.517553
0.516368
0.513548
0.508456
0.501746
0.515443
0.517293
0.518377
0.518828
0.518873
0.518531
0.517472
0.514904
0.509927
0.502892
0.518143
0.519558
0.520314
0.520571
0.520537
0.52025
0.519497
0.517582
0.513318
0.506358
0.520254
0.521388
0.521941
0.522082
0.521969
0.521644
0.521009
0.519577
0.516128
0.509539
0.521691
0.522709
0.523186
0.523268
0.523073
0.522635
0.521924
0.520656
0.517802
0.511691
0.523451
0.524451
0.524908
0.524969
0.524707
0.524146
0.523283
0.521973
0.519468
0.513866
0.523994
0.524959
0.525407
0.525442
0.525114
0.524433
0.523402
0.521978
0.519706
0.514814
0.525211
0.526122
0.526544
0.526577
0.526211
0.525448
0.52428
0.522745
0.520797
0.517516
0.523183
0.523926
0.524342
0.524356
0.523955
0.523127
0.52185
0.52019
0.518279
0.516475
0.517705
0.517992
0.518075
0.518101
0.5181
0.518086
0.518035
0.517884
0.517396
0.515879
0.516207
0.517939
0.518929
0.519346
0.519418
0.519147
0.518168
0.515666
0.510784
0.503745
0.517188
0.518778
0.519671
0.520038
0.520092
0.519852
0.519023
0.516836
0.512206
0.504961
0.519676
0.520805
0.52139
0.521592
0.521586
0.521402
0.520862
0.519344
0.515594
0.508714
0.521364
0.522214
0.522622
0.522728
0.52266
0.522451
0.522025
0.520973
0.518128
0.511921
0.522518
0.523256
0.523602
0.523662
0.523528
0.523228
0.522744
0.521854
0.519641
0.514174
0.52407
0.524792
0.525127
0.52517
0.524979
0.524576
0.52397
0.523059
0.521219
0.516462
0.524275
0.524971
0.525302
0.525323
0.525074
0.52457
0.523825
0.522829
0.521224
0.517302
0.525509
0.526189
0.526507
0.526528
0.526243
0.525665
0.524805
0.523716
0.522376
0.520005
0.523261
0.523811
0.52413
0.524135
0.52382
0.523188
0.52224
0.521059
0.519754
0.518618
0.518775
0.519011
0.51907
0.51909
0.519093
0.519087
0.519055
0.51895
0.518586
0.517376
0.518166
0.519656
0.520467
0.520802
0.520869
0.520674
0.519902
0.51777
0.513213
0.505927
0.518867
0.520171
0.520867
0.521147
0.5212
0.521041
0.520424
0.518643
0.514474
0.507148
0.521147
0.522006
0.522435
0.522584
0.52259
0.522478
0.522109
0.520959
0.517784
0.511141
0.522425
0.523029
0.523314
0.523389
0.523349
0.523218
0.522942
0.522201
0.519948
0.514265
0.523333
0.52384
0.524079
0.524121
0.52403
0.523828
0.523506
0.522901
0.521252
0.516517
0.524708
0.525202
0.525436
0.525464
0.525329
0.525047
0.524631
0.524015
0.522712
0.518816
0.524574
0.525049
0.525283
0.525295
0.525112
0.524749
0.524224
0.523545
0.522442
0.519414
0.525915
0.526402
0.526634
0.526647
0.526435
0.526012
0.525396
0.524643
0.523738
0.522079
0.523425
0.523815
0.524051
0.52405
0.523814
0.523349
0.522666
0.52185
0.520973
0.520279
0.519713
0.519904
0.519943
0.519958
0.519962
0.519961
0.519944
0.519875
0.519622
0.518706
0.52002
0.521237
0.521861
0.522112
0.522169
0.522038
0.52147
0.519761
0.515692
0.508331
0.520353
0.521356
0.521859
0.522057
0.5221
0.522003
0.521577
0.520221
0.51666
0.509486
0.522463
0.523074
0.523365
0.523465
0.523473
0.523405
0.523167
0.522352
0.519822
0.51367
0.523371
0.52377
0.523954
0.524001
0.523976
0.523892
0.523717
0.523223
0.521546
0.516592
0.524089
0.524413
0.524568
0.524593
0.52453
0.524394
0.524179
0.523781
0.522619
0.518735
0.52532
0.525633
0.525786
0.525802
0.525705
0.52551
0.525227
0.52482
0.523941
0.520935
0.524853
0.525156
0.525315
0.525319
0.525187
0.52493
0.524563
0.524108
0.523371
0.521172
0.52641
0.526745
0.526907
0.526913
0.526758
0.526457
0.526026
0.525516
0.524913
0.523808
0.523617
0.52388
0.52405
0.524045
0.523872
0.523539
0.52306
0.52251
0.521926
0.521516
0.520342
0.52049
0.520514
0.520524
0.520528
0.52053
0.520522
0.520483
0.520325
0.519686
0.521666
0.522588
0.523027
0.523198
0.523239
0.523159
0.52278
0.521532
0.518159
0.51104
0.521541
0.522243
0.52257
0.522692
0.52272
0.522664
0.522397
0.521462
0.518667
0.512027
0.523549
0.523943
0.524117
0.524172
0.524172
0.524128
0.523981
0.523456
0.52162
0.516309
0.524165
0.524402
0.524508
0.52453
0.524507
0.524447
0.524331
0.52402
0.52288
0.518895
0.524773
0.52496
0.525051
0.52506
0.52501
0.524911
0.524761
0.524503
0.523744
0.520825
0.525888
0.526066
0.526156
0.526158
0.526085
0.525946
0.52575
0.525485
0.524927
0.522817
0.525125
0.525304
0.525407
0.525405
0.525307
0.525123
0.524864
0.524556
0.524073
0.52262
0.527012
0.527232
0.52734
0.527339
0.527226
0.527013
0.526715
0.526372
0.525975
0.525289
0.523749
0.52392
0.524038
0.52403
0.523904
0.523669
0.523335
0.522968
0.522575
0.522344
0.520339
0.520455
0.520466
0.520471
0.520474
0.520476
0.520475
0.520458
0.520377
0.519992
0.523028
0.523653
0.523919
0.524013
0.52403
0.523979
0.523753
0.522962
0.520497
0.514175
0.522359
0.522788
0.522967
0.523024
0.523028
0.522985
0.522827
0.522263
0.520349
0.514803
0.524343
0.524558
0.52464
0.524655
0.524636
0.52459
0.52449
0.524182
0.523029
0.518974
0.524792
0.524912
0.524962
0.524961
0.524927
0.524866
0.52477
0.524572
0.523886
0.521083
0.525386
0.52548
0.525526
0.525519
0.525469
0.525382
0.525259
0.525079
0.524623
0.522719
0.52642
0.526504
0.52655
0.526538
0.526473
0.526363
0.526213
0.52603
0.525697
0.524429
0.525487
0.525589
0.525655
0.525646
0.525568
0.525427
0.525231
0.525008
0.524684
0.523856
0.527804
0.52794
0.528008
0.527998
0.527911
0.527755
0.527542
0.527307
0.527045
0.526665
0.523634
0.523746
0.523828
0.523817
0.523722
0.523551
0.523313
0.523059
0.52278
0.522654
0.519294
0.519379
0.519384
0.519384
0.519381
0.519375
0.519367
0.519352
0.519318
0.519141
0.524105
0.524459
0.524581
0.524606
0.524584
0.52452
0.524371
0.523942
0.522504
0.517812
0.52279
0.523015
0.523098
0.523109
0.523076
0.523002
0.522864
0.522535
0.521468
0.517678
0.524752
0.524847
0.524874
0.524857
0.524807
0.524727
0.524609
0.524399
0.523791
0.521325
0.525197
0.525255
0.525277
0.525259
0.525205
0.525115
0.52499
0.524814
0.524427
0.522866
0.52588
0.525927
0.52595
0.525931
0.525871
0.52577
0.525634
0.525462
0.525177
0.524198
0.526882
0.526917
0.526938
0.526917
0.526851
0.526743
0.5266
0.526436
0.526219
0.525632
0.526092
0.526164
0.52621
0.526198
0.526127
0.526003
0.525832
0.525635
0.525384
0.524994
0.528911
0.528988
0.529029
0.529013
0.528938
0.52881
0.528642
0.52846
0.52828
0.528109
0.52297
0.523056
0.523117
0.523105
0.523028
0.522892
0.522706
0.522507
0.522282
0.522193
0.517393
0.51744
0.517459
0.517461
0.517446
0.517415
0.517371
0.517315
0.517255
0.51717
0.524936
0.525105
0.525153
0.525138
0.525069
0.524943
0.524752
0.524456
0.523817
0.521504
0.522869
0.523035
0.523108
0.523107
0.523035
0.522891
0.522665
0.522336
0.521757
0.519982
0.52473
0.524808
0.524837
0.524814
0.524734
0.524595
0.524392
0.524119
0.52372
0.522672
0.52534
0.525413
0.525447
0.525428
0.525353
0.52522
0.525025
0.524768
0.524429
0.523755
0.526188
0.526251
0.526283
0.526265
0.526192
0.526063
0.525879
0.525644
0.525351
0.52491
0.527224
0.527269
0.527295
0.527274
0.527203
0.52708
0.52691
0.526703
0.526467
0.526204
0.526986
0.527074
0.527123
0.527113
0.527044
0.526917
0.526738
0.526518
0.52625
0.526004
0.53038
0.530427
0.530459
0.530442
0.530371
0.53025
0.530089
0.529913
0.529752
0.529685
0.521895
0.521988
0.522044
0.522034
0.521964
0.52184
0.52167
0.52148
0.521266
0.521149
0.380241
0.359758
0.36572
0.404588
0.336438
0.311751
0.320039
0.374972
0.300282
0.271421
0.28464
0.354994
0.269883
0.237681
0.256823
0.339406
0.244734
0.210388
0.236024
0.32892
0.222513
0.186989
0.219506
0.320454
0.204165
0.168916
0.208479
0.315566
0.18666
0.153229
0.200215
0.311626
0.17139
0.142349
0.196501
0.311827
0.155831
0.132532
0.192633
0.308182
0.433424
0.422327
0.42184
0.430833
0.404404
0.390031
0.388347
0.397506
0.378506
0.359717
0.357782
0.370791
0.35599
0.332356
0.329626
0.346431
0.337115
0.308265
0.304339
0.325021
0.320309
0.285811
0.280146
0.304805
0.306858
0.266641
0.25895
0.287768
0.294606
0.248847
0.238955
0.272117
0.285046
0.234654
0.222699
0.260515
0.276403
0.222964
0.207237
0.247506
0.490518
0.487234
0.486334
0.487611
0.462484
0.4575
0.455909
0.457521
0.447346
0.440215
0.438094
0.440806
0.432013
0.422328
0.419622
0.42381
0.417012
0.404421
0.401064
0.407065
0.401267
0.385412
0.381283
0.389336
0.386895
0.367613
0.362669
0.373002
0.372611
0.350012
0.344312
0.356997
0.360404
0.335512
0.329451
0.344329
0.349313
0.324336
0.317123
0.330977
0.499905
0.49776
0.497074
0.497735
0.476638
0.474074
0.472954
0.47319
0.46853
0.465036
0.463433
0.463585
0.460178
0.455434
0.45331
0.453557
0.451312
0.44496
0.442308
0.442992
0.440529
0.432212
0.429008
0.430498
0.429891
0.419388
0.415662
0.418362
0.418381
0.405699
0.401558
0.405765
0.407736
0.393542
0.389359
0.395312
0.397905
0.38447
0.379672
0.384841
0.504935
0.503399
0.502899
0.503375
0.484331
0.482956
0.48226
0.482205
0.47948
0.47772
0.476676
0.476324
0.475226
0.472895
0.471415
0.470748
0.470669
0.467476
0.465511
0.464687
0.463976
0.459592
0.457122
0.456403
0.456949
0.451134
0.448213
0.447944
0.448668
0.441346
0.438093
0.438599
0.440724
0.432233
0.429011
0.430753
0.433924
0.426407
0.422829
0.423885
0.506589
0.505305
0.504897
0.50532
0.488232
0.487377
0.486872
0.486694
0.485331
0.484318
0.483595
0.483159
0.483429
0.482163
0.481149
0.480392
0.48153
0.479822
0.478446
0.477402
0.477654
0.475253
0.473462
0.472255
0.473369
0.470063
0.467874
0.466735
0.467762
0.463441
0.460946
0.460138
0.462241
0.457017
0.45456
0.454651
0.458124
0.453977
0.451327
0.450719
0.507429
0.506326
0.505978
0.506348
0.490814
0.490247
0.489827
0.489545
0.48925
0.488628
0.488074
0.487593
0.488871
0.488138
0.487397
0.486669
0.488592
0.487619
0.486634
0.485662
0.486499
0.485111
0.483827
0.48267
0.484056
0.482096
0.480508
0.479305
0.480375
0.477739
0.475902
0.474846
0.476871
0.473545
0.471762
0.47144
0.474857
0.472731
0.470866
0.469747
0.508028
0.507069
0.506764
0.50709
0.492618
0.492189
0.491792
0.49143
0.491992
0.491543
0.491058
0.490554
0.49271
0.492207
0.491602
0.490926
0.493517
0.492869
0.492102
0.491258
0.492611
0.49169
0.490721
0.489752
0.491422
0.490121
0.488945
0.487947
0.489117
0.487366
0.486023
0.485135
0.48732
0.485091
0.483853
0.483591
0.486769
0.485881
0.484642
0.483487
0.508738
0.507896
0.50763
0.507924
0.494073
0.493688
0.493281
0.492868
0.494093
0.493691
0.493221
0.492712
0.495608
0.495166
0.494616
0.493999
0.497166
0.496618
0.495962
0.495251
0.497103
0.496355
0.495569
0.494813
0.496823
0.495811
0.494899
0.49417
0.495547
0.494234
0.493238
0.492637
0.495184
0.493592
0.492751
0.492676
0.495582
0.495448
0.49466
0.493606
0.509686
0.508938
0.508706
0.508985
0.495349
0.494934
0.494497
0.494067
0.4958
0.495357
0.494873
0.494386
0.497907
0.497421
0.496881
0.49634
0.499994
0.499418
0.498812
0.498244
0.500564
0.499829
0.499148
0.498608
0.50099
0.500064
0.499324
0.498867
0.500508
0.499391
0.498634
0.498328
0.501359
0.500136
0.49957
0.499685
0.502301
0.502619
0.502132
0.501199
0.510899
0.510221
0.51002
0.510299
0.496547
0.496042
0.495562
0.495151
0.497267
0.49672
0.496204
0.495771
0.499824
0.499226
0.498675
0.498238
0.502287
0.501607
0.501023
0.500618
0.503354
0.502545
0.501932
0.501613
0.504355
0.503411
0.502789
0.502596
0.504491
0.503441
0.502852
0.502819
0.50637
0.505366
0.504985
0.505256
0.507527
0.508105
0.507813
0.506983
0.512338
0.51171
0.511537
0.511827
0.497712
0.497068
0.496539
0.496184
0.498581
0.497881
0.497326
0.496982
0.501498
0.500741
0.500173
0.499875
0.504227
0.5034
0.502831
0.502618
0.505698
0.504773
0.504213
0.50413
0.507185
0.506175
0.505647
0.50571
0.507794
0.50675
0.506288
0.5065
0.51053
0.509665
0.509409
0.509795
0.511631
0.51235
0.512179
0.511431
0.513929
0.513333
0.513185
0.513494
0.49887
0.498047
0.49747
0.497212
0.499803
0.498912
0.498321
0.498104
0.503034
0.502086
0.501506
0.501387
0.505948
0.50495
0.504401
0.504412
0.507757
0.506699
0.506195
0.50636
0.509665
0.508574
0.50813
0.508442
0.510615
0.509556
0.509198
0.509627
0.514044
0.513279
0.513109
0.513572
0.514861
0.515642
0.515545
0.514865
0.515576
0.515002
0.514873
0.515204
0.500047
0.499016
0.498398
0.498277
0.500988
0.49988
0.499261
0.499215
0.504521
0.503367
0.502789
0.50289
0.507562
0.506389
0.505877
0.506139
0.509665
0.508479
0.50804
0.508461
0.511939
0.510777
0.510418
0.510962
0.513098
0.512032
0.511765
0.512374
0.517053
0.516376
0.516267
0.516768
0.517388
0.518178
0.518127
0.517507
0.517176
0.516617
0.516505
0.516854
0.501285
0.500026
0.499381
0.499446
0.502202
0.500866
0.500236
0.50041
0.506058
0.504701
0.504146
0.504506
0.509188
0.507856
0.507399
0.507932
0.51155
0.510263
0.509902
0.51057
0.514133
0.512933
0.512662
0.513406
0.515359
0.514314
0.514128
0.514868
0.519663
0.519077
0.519012
0.51951
0.51934
0.5201
0.520075
0.519516
0.518612
0.518069
0.51797
0.518327
0.50267
0.501174
0.500526
0.50083
0.503548
0.501987
0.501377
0.501822
0.507771
0.506235
0.505735
0.506383
0.510965
0.509514
0.509137
0.509938
0.51355
0.512215
0.511943
0.512823
0.516364
0.515182
0.514997
0.515882
0.517488
0.516512
0.516396
0.517198
0.521959
0.521476
0.521442
0.521899
0.520811
0.521508
0.521497
0.521005
0.519711
0.519194
0.519106
0.519456
0.504361
0.502641
0.502026
0.502623
0.505197
0.503443
0.502894
0.503654
0.509832
0.508176
0.507766
0.508703
0.513059
0.511566
0.511289
0.512314
0.515803
0.514502
0.514324
0.515341
0.51872
0.517635
0.51753
0.518464
0.519564
0.518716
0.518656
0.519433
0.524028
0.523662
0.523648
0.524028
0.521835
0.52244
0.522436
0.522019
0.520157
0.519683
0.519609
0.519933
0.50667
0.504777
0.504247
0.505177
0.507424
0.505561
0.505125
0.506205
0.512433
0.510769
0.510483
0.511654
0.515607
0.514192
0.514026
0.515174
0.518379
0.517221
0.517132
0.518163
0.52121
0.520314
0.520274
0.521138
0.521652
0.520991
0.52097
0.521629
0.525984
0.525745
0.525742
0.526017
0.522314
0.522797
0.522795
0.522466
0.519442
0.519053
0.518999
0.519264
0.510166
0.508254
0.507874
0.5091
0.510603
0.508816
0.508541
0.509841
0.515646
0.514174
0.51403
0.51527
0.518546
0.517384
0.51732
0.518399
0.521112
0.520233
0.520211
0.521084
0.523637
0.523019
0.523021
0.52368
0.523755
0.523326
0.523323
0.52378
0.527973
0.527866
0.527871
0.528025
0.52197
0.522292
0.522287
0.522067
0.517469
0.51724
0.517212
0.517359
0.515441
0.513904
0.513728
0.514952
0.514796
0.513451
0.513342
0.514498
0.519017
0.518021
0.517991
0.518951
0.52125
0.520523
0.520519
0.521257
0.52332
0.522814
0.52282
0.523355
0.525374
0.525061
0.525074
0.525432
0.525487
0.525269
0.525267
0.525493
0.529948
0.529955
0.529966
0.530003
0.520917
0.521013
0.521006
0.520942
0.51538
0.523654
0.529864
0.533577
0.537013
0.539883
0.542211
0.544197
0.546064
0.548147
0.499481
0.500956
0.509157
0.515028
0.520742
0.525473
0.529332
0.532461
0.535072
0.537645
0.498402
0.494195
0.505736
0.512469
0.518953
0.523843
0.527676
0.530646
0.533026
0.535285
0.497328
0.488141
0.50342
0.51092
0.518197
0.523237
0.527164
0.530203
0.532693
0.534981
0.496913
0.483787
0.502858
0.510858
0.518976
0.524113
0.528109
0.531144
0.53364
0.535883
0.494978
0.47909
0.501858
0.510214
0.519283
0.524537
0.528628
0.531622
0.534101
0.536308
0.494191
0.476338
0.502435
0.510918
0.520879
0.526124
0.530232
0.53308
0.535392
0.537393
0.49242
0.473395
0.502429
0.51084
0.521602
0.526755
0.530947
0.533774
0.536132
0.538158
0.494059
0.474609
0.505404
0.512409
0.523026
0.527741
0.532323
0.535416
0.53791
0.539972
0.484368
0.465853
0.497387
0.504578
0.516855
0.523256
0.529526
0.533812
0.537025
0.53927
0.465397
0.486567
0.502606
0.513714
0.521155
0.526324
0.530103
0.533063
0.535605
0.538116
0.436118
0.463738
0.483907
0.496917
0.506133
0.513012
0.518297
0.522435
0.525758
0.528689
0.425436
0.458614
0.482189
0.496129
0.505866
0.512912
0.518169
0.522146
0.525233
0.527873
0.417473
0.454874
0.48137
0.496184
0.506483
0.513652
0.518918
0.522896
0.526045
0.528708
0.412222
0.452918
0.482118
0.497615
0.508492
0.515724
0.52095
0.52485
0.527962
0.530581
0.407495
0.450666
0.482359
0.498336
0.509847
0.517147
0.522355
0.526147
0.529188
0.53176
0.405219
0.450102
0.484
0.500174
0.512266
0.519522
0.524643
0.52824
0.531089
0.533474
0.403233
0.449198
0.485011
0.501075
0.513638
0.520747
0.525832
0.529352
0.532184
0.534571
0.404864
0.451892
0.488818
0.503457
0.515559
0.522158
0.527459
0.531161
0.534045
0.53644
0.400802
0.447444
0.484035
0.497977
0.511066
0.518852
0.525431
0.530055
0.533466
0.535827
0.492716
0.500028
0.506842
0.512363
0.516765
0.520329
0.523284
0.525835
0.528195
0.530575
0.465555
0.475122
0.484327
0.492616
0.499866
0.50596
0.510961
0.515065
0.518478
0.521475
0.453329
0.467042
0.479708
0.490191
0.498834
0.505712
0.511095
0.515321
0.518697
0.521541
0.442505
0.460756
0.477096
0.489619
0.499397
0.506777
0.512378
0.516734
0.520251
0.52318
0.433677
0.456622
0.476619
0.490899
0.501612
0.509309
0.514989
0.519341
0.522871
0.525802
0.425295
0.452661
0.476061
0.491748
0.503263
0.511192
0.516915
0.521206
0.524688
0.527592
0.419456
0.450676
0.47706
0.493745
0.5059
0.513922
0.519598
0.523737
0.527061
0.529815
0.414466
0.448794
0.477691
0.494916
0.507505
0.515484
0.521131
0.525207
0.528492
0.531229
0.413496
0.450431
0.480933
0.497477
0.509694
0.517344
0.523117
0.527287
0.530532
0.533213
0.409619
0.446799
0.477384
0.493597
0.506563
0.515107
0.521807
0.526649
0.530222
0.532691
0.500213
0.504463
0.508541
0.511922
0.514719
0.517106
0.519205
0.521132
0.52303
0.525033
0.476007
0.480468
0.485947
0.491769
0.497303
0.502199
0.506396
0.509995
0.513107
0.515892
0.466849
0.473326
0.48117
0.488894
0.495823
0.50167
0.506469
0.510413
0.513691
0.516492
0.457957
0.467422
0.478234
0.487983
0.496171
0.502723
0.507929
0.512159
0.515701
0.518696
0.449731
0.463084
0.477214
0.488938
0.498248
0.50534
0.510796
0.515151
0.518801
0.521871
0.440915
0.458597
0.476044
0.489521
0.499814
0.507341
0.512978
0.517376
0.521045
0.524134
0.433796
0.455817
0.476335
0.491232
0.502325
0.510139
0.515852
0.520193
0.523764
0.526748
0.427204
0.453195
0.476371
0.492233
0.503876
0.511825
0.517598
0.521929
0.525466
0.528425
0.424167
0.453795
0.478783
0.494533
0.50606
0.513913
0.519816
0.524195
0.527631
0.530486
0.42021
0.450725
0.47591
0.491653
0.503836
0.512399
0.518992
0.523866
0.527491
0.530017
0.504927
0.507851
0.510452
0.512454
0.514076
0.515501
0.516826
0.518135
0.519532
0.521103
0.483467
0.485649
0.488902
0.492819
0.496797
0.500476
0.503767
0.506726
0.509399
0.511856
0.477139
0.480093
0.48475
0.490051
0.495192
0.499773
0.503723
0.50714
0.510114
0.512723
0.471196
0.475617
0.482277
0.489206
0.495482
0.500796
0.50524
0.509043
0.51238
0.51528
0.465347
0.472161
0.481333
0.490019
0.497403
0.503357
0.508173
0.512214
0.515747
0.518796
0.458159
0.468068
0.479954
0.490338
0.498755
0.505281
0.510409
0.514605
0.518236
0.521362
0.451847
0.465211
0.479759
0.491644
0.500957
0.507938
0.513282
0.517533
0.521143
0.524217
0.44556
0.462358
0.479283
0.492302
0.50228
0.509574
0.515096