/*--------------------------------*- C++ -*----------------------------------*\
| =========                 |                                                 |
| \\      /  F ield         | foam-extend: Open Source CFD                    |
|  \\    /   O peration     | Version:     4.0                                |
|   \\  /    A nd           | Web:         http://www.foam-extend.org         |
|    \\/     M anipulation  |                                                 |
\*---------------------------------------------------------------------------*/
FoamFile
{
    version     2.0;
    format      ascii;
    class       volScalarField;
    location    "250";
    object      p;
}
// * * * * * * * * * * * * * * * * * * * * * * * * * * * * * * * * * * * * * //

dimensions      [1 -1 -2 0 0 0 0];

internalField   nonuniform List<scalar> 
34480
(
113729
113607
113527
113486
113492
113569
113770
114246
114911
114766
114005
113882
113791
113727
113691
113710
113841
114233
114896
114073
114865
114681
114527
114396
114295
114254
114337
114640
115289
113758
115892
115640
115420
115230
115074
114976
115006
115205
115794
113538
116815
116506
116250
116029
115847
115711
115695
115784
116260
113286
117623
117297
117034
116817
116636
116482
116421
116389
116685
112987
118116
117787
117544
117347
117184
117023
116913
116753
116813
112447
118518
118216
118016
117877
117770
117641
117510
117246
117044
112038
118532
118236
118063
117962
117897
117795
117638
117286
116799
111273
118603
118317
118204
118210
118281
118341
118341
118138
117624
111626
114742
114612
114541
114522
114562
114681
114911
115309
115966
116814
114978
114840
114754
114714
114725
114809
115012
115427
116270
117226
115718
115527
115386
115289
115245
115283
115470
115900
116945
118131
116570
116320
116123
115978
115891
115885
116044
116450
117627
118946
117320
117021
116793
116620
116510
116472
116599
116949
118178
119526
117983
117668
117433
117258
117144
117086
117176
117440
118633
119901
118365
118045
117824
117659
117553
117478
117520
117678
118761
119890
118704
118405
118215
118091
118020
117960
117972
118034
118951
119879
118703
118406
118232
118128
118072
118014
117986
117966
118665
119467
118773
118485
118357
118335
118378
118432
118500
118559
119186
119830
115599
115485
115426
115421
115474
115596
115804
116116
116555
117066
115835
115700
115621
115600
115639
115753
115970
116337
116966
117652
116461
116278
116153
116087
116089
116181
116410
116840
117710
118691
117148
116911
116741
116637
116611
116682
116916
117384
118469
119735
117734
117456
117258
117131
117088
117141
117371
117840
119080
120581
118257
117963
117759
117627
117579
117617
117833
118269
119589
121250
118532
118232
118036
117910
117862
117882
118067
118443
119768
121538
118809
118523
118350
118251
118224
118248
118409
118722
119984
121803
118788
118502
118339
118250
118225
118235
118350
118603
119724
121644
118852
118573
118444
118413
118456
118539
118708
119004
120057
122020
116296
116209
116165
116164
116210
116305
116454
116655
116901
117142
116548
116430
116363
116351
116396
116508
116697
116974
117372
117753
117080
116913
116804
116758
116781
116891
117114
117477
118091
118711
117622
117405
117257
117183
117190
117298
117553
117992
118840
119738
118064
117808
117638
117544
117541
117643
117916
118403
119457
120633
118463
118190
118011
117912
117904
117999
118277
118779
119991
121413
118643
118361
118186
118087
118077
118157
118421
118907
120215
121856
118861
118588
118429
118348
118350
118429
118677
119135
120472
122294
118820
118544
118391
118315
118313
118375
118583
119001
120274
122326
118876
118607
118477
118442
118487
118597
118836
119282
120503
122740
116851
116790
116760
116760
116794
116860
116958
117081
117218
117339
117114
117018
116963
116957
116999
117094
117244
117447
117702
117929
117563
117418
117327
117295
117328
117434
117629
117917
118330
118716
117977
117787
117662
117610
117637
117756
117996
118372
118977
119571
118297
118070
117925
117858
117880
118005
118279
118724
119524
120349
118589
118343
118188
118115
118136
118262
118556
119047
120025
121080
118689
118430
118276
118201
118218
118336
118630
119140
120256
121539
118858
118602
118456
118393
118418
118534
118825
119336
120540
122032
118798
118536
118393
118331
118351
118453
118718
119214
120416
122169
118846
118590
118463
118429
118479
118613
118897
119416
120597
122587
117277
117237
117217
117218
117240
117283
117343
117415
117490
117551
117535
117462
117420
117416
117451
117524
117635
117776
117940
118077
117908
117789
117716
117694
117727
117820
117977
118195
118472
118717
118213
118053
117952
117916
117951
118065
118271
118574
118995
119386
118434
118239
118118
118071
118107
118235
118483
118862
119439
120003
118638
118422
118290
118238
118275
118413
118692
119131
119869
120618
118673
118440
118306
118251
118286
118423
118716
119194
120074
121022
118802
118567
118436
118388
118429
118567
118868
119369
120360
121501
118724
118481
118351
118301
118338
118466
118756
119264
120299
121683
118766
118527
118407
118376
118432
118581
118883
119415
120458
122064
117586
117560
117548
117548
117562
117588
117624
117666
117708
117741
117821
117768
117736
117734
117759
117812
117890
117986
118092
118177
118123
118030
117973
117958
117987
118061
118180
118339
118524
118682
118336
118207
118126
118102
118137
118236
118403
118635
118924
119182
118478
118316
118218
118186
118226
118344
118554
118858
119266
119647
118612
118428
118319
118283
118327
118461
118707
119075
119613
120135
118598
118394
118279
118240
118286
118425
118695
119112
119776
120459
118696
118487
118371
118335
118386
118531
118818
119272
120045
120889
118605
118384
118268
118230
118277
118418
118705
119181
120020
121070
118642
118425
118314
118288
118348
118502
118801
119301
120167
121391
117783
117767
117759
117758
117767
117782
117804
117828
117852
117871
117982
117944
117921
117918
117935
117972
118024
118089
118156
118210
118219
118149
118106
118095
118118
118173
118259
118370
118493
118593
118356
118255
118193
118176
118207
118286
118414
118584
118779
118947
118437
118307
118230
118209
118246
118347
118515
118747
119029
119284
118519
118368
118278
118254
118299
118418
118624
118916
119300
119659
118469
118296
118200
118173
118221
118352
118586
118931
119417
119901
118547
118365
118265
118240
118294
118434
118691
119078
119661
120272
118444
118249
118147
118119
118172
118313
118579
118997
119649
120420
118481
118287
118188
118168
118228
118379
118656
119098
119785
120683
117875
117864
117859
117859
117864
117873
117886
117900
117914
117925
118029
118002
117986
117983
117993
118017
118051
118093
118137
118170
118211
118160
118128
118120
118136
118175
118234
118309
118388
118451
118284
118209
118163
118151
118175
118235
118327
118447
118576
118684
118322
118222
118163
118149
118181
118261
118389
118559
118750
118918
118367
118246
118176
118160
118200
118301
118464
118686
118954
119198
118293
118151
118073
118054
118100
118215
118407
118680
119027
119366
118359
118206
118123
118106
118157
118284
118503
118817
119245
119679
118248
118081
117994
117975
118028
118159
118391
118739
119231
119782
118287
118120
118034
118019
118077
118216
118460
118831
119358
119995
117871
117864
117861
117860
117863
117868
117876
117885
117893
117900
117978
117959
117947
117944
117950
117964
117986
118012
118039
118059
118114
118078
118056
118049
118059
118085
118124
118172
118221
118258
118137
118084
118050
118041
118059
118101
118166
118247
118330
118397
118147
118073
118029
118019
118045
118105
118198
118317
118444
118553
118167
118074
118020
118010
118044
118123
118247
118410
118592
118757
118079
117965
117903
117891
117932
118026
118178
118385
118628
118862
118141
118017
117949
117937
117984
118093
118270
118516
118821
119124
118024
117885
117813
117799
117849
117964
118158
118435
118795
119180
118067
117928
117855
117845
117898
118021
118226
118523
118915
119356
117785
117780
117778
117777
117779
117782
117786
117792
117797
117801
117845
117833
117824
117821
117823
117831
117844
117859
117875
117885
117947
117922
117907
117902
117908
117923
117947
117976
118004
118024
117932
117895
117871
117865
117877
117905
117948
118000
118051
118092
117926
117873
117841
117835
117853
117897
117961
118042
118123
118193
117931
117862
117822
117815
117842
117902
117992
118108
118228
118338
117835
117748
117701
117693
117726
117801
117916
118067
118233
118392
117900
117803
117749
117742
117782
117870
118009
118193
118407
118613
117778
117666
117608
117599
117642
117739
117894
118106
118363
118627
117830
117717
117658
117651
117697
117800
117966
118195
118478
118776
117633
117629
117628
117627
117628
117630
117632
117635
117639
117642
117651
117642
117636
117633
117633
117637
117643
117651
117659
117663
117729
117714
117703
117699
117702
117711
117723
117739
117753
117761
117687
117662
117646
117641
117648
117666
117693
117725
117754
117777
117674
117638
117616
117611
117624
117654
117696
117749
117798
117841
117671
117622
117593
117589
117609
117652
117716
117794
117872
117943
117574
117509
117474
117469
117495
117551
117635
117742
117851
117959
117646
117573
117532
117528
117560
117629
117733
117866
118011
118150
117518
117431
117387
117381
117416
117493
117612
117769
117948
118125
117581
117493
117447
117443
117481
117564
117692
117863
118061
118260
117435
117432
117432
117431
117431
117432
117433
117435
117436
117438
117414
117409
117405
117402
117401
117402
117403
117406
117409
117408
117481
117472
117466
117463
117463
117467
117472
117479
117483
117483
117417
117402
117392
117388
117392
117403
117418
117436
117451
117463
117406
117382
117368
117365
117374
117393
117419
117452
117479
117505
117399
117367
117347
117344
117358
117388
117431
117483
117531
117577
117304
117258
117233
117230
117249
117290
117349
117421
117492
117564
117388
117335
117305
117303
117327
117379
117454
117547
117644
117735
117253
117187
117154
117150
117179
117237
117325
117437
117558
117675
117331
117265
117230
117227
117258
117321
117417
117539
117675
117804
117211
117210
117210
117209
117209
117209
117209
117210
117210
117211
117156
117154
117151
117148
117147
117145
117144
117144
117142
117140
117221
117217
117214
117212
117211
117211
117212
117213
117211
117206
117141
117132
117126
117124
117126
117132
117139
117148
117153
117159
117135
117121
117113
117111
117117
117128
117144
117162
117176
117191
117129
117108
117095
117093
117103
117123
117151
117183
117211
117241
117036
117005
116988
116987
117001
117029
117069
117116
117160
117207
117134
117097
117077
117076
117094
117131
117183
117246
117309
117368
116989
116941
116918
116916
116937
116980
117042
117119
117200
117276
117086
117038
117013
117012
117035
117082
117151
117235
117326
117409
116984
116982
116983
116982
116982
116982
116981
116981
116981
116981
116895
116894
116893
116891
116889
116887
116884
116882
116877
116873
116968
116967
116965
116964
116963
116962
116960
116958
116952
116945
116872
116868
116866
116864
116865
116868
116871
116874
116873
116876
116875
116868
116863
116863
116866
116872
116881
116891
116895
116904
116868
116856
116848
116848
116854
116867
116884
116904
116919
116938
116780
116761
116750
116749
116759
116778
116804
116834
116860
116891
116892
116869
116855
116855
116868
116893
116929
116970
117011
117046
116734
116700
116684
116683
116698
116728
116771
116823
116875
116923
116855
116822
116804
116804
116821
116854
116902
116959
117019
117070
116774
116773
116773
116772
116772
116772
116771
116771
116770
116770
116648
116648
116647
116646
116644
116642
116638
116635
116630
116625
116735
116737
116737
116737
116736
116734
116731
116727
116719
116712
116624
116623
116623
116623
116623
116624
116625
116625
116621
116622
116633
116631
116629
116630
116632
116635
116640
116644
116645
116650
116625
116618
116614
116615
116619
116627
116638
116649
116657
116669
116542
116531
116525
116526
116532
116545
116561
116579
116594
116613
116668
116654
116645
116646
116655
116672
116696
116722
116748
116769
116490
116467
116456
116456
116467
116488
116516
116549
116582
116613
116646
116624
116613
116613
116625
116648
116680
116717
116756
116786
116608
116607
116608
116608
116607
116607
116606
116605
116604
116603
116428
116428
116429
116428
116427
116425
116422
116418
116413
116410
116537
116540
116541
116542
116542
116540
116537
116532
116525
116519
116407
116409
116410
116412
116412
116413
116412
116411
116407
116408
116417
116418
116418
116420
116422
116424
116426
116428
116427
116431
116402
116399
116398
116400
116403
116409
116415
116421
116427
116435
116325
116320
116317
116319
116324
116332
116342
116352
116361
116372
116459
116451
116446
116447
116454
116465
116481
116497
116515
116526
116255
116240
116234
116235
116243
116257
116275
116296
116316
116335
116470
116456
116448
116449
116458
116474
116495
116519
116544
116561
116528
116528
116529
116529
116529
116528
116527
116526
116525
116523
116246
116247
116248
116249
116249
116248
116247
116244
116241
116240
116380
116383
116385
116387
116388
116388
116387
116385
116381
116378
116232
116235
116238
116241
116243
116245
116246
116245
116243
116245
116233
116234
116236
116238
116241
116245
116248
116250
116251
116255
116204
116203
116204
116206
116210
116215
116221
116226
116231
116236
116129
116128
116128
116130
116135
116142
116150
116157
116162
116167
116253
116248
116245
116247
116252
116261
116273
116285
116299
116304
116020
116011
116008
116010
116016
116026
116039
116053
116065
116077
116347
116338
116333
116334
116341
116352
116368
116384
116402
116411
116578
116578
116578
116579
116579
116580
116580
116581
116580
116579
116103
116103
116105
116108
116112
116116
116120
116124
116127
116132
116268
116268
116268
116270
116274
116280
116287
116295
116302
116309
116115
116116
116119
116122
116127
116134
116141
116149
116156
116162
116093
116092
116093
116095
116100
116108
116117
116126
116135
116143
116042
116040
116041
116043
116048
116056
116066
116076
116087
116094
115965
115964
115964
115967
115972
115980
115990
116000
116009
116012
116039
116034
116031
116033
116038
116047
116059
116073
116088
116095
115776
115771
115769
115771
115776
115785
115797
115809
115819
115825
116306
116299
116294
116296
116301
116311
116324
116338
116355
116362
116708
116703
116700
116700
116701
116705
116710
116716
116724
116732
116016
116008
116005
116007
116013
116025
116043
116068
116102
116150
116215
116199
116192
116192
116199
116212
116234
116265
116308
116368
116069
116060
116056
116058
116065
116078
116097
116123
116158
116206
116012
116002
115998
115999
116006
116018
116036
116061
116093
116135
115936
115928
115924
115925
115931
115942
115959
115981
116009
116044
115849
115842
115839
115840
115846
115857
115872
115891
115914
115939
115843
115833
115829
115829
115835
115845
115861
115881
115905
115932
115544
115539
115536
115537
115543
115553
115567
115582
115597
115604
116310
116302
116297
116297
116303
116313
116327
116343
116361
116373
125548
126718
126617
125566
128471
129916
129649
128312
131526
133167
132841
131257
134320
136121
135843
134110
136687
138602
138422
136608
138628
140631
140607
138773
139982
142041
142198
140385
141051
143140
143498
141731
140962
143058
143612
141948
140838
142961
143746
142228
118053
118233
118285
118212
119977
120354
120416
120164
122578
123148
123243
122859
125300
126064
126189
125671
127865
128802
128955
128314
130218
131308
131492
130760
132093
133307
133526
132736
133764
135075
135337
134523
134469
135850
136168
135373
135135
136603
136994
136234
117552
117639
117673
117661
118814
119011
119056
118997
120655
120966
121045
120960
122698
123137
123254
123133
124694
125265
125419
125246
126628
127330
127518
127287
128225
129048
129268
128975
129753
130679
130929
130580
130505
131497
131782
131388
131263
132321
132647
132215
117257
117282
117297
117303
118101
118163
118186
118186
119437
119570
119627
119632
120979
121199
121294
121297
122507
122821
122953
122943
124031
124445
124613
124579
125294
125807
126006
125940
126571
127174
127402
127297
127212
127875
128135
127996
127903
128626
128925
128764
117387
117398
117406
117410
118093
118128
118144
118147
119059
119138
119182
119200
120169
120300
120375
120405
121279
121468
121571
121607
122422
122677
122808
122842
123359
123682
123841
123867
124366
124754
124940
124951
124873
125307
125521
125519
125479
125957
126207
126196
117573
117578
117582
117584
118163
118183
118195
118199
118898
118947
118982
118999
119693
119773
119830
119862
120477
120592
120671
120714
121315
121471
121571
121621
121987
122189
122310
122363
122769
123016
123158
123210
123169
123448
123613
123664
123675
123985
124175
124221
117752
117755
117758
117759
118235
118251
118262
118266
118797
118834
118863
118877
119361
119417
119460
119485
119906
119980
120038
120074
120508
120606
120679
120723
120974
121100
121188
121240
121578
121734
121838
121894
121894
122071
122190
122249
122299
122496
122630
122686
117878
117880
117881
117882
118250
118264
118275
118280
118670
118699
118724
118737
119058
119098
119132
119153
119433
119482
119525
119552
119864
119926
119978
120013
120179
120257
120319
120361
120649
120745
120818
120865
120888
121000
121082
121131
121203
121328
121417
121464
117930
117931
117932
117933
118199
118212
118223
118229
118503
118527
118549
118561
118754
118784
118812
118830
119006
119039
119071
119093
119315
119355
119392
119418
119520
119569
119612
119643
119890
119951
120000
120035
120055
120127
120182
120217
120301
120379
120437
120472
117903
117904
117905
117906
118080
118091
118102
118109
118293
118312
118331
118343
118441
118463
118486
118501
118604
118627
118651
118669
118823
118850
118876
118895
118948
118979
119008
119031
119245
119283
119316
119341
119345
119391
119427
119451
119540
119589
119627
119651
117803
117804
117805
117805
117899
117909
117920
117927
118045
118061
118077
118089
118117
118133
118152
118165
118220
118236
118254
118267
118374
118391
118409
118424
118439
118459
118478
118495
118682
118707
118729
118746
118728
118758
118781
118797
118889
118920
118944
118960
117643
117643
117643
117644
117671
117680
117690
117697
117772
117783
117797
117808
117789
117800
117814
117826
117853
117863
117875
117886
117960
117971
117983
117993
117981
117993
118006
118017
118188
118203
118217
118229
118188
118207
118222
118233
118329
118349
118364
118374
117439
117439
117439
117439
117412
117419
117428
117436
117486
117494
117505
117514
117464
117471
117481
117490
117505
117510
117518
117526
117581
117586
117593
117600
117570
117576
117584
117591
117754
117762
117771
117778
117715
117727
117736
117743
117847
117859
117869
117876
117211
117211
117212
117212
117139
117144
117152
117159
117203
117207
117215
117222
117152
117155
117161
117167
117183
117184
117187
117192
117236
117237
117240
117244
117204
117205
117209
117213
117375
117379
117383
117387
117301
117308
117313
117317
117435
117442
117448
117452
116981
116981
116981
116981
116869
116872
116878
116884
116936
116937
116941
116945
116863
116862
116864
116867
116890
116888
116888
116890
116928
116926
116926
116927
116881
116880
116880
116882
117048
117049
117050
117052
116939
116943
116946
116948
117085
117089
117093
117095
116769
116769
116769
116769
116618
116618
116622
116625
116699
116697
116697
116698
116606
116601
116599
116599
116633
116628
116625
116624
116658
116654
116651
116650
116601
116598
116596
116596
116769
116768
116767
116767
116623
116624
116626
116627
116794
116796
116798
116800
116602
116602
116602
116601
116399
116397
116396
116397
116504
116498
116494
116492
116389
116382
116376
116374
116415
116409
116403
116400
116425
116420
116415
116412
116361
116357
116353
116351
116528
116526
116524
116523
116342
116342
116342
116342
116565
116565
116566
116568
116522
116521
116521
116520
116226
116221
116217
116216
116364
116356
116348
116343
116227
116219
116210
116205
116244
116237
116229
116225
116231
116226
116220
116216
116159
116153
116148
116146
116311
116309
116306
116305
116080
116080
116079
116079
116413
116412
116413
116414
116577
116577
116576
116576
116120
116113
116105
116099
116304
116295
116285
116278
116150
116141
116132
116126
116138
116131
116123
116119
116092
116086
116080
116077
116004
115997
115992
115991
116106
116104
116102
116100
115820
115817
115815
115815
116368
116368
116368
116369
116735
116736
116736
116736
116157
116151
116142
116135
116401
116399
116392
116385
116229
116226
116219
116214
116162
116161
116156
116151
116068
116068
116064
116060
115952
115950
115947
115945
115962
115965
115963
115960
115586
115580
115578
115581
116397
116401
116401
116398
120516
118441
116834
115783
115124
114687
114383
114162
114000
113872
121901
119157
117139
116014
115321
114881
114582
114372
114227
114122
123313
120327
118063
116999
116304
115862
115545
115310
115141
115017
124714
121676
119292
118295
117589
117139
116793
116522
116307
116121
125937
122989
120497
119566
118813
118331
117933
117610
117340
117101
127048
124282
121667
120788
119952
119419
118953
118573
118247
117952
127774
125237
122479
121640
120697
120108
119570
119138
118769
118453
128467
126155
123245
122433
121371
120723
120109
119624
119212
118861
128461
126311
123351
122630
121523
120864
120200
119678
119237
118874
129193
127060
124094
123332
122087
121309
120527
119914
119406
118982
117829
117279
116752
116311
115945
115644
115396
115194
115027
114894
119187
118244
117403
116767
116283
115917
115637
115420
115252
115124
121220
119852
118682
117871
117272
116835
116504
116246
116048
115899
123232
121515
120061
119123
118436
117943
117565
117265
117021
116820
124988
123006
121296
120262
119486
118935
118501
118152
117861
117617
126519
124369
122427
121318
120449
119835
119340
118941
118605
118316
127580
125340
123180
122015
121050
120377
119824
119381
119010
118704
128508
126238
123883
122679
121619
120891
120278
119790
119385
119050
128708
126401
123968
122815
121732
120993
120341
119823
119394
119048
129331
127014
124540
123355
122173
121342
120603
120016
119537
119146
117553
117325
117055
116790
116546
116330
116143
115982
115845
115732
118705
118249
117754
117327
116978
116692
116459
116267
116110
115985
120478
119739
118981
118377
117905
117534
117237
116995
116802
116649
122388
121338
120310
119540
118951
118497
118136
117843
117601
117398
124159
122788
121491
120565
119858
119323
118897
118552
118265
118025
125793
124121
122566
121500
120680
120067
119579
119185
118858
118581
127023
125078
123277
122094
121168
120487
119944
119511
119152
118861
128145
125966
123946
122675
121656
120919
120324
119850
119464
119147
128542
126162
124049
122790
121751
120997
120369
119868
119459
119132
129169
126671
124508
123214
122100
121275
120580
120025
119577
119217
117297
117237
117141
117027
116906
116786
116673
116568
116475
116394
118143
118003
117811
117609
117413
117230
117065
116918
116790
116682
119538
119263
118915
118581
118277
118009
117776
117574
117404
117261
121116
120660
120119
119630
119205
118844
118537
118277
118055
117862
122627
121954
121193
120540
119988
119533
119155
118838
118569
118341
124083
123176
122185
121374
120698
120155
119709
119341
119033
118770
125222
124074
122851
121894
121105
120485
119982
119573
119234
118958
126322
124941
123502
122425
121539
120855
120301
119853
119488
119188
126795
125215
123660
122546
121622
120909
120321
119848
119462
119154
127451
125705
124064
122888
121898
121127
120488
119973
119559
119225
117409
117386
117345
117290
117227
117161
117094
117030
116970
116918
118128
118070
117978
117868
117750
117630
117515
117408
117310
117223
119176
119062
118892
118701
118507
118321
118147
117988
117847
117722
120365
120162
119877
119576
119285
119016
118774
118558
118366
118193
121530
121203
120770
120338
119936
119578
119265
118992
118755
118549
122702
122227
121625
121053
120538
120093
119713
119388
119111
118872
123637
122993
122209
121500
120875
120352
119912
119545
119237
118982
124603
123783
122820
121988
121267
120676
120184
119778
119443
119166
125070
124101
123021
122122
121346
120714
120186
119754
119399
119113
125683
124559
123378
122408
121571
120889
120320
119855
119478
119173
117585
117577
117559
117532
117500
117464
117426
117389
117353
117320
118192
118165
118118
118056
117985
117908
117831
117756
117686
117620
118997
118947
118859
118748
118625
118499
118374
118254
118143
118041
119864
119773
119622
119440
119247
119055
118872
118702
118545
118399
120713
120557
120317
120043
119764
119498
119252
119029
118830
118653
121605
121364
121014
120633
120260
119917
119609
119336
119098
118888
122318
121973
121494
121001
120533
120116
119750
119435
119164
118938
123116
122656
122044
121442
120886
120402
119985
119631
119333
119084
123534
122971
122255
121576
120958
120427
119972
119592
119274
119016
124051
123374
122569
121822
121148
120573
120083
119675
119340
119067
117760
117756
117747
117734
117716
117697
117675
117653
117632
117612
118261
118245
118217
118180
118135
118086
118034
117983
117933
117884
118877
118850
118800
118733
118654
118568
118480
118393
118309
118228
119493
119448
119363
119252
119125
118992
118858
118729
118607
118488
120088
120012
119878
119706
119517
119326
119140
118966
118806
118660
120740
120621
120420
120174
119913
119658
119418
119199
119004
118827
121255
121076
120792
120460
120123
119803
119512
119252
119024
118829
121894
121646
121268
120849
120437
120056
119717
119420
119165
118947
122239
121920
121457
120967
120495
120069
119693
119369
119094
118866
122651
122259
121728
121180
120660
120195
119788
119442
119151
118912
117883
117881
117877
117869
117860
117848
117836
117823
117810
117799
118277
118267
118251
118227
118199
118167
118133
118098
118063
118028
118739
118724
118695
118653
118602
118545
118484
118422
118361
118300
119162
119139
119091
119022
118939
118848
118753
118659
118567
118474
119569
119532
119455
119348
119222
119088
118953
118822
118699
118583
120036
119979
119863
119706
119527
119343
119164
118995
118840
118696
120391
120301
120133
119915
119677
119441
119217
119011
118826
118664
120894
120764
120533
120249
119952
119665
119398
119158
118948
118763
121155
120975
120681
120340
119993
119663
119363
119097
118866
118671
121476
121253
120911
120525
120138
119776
119449
119164
118920
118715
117934
117933
117930
117926
117921
117914
117907
117899
117891
117884
118228
118222
118212
118197
118179
118158
118135
118112
118088
118062
118565
118556
118539
118513
118480
118442
118401
118358
118315
118270
118840
118827
118800
118757
118704
118643
118578
118511
118444
118374
119109
119091
119047
118980
118897
118805
118710
118615
118523
118435
119440
119412
119344
119244
119124
118996
118866
118739
118621
118508
119673
119627
119526
119384
119221
119051
118885
118727
118581
118452
120067
119998
119856
119668
119459
119249
119046
118859
118691
118539
120245
120143
119958
119726
119478
119232
118999
118788
118600
118440
120494
120369
120152
119887
119607
119335
119081
118854
118655
118485
117906
117906
117904
117902
117899
117895
117890
117886
117881
117877
118110
118107
118101
118092
118081
118067
118052
118037
118020
118002
118349
118345
118335
118319
118298
118274
118247
118218
118187
118155
118511
118506
118491
118465
118431
118391
118348
118302
118255
118203
118683
118675
118650
118608
118555
118494
118428
118362
118296
118231
118914
118901
118861
118798
118719
118631
118540
118449
118361
118275
119056
119032
118972
118880
118770
118651
118531
118414
118304
118204
119367
119330
119243
119120
118977
118827
118678
118536
118406
118286
119473
119415
119299
119144
118971
118792
118618
118456
118308
118179
119670
119600
119463
119286
119089
118891
118700
118524
118367
118230
117806
117805
117805
117803
117801
117799
117796
117793
117790
117788
117931
117929
117926
117921
117914
117906
117897
117887
117875
117862
118095
118094
118089
118080
118068
118053
118036
118017
117997
117975
118176
118174
118167
118152
118131
118106
118078
118048
118016
117979
118280
118278
118264
118239
118206
118166
118123
118077
118032
117986
118439
118434
118411
118372
118321
118263
118200
118137
118075
118011
118514
118502
118466
118408
118335
118254
118170
118085
118005
117930
118766
118746
118693
118613
118517
118413
118306
118202
118105
118013
118813
118779
118707
118605
118487
118360
118234
118113
117999
117900
118975
118935
118850
118733
118598
118457
118317
118185
118065
117959
117644
117644
117644
117643
117642
117641
117639
117638
117636
117634
117702
117702
117702
117699
117695
117691
117685
117679
117672
117662
117815
117816
117814
117810
117803
117795
117785
117773
117761
117747
117836
117837
117835
117827
117816
117801
117783
117765
117744
117718
117898
117898
117892
117878
117858
117833
117806
117776
117746
117715
118006
118005
117993
117970
117938
117900
117859
117816
117773
117728
118033
118028
118006
117970
117923
117870
117812
117754
117696
117642
118244
118233
118201
118151
118088
118017
117943
117870
117800
117731
118244
118224
118179
118113
118033
117946
117857
117769
117685
117611
118385
118362
118309
118233
118143
118045
117946
117850
117761
117681
117440
117440
117440
117440
117439
117438
117437
117437
117435
117435
117441
117442
117443
117442
117441
117439
117436
117433
117428
117422
117521
117524
117524
117523
117521
117517
117512
117506
117499
117491
117499
117503
117503
117501
117495
117487
117478
117467
117455
117438
117536
117539
117537
117530
117519
117505
117489
117471
117452
117432
117611
117612
117607
117594
117575
117552
117526
117498
117470
117439
117604
117603
117591
117569
117540
117505
117467
117428
117389
117352
117789
117785
117766
117735
117694
117648
117598
117547
117499
117449
117751
117738
117711
117668
117616
117558
117496
117434
117374
117320
117883
117870
117837
117789
117729
117663
117594
117527
117463
117405
117212
117212
117212
117212
117212
117212
117211
117211
117211
117211
117165
117167
117168
117169
117169
117169
117168
117167
117165
117161
117229
117232
117234
117235
117235
117235
117233
117231
117228
117225
117176
117180
117183
117183
117182
117179
117175
117170
117163
117153
117201
117205
117206
117204
117199
117192
117183
117174
117163
117151
117253
117256
117255
117248
117238
117224
117209
117192
117175
117155
117224
117224
117219