/*--------------------------------*- C++ -*----------------------------------*\
| =========                 |                                                 |
| \\      /  F ield         | foam-extend: Open Source CFD                    |
|  \\    /   O peration     | Version:     4.0                                |
|   \\  /    A nd           | Web:         http://www.foam-extend.org         |
|    \\/     M anipulation  |                                                 |
\*---------------------------------------------------------------------------*/
FoamFile
{
    version     2.0;
    format      ascii;
    class       volScalarField;
    location    "250";
    object      rho;
}
// * * * * * * * * * * * * * * * * * * * * * * * * * * * * * * * * * * * * * //

dimensions      [1 -3 0 0 0 0 0];

internalField   nonuniform List<scalar> 
34480
(
1.39539
1.39474
1.3944
1.3944
1.39492
1.39627
1.39907
1.40489
1.41196
1.41035
1.39743
1.39718
1.3971
1.3971
1.39719
1.39766
1.39911
1.40335
1.41016
1.4035
1.40701
1.40608
1.40534
1.40469
1.40423
1.40435
1.40568
1.40947
1.4166
1.4035
1.41925
1.41759
1.41613
1.41486
1.4139
1.41363
1.41479
1.41805
1.42511
1.40523
1.43055
1.42826
1.42635
1.42474
1.42359
1.42312
1.42419
1.42694
1.43353
1.4069
1.44035
1.4378
1.43575
1.43416
1.43311
1.43265
1.43362
1.43575
1.44133
1.40798
1.44649
1.44382
1.44192
1.44055
1.43976
1.43939
1.44017
1.44159
1.44572
1.40634
1.45148
1.44906
1.44756
1.4468
1.44663
1.44673
1.44754
1.44843
1.45087
1.40595
1.452
1.44953
1.44828
1.44793
1.44827
1.4488
1.44965
1.45031
1.45114
1.40192
1.45004
1.44763
1.44695
1.44759
1.44914
1.4511
1.45332
1.45546
1.45688
1.40483
1.40557
1.40472
1.40425
1.40418
1.4046
1.40569
1.40766
1.41077
1.41588
1.42205
1.40764
1.40703
1.40675
1.40668
1.40681
1.4073
1.40843
1.4109
1.4172
1.42446
1.41639
1.41512
1.41422
1.41355
1.41316
1.41336
1.41458
1.41749
1.42615
1.4364
1.42703
1.42506
1.42349
1.42225
1.42143
1.42129
1.42247
1.42547
1.43574
1.44786
1.4367
1.43411
1.43208
1.43049
1.42946
1.42911
1.43023
1.43302
1.44413
1.45696
1.4451
1.44222
1.43999
1.43832
1.4373
1.43686
1.43783
1.44011
1.45123
1.46357
1.4502
1.44714
1.44495
1.44336
1.44245
1.44196
1.44266
1.44419
1.45459
1.46583
1.45462
1.45166
1.4497
1.44852
1.448
1.44775
1.44832
1.44916
1.45832
1.46789
1.45506
1.45195
1.4501
1.44912
1.44881
1.44869
1.44904
1.44949
1.45713
1.46607
1.45328
1.45007
1.44859
1.44831
1.44886
1.4497
1.45084
1.45208
1.45952
1.46868
1.41387
1.41318
1.41281
1.41283
1.41332
1.41437
1.41608
1.41846
1.42137
1.42406
1.41608
1.41552
1.41531
1.41538
1.41575
1.4165
1.41767
1.41957
1.42342
1.42743
1.42371
1.42257
1.42185
1.42148
1.42153
1.42217
1.42364
1.42629
1.43248
1.43921
1.43257
1.43082
1.42954
1.42873
1.42852
1.42907
1.43081
1.43406
1.44239
1.45174
1.44046
1.43818
1.43651
1.43539
1.43504
1.43554
1.4375
1.44106
1.45104
1.46255
1.44734
1.44479
1.44292
1.44172
1.44135
1.44184
1.44388
1.44743
1.45838
1.47139
1.45129
1.44855
1.44668
1.44551
1.44518
1.4456
1.44755
1.45079
1.46203
1.47612
1.45505
1.45234
1.45063
1.44972
1.44963
1.45017
1.45205
1.45496
1.46587
1.48053
1.45528
1.4524
1.45072
1.44991
1.44987
1.45034
1.45192
1.45465
1.4647
1.48055
1.45349
1.4505
1.44907
1.44875
1.44928
1.45035
1.45234
1.45555
1.46545
1.48286
1.42071
1.42026
1.42001
1.42004
1.42043
1.42119
1.42233
1.42372
1.42504
1.42551
1.42316
1.42275
1.42263
1.42277
1.42317
1.42386
1.42478
1.42587
1.42759
1.42898
1.42984
1.42886
1.4283
1.42809
1.42831
1.42907
1.43043
1.43239
1.43611
1.43957
1.43709
1.43559
1.43454
1.43399
1.43407
1.43492
1.43677
1.43964
1.44558
1.45149
1.4434
1.44141
1.44002
1.43921
1.43921
1.44012
1.44237
1.44596
1.45397
1.46232
1.44891
1.44665
1.44506
1.44416
1.44414
1.44509
1.4476
1.4516
1.46127
1.47182
1.45182
1.44935
1.44773
1.44681
1.4468
1.4477
1.45024
1.45434
1.4651
1.47772
1.45495
1.45246
1.45092
1.45018
1.45031
1.45126
1.4538
1.45787
1.46914
1.48357
1.45496
1.45227
1.45071
1.45001
1.45013
1.45097
1.45322
1.45725
1.46836
1.48521
1.45314
1.45033
1.44895
1.44859
1.44911
1.45034
1.45281
1.45714
1.46818
1.4878
1.42625
1.42601
1.42586
1.42589
1.42616
1.42667
1.42738
1.42816
1.42871
1.42845
1.42882
1.42862
1.42861
1.42877
1.42914
1.42969
1.43031
1.43084
1.43144
1.43179
1.4346
1.43386
1.43346
1.43337
1.43366
1.43438
1.43549
1.43683
1.43878
1.44043
1.44043
1.43921
1.4384
1.43805
1.43828
1.43921
1.4409
1.44321
1.44692
1.45027
1.44536
1.44369
1.44256
1.44201
1.44221
1.44329
1.44549
1.44868
1.45428
1.45954
1.44967
1.44772
1.44639
1.44574
1.44595
1.44713
1.4497
1.45355
1.46094
1.46816
1.45168
1.44949
1.4481
1.44742
1.44763
1.4488
1.45151
1.45575
1.46459
1.47387
1.45426
1.452
1.45063
1.45005
1.45036
1.45157
1.45436
1.45882
1.46869
1.47995
1.45404
1.45156
1.45015
1.44957
1.44985
1.45097
1.4536
1.45817
1.46843
1.48235
1.4522
1.4496
1.44829
1.44795
1.44848
1.44985
1.45262
1.45745
1.46782
1.48486
1.43059
1.43049
1.43042
1.43044
1.43062
1.43093
1.43134
1.43174
1.43187
1.43124
1.4331
1.43309
1.43318
1.43336
1.43365
1.43404
1.43437
1.43445
1.43434
1.43407
1.43801
1.43752
1.43728
1.43728
1.43757
1.43817
1.43897
1.43977
1.44062
1.44119
1.44259
1.44167
1.44107
1.44087
1.44117
1.44204
1.44345
1.44516
1.44729
1.44899
1.44636
1.44502
1.44413
1.44376
1.44407
1.44516
1.44711
1.44973
1.45335
1.45643
1.44964
1.44801
1.44692
1.44647
1.44681
1.44805
1.45043
1.45381
1.45903
1.46365
1.45092
1.44902
1.44784
1.44734
1.44769
1.44897
1.4516
1.45552
1.4622
1.46856
1.45303
1.45102
1.44981
1.44937
1.44979
1.45114
1.45392
1.45822
1.46613
1.47429
1.45259
1.45035
1.44908
1.44862
1.44902
1.45031
1.45305
1.45762
1.46629
1.47698
1.45075
1.44838
1.44717
1.44686
1.44742
1.44887
1.45171
1.45652
1.46554
1.47908
1.43377
1.43377
1.43374
1.43376
1.43386
1.43405
1.43428
1.43447
1.43439
1.43364
1.43605
1.43621
1.43638
1.43655
1.43677
1.43701
1.43711
1.43687
1.43631
1.43566
1.44013
1.43989
1.43979
1.43984
1.44009
1.44054
1.44106
1.4414
1.44151
1.4414
1.44363
1.443
1.44259
1.44249
1.44278
1.44352
1.4446
1.44576
1.44679
1.44741
1.44645
1.44542
1.44474
1.44451
1.44485
1.44583
1.44745
1.44945
1.45164
1.4532
1.44889
1.44757
1.4467
1.4464
1.44679
1.44796
1.45002
1.45279
1.45629
1.45901
1.44957
1.44796
1.44698
1.44663
1.44705
1.44832
1.45068
1.45405
1.45884
1.46296
1.45131
1.44956
1.44852
1.4482
1.44868
1.45003
1.45262
1.45646
1.46245
1.46808
1.45068
1.44869
1.44758
1.44723
1.44769
1.44904
1.45167
1.45588
1.46282
1.47066
1.44885
1.44673
1.44564
1.44539
1.44596
1.44741
1.45014
1.45459
1.46199
1.4722
1.43583
1.43588
1.43588
1.43589
1.43595
1.43606
1.43618
1.43625
1.43609
1.43531
1.43775
1.43804
1.43826
1.43843
1.43859
1.43871
1.43863
1.43817
1.43731
1.43637
1.44107
1.44103
1.44106
1.44114
1.44134
1.44164
1.44191
1.44189
1.44148
1.44087
1.44364
1.44328
1.44302
1.44298
1.44324
1.44381
1.44458
1.44525
1.44552
1.44536
1.4457
1.44496
1.44447
1.44433
1.44465
1.44546
1.44672
1.44815
1.44931
1.4498
1.44748
1.44646
1.44578
1.44558
1.44597
1.44699
1.44868
1.45082
1.45304
1.45439
1.44769
1.44638
1.44558
1.44534
1.44577
1.44693
1.44894
1.45169
1.45499
1.45745
1.44915
1.44768
1.44681
1.44658
1.44707
1.44834
1.45061
1.45385
1.45822
1.46191
1.44837
1.44664
1.44569
1.44543
1.44592
1.44722
1.44961
1.45325
1.45858
1.46412
1.44658
1.44473
1.44378
1.44358
1.44414
1.44552
1.448
1.45187
1.4577
1.46512
1.43682
1.43689
1.4369
1.4369
1.43694
1.437
1.43707
1.43708
1.43687
1.43612
1.4383
1.43868
1.43895
1.43911
1.43921
1.43924
1.43905
1.43843
1.43737
1.43621
1.44095
1.44109
1.4412
1.4413
1.44145
1.44163
1.44169
1.44141
1.44063
1.43964
1.44276
1.4426
1.44247
1.44247
1.44267
1.44309
1.44359
1.44388
1.44362
1.44289
1.44422
1.44374
1.4434
1.44332
1.44359
1.44423
1.44515
1.4461
1.44653
1.44626
1.4455
1.44474
1.44423
1.4441
1.44445
1.4453
1.44661
1.44819
1.44948
1.44986
1.44537
1.44433
1.4437
1.44354
1.44394
1.44494
1.44657
1.4487
1.45088
1.45214
1.44664
1.44544
1.44472
1.44457
1.44503
1.44616
1.44805
1.45066
1.45374
1.45598
1.44572
1.44427
1.44347
1.44328
1.44376
1.44495
1.44701
1.45001
1.45397
1.45772
1.44402
1.44245
1.44163
1.44148
1.44201
1.44326
1.44541
1.44863
1.45306
1.4583
1.43681
1.43688
1.4369
1.4369
1.43692
1.43696
1.43699
1.43697
1.43676
1.43606
1.43785
1.43829
1.43858
1.43873
1.4388
1.43877
1.4385
1.43778
1.43657
1.43522
1.43994
1.4402
1.44038
1.44049
1.44059
1.44067
1.4406
1.44013
1.43909
1.43779
1.44112
1.44113
1.44109
1.44111
1.44126
1.44154
1.44183
1.44185
1.44122
1.44008
1.44216
1.44187
1.44165
1.44161
1.44183
1.4423
1.44295
1.44351
1.44345
1.44264
1.44306
1.44253
1.44215
1.44208
1.44237
1.44303
1.44401
1.44511
1.44575
1.44545
1.4427
1.4419
1.44142
1.44131
1.44166
1.44248
1.44375
1.44533
1.44669
1.4471
1.44386
1.4429
1.44233
1.44223
1.44264
1.44359
1.44511
1.44711
1.44922
1.45041
1.44282
1.44163
1.44098
1.44085
1.44129
1.44231
1.44401
1.44637
1.44925
1.45168
1.44123
1.43994
1.43927
1.43916
1.43963
1.44071
1.4425
1.44505
1.44833
1.45195
1.43594
1.436
1.43602
1.43602
1.43603
1.43605
1.43606
1.43603
1.43583
1.4352
1.43656
1.43704
1.43733
1.43747
1.43751
1.43744
1.43713
1.43636
1.43505
1.43351
1.43822
1.43856
1.43878
1.43889
1.43895
1.43897
1.4388
1.43821
1.43701
1.43545
1.4389
1.43902
1.43905
1.43908
1.43918
1.43936
1.43949
1.43932
1.43846
1.43702
1.43965
1.43951
1.43938
1.43937
1.43952
1.43986
1.44028
1.44057
1.44019
1.43902
1.44028
1.43993
1.43967
1.43963
1.43985
1.44035
1.44105
1.44178
1.44198
1.44123
1.43976
1.43918
1.43882
1.43875
1.43904
1.43967
1.44062
1.44176
1.44253
1.44237
1.44087
1.44015
1.43971
1.43964
1.43999
1.44075
1.44192
1.44341
1.4448
1.44526
1.43974
1.43879
1.43829
1.4382
1.43858
1.43942
1.44076
1.44255
1.44457
1.44608
1.43831
1.43728
1.43674
1.43667
1.43707
1.43796
1.43939
1.44134
1.44369
1.44614
1.43437
1.43443
1.43445
1.43445
1.43445
1.43446
1.43446
1.43442
1.43424
1.43368
1.43463
1.43512
1.43541
1.43553
1.43555
1.43546
1.43514
1.43435
1.43297
1.43127
1.43598
1.43637
1.43661
1.43671
1.43675
1.43672
1.4365
1.43585
1.43454
1.43277
1.43628
1.43646
1.43653
1.43656
1.43663
1.43673
1.43676
1.43648
1.43549
1.43383
1.43683
1.4368
1.43674
1.43674
1.43685
1.43707
1.43733
1.43743
1.43686
1.43546
1.43728
1.43707
1.4369
1.43688
1.43705
1.4374
1.43788
1.43834
1.43826
1.43724
1.43667
1.43626
1.43601
1.43597
1.43619
1.43666
1.43734
1.43812
1.43851
1.43799
1.43779
1.43726
1.43693
1.4369
1.43717
1.43775
1.43863
1.43968
1.44056
1.44056
1.43657
1.43584
1.43545
1.4354
1.4357
1.43637
1.43738
1.43869
1.44008
1.44097
1.43534
1.43454
1.43412
1.43408
1.43441
1.43512
1.43621
1.43765
1.43929
1.44092
1.43232
1.43236
1.43238
1.43238
1.43238
1.43238
1.43238
1.43234
1.43218
1.4317
1.43227
1.43275
1.43302
1.43312
1.43313
1.43303
1.43272
1.43195
1.43054
1.42868
1.43343
1.43384
1.43407
1.43416
1.43418
1.43412
1.43389
1.43324
1.43188
1.42993
1.43341
1.43363
1.43371
1.43375
1.43379
1.43383
1.4338
1.43348
1.43244
1.43065
1.43387
1.4339
1.43389
1.43389
1.43397
1.4341
1.43425
1.43423
1.43358
1.43205
1.4342
1.43409
1.43398
1.43397
1.43409
1.43433
1.43465
1.43491
1.43468
1.43352
1.43354
1.43326
1.43309
1.43307
1.43323
1.43357
1.43404
1.43455
1.43469
1.43398
1.4347
1.43433
1.43409
1.43407
1.43428
1.43471
1.43534
1.43606
1.4366
1.43632
1.43338
1.43283
1.43255
1.43252
1.43276
1.43326
1.434
1.43492
1.43585
1.43634
1.4324
1.4318
1.4315
1.43147
1.43173
1.43227
1.43307
1.43409
1.43521
1.43628
1.42999
1.43003
1.43004
1.43004
1.43004
1.43004
1.43003
1.43
1.42987
1.42946
1.42967
1.43012
1.43037
1.43046
1.43046
1.43037
1.43007
1.42935
1.42795
1.42597
1.43075
1.43115
1.43136
1.43144
1.43145
1.43138
1.43116
1.43054
1.4292
1.42714
1.43047
1.43069
1.43078
1.43082
1.43084
1.43085
1.43079
1.43047
1.42946
1.4276
1.43088
1.43096
1.43097
1.43098
1.43103
1.43111
1.43118
1.4311
1.43045
1.42889
1.43113
1.43108
1.43103
1.43103
1.43111
1.43127
1.43146
1.4316
1.43131
1.43012
1.43045
1.43028
1.43017
1.43016
1.43028
1.4305
1.43082
1.43114
1.43114
1.43037
1.43168
1.43144
1.43128
1.43127
1.43143
1.43173
1.43216
1.43264
1.43295
1.43255
1.43026
1.42986
1.42967
1.42965
1.42983
1.43018
1.43071
1.43133
1.43194
1.43218
1.42959
1.42916
1.42894
1.42893
1.42912
1.42951
1.43008
1.43078
1.43153
1.43221
1.42763
1.42765
1.42766
1.42766
1.42766
1.42765
1.42764
1.42761
1.42751
1.42718
1.42704
1.42745
1.42766
1.42773
1.42773
1.42765
1.42739
1.42675
1.42541
1.42333
1.42813
1.42849
1.42867
1.42874
1.42874
1.42868
1.42848
1.42794
1.42669
1.42456
1.42762
1.42781
1.4279
1.42793
1.42795
1.42794
1.42787
1.42758
1.42667
1.42483
1.42801
1.42809
1.42812
1.42814
1.42817
1.42821
1.42823
1.42814
1.42755
1.42605
1.42818
1.42818
1.42815
1.42816
1.42821
1.42831
1.42843
1.4285
1.42821
1.42709
1.42751
1.42741
1.42735
1.42735
1.42743
1.42758
1.42778
1.42797
1.42791
1.42718
1.42883
1.42867
1.42857
1.42858
1.42868
1.42889
1.42918
1.42948
1.42966
1.42924
1.42726
1.42699
1.42686
1.42685
1.42698
1.42722
1.42758
1.42798
1.42837
1.42848
1.42697
1.42668
1.42653
1.42652
1.42666
1.42694
1.42733
1.42779
1.42827
1.4287
1.42544
1.42545
1.42546
1.42546
1.42545
1.42545
1.42544
1.42542
1.42534
1.42508
1.42455
1.42489
1.42507
1.42512
1.42512
1.42505
1.42484
1.42431
1.42309
1.42098
1.42572
1.42602
1.42617
1.42623
1.42623
1.42618
1.42602
1.42557
1.42447
1.42237
1.42496
1.42513
1.42521
1.42524
1.42525
1.42524
1.42517
1.42494
1.42417
1.42245
1.42533
1.42542
1.42545
1.42547
1.42549
1.42551
1.42551
1.42542
1.42495
1.42361
1.42543
1.42545
1.42544
1.42546
1.42549
1.42555
1.42562
1.42564
1.42541
1.42445
1.42478
1.42473
1.4247
1.42471
1.42477
1.42486
1.42498
1.42508
1.42501
1.42439
1.42617
1.42608
1.42603
1.42603
1.42611
1.42625
1.42643
1.42662
1.42673
1.42635
1.42443
1.42424
1.42417
1.42417
1.42426
1.42442
1.42465
1.4249
1.42514
1.42519
1.42464
1.42445
1.42435
1.42435
1.42445
1.42464
1.4249
1.42519
1.4255
1.42576
1.42371
1.42371
1.42372
1.42372
1.42372
1.42371
1.4237
1.42368
1.42363
1.42344
1.42233
1.42261
1.42274
1.42278
1.42277
1.42272
1.42258
1.42217
1.42115
1.41911
1.42364
1.42387
1.42399
1.42403
1.42403
1.424
1.42388
1.42356
1.42267
1.42073
1.42263
1.42276
1.42283
1.42286
1.42287
1.42286
1.42281
1.42264
1.42207
1.42058
1.42293
1.423
1.42304
1.42306
1.42308
1.42309
1.42308
1.42301
1.42268
1.42159
1.42291
1.42293
1.42295
1.42297
1.423
1.42303
1.42307
1.42307
1.42292
1.42218
1.42229
1.42228
1.42228
1.42229
1.42234
1.4224
1.42247
1.42251
1.42246
1.42199
1.4237
1.42365
1.42362
1.42364
1.42369
1.42378
1.4239
1.42401
1.42409
1.42381
1.42174
1.42162
1.42158
1.42159
1.42165
1.42176
1.42191
1.42206
1.4222
1.42223
1.4227
1.42258
1.42252
1.42253
1.4226
1.42272
1.42289
1.42308
1.42327
1.42342
1.42287
1.42286
1.42287
1.42287
1.42287
1.42286
1.42285
1.42283
1.42279
1.42267
1.4205
1.42069
1.42079
1.42083
1.42083
1.42081
1.42072
1.42046
1.41971
1.41793
1.42196
1.42212
1.4222
1.42224
1.42225
1.42224
1.42218
1.42199
1.42139
1.4198
1.42072
1.42082
1.42088
1.42092
1.42094
1.42095
1.42093
1.42083
1.42047
1.41935
1.42086
1.42091
1.42095
1.42097
1.421
1.42102
1.42104
1.42101
1.42082
1.42006
1.42067
1.42069
1.42071
1.42073
1.42077
1.42081
1.42084
1.42086
1.42078
1.4203
1.42006
1.42006
1.42008
1.4201
1.42014
1.42019
1.42025
1.42028
1.42025
1.41994
1.4213
1.42126
1.42125
1.42126
1.42131
1.42138
1.42147
1.42155
1.42163
1.42146
1.41911
1.41904
1.41902
1.41903
1.41909
1.41917
1.41927
1.41936
1.41944
1.41947
1.42135
1.42127
1.42123
1.42124
1.4213
1.42139
1.42151
1.42164
1.42178
1.42186
1.4233
1.42329
1.4233
1.4233
1.42331
1.42331
1.42332
1.42332
1.4233
1.42324
1.41907
1.41918
1.41924
1.41928
1.41931
1.41935
1.41936
1.41929
1.4189
1.41764
1.42072
1.42078
1.42081
1.42084
1.42088
1.42093
1.42098
1.42098
1.42076
1.41977
1.41941
1.41945
1.41949
1.41953
1.41957
1.41963
1.41969
1.41973
1.41963
1.419
1.41926
1.41927
1.41929
1.41932
1.41936
1.41942
1.4195
1.41957
1.41957
1.41921
1.41884
1.41883
1.41884
1.41887
1.41892
1.41898
1.41906
1.41914
1.41918
1.41898
1.41818
1.41818
1.41819
1.41821
1.41826
1.41833
1.41841
1.41848
1.41853
1.4184
1.41887
1.41882
1.4188
1.41882
1.41886
1.41894
1.41904
1.41914
1.41926
1.41923
1.41644
1.4164
1.41639
1.41641
1.41645
1.41653
1.41662
1.41672
1.41679
1.41681
1.42085
1.42079
1.42076
1.42076
1.42081
1.4209
1.421
1.42112
1.42125
1.42132
1.42444
1.42441
1.42439
1.42438
1.4244
1.42443
1.42448
1.42454
1.42462
1.42469
1.41825
1.4182
1.41818
1.41819
1.41826
1.41837
1.41854
1.41875
1.41898
1.4189
1.4201
1.41996
1.41989
1.41989
1.41995
1.42008
1.42028
1.42056
1.42092
1.42115
1.41885
1.41876
1.41872
1.41873
1.4188
1.41892
1.41909
1.41934
1.41965
1.41994
1.41832
1.41823
1.41819
1.4182
1.41825
1.41836
1.41853
1.41876
1.41905
1.41937
1.41763
1.41755
1.41752
1.41752
1.41758
1.41768
1.41783
1.41804
1.4183
1.41859
1.41686
1.41679
1.41676
1.41677
1.41683
1.41692
1.41706
1.41724
1.41745
1.41768
1.41673
1.41663
1.41659
1.41659
1.41664
1.41674
1.41688
1.41705
1.41728
1.41753
1.41403
1.41399
1.41396
1.41397
1.41402
1.4141
1.41423
1.41436
1.4145
1.41457
1.42081
1.42073
1.42069
1.42069
1.42074
1.42083
1.42095
1.4211
1.42126
1.42137
1.49546
1.50134
1.49894
1.49365
1.52475
1.53176
1.5265
1.51856
1.55434
1.56129
1.55472
1.54429
1.58178
1.58826
1.58139
1.56857
1.60506
1.61056
1.60367
1.58861
1.62391
1.62816
1.62165
1.60461
1.63669
1.63939
1.63342
1.61468
1.64665
1.64767
1.64245
1.6223
1.64489
1.6442
1.63976
1.61879
1.64126
1.63955
1.63632
1.61516
1.41751
1.41699
1.41749
1.41874
1.43428
1.43554
1.43596
1.43508
1.45931
1.46205
1.46287
1.4612
1.48642
1.49066
1.49178
1.48924
1.51236
1.51792
1.51923
1.51589
1.53616
1.54281
1.5443
1.54042
1.55504
1.56252
1.56421
1.56009
1.57195
1.58001
1.58197
1.57795
1.57892
1.58747
1.58979
1.58618
1.58436
1.59381
1.59627
1.59281
1.42602
1.42619
1.42635
1.42655
1.43494
1.43601
1.43615
1.43589
1.45327
1.45517
1.45561
1.45534
1.47384
1.47669
1.47749
1.47715
1.49385
1.49765
1.49879
1.49827
1.51286
1.51758
1.51901
1.51822
1.52819
1.53373
1.5354
1.53433
1.54279
1.54901
1.55094
1.54957
1.54903
1.55581
1.55806
1.55639
1.55393
1.56172
1.5641
1.56148
1.42494
1.42465
1.42466
1.42492
1.43011
1.43019
1.43017
1.43025
1.44418
1.44488
1.44515
1.44528
1.46061
1.46202
1.46263
1.46278
1.47666
1.47882
1.47976
1.47986
1.49209
1.49499
1.49625
1.49626
1.50441
1.50801
1.50956
1.50947
1.51666
1.52089
1.52271
1.5225
1.52165
1.52636
1.52854
1.52826
1.52556
1.53128
1.53371
1.53289
1.42794
1.42766
1.42762
1.4278
1.43213
1.43217
1.43218
1.43222
1.44258
1.44307
1.44334
1.44347
1.45489
1.45586
1.45638
1.45658
1.46708
1.46852
1.46926
1.46949
1.47906
1.48099
1.48195
1.48219
1.48844
1.49083
1.49202
1.49228
1.4983
1.50112
1.50257
1.50284
1.50224
1.50537
1.50716
1.50757
1.50571
1.50968
1.51176
1.51186
1.4307
1.43042
1.43036
1.43051
1.43406
1.43407
1.43408
1.43409
1.44226
1.44258
1.4428
1.44291
1.45139
1.45203
1.45245
1.45264
1.46037
1.46132
1.4619
1.46215
1.46945
1.47071
1.47144
1.47173
1.4764
1.47796
1.47886
1.4792
1.48429
1.48614
1.48722
1.48763
1.48754
1.48956
1.49092
1.49155
1.4905
1.4932
1.49479
1.49517
1.43318
1.43292
1.43286
1.43298
1.43566
1.4357
1.43573
1.4357
1.44212
1.4424
1.4426
1.44266
1.44888
1.44936
1.44969
1.44981
1.45542
1.45606
1.4565
1.45667
1.46214
1.46296
1.4635
1.46373
1.46711
1.46811
1.46876
1.46906
1.47338
1.47457
1.47534
1.47573
1.47615
1.47743
1.4784
1.47902
1.47852
1.48036
1.48147
1.48184
1.43494
1.4347
1.43464
1.43474
1.43636
1.43642
1.43644
1.43641
1.44135
1.44158
1.44175
1.44178
1.44627
1.44662
1.44688
1.44695
1.45105
1.45147
1.45179
1.4519
1.45604
1.45655
1.45691
1.45707
1.45953
1.46012
1.46056
1.46079
1.46456
1.46527
1.46579
1.46611
1.46687
1.46765
1.46831
1.46882
1.46865
1.46993
1.47067
1.47092
1.43583
1.43562
1.43557
1.43566
1.43616
1.43621
1.43624
1.4362
1.43991
1.44009
1.44023
1.44025
1.44339
1.44364
1.44383
1.44388
1.44688
1.44715
1.44736
1.44743
1.45062
1.45091
1.45114
1.45125
1.45303
1.45336
1.45363
1.4538
1.45715
1.45754
1.45787
1.45812
1.45898
1.45942
1.45986
1.46026
1.46027
1.46119
1.46168
1.46181
1.43584
1.43566
1.43561
1.43569
1.43507
1.4351
1.43512
1.43509
1.43783
1.43795
1.43805
1.43807
1.44022
1.44036
1.4405
1.44054
1.44278
1.44291
1.44305
1.4431
1.44561
1.44573
1.44587
1.44595
1.44724
1.44737
1.44753
1.44768
1.4507
1.45087
1.45106
1.45128
1.45208
1.45231
1.4526
1.45292
1.45302
1.45372
1.45404
1.45407
1.43504
1.43487
1.43482
1.43491
1.43322
1.43321
1.43321
1.43319
1.43523
1.43527
1.43534
1.43537
1.43682
1.43686
1.43694
1.43698
1.43875
1.43876
1.43882
1.43888
1.44092
1.44092
1.44097
1.44106
1.44199
1.44198
1.44205
1.44219
1.44498
1.44499
1.44509
1.44529
1.446
1.44608
1.44626
1.44653
1.44671
1.44725
1.44746
1.44742
1.43357
1.4334
1.43336
1.43345
1.43078
1.43071
1.4307
1.4307
1.43227
1.43223
1.43225
1.43229
1.43329
1.43323
1.43325
1.4333
1.43482
1.43472
1.43472
1.43479
1.43654
1.43642
1.43642
1.43652
1.43721
1.43708
1.43709
1.43724
1.43988
1.43978
1.43983
1.44002
1.4406
1.44059
1.44071
1.44094
1.44118
1.44162
1.44176
1.44167
1.43161
1.43146
1.43142
1.43151
1.42795
1.42782
1.42778
1.4278
1.42914
1.429
1.42898
1.42903
1.42976
1.42959
1.42956
1.42964
1.43107
1.43087
1.43081
1.43091
1.43249
1.43227
1.43222
1.43235
1.43289
1.43267
1.43264
1.43281
1.43539
1.4352
1.4352
1.43541
1.43583
1.43577
1.43583
1.43604
1.43636
1.43673
1.43682
1.43671
1.42939
1.42924
1.42921
1.4293
1.42497
1.42475
1.42469
1.42474
1.42602
1.42578
1.42571
1.42578
1.42638
1.4261
1.42602
1.42612
1.42759
1.42729
1.42719
1.42732
1.42882
1.42851
1.42843
1.42859
1.42906
1.42876
1.42871
1.42891
1.43146
1.43122
1.4312
1.43142
1.43164
1.43154
1.43158
1.43177
1.43219
1.43251
1.43256
1.43244
1.42713
1.42698
1.42695
1.42705
1.42203
1.42173
1.42163
1.42172
1.42311
1.42277
1.42265
1.42275
1.42328
1.42291
1.42278
1.42291
1.42448
1.42409
1.42396
1.42413
1.42559
1.42522
1.42511
1.42531
1.42574
1.4254
1.42532
1.42555
1.42811
1.42784
1.4278
1.42803
1.42797
1.42786
1.42788
1.42804
1.42863
1.4289
1.42894
1.42881
1.42506
1.42491
1.42488
1.42497
1.41935
1.41896
1.41883
1.41896
1.4206
1.42015
1.41999
1.42013
1.42062
1.42015
1.41999
1.42017
1.42184
1.42138
1.42124
1.42145
1.42286
1.42244
1.42233
1.42256
1.42296
1.42259
1.42251
1.42275
1.42531
1.42502
1.42498
1.42521
1.42477
1.42466
1.42466
1.42481
1.42567
1.42589
1.42591
1.42579
1.42344
1.42329
1.42327
1.42336
1.41716
1.41667
1.4165
1.41668
1.41868
1.41814
1.41794
1.41812
1.41855
1.41802
1.41783
1.41806
1.41977
1.41928
1.41913
1.41937
1.42065
1.42023
1.42012
1.42037
1.42069
1.42033
1.42025
1.42049
1.42296
1.4227
1.42265
1.42286
1.42194
1.42184
1.42183
1.42194
1.42332
1.4235
1.42351
1.42341
1.4227
1.42256
1.42254
1.42262
1.4157
1.41512
1.41493
1.41516
1.41759
1.41698
1.41677
1.417
1.41731
1.41674
1.41656
1.41682
1.41839
1.41791
1.41777
1.41803
1.41901
1.41862
1.41852
1.41876
1.41892
1.4186
1.41853
1.41874
1.42091
1.4207
1.42065
1.42082
1.41931
1.41923
1.41922
1.41929
1.42178
1.42191
1.42192
1.42184
1.4233
1.42319
1.42317
1.42324
1.41537
1.41476
1.41455
1.41483
1.41773
1.41714
1.41694
1.41721
1.41726
1.41675
1.41659
1.41686
1.41793
1.41751
1.4174
1.41765
1.41808
1.41777
1.41769
1.41789
1.41772
1.41746
1.4174
1.41757
1.419
1.41886
1.41882
1.41893
1.4167
1.41663
1.41661
1.41666
1.42133
1.42142
1.42143
1.42137
1.42481
1.42475
1.42475
1.42479
1.41729
1.41679
1.41664
1.41689
1.42009
1.4197
1.41958
1.41982
1.41917
1.41886
1.41877
1.41896
1.41898
1.41876
1.4187
1.41885
1.41842
1.41827
1.41823
1.41833
1.41758
1.41747
1.41743
1.41751
1.41774
1.41771
1.41769
1.41772
1.41441
1.41433
1.41431
1.41436
1.4216
1.42167
1.42167
1.42162
1.462
1.44234
1.42546
1.41424
1.40756
1.4033
1.40044
1.39847
1.39714
1.39629
1.47275
1.44451
1.42364
1.41251
1.40622
1.40256
1.40029
1.39883
1.39799
1.39761
1.48606
1.45559
1.43302
1.42317
1.41721
1.41367
1.41124
1.40949
1.40834
1.40768
1.49919
1.4688
1.44624
1.43771
1.43199
1.42853
1.42588
1.4238
1.42218
1.42083
1.51038
1.48193
1.45951
1.45225
1.44636
1.4427
1.43955
1.43695
1.43476
1.43284
1.51998
1.49463
1.47215
1.46596
1.45951
1.45545
1.45163
1.44844
1.44566
1.44314
1.5255
1.50375
1.48083
1.47552
1.46824
1.46368
1.45914
1.45539
1.45216
1.4494
1.53068
1.51233
1.48875
1.48413
1.47582
1.47073
1.46542
1.46116
1.45751
1.45444
1.52912
1.51303
1.48964
1.48599
1.47721
1.47204
1.46637
1.46186
1.45802
1.4549
1.53193
1.51577
1.49267
1.48869
1.47886
1.47291
1.46644
1.46133
1.45698
1.45331
1.42263
1.42152
1.41943
1.41711
1.41471
1.41248
1.41052
1.40888
1.40756
1.40664
1.43265
1.42842
1.42357
1.41938
1.41604
1.4135
1.41158
1.41009
1.40899
1.40826
1.45447
1.44656
1.43867
1.43264
1.42807
1.42474
1.42219
1.42018
1.41864
1.41757
1.47658
1.46565
1.45518
1.44791
1.44246
1.43851
1.4354
1.43287
1.43081
1.4291
1.49623
1.48308
1.47035
1.46217
1.45585
1.45122
1.44744
1.4443
1.44165
1.43942
1.51324
1.49885
1.4841
1.47521
1.46798
1.46263
1.45811
1.45433
1.45111
1.44832
1.52522
1.51033
1.49368
1.48423
1.47602
1.46995
1.46469
1.46033
1.45662
1.45357
1.5357
1.52083
1.50245
1.49254
1.48334
1.47656
1.47057
1.46564
1.46151
1.45811
1.53853
1.52346
1.50449
1.49477
1.48516
1.47809
1.47171
1.46648
1.46208
1.45856
1.54301
1.52738
1.5077
1.49732
1.48678
1.47894
1.47187
1.46607
1.46123
1.45716
1.42658
1.42576
1.42432
1.42261
1.42087
1.41923
1.41776
1.41651
1.4155
1.41479
1.43452
1.43154
1.42799
1.42506
1.4228
1.42102
1.41958
1.41839
1.41744
1.41675
1.45281
1.44748
1.44166
1.43719
1.43384
1.43125
1.42914
1.4274
1.42599
1.42494
1.47302
1.46513
1.45706
1.45116
1.44673
1.4433
1.44049
1.43816
1.43622
1.43458
1.492
1.4815
1.47122
1.46395
1.4584
1.45408
1.45053
1.44757
1.44509
1.44301
1.50936
1.49646
1.48404
1.47554
1.46887
1.46369
1.45941
1.45585
1.45286
1.45032
1.52251
1.5074
1.49291
1.48331
1.47556
1.46961
1.46465
1.46057
1.45716
1.4544
1.53457
1.51752
1.50115
1.49067
1.48194
1.4753
1.46971
1.46513
1.46137
1.4583
1.53904
1.52027
1.50326
1.49273
1.48366
1.47672
1.47076
1.46587
1.46183
1.45862
1.54349
1.52321
1.50553
1.49443
1.48464
1.47709
1.47058
1.46524
1.46083
1.45716
1.42551
1.42593
1.42589
1.42543
1.42473
1.42393
1.42313
1.4224
1.42178
1.42137
1.43051
1.43002
1.42917
1.4283
1.42744
1.42658
1.42573
1.42495
1.42426
1.42372
1.44504
1.44344
1.44133
1.43937
1.43759
1.43595
1.43445
1.43311
1.43195
1.431
1.46178
1.45878
1.45512
1.45186
1.44897
1.44641
1.44415
1.44217
1.44047
1.43897
1.47785
1.47324
1.46784
1.46316
1.45907
1.45554
1.45249
1.44987
1.44764
1.44574
1.49304
1.48675
1.4795
1.47342
1.46813
1.46367
1.45987
1.45665
1.45395
1.45163
1.50484
1.49679
1.48761
1.4802
1.47378
1.46849
1.46402
1.4603
1.4572
1.45469
1.51628
1.50648
1.49547
1.4869
1.47947
1.47346
1.46839
1.4642
1.46077
1.45798
1.5211
1.50988
1.49799
1.48895
1.48105
1.47465
1.46921
1.46472
1.46102
1.45808
1.52586
1.51278
1.49983
1.49001
1.48147
1.47457
1.46871
1.46386
1.45987
1.45654
1.42821
1.42874
1.42895
1.42884
1.42852
1.4281
1.42766
1.42724
1.4269
1.4267
1.43236
1.43227
1.43204
1.43178
1.43144
1.43101
1.43052
1.43003
1.42959
1.42921
1.44343
1.44286
1.44206
1.44119
1.44025
1.43925
1.43823
1.43725
1.43637
1.43558
1.45625
1.45499
1.45334
1.45159
1.44979
1.448
1.4463
1.44474
1.44335
1.44206
1.46877
1.46664
1.46388
1.46104
1.45822
1.45555
1.4531
1.45093
1.44904
1.4474
1.48099
1.47788
1.47384
1.46979
1.4659
1.46235
1.45918
1.45643
1.4541
1.45207
1.49055
1.48633
1.48083
1.47556
1.47061
1.46625
1.46244
1.45919
1.45647
1.45425
1.50047
1.49505
1.48806
1.48163
1.47573
1.47063
1.46625
1.46255
1.45951
1.45701
1.50516
1.49885
1.4909
1.48374
1.47721
1.47165
1.46687
1.46287
1.45955
1.45691
1.50966
1.50153
1.49235
1.48436
1.47725
1.47126
1.46613
1.46184
1.45828
1.45531
1.43085
1.43144
1.43179
1.43185
1.43174
1.43155
1.43132
1.4311
1.43094
1.43089
1.43419
1.43423
1.4343
1.43436
1.43434
1.4342
1.43399
1.43375
1.43352
1.43331
1.44292
1.44275
1.44254
1.44225
1.44183
1.44127
1.44063
1.43998
1.43936
1.43876
1.45253
1.45205
1.45142
1.45059
1.44955
1.44838
1.44717
1.44601
1.44494
1.44391
1.46189
1.461
1.45976
1.4582
1.45638
1.45448
1.45262
1.45091
1.4494
1.44806
1.47128
1.46992
1.4679
1.46543
1.46275
1.46008
1.45757
1.45533
1.4534
1.4517
1.47861
1.47663
1.47364
1.47018
1.46659
1.46318
1.46007
1.45736
1.45505
1.45315
1.48684
1.48416
1.48009
1.47562
1.47116
1.46706
1.46341
1.46026
1.45765
1.45547
1.49113
1.48796
1.48294
1.47763
1.4725
1.4679
1.46386
1.4604
1.4575
1.45517
1.49486
1.49015
1.48399
1.47793
1.47227
1.46729
1.46296
1.45926
1.45615
1.45353
1.43324
1.43383
1.43421
1.43434
1.43432
1.43424
1.43412
1.43402
1.43396
1.43398
1.43568
1.43574
1.43593
1.43615
1.4363
1.43634
1.4363
1.43623
1.43617
1.4361
1.44256
1.44251
1.44256
1.44257
1.44245
1.44218
1.44182
1.44143
1.44104
1.44065
1.44965
1.44949
1.44935
1.44904
1.4485
1.44778
1.44696
1.44615
1.4454
1.44463
1.45646
1.45618
1.45576
1.45499
1.45389
1.45259
1.45124
1.44996
1.44882
1.44778
1.46349
1.46305
1.46221
1.46082
1.45905
1.45712
1.45522
1.45347
1.45195
1.45058
1.46887
1.46816
1.46672
1.46458
1.46208
1.45952
1.45709
1.4549
1.45302
1.45145
1.47558
1.47451
1.47231
1.46935
1.46612
1.46295
1.46003
1.45744
1.45526
1.45342
1.47934
1.47794
1.47487
1.47111
1.46724
1.46359
1.46029
1.45741
1.45494
1.45294
1.48218
1.47954
1.47552
1.47113
1.46681
1.46284
1.45929
1.45619
1.45355
1.45128
1.43494
1.43551
1.43588
1.43604
1.43607
1.43604
1.43598
1.43594
1.43594
1.436
1.43632
1.4364
1.43668
1.43701
1.43726
1.43742
1.4375
1.43757
1.43764
1.43767
1.44165
1.44168
1.44189
1.44208
1.44216
1.4421
1.44195
1.44176
1.44158
1.44136
1.44678
1.44681
1.44696
1.44698
1.44677
1.44637
1.44587
1.44536
1.44487
1.44434
1.45171
1.45177
1.45182
1.45155
1.45094
1.4501
1.44917
1.44826
1.44745
1.4467
1.45693
1.45701
1.45685
1.45616
1.45505
1.45371
1.45233
1.45102
1.44987
1.44881
1.46078
1.4608
1.46027
1.45903
1.45735
1.45549
1.45365
1.45196
1.45048
1.44923
1.46622
1.46609
1.46503
1.46315
1.46087
1.45852
1.45626
1.4542
1.45245
1.45093
1.46934
1.46891
1.46711
1.46454
1.46172
1.45894
1.45633
1.454
1.45196
1.4503
1.47141
1.46996
1.4674
1.46433
1.46114
1.45808
1.45527
1.45275
1.45057
1.44865
1.43579
1.43633
1.43669
1.43685
1.43689
1.43689
1.43687
1.43686
1.43689
1.43696
1.43608
1.4362
1.43655
1.43695
1.43727
1.43751
1.43768
1.43784
1.43801
1.43813
1.4401
1.44021
1.44054
1.44086
1.44108
1.44116
1.44116
1.44114
1.44111
1.44105
1.44372
1.44389
1.44424
1.44448
1.4445
1.44434
1.44407
1.44379
1.44353
1.4432
1.44729
1.44757
1.44791
1.44796
1.44769
1.44719
1.44658
1.44598
1.44545
1.44493
1.45118
1.45157
1.45181
1.45157
1.45092
1.45003
1.44906
1.44812
1.44729
1.44651
1.45389
1.45431
1.45431
1.45366
1.45257
1.45127
1.44993
1.44866
1.44754
1.44658
1.45835
1.45871
1.45833
1.45719
1.45564
1.45393
1.45224
1.45067
1.4493
1.44809
1.46079
1.46089
1.45988
1.45817
1.45617
1.45411