/*--------------------------------*- C++ -*----------------------------------*\
| =========                 |                                                 |
| \\      /  F ield         | foam-extend: Open Source CFD                    |
|  \\    /   O peration     | Version:     4.0                                |
|   \\  /    A nd           | Web:         http://www.foam-extend.org         |
|    \\/     M anipulation  |                                                 |
\*---------------------------------------------------------------------------*/
FoamFile
{
    version     2.0;
    format      ascii;
    class       volScalarField;
    location    "250";
    object      T;
}
// * * * * * * * * * * * * * * * * * * * * * * * * * * * * * * * * * * * * * //

dimensions      [0 0 0 1 0 0 0];

internalField   nonuniform List<scalar> 
34480
(
283.293
283.12
282.992
282.888
282.799
282.719
282.652
282.658
282.879
282.845
283.566
283.311
283.1
282.941
282.834
282.786
282.818
282.935
283.204
282.509
283.76
283.494
283.261
283.069
282.911
282.786
282.723
282.71
282.879
281.729
283.83
283.542
283.295
283.083
282.891
282.703
282.546
282.385
282.421
280.838
283.827
283.533
283.288
283.07
282.854
282.613
282.362
282.036
281.893
279.881
283.848
283.562
283.332
283.118
282.888
282.604
282.266
281.77
281.393
278.93
283.827
283.559
283.347
283.142
282.906
282.587
282.168
281.504
280.847
277.92
283.813
283.565
283.379
283.192
282.968
282.64
282.166
281.361
280.404
276.986
283.747
283.52
283.351
283.176
282.951
282.605
282.062
281.09
279.764
275.886
284.3
284.086
283.95
283.838
283.703
283.465
283.031
282.132
280.629
276.188
283.746
283.598
283.516
283.483
283.499
283.572
283.742
284.098
284.686
285.523
283.913
283.697
283.539
283.455
283.455
283.562
283.837
284.363
285.165
286.046
283.972
283.76
283.594
283.49
283.459
283.515
283.73
284.2
285.022
285.856
283.932
283.715
283.549
283.44
283.389
283.405
283.557
283.952
284.77
285.551
283.836
283.625
283.473
283.369
283.304
283.281
283.369
283.665
284.439
285.152
283.78
283.588
283.46
283.365
283.293
283.238
283.263
283.452
284.138
284.754
283.698
283.531
283.428
283.343
283.265
283.182
283.146
283.226
283.787
284.29
283.645
283.509
283.435
283.369
283.3
283.206
283.124
283.107
283.514
283.864
283.557
283.453
283.399
283.342
283.268
283.153
283.017
282.88
283.066
283.239
284.073
284.01
283.995
283.995
283.992
283.957
283.895
283.795
283.841
283.595
284.187
284.046
283.976
283.958
283.991
284.079
284.246
284.536
285.026
285.736
284.323
284.105
283.955
283.886
283.907
284.039
284.336
284.854
285.62
286.488
284.327
284.108
283.948
283.86
283.854
283.951
284.218
284.738
285.618
286.651
284.237
284.01
283.849
283.758
283.736
283.8
284.024
284.514
285.485
286.676
284.094
283.872
283.725
283.638
283.603
283.631
283.803
284.232
285.248
286.568
283.999
283.794
283.668
283.588
283.544
283.542
283.659
284.011
285.024
286.427
283.885
283.702
283.598
283.524
283.473
283.441
283.503
283.77
284.737
286.188
283.813
283.658
283.578
283.519
283.472
283.424
283.442
283.624
284.504
285.958
283.718
283.595
283.534
283.48
283.427
283.359
283.325
283.398
284.113
285.582
284.221
284.139
284.109
284.098
284.096
284.086
284.1
284.183
284.759
286.017
284.525
284.402
284.346
284.337
284.371
284.451
284.587
284.802
285.138
285.629
284.652
284.443
284.303
284.247
284.278
284.411
284.69
285.148
285.774
286.424
284.616
284.401
284.25
284.178
284.192
284.307
284.58
285.071
285.82
286.628
284.487
284.262
284.111
284.039
284.042
284.136
284.386
284.879
285.746
286.735
284.31
284.086
283.949
283.88
283.874
283.942
284.156
284.621
285.573
286.739
284.185
283.975
283.856
283.793
283.779
283.821
283.996
284.415
285.418
286.729
284.045
283.855
283.754
283.695
283.673
283.69
283.823
284.186
285.201
286.626
283.957
283.791
283.71
283.662
283.641
283.644
283.741
284.041
285.025
286.523
283.858
283.724
283.66
283.615
283.587
283.572
283.629
283.843
284.708
286.282
284.347
284.252
284.212
284.198
284.206
284.228
284.316
284.534
285.286
286.75
284.771
284.672
284.628
284.622
284.65
284.71
284.806
284.95
285.174
285.521
284.899
284.706
284.576
284.528
284.559
284.678
284.919
285.305
285.805
286.288
284.84
284.635
284.494
284.434
284.456
284.572
284.823
285.254
285.863
286.47
284.685
284.468
284.329
284.271
284.289
284.395
284.638
285.088
285.81
286.576
284.485
284.267
284.14
284.088
284.101
284.19
284.414
284.856
285.673
286.608
284.34
284.133
284.021
283.972
283.981
284.053
284.254
284.675
285.562
286.654
284.183
283.992
283.895
283.849
283.85
283.903
284.077
284.466
285.398
286.629
284.084
283.913
283.833
283.794
283.794
283.835
283.985
284.335
285.274
286.608
283.983
283.842
283.776
283.74
283.733
283.758
283.879
284.171
285.033
286.465
284.458
284.355
284.307
284.292
284.309
284.359
284.498
284.794
285.577
286.959
284.945
284.867
284.833
284.829
284.849
284.89
284.954
285.05
285.207
285.48
285.071
284.895
284.776
284.732
284.757
284.857
285.06
285.386
285.803
286.192
284.999
284.807
284.678
284.626
284.649
284.754
284.974
285.342
285.843
286.322
284.829
284.625
284.498
284.452
284.477
284.58
284.8
285.19
285.782
286.384
284.617
284.412
284.297
284.256
284.281
284.377
284.588
284.981
285.653
286.394
284.461
284.263
284.16
284.124
284.147
284.234
284.437
284.824
285.563
286.442
284.296
284.11
284.019
283.984
284.001
284.077
284.266
284.641
285.434
286.441
284.191
284.022
283.944
283.914
283.93
283.998
284.174
284.53
285.346
286.456
284.09
283.948
283.883
283.854
283.864
283.92
284.077
284.398
285.168
286.364
284.552
284.445
284.393
284.379
284.405
284.476
284.645
284.973
285.692
286.852
285.06
284.999
284.974
284.97
284.983
285.009
285.051
285.116
285.232
285.462
285.178
285.016
284.908
284.866
284.883
284.964
285.133
285.414
285.779
286.117
285.098
284.921
284.803
284.756
284.776
284.866
285.052
285.366
285.792
286.195
284.92
284.733
284.62
284.582
284.608
284.7
284.888
285.218
285.709
286.206
284.706
284.518
284.416
284.385
284.414
284.506
284.692
285.026
285.573
286.178
284.548
284.365
284.273
284.247
284.276
284.367
284.554
284.891
285.49
286.203
284.381
284.207
284.124
284.098
284.125
284.211
284.396
284.733
285.379
286.197
284.276
284.115
284.041
284.019
284.046
284.128
284.31
284.642
285.316
286.219
284.178
284.041
283.978
283.956
283.979
284.053
284.225
284.54
285.184
286.144
284.628
284.522
284.469
284.457
284.49
284.574
284.755
285.079
285.694
286.605
285.127
285.079
285.06
285.057
285.064
285.081
285.108
285.154
285.245
285.445
285.229
285.08
284.979
284.939
284.95
285.014
285.156
285.404
285.738
286.054
285.145
284.982
284.874
284.831
284.846
284.92
285.075
285.346
285.722
286.087
284.964
284.795
284.695
284.663
284.686
284.764
284.919
285.195
285.612
286.047
284.755
284.588
284.5
284.476
284.504
284.585
284.741
285.016
285.465
285.98
284.602
284.439
284.358
284.339
284.37
284.456
284.618
284.897
285.379
285.974
284.44
284.282
284.208
284.19
284.221
284.307
284.474
284.761
285.277
285.949
284.339
284.191
284.124
284.108
284.141
284.227
284.399
284.691
285.228
285.961
284.247
284.118
284.06
284.044
284.074
284.157
284.326
284.613
285.127
285.88
284.686
284.585
284.534
284.524
284.561
284.651
284.828
285.125
285.625
286.307
285.153
285.115
285.101
285.098
285.103
285.113
285.131
285.164
285.239
285.416
285.233
285.093
285
284.961
284.967
285.018
285.139
285.363
285.678
285.989
285.147
284.997
284.898
284.859
284.868
284.927
285.057
285.293
285.637
285.986
284.967
284.817
284.73
284.703
284.721
284.782
284.907
285.138
285.501
285.903
284.77
284.625
284.549
284.53
284.555
284.622
284.746
284.969
285.342
285.801
284.626
284.485
284.416
284.402
284.432
284.506
284.639
284.864
285.251
285.763
284.473
284.335
284.271
284.258
284.29
284.369
284.511
284.746
285.151
285.715
284.382
284.251
284.191
284.18
284.214
284.297
284.449
284.693
285.111
285.709
284.296
284.181
284.128
284.117
284.15
284.233
284.388
284.634
285.031
285.613
284.725
284.633
284.585
284.579
284.616
284.705
284.867
285.125
285.514
286.007
285.146
285.116
285.105
285.102
285.105
285.111
285.124
285.149
285.211
285.367
285.199
285.067
284.98
284.943
284.945
284.985
285.09
285.296
285.601
285.918
285.113
284.975
284.885
284.848
284.853
284.899
285.007
285.216
285.539
285.888
284.936
284.806
284.731
284.707
284.719
284.766
284.865
285.057
285.381
285.769
284.755
284.632
284.569
284.554
284.574
284.626
284.722
284.899
285.214
285.638
284.625
284.507
284.45
284.439
284.465
284.525
284.63
284.806
285.118
285.571
284.484
284.367
284.314
284.304
284.333
284.401
284.517
284.702
285.018
285.5
284.406
284.294
284.243
284.236
284.268
284.342
284.469
284.665
284.985
285.476
284.327
284.227
284.181
284.174
284.207
284.283
284.417
284.618
284.917
285.361
284.746
284.665
284.623
284.618
284.654
284.736
284.877
285.09
285.384
285.729
285.111
285.087
285.079
285.076
285.078
285.082
285.09
285.109
285.162
285.299
285.134
285.009
284.929
284.895
284.893
284.926
285.017
285.207
285.506
285.837
285.051
284.923
284.843
284.81
284.811
284.846
284.936
285.123
285.43
285.788
284.88
284.767
284.704
284.683
284.691
284.725
284.802
284.962
285.256
285.64
284.718
284.616
284.565
284.553
284.567
284.606
284.677
284.816
285.086
285.487
284.604
284.508
284.462
284.454
284.474
284.521
284.6
284.734
284.986
285.397
284.476
284.381
284.337
284.331
284.355
284.411
284.501
284.642
284.887
285.304
284.413
284.321
284.28
284.275
284.303
284.366
284.468
284.619
284.859
285.266
284.341
284.258
284.22
284.215
284.245
284.311
284.422
284.579
284.799
285.135
284.749
284.682
284.646
284.643
284.675
284.746
284.864
285.032
285.248
285.483
285.054
285.035
285.029
285.027
285.028
285.03
285.036
285.051
285.094
285.213
285.046
284.929
284.856
284.825
284.822
284.848
284.927
285.103
285.396
285.746
284.969
284.853
284.782
284.752
284.751
284.778
284.852
285.018
285.312
285.684
284.807
284.711
284.658
284.64
284.645
284.669
284.727
284.86
285.127
285.512
284.666
284.584
284.543
284.533
284.543
284.57
284.622
284.729
284.96
285.344
284.569
284.493
284.457
284.45
284.466
284.501
284.558
284.658
284.861
285.237
284.455
284.379
284.345
284.34
284.36
284.403
284.47
284.574
284.763
285.127
284.409
284.336
284.303
284.3
284.323
284.374
284.453
284.565
284.743
285.079
284.341
284.274
284.243
284.24
284.266
284.321
284.408
284.527
284.685
284.937
284.738
284.683
284.654
284.652
284.68
284.739
284.833
284.961
285.115
285.271
284.983
284.968
284.963
284.962
284.962
284.963
284.967
284.978
285.013
285.115
284.944
284.836
284.771
284.743
284.739
284.76
284.828
284.988
285.274
285.644
284.874
284.771
284.71
284.685
284.682
284.702
284.762
284.908
285.187
285.575
284.723
284.643
284.6
284.586
284.588
284.604
284.647
284.756
284.997
285.384
284.604
284.54
284.509
284.501
284.507
284.526
284.562
284.643
284.839
285.207
284.524
284.466
284.439
284.435
284.446
284.47
284.511
284.583
284.745
285.088
284.423
284.366
284.34
284.337
284.352
284.383
284.432
284.507
284.649
284.966
284.396
284.341
284.315
284.313
284.332
284.371
284.429
284.51
284.639
284.916
284.33
284.278
284.254
284.252
284.273
284.317
284.383
284.47
284.581
284.767
284.713
284.671
284.648
284.647
284.67
284.717
284.789
284.883
284.991
285.091
284.902
284.891
284.888
284.887
284.887
284.888
284.89
284.898
284.926
285.01
284.833
284.736
284.681
284.657
284.653
284.669
284.725
284.867
285.143
285.532
284.776
284.687
284.636
284.616
284.613
284.626
284.674
284.798
285.059
285.461
284.635
284.572
284.538
284.527
284.527
284.538
284.569
284.655
284.868
285.252
284.541
284.492
284.469
284.463
284.467
284.479
284.503
284.563
284.725
285.074
284.476
284.434
284.414
284.411
284.418
284.435
284.463
284.514
284.64
284.948
284.387
284.346
284.326
284.324
284.335
284.358
284.392
284.444
284.549
284.819
284.378
284.339
284.32
284.319
284.333
284.361
284.404
284.46
284.552
284.774
284.311
284.272
284.254
284.253
284.269
284.302
284.351
284.412
284.489
284.624
284.679
284.648
284.63
284.63
284.648
284.684
284.737
284.804
284.878
284.941
284.821
284.814
284.812
284.81
284.81
284.81
284.812
284.818
284.838
284.905
284.722
284.638
284.592
284.573
284.57
284.581
284.625
284.747
285.005
285.41
284.681
284.607
284.568
284.552
284.549
284.558
284.593
284.695
284.931
285.339
284.551
284.503
284.478
284.47
284.469
284.476
284.497
284.563
284.743
285.117
284.479
284.445
284.429
284.424
284.427
284.434
284.45
284.492
284.621
284.942
284.428
284.399
284.386
284.383
284.388
284.4
284.418
284.453
284.547
284.815
284.349
284.321
284.308
284.306
284.314
284.33
284.353
284.388
284.463
284.685
284.36
284.333
284.319
284.319
284.329
284.35
284.379
284.418
284.481
284.653
284.285
284.257
284.244
284.243
284.255
284.279
284.314
284.357
284.409
284.504
284.639
284.617
284.603
284.603
284.617
284.643
284.682
284.728
284.777
284.816
284.745
284.741
284.74
284.739
284.739
284.739
284.74
284.743
284.758
284.808
284.616
284.547
284.512
284.498
284.494
284.502
284.535
284.633
284.864
285.276
284.596
284.539
284.51
284.499
284.497
284.502
284.527
284.604
284.807
285.209
284.476
284.441
284.424
284.419
284.418
284.422
284.436
284.482
284.627
284.975
284.425
284.402
284.391
284.388
284.39
284.395
284.405
284.433
284.529
284.81
284.384
284.365
284.356
284.355
284.359
284.366
284.379
284.401
284.468
284.689
284.313
284.295
284.286
284.285
284.291
284.302
284.318
284.341
284.392
284.564
284.342
284.325
284.316
284.315
284.323
284.338
284.358
284.384
284.426
284.552
284.255
284.236
284.226
284.226
284.235
284.252
284.276
284.305
284.34
284.403
284.595
284.58
284.57
284.57
284.58
284.599
284.626
284.657
284.69
284.713
284.687
284.685
284.685
284.684
284.684
284.684
284.684
284.686
284.695
284.73
284.522
284.469
284.444
284.435
284.432
284.437
284.459
284.531
284.723
285.124
284.528
284.488
284.469
284.462
284.46
284.464
284.479
284.533
284.692
285.066
284.413
284.391
284.38
284.377
284.377
284.38
284.388
284.419
284.524
284.825
284.378
284.365
284.358
284.357
284.358
284.362
284.368
284.386
284.452
284.679
284.344
284.333
284.328
284.327
284.33
284.335
284.344
284.359
284.402
284.57
284.28
284.269
284.264
284.264
284.268
284.276
284.287
284.302
284.334
284.456
284.325
284.315
284.309
284.309
284.314
284.325
284.34
284.357
284.385
284.468
284.218
284.206
284.199
284.2
284.206
284.218
284.235
284.254
284.277
284.317
284.552
284.543
284.536
284.536
284.543
284.557
284.576
284.596
284.618
284.631
284.661
284.663
284.663
284.662
284.662
284.662
284.662
284.663
284.667
284.688
284.444
284.408
284.392
284.387
284.386
284.389
284.402
284.448
284.589
284.947
284.48
284.456
284.445
284.442
284.442
284.444
284.453
284.486
284.595
284.909
284.367
284.355
284.35
284.349
284.35
284.352
284.358
284.376
284.442
284.674
284.342
284.334
284.331
284.331
284.333
284.337
284.342
284.354
284.393
284.554
284.308
284.302
284.299
284.3
284.302
284.307
284.314
284.325
284.351
284.461
284.248
284.243
284.241
284.241
284.245
284.251
284.26
284.27
284.289
284.363
284.303
284.297
284.293
284.293
284.298
284.306
284.317
284.33
284.348
284.396
284.171
284.163
284.159
284.16
284.165
284.174
284.186
284.199
284.214
284.237
284.522
284.516
284.511
284.512
284.517
284.527
284.54
284.554
284.57
284.577
284.697
284.697
284.697
284.697
284.697
284.698
284.698
284.699
284.701
284.71
284.381
284.361
284.353
284.352
284.353
284.357
284.365
284.39
284.473
284.74
284.454
284.441
284.436
284.436
284.438
284.442
284.45
284.469
284.53
284.746
284.343
284.337
284.335
284.336
284.339
284.344
284.35
284.363
284.398
284.539
284.317
284.314
284.312
284.313
284.316
284.321
284.329
284.339
284.361
284.451
284.278
284.275
284.274
284.275
284.278
284.284
284.292
284.302
284.318
284.375
284.221
284.219
284.217
284.219
284.222
284.229
284.237
284.246
284.259
284.293
284.266
284.262
284.259
284.26
284.264
284.271
284.281
284.292
284.307
284.329
284.106
284.102
284.099
284.1
284.105
284.112
284.121
284.132
284.142
284.152
284.52
284.516
284.512
284.513
284.517
284.525
284.535
284.547
284.559
284.564
284.785
284.778
284.777
284.777
284.778
284.779
284.782
284.785
284.788
284.793
284.332
284.322
284.319
284.32
284.324
284.331
284.342
284.359
284.396
284.529
284.448
284.439
284.434
284.434
284.439
284.447
284.46
284.478
284.512
284.613
284.343
284.338
284.336
284.338
284.342
284.35
284.362
284.377
284.4
284.461
284.308
284.304
284.302
284.303
284.307
284.314
284.326
284.34
284.36
284.399
284.26
284.256
284.254
284.255
284.259
284.266
284.277
284.29
284.307
284.333
284.2
284.198
284.196
284.197
284.201
284.208
284.218
284.23
284.244
284.259
284.214
284.209
284.206
284.206
284.21
284.218
284.228
284.24
284.256
284.27
284.021
284.018
284.016
284.017
284.021
284.028
284.037
284.047
284.057
284.061
284.54
284.534
284.531
284.532
284.536
284.543
284.552
284.563
284.575
284.582
291.808
293.374
293.609
292.203
292.864
294.803
295.213
293.696
294.122
296.464
296.99
295.429
295.158
297.895
298.58
297.18
296.003
299.125
300.022
298.895
296.722
300.224
301.377
300.605
297.281
301.156
302.592
302.201
297.739
301.962
303.679
303.665
297.87
302.425
304.42
304.791
298.266
303.077
305.343
306.077
289.477
290.024
290.048
289.614
290.754
291.412
291.476
291.046
291.962
292.771
292.832
292.252
293.002
293.949
294.022
293.313
293.872
294.942
295.036
294.218
294.644
295.829
295.956
295.051
295.257
296.545
296.711
295.733
295.776
297.151
297.358
296.324
296.021
297.45
297.713
296.647
296.466
297.909
298.302
297.29
286.526
286.707
286.756
286.685
287.803
288.066
288.146
288.054
288.577
288.942
289.043
288.894
289.366
289.841
289.961
289.74
290.135
290.724
290.861
290.561
290.933
291.635
291.793
291.413
291.647
292.458
292.636
292.179
292.329
293.232
293.43
292.904
292.839
293.778
293.99
293.427
293.612
294.501
294.778
294.31
286.025
286.142
286.178
286.142
287.042
287.179
287.237
287.221
287.459
287.643
287.724
287.711
287.898
288.141
288.246
288.227
288.366
288.683
288.809
288.767
288.932
289.334
289.48
289.399
289.485
289.976
290.138
290.002
290.071
290.643
290.817
290.617
290.587
291.2
291.374
291.113
291.417
291.966
292.182
291.976
285.741
285.824
285.85
285.824
286.619
286.694
286.731
286.731
286.868
286.962
287.016
287.032
287.093
287.216
287.292
287.324
287.338
287.503
287.602
287.642
287.697
287.92
288.042
288.076
288.073
288.362
288.503
288.513
288.512
288.868
289.021
288.993
288.929
289.329
289.479
289.397
289.662
289.999
290.175
290.132
285.639
285.708
285.729
285.706
286.401
286.448
286.475
286.482
286.546
286.6
286.638
286.659
286.646
286.713
286.766
286.804
286.748
286.838
286.909
286.963
286.959
287.084
287.176
287.238
287.191
287.361
287.472
287.531
287.496
287.715
287.84
287.881
287.803
288.062
288.184
288.181
288.411
288.609
288.745
288.779
285.581
285.64
285.658
285.638
286.256
286.287
286.309
286.322
286.329
286.362
286.391
286.416
286.346
286.385
286.424
286.462
286.361
286.412
286.464
286.515
286.476
286.548
286.616
286.677
286.61
286.712
286.794
286.858
286.814
286.95
287.045
287.101
287.019
287.189
287.281
287.299
287.512
287.617
287.716
287.776
285.536
285.587
285.603
285.585
286.154
286.177
286.198
286.216
286.176
286.201
286.226
286.252
286.135
286.161
286.193
286.228
286.09
286.124
286.164
286.209
286.14
286.188
286.239
286.291
286.206
286.274
286.336
286.39
286.336
286.427
286.498
286.546
286.451
286.567
286.632
286.647
286.852
286.896
286.963
287.026
285.483
285.528
285.542
285.526
286.071
286.091
286.113
286.134
286.06
286.081
286.105
286.132
285.974
285.997
286.026
286.059
285.888
285.917
285.952
285.99
285.893
285.931
285.973
286.014
285.908
285.961
286.01
286.05
285.982
286.051
286.104
286.138
286.018
286.102
286.147
286.152
286.35
286.355
286.398
286.457
285.417
285.456
285.468
285.453
285.998
286.02
286.043
286.065
285.964
285.988
286.013
286.039
285.847
285.872
285.901
285.93
285.732
285.762
285.794
285.825
285.701
285.74
285.776
285.806
285.678
285.727
285.767
285.792
285.708
285.767
285.808
285.826
285.675
285.741
285.771
285.766
285.957
285.938
285.965
286.017
285.335
285.37
285.381
285.365
285.93
285.956
285.982
286.003
285.882
285.911
285.938
285.961
285.741
285.772
285.801
285.825
285.605
285.641
285.672
285.694
285.547
285.59
285.622
285.64
285.492
285.542
285.576
285.587
285.487
285.543
285.575
285.578
285.395
285.45
285.47
285.456
285.642
285.609
285.626
285.672
285.239
285.272
285.281
285.265
285.863
285.898
285.926
285.944
285.809
285.846
285.875
285.894
285.648
285.688
285.718
285.734
285.497
285.542
285.572
285.584
285.417
285.466
285.496
285.501
285.334
285.389
285.418
285.415
285.303
285.36
285.385
285.374
285.162
285.209
285.223
285.202
285.387
285.346
285.356
285.398
285.133
285.164
285.172
285.155
285.798
285.842
285.872
285.885
285.741
285.788
285.82
285.831
285.563
285.614
285.644
285.651
285.402
285.456
285.485
285.485
285.302
285.36
285.387
285.378
285.196
285.256
285.28
285.263
285.146
285.204
285.223
285.2
284.963
285.005
285.014
284.989
285.179
285.134
285.14
285.178
285.022
285.053
285.06
285.041
285.732
285.787
285.819
285.825
285.675
285.734
285.767
285.769
285.48
285.543
285.574
285.568
285.312
285.376
285.404
285.389
285.196
285.261
285.285
285.262
285.069
285.133
285.153
285.123
285.007
285.065
285.08
285.047
284.792
284.83
284.836
284.808
285.008
284.963
284.965
285.001
284.913
284.943
284.949
284.93
285.662
285.73
285.764
285.76
285.608
285.68
285.713
285.703
285.395
285.469
285.499
285.479
285.222
285.295
285.32
285.29
285.091
285.162
285.182
285.145
284.947
285.013
285.028
284.987
284.88
284.938
284.948
284.907
284.643
284.676
284.679
284.651
284.867
284.823
284.825
284.857
284.811
284.841
284.846
284.826
285.585
285.665
285.7
285.683
285.533
285.618
285.65
285.626
285.3
285.384
285.411
285.376
285.123
285.203
285.223
285.179
284.979
285.053
285.068
285.019
284.821
284.888
284.898
284.848
284.76
284.814
284.821
284.776
284.511
284.538
284.54
284.514
284.751
284.711
284.712
284.74
284.727
284.756
284.761
284.741
285.49
285.584
285.617
285.584
285.442
285.537
285.567
285.525
285.186
285.277
285.299
285.247
285.006
285.089
285.104
285.047
284.853
284.925
284.935
284.878
284.689
284.75
284.756
284.703
284.642
284.69
284.693
284.649
284.391
284.412
284.413
284.391
284.659
284.624
284.625
284.648
284.678
284.705
284.709
284.691
285.362
285.465
285.494
285.443
285.318
285.42
285.444
285.385
285.04
285.133
285.148
285.084
284.863
284.942
284.951
284.887
284.707
284.772
284.777
284.72
284.547
284.598
284.601
284.552
284.523
284.561
284.562
284.524
284.278
284.292
284.292
284.276
284.596
284.568
284.568
284.587
284.693
284.715
284.718
284.703
285.167
285.272
285.293
285.225
285.141
285.24
285.255
285.183
284.86
284.942
284.95
284.881
284.697
284.762
284.766
284.705
284.552
284.602
284.603
284.554
284.409
284.445
284.445
284.407
284.402
284.427
284.427
284.401
284.163
284.169
284.169
284.16
284.577
284.558
284.559
284.571
284.777
284.79
284.791
284.783
284.871
284.956
284.966
284.898
284.906
284.981
284.987
284.923
284.669
284.725
284.727
284.673
284.543
284.584
284.585
284.543
284.426
284.455
284.455
284.424
284.309
284.327
284.327
284.306
284.302
284.315
284.315
284.302
284.048
284.048
284.047
284.045
284.595
284.589
284.59
284.593
286.522
285.428
284.89
284.566
284.288
284.069
283.894
283.747
283.611
283.466
287.699
286.722
285.997
285.483
285.047
284.699
284.421
284.195
284.006
283.822
288.425
287.333
286.367
285.749
285.248
284.873
284.583
284.357
284.174
284.002
289.148
287.941
286.704
285.993
285.423
285.018
284.706
284.46
284.258
284.072
289.821
288.47
286.966
286.172
285.528
285.09
284.753
284.488
284.268
284.069
290.53
289.024
287.266
286.394
285.668
285.192
284.826
284.542
284.304
284.091
291.132
289.479
287.486
286.543
285.734
285.224
284.831
284.532
284.284
284.067
291.721
289.946
287.745
286.741
285.854
285.312
284.888
284.565
284.295
284.057
292.004
290.173
287.822
286.842
285.94
285.389
284.919
284.556
284.257
283.999
293.129
291.363
288.966
287.958
286.948
286.273
285.681
285.223
284.861
284.566
287.886
286.766
285.899
285.286
284.869
284.578
284.363
284.195
284.05
283.906
289.168
287.729
286.656
285.945
285.432
285.044
284.743
284.507
284.317
284.149
289.689
287.984
286.737
285.976
285.433
285.035
284.736
284.509
284.333
284.181
290.085
288.178
286.779
285.967
285.391
284.986
284.686
284.459
284.28
284.128
290.356
288.286
286.74
285.885
285.274
284.864
284.566
284.344
284.167
284.017
290.609
288.414
286.731
285.845
285.196
284.781
284.485
284.269
284.095
283.949
290.743
288.455
286.645
285.742
285.058
284.645
284.353
284.149
283.986
283.85
290.86
288.516
286.597
285.697
284.985
284.58
284.29
284.089
283.927
283.791
290.777
288.389
286.406
285.587
284.9
284.523
284.219
284.006
283.839
283.702
291.336
289.044
287.114
286.354
285.621
285.183
284.807
284.541
284.344
284.208
286.417
286.025
285.655
285.35
285.106
284.907
284.741
284.598
284.464
284.329
287.624
287.115
286.623
286.172
285.772
285.432
285.151
284.919
284.726
284.556
288.244
287.53
286.862
286.296
285.82
285.437
285.134
284.896
284.704
284.542
288.796
287.859
287.002
286.325
285.786
285.374
285.058
284.812
284.612
284.446
289.249
288.081
287.031
286.256
285.662
285.23
284.909
284.662
284.461
284.294
289.683
288.298
287.067
286.212
285.572
285.125
284.8
284.556
284.357
284.192
289.989
288.411
287.018
286.105
285.425
284.971
284.648
284.411
284.221
284.064
290.252
288.522
286.992
286.046
285.34
284.887
284.565
284.331
284.143
283.986
290.306
288.449
286.828
285.919
285.233
284.799
284.468
284.229
284.042
283.888
290.881
289.055
287.456
286.581
285.862
285.382
285.001
284.724
284.518
284.376
286.007
285.776
285.551
285.365
285.21
285.077
284.961
284.853
284.747
284.634
287.064
286.821
286.524
286.207
285.902
285.631
285.397
285.196
285.022
284.866
287.532
287.189
286.771
286.354
285.975
285.652
285.385
285.165
284.981
284.823
287.991
287.498
286.928
286.403
285.954
285.592
285.301
285.065
284.866
284.697
288.416
287.729
286.986
286.353
285.841
285.446
285.141
284.896
284.69
284.517
288.871
287.972
287.055
286.326
285.758
285.337
285.02
284.771
284.564
284.389
289.236
288.125
287.045
286.236
285.621
285.182
284.859
284.612
284.409
284.239
289.576
288.272
287.051
286.188
285.54
285.093
284.765
284.518
284.317
284.148
289.737
288.253
286.934
286.076
285.434
284.991
284.655
284.405
284.208
284.045
290.329
288.826
287.516
286.671
285.999
285.52
285.147
284.869
284.661
284.515
285.739
285.579
285.436
285.325
285.235
285.157
285.084
285.011
284.933
284.845
286.658
286.535
286.357
286.142
285.923
285.719
285.536
285.372
285.224
285.087
286.982
286.821
286.57
286.283
286.002
285.749
285.531
285.341
285.176
285.031
287.293
287.058
286.702
286.328
285.985
285.692
285.446
285.235
285.049
284.887
287.601
287.244
286.756
286.286
285.881
285.552
285.284
285.058
284.86
284.689
287.981
287.467
286.837
286.274
285.811
285.449
285.162
284.926
284.722
284.546
288.312
287.624
286.852
286.207
285.692
285.303
285.002
284.762
284.558
284.384
288.643
287.784
286.887
286.178
285.626
285.217
284.906
284.661
284.456
284.282
288.823
287.792
286.808
286.086
285.526
285.111
284.789
284.542
284.344
284.177
289.372
288.337
287.362
286.636
286.046
285.6
285.249
284.981
284.778
284.633
285.64
285.501
285.388
285.312
285.255
285.207
285.161
285.113
285.056
284.989
286.447
286.373
286.244
286.082
285.913
285.756
285.612
285.478
285.353
285.235
286.653
286.564
286.394
286.185
285.973
285.778
285.603
285.445
285.3
285.17
286.831
286.706
286.469
286.198
285.939
285.711
285.511
285.331
285.164
285.015
287.013
286.816
286.487
286.142
285.833
285.571
285.348
285.151
284.971
284.81
287.286
286.985
286.549
286.129
285.769
285.474
285.229
285.018
284.828
284.659
287.539
287.112
286.567
286.074
285.666
285.34
285.077
284.856
284.662
284.493
287.815
287.255
286.611
286.06
285.613
285.263
284.984
284.755
284.558
284.387
287.96
287.26
286.553
285.986
285.523
285.159
284.868
284.636
284.446
284.283
288.444
287.776
287.085
286.506
286.015
285.623
285.307
285.058
284.866
284.727
285.588
285.461
285.365
285.306
285.267
285.236
285.207
285.174
285.133
285.081
286.315
286.265
286.16
286.025
285.888
285.761
285.644
285.532
285.424
285.32
286.434
286.379
286.249
286.084
285.918
285.765
285.624
285.492
285.366
285.25
286.511
286.434
286.258
286.052
285.854
285.677
285.518
285.367
285.221
285.087
286.591
286.466
286.226
285.968
285.733
285.53
285.352
285.186
285.027
284.881
286.764
286.568
286.253
285.94
285.666
285.435
285.236
285.056
284.886
284.731
286.931
286.646
286.253
285.885
285.572
285.311
285.092
284.9
284.724
284.566
287.134
286.753
286.29
285.877
285.53
285.244
285.006
284.803
284.623
284.462
287.214
286.734
286.239
285.814
285.451
285.148
284.897
284.69
284.514
284.361
287.628
287.22
286.751
286.313
285.923
285.595
285.322
285.101
284.925
284.796
285.549
285.431
285.345
285.296
285.267
285.246
285.226
285.204
285.173
285.133
286.227
286.187
286.091
285.97
285.851
285.742
285.643
285.545
285.448
285.355
286.284
286.241
286.128
285.988
285.851
285.725
285.609
285.496
285.385
285.28
286.285
286.223
286.076
285.907
285.749
285.61
285.482
285.356
285.23
285.111
286.285
286.186
285.992
285.788
285.606
285.45
285.31
285.174
285.038
284.909
286.376
286.222
285.977
285.736
285.529
285.352
285.195
285.047
284.901
284.764
286.465
286.248
285.95
285.673
285.437
285.237
285.061
284.901
284.747
284.606
286.594
286.311
285.97
285.664
285.402
285.178
284.984
284.812
284.653
284.509
286.604
286.26
285.915
285.607
285.333
285.093
284.885
284.707
284.552
284.414
286.956
286.714
286.404
286.088
285.79
285.527
285.3
285.111
284.957
284.842
285.501
285.391
285.314
285.273
285.25
285.235
285.221
285.204
285.18
285.149
286.157
286.118
286.024
285.909
285.8
285.702
285.613
285.525
285.435
285.348
286.171
286.128
286.02
285.893
285.772
285.664
285.564
285.466
285.365
285.269
286.114
286.051
285.914
285.765
285.632
285.518
285.414
285.31
285.201
285.095
286.056
285.957
285.784
285.612
285.467
285.345
285.236
285.127
285.012
284.901
286.08
285.937
285.728
285.536
285.377
285.243
285.123
285.005
284.883
284.765
286.104
285.912
285.672
285.459
285.283
285.132
284.996
284.867
284.738
284.617
286.169
285.933
285.671
285.444
285.251
285.082
284.93
284.789
284.655
284.529
286.114
285.852
285.608
285.391
285.19
285.006
284.84
284.694
284.562