/*--------------------------------*- C++ -*----------------------------------*\
| =========                 |                                                 |
| \\      /  F ield         | foam-extend: Open Source CFD                    |
|  \\    /   O peration     | Version:     4.0                                |
|   \\  /    A nd           | Web:         http://www.foam-extend.org         |
|    \\/     M anipulation  |                                                 |
\*---------------------------------------------------------------------------*/
FoamFile
{
    version     2.0;
    format      ascii;
    class       volVectorField;
    location    "250";
    object      Urel;
}
// * * * * * * * * * * * * * * * * * * * * * * * * * * * * * * * * * * * * * //

dimensions      [0 1 -1 0 0 0 0];

internalField   nonuniform List<vector> 
34480
(
(185.943 -9.73688 -18.6852)
(186.691 -9.09646 -20.8196)
(187.177 -8.24905 -22.9406)
(187.499 -7.22883 -25.1225)
(187.691 -6.05221 -27.4895)
(187.744 -4.7202 -30.2221)
(187.564 -3.20962 -33.7003)
(186.771 -1.40474 -38.1964)
(184.151 0.900215 -45.6356)
(176.828 5.09553 -71.6967)
(182.879 -12.8815 -26.1876)
(183.993 -11.5391 -28.6392)
(184.855 -10.0633 -30.948)
(185.411 -8.46463 -33.234)
(185.634 -6.76573 -35.6167)
(185.45 -5.01207 -38.3266)
(184.661 -3.22971 -41.7653)
(183.076 -1.36356 -46.594)
(179.741 0.690909 -54.717)
(172.65 4.75763 -85.3251)
(181.993 -16.7213 -33.2061)
(183.107 -14.8888 -35.8742)
(184.032 -12.9472 -38.3347)
(184.716 -10.8918 -40.7111)
(185.146 -8.7588 -43.1904)
(185.268 -6.56057 -46.0487)
(184.828 -4.30584 -49.6908)
(183.63 -1.92984 -55.081)
(180.385 0.631828 -63.9459)
(173.072 5.38317 -97.6319)
(181.819 -19.7817 -40.8702)
(182.962 -17.4332 -43.8054)
(183.894 -14.9778 -46.428)
(184.608 -12.4019 -48.9236)
(185.139 -9.75017 -51.4882)
(185.476 -7.02198 -54.4279)
(185.374 -4.2241 -58.1457)
(184.637 -1.28203 -63.9007)
(181.631 1.87172 -73.3102)
(174.203 7.286 -109.157)
(182.034 -24.0715 -48.0969)
(183.137 -21.3339 -51.2537)
(183.99 -18.4339 -54.0788)
(184.674 -15.3588 -56.7307)
(185.261 -12.1795 -59.4208)
(185.783 -8.89174 -62.4737)
(186.027 -5.49931 -66.2959)
(185.822 -1.91611 -72.4124)
(183.242 1.94509 -82.4114)
(175.818 8.12519 -119.962)
(182.095 -27.473 -55.896)
(183.074 -24.245 -59.2464)
(183.788 -20.8209 -62.1961)
(184.397 -17.1875 -64.9281)
(184.998 -13.4143 -67.6459)
(185.67 -9.50835 -70.6973)
(186.249 -5.47837 -74.4943)
(186.613 -1.25325 -80.7952)
(184.679 3.28554 -91.2817)
(177.426 10.1009 -130.151)
(182.357 -32.352 -63.0063)
(183.19 -28.725 -66.5469)
(183.753 -24.8527 -69.6926)
(184.283 -20.7321 -72.555)
(184.884 -16.4464 -75.3659)
(185.684 -12.006 -78.4789)
(186.583 -7.40332 -82.3417)
(187.518 -2.566 -88.8778)
(186.366 2.72232 -100.008)
(179.335 10.2938 -140.019)
(182.557 -35.8694 -70.9042)
(183.203 -31.7311 -74.6492)
(183.584 -27.3017 -77.9154)
(183.974 -22.6047 -80.8471)
(184.487 -17.7016 -83.6487)
(185.301 -12.6374 -86.6866)
(186.418 -7.39712 -90.4346)
(187.844 -1.93605 -96.9163)
(187.58 4.09237 -108.389)
(180.958 12.3123 -149.084)
(183.131 -41.2344 -77.7718)
(183.604 -36.725 -81.7545)
(183.858 -31.898 -85.2256)
(184.186 -26.81 -88.2714)
(184.702 -21.5353 -91.1393)
(185.6 -16.1239 -94.2067)
(186.989 -10.5316 -98.0445)
(189.01 -4.67037 -104.66)
(189.75 2.13102 -116.743)
(183.297 11.4779 -157.59)
(183.056 -44.7687 -85.4995)
(183.286 -39.911 -89.8361)
(183.253 -34.6104 -93.5654)
(183.152 -29.0262 -96.8183)
(183.128 -23.209 -99.7902)
(183.396 -17.2265 -102.862)
(184.136 -11.0252 -106.598)
(185.692 -4.43167 -112.845)
(186.902 3.29816 -124.486)
(182.002 14.2062 -163.868)
(182.837 1.91047 3.29342)
(183.682 1.20986 2.09136)
(184.15 0.62353 0.777092)
(184.332 0.151834 -0.649117)
(184.236 -0.206884 -2.23393)
(183.801 -0.451831 -4.00863)
(182.809 -0.580539 -6.0427)
(180.753 -0.595666 -8.32629)
(177.369 -0.554729 -10.4149)
(172.416 -0.159551 -14.1456)
(180.12 2.79571 3.20096)
(181.345 2.2708 1.8401)
(182.231 1.79522 0.486597)
(182.698 1.37255 -0.970344)
(182.693 1.01152 -2.56277)
(182.097 0.677745 -4.37128)
(180.566 0.328812 -6.50541)
(177.597 -0.0722974 -9.21867)
(173 -0.705044 -11.9994)
(167.706 -0.781744 -20.0277)
(179.695 2.96163 3.58564)
(180.904 2.42753 2.17708)
(181.841 1.91509 0.807612)
(182.423 1.44973 -0.634973)
(182.603 1.02474 -2.23717)
(182.291 0.619557 -4.14143)
(181.095 0.195966 -6.54017)
(178.413 -0.250343 -9.96474)
(173.668 -0.931821 -13.8669)
(168.181 -0.774471 -26.0705)
(179.874 3.90054 3.35447)
(181.117 3.40691 1.89083)
(182.056 2.91006 0.543034)
(182.667 2.45021 -0.871689)
(182.954 2.0147 -2.46256)
(182.862 1.59856 -4.4139)
(182 1.16268 -6.93272)
(179.723 0.728599 -10.8658)
(174.984 0.0981132 -15.6534)
(169.257 0.62197 -31.7436)
(180.397 3.60493 3.57216)
(181.606 3.01197 2.10689)
(182.465 2.45258 0.745694)
(183.053 1.97546 -0.670088)
(183.412 1.54257 -2.2836)
(183.523 1.15194 -4.31305)
(183.009 0.761846 -6.96014)
(181.25 0.419412 -11.3774)
(176.742 -0.0433545 -17.0416)
(170.821 0.972285 -36.8118)
(180.702 4.21057 3.21132)
(181.8 3.60893 1.77229)
(182.528 3.05978 0.4815)
(183.059 2.61308 -0.850049)
(183.455 2.23015 -2.37311)
(183.74 1.90827 -4.35628)
(183.565 1.60844 -6.99172)
(182.376 1.37117 -11.7021)
(178.345 1.07685 -18.0836)
(172.376 2.46216 -41.206)
(181.169 3.30462 3.53061)
(182.128 2.59931 2.12736)
(182.719 1.98986 0.83412)
(183.192 1.51819 -0.463801)
(183.614 1.13135 -1.96103)
(184.052 0.822276 -3.94886)
(184.207 0.570652 -6.64293)
(183.596 0.418856 -11.657)
(180.217 0.370279 -18.8617)
(174.279 2.19879 -45.085)
(181.483 3.76767 3.06061)
(182.272 3.0687 1.6849)
(182.7 2.50312 0.479621)
(183.063 2.08075 -0.7131)
(183.436 1.7707 -2.06815)
(183.931 1.54261 -3.913)
(184.329 1.40272 -6.48331)
(184.242 1.35619 -11.5105)
(181.673 1.57767 -19.2324)
(175.984 3.57084 -48.03)
(182.084 2.35263 3.61948)
(182.693 1.52213 2.24029)
(183.004 0.862762 1.01899)
(183.321 0.346537 -0.12725)
(183.717 -0.0741213 -1.42579)
(184.319 -0.43084 -3.21412)
(185.009 -0.675755 -5.83496)
(185.556 -0.788653 -11.0087)
(184.046 -0.25172 -19.5742)
(178.478 2.26219 -50.2326)
(181.992 2.79098 3.25562)
(182.376 1.8345 1.80548)
(182.474 1.16449 0.574606)
(182.48 0.635796 -0.573921)
(182.491 0.232544 -1.80548)
(182.658 -0.0958518 -3.47061)
(182.933 -0.289125 -5.93263)
(183.277 -0.238364 -10.7899)
(182.412 0.65244 -19.4016)
(178.293 4.38497 -50.5746)
(180.354 1.43522 2.58366)
(181.16 0.909156 1.64287)
(181.564 0.446761 0.56999)
(181.663 0.0645134 -0.581857)
(181.476 -0.234963 -1.81995)
(180.962 -0.44802 -3.10588)
(179.996 -0.57936 -4.4039)
(178.329 -0.651098 -5.57688)
(175.522 -0.741622 -6.241)
(171.374 -0.762198 -6.70627)
(177.821 2.45229 2.56285)
(179.062 2.05289 1.40601)
(179.912 1.66612 0.244773)
(180.292 1.29973 -1.00729)
(180.17 0.97146 -2.34547)
(179.429 0.656753 -3.78417)
(177.756 0.320425 -5.29408)
(174.823 -0.0884657 -6.8522)
(170.404 -0.739457 -7.86965)
(165.239 -1.30306 -10.0103)
(177.725 2.70094 3.02663)
(178.97 2.26964 1.76244)
(179.878 1.83214 0.522088)
(180.371 1.41931 -0.794004)
(180.401 1.03628 -2.22764)
(179.852 0.662897 -3.83926)
(178.346 0.258304 -5.67532)
(175.384 -0.210338 -7.87012)
(170.281 -0.973454 -9.63082)
(163.996 -1.57426 -13.7431)
(178.198 3.70935 2.86148)
(179.489 3.31611 1.51501)
(180.397 2.88905 0.26214)
(180.908 2.47508 -1.06614)
(181.029 2.07567 -2.53932)
(180.663 1.68154 -4.26305)
(179.392 1.24541 -6.30974)
(176.586 0.750509 -9.03635)
(170.961 -0.0577231 -11.4857)
(163.571 -0.544864 -17.7478)
(178.986 3.46011 3.16536)
(180.253 2.96204 1.78909)
(181.083 2.4641 0.493097)
(181.574 2.02444 -0.86816)
(181.763 1.62136 -2.40584)
(181.587 1.24835 -4.27116)
(180.601 0.849584 -6.54982)
(178.116 0.424538 -9.84633)
(172.229 -0.29372 -13.0921)
(163.872 -0.474788 -21.7431)
(179.506 4.12694 2.87921)
(180.677 3.60399 1.50676)
(181.391 3.10246 0.259027)
(181.839 2.68126 -1.0421)
(182.075 2.31487 -2.52222)
(182.069 1.99612 -4.39633)
(181.379 1.66875 -6.76344)
(179.305 1.32595 -10.4804)
(173.431 0.718568 -14.4452)
(164.339 0.802518 -25.5302)
(180.151 3.24354 3.27427)
(181.195 2.60159 1.91543)
(181.79 2.03034 0.645653)
(182.2 1.5801 -0.643932)
(182.476 1.2091 -2.12704)
(182.631 0.908706 -4.05509)
(182.24 0.639381 -6.5683)
(180.618 0.396795 -10.7287)
(174.982 0.0126789 -15.5536)
(165.324 0.464879 -29.1218)
(180.572 3.74255 2.8548)
(181.461 3.08887 1.51867)
(181.918 2.5476 0.332952)
(182.245 2.13647 -0.859765)
(182.499 1.83074 -2.21754)
(182.733 1.60366 -4.03959)
(182.584 1.44221 -6.50311)
(181.417 1.3149 -10.8315)
(176.25 1.20363 -16.2847)
(166.259 1.76188 -32.0589)
(181.2 2.30546 3.45303)
(181.908 1.50712 2.11134)
(182.261 0.875464 0.897411)
(182.558 0.388177 -0.27031)
(182.843 -0.000456535 -1.59891)
(183.187 -0.316128 -3.394)
(183.318 -0.522901 -5.94692)
(182.737 -0.621355 -10.5368)
(178.401 -0.328263 -16.9717)
(167.945 0.634966 -34.3184)
(181.099 2.75896 3.05742)
(181.586 1.85446 1.69143)
(181.77 1.22528 0.506308)
(181.833 0.732791 -0.633918)
(181.836 0.366039 -1.87949)
(181.867 0.0821772 -3.55126)
(181.725 -0.0644007 -5.9595)
(181.08 0.013808 -10.312)
(177.384 0.69507 -17.0593)
(167.574 2.78783 -34.973)
(178.415 0.979444 1.92379)
(179.112 0.618125 1.24299)
(179.443 0.280515 0.428295)
(179.495 -0.00834027 -0.432904)
(179.298 -0.245261 -1.33258)
(178.836 -0.424071 -2.19864)
(178.048 -0.553005 -2.97405)
(176.814 -0.653223 -3.52401)
(174.887 -0.776557 -3.60178)
(172.036 -0.929275 -3.04409)
(175.95 2.07023 1.9192)
(177.145 1.8054 0.995064)
(177.943 1.51975 0.06125)
(178.258 1.22454 -0.940471)
(178.078 0.942281 -1.98163)
(177.324 0.656679 -3.03833)
(175.752 0.342302 -4.03293)
(173.147 -0.0467832 -4.85303)
(169.532 -0.632385 -5.07061)
(165.709 -1.27738 -4.97092)
(176.085 2.37171 2.42698)
(177.315 2.062 1.35165)
(178.175 1.71462 0.290245)
(178.58 1.3649 -0.835148)
(178.502 1.02637 -2.03802)
(177.846 0.686152 -3.32393)
(176.3 0.310757 -4.65317)
(173.499 -0.138109 -5.9664)
(169.151 -0.845184 -6.59753)
(164.348 -1.65674 -7.2223)
(176.787 3.4454 2.31441)
(178.077 3.16857 1.13191)
(178.931 2.8239 0.0229331)
(179.338 2.46428 -1.1554)
(179.317 2.10252 -2.44228)
(178.782 1.73235 -3.88522)
(177.363 1.30994 -5.46411)
(174.544 0.802915 -7.23371)
(169.526 -0.01239 -8.29057)
(163.601 -0.898519 -9.84495)
(177.786 3.24267 2.70112)
(179.06 2.85346 1.45715)
(179.841 2.4285 0.270112)
(180.225 2.03262 -0.980264)
(180.253 1.65801 -2.37411)
(179.862 1.29968 -4.00641)
(178.637 0.902922 -5.88034)
(175.968 0.443493 -8.20626)
(170.461 -0.345882 -9.85576)
(163.439 -1.10443 -12.6834)
(178.48 3.96984 2.4876)
(179.674 3.53961 1.22282)
(180.353 3.09724 0.0564932)
(180.705 2.70864 -1.16681)
(180.774 2.36038 -2.54307)
(180.52 2.04494 -4.23136)
(179.508 1.70169 -6.262)
(177.083 1.29621 -9.03987)
(171.3 0.546031 -11.2605)
(163.349 -0.0842771 -15.5467)
(179.267 3.11514 2.95765)
(180.352 2.55141 1.68117)
(180.929 2.02941 0.468372)
(181.257 1.6059 -0.773461)
(181.371 1.24955 -2.18886)
(181.255 0.952564 -3.97678)
(180.472 0.66902 -6.21897)
(178.345 0.370313 -9.50128)
(172.48 -0.19737 -12.4738)
(163.754 -0.567472 -18.4298)
(179.779 3.6603 2.58582)
(180.726 3.06842 1.32531)
(181.187 2.56222 0.187763)
(181.455 2.16837 -0.972824)
(181.564 1.86739 -2.28818)
(181.524 1.63793 -4.00836)
(180.937 1.45609 -6.25709)
(179.144 1.26935 -9.79486)
(173.447 0.932009 -13.3639)
(164.161 0.598928 -20.9108)
(180.427 2.2073 3.23305)
(181.196 1.45969 1.96171)
(181.563 0.862698 0.780602)
(181.813 0.404697 -0.379368)
(181.958 0.0430328 -1.69687)
(182.017 -0.241846 -3.42582)
(181.645 -0.42774 -5.78534)
(180.317 -0.527805 -9.63715)
(175.228 -0.422423 -14.209)
(165.347 -0.430849 -22.9633)
(180.322 2.69527 2.81531)
(180.876 1.85645 1.55395)
(181.112 1.2717 0.429243)
(181.193 0.815384 -0.681931)
(181.144 0.482256 -1.90753)
(180.994 0.236882 -3.52031)
(180.452 0.124881 -5.75721)
(179.085 0.212911 -9.43557)
(174.514 0.724243 -14.4354)
(164.926 1.72664 -23.5892)
(176.962 0.609715 1.39795)
(177.529 0.373565 0.928141)
(177.788 0.138428 0.335978)
(177.821 -0.0699427 -0.277415)
(177.663 -0.250952 -0.90767)
(177.315 -0.39571 -1.4779)
(176.755 -0.511521 -1.94558)
(175.922 -0.612764 -2.21455)
(174.639 -0.721528 -2.16744)
(172.622 -0.846362 -1.72475)
(174.526 1.71753 1.34762)
(175.64 1.56963 0.646019)
(176.38 1.37871 -0.0640078)
(176.656 1.15591 -0.82028)
(176.48 0.926093 -1.58335)
(175.801 0.680978 -2.31188)
(174.434 0.404817 -2.92994)
(172.233 0.0635166 -3.33055)
(169.341 -0.422975 -3.29149)
(166.5 -0.978029 -2.92806)
(174.802 2.02472 1.86016)
(175.981 1.83485 0.987105)
(176.786 1.57904 0.121222)
(177.128 1.29615 -0.791848)
(177.002 1.00609 -1.7443)
(176.343 0.704234 -2.70982)
(174.913 0.367539 -3.61827)
(172.452 -0.0356038 -4.35172)
(168.911 -0.633149 -4.5015)
(165.31 -1.37681 -4.27173)
(175.663 3.14376 1.7783)
(176.913 2.98427 0.781544)
(177.704 2.72494 -0.159485)
(178.03 2.42424 -1.15683)
(177.923 2.10469 -2.22138)
(177.323 1.76443 -3.35818)
(175.936 1.36876 -4.50211)
(173.368 0.883946 -5.56491)
(169.186 0.147511 -5.92115)
(164.637 -0.762037 -5.89783)
(176.803 2.97743 2.23141)
(178.046 2.69968 1.14496)
(178.768 2.35192 0.0938534)
(179.066 2.00451 -1.01205)
(178.986 1.66203 -2.21916)
(178.474 1.3217 -3.57238)
(177.195 0.937297 -5.02665)
(174.663 0.477426 -6.56649)
(169.951 -0.273316 -7.3165)
(164.39 -1.17138 -7.79476)
(177.618 3.75659 2.07893)
(178.798 3.42408 0.948922)
(179.435 3.04664 -0.108588)
(179.705 2.696 -1.22086)
(179.654 2.37038 -2.44884)
(179.234 2.06268 -3.8935)
(178.081 1.7157 -5.53593)
(175.662 1.28424 -7.48918)
(170.557 0.516277 -8.63354)
(164.063 -0.366902 -9.80359)
(178.504 2.93136 2.61387)
(179.594 2.45397 1.4477)
(180.147 1.98823 0.318599)
(180.404 1.5966 -0.843867)
(180.393 1.25824 -2.14793)
(180.077 0.965851 -3.73158)
(179.071 0.673247 -5.62449)
(176.815 0.34445 -8.0769)
(171.451 -0.282058 -9.81317)
(164.124 -1.0015 -11.9355)
(179.079 3.52823 2.28174)
(180.051 3.00917 1.12353)
(180.51 2.54649 0.0584648)
(180.725 2.17619 -1.04131)
(180.718 1.88495 -2.27393)
(180.467 1.65532 -3.82765)
(179.594 1.45672 -5.76718)
(177.549 1.23043 -8.50067)
(172.147 0.775565 -10.7191)
(164.165 0.0348583 -13.831)
(179.735 2.06105 2.97585)
(180.538 1.37835 1.79951)
(180.915 0.823214 0.674319)
(181.119 0.397117 -0.449093)
(181.148 0.0620833 -1.71625)
(180.983 -0.196329 -3.31899)
(180.269 -0.369094 -5.39512)
(178.536 -0.478455 -8.44343)
(173.526 -0.503351 -11.5535)
(164.928 -0.962352 -15.5201)
(179.618 2.60203 2.53611)
(180.218 1.8395 1.39431)
(180.493 1.30381 0.344896)
(180.579 0.885294 -0.715615)
(180.478 0.585181 -1.8881)
(180.176 0.37516 -3.38818)
(179.359 0.290658 -5.3719)
(177.588 0.378059 -8.31008)
(172.933 0.750619 -11.8089)
(164.432 1.15529 -15.9555)
(175.905 0.337217 1.01409)
(176.355 0.186752 0.700116)
(176.553 0.0269122 0.278752)
(176.578 -0.118578 -0.146004)
(176.466 -0.252971 -0.581334)
(176.227 -0.365353 -0.957319)
(175.85 -0.460491 -1.25048)
(175.293 -0.546021 -1.39781)
(174.393 -0.626943 -1.34584)
(172.8 -0.708922 -1.05611)
(173.523 1.42701 0.880559)
(174.548 1.36996 0.371069)
(175.229 1.25854 -0.141634)
(175.483 1.10166 -0.683701)
(175.339 0.924463 -1.21488)
(174.769 0.724887 -1.69108)
(173.617 0.495581 -2.05136)
(171.752 0.213071 -2.21421)
(169.336 -0.178221 -2.07971)
(167.046 -0.647229 -1.74565)
(173.884 1.69848 1.36663)
(174.991 1.6122 0.685493)
(175.735 1.43958 0.00847901)
(176.033 1.22114 -0.699707)
(175.901 0.980927 -1.41866)
(175.3 0.721374 -2.10731)
(174.049 0.42924 -2.69494)
(171.941 0.0813628 -3.06576)
(169.027 -0.408919 -3.00308)
(166.188 -1.05436 -2.6272)
(174.846 2.83593 1.28921)
(176.021 2.78148 0.479226)
(176.742 2.60231 -0.288321)
(177.005 2.36061 -1.09758)
(176.86 2.08663 -1.93783)
(176.272 1.78298 -2.78627)
(175.02 1.42492 -3.5659)
(172.792 0.982666 -4.14333)
(169.368 0.347344 -4.14782)
(165.799 -0.486141 -3.66929)
(176.062 2.68798 1.7841)
(177.235 2.51347 0.864692)
(177.89 2.24105 -0.0365688)
(178.118 1.94429 -0.981596)
(177.976 1.63828 -1.98722)
(177.426 1.32286 -3.05827)
(176.22 0.962156 -4.12835)
(173.976 0.525469 -5.07972)
(170.105 -0.143386 -5.33592)
(165.718 -1.0172 -4.9481)
(176.944 3.50381 1.67452)
(178.07 3.26562 0.694637)
(178.654 2.95442 -0.235449)
(178.857 2.64549 -1.21471)
(178.727 2.3476 -2.27085)
(178.222 2.05513 -3.45286)
(177.067 1.71859 -4.71041)
(174.851 1.29104 -5.99665)
(170.605 0.573393 -6.50786)
(165.426 -0.349169 -6.33936)
(177.881 2.70332 2.2589)
(178.939 2.3139 1.22227)
(179.457 1.90843 0.19808)
(179.652 1.55326 -0.860006)
(179.55 1.23776 -2.02351)
(179.111 0.955617 -3.37199)
(178.026 0.663873 -4.89216)
(175.87 0.326843 -6.62596)
(171.32 -0.282149 -7.58921)
(165.396 -1.10155 -7.88072)
(178.49 3.35313 1.95555)
(179.451 2.9129 0.919267)
(179.896 2.50033 -0.0525297)
(180.062 2.15964 -1.06621)
(179.966 1.88426 -2.18467)
(179.57 1.66044 -3.5345)
(178.555 1.45505 -5.12462)
(176.501 1.20945 -7.119)
(171.818 0.719203 -8.43681)
(165.288 -0.154059 -9.26475)
(179.139 1.87084 2.69201)
(179.946 1.26302 1.62941)
(180.318 0.756192 0.580906)
(180.479 0.365168 -0.479266)
(180.415 0.0578407 -1.66203)
(180.085 -0.175699 -3.09765)
(179.173 -0.336725 -4.85254)
(177.301 -0.452115 -7.14721)
(172.858 -0.554808 -9.17554)
(165.825 -1.15401 -10.5672)
(179 2.4833 2.22776)
(179.619 1.80495 1.21651)
(179.915 1.32279 0.256645)
(179.994 0.944281 -0.732135)
(179.845 0.67723 -1.8214)
(179.428 0.499646 -3.16886)
(178.449 0.437168 -4.85593)
(176.528 0.519445 -7.09673)
(172.304 0.783884 -9.41439)
(165.374 0.90078 -10.8486)
(175.171 0.149466 0.752105)
(175.527 0.0535711 0.545732)
(175.678 -0.0552086 0.244875)
(175.7 -0.154957 -0.0476682)
(175.628 -0.252752 -0.351749)
(175.471 -0.336491 -0.607181)
(175.225 -0.408682 -0.805218)
(174.846 -0.472057 -0.904795)
(174.177 -0.523439 -0.881142)
(172.84 -0.56676 -0.710735)
(172.896 1.20828 0.526211)
(173.838 1.21639 0.169773)
(174.465 1.16631 -0.183705)
(174.707 1.06451 -0.554541)
(174.605 0.935078 -0.907877)
(174.145 0.780092 -1.20462)
(173.183 0.598341 -1.40023)
(171.577 0.374468 -1.43737)
(169.461 0.0661854 -1.2797)
(167.468 -0.327658 -1.03548)
(173.308 1.41554 0.966403)
(174.334 1.40984 0.452083)
(175.017 1.30606 -0.0581769)
(175.286 1.1448 -0.586945)
(175.172 0.952306 -1.1091)
(174.658 0.736085 -1.5805)
(173.596 0.490557 -1.94122)
(171.796 0.19959 -2.0968)
(169.319 -0.197802 -1.94564)
(166.929 -0.751038 -1.61629)
(174.327 2.54516 0.868676)
(175.405 2.57531 0.231642)
(176.051 2.46509 -0.371389)
(176.268 2.27827 -1.00295)
(176.119 2.05034 -1.63936)
(175.593 1.78781 -2.24365)
(174.521 1.47448 -2.74385)
(172.636 1.08553 -3.00903)
(169.801 0.549598 -2.8408)
(166.858 -0.184911 -2.30587)
(175.56 2.39484 1.37869)
(176.634 2.3076 0.622931)
(177.216 2.10353 -0.126499)
(177.391 1.8566 -0.908771)
(177.225 1.58989 -1.71888)
(176.7 1.30597 -2.53562)
(175.638 0.978912 -3.28866)
(173.734 0.581705 -3.83137)
(170.584 0.0068711 -3.81913)
(167.016 -0.78518 -3.19813)
(176.46 3.2282 1.29135)
(177.499 3.07404 0.466099)
(178.022 2.82623 -0.327268)
(178.172 2.56071 -1.16269)
(178.002 2.29475 -2.04088)
(177.482 2.02498 -2.97226)
(176.417 1.71175 -3.8915)
(174.5 1.31152 -4.6802)
(171.062 0.677656 -4.81957)
(166.877 -0.187475 -4.17001)
(177.408 2.44391 1.90703)
(178.399 2.13811 1.01016)
(178.872 1.79369 0.105265)
(179.016 1.47824 -0.83145)
(178.859 1.19027 -1.83901)
(178.366 0.925043 -2.95011)
(177.311 0.645532 -4.12335)
(175.384 0.320073 -5.28544)
(171.68 -0.229167 -5.76571)
(166.898 -1.02205 -5.28381)
(178.019 3.14431 1.62008)
(178.934 2.78373 0.71776)
(179.352 2.42528 -0.145104)
(179.476 2.11917 -1.05304)
(179.322 1.86534 -2.03628)
(178.847 1.65359 -3.16897)
(177.808 1.45215 -4.41921)
(175.903 1.2082 -5.79554)
(172.05 0.739752 -6.51453)
(166.783 -0.110115 -6.27211)
(178.645 1.6437 2.39354)
(179.426 1.11586 1.45667)
(179.783 0.662136 0.501593)
(179.904 0.30903 -0.473269)
(179.773 0.0308273 -1.54597)
(179.341 -0.178505 -2.79291)
(178.356 -0.326819 -4.22638)
(176.538 -0.440155 -5.88556)
(172.837 -0.574231 -7.13833)
(167.259 -1.14035 -7.25385)
(178.47 2.34544 1.89998)
(179.082 1.75569 1.02543)
(179.383 1.3307 0.167171)
(179.45 0.994323 -0.731492)
(179.264 0.760568 -1.7134)
(178.776 0.612664 -2.88398)
(177.739 0.56775 -4.26366)
(175.858 0.642691 -5.90098)
(172.278 0.827401 -7.33801)
(166.919 0.832021 -7.43601)
(174.704 0.0235574 0.581373)
(174.989 -0.038446 0.446648)
(175.106 -0.114261 0.226133)
(175.126 -0.182292 0.0212418)
(175.082 -0.252746 -0.19834)
(174.982 -0.313034 -0.380935)
(174.82 -0.364285 -0.526881)
(174.554 -0.406386 -0.608092)
(174.028 -0.433212 -0.611281)
(172.862 -0.44869 -0.51497)
(172.593 1.05473 0.274907)
(173.466 1.10769 0.0332123)
(174.047 1.10203 -0.200869)
(174.28 1.04306 -0.44438)
(174.217 0.953343 -0.670118)
(173.852 0.837415 -0.846215)
(173.043 0.697815 -0.941018)
(171.627 0.524782 -0.91412)
(169.691 0.283179 -0.758959)
(167.828 -0.0524269 -0.582998)
(173.036 1.18413 0.663169)
(173.983 1.23552 0.284206)
(174.608 1.18397 -0.0894536)
(174.855 1.06959 -0.472936)
(174.77 0.919363 -0.841813)
(174.35 0.743932 -1.1554)
(173.462 0.542754 -1.36635)
(171.912 0.304373 -1.40236)
(169.725 -0.0179305 -1.22279)
(167.565 -0.495787 -0.961775)
(174.078 2.28574 0.526462)
(175.048 2.37685 0.0396678)
(175.62 2.32103 -0.417855)
(175.803 2.18178 -0.893534)
(175.673 1.99737 -1.35851)
(175.231 1.77712 -1.77216)
(174.347 1.51125 -2.074)
(172.772 1.17892 -2.15241)
(170.367 0.730914 -1.91008)
(167.794 0.0903839 -1.42271)
(175.284 2.11426 1.02816)
(176.24 2.09403 0.422936)
(176.745 1.94781 -0.182749)
(176.882 1.74718 -0.811968)
(176.72 1.52036 -1.44625)
(176.258 1.27232 -2.05174)
(175.372 0.985694 -2.56407)
(173.803 0.637717 -2.84385)
(171.223 0.154201 -2.69792)
(168.193 -0.542971 -2.07004)
(176.16 2.94533 0.94356)
(177.088 2.86011 0.267949)
(177.545 2.66945 -0.388499)
(177.655 2.44682 -1.07973)
(177.475 2.21542 -1.78751)
(176.989 1.97432 -2.49859)
(176.069 1.69405 -3.14557)
(174.477 1.33705 -3.59197)
(171.721 0.798783 -3.52435)
(168.243 0.0302523 -2.76388)
(177.083 2.16708 1.5721)
(177.98 1.93565 0.816345)
(178.399 1.64994 0.037521)
(178.504 1.37578 -0.769609)
(178.323 1.11899 -1.61832)
(177.832 0.876793 -2.50925)
(176.879 0.619611 -3.38794)
(175.243 0.321924 -4.13175)
(172.297 -0.147801 -4.31871)
(168.383 -0.855013 -3.57923)
(177.667 2.91307 1.28901)
(178.507 2.62814 0.524755)
(178.888 2.32501 -0.219788)
(178.977 2.05686 -1.00945)
(178.792 1.82922 -1.84728)
(178.296 1.6352 -2.76812)
(177.319 1.44711 -3.71667)
(175.653 1.22165 -4.62023)
(172.589 0.809086 -4.94946)
(168.34 0.0638369 -4.28072)
(178.257 1.38891 2.09371)
(178.985 0.94132 1.28742)
(179.316 0.543261 0.437198)
(179.403 0.230045 -0.43653)
(179.232 -0.0177523 -1.38318)
(178.756 -0.202984 -2.43696)
(177.792 -0.336539 -3.57396)
(176.15 -0.440131 -4.73642)
(173.202 -0.57201 -5.4626)
(168.862 -1.02843 -5.0328)
(178.035 2.19665 1.5639)
(178.614 1.69627 0.826966)
(178.905 1.33056 0.078887)
(178.958 1.03785 -0.715631)
(178.751 0.837388 -1.57367)
(178.234 0.716489 -2.55791)
(177.222 0.685594 -3.64448)
(175.509 0.752385 -4.79239)
(172.619 0.880538 -5.60697)
(168.644 0.855679 -5.1305)
(174.461 -0.0628788 0.474743)
(174.694 -0.103705 0.386504)
(174.786 -0.158903 0.21729)
(174.805 -0.205787 0.0681105)
(174.778 -0.256817 -0.0987742)
(174.715 -0.29941 -0.238194)
(174.607 -0.334058 -0.355331)
(174.413 -0.35929 -0.42976)
(173.983 -0.368522 -0.45243)
(172.952 -0.366782 -0.400858)
(172.563 0.953385 0.108983)
(173.38 1.03664 -0.0515179)
(173.92 1.06135 -0.202116)
(174.144 1.03344 -0.357209)
(174.114 0.974157 -0.497096)
(173.824 0.889365 -0.596563)
(173.136 0.783459 -0.632617)
(171.858 0.650455 -0.575015)
(170.029 0.459945 -0.429895)
(168.195 0.169175 -0.297773)
(173.023 1.00296 0.448976)
(173.897 1.09061 0.173545)
(174.467 1.07504 -0.0956627)
(174.696 0.996095 -0.36964)
(174.642 0.880573 -0.627353)
(174.308 0.740601 -0.834233)
(173.569 0.578319 -0.95364)
(172.217 0.384787 -0.930201)
(170.22 0.120906 -0.75246)
(168.154 -0.296983 -0.549819)
(174.063 2.06382 0.262149)
(174.923 2.19288 -0.100746)
(175.422 2.176 -0.437222)
(175.58 2.07529 -0.784635)
(175.478 1.92955 -1.11447)
(175.127 1.74967 -1.38901)
(174.417 1.53006 -1.56043)
(173.105 1.25252 -1.53865)
(171.012 0.878789 -1.28006)
(168.64 0.32014 -0.861565)
(175.205 1.8572 0.738359)
(176.034 1.8828 0.264522)
(176.465 1.78219 -0.212842)
(176.573 1.62236 -0.706744)
(176.432 1.4339 -1.19231)
(176.052 1.22346 -1.63307)
(175.344 0.980332 -1.97535)
(174.078 0.685682 -2.1011)
(171.936 0.284846 -1.90681)
(169.249 -0.320852 -1.34687)
(176.025 2.66796 0.641136)
(176.829 2.63429 0.10288)
(177.218 2.49219 -0.424321)
(177.299 2.30994 -0.97979)
(177.13 2.11395 -1.53421)
(176.708 1.90544 -2.06315)
(175.953 1.66404 -2.50559)
(174.676 1.35909 -2.73539)
(172.467 0.915382 -2.57124)
(169.484 0.253566 -1.84925)
(176.897 1.8862 1.26582)
(177.681 1.71666 0.644876)
(178.044 1.48478 -0.00859409)
(178.118 1.25162 -0.686371)
(177.937 1.02825 -1.38354)
(177.487 0.813826 -2.08238)
(176.675 0.586445 -2.72696)
(175.343 0.327658 -3.18729)
(173.03 -0.0574717 -3.21335)
(169.765 -0.656613 -2.45252)
(177.429 2.67139 0.975228)
(178.173 2.45421 0.345777)
(178.508 2.20487 -0.277767)
(178.57 1.97619 -0.944278)
(178.378 1.77799 -1.63654)
(177.905 1.60626 -2.36348)
(177.043 1.43881 -3.06065)
(175.655 1.24297 -3.62802)
(173.275 0.901079 -3.72146)
(169.825 0.290471 -2.95017)
(177.975 1.11692 1.80557)
(178.628 0.745527 1.12786)
(178.925 0.403221 0.387922)
(178.986 0.130584 -0.375967)
(178.797 -0.0860911 -1.19033)
(178.325 -0.247178 -2.05984)
(177.445 -0.363784 -2.94)
(176.043 -0.451889 -3.73572)
(173.772 -0.561737 -4.12685)
(170.441 -0.890331 -3.53993)
(177.693 2.04629 1.23093)
(178.22 1.63249 0.627342)
(178.49 1.32627 -0.00637849)
(178.528 1.07771 -0.688192)
(178.316 0.909996 -1.41413)
(177.81 0.813467 -2.21514)
(176.883 0.793746 -3.03941)
(175.406 0.852503 -3.81068)
(173.162 0.941759 -4.20952)
(170.31 0.921343 -3.55409)
(174.408 -0.127977 0.411851)
(174.602 -0.155243 0.353029)
(174.675 -0.197898 0.215355)
(174.692 -0.2313 0.100283)
(174.676 -0.26935 -0.0345012)
(174.637 -0.299786 -0.148748)
(174.563 -0.322913 -0.249744)
(174.416 -0.336775 -0.321741)
(174.058 -0.335401 -0.357163)
(173.145 -0.325022 -0.33244)
(172.758 0.890521 0.00822244)
(173.528 0.994084 -0.0983444)
(174.029 1.03819 -0.194843)
(174.241 1.03107 -0.293009)
(174.234 0.993229 -0.379198)
(174.004 0.931149 -0.433453)
(173.41 0.849843 -0.43789)
(172.239 0.745933 -0.367338)
(170.474 0.593364 -0.231795)
(168.602 0.338334 -0.121375)
(173.221 0.865551 0.309283)
(174.027 0.972252 0.108763)
(174.543 0.978268 -0.0859676)
(174.755 0.923659 -0.283318)
(174.728 0.834543 -0.466267)
(174.467 0.723284 -0.606673)
(173.853 0.592918 -0.675665)
(172.658 0.435385 -0.628516)
(170.789 0.215885 -0.46487)
(168.728 -0.154381 -0.300038)
(174.239 1.87938 0.0680507)
(174.991 2.02622 -0.19706)
(175.42 2.03383 -0.438379)
(175.558 1.96227 -0.686304)
(175.485 1.84905 -0.915779)
(175.218 1.70545 -1.09503)
(174.661 1.52824 -1.18752)
(173.568 1.30064 -1.12094)
(171.705 0.98854 -0.876604)
(169.427 0.498882 -0.517131)
(175.289 1.62953 0.508783)
(175.992 1.6814 0.14449)
(176.35 1.61415 -0.224241)
(176.437 1.48856 -0.604878)
(176.325 1.33523 -0.971232)
(176.029 1.16166 -1.29025)
(175.484 0.961793 -1.52003)
(174.479 0.72006 -1.56621)
(172.674 0.391667 -1.37419)
(170.204 -0.131933 -0.89516)
(176.032 2.405 0.38931)
(176.706 2.40553 -0.0285737)
(177.028 2.30232 -0.440081)
(177.089 2.15641 -0.874535)
(176.944 1.99495 -1.2981)
(176.6 1.82072 -1.68387)
(176.007 1.62068 -1.98122)
(175.011 1.37091 -2.08613)
(173.234 1.01454 -1.89662)
(170.602 0.454783 -1.26235)
(176.835 1.6128 0.996507)
(177.498 1.49138 0.498231)
(177.801 1.30665 -0.0370461)
(177.854 1.11255 -0.592817)
(177.69 0.923216 -1.15302)
(177.303 0.739498 -1.69229)
(176.644 0.546349 -2.16006)
(175.597 0.332305 -2.44154)
(173.796 0.0282244 -2.39733)
(171.02 -0.461279 -1.71118)
(177.295 2.4305 0.689373)
(177.929 2.27069 0.185417)
(178.215 2.07127 -0.320787)
(178.257 1.8817 -0.866433)
(178.075 1.71456 -1.42123)
(177.653 1.5682 -1.97956)
(176.931 1.42633 -2.47744)
(175.822 1.26625 -2.81992)
(174.007 0.997545 -2.78804)
(171.183 0.52082 -2.06309)
(177.792 0.838201 1.54064)
(178.357 0.535554 0.983626)
(178.614 0.246694 0.353354)
(178.655 0.0138511 -0.299106)
(178.47 -0.171852 -0.983695)
(178.034 -0.308993 -1.68706)
(177.274 -0.407033 -2.35609)
(176.131 -0.476178 -2.89416)
(174.43 -0.554773 -3.08806)
(171.898 -0.765291 -2.52644)
(177.443 1.90398 0.911493)
(177.904 1.57092 0.432424)
(178.143 1.32239 -0.087497)
(178.169 1.1172 -0.653907)
(177.966 0.980975 -1.24737)
(177.501 0.906192 -1.87776)
(176.694 0.895346 -2.47917)
(175.48 0.946687 -2.97353)
(173.791 1.00981 -3.11197)
(171.804 1.00456 -2.46476)
(174.511 -0.184927 0.379077)
(174.673 -0.203426 0.338046)
(174.731 -0.238859 0.218845)
(174.746 -0.264322 0.123623)
(174.737 -0.294493 0.00788436)
(174.713 -0.317664 -0.0921433)
(174.661 -0.334166 -0.184192)
(174.548 -0.342037 -0.255489)
(174.249 -0.33631 -0.29914)
(173.447 -0.32414 -0.290995)
(173.129 0.854937 -0.0465277)
(173.854 0.971753 -0.120278)
(174.315 1.02684 -0.185176)
(174.514 1.03209 -0.250219)
(174.522 1.00784 -0.306205)
(174.338 0.960793 -0.337076)
(173.822 0.895819 -0.327701)
(172.741 0.811381 -0.254577)
(171.018 0.686175 -0.126844)
(169.069 0.461368 -0.0226857)
(173.581 0.763405 0.227285)
(174.321 0.875258 0.0778164)
(174.784 0.890896 -0.0679495)
(174.976 0.850885 -0.216258)
(174.969 0.780321 -0.353581)
(174.769 0.690953 -0.457427)
(174.259 0.585546 -0.504135)
(173.196 0.455916 -0.454539)
(171.422 0.270084 -0.309384)
(169.312 -0.0612153 -0.163937)
(174.56 1.7283 -0.0675423)
(175.209 1.87658 -0.258367)
(175.572 1.89641 -0.428876)
(175.69 1.84534 -0.603947)
(175.645 1.75821 -0.763232)
(175.45 1.64575 -0.88156)
(175.02 1.50576 -0.931429)
(174.11 1.32221 -0.853283)
(172.428 1.06168 -0.637047)
(170.182 0.630827 -0.318333)
(175.499 1.43285 0.334071)
(176.079 1.49473 0.0574715)
(176.371 1.44982 -0.22369)
(176.442 1.35173 -0.514129)
(176.36 1.22928 -0.789505)
(176.14 1.08997 -1.02288)
(175.735 0.930702 -1.18302)
(174.948 0.73851 -1.19633)
(173.411 0.472949 -1.03242)
(171.083 0.0217335 -0.623163)
(176.151 2.16131 0.188803)
(176.698 2.18057 -0.127862)
(176.958 2.10666 -0.440774)
(177.004 1.99211 -0.772548)
(176.888 1.8628 -1.08967)
(176.621 1.72245 -1.36781)
(176.174 1.56341 -1.56746)