/*--------------------------------*- C++ -*----------------------------------*\
| =========                 |                                                 |
| \\      /  F ield         | foam-extend: Open Source CFD                    |
|  \\    /   O peration     | Version:     4.0                                |
|   \\  /    A nd           | Web:         http://www.foam-extend.org         |
|    \\/     M anipulation  |                                                 |
\*---------------------------------------------------------------------------*/
FoamFile
{
    version     2.0;
    format      ascii;
    class       volScalarField;
    location    "1500";
    object      epsilon;
}
// * * * * * * * * * * * * * * * * * * * * * * * * * * * * * * * * * * * * * //

dimensions      [0 2 -3 0 0 0 0];

internalField   nonuniform List<scalar> 
34480
(
4930.69
4928.68
4928.58
4930.06
4933.25
4938.39
4950.99
5004.57
5194.29
5725.28
654.541
601.398
600.534
652.5
838.009
1575.47
5100.33
22857.4
103737
382430
617.689
522.223
508.663
568.303
809.051
1828.33
7042.37
35127.8
172571
699306
524.007
438.786
426.836
484.544
733.209
1882.78
8219.2
44414.6
232221
1.0109e+06
456.123
384.411
377.051
432.83
684.491
1927.1
9176.95
52585.5
289141
1.33333e+06
392.163
332.616
326.447
378.341
628.239
1956
10119.8
61033.4
350548
1.6982e+06
353.072
302.685
298.344
346.4
591.498
1962.67
10724
67183.6
400236
2.02209e+06
321.274
282.09
277.733
317.563
534.299
1820.56
10349.2
66969.4
412539
2.16698e+06
460.064
436.019
433.433
458.862
597.189
1410.19
6840.26
43687.1
275911
1.49804e+06
5708.64
5708.89
5714.35
5726.3
5743.11
5763.16
5787.34
5823.25
5889.59
5958.15
4856.06
4853.56
4853.08
4854.55
4858.54
4865.54
4876.66
4902.75
4965.35
5185.71
511.572
478.782
473.178
487.304
531.682
648.06
1002.32
2354.52
11805.8
103670
446.392
383.416
369.768
389.179
457.927
645.11
1228.94
3567.06
21366.8
197705
399.133
338.299
324.895
344.607
416.029
619.655
1293.69
4288.69
30240.2
294808
365.514
310.886
300.399
319.617
390.538
598.575
1321.17
4810.7
38715.8
396503
326.121
278.828
269.064
286.364
352.137
553.983
1293.68
5178.59
47339.6
508492
302.412
260.792
252.653
267.937
328.943
521.457
1255.99
5359.24
54200
607665
283.056
249.964
242.32
253.962
301.638
456.737
1074.66
4826.46
54972.6
651830
432.878
411.019
405.933
413.412
443.533
531.737
848.133
2979.76
36384.5
467369
5591.15
5586.86
5587.38
5594.01
5605.68
5620.25
5639.59
5672.56
5740.16
5912.91
4770.89
4768.5
4767.75
4768.56
4771.17
4775.31
4780.15
4790.92
4814.98
4869.98
399.669
386.254
383.602
388.37
403.505
438.856
526.894
758.61
1517.52
5760.73
307.807
276.609
269.797
278.981
309.378
378.972
550.094
1030.11
2861.06
14997.7
290.001
256.222
248.576
259.156
294.292
378.157
596.854
1279.44
4410.47
28934.1
280.675
247.767
241.346
252.307
289.399
380.131
628.705
1480.76
6140.78
47824.3
261.223
231.016
224.551
234.957
270.648
361.578
625.011
1624.96
8149.87
73160.4
250.487
222.509
216.943
226.446
260.542
349.191
617.099
1723.91
10162.7
101590
243.061
220.127
214.736
222.376
249.724
322.255
549.956
1593.95
11039.2
122868
402.771
386.45
382.711
388.369
408.809
461.666
607.134
1235.25
7677.28
92056.6
5481.47
5474.4
5472.11
5475.69
5484.47
5496.46
5512.94
5543.69
5616.1
5801.39
4674.84
4673.34
4672.91
4673.54
4675.33
4677.64
4678.65
4681.46
4688.86
4704.95
328.388
324.278
323.462
324.565
328.652
338.996
365.005
421.666
541.509
940.801
219.158
205.91
203.069
207.118
220.51
248.802
308.967
445.284
772.664
2087.47
214.308
197.602
193.682
199.207
217.155
256.626
345.388
565.425
1169.94
4144.57
217.482
199.465
195.893
202.096
222.691
269.21
379.382
675.737
1611.28
7159.14
210.663
192.738
188.715
195.11
216.334
266.391
391.99
761.372
2117.36
11603.6
208.493
190.733
187.103
193.263
214.661
266.179
401.033
827.114
2632.75
17125.3
209.998
194.741
191.033
196.335
214.41
258.957
379.809
794.971
2859.66
21847.5
375.751
363.78
360.954
365.151
380.117
417.038
508.757
782.549
2180.07
16537.5
5359.48
5352.42
5349.87
5352.93
5361.19
5373.56
5390.68
5421.51
5488.27
5631.39
4569.41
4568.72
4568.58
4568.98
4569.94
4570.68
4569.38
4568.24
4568.18
4569.93
285.508
284.775
284.678
284.451
284.448
286.161
293.4
307.434
329.876
376.138
167.838
162.818
161.781
163.205
168.241
178.467
198.271
237.483
308.352
484.664
166.412
158.689
156.735
159.235
167.488
184.717
219.51
294.188
443.318
890.509
173.88
164.578
162.653
165.746
176.191
198.517
245.972
356.376
601.46
1499.01
173.603
163.419
160.936
164.484
176.216
202.43
261.412
410.778
783.734
2436.08
176.1
165.209
162.848
166.477
179.11
207.903
275.341
457.424
966.178
3641.45
183.382
173.514
170.954
174.34
185.667
212.226
276.692
463.461
1058.16
4746.15
351.425
342.834
340.656
343.548
354.089
379.289
438.179
581.443
1009.03
3812.52
5229.82
5222.9
5220.19
5222.77
5230.38
5242.46
5259.11
5287.47
5343.11
5445.4
4455.57
4455.51
4455.59
4455.81
4456.18
4455.88
4453.85
4451.76
4449.98
4448.9
259.827
259.917
260.002
259.483
258.487
258.047
259.956
263.34
268.125
275.408
139.42
137.771
137.504
137.891
139.509
142.754
148.667
159.216
175.291
203.203
137.516
134.133
133.212
134.26
137.811
144.876
157.813
182.36
222.592
303.249
145.038
140.506
139.56
140.989
145.956
156.003
175.299
215.139
286.361
458.364
147.367
141.849
140.401
142.266
148.422
161.442
187.846
247.217
363.983
702.162
151.8
145.404
143.963
145.991
153.115
168.469
200.802
278.229
443.999
1014.33
162.305
156.21
154.541
156.622
163.448
178.699
212.144
297.386
500.188
1320.47
329.545
323.656
322.053
324.006
331.342
348.573
387.048
467.534
639.728
1290
5091.88
5085.35
5082.66
5084.86
5091.77
5103.05
5118.53
5143.42
5186.46
5253.68
4334.04
4334.39
4334.62
4334.72
4334.7
4333.77
4331.9
4329.89
4328.07
4326.73
243.832
243.797
243.826
243.348
242.412
241.937
242.304
243.048
244.179
245.992
123.98
123.565
123.573
123.613
124
124.848
126.395
128.992
132.549
137.266
120.663
119.224
118.802
119.217
120.689
123.509
128.258
136.258
147.59
163.845
126.671
124.567
124.146
124.759
127.011
131.344
138.952
152.921
174.386
210.678
129.521
126.642
125.834
126.768
129.872
136.122
147.651
170.666
209.245
285.935
134.294
130.667
129.833
130.906
134.776
142.703
157.834
189.996
247.75
381.633
146.204
142.606
141.568
142.795
146.754
155.252
172.357
210.885
286.823
489.856
310.207
306.363
305.208
306.5
311.574
323.519
349.13
396.266
479.823
667.276
4945.42
4939.49
4936.96
4938.82
4944.94
4954.98
4968.72
4989.7
5022.13
5065.95
4205.33
4205.93
4206.25
4206.28
4206.04
4204.97
4203.48
4201.88
4200.45
4199.38
232.936
232.526
232.427
232.069
231.466
231.265
231.284
231.44
231.842
232.841
115.605
115.582
115.661
115.612
115.618
115.73
116.003
116.512
117.218
118.021
111.056
110.449
110.256
110.416
111.021
112.151
113.938
116.651
120.088
123.843
115.302
114.372
114.21
114.454
115.438
117.26
120.244
125.172
131.926
140.417
117.77
116.321
115.889
116.339
117.86
120.805
125.847
134.828
148.214
167.606
122.106
120.112
119.655
120.195
122.242
126.262
133.352
146.744
167.883
202.444
134.261
132.244
131.631
132.33
134.55
139.182
147.949
165.469
195.79
252.15
293.217
290.86
290.033
290.888
294.432
302.966
320.339
348.946
394.001
462.475
4790.29
4785.12
4782.85
4784.41
4789.65
4798.17
4809.85
4826.83
4850.68
4879.59
4069.78
4070.52
4070.88
4070.87
4070.51
4069.63
4068.53
4067.37
4066.34
4065.55
224.521
223.734
223.506
223.261
222.998
222.946
222.927
222.993
223.286
224.185
111.014
111.076
111.151
111.096
111.019
110.945
110.892
110.895
110.967
111.08
105.709
105.445
105.353
105.414
105.669
106.137
106.843
107.829
108.979
110.001
108.456
108.065
108.019
108.107
108.525
109.277
110.452
112.231
114.477
116.731
110.277
109.574
109.351
109.562
110.29
111.659
113.887
117.493
122.442
128.114
113.896
112.827
112.591
112.851
113.914
115.937
119.306
125.042
133.263
143.387
125.629
124.57
124.228
124.616
125.823
128.305
132.826
140.954
153.767
171.825
278.232
276.914
276.31
276.891
279.437
285.768
297.738
315.657
341.435
371.218
4626.48
4622.16
4620.21
4621.49
4625.83
4632.73
4642.24
4655.45
4672.53
4691.49
3927.77
3928.42
3928.81
3928.78
3928.43
3927.8
3927.04
3926.24
3925.54
3924.97
216.943
216.046
215.711
215.549
215.496
215.475
215.476
215.553
215.854
216.751
108.401
108.462
108.514
108.473
108.401
108.305
108.205
108.121
108.081
108.089
102.816
102.689
102.641
102.666
102.78
102.988
103.289
103.683
104.115
104.445
104.458
104.301
104.297
104.325
104.5
104.81
105.279
105.94
106.723
107.401
105.661
105.333
105.222
105.319
105.661
106.289
107.279
108.766
110.698
112.642
108.55
107.985
107.869
107.991
108.541
109.561
111.193
113.742
117.135
120.566
119.515
119.009
118.832
119.044
119.683
120.999
123.328
127.166
132.793
139.504
264.809
264.187
263.723
264.144
266.057
270.901
279.236
290.74
306.071
320.231
4454.11
4450.66
4449.09
4450.1
4453.53
4458.88
4466.33
4476.21
4488.1
4500.34
3779.43
3779.95
3780.28
3780.25
3780.02
3779.6
3779.09
3778.56
3778.1
3777.68
209.496
208.612
208.269
208.161
208.128
208.125
208.146
208.241
208.555
209.448
106.801
106.843
106.876
106.848
106.794
106.72
106.64
106.57
106.535
106.543
101.299
101.23
101.202
101.214
101.27
101.371
101.513
101.69
101.878
102.005
102.204
102.139
102.145
102.153
102.229
102.364
102.561
102.823
103.111
103.343
102.926
102.779
102.725
102.77
102.927
103.213
103.652
104.277
105.055
105.815
105.187
104.887
104.833
104.892
105.18
105.706
106.516
107.699
109.17
110.49
115.233
115.028
114.946
115.062
115.394
116.088
117.27
119.09
121.582
124.378
252.464
252.294
251.908
252.239
253.766
257.502
263.328
270.828
280.215
287.038
4273.48
4270.86
4269.65
4270.42
4273.01
4277
4282.59
4289.71
4297.75
4305.5
3624.91
3625.33
3625.58
3625.57
3625.43
3625.16
3624.82
3624.48
3624.18
3623.86
201.835
200.977
200.664
200.57
200.545
200.55
200.581
200.682
200.998
201.874
105.706
105.728
105.745
105.727
105.692
105.644
105.593
105.55
105.537
105.557
100.532
100.49
100.473
100.479
100.509
100.562
100.635
100.724
100.819
100.876
100.983
100.951
100.954
100.957
100.995
101.063
101.159
101.278
101.399
101.495
101.375
101.311
101.286
101.307
101.379
101.508
101.702
101.967
102.287
102.62
103.146
102.98
102.955
102.986
103.145
103.429
103.849
104.429
105.104
105.675
112.217
112.164
112.135
112.2
112.372
112.733
113.314
114.164
115.233
116.495
240.734
240.842
240.491
240.777
242.074
244.877
248.927
253.841
259.713
262.773
4085
4083.12
4082.25
4082.81
4084.65
4087.54
4091.58
4096.52
4101.78
4106.59
3464.41
3464.75
3464.95
3464.95
3464.86
3464.69
3464.48
3464.26
3464.07
3463.8
193.779
192.956
192.672
192.588
192.567
192.574
192.606
192.704
193.013
193.862
104.854
104.862
104.869
104.858
104.836
104.809
104.78
104.759
104.763
104.792
100.16
100.133
100.124
100.127
100.143
100.17
100.208
100.255
100.308
100.338
100.353
100.33
100.328
100.33
100.354
100.397
100.455
100.524
100.587
100.64
100.539
100.512
100.5
100.51
100.544
100.602
100.688
100.802
100.935
101.097
101.945
101.846
101.834
101.854
101.949
102.114
102.347
102.655
102.989
103.275
110.028
110.046
110.043
110.083
110.174
110.352
110.621
110.999
111.41
112.023
229.203
229.47
229.124
229.39
230.517
232.482
235.258
238.461
242.18
243.227
3889.23
3887.98
3887.4
3887.79
3889.01
3891.06
3893.85
3897.15
3900.48
3903.4
3298.21
3298.5
3298.65
3298.66
3298.61
3298.51
3298.37
3298.23
3298.11
3297.88
185.22
184.437
184.181
184.109
184.088
184.094
184.122
184.211
184.506
185.321
104.119
104.118
104.119
104.112
104.1
104.086
104.073
104.066
104.082
104.116
99.9893
99.9734
99.9693
99.9708
99.9779
99.9903
100.008
100.031
100.061
100.079
100.046
100.026
100.02
100.022
100.04
100.072
100.115
100.163
100.206
100.244
100.116
100.104
100.098
100.103
100.119
100.146
100.185
100.235
100.291
100.38
101.253
101.188
101.181
101.197
101.259
101.363
101.504
101.683
101.867
102.039
108.337
108.391
108.402
108.428
108.474
108.553
108.661
108.811
108.92
109.244
217.313
217.828
217.505
217.764
218.574
219.917
221.773
223.831
226.188
226.153
3686.95
3686.1
3685.75
3685.99
3686.82
3688.21
3690.06
3692.16
3694.17
3695.92
3126.73
3126.98
3127.09
3127.1
3127.07
3127.01
3126.93
3126.84
3126.75
3126.54
176.076
175.337
175.11
175.049
175.028
175.03
175.053
175.13
175.407
176.185
103.442
103.436
103.433
103.429
103.423
103.418
103.415
103.417
103.439
103.477
99.9203
99.9127
99.9121
99.9125
99.9142
99.9171
99.9223
99.9311
99.9476
99.9602
99.9113
99.8926
99.8847
99.8861
99.9006
99.9264
99.9602
99.9975
100.031
100.061
99.9203
99.9134
99.9096
99.9119
99.9202
99.9342
99.953
99.9762
100.001
100.054
100.852
100.805
100.799
100.813
100.857
100.927
101.019
101.133
101.245
101.368
106.927
106.995
107.015
107.031
107.051
107.08
107.11
107.152
107.126
107.319
204.83
205.484
205.287
205.469
206.011
206.893
208.087
209.377
210.848
210.262
3478.9
3478.35
3478.13
3478.3
3478.84
3479.72
3480.89
3482.16
3483.31
3484.33
2950.49
2950.7
2950.78
2950.79
2950.78
2950.74
2950.69
2950.63
2950.57
2950.38
166.268
165.576
165.38
165.331
165.307
165.307
165.323
165.387
165.642
166.379
102.8
102.791
102.785
102.782
102.781
102.782
102.785
102.792
102.817
102.857
99.9031
99.9008
99.9023
99.902
99.9005
99.898
99.8961
99.8967
99.9047
99.9152
99.8639
99.8473
99.839
99.8399
99.8511
99.8711
99.8973
99.9259
99.9521
99.9769
99.8448
99.8393
99.8363
99.8373
99.8421
99.8501
99.8602
99.8721
99.8838
99.9182
100.604
100.569
100.564
100.575
100.607
100.656
100.719
100.795
100.868
100.965
105.661
105.726
105.749
105.76
105.767
105.773
105.768
105.766
105.686
105.819
191.581
192.286
192.191
192.314
192.656
193.201
193.921
194.698
195.579
194.762
3265.97
3265.64
3265.51
3265.61
3265.94
3266.47
3267.16
3267.88
3268.49
3269.07
2770.21
2770.39
2770.45
2770.46
2770.46
2770.43
2770.4
2770.36
2770.31
2770.14
155.697
155.057
154.888
154.851
154.834
154.833
154.842
154.891
155.118
155.814
102.187
102.176
102.168
102.166
102.167
102.171
102.177
102.187
102.212
102.255
99.9121
99.9122
99.9142
99.9136
99.9107
99.9061
99.9011
99.8981
99.901
99.9114
99.8597
99.8459
99.8385
99.8388
99.8467
99.8611
99.8799
99.9008
99.9207
99.9408
99.8316
99.8266
99.824
99.8242
99.8271
99.8319
99.8377
99.8441
99.8501
99.8722
100.427
100.4
100.395
100.404
100.426
100.46
100.502
100.552
100.601
100.678
104.461
104.513
104.535
104.543
104.545
104.541
104.525
104.507
104.416
104.518
177.424
178.108
178.093
178.172
178.367
178.668
179.047
179.483
179.954
179.114
3049.22
3049.04
3048.97
3049.03
3049.21
3049.51
3049.89
3050.25
3050.54
3050.86
2586.9
2587.04
2587.09
2587.1
2587.1
2587.08
2587.06
2587.03
2586.99
2586.83
144.233
143.654
143.514
143.489
143.485
143.482
143.485
143.517
143.707
144.357
101.61
101.597
101.589
101.587
101.589
101.594
101.601
101.612
101.634
101.677
99.9313
99.9311
99.9325
99.9317
99.9288
99.9245
99.9195
99.916
99.9166
99.9275
99.877
99.8665
99.8609
99.8607
99.8656
99.8748
99.8869
99.9007
99.9148
99.9303
99.8511
99.8471
99.845
99.8448
99.8462
99.8486
99.8515
99.8545
99.8573
99.8704
100.27
100.25
100.246
100.251
100.265
100.286
100.311
100.341
100.373
100.432
103.293
103.329
103.347
103.352
103.351
103.344
103.326
103.305
103.225
103.306
162.201
162.809
162.857
162.904
162.992
163.112
163.241
163.44
163.612
162.889
2829.97
2829.88
2829.84
2829.87
2829.97
2830.11
2830.3
2830.45
2830.57
2830.72
2401.68
2401.79
2401.82
2401.83
2401.83
2401.82
2401.8
2401.78
2401.75
2401.63
131.646
131.153
131.062
131.051
131.05
131.046
131.042
131.056
131.188
131.771
101.087
101.072
101.064
101.062
101.064
101.068
101.075
101.085
101.102
101.143
99.9485
99.9467
99.9468
99.9459
99.9439
99.9411
99.9381
99.9359
99.9362
99.9466
99.9072
99.9003
99.8966
99.8963
99.8989
99.904
99.9108
99.9189
99.9277
99.9383
99.8892
99.8867
99.8853
99.8849
99.8852
99.8859
99.8866
99.8873
99.8881
99.8942
100.117
100.104
100.101
100.103
100.11
100.121
100.134
100.148
100.166
100.205
102.171
102.19
102.2
102.201
102.197
102.188
102.171
102.152
102.098
102.159
145.444
145.921
145.955
145.991
146.051
146.131
146.212
146.272
146.203
145.683
2609.63
2609.59
2609.58
2609.59
2609.62
2609.67
2609.72
2609.76
2609.8
2609.87
2215
2215.07
2215.07
2215.07
2215.07
2215.07
2215.07
2215.07
2215.06
2215.01
117.388
117.051
117.02
117.025
117.027
117.022
117.012
117.005
117.049
117.478
100.625
100.609
100.601
100.598
100.598
100.602
100.608
100.617
100.63
100.663
99.9654
99.9631
99.9625
99.9618
99.9609
99.9598
99.9587
99.9581
99.9588
99.9655
99.95
99.9463
99.9444
99.9442
99.9454
99.9478
99.951
99.9549
99.9595
99.9653
99.9401
99.9391
99.9384
99.9381
99.9379
99.9378
99.9375
99.937
99.9367
99.9383
100.008
100.003
100.001
100.002
100.005
100.009
100.013
100.018
100.025
100.043
101.126
101.128
101.13
101.128
101.123
101.113
101.101
101.088
101.069
101.113
125.756
126.039
126.057
126.078
126.11
126.153
126.195
126.218
126.168
125.826
2388.95
2388.93
2388.93
2388.93
2388.94
2388.94
2388.94
2388.93
2388.91
2388.96
7182.83
7292.99
7249.17
7042.69
658978
683890
689423
697242
1.49734e+06
1.58394e+06
1.59141e+06
1.57143e+06
2.52472e+06
2.70281e+06
2.70022e+06
2.61865e+06
3.75969e+06
4.05448e+06
4.02811e+06
3.86658e+06
5.30596e+06
5.74882e+06
5.6973e+06
5.48477e+06
6.86581e+06
7.46422e+06
7.40044e+06
7.20412e+06
7.88017e+06
8.60754e+06
8.55283e+06
8.42519e+06
5.61767e+06
6.17666e+06
6.11245e+06
6.07883e+06
7902.41
8149.99
7987.64
7568.64
5748.87
5801.61
5804.09
5764.91
308546
324632
345269
377168
689274
780697
824686
861448
1.17773e+06
1.4024e+06
1.46551e+06
1.49132e+06
1.76302e+06
2.17667e+06
2.25048e+06
2.26387e+06
2.4579e+06
3.11095e+06
3.21024e+06
3.24628e+06
3.13051e+06
4.03841e+06
4.19927e+06
4.31829e+06
3.57197e+06
4.7021e+06
4.94346e+06
5.17858e+06
2.80567e+06
3.81699e+06
4.00553e+06
4.31882e+06
7125.16
7356.55
7285.54
7065.33
4937.7
4948.64
4947.79
4938.08
21665.3
25964.4
24599.5
19965.4
61580.6
73414.5
68678.2
55724.8
128751
152821
140861
114003
228331
270463
246189
199369
372285
441767
401232
326291
545144
648255
591348
485212
702538
839015
769219
636584
584179
696499
629004
524384
6343.41
6430.63
6408.3
6313.03
4715.84
4717.94
4718.49
4717.71
1594.92
1712
1680.52
1545.47
4700.09
5174.16
5013.93
4435.52
11233.2
12506.1
11926.5
10213.5
22555.7
25250.5
23694.6
19742
41686.8
46909.5
43513
35526.4
68277.6
76953.1
70763.5
57106
97124.3
109858
100389
80390.7
83311.6
93704.8
84141.1
67223.4
5903.24
5944.89
5941.99
5904.09
4567.84
4568.73
4568.94
4568.42
423.435
436.367
438.622
431.707
710.461
757.356
761.834
731.642
1595.56
1737.14
1729.5
1610.51
3204.08
3529.13
3458.04
3118.34
6139.95
6821.76
6580.99
5756.7
10496.1
11688.9
11103.7
9468.57
15686.3
17545.8
16453.4
13716.9
13851.7
15385.7
14102.4
11577.6
5578.04
5600.05
5601.52
5585.92
4444.78
4445.52
4445.59
4444.98
275.655
278.521
279.232
277.977
226.449
231.527
233.345
232.312
385.715
403.151
407.361
400.609
674.193
717.869
722.05
696.094
1215.22
1316.24
1312.27
1233.22
2023.33
2210.58
2174.65
1990.49
3045.81
3358.47
3259.66
2902.63
2927.06
3180.7
3020.72
2661.89
5317.57
5328.34
5330.47
5324.91
4322.44
4323.14
4323.2
4322.58
241.821
243.721
244.119
243.064
140.17
140.913
141.261
141.249
175.912
178.589
179.707
179.457
243.253
250.24
252.452
250.759
369.011
386.56
390.243
383.109
549.173
582.503
585.064
565.559
795.237
854.491
851.536
806.566
984.105
1028.96
1009.42
961.736
5095.24
5100.11
5101.96
5100.7
4195.32
4196
4196.06
4195.47
228.129
229.843
230.18
229.171
118.208
118.339
118.39
118.368
125.873
126.313
126.532
126.56
146.053
147.266
147.799
147.778
183.426
186.911
188.159
187.595
233.776
240.289
242.013
240.22
314.517
327.028
328.923
323.362
542.784
548.38
545.831
542.155
4893.17
4895.17
4896.46
4896.65
4061.77
4062.42
4062.47
4061.92
219.518
221.17
221.497
220.523
110.899
110.952
110.959
110.92
110.358
110.425
110.459
110.467
117.776
117.978
118.083
118.114
131.72
132.519
132.863
132.827
149.87
151.21
151.736
151.69
187.314
190.231
191.057
190.39
400.053
397.05
396.286
398.946
4698
4698.69
4699.46
4699.94
3921.47
3922.08
3922.13
3921.62
212.219
213.816
214.136
213.198
107.875
107.921
107.924
107.884
104.49
104.494
104.495
104.494
107.579
107.596
107.607
107.618
113.659
113.875
113.97
113.959
121.953
122.196
122.328
122.401
144.553
145.246
145.498
145.432
335.254
330.161
329.371
332.784
4503.39
4503.49
4503.92
4504.37
3774.46
3775.01
3775.06
3774.59
205.075
206.614
206.925
206.025
106.341
106.388
106.393
106.355
101.991
101.988
101.984
101.982
103.36
103.35
103.344
103.346
106.199
106.275
106.304
106.289
110.759
110.767
110.789
110.839
126.713
126.837
126.885
126.876
297.547
292.033
291.121
294.433
4306.72
4306.59
4306.82
4307.16
3620.92
3621.42
3621.45
3621.03
197.675
199.153
199.453
198.591
105.372
105.418
105.424
105.388
100.854
100.852
100.849
100.848
101.489
101.48
101.474
101.473
102.816
102.854
102.866
102.851
105.71
105.677
105.673
105.701
117.988
117.962
117.941
117.927
271.403
265.949
264.992
268.102
4106.78
4106.6
4106.71
4106.93
3461.14
3461.58
3461.61
3461.23
189.849
191.262
191.552
190.731
104.625
104.668
104.674
104.641
100.318
100.317
100.316
100.315
100.636
100.631
100.627
100.625
101.223
101.247
101.253
101.24
103.284
103.255
103.246
103.261
113.186
113.125
113.083
113.06
250.806
245.561
244.612
247.53
3902.96
3902.84
3902.89
3902.99
3295.51
3295.89
3295.9
3295.57
181.509
182.855
183.133
182.354
103.967
104.007
104.013
103.983
100.064
100.064
100.063
100.063
100.244
100.242
100.239
100.237
100.468
100.486
100.49
100.479
102.068
102.051
102.044
102.049
110.237
110.175
110.129
110.097
232.978
227.992
227.081
229.82
3695.08
3695.05
3695.07
3695.07
3124.49
3124.79
3124.8
3124.51
172.586
173.864
174.131
173.396
103.349
103.387
103.392
103.365
99.9508
99.9518
99.9517
99.9505
100.064
100.063
100.062
100.06
100.118
100.131
100.133
100.125
101.422
101.416
101.412
101.41
108.199
108.148
108.103
108.063
216.456
211.759
210.901
213.468
3483.24
3483.32
3483.33
3483.24
2948.65
2948.88
2948.87
2948.64
163.011
164.222
164.479
163.79
102.758
102.793
102.798
102.772
99.9127
99.9148
99.915
99.9132
99.9821
99.9822
99.9814
99.98
99.9633
99.9725
99.9735
99.9666
101.038
101.041
101.039
101.032
106.604
106.572
106.532
106.481
200.39
196.012
195.222
197.608
3267.82
3268.01
3268.02
3267.85
2768.77
2768.93
2768.9
2768.71
152.7
153.846
154.095
153.454
102.191
102.225
102.23
102.205
99.916
99.9193
99.9196
99.9171
99.9471
99.9478
99.9475
99.9464
99.9024
99.9084
99.9086
99.9034
100.759
100.769
100.769
100.759
105.208
105.199
105.165
105.105
184.22
180.216
179.512
181.694
3049.51
3049.79
3049.8
3049.59
2585.86
2585.94
2585.89
2585.76
141.55
142.641
142.886
142.288
101.649
101.681
101.686
101.662
99.9379
99.9422
99.9426
99.9394
99.9371
99.9382
99.9383
99.9375
99.8881
99.8914
99.8913
99.8879
100.509
100.522
100.523
100.512
103.877
103.891
103.866
103.8
167.52
164.009
163.415
165.332
2829.36
2829.68
2829.7
2829.47
2401.11
2401.1
2401.04
2400.97
129.378
130.431
130.67
130.108
101.141
101.169
101.173
101.151
99.9591
99.9636
99.9641
99.9608
99.9446
99.9458
99.9462
99.9458
99.902
99.9033
99.903
99.9015
100.266
100.279
100.28
100.271
102.556
102.581
102.566
102.507
149.609
146.665
146.223
147.859
2608.66
2609.04
2609.05
2608.81
2214.99
2214.84
2214.78
2214.83
115.754
116.736
116.942
116.409
100.667
100.684
100.684
100.67
99.9733
99.9761
99.9764
99.9744
99.9696
99.9705
99.9709
99.9709
99.94
99.9401
99.94
99.9397
100.076
100.083
100.084
100.079
101.289
101.297
101.29
101.265
128.324
126.303
126.067
127.224
2388.17
2388.56
2388.56
2388.3
6105.04
5442.55
5172.99
5076.91
5022.11
4983.61
4958.04
4943.7
4935.73
4930.99
797996
193079
33377.6
11721.1
5294.38
2832.48
1746.82
1210.77
926.973
764.025
1.4234e+06
246766
44222.7
15115.9
6768.81
3632.7
2197.47
1458.35
1046.69
801.72
1.99445e+06
239214
46732.3
15003.6
6475.37
3386.45
1997.6
1295.58
911.582
687.555
2.45713e+06
252426
48897.3
14546.4
6090.81
3097.91
1789.44
1142.81
794.429
595.95
2.92885e+06
276217
51103.9
13960.7
5631.87
2764.92
1559.42
979.931
676.6
507.762
3.31105e+06
294796
51963.5
13149.8
5152.92
2464.86
1374.11
860.579
595.061
450.057
3.39525e+06
287240
47669.2
10992.5
4160.02
1944.7
1091.95
699.717
502.601
394.606
2.34069e+06
182062
27355
5707.3
2273.79
1237.31
857.707
671.443
568.087
506.55
6015.32
5992.13
5846.42
5822.05
5778.69
5754.43
5735.19
5724.98
5718.09
5712.16
5442.84
5174.99
5045.16
4972.61
4927.06
4897.06
4877.63
4866.1
4859.89
4855.95
180125
44871.6
13609.5
5321
2634.08
1566.03
1064.17
801.722
655.617
571.723
375475
86367.6
23459.9
8287.81
3886.82
2186.05
1382.57
955.215
709.994
565.036
594706
126174
30686.8
9645.93
4224.61
2259.26
1371.05
914.788
660.831
514.883
830032
164914
36404.8
10409.6
4313.36
2217.41
1308.78
856.615
609.734
471.525
1.1093e+06
207102
41726.4
10854.8
4242.69
2088.99
1197.32
768.038
541.558
418.132
1.38834e+06
244332
45325.9
10841.1
4051.5
1937.05
1094.49
698.899
492.832
382.709
1.56373e+06
258571
43971.2
9544.94
3392.38
1583.71
899.897
587.345
429.693
345.682
1.18178e+06
178649
26837.4
5246.05
1965.55
1090.88
771.401
615.072
526.531
476.284
6251.87
5952.05
5792
5733.22
5682.39
5651.66
5629.4
5615.83
5606.28
5598
4903.84
4869.08
4841.63
4818.82
4801
4788.09
4779.49
4774.34
4771.47
4769.42
9198.64
4176.71
2299.61
1433.04
985.354
735.67
590.975
504.709
452.014
420.203
23996.7
9566.56
4651.37
2547.06
1541.82
1009.86
712.299
537.999
430.794
364.432
45431
15961.9
6937.69
3410.2
1897.35
1158.22
770.918
555.231
428.181
352.441
73575
22897.2
9008.42
4053.65
2118.01
1231.21
791.047
556.154
421.203
343.033
112017
31030
11034.2
4544.67
2233.11
1235.75
766.425
525.822
393.233
318.805
155991
38849.8
12568.1
4790.5
2249.4
1204.74
734.068
500.189
373.248
303.412
191427
42846.7
12511
4381.18
1972.87
1035.73
635.752
442.789
341.631
286.12
141587
27736.5
7298.52
2545.38
1307.05
842.593
642.542
536.493
472.971
436.322
6017.46
5835.03
5710.47
5636.67
5583.62
5550.53
5527.54
5511.89
5500.33
5490.37
4712.86
4704.53
4695.36
4687.12
4680.87
4676.62
4673.97
4672.62
4672.28
4671.89
1208.38
907.011
709.32
570.746
479.381
420.795
383.157
358.413
341.723
331.446
3029.64
1920.62
1271.17
861.142
612.508
460.935
367.104
307.514
268.057
242.172
6221.91
3482.33
2057.98
1252.16
812.691
564.476
420.043
332.966
278.195
243.854
10746.9
5351.22
2877.7
1609.82
978.234
643.834
459.947
354.382
289.768
250.347
17343.9
7664.66
3759.44
1937.59
1104.26
688.572
472.287
353.553
284.307
243.541
25214.7
9942.67
4493.25
2163.75
1177.68
709.036
476.035
352.661
281.829
240.896
32090.2
11234.6
4654.81
2092.88
1099.54
652.203
441.315
332.854
272.733
238.089
23529
7361.01
2959.17
1442.31
905.645
663.355
542.514
472.628
427.909
401.499
5788.27
5659.77
5561.08
5497.23
5453.18
5424.32
5403.63
5388.79
5377.6
5368.13
4567.45
4566.24
4565
4564.03
4563.45
4563.21
4563.24
4563.61
4564.53
4565.36
412.903
383.201
356.886
335.038
318.548
306.457
297.577
290.926
285.835
282.598
638.099
512.966
412.063
334.718
279.856
241.99
216.07
198.15
185.201
176.132
1287.76
926.59
666.548
486.379
369.828
294.91
246.571
214.878
193.415
179.218
2276.46
1481.96
973.307
652.671
462.648
348.668
279.509
236.613
208.29
189.939
3814.06
2240.49
1346.19
830.046
548.439
389.992
299.27
245.595
212.066
191.216
5702.06
3042.64
1694.84
977.349
614.212
420.494
314.772
254.679
217.636
194.933
7456.89
3596.88
1859.18
1011.21
616.166
416.762
313.234
255.85
221.765
201.033
5658.06
2634.58
1434.92
903.535
665.585
539.231
466.791
421.19
389.983
371.158
5534.97
5458.94
5393.71
5347.34
5313.45
5289.21
5270.97
5257.28
5246.72
5237.91
4444.64
4444.78
4445.07
4445.55
4446.15
4446.79
4447.44
4448.25
4449.46
4450.89
277.972
275.002
271.525
268.075
265.032
262.451
260.282
258.424
256.794
255.499
226.03
211.023
195.092
180.739
169.194
160.398
153.857
148.961
145.028
142.062
373.286
322.008
273.348
233.384
203.637
182.265
167.078
156.222
148.263
142.739
613.319
488.128
382.049
302.83
248.734
212.549
188.433
172.213
160.517
152.449
1013.09
737.585
529.013
386.348
296.463
240.101
204.606
181.807
166.409
156.308
1521.64
1022.07
680.695
465.503
339.649
265.039
220.269
192.724
174.27
162.25
2044.29
1265.82
789.31
513.751
364.629
280.757
232.555
203.491
184.881
172.984
1812.93
1181.32
824.284
628.385
519.617
452.591
409.08
379.51
357.954
344.712
5302.71
5261.07
5221.25
5189.39
5163.97
5144.25
5128.69
5116.55
5106.96
5099.08
4322.35
4322.64
4323.09
4323.69
4324.38
4325.07
4325.72
4326.48
4327.63
4329.08
244.227
244.078
243.728
243.248
242.721
242.177
241.622
241.032
240.388
239.63
140.709
138.66
136.093
133.501
131.224
129.36
127.888
126.703
125.587
124.655
176.604
168.332
158.747
149.727
142.175
136.152
131.434
127.746
124.823
122.728
241.613
220.14
197.575
178.213
163.282
152.2
144.081
138.148
133.434
129.98
355.602
303.592
254.454
215.681
187.912
168.512
155.015
145.554
138.634
133.895
503.668
404.09
317.851
255.147
213.319
185.691
167.362
155.097
146.113
139.918
680.673
512.913
382.134
294.575
239.985
205.557
183.545
169.076
159.12
152.5
826.073
674.708
558.798
480.989
428.605
391.881
365.415
346.19
331.348
322.075
5091.21
5069.33
5045.55
5023.97
5005.29
4989.77
4976.97
4966.63
4958.26
4951.49
4195.25
4195.46
4195.8
4196.26
4196.77
4197.28
4197.75
4198.31
4199.24
4200.51
230.477
230.71
230.813
230.819
230.755
230.627
230.429
230.142
229.738
229.102
118.356
118.096
117.729
117.321
116.946
116.64
116.408
116.212
115.932
115.645
126.174
124.633
122.571
120.39
118.36
116.576
115.045
113.748
112.654
111.863
146.61
142.549
137.518
132.647
128.454
125.02
122.275
120.118
118.223
116.753
183.543
172.734
160.68
149.852
141.105
134.305
129.096
125.136
122.028
119.848
231.487
210.383
188.199
169.777
155.829
145.549
138.023
132.579
128.23
125.078
302.666
263.76
227.055
198.723
178.448
164.108
153.973
146.773
141.506
137.917
515.2
472.335
430.018
396.006
369.243
348.405
332.048
319.468
309.25
302.784
4892.01
4880.26
4865.88
4851.43
4838.02
4826.23
4816.11
4807.66
4800.64
4795.05
4061.7
4061.84
4062.05
4062.35
4062.69
4063.01
4063.28
4063.63
4064.33
4065.39
221.818
222.086
222.233
222.3
222.303
222.244
222.112
221.882
221.517
220.885
110.959
110.951
110.939
110.921
110.915
110.932
110.973
111.01
110.959
110.865
110.393
110.051
109.543
108.948
108.343
107.767
107.236
106.754
106.33
106.029
117.933
117.071
115.855
114.547
113.309
112.209
111.27
110.491
109.725
109.091
132.006
129.394
126.147
122.869
119.924
117.411
115.325
113.631
112.227
111.239
150.374
145.463
139.362
133.626
128.745
124.773