/*--------------------------------*- C++ -*----------------------------------*\
| =========                 |                                                 |
| \\      /  F ield         | foam-extend: Open Source CFD                    |
|  \\    /   O peration     | Version:     4.0                                |
|   \\  /    A nd           | Web:         http://www.foam-extend.org         |
|    \\/     M anipulation  |                                                 |
\*---------------------------------------------------------------------------*/
FoamFile
{
    version     2.0;
    format      ascii;
    class       volScalarField;
    location    "1500";
    object      k;
}
// * * * * * * * * * * * * * * * * * * * * * * * * * * * * * * * * * * * * * //

dimensions      [0 2 -2 0 0 0 0];

internalField   nonuniform List<scalar> 
34480
(
8.76723
8.76484
8.76472
8.76648
8.77026
8.77637
8.79129
8.85458
9.07695
9.68543
9.27083
8.66052
8.56841
8.848
9.4468
10.334
11.9349
15.8518
28.7454
67.0344
15.0221
13.5545
13.1099
13.2591
13.8303
14.8649
17.202
22.9053
41.6501
101.435
14.4764
12.9512
12.5028
12.6979
13.409
14.8245
17.9981
25.4036
49.2598
127.806
13.4174
12.0042
11.6548
11.9226
12.7746
14.4851
18.2544
26.9516
55.2728
151.586
12.2122
10.9411
10.6301
10.9127
11.805
13.6987
17.9392
27.8977
61.0565
176.651
11.3221
10.204
9.95068
10.2265
11.1224
13.0884
17.5891
28.4157
65.5081
197.992
9.83729
9.00259
8.79876
9.01525
9.72855
11.3991
15.4924
26.1212
64.53
205.557
6.88194
6.61392
6.5656
6.67587
7.00548
7.73016
9.73024
16.2714
43.3996
149.625
9.23797
9.23825
9.24414
9.25702
9.27512
9.29671
9.32268
9.36121
9.43216
9.50519
8.67855
8.67556
8.67499
8.67675
8.6815
8.68984
8.70309
8.73409
8.80828
9.06696
7.92393
7.50485
7.41188
7.56958
8.01628
8.85841
10.3005
12.1054
15.4305
41.182
12.2234
11.1617
10.8703
11.0739
11.7526
13.0139
15.2127
18.1181
23.7944
66.4425
12.129
10.9622
10.6444
10.888
11.6929
13.243
16.0234
20.0077
28.3937
86.213
11.5911
10.4589
10.1932
10.4696
11.3622
13.1028
16.2903
21.0679
31.8407
104.322
10.8001
9.75141
9.49701
9.77124
10.6696
12.4957
15.9639
21.4492
34.8321
123.715
10.2116
9.26103
9.0448
9.29889
10.1725
12.0006
15.6064
21.5469
37.1
140.948
9.05247
8.33183
8.14847
8.34052
9.01857
10.5162
13.6624
19.2815
35.6923
147.338
6.64459
6.3977
6.34378
6.41814
6.68291
7.26784
8.61424
11.5603
22.4834
102.381
9.11078
9.10612
9.10668
9.11389
9.12655
9.14237
9.16332
9.199
9.27194
9.45703
8.57678
8.57391
8.57301
8.57398
8.57712
8.58209
8.58788
8.60078
8.62955
8.69513
6.77912
6.56783
6.51395
6.58989
6.82123
7.26828
8.0634
9.35906
11.1373
16.4393
9.68433
9.06457
8.91166
9.07948
9.59915
10.5542
12.1701
14.5676
17.5512
29.191
9.8828
9.1455
8.96071
9.17477
9.83395
11.0893
13.2813
16.6369
21.1147
40.7784
9.75504
9.00083
8.83865
9.07555
9.8138
11.2567
13.8586
17.9343
23.7752
52.2707
9.32803
8.60163
8.43476
8.67289
9.42711
10.9723
13.8853
18.6125
26.0178
64.9151
9.01431
8.33093
8.18535
8.40828
9.14983
10.7175
13.8009
18.9511
27.7391
76.929
8.19453
7.66705
7.53834
7.70907
8.28424
9.56649
12.2711
17.1586
26.6416
82.8668
6.3736
6.1817
6.14209
6.20316
6.41411
6.87673
7.92514
10.367
16.6924
57.0837
8.99123
8.9835
8.98099
8.98491
8.99451
9.00762
9.02562
9.05914
9.13786
9.33775
8.46128
8.45946
8.45895
8.45971
8.46187
8.46466
8.4659
8.46927
8.4782
8.49758
6.00672
5.916
5.88897
5.91985
6.02011
6.21288
6.55012
7.13282
7.99826
9.88305
7.80489
7.49228
7.41961
7.51521
7.81676
8.3798
9.33165
10.8209
12.6618
17.0808
8.1214
7.7042
7.60075
7.73834
8.16436
8.98639
10.4199
12.7242
15.5998
23.5639
8.24505
7.7869
7.69041
7.84833
8.34639
9.33345
11.1194
14.0807
17.8827
30.1358
8.0825
7.61461
7.50539
7.67248
8.20193
9.30054
11.3853
14.9907
19.8591
37.6447
7.97529
7.51157
7.41253
7.57424
8.11118
9.25641
11.5216
15.5728
21.3603
44.9634
7.44527
7.07552
6.98387
7.11253
7.53647
8.48222
10.4797
14.3785
20.6437
48.7626
6.13183
5.9851
5.95537
6.00142
6.1588
6.49664
7.22484
8.9841
12.9758
33.0248
8.85733
8.84955
8.84674
8.85011
8.85921
8.87284
8.89167
8.92554
8.99866
9.15444
8.33358
8.33275
8.33257
8.33306
8.33423
8.33513
8.33356
8.33218
8.3321
8.33422
5.53668
5.50222
5.48916
5.49907
5.53532
5.60422
5.71983
5.91207
6.18034
6.62288
6.56416
6.4264
6.39571
6.43611
6.57258
6.83107
7.27067
7.9828
8.88266
10.3615
6.87044
6.6538
6.59734
6.66817
6.89536
7.33787
8.11255
9.40734
11.0473
14.026
7.10105
6.84148
6.78534
6.87272
7.15811
7.72593
8.75763
10.5578
12.8853
17.7827
7.0969
6.81054
6.73906
6.83964
7.16334
7.8354
9.11424
11.4615
14.6105
22.2397
7.12092
6.81845
6.75063
6.85269
7.19753
7.92913
9.37269
12.1283
15.9773
26.6504
6.81384
6.56256
6.49674
6.58294
6.86501
7.48598
8.77834
11.4719
15.6852
29.0103
5.91875
5.80805
5.78542
5.81729
5.92824
6.16039
6.6303
7.74032
10.1019
19.2323
8.71388
8.7062
8.70319
8.70605
8.71451
8.72793
8.74639
8.77781
8.83928
8.95174
8.19459
8.19451
8.19461
8.19488
8.19534
8.19498
8.1925
8.18993
8.18775
8.18642
5.26993
5.25849
5.25216
5.25444
5.26579
5.2877
5.32336
5.37837
5.44852
5.53846
5.80863
5.75709
5.74743
5.76094
5.81201
5.90898
6.07186
6.33537
6.67664
7.14203
6.04238
5.93861
5.90991
5.94244
6.05065
6.25906
6.61574
7.21143
7.98949
9.11076
6.28207
6.14543
6.1157
6.15939
6.30757
6.5971
7.11128
8.02004
9.23799
11.2073
6.35123
6.18573
6.14167
6.19792
6.38085
6.75304
7.44373
8.73876
10.5379
13.8075
6.44259
6.25477
6.21117
6.27138
6.47862
6.90757
7.72865
9.33855
11.6498
16.3957
6.29384
6.13114
6.08653
6.14156
6.31925
6.69988
7.46
9.07508
11.6528
17.7668
5.7333
5.65228
5.63614
5.6575
5.73369
5.88879
6.18397
6.83537
8.09811
11.8409
8.55997
8.55266
8.54964
8.55211
8.55985
8.5725
8.58982
8.61765
8.66565
8.74037
8.0449
8.04533
8.04561
8.04574
8.04572
8.04456
8.04225
8.03977
8.03751
8.03585
5.12646
5.12302
5.11956
5.11951
5.12242
5.12884
5.13904
5.15362
5.17016
5.18635
5.3757
5.36068
5.35983
5.36275
5.3778
5.40704
5.45617
5.53428
5.6342
5.75231
5.52642
5.47941
5.4655
5.4793
5.52738
5.61807
5.76672
6.00364
6.30972
6.68274
5.72734
5.65986
5.64564
5.66564
5.73727
5.87322
6.10413
6.49843
7.03148
7.75269
5.81546
5.72439
5.6986
5.7282
5.82584
6.01872
6.36027
6.98284
7.86618
9.18912
5.92955
5.81784
5.79136
5.82471
5.94311
6.18037
6.6119
7.4383
8.65201
10.6626
5.88428
5.78393
5.75523
5.78866
5.89519
6.11676
6.53629
7.4004
8.80009
11.4692
5.57848
5.52061
5.50971
5.52346
5.57442
5.67549
5.85863
6.23015
6.88858
8.32274
8.39503
8.38833
8.38545
8.38757
8.39449
8.40585
8.42139
8.44507
8.48163
8.5309
7.88483
7.88557
7.88596
7.886
7.88571
7.88438
7.88251
7.88052
7.87873
7.87738
5.05196
5.05071
5.04846
5.04795
5.04858
5.05062
5.05361
5.05753
5.06131
5.06383
5.1379
5.13619
5.13824
5.13786
5.14013
5.14558
5.15604
5.17375
5.19675
5.22101
5.2197
5.19897
5.19237
5.19798
5.21873
5.25706
5.317
5.40597
5.51519
5.62808
5.36839
5.33699
5.33104
5.33949
5.37238
5.43292
5.53088
5.68763
5.89263
6.12833
5.44756
5.39966
5.38527
5.40015
5.45015
5.54603
5.70734
5.98303
6.3671
6.85723
5.5583
5.49436
5.47921
5.49667
5.56181
5.68821
5.90573
6.29692
6.86324
7.64844
5.57496
5.51632
5.49891
5.51833
5.57928
5.70279
5.92558
6.35629
7.04355
8.13435
5.45412
5.4136
5.40667
5.41526
5.44877
5.51361
5.62672
5.83718
6.18406
6.75692
8.21855
8.21263
8.21003
8.21182
8.21782
8.22756
8.24091
8.26029
8.28748
8.32037
7.71446
7.71539
7.71585
7.71584
7.71539
7.71427
7.71288
7.71142
7.71012
7.70912
5.01366
5.01274
5.01106
5.01063
5.01091
5.0119
5.01315
5.01458
5.01566
5.0159
5.01159
5.01371
5.0162
5.0152
5.01386
5.01251
5.012
5.01313
5.0159
5.01909
5.04492
5.03561
5.0324
5.03468
5.04373
5.0602
5.08486
5.11887
5.15802
5.19241
5.14572
5.13188
5.12985
5.13314
5.14769
5.17381
5.21438
5.27482
5.34979
5.4232
5.20576
5.18161
5.17393
5.18114
5.20595
5.25233
5.32715
5.44584
5.60444
5.77883
5.30112
5.26566
5.25746
5.26617
5.30105
5.36687
5.47492
5.65477
5.90396
6.19338
5.35117
5.31901
5.30915
5.31997
5.35319
5.41916
5.53414
5.74131
6.06081
6.49105
5.35811
5.33008
5.32598
5.33127
5.35318
5.3946
5.46445
5.58408
5.76835
6.01975
8.03009
8.02509
8.02284
8.02432
8.02934
8.03733
8.04833
8.06359
8.08329
8.10516
7.53394
7.53478
7.53527
7.53524
7.53478
7.53399
7.53301
7.53199
7.53109
7.53037
4.99324
4.99238
4.99107
4.99079
4.99113
4.99189
4.9928
4.99373
4.99439
4.99438
4.94634
4.94893
4.95103
4.95021
4.94842
4.94596
4.94339
4.94118
4.93984
4.93925
4.94943
4.94491
4.94322
4.9442
4.94839
4.9559
4.96674
4.98074
4.9959
5.00747
5.01322
5.00732
5.00687
5.00805
5.01441
5.02562
5.04247
5.06596
5.09344
5.11713
5.05373
5.04201
5.03806
5.04148
5.05351
5.07554
5.10999
5.16107
5.22645
5.29129
5.1306
5.1113
5.1071
5.11131
5.12975
5.16373
5.21745
5.30052
5.40952
5.51809
5.1962
5.17996
5.17486
5.18068
5.19782
5.23139
5.28876
5.38604
5.53055
5.7052
5.28683
5.26747
5.26526
5.26858
5.28306
5.30978
5.35314
5.42182
5.51971
5.6396
7.82939
7.82534
7.82349
7.82468
7.82871
7.83498
7.8437
7.85526
7.86916
7.88347
7.34304
7.34371
7.34414
7.3441
7.34379
7.34326
7.34259
7.3419
7.34131
7.34076
4.98135
4.9806
4.97964
4.97948
4.97982
4.98049
4.9813
4.98211
4.98272
4.9827
4.91332
4.91547
4.91703
4.91651
4.91511
4.91312
4.91089
4.90878
4.90729
4.90648
4.89955
4.89705
4.89608
4.89655
4.89867
4.90242
4.90767
4.91411
4.92079
4.92529
4.93768
4.93507
4.93507
4.93548
4.93838
4.94344
4.95081
4.96045
4.97098
4.9794
4.96245
4.95694
4.95496
4.95658
4.96234
4.9727
4.98851
5.01069
5.03801
5.06428
5.02251
5.01197
5.0099
5.01196
5.0218
5.03953
5.06667
5.10601
5.15468
5.19825
5.09357
5.08634
5.08407
5.08712
5.09537
5.11141
5.1386
5.18274
5.24582
5.32126
5.23579
5.22229
5.22127
5.22348
5.23335
5.251
5.27827
5.31836
5.37024
5.43115
7.61625
7.61314
7.6117
7.61262
7.6157
7.62043
7.62708
7.63553
7.64506
7.65425
7.1415
7.14204
7.14238
7.14237
7.14218
7.14182
7.14138
7.14093
7.14054
7.14011
4.97345
4.97286
4.9722
4.97212
4.97242
4.97299
4.97368
4.97438
4.97497
4.97489
4.89681
4.89841
4.89951
4.89924
4.89832
4.897
4.89552
4.89411
4.89318
4.89268
4.87477
4.87324
4.87266
4.87291
4.87407
4.87608
4.87885
4.88214
4.88553
4.88757
4.89649
4.89512
4.89513
4.8953
4.8968
4.89941
4.90309
4.90761
4.91216
4.91574
4.91026
4.90771
4.90673
4.90751
4.91027
4.91515
4.92243
4.93218
4.9438
4.95554
4.95702
4.95106
4.95003
4.95114
4.95662
4.96624
4.98046
4.99999
5.02267
5.04191
5.02847
5.02599
5.02532
5.02688
5.03048
5.03745
5.04922
5.068
5.09348
5.12851
5.20033
5.19073
5.1904
5.19205
5.1991
5.21114
5.22869
5.25266
5.2801
5.31302
7.39063
7.38837
7.38732
7.388
7.39022
7.39369
7.39856
7.40452
7.41086
7.41665
6.9291
6.92956
6.92982
6.92982
6.92971
6.92948
6.9292
6.9289
6.92865
6.92829
4.96741
4.96702
4.96661
4.96658
4.96683
4.96727
4.96782
4.96838
4.96892
4.96874
4.88854
4.8897
4.89045
4.89035
4.88982
4.88904
4.88819
4.8874
4.88698
4.88675
4.86323
4.86228
4.86194
4.86208
4.86271
4.8638
4.86529
4.86706
4.86895
4.87001
4.87509
4.87416
4.87404
4.87415
4.87509
4.87673
4.87897
4.88156
4.88398
4.88594
4.88195
4.88076
4.88026
4.88065
4.882
4.88434
4.88773
4.8921
4.89716
4.90299
4.91905
4.91542
4.91488
4.9156
4.91887
4.92447
4.93241
4.94283
4.95419
4.96396
4.98865
4.98844
4.9886
4.98941
4.99072
4.99323
4.99744
5.00438
5.01279
5.03067
5.17609
5.1691
5.16917
5.17055
5.17584
5.18436
5.19602
5.21081
5.22527
5.2445
7.15258
7.15104
7.15034
7.15081
7.15232
7.15482
7.15825
7.16228
7.16636
7.16995
6.70569
6.70608
6.70628
6.70629
6.70623
6.70608
6.7059
6.70571
6.70554
6.70523
4.96228
4.96211
4.9619
4.96191
4.96209
4.96241
4.9628
4.96322
4.96372
4.96343
4.88432
4.88518
4.88568
4.88567
4.8854
4.88502
4.88461
4.88424
4.8842
4.88415
4.85841
4.85786
4.8577
4.85777
4.85808
4.8586
4.85934
4.86025
4.86134
4.86195
4.8646
4.86382
4.8636
4.86369
4.86438
4.86558
4.86717
4.86896
4.87056
4.87191
4.86747
4.86687
4.8666
4.8668
4.86749
4.86866
4.87029
4.87232
4.8746
4.87782
4.89779
4.89537
4.89504
4.8956
4.89774
4.90128
4.90609
4.91217
4.91847
4.9244
4.96463
4.96535
4.96591
4.96635
4.96662
4.9671
4.96785
4.96953
4.97045
4.98085
5.15932
5.15419
5.15447
5.15574
5.15983
5.16612
5.17417
5.18367
5.19114
5.20351
6.90237
6.90131
6.90088
6.90118
6.90222
6.90394
6.90625
6.90887
6.91139
6.91357
6.47119
6.47153
6.47169
6.4717
6.47167
6.47158
6.47146
6.47134
6.47123
6.47094
4.95765
4.9577
4.95764
4.95769
4.95782
4.95802
4.95827
4.95857
4.95905
4.95867
4.88205
4.8827
4.88302
4.88306
4.88296
4.88283
4.88271
4.88263
4.88285
4.88295
4.85689
4.85662
4.85659
4.85661
4.85671
4.85688
4.85715
4.85755
4.85815
4.85856
4.85985
4.85917
4.85889
4.85895
4.85949
4.86042
4.86164
4.86298
4.86418
4.86523
4.8606
4.86024
4.86007
4.86017
4.86055
4.86118
4.86201
4.86301
4.86409
4.86604
4.88601
4.88428
4.88403
4.88449
4.886
4.8884
4.89155
4.8954
4.89927
4.90354
4.94954
4.95049
4.95119
4.95146
4.95134
4.95104
4.95042
4.95
4.94791
4.95495
5.14711
5.14333
5.14376
5.14494
5.14821
5.15304
5.15884
5.1652
5.16881
5.17763
6.64021
6.63951
6.63923
6.63944
6.64013
6.64126
6.64274
6.64435
6.64582
6.64712
6.22568
6.22597
6.22608
6.2261
6.22609
6.22603
6.22596
6.22588
6.2258
6.22552
4.95334
4.95362
4.95368
4.95377
4.95385
4.95394
4.95408
4.95426
4.95478
4.95436
4.88067
4.88116
4.88133
4.88138
4.88139
4.88142
4.88149
4.8816
4.88199
4.88226
4.85695
4.85686
4.8569
4.8569
4.85687
4.85684
4.85683
4.85692
4.85723
4.85757
4.85798
4.8574
4.85712
4.85716
4.85756
4.85827
4.85919
4.8602
4.86112
4.86197
4.8577
4.85744
4.85731
4.85736
4.85758
4.85795
4.85841
4.85894
4.85949
4.86074
4.87911
4.8778
4.8776
4.87797
4.87905
4.88074
4.88288
4.88545
4.888
4.89137
4.9386
4.93943
4.94013
4.94032
4.94014
4.93967
4.9387
4.93766
4.93465
4.94006
5.13726
5.13449
5.13499
5.13611
5.13879
5.14263
5.14697
5.15139
5.15278
5.15959
6.36641
6.36599
6.36582
6.36595
6.36638
6.36707
6.36797
6.3689
6.36969
6.37045
5.96943
5.96968
5.96977
5.96978
5.96978
5.96975
5.9697
5.96964
5.96957
5.96932
4.94924
4.94972
4.94986
4.95
4.95005
4.95007
4.9501
4.95018
4.95077
4.9504
4.87958
4.87991
4.87996
4.87999
4.88005
4.88018
4.88036
4.88059
4.88106
4.88155
4.85768
4.85768
4.85773
4.85772
4.85763
4.85751
4.85738
4.85732
4.85745
4.85779
4.85749
4.85702
4.85677
4.85678
4.85706
4.85756
4.85821
4.85893
4.85962
4.8603
4.85681
4.8566
4.85649
4.85651
4.85663
4.85685
4.85711
4.85741
4.8577
4.8585
4.87421
4.87322
4.87304
4.87331
4.87407
4.87522
4.87666
4.87836
4.88006
4.88276
4.92856
4.92912
4.92973
4.9299
4.92977
4.92936
4.92849
4.92747
4.9245
4.92895
5.12779
5.12584
5.12634
5.12741
5.12962
5.13271
5.13605
5.13917
5.13923
5.14469
6.08154
6.08129
6.0812
6.08128
6.08153
6.08192
6.08242
6.0829
6.08328
6.08371
5.70309
5.7033
5.70337
5.70339
5.70338
5.70336
5.70333
5.70328
5.70322
5.70299
4.94507
4.94569
4.9459
4.94608
4.94612
4.94609
4.94602
4.94601
4.94662
4.9465
4.87839
4.87851
4.87847
4.87847
4.87854
4.87871
4.87893
4.87922
4.8797
4.88041
4.85852
4.85851
4.85855
4.85852
4.85844
4.85831
4.85816
4.85807
4.85811
4.85847
4.85762
4.85727
4.85708
4.85707
4.85724
4.85755
4.85797
4.85844
4.85892
4.85944
4.85691
4.85675
4.85667
4.85667
4.85673
4.85684
4.85697
4.85711
4.85725
4.85773
4.86958
4.86886
4.86871
4.86888
4.86935
4.87006
4.87093
4.87195
4.87304
4.8751
4.91727
4.91754
4.91802
4.91816
4.91806
4.91774
4.91706
4.91624
4.91378
4.91739
5.11596
5.11469
5.11516
5.11613
5.11792
5.12035
5.12289
5.12501
5.12427
5.1285
5.78641
5.78628
5.78623
5.78627
5.7864
5.78659
5.78684
5.78706
5.78721
5.78743
5.42751
5.42768
5.42772
5.42773
5.42773
5.42772
5.4277
5.42767
5.42762
5.42743
4.9394
4.94003
4.94041
4.94064
4.9407
4.94061
4.94043
4.94028
4.94065
4.94101
4.87677
4.87664
4.87653
4.87648
4.87654
4.87669
4.87692
4.87721
4.87763
4.87849
4.85905
4.85899
4.859
4.85897
4.8589
4.85881
4.85872
4.85866
4.85868
4.85903
4.85809
4.85786
4.85773
4.85772
4.85781
4.85798
4.85821
4.85849
4.85878
4.85914
4.85755
4.85746
4.85741
4.8574
4.85741
4.85745
4.85748
4.85752
4.85757
4.85779
4.86463
4.86419
4.86408
4.86415
4.86439
4.86475
4.86518
4.86567
4.86626
4.86763
4.90355
4.90358
4.90387
4.90392
4.90379
4.90347
4.90293
4.90229
4.90067
4.90334
5.09471
5.09402
5.09441
5.09521
5.09655
5.09832
5.1001
5.10134
5.10017
5.10295
5.48202
5.48196
5.48194
5.48196
5.482
5.48206
5.48214
5.4822
5.48225
5.48235
5.14249
5.14259
5.1426
5.14261
5.14261
5.1426
5.1426
5.14259
5.14259
5.1425
4.92461
4.92518
4.92581
4.92614
4.92622
4.9261
4.92581
4.9254
4.92499
4.92563
4.87366
4.8733
4.8731
4.873
4.87301
4.87313
4.87333
4.87362
4.87402
4.87488
4.85935
4.85927
4.85925
4.85923
4.8592
4.85916
4.85913
4.85911
4.85914
4.85936
4.85892
4.8588
4.85874
4.85873
4.85877
4.85885
4.85896
4.85908
4.85924
4.85943
4.8586
4.85857
4.85854
4.85853
4.85853
4.85853
4.85852
4.8585
4.8585
4.85855
4.86079
4.8606
4.86054
4.86057
4.86065
4.86079
4.86094
4.8611
4.86134
4.86196
4.88687
4.8867
4.88676
4.8867
4.88652
4.88621
4.88579
4.88537
4.88481
4.88654
5.04068
5.04039
5.04065
5.04115
5.04194
5.04297
5.04399
5.04454
5.04353
5.04453
5.16843
5.1684
5.16841
5.16841
5.16841
5.16841
5.16841
5.16841
5.16838
5.16844
11.2677
11.3827
11.337
11.1207
82.8151
84.8896
85.3472
85.9914
143.137
148.605
149.071
147.821
202.776
212.203
212.068
207.775
264.428
278.076
276.869
269.417
332.694
350.958
348.859
340.128
395.057
417.691
415.308
407.93
433.062
459.316
457.368
452.805
345.586
368.146
365.59
364.248
11.4756
11.7141
11.558
11.1502
9.7132
9.77253
9.77533
9.73128
76.0891
79.3293
80.086
80.199
133.906
144.814
145.909
143.734
192.912
214.521
215.048
209.144
256.118
290.932
289.978
280.025
329.454
380.177
378.403
365.538
399.507
466.484
465.516
452.501
445.968
527.413
528.451
517.279
350.397
422.72
420.801
415.98
10.7103
10.9409
10.8704
10.6502
8.7766
8.78956
8.78855
8.77705
26.5425
28.9598
28.222
25.711
49.3689
53.7732
52.1068
47.4309
74.5945
81.3481
78.2251
70.7088
103.462
112.991
107.808
96.7281
139.433
152.782
145.152
129.265
177.28
194.626
184.465
163.453
207.475
228.631
216.37
190.848
164.661
181.539
170.055
149.233
9.91184
10.0025
9.97932
9.88018
8.5117
8.51424
8.5149
8.51395
11.4751
11.7251
11.6955
11.498
21.2186
21.9452
21.8811
21.3386
32.004
33.4883
33.2349
31.9195
44.5158
46.9445
46.2781
43.7572
60.6349
64.3961
63.0737
58.7602
78.0472
83.1504
80.8808
74.4413
92.5533
99.0931
95.804
87.1182
71.9032
77.0367
73.5244
65.9293
9.44785
9.49224
9.48916
9.44877
8.33268
8.33376
8.33402
8.33338
7.04317
7.13471
7.15993
7.13011
11.6811
11.9769
12.0596
11.9737
16.8749
17.4881
17.5879
17.3216
22.8399
23.8573
23.892
23.2888
30.7144
32.3357
32.2213
31.0336
39.2201
41.4497
41.0298
39.0522
46.2508
49.1808
48.3619
45.3841
34.3854
36.6003
35.4093
32.5318
9.09761
9.12152
9.12313
9.10617
8.18235
8.18325
8.18334
8.18259
5.60741
5.6216
5.6268
5.62513
7.45755
7.52707
7.55961
7.5611
9.93946
10.1224
10.1892
10.1644
12.8355
13.18
13.2656
13.1654
16.7972
17.4116
17.5004
17.233
21.0444
21.9383
21.9602
21.4315
24.4726
25.7212
25.6181
24.6825
17.4729
18.3648
18.0097
17.0069
8.81214
8.82404
8.82639
8.82025
8.03149
8.03237
8.03244
8.03167
5.19735
5.20047
5.20132
5.20036
5.82399
5.83952
5.84803
5.8503
6.91536
6.96777
6.99269
6.99389
8.26003
8.37153
8.41542
8.4058
10.2343
10.4609
10.5301
10.4813
12.358
12.7042
12.7735
12.6544
14.0498
14.5676
14.6132
14.349
10.2175
10.5526
10.4736
10.1827
8.56477
8.57023
8.5723
8.57089
7.87324
7.8741
7.87417
7.87343
5.06348
5.0646
5.06458
5.06366
5.23359
5.2358
5.23715
5.23782
5.68463
5.69672
5.7031
5.70451
6.26618
6.29612
6.3104
6.31192
7.19453
7.26956
7.29979
7.294
8.21525
8.33545
8.37468
8.35584
9.06677
9.26631
9.31017
9.24459
7.33648
7.4486
7.44221
7.3762
8.3368
8.33907
8.34053
8.34075
7.70525
7.70608
7.70615
7.70545
5.01346
5.01435
5.01427
5.01335
5.02057
5.02059
5.02058
5.02062
5.20473
5.20691
5.2081
5.20846
5.45566
5.46205
5.46547
5.46655
5.88079
5.90348
5.91378
5.91354
6.35872
6.39414
6.40909
6.4092
6.80518
6.87598
6.89806
6.88321
6.19699
6.23059
6.23472
6.22421
8.11361
8.11441
8.11529
8.11585
7.52678
7.52756
7.52763
7.52697
4.99144
4.99227
4.99221
4.99133
4.93904
4.93888
4.93874
4.93865
5.00976
5.0099
5.00996
5.01
5.12361
5.12439
5.12486
5.12521
5.32346
5.33032
5.33349
5.33333
5.55949
5.56773
5.57214
5.57407
5.81326
5.83786
5.84668
5.84231
5.69764
5.70502
5.70756
5.70831
7.88797
7.88809
7.88859
7.88911
7.33747
7.33819
7.33825
7.33764
4.97965
4.98042
4.98036
4.97952
4.90617
4.90609
4.90599
4.90587
4.92546
4.9253
4.92521
4.92519
4.98034
4.98012
4.98
4.98005
5.07668
5.07917
5.08019
5.07982
5.20641
5.20739
5.20833
5.20961
5.36575
5.37531
5.37849
5.3757
5.45347
5.45244
5.45294
5.4552
7.65661
7.65646
7.65673
7.65713
7.1371
7.13776
7.13781
7.13725
4.97186
4.97255
4.97247
4.97168
4.89241
4.89239
4.89232
4.8922
4.88732
4.88718
4.8871
4.8871
4.91574
4.91549
4.91533
4.91529
4.96183
4.96306
4.96347
4.96307
5.04245
5.04192
5.04193
5.04262
5.15316
5.15792
5.15898
5.15634
5.32449
5.32115
5.32059
5.32249
7.41776
7.41755
7.41768
7.41794
6.92557
6.92616
6.9262
6.92569
4.96581
4.9664
4.9663
4.96555
4.8865
4.8865
4.88644
4.88632
4.86972
4.86962
4.86957
4.86959
4.88592
4.88578
4.88566
4.8856
4.90695
4.90773
4.90794
4.9076
4.96358
4.96301
4.96285
4.96318
5.04851
5.05168
5.05196
5.04935
5.25264
5.24909
5.24815
5.2494
7.17026
7.17011
7.17017
7.17029
6.70282
6.70333
6.70335
6.70291
4.96066
4.96114
4.96101
4.9603
4.88392
4.88394
4.88389
4.88376
4.86173
4.86167
4.86165
4.86166
4.87198
4.87192
4.87185
4.87179
4.88058
4.88114
4.88128
4.88099
4.9247
4.92441
4.92428
4.92436
4.99599
4.99858
4.99858
4.99599
5.21066
5.20764
5.20663
5.20723
6.91334
6.91331
6.91333
6.91333
6.46887
6.46929
6.46929
6.4689
4.9561
4.95646
4.9563
4.95564
4.88281
4.88284
4.88279
4.88266
4.85846
4.85844
4.85843
4.85843
4.86537
4.86535
4.86531
4.86526
4.86804
4.86845
4.86853
4.86829
4.90472
4.90472
4.90465
4.90455
4.96881
4.97121
4.9711
4.96849
5.18457
5.18234
5.18141
5.18138
6.64652
6.64662
6.64664
6.64652
6.22383
6.22416
6.22414
6.22381
4.95204
4.9523
4.95211
4.95149
4.8823
4.88237
4.88233
4.88218
4.85762
4.85765
4.85765
4.85763
4.86215
4.86216
4.86214
4.8621
4.86217
4.86246
4.86251
4.86231
4.89327
4.8935
4.89349
4.89325
4.95319
4.95559
4.95545
4.95276
5.1666
5.1653
5.16452
5.16385
6.36957
6.36982
6.36983
6.36962
5.96806
5.96829
5.96825
5.96798
4.94845
4.94863
4.94843
4.94786
4.88191
4.88206
4.88203
4.88184
4.85801
4.85808
4.85809
4.85805
4.86051
4.86054
4.86053
4.8605
4.85947
4.85967
4.85968
4.85953
4.88504
4.88544
4.88547
4.88514
4.94142
4.94393
4.94381
4.94101
5.15179
5.15151
5.15095
5.14964
6.08264
6.08301
6.08302
6.08274
5.70224
5.70236
5.70229
5.7021
4.94519
4.94537
4.94519
4.94465
4.88122
4.88147
4.88147
4.8812
4.85884
4.85895
4.85897
4.85889
4.85966
4.8597
4.85971
4.85969
4.85831
4.85842
4.85842
4.85832
4.87738
4.87784
4.87789
4.87755
4.92865
4.93129
4.93121
4.92838
5.13545
5.13637
5.13609
5.1341
5.78625
5.7867
5.78672
5.78641
5.4273
5.42728
5.42719
5.42709
4.94098
4.94138
4.94127
4.94064
4.87961
4.87995
4.87994
4.87961
4.85944
4.85957
4.85959
4.8595
4.85934
4.85939
4.8594
4.85939
4.85805
4.8581
4.85809
4.85805
4.8695
4.86991
4.86996
4.86968
4.91188
4.91428
4.91425
4.91178
5.10894
5.11136
5.11143
5.1086
5.48131
5.48183
5.48186
5.48152
5.14309
5.14285
5.14276
5.14283
4.92731
4.92821
4.92819
4.92722
4.87566
4.87589
4.87585
4.87559
4.85961
4.85969
4.8597
4.85964
4.85957
4.8596
4.85962
4.85962
4.85861
4.85862
4.85861
4.8586
4.86297
4.86319
4.86324
4.86309
4.89067
4.89182
4.89179
4.89058
5.04738
5.05091
5.05122
5.04779
5.16792
5.16848
5.16849
5.16812
10.1116
9.36621
9.05436
8.9419
8.87744
8.83202
8.80178
8.78482
8.77537
8.76975
103.661
49.117
35.746
29.9426
24.5414
19.9336
16.3488
13.6766
11.7702
10.4092
160.941
70.8671
51.0936
43.7288
37.1708
31.4035
26.572
22.6928
19.6503
17.2762
206.403
82.6005
55.9772
46.7094
39.3372
32.7414
27.2058
22.8152
19.4262
16.8399
242.01
88.9383
58.8125
47.9421
40.0505
32.7107
26.6544
21.9358
18.3526
15.7097
277.974
94.6641
60.9507
48.2757
39.8186
31.7631
25.3325
20.449
16.8698
14.3213
307.016
98.121
61.6602
47.7534
39.0208
30.4985
23.9264
19.0612
15.5851
13.2036
315.122
93.7091
56.5959
42.2029
33.8971
25.7709
19.9118
15.7879
13.0396
11.2248
224.386
56.1025
30.5257
21.1055
16.2758
12.219
9.9516
8.61062
7.8024
7.27883
9.56829
9.5437
9.38834
9.36224
9.31569
9.2896
9.26888
9.25787
9.25044
9.24405
9.36658
9.05671
8.9046
8.81903
8.7651
8.72949
8.70638
8.69266
8.68525
8.68056
53.0999
28.6768
22.5624
19.4496
16.6647
14.1919
12.1565
10.594
9.4545
8.66244
90.0003
46.2861
35.8104
31.0211
27.1748
23.4994
20.28
17.6209
15.4929
13.8735
122.26
58.6196
42.8691
35.6283
30.5384
25.7527
21.6826
18.4106
15.8619
13.976
152.544
68.7651
47.8504
38.5072
32.3679
26.6617
21.9626
18.2856
15.4755
13.4669
186.406
78.8607
52.128
40.4561
33.2385
26.6523
21.4397
17.4845
14.5828
12.5847
217.155
86.4471
54.6872
41.2264
33.3332
26.1611
20.6851
16.6512
13.7639
11.8485
233.131
86.7134
51.8875
37.4608
29.5604
22.564
17.5642
14.0763
11.7585
10.2799
167.337
54.7259
29.0447
19.3689
14.6879
11.222
9.27157
8.12753
7.4323
7.00193
9.81751
9.50109
9.32999
9.26676
9.2119
9.17866
9.15455
9.13982
9.12946
9.12046
8.73754
8.6962
8.66349
8.63627
8.61496
8.59951
8.58921
8.58304
8.5796
8.57713
19.9506
16.5815
14.507
12.6863
11.1146
9.81015
8.79509
8.0458
7.50681
7.13393
35.9282
28.7229
24.9331
21.6925
18.9131
16.5025
14.5062
12.9012
11.6254
10.663
51.0459
37.946
31.5449
26.3485
22.254
18.833
16.0895
13.9408
12.282
11.0683
66.1332
45.6953
36.626
29.5851
24.369
20.1154
16.8045
14.2829
12.373
11.0208
83.2234
53.3368
41.1309
32.0695
25.7216
20.6498
16.8326
14.0128
11.9688
10.5767
99.1093
59.1721
44.1287
33.4388
26.3207
20.6932
16.5886
13.6477
11.5661
10.1965
108.39
59.7299
42.5733
30.9802
23.7497
18.2074
14.4171
11.8518
10.1672
9.09572
75.9082
36.627
23.8536
16.2637
12.2199
9.67885
8.28747
7.47006
6.96185
6.64286
9.57055
9.37614
9.24222
9.16242
9.10484
9.06883
9.04377
9.02669
9.01406
9.00318
8.50919
8.49917
8.48813
8.47819
8.47065
8.46552
8.46232
8.46069
8.46029
8.45981
10.9435
10.137
9.28773
8.44216
7.73373
7.19004
6.79059
6.50214
6.29327
6.1479
19.8731
18.0362
16.1833
14.3078
12.6896
11.3596
10.2971
9.46071
8.80101
8.30589
28.4841
24.6406
21.1945
17.9891
15.3988
13.3255
11.7015
10.4487
9.49049
8.79532
37.2476
30.6698
25.4295
20.8587
17.3616
14.6343
12.5583
11.0053
9.83853
9.01485
47.4702
36.9668
29.5153
23.3496
18.8556
15.4323
12.9095
11.082
9.77146
8.8816
57.0611
42.0631
32.5366
24.9987
19.7482
15.8229
13.0208
11.0572
9.67839
8.768
62.7808
43.243
32.0678
23.6962
18.2239
14.2985
11.6746
9.93772
8.80095
8.06896
42.7252
26.1875
17.961
12.7844
10.0192
8.38868
7.4715
6.91745
6.55914
6.32886
9.32597
9.18744
9.08032
9.01068
8.96247
8.93083
8.9081
8.89178
8.87947
8.86904
8.33326
8.33179
8.33028
8.32911
8.3284
8.32811
8.32814
8.3286
8.32971
8.33071
7.00042
6.76096
6.50789
6.26885
6.06981
5.91284
5.79209
5.70016
5.63059
5.58242
11.6147
10.9303
10.156
9.37691
8.68861
8.11519
7.65527
7.29326
7.00449
6.78619
16.4442
14.9625
13.3789
11.8607
10.5717
9.5205
8.69203
8.05384
7.56571
7.21292
21.5394
18.9371
16.3576
14.0092
12.1099
10.6117
9.46994
8.62162
7.9821
7.52803
27.7679
23.4414
19.5027
16.0804
13.4379
11.4174
9.92993
8.86109
8.09433
7.57107
33.7304
27.3734
22.0541
17.6318
14.3715
11.9495
10.2267
9.03149
8.1869
7.62107
37.3818
28.7749
22.247
17.1424
13.6279
11.1531
9.50529
8.41951
7.69927
7.22504
24.5157
17.3233
12.8013
9.95204
8.36049
7.403
6.82887
6.46641
6.22028
6.05881
9.05187
8.96879
8.89719
8.84613
8.80871
8.7819
8.7617
8.74652
8.7348
8.72502
8.18321
8.18338
8.18374
8.18433
8.18506
8.18584
8.18665
8.18763
8.18912
8.19087
5.60891
5.56605
5.51464
5.46215
5.41461
5.37386
5.34015
5.31305
5.29236
5.27928
7.5065
7.31636
7.06777
6.8076
6.57155
6.37276
6.2123
6.08426
5.97751
5.89437
9.98002
9.47487
8.85268
8.2282
7.67859
7.22383
6.8617
6.57937
6.35959
6.1999
12.7378
11.7755
10.6611
9.59807
8.70515
7.99395
7.44917
7.04207
6.72755
6.49994
16.3271
14.6078
12.7495
11.0566
9.69472
8.64549
7.8688
7.30722
6.89708
6.6133
19.8609
17.2401
14.5756
12.2609
10.4822
9.15715
8.2097
7.54886
7.06946
6.74017
22.1099
18.4094
14.9872
12.2159
10.2325
8.83844
7.8994
7.2708
6.84129
6.55089
14.3862
11.5311
9.42261
8.04846
7.21366
6.6786
6.332
6.10243
5.9384
5.82935
8.79684
8.75072
8.70652
8.67105
8.64272
8.6207
8.60331
8.58973
8.57898
8.57016
8.03241
8.03276
8.03332
8.03407
8.03493
8.03578
8.03659
8.03753
8.03894
8.04074
5.19719
5.1892
5.1795
5.16868
5.15788
5.14772
5.1387
5.13123
5.12613
5.12419
5.83967
5.7942
5.73172
5.66419
5.60143
5.54762
5.50345
5.46695
5.43311
5.40488
6.95114
6.79346
6.58517
6.36841
6.17115
6.00291
5.86423
5.75185
5.66092
5.59416
8.29856
7.96369
7.54391
7.13098
6.77412
6.48393
6.25616
6.08107
5.93859
5.83198
10.2202
9.55229
8.76686
8.02889
7.41709
6.93705
6.57317
6.3024
6.09716
5.95245
12.1876
11.1218
9.92003
8.84489
7.99227
7.34752
6.87582
6.53804
6.28115
6.09875
13.5138
11.9435
10.3329
8.99378
8.00091
7.28962
6.79453
6.45108
6.20672
6.03731
9.42145
8.38185
7.50387
6.88236
6.4603
6.16732
5.96253
5.82056
5.71382
5.6425
8.56134
8.5368
8.51007
8.48579
8.46474
8.44723
8.43278
8.4211
8.41163
8.40397
7.87416
7.87443
7.87485
7.87542
7.87607
7.8767
7.87729
7.87798
7.87915
7.88073
5.06322
5.06153
5.05953
5.05711
5.0544
5.05158
5.04894
5.04686
5.0461
5.047
5.23604
5.2278
5.21601
5.20268
5.1901
5.17947
5.17109
5.16396
5.15507
5.14634
5.69486
5.65203
5.59174
5.52541
5.46163
5.40413
5.35397
5.31101
5.27467
5.2479
6.28748
6.18738
6.0532
5.91509
5.79013
5.68384
5.5965
5.5263
5.46479
5.41673
7.22059
6.98735
6.69802
6.41496
6.16993
5.96928
5.80983
5.68547
5.58669
5.51605
8.22707
7.83384
7.3581
6.91694
6.5522
6.26543
6.0459
5.88176
5.74905
5.65133
8.98127
8.3645
7.69185
7.11053
6.65791
6.31889
6.07056
5.89012
5.75617
5.66166
7.18315
6.82075
6.4669
6.18657
5.97418
5.81485
5.69556
5.60941
5.54127
5.49592
8.33654
8.32318
8.30683
8.29038
8.27509
8.26164
8.25008
8.24043
8.2324
8.22601
7.70614
7.70632
7.7066
7.70698
7.7074
7.7078
7.70815
7.70859
7.70947
7.71081
5.01344
5.01272
5.01196
5.01108
5.01005
5.00891
5.00784
5.00714
5.00738
5.00864
5.02018
5.01921
5.01805
5.01677
5.01591
5.0158
5.01648
5.01717
5.01572
5.01323
5.20596
5.19467
5.17768
5.15758
5.13694
5.11711
5.09873
5.08208
5.06745
5.05676
5.46121
5.43435
5.39547
5.3527
5.31149
5.27435
5.24224
5.2152
5.18921
5.16773
5.89202
5.81708
5.71982
5.61844
5.52494
5.44359
5.37514
5.31893
5.27228
5.23882
6.37902
6.25075
6.08194
5.91567
5.7691
5.64679
5.54767
5.46994
5.40272
5.35128
6.80167
6.57837
6.32173
6.08541
5.88878
5.73242
5.61134
5.5192
5.44817
5.39772
6.1762
6.04498
5.89933
5.77044
5.66309
5.57665
5.50782
5.45631
5.41339
5.38519
8.11357
8.10606
8.096
8.08503
8.07422
8.06424
8.05533
8.04767
8.04113