/*--------------------------------*- C++ -*----------------------------------*\
| =========                 |                                                 |
| \\      /  F ield         | foam-extend: Open Source CFD                    |
|  \\    /   O peration     | Version:     4.0                                |
|   \\  /    A nd           | Web:         http://www.foam-extend.org         |
|    \\/     M anipulation  |                                                 |
\*---------------------------------------------------------------------------*/
FoamFile
{
    version     2.0;
    format      ascii;
    class       volScalarField;
    location    "1500";
    object      MaU;
}
// * * * * * * * * * * * * * * * * * * * * * * * * * * * * * * * * * * * * * //

dimensions      [0 0 0 0 0 0 0];

internalField   nonuniform List<scalar> 
34480
(
0.623559
0.624557
0.625095
0.625212
0.62491
0.624116
0.622689
0.619951
0.613866
0.608087
0.62699
0.627818
0.628283
0.628319
0.627765
0.626476
0.624478
0.621521
0.61451
0.608973
0.629198
0.629958
0.630334
0.630245
0.629514
0.628172
0.626403
0.624115
0.617087
0.611986
0.629217
0.629998
0.630443
0.630484
0.629977
0.629038
0.62777
0.626197
0.619557
0.614931
0.629707
0.630591
0.631174
0.631434
0.631249
0.630787
0.630066
0.629264
0.623411
0.619269
0.629331
0.630272
0.630938
0.631327
0.631378
0.631322
0.631136
0.631157
0.626486
0.623163
0.62956
0.630641
0.631413
0.631942
0.632203
0.632488
0.632797
0.633636
0.630412
0.627889
0.628988
0.63011
0.630838
0.631253
0.631399
0.631638
0.632099
0.633478
0.631769
0.630431
0.628753
0.63003
0.630872
0.631421
0.631745
0.632146
0.632856
0.63473
0.634291
0.63286
0.624957
0.625976
0.626012
0.625137
0.623522
0.621542
0.61965
0.619112
0.61832
0.61912
0.613677
0.61514
0.615714
0.615469
0.614328
0.612016
0.607907
0.600643
0.58994
0.576095
0.618302
0.619612
0.620139
0.619881
0.618643
0.616052
0.611515
0.603673
0.59102
0.574873
0.621393
0.622617
0.623093
0.622801
0.621489
0.618852
0.614387
0.606706
0.593208
0.575884
0.622225
0.62346
0.624
0.623842
0.622738
0.620445
0.616379
0.609129
0.595242
0.577499
0.623394
0.624704
0.62536
0.625407
0.624602
0.622762
0.619217
0.612612
0.598821
0.581234
0.623555
0.624908
0.625643
0.625825
0.625255
0.62383
0.620831
0.615014
0.601774
0.584976
0.62423
0.625689
0.626519
0.626845
0.626492
0.625439
0.622976
0.618013
0.6057
0.589975
0.62398
0.625467
0.626265
0.626508
0.6261
0.62511
0.622939
0.618692
0.607568
0.593531
0.623992
0.625584
0.626473
0.62683
0.626603
0.625846
0.624067
0.620566
0.6107
0.597463
0.620387
0.621796
0.622128
0.621467
0.619868
0.61748
0.614028
0.609227
0.599834
0.58972
0.606064
0.607631
0.608197
0.607878
0.606639
0.604323
0.600631
0.595067
0.586997
0.576812
0.610974
0.612509
0.613069
0.612694
0.611266
0.608519
0.603948
0.596693
0.585305
0.570151
0.614338
0.615871
0.616426
0.616048
0.614556
0.61163
0.606651
0.59849
0.584475
0.564658
0.615661
0.617256
0.617887
0.617622
0.616259
0.613474
0.60849
0.599905
0.58374
0.559819
0.617305
0.618989
0.619729
0.619644
0.618511
0.616033
0.611287
0.602685
0.585022
0.557814
0.617883
0.619623
0.620448
0.620495
0.619563
0.617407
0.613006
0.604683
0.586134
0.556558
0.618919
0.620752
0.621666
0.621859
0.621128
0.619297
0.615305
0.607457
0.588597
0.557355
0.618968
0.620825
0.621723
0.621861
0.621103
0.61936
0.615638
0.608318
0.589672
0.557589
0.619238
0.621158
0.622126
0.622353
0.621726
0.620176
0.616816
0.610159
0.592156
0.558674
0.615876
0.617625
0.618181
0.61765
0.616014
0.613275
0.608768
0.601341
0.583893
0.550826
0.600518
0.601893
0.602366
0.602059
0.600969
0.599039
0.59617
0.592268
0.58731
0.581781
0.605164
0.606629
0.60714
0.606733
0.605335
0.6028
0.598879
0.593227
0.5854
0.576475
0.608374
0.609959
0.610506
0.610067
0.608518
0.605631
0.600982
0.593941
0.583347
0.57041
0.609893
0.611616
0.612251
0.611878
0.610335
0.607349
0.602304
0.594263
0.581013
0.563799
0.611803
0.613653
0.614391
0.614151
0.612732
0.609848
0.604695
0.596064
0.580565
0.559356
0.61267
0.614603
0.615427
0.615295
0.614005
0.611289
0.606191
0.597303
0.580009
0.555324
0.613977
0.616005
0.616911
0.616907
0.615773
0.613277
0.608363
0.599475
0.580903
0.553274
0.614281
0.616334
0.617236
0.617196
0.616041
0.613597
0.608817
0.600098
0.580835
0.550948
0.614773
0.616861
0.617814
0.617849
0.616801
0.614493
0.6099
0.601516
0.582225
0.549804
0.611659
0.613592
0.614257
0.613751
0.611999
0.608877
0.603518
0.594528
0.57543
0.54181
0.59667
0.597752
0.598113
0.597877
0.597064
0.595681
0.593746
0.591326
0.588573
0.585856
0.600759
0.601999
0.602432
0.602077
0.600903
0.59886
0.595876
0.59193
0.58708
0.582291
0.603514
0.604987
0.605494
0.605077
0.603662
0.601127
0.597259
0.591842
0.584595
0.576971
0.604962
0.606656
0.607268
0.606867
0.60534
0.602501
0.597962
0.591266
0.581482
0.57043
0.60691
0.60879
0.609508
0.60919
0.607674
0.604733
0.599787
0.592129
0.579955
0.565316
0.607902
0.60991
0.610722
0.61048
0.609009
0.606062
0.600889
0.592563
0.578245
0.560125
0.609356
0.611482
0.612374
0.612236
0.610858
0.608
0.602766
0.594039
0.577939
0.55656
0.609835
0.612001
0.612903
0.612739
0.611334
0.608467
0.603192
0.594279
0.576908
0.552685
0.610498
0.612689
0.613631
0.613525
0.612195
0.609416
0.604196
0.595249
0.577247
0.549953
0.607612
0.609661
0.610407
0.609923
0.608106
0.604764
0.59902
0.589549
0.571321
0.541949
0.59404
0.594845
0.595102
0.59494
0.594388
0.593477
0.592258
0.590824
0.589307
0.587857
0.597531
0.598489
0.598827
0.598551
0.597655
0.596142
0.594037
0.591434
0.588536
0.585954
0.599715
0.600967
0.601402
0.601045
0.599861
0.597807
0.594827
0.590936
0.586247
0.581816
0.600922
0.602458
0.603011
0.60263
0.601248
0.598763
0.594992
0.589811
0.58303
0.576187
0.602732
0.604509
0.605175
0.604832
0.60336
0.600613
0.596244
0.589948
0.581026
0.571439
0.60371
0.605664
0.606431
0.606129
0.604618
0.601711
0.596899
0.589694
0.578693
0.566221
0.605196
0.607303
0.608154
0.607925
0.606437
0.603484
0.598401
0.590513
0.577629
0.56225
0.605763
0.607934
0.608809
0.608557
0.60702
0.603986
0.5987
0.590343
0.575953
0.557834
0.606543
0.608745
0.609652
0.609444
0.607948
0.604941
0.599589
0.590933
0.575565
0.554455
0.603851
0.605925
0.606706
0.606237
0.604408
0.601008
0.595267
0.586116
0.570246
0.546925
0.592237
0.592824
0.593
0.592899
0.592549
0.591986
0.591256
0.590435
0.589604
0.588774
0.595209
0.595898
0.596146
0.595949
0.595313
0.594265
0.592861
0.591214
0.589512
0.588109
0.596823
0.597814
0.598163
0.597883
0.596961
0.595401
0.593231
0.59056
0.58761
0.585041
0.597717
0.599018
0.599491
0.599162
0.597998
0.595962
0.593011
0.589198
0.584663
0.580464
0.599275
0.600855
0.601444
0.601116
0.599793
0.597399
0.593772
0.588866
0.58259
0.576418
0.600133
0.601931
0.602628
0.602309
0.600875
0.598208
0.594015
0.588122
0.58004
0.571667
0.601559
0.603545
0.60433
0.604055
0.602579
0.599752
0.59514
0.58842
0.578598
0.567883
0.602129
0.604208
0.60503
0.604729
0.603176
0.600199
0.595262
0.587901
0.576588
0.563545
0.602974
0.6051
0.605952
0.605681
0.604134
0.601123
0.596021
0.588204
0.575804
0.560219
0.600433
0.602449
0.603226
0.602777
0.601001
0.597703
0.592283
0.583986
0.570944
0.553432
0.590969
0.591406
0.591525
0.591466
0.591254
0.590921
0.590497
0.590035
0.58957
0.589038
0.593543
0.594013
0.594186
0.594054
0.593627
0.592936
0.592038
0.591025
0.59003
0.589251
0.594656
0.595395
0.59566
0.595455
0.594777
0.593654
0.592143
0.590369
0.588535
0.587033
0.595239
0.59628
0.596664
0.596401
0.595476
0.593897
0.591695
0.58899
0.586014
0.583442
0.596493
0.597823
0.598321
0.598034
0.596915
0.594943
0.59208
0.58841
0.584104
0.580163
0.597167
0.59874
0.599347
0.599044
0.597769
0.595461
0.591994
0.58738
0.581617
0.576071
0.59847
0.600259
0.600957
0.600673
0.599302
0.596756
0.592794
0.587329
0.58009
0.572759
0.59897
0.600877
0.601623
0.601307
0.599834
0.597083
0.592723
0.586555
0.577988
0.568824
0.599839
0.601815
0.602592
0.602293
0.600794
0.597956
0.593361
0.586668
0.577063
0.565925
0.597408
0.599289
0.600029
0.599609
0.597946
0.594887
0.590013
0.582863
0.572595
0.559967
0.590047
0.590385
0.590467
0.590434
0.590311
0.590119
0.589878
0.589619
0.589352
0.588973
0.592336
0.592644
0.59276
0.592676
0.592403
0.591964
0.591407
0.590796
0.590216
0.589774
0.593041
0.593566
0.593758
0.593614
0.593139
0.592365
0.591351
0.590204
0.589075
0.58819
0.593363
0.594156
0.594453
0.594254
0.593556
0.592386
0.590805
0.588943
0.587014
0.585436
0.594305
0.595374
0.595776
0.595541
0.594643
0.593095
0.590927
0.588271
0.585366
0.582861
0.594771
0.596086
0.596595
0.596328
0.595252
0.593352
0.590607
0.587124
0.583098
0.579459
0.595921
0.597465
0.598064
0.597796
0.596592
0.594414
0.591162
0.586887
0.581679
0.576732
0.596295
0.597972
0.598626
0.598322
0.596996
0.594581
0.590908
0.585951
0.579644
0.573326
0.597164
0.59893
0.599617
0.59932
0.597943
0.595401
0.591454
0.585972
0.578761
0.570999
0.594803
0.596491
0.597166
0.596785
0.595286
0.592564
0.588364
0.582464
0.57465
0.565825
0.589348
0.589625
0.589682
0.589666
0.589595
0.589487
0.589351
0.589206
0.589047
0.588749
0.591444
0.591642
0.591718
0.591667
0.591497
0.591227
0.590889
0.590526
0.590186
0.589928
0.591829
0.592187
0.59232
0.592224
0.591904
0.591389
0.59073
0.590003
0.589314
0.588789
0.591962
0.592542
0.592764
0.59262
0.592115
0.591281
0.590183
0.588932
0.587694
0.586722
0.592617
0.59344
0.593752
0.593569
0.59288
0.591714
0.59013
0.588262
0.58633
0.58474
0.592883
0.593936
0.594345
0.594124
0.593257
0.59176
0.589668
0.587119
0.584353
0.581981
0.593874
0.595154
0.59565
0.595415
0.594407
0.592625
0.59006
0.586827
0.583154
0.579851
0.594083
0.5955
0.596053
0.595779
0.594641
0.592615
0.589644
0.585804
0.581267
0.57698
0.594944
0.596466
0.597053
0.596779
0.595574
0.593399
0.590146
0.585823
0.580549
0.575251
0.592622
0.594077
0.59467
0.594336
0.593035
0.590707
0.587228
0.582541
0.576763
0.570756
0.588799
0.589038
0.589079
0.589073
0.589032
0.588972
0.588895
0.588814
0.588714
0.588462
0.590771
0.590896
0.590946
0.590916
0.590813
0.590651
0.590449
0.590234
0.590033
0.589877
0.590904
0.59114
0.591228
0.591166
0.590958
0.590626
0.590208
0.589757
0.58934
0.589026
0.590928
0.591337
0.591497
0.591397
0.591046
0.590471
0.589729
0.588906
0.588118
0.587517
0.591333
0.591942
0.592175
0.592039
0.591531
0.590684
0.589563
0.588282
0.587012
0.586007
0.591425
0.592235
0.592552
0.592378
0.591709
0.590573
0.589031
0.587217
0.585346
0.58381
0.592274
0.593296
0.593692
0.593499
0.592691
0.59129
0.589336
0.586964
0.584418
0.582235
0.592294
0.593445
0.593896
0.593663
0.592727
0.591095
0.588779
0.585901
0.582704
0.579838
0.593158
0.594422
0.594907
0.59467
0.593659
0.591875
0.589293
0.585999
0.582228
0.578675
0.590849
0.592053
0.592554
0.592272
0.591184
0.589269
0.58649
0.582895
0.57873
0.574734
0.588358
0.58857
0.588601
0.5886
0.588577
0.588543
0.5885
0.588453
0.588387
0.588164
0.590253
0.590334
0.590367
0.59035
0.590289
0.590193
0.590073
0.589946
0.589824
0.589725
0.59018
0.59033
0.590387
0.590348
0.590216
0.590007
0.589748
0.589473
0.589224
0.589036
0.590171
0.590451
0.590563
0.590497
0.59026
0.589875
0.589386
0.588853
0.588355
0.587981
0.590365
0.5908
0.590967
0.590869
0.590508
0.589913
0.589142
0.588283
0.58746
0.586827
0.590319
0.59092
0.591157
0.591026
0.590529
0.589698
0.588595
0.587336
0.586088
0.5851
0.591057
0.591843
0.592148
0.591997
0.591375
0.590315
0.588875
0.587181
0.585446
0.584014
0.590873
0.591773
0.592126
0.591937
0.591199
0.589934
0.588189
0.586097
0.583889
0.581998
0.591767
0.59278
0.593167
0.592972
0.59216
0.590752
0.588775
0.586342
0.583703
0.581352
0.589449
0.590405
0.590812
0.590583
0.589707
0.58819
0.586047
0.583377
0.580445
0.577844
0.587996
0.588189
0.588213
0.588214
0.588201
0.588182
0.588158
0.58813
0.588084
0.587882
0.589855
0.589908
0.589932
0.589923
0.589887
0.58983
0.589759
0.589682
0.589606
0.589537
0.589592
0.589685
0.58972
0.589695
0.589614
0.589486
0.589329
0.589165
0.589018
0.588906
0.58962
0.589808
0.589885
0.589844
0.589688
0.589437
0.589121
0.588781
0.588468
0.588234
0.589637
0.589937
0.590053
0.589985
0.589736
0.589331
0.588814
0.588251
0.587725
0.587329
0.589495
0.589925
0.590096
0.590002
0.589645
0.589056
0.58829
0.587437
0.586616
0.585986
0.590153
0.590738
0.590966
0.590852
0.590392
0.589617
0.588588
0.58741
0.586247
0.585315
0.589758
0.590434
0.590701
0.590554
0.589993
0.589049
0.587776
0.586299
0.584802
0.583574
0.590724
0.591508
0.591805
0.591653
0.591025
0.589956
0.588493
0.586749
0.584939
0.583403
0.588375
0.589102
0.589421
0.589241
0.588562
0.587403
0.585805
0.583885
0.581867
0.58021
0.587695
0.587872
0.587889
0.587892
0.587884
0.587874
0.58786
0.587844
0.587811
0.587626
0.589556
0.589594
0.589612
0.589608
0.589587
0.589553
0.58951
0.589463
0.589411
0.589359
0.589097
0.589152
0.589171
0.589156
0.589106
0.58903
0.588937
0.588842
0.588758
0.588693
0.589226
0.58935
0.589403
0.589378
0.589279
0.589119
0.588918
0.588704
0.588507
0.588359
0.589091
0.589291
0.589368
0.589322
0.589156
0.588888
0.588551
0.588189
0.587859
0.587614
0.58889
0.589188
0.589308
0.589242
0.588995
0.588591
0.588073
0.587507
0.586976
0.586577
0.589501
0.589921
0.590085
0.590003
0.589674
0.589128
0.588415
0.587616
0.58685
0.586248
0.588885
0.589373
0.589568
0.589457
0.589047
0.588366
0.587467
0.586453
0.585458
0.584673
0.589977
0.590565
0.590786
0.590672
0.590206
0.589423
0.588375
0.58716
0.585945
0.584951
0.587567
0.588096
0.588337
0.588202
0.587694
0.586841
0.585689
0.584349
0.582991
0.581962
0.587435
0.587595
0.587608
0.587611
0.587607
0.587601
0.587593
0.587583
0.587559
0.587392
0.589352
0.589382
0.589397
0.589395
0.589382
0.589361
0.589335
0.589303
0.589266
0.58922
0.588661
0.588691
0.5887
0.588689
0.588659
0.588615
0.588562
0.58851
0.588465
0.588429
0.588953
0.589034
0.58907
0.589056
0.588994
0.588894
0.588769
0.588635
0.588512
0.588416
0.588684
0.588813
0.588863
0.588833
0.588725
0.588552
0.588338
0.588111
0.587907
0.587758
0.58846
0.58866
0.588742
0.588698
0.588532
0.588262
0.587921
0.587554
0.587215
0.586965
0.589042
0.589333
0.589447
0.58939
0.589163
0.58879
0.588311
0.587784
0.587291
0.586904
0.588193
0.588532
0.588669
0.588589
0.5883
0.587825
0.587209
0.586532
0.585883
0.585392
0.589483
0.58991
0.590067
0.589986
0.589653
0.589101
0.588375
0.587552
0.586754
0.586115
0.586961
0.587328
0.587504
0.587405
0.587041
0.586435
0.58563
0.584723
0.583829
0.58321
0.587177
0.58732
0.587328
0.587331
0.587329
0.587326
0.587322
0.587316
0.587299
0.587151
0.589248
0.589275
0.589287
0.589288
0.58928
0.589266
0.589248
0.589225
0.589194
0.589148
0.588262
0.588276
0.588278
0.58827
0.588252
0.588227
0.588199
0.588172
0.588151
0.588135
0.588775
0.588828
0.588852
0.588844
0.588807
0.588745
0.588669
0.588587
0.588511
0.588447
0.588393
0.588473
0.588504
0.588485
0.588417
0.588309
0.588176
0.588037
0.587913
0.587824
0.588174
0.588306
0.58836
0.588332
0.588224
0.588049
0.58783
0.587597
0.587383
0.587227
0.588732
0.588926
0.589001
0.588962
0.588811
0.588565
0.588253
0.587916
0.587607
0.587363
0.58764
0.587865
0.587959
0.587905
0.587708
0.587387
0.586977
0.586536
0.586119
0.585821
0.589205
0.589507
0.589616
0.589559
0.589331
0.588955
0.588468
0.587927
0.587415
0.587004
0.586469
0.586711
0.586836
0.586767
0.586515
0.586099
0.585555
0.58496
0.584382
0.584025
0.586822
0.586945
0.586949
0.586951
0.58695
0.586949
0.586948
0.586945
0.586935
0.586811
0.58927
0.589297
0.589308
0.589309
0.589304
0.589295
0.589281
0.589262
0.589233
0.589183
0.587899
0.587903
0.587902
0.587897
0.587886
0.587872
0.587857
0.587845
0.587836
0.587834
0.588675
0.588709
0.588722
0.588718
0.588695
0.588659
0.588613
0.588565
0.58852
0.588478
0.588208
0.588258
0.588278
0.588267
0.588225
0.588159
0.588077
0.587993
0.587918
0.587865
0.588022
0.588107
0.588143
0.588126
0.588058
0.587947
0.587809
0.587663
0.587529
0.58743
0.588541
0.588663
0.58871
0.588683
0.588585
0.588428
0.588232
0.588023
0.587838
0.587688
0.58722
0.587368
0.587432
0.587397
0.587267
0.587057
0.586789
0.586506
0.586238
0.586063
0.589139
0.589345
0.589418
0.58938
0.589228
0.58898
0.588665
0.588319
0.588001
0.587734
0.585955
0.586107
0.586195
0.586148
0.58598
0.585704
0.585346
0.584967
0.584596
0.584404
0.58615
0.586246
0.586248
0.586249
0.586249
0.586249
0.58625
0.586251
0.586248
0.586152
0.589487
0.589515
0.589523
0.589524
0.589521
0.589513
0.589503
0.589487
0.589461
0.589404
0.587618
0.587621
0.587623
0.587622
0.587616
0.587608
0.587598
0.587589
0.587582
0.587583
0.588637
0.588654
0.58866
0.588655
0.588641
0.58862
0.588595
0.58857
0.588548
0.588523
0.58813
0.588162
0.588176
0.58817
0.588145
0.588105
0.588055
0.588003
0.587957
0.587923
0.587995
0.588051
0.588075
0.588065
0.588023
0.587954
0.587868
0.587777
0.587692
0.587627
0.588454
0.588525
0.588551
0.588533
0.58847
0.588372
0.588252
0.588128
0.588023
0.587938
0.587013
0.587112
0.587158
0.587137
0.587054
0.586918
0.586745
0.586561
0.586381
0.586273
0.589337
0.58947
0.589516
0.58949
0.589391
0.589232
0.589034
0.58882
0.588631
0.588456
0.585191
0.585284
0.585346
0.585316
0.585206
0.585027
0.584795
0.584556
0.584313
0.584219
0.584849
0.584915
0.584918
0.584921
0.584922
0.584922
0.584922
0.584921
0.584921
0.584852
0.590038
0.590057
0.590055
0.590049
0.590044
0.590041
0.590038
0.590034
0.590023
0.589969
0.587534
0.587549
0.587562
0.587567
0.587567
0.58756
0.587548
0.587533
0.587514
0.5875
0.588632
0.588635
0.588633
0.588627
0.588617
0.588605
0.588593
0.588583
0.588578
0.588572
0.588141
0.588164
0.588175
0.588173
0.588158
0.588133
0.588101
0.588067
0.588035
0.58801
0.588065
0.588103
0.588119
0.588113
0.588086
0.588043
0.587988
0.58793
0.587874
0.587829
0.588449
0.588487
0.588501
0.588488
0.588447
0.588385
0.58831
0.588236
0.588179
0.588138
0.587171
0.587248
0.587284
0.587274
0.58722
0.58713
0.587014
0.586888
0.586755
0.586666
0.589922
0.589997
0.590023
0.590002
0.589936
0.589833
0.589707
0.589579
0.589478
0.58938
0.583901
0.583964
0.584009
0.583989
0.583916
0.583797
0.583645
0.583488
0.583318
0.583271
0.58302
0.583061
0.583074
0.583081
0.583083
0.583081
0.583073
0.583061
0.583044
0.582989
0.590959
0.590931
0.590902
0.590883
0.590874
0.590875
0.590886
0.590909
0.590942
0.59095
0.587712
0.58775
0.587774
0.587786
0.587788
0.587782
0.587766
0.587741
0.587705
0.587659
0.588616
0.588608
0.588602
0.588595
0.588588
0.58858
0.588574
0.588572
0.588578
0.588589
0.588191
0.588209
0.588218
0.588217
0.588206
0.588188
0.588165
0.58814
0.588116
0.588094
0.588155
0.588183
0.588195
0.58819
0.588171
0.58814
0.588101
0.588059
0.588019
0.587985
0.588463
0.588487
0.588495
0.588485
0.588455
0.588409
0.588356
0.588305
0.588268
0.588253
0.587684
0.587755
0.587787
0.58778
0.587741
0.587674
0.587588
0.587492
0.587383
0.587282
0.590873
0.590901
0.590913
0.590894
0.590844
0.590767
0.590678
0.590594
0.590547
0.590544
0.582206
0.582264
0.582297
0.582283
0.582228
0.582139
0.582027
0.581911
0.581783
0.581741
0.439061
0.418311
0.42521
0.466157
0.391302
0.368064
0.379096
0.436321
0.348135
0.320987
0.338314
0.417227
0.310087
0.280688
0.30501
0.40633
0.278627
0.24856
0.280116
0.403939
0.251541
0.222022
0.261854
0.401117
0.229834
0.20219
0.250811
0.398507
0.209458
0.185343
0.242803
0.396434
0.191525
0.173506
0.239231
0.398085
0.17207
0.162203
0.234926
0.393598
0.499122
0.488926
0.489248
0.498956
0.468647
0.456033
0.457173
0.469844
0.437792
0.42107
0.423274
0.44084
0.408794
0.387825
0.391413
0.414127
0.384154
0.358686
0.363937
0.391998
0.362127
0.331774
0.337813
0.371137
0.344259
0.308918
0.314795
0.353217
0.327827
0.287689
0.293121
0.336535
0.314296
0.270126
0.275107
0.322916
0.298942
0.252349
0.254946
0.305286
0.566507
0.564294
0.563762
0.564892
0.548758
0.545062
0.544365
0.546662
0.528789
0.522893
0.522082
0.526413
0.506573
0.498303
0.4975
0.504331
0.485598
0.474873
0.474243
0.483975
0.464543
0.451233
0.450821
0.463563
0.445622
0.429645
0.42941
0.445101
0.427001
0.408479
0.408388
0.426846
0.410756
0.390555
0.390512
0.410894
0.391852
0.37214
0.371375
0.391284
0.578975
0.577894
0.577544
0.577892
0.569352
0.567942
0.567451
0.567811
0.557507
0.555022
0.554303
0.5552
0.542753
0.538962
0.538055
0.539777
0.528338
0.523096
0.522076
0.52493
0.512793
0.505976
0.504899
0.509146
0.498208
0.489743
0.488651
0.494491
0.482909
0.472875
0.471822
0.479334
0.468705
0.457726
0.456723
0.465535
0.450877
0.440947
0.439684
0.448035
0.585849
0.585261
0.585061
0.585247
0.580027
0.579548
0.579318
0.579324
0.57256
0.57162
0.571196
0.571266
0.562473
0.560837
0.560183
0.560449
0.552534
0.550027
0.549153
0.549785
0.541256
0.537739
0.536671
0.53785
0.530541
0.525925
0.524705
0.526619
0.518772
0.51308
0.511781
0.514573
0.507621
0.501278
0.499976
0.503552
0.492884
0.487683
0.486254
0.489276
0.588436
0.587962
0.587816
0.588
0.584993
0.584783
0.584674
0.584663
0.579919
0.579499
0.579281
0.579262
0.572711
0.571948
0.57157
0.571562
0.565672
0.564438
0.56387
0.563926
0.55737
0.555541
0.554766
0.554966
0.549556
0.547037
0.54607
0.546521
0.540672
0.537446
0.536339
0.537161
0.532268
0.528596
0.527451
0.52868
0.520372
0.51782
0.516599
0.517159
0.58957
0.589139
0.589017
0.589202
0.587688
0.587596
0.587544
0.587534
0.58416
0.583965
0.583857
0.583837
0.578804
0.578433
0.57823
0.578193
0.573614
0.572991
0.572662
0.572615
0.567277
0.566317
0.565832
0.565793
0.561447
0.560078
0.559425
0.559438
0.554662
0.552851
0.552057
0.552192
0.54852
0.546401
0.545547
0.545871
0.538862
0.537859
0.536959
0.536519
0.589909
0.589493
0.589379
0.589567
0.589036
0.588989
0.588961
0.588955
0.586581
0.586483
0.586428
0.586416
0.582577
0.582384
0.582274
0.582249
0.578691
0.578359
0.578173
0.578129
0.573741
0.573218
0.572929
0.572867
0.569314
0.568551
0.568144
0.568073
0.564048
0.563021
0.562502
0.562457
0.559656
0.558427
0.557843
0.557865
0.551629
0.551535
0.550938
0.550158
0.58987
0.58946
0.58935
0.589539
0.589656
0.58963
0.589614
0.58961
0.587943
0.58789
0.58786
0.587854
0.584956
0.58485
0.584789
0.584773
0.582045
0.581862
0.581756
0.581727
0.578163
0.57787
0.5777
0.577652
0.574808
0.574372
0.574124
0.574059
0.570672
0.570081
0.569757
0.569687
0.567543
0.566826
0.566447
0.566393
0.560741
0.561168
0.560803
0.559949
0.58965
0.589241
0.589131
0.589322
0.589856
0.58984
0.58983
0.589827
0.588644
0.588614
0.588598
0.588595
0.586438
0.586376
0.58634
0.586331
0.584263
0.584158
0.584096
0.584079
0.581226
0.581055
0.580954
0.580923
0.57873
0.578474
0.578324
0.578278
0.575457
0.57511
0.574911
0.574855
0.573265
0.57284
0.572602
0.572545
0.567405
0.568117
0.567909
0.567075
0.589355
0.588944
0.588835
0.589028
0.589829
0.589817
0.58981
0.589808
0.588938
0.58892
0.588911
0.58891
0.587339
0.587301
0.587279
0.587274
0.585716
0.585653
0.585616
0.585606
0.583351
0.583248
0.583187
0.583168
0.581553
0.581398
0.581305
0.581276
0.578933
0.578726
0.578603
0.578565
0.577478
0.577221
0.577073
0.577032
0.57235
0.573203
0.573095
0.572308
0.589042
0.588629
0.58852
0.588714
0.589688
0.589678
0.589672
0.589671
0.58898
0.588969
0.588964
0.588965
0.587864
0.587839
0.587825
0.587822
0.586644
0.586605
0.586582
0.586577
0.584812
0.584748
0.58471
0.584699
0.583583
0.583486
0.583428
0.58341
0.581446
0.581319
0.581243
0.581219
0.580597
0.580437
0.580345
0.58032
0.576036
0.576942
0.576893
0.576162
0.588739
0.588322
0.588213
0.58841
0.589505
0.589496
0.589491
0.58949
0.588871
0.588864
0.588861
0.588863
0.588153
0.588136
0.588126
0.588124
0.587211
0.587187
0.587174
0.587172
0.585801
0.58576
0.585736
0.585729
0.585034
0.584971
0.584935
0.584924
0.58323
0.583151
0.583104
0.58309
0.582903
0.582802
0.582745
0.582731
0.578776
0.57968
0.579664
0.57899
0.588455
0.588035
0.587927
0.588126
0.589327
0.589318
0.589313
0.589312
0.58867
0.588666
0.588665
0.588668
0.5883
0.588287
0.58828
0.588279
0.587537
0.587522
0.587514
0.587514
0.586455
0.586428
0.586413
0.58641
0.586059
0.586018
0.585995
0.585989
0.584458
0.584409
0.584379
0.584371
0.584605
0.584538
0.584502
0.584498
0.580794
0.581658
0.581659
0.581046
0.588187
0.587764
0.587658
0.587861
0.589186
0.589177
0.589171
0.58917
0.588415
0.588413
0.588414
0.588417
0.588371
0.588361
0.588356
0.588355
0.587707
0.587698
0.587694
0.587694
0.586882
0.586864
0.586854
0.586853
0.586776
0.586749
0.586735
0.586732
0.585258
0.585227
0.585209
0.585204
0.585862
0.585816
0.585794
0.585796
0.582251
0.583046
0.583055
0.582508
0.587903
0.587479
0.587377
0.587585
0.589111
0.5891
0.589094
0.589091
0.588128
0.588128
0.588129
0.588132
0.588411
0.588403
0.588399
0.588399
0.587789
0.587783
0.587781
0.587782
0.587168
0.587155
0.587149
0.587148
0.587276
0.587258
0.58725
0.58725
0.585737
0.585717
0.585705
0.585703
0.586809
0.586775
0.586762
0.586769
0.583247
0.583951
0.583961
0.583487
0.587506
0.587086
0.586993
0.587205
0.589139
0.589126
0.589119
0.589116
0.587832
0.587833
0.587834
0.587837
0.588451
0.588445
0.588443
0.588444
0.587839
0.587835
0.587833
0.587834
0.587385
0.587375
0.58737
0.58737
0.587633
0.587623
0.587619
0.587621
0.586005
0.58599
0.585981
0.58598
0.587575
0.587548
0.587541
0.587552
0.583795
0.584386
0.584394
0.584001
0.586771
0.586367
0.586288
0.586501
0.589349
0.589334
0.589325
0.589322
0.58758
0.58758
0.58758
0.587582
0.588507
0.588503
0.588503
0.588505
0.587899
0.587895
0.587894
0.587895
0.587588
0.587578
0.587575
0.587576
0.58791
0.587907
0.587906
0.587909
0.586214
0.586199
0.586191
0.586191
0.588323
0.588301
0.588297
0.588312
0.583773
0.584229
0.584232
0.58393
0.585353
0.584998
0.584942
0.585139
0.589905
0.589889
0.589881
0.589882
0.587477
0.587472
0.587469
0.587467
0.58857
0.58857
0.588572
0.588575
0.587985
0.587981
0.587979
0.587979
0.587792
0.587783
0.58778
0.587782
0.588136
0.588138
0.588139
0.588142
0.586566
0.586542
0.586533
0.586537
0.589292
0.589276
0.589276
0.589294
0.582953
0.583242
0.583239
0.583045
0.583279
0.583058
0.583032
0.583157
0.590918
0.590912
0.590916
0.59093
0.58759
0.587575
0.587565
0.58756
0.588605
0.588609
0.588613
0.588617
0.588069
0.588064
0.588061
0.588062
0.587952
0.587944
0.587941
0.587944
0.588276
0.588281
0.588283
0.588284
0.587109
0.58707
0.587058
0.587073
0.590608
0.590617
0.590623
0.590629
0.581464
0.581537
0.581532
0.581489
0.595051
0.603492
0.607492
0.610595
0.613719
0.616476
0.618714
0.620462
0.621828
0.622974
0.595976
0.599302
0.606726
0.611775
0.616242
0.61963
0.622095
0.623861
0.625106
0.626049
0.599848
0.596199
0.607186
0.612902
0.618187
0.621786
0.624356
0.626181
0.627435
0.628326
0.603285
0.592352
0.606969
0.612542
0.618403
0.621952
0.624509
0.626288
0.627506
0.62837
0.607806
0.590376
0.607749
0.613049
0.619353
0.622753
0.625279
0.626973
0.6281
0.628883
0.610925
0.587754
0.607525
0.61235
0.619105
0.622318
0.624857
0.626501
0.627633
0.628456
0.614957
0.586523
0.608381
0.61249
0.619648
0.622596
0.625149
0.626735
0.627838
0.628635
0.616553
0.583499
0.607414
0.610753
0.618418
0.621167
0.623881
0.625549
0.62685
0.627883
0.618242
0.582038
0.607885
0.60989
0.617699
0.619981
0.622922
0.624737
0.626238
0.62746
0.60271
0.566183
0.594676
0.597026
0.606708
0.610571
0.615212
0.618318
0.620872
0.622884
0.537661
0.559716
0.576056
0.587679
0.59564
0.601182
0.605188
0.608179
0.610487
0.612405
0.523952
0.554485
0.576565
0.59051
0.599362
0.605352
0.609595
0.612671
0.614915
0.616577
0.513702
0.55137
0.577687
0.592701
0.602154
0.608418
0.612808
0.615951
0.618188
0.619783
0.505337
0.548362
0.577885
0.59322
0.603077
0.609418
0.613816
0.616922
0.619113
0.620665
0.500905
0.547573
0.579177
0.594565
0.604711
0.611001
0.615341
0.618348
0.620436
0.621898
0.497736
0.54653
0.57962
0.594773
0.605158
0.611326
0.615608
0.618527
0.620575
0.622039
0.497362
0.546987
0.581152
0.59578
0.606328
0.612273
0.616477
0.619297
0.621283
0.622706
0.496587
0.546061
0.58113
0.595058
0.605798
0.611527
0.615757
0.618594
0.620702
0.622296
0.497098
0.546403
0.582329
0.595001
0.605537
0.610795
0.615119
0.618074
0.620348
0.622127
0.488025
0.536377
0.573055
0.58524
0.596798
0.603074
0.608589
0.612473
0.615508
0.61777
0.568782
0.57505
0.581124
0.586497
0.59108
0.594911
0.598084
0.600705
0.602897
0.604787
0.555551
0.566937
0.57712
0.585446
0.592112
0.597361
0.601455
0.604638
0.6071
0.608974
0.542481
0.55965
0.574017
0.584904
0.593214
0.599465
0.604173
0.607723
0.610377
0.612322
0.529348
0.552249
0.5706
0.583594
0.593176
0.600087
0.605147
0.608878
0.611628
0.613617
0.519449
0.547421
0.569202
0.583778
0.594277
0.601573
0.606801
0.610578
0.613325
0.615287
0.510629
0.542916
0.567638
0.583338
0.594511
0.60201
0.607317
0.611096
0.613846
0.615829
0.504624
0.540415
0.567591
0.583976
0.595603
0.603135
0.608444
0.61218
0.614899
0.616862
0.498951
0.537401
0.566642
0.58334
0.595284
0.602765
0.608103
0.611865
0.614676
0.616771
0.495264
0.536081
0.567057
0.583422
0.595254
0.602451
0.607846
0.611706
0.614647
0.61689
0.485183
0.527197
0.559381
0.57569
0.588221
0.596142
0.602354
0.606876
0.610349
0.612869
0.578603
0.581008
0.583912
0.586858
0.589634
0.592146
0.594367
0.596308
0.598022
0.599581
0.569834
0.574596
0.58001
0.585152
0.589689
0.593549
0.59677
0.599425
0.601581
0.603284
0.559329
0.567404
0.575814
0.583237
0.589459
0.594528
0.598602
0.601842
0.604377
0.606307
0.547034
0.559135
0.570879
0.580561
0.588316
0.594379
0.5991
0.602758
0.605567
0.60767
0.536365
0.55276
0.567786
0.579474
0.588507
0.595317
0.600478
0.604385
0.60734
0.609518
0.525771
0.546476
0.564623
0.578016
0.588093
0.595447
0.600911
0.604979
0.608039
0.610297
0.517259
0.542089
0.563086
0.577827
0.588706
0.596404
0.602046
0.60619
0.609296
0.611578
0.508901
0.53749
0.561028
0.576754
0.588228
0.596126
0.601904
0.606139
0.60935
0.611751
0.502407
0.534623
0.560362
0.576491
0.588167
0.596045
0.601935
0.606278
0.609594
0.612114
0.491518
0.52633
0.553519
0.570037
0.582352
0.590795
0.597259
0.602073
0.605759
0.608404
0.585106
0.585866
0.587029
0.588393
0.589828
0.591244
0.59259
0.593843
0.595022
0.596175
0.579776
0.581629
0.584148
0.586873
0.589545
0.592027
0.594254
0.596201
0.597856
0.599213
0.572252
0.575653
0.579964
0.584353
0.588444
0.592071
0.595187
0.5978
0.59994
0.601634
0.562454
0.568067
0.574636
0.580894
0.586446
0.591161
0.595071
0.598258
0.600812
0.602795
0.553355
0.561646
0.570706
0.578839
0.585753
0.591403
0.595948
0.599561
0.602404
0.604572
0.543579
0.554875
0.566532
0.576449
0.584586
0.591015
0.596062
0.599999
0.603068
0.6054
0.535149
0.549631
0.56386
0.57537
0.584544
0.591572
0.596986
0.601142
0.604355
0.606774
0.526471
0.544164
0.56084
0.573684
0.583692
0.591158
0.596852
0.601194