/*--------------------------------*- C++ -*----------------------------------*\
| =========                 |                                                 |
| \\      /  F ield         | foam-extend: Open Source CFD                    |
|  \\    /   O peration     | Version:     4.0                                |
|   \\  /    A nd           | Web:         http://www.foam-extend.org         |
|    \\/     M anipulation  |                                                 |
\*---------------------------------------------------------------------------*/
FoamFile
{
    version     2.0;
    format      ascii;
    class       volScalarField;
    location    "1500";
    object      p;
}
// * * * * * * * * * * * * * * * * * * * * * * * * * * * * * * * * * * * * * //

dimensions      [1 -1 -2 0 0 0 0];

internalField   nonuniform List<scalar> 
34480
(
107989
107889
107848
107864
107948
108129
108472
109154
110119
110463
107848
107748
107708
107719
107798
107974
108312
108981
110014
109986
107705
107602
107561
107563
107628
107775
108072
108673
109701
109124
107628
107524
107478
107467
107510
107612
107852
108353
109314
108160
107542
107427
107373
107346
107363
107421
107602
107999
108857
107162
107556
107441
107381
107346
107343
107364
107489
107778
108497
106277
107459
107331
107265
107217
107199
107190
107266
107457
108016
105339
107544
107423
107360
107328
107325
107327
107388
107506
107883
104742
107443
107316
107248
107211
107209
107221
107274
107334
107506
103993
107536
107422
107409
107475
107614
107804
108048
108283
108453
104456
108747
108622
108577
108602
108707
108910
109244
109772
110586
111652
108540
108407
108360
108387
108500
108725
109112
109764
110904
112506
108337
108200
108154
108174
108282
108499
108894
109599
110979
112964
108207
108065
108012
108021
108113
108306
108677
109373
110892
113130
108079
107925
107863
107855
107926
108084
108417
109068
110656
113040
108054
107900
107830
107811
107863
107988
108277
108860
110452
112867
107927
107761
107684
107652
107686
107780
108025
108533
110081
112469
107990
107828
107752
107728
107769
107864
108089
108531
109983
112252
107875
107709
107627
107595
107626
107714
107921
108314
109620
111810
107956
107802
107761
107807
107940
108151
108483
108979
110232
112217
109312
109199
109160
109188
109290
109476
109761
110162
110692
111302
109098
108966
108922
108957
109081
109312
109676
110219
111033
112040
108877
108734
108689
108724
108856
109104
109513
110161
111257
112685
108716
108563
108512
108540
108667
108914
109342
110051
111369
113178
108559
108393
108334
108348
108463
108693
109118
109845
111331
113467
108504
108335
108269
108274
108375
108585
108993
109708
111306
113693
108352
108173
108100
108092
108178
108365
108748
109435
111096
113680
108393
108217
108144
108142
108231
108416
108787
109441
111104
113796
108267
108087
108007
107996
108072
108242
108594
109224
110825
113633
108334
108162
108111
108155
108301
108553
108980
109675
111241
114048
109708
109620
109590
109613
109693
109832
110029
110282
110575
110856
109529
109412
109373
109406
109515
109709
109998
110389
110894
111414
109330
109192
109148
109184
109311
109540
109897
110410
111164
112002
109165
109011
108959
108992
109124
109373
109780
110395
111391
112576
109000
108829
108769
108793
108921
109172
109605
110286
111496
113022
108929
108751
108684
108700
108822
109067
109510
110228
111615
113452
108764
108573
108500
108505
108617
108849
109290
110023
111547
113668
108788
108600
108525
108534
108648
108881
109322
110060
111663
114011
108651
108458
108379
108381
108486
108708
109137
109876
111491
114066
108704
108518
108458
108499
108652
108930
109410
110196
111803
114520
109981
109919
109898
109915
109971
110064
110192
110344
110504
110642
109847
109754
109723
109750
109836
109984
110194
110458
110761
111037
109688
109568
109530
109562
109672
109864
110148
110526
111008
111480
109538
109395
109347
109380
109505
109731
110081
110569
111255
111977
109383
109218
109161
109189
109318
109562
109958
110537
111424
112418
109308
109132
109067
109090
109220
109472
109900
110546
111622
112888
109138
108947
108876
108891
109017
109268
109713
110406
111646
113186
109154
108962
108888
108906
109036
109293
109753
110480
111844
113627
109009
108813
108735
108748
108872
109125
109586
110339
111768
113809
109051
108860
108795
108835
108992
109283
109778
110574
112026
114264
110168
110128
110115
110125
110162
110221
110298
110384
110470
110537
110076
110008
109985
110004
110067
110172
110314
110483
110661
110810
109965
109868
109836
109862
109950
110100
110312
110577
110879
111147
109839
109715
109673
109702
109810
110001
110282
110650
111108
111542
109704
109555
109503
109531
109651
109870
110208
110671
111294
111923
109636
109471
109410
109437
109564
109802
110186
110730
111521
112361
109470
109288
109221
109242
109370
109619
110034
110644
111593
112660
109484
109298
109227
109251
109385
109646
110087
110750
111835
113120
109336
109143
109069
109090
109223
109484
109938
110643
111822
113351
109371
109182
109116
109155
109310
109598
110079
110824
112046
113764
110301
110276
110268
110275
110297
110332
110377
110425
110471
110505
110240
110193
110177
110190
110233
110303
110395
110500
110603
110685
110174
110099
110075
110094
110161
110271
110421
110600
110789
110945
110074
109973
109938
109962
110050
110201
110415
110682
110984
111249
109966
109838
109793
109819
109922
110107
110379
110734
111164
111564
109911
109765
109710
109737
109853
110064
110388
110824
111391
111946
109756
109589
109528
109552
109674
109904
110269
110777
111481
112209
109774
109601
109535
109562
109693
109939
110338
110908
111738
112642
109626
109445
109376
109400
109533
109786
110205
110825
111752
112860
109658
109479
109414
109451
109599
109872
110314
110972
111952
113211
110398
110384
110379
110383
110396
110416
110442
110468
110493
110511
110357
110327
110316
110325
110353
110398
110455
110518
110578
110623
110330
110276
110258
110272
110319
110396
110498
110615
110732
110824
110254
110176
110148
110167
110234
110348
110504
110691
110888
111051
110174
110069
110032
110054
110139
110287
110497
110757
111050
111306
110136
110011
109965
109989
110089
110267
110528
110863
111263
111629
109995
109849
109796
109819
109929
110130
110435
110841
111352
111847
110022
109868
109809
109835
109956
110177
110520
110988
111606
112234
109877
109712
109650
109676
109800
110033
110399
110918
111623
112404
109910
109746
109686
109720
109856
110104
110491
111045
111801
112695
110474
110465
110463
110465
110472
110484
110498
110513
110526
110535
110443
110425
110417
110423
110440
110468
110503
110541
110575
110601
110446
110409
110396
110406
110438
110490
110557
110632
110703
110757
110388
110331
110309
110323
110373
110456
110566
110692
110819
110920
110336
110254
110225
110242
110308
110421
110577
110763
110959
111122
110314
110214
110175
110196
110278
110421
110623
110872
111149
111390
110190
110067
110022
110042
110136
110304
110548
110861
111225
111558
110229
110097
110046
110071
110176
110366
110648
111017
111466
111896
110088
109943
109890
109914
110025
110228
110536
110952
111472
112011
110126
109981
109927
109958
110077
110293
110620
111067
111633
112251
110535
110530
110529
110530
110534
110540
110548
110556
110563
110568
110508
110497
110492
110495
110506
110523
110544
110566
110586
110600
110535
110510
110501
110507
110528
110562
110605
110652
110695
110726
110488
110447
110432
110442
110477
110534
110609
110693
110774
110837
110459
110398
110376
110389
110439
110522
110634
110762
110892
110995
110453
110375
110345
110361
110426
110536
110687
110866
111055
111212
110343
110244
110207
110225
110302
110436
110624
110857
111111
111334
110398
110289
110247
110269
110357
110512
110735
111016
111336
111626
110260
110138
110093
110114
110209
110379
110627
110949
111325
111689
110305
110183
110136
110162
110264
110445
110710
111059
111471
111890
110586
110583
110583
110583
110586
110589
110593
110598
110601
110604
110558
110551
110548
110550
110557
110567
110579
110592
110603
110612
110603
110587
110581
110585
110599
110620
110647
110676
110701
110719
110562
110533
110522
110529
110553
110592
110642
110697
110748
110787
110553
110509
110493
110502
110538
110597
110675
110762
110847
110912
110560
110500
110478
110490
110539
110621
110730
110856
110983
111084
110462
110384
110356
110370
110430
110533
110674
110842
111016
111163
110533
110447
110413
110431
110502
110624
110795
111001
111224
111416
110396
110296
110260
110278
110356
110492
110685
110925
111191
111434
110452
110352
110313
110335
110418
110564
110772
111034
111327
111606
110631
110629
110629
110629
110630
110632
110634
110637
110639
110640
110596
110593
110591
110592
110596
110602
110609
110617
110624
110629
110658
110647
110644
110646
110655
110668
110685
110702
110717
110727
110616
110597
110589
110593
110609
110635
110667
110703
110735
110759
110624
110593
110581
110588
110613
110654
110707
110764
110819
110859
110639
110596
110579
110589
110624
110683
110760
110846
110930
110994
110552
110493
110471
110482
110527
110604
110706
110824
110941
111037
110639
110573
110547
110561
110616
110709
110835
110983
111136
111260
110500
110422
110393
110408
110469
110574
110719
110894
111077
111237
110569
110490
110460
110477
110543
110655
110813
111004
111208
111390
110670
110669
110669
110669
110670
110671
110672
110673
110674
110675
110626
110624
110623
110624
110626
110630
110634
110639
110643
110646
110703
110696
110694
110696
110701
110709
110719
110729
110738
110743
110655
110642
110637
110640
110650
110666
110687
110710
110730
110745
110677
110656
110648
110653
110670
110697
110732
110769
110804
110829
110698
110668
110656
110662
110687
110728
110781
110838
110893
110934
110618
110575
110559
110567
110600
110654
110726
110807
110885
110947
110721
110673
110654
110665
110705
110773
110864
110966
111069
111149
110577
110517
110496
110507
110553
110631
110736
110860
110984
111088
110661
110602
110578
110591
110641
110726
110841
110976
111115
111232
110706
110705
110706
110706
110706
110707
110707
110708
110708
110708
110649
110648
110647
110647
110649
110651
110653
110656
110659
110662
110742
110738
110737
110738
110741
110746
110751
110757
110762
110764
110683
110675
110671
110673
110679
110690
110703
110717
110729
110739
110717
110703
110698
110701
110713
110730
110753
110776
110798
110813
110740
110719
110711
110716
110733
110760
110795
110833
110869
110894
110665
110635
110624
110630
110653
110691
110739
110793
110843
110884
110785
110752
110738
110746
110775
110823
110886
110955
111023
111072
110631
110587
110571
110579
110613
110669
110743
110827
110910
110977
110734
110691
110673
110683
110720
110781
110862
110955
111047
111122
110741
110740
110740
110740
110741
110741
110741
110741
110741
110741
110664
110663
110662
110663
110663
110665
110667
110669
110671
110673
110776
110774
110774
110775
110777
110779
110782
110785
110788
110788
110703
110697
110695
110696
110700
110706
110714
110723
110731
110737
110747
110738
110735
110737
110744
110755
110769
110784
110797
110806
110769
110755
110750
110753
110764
110782
110805
110829
110852
110867
110699
110679
110671
110675
110691
110716
110748
110783
110815
110841
110836
110813
110804
110809
110829
110862
110905
110950
110994
111024
110666
110634
110623
110629
110652
110691
110741
110798
110851
110895
110794
110764
110751
110758
110784
110826
110882
110944
111004
111050
110779
110778
110778
110778
110778
110778
110778
110778
110778
110778
110670
110669
110669
110669
110669
110670
110672
110674
110675
110678
110808
110807
110807
110808
110809
110810
110812
110813
110814
110813
110716
110712
110711
110711
110714
110718
110722
110728
110732
110737
110767
110762
110760
110761
110765
110772
110781
110790
110798
110803
110786
110778
110774
110776
110783
110795
110809
110824
110839
110848
110723
110710
110705
110708
110718
110734
110755
110777
110796
110812
110875
110861
110854
110858
110871
110893
110921
110950
110979
110995
110683
110661
110654
110658
110673
110699
110732
110769
110803
110831
110850
110829
110820
110825
110843
110871
110908
110948
110987
111015
110832
110831
110832
110832
110832
110832
110832
110831
110831
110830
110665
110664
110664
110663
110664
110665
110666
110667
110669
110672
110834
110834
110834
110835
110835
110836
110837
110838
110838
110836
110723
110721
110721
110721
110723
110725
110728
110731
110733
110736
110778
110775
110773
110774
110777
110781
110786
110792
110796
110799
110793
110787
110785
110786
110790
110797
110807
110816
110825
110831
110738
110730
110727
110729
110736
110746
110759
110772
110783
110792
110900
110891
110886
110888
110897
110911
110929
110948
110967
110976
110683
110668
110663
110666
110676
110693
110714
110737
110758
110777
110915
110902
110896
110899
110911
110929
110953
110979
111004
111019
110927
110926
110927
110927
110927
110927
110926
110926
110925
110924
110640
110638
110638
110638
110639
110639
110640
110641
110643
110646
110849
110848
110848
110848
110848
110848
110849
110850
110851
110850
110728
110727
110727
110727
110728
110730
110731
110732
110733
110734
110780
110778
110776
110777
110778
110781
110784
110788
110791
110793
110789
110785
110784
110784
110787
110791
110797
110803
110809
110813
110745
110740
110739
110740
110745
110751
110759
110766
110772
110777
110900
110893
110889
110891
110896
110905
110917
110930
110943
110949
110657
110648
110645
110646
110653
110664
110677
110691
110703
110716
111016
111008
111003
111005
111013
111025
111040
111056
111074
111082
111090
111089
111089
111089
111089
111089
111089
111089
111088
111088
110580
110580
110581
110582
110582
110582
110582
110582
110582
110584
110837
110836
110834
110833
110833
110833
110835
110836
110839
110840
110731
110732
110732
110733
110733
110734
110735
110735
110735
110734
110775
110774
110773
110773
110774
110776
110778
110780
110783
110784
110780
110777
110776
110776
110778
110781
110785
110789
110793
110796
110746
110744
110743
110744
110747
110752
110757
110762
110765
110767
110858
110852
110849
110850
110854
110860
110868
110878
110888
110895
110592
110587
110586
110587
110592
110599
110608
110617
110623
110629
111173
111167
111164
111165
111171
111179
111190
111201
111214
111218
111273
111270
111269
111268
111268
111268
111269
111271
111273
111277
110497
110503
110507
110509
110510
110510
110508
110505
110501
110494
110804
110800
110798
110797
110797
110797
110799
110801
110804
110810
110738
110739
110739
110740
110740
110741
110741
110741
110741
110739
110771
110770
110769
110769
110770
110771
110773
110775
110777
110779
110774
110771
110771
110771
110772
110775
110778
110781
110784
110787
110750
110748
110748
110748
110751
110754
110759
110763
110766
110767
110796
110790
110788
110788
110791
110797
110803
110811
110820
110829
110508
110507
110506
110508
110512
110518
110525
110532
110535
110532
111342
111336
111334
111335
111340
111347
111355
111365
111375
111379
122724
123938
123762
122489
125954
127360
126960
125339
128894
130481
129893
127903
131057
132760
131986
129718
132718
134499
133552
131079
134065
135906
134949
132356
134990
136863
136038
133377
135812
137691
137029
134330
135728
137579
137061
134370
135317
137155
136895
134358
113025
113215
113254
113134
115310
115681
115740
115450
117564
118117
118176
117667
119702
120421
120466
119712
121651
122507
122521
121509
123501
124466
124445
123217
125034
126083
126033
124646
126537
127645
127576
126080
127317
128456
128386
126838
127965
129139
129116
127617
111823
111913
111940
111914
113146
113314
113354
113286
114597
114864
114916
114787
116072
116443
116504
116291
117493
117968
118026
117708
118967
119542
119592
119159
120256
120924
120964
120411
121636
122380
122410
121743
122456
123247
123270
122508
123275
124102
124143
123326
110972
110994
111006
111006
111723
111777
111797
111789
112641
112745
112778
112753
113670
113838
113887
113833
114695
114936
114998
114899
115821
116140
116213
116057
116824
117220
117299
117075
117980
118448
118530
118231
118693
119211
119298
118935
119469
120030
120134
119730
110688
110697
110702
110703
111159
111183
111193
111193
111741
111790
111809
111805
112445
112529
112560
112550
113168
113294
113339
113315
114004
114180
114238
114193
114739
114969
115038
114964
115657
115940
116019
115908
116235
116559
116651
116507
116912
117272
117383
117216
110555
110559
110562
110562
110858
110867
110872
110873
111251
111271
111282
111284
111742
111781
111800
111802
112261
112325
112354
112354
112890
112985
113026
113020
113425
113556
113608
113593
114153
114321
114384
114353
114612
114810
114886
114842
115164
115389
115481
115424
110514
110516
110517
110517
110709
110713
110716
110717
110995
111005
111010
111012
111345
111364
111375
111378
111727
111760
111778
111782
112207
112259
112285
112290
112595
112669
112705
112709
113176
113274
113320
113318
113525
113644
113701
113694
113958
114095
114162
114149
110515
110516
110516
110517
110636
110638
110639
110640
110849
110854
110857
110858
111102
111112
111118
111120
111391
111409
111419
111422
111767
111795
111812
111817
112050
112092
112115
112121
112518
112575
112606
112612
112765
112836
112875
112879
113102
113185
113229
113231
110537
110538
110538
110538
110607
110609
110609
110610
110771
110774
110775
110776
110949
110954
110958
110959
111170
111180
111186
111189
111468
111484
111494
111498
111672
111697
111711
111717
112055
112089
112108
112114
112213
112257
112282
112287
112480
112530
112559
112564
110569
110569
110570
110570
110604
110605
110605
110606
110734
110736
110737
110737
110854
110857
110859
110860
111024
111029
111033
111035
111258
111268
111274
111277
111400
111415
111424
111428
111718
111739
111751
111755
111807
111833
111849
111854
112022
112053
112071
112075
110605
110605
110605
110605
110614
110615
110615
110615
110724
110725
110725
110725
110797
110799
110801
110801
110929
110932
110934
110935
111112
111119
111122
111124
111204
111212
111218
111221
111472
111485
111493
111495
111505
111522
111532
111535
111685
111704
111715
111718
110640
110640
110640
110640
110630
110630
110631
110631
110730
110730
110730
110730
110766
110767
110768
110768
110870
110871
110873
110873
111013
111017
111019
111020
111062
111068
111071
111073
111295
111303
111308
111309
111282
111292
111298
111301
111439
111450
111457
111460
110675
110675
110675
110675
110647
110647
110648
110648
110744
110745
110745
110744
110749
110750
110750
110751
110835
110836
110837
110837
110946
110948
110950
110950
110962
110966
110968
110969
111170
111175
111178
111179
111117
111124
111128
111129
111262
111269
111274
111275
110708
110708
110708
110708
110662
110663
110663
110663
110765
110765
110765
110765
110742
110742
110743
110743
110816
110817
110817
110818
110902
110903
110904
110905
110893
110895
110896
110897
111086
111089
111091
111092
110996
111000
111003
111004
111140
111144
111147
111148
110741
110741
110741
110741
110674
110674
110674
110674
110789
110788
110788
110788
110739
110739
110739
110740
110808
110808
110808
110808
110873
110874
110875
110875
110845
110846
110847
110848
111033
111035
111036
111036
110907
110910
110912
110912
111061
111063
111065
111066
110778
110778
110778
110777
110678
110678
110679
110679
110814
110814
110813
110813
110737
110737
110737
110738
110804
110804
110804
110804
110852
110853
110854
110854
110814
110814
110814
110815
111002
111003
111004
111004
110839
110841
110842
110843
111020
111021
111022
111023
110830
110830
110830
110830
110672
110672
110673
110673
110837
110837
110837
110837
110735
110735
110735
110735
110800
110801
110801
110801
110835
110835
110836
110836
110791
110791
110791
110792
110982
110983
110984
110984
110782
110783
110784
110784
111021
111022
111022
111023
110923
110923
110923
110923
110646
110646
110647
110647
110852
110853
110852
110852
110732
110732
110732
110732
110794
110794
110795
110795
110816
110817
110817
110817
110774
110774
110774
110774
110957
110959
110959
110959
110718
110719
110719
110720
111082
111082
111082
111084
111088
111088
111088
111088
110581
110581
110581
110581
110846
110847
110848
110848
110731
110731
110730
110730
110786
110786
110786
110787
110799
110799
110799
110799
110762
110761
110761
110762
110908
110911
110911
110911
110624
110624
110624
110624
111224
111224
111225
111226
111278
111278
111279
111280
110478
110474
110473
110473
110819
110821
110822
110823
110735
110734
110734
110734
110780
110781
110781
110781
110789
110789
110789
110789
110762
110761
110760
110761
110847
110850
110851
110850
110508
110502
110501
110504
111401
111404
111404
111401
116105
113591
111667
110380
109574
109054
108699
108449
108270
108133
117161
113980
111612
110212
109386
108861
108512
108270
108102
107976
117521
114017
111342
110021
109196
108676
108326
108085
107921
107814
117503
113912
111011
109856
109050
108564
108231
108001
107844
107737
117214
113688
110699
109674
108876
108425
108106
107891
107741
107646
116842
113558
110527
109635
108838
108427
108118
107915
107768
107665
116197
113298
110233
109480
108675
108304
108002
107808
107664
107568
115774
113320
110222
109612
108793
108456
108146
107949
107792
107670
115048
112986
109909
109479
108684
108394
108075
107874
107709
107579
115487
113683
110580
110175
109257
108864
108432
108142
107907
107706
112578
111834
111173
110620
110166
109796
109496
109256
109063
108913
114199
112835
111701
110847
110204
109721
109357
109080
108868
108708
115496
113545
112004
110929
110142
109577
109167
108865
108643
108494
116481
114030
112150
110945
110076
109479
109054
108747
108521
108367
117104
114294
112143
110861
109941
109335
108907
108604
108380
108233
117576
114540
112172
110860
109910
109311
108887
108590
108369
108215
117722
114569
112024
110717
109747
109165
108746
108456
108235
108087
117931
114770
112089
110823
109841
109279
108857
108563
108335
108165
117711
114572
111845
110687
109736
109205
108776
108476
108239
108061
118117
115085
112321
111185
110158
109554
109047
108682
108397
108167
111757
111442
111089
110749
110443
110175
109945
109752
109591
109460
112928
112287
111618
111039
110565
110182
109874
109624
109424
109269
114124
113074
112050
111228
110590
110100
109724
109432
109208
109049
115234
113750
112392
111377
110616
110054
109633
109315
109073
108899
116159
114243
112579
111410
110555
109946
109498
109167
108915
108742
117030
114714
112777
111493
110569
109933
109471
109134
108878
108696
117626
114954
112776
111414
110438
109789
109319
108981
108722
108543
118275
115316
112946
111547
110538
109886
109408
109062
108796
108598
118445
115268
112812
111451
110451
109810
109320
108965
108689
108483
118949
115687
113183
111818
110763
110068
109524
109123
108814
108572
110983
110887
110752
110599
110443
110291
110150
110024
109912
109819
111715
111487
111199
110905
110628
110377
110156
109966
109806
109676
112582
112147
111639
111160
110740
110382
110085
109840
109642
109495
113515
112826
112075
111414
110858
110408
110046
109756
109526
109353
114377
113398
112393
111561
110888
110363
109952
109632
109379
109198
115268
113983
112727
111744
110974
110392
109946
109605
109337
109140
115960
114362
112865
111755
110903
110281
109810
109455
109176
108977
116750
114862
113151
111948
111035
110384
109893
109522
109234
109017
117126
114989
113147
111909
110970
110304
109794
109412
109113
108888
117731
115418
113479
112192
111201
110493
109945
109530
109208
108959
110695
110654
110592
110517
110434
110349
110266
110188
110117
110055
111166
111070
110933
110775
110613
110455
110307
110174
110058
109961
111746
111554
111297
111023
110759
110516
110300
110112
109953
109830
112442
112116
111707
111298
110921
110590
110305
110066
109867
109712
113132
112639
112054
111502
111014
110602
110259
109977
109746
109574
113903
113214
112439
111747
111157
110675
110284
109969
109714
109520
114530
113623
112651
111828
111145
110605
110174
109834
109560
109358
115300
114169
113011
112074
111315
110727
110264
109900
109612
109391
115737
114402
113102
112089
111276
110654
110164
109785
109484
109255
116336
114822
113408
112326
111461
110801
110280
109876
109559
109311
110559
110541
110513
110476
110433
110387
110340
110295
110252
110215
110865
110822
110754
110670
110578
110483
110390
110303
110225
110157
111265
111177
111047
110893
110732
110574
110425
110289
110171
110077
111766
111612
111392
111148
110903
110672
110462
110276
110116
109988
112292
112045
111715
111366
111030
110725
110455
110224
110027
109876
112916
112555
112096
111635
111208
110833
110510
110239
110012
109835
113429
112931
112329
111754
111239
110799
110430
110126
109873
109683
114111
113463
112716
112033
111437
110941
110532
110199
109928
109716
114524
113726
112852
112080
111418
110878
110438
110085
109799
109578
115045
114109
113133
112290
111578
111002
110534
110160
109861
109625
110516
110507
110493
110474
110451
110426
110400
110375
110350
110328
110712
110691
110655
110609
110557
110501
110444
110390
110339
110294
111003
110958
110887
110798
110700
110599
110500
110407
110324
110256
111363
111284
111162
111015
110857
110701
110552
110415
110294
110193
111757
111629
111439
111220
110994
110776
110574
110393
110236
110111
112250
112058
111785
111484
111185
110904
110651
110430
110240
110087
112646
112373
112004
111614
111238
110897
110596
110339
110120
109950
113222
112854
112381
111902
111453
111055
110712
110423
110182
109989
113563
113092
112518
111956
111444
111001
110625
110314
110056
109853
113987
113425
112772
112149
111590
111114
110713
110383
110113
109896
110516
110511
110504
110494
110482
110469
110454
110440
110426
110414
110637
110626
110607
110582
110552
110519
110486
110453
110421
110393
110853
110829
110789
110737
110678
110615
110551
110489
110433
110387
111113
111070
110999
110909
110809
110706
110603
110507
110419
110344
111411
111341
111228
111090
110940
110788
110643
110508
110387
110290
111799
111693
111528
111333
111126
110923
110733
110561
110409
110283
112096
111942
111714
111453
111186
110930
110696
110488
110307
110163
112571
112361
112062
111732
111404
111099
110824
110585
110381
110213
112822
112545
112174
111779
111397
111050
110743
110482
110259
110080
113160
112826
112399
111955
111534
111157
110828
110549
110315
110125
110538
110535
110531
110526
110520
110512
110505
110497
110489
110482
110609
110602
110592
110578
110561
110542
110522
110502
110484
110466
110773
110759
110736
110705
110670
110631
110590
110551
110514
110484
110955
110931
110889
110834
110771
110704
110635
110569
110508
110454
111183
111141
111073
110986
110887
110784
110682
110586
110497
110424
111489
111426
111325
111198
111058
110916
110777
110648
110532
110433
111705
111614
111471
111298
111112
110926
110750
110589
110444
110328
112095
111971
111781
111558
111325
111098
110887
110697
110531
110391
112261
112097
111858
111588
111312
111049
110809
110597
110412
110262
112530
112333
112057
111749
111442
111154
110894
110667
110473
110311
110569
110568
110566
110563
110560
110556
110551
110547
110543
110539
110605
110602
110596
110588
110578
110568
110556
110544
110533
110522
110735
110727
110714
110696
110674
110650
110625
110600
110577
110559
110858
110843
110818
110785
110745
110702
110658
110614
110572
110535
111031
111006
110964
110909
110845
110777
110707
110639
110576
110524
111271
111234
111171
111089
110995
110897
110799
110706
110619
110545
111422
111367
111276
111162
111035
110903
110774
110654
110543
110453
111745
111670
111550
111401
111238
111074
110917
110772
110642
110530
111840
111742
111589
111407
111212
111020
110837
110673
110525
110404
112059
111940
111763
111555
111337
111124
110926
110748
110592
110460
110605
110604
110603
110601
110599
110597
110595
110593
110590
110588
110615
110613
110610
110605
110600
110594
110587
110580
110574
110566
110724
110719
110711
110700
110687
110673
110658
110642
110628
110617
110800
110791
110776
110756
110731
110704
110675
110646
110619
110594
110933
110918
110892
110857
110816
110771
110724
110678
110635
110599
111121
111098
111058
111005
110944
110877
110810
110744
110682
110627
111217
111183
111126
111051
110965
110874
110782
110695
110613
110546
111489
111444
111367
111268
111157
111042
110928
110821
110723
110636
111527
111467
111370
111248
111114
110976
110842
110718
110604
110510
111710
111638
111525
111386
111235
111082
110936
110801
110680
110576
110640
110640
110639
110638
110637
110636
110635
110634
110632
110632
110631
110630
110628
110626
110622
110619
110615
110611
110607
110602
110729
110726
110721
110715
110707
110698
110689
110679
110671
110666
110768
110762
110753
110741
110726
110708
110690
110672
110654
110637
110872
110863
110847
110825
110798
110769
110739
110708
110679
110655
111018
111004
110979
110945
110905
110861
110815
110770
110727
110688
111071
111050
111013
110965
110907
110845
110782
110720
110661
110613
111305
111277
111228
111164
111090
111010
110930
110853
110782
110717
111296
111259
111197
111116
111025
110929
110833
110743
110658
110587
111455
111411
111339
111248
111145
111038
110933
110834
110744
110665
110675
110675
110674
110674
110673
110673
110672
110671
110670
110670
110648
110647
110647
110645
110643
110641
110639
110637
110634
110631
110744
110742
110739
110735
110730
110725
110719
110714
110709
110707
110751
110748
110742
110735
110725
110715
110703
110692
110680
110669
110836
110831
110820
110807
110790
110771
110752
110732
110713
110697
110949
110940
110924
110903
110877
110848
110818
110788
110758
110732
110968
110955
110931
110900
110862
110821
110778
110735
110695
110661
111177
111159
111128
111087
111038
110984
110929
110876
110825
110778
111126
111103
111063
111011
110950
110884
110818
110754
110692
110640
111273
111246
111200
111141
111072
111000
110926
110856
110791
110733
110708
110708
110708
110707
110707
110707
110706
110706
110706
110706
110663
110663
110663
110662
110661
110660
110658
110657
110655
110652
110764
110763
110761
110758
110755
110752
110749
110745
110743
110743
110743
110741
110738
110733
110728
110721
110714
110707
110700
110692
110817
110814
110807
110799
110788
110777
110764
110751
110739
110730
110904
110898
110889
110875
110859
110840
110820
110800
110781
110763
110897
110888
110873