/*--------------------------------*- C++ -*----------------------------------*\
| =========                 |                                                 |
| \\      /  F ield         | foam-extend: Open Source CFD                    |
|  \\    /   O peration     | Version:     4.0                                |
|   \\  /    A nd           | Web:         http://www.foam-extend.org         |
|    \\/     M anipulation  |                                                 |
\*---------------------------------------------------------------------------*/
FoamFile
{
    version     2.0;
    format      ascii;
    class       surfaceScalarField;
    location    "1500";
    object      phi;
}
// * * * * * * * * * * * * * * * * * * * * * * * * * * * * * * * * * * * * * //

dimensions      [1 0 -1 0 0 0 0];

internalField   nonuniform List<scalar> 
97302
(
-0.000109787
9.57533e-07
-0.000869282
0.000878547
-0.000119598
1.14728e-06
-0.000870286
0.00087895
-0.000129517
1.20664e-06
-0.000870815
0.000879528
-0.000140117
1.14493e-06
-0.000870857
0.000880312
-0.000152223
9.53092e-07
-0.000870408
0.000881562
-0.000167316
6.21047e-07
-0.000869246
0.000883717
-0.000188488
1.22358e-07
-0.000866762
0.000887812
-0.000222742
-5.87262e-07
-0.000861141
0.000895982
-0.00027132
-1.63034e-06
-0.000851359
0.000901568
-4.38735e-06
-0.000823873
-0.000352991
0.00090993
-0.000150905
1.61651e-06
-0.0011657
0.00117578
-0.000161173
1.97956e-06
-0.00116665
0.00117609
-0.000171516
2.09833e-06
-0.00116725
0.0011767
-0.000182469
2.00662e-06
-0.00116727
0.00117737
-0.000194828
1.68954e-06
-0.00116648
0.00117811
-0.000210308
1.13589e-06
-0.00116448
0.00117945
-0.000232759
2.88172e-07
-0.00116089
0.00118318
-0.000271562
-9.48727e-07
-0.0011541
0.00119326
-0.00032834
-2.87809e-06
-0.0011418
0.00119983
-7.44117e-06
-0.00110392
-0.000432757
0.00121139
-0.000191218
1.916e-06
-0.00146103
0.00147187
-0.000201785
2.41307e-06
-0.00146204
0.00147218
-0.000212301
2.59469e-06
-0.00146267
0.00147269
-0.000223276
2.51851e-06
-0.00146247
0.00147293
-0.000235633
2.16652e-06
-0.00146113
0.00147301
-0.000251507
1.52823e-06
-0.00145847
0.00147395
-0.000275381
5.24508e-07
-0.00145459
0.00147823
-0.000318348
-9.42927e-07
-0.00144802
0.00149098
-0.000381675
-3.32628e-06
-0.00143486
0.00149864
-9.10774e-06
-0.00138616
-0.000500669
0.00150682
-0.000231452
2.11002e-06
-0.00175238
0.00176363
-0.000242311
2.74649e-06
-0.00175361
0.00176414
-0.000253122
3.00673e-06
-0.00175449
0.00176489
-0.000264409
2.97146e-06
-0.0017545
0.00176534
-0.000277164
2.61194e-06
-0.00175333
0.00176564
-0.000293708
1.91947e-06
-0.00175091
0.00176706
-0.000318854
7.91837e-07
-0.00174735
0.00177223
-0.000364955
-8.62342e-07
-0.00174114
0.00178716
-0.000432966
-3.64708e-06
-0.00172753
0.00179586
-1.05958e-05
-0.0016677
-0.000560722
0.00179694
-0.000271586
2.34481e-06
-0.00204488
0.00205632
-0.000282614
3.0502e-06
-0.00204649
0.00205722
-0.000293592
3.34817e-06
-0.00204788
0.00205851
-0.000305073
3.32925e-06
-0.00204836
0.00205948
-0.000318116
2.96234e-06
-0.00204772
0.00206041
-0.000335161
2.23835e-06
-0.00204592
0.00206265
-0.000361313
1.0408e-06
-0.00204301
0.00206892
-0.000409948
-7.13913e-07
-0.00203749
0.00208598
-0.0004819
-3.77983e-06
-0.00202425
0.00209633
-1.18279e-05
-0.00195261
-0.000615125
0.00208707
-0.000312288
2.42974e-06
-0.00233599
0.00234773
-0.000323418
3.16045e-06
-0.00233805
0.00234907
-0.000334464
3.44639e-06
-0.00233983
0.00235078
-0.000346003
3.39997e-06
-0.00234073
0.0023522
-0.000359144
2.99892e-06
-0.00234061
0.00235372
-0.000376416
2.24292e-06
-0.00233957
0.00235684
-0.000403194
1.01418e-06
-0.00233759
0.0023644
-0.000453722
-7.53248e-07
-0.00233318
0.00238375
-0.000528978
-3.87898e-06
-0.00232145
0.0023968
-1.2799e-05
-0.00223772
-0.000665722
0.00237543
-0.000352811
2.40557e-06
-0.00262692
0.00263879
-0.000363883
3.04385e-06
-0.00262959
0.00264078
-0.000374851
3.25915e-06
-0.00263193
0.00264309
-0.000386299
3.12697e-06
-0.0026333
0.00264502
-0.00039939
2.65193e-06
-0.00263376
0.0026472
-0.000416681
1.82641e-06
-0.00263353
0.00265124
-0.000443797
5.86607e-07
-0.00263269
0.00266024
-0.000495665
-1.08289e-06
-0.00262988
0.00268208
-0.000573705
-3.83327e-06
-0.00262081
0.0026988
-1.29619e-05
-0.00252475
-0.000712449
0.00266366
-0.000394605
2.04057e-06
-0.00291844
0.00293074
-0.000405728
2.48956e-06
-0.0029217
0.00293337
-0.000416696
2.51865e-06
-0.00292415
0.00293586
-0.000428094
2.18076e-06
-0.00292547
0.00293781
-0.000441049
1.51173e-06
-0.00292583
0.00293992
-0.000458065
5.0926e-07
-0.00292577
0.0029441
-0.000484907
-7.98517e-07
-0.00292563
0.00295385
-0.000536967
-2.34067e-06
-0.00292426
0.00297758
-0.000616474
-4.13035e-06
-0.00291854
0.00299834
-1.21239e-05
-0.00281199
-0.000755614
0.0029503
-0.000435806
1.07571e-06
-0.00320633
0.00321877
-0.000446501
1.14309e-06
-0.00321044
0.00322248
-0.000457072
8.52702e-07
-0.00321351
0.00322575
-0.000468166
1.19919e-07
-0.00321544
0.00322859
-0.00048095
-9.38626e-07
-0.00321659
0.00323183
-0.000497809
-2.29803e-06
-0.00321754
0.00323721
-0.000524505
-3.77287e-06
-0.00321881
0.00324848
-0.000576292
-5.08799e-06
-0.00321974
0.00327428
-0.000655735
-5.49625e-06
-0.00321641
0.00329721
-1.01874e-05
-0.00309911
-0.000792367
0.0032338
-0.000477219
-0.00347491
0.00348792
-0.000488555
-0.00347851
0.00349099
-0.000499735
-0.00347922
0.00349126
-0.000511439
-0.00347669
0.00348851
-0.000524708
-0.00347155
0.00348388
-0.00054167
-0.00346488
0.00347954
-0.000567556
-0.00345783
0.00347995
-0.000616555
-0.00345192
0.00349583
-0.000689637
-0.00344833
0.00351591
-0.00333941
-0.000818626
0.00345821
1.44063e-05
8.95334e-07
-0.000860836
5.32629e-06
1.12041e-06
-0.000862327
-3.77546e-06
1.20138e-06
-0.000862914
-1.30828e-05
1.14396e-06
-0.000862694
-2.27949e-05
9.38222e-07
-0.000861634
-3.31303e-05
5.6584e-07
-0.000859476
-4.42364e-05
-7.31894e-09
-0.000855649
-5.55328e-05
-8.60019e-07
-0.000848984
-6.62373e-05
-2.18824e-06
-0.000838466
-3.95942e-06
-0.000822218
-6.39321e-05
1.54234e-05
1.52803e-06
-0.00115586
5.40808e-06
1.94516e-06
-0.00115746
-4.5979e-06
2.09908e-06
-0.00115814
-1.49119e-05
2.02009e-06
-0.00115784
-2.57989e-05
1.68636e-06
-0.00115634
-3.7622e-05
1.07568e-06
-0.00115317
-5.12179e-05
1.26345e-07
-0.00114743
-6.76304e-05
-1.27769e-06
-0.00113727
-8.82605e-05
-3.52365e-06
-0.00111984
-6.5899e-06
-0.00109089
-9.8662e-05
1.67503e-05
1.84516e-06
-0.00144999
6.02257e-06
2.41017e-06
-0.00145178
-4.61329e-06
2.63375e-06
-0.00145257
-1.54892e-05
2.57164e-06
-0.00145215
-2.69428e-05
2.19081e-06
-0.00145018
-3.97081e-05
1.46773e-06
-0.0014461
-5.55309e-05
3.10571e-07
-0.00143896
-7.71405e-05
-1.4024e-06
-0.00142629
-0.000108627
-4.25614e-06
-0.00140265
-8.36797e-06
-0.00135912
-0.000133895
1.79631e-05
2.05807e-06
-0.00174064
6.75295e-06
2.78001e-06
-0.00174277
-4.36696e-06
3.09089e-06
-0.00174383
-1.57922e-05
3.07493e-06
-0.00174358
-2.79783e-05
2.68472e-06
-0.00174164
-4.19172e-05
1.8988e-06
-0.0017374
-5.99196e-05
5.84661e-07
-0.00172962
-8.61085e-05
-1.37099e-06
-0.00171498
-0.000128036
-4.76136e-06
-0.00168509
-9.87134e-06
-0.00162523
-0.000169004
1.90735e-05
2.30647e-06
-0.00203274
7.57843e-06
3.10664e-06
-0.00203532
-3.82051e-06
3.46129e-06
-0.00203685
-1.55799e-05
3.46766e-06
-0.00203699
-2.82933e-05
3.07417e-06
-0.00203539
-4.31383e-05
2.25876e-06
-0.00203144
-6.28911e-05
8.49875e-07
-0.00202353
-9.29703e-05
-1.25597e-06
-0.00200753
-0.000144868
-5.04066e-06
-0.00197207
-1.10267e-05
-0.00189494
-0.000201388
1.97735e-05
2.42408e-06
-0.00232343
8.10302e-06
3.25856e-06
-0.00232653
-3.42515e-06
3.60882e-06
-0.00232845
-1.53262e-05
3.598e-06
-0.00232896
-2.83135e-05
3.18145e-06
-0.00232773
-4.37281e-05
2.34694e-06
-0.00232424
-6.47744e-05
9.0301e-07
-0.0023166
-9.80394e-05
-1.2438e-06
-0.00229993
-0.000159327
-5.17451e-06
-0.00226002
-1.18468e-05
-0.00216544
-0.000230787
2.01822e-05
2.39155e-06
-0.00261411
8.53617e-06
3.13196e-06
-0.00261782
-2.94051e-06
3.41686e-06
-0.00262026
-1.47797e-05
3.33304e-06
-0.00262119
-2.78247e-05
2.87528e-06
-0.00262041
-4.35267e-05
2.01404e-06
-0.0026175
-6.54684e-05
5.7395e-07
-0.00261042
-0.000101276
-1.53838e-06
-0.00259378
-0.000171241
-5.217e-06
-0.0025508
-1.22182e-05
-0.00243884
-0.000256782
1.99214e-05
2.05038e-06
-0.00290519
8.27499e-06
2.60519e-06
-0.00290952
-3.09426e-06
2.73423e-06
-0.0029121
-1.47661e-05
2.49743e-06
-0.00291296
-2.76389e-05
1.92543e-06
-0.00291201
-4.32375e-05
9.84892e-07
-0.00290914
-6.54443e-05
-4.16572e-07
-0.00290243
-0.000102719
-2.38771e-06
-0.00288614
-0.000180083
-5.20027e-06
-0.00284119
-1.18783e-05
-0.00271302
-0.000279395
1.93865e-05
1.08159e-06
-0.00319281
8.21116e-06
1.22626e-06
-0.00319788
-2.65226e-06
1.06663e-06
-0.00320098
-1.38149e-05
4.82707e-07
-0.00320226
-2.63299e-05
-3.94673e-07
-0.00320176
-4.18327e-05
-1.57509e-06
-0.00319948
-6.44095e-05
-3.00039e-06
-0.00319365
-0.000103009
-4.66488e-06
-0.00317886
-0.000186334
-6.13882e-06
-0.00313214
-1.00646e-05
-0.00298542
-0.000301837
1.82305e-05
-0.00346111
6.80364e-06
-0.00346585
-4.10884e-06
-0.00346725
-1.51962e-05
-0.00346512
-2.73985e-05
-0.00345975
-4.23196e-05
-0.00345153
-6.3879e-05
-0.00343927
-0.000101259
-0.0034192
-0.000185983
-0.00336974
-0.00321548
-0.000319982
1.20337e-05
7.84418e-07
-0.000854175
4.43341e-06
1.02487e-06
-0.000855751
-3.28297e-06
1.1131e-06
-0.000856311
-1.10255e-05
1.04888e-06
-0.000856
-1.86711e-05
8.25627e-07
-0.000854815
-2.59747e-05
4.27561e-07
-0.0008526
-3.23848e-05
-1.67339e-07
-0.000849072
-3.65974e-05
-9.97005e-07
-0.000843774
-3.67325e-05
-2.14529e-06
-0.000836186
-3.42406e-06
-0.000826542
-2.89845e-05
1.38896e-05
1.3768e-06
-0.00114736
4.86647e-06
1.8178e-06
-0.00114923
-4.21877e-06
1.98107e-06
-0.00114992
-1.3457e-05
1.89064e-06
-0.00114944
-2.28544e-05
1.52505e-06
-0.00114765
-3.22603e-05
8.59792e-07
-0.00114419
-4.12742e-05
-1.58589e-07
-0.00113842
-4.87443e-05
-1.60252e-06
-0.00112919
-5.2207e-05
-3.68728e-06
-0.00111483
-6.1103e-06
-0.00109564
-4.47737e-05
1.59922e-05
1.72919e-06
-0.00143984
5.79285e-06
2.32523e-06
-0.00144209
-4.40177e-06
2.55886e-06
-0.00144295
-1.47872e-05
2.47879e-06
-0.00144235
-2.54587e-05
2.0471e-06
-0.00144003
-3.64798e-05
1.22864e-06
-0.00143544
-4.79646e-05
-7.14379e-08
-0.00142756
-5.94451e-05
-1.95071e-06
-0.00141446
-6.85123e-05
-4.81933e-06
-0.00139245
-8.33953e-06
-0.00136044
-6.49619e-05
1.76386e-05
1.99259e-06
-0.00172945
6.65147e-06
2.75666e-06
-0.00173222
-4.32783e-06
3.07969e-06
-0.00173337
-1.56103e-05
3.04118e-06
-0.00173286
-2.74419e-05
2.587e-06
-0.00173034
-4.01525e-05
1.67957e-06
-0.00172514
-5.43034e-05
1.70893e-07
-0.00171572
-7.00869e-05
-2.05934e-06
-0.00169909
-8.57952e-05
-5.67369e-06
-0.00166853
-1.03017e-05
-0.00162081
-8.82455e-05
1.90398e-05
2.28612e-06
-0.00202088
7.54522e-06
3.13522e-06
-0.00202421
-3.92088e-06
3.50603e-06
-0.00202581
-1.57775e-05
3.49104e-06
-0.00202558
-2.84501e-05
3.03122e-06
-0.00202316
-4.25208e-05
2.08467e-06
-0.00201777
-5.90032e-05
4.48313e-07
-0.00200732
-7.88871e-05
-2.02632e-06
-0.00198767
-0.000101924
-6.26688e-06
-0.00194844
-1.19337e-05
-0.00188311
-0.000112123
1.9974e-05
2.45269e-06
-0.00231095
8.14436e-06
3.34048e-06
-0.00231491
-3.60334e-06
3.71148e-06
-0.00231691
-1.57821e-05
3.68672e-06
-0.00231698
-2.8975e-05
3.20955e-06
-0.00231472
-4.40143e-05
2.24658e-06
-0.00230937
-6.23997e-05
5.64566e-07
-0.00229833
-8.60257e-05
-2.00831e-06
-0.00227632
-0.000116852
-6.60428e-06
-0.00222886
-1.31442e-05
-0.00214485
-0.000136227
2.05228e-05
2.44354e-06
-0.00260119
8.61407e-06
3.23716e-06
-0.0026058
-3.1748e-06
3.54868e-06
-0.00260831
-1.54027e-05
3.46424e-06
-0.00260874
-2.88189e-05
2.97039e-06
-0.00260675
-4.44655e-05
2.02079e-06
-0.00260163
-6.43262e-05
3.79872e-07
-0.00259038
-9.12318e-05
-2.17473e-06
-0.00256671
-0.000129953
-6.73692e-06
-0.00251195
-1.39182e-05
-0.00240875
-0.000159266
2.03442e-05
2.11363e-06
-0.0028918
8.40642e-06
2.71786e-06
-0.00289707
-3.29802e-06
2.89021e-06
-0.00289974
-1.5391e-05
2.69368e-06
-0.0029001
-2.87163e-05
2.14393e-06
-0.00289785
-4.45052e-05
1.194e-06
-0.00289253
-6.52097e-05
-3.08121e-07
-0.00288104
-9.45557e-05
-2.62759e-06
-0.00285634
-0.000140658
-6.38118e-06
-0.00279545
-1.37158e-05
-0.00267332
-0.000180565
1.9727e-05
1.15856e-06
-0.0031791
8.24297e-06
1.33565e-06
-0.00318502
-2.96027e-06
1.25579e-06
-0.00318815
-1.45096e-05
7.81062e-07
-0.0031888
-2.74068e-05
3.49352e-08
-0.00318675
-4.31255e-05
-1.00378e-06
-0.00318156
-6.46232e-05
-2.32675e-06
-0.00317014
-9.6412e-05
-4.08017e-06
-0.00314562
-0.000148868
-6.36059e-06
-0.00307971
-1.1501e-05
-0.00293594
-0.000200563
1.85645e-05
-0.00344725
6.99826e-06
-0.00345295
-4.09677e-06
-0.00345489
-1.54313e-05
-0.003453
-2.78975e-05
-0.00344724
-4.29792e-05
-0.00343745
-6.36744e-05
-0.00342091
-9.53836e-05
-0.00339157
-0.000150651
-0.00332084
-0.0031623
-0.000215331
9.33929e-06
6.15839e-07
-0.000849353
3.47072e-06
8.59741e-07
-0.000850742
-2.57969e-06
9.52041e-07
-0.000851212
-8.53871e-06
8.86167e-07
-0.000850927
-1.40997e-05
6.60714e-07
-0.000849914
-1.88399e-05
2.66793e-07
-0.000848126
-2.21171e-05
-3.02536e-07
-0.000845492
-2.28928e-05
-1.0495e-06
-0.000841949
-1.95844e-05
-1.97067e-06
-0.000837524
-2.85517e-06
-0.000832679
-1.05922e-05
1.17339e-05
1.13098e-06
-0.00114054
4.11772e-06
1.58216e-06
-0.00114234
-3.62803e-06
1.7506e-06
-0.00114297
-1.13658e-05
1.65269e-06
-0.00114247
-1.88795e-05
1.2713e-06
-0.00114074
-2.57801e-05
5.88428e-07
-0.00113761
-3.13084e-05
-4.27451e-07
-0.00113277
-3.39467e-05
-1.79848e-06
-0.00112581
-3.08564e-05
-3.58501e-06
-0.00111631
-5.40173e-06
-0.00110578
-1.81669e-05
1.44413e-05
1.50812e-06
-0.00143108
5.26717e-06
2.12054e-06
-0.00143345
-3.97442e-06
2.35702e-06
-0.00143432
-1.32841e-05
2.25642e-06
-0.00143364
-2.25557e-05
1.78248e-06
-0.00143127
-3.14944e-05
9.00564e-07
-0.00142682
-3.94228e-05
-4.66805e-07
-0.00141959
-4.47315e-05
-2.37233e-06
-0.00140858
-4.34947e-05
-5.01045e-06
-0.00139226
-7.86904e-06
-0.00137274
-2.87225e-05
1.65255e-05
1.8239e-06
-0.00171936
6.23402e-06
2.617e-06
-0.00172242
-4.12136e-06
2.94383e-06
-0.00172361
-1.46783e-05
2.87486e-06
-0.00172292
-2.5482e-05
2.35641e-06
-0.00172012
-3.64441e-05
1.34657e-06
-0.00171462
-4.70973e-05
-2.90782e-07
-0.00170524
-5.58578e-05
-2.64782e-06
-0.00169005
-5.78744e-05
-6.14702e-06
-0.00166538
-1.01426e-05
-0.00163352
-4.28974e-05
1.82729e-05
2.16834e-06
-0.0020098
7.19714e-06
3.0558e-06
-0.00201357
-3.91147e-06
3.43427e-06
-0.00201519
-1.53296e-05
3.38599e-06
-0.00201468
-2.72944e-05
2.85034e-06
-0.00201169
-3.99677e-05
1.77607e-06
-0.00200553
-5.31872e-05
-3.75751e-08
-0.00199436
-6.55865e-05
-2.73618e-06
-0.00197519
-7.19201e-05
-7.02087e-06
-0.00194123
-1.21579e-05
-0.00189437
-5.86372e-05
1.95023e-05
2.39511e-06
-0.00229904
7.87794e-06
3.32736e-06
-0.00230356
-3.7219e-06
3.71081e-06
-0.00230559
-1.56999e-05
3.65875e-06
-0.00230527
-2.84699e-05
3.10811e-06
-0.00230221
-4.24692e-05
2.01117e-06
-0.0022956
-5.7938e-05
1.23583e-07
-0.00228302
-7.39394e-05
-2.75239e-06
-0.0022603
-8.5514e-05
-7.5738e-06
-0.00221673
-1.3732e-05
-0.00215299
-7.58045e-05
2.02559e-05
2.4301e-06
-0.00258864
8.39744e-06
3.26972e-06
-0.00259389
-3.39084e-06
3.59901e-06
-0.00259641
-1.55899e-05
3.49838e-06
-0.00259638
-2.88011e-05
2.9452e-06
-0.00259338
-4.37216e-05
1.88153e-06
-0.00258658
-6.10521e-05
4.75746e-08
-0.00257297
-8.04265e-05
-2.83982e-06
-0.00254725
-9.78524e-05
-7.82614e-06
-0.00249427
-1.48659e-05
-0.00241234
-9.31288e-05
2.02339e-05
2.12862e-06
-0.00287865
8.27379e-06
2.77555e-06
-0.00288461
-3.50483e-06
2.97798e-06
-0.00288734
-1.5668e-05
2.80053e-06
-0.00288724
-2.893e-05
2.24103e-06
-0.00288389
-4.42364e-05
1.24456e-06
-0.00287658
-6.28148e-05
-3.82344e-07
-0.00286203
-8.50139e-05
-3.00065e-06
-0.00283398
-0.000108487
-7.30922e-06
-0.00277249
-1.48077e-05
-0.00267178
-0.000110083
1.96826e-05
1.20756e-06
-0.00316553
8.11805e-06
1.41245e-06
-0.00317209
-3.22089e-06
1.39743e-06
-0.00317523
-1.49011e-05
1.0076e-06
-0.00317533
-2.77754e-05
3.54772e-07
-0.00317199
-4.30229e-05
-5.98113e-07
-0.00316447
-6.24928e-05
-1.88524e-06
-0.00314916
-8.76439e-05
-3.74162e-06
-0.00311973
-0.000117027
-6.4849e-06
-0.00305115
-1.22034e-05
-0.00292894
-0.000126634
1.8595e-05
-0.00343358
7.06967e-06
-0.00344001
-4.05021e-06
-0.00344238
-1.54356e-05
-0.00344061
-2.7856e-05
-0.00343447
-4.25303e-05
-0.00342338
-6.14084e-05
-0.00340391
-8.70416e-05
-0.00336968
-0.000119657
-0.00329471
-0.00315477
-0.000139389
6.85307e-06
4.31009e-07
-0.000846016
2.57964e-06
6.61925e-07
-0.000847131
-1.8934e-06
7.52755e-07
-0.000847492
-6.23579e-06
6.90574e-07
-0.000847275
-1.01029e-05
4.78908e-07
-0.000846526
-1.30897e-05
1.16847e-07
-0.000845256
-1.47026e-05
-3.87193e-07
-0.000843492
-1.43375e-05
-1.01196e-06
-0.000841302
-1.13237e-05
-1.71183e-06
-0.000838826
-2.32114e-06
-0.000836312
-5.37032e-06
9.39393e-06
8.36589e-07
-0.00113534
3.30512e-06
1.27698e-06
-0.00113686
-2.96047e-06
1.4438e-06
-0.0011374
-9.12299e-06
1.34485e-06
-0.00113696
-1.484e-05
9.6876e-07
-0.00113552
-1.96418e-05
3.08846e-07
-0.00113301
-2.28129e-05
-6.39994e-07
-0.00112935
-2.32497e-05
-1.85592e-06
-0.00112453
-1.92886e-05
-3.29617e-06
-0.00111868
-4.61721e-06
-0.001113
-9.77487e-06
1.24608e-05
1.20809e-06
-0.00142391
4.59827e-06
1.81703e-06
-0.00142613
-3.39803e-06
2.05004e-06
-0.00142693
-1.13453e-05
1.93388e-06
-0.00142629
-1.89686e-05
1.43761e-06
-0.00142412
-2.57957e-05
5.3668e-07
-0.00142022
-3.09504e-05
-8.15263e-07
-0.00141426
-3.2854e-05
-2.6205e-06
-0.00140591
-2.86186e-05
-4.89957e-06
-0.00139489
-7.11832e-06
-0.00138346
-1.53964e-05
1.48929e-05
1.55799e-06
-0.00171068
5.64491e-06
2.36399e-06
-0.00171372
-3.74287e-06
2.68916e-06
-0.00171486
-1.32044e-05
2.59186e-06
-0.00171412
-2.25758e-05
2.02338e-06
-0.00171133
-3.14917e-05
9.48265e-07
-0.00170612
-3.90598e-05
-7.36194e-07
-0.00169775
-4.33478e-05
-3.07206e-06
-0.00168531
-4.00343e-05
-6.23975e-06
-0.00166735
-9.50867e-06
-0.00164731
-2.38528e-05
1.69724e-05
1.94532e-06
-0.00199988
6.67108e-06
2.85906e-06
-0.00200376
-3.73598e-06
3.24035e-06
-0.00200534
-1.43264e-05
3.15749e-06
-0.00200465
-2.51067e-05
2.55255e-06
-0.00200144
-3.58997e-05
1.37481e-06
-0.00199516
-4.59279e-05
-5.46621e-07
-0.00198452
-5.30598e-05
-3.31451e-06
-0.00196781
-5.16574e-05
-7.34336e-06
-0.00194153
-1.1738e-05
-0.00191016
-3.36463e-05
1.8513e-05
2.23263e-06
-0.00228807
7.43346e-06
3.20136e-06
-0.00229282
-3.69426e-06
3.59317e-06
-0.00229481
-1.50918e-05
3.50997e-06
-0.00229423
-2.69365e-05
2.88629e-06
-0.0022907
-3.92951e-05
1.66809e-06
-0.00228354
-5.16416e-05
-3.70223e-07
-0.00227085
-6.18579e-05
-3.40116e-06
-0.00225
-6.336e-05
-8.08926e-06
-0.00221449
-1.35548e-05
-0.00216952
-4.50111e-05
1.9504e-05
2.32495e-06
-0.00257682
8.00874e-06
3.20683e-06
-0.0025824
-3.48409e-06
3.55113e-06
-0.00258488
-1.53012e-05
3.42992e-06
-0.00258449
-2.78133e-05
2.81286e-06
-0.00258079
-4.13449e-05
1.63331e-06
-0.00257301
-5.5723e-05
-3.63774e-07
-0.0025586
-6.90191e-05
-3.45266e-06
-0.0025339
-7.42036e-05
-8.45779e-06
-0.00248872
-1.49214e-05
-0.00242833
-5.68548e-05
1.9685e-05
2.06303e-06
-0.00286611
7.98275e-06
2.7535e-06
-0.00287246
-3.60971e-06
2.98176e-06
-0.00287518
-1.55314e-05
2.81506e-06
-0.0028747
-2.82787e-05
2.23454e-06
-0.00287056
-4.24301e-05
1.1768e-06
-0.00286198
-5.82859e-05
-5.70146e-07
-0.00284597
-7.43709e-05
-3.38836e-06
-0.00281796
-8.38545e-05
-7.88909e-06
-0.00276358
-1.49844e-05
-0.00268653
-6.90406e-05
1.92594e-05
1.20754e-06
-0.00315244
7.86553e-06
1.44103e-06
-0.00315938
-3.37957e-06
1.48282e-06
-0.00316248
-1.49238e-05
1.16198e-06
-0.00316213
-2.74115e-05
5.79332e-07
-0.00315785
-4.16274e-05
-3.17988e-07
-0.00314876
-5.83693e-05
-1.59692e-06
-0.00313139
-7.72657e-05
-3.52795e-06
-0.00310069
-9.15396e-05
-6.46435e-06
-0.0030383
-1.20655e-05
-0.00294192
-8.14724e-05
1.82809e-05
-0.00342041
7.00019e-06
-0.00342729
-3.95956e-06
-0.00342994
-1.51761e-05
-0.00342823
-2.72432e-05
-0.00342182
-4.10311e-05
-0.00340991
-5.74845e-05
-0.00338906
-7.70692e-05
-0.00335363
-9.4131e-05
-0.00328411
-0.00317013
-9.08407e-05
4.81904e-06
2.58069e-07
-0.000843765
1.84579e-06
4.63036e-07
-0.000844621
-1.31118e-06
5.47485e-07
-0.000844883
-4.34297e-06
4.93057e-07
-0.000844736
-6.94293e-06
3.07159e-07
-0.000844233
-8.78838e-06
-5.22221e-09
-0.000843406
-9.55007e-06
-4.25795e-07
-0.000842304
-8.91337e-06
-9.22628e-07
-0.000841016
-6.64882e-06
-1.43939e-06
-0.000839651
-1.85883e-06
-0.000838252
-2.84982e-06
7.17405e-06
5.3505e-07
-0.00113152
2.52465e-06
9.43955e-07
-0.00113269
-2.3171e-06
1.10205e-06
-0.00113311
-7.01988e-06
1.00893e-06
-0.00113277
-1.1211e-05
6.588e-07
-0.00113168
-1.44491e-05
5.61407e-08
-0.00112983
-1.61747e-05
-7.8252e-07
-0.00112726
-1.57069e-05
-1.8089e-06
-0.00112411
-1.2264e-05
-2.93488e-06
-0.00112063
-3.89345e-06
-0.00111757
-5.65897e-06
1.03374e-05
8.68088e-07
-0.00141828
3.87361e-06
1.44996e-06
-0.00142017
-2.76888e-06
1.67216e-06
-0.00142086
-9.28515e-06
1.54881e-06
-0.00142031
-1.53015e-05
1.05582e-06
-0.0014185
-2.02978e-05
1.83085e-07
-0.00141535
-2.34766e-05
-1.08156e-06
-0.00141078
-2.36626e-05
-2.6986e-06
-0.00140483
-1.91501e-05
-4.58923e-06
-0.00139775
-6.29259e-06
-0.00139112
-9.09721e-06
1.2954e-05
1.22337e-06
-0.00170352
4.95227e-06
2.02002e-06
-0.00170629
-3.25459e-06
2.33686e-06
-0.00170731
-1.14271e-05
2.21871e-06
-0.00170662
-1.92382e-05
1.62509e-06
-0.00170409
-2.61734e-05
5.34399e-07
-0.00169954
-3.12735e-05
-1.11192e-06
-0.00169262
-3.2885e-05
-3.30289e-06
-0.0016831
-2.80255e-05
-6.04529e-06
-0.00167076
-8.65908e-06
-0.00165842
-1.45521e-05
1.52815e-05
1.63493e-06
-0.00199134
6.0185e-06
2.55568e-06
-0.00199504
-3.42242e-06
2.93367e-06
-0.00199649
-1.29221e-05
2.82114e-06
-0.00199575
-2.22766e-05
2.16699e-06
-0.00199263
-3.10681e-05
9.30092e-07
-0.00198676
-3.82832e-05
-1.01284e-06
-0.0019774
-4.18702e-05
-3.70484e-06
-0.00196382
-3.73961e-05
-7.31383e-06
-0.00194474
-1.0955e-05
-0.00192438
-2.0879e-05
1.70967e-05
1.97277e-06
-0.00227832
6.85001e-06
2.96318e-06
-0.00228298
-3.52316e-06
3.35808e-06
-0.00228486
-1.40439e-05
3.24547e-06
-0.00228413
-2.46502e-05
2.56232e-06
-0.00228048
-3.50964e-05
1.25775e-06
-0.00227342
-4.44519e-05
-8.51506e-07
-0.00226166
-5.04307e-05
-3.88265e-06
-0.00224384
-4.72075e-05
-8.20676e-06
-0.00221682
-1.28769e-05
-0.00218628
-2.85209e-05
1.83191e-05
2.12764e-06
-0.00256605
7.47742e-06
3.0425e-06
-0.00257163
-3.44039e-06
3.39814e-06
-0.002574
-1.45717e-05
3.25663e-06
-0.00257336
-2.60353e-05
2.58393e-06
-0.00256935
-3.77989e-05
1.31234e-06
-0.0025613
-4.91311e-05
-7.83636e-07
-0.00254733
-5.76719e-05
-3.92521e-06
-0.00252532
-5.6435e-05
-8.66116e-06
-0.0024895
-1.4322e-05
-0.00244683
-3.64856e-05
1.87226e-05
1.91138e-06
-0.00285446
7.55252e-06
2.64223e-06
-0.00286089
-3.59204e-06
2.89178e-06
-0.00286353
-1.49821e-05
2.73063e-06
-0.00286278
-2.68662e-05
2.12688e-06
-0.00285822
-3.94384e-05
1.01551e-06
-0.00284911
-5.23074e-05
-8.08432e-07
-0.00283307
-6.3322e-05
-3.6904e-06
-0.00280718
-6.48483e-05
-8.07674e-06
-0.00276263
-1.44125e-05
-0.00270631
-4.49727e-05
1.84549e-05
1.15172e-06
-0.00314015
7.48791e-06
1.41223e-06
-0.00314719
-3.42078e-06
1.50236e-06
-0.00315018
-1.45584e-05
1.23593e-06
-0.0031495
-2.63353e-05
7.04664e-07
-0.00314465
-3.9137e-05
-1.5547e-07
-0.00313479
-5.29157e-05
-1.42881e-06
-0.00311699
-6.62818e-05
-3.36866e-06
-0.00308765
-7.12429e-05
-6.27806e-06
-0.00303514
-1.12756e-05
-0.0029627
-5.36034e-05
1.76141e-05
-0.00340802
6.78954e-06
-0.00341506
-3.80944e-06
-0.00341783
-1.46271e-05
-0.00341618
-2.60524e-05
-0.00340969
-3.85871e-05
-0.00339753
-5.23708e-05
-0.0033767
-6.65459e-05
-0.00334282
-7.36785e-05
-0.00328325
-0.00319551
-5.9568e-05
3.29267e-06
1.14046e-07
-0.000842249
1.29005e-06
2.86045e-07
-0.000842904
-8.64373e-07
3.60947e-07
-0.000843089
-2.91824e-06
3.16329e-07
-0.000842999
-4.63109e-06
1.62225e-07
-0.000842683
-5.76974e-06
-9.33419e-08
-0.000842174
-6.12992e-06
-4.27797e-07
-0.000841516
-5.56024e-06
-8.07872e-07
-0.000840778
-4.01326e-06
-1.18161e-06
-0.000840016
-1.46886e-06
-0.000839148
-1.64791e-06
5.25216e-06
2.58294e-07
-0.00112876
1.83465e-06
6.20115e-07
-0.00112961
-1.76382e-06
7.63664e-07
-0.00112992
-5.22658e-06
6.8172e-07
-0.00112968
-8.21284e-06
3.72965e-07
-0.0011289
-1.03593e-05
-1.49813e-07
-0.00112763
-1.12723e-05
-8.56548e-07
-0.00112592
-1.05692e-05
-1.68763e-06
-0.00112393
-7.95021e-06
-2.54659e-06
-0.00112189
-3.23958e-06
-0.0011202
-3.54151e-06
8.28638e-06
5.25751e-07
-0.00141399
3.15862e-06
1.058e-06
-0.00141548
-2.16456e-06
1.26201e-06
-0.00141603
-7.32831e-06
1.1402e-06
-0.0014156
-1.19321e-05
6.75181e-07
-0.0014142
-1.54893e-05
-1.29186e-07
-0.00141181
-1.73718e-05
-1.25698e-06
-0.0014085
-1.6821e-05
-2.64028e-06
-0.00140443
-1.29843e-05
-4.1563e-06
-0.00139997
-5.45089e-06
-0.00139611
-5.78052e-06
1.08995e-05
8.55296e-07
-0.00169781
4.21156e-06
1.61724e-06
-0.00170016
-2.7243e-06
1.9179e-06
-0.00170103
-9.55579e-06
1.78871e-06
-0.00170043
-1.58633e-05
1.19887e-06
-0.0016983
-2.1089e-05
1.4354e-07
-0.00169458
-2.43838e-05
-1.39246e-06
-0.00168919
-2.45441e-05
-3.35324e-06
-0.00168222
-1.98148e-05
-5.64131e-06
-0.001674
-7.69905e-06
-0.00166644
-9.54407e-06
1.33462e-05
1.26592e-06
-0.00198422
5.28153e-06
2.16843e-06
-0.00198752
-3.01914e-06
2.53515e-06
-0.00198881
-1.12807e-05
2.4016e-06
-0.00198811
-1.91476e-05
1.72641e-06
-0.00198529
-2.60713e-05
4.84347e-07
-0.00198018
-3.1039e-05
-1.39442e-06
-0.00197243
-3.24006e-05
-3.89258e-06
-0.00196192
-2.72115e-05
-7.00048e-06
-0.00194857
-9.95403e-06
-0.00193551
-1.38234e-05
1.53559e-05
1.63583e-06
-0.00226992
6.15787e-06
2.62586e-06
-0.00227424
-3.23793e-06
3.01641e-06
-0.00227595
-1.26714e-05
2.88018e-06
-0.00227517
-2.18845e-05
2.16084e-06
-0.00227171
-3.04172e-05
8.19305e-07
-0.00226522
-3.72021e-05
-1.27192e-06
-0.002255
-4.02349e-05
-4.16282e-06
-0.00224054
-3.52456e-05
-7.983e-06
-0.00222082
-1.18654e-05
-0.00220046
-1.91572e-05
1.67668e-05
1.84996e-06
-0.00255654
6.82354e-06
2.78118e-06
-0.00256185
-3.27396e-06
3.14218e-06
-0.00256403
-1.34741e-05
2.98382e-06
-0.00256327
-2.36698e-05
2.27281e-06
-0.00255927
-3.35483e-05
9.493e-07
-0.00255155
-4.20906e-05
-1.16471e-06
-0.0025389
-4.70569e-05
-4.21216e-06
-0.0025203
-4.28621e-05
-8.48176e-06
-0.00249319
-1.32527e-05
-0.00246374
-2.45662e-05
1.73858e-05
1.67887e-06
-0.00284396
6.99508e-06
2.44059e-06
-0.00285015
-3.45717e-06
2.70521e-06
-0.00285264
-1.40613e-05
2.54695e-06
-0.00285174
-2.48305e-05
1.9252e-06
-0.0028471
-3.56319e-05
7.81115e-07
-0.00283814
-4.56373e-05
-1.06227e-06
-0.00282317
-5.26005e-05
-3.8706e-06
-0.00280056
-4.99777e-05
-7.89686e-06
-0.00276584
-1.32625e-05
-0.00272579
-3.04889e-05
1.72883e-05
1.04009e-06
-0.00312892
6.98908e-06
1.32235e-06
-0.00313577
-3.34663e-06
1.45162e-06
-0.00313859
-1.38263e-05
1.2272e-06
-0.0031377
-2.46312e-05
7.34366e-07
-0.00313265
-3.57986e-05
-9.54865e-08
-0.00312274
-4.67194e-05
-1.34982e-06
-0.00310579
-5.55317e-05
-3.22943e-06
-0.00307948
-5.51005e-05
-5.9447e-06
-0.00303752
-1.00956e-05
-0.00298484
-3.61292e-05
1.66058e-05
-0.00339669
6.44161e-06
-0.00340357
-3.5953e-06
-0.00340635
-1.37935e-05
-0.00340475
-2.43333e-05
-0.00339842
-3.53784e-05
-0.00338658
-4.65099e-05
-0.00336692
-5.61623e-05
-0.0033364
-5.73603e-05
-0.003288
-0.00322329
-3.96788e-05
2.21292e-06
5.27096e-09
-0.000841213
8.94728e-07
1.4331e-07
-0.000841729
-5.41779e-07
2.07559e-07
-0.00084186
-1.90516e-06
1.72986e-07
-0.000841809
-3.02016e-06
5.12277e-08
-0.000841619
-3.72668e-06
-1.49039e-07
-0.000841318
-3.90083e-06
-4.05166e-07
-0.000840937
-3.47187e-06
-6.87639e-07
-0.00084052
-2.4506e-06
-9.54053e-07
-0.000840083
-1.15024e-06
-0.000839478
-9.70604e-07
3.69591e-06
2.56617e-08
-0.00112679
1.26281e-06
3.32362e-07
-0.00112737
-1.32421e-06
4.57865e-07
-0.00112758
-3.79782e-06
3.90098e-07
-0.00112742
-5.8769e-06
1.30835e-07
-0.0011269
-7.28507e-06
-3.02708e-07
-0.00112606
-7.76049e-06
-8.74843e-07
-0.00112498
-7.09954e-06
-1.52547e-06
-0.00112375
-5.21571e-06
-2.16721e-06
-0.00112256
-2.66268e-06
-0.00112161
-2.29322e-06
6.44965e-06
2.10749e-07
-0.00141077
2.50343e-06
6.76132e-07
-0.00141188
-1.62929e-06
8.55909e-07
-0.0014123
-5.60173e-06
7.42807e-07
-0.00141199
-9.03935e-06
3.2472e-07
-0.00141095
-1.15299e-05
-3.84213e-07
-0.00140924
-1.26141e-05
-1.34958e-06
-0.00140694
-1.18354e-05
-2.4905e-06
-0.00140425
-8.82612e-06
-3.67473e-06
-0.00140148
-4.64305e-06
-0.00139921
-3.74829e-06
8.89099e-06
4.87939e-07
-0.00169338
3.47545e-06
1.19116e-06
-0.00169526
-2.20368e-06
1.46786e-06
-0.00169597
-7.74571e-06
1.33741e-06
-0.00169548
-1.27058e-05
7.78452e-07
-0.0016938
-1.65567e-05
-1.98247e-07
-0.00169092
-1.8618e-05
-1.57387e-06
-0.0016869
-1.8086e-05
-3.2622e-06
-0.00168198
-1.40463e-05
-5.11553e-06
-0.0016766
-6.70385e-06
-0.00167197
-6.45297e-06
1.13161e-05
8.70906e-07
-0.00197846
4.50742e-06
1.72772e-06
-0.00198125
-2.57208e-06
2.07423e-06
-0.00198233
-9.54925e-06
1.92995e-06
-0.00198172
-1.59866e-05
1.26428e-06
-0.00197934
-2.13011e-05
7.01168e-08
-0.00197513
-2.46033e-05
-1.67364e-06
-0.00196903
-2.46876e-05
-3.90033e-06
-0.0019612
-1.98166e-05
-6.49024e-06
-0.00195206
-8.83281e-06
-0.00194374
-9.45706e-06
1.34146e-05
1.24948e-06
-0.00226291
5.39596e-06
2.21215e-06
-0.00226671
-2.87357e-06
2.58927e-06
-0.00226819
-1.10967e-05
2.43783e-06
-0.00226746
-1.88834e-05
1.71106e-06
-0.00226437
-2.56651e-05
3.86964e-07
-0.00225876
-3.04149e-05
-1.60423e-06
-0.00225032
-3.1551e-05
-4.24851e-06
-0.00223905
-2.63057e-05
-7.5022e-06
-0.00222506
-1.06442e-05
-0.00221162
-1.33382e-05
1.49418e-05
1.51184e-06
-0.0025484
6.07678e-06
2.43664e-06
-0.00255321
-3.00866e-06
2.7949e-06
-0.00255515
-1.21017e-05
2.62562e-06
-0.00255436
-2.09222e-05
1.89999e-06
-0.00255064
-2.89795e-05
5.73077e-07
-0.00254368
-3.51822e-05
-1.4779e-06
-0.00253282
-3.76397e-05
-4.31196e-06
-0.00251778
-3.24343e-05
-8.00818e-06
-0.00249789
-1.18863e-05
-0.00247786
-1.70755e-05
1.57455e-05
1.37842e-06
-0.00283474
6.33278e-06
2.15537e-06
-0.00284046
-3.22028e-06
2.42725e-06
-0.00284272
-1.28364e-05
2.27181e-06
-0.00284177
-2.2334e-05
1.64406e-06
-0.00283735
-3.13467e-05
4.98073e-07
-0.00282905
-3.88517e-05
-1.30265e-06
-0.00281584
-4.27981e-05
-3.92884e-06
-0.00279699
-3.83293e-05
-7.45156e-06
-0.00277087
-1.17793e-05
-0.00274292
-2.13065e-05
1.58091e-05