/*--------------------------------*- C++ -*----------------------------------*\
| =========                 |                                                 |
| \\      /  F ield         | foam-extend: Open Source CFD                    |
|  \\    /   O peration     | Version:     4.0                                |
|   \\  /    A nd           | Web:         http://www.foam-extend.org         |
|    \\/     M anipulation  |                                                 |
\*---------------------------------------------------------------------------*/
FoamFile
{
    version     2.0;
    format      ascii;
    class       volScalarField;
    location    "1500";
    object      T;
}
// * * * * * * * * * * * * * * * * * * * * * * * * * * * * * * * * * * * * * //

dimensions      [0 0 0 1 0 0 0];

internalField   nonuniform List<scalar> 
34480
(
278.825
278.714
278.633
278.578
278.546
278.536
278.551
278.635
278.906
278.87
278.272
278.154
278.061
277.994
277.96
277.963
277.988
278.032
278.248
277.803
278.16
278.028
277.922
277.848
277.81
277.797
277.778
277.724
277.851
277.074
278.199
278.047
277.918
277.815
277.743
277.679
277.595
277.436
277.442
276.317
278.211
278.033
277.876
277.741
277.627
277.507
277.354
277.084
276.934
275.454
278.277
278.077
277.897
277.736
277.587
277.417
277.197
276.813
276.476
274.613
278.302
278.077
277.873
277.687
277.507
277.293
277.01
276.512
275.966
273.715
278.373
278.125
277.909
277.714
277.527
277.297
276.98
276.398
275.642
272.973
278.429
278.161
277.926
277.713
277.501
277.244
276.884
276.219
275.253
272.229
279.245
278.965
278.762
278.62
278.515
278.394
278.185
277.658
276.652
273.198
279.357
279.265
279.228
279.244
279.316
279.463
279.723
280.179
280.847
281.717
278.706
278.622
278.589
278.606
278.686
278.853
279.144
279.641
280.434
281.454
278.499
278.421
278.391
278.411
278.498
278.669
278.958
279.448
280.298
281.413
278.445
278.366
278.332
278.343
278.416
278.567
278.831
279.296
280.175
281.338
278.369
278.285
278.243
278.242
278.296
278.417
278.649
279.076
279.956
281.133
278.358
278.271
278.224
278.214
278.253
278.348
278.545
278.923
279.774
280.929
278.314
278.22
278.168
278.148
278.172
278.243
278.407
278.731
279.53
280.643
278.331
278.235
278.185
278.17
278.197
278.264
278.408
278.687
279.412
280.435
278.346
278.244
278.186
278.164
278.179
278.23
278.349
278.58
279.225
280.168
279.11
279.02
278.999
279.042
279.146
279.299
279.518
279.823
280.419
281.087
279.83
279.731
279.695
279.715
279.793
279.939
280.17
280.516
281.014
281.637
279.172
279.075
279.039
279.063
279.154
279.328
279.617
280.073
280.78
281.708
278.95
278.852
278.816
278.841
278.937
279.124
279.441
279.956
280.827
282.04
278.865
278.763
278.722
278.74
278.828
279.007
279.325
279.869
280.875
282.34
278.76
278.652
278.604
278.61
278.684
278.843
279.148
279.695
280.799
282.47
278.723
278.611
278.558
278.555
278.616
278.755
279.039
279.57
280.732
282.556
278.656
278.538
278.479
278.467
278.515
278.634
278.892
279.396
280.582
282.521
278.654
278.534
278.476
278.468
278.517
278.63
278.871
279.341
280.517
282.516
278.651
278.528
278.466
278.451
278.492
278.593
278.811
279.239
280.378
282.456
279.383
279.272
279.236
279.271
279.376
279.55
279.836
280.303
281.387
283.384
280.167
280.081
280.052
280.071
280.139
280.259
280.438
280.679
280.984
281.322
279.538
279.446
279.414
279.439
279.527
279.687
279.933
280.286
280.771
281.318
279.327
279.227
279.192
279.22
279.318
279.501
279.794
280.236
280.892
281.683
279.231
279.121
279.081
279.104
279.203
279.393
279.712
280.217
281.037
282.086
279.11
278.992
278.944
278.96
279.051
279.235
279.562
280.106
281.066
282.357
279.054
278.931
278.878
278.887
278.97
279.143
279.468
280.029
281.102
282.603
278.971
278.841
278.783
278.784
278.857
279.017
279.331
279.894
281.049
282.731
278.952
278.821
278.763
278.766
278.84
278.997
279.303
279.856
281.054
282.873
278.936
278.802
278.741
278.739
278.806
278.955
279.249
279.782
280.985
282.953
279.635
279.512
279.47
279.502
279.614
279.812
280.15
280.712
281.886
283.885
280.396
280.329
280.306
280.321
280.371
280.457
280.577
280.726
280.895
281.061
279.814
279.736
279.709
279.732
279.805
279.933
280.119
280.365
280.665
280.96
279.633
279.54
279.508
279.534
279.623
279.783
280.025
280.363
280.811
281.279
279.541
279.434
279.396
279.421
279.518
279.697
279.982
280.4
281.004
281.678
279.419
279.299
279.254
279.274
279.37
279.557
279.868
280.347
281.099
281.989
279.356
279.228
279.177
279.192
279.286
279.473
279.799
280.321
281.205
282.304
279.264
279.129
279.072
279.081
279.169
279.351
279.682
280.23
281.225
282.519
279.234
279.097
279.039
279.05
279.139
279.322
279.656
280.216
281.289
282.752
279.207
279.067
279.007
279.014
279.099
279.276
279.608
280.171
281.284
282.928
279.873
279.744
279.696
279.727
279.843
280.054
280.414
281.002
282.116
283.857
280.547
280.497
280.481
280.491
280.525
280.581
280.656
280.745
280.838
280.926
280.015
279.955
279.934
279.952
280.007
280.102
280.233
280.395
280.574
280.733
279.87
279.792
279.765
279.787
279.861
279.99
280.176
280.418
280.708
280.98
279.795
279.698
279.663
279.687
279.774
279.93
280.166
280.488
280.906
281.325
279.681
279.569
279.527
279.549
279.642
279.814
280.088
280.48
281.03
281.615
279.62
279.496
279.448
279.467
279.563
279.746
280.048
280.496
281.174
281.931
279.526
279.393
279.339
279.354
279.448
279.634
279.954
280.446
281.24
282.172
279.491
279.354
279.299
279.315
279.412
279.604
279.936
280.458
281.343
282.437
279.456
279.317
279.259
279.272
279.367
279.558
279.895
280.437
281.383
282.653
280.091
279.961
279.911
279.941
280.057
280.27
280.629
281.195
282.162
283.547
280.645
280.609
280.598
280.604
280.626
280.66
280.705
280.755
280.806
280.857
280.159
280.116
280.101
280.113
280.153
280.218
280.305
280.407
280.513
280.6
280.051
279.989
279.967
279.985
280.042
280.139
280.275
280.44
280.623
280.781
279.995
279.913
279.884
279.904
279.977
280.104
280.288
280.525
280.804
281.062
279.897
279.798
279.761
279.782
279.865
280.015
280.241
280.545
280.932
281.31
279.844
279.731
279.687
279.707
279.797
279.964
280.226
280.592
281.089
281.599
279.755
279.63
279.58
279.598
279.69
279.868
280.156
280.574
281.178
281.829
279.72
279.589
279.537
279.556
279.654
279.841
280.15
280.607
281.302
282.091
279.68
279.546
279.492
279.509
279.607
279.797
280.117
280.603
281.365
282.306
280.285
280.159
280.11
280.138
280.25
280.457
280.794
281.305
282.099
283.144
280.709
280.682
280.675
280.678
280.691
280.712
280.738
280.766
280.794
280.827
280.262
280.233
280.222
280.23
280.257
280.3
280.356
280.418
280.48
280.528
280.186
280.14
280.123
280.136
280.178
280.248
280.342
280.452
280.565
280.658
280.149
280.084
280.06
280.077
280.134
280.232
280.369
280.537
280.721
280.879
280.071
279.988
279.957
279.975
280.045
280.168
280.346
280.573
280.838
281.08
280.029
279.931
279.893
279.912
279.991
280.135
280.351
280.637
280.991
281.33
279.948
279.836
279.792
279.81
279.896
280.055
280.302
280.64
281.085
281.532
279.917
279.798
279.751
279.771
279.863
280.035
280.307
280.689
281.215
281.771
279.875
279.752
279.703
279.721
279.816
279.994
280.281
280.696
281.286
281.961
280.452
280.335
280.289
280.315
280.419
280.61
280.912
281.352
281.978
282.735
280.751
280.73
280.725
280.727
280.734
280.746
280.761
280.776
280.793
280.816
280.337
280.317
280.31
280.315
280.332
280.36
280.394
280.432
280.468
280.495
280.286
280.253
280.241
280.25
280.28
280.328
280.391
280.462
280.532
280.586
280.266
280.216
280.198
280.21
280.254
280.326
280.424
280.539
280.659
280.756
280.207
280.14
280.115
280.13
280.186
280.282
280.417
280.581
280.76
280.914
280.178
280.096
280.064
280.081
280.148
280.266
280.437
280.652
280.9
281.123
280.107
280.01
279.973
279.99
280.065
280.2
280.403
280.667
280.987
281.289
280.084
279.979
279.938
279.957
280.04
280.191
280.419
280.725
281.113
281.497
280.042
279.931
279.888
279.907
279.993
280.152
280.398
280.737
281.18
281.652
280.591
280.486
280.444
280.468
280.562
280.731
280.991
281.353
281.83
282.362
280.777
280.76
280.757
280.758
280.762
280.769
280.777
280.786
280.795
280.814
280.391
280.379
280.374
280.377
280.388
280.405
280.426
280.448
280.469
280.485
280.361
280.339
280.331
280.336
280.356
280.388
280.429
280.474
280.517
280.549
280.352
280.316
280.303
280.312
280.343
280.395
280.463
280.54
280.616
280.676
280.312
280.261
280.241
280.253
280.295
280.368
280.466
280.581
280.701
280.798
280.295
280.23
280.204
280.218
280.272
280.365
280.495
280.652
280.822
280.968
280.234
280.154
280.123
280.138
280.201
280.311
280.471
280.67
280.896
281.098
280.222
280.133
280.099
280.116
280.187
280.313
280.497
280.734
281.013
281.275
280.179
280.084
280.047
280.065
280.14
280.275
280.478
280.745
281.069
281.393
280.702
280.612
280.575
280.596
280.677
280.821
281.036
281.324
281.676
282.04
280.794
280.779
280.776
280.777
280.779
280.783
280.787
280.792
280.798
280.814
280.432
280.425
280.421
280.423
280.43
280.44
280.452
280.466
280.478
280.488
280.418
280.404
280.398
280.402
280.415
280.435
280.461
280.489
280.515
280.534
280.416
280.391
280.381
280.387
280.409
280.445
280.491
280.542
280.59
280.627
280.391
280.354
280.339
280.348
280.379
280.432
280.501
280.58
280.658
280.72
280.386
280.335
280.316
280.327
280.368
280.438
280.534
280.646
280.761
280.856
280.333
280.27
280.245
280.257
280.307
280.394
280.515
280.662
280.818
280.952
280.332
280.261
280.233
280.247
280.306
280.407
280.55
280.728
280.924
281.1
280.289
280.21
280.18
280.195
280.258
280.369
280.529
280.733
280.965
281.182
280.786
280.711
280.68
280.697
280.765
280.883
281.055
281.276
281.53
281.773
280.802
280.789
280.787
280.787
280.789
280.791
280.793
280.796
280.8
280.814
280.464
280.459
280.457
280.458
280.461
280.467
280.475
280.483
280.49
280.496
280.463
280.454
280.45
280.453
280.461
280.474
280.49
280.507
280.522
280.534
280.463
280.446
280.439
280.443
280.458
280.482
280.512
280.545
280.576
280.599
280.451
280.424
280.414
280.42
280.442
280.479
280.527
280.58
280.631
280.67
280.454
280.417
280.402
280.41
280.441
280.493
280.561
280.638
280.715
280.776
280.409
280.36
280.341
280.35
280.389
280.454
280.544
280.648
280.755
280.843
280.42
280.365
280.343
280.354
280.4
280.479
280.586
280.716
280.851
280.967
280.374
280.311
280.287
280.299
280.35
280.437
280.56
280.71
280.873
281.017
280.844
280.785
280.76
280.774
280.828
280.922
281.054
281.218
281.397
281.556
280.805
280.793
280.791
280.791
280.792
280.793
280.795
280.796
280.799
280.811
280.488
280.484
280.483
280.483
280.486
280.489
280.494
280.498
280.503
280.507
280.499
280.494
280.491
280.493
280.498
280.506
280.516
280.526
280.535
280.542
280.497
280.486
280.481
280.484
280.493
280.509
280.528
280.549
280.569
280.583
280.496
280.478
280.471
280.475
280.49
280.515
280.547
280.582
280.614
280.639
280.505
280.479
280.468
280.474
280.496
280.532
280.58
280.632
280.683
280.722
280.464
280.428
280.414
280.421
280.45
280.498
280.561
280.634
280.706
280.763
280.489
280.448
280.431
280.44
280.475
280.533
280.612
280.703
280.795
280.871
280.438
280.389
280.37
280.38
280.419
280.485
280.576
280.684
280.795
280.89
280.88
280.836
280.816
280.827
280.869
280.94
281.039
281.157
281.28
281.382
280.802
280.791
280.79
280.79
280.79
280.791
280.792
280.793
280.795
280.806
280.505
280.503
280.502
280.502
280.504
280.506
280.508
280.511
280.514
280.518
280.53
280.526
280.525
280.526
280.529
280.534
280.54
280.546
280.551
280.555
280.522
280.514
280.511
280.512
280.518
280.528
280.541
280.554
280.566
280.575
280.53
280.518
280.513
280.516
280.526
280.543
280.563
280.586
280.606
280.621
280.542
280.524
280.517
280.521
280.536
280.561
280.593
280.628
280.661
280.685
280.505
280.479
280.469
280.474
280.494
280.528
280.572
280.621
280.668
280.706
280.543
280.513
280.501
280.508
280.533
280.575
280.631
280.693
280.755
280.803
280.482
280.446
280.432
280.44
280.468
280.517
280.582
280.657
280.732
280.793
280.899
280.866
280.851
280.86
280.891
280.943
281.014
281.097
281.18
281.243
280.796
280.786
280.785
280.785
280.785
280.785
280.786
280.786
280.788
280.798
280.517
280.515
280.515
280.515
280.515
280.517
280.518
280.52
280.523
280.526
280.557
280.555
280.554
280.555
280.557
280.56
280.563
280.566
280.569
280.571
280.539
280.534
280.531
280.532
280.536
280.542
280.55
280.558
280.566
280.572
280.555
280.547
280.544
280.546
280.553
280.563
280.577
280.591
280.603
280.612
280.569
280.557
280.552
280.554
280.565
280.581
280.602
280.625
280.646
280.661
280.533
280.515
280.508
280.512
280.526
280.549
280.578
280.611
280.641
280.665
280.586
280.565
280.556
280.561
280.579
280.609
280.647
280.688
280.728
280.758
280.512
280.485
280.476
280.481
280.501
280.536
280.58
280.631
280.681
280.72
280.902
280.88
280.869
280.875
280.898
280.935
280.984
281.04
281.095
281.133
280.788
280.779
280.778
280.778
280.778
280.779
280.779
280.779
280.78
280.789
280.523
280.521
280.521
280.521
280.521
280.522
280.523
280.524
280.526
280.529
280.581
280.581
280.58
280.581
280.582
280.584
280.585
280.587
280.588
280.589
280.55
280.546
280.545
280.545
280.548
280.551
280.556
280.561
280.566
280.57
280.573
280.568
280.566
280.567
280.572
280.578
280.587
280.595
280.603
280.608
280.587
280.579
280.575
280.577
280.584
280.594
280.608
280.622
280.636
280.645
280.552
280.54
280.536
280.538
280.547
280.563
280.582
280.603
280.622
280.637
280.62
280.606
280.6
280.604
280.616
280.636
280.661
280.688
280.714
280.732
280.528
280.509
280.502
280.506
280.52
280.543
280.573
280.607
280.639
280.664
280.897
280.882
280.875
280.879
280.894
280.92
280.953
280.99
281.025
281.047
280.784
280.777
280.777
280.776
280.776
280.777
280.777
280.777
280.777
280.785
280.521
280.519
280.519
280.519
280.519
280.519
280.52
280.522
280.523
280.526
280.604
280.604
280.604
280.604
280.605
280.605
280.606
280.607
280.608
280.608
280.556
280.554
280.553
280.553
280.555
280.557
280.56
280.563
280.565
280.568
280.585
280.582
280.58
280.581
280.584
280.588
280.593
280.598
280.602
280.606
280.596
280.591
280.589
280.59
280.594
280.601
280.609
280.618
280.627
280.633
280.564
280.557
280.554
280.555
280.561
280.571
280.583
280.596
280.607
280.617
280.646
280.637
280.633
280.635
280.643
280.656
280.672
280.69
280.706
280.717
280.531
280.518
280.513
280.516
280.525
280.541
280.56
280.581
280.601
280.618
280.891
280.882
280.877
280.879
280.89
280.907
280.929
280.952
280.975
280.987
280.799
280.793
280.793
280.793
280.793
280.793
280.793
280.793
280.793
280.799
280.507
280.505
280.505
280.505
280.505
280.505
280.506
280.507
280.509
280.512
280.621
280.621
280.621
280.621
280.621
280.622
280.622
280.623
280.623
280.623
280.558
280.557
280.557
280.557
280.558
280.559
280.561
280.562
280.564
280.565
280.589
280.587
280.587
280.587
280.588
280.591
280.594
280.597
280.6
280.602
280.598
280.594
280.593
280.593
280.596
280.6
280.606
280.611
280.616
280.62
280.569
280.565
280.563
280.565
280.568
280.574
280.582
280.59
280.596
280.601
280.658
280.652
280.65
280.651
280.656
280.664
280.675
280.686
280.697
280.704
280.517
280.509
280.506
280.508
280.514
280.524
280.536
280.549
280.561
280.572
280.899
280.893
280.889
280.891
280.898
280.909
280.923
280.938
280.953
280.958
280.851
280.847
280.847
280.846
280.846
280.846
280.846
280.846
280.846
280.851
280.472
280.471
280.471
280.472
280.472
280.472
280.472
280.473
280.473
280.477
280.626
280.625
280.625
280.624
280.624
280.625
280.625
280.626
280.627
280.628
280.558
280.558
280.558
280.559
280.559
280.56
280.561
280.561
280.562
280.562
280.589
280.587
280.587
280.587
280.588
280.589
280.591
280.593
280.595
280.597
280.593
280.591
280.59
280.59
280.592
280.595
280.598
280.602
280.605
280.608
280.57
280.567
280.566
280.567
280.57
280.574
280.578
280.583
280.586
280.589
280.649
280.644
280.642
280.642
280.646
280.651
280.658
280.666
280.674
280.68
280.48
280.475
280.474
280.475
280.479
280.486
280.493
280.501
280.508
280.514
280.936
280.932
280.93
280.931
280.935
280.943
280.952
280.961
280.972
280.975
280.933
280.93
280.93
280.929
280.929
280.929
280.93
280.93
280.931
280.935
280.415
280.416
280.418
280.419
280.42
280.42
280.419
280.418
280.416
280.415
280.615
280.613
280.611
280.611
280.611
280.611
280.612
280.613
280.616
280.619
280.559
280.56
280.56
280.561
280.561
280.562
280.562
280.562
280.562
280.561
280.586
280.585
280.584
280.584
280.585
280.586
280.587
280.589
280.59
280.592
280.588
280.586
280.585
280.586
280.587
280.589
280.591
280.594
280.596
280.598
280.569
280.567
280.567
280.568
280.569
280.572
280.575
280.579
280.581
280.582
280.617
280.613
280.611
280.611
280.613
280.618
280.623
280.629
280.636
280.642
280.42
280.419
280.418
280.419
280.422
280.427
280.433
280.438
280.441
280.441
280.996
280.992
280.99
280.991
280.995
281
281.007
281.014
281.022
281.024
289.478
291.236
291.5
289.912
290.643
292.773
293.182
291.523
292.304
294.93
295.464
293.493
293.586
296.652
297.32
295.139
294.53
298.007
298.817
296.494
295.279
299.134
300.103
297.911
295.825
300.041
301.202
299.335
296.296
300.837
302.204
300.715
296.51
301.351
302.933
301.868
297.07
302.101
303.948
303.469
286.169
286.716
286.697
286.173
287.465
288.108
288.046
287.393
289.068
289.872
289.76
288.902
290.507
291.457
291.286
290.236
291.683
292.773
292.537
291.302
292.704
293.932
293.671
292.278
293.51
294.868
294.619
293.091
294.205
295.67
295.442
293.804
294.643
296.171
295.972
294.268
295.429
296.93
296.841
295.191
282.261
282.395
282.426
282.358
282.989
283.207
283.247
283.111
284.155
284.493
284.537
284.287
285.421
285.879
285.92
285.54
286.584
287.157
287.185
286.662
287.718
288.404
288.417
287.756
288.709
289.503
289.503
288.718
289.647
290.534
290.525
289.635
290.405
291.333
291.322
290.381
291.649
292.505
292.534
291.67
281.493
281.559
281.58
281.559
281.751
281.836
281.865
281.843
282.459
282.606
282.649
282.595
283.334
283.555
283.607
283.507
284.174
284.474
284.53
284.367
285.063
285.444
285.501
285.264
285.881
286.342
286.398
286.078
286.717
287.25
287.301
286.9
287.472
288.037
288.085
287.629
288.815
289.307
289.367
288.954
281.061
281.097
281.11
281.098
281.098
281.128
281.142
281.141
281.548
281.605
281.631
281.627
282.159
282.257
282.296
282.28
282.753
282.902
282.953
282.915
283.42
283.625
283.686
283.617
284.044
284.309
284.377
284.267
284.718
285.039
285.11
284.952
285.355
285.704
285.774
285.576
286.606
286.884
286.96
286.799
280.89
280.919
280.928
280.917
280.792
280.805
280.812
280.812
281.097
281.122
281.136
281.137
281.537
281.583
281.606
281.606
281.963
282.038
282.072
282.068
282.462
282.571
282.617
282.605
282.927
283.075
283.132
283.105
283.45
283.637
283.701
283.653
283.951
284.161
284.225
284.155
285.071
285.214
285.282
285.251
280.807
280.834
280.842
280.83
280.625
280.631
280.634
280.635
280.835
280.847
280.854
280.855
281.164
281.186
281.199
281.201
281.48
281.518
281.538
281.541
281.865
281.922
281.952
281.954
282.216
282.298
282.336
282.336
282.621
282.729
282.775
282.767
283
283.124
283.173
283.154
283.996
284.053
284.105
284.13
280.772
280.798
280.805
280.794
280.541
280.544
280.546
280.546
280.686
280.692
280.695
280.696
280.932
280.944
280.95
280.952
281.17
281.19
281.202
281.204
281.472
281.503
281.521
281.525
281.74
281.786
281.811
281.815
282.059
282.12
282.151
282.154
282.337
282.41
282.444
282.443
283.229
283.234
283.269
283.315
280.76
280.785
280.792
280.78
280.502
280.504
280.505
280.505
280.602
280.605
280.607
280.607
280.785
280.792
280.796
280.797
280.964
280.975
280.982
280.984
281.202
281.22
281.23
281.233
281.406
281.433
281.448
281.452
281.658
281.694
281.713
281.718
281.862
281.904
281.927
281.931
282.666
282.64
282.662
282.713
280.757
280.783
280.79
280.778
280.489
280.49
280.491
280.491
280.558
280.56
280.561
280.561
280.694
280.698
280.7
280.701
280.828
280.834
280.838
280.839
281.014
281.025
281.031
281.033
281.167
281.183
281.192
281.195
281.367
281.388
281.4
281.404
281.514
281.539
281.554
281.557
282.242
282.199
282.212
282.262
280.758
280.784
280.79
280.779
280.49
280.491
280.492
280.492
280.54
280.541
280.542
280.542
280.638
280.641
280.642
280.642
280.738
280.742
280.744
280.745
280.884
280.89
280.894
280.895
280.994
281.004
281.009
281.011
281.155
281.168
281.175
281.178
281.256
281.271
281.28
281.283
281.918
281.866
281.872
281.92
280.759
280.785
280.791
280.779
280.498
280.499
280.5
280.5
280.537
280.538
280.538
280.538
280.606
280.607
280.608
280.608
280.681
280.684
280.685
280.685
280.794
280.798
280.8
280.801
280.869
280.875
280.879
280.88
281.001
281.009
281.014
281.015
281.064
281.073
281.079
281.08
281.666
281.611
281.614
281.658
280.758
280.784
280.791
280.778
280.509
280.51
280.51
280.51
280.544
280.544
280.544
280.544
280.588
280.589
280.59
280.59
280.646
280.648
280.648
280.649
280.733
280.736
280.737
280.737
280.78
280.784
280.786
280.787
280.892
280.896
280.899
280.9
280.921
280.927
280.93
280.931
281.469
281.414
281.415
281.456
280.755
280.781
280.787
280.775
280.519
280.52
280.52
280.52
280.556
280.556
280.557
280.556
280.579
280.58
280.58
280.58
280.626
280.627
280.627
280.627
280.693
280.694
280.695
280.696
280.717
280.72
280.721
280.721
280.816
280.819
280.821
280.821
280.815
280.819
280.821
280.821
281.314
281.261
281.261
281.299
280.749
280.775
280.781
280.769
280.527
280.528
280.528
280.529
280.572
280.572
280.572
280.572
280.575
280.575
280.575
280.576
280.615
280.616
280.616
280.616
280.666
280.667
280.668
280.668
280.673
280.675
280.676
280.676
280.767
280.769
280.77
280.77
280.736
280.738
280.74
280.74
281.192
281.143
281.142
281.176
280.743
280.769
280.775
280.762
280.531
280.532
280.533
280.533
280.59
280.59
280.59
280.589
280.572
280.573
280.573
280.573
280.61
280.611
280.611
280.611
280.649
280.65
280.65
280.65
280.642
280.643
280.644
280.644
280.737
280.738
280.739
280.739
280.676
280.678
280.679
280.678
281.095
281.052
281.051
281.08
280.742
280.768
280.774
280.761
280.529
280.53
280.53
280.53
280.608
280.608
280.608
280.608
280.57
280.57
280.57
280.57
280.607
280.608
280.608
280.608
280.635
280.636
280.636
280.636
280.62
280.621
280.621
280.621
280.721
280.722
280.722
280.722
280.628
280.629
280.629
280.629
281.024
280.988
280.987
281.011
280.761
280.785
280.79
280.777
280.515
280.516
280.517
280.517
280.623
280.623
280.623
280.623
280.566
280.566
280.566
280.566
280.604
280.604
280.604
280.604
280.623
280.623
280.624
280.624
280.603
280.603
280.603
280.603
280.708
280.709
280.709
280.709
280.58
280.581
280.582
280.581
280.986
280.958
280.958
280.976
280.82
280.841
280.845
280.833
280.48
280.481
280.482
280.482
280.63
280.63
280.63
280.63
280.562
280.562
280.562
280.562
280.598
280.599
280.599
280.599
280.61
280.611
280.611
280.611
280.589
280.589
280.589
280.589
280.686
280.687
280.688
280.688
280.519
280.52
280.52
280.519
280.994
280.977
280.977
280.989
280.917
280.931
280.932
280.925
280.417
280.418
280.417
280.417
280.623
280.624
280.624
280.625
280.56
280.56
280.56
280.559
280.593
280.594
280.594
280.594
280.6
280.601
280.601
280.601
280.58
280.58
280.58
280.58
280.652
280.655
280.656
280.655
280.437
280.436
280.436
280.436
281.041
281.037
281.037
281.04
282.193
280.894
280.352
280.005
279.711
279.47
279.278
279.126
279.005
278.9
282.339
281.101
280.267
279.743
279.327
279.019
278.791
278.621
278.492
278.387
282.912
281.606
280.476
279.837
279.337
278.99
278.736
278.545
278.402
278.288
283.506
282.141
280.742
280.038
279.473
279.102
278.829
278.624
278.468
278.342
283.983
282.593
280.949
280.195
279.57
279.18
278.888
278.67
278.505
278.371
284.531
283.084
281.217
280.427
279.742
279.334
279.021
278.789
278.608
278.457
285.011
283.482
281.415
280.603
279.861
279.439
279.105
278.859
278.664
278.503
285.576
283.97
281.717
280.888
280.087
279.649
279.285
279.014
278.792
278.6
286.024
284.361
281.929
281.124
280.289
279.845
279.446
279.146
278.895
278.678
287.756
286.092
283.504
282.646
281.685
281.116
280.592
280.189
279.854
279.56
283.989
282.681
281.694
280.981
280.488
280.143
279.892
279.704
279.558
279.437
284.436
282.65
281.32
280.46
279.907
279.529
279.26
279.065
278.922
278.816
285.03
282.837
281.251
280.321
279.726
279.329
279.049
278.848
278.705
278.603
285.518
283.023
281.243
280.29
279.669
279.265
278.984
278.785
278.645
278.545
285.783
283.077
281.167
280.208
279.566
279.165
278.887
278.694
278.56
278.466
285.982
283.146
281.144
280.196
279.538
279.144
278.869
278.682
278.55
278.456
286.025
283.126
281.052
280.134
279.464
279.084
278.814
278.632
278.505
278.413
286.081
283.183
281.054
280.179
279.497
279.131
278.86
278.678
278.542
278.44
286.038
283.171
280.995
280.2
279.533
279.197
278.919
278.729
278.582
278.467
286.946
284.232
282.06
281.316
280.6
280.208
279.861
279.615
279.423
279.278
282.122
281.743
281.373
281.044
280.762
280.525
280.328
280.165
280.028
279.909
282.583
281.901
281.284
280.772
280.359
280.031
279.774
279.573
279.417
279.299
283.354
282.338
281.472
280.804
280.287
279.895
279.598
279.372
279.203
279.079
284.123
282.784
281.684
280.888
280.292
279.857
279.537
279.3
279.124
278.996
284.697
283.075
281.773
280.879
280.225
279.765
279.433
279.192
279.016
278.89
285.205
283.344
281.871
280.909
280.212
279.738
279.401
279.159
278.982
278.855
285.551
283.495
281.877
280.871
280.144
279.668
279.329
279.09
278.915
278.789
285.872
283.672
281.935
280.91
280.164
279.691
279.351
279.11
278.93
278.795
286.075
283.758
281.921
280.917
280.18
279.725
279.382
279.135
278.947
278.803
287.063
284.741
282.867
281.886
281.118
280.627
280.239
279.955
279.735
279.575
281.516
281.369
281.192
281.011
280.841
280.686
280.549
280.429
280.322
280.225
281.721
281.433
281.102
280.786
280.506
280.266
280.065
279.899
279.763
279.656
282.349
281.865
281.355
280.9
280.515
280.199
279.944
279.74
279.58
279.458
283.081
282.365
281.658
281.067
280.588
280.21
279.914
279.683
279.505
279.372
283.708
282.747
281.848
281.136
280.578
280.153
279.828
279.581
279.394
279.255
284.323
283.122
282.042
281.227
280.605
280.145
279.801
279.544
279.35
279.206
284.811
283.382
282.137
281.24
280.568
280.086
279.73
279.468
279.27
279.124
285.283
283.652
282.261
281.306
280.597
280.104
279.74
279.471
279.267
279.114
285.651
283.828
282.313
281.335
280.615
280.123
279.753
279.477
279.266
279.106
286.697
284.771
283.197
282.211
281.463
280.943
280.541
280.24
280.009
279.842
281.107
281.06
280.989
280.906
280.818
280.73
280.648
280.57
280.497
280.426
281.114
281
280.846
280.678
280.513
280.359
280.22
280.099
279.995
279.911
281.567
281.36
281.096
280.827
280.574
280.349
280.155
279.992
279.858
279.751
282.159
281.822
281.423
281.041
280.699
280.406
280.163
279.963
279.803
279.678
282.704
282.21
281.664
281.168
280.743
280.392
280.109
279.882
279.703
279.566
283.282
282.616
281.918
281.316
280.816
280.417
280.102
279.855
279.662
279.514
283.775
282.928
282.081
281.383
280.819
280.383
280.045
279.784
279.581
279.428
284.276
283.251
282.263
281.486
280.872
280.41
280.054
279.781
279.569
279.407
284.692
283.486
282.372
281.544
280.901
280.424
280.056
279.775
279.555
279.387
285.729
284.401
283.216
282.356
281.682
281.181
280.79
280.489
280.255
280.087
280.933
280.915
280.883
280.842
280.795
280.747
280.699
280.651
280.604
280.553
280.802
280.751
280.674
280.584
280.489
280.394
280.304
280.221
280.149
280.087
281.116
281.019
280.88
280.723
280.565
280.414
280.277
280.156
280.053
279.968
281.567
281.402
281.179
280.941
280.711
280.5
280.315
280.156
280.023
279.915
281.997
281.743
281.421
281.093
280.789
280.521
280.292
280.1
279.943
279.819
282.486
282.125
281.691
281.272
280.897
280.576
280.309
280.09
279.912
279.773
282.919
282.436
281.885
281.377
280.935
280.569
280.271
280.031
279.838
279.689
283.38
282.767
282.098
281.51
281.012
280.61
280.287
280.03
279.824
279.665
283.773
283.017
282.24
281.59
281.053
280.627
280.287
280.018
279.804
279.637
284.756
283.896
283.048
282.355
281.785
281.336
280.976
280.691
280.466
280.303
280.848
280.842
280.827
280.807
280.783
280.756
280.729
280.701
280.671
280.635
280.631
280.607
280.568
280.519
280.465
280.408
280.352
280.299
280.251
280.209
280.847
280.798
280.724
280.634
280.537
280.441
280.348
280.264
280.189
280.125
281.185
281.101
280.977
280.832
280.682
280.538
280.404
280.284
280.181
280.095
281.514
281.381
281.192
280.983
280.775
280.58
280.405
280.253
280.123
280.018
281.909
281.714
281.45
281.17
280.9
280.656
280.442
280.26
280.107
279.983
282.264
281.993
281.645
281.291
280.962
280.672
280.423
280.215
280.043
279.907
282.657
282.3
281.863
281.439
281.056
280.727
280.45
280.221
280.033
279.885
282.99
282.535
282.014
281.531
281.106
280.748
280.451
280.208
280.01
279.854
283.895
283.365
282.784
282.258
281.8
281.418
281.103
280.846
280.639
280.488
280.813
280.811
280.804
280.794
280.781
280.766
280.751
280.735
280.715
280.688
280.544
280.532
280.511
280.484
280.453
280.42
280.386
280.353
280.322
280.295
280.691
280.666
280.625
280.573
280.514
280.453
280.393
280.336
280.284
280.24
280.944
280.899
280.828
280.74
280.645
280.548
280.455
280.369
280.292
280.227
281.192
281.119
281.008
280.876
280.737
280.6
280.472
280.356
280.254
280.17
281.505
281.396
281.236
281.053
280.866
280.687
280.523
280.378
280.252
280.149
281.785
281.631
281.413
281.173
280.936
280.716
280.519
280.347
280.201
280.083
282.107
281.899
281.619
281.323
281.039
280.781
280.555
280.361
280.199
280.067
282.371
282.101
281.761
281.416
281.093
280.806
280.558
280.349
280.175
280.034
283.193
282.875
282.488
282.105
281.752
281.443
281.178
280.957
280.774
280.639
280.8
280.8
280.797
280.791
280.784
280.777
280.768
280.758
280.745
280.724
280.504
280.498
280.486
280.471
280.453
280.434
280.413
280.393
280.374
280.357
280.604
280.59
280.567
280.536
280.501
280.463
280.425
280.388
280.353
280.323
280.792
280.767
280.725
280.672
280.612
280.549
280.486
280.426
280.371
280.323
280.977
280.936
280.869
280.786
280.695
280.601
280.51
280.425
280.349
280.284
281.223
281.161
281.063
280.944
280.817
280.689
280.568
280.458
280.359
280.276
281.438
281.348
281.212
281.052
280.886
280.724
280.573
280.437
280.319
280.221
281.696
281.573
281.395
281.194
280.989
280.795
280.617
280.461
280.325
280.213
281.898
281.738
281.518
281.278
281.041
280.82
280.622
280.449
280.302
280.181
282.64
282.451
282.198
281.928
281.666