/*--------------------------------*- C++ -*----------------------------------*\
| =========                 |                                                 |
| \\      /  F ield         | foam-extend: Open Source CFD                    |
|  \\    /   O peration     | Version:     4.0                                |
|   \\  /    A nd           | Web:         http://www.foam-extend.org         |
|    \\/     M anipulation  |                                                 |
\*---------------------------------------------------------------------------*/
FoamFile
{
    version     2.0;
    format      ascii;
    class       volVectorField;
    location    "1500";
    object      U;
}
// * * * * * * * * * * * * * * * * * * * * * * * * * * * * * * * * * * * * * //

dimensions      [0 1 -1 0 0 0 0];

internalField   nonuniform List<vector> 
34480
(
(208.928 2.1703 3.26253)
(209.248 1.2038 1.52633)
(209.407 0.41835 -0.270125)
(209.414 -0.205559 -2.17255)
(209.266 -0.700237 -4.32139)
(208.926 -1.06187 -6.89402)
(208.312 -1.26402 -10.2921)
(207.149 -1.18366 -14.861)
(204.481 -0.585393 -22.7716)
(197.548 1.98431 -50.0348)
(209.863 3.08951 2.87346)
(210.124 2.26888 1.05382)
(210.252 1.54419 -0.769276)
(210.227 0.909939 -2.66711)
(209.993 0.338155 -4.75977)
(209.492 -0.182154 -7.25707)
(208.687 -0.660969 -10.6205)
(207.397 -1.03528 -15.5931)
(204.264 -1.13486 -24.3977)
(196.11 0.647595 -55.0917)
(210.559 2.72781 3.28695)
(210.794 1.84868 1.40459)
(210.889 1.07366 -0.498835)
(210.82 0.419592 -2.44174)
(210.526 -0.158527 -4.55516)
(210.001 -0.683849 -7.0987)
(209.251 -1.17275 -10.6031)
(208.11 -1.5443 -16.0984)
(204.812 -1.62064 -25.7759)
(195.608 0.375811 -59.4445)
(210.574 3.27241 3.23574)
(210.809 2.44071 1.29812)
(210.919 1.69727 -0.637445)
(210.883 1.07333 -2.60766)
(210.651 0.525011 -4.75151)
(210.238 0.0283152 -7.35836)
(209.624 -0.435946 -10.9621)
(208.647 -0.775414 -16.813)
(205.324 -0.803982 -27.1098)
(195.318 1.34134 -62.7163)
(210.741 2.73755 3.74116)
(211.006 1.83177 1.76546)
(211.154 1.03767 -0.249126)
(211.179 0.388816 -2.29416)
(211.038 -0.175817 -4.53444)
(210.76 -0.678098 -7.27169)
(210.295 -1.12946 -11.0371)
(209.502 -1.42462 -17.2685)
(206.278 -1.36797 -28.2292)
(195.629 0.941846 -65.3856)
(210.634 3.42576 3.51641)
(210.91 2.53607 1.54339)
(211.077 1.75817 -0.432089)
(211.137 1.12989 -2.44581)
(211.062 0.600973 -4.65571)
(210.902 0.14606 -7.38854)
(210.589 -0.245815 -11.16)
(210.011 -0.469688 -17.58)
(207.035 -0.307585 -29.0221)
(195.986 2.1007 -67.3575)
(210.723 2.58744 4.03258)
(211.038 1.60288 2.05884)
(211.234 0.751068 0.04132)
(211.332 0.0618724 -2.00413)
(211.316 -0.520647 -4.26531)
(211.253 -1.01337 -7.0707)
(211.081 -1.401 -10.9402)
(210.719 -1.5601 -17.6059)
(208.073 -1.1992 -29.6226)
(196.729 1.50069 -68.9818)
(210.556 3.36132 3.56211)
(210.875 2.36452 1.62066)
(211.05 1.53199 -0.317266)
(211.107 0.86978 -2.29695)
(211.051 0.345634 -4.46984)
(210.969 -0.0760889 -7.16995)
(210.842 -0.370509 -10.901)
(210.638 -0.407726 -17.485)
(208.4 0.257305 -29.6868)
(197.09 3.32153 -69.5812)
(210.505 2.04244 4.11028)
(210.868 0.928504 2.22215)
(211.074 -0.0271054 0.308852)
(211.169 -0.840574 -1.64684)
(211.164 -1.5437 -3.83844)
(211.127 -2.1424 -6.57668)
(211.069 -2.55614 -10.4004)
(211.004 -2.60766 -17.1007)
(209.095 -1.5536 -29.6717)
(197.669 2.46153 -69.537)
(209.542 2.78642 3.52776)
(209.815 1.57047 1.59762)
(209.762 0.617679 -0.310605)
(209.404 -0.167663 -2.27564)
(208.787 -0.773437 -4.43321)
(208.004 -1.21429 -7.06949)
(207.137 -1.39823 -10.6611)
(206.353 -1.10777 -16.813)
(204.418 0.416411 -28.5295)
(194.238 5.28092 -66.4941)
(205.818 1.91547 3.00025)
(206.297 1.1135 1.54451)
(206.484 0.430784 -0.00847833)
(206.402 -0.112945 -1.60789)
(206.025 -0.541944 -3.31709)
(205.264 -0.856721 -5.14853)
(203.918 -1.06135 -7.15597)
(201.554 -1.16723 -9.31447)
(198.091 -1.25228 -11.243)
(193.519 -1.15435 -14.3937)
(207.12 2.87658 2.79592)
(207.551 2.17313 1.16085)
(207.724 1.52874 -0.492017)
(207.637 0.953522 -2.18788)
(207.226 0.426338 -3.99426)
(206.373 -0.0588075 -5.96911)
(204.881 -0.516948 -8.20563)
(202.297 -0.982959 -10.9549)
(198.13 -1.57309 -14.0038)
(192.449 -1.81357 -20.581)
(208.075 2.5874 3.30369)
(208.484 1.78243 1.54241)
(208.643 1.05624 -0.257718)
(208.544 0.434387 -2.08994)
(208.109 -0.12157 -4.02843)
(207.237 -0.624087 -6.15696)
(205.754 -1.10241 -8.6645)
(203.179 -1.5731 -12.083)
(198.636 -2.1433 -16.3288)
(192.021 -2.05742 -26.7143)
(208.325 3.18819 3.29905)
(208.74 2.41469 1.45306)
(208.92 1.70616 -0.404874)
(208.863 1.10036 -2.29701)
(208.491 0.558839 -4.3087)
(207.721 0.0699853 -6.56635)
(206.351 -0.399216 -9.2958)
(203.869 -0.841473 -13.2541)
(199.098 -1.34876 -18.4712)
(191.67 -0.918602 -32.4503)
(208.686 2.67818 3.83308)
(209.128 1.81975 1.93219)
(209.347 1.05344 -0.0221307)
(209.354 0.42035 -2.00875)
(209.074 -0.134781 -4.14474)
(208.44 -0.623162 -6.58388)
(207.22 -1.07961 -9.56836)
(204.901 -1.47511 -14.0578)
(200.052 -1.88793 -20.2247)
(191.917 -1.05844 -37.6879)
(208.729 3.40131 3.62883)
(209.186 2.5504 1.71646)
(209.429 1.79343 -0.208323)
(209.479 1.17409 -2.17535)
(209.273 0.64565 -4.2959)
(208.766 0.193748 -6.76986)
(207.713 -0.212753 -9.83899)
(205.615 -0.536095 -14.6568)
(200.853 -0.817532 -21.541)
(192.193 0.377396 -42.2039)
(208.941 2.57319 4.15474)
(209.433 1.62343 2.23442)
(209.707 0.79456 0.257982)
(209.803 0.122991 -1.7489)
(209.664 -0.441498 -3.93365)
(209.272 -0.910462 -6.51225)
(208.381 -1.30035 -9.73975)
(206.527 -1.55838 -14.9121)
(201.973 -1.64602 -22.561)
(192.889 0.011269 -46.2383)
(208.86 3.37785 3.69102)
(209.36 2.41464 1.80109)
(209.624 1.60403 -0.0885965)
(209.694 0.957304 -2.02302)
(209.539 0.448073 -4.11766)
(209.169 0.0442671 -6.61898)
(208.371 -0.256934 -9.77651)
(206.738 -0.411388 -14.9997)
(202.513 -0.201173 -23.0462)
(193.301 1.84099 -49.2108)
(208.877 2.05689 4.24073)
(209.408 0.979933 2.39984)
(209.7 0.0696727 0.525937)
(209.806 -0.684722 -1.376)
(209.708 -1.3138 -3.47762)
(209.412 -1.83001 -6.02642)
(208.736 -2.18546 -9.33058)
(207.33 -2.31733 -14.7883)
(203.444 -1.73802 -23.4824)
(193.981 1.00639 -51.4919)
(207.956 2.86273 3.63375)
(208.432 1.69321 1.78839)
(208.548 0.797345 -0.0339031)
(208.336 0.0693826 -1.90305)
(207.809 -0.472368 -3.92627)
(207.004 -0.853819 -6.34949)
(205.806 -1.01168 -9.46487)
(204.006 -0.83081 -14.5589)
(200.267 0.223117 -23.0321)
(191.625 4.03806 -51.3394)
(203.449 1.43108 2.33365)
(203.952 0.837173 1.21626)
(204.134 0.30645 -0.0126496)
(204.031 -0.127637 -1.26229)
(203.631 -0.478136 -2.55315)
(202.885 -0.74245 -3.83081)
(201.7 -0.930325 -5.04749)
(199.925 -1.06724 -6.05357)
(197.372 -1.23858 -6.49798)
(194.156 -1.428 -6.51769)
(204.847 2.42183 2.31093)
(205.342 1.88025 0.944646)
(205.523 1.35437 -0.449313)
(205.401 0.864 -1.8655)
(204.938 0.399102 -3.33045)
(204.051 -0.0456247 -4.84681)
(202.579 -0.483437 -6.37822)
(200.252 -0.945968 -7.86155)
(196.628 -1.54464 -8.8015)
(191.789 -2.12723 -9.81136)
(205.887 2.22122 2.94442)
(206.388 1.53903 1.39275)
(206.569 0.901273 -0.210225)
(206.445 0.338112 -1.83846)
(205.958 -0.182402 -3.53829)
(205.006 -0.670141 -5.32646)
(203.391 -1.14983 -7.21283)
(200.748 -1.65152 -9.28997)
(196.247 -2.31966 -11.0008)
(189.806 -2.89904 -13.5836)
(206.29 2.90641 2.98966)
(206.813 2.23073 1.31483)
(207.019 1.59043 -0.382673)
(206.93 1.02571 -2.11284)
(206.481 0.503077 -3.93964)
(205.566 0.0128728 -5.92139)
(203.936 -0.476727 -8.10411)
(201.124 -0.983064 -10.7377)
(195.887 -1.66753 -13.1976)
(187.952 -2.15283 -17.5572)
(206.799 2.43547 3.56365)
(207.354 1.65992 1.80185)
(207.597 0.951206 -0.0215336)
(207.564 0.351458 -1.87788)
(207.184 -0.189816 -3.86861)
(206.358 -0.681056 -6.08425)
(204.787 -1.15772 -8.59962)
(201.931 -1.62567 -11.8281)
(196.147 -2.27302 -15.1263)
(186.892 -2.5644 -21.5691)
(206.972 3.20781 3.38454)
(207.545 2.42588 1.59044)
(207.815 1.71691 -0.224158)
(207.824 1.12451 -2.08447)
(207.506 0.604079 -4.09091)
(206.778 0.143327 -6.38496)
(205.307 -0.293108 -9.0595)
(202.509 -0.704617 -12.7105)
(196.38 -1.26504 -16.7106)
(186.034 -1.32818 -25.3295)
(207.296 2.39641 3.93379)
(207.901 1.50971 2.11357)
(208.2 0.727719 0.230027)
(208.254 0.086679 -1.68909)
(207.999 -0.461869 -3.78357)
(207.37 -0.926214 -6.21812)
(206.017 -1.32876 -9.1178)
(203.34 -1.66016 -13.2276)
(197.035 -2.05919 -18.0227)
(185.761 -1.78958 -28.952)
(207.308 3.23932 3.47443)
(207.92 2.33714 1.68114)
(208.213 1.57123 -0.118177)
(208.25 0.954604 -1.96909)
(207.988 0.460667 -3.9824)
(207.387 0.0631423 -6.36401)
(206.119 -0.25072 -9.25646)
(203.594 -0.48136 -13.5497)
(197.306 -0.613967 -18.8674)
(185.37 -0.0631484 -31.8681)
(207.404 1.90503 4.02874)
(208.034 0.889857 2.27295)
(208.349 0.0381582 0.472479)
(208.415 -0.656845 -1.36023)
(208.195 -1.22704 -3.38524)
(207.656 -1.68267 -5.81168)
(206.499 -1.98842 -8.8723)
(204.168 -2.12269 -13.5103)
(198.013 -1.85697 -19.6372)
(185.293 -0.795583 -34.2591)
(206.55 2.76869 3.3894)
(207.128 1.67679 1.66261)
(207.313 0.851548 -0.0520834)
(207.141 0.188741 -1.82256)
(206.606 -0.292061 -3.74544)
(205.696 -0.613784 -6.03443)
(204.181 -0.725077 -8.91811)
(201.613 -0.545974 -13.3012)
(195.595 0.218459 -19.5421)
(182.817 2.30104 -34.6903)
(201.717 0.95218 1.70082)
(202.155 0.551107 0.91093)
(202.306 0.169275 0.00789811)
(202.208 -0.154073 -0.896052)
(201.86 -0.424701 -1.79947)
(201.245 -0.637236 -2.62078)
(200.334 -0.803875 -3.29502)
(199.1 -0.948106 -3.68678)
(197.542 -1.12532 -3.58052)
(195.811 -1.36104 -2.75354)
(203.042 1.91452 1.7889)
(203.51 1.53968 0.716284)
(203.673 1.14285 -0.388787)
(203.543 0.750062 -1.49755)
(203.096 0.362556 -2.60165)
(202.287 -0.0224143 -3.67059)
(201.038 -0.415474 -4.62836)
(199.246 -0.839109 -5.3466)
(196.781 -1.36159 -5.40295)
(193.983 -1.92974 -4.62041)
(204.036 1.76835 2.49982)
(204.547 1.22936 1.20318)
(204.723 0.699943 -0.152669)
(204.582 0.214665 -1.51892)
(204.083 -0.249873 -2.91233)
(203.156 -0.701958 -4.313)
(201.666 -1.16101 -5.65453)
(199.417 -1.65322 -6.84542)
(196.063 -2.28444 -7.2992)
(191.983 -2.9811 -6.92409)
(204.501 2.53521 2.58268)
(205.058 1.98166 1.12846)
(205.264 1.43071 -0.356612)
(205.142 0.926379 -1.86207)
(204.642 0.443444 -3.42362)
(203.677 -0.0273323 -5.0555)
(202.05 -0.514982 -6.71195)
(199.465 -1.04192 -8.3777)
(195.248 -1.74734 -9.29193)
(189.783 -2.51405 -9.53964)
(205.094 2.10926 3.19784)
(205.695 1.44104 1.6218)
(205.935 0.809776 -0.022066)
(205.854 0.259907 -1.68818)
(205.39 -0.251102 -3.45127)
(204.448 -0.731149 -5.3549)
(202.772 -1.21321 -7.37979)
(199.971 -1.71639 -9.60884)
(195.004 -2.43023 -11.1378)
(188.2 -3.16947 -12.3665)
(205.356 2.93631 3.04783)
(205.985 2.24702 1.41508)
(206.252 1.60451 -0.245578)
(206.206 1.0544 -1.94414)
(205.781 0.557871 -3.75773)
(204.888 0.102478 -5.77814)
(203.22 -0.349411 -8.00846)
(200.312 -0.816317 -10.6655)
(194.74 -1.4963 -12.7383)
(186.73 -2.15587 -15.1328)
(205.764 2.15151 3.62623)
(206.425 1.34943 1.94461)
(206.72 0.630225 0.193074)
(206.714 0.0316241 -1.58887)
(206.336 -0.49042 -3.5197)
(205.508 -0.943682 -5.71529)
(203.887 -1.3547 -8.21855)
(200.95 -1.73632 -11.3639)
(194.92 -2.29177 -14.1201)
(185.82 -2.76516 -17.9466)
(205.855 3.04532 3.17779)
(206.524 2.22364 1.51564)
(206.817 1.51583 -0.160027)
(206.799 0.939272 -1.88591)
(206.416 0.469041 -3.75401)
(205.604 0.0829031 -5.92337)
(204.023 -0.241016 -8.46414)
(201.124 -0.529946 -11.8527)
(194.837 -0.87454 -15.1064)
(184.85 -1.18767 -20.315)
(206.019 1.70982 3.76085)
(206.699 0.773122 2.12161)
(207.008 -0.0134847 0.423537)
(207.014 -0.649403 -1.30692)
(206.665 -1.16595 -3.20812)
(205.896 -1.57029 -5.4351)
(204.372 -1.84191 -8.13973)
(201.563 -1.99169 -11.8852)
(195.204 -1.94393 -15.9822)
(184.243 -1.89551 -22.3769)
(205.233 2.64727 3.10004)
(205.865 1.64531 1.51362)
(206.083 0.893844 -0.0755271)
(205.92 0.294843 -1.72509)
(205.35 -0.130344 -3.51383)
(204.328 -0.401736 -5.60951)
(202.563 -0.480481 -8.16334)
(199.565 -0.31556 -11.7217)
(193.225 0.229047 -16.0538)
(181.774 1.2025 -22.8598)
(200.512 0.554058 1.19282)
(200.854 0.298096 0.665342)
(200.969 0.0374083 0.0353471)
(200.894 -0.191802 -0.583223)
(200.636 -0.393096 -1.18738)
(200.198 -0.558798 -1.69737)
(199.586 -0.698442 -2.06647)
(198.823 -0.827164 -2.20475)
(197.958 -0.971437 -2.02049)
(197.107 -1.13813 -1.4295)
(201.671 1.44096 1.30882)
(202.065 1.207 0.508207)
(202.202 0.92799 -0.322667)
(202.089 0.62962 -1.14653)
(201.716 0.321127 -1.93644)
(201.068 0.00379455 -2.64923)
(200.124 -0.326879 -3.21079)
(198.88 -0.680719 -3.51269)
(197.357 -1.08607 -3.32777)
(195.858 -1.50417 -2.51801)
(202.525 1.30037 2.0468)
(202.996 0.899041 1.0127)
(203.158 0.47958 -0.0853568)
(203.025 0.078025 -1.18167)
(202.573 -0.320345 -2.26824)
(201.765 -0.720144 -3.3036)
(200.534 -1.13459 -4.20323)
(198.817 -1.58114 -4.83711)
(196.533 -2.11526 -4.813)
(194.143 -2.68537 -3.92691)
(202.97 2.12509 2.14416)
(203.513 1.69958 0.932225)
(203.709 1.24643 -0.317644)
(203.58 0.812461 -1.57538)
(203.09 0.3824 -2.84745)
(202.181 -0.050237 -4.11418)
(200.731 -0.509564 -5.29345)
(198.6 -1.01479 -6.26971)
(195.51 -1.65395 -6.46557)
(192.039 -2.35914 -5.60702)
(203.575 1.73618 2.78967)
(204.18 1.18707 1.42754)
(204.412 0.644339 -0.00871044)
(204.308 0.154903 -1.45487)
(203.819 -0.313555 -2.95357)
(202.87 -0.766965 -4.50574)
(201.279 -1.23387 -6.0433)
(198.824 -1.73647 -7.49067)
(194.96 -2.41575 -8.08463)
(190.343 -3.18362 -7.53332)
(203.877 2.61338 2.66512)
(204.525 2.03147 1.22374)
(204.786 1.46755 -0.253634)
(204.706 0.970102 -1.75826)
(204.229 0.508993 -3.33615)
(203.275 0.0731024 -5.02837)
(201.604 -0.374912 -6.78211)
(198.921 -0.861314 -8.6035)
(194.363 -1.54978 -9.55769)
(188.622 -2.34368 -9.45796)
(204.331 1.85832 3.27137)
(205.018 1.15671 1.7583)
(205.306 0.511986 0.167689)
(205.259 -0.0352881 -1.44495)
(204.809 -0.522021 -3.16735)
(203.877 -0.955153 -5.06121)
(202.177 -1.3635 -7.10935)
(199.344 -1.77193 -9.39402)
(194.189 -2.37177 -10.8755)
(187.365 -3.09157 -11.5001)
(204.476 2.80914 2.8356)
(205.176 2.08365 1.33172)
(205.467 1.4451 -0.194319)
(205.412 0.917045 -1.76597)
(204.953 0.478688 -3.44753)
(204.018 0.111465 -5.34213)
(202.303 -0.213131 -7.45556)
(199.398 -0.537588 -9.98762)
(193.818 -0.98547 -11.8634)
(186.035 -1.65069 -13.2431)
(204.693 1.476 3.45401)
(205.401 0.63257 1.95679)
(205.704 -0.0816339 0.385978)
(205.667 -0.656471 -1.21431)
(205.233 -1.12078 -2.95572)
(204.325 -1.47914 -4.93464)
(202.623 -1.72368 -7.22206)
(199.695 -1.88685 -10.0711)
(193.872 -1.9784 -12.6804)
(185.041 -2.39114 -14.8156)
(203.969 2.50085 2.77249)
(204.633 1.59944 1.34368)
(204.874 0.925824 -0.103506)
(204.718 0.390917 -1.61191)
(204.132 0.0186721 -3.23809)
(203.048 -0.208104 -5.09922)
(201.181 -0.262896 -7.26948)
(198.085 -0.11802 -9.99711)
(192.159 0.260802 -12.8077)
(182.62 0.641139 -15.1282)
(199.684 0.254451 0.823703)
(199.938 0.0960706 0.487489)
(200.019 -0.0764832 0.0629522)
(199.968 -0.233325 -0.343137)
(199.793 -0.378845 -0.735656)
(199.506 -0.504057 -1.04665)
(199.121 -0.615181 -1.25097)
(198.669 -0.719703 -1.29422)
(198.193 -0.828347 -1.14397)
(197.737 -0.940096 -0.777649)
(200.664 1.04624 0.908388)
(200.967 0.917321 0.334626)
(201.074 0.734679 -0.26176)
(200.986 0.519097 -0.84635)
(200.703 0.284005 -1.38733)
(200.225 0.0336555 -1.84392)
(199.561 -0.230713 -2.15872)
(198.742 -0.509673 -2.25898)
(197.833 -0.808231 -2.03802)
(197.025 -1.09746 -1.43101)
(201.342 0.868386 1.6326)
(201.74 0.582503 0.839366)
(201.878 0.262572 -0.0174121)
(201.765 -0.0580673 -0.865264)
(201.389 -0.387556 -1.68184)
(200.737 -0.72637 -2.41849)
(199.793 -1.08109 -2.99888)
(198.564 -1.46036 -3.3146)
(197.089 -1.88645 -3.14377)
(195.7 -2.31772 -2.34615)
(201.714 1.71889 1.7165)
(202.203 1.41135 0.743124)
(202.379 1.05407 -0.27143)
(202.258 0.693596 -1.28451)
(201.817 0.323572 -2.281)
(201.026 -0.0583262 -3.22121)
(199.829 -0.468766 -4.01826)
(198.189 -0.920237 -4.54484)
(196.055 -1.45912 -4.43677)
(193.912 -2.03229 -3.43846)
(202.276 1.3497 2.37333)
(202.845 0.918073 1.23346)
(203.058 0.467028 0.0158668)
(202.948 0.0439469 -1.20133)
(202.476 -0.373244 -2.43297)
(201.597 -0.787148 -3.64909)
(200.202 -1.21953 -4.7629)
(198.199 -1.68981 -5.64595)
(195.381 -2.28778 -5.77345)
(192.372 -2.95325 -4.76476)
(202.576 2.2638 2.26382)
(203.201 1.7934 1.02897)
(203.447 1.31419 -0.248315)
(203.349 0.876406 -1.54259)
(202.864 0.459361 -2.8706)
(201.931 0.0548955 -4.23152)
(200.391 -0.369763 -5.54225)
(198.092 -0.841054 -6.71041)
(194.611 -1.47467 -7.04494)
(190.693 -2.21819 -6.09415)
(203.039 1.53513 2.89074)
(203.716 0.941767 1.56516)
(203.989 0.378863 0.155435)
(203.914 -0.110404 -1.26743)
(203.434 -0.554551 -2.75992)
(202.482 -0.958609 -4.33547)
(200.847 -1.35026 -5.93574)
(198.315 -1.75905 -7.50243)
(194.221 -2.33603 -8.22283)
(189.371 -3.06759 -7.55701)
(203.212 2.54346 2.46498)
(203.909 1.92369 1.13817)
(204.19 1.36238 -0.218737)
(204.108 0.889505 -1.61503)
(203.612 0.489792 -3.0859)
(202.634 0.148773 -4.68248)
(200.933 -0.163963 -6.35906)
(198.244 -0.496173 -8.13798)
(193.663 -0.968058 -9.13214)
(187.933 -1.71158 -8.79147)
(203.464 1.21177 3.12023)
(204.171 0.471653 1.78388)
(204.463 -0.164602 0.36032)
(204.394 -0.676649 -1.08747)
(203.911 -1.0895 -2.64333)
(202.94 -1.40522 -4.35042)
(201.214 -1.62526 -6.2164)
(198.422 -1.79163 -8.27612)
(193.504 -1.95494 -9.8295)
(186.798 -2.51071 -9.91204)
(202.791 2.33568 2.41655)
(203.459 1.5423 1.15786)
(203.71 0.949668 -0.133872)
(203.56 0.479136 -1.48439)
(202.972 0.157537 -2.92654)
(201.878 -0.0297532 -4.52977)
(200.028 -0.0670687 -6.30404)
(197.075 0.056478 -8.29412)
(191.979 0.314448 -9.98098)
(184.553 0.413331 -10.0803)
(199.114 0.0446793 0.57519)
(199.299 -0.0538979 0.368786)
(199.354 -0.167649 0.0868734)
(199.322 -0.272962 -0.173014)
(199.212 -0.376365 -0.425953)
(199.034 -0.468467 -0.616757)
(198.804 -0.553109 -0.73661)
(198.545 -0.632567 -0.752869)
(198.284 -0.709848 -0.658362)
(198.023 -0.781271 -0.451625)
(199.938 0.745812 0.596684)
(200.156 0.687866 0.198176)
(200.233 0.577722 -0.212869)
(200.171 0.429364 -0.611112)
(199.971 0.257618 -0.967809)
(199.64 0.068192 -1.25104)
(199.199 -0.1336 -1.42189)
(198.681 -0.343386 -1.43728)
(198.147 -0.556117 -1.25249)
(197.708 -0.748977 -0.850701)
(200.439 0.50145 1.28107)
(200.753 0.302906 0.691627)
(200.864 0.0658043 0.0436477)
(200.775 -0.182412 -0.592622)
(200.483 -0.445964 -1.19)
(199.99 -0.722121 -1.70291)
(199.304 -1.01211 -2.07189)
(198.462 -1.31717 -2.22274)
(197.534 -1.64093 -2.04279)
(196.728 -1.95117 -1.4727)
(200.715 1.348 1.32713)
(201.128 1.13901 0.571074)
(201.278 0.868307 -0.224845)
(201.174 0.578885 -1.01375)
(200.804 0.270977 -1.76867)
(200.159 -0.0537894 -2.44323)
(199.226 -0.404019 -2.96166)
(198.023 -0.784663 -3.22016)
(196.597 -1.21404 -3.0134)
(195.282 -1.6508 -2.19229)
(201.2 0.978388 1.97445)
(201.703 0.652669 1.04886)
(201.891 0.28964 0.0460665)
(201.787 -0.0656433 -0.949246)
(201.365 -0.426502 -1.93243)
(200.602 -0.791836 -2.85715)
(199.45 -1.17575 -3.63771)
(197.896 -1.59149 -4.14797)
(195.918 -2.08873 -4.06536)
(193.983 -2.62027 -3.11761)
(201.463 1.91108 1.86637)
(202.036 1.54708 0.839356)
(202.258 1.15285 -0.233387)
(202.156 0.778237 -1.31469)
(201.699 0.411223 -2.39863)
(200.848 0.0473493 -3.45693)
(199.515 -0.338579 -4.39756)
(197.645 -0.767884 -5.09861)
(195.097 -1.31251 -5.10418)
(192.473 -1.93861 -4.03)
(201.908 1.20086 2.50304)
(202.543 0.715501 1.37245)
(202.794 0.237058 0.153804)
(202.706 -0.190145 -1.07003)
(202.233 -0.586233 -2.32871)
(201.327 -0.95356 -3.60062)
(199.854 -1.31574 -4.80692)
(197.713 -1.70067 -5.82556)
(194.606 -2.21539 -6.09772)
(191.24 -2.85833 -5.07213)
(202.083 2.26252 2.08164)
(202.747 1.75123 0.94154)
(203.009 1.27124 -0.234468)
(202.913 0.857942 -1.44312)
(202.415 0.501917 -2.69345)
(201.462 0.192833 -3.99607)
(199.885 -0.0976242 -5.27415)
(197.538 -0.413094 -6.45133)
(193.956 -0.853081 -6.88131)
(189.857 -1.53431 -5.92177)
(202.354 0.927661 2.77263)
(203.034 0.295217 1.60807)
(203.306 -0.260136 0.345376)
(203.219 -0.708682 -0.935081)
(202.723 -1.07096 -2.29134)
(201.758 -1.34661 -3.724)
(200.125 -1.54314 -5.1989)
(197.626 -1.70305 -6.62669)
(193.685 -1.88665 -7.4615)
(188.772 -2.41559 -6.69807)
(201.719 2.15989 2.04362)
(202.365 1.47807 0.961491)
(202.613 0.967957 -0.165633)
(202.47 0.561553 -1.34679)
(201.902 0.288346 -2.59235)
(200.846 0.135921 -3.93197)
(199.112 0.111187 -5.32898)
(196.457 0.213896 -6.71215)
(192.301 0.385511 -7.61331)
(186.771 0.373056 -6.7794)
(198.711 -0.0962036 0.41667)
(198.848 -0.160338 0.294606)
(198.886 -0.237236 0.106255)
(198.867 -0.307814 -0.0584563)
(198.8 -0.380926 -0.223454)
(198.695 -0.44742 -0.343689)
(198.561 -0.509849 -0.420591)
(198.416 -0.567803 -0.433109)
(198.269 -0.62109 -0.383307)
(198.102 -0.665827 -0.273243)
(199.417 0.535103 0.365109)
(199.564 0.521656 0.0947868)
(199.619 0.462705 -0.178178)
(199.577 0.365757 -0.439273)
(199.443 0.245434 -0.665925)
(199.225 0.10774 -0.835893)
(198.943 -0.0401382 -0.924899)
(198.625 -0.191872 -0.909065)
(198.313 -0.339539 -0.77199)
(198.068 -0.46619 -0.513167)
(199.762 0.209946 0.999221)
(199.995 0.0722371 0.572087)
(200.079 -0.100304 0.0941265)
(200.014 -0.287563 -0.372282)
(199.8 -0.492071 -0.801267)
(199.445 -0.709463 -1.15538)
(198.968 -0.937604 -1.39204)
(198.409 -1.17298 -1.46549)
(197.832 -1.41064 -1.3217)
(197.361 -1.6267 -0.945707)
(199.942 1.03147 0.991439)
(200.271 0.8984 0.421837)
(200.393 0.700852 -0.182645)
(200.309 0.475983 -0.77767)
(200.017 0.228017 -1.33265)
(199.518 -0.0386282 -1.80369)
(198.823 -0.325817 -2.13165)
(197.971 -0.632633 -2.24256)
(197.036 -0.960879 -2.02929)
(196.23 -1.27957 -1.42272)
(200.333 0.644031 1.61174)
(200.755 0.406852 0.880649)
(200.913 0.12318 0.0771042)
(200.822 -0.16687 -0.715056)
(200.467 -0.470042 -1.4801)
(199.841 -0.782081 -2.16755)
(198.934 -1.11038 -2.70351)
(197.775 -1.46117 -2.98612)
(196.419 -1.85699 -2.83089)
(195.182 -2.26036 -2.08366)
(200.54 1.5758 1.49203)
(201.039 1.30617 0.662349)
(201.232 0.992144 -0.212603)
(201.136 0.68069 -1.08996)
(200.73 0.366758 -1.94918)
(199.998 0.0494153 -2.74849)
(198.899 -0.288068 -3.40169)
(197.441 -0.65982 -3.79469)
(195.628 -1.10361 -3.64612)
(193.89 -1.59729 -2.71126)
(200.947 0.874056 2.12609)
(201.516 0.489556 1.18704)
(201.739 0.0936504 0.159762)
(201.648 -0.270341 -0.866443)
(201.211 -0.6151 -1.90098)
(200.4 -0.940121 -2.90172)
(199.14 -1.26354 -3.78636)
(197.407 -1.6075 -4.41978)
(195.122 -2.04105 -4.44626)
(192.822 -2.56214 -3.45578)
(201.1 1.9814 1.70183)
(201.707 1.57485 0.74858)
(201.944 1.17621 -0.243205)
(201.843 0.824295 -1.26116)
(201.374 0.515064 -2.2937)
(200.498 0.242003 -3.32442)
(199.112 -0.0186655 -4.26442)
(197.156 -0.301814 -5.0002)
(194.453 -0.679402 -5.08823)
(191.58 -1.2374 -4.02804)
(201.378 0.635546 2.42568)
(202.007 0.10933 1.43531)
(202.255 -0.365179 0.339763)
(202.159 -0.75094 -0.766838)
(201.681 -1.06396 -1.92091)
(200.776 -1.30169 -3.09327)
(199.313 -1.47481 -4.22724)
(197.186 -1.6214 -5.18207)
(194.146 -1.79572 -5.56322)
(190.646 -2.22933 -4.57084)
(200.768 1.98301 1.66642)
(201.368 1.41195 0.76066)
(201.604 0.983798 -0.198129)
(201.47 0.640292 -1.20478)
(200.94 0.412922 -2.25058)
(199.965 0.291116 -3.33578)
(198.412 0.27537 -4.39505)
(196.138 0.359012 -5.30846)
(192.883 0.469567 -5.69321)
(188.909 0.42491 -4.58982)
(198.415 -0.189735 0.320272)
(198.522 -0.234898 0.251337)
(198.547 -0.289833 0.121757)
(198.537 -0.337959 0.0164323)
(198.498 -0.390166 -0.0950229)
(198.438 -0.437845 -0.174755)
(198.362 -0.483045 -0.22991)
(198.28 -0.524287 -0.245461)
(198.196 -0.560345 -0.226329)
(198.077 -0.587928 -0.173482)
(199.038 0.400016 0.197515)
(199.135 0.41295 0.0173049)
(199.171 0.388462 -0.157269)
(199.145 0.32903 -0.321594)
(199.059 0.248396 -0.459557)
(198.921 0.152218 -0.556933)
(198.746 0.0477634 -0.599521)
(198.554 -0.0584509 -0.574407)
(198.372 -0.158768 -0.47747)
(198.233 -0.240839 -0.311386)
(199.256 -0.00873265 0.782966)
(199.421 -0.106912 0.479184)
(199.482 -0.231692 0.132969)
(199.437 -0.370211 -0.203464)
(199.287 -0.52471 -0.508391)
(199.042 -0.690694 -0.753575)
(198.723 -0.864303 -0.910257)
(198.361 -1.03996 -0.952246)
(198.006 -1.21003 -0.854247)
(197.728 -1.3573 -0.621213)
(199.355 0.776918 0.71437)
(199.606 0.698404 0.297291)
(199.7 0.559339 -0.147697)
(199.637 0.390104 -0.582908)
(199.416 0.196741 -0.979484)
(199.047 -0.0148048 -1.3007)
(198.549 -0.242035 -1.50375)
(197.963 -0.480517 -1.54007)
(197.357 -0.724159 -1.35746)
(196.862 -0.950016 -0.93079)
(199.649 0.360201 1.29604)
(199.988 0.192452 0.732892)
(200.115 -0.0233828 0.105257)
(200.041 -0.253861 -0.509683)
(199.756 -0.501336 -1.09175)
(199.266 -0.75948 -1.59426)
(198.581 -1.03081 -1.95881)
(197.743 -1.31568 -2.11209)
(196.828 -1.62084 -1.95372)
(196.042 -1.91565 -1.41042)
(199.793 1.27329 1.155)
(200.209 1.0821 0.503611)
(200.37 0.83979 -0.189265)
(200.286 0.588323 -0.880627)
(199.945 0.327582 -1.54259)
(199.344 0.0593866 -2.13043)
(198.476 -0.225191 -2.57149)
(197.378 -0.533872 -2.77491)
(196.112 -0.881272 -2.57398)
(194.971 -1.2521 -1.84041)
(200.152 0.570667 1.77471)
(200.642 0.275011 1.01468)
(200.833 -0.0441006 0.170161)
(200.747 -0.346585 -0.668997)
(200.365 -0.63916 -1.4988)
(199.673 -0.918774 -2.26881)
(198.642 -1.19821 -2.90417)
(197.291 -1.49238 -3.28429)
(195.649 -1.84225 -3.19562)
(194.097 -2.24076 -2.37506)
(200.266 1.71417 1.34043)
(200.798 1.40331 0.565579)
(201.006 1.08227 -0.246879)
(200.909 0.79091 -1.07984)
(200.489 0.529502 -1.90758)
(199.723 0.294769 -2.69896)
(198.559 0.0686157 -3.3667)
(196.993 -0.174579 -3.79904)
(195.007 -0.481676 -3.70175)
(193.027 -0.906693 -2.75534)
(200.544 0.347152 2.09344)
(201.105 -0.0794597 1.27157)
(201.323 -0.476242 0.341908)
(201.228 -0.801603 -0.59263)
(200.79 -1.06741 -1.55207)
(199.983 -1.26932 -2.48979)
(198.731 -1.41903 -3.34151)
(196.995 -1.54783 -3.96092)
(194.719 -1.69919 -4.0805)
(192.282 -2.02786 -3.14572)
(199.946 1.81499 1.29757)
(200.483 1.34978 0.561446)
(200.697 1.00067 -0.231157)
(200.576 0.717576 -1.06488)
(200.1 0.532989 -1.91655)
(199.235 0.437859 -2.76768)
(197.902 0.428491 -3.53978)
(196.032 0.495509 -4.10794)
(193.563 0.563495 -4.1778)
(190.79 0.519742 -3.11435)
(198.189 -0.254064 0.264966)
(198.277 -0.288964 0.22877)
(198.295 -0.33139 0.134816)
(198.29 -0.365497 0.0652653)
(198.267 -0.403794 -0.0144281)
(198.233 -0.438262 -0.0714519)
(198.19 -0.470864 -0.115683)
(198.144 -0.499894 -0.135363)
(198.094 -0.523995 -0.135988)
(198 -0.540571 -0.116794)
(198.758 0.323981 0.076573)
(198.82 0.352039 -0.0418155)
(198.844 0.350017 -0.148401)
(198.828 0.317035 -0.246322)
(198.774 0.265854 -0.325023)
(198.689 0.201458 -0.376004)
(198.583 0.130213 -0.391477)
(198.469 0.0579547 -0.364289)
(198.363 -0.00903597 -0.295403)
(198.282 -0.0617483 -0.185717)
(198.876 -0.164541 0.622825)
(198.989 -0.238467 0.409194)
(199.03 -0.32935 0.160937)
(199 -0.430558 -0.079971)
(198.899 -0.544713 -0.296539)
(198.737 -0.668177 -0.468692)
(198.529 -0.796504 -0.577769)
(198.3 -0.923926 -0.609678)
(198.083 -1.04304 -0.552156)
(197.918 -1.14187 -0.417153)
(198.917 0.583278 0.493513)
(199.1 0.541593 0.196437)
(199.17 0.447136 -0.121205)
(199.124 0.323706 -0.429957)
(198.965 0.177643 -0.705447)
(198.702 0.0154237 -0.919371)
(198.357 -0.158455 -1.04238)
(197.963 -0.338038 -1.04425)
(197.575 -0.514738 -0.901821)
(197.269 -0.672092 -0.609029)
(199.121 0.132827 1.03113)
(199.382 0.0165967 0.606913)
(199.48 -0.143839 0.127988)
(199.422 -0.322373 -0.338768)
(199.204 -0.518773 -0.773114)
(198.836 -0.72595 -1.13601)
(198.336 -0.943189 -1.38413)
(197.747 -1.16708 -1.46885)
(197.139 -1.39674 -1.33781)
(196.639 -1.60691 -0.962917)
(199.203 1.01268 0.863868)
(199.536 0.882951 0.366684)
(199.665 0.701691 -0.165908)
(199.595 0.504568 -0.694917)
(199.321 0.294462 -1.19075)
(198.848 0.0749947 -1.61231)
(198.188 -0.156643 -1.9026)
(197.386 -0.403577 -1.99656)
(196.517 -0.667039 -1.79796)
(195.773 -0.936427 -1.25346)
(199.513 0.302675 1.45949)
(199.918 0.0813111 0.859474)
(200.076 -0.169467 0.182064)
(200.001 -0.414609 -0.487599)
(199.682 -0.656498 -1.13807)
(199.117 -0.890183 -1.71925)
(198.306 -1.12418 -2.16887)
(197.285 -1.36644 -2.39155)
(196.128 -1.6401 -2.26658)
(195.091 -1.93263 -1.63773)
(199.576 1.47235 1.00949)
(200.025 1.24451 0.397764)
(200.2 0.994314 -0.247395)
(200.113 0.760231 -0.908433)
(199.753 0.545628 -1.55173)
(199.112 0.349657 -2.14099)
(198.173 0.160158 -2.59856)
(196.963 -0.0408002 -2.83318)
(195.536 -0.281517 -2.65322)
(194.192 -0.59168 -1.88758)
(199.851 0.0726875 1.7881)
(200.333 -0.264917 1.12218)
(200.519 -0.589804 0.350247)
(200.432 -0.858832 -0.421468)
(200.05 -1.08039 -1.20188)
(199.36 -1.24885 -1.9372)
(198.331 -1.37558 -2.56561)
(196.966 -1.48432 -2.95878)
(195.304 -1.60793 -2.94684)
(193.64 -1.84565 -2.17651)
(199.255 1.66529 0.948225)
(199.717 1.29757 0.369343)
(199.905 1.02233 -0.264904)
(199.799 0.795824 -0.933562)
(199.386 0.650404 -1.6041)
(198.649 0.578284 -2.24865)
(197.547 0.573428 -2.78717)
(196.066 0.626429 -3.11337)
(194.244 0.665033 -3.00976)
(192.356 0.633628 -2.10606)
(198.011 -0.302927 0.236821)
(198.086 -0.33228 0.22035)
(198.099 -0.367963 0.147174)
(198.097 -0.393644 0.098292)
(198.084 -0.423018 0.0369081)
(198.065 -0.448574 -0.00797049)
(198.041 -0.47237 -0.0470739)
(198.015 -0.492816 -0.0706221)
(197.984 -0.508756 -0.0839965)
(197.904 -0.518198 -0.0850111)
(198.546 0.291869 -0.012639)
(198.585 0.328735 -0.0891063)
(198.601 0.341071 -0.149458)
(198.592 0.326356 -0.202388)
(198.559 0.296428 -0.241702)
(198.508 0.255412 -0.262586)
(198.445 0.208537 -0.261195)
(198.377 0.160643 -0.233253)
(198.314 0.116477 -0.181873)
(198.266 0.0827903 -0.104979)
(198.585 -0.270354 0.507719)
(198.66 -0.33004 0.357777)
(198.688 -0.397592 0.179835)
(198.668 -0.4713 0.00675281)
(198.602 -0.554392 -0.148607)
(198.498 -0.644219 -0.272691)
(198.366 -0.736691 -0.35359)
(198.224 -0.826776 -0.384224)
(198.092 -0.908414 -0.357687)
(197.993 -0.97355 -0.287852)
(198.593 0.443918 0.322103)
(198.722 0.425626 0.116535)
(198.772 0.363863 -0.103089)
(198.741 0.276681 -0.315206)
(198.63 0.169883 -0.500885)
(198.449 0.0496206 -0.639423)
(198.216 -0.0792005 -0.711587)
(197.957 -0.210503 -0.699074)
(197.709 -0.335947 -0.593527)
(197.521 -0.444243 -0.394531)
(198.719 -0.0382623 0.815321)