/*--------------------------------*- C++ -*----------------------------------*\
| =========                 |                                                 |
| \\      /  F ield         | foam-extend: Open Source CFD                    |
|  \\    /   O peration     | Version:     4.0                                |
|   \\  /    A nd           | Web:         http://www.foam-extend.org         |
|    \\/     M anipulation  |                                                 |
\*---------------------------------------------------------------------------*/
FoamFile
{
    version     2.0;
    format      ascii;
    class       volScalarField;
    location    "4200";
    object      divFlux;
}
// * * * * * * * * * * * * * * * * * * * * * * * * * * * * * * * * * * * * * //

dimensions      [1 -3 -1 0 0 0 0];

internalField   nonuniform List<scalar> 
34480
(
1.88845e-05
7.02479e-06
7.16236e-06
6.62299e-06
6.14063e-06
5.75994e-06
5.47105e-06
0.000297857
0.000181253
4.88235e-06
5.467e-06
3.12184e-06
2.9408e-06
2.73782e-06
2.5865e-06
2.5164e-06
2.51181e-06
2.51748e-06
0.00346388
2.42997e-06
1.62526e-06
9.94371e-07
9.56982e-07
9.2161e-07
9.04152e-07
9.35447e-07
9.8704e-07
1.02136e-06
0.00334117
1.00683e-06
5.79843e-07
3.71824e-07
3.71175e-07
3.56092e-07
3.55214e-07
3.75184e-07
3.9691e-07
4.11725e-07
0.000801521
4.08365e-07
2.32934e-07
1.53887e-07
1.53429e-07
1.48978e-07
1.47604e-07
1.56571e-07
1.65146e-07
1.71495e-07
1.73852e-07
1.70251e-07
9.16744e-08
7.30245e-08
6.55216e-08
6.49489e-08
6.51207e-08
6.80417e-08
7.19936e-08
7.46282e-08
7.52009e-08
7.29672e-08
4.30574e-08
3.3499e-08
2.94771e-08
3.01898e-08
2.94262e-08
3.1208e-08
3.27863e-08
3.32954e-08
3.37536e-08
3.37536e-08
2.46852e-08
1.8007e-08
1.52578e-08
1.47996e-08
1.48913e-08
1.5212e-08
1.56244e-08
1.62659e-08
1.68615e-08
1.68157e-08
2.28472e-08
5.29005e-09
1.17048e-08
7.99755e-09
7.78928e-09
8.78898e-09
8.74732e-09
8.99725e-09
9.5804e-09
9.83032e-09
7.54109e-10
1.0653e-08
3.70373e-09
7.71292e-09
5.07831e-09
6.26197e-09
5.00194e-09
6.56743e-09
6.56743e-09
5.99469e-09
2.64201e-05
9.1359e-06
9.10612e-06
8.53545e-06
8.01845e-06
7.62774e-06
7.36855e-06
7.23569e-06
7.22277e-06
0.00106639
8.34509e-06
4.5307e-06
4.29174e-06
4.03925e-06
3.85822e-06
3.7807e-06
3.78437e-06
3.8545e-06
3.98367e-06
0.00345675
2.65169e-06
1.6797e-06
1.57326e-06
1.53692e-06
1.53232e-06
1.58586e-06
1.66807e-06
1.76234e-06
1.86184e-06
0.00431117
1.1291e-06
6.89404e-07
6.91995e-07
6.75845e-07
6.82624e-07
7.1702e-07
7.5926e-07
8.06719e-07
8.53857e-07
0.00149811
5.74446e-07
2.92873e-07
3.22263e-07
3.19038e-07
3.1058e-07
3.36137e-07
3.51958e-07
3.74838e-07
3.96927e-07
4.0699e-07
1.41084e-07
1.62661e-07
1.38701e-07
1.71978e-07
1.38967e-07
1.67453e-07
1.68358e-07
1.79113e-07
1.9104e-07
1.93562e-07
3.11315e-08
1.0663e-07
1.04595e-08
1.32329e-07
4.82746e-08
8.70363e-08
8.40546e-08
8.9734e-08
9.47034e-08
9.68036e-08
3.58627e-07
8.95778e-08
3.40762e-09
7.27527e-08
2.41089e-08
4.88142e-08
4.52788e-08
4.78771e-08
5.17958e-08
5.17532e-08
1.36072e-07
7.47353e-08
1.70381e-08
5.52577e-08
1.6767e-08
3.05911e-08
2.83452e-08
3.03588e-08
3.22562e-08
3.31565e-08
3.04445e-07
8.0363e-08
4.52575e-08
5.30311e-08
1.28496e-08
2.31079e-08
2.28949e-08
2.20075e-08
2.48472e-08
2.61207e-08
2.43142e-05
6.94051e-06
7.09481e-06
6.68926e-06
6.30714e-06
6.03395e-06
5.88107e-06
5.86242e-06
3.04091e-05
0.000874663
7.26832e-06
3.28783e-06
3.15443e-06
2.95862e-06
2.79745e-06
2.68925e-06
2.6549e-06
2.71514e-06
8.15079e-05
0.00135362
2.11686e-06
1.20038e-06
1.09995e-06
1.05576e-06
1.01193e-06
9.93277e-07
1.01177e-06
1.07532e-06
0.000120443
0.00127438
8.28078e-07
4.53959e-07
4.39472e-07
4.24359e-07
4.09279e-07
4.0357e-07
4.13074e-07
4.44851e-07
4.98143e-07
6.24065e-07
3.59123e-07
1.90353e-07
1.83622e-07
1.83565e-07
1.74175e-07
1.7146e-07
1.7525e-07
1.88826e-07
2.13999e-07
2.73886e-07
1.15925e-07
1.02311e-07
7.78102e-08
8.34529e-08
7.65232e-08
7.62757e-08
7.71172e-08
8.43933e-08
9.55303e-08
1.24004e-07
5.86484e-08
5.62292e-08
2.78066e-08
4.41738e-08
3.40543e-08
3.54183e-08
3.57702e-08
3.84981e-08
4.47018e-08
5.89433e-08
2.80911e-08
4.13404e-08
1.94822e-08
2.0195e-08
1.73439e-08
1.86903e-08
1.76211e-08
1.95614e-08
2.25313e-08
3.06959e-08
5.62101e-08
7.05565e-09
2.1059e-08
1.15194e-08
9.75552e-09
1.13754e-08
1.10155e-08
1.09795e-08
1.36433e-08
1.86606e-08
1.82166e-08
2.15479e-08
4.25679e-09
1.40903e-08
4.58677e-09
7.19365e-09
7.39164e-09
8.61258e-09
9.43754e-09
1.37026e-08
2.38863e-05
6.31959e-06
6.47249e-06
6.11035e-06
5.77791e-06
5.54078e-06
5.41645e-06
5.41283e-06
1.53574e-05
0.000374595
7.20542e-06
3.07097e-06
2.9656e-06
2.78062e-06
2.62776e-06
2.51815e-06
2.46422e-06
2.48212e-06
3.5244e-05
0.00114449
2.04217e-06
1.18162e-06
1.0788e-06
1.02723e-06
9.75622e-07
9.4146e-07
9.35718e-07
9.67486e-07
0.000121895
0.0022898
8.25926e-07
4.72663e-07
4.42078e-07
4.2082e-07
4.00727e-07
3.87628e-07
3.86493e-07
4.04101e-07
0.000113159
0.00210564
3.42842e-07
2.04621e-07
1.8327e-07
1.82008e-07
1.71963e-07
1.66652e-07
1.65811e-07
1.74488e-07
4.51504e-05
0.00156991
1.16364e-07
1.05236e-07
7.8363e-08
8.38848e-08
7.66605e-08
7.5142e-08
7.38996e-08
7.8225e-08
1.07592e-05
0.000986963
5.44609e-08
5.69764e-08
3.02265e-08
4.28652e-08
3.48894e-08
3.49303e-08
3.44803e-08
3.68936e-08
4.18018e-08
0.000414853
1.92571e-09
2.98175e-08
2.00256e-08
1.97679e-08
1.77433e-08
1.75592e-08
1.70807e-08
1.93262e-08
2.1314e-08
0.00015607
6.12251e-08
6.55918e-09
1.88075e-08
1.24156e-08
1.0575e-08
1.11439e-08
1.08762e-08
1.21813e-08
1.3453e-08
1.77491e-08
1.93214e-09
2.75168e-08
3.98794e-09
1.37737e-08
5.79785e-09
8.43603e-09
7.27032e-09
7.54641e-09
8.55873e-09
1.35168e-08
2.29965e-05
5.68972e-06
5.81697e-06
5.49845e-06
5.20891e-06
5.00452e-06
4.89213e-06
4.8783e-06
1.99342e-05
0.000143967
7.01065e-06
2.81138e-06
2.73224e-06
2.56263e-06
2.42707e-06
2.32864e-06
2.27453e-06
2.26555e-06
3.40632e-06
0.000579418
1.99595e-06
1.12014e-06
1.02678e-06
9.76066e-07
9.26889e-07
8.90307e-07
8.72477e-07
8.77987e-07
7.65695e-05
0.00133472
7.8695e-07
4.61534e-07
4.33016e-07
4.1043e-07
3.8984e-07
3.7367e-07
3.66313e-07
3.69963e-07
7.88966e-05
0.00142029
3.20369e-07
2.13347e-07
1.82938e-07
1.78343e-07
1.69739e-07
1.62503e-07
1.59521e-07
1.61477e-07
5.29866e-05
0.0012795
1.10628e-07
1.08482e-07
7.64423e-08
8.18322e-08
7.60145e-08
7.32768e-08
7.17796e-08
7.33196e-08
4.01288e-05
0.00101543
4.50238e-08
6.10283e-08
2.91263e-08
4.05335e-08
3.52862e-08
3.45257e-08
3.35751e-08
3.46398e-08
5.86214e-06
0.000666365
1.80796e-08
2.53924e-08
2.04302e-08
2.02249e-08
1.82401e-08
1.81716e-08
1.73845e-08
1.82058e-08
8.61958e-06
0.000499001
6.36889e-08
5.19545e-09
1.61463e-08
1.37197e-08
1.08575e-08
1.16975e-08
1.14798e-08
1.1822e-08
1.26931e-08
0.000305639
1.44688e-08
3.0286e-08
3.45067e-09
1.23768e-08
5.93173e-09
7.61428e-09
7.38614e-09
8.29871e-09
9.09722e-09
0.000402707
2.16261e-05
5.08873e-06
5.16294e-06
4.85408e-06
4.60336e-06
4.42603e-06
4.33011e-06
4.30943e-06
4.36964e-06
2.50849e-05
6.70395e-06
2.53554e-06
2.47978e-06
2.3231e-06
2.19796e-06
2.11043e-06
2.05881e-06
2.04147e-06
1.54393e-05
0.000223044
1.96514e-06
1.05013e-06
9.61913e-07
9.12571e-07
8.67014e-07
8.31669e-07
8.09781e-07
8.01446e-07
3.51044e-05
0.000718461
7.59792e-07
4.27441e-07
4.09679e-07
3.88602e-07
3.68984e-07
3.54853e-07
3.45018e-07
3.42048e-07
4.1591e-05
0.000847869
2.90687e-07
2.0597e-07
1.79474e-07
1.71748e-07
1.63431e-07
1.5675e-07
1.5275e-07
1.51478e-07
3.68883e-05
0.000863249
1.01144e-07
1.08922e-07
7.75057e-08
7.89771e-08
7.43641e-08
7.16997e-08
6.96318e-08
6.86377e-08
3.51936e-05
0.000779414
3.26348e-08
6.4334e-08
3.00814e-08
3.89892e-08
3.48181e-08
3.35102e-08
3.28386e-08
3.30507e-08
1.93243e-05
0.000593951
2.51364e-08
2.35102e-08
1.94062e-08
1.98834e-08
1.77201e-08
1.76883e-08
1.69566e-08
1.71475e-08
2.61314e-05
0.000524033
6.24282e-08
2.31371e-10
1.20602e-08
1.41715e-08
9.92003e-09
1.1048e-08
1.0672e-08
1.13083e-08
9.54553e-06
0.000446795
2.23838e-08
3.22112e-08
3.07531e-09
1.25929e-08
6.23015e-09
7.42315e-09
7.34362e-09
7.60873e-09
2.60515e-05
0.00052337
1.96e-05
4.53917e-06
4.55819e-06
4.24388e-06
4.0025e-06
3.84024e-06
3.74747e-06
3.71918e-06
3.75114e-06
1.44311e-06
6.25375e-06
2.21772e-06
2.20248e-06
2.06707e-06
1.95535e-06
1.87601e-06
1.8274e-06
1.80877e-06
1.03198e-05
7.14981e-05
1.85699e-06
9.65209e-07
8.76218e-07
8.3082e-07
7.93053e-07
7.61112e-07
7.39108e-07
7.27396e-07
1.35443e-05
0.000378158
7.69876e-07
3.94826e-07
3.81714e-07
3.62934e-07
3.4482e-07
3.30796e-07
3.21184e-07
3.15047e-07
1.64671e-05
0.00049032
2.7321e-07
1.87843e-07
1.70225e-07
1.6224e-07
1.54677e-07
1.47579e-07
1.44284e-07
1.41368e-07
1.75546e-05
0.000542647
9.06814e-08
1.0159e-07
7.60077e-08
7.5564e-08
7.14236e-08
6.86139e-08
6.63958e-08
6.56934e-08
2.0193e-05
0.000536426
1.74023e-08
6.56893e-08
2.97064e-08
3.64758e-08
3.47013e-08
3.27625e-08
3.21053e-08
3.18752e-08
1.5924e-05
0.000441481
2.61027e-08
2.36008e-08
1.80999e-08
1.86322e-08
1.70352e-08
1.74788e-08
1.60592e-08
1.67986e-08
2.56348e-05
0.00043302
5.56791e-08
6.39895e-09
7.50129e-09
1.48144e-08
9.89417e-09
1.07545e-08
1.03512e-08
1.07008e-08
1.94345e-05
0.000408985
2.96747e-08
3.35922e-08
3.72152e-09
1.08934e-08
6.1861e-09
7.34445e-09
6.85154e-09
6.85154e-09
3.31215e-05
0.000468821
1.69181e-05
3.9496e-06
3.96717e-06
3.6711e-06
3.44375e-06
3.29336e-06
3.20254e-06
3.17285e-06
3.19695e-06
3.4019e-06
5.82161e-06
1.8898e-06
1.90715e-06
1.79752e-06
1.70229e-06
1.63366e-06
1.58764e-06
1.56537e-06
2.77438e-06
1.48251e-05
1.69042e-06
8.80768e-07
7.90286e-07
7.42144e-07
7.06209e-07
6.78908e-07
6.58122e-07
6.46712e-07
4.92337e-06
0.000180823
7.41187e-07
3.58177e-07
3.46217e-07
3.29652e-07
3.15081e-07
3.01586e-07
2.92283e-07
2.85135e-07
5.30699e-06
0.000266959
2.79783e-07
1.67085e-07
1.57658e-07
1.50667e-07
1.4289e-07
1.37588e-07
1.32678e-07
1.30243e-07
5.81024e-06
0.000321734
8.79532e-08
8.98021e-08
7.32026e-08
6.96284e-08
6.61573e-08
6.39921e-08
6.24112e-08
6.06929e-08
7.99696e-06
0.000349994
3.14557e-09
6.34499e-08
3.0946e-08
3.38175e-08
3.21374e-08
3.11903e-08
2.92047e-08
2.9724e-08
8.84294e-06
0.000302685
2.2539e-08
2.36173e-08
1.74861e-08
1.84759e-08
1.61114e-08
1.60565e-08
1.61939e-08
1.55341e-08
1.91284e-05
0.000325712
4.24469e-08
1.43968e-08
4.37404e-09
1.42968e-08
9.79784e-09
9.74785e-09
9.87282e-09
1.05727e-08
1.82017e-05
0.000311903
3.65909e-08
3.52381e-08
2.58901e-09
1.01498e-08
6.32361e-09
6.73602e-09
6.23196e-09
7.4921e-09
3.05162e-05
0.000366718
1.41847e-05
3.26045e-06
3.30467e-06
3.06974e-06
2.88335e-06
2.75664e-06
2.67947e-06
2.64614e-06
2.65598e-06
2.81291e-06
5.42231e-06
1.58116e-06
1.6241e-06
1.53583e-06
1.45493e-06
1.39589e-06
1.35506e-06
1.33551e-06
1.32778e-06
3.06216e-07
1.4288e-06
7.72147e-07
6.9391e-07
6.45884e-07
6.16542e-07
5.92517e-07
5.73705e-07
5.6159e-07
1.60669e-06
7.97694e-05
6.88992e-07
3.20919e-07
3.08054e-07
2.92378e-07
2.79534e-07
2.68054e-07
2.59534e-07
2.52995e-07
1.59122e-06
0.000135629
2.81176e-07
1.46747e-07
1.42585e-07
1.35355e-07
1.29111e-07
1.24255e-07
1.20056e-07
1.1666e-07
1.01872e-06
0.000176923
9.68639e-08
7.62307e-08
6.67738e-08
6.48249e-08
6.19494e-08
5.86906e-08
5.66459e-08
1.22792e-05
1.44094e-06
0.000214819
4.30914e-09
5.66565e-08
3.06144e-08
3.06712e-08
2.96488e-08
2.91092e-08
2.81721e-08
2.72065e-08
3.56732e-06
0.000190104
1.9216e-08
2.08309e-08
1.67925e-08
1.68692e-08
1.51822e-08
1.51311e-08
1.46199e-08
1.01737e-05
1.23954e-05
0.000227287
2.24563e-08
2.38399e-08
1.25473e-09
1.28726e-08
9.71255e-09
9.64284e-09
9.08518e-09
9.36401e-09
1.3625e-05
0.000214206
4.56327e-08
3.70397e-08
2.38554e-09
8.58368e-09
6.26204e-09
6.60283e-09
6.32594e-09
4.82614e-06
2.4399e-05
0.000264464
1.28491e-05
2.68662e-06
2.70296e-06
2.47895e-06
2.31924e-06
2.21307e-06
2.15755e-06
2.13099e-06
2.13378e-06
2.22885e-06
4.94048e-06
1.26464e-06
1.34014e-06
1.27296e-06
1.20836e-06
1.15784e-06
1.12621e-06
1.10957e-06
1.1058e-06
1.04593e-06
1.22036e-06
6.65304e-07
5.98346e-07
5.51466e-07
5.23856e-07
5.03564e-07
4.87906e-07
4.77166e-07
1.22986e-07
3.1674e-05
6.04534e-07
2.80279e-07
2.69052e-07
2.53548e-07
2.42123e-07
2.33114e-07
2.25134e-07
2.18402e-07
4.5801e-07
6.42716e-05
2.65284e-07
1.30176e-07
1.24371e-07
1.19653e-07
1.1412e-07
1.09164e-07
1.06109e-07
1.02918e-07
3.96942e-07
9.10247e-05
1.07248e-07
6.31742e-08
5.98477e-08
5.74122e-08
5.4353e-08
5.27194e-08
5.09968e-08
1.76001e-05
1.33881e-06
0.000125577
2.91256e-09
4.64921e-08
2.99123e-08
2.7853e-08
2.6797e-08
2.58201e-08
2.51337e-08
2.43153e-08
8.19565e-07
0.000108958
2.0943e-08
1.67752e-08
1.56822e-08
1.62524e-08
1.39476e-08
1.36863e-08
1.33536e-08
1.90124e-05
7.3778e-06
0.000150101
1.48168e-09
3.18828e-08
6.48024e-11
1.12972e-08
8.79152e-09
8.55391e-09
8.46751e-09
8.57551e-09
8.81619e-06
0.000136378
5.47634e-08
3.62749e-08
1.98007e-11
6.07882e-09
6.09862e-09
5.30659e-09
5.82141e-09
1.01694e-05
1.79093e-05
0.000180304
1.11887e-05
2.43461e-06
2.44773e-06
2.21061e-06
2.01635e-06
1.88295e-06
1.80314e-06
1.76564e-06
1.76745e-06
1.85247e-06
4.5183e-06
9.73515e-07
1.0942e-06
1.05058e-06
9.88922e-07
9.46345e-07
9.16056e-07
8.97971e-07
8.87699e-07
8.24506e-07
9.90611e-07
5.44117e-07
5.05019e-07
4.61394e-07
4.34114e-07
4.17945e-07
4.0394e-07
3.95149e-07
3.87926e-07
1.08324e-05
5.21022e-07
2.34732e-07
2.29025e-07
2.14704e-07
2.04709e-07
1.96315e-07
1.89229e-07
1.84608e-07
4.47117e-08
2.73732e-05
2.32163e-07
1.13316e-07
1.07068e-07
1.02272e-07
9.79802e-08
9.40673e-08
9.01229e-08
8.79455e-08
5.55537e-07
4.39736e-05
1.10192e-07
5.35657e-08
5.10531e-08
5.00038e-08
4.76017e-08
4.55032e-08
4.40398e-08
1.68716e-05
2.25741e-06
7.13225e-05
4.40705e-09
3.75021e-08
2.71694e-08
2.45187e-08
2.36597e-08
2.29725e-08
2.16226e-08
2.16472e-08
2.042e-07
5.66476e-05
2.90969e-08
1.02493e-08
1.41369e-08
1.44683e-08
1.20385e-08
1.25244e-08
9.16315e-07
2.11627e-05
4.05716e-06
9.61917e-05
2.74885e-08
3.78122e-08
5.22102e-10
9.438e-09
8.43396e-09
7.5504e-09
7.89178e-09
7.65081e-09
4.88107e-06
7.99313e-05
6.03531e-08
3.28573e-08
2.55864e-09
4.98842e-09
5.33816e-09
5.50383e-09
4.9332e-09
1.12198e-05
1.23739e-05
0.000117753
4.92596e-06
1.31487e-06
1.4697e-06
1.43075e-06
1.36331e-06
1.30137e-06
1.25229e-06
1.21794e-06
1.19009e-06
1.18238e-06
4.21201e-06
6.29259e-07
8.36633e-07
8.3517e-07
7.88736e-07
7.4854e-07
7.22897e-07
7.09524e-07
7.01669e-07
6.48148e-07
8.25797e-07
4.10693e-07
4.11309e-07
3.7638e-07
3.5219e-07
3.35269e-07
3.24365e-07
3.16419e-07
3.08944e-07
3.37442e-06
4.48987e-07
1.88166e-07
1.88953e-07
1.77248e-07
1.67597e-07
1.61009e-07
1.55738e-07
1.51152e-07
1.45676e-07
8.9407e-06
1.90896e-07
9.55742e-08
9.01765e-08
8.50722e-08
8.16986e-08
7.88824e-08
7.51569e-08
7.31621e-08
3.62085e-07
1.97417e-05
1.03198e-07
4.44832e-08
4.34821e-08
4.21217e-08
4.05816e-08
3.87335e-08
1.21455e-06
1.43103e-05
2.35923e-06
3.98232e-05
1.10051e-08
2.86344e-08
2.35236e-08
2.12876e-08
2.01468e-08
1.95536e-08
1.89147e-08
1.77511e-08
2.44066e-07
2.53844e-05
4.26981e-08
5.03099e-09
1.05343e-08
1.27726e-08
1.08218e-08
1.02057e-08
1.64401e-05
2.02943e-05
1.98457e-06
6.09725e-05
5.26115e-08
4.1368e-08
7.65383e-10
6.83244e-09
6.96312e-09
6.62709e-09
6.44042e-09
6.23507e-09
2.07465e-06
4.15707e-05
5.75672e-08
2.44876e-08
5.39035e-09
4.27805e-09
4.50051e-09
4.26094e-09
4.67164e-09
1.0154e-05
8.17428e-06
7.43373e-05
1.30498e-05
1.70939e-06
1.78429e-06
1.73694e-06
1.68861e-06
1.65696e-06
1.64994e-06
1.67702e-06
1.73803e-06
1.85953e-06
4.31421e-06
1.98366e-07
5.42006e-07
6.35211e-07
6.25953e-07
6.05097e-07
5.83383e-07
5.70712e-07
5.55392e-07
4.91812e-07
7.54088e-07
2.6382e-07
3.11487e-07
2.96807e-07
2.78481e-07
2.65557e-07
2.55707e-07
2.48587e-07
3.80669e-07
2.24294e-06
3.87755e-07
1.37589e-07
1.49854e-07
1.4155e-07
1.33883e-07
1.28013e-07
1.23272e-07
1.18881e-07
1.16225e-07
8.05641e-08
1.49792e-07
7.85134e-08
7.25683e-08
6.92958e-08
6.61323e-08
6.26416e-08
6.08963e-08
5.87964e-08
1.76935e-07
8.27687e-06
8.76236e-08
3.775e-08
3.52922e-08
3.44093e-08
3.26196e-08
3.15697e-08
8.89914e-06
1.17108e-05
2.16595e-06
2.21855e-05
1.33474e-08
2.19744e-08
2.01715e-08
1.78807e-08
1.64172e-08
1.60778e-08
1.60778e-08
1.51233e-08
1.51445e-08
8.04503e-06
2.98161e-06
1.41264e-09
7.02503e-09
1.12248e-08
9.75486e-09
1.57321e-05
2.42298e-05
1.84394e-05
7.41427e-07
3.89679e-05
7.4857e-08
4.12686e-08
1.99575e-09
5.58809e-09
6.24755e-09
5.8137e-09
5.11952e-09
5.83105e-09
2.89748e-07
1.69357e-05
4.27636e-08
1.38719e-08
6.47461e-09
3.08618e-09
3.88158e-09
3.97703e-09
1.9669e-06
8.33146e-06
5.22957e-06
4.57165e-05
5.35926e-06
1.27427e-06
1.66162e-06
1.83011e-06
1.87563e-06
1.9235e-06
1.96899e-06
1.95742e-06
1.86576e-06
1.67352e-06
6.03823e-06
8.31202e-08
2.69592e-07
4.00716e-07
4.0828e-07
3.83457e-07
3.66155e-07
3.65955e-07
3.83946e-07
3.80694e-07
5.85002e-05
6.66521e-06
9.3687e-06
7.11242e-06
5.83743e-06
4.89037e-06
3.71603e-06
1.48309e-06
1.75712e-06
3.97972e-06
3.53932e-07
8.98121e-08
1.11507e-07
1.09659e-07
1.0324e-07
9.83156e-08
9.39234e-08
9.05959e-08
8.64698e-08
7.31838e-08
1.12034e-07
6.15043e-08
5.63071e-08
5.41015e-08
5.09578e-08
4.91832e-08
4.72818e-08
4.4924e-08
1.10358e-07
3.56735e-06
9.76928e-06
3.11673e-08
2.75514e-08
2.68416e-08
2.59099e-08
7.38454e-06
1.1931e-05
9.61341e-06
1.92345e-06
1.25937e-05
1.1994e-08
1.54197e-08
1.59916e-08
1.44535e-08
1.34479e-08
1.28958e-08
1.20282e-08
1.20282e-08
1.16535e-08
1.118e-08
5.02213e-05
4.5678e-05
4.1098e-05
3.65122e-05
3.47332e-05
3.23342e-05
2.7582e-05
1.65889e-05
2.66198e-09
2.57239e-05
9.25263e-08
3.80582e-08
4.77542e-09
4.13009e-09
4.72702e-09
4.42049e-09
4.64636e-09
4.43663e-09
4.46889e-09
2.04196e-06
1.67268e-08
3.8155e-09
5.6493e-09
3.34226e-09
3.03169e-09
3.15e-09
5.08816e-06
6.38466e-06
3.25432e-06
2.74718e-05
7.4659e-05
1.26393e-05
1.21449e-05
1.13538e-05
1.11221e-05
1.07428e-05
9.93265e-06
8.70851e-06
7.18474e-06
5.43372e-06
4.68517e-06
7.23592e-07
2.17131e-07
1.12845e-07
2.70584e-07
3.23274e-07
3.19871e-07
3.00424e-07
3.01641e-07
3.15814e-07
0.000201251
0.000127712
6.97066e-05
3.98021e-05
2.24163e-05
1.2598e-05
6.47277e-06
1.53048e-06
3.81407e-06
7.10241e-06
3.37916e-07
4.42278e-08
7.32914e-08
7.79932e-08
7.68934e-08
7.29889e-08
7.07205e-08
6.79571e-08
6.54274e-08
5.47289e-08
7.67188e-08
4.67358e-08
4.17394e-08
4.00896e-08
3.81099e-08
3.66958e-08
3.54231e-08
1.67382e-07
1.48928e-07
2.10974e-06
3.93724e-05
3.00211e-05
1.96676e-05
1.57409e-05
1.50365e-05
1.43055e-05
1.2347e-05
7.94574e-06
1.71171e-06
7.40254e-06
7.18434e-09
1.11452e-08
1.16951e-08
1.19334e-08
9.73369e-09
9.84367e-09
9.42206e-09
9.40373e-09
8.74382e-09
8.04028e-09
0.000219174
4.34983e-05
7.99344e-05
7.01327e-05
5.46534e-05
4.07545e-05
2.86893e-05
1.51872e-05
4.78732e-07
1.80468e-05
1.03387e-07
2.9981e-08
5.80422e-09
3.20957e-09
3.80949e-09
3.7045e-09
3.13458e-09
3.23956e-09
3.31455e-09
3.7426e-09
1.29367e-08
2.47467e-09
3.91822e-09
2.90086e-09
2.32344e-09
2.2547e-09
5.26895e-06
4.37998e-06
1.90706e-06
1.57216e-05
0.000289848
2.45943e-05
3.29902e-05
3.57375e-05
3.32858e-05
2.80595e-05
2.19022e-05
1.57755e-05
9.96644e-06
4.3461e-06
1.56159e-05
1.40871e-06
8.92206e-07
6.68766e-07
6.25554e-07
6.06863e-07
5.27379e-07
3.34115e-07
1.96504e-08
5.83585e-07
0.000341397
0.000241333
0.000117223
6.10774e-05
3.07477e-05
1.49657e-05
6.14872e-06
2.46464e-08
6.742e-06
1.12867e-05
3.30832e-07
1.3931e-08
4.13074e-08
4.98066e-08
5.00111e-08
4.85158e-08
4.78767e-08
4.80045e-08
4.62919e-08
3.75916e-08
1.83195e-05
3.40918e-08
2.90744e-08
2.05033e-07
1.59322e-06
2.41366e-06
2.46624e-06
1.63016e-06
2.31346e-07
1.84989e-06
3.98137e-05
4.50323e-05
3.52079e-05
2.63135e-05
1.99966e-05
1.5153e-05
1.09243e-05
6.33938e-06
1.49169e-06
4.4083e-06
3.08559e-09
6.93569e-09
7.92407e-09
7.99224e-09
7.7707e-09
7.0209e-09
7.0209e-09
6.54375e-09
6.21997e-09
5.4685e-09
0.000486685
1.65033e-05
8.40214e-05
8.30542e-05
6.35284e-05
4.44315e-05
2.8764e-05
1.43138e-05
8.40202e-07
1.37391e-05
1.00238e-07
2.06909e-08
5.93957e-09
2.52362e-09
2.62122e-09
2.30054e-09
2.78853e-09
2.38419e-09
2.53756e-09
2.41435e-09
3.44012e-08
4.93337e-09
1.62316e-09
2.21107e-09
1.75096e-09
3.63101e-08
2.91266e-06
2.17978e-06
9.12419e-07
7.57653e-06
0.000724438
0.000143211
0.00013066
9.66304e-05
6.6611e-05
4.36003e-05
2.65954e-05
1.38381e-05
3.57641e-06
5.71122e-06
1.38359e-05
2.40337e-06
2.67311e-06
2.78577e-06
2.44659e-06
1.75092e-06
8.09626e-07
3.40689e-07
1.76538e-06
3.4607e-06
0.000489223
0.000365128
0.000159192
7.48465e-05
3.29586e-05
1.30935e-05
3.20865e-06
3.11571e-06
1.05486e-05
1.64621e-05
3.21488e-07
5.94072e-10
2.21589e-08
2.83016e-08
2.77788e-08
2.52124e-08
2.21827e-08
2.00559e-08
2.02698e-08
2.2806e-08
5.89021e-05
3.53693e-05
2.04343e-05
1.31766e-05
8.93809e-06
6.15555e-06
4.02895e-06
2.09391e-06
2.744e-07
1.63275e-06
2.92189e-05
3.71553e-05
3.07066e-05
2.2864e-05
1.65949e-05
1.17774e-05
7.92368e-06
4.42198e-06
1.15839e-06
2.40995e-06
3.41994e-10
3.96048e-09
5.22784e-09
5.27536e-09
4.94268e-09
4.911e-09
4.65753e-09
4.21395e-09
3.84959e-09
3.85886e-09
0.00083434
0.000119403
6.16333e-05
7.95968e-05
6.316e-05
4.36531e-05
2.73268e-05
1.33473e-05
1.12977e-06
1.09765e-05
8.32301e-08
1.21839e-08
4.06994e-09
2.56639e-09
2.03497e-09
1.50354e-09
2.04793e-09
1.7887e-09
1.7887e-09
1.47363e-09
4.0154e-08
3.50503e-09
5.94072e-10
1.23567e-09
1.42577e-09
1.53271e-09
9.8616e-10
2.60905e-07
2.44889e-07
2.14917e-06
0.00385414
7.9271e-05
5.96535e-05
3.24887e-05
1.39394e-05
2.70437e-06
4.14846e-06
8.88253e-06
1.31024e-05
1.77635e-05
2.78645e-05
1.75843e-05
1.31902e-05
9.08485e-06
5.53137e-06
2.60053e-06
1.1215e-07
2.22016e-06
4.72244e-06
7.37765e-06
0.000555407
0.000459699
0.000178329
7.48611e-05
2.78574e-05
7.83976e-06
7.27261e-07
5.60284e-06
1.20015e-05
1.84506e-05
2.44275e-07
5.41225e-10
1.27685e-08
1.70652e-08
1.54967e-08
1.0935e-08
3.98739e-09
3.91008e-09
1.2172e-08
2.97026e-08
5.05474e-05
3.42722e-05
1.93658e-05
1.20493e-05
7.73426e-06
4.98657e-06
3.06079e-06
1.53347e-06
2.24115e-07
1.05435e-06
1.65212e-05
1.99992e-05
1.69675e-05
1.2678e-05
9.0847e-06
6.29869e-06
4.12394e-06
2.28587e-06
6.73511e-07
1.0036e-06
7.36476e-10
2.29745e-09
2.63617e-09
3.28417e-09
2.96017e-09
2.85708e-09
2.4889e-09
2.44472e-09
2.76872e-09
1.8799e-09
0.00106776
0.000215525
2.05458e-05
5.77048e-05
4.97667e-05
3.49439e-05
2.17354e-05
1.06706e-05
1.18235e-06
7.88099e-06
5.92924e-08
6.44651e-09
2.75935e-09
1.3616e-09
8.91666e-10
1.09651e-09
1.25315e-09
9.63964e-10
1.20495e-09
1.12816e-09
1.26437e-06
7.91713e-07
2.09863e-10
6.95861e-10
4.30771e-10
4.95652e-07
8.04504e-07
3.80758e-07
2.01579e-07
1.24678e-06
0.00285363
0.000618308
0.000427619
0.00029041
0.000203107
0.000139672
8.98328e-05
5.00065e-05
7.57194e-06
2.69986e-05
1.65033e-05
1.08747e-05
5.27614e-06
1.23878e-06
1.09096e-06
2.41397e-06
3.28454e-06
4.04914e-06
4.8872e-06
5.41728e-06
0.000288243
0.000372418
0.000124866
4.61591e-05
1.33181e-05
8.0766e-07
3.78318e-06
6.19178e-06
9.88863e-06
1.46118e-05
1.51865e-07
1.30817e-08
7.43418e-09
1.98998e-08
2.85867e-08
3.52097e-08
4.10112e-08
4.46051e-08
4.71208e-08
4.60678e-08
2.06186e-05
1.52867e-05
8.38078e-06
5.05891e-06
3.14313e-06
1.96194e-06
1.17223e-06
5.85517e-07
9.76243e-08
3.85797e-07
6.21476e-06
5.83909e-06
4.94927e-06
3.69558e-06
2.63025e-06
1.80193e-06
1.16474e-06
6.48776e-07
2.15186e-07
2.33303e-07
2.25489e-09
2.73819e-10
1.13635e-09
1.19111e-09
1.77982e-09
6.57165e-10
1.36909e-09
1.06789e-09
1.34171e-09
9.33909e-10
0.00071395
0.000178244
8.17562e-06
2.39335e-05
2.35898e-05
1.71012e-05
1.07118e-05
5.32817e-06
7.24894e-07
3.6357e-06
4.25852e-08
1.85948e-09
5.26479e-10
7.84118e-10
6.16093e-10
1.90429e-10
6.72101e-10
3.69656e-10
4.03261e-10
1.11098e-10
9.1238e-05
0.000129192
8.54022e-05
5.0539e-05
2.88909e-05
1.62689e-05
8.7079e-06
3.49548e-06
8.32279e-07
5.54669e-06
0.00534609
0.000680688
0.000508809
0.00038376
0.000288057
0.000212955
0.000152746
0.000103577
6.20129e-05
2.81116e-05
1.23181e-05
2.43795e-05
1.69455e-05
1.12129e-05
7.29575e-06
4.67033e-06
2.83378e-06
1.38822e-06
4.43445e-08
1.86762e-06
9.71471e-05
8.36839e-05
1.97822e-05
5.58642e-06
2.99464e-07
1.23215e-06
1.54432e-06
1.68255e-06
2.22415e-06
3.47141e-06
4.32243e-08
2.23465e-08
1.12066e-08
3.93282e-09
2.91144e-09
8.42884e-09
1.48722e-08
1.94446e-08
2.41029e-08
2.93053e-08
1.697e-06
1.78797e-06
9.3923e-07
5.5029e-07
3.31814e-07
2.00558e-07
1.17968e-07
5.84523e-08
1.07021e-08
4.41338e-08
7.86835e-07
4.52752e-07
3.7002e-07
2.72682e-07
1.90522e-07
1.27736e-07
8.10429e-08
4.58909e-08
1.69961e-08
1.51776e-08
1.59913e-09
8.14565e-10
8.90931e-11
2.03641e-10
6.10924e-10
1.52731e-10
8.27293e-10
3.56372e-10
2.80007e-10
4.45466e-10
5.29761e-05
2.8259e-05
2.4574e-06
2.70534e-06
2.99058e-06
2.22823e-06
1.40804e-06
7.07633e-07
1.08111e-07
4.75421e-07
1.54e-08
3.95712e-10
5.20674e-11
1.66616e-10
3.85299e-10
2.91577e-10
2.49924e-10
3.43645e-10
3.12404e-11
5.31087e-10
0.000264498
0.00016003
9.49065e-05
5.42016e-05
3.05064e-05
1.69528e-05
8.90805e-06
3.57677e-06
7.76914e-07
5.36287e-06
0.526016
0.418968
0.530154
0.919624
0.686124
0.623863
0.739198
1.11566
0.849568
0.791479
0.937831
1.44122
0.616635
0.593179
0.702745
1.09974
0.450491
0.449056
0.533212
0.863271
0.298403
0.294916
0.365813
0.622495
0.198627
0.189607
0.253257
0.45499
0.128198
0.118225
0.169397
0.315525
0.0885267
0.0808717
0.122093
0.230959
0.0666902
0.0615594
0.0993467
0.188036
0.0358375
0.00179766
1.4193e-05
0.0190189
0.0785149
0.00652203
1.05677e-05
0.0409473
0.136614
0.0152022
5.71929e-06
0.0704186
0.12498
0.0170206
2.94646e-06
0.0603776
0.110285
0.0169899
1.5232e-06
0.0489174
0.0853331
0.0142364
7.83065e-07
0.0375734
0.0644138
0.011062
4.13754e-07
0.030523
0.0464363
0.00833664
2.37976e-07
0.0231933
0.0357213
0.00714166
0.00104043
0.0184301
0.0300979
0.00824377
0.00382066
0.0154998
0.0171125
0.0134535
0.0141313
0.0196844
0.0387173
0.0266654
0.0261768
0.0408113
0.0749434
0.0486873
0.0492563
0.0796681
0.0710508
0.0430722
0.0446853
0.0749942
0.0650949
0.0370609
0.0395664
0.0699561
0.0519857
0.0280384
0.0306776
0.0566899
0.0404113
0.0206539
0.0232319
0.0452012
0.0299312
0.0145377
0.0166883
0.0336739
0.0234795
0.0104538
0.0123925
0.0259845
0.020073
0.0085042
0.0105685
0.0215257
0.0019271
0.00139148
0.00134016
0.00195212
0.00609566
0.0041748
0.00386377
0.00631566
0.0162352
0.0110086
0.0104772
0.0165943
0.0190437
0.0125546
0.0123942
0.0189692
0.0207143
0.0131688
0.0136024
0.0207292
0.0189487
0.0116297
0.0124458
0.0190381
0.0164211
0.00967159
0.010689
0.0167367
0.0133848
0.00760335
0.00860448
0.0136681
0.0111875
0.00583554
0.0069137
0.011235
0.00993925
0.00508119
0.00648089
0.0100746
0.000613622
0.000571877
0.000601644
0.000819427
0.00226811
0.00210424
0.00236552
0.00340805
0.00609242
0.00574222
0.00640315
0.00889231
0.00729282
0.00654781
0.00705821
0.00959965
0.00837933
0.00713405
0.00763202
0.0103481
0.00813545
0.00655883
0.00704025
0.00951415
0.007455
0.00568224
0.00617874
0.00841223
0.00648619
0.0046926
0.00517392
0.00704936
0.00583446
0.00387356
0.0044585
0.00604576
0.0055864
0.00369023
0.00456121
0.00582608
0.000114454
0.000105832
0.000105697
0.000165051
0.000767132
0.000722145
0.000846157
0.00123493
0.00245441
0.00248851
0.00298612
0.00410883
0.00301927
0.00305288
0.00354269
0.00471734
0.00358382
0.00354997
0.00403774
0.00531266
0.00361416
0.00344884
0.00386824
0.00503545
0.00342445
0.00313008
0.00349254
0.00451878
0.00315338
0.00273721
0.00304599
0.00389797
0.00305416
0.00244007
0.00279329
0.00347037
0.00302822
0.00238157
0.00289261
0.00336841
1.17968e-05
1.04952e-05
5.89354e-06
2.47005e-05
0.00027129
0.000251803
0.000301226
0.000460121
0.00117346
0.00119796
0.00148028
0.00206827
0.00149179
0.00157098
0.00189604
0.00252746
0.00179904
0.00191336
0.00227562
0.0029766
0.00184278
0.00193162
0.0022603
0.00291511
0.00174869
0.00179559
0.00207848
0.00264649
0.00166962
0.00164255
0.00187382
0.00235146
0.00169572
0.0015555
0.00178875
0.0021388
0.001694
0.00153236
0.00182958
0.00205662
1.19056e-05
4.28561e-06
4.12726e-06
4.22812e-06
7.53725e-05
6.331e-05
7.554e-05
0.000129453
0.000536306
0.000529106
0.000659753
0.000947161
0.000755248
0.000795466
0.000972245
0.00130431
0.000954739
0.00103523
0.00125497
0.00164666
0.00102078
0.00110779
0.001326
0.00171291
0.000971303
0.00105434
0.00125073
0.00158562
0.000959427
0.00101056
0.00117658
0.00146869
0.000961751
0.000966053
0.00111374
0.00131124
0.000975999
0.000979252
0.00115416
0.00128482
9.76666e-06
3.39752e-06
3.27408e-06
3.39043e-06
1.20156e-05
6.14445e-06
5.98493e-06
2.01192e-05
0.000232705
0.000210104
0.000261889
0.000400888
0.000376934
0.000390889
0.000479404
0.000649252
0.000503485
0.000548157
0.000670036
0.000883503
0.000577584
0.000635086
0.000767672
0.000995712
0.000554136
0.000618788
0.000742723
0.000939207
0.000574577
0.000627498
0.000738678
0.000921585
0.000548071
0.000583909
0.00067286
0.000789231
0.000579437
0.000624056
0.000727883
0.000809833
7.47248e-06
2.49363e-06
2.40183e-06
2.48375e-06
2.30058e-06
9.16353e-07
8.86542e-07
9.8449e-07
8.76558e-05
6.05113e-05
7.36262e-05
0.00013829
0.000181559
0.000181912
0.000222576
0.000305787
0.000256199
0.000276682
0.000339737
0.000451772
0.000321494
0.000353867
0.000429867
0.000561555
0.00030721
0.000349114
0.000421519
0.000531403
0.000343606
0.000382252
0.000452651
0.000566657
0.000313608
0.000346235
0.00039876
0.000468287
0.000349995
0.000393655
0.000455655
0.000507877
6.26804e-06
2.06619e-06
1.98681e-06
2.05499e-06
1.9247e-06
6.81373e-07
6.65269e-07
7.41097e-07
2.22151e-05
2.8503e-07
2.75688e-07
2.17484e-05
8.32305e-05
7.85337e-05
9.51146e-05
0.000133321
0.000125181
0.000132402
0.000163072
0.000220076
0.000176877
0.000192978
0.000235211
0.000310957
0.000163242
0.000187845
0.000227754
0.000285671
0.000204612
0.000228842
0.000272205
0.000343507
0.000177273
0.000199536
0.000229784
0.000270362
0.000212074
0.00024431
0.000281734
0.00031433
3.13207e-06
9.30744e-07
9.36821e-07
1.05665e-06
1.40901e-06
4.78201e-07
4.64512e-07
5.17742e-07
5.70613e-07
2.1322e-07
2.08941e-07
2.31353e-07
3.47878e-05
2.94773e-05
3.46953e-05
4.97814e-05
5.73805e-05
5.83523e-05
7.20002e-05
9.96809e-05
9.62052e-05
0.000103131
0.000125996
0.000169584
8.11894e-05
9.47309e-05
0.000115276
0.000142935
0.000121864
0.000135516
0.000161896
0.000207152
9.56179e-05
0.000108657
0.000125088
0.000147192
0.000127258
0.000148334
0.000171166
0.000190667
7.65624e-06
2.15429e-06
1.85491e-06
1.78008e-06
1.09233e-06
3.62712e-07
3.66228e-07