/*--------------------------------*- C++ -*----------------------------------*\
| =========                 |                                                 |
| \\      /  F ield         | foam-extend: Open Source CFD                    |
|  \\    /   O peration     | Version:     4.0                                |
|   \\  /    A nd           | Web:         http://www.foam-extend.org         |
|    \\/     M anipulation  |                                                 |
\*---------------------------------------------------------------------------*/
FoamFile
{
    version     2.0;
    format      ascii;
    class       volScalarField;
    location    "3200";
    object      divFlux;
}
// * * * * * * * * * * * * * * * * * * * * * * * * * * * * * * * * * * * * * //

dimensions      [1 -3 -1 0 0 0 0];

internalField   nonuniform List<scalar> 
34480
(
0.0572763
0.0182794
0.0186998
0.0172784
0.0157032
0.0141987
0.0127916
0.0115152
0.0104124
0.0094816
0.0147176
0.00744396
0.00750599
0.00726605
0.00703989
0.00676346
0.00638227
0.00591754
0.00542851
0.00496478
0.00342322
0.00225386
0.00230174
0.00233945
0.00241042
0.00246893
0.00245618
0.00235527
0.00219334
0.00200551
0.000951661
0.000711915
0.00073069
0.000754679
0.000793881
0.000834575
0.000852039
0.000832183
0.000779399
0.00070621
0.000261665
0.000213856
0.000222079
0.000232398
0.000247524
0.000263838
0.000272797
0.000268074
0.000249299
0.000220598
5.68665e-05
5.16256e-05
5.62877e-05
6.11637e-05
6.68918e-05
7.24136e-05
7.51091e-05
7.29397e-05
6.54974e-05
5.51402e-05
3.71524e-06
5.53583e-08
3.23068e-06
5.96803e-06
8.26327e-06
9.77204e-06
9.93882e-06
8.4366e-06
5.28659e-06
1.46166e-06
2.14276e-05
1.59969e-05
1.33215e-05
1.13123e-05
1.01276e-05
9.8797e-06
1.04466e-05
1.16039e-05
1.3064e-05
1.4629e-05
3.14988e-05
2.47007e-05
2.14894e-05
1.89612e-05
1.7334e-05
1.66318e-05
1.66665e-05
1.72277e-05
1.79494e-05
1.88035e-05
3.38866e-05
2.73016e-05
2.40394e-05
2.13721e-05
1.93742e-05
1.81107e-05
1.75847e-05
1.77465e-05
1.83102e-05
1.92336e-05
0.0741543
0.0212013
0.0216464
0.0202585
0.0187016
0.017322
0.0161522
0.0152403
0.0146752
0.0154829
0.0207577
0.00955792
0.00965142
0.00936634
0.00907768
0.0088459
0.00863945
0.00843185
0.00825097
0.00881679
0.00519274
0.00318865
0.00326135
0.00331576
0.00341675
0.00352058
0.00359902
0.00362643
0.00359576
0.00384326
0.00157903
0.00112006
0.00114728
0.00117991
0.0012397
0.00130496
0.00135827
0.00138457
0.00137173
0.00144746
0.000468542
0.000368313
0.000380029
0.000394681
0.000417426
0.000443808
0.000464548
0.000472943
0.00046168
0.000473406
0.000103799
9.29599e-05
0.000100731
0.000108196
0.000116383
0.000124487
0.000129161
0.000128001
0.000118459
0.000111863
1.70324e-05
6.23945e-06
2.89524e-07
5.04697e-06
8.04585e-06
8.98365e-06
7.39501e-06
2.8229e-06
4.44112e-06
1.38064e-05
5.92645e-05
4.3424e-05
3.68159e-05
3.26656e-05
3.1066e-05
3.23599e-05
3.58916e-05
4.13361e-05
4.68094e-05
5.53567e-05
9.38103e-05
7.18931e-05
6.27891e-05
5.62027e-05
5.23431e-05
5.16065e-05
5.35671e-05
5.78884e-05
6.19609e-05
6.96961e-05
0.000107497
8.43477e-05
7.46632e-05
6.71528e-05
6.18192e-05
5.93707e-05
5.96081e-05
6.23943e-05
6.59445e-05
7.40685e-05
0.0747439
0.0183025
0.0190326
0.0180438
0.0169546
0.0160439
0.0153623
0.0149723
0.0150423
0.0239614
0.0202294
0.00789687
0.00806107
0.00776839
0.007511
0.00738513
0.00737459
0.00746627
0.00773449
0.00728872
0.00477206
0.0025122
0.00256232
0.00256064
0.0025909
0.00267011
0.00279753
0.00295349
0.003151
0.000263553
0.00138072
0.000849027
0.000862745
0.000869678
0.000893251
0.000932821
0.000993007
0.00106594
0.00114977
0.00133526
0.00039457
0.000271798
0.000277304
0.000281245
0.000290847
0.00030539
0.000326447
0.00035175
0.000378076
0.000433114
8.95931e-05
7.01259e-05
7.43571e-05
7.76548e-05
8.16602e-05
8.63864e-05
9.19334e-05
9.74495e-05
0.000100697
0.00010674
4.27293e-06
1.56132e-06
5.45817e-06
8.52897e-06
1.07424e-05
1.19982e-05
1.20995e-05
1.04616e-05
5.80316e-06
3.93129e-06
3.28511e-05
2.14257e-05
1.7573e-05
1.45229e-05
1.27033e-05
1.24397e-05
1.39706e-05
1.78799e-05
2.48801e-05
3.905e-05
4.81288e-05
3.3205e-05
2.9034e-05
2.54855e-05
2.31386e-05
2.2365e-05
2.35052e-05
2.72871e-05
3.45857e-05
5.08242e-05
4.73618e-05
3.30293e-05
2.94329e-05
2.64144e-05
2.44164e-05
2.3715e-05
2.44427e-05
2.7372e-05
3.43029e-05
5.33153e-05
0.0756037
0.0166369
0.0174718
0.0167749
0.0159615
0.0152945
0.0148285
0.0133273
0.00452587
0.0127478
0.0208567
0.00747328
0.00765089
0.00735474
0.00707456
0.00690425
0.006859
0.00694729
0.00612633
0.00591471
0.00495529
0.00243385
0.00247817
0.0024477
0.00243894
0.0024761
0.00256661
0.00270861
0.00290317
0.00176716
0.00145367
0.000844832
0.00085663
0.000854899
0.000863197
0.000886839
0.000931577
0.00099687
0.001081
0.000211572
0.000421902
0.000277516
0.000282533
0.00028417
0.000289736
0.000299114
0.000315261
0.000338087
0.000365812
0.000469838
9.84786e-05
7.3868e-05
7.79991e-05
8.08471e-05
8.40036e-05
8.75239e-05
9.19986e-05
9.72253e-05
0.000101834
0.000224307
2.28426e-06
2.95505e-06
6.86727e-06
9.94878e-06
1.21622e-05
1.34427e-05
1.36524e-05
1.23393e-05
8.55212e-06
1.08129e-06
3.30464e-05
2.1222e-05
1.73712e-05
1.42555e-05
1.22878e-05
1.17022e-05
1.28634e-05
1.64005e-05
2.3025e-05
3.48271e-05
4.80578e-05
3.2959e-05
2.89771e-05
2.55735e-05
2.32736e-05
2.23582e-05
2.32988e-05
2.68995e-05
3.41919e-05
4.84799e-05
4.68529e-05
3.26058e-05
2.92134e-05
2.63928e-05
2.45642e-05
2.39252e-05
2.47622e-05
2.78641e-05
3.49471e-05
5.21099e-05
0.0748004
0.0148103
0.015716
0.0152452
0.014624
0.0141015
0.0118276
0.00819636
0.00356387
0.00481045
0.0210337
0.00691789
0.00712656
0.00686744
0.00659518
0.00639294
0.00627978
0.00626936
0.00379154
0.00274548
0.00508727
0.0023231
0.00236658
0.00231825
0.00228156
0.00227865
0.00231636
0.00239904
0.00241623
0.000607389
0.00151661
0.000829111
0.000840674
0.000831929
0.000828849
0.000837198
0.000861327
0.000903242
0.000961222
0.000465484
0.000446499
0.000279299
0.000284263
0.000284463
0.000286276
0.000290931
0.00030052
0.000315862
0.000336115
0.000587588
0.000106378
7.64362e-05
8.05805e-05
8.30787e-05
8.54826e-05
8.78313e-05
9.07646e-05
9.44059e-05
9.81342e-05
0.000449651
6.62149e-07
4.19536e-06
8.06716e-06
1.11143e-05
1.32769e-05
1.45314e-05
1.48016e-05
1.38241e-05
1.1061e-05
0.000250152
3.32813e-05
2.07631e-05
1.70305e-05
1.39579e-05
1.19417e-05
1.11195e-05
1.18167e-05
1.45312e-05
1.98126e-05
0.000125004
4.78461e-05
3.2214e-05
2.84879e-05
2.53031e-05
2.31347e-05
2.21665e-05
2.28236e-05
2.57924e-05
3.19694e-05
5.50903e-07
4.63092e-05
3.16838e-05
2.85293e-05
2.59142e-05
2.42305e-05
2.36369e-05
2.44688e-05
2.74076e-05
3.37513e-05
4.82035e-05
0.0724261
0.0128927
0.0138142
0.0135102
0.012884
0.0113035
0.00944371
0.00755947
0.00533719
0.00167286
0.0206523
0.00624027
0.0064748
0.00626796
0.00603045
0.0058345
0.00569369
0.00520326
0.00341873
2.46102e-05
0.0051518
0.00217966
0.00222475
0.00216765
0.00211422
0.00208347
0.00207984
0.00210652
0.00204773
0.00038919
0.00156435
0.000801573
0.00081347
0.000799632
0.000788194
0.000784555
0.000791499
0.000810585
0.00087001
0.000686603
0.000467095
0.00027692
0.000282184
0.000280839
0.000279842
0.000280638
0.000284613
0.000292483
0.000303385
0.000606288
0.000113331
7.78702e-05
8.20487e-05
8.42571e-05
8.59142e-05
8.7284e-05
8.8854e-05
9.08165e-05
9.28371e-05
0.000466608
9.03259e-07
5.3666e-06
9.15449e-06
1.21204e-05
1.42023e-05
1.54079e-05
1.57197e-05
1.50293e-05
1.30998e-05
0.000307444
3.32909e-05
2.00186e-05
1.64647e-05
1.34871e-05
1.14629e-05
1.04738e-05
1.07618e-05
1.2643e-05
1.64211e-05
0.000224367
4.73675e-05
3.10967e-05
2.7645e-05
2.46774e-05
2.26404e-05
2.16628e-05
2.20809e-05
2.4379e-05
2.91586e-05
0.000143225
4.56319e-05
3.04434e-05
2.75346e-05
2.51082e-05
2.35388e-05
2.29656e-05
2.37081e-05
2.62939e-05
3.15854e-05
0.000108731
0.0683324
0.0105557
0.0113625
0.0109309
0.0100646
0.00922337
0.00816897
0.00724457
0.00607455
0.00443192
0.0197413
0.00548456
0.0057302
0.00557366
0.00537838
0.00520915
0.00505775
0.00456229
0.00345793
0.00160097
0.00512414
0.00200499
0.00205409
0.00199759
0.00193912
0.00189498
0.00186799
0.00185974
0.00181298
0.000852724
0.00158904
0.000761218
0.000774353
0.000758261
0.000742253
0.000731157
0.000726659
0.000729562
0.000859365
0.000733725
0.000481391
0.000269755
0.000275458
0.000273174
0.000270398
0.000268553
0.000268542
0.0002708
0.000274231
0.000548922
0.00011895
7.79514e-05
8.21868e-05
8.41132e-05
8.52302e-05
8.5895e-05
8.6456e-05
8.70904e-05
8.75157e-05
0.000410383
2.55048e-06
6.46929e-06
1.01322e-05
1.29785e-05
1.49616e-05
1.61143e-05
1.64583e-05
1.59803e-05
1.46046e-05
0.000275348
3.28582e-05
1.89318e-05
1.55994e-05
1.27544e-05
1.0763e-05
9.67258e-06
9.64891e-06
1.08557e-05
1.33988e-05
0.000215778
4.64497e-05
2.959e-05
2.64168e-05
2.36571e-05
2.17416e-05
2.07741e-05
2.1006e-05
2.2739e-05
2.62977e-05
0.000156942
4.466e-05
2.8884e-05
2.62198e-05
2.3969e-05
2.24917e-05
2.19146e-05
2.25114e-05
2.46569e-05
2.888e-05
0.000131267
0.0627904
0.00798653
0.00886234
0.00877131
0.0082772
0.00783163
0.00720131
0.006762
0.00605836
0.00535483
0.0184173
0.00470665
0.00494784
0.00483186
0.00467381
0.00453283
0.00438061
0.00404641
0.00341227
0.00242646
0.00497388
0.00180108
0.00185421
0.00180495
0.00175034
0.00170502
0.00167103
0.00168571
0.0016201
0.00104854
0.00158004
0.000706898
0.000721815
0.000706192
0.000689334
0.00067553
0.00066578
0.00066043
0.000790292
0.000693507
0.000486519
0.000257188
0.000263419
0.000260888
0.000257432
0.000254345
0.000252188
0.000251187
0.000291892
0.000463578
0.000122646
7.64448e-05
8.06993e-05
8.24261e-05
8.32511e-05
8.35275e-05
8.35017e-05
8.33039e-05
8.7062e-05
0.000335285
4.31239e-06
7.45517e-06
1.09451e-05
1.36346e-05
1.55088e-05
1.66138e-05
1.69899e-05
1.66678e-05
1.56326e-05
0.000219771
3.18366e-05
1.74876e-05
1.44075e-05
1.17384e-05
9.81704e-06
8.69136e-06
8.4554e-06
9.17431e-06
1.08424e-05
0.000176703
4.4956e-05
2.76748e-05
2.4783e-05
2.22282e-05
2.04287e-05
1.94793e-05
1.95591e-05
2.08417e-05
2.34736e-05
0.000125858
4.32581e-05
2.69869e-05
2.45658e-05
2.24832e-05
2.10864e-05
2.04929e-05
2.0916e-05
2.26043e-05
2.58702e-05
0.000105485
0.0575999
0.00635595
0.00716002
0.00721852
0.00691397
0.00666908
0.00625527
0.0060506
0.00556198
0.00528933
0.016817
0.00395388
0.00417892
0.00409387
0.00396619
0.00386193
0.0037261
0.00350279
0.00313757
0.00259987
0.00469827
0.00157586
0.00163043
0.00159016
0.00154294
0.00150227
0.00146999
0.0014972
0.00142899
0.00109455
0.00153083
0.000639323
0.000655562
0.000641801
0.000626228
0.000612752
0.000602044
0.000594261
0.000690891
0.000623003
0.000480218
0.000239099
0.000245692
0.000243326
0.000239913
0.000236622
0.000233801
0.00023156
0.000279667
0.000377816
0.000123828
7.32145e-05
7.73855e-05
7.89515e-05
7.96403e-05
7.9783e-05
7.95458e-05
7.90134e-05
0.000115337
0.000263531
6.13262e-06
8.25033e-06
1.15112e-05
1.39986e-05
1.57438e-05
1.68012e-05
1.72123e-05
1.70222e-05
1.62227e-05
0.00016538
3.01529e-05
1.57203e-05
1.29179e-05
1.04538e-05
8.64841e-06
7.54311e-06
7.18035e-06
7.57257e-06
5.55406e-06
0.000135362
4.28037e-05
2.53707e-05
2.27599e-05
2.04178e-05
1.87349e-05
1.78096e-05
1.77575e-05
1.86746e-05
2.06166e-05
8.59171e-05
4.13301e-05
2.47548e-05
2.25767e-05
2.06635e-05
1.93464e-05
1.87365e-05
1.89836e-05
2.02442e-05
2.27015e-05
7.26738e-05
0.0523844
0.00516691
0.00584393
0.00595792
0.00575153
0.00560909
0.00531035
0.00522176
0.00484586
0.00477223
0.0150581
0.00325703
0.00345847
0.0033967
0.00330966
0.00322302
0.00310606
0.00295455
0.00273725
0.00242614
0.00432362
0.0013432
0.00139579
0.00136353
0.00132362
0.0012885
0.00126001
0.0012835
0.00122654
0.00103115
0.00144344
0.000562182
0.000578671
0.000566979
0.000553227
0.000541059
0.000531019
0.000523206
0.00058239
0.000539892
0.000461924
0.000216247
0.00022284
0.000220713
0.000217565
0.000214466
0.00021166
0.0002092
0.000242972
0.000300496
0.000122112
6.83099e-05
7.22491e-05
7.36232e-05
7.42065e-05
7.43049e-05
7.40364e-05
7.34585e-05
0.000113257
0.000200239
7.8899e-06
8.77668e-06
1.1747e-05
1.3984e-05
1.5565e-05
1.65495e-05
1.69791e-05
1.68967e-05
1.62831e-05
0.000116811
2.78186e-05
1.37074e-05
1.12035e-05
8.97305e-06
7.3224e-06
6.27779e-06
5.85244e-06
6.03561e-06
9.12283e-06
9.79641e-05
3.99678e-05
2.27338e-05
2.0408e-05
1.82814e-05
1.67314e-05
1.58419e-05
1.56777e-05
1.62922e-05
1.76971e-05
5.14484e-05
3.88243e-05
2.22241e-05
2.02877e-05
1.85482e-05
1.73241e-05
1.67107e-05
1.68002e-05
1.76901e-05
1.90143e-05
4.46206e-05
0.0470814
0.00420222
0.00474182
0.00486873
0.00471767
0.00463015
0.00439763
0.00437008
0.00405991
0.00407654
0.0132288
0.00267943
0.00281521
0.00278457
0.00271295
0.00262828
0.0025351
0.0024311
0.00229767
0.00210456
0.00388249
0.00111636
0.00116428
0.00113864
0.00110519
0.00107517
0.00107817
0.00106811
0.00102218
0.00090217
0.00132515
0.000480566
0.000496264
0.000486437
0.000474423
0.000463617
0.000454523
0.000447216
0.000478267
0.000451767
0.000432592
0.000190036
0.000196258
0.000194317
0.000191413
0.000188537
0.000185875
0.000183464
0.000201992
0.000235176
0.000117375
6.19635e-05
6.55317e-05
6.6662e-05
6.71024e-05
6.71359e-05
6.68532e-05
6.62945e-05
9.96232e-05
0.000148868
9.41999e-06
8.97227e-06
1.15955e-05
1.35412e-05
1.49201e-05
1.57942e-05
1.62036e-05
1.61872e-05
1.57108e-05
7.72026e-05
2.4923e-05
1.15586e-05
9.37049e-06
7.39916e-06
5.92954e-06
4.97531e-06
4.53321e-06
4.58326e-06
1.36894e-05
6.76076e-05
3.64814e-05
1.98534e-05
1.78159e-05
1.592e-05
1.45215e-05
1.36802e-05
1.34338e-05
1.38024e-05
1.47806e-05
2.65063e-05
3.57373e-05
1.94614e-05
1.7769e-05
1.62138e-05
1.51008e-05
1.44991e-05
1.44657e-05
1.50541e-05
1.30354e-05
2.43016e-05
0.041644
0.00336347
0.00377423
0.0038973
0.00378394
0.00373093
0.00354427
0.00355698
0.00329205
0.00335383
0.0113889
0.00215576
0.00225763
0.00222392
0.0021606
0.0020907
0.0020209
0.00194999
0.00186663
0.00173835
0.0034014
0.000904362
0.000945913
0.000925693
0.000899909
0.000897571
0.000887576
0.000865307
0.000828141
0.000748726
0.00118402
0.000399058
0.000413195
0.000405026
0.000394656
0.000385185
0.00037709
0.000370441
0.000382766
0.000365549
0.000393897
0.000162023
0.000167595
0.000165804
0.000163122
0.000160452
0.000157951
0.000155647
0.000163978
0.00018158
0.000109712
5.45161e-05
5.76133e-05
5.84753e-05
5.87462e-05
5.8683e-05
5.83601e-05
5.78068e-05
8.37535e-05
0.000109655
1.05484e-05
8.79603e-06
1.10363e-05
1.26651e-05
1.38159e-05
1.45499e-05
1.49036e-05
1.49101e-05
1.45272e-05
4.79745e-05
2.16177e-05
9.39573e-06
7.53474e-06
5.84099e-06
4.57048e-06
3.7288e-06
3.30336e-06
3.27007e-06
1.44641e-05
4.55513e-05
3.24368e-05
1.68415e-05
1.50971e-05
1.3446e-05
1.22144e-05
1.14436e-05
1.11464e-05
1.13315e-05
1.19771e-05
1.004e-05
3.21161e-05
1.65619e-05
1.51146e-05
1.37563e-05
1.27704e-05
1.22034e-05
1.2084e-05
1.24424e-05
9.94454e-06
1.11557e-05
0.0363683
0.00265125
0.00294534
0.0030504
0.00295614
0.00291495
0.00275072
0.00278136
0.00253417
0.00260793
0.00957966
0.00164093
0.00173003
0.00170741
0.00166309
0.00161341
0.00156609
0.00152085
0.00147072
0.00138293
0.00293144
0.00074831
0.000782832
0.000767992
0.000748267
0.000728372
0.000707106
0.000682248
0.000651733
0.000594816
0.00102724
0.000321073
0.000333159
0.000326498
0.000317742
0.000309633
0.000302624
0.00029677
0.000297143
0.000285739
0.000347737
0.000133626
0.000138372
0.000136744
0.000134308
0.000131876
0.000129582
0.000127447
0.000130548
0.000137983
9.93582e-05
4.63545e-05
4.89277e-05
4.95308e-05
4.96387e-05
4.94805e-05
4.9115e-05
5.10096e-05
6.85939e-05
8.02686e-05
1.112e-05
8.23998e-06
1.00825e-05
1.13918e-05
1.23085e-05
1.28895e-05
1.31673e-05
1.31698e-05
1.28519e-05
2.77704e-05
1.80919e-05
7.33634e-06
5.8044e-06
4.39657e-06
3.3359e-06
2.62159e-06
2.23725e-06
2.43598e-06
1.4137e-05
3.07377e-05
2.79781e-05
1.38245e-05
1.2371e-05
1.09756e-05
9.92416e-06
9.24205e-06
8.93264e-06
8.98984e-06
9.38935e-06
4.80297e-08
2.80556e-05
1.36368e-05
1.24339e-05
1.12813e-05
1.04362e-05
9.92393e-06
9.758e-06
9.9524e-06
7.90357e-06
3.57748e-06
0.0306021
0.00202568
0.00224279
0.00236105
0.00231732
0.00231519
0.002198
0.00226847
0.00204854
0.00214421
0.0078276
0.00120969
0.00129714
0.00127985
0.00124018
0.00119952
0.00116371
0.00113365
0.00110468
0.0010421
0.00240393
0.000588788
0.000624791
0.000612988
0.000591468
0.000568543
0.000545465
0.000521846
0.000496424
0.000452848
0.000861196
0.00024902
0.000258803
0.000253529
0.000246373
0.000239664
0.000233812
0.000228864
0.000223211
0.000214604
0.000296131
0.000106055
0.000109889
0.000108459
0.000106326
0.000104189
0.000102167
0.000100275
0.000101809
0.000102699
8.66895e-05
3.78793e-05
3.99182e-05
4.02985e-05
4.02767e-05
4.00494e-05
3.9665e-05
4.85806e-05
5.49241e-05
5.81909e-05
1.10225e-05
7.33596e-06
8.78805e-06
9.79365e-06
1.04875e-05
1.09194e-05
1.11177e-05
1.11062e-05
1.08361e-05
1.44138e-05
1.4548e-05
5.47999e-06
4.26574e-06
3.14059e-06
2.29091e-06
1.71155e-06
2.62591e-06
8.82614e-06
1.36563e-05
2.12656e-05
2.32865e-05
1.09266e-05
9.75586e-06
8.61805e-06
7.75432e-06
7.1777e-06
6.88428e-06
6.86536e-06
7.09247e-06
5.32277e-06
2.36969e-05
1.08018e-05
9.83675e-06
8.89555e-06
8.19789e-06
7.75857e-06
7.58008e-06
7.66581e-06
6.22955e-06
2.0905e-07
0.0250325
0.00129442
0.00134144
0.00137451
0.00129866
0.00127105
0.00115911
0.00124648
0.00103587
0.0011574
0.00615902
0.000880705
0.000949492
0.000943374
0.000919958
0.000894599
0.000871689
0.000852104
0.000833537
0.000801525
0.0018593
0.000419111
0.000467014
0.000465098
0.000448821
0.000428368
0.000406872
0.00038536
0.000363341
0.000327677
0.00069217
0.000184683
0.000192117
0.000188105
0.000182508
0.000177198
0.00017253
0.000168546
0.000163955
0.000153292
0.000241302
8.03454e-05
8.32616e-05
8.20691e-05
8.02929e-05
7.85095e-05
7.68168e-05
7.52267e-05
7.7363e-05
7.43249e-05
7.22472e-05
2.94974e-05
3.10264e-05
3.1236e-05
3.11305e-05
3.28125e-05
3.94382e-05
4.22022e-05
4.27603e-05
4.14464e-05
1.02173e-05
6.15404e-06
7.24345e-06
7.97659e-06
8.47275e-06
8.77252e-06
8.90027e-06
8.87236e-06
8.64512e-06
7.75719e-06
0.000194861
6.68267e-05
2.17527e-05
1.25849e-05
1.1283e-05
1.17417e-05
1.2603e-05
1.25814e-05
1.33385e-05
1.54901e-05
1.85675e-05
8.26065e-06
7.3541e-06
6.46677e-06
5.78925e-06
5.32691e-06
5.07368e-06
5.01633e-06
5.13299e-06
5.40578e-06
1.92161e-05
8.1656e-06
7.42825e-06
6.69354e-06
6.14604e-06
5.79081e-06
5.62475e-06
5.65379e-06
4.8016e-06
1.80855e-06
0.0264952
0.00206765
0.00224088
0.00230698
0.00223147
0.00214678
0.00196859
0.00192436
0.00163275
0.00165462
0.00450643
0.000549325
0.000579863
0.000562342
0.000536623
0.000513667
0.000496176
0.000483985
0.000474637
0.000462871
0.00131897
0.000254237
0.000325182
0.000337267
0.000329711
0.000314178
0.000295696
0.000276705
0.000257511
0.000227674
0.000526111
0.000129149
0.00013439
0.000131549
0.000127467
0.000123536
0.000120037
0.000117007
0.000113468
0.000103718
0.000185745
5.73571e-05
5.94086e-05
5.84832e-05
5.71046e-05
5.63741e-05
5.76313e-05
5.75798e-05
5.65021e-05
5.16282e-05
0.000124695
5.95164e-05
4.40273e-05
3.87509e-05
3.70959e-05
3.63466e-05
3.5451e-05
3.37009e-05
3.1755e-05
2.85035e-05
8.76131e-06
4.80308e-06
5.57057e-06
6.07346e-06
6.40616e-06
6.59835e-06
6.66924e-06
6.63165e-06
6.44517e-06
5.70268e-06
0.000626553
0.000273637
0.000120259
6.14746e-05
3.65461e-05
2.48277e-05
1.88574e-05
1.48969e-05
1.32286e-05
1.21597e-05
1.40282e-05
5.91398e-06
5.24753e-06
4.59162e-06
4.09054e-06
3.744e-06
3.54236e-06
3.47704e-06
3.52735e-06
3.64696e-06
1.4812e-05
5.82124e-06
5.29123e-06
4.75346e-06
4.34963e-06
4.08168e-06
3.94563e-06
3.97929e-06
3.63904e-06
2.42731e-06
0.0172055
0.00188629
0.0019218
0.0016688
0.00136306
0.00106292
0.000786189
0.000537177
0.000431146
0.000112096
0.00356453
0.000577516
0.000617659
0.000614418
0.000593726
0.000565007
0.000532978
0.000500105
0.000466351
0.000433731
0.000830096
8.91433e-05
0.000197216
0.000224873
0.000226634
0.000216216
0.000200734
0.000183951
0.000166865
0.000142177
0.000371466
8.36081e-05
8.68806e-05
8.49686e-05
8.22041e-05
7.95212e-05
7.71215e-05
7.50218e-05
7.251e-05
6.54472e-05
0.000146441
5.19442e-05
5.15692e-05
4.92583e-05
4.69801e-05
4.48773e-05
4.28299e-05
4.06744e-05
3.83702e-05
3.347e-05
0.000135379
7.45604e-05
5.22605e-05
4.08171e-05
3.42463e-05
2.99239e-05
2.66981e-05
2.38602e-05
2.14992e-05
1.82069e-05
6.81624e-06
3.41511e-06
3.9137e-06
4.23195e-06
4.43637e-06
4.54833e-06
4.57984e-06
4.54143e-06
4.39613e-06
3.81776e-06
0.00106763
0.000467851
0.000203663
9.86081e-05
5.36301e-05
3.26883e-05
2.20991e-05
1.58573e-05
1.28082e-05
1.00634e-05
9.86134e-06
3.93966e-06
3.48572e-06
3.03514e-06
2.69195e-06
2.45226e-06
2.30877e-06
2.25195e-06
2.26831e-06
2.30227e-06
1.06832e-05
3.83985e-06
3.48645e-06
3.12544e-06
2.85216e-06
2.66875e-06
2.57063e-06
2.55392e-06
2.59409e-06
2.48623e-06
0.10673
0.00397164
0.00397361
0.00346227
0.00290093
0.00239555
0.00196539
0.00160517
0.00119633
0.00105487
0.000965507
0.000262209
0.000222166
0.000178063
0.000129469
7.91743e-05
2.94769e-05
1.84817e-05
6.4254e-05
0.000103169
0.000353158
6.71312e-05
9.85837e-05
0.000147142
0.000160159
0.000154785
0.000140956
0.000123992
0.000105565
8.10995e-05
0.000232399
4.79575e-05
4.9621e-05
4.85242e-05
4.69627e-05
4.54481e-05
4.40983e-05
4.29386e-05
4.15226e-05
3.71625e-05
9.9038e-05
3.704e-05
3.63426e-05
3.37541e-05
3.11038e-05
2.86996e-05
2.65555e-05
2.45994e-05
2.26784e-05
1.91154e-05
8.98726e-05
5.13364e-05
3.56266e-05
2.69949e-05
2.17416e-05
1.82447e-05
1.57334e-05
1.37494e-05
1.21777e-05
1.00005e-05
4.6363e-06
2.12697e-06
2.41322e-06
2.59353e-06
2.70441e-06
2.76153e-06
2.77039e-06
2.7365e-06
2.63393e-06
2.22892e-06
0.00131069
0.000566769
0.000238159
0.000109851
5.61831e-05
3.20161e-05
2.02089e-05
1.37463e-05
1.04861e-05
7.56981e-06
6.23876e-06
2.35737e-06
2.08224e-06
1.80842e-06
1.59877e-06
1.45218e-06
1.36262e-06
1.32411e-06
1.32578e-06
1.32055e-06
6.98752e-06
2.26004e-06
2.0462e-06
1.83207e-06
1.67055e-06
1.56178e-06
1.50266e-06
1.59667e-06
1.49351e-06
1.5072e-06
0.131349
0.00190318
0.00165977
0.0013569
0.00107286
0.0008256
0.000610296
0.000396344
0.000410058
0.00014673
0.00193209
0.00071683
0.000630517
0.00052808
0.000432661
0.000349338
0.000277702
0.000215508
0.000159384
0.00010942
0.000184213
0.000167276
3.21962e-07
4.79724e-05
6.71563e-05
7.13075e-05
6.881e-05
6.39897e-05
5.83841e-05
5.00074e-05
0.000120459
2.27924e-05
2.33116e-05
2.25962e-05
2.16282e-05
2.06454e-05
1.96975e-05
1.87764e-05
1.76204e-05
1.49005e-05
5.02893e-05
1.67876e-05
1.6513e-05
1.53743e-05
1.41771e-05
1.30794e-05
1.2107e-05
1.12401e-05
1.03559e-05
8.5959e-06
3.37623e-05
1.89886e-05
1.35463e-05
1.0471e-05
8.53218e-06
7.23095e-06
6.30384e-06
5.59364e-06
5.01646e-06
4.10013e-06
2.52486e-06
1.05218e-06
1.18188e-06
1.26415e-06
1.31289e-06
1.33558e-06
1.33423e-06
1.31143e-06
1.25093e-06
1.0117e-06
0.000859864
0.000386987
0.000156863
6.96422e-05
3.39162e-05
1.82855e-05
1.08919e-05
7.05339e-06
5.10542e-06
3.52477e-06
3.30816e-06
1.16043e-06
1.02605e-06
8.91911e-07
7.90374e-07
7.19613e-07
6.76277e-07
6.56447e-07
6.55687e-07
6.39308e-07
9.19665e-05
8.8448e-05
5.9751e-05
3.49517e-05
1.94689e-05
1.05159e-05
5.49424e-06
2.68128e-06
9.08467e-07
3.35469e-07
0.0261368
0.000581047
0.000525217
0.000418308
0.000314293
0.000223205
0.000146611
7.47469e-05
2.24804e-07
8.44789e-05
0.00019111
8.20398e-05
6.56785e-05
4.70906e-05
2.90495e-05
1.22062e-05
3.53232e-06
1.85428e-05
3.3174e-05
4.6485e-05
0.000159102
4.16489e-05
8.80542e-06
1.81115e-05
2.06197e-05
1.94789e-05
1.6803e-05
1.3529e-05
9.87559e-06
5.52413e-06
3.52617e-05
7.22188e-06
7.32957e-06
7.18979e-06
7.01653e-06
6.85572e-06
6.71884e-06
6.60621e-06
6.40413e-06
5.51947e-06
1.39623e-05
4.07893e-06
4.03573e-06
3.84767e-06
3.6403e-06
3.44111e-06
3.25424e-06
3.08016e-06
2.86508e-06
2.32016e-06
5.2841e-06
2.59802e-06
2.15655e-06
1.89213e-06
1.70492e-06
1.56762e-06
1.46065e-06
1.36941e-06
1.27179e-06
1.02284e-06
7.7594e-07
3.29031e-07
3.67373e-07
3.93241e-07
4.07791e-07
4.1351e-07
4.12168e-07
4.023e-07
3.78524e-07
2.85941e-07
7.40822e-05
5.69523e-05
2.305e-05
1.02272e-05
4.79305e-06
2.39809e-06
1.27056e-06
6.95047e-07
3.90715e-07
1.8939e-07
1.09922e-06
4.01869e-07
3.51541e-07
3.08355e-07
2.75598e-07
2.53207e-07
2.39524e-07
2.34328e-07
2.33421e-07
2.19984e-07
0.00020687
0.000121217
7.26421e-05
4.15165e-05
2.31239e-05
1.27508e-05
7.03558e-06
3.86454e-06
1.94912e-06
5.84669e-07
1.24718
1.26201
1.45592
1.88489
0.945452
0.999368
1.19599
1.76535
0.52202
0.505648
0.705349
1.16334
0.218812
0.185829
0.329772
0.584233
0.0622581
0.0479778
0.106661
0.195723
0.00233031
9.94099e-05
0.00191882
0.00395588
0.0251195
0.01415
0.0354541
0.0784186
0.031348
0.0171536
0.0458027
0.108043
0.031996
0.0167215
0.0485449
0.121266
0.0290688
0.0143457
0.0475047
0.12522
0.110232
0.028387
0.0170716
0.0670366
0.122698
0.0353835
0.0170042
0.0479569
0.0837983
0.0245066
0.0093961
0.0286662
0.0426742
0.0117431
0.000853551
0.0217198
0.0142547
0.00309064
0.00125108
0.00998045
0.00143546
0.000216944
0.000235741
6.50883e-05
0.00869976
0.000453175
0.000102553
9.71851e-06
0.0117574
0.00017976
0.000238232
0.000238283
0.0134611
0.000271657
0.000309417
0.000307918
0.013759
0.000342809
0.000406636
0.000401437
0.111443
0.106928
0.103719
0.133027
0.0935655
0.0848265
0.0814421
0.115189
0.0572996
0.0496546
0.0500298
0.0718446
0.0268823
0.022453
0.0251499
0.0368641
0.00826453
0.0070678
0.0091576
0.0142045
0.00142513
7.08348e-05
0.000607049
0.00154756
0.00626618
0.00344009
0.00364889
0.00510401
0.00859117
0.0048992
0.00530112
0.00769165
0.0102985
0.0056649
0.00600011
0.0087725
0.0121799
0.00637311
0.00667914
0.00871125
0.0234275
0.030043
0.0321939
0.0354465
0.0220339
0.023768
0.0260114
0.0333005
0.0151093
0.0151217
0.0174068
0.0236042
0.00746301
0.00735588
0.00887315
0.0130684
0.00217421
0.00241881
0.00311666
0.00519838
0.000928961
0.000132922
0.000205455
0.000704461
0.00262031
0.00132954
0.00100955
0.00143619
0.00352883
0.00182625
0.00132974
0.00223926
0.00413373
0.00190365
0.00113335
0.00236701
0.00425866
0.00145647
0.000476996
0.00187009
0.00629442
0.0113818
0.0126306
0.0142435
0.00714375
0.0105349
0.0129664
0.0169402
0.00495327
0.00697866
0.00889111
0.0120842
0.00228293
0.00352433
0.00463355
0.00666249
0.000440119
0.0011649
0.00167697
0.00268088
0.000690668
0.000134391
0.00014516
0.000467615
0.00138134
0.000840046
0.000599099
0.000698134
0.00182139
0.00120481
0.000878334
0.00120985
0.00218238
0.00137098
0.000861668
0.00136545
0.00233399
0.0013186
0.000660808
0.00129027
0.00306623
0.000200163
0.00103516
0.00201765
0.00053668
0.0034733
0.00512756
0.00725136
0.000990114
0.0027609
0.00400981
0.00578206
0.000337612
0.00146576
0.00222949
0.00332373
0.000165921
0.000464836
0.000834476
0.00137921
0.000508985
0.000126316
7.41085e-05
0.000274412
0.000746152
0.000474814
0.00031775
0.000327967
0.000925399
0.000673566
0.0004753
0.000602447
0.00108443
0.000775888
0.000458087
0.000683019
0.00105418
0.000713873
0.000333844
0.000684134
0.00621821
0.00400716
0.00349345
0.00289209
0.00237322
3.51182e-05
0.000954211
0.00204193
0.000484529
0.000908778
0.00165365
0.0026046
0.000334927
0.000547076
0.00103759
0.00160409
0.000341583
0.000149838
0.000405318
0.000691299
0.000393146
0.000113471
3.13414e-05
0.000151433
0.00045783
0.0002933
0.000190131
0.000169743
0.000529703
0.000411437
0.000295652
0.000330468
0.000596887
0.00048053
0.000293197
0.000380732
0.000517308
0.000432142
0.00023541
0.0004141
0.00700844
0.00540923
0.00511426
0.00476822
0.00363867
0.00173264
0.00126331
0.000751523
0.00115969
5.72117e-05
0.000354573
0.000843766
0.000606176
7.48878e-05
0.000365093
0.000641559
0.000386076
1.02081e-05
0.000152976
0.000297814
0.000310119
0.000101155
1.74429e-06
6.72586e-05
0.000296574
0.000183944
0.000115367
9.15329e-05
0.00031612
0.00024976
0.000179778
0.000180671
0.000330176
0.000287701
0.00017703
0.0002087
0.00024231
0.00024575
0.000150954
0.000246879
0.00667216
0.00545708
0.00529276
0.00509508
0.00382607
0.00230718
0.00207136
0.00186356
0.00141314
0.000522008
0.000304968
6.79992e-05
0.000705089
0.000163729
1.02238e-06
0.000119898
0.000384805
9.00046e-05
8.78162e-06
7.87224e-05
0.000250849
9.04364e-05
2.39502e-05
1.48835e-05
0.000201201
0.000119859
7.34618e-05
5.39369e-05
0.000195768
0.000154941
0.000110619
0.000101576
0.000177924
0.000166931
0.000100941
0.000110919
0.000103402
0.000134043
9.01054e-05
0.000144134
0.00587815
0.00493049
0.00484014
0.00472659
0.00349986
0.00228207
0.0021639
0.00211166
0.00139807
0.000678261
0.000567552
0.000461873
0.000698379
0.000265694
0.000179553
0.000140829
0.000357846
0.000124706
6.85595e-05
3.9899e-05
0.000204133
7.98547e-05
3.72845e-05
1.69794e-05
0.000138409
7.90722e-05
4.80631e-05
3.43677e-05
0.000120889
9.54222e-05
6.63632e-05
5.63986e-05
8.8313e-05
9.0352e-05
5.02787e-05
5.2034e-05
3.07164e-05
6.6546e-05
4.6507e-05
7.85978e-05
0.00493619
0.00418745
0.00413723
0.00407148
0.00297999
0.00200946
0.00195197
0.00197836
0.00123582
0.000659083
0.000602269
0.000558214
0.000624715
0.000280961
0.000237118
0.000237409
0.000312168
0.000128822
9.85393e-05
9.11812e-05
0.000163771
6.8017e-05
4.19256e-05
3.27944e-05
9.46033e-05
5.17606e-05
3.19423e-05
2.3393e-05
7.25787e-05
5.7072e-05
3.81752e-05
2.99838e-05
3.78639e-05
4.47195e-05
2.00949e-05
1.88122e-05
5.86624e-06
2.74586e-05
1.82431e-05
3.79136e-05
0.00401866
0.00342806
0.00340113
0.00336831
0.00241888
0.00165765
0.00163228
0.00169763
0.00101785
0.000563989
0.000534218
0.000517081
0.00052068
0.000251592
0.000230171
0.000246223
0.000257635
0.000115153
9.94695e-05
0.000101457
0.00012828
5.53561e-05
3.98963e-05
3.68429e-05
6.3835e-05
3.3441e-05
2.1535e-05
1.68716e-05
4.21319e-05
3.29652e-05
2.11152e-05
1.52368e-05
1.07485e-05
1.87869e-05
3.69126e-06
1.55894e-06
2.1983e-05
6.28001e-06
1.92759e-06
1.40455e-05
0.00309062
0.00263028
0.00261359
0.00260569
0.00189631
0.00131327
0.001306
0.00139094
0.000793768
0.000446287
0.000430085
0.000423409
0.000410239
0.000204913
0.000195317
0.000215947
0.000202382
9.39025e-05
8.61025e-05
9.1127e-05
9.76048e-05
4.30294e-05
3.41022e-05
3.38869e-05
4.23706e-05
2.13351e-05
1.47212e-05
1.26749e-05
2.38086e-05
1.85744e-05
1.14941e-05
7.75727e-06
2.74637e-06
4.84859e-06
4.23332e-06
6.30681e-06
2.64454e-05
3.82706e-06
5.97947e-06
1.36426e-06
0.00255606
0.00216958
0.00215206
0.0021508
0.00137293
0.000978605
0.000980888
0.00100134