/*--------------------------------*- C++ -*----------------------------------*\
| =========                 |                                                 |
| \\      /  F ield         | foam-extend: Open Source CFD                    |
|  \\    /   O peration     | Version:     4.0                                |
|   \\  /    A nd           | Web:         http://www.foam-extend.org         |
|    \\/     M anipulation  |                                                 |
\*---------------------------------------------------------------------------*/
FoamFile
{
    version     2.0;
    format      ascii;
    class       surfaceScalarField;
    location    "3200";
    object      phi;
}
// * * * * * * * * * * * * * * * * * * * * * * * * * * * * * * * * * * * * * //

dimensions      [1 0 -1 0 0 0 0];

internalField   nonuniform List<scalar> 
97302
(
-0.000109159
5.3319e-06
-0.00061471
0.000631516
-0.000133909
5.79797e-06
-0.000618302
0.000637254
-0.000162523
6.22113e-06
-0.000621115
0.000643508
-0.000196839
6.63524e-06
-0.000623149
0.00065083
-0.000239382
7.05909e-06
-0.000624257
0.00065974
-0.000293226
7.47633e-06
-0.000623702
0.00067007
-0.000361121
7.79436e-06
-0.000619434
0.000679535
-0.00044235
7.78828e-06
-0.000606795
0.000680235
-0.000532908
7.05863e-06
-0.000575101
0.000658601
4.5861e-06
-0.000491038
-0.000669236
0.00062278
-0.000137843
7.91679e-06
-0.000859743
0.000875227
-0.0001581
8.81092e-06
-0.00086552
0.000882764
-0.000181384
9.47948e-06
-0.000870275
0.0008903
-0.000209471
9.98748e-06
-0.000873842
0.000898577
-0.000245386
1.03791e-05
-0.000876511
0.000909105
-0.00029353
1.06555e-05
-0.000878131
0.000923095
-0.000359412
1.0728e-05
-0.00087687
0.000939819
-0.000446172
1.03272e-05
-0.000867451
0.000951672
-0.000549438
8.84878e-06
-0.000836515
0.000937991
4.59676e-06
-0.000726328
-0.000721815
0.000898694
-0.000168266
8.43869e-06
-0.00110358
0.0011182
-0.000185284
9.69504e-06
-0.00111156
0.0011277
-0.000204954
1.06179e-05
-0.00111852
0.00113705
-0.000228894
1.12818e-05
-0.00112432
0.00114697
-0.000260228
1.17312e-05
-0.00112925
0.00115923
-0.00030416
1.19826e-05
-0.00113379
0.0011764
-0.000367982
1.19592e-05
-0.00113686
0.00119945
-0.000457887
1.13576e-05
-0.00113287
0.00122174
-0.000569509
9.375e-06
-0.00110629
0.00121739
3.59177e-06
-0.000974926
-0.000767607
0.00117403
-0.000199694
8.52681e-06
-0.00134391
0.00135783
-0.000215525
1.00054e-05
-0.0013554
0.00137092
-0.000233884
1.10873e-05
-0.0013659
0.00138379
-0.000256175
1.18425e-05
-0.00137523
0.00139696
-0.000285328
1.22926e-05
-0.00138336
0.00141195
-0.000326784
1.24461e-05
-0.00139103
0.00143202
-0.000389034
1.22315e-05
-0.0013979
0.00145988
-0.000480726
1.13276e-05
-0.00139911
0.00149083
-0.00059759
8.70149e-06
-0.00137792
0.00149546
1.1101e-06
-0.00122758
-0.000811545
0.00144401
-0.000233301
8.44491e-06
-0.00158429
0.00159774
-0.000248478
9.97927e-06
-0.00159973
0.00161493
-0.000266124
1.1077e-05
-0.00161422
0.00163188
-0.000287475
1.18069e-05
-0.00162752
0.00164891
-0.000315264
1.21761e-05
-0.00163936
0.00166726
-0.000354966
1.21735e-05
-0.0016504
0.00169037
-0.00041592
1.1725e-05
-0.00166095
0.00172241
-0.000508794
1.05005e-05
-0.00166726
0.00176096
-0.000629459
7.19207e-06
-0.00165189
0.00177407
-2.36924e-06
-0.00148266
-0.000852992
0.00170967
-0.000269428
8.23501e-06
-0.00182312
0.0018362
-0.000284094
9.66583e-06
-0.00184268
0.00185766
-0.000301178
1.06445e-05
-0.00186118
0.00187869
-0.000321809
1.12426e-05
-0.00187844
0.00189963
-0.000348557
1.14581e-05
-0.00189405
0.00192152
-0.000386862
1.12686e-05
-0.0019085
0.00194771
-0.000446697
1.06123e-05
-0.00192253
0.00198348
-0.000540585
9.19739e-06
-0.00193353
0.00202872
-0.000665166
5.4853e-06
-0.00192343
0.00204972
-5.67765e-06
-0.00173226
-0.000898881
0.00196928
-0.000307429
8.00694e-06
-0.00206109
0.00207379
-0.000321633
9.13893e-06
-0.00208442
0.00209915
-0.000338172
9.85936e-06
-0.00210653
0.00212385
-0.000358076
1.02126e-05
-0.00212731
0.00214825
-0.000383748
1.01876e-05
-0.00214637
0.00217332
-0.000420498
9.76554e-06
-0.00216401
0.00220226
-0.000478727
8.95209e-06
-0.00218144
0.00224133
-0.00057266
7.58477e-06
-0.00219734
0.00229289
-0.000700062
4.02372e-06
-0.00219336
0.00232222
-7.87649e-06
-0.00198027
-0.000942651
0.00222505
-0.000348439
7.22822e-06
-0.00229925
0.00231188
-0.000361994
7.89549e-06
-0.00232594
0.00234074
-0.00037784
8.29976e-06
-0.00235103
0.00236844
-0.000396922
8.41161e-06
-0.00237475
0.00239563
-0.000421418
8.1892e-06
-0.00239666
0.00242316
-0.000456338
7.60423e-06
-0.00241695
0.00245403
-0.000512199
6.76647e-06
-0.00243725
0.0024953
-0.000604743
5.74052e-06
-0.00245795
0.00255234
-0.000733301
3.12742e-06
-0.00246158
0.00259103
-8.12614e-06
-0.00222915
-0.000982709
0.00247881
-0.000390221
5.05659e-06
-0.00253426
0.002547
-0.000402693
5.0472e-06
-0.00256346
0.00257878
-0.000417624
4.98845e-06
-0.00259091
0.00260915
-0.00043607
4.77477e-06
-0.00261752
0.0026396
-0.000459985
4.3713e-06
-0.00264307
0.0026708
-0.000493692
3.73221e-06
-0.0026673
0.00270488
-0.000547096
3.04876e-06
-0.00269126
0.00274838
-0.000636959
2.61511e-06
-0.00271672
0.00280971
-0.000764504
1.67023e-06
-0.0027287
0.0028577
-7.24326e-06
-0.00248151
-0.00101449
0.00273061
-0.00043259
-0.00275431
0.00276792
-0.000443465
-0.00278615
0.00280207
-0.000456895
-0.00281617
0.00283459
-0.00047406
-0.00284525
0.00286719
-0.000496869
-0.00287306
0.00290024
-0.000529216
-0.00289959
0.00293567
-0.00057985
-0.00292624
0.00297993
-0.000665249
-0.0029571
0.00304512
-0.000788331
-0.00298302
0.00310777
-0.00273969
-0.00103719
0.00298131
1.23279e-05
5.38523e-06
-0.000599574
-1.0115e-05
5.84988e-06
-0.000601709
-3.49042e-05
6.23818e-06
-0.000602564
-6.26634e-05
6.55733e-06
-0.000601947
-9.43061e-05
6.80262e-06
-0.000599417
-0.000130716
6.94151e-06
-0.000594234
-0.000171781
6.90111e-06
-0.00058527
-0.000214224
6.53607e-06
-0.000570889
-0.000247647
5.58677e-06
-0.000547265
3.53373e-06
-0.000505124
-0.000237095
2.2563e-05
7.97564e-06
-0.000844399
2.613e-06
8.92876e-06
-0.000848649
-1.9645e-05
9.63723e-06
-0.000851416
-4.47835e-05
1.01313e-05
-0.000852277
-7.41134e-05
1.04168e-05
-0.000850796
-0.000109741
1.04681e-05
-0.00084603
-0.000153793
1.02154e-05
-0.000836133
-0.00020617
9.47669e-06
-0.000818015
-0.000259402
7.89603e-06
-0.000785592
4.63566e-06
-0.000720942
-0.00026589
3.21702e-05
8.48957e-06
-0.00108821
1.43768e-05
9.88671e-06
-0.00109473
-5.77926e-06
1.09329e-05
-0.00109966
-2.9025e-05
1.16735e-05
-0.00110262
-5.67757e-05
1.21053e-05
-0.00110319
-9.18283e-05
1.22029e-05
-0.00110048
-0.000138167
1.18971e-05
-0.0010922
-0.000198833
1.09676e-05
-0.00107369
-0.000270199
8.91811e-06
-0.00103595
4.49637e-06
-0.000947981
-0.000297005
4.14838e-05
8.4328e-06
-0.00132865
2.42928e-05
1.01604e-05
-0.00133848
4.5863e-06
1.14749e-05
-0.00134673
-1.84077e-05
1.24206e-05
-0.00135298
-4.60995e-05
1.29743e-05
-0.00135654
-8.14772e-05
1.30882e-05
-0.00135654
-0.000129749
1.26792e-05
-0.00135041
-0.000197089
1.15092e-05
-0.00133231
-0.000284532
8.93404e-06
-0.00129049
3.21668e-06
-0.00117862
-0.000332211
4.89279e-05
8.145e-06
-0.00156908
3.19255e-05
1.00588e-05
-0.00158263
1.23086e-05
1.15188e-05
-0.00159465
-1.07371e-05
1.25695e-05
-0.00160462
-3.86291e-05
1.31808e-05
-0.00161167
-7.44018e-05
1.32754e-05
-0.00161481
-0.000124118
1.27474e-05
-0.0016113
-0.000196827
1.13497e-05
-0.00159439
-0.000298338
8.27141e-06
-0.00154972
1.21527e-06
-0.00141361
-0.000365387
5.41352e-05
7.66985e-06
-0.0018079
3.72565e-05
9.62354e-06
-0.00182537
1.77112e-05
1.11089e-05
-0.00184122
-5.35646e-06
1.21751e-05
-0.00185498
-3.33754e-05
1.27893e-05
-0.00186564
-6.9409e-05
1.28575e-05
-0.00187205
-0.000120136
1.2259e-05
-0.00187132
-0.000197078
1.07634e-05
-0.001856
-0.000310493
7.41987e-06
-0.00180916
-7.05956e-07
-0.00164784
-0.000392989
5.70876e-05
7.07528e-06
-0.00204587
4.03823e-05
8.87611e-06
-0.00206697
2.10376e-05
1.0256e-05
-0.00208633
-1.82783e-06
1.12454e-05
-0.00210352
-2.96449e-05
1.18071e-05
-0.00211757
-6.54725e-05
1.18382e-05
-0.00212716
-0.000116457
1.1235e-05
-0.00212943
-0.000196351
9.84647e-06
-0.00211653
-0.000319843
6.67925e-06
-0.00206912
-2.0873e-06
-0.00188328
-0.000415454
5.7495e-05
5.89637e-06
-0.00228385
4.12755e-05
7.34426e-06
-0.00230819
2.24668e-05
8.5322e-06
-0.0023305
1.66175e-07
9.43225e-06
-0.00235063
-2.70178e-05
9.99316e-06
-0.00236767
-6.20696e-05
1.00889e-05
-0.00238015
-0.000112396
9.65992e-06
-0.00238535
-0.000193736
8.67639e-06
-0.00237544
-0.000325726
6.39119e-06
-0.0023293
-2.25301e-06
-0.00212087
-0.000433839
5.58595e-05
3.41222e-06
-0.00251853
4.06931e-05
4.24197e-06
-0.00254519
2.29446e-05
5.03826e-06
-0.00256967
1.52985e-06
5.68495e-06
-0.00259236
-2.5049e-05
6.17748e-06
-0.00261268
-5.95976e-05
6.37901e-06
-0.00262905
-0.000109159
6.28705e-06
-0.00263833
-0.000190798
5.9888e-06
-0.00263239
-0.00032996
5.37367e-06
-0.00258852
-1.41583e-06
-0.00235919
-0.000453114
5.31585e-05
-0.00273903
3.92765e-05
-0.00276803
2.29798e-05
-0.00279484
3.10751e-06
-0.0028197
-2.18966e-05
-0.00284188
-5.50026e-05
-0.00286011
-0.000102728
-0.00287223
-0.00018269
-0.00287115
-0.000327133
-0.0028332
-0.00259063
-0.000477619
6.8347e-06
5.29879e-06
-0.000587488
-1.1928e-05
5.70804e-06
-0.000588655
-3.20011e-05
6.00909e-06
-0.0005885
-5.32744e-05
6.20393e-06
-0.000586878
-7.5459e-05
6.27241e-06
-0.000583505
-9.78456e-05
6.16868e-06
-0.000578016
-0.000118917
5.82213e-06
-0.000570021
-0.00013574
5.13985e-06
-0.000559205
-0.000141922
4.01047e-06
-0.000545093
2.34474e-06
-0.000526496
-0.000122895
1.6153e-05
7.9983e-06
-0.000830657
-2.08953e-06
8.87635e-06
-0.000833575
-2.21533e-05
9.49112e-06
-0.000834834
-4.40081e-05
9.8589e-06
-0.000834077
-6.77115e-05
9.9613e-06
-0.000830781
-9.31618e-05
9.73846e-06
-0.000824149
-0.0001195
9.09968e-06
-0.000813072
-0.000144145
7.91288e-06
-0.000796143
-0.000160328
6.01379e-06
-0.000771413
3.25531e-06
-0.000736806
-0.000145374
2.57214e-05
8.72737e-06
-0.00107355
8.43151e-06
1.00545e-05
-0.00107862
-1.09752e-05
1.10153e-05
-0.00108178
-3.27844e-05
1.16355e-05
-0.00108259
-5.74288e-05
1.18869e-05
-0.00108047
-8.55301e-05
1.16978e-05
-0.00107433
-0.000117262
1.09475e-05
-0.00106232
-0.000150871
9.43622e-06
-0.00104161
-0.000179645
6.86969e-06
-0.00100803
2.92011e-06
-0.000954967
-0.000172323
3.51864e-05
8.77959e-06
-0.00131363
1.80273e-05
1.04606e-05
-0.00132173
-1.58674e-06
1.17121e-05
-0.00132782
-2.41379e-05
1.25643e-05
-0.00133136
-5.02594e-05
1.29614e-05
-0.00133149
-8.10429e-05
1.28069e-05
-0.00132686
-0.000117623
1.19419e-05
-0.00131483
-0.000159607
1.01011e-05
-0.00129099
-0.000201474
6.83827e-06
-0.00124859
1.59765e-06
-0.00117425
-0.000204524
4.31093e-05
8.54511e-06
-0.00155385
2.58788e-05
1.04459e-05
-0.00156538
5.95646e-06
1.18782e-05
-0.00157489
-1.72574e-05
1.28743e-05
-0.00158172
-4.46162e-05
1.33659e-05
-0.00158472
-7.75559e-05
1.32265e-05
-0.00158229
-0.000118119
1.22555e-05
-0.00157105
-0.000167575
1.01232e-05
-0.00154495
-0.00022232
6.19123e-06
-0.00149433
-4.08803e-07
-0.00139686
-0.000237061
4.89624e-05
8.06132e-06
-0.00179247
3.17041e-05
1.0037e-05
-0.0018077
1.16128e-05
1.15336e-05
-0.00182078
-1.20125e-05
1.25889e-05
-0.00183106
-4.02244e-05
1.31312e-05
-0.0018372
-7.47547e-05
1.30146e-05
-0.00183731
-0.000118498
1.201e-05
-0.00182733
-0.000174543
9.7453e-06
-0.00179957
-0.00024174
5.38558e-06
-0.00174116
-2.3561e-06
-0.00161898
-0.000268657
5.26224e-05
7.37331e-06
-0.00203032
3.54718e-05
9.22391e-06
-0.002049
1.54611e-05
1.06497e-05
-0.00206544
-8.19026e-06
1.16758e-05
-0.00207895
-3.66986e-05
1.22326e-05
-0.00208817
-7.20515e-05
1.21598e-05
-0.00209096
-0.000117948
1.12257e-05
-0.00208275
-0.000179418
9.0665e-06
-0.00205438
-0.000258299
4.70842e-06
-0.00198957
-3.86609e-06
-0.00184244
-0.000297622
5.36726e-05
6.0606e-06
-0.00226804
3.70013e-05
7.55926e-06
-0.00228985
1.75127e-05
8.79099e-06
-0.00230915
-5.65445e-06
9.73751e-06
-0.00232553
-3.38205e-05
1.03373e-05
-0.00233761
-6.91606e-05
1.0418e-05
-0.00234307
-0.000116061
9.78436e-06
-0.00233701
-0.0001815
8.12476e-06
-0.00230906
-0.000271032
4.55168e-06
-0.00223961
-4.24438e-06
-0.00206837
-0.000323152
5.2381e-05
3.55378e-06
-0.00250237
3.67332e-05
4.40622e-06
-0.00252639
1.83538e-05
5.22056e-06
-0.00254772
-3.80968e-06
5.88219e-06
-0.00256634
-3.13397e-05
6.40479e-06
-0.00258121
-6.65697e-05
6.63825e-06
-0.00259004
-0.000114085
6.48477e-06
-0.00258751
-0.000182225
5.72561e-06
-0.00256185
-0.00028079
3.91352e-06
-0.00248932
-3.26309e-06
-0.002294
-0.000346959
5.00194e-05
-0.00272299
3.55416e-05
-0.00274914
1.85692e-05
-0.00277265
-2.03119e-06
-0.00279321
-2.78337e-05
-0.00280968
-6.14545e-05
-0.00281985
-0.000107798
-0.0028194
-0.000176299
-0.00279692
-0.000280719
-0.00272487
-0.00250942
-0.000365183
3.95384e-06
4.93796e-06
-0.000579037
-1.02957e-05
5.27651e-06
-0.000579682
-2.50577e-05
5.48423e-06
-0.000579223
-3.9913e-05
5.56422e-06
-0.000577587
-5.42504e-05
5.49795e-06
-0.000574665
-6.71613e-05
5.25146e-06
-0.000570356
-7.72977e-05
4.78272e-06
-0.000564667
-8.26678e-05
4.04793e-06
-0.000557883
-8.01223e-05
3.01619e-06
-0.000550655
1.74794e-06
-0.000543122
-6.52438e-05
1.13573e-05
7.67622e-06
-0.000819401
-4.0597e-06
8.45073e-06
-0.000821332
-2.06574e-05
8.94335e-06
-0.000821696
-3.80753e-05
9.16728e-06
-0.000820263
-5.57715e-05
9.09971e-06
-0.000816687
-7.28186e-05
8.68318e-06
-0.000810534
-8.76182e-05
7.84642e-06
-0.000801336
-9.74833e-05
6.52225e-06
-0.000788752
-9.78261e-05
4.68386e-06
-0.000772738
2.47638e-06
-0.000754248
-8.11124e-05
2.00313e-05
8.67043e-06
-0.00106045
4.21639e-06
9.88348e-06
-0.00106423
-1.32589e-05
1.07124e-05
-0.00106607
-3.22726e-05
1.11685e-05
-0.00106558
-5.2607e-05
1.12168e-05
-0.00106225
-7.3716e-05
1.07751e-05
-0.00105532
-9.41954e-05
9.72977e-06
-0.00104372
-0.000110945
7.94468e-06
-0.00102628
-0.000117645
5.30323e-06
-0.00100195
1.93459e-06
-0.000971042
-0.000101029
2.90536e-05
8.90382e-06
-0.00129953
1.26965e-05
1.04866e-05
-0.00130598
-5.80442e-06
1.16182e-05
-0.00131022
-2.65814e-05
1.23149e-05
-0.00131173
-4.96451e-05
1.25052e-05
-0.00130972
-7.48143e-05
1.20746e-05
-0.00130299
-0.000101049
1.08558e-05
-0.00128972
-0.000125263
8.62972e-06
-0.00126746
-0.000140077
5.15193e-06
-0.00123363
5.14307e-07
-0.00118686
-0.000126043
3.70307e-05
8.78444e-06
-0.00153912
2.01848e-05
1.06164e-05
-0.00154867
8.14548e-07
1.19579e-05
-0.00155586
-2.13897e-05
1.28296e-05
-0.00156003
-4.66896e-05
1.31339e-05
-0.00156005
-7.5297e-05
1.27214e-05
-0.00155433
-0.000106696
1.13643e-05
-0.00154016
-0.000138219
8.74912e-06
-0.00151355
-0.000162095
4.45203e-06
-0.00146975
-1.54316e-06
-0.00140442
-0.000152478
4.32362e-05
8.34307e-06
-0.00177727
2.60885e-05
1.02841e-05
-0.00179022
6.16207e-06
1.17267e-05
-0.00180063
-1.701e-05
1.26983e-05
-0.00180776
-4.39696e-05
1.30903e-05
-0.00181019
-7.53026e-05
1.2727e-05
-0.00180598
-0.000111129
1.13304e-05
-0.00179147
-0.000149544
8.50068e-06
-0.00176091
-0.00018302
3.60477e-06
-0.00170684
-3.57874e-06
-0.00162061
-0.000179357
4.74237e-05
7.6144e-06
-0.00201477
3.02175e-05
9.459e-06
-0.00203097
1.01244e-05
1.08625e-05
-0.00204448
-1.34594e-05
1.18453e-05
-0.00205451
-4.13463e-05
1.23037e-05
-0.00205949
-7.44954e-05
1.20407e-05
-0.00205712
-0.000113757
1.07505e-05
-0.00204291
-0.00015832
7.97701e-06
-0.0020093
-0.000201602
2.88647e-06
-0.00194557
-5.26152e-06
-0.00183719
-0.000205169
4.90507e-05
6.21323e-06
-0.0022521
3.22372e-05
7.71841e-06
-0.0022713
1.25404e-05
8.93253e-06
-0.00228752
-1.07792e-05
9.84391e-06
-0.00230021
-3.87582e-05
1.03711e-05
-0.00230769
-7.2701e-05
1.03158e-05
-0.0023074
-0.000114223
9.40102e-06
-0.00229414
-0.000163897
7.16127e-06
-0.00225857
-0.000216976
2.71872e-06
-0.00218637
-5.80577e-06
-0.00205547
-0.000229331
4.83227e-05
3.67913e-06
-0.00248601
3.24528e-05
4.53811e-06
-0.00250734
1.38129e-05
5.34117e-06
-0.00252549
-8.50909e-06
5.9704e-06
-0.00254014
-3.59034e-05
6.43371e-06
-0.00254988
-7.00726e-05
6.57463e-06
-0.00255213
-0.000113234
6.24928e-06
-0.0025412
-0.000167168
5.08118e-06
-0.00250584
-0.000229423
2.44676e-06
-0.00242679
-4.60342e-06
-0.00227259
-0.000252036
4.64387e-05
-0.0027065
3.16424e-05
-0.00272981
1.43369e-05
-0.00275
-6.47918e-06
-0.00276643
-3.21738e-05
-0.00277755
-6.47267e-05
-0.00278072
-0.000107152
-0.00277073
-0.00016292
-0.00273608
-0.000231871
-0.00265347
-0.00247774
-0.000268158
2.5102e-06
4.39902e-06
-0.000573823
-7.61743e-06
4.66783e-06
-0.000574222
-1.78467e-05
4.80039e-06
-0.000573794
-2.77133e-05
4.80194e-06
-0.000572522
-3.6648e-05
4.66277e-06
-0.000570393
-4.395e-05
4.36646e-06
-0.000567421
-4.87855e-05
3.8984e-06
-0.00056373
-5.01959e-05
3.24916e-06
-0.000559722
-4.6968e-05
2.42204e-06
-0.000556305
1.47913e-06
-0.000554132
-3.74376e-05
7.95893e-06
7.08147e-06
-0.000810903
-4.27242e-06
7.74032e-06
-0.000812173
-1.71546e-05
8.11242e-06
-0.000812125
-3.01892e-05
8.21245e-06
-0.000810638
-4.26901e-05
8.02486e-06
-0.000807548
-5.36784e-05
7.51243e-06
-0.000802691
-6.17928e-05
6.63953e-06
-0.000795963
-6.52557e-05
5.39472e-06
-0.000787435
-6.18762e-05
3.82732e-06
-0.000777523
2.1367e-06
-0.000767278
-4.95036e-05
1.53611e-05
8.3179e-06
-0.00104941
1.65358e-06
9.38879e-06
-0.00105217
-1.32238e-05
1.0068e-05
-0.00105315
-2.8876e-05
1.03598e-05
-0.00105207
-4.4731e-05
1.02326e-05
-0.0010486
-5.98349e-05
9.61741e-06
-0.00104232
-7.25821e-05
8.43869e-06
-0.00103278
-8.04045e-05
6.63966e-06
-0.0010197
-7.94468e-05
4.2334e-06
-0.00100331
1.48803e-06
-0.000985103
-6.47373e-05
2.353e-05
8.76055e-06
-0.0012869
8.62495e-06
1.02066e-05
-0.00129189
-8.00631e-06
1.11872e-05
-0.00129471
-2.6169e-05
1.17054e-05
-0.00129491
-4.54338e-05
1.16897e-05
-0.00129191
-6.49603e-05
1.10316e-05
-0.00128488
-8.30311e-05
9.5987e-06
-0.00127281
-9.64232e-05
7.26199e-06
-0.00125469
-9.96521e-05
3.95481e-06
-0.00123012
2.0782e-08
-0.00120089
-8.41517e-05
3.11872e-05
8.79551e-06
-0.00152541
1.53164e-05
1.05135e-05
-0.0015331
-2.74145e-06
1.17223e-05
-0.00153834
-2.29963e-05
1.2429e-05
-0.0015405
-4.52131e-05
1.25238e-05
-0.00153866
-6.87881e-05
1.18558e-05
-0.00153158
-9.20961e-05
1.02224e-05
-0.00151748
-0.000111522
7.39707e-06
-0.00149426
-0.000120165
3.17411e-06
-0.00146033
-2.07819e-06
-0.00141729
-0.000105191
3.74499e-05
8.43877e-06
-0.00176274
2.09395e-05
1.0298e-05
-0.00177349
1.88142e-06
1.16381e-05
-0.00178148
-1.99129e-05
1.24744e-05
-0.00178601
-4.44627e-05
1.26744e-05
-0.00178579
-7.14775e-05
1.20534e-05
-0.00177916
-9.96111e-05
1.03405e-05
-0.00176345
-0.000125169
7.20367e-06
-0.00173516
-0.000140203
2.25246e-06
-0.00169088
-4.19143e-06
-0.00163143
-0.000127269
4.1957e-05
7.71742e-06
-0.00199962
2.51507e-05
9.51251e-06
-0.00201338
5.60187e-06
1.08444e-05
-0.00202414
-1.70545e-05
1.17263e-05
-0.00203111
-4.3139e-05
1.2027e-05
-0.00203276
-7.27218e-05
1.15339e-05
-0.00202702
-0.000104922
9.92425e-06
-0.0020103
-0.00013632
6.76695e-06
-0.00197746
-0.000158439
1.45781e-06
-0.00192265
-5.9946e-06
-0.00184493
-0.000148901
4.40451e-05
6.2663e-06
-0.00223639
2.74743e-05
7.74849e-06
-0.00225297
8.10733e-06
8.90855e-06
-0.00226622
-1.46008e-05
9.73738e-06
-0.00227551
-4.12606e-05
1.01299e-05
-0.00227914
-7.23338e-05
9.87668e-06
-0.00227467
-0.000107559
8.66692e-06
-0.00225765
-0.00014418
6.00898e-06
-0.00222119
-0.000173955
1.19309e-06
-0.00215633
-6.67246e-06
-0.00205917
-0.000169582
4.38954e-05
3.73605e-06
-0.00246978
2.81322e-05
4.58929e-06
-0.00248841
9.67644e-06
5.36473e-06
-0.00250349
-1.21746e-05
5.94008e-06
-0.00251449
-3.84164e-05
6.30879e-06
-0.00251982
-7.00232e-05
6.3081e-06
-0.00251695
-0.000107474
5.76312e-06
-0.00250084
-0.000148844
4.25128e-06
-0.00246271
-0.000186528
1.20604e-06
-0.00238912
-5.30067e-06
-0.00227134
-0.000189153
4.24697e-05
-0.00268995
2.76693e-05
-0.00271042
1.04272e-05
-0.00272739
-1.00727e-05
-0.00273999
-3.48405e-05
-0.00274647
-6.51154e-05
-0.00274414
-0.00010216
-0.00272792
-0.00014572
-0.00268826
-0.000189445
-0.00260854
-0.0024708
-0.000201689
1.81904e-06
3.77721e-06
-0.000571073
-5.02129e-06
3.98632e-06
-0.000571368
-1.18098e-05
4.06799e-06
-0.000571073
-1.81603e-05
4.02903e-06
-0.000570201
-2.36505e-05
3.86807e-06
-0.000568771
-2.78249e-05
3.5819e-06
-0.000566828
-3.02264e-05
3.17308e-06
-0.000564502
-3.04447e-05
2.64816e-06
-0.000562152
-2.80757e-05
2.01596e-06
-0.00056069
1.30684e-06
-0.00056117
-2.2345e-05
5.61884e-06
6.30811e-06
-0.000804973
-3.58719e-06
6.85326e-06
-0.000805834
-1.30983e-05
7.12332e-06
-0.00080567
-2.24181e-05
7.136e-06
-0.000804426
-3.09353e-05
6.88658e-06
-0.000802049
-3.78848e-05
6.35972e-06
-0.00079852
-4.23421e-05
5.55009e-06
-0.000793883
-4.32991e-05
4.47932e-06
-0.000788309
-3.98552e-05
3.22233e-06
-0.000782173
1.95281e-06
-0.000776154
-3.16255e-05
1.16812e-05
7.71876e-06
-0.00104065
3.66087e-07
8.63478e-06
-0.00104264
-1.17075e-05
9.16756e-06
-0.00104312
-2.40327e-05
9.3207e-06
-0.00104193
-3.59371e-05
9.07226e-06
-0.00103888
-4.64675e-05
8.37617e-06
-0.0010338
-5.43046e-05
7.19733e-06
-0.00102659
-5.77348e-05
5.53904e-06
-0.00101733
-5.47659e-05
3.48341e-06
-0.00100654
1.29994e-06
-0.00099542
-4.37953e-05
1.87675e-05
8.36197e-06
-0.00127611
5.75877e-06
9.6457e-06
-0.00127989
-8.55068e-06
1.04631e-05
-0.00128169
-2.37517e-05
1.08099e-05
-0.0012812
-3.91908e-05
1.06249e-05
-0.00127802
-5.38219e-05
9.82142e-06
-0.00127169
-6.5979e-05
8.31588e-06
-0.00126177
-7.31647e-05
6.06462e-06
-0.00124803
-7.20229e-05
3.12112e-06
-0.0012309
-1.23003e-07
-0.00121232
-5.91748e-05
2.58172e-05
8.56738e-06
-0.00151314
1.14155e-05
1.01354e-05
-0.00151919
-4.77111e-06
1.11859e-05
-0.00152287
-2.24936e-05
1.17136e-05
-0.00152368
-4.12002e-05
1.16134e-05
-0.00152094
-5.98863e-05
1.07512e-05
-0.00151382
-7.66835e-05
8.97562e-06
-0.00150134
-8.83858e-05
6.16284e-06
-0.00148266
-9.0133e-05
2.28167e-06
-0.00145774
-2.18066e-06
-0.00142927
-7.61022e-05
3.18678e-05
8.3258e-06
-0.0017493
1.6479e-05
1.00624e-05
-0.00175803
-1.10796e-06
1.12642e-05
-0.00176398
-2.08193e-05
1.19346e-05
-0.00176652
-4.22724e-05
1.19353e-05
-0.00176466
-6.46307e-05
1.10917e-05
-0.00175715
-8.59989e-05
9.17768e-06
-0.00174229
-0.000102646
5.96874e-06
-0.00171832
-0.000108266
1.29776e-06
-0.00168428
-4.29291e-06
-0.00164345
-9.41308e-05
3.64792e-05
7.65618e-06
-0.00198529
2.05249e-05
9.36298e-06
-0.00199673
2.10632e-06
1.0585e-05
-0.00200504
-1.88845e-05
1.13263e-05
-0.00200951
-4.23235e-05
1.14426e-05
-0.00200883
-6.76423e-05
1.0726e-05
-0.00200133
-9.31218e-05
8.88218e-06
-0.00198452
-0.00011477
5.57096e-06
-0.00195542
-0.000125045
4.35349e-07
-0.00191152
-6.12791e-06
-0.00185633
-0.000111811
3.8877e-05
6.19946e-06
-0.00222127
2.29508e-05
7.63082e-06
-0.00223531
4.44766e-06
8.70797e-06
-0.00224584
-1.69399e-05
9.42162e-06
-0.00225222
-4.13796e-05
9.64913e-06
-0.0022529
-6.86502e-05
9.18466e-06
-0.00224586
-9.74206e-05
7.72606e-06
-0.00222773
-0.000123788
4.83831e-06
-0.00219409
-0.000139481
4.81299e-08
-0.00214025
-6.89234e-06
-0.00206922
-0.000128669
3.92336e-05
3.71576e-06
-0.00245403
2.39291e-05
4.54811e-06
-0.00247003
6.11456e-06
5.27978e-06
-0.00248225
-1.46616e-05
5.78356e-06
-0.00249008
-3.89313e-05
6.03804e-06
-0.00249194
-6.6973e-05
5.88029e-06
-0.0024856
-9.81237e-05
5.12896e-06
-0.0024671
-0.000128935
3.38561e-06
-0.00243045
-0.000150673
2.46369e-07
-0.00236758
-5.43207e-06
-0.00227949
-0.00014398
3.82178e-05
-0.00267371
2.37457e-05
-0.0026914
6.98155e-06
-0.00270535
-1.26675e-05
-0.00271456
-3.57974e-05
-0.0027173
-6.29453e-05
-0.00271111
-9.40471e-05
-0.00269169
-0.000126865
-0.00265206
-0.000153198
-0.00258196
-0.00247704
-0.000152387
1.44293e-06
3.15177e-06
-0.000569969
-3.01677e-06
3.31368e-06
-0.000570222
-7.40101e-06
3.36558e-06
-0.000570055
-1.14273e-05
3.31483e-06
-0.000569489
-1.48118e-05
3.16552e-06
-0.000568552
-1.72781e-05
2.92166e-06
-0.000567284
-1.85878e-05
2.59361e-06
-0.000565786
-1.8579e-05
2.19218e-06
-0.000564353
-1.71387e-05
1.72047e-06
-0.00056385
1.17399e-06
-0.000565681
-1.38012e-05
3.99721e-06
5.45165e-06
-0.000801155
-2.64466e-06
5.89397e-06
-0.000801773
-9.4071e-06
6.08673e-06
-0.000801628
-1.58649e-05
6.04993e-06
-0.000800703
-2.15424e-05
5.788e-06
-0.000798994
-2.59096e-05
5.30152e-06
-0.000796532
-2.84035e-05
4.6038e-06
-0.000793399
-2.85016e-05
3.73079e-06
-0.000789749
-2.58745e-05
2.75665e-06
-0.000785836
1.81255e-06
-0.000782036
-2.06307e-05
8.82908e-06
6.94752e-06
-0.00103407
-1.16983e-07
7.70958e-06
-0.00103551
-9.52386e-06
8.11283e-06
-0.00103574
-1.88905e-05
8.16412e-06
-0.00103468
-2.75979e-05
7.85295e-06
-0.00103224
-3.48628e-05
7.15611e-06
-0.00102839
-3.97389e-05
6.06918e-06
-0.00102318
-4.1188e-05
4.62902e-06
-0.00101678
-3.82656e-05
2.94018e-06
-0.00100965
1.2274e-06
-0.00100253
-3.05661e-05
1.4763e-05
7.75232e-06
-0.00126731
3.85652e-06
8.86185e-06
-0.00127014
-7.97985e-06
9.51978e-06
-0.00127126
-2.02461e-05
9.72087e-06
-0.00127049
-3.22406e-05
9.42035e-06
-0.00126759
-4.29737e-05
8.55963e-06
-0.00126236
-5.10955e-05
7.10003e-06
-0.00125468
-5.49041e-05
5.05785e-06
-0.00124465
-5.25532e-05
2.54796e-06
-0.00123286
-7.54848e-08
-0.00122071
-4.28621e-05
2.10202e-05
8.11999e-06
-0.00150256
8.41637e-06
9.51344e-06
-0.00150724
-5.57165e-06
1.03954e-05
-0.00150976
-2.05279e-05
1.07526e-05
-0.00150976
-3.57571e-05
1.04968e-05
-0.00150679
-5.01637e-05
9.52285e-06
-0.00150038
-6.20544e-05
7.73521e-06
-0.00149008
-6.90052e-05
5.09602e-06
-0.00147574
-6.79907e-05
1.68622e-06
-0.00145789
-2.01948e-06
-0.00143876
-5.65507e-05
2.66426e-05
8.00757e-06
-0.00173728
1.27563e-05
9.58896e-06
-0.00174422
-2.93047e-06
1.06311e-05
-0.00174853
-2.01363e-05
1.11268e-05
-0.00174969
-3.82451e-05
1.09492e-05
-0.00174701
-5.61746e-05
9.94977e-06
-0.00173964
-7.20093e-05
7.96301e-06
-0.00172668
-8.26615e-05
4.86981e-06
-0.00170744
-8.3797e-05
6.71407e-07
-0.00168213
-4.05222e-06
-0.00165393
-7.12878e-05
3.11587e-05
7.42467e-06
-0.00197212
1.64476e-05
9.00961e-06
-0.00198144
-3.66997e-07
1.00947e-05
-0.00198769
-1.91643e-05
1.06751e-05
-0.00199026
-3.95034e-05
1.06096e-05
-0.00198815
-6.04471e-05
9.71318e-06
-0.00198015
-8.00286e-05
7.74794e-06
-0.00196472
-9.46436e-05
4.48433e-06
-0.00194041
-9.86166e-05
-2.24129e-07
-0.00190665
-5.8294e-06
-0.00186751
-8.56551e-05
3.37061e-05
6.00355e-06
-0.00220708
1.87962e-05
7.35734e-06
-0.00221874
1.62176e-06
8.3293e-06
-0.0022269
-1.7885e-05
8.90868e-06
-0.00223094
-3.95251e-05
8.96644e-06
-0.00222962
-6.26158e-05
8.31559e-06
-0.00222137
-8.53544e-05
6.69599e-06
-0.00220394
-0.00010388
3.76999e-06
-0.00217485
-0.000111427
-7.08754e-07
-0.00213222
-6.62721e-06
-0.00208068
-9.9164e-05
3.44656e-05
3.61274e-06
-0.00243909
1.99623e-05
4.40716e-06
-0.00245257
3.21011e-06
5.08011e-06
-0.00246224
-1.59846e-05
5.49984e-06
-0.00246748
-3.77279e-05
5.63483e-06
-0.00246686
-6.17372e-05
5.33062e-06
-0.00245861
-8.66919e-05
4.42349e-06
-0.00243987
-0.000108902
2.58365e-06
-0.00240705
-0.000120696
-4.11601e-07
-0.00235608
-5.17322e-06
-0.00229114
-0.000110502
3.37978e-05
-0.00265817
1.99814e-05
-0.00267318
4.09117e-06
-0.00268438
-1.42289e-05
-0.00269074
-3.51836e-05
-0.00269071
-5.87373e-05
-0.00268223
-8.39753e-05
-0.00266203
-0.000107903
-0.00262555
-0.000122889
-0.00256738
-0.0024891
-0.000116
1.18629e-06
2.57464e-06
-0.000569848
-1.6551e-06
2.70061e-06
-0.000570081
-4.44349e-06
2.73713e-06
-0.000570003
-6.98559e-06
2.69107e-06
-0.000569638
-9.09896e-06
2.56927e-06
-0.000569008
-1.06192e-05
2.37866e-06
-0.000568142
-1.14223e-05
2.13159e-06
-0.000567114
-1.14487e-05
1.83755e-06
-0.000566164
-1.06818e-05
1.49137e-06
-0.000566109
1.05829e-06
-0.000568629
-8.79178e-06
2.85246e-06
4.59189e-06
-0.000798915
-1.7764e-06
4.94594e-06
-0.000799389
-6.44605e-06
5.0844e-06
-0.000799306
-1.0824e-05
5.02774e-06
-0.000798662
-1.4565e-05
4.78646e-06
-0.00079747
-1.73184e-05
4.37002e-06
-0.00079577
-1.87524e-05
3.79989e-06
-0.000793633
-1.8607e-05
3.11397e-06
-0.000791171
-1.67879e-05
2.37568e-06
-0.00078854
1.67912e-06
-0.000785931
-1.35136e-05
6.63385e-06
6.08517e-06
-0.00102939
-1.87406e-07
6.7039e-06
-0.00103045
-7.27207e-06
7.00081e-06
-0.00103057
-1.41838e-05
6.9864e-06
-0.00102972
-2.04193e-05
6.66046e-06
-0.00102788
-2.53985e-05
6.01772e-06
-0.00102506
-2.84922e-05
5.0728e-06
-0.00102136
-2.9098e-05
3.87557e-06
-0.00101694
-2.67784e-05
2.5261e-06
-0.00101212
1.1967e-06
-0.00100734
-2.14933e-05
1.14575e-05
6.9935e-06
-0.00126044
2.63925e-06
7.92927e-06
-0.00126254
-6.81395e-06
8.44269e-06
-0.00126325
-1.64002e-05
8.53194e-06
-0.00126245
-2.5478e-05
8.16976e-06
-0.00126003
-3.32302e-05
7.325e-06
-0.00125592
-3.86655e-05
5.99336e-06
-0.00125016
-4.06981e-05
4.22479e-06
-0.00124297
-3.83585e-05
2.15164e-06
-0.00123482
6.38342e-08
-0.00122663
-3.13058e-05
1.68342e-05
7.49357e-06
-0.00149378
6.17048e-06
8.70053e-06
-0.00149734
-5.51655e-06
9.41719e-06
-0.00149905
-1.77364e-05
9.62784e-06
-0.00149863
-2.9781e-05
9.26645e-06
-0.00149584
-4.06495e-05
8.26143e-06
-0.00149045
-4.89825e-05
6.56725e-06
-0.00148233
-5.3092e-05
4.20477e-06
-0.00147161
-5.12062e-05
1.309e-06
-0.00145894
-1.712e-06
-0.00144585
-4.23488e-05
2.18776e-05
7.50588e-06
-0.00172686
9.73577e-06
8.9101e-06
-0.00173229
-3.8157e-06
9.78506e-06
-0.00173534
-1.83581e-05
1.01167e-05
-0.00173564
-3.31829e-05
9.80016e-06
-0.00173272
-4.71925e-05
8.72272e-06
-0.0017261
-5.87181e-05
6.781e-06
-0.00171537
-6.54456e-05
3.93982e-06
-0.00170045
-6.46158e-05
3.0294e-07
-0.00168195
-3.60119e-06
-0.00166229
-5.43582e-05
2.61325e-05
7.03109e-06
-0.00196037
1.29555e-05
8.46778e-06
-0.00196782
-1.93411e-06
9.40154e-06
-0.00197242
-1.82387e-05
9.81963e-06
-0.00197366
-3.53432e-05
9.59758e-06
-0.00197084
-5.21732e-05
8.58554e-06
-0.00196319
-6.68714e-05
6.61427e-06
-0.00194986
-7.65493e-05
3.5575e-06
-0.00193035
-7.73036e-05
-5.838e-07
-0.00190501
-5.24911e-06
-0.00187721
-6.59603e-05
2.86792e-05
5.67809e-06
-0.00219411
1.50914e-05
6.9305e-06
-0.00220362
-4.00363e-07
7.78288e-06
-0.00220979
-1.76549e-05
8.22334e-06
-0.00221209
-3.62198e-05
8.12812e-06
-0.00220959
-5.51689e-05
7.34064e-06
-0.00220117
-7.26395e-05
5.66289e-06
-0.00218551
-8.53366e-05
2.86511e-06
-0.00216146
-8.83013e-05
-1.12181e-06
-0.00212871
-6.02729e-06
-0.0020915
-7.67091e-05
2.97264e-05
3.42632e-06
-0.00242525
1.63285e-05
4.16593e-06
-0.00243641
9.90954e-07
4.76823e-06
-0.00244389
-1.62477e-05
5.09849e-06
-0.00244711
-3.51655e-05
5.1219e-06
-0.00244494
-5.51052e-05
4.70084e-06