/*--------------------------------*- C++ -*----------------------------------*\
| =========                 |                                                 |
| \\      /  F ield         | foam-extend: Open Source CFD                    |
|  \\    /   O peration     | Version:     4.0                                |
|   \\  /    A nd           | Web:         http://www.foam-extend.org         |
|    \\/     M anipulation  |                                                 |
\*---------------------------------------------------------------------------*/
FoamFile
{
    version     2.0;
    format      ascii;
    class       volVectorField;
    location    "3200";
    object      U;
}
// * * * * * * * * * * * * * * * * * * * * * * * * * * * * * * * * * * * * * //

dimensions      [0 1 -1 0 0 0 0];

internalField   nonuniform List<vector> 
34480
(
(212.108 7.06716 2.31124)
(213.718 5.25292 -1.77424)
(215.133 3.65266 -6.58308)
(216.365 2.27174 -12.4001)
(217.388 1.11897 -19.6241)
(217.969 0.211995 -28.7399)
(217.243 -0.417076 -40.0992)
(212.898 -0.831895 -54.2074)
(200.036 -1.35747 -73.6026)
(167.926 -1.95277 -94.2176)
(214.236 10.7565 2.60327)
(216.15 9.67248 -0.763849)
(217.837 8.58592 -4.59184)
(219.285 7.52477 -9.15574)
(220.575 6.48134 -14.9271)
(221.678 5.4298 -22.6041)
(222.075 4.36753 -32.9814)
(219.995 3.28202 -46.906)
(210.885 1.85387 -68.0985)
(180.445 -0.146049 -96.48)
(215.43 10.1987 4.88033)
(217.613 9.42339 1.93885)
(219.616 8.56656 -1.37494)
(221.442 7.6562 -5.33059)
(223.166 6.69762 -10.3665)
(224.866 5.65246 -17.2922)
(226.23 4.50105 -27.1982)
(225.772 3.25623 -41.2474)
(219.384 1.62633 -63.8802)
(190.571 -0.710762 -98.7023)
(215.715 10.4739 6.68621)
(218.375 9.77503 3.88915)
(220.887 8.96845 0.717938)
(223.264 8.09092 -3.06326)
(225.528 7.14161 -7.84753)
(227.77 6.08097 -14.4353)
(229.811 4.87802 -24.0681)
(230.446 3.5402 -38.2464)
(225.991 1.75919 -61.9535)
(198.232 -0.885168 -101.554)
(215.91 9.77384 8.56635)
(218.996 8.96243 5.85273)
(221.95 8.0324 2.6977)
(224.804 7.0457 -1.0479)
(227.556 5.97887 -5.77892)
(230.279 4.79113 -12.2435)
(232.868 3.43773 -21.7628)
(234.357 1.91971 -36.1656)
(231.394 -0.0953857 -60.8964)
(204.232 -3.14451 -104.296)
(215.744 10.05 9.39621)
(219.155 9.14478 6.78593)
(222.435 8.1091 3.69551)
(225.642 7.03695 0.0207557)
(228.769 5.89985 -4.64448)
(231.873 4.66777 -10.9961)
(234.887 3.29225 -20.3886)
(237.045 1.75782 -34.9622)
(235.24 -0.33532 -60.6295)
(208.282 -3.68798 -107.231)
(215.73 9.02061 10.4293)
(219.354 7.92179 7.88989)
(222.824 6.71047 4.81081)
(226.233 5.49339 1.15971)
(229.583 4.22569 -3.48258)
(232.931 2.89054 -9.75538)
(236.256 1.45528 -19.0207)
(239.005 -0.0664806 -33.7158)
(238.291 -2.04172 -60.2258)
(211.651 -5.24468 -109.576)
(215.476 9.25067 10.1763)
(219.187 8.03854 7.79753)
(222.714 6.74224 4.8633)
(226.176 5.46344 1.34932)
(229.58 4.16376 -3.1422)
(232.989 2.84961 -9.18829)
(236.449 1.5332 -18.1086)
(239.672 0.264885 -32.5622)
(240.104 -1.30798 -59.4565)
(214.22 -4.0324 -110.932)
(215.497 7.32583 10.6415)
(219.218 5.95791 8.42368)
(222.747 4.58612 5.58611)
(226.226 3.26168 2.1195)
(229.659 1.92605 -2.37766)
(233.089 0.597864 -8.39255)
(236.581 -0.656312 -17.1366)
(240.123 -1.68578 -31.3075)
(241.632 -2.58571 -58.4554)
(216.607 -4.10195 -111.349)
(214.42 6.91306 10.0464)
(218.152 5.46745 8.17787)
(221.7 4.02069 5.64269)
(225.185 2.63644 2.42421)
(228.559 1.3155 -1.85761)
(231.836 0.107914 -7.65823)
(235.116 -0.877353 -16.0752)
(238.699 -1.43155 -29.5098)
(241.417 -1.58217 -56.0887)
(218.284 -1.87044 -109.223)
(204.292 6.142 1.56049)
(205.221 4.59768 -1.86989)
(205.647 3.24363 -5.77714)
(205.459 2.10562 -10.2266)
(204.466 1.18213 -15.3699)
(202.342 0.483649 -21.3321)
(198.58 0.00793388 -28.1627)
(192.523 -0.272223 -35.6723)
(182.726 -0.419348 -42.8908)
(164.057 -0.559846 -45.4033)
(208.278 9.6309 1.58827)
(209.656 8.68348 -1.42741)
(210.613 7.71606 -4.82994)
(210.995 6.78513 -8.67526)
(210.664 5.89251 -13.1618)
(209.336 5.02103 -18.5796)
(206.397 4.15049 -25.3174)
(200.929 3.27404 -33.6396)
(191.477 2.35875 -43.4764)
(171.619 1.28207 -50.4694)
(210.608 9.1735 3.66744)
(212.337 8.46411 0.905768)
(213.714 7.67673 -2.18069)
(214.64 6.838 -5.75965)
(214.979 5.97594 -9.99478)
(214.505 5.06921 -15.2715)
(212.632 4.09068 -22.1939)
(208.216 3.02144 -31.43)
(199.593 1.82904 -43.7748)
(178.842 0.424568 -55.8127)
(211.63 9.51185 5.41662)
(213.849 8.86825 2.74345)
(215.772 8.12485 -0.265718)
(217.326 7.30195 -3.81389)
(218.348 6.42647 -8.06056)
(218.624 5.48115 -13.4049)
(217.604 4.43955 -20.5573)
(214.081 3.27304 -30.5177)
(206.24 1.91607 -44.9319)
(184.755 0.280357 -61.8756)
(212.308 8.86357 7.33337)
(214.963 8.11926 4.71273)
(217.362 7.26697 1.68076)
(219.45 6.34759 -1.90394)
(221.068 5.36338 -6.25749)
(221.991 4.29947 -11.7497)
(221.703 3.11863 -19.1587)
(218.993 1.78944 -29.7745)
(211.912 0.23307 -45.9999)
(189.78 -1.60923 -67.6745)
(212.488 9.22604 8.23338)
(215.495 8.40138 5.70227)
(218.262 7.45348 2.71541)
(220.759 6.45553 -0.832004)
(222.848 5.40142 -5.21119)
(224.298 4.2909 -10.7679)
(224.619 3.0862 -18.3215)
(222.631 1.7519 -29.4113)
(216.246 0.166038 -47.0616)
(193.41 -1.76348 -72.9481)
(212.719 8.24679 9.38468)
(215.969 7.24603 6.91884)
(218.979 6.14109 3.93149)
(221.746 5.02122 0.38692)
(224.161 3.85947 -4.03248)
(226.004 2.66648 -9.64801)
(226.831 1.40699 -17.3024)
(225.54 0.0625658 -28.7714)
(219.925 -1.45634 -47.6565)
(196.593 -3.27684 -77.5008)
(212.629 8.55069 9.26086)
(216.008 7.44527 6.95798)
(219.138 6.26285 4.12038)
(222.045 5.09415 0.713206)
(224.643 3.91375 -3.58672)
(226.734 2.74646 -9.08117)
(227.94 1.58631 -16.6054)
(227.299 0.444919 -28.1101)
(222.614 -0.766524 -47.7911)
(199.275 -2.38974 -81.1483)
(212.673 6.69726 9.83857)
(216.083 5.4214 7.71163)
(219.255 4.15464 4.99961)
(222.247 2.94471 1.68625)
(224.999 1.74726 -2.5981)
(227.322 0.586556 -8.13162)
(228.856 -0.51387 -15.7035)
(228.781 -1.48026 -27.2281)
(225.074 -2.19524 -47.6309)
(201.922 -3.22078 -84.0151)
(211.706 6.48513 9.27338)
(215.128 5.09087 7.43975)
(218.343 3.73909 5.04427)
(221.38 2.44978 2.02381)
(224.164 1.23646 -1.9698)
(226.526 0.145019 -7.25185)
(228.178 -0.756308 -14.6348)
(228.48 -1.31582 -25.767)
(225.915 -1.36176 -46.3575)
(203.739 -1.22797 -84.6922)
(198.507 4.90343 0.455483)
(199 3.72681 -2.2187)
(198.968 2.70218 -5.15302)
(198.332 1.84198 -8.36228)
(196.96 1.16302 -11.8023)
(194.675 0.673327 -15.3722)
(191.256 0.357853 -18.8724)
(186.47 0.163111 -21.9778)
(179.963 0.00976662 -23.948)
(171.056 -0.208836 -23.0072)
(203.364 8.23798 0.412974)
(204.29 7.46152 -2.14168)
(204.737 6.65365 -4.9648)
(204.574 5.86227 -8.06813)
(203.629 5.09827 -11.4891)
(201.64 4.35909 -15.2146)
(198.228 3.63395 -19.1713)
(192.882 2.90696 -23.1371)
(184.902 2.16282 -26.4406)
(173.288 1.36553 -27.0816)
(206.389 7.99833 2.32913)
(207.697 7.37325 -0.15168)
(208.573 6.66373 -2.91342)
(208.898 5.90415 -6.03167)
(208.508 5.11616 -9.57186)
(207.11 4.28858 -13.6386)
(204.195 3.40785 -18.3058)
(198.994 2.4602 -23.4949)
(190.415 1.43336 -28.674)
(176.488 0.301731 -31.7283)
(207.991 8.44905 3.94661)
(209.774 7.869 1.473)
(211.169 7.18581 -1.30476)
(212.073 6.41908 -4.541)
(212.29 5.59926 -8.29054)
(211.509 4.71105 -12.7328)
(209.134 3.74124 -18.0523)
(204.174 2.67375 -24.3473)
(195.18 1.48645 -31.3292)
(179.139 0.154733 -37.1169)
(209.103 7.86146 5.83536)
(211.314 7.18298 3.35992)
(213.177 6.39912 0.503947)
(214.6 5.53894 -2.8689)
(215.374 4.61647 -6.85714)
(215.176 3.61327 -11.6682)
(213.352 2.50577 -17.5867)
(208.735 1.27222 -24.9158)
(199.529 -0.111688 -33.6544)
(181.636 -1.63682 -42.4726)
(209.622 8.30847 6.75504)
(212.191 7.55738 4.33599)
(214.435 6.68792 1.48948)
(216.277 5.75456 -1.90579)
(217.518 4.76574 -6.01093)
(217.824 3.71431 -11.047)
(216.509 2.57401 -17.3866)
(212.279 1.31648 -25.5499)
(203.005 -0.111169 -35.8339)
(183.512 -1.72512 -47.7097)
(210.105 7.3607 7.99169)
(212.936 6.44689 5.61584)
(215.448 5.43651 2.74395)
(217.591 4.39736 -0.688495)
(219.187 3.31858 -4.90265)
(219.905 2.20074 -10.1259)
(219.057 1.01681 -16.8079)
(215.281 -0.257482 -25.7044)
(206.138 -1.65692 -37.4526)
(185.361 -3.20634 -52.4992)
(210.207 7.72698 7.96372)
(213.192 6.71559 5.73837)
(215.862 5.6344 3.00658)
(218.193 4.55595 -0.304601)
(220.033 3.4714 -4.44082)
(221.065 2.39105 -9.63979)
(220.63 1.30632 -16.4026)
(217.369 0.210832 -25.7032)
(208.601 -0.932705 -38.586)
(186.943 -2.37348 -56.596)
(210.363 5.90717 8.62491)
(213.394 4.72085 6.55288)
(216.126 3.54758 3.93438)
(218.562 2.4241 0.721671)
(220.589 1.33011 -3.39243)
(221.911 0.278796 -8.66559)
(221.891 -0.709598 -15.6277)
(219.187 -1.60188 -25.3125)
(210.935 -2.29132 -39.2979)
(188.494 -3.29447 -59.8484)
(209.572 5.86757 8.11112)
(212.612 4.54722 6.2854)
(215.391 3.28895 3.95986)
(217.875 2.0854 1.02316)
(219.945 0.970561 -2.807)
(221.33 -0.0152639 -7.81155)
(221.53 -0.804031 -14.6004)
(219.33 -1.28859 -24.1871)
(211.839 -1.30418 -38.8531)
(189.045 -1.19847 -60.8216)
(194.404 3.82627 -0.0960238)
(194.636 3.0083 -1.97592)
(194.426 2.2913 -3.97612)
(193.731 1.68772 -6.06948)
(192.493 1.21282 -8.16665)
(190.656 0.868774 -10.1444)
(188.194 0.640231 -11.8176)
(185.172 0.477053 -12.9432)
(181.725 0.299188 -13.1122)
(177.802 0.0197867 -11.7335)
(199.38 6.84121 -0.297198)
(199.959 6.26027 -2.29991)
(200.077 5.6366 -4.44081)
(199.645 5.00641 -6.72339)
(198.548 4.38945 -9.10108)
(196.639 3.78968 -11.4634)
(193.753 3.20094 -13.6255)
(189.75 2.61151 -15.2887)
(184.542 2.01667 -15.8845)
(178.272 1.42748 -14.6616)
(202.712 6.79128 1.32537)
(203.65 6.2742 -0.775286)
(204.138 5.66876 -3.08186)
(204.066 5.01341 -5.60404)
(203.297 4.32628 -8.34199)
(201.623 3.60528 -11.2511)
(198.752 2.84317 -14.1975)
(194.348 2.03062 -16.8715)
(188.081 1.16268 -18.5552)
(179.826 0.253083 -18.1477)
(204.686 7.36489 2.70957)
(206.058 6.86751 0.5252)
(206.999 6.26305 -1.9076)
(207.396 5.57742 -4.67204)
(207.07 4.83713 -7.76856)
(205.754 4.03552 -11.2182)
(203.039 3.16854 -14.9395)
(198.378 2.22726 -18.6539)
(191.167 1.20128 -21.5541)
(180.893 0.103932 -22.3268)
(206.126 6.84229 4.49041)
(207.903 6.24227 2.23762)
(209.272 5.53852 -0.342084)
(210.126 4.75672 -3.35097)
(210.25 3.91535 -6.80115)
(209.338 2.99851 -10.7703)
(206.877 1.99624 -15.2418)
(202.114 0.89542 -20.0155)
(194.137 -0.316488 -24.2502)
(181.958 -1.60131 -26.6177)
(206.926 7.37365 5.36726)
(209.055 6.70506 3.12484)
(210.791 5.92297 0.506506)
(212.037 5.07027 -2.60166)
(212.567 4.16433 -6.26109)
(212.043 3.19494 -10.5851)
(209.868 2.14931 -15.6318)
(205.104 1.00914 -21.3135)
(196.505 -0.257551 -26.8023)
(182.557 -1.63577 -30.9313)
(207.632 6.45867 6.64276)
(210.028 5.63568 4.41001)
(212.04 4.72373 1.72927)
(213.588 3.77439 -1.47332)
(214.451 2.78927 -5.3203)
(214.276 1.7622 -9.95055)
(212.409 0.677835 -15.5033)
(207.761 -0.482431 -22.0422)
(198.743 -1.74538 -28.8219)
(183.242 -3.09551 -34.9914)
(207.909 6.90424 6.67499)
(210.477 5.98955 4.57076)
(212.668 5.01022 2.00787)
(214.425 4.02414 -1.10684)
(215.546 3.03702 -4.93104)
(215.673 2.04958 -9.63368)
(214.131 1.05702 -15.4258)
(209.725 0.0492971 -22.5454)
(200.548 -1.00683 -30.4238)
(183.793 -2.29541 -38.6407)
(208.161 5.13113 7.44366)
(210.792 4.04289 5.46596)
(213.061 2.9662 2.98972)
(214.933 1.92999 -0.0443214)
(216.24 0.933375 -3.85766)
(216.646 -0.0162469 -8.66127)
(215.475 -0.894233 -14.7456)
(211.453 -1.68549 -22.4626)
(202.349 -2.32847 -31.5362)
(184.418 -3.25678 -41.6448)
(207.487 5.2631 6.98286)
(210.138 4.03828 5.21719)
(212.467 2.88426 3.00777)
(214.403 1.77835 0.223469)
(215.783 0.770764 -3.33202)
(216.281 -0.105386 -7.88426)
(215.312 -0.777887 -13.812)
(211.668 -1.16513 -21.5964)
(202.975 -1.1409 -31.552)
(184.16 -1.05135 -42.6975)
(191.877 2.90996 -0.317716)
(191.99 2.37841 -1.54436)
(191.783 1.90335 -2.82109)
(191.243 1.49821 -4.10487)
(190.357 1.17344 -5.31849)
(189.124 0.929306 -6.36976)
(187.583 0.755126 -7.13789)
(185.869 0.610938 -7.50636)
(184.266 0.42886 -7.30409)
(182.95 0.127508 -6.34014)
(196.415 5.53582 -0.659667)
(196.769 5.13888 -2.1295)
(196.741 4.6888 -3.64624)
(196.282 4.21454 -5.20763)
(195.332 3.73948 -6.74541)
(193.834 3.27133 -8.14989)
(191.744 2.80997 -9.26257)
(189.074 2.34984 -9.87514)
(185.933 1.89392 -9.68244)
(182.653 1.46628 -8.45878)
(199.668 5.61463 0.643412)
(200.326 5.21072 -1.04255)
(200.572 4.71918 -2.8585)
(200.328 4.17743 -4.77979)
(199.502 3.60289 -6.76831)
(197.977 2.99924 -8.72621)
(195.626 2.36384 -10.4866)
(192.357 1.69254 -11.7754)
(188.185 0.987032 -12.1176)
(183.474 0.27474 -11.0367)
(201.774 6.29999 1.74575)
(202.805 5.89475 -0.098351)
(203.415 5.38256 -2.12447)
(203.503 4.79235 -4.36207)
(202.937 4.14874 -6.77326)
(201.532 3.45235 -9.29363)
(199.059 2.70448 -11.7555)
(195.282 1.90241 -13.8371)
(190.068 1.04392 -14.8835)
(183.754 0.160491 -14.1809)
(203.394 5.8375 3.36339)
(204.793 5.32486 1.38968)
(205.768 4.71049 -0.84989)
(206.218 4.02195 -3.4042)
(205.964 3.27605 -6.24086)
(204.768 2.46456 -9.33633)
(202.296 1.58532 -12.542)
(198.146 0.631842 -15.5252)
(191.973 -0.402362 -17.4641)
(184.024 -1.46701 -17.4864)
(204.38 6.44839 4.14725)
(206.111 5.87025 2.13588)
(207.419 5.18284 -0.189392)
(208.205 4.42392 -2.91382)
(208.261 3.61455 -6.02595)
(207.305 2.74662 -9.54537)
(204.903 1.81623 -13.3599)
(200.482 0.811453 -17.1609)
(193.442 -0.290251 -19.9887)
(183.877 -1.45819 -20.8987)
(205.246 5.56645 5.4182)
(207.241 4.84029 3.37818)
(208.815 4.03072 0.949584)
(209.878 3.17987 -1.92838)
(210.211 2.29719 -5.29542)
(209.5 1.37565 -9.2027)
(207.228 0.408159 -13.5946)
(202.66 -0.619872 -18.2271)
(194.904 -1.73322 -22.0552)
(183.826 -2.89664 -24.1546)
(205.661 6.09941 5.47464)
(207.837 5.28846 3.5342)
(209.598 4.41527 1.19292)
(210.868 3.52884 -1.6397)
(211.434 2.64443 -5.03982)
(210.964 1.76035 -9.09695)
(208.884 0.874635 -13.8184)
(204.318 -0.0268576 -19.0629)
(196.064 -0.979326 -23.7816)
(183.655 -2.10559 -27.1463)
(206.006 4.37193 6.33838)
(208.261 3.3922 4.49327)
(210.109 2.41963 2.20252)
(211.497 1.48077 -0.584052)
(212.231 0.586881 -4.00423)
(211.987 -0.255371 -8.19327)
(210.168 -1.02271 -13.2542)
(205.778 -1.71371 -19.154)
(197.266 -2.29623 -24.949)
(183.595 -3.1054 -29.6308)
(205.431 4.67552 5.90434)
(207.714 3.56389 4.24376)
(209.633 2.52406 2.19108)
(211.093 1.52904 -0.378858)
(211.91 0.63804 -3.58419)
(211.76 -0.119944 -7.57612)
(210.09 -0.676368 -12.5313)
(205.896 -0.968864 -18.5396)
(197.465 -0.913993 -25.121)
(182.773 -0.833273 -30.4953)
(190.517 2.15599 -0.357234)
(190.577 1.82875 -1.11093)
(190.427 1.52754 -1.88508)
(190.066 1.26498 -2.63764)
(189.499 1.04691 -3.3172)
(188.744 0.87337 -3.86663)
(187.849 0.739028 -4.21479)
(186.941 0.614283 -4.31966)
(186.312 0.444455 -4.10335)
(186.253 0.14234 -3.53159)
(194.354 4.38332 -0.792011)
(194.568 4.13913 -1.81213)
(194.495 3.83621 -2.82699)
(194.111 3.49754 -3.83429)
(193.395 3.14625 -4.77384)
(192.338 2.79207 -5.56591)
(190.949 2.44004 -6.1068)
(189.28 2.09051 -6.27875)
(187.449 1.75154 -5.93519)
(185.689 1.44616 -5.04339)
(197.275 4.51714 0.221255)
(197.725 4.21919 -1.06634)
(197.833 3.83851 -2.42394)
(197.549 3.40797 -3.81714)
(196.823 2.94422 -5.1958)
(195.604 2.45395 -6.46221)
(193.859 1.93837 -7.47916)
(191.606 1.39823 -8.06111)
(188.957 0.840798 -7.95009)
(186.236 0.293585 -6.9713)
(199.322 5.28915 1.03419)
(200.077 4.97694 -0.456336)
(200.454 4.56222 -2.06582)
(200.377 4.07315 -3.794)
(199.759 3.53313 -5.58462)
(198.494 2.94746 -7.34542)
(196.482 2.32078 -8.91059)
(193.665 1.65574 -10.0259)
(190.108 0.958143 -10.2797)
(186.23 0.263301 -9.32746)
(200.986 4.87448 2.45862)
(202.06 4.45223 0.793329)
(202.731 3.93291 -1.07499)
(202.913 3.34438 -3.15275)
(202.475 2.70175 -5.38531)
(201.259 2.00328 -7.69689)
(199.081 1.2513 -9.90813)
(195.777 0.445061 -11.7142)
(191.311 -0.41392 -12.5292)
(186.168 -1.27389 -11.852)
(202.064 5.5545 3.1141)
(203.439 5.07056 1.37007)
(204.396 4.48227 -0.62374)
(204.841 3.8256 -2.91429)
(204.61 3.12083 -5.45246)
(203.494 2.36443 -8.19286)
(201.22 1.55751 -10.959)
(197.501 0.693566 -13.4196)
(192.147 -0.239484 -14.8158)
(185.678 -1.20345 -14.5097)
(203.028 4.70357 4.34333)
(204.655 4.07796 2.53365)
(205.851 3.37337 0.39963)
(206.531 2.62719 -2.09296)
(206.502 1.85236 -4.92787)
(205.519 1.04399 -8.08824)
(203.223 0.200117 -11.4232)
(199.192 -0.689855 -14.6063)
(193.033 -1.64323 -16.729)
(185.251 -2.61256 -17.0497)
(203.539 5.32678 4.38943)
(205.348 4.62477 2.6475)
(206.724 3.86162 0.567661)
(207.59 3.08175 -1.92178)
(207.749 2.30521 -4.83379)
(206.923 1.53128 -8.1884)
(204.686 0.7596 -11.8751)
(200.482 -0.026818 -15.6103)
(193.679 -0.86025 -18.3867)
(184.675 -1.80717 -19.4003)
(203.96 3.64025 5.32524)
(205.858 2.77603 3.64484)
(207.329 1.91339 1.57473)
(208.307 1.08012 -0.912493)
(208.602 0.293609 -3.88542)
(207.933 -0.438202 -7.40205)
(205.833 -1.09571 -11.4357)
(201.624 -1.68824 -15.778)
(194.384 -2.19898 -19.4231)
(184.212 -2.85856 -21.2822)
(203.457 4.11677 4.89234)
(205.392 3.12987 3.37263)
(206.937 2.21109 1.51101)
(207.991 1.33582 -0.795328)
(208.368 0.566007 -3.60065)
(207.78 -0.0718443 -6.98276)
(205.765 -0.517639 -10.9719)
(201.596 -0.727356 -15.427)
(194.217 -0.654243 -19.645)
(183.073 -0.570722 -21.8916)
(189.943 1.55403 -0.313794)
(189.982 1.36011 -0.755624)
(189.89 1.17482 -1.20899)
(189.673 1.00941 -1.63781)
(189.339 0.866289 -2.01293)
(188.906 0.74596 -2.30197)
(188.413 0.647011 -2.46248)
(187.963 0.546542 -2.48991)
(187.832 0.399006 -2.33371)
(188.413 0.107571 -2.0252)
(193.029 3.41322 -0.792451)
(193.159 3.28331 -1.46857)
(193.09 3.09492 -2.1159)
(192.812 2.86575 -2.73521)
(192.32 2.61665 -3.28277)
(191.625 2.35777 -3.70778)
(190.751 2.09718 -3.95069)
(189.748 1.83939 -3.95268)
(188.7 1.59486 -3.64728)
(187.739 1.38122 -3.05665)
(195.486 3.53431 -0.0131988)
(195.789 3.32633 -0.953705)
(195.827 3.04402 -1.92438)
(195.574 2.71424 -2.89373)
(195.006 2.352 -3.81562)
(194.11 1.96498 -4.61348)
(192.895 1.55703 -5.19196)
(191.409 1.13223 -5.43984)
(189.761 0.700379 -5.22844)
(188.164 0.284482 -4.51104)
(197.336 4.36086 0.532072)
(197.877 4.13479 -0.624064)
(198.102 3.81398 -1.84796)
(197.959 3.4237 -3.12807)
(197.398 2.98583 -4.40646)
(196.369 2.50833 -5.59582)
(194.845 1.99801 -6.56447)
(192.845 1.46136 -7.13951)
(190.486 0.909183 -7.09088)
(188.082 0.373493 -6.27218)
(198.933 3.97724 1.75617)
(199.738 3.64203 0.40081)
(200.186 3.21721 -1.0997)
(200.21 2.72839 -2.72742)
(199.725 2.18978 -4.42087)
(198.638 1.60404 -6.09076)
(196.866 0.976295 -7.57613)
(194.377 0.310386 -8.64521)
(191.255 -0.385695 -8.93391)
(187.92 -1.06576 -8.18734)
(200.017 4.71102 2.26442)
(201.085 4.31967 0.801894)
(201.765 3.83066 -0.849181)
(201.978 3.27818 -2.70287)
(201.606 2.68022 -4.69733)
(200.512 2.03789 -6.75503)
(198.547 1.35515 -8.6973)
(195.6 0.630366 -10.2447)
(191.688 -0.139092 -10.8853)
(187.33 -0.916242 -10.2414)
(201.017 3.88678 3.42393)
(202.315 3.36121 1.86542)
(203.201 2.76122 0.045923)
(203.596 2.12159 -2.0386)
(203.353 1.45544 -4.34394)
(202.294 0.761548 -6.81128)
(200.2 0.0411154 -9.26291)
(196.867 -0.711804 -11.3917)
(192.195 -1.50518 -12.5388)
(186.776 -2.28894 -12.1978)
(201.578 4.59836 3.43077)
(203.051 4.00637 1.90994)
(204.1 3.35427 0.11454)
(204.65 2.68416 -2.00128)
(204.538 2.01716 -4.40969)
(203.554 1.35492 -7.08192)
(201.414 0.698574 -9.8575)
(197.808 0.0316611 -12.432)
(192.48 -0.673396 -14.0227)
(186.036 -1.445 -14.0109)
(202.054 2.94565 4.41525)
(203.622 2.19946 2.92252)
(204.765 1.44913 1.09661)
(205.416 0.725265 -1.06158)
(205.406 0.0468397 -3.57128)
(204.511 -0.576399 -6.42832)
(202.4 -1.12822 -9.53155)
(198.666 -1.62288 -12.6137)
(192.845 -2.0517 -14.8544)
(185.418 -2.56528 -15.3596)
(201.599 3.59698 3.96)
(203.208 2.74067 2.60704)
(204.425 1.94609 0.961511)
(205.147 1.1943 -1.04938)
(205.208 0.545006 -3.43327)
(204.37 0.0226601 -6.2074)
(202.288 -0.323353 -9.31223)
(198.488 -0.46465 -12.5014)
(192.414 -0.383174 -15.1191)
(184.175 -0.298672 -15.7966)
(189.84 1.08594 -0.241243)
(189.871 0.973391 -0.490288)
(189.821 0.861151 -0.75083)
(189.699 0.759395 -0.991666)
(189.513 0.667916 -1.19913)
(189.276 0.587613 -1.35557)
(189.014 0.519514 -1.43308)
(188.812 0.444553 -1.44488)
(188.924 0.322774 -1.34422)
(189.831 0.0469597 -1.19447)
(192.25 2.62934 -0.728261)
(192.332 2.57772 -1.15924)
(192.282 2.47232 -1.55459)
(192.098 2.32636 -1.91874)
(191.783 2.1577 -2.2236)
(191.349 1.97599 -2.43899)
(190.82 1.79024 -2.53273)
(190.231 1.60671 -2.47701)
(189.635 1.43651 -2.24269)
(189.103 1.29208 -1.85927)
(194.213 2.6881 -0.121736)
(194.415 2.54971 -0.783093)
(194.424 2.3479 -1.45221)
(194.226 2.10362 -2.10377)
(193.815 1.82939 -2.70193)
(193.194 1.5326 -3.19372)
(192.384 1.21821 -3.51923)
(191.432 0.891627 -3.61656)
(190.418 0.562508 -3.4231)
(189.466 0.248519 -2.93724)
(195.792 3.53672 0.194136)
(196.173 3.38412 -0.669289)
(196.303 3.14685 -1.56364)
(196.151 2.84656 -2.47607)
(195.692 2.50316 -3.35641)
(194.911 2.12577 -4.13546)
(193.812 1.72232 -4.72077)
(192.44 1.30126 -5.00452)
(190.899 0.875152 -4.86511)
(189.392 0.470271 -4.24627)
(197.238 3.1659 1.22803)
(197.829 2.90908 0.16125)
(198.121 2.57225 -1.00264)
(198.066 2.17741 -2.23528)
(197.612 1.73788 -3.47874)
(196.716 1.25904 -4.65194)
(195.353 0.747692 -5.63019)
(193.547 0.210633 -6.25439)
(191.409 -0.34085 -6.31295)
(189.235 -0.868892 -5.68715)
(198.259 3.93459 1.58546)
(199.071 3.6292 0.397999)
(199.542 3.235 -0.923328)
(199.611 2.78266 -2.37268)
(199.199 2.28871 -3.88675)
(198.228 1.7574 -5.38304)
(196.63 1.19443 -6.71024)
(194.391 0.601897 -7.65949)
(191.604 -0.0163201 -7.91164)
(188.666 -0.62953 -7.26152)
(199.243 3.13111 2.65731)
(200.257 2.70069 1.35352)
(200.895 2.20143 -0.153002)
(201.094 1.66568 -1.84039)
(200.748 1.10501 -3.65679)
(199.742 0.522193 -5.52457)
(197.957 -0.0795861 -7.27958)
(195.324 -0.701803 -8.6722)
(191.882 -1.34472 -9.26752)
(188.124 -1.96224 -8.74867)
(199.809 3.92498 2.60357)
(200.983 3.43964 1.31309)
(201.762 2.89598 -0.192423)
(202.081 2.33441 -1.9332)
(201.813 1.77466 -3.86097)
(200.814 1.22119 -5.91872)
(198.914 0.676681 -7.94184)
(195.97 0.127868 -9.66236)
(191.938 -0.447496 -10.5326)
(187.369 -1.05952 -10.1316)
(200.316 2.29699 3.61614)
(201.586 1.66675 2.32353)
(202.453 1.02746 0.752469)
(202.856 0.412356 -1.06902)
(202.657 -0.161088 -3.13046)
(201.691 -0.681525 -5.38626)
(199.746 -1.13541 -7.70592)
(196.608 -1.53726 -9.82732)
(192.106 -1.8809 -11.1573)
(186.761 -2.26556 -11.0609)
(199.887 3.12528 3.11762)
(201.198 2.40006 1.94689)
(202.135 1.72884 0.531613)
(202.599 1.09919 -1.17044)
(202.453 0.565097 -3.13723)
(201.517 0.148815 -5.34295)
(199.556 -0.111578 -7.68512)
(196.295 -0.200204 -9.89517)
(191.506 -0.117996 -11.4578)
(185.526 -0.03875 -11.3985)
(189.988 0.728544 -0.165399)
(190.013 0.663003 -0.300889)
(189.989 0.594653 -0.450946)
(189.925 0.533206 -0.586512)
(189.825 0.476334 -0.703884)
(189.699 0.425057 -0.793473)
(189.565 0.381654 -0.83427)
(189.49 0.329182 -0.848351)
(189.714 0.231407 -0.786064)
(190.787 -0.0284146 -0.728864)
(191.849 2.0182 -0.641719)
(191.901 2.01605 -0.907233)
(191.871 1.96714 -1.13817)
(191.758 1.88103 -1.3417)
(191.566 1.77273 -1.50173)
(191.306 1.65099 -1.60117)
(190.994 1.5246 -1.62323)
(190.655 1.40002 -1.55486)
(190.318 1.28772 -1.38333)
(190.02 1.19591 -1.1328)
(193.351 1.98505 -0.151943)
(193.485 1.89596 -0.602994)
(193.485 1.75572 -1.05184)
(193.344 1.57993 -1.47896)
(193.063 1.3783 -1.85903)
(192.65 1.15712 -2.15765)
(192.128 0.921306 -2.33918)
(191.531 0.676089 -2.37076)
(190.912 0.429468 -2.22224)
(190.341 0.194052 -1.90547)
(194.637 2.8289 -0.0211092)
(194.9 2.73436 -0.644278)
(194.975 2.56653 -1.27513)
(194.843 2.34354 -1.90346)
(194.494 2.08282 -2.48999)
(193.929 1.79358 -2.98476)
(193.165 1.48396 -3.32765)
(192.247 1.16287 -3.45546)
(191.252 0.84249 -3.30668)
(190.303 0.543198 -2.86217)
(195.884 2.45411 0.843688)
(196.31 2.26376 0.0292276)
(196.497 2.0044 -0.846263)
(196.412 1.69396 -1.7526)
(196.03 1.34458 -2.64047)
(195.332 0.962968 -3.44487)
(194.326 0.556688 -4.07755)
(193.052 0.133858 -4.43693)
(191.609 -0.293642 -4.40526)
(190.188 -0.696691 -3.93196)
(196.793 3.23765 1.05881)
(197.398 3.00801 0.124223)
(197.717 2.69993 -0.899545)
(197.705 2.33969 -1.99735)
(197.317 1.94261 -3.11096)
(196.512 1.51479 -4.16695)
(195.271 1.06296 -5.04997)
(193.622 0.59151 -5.61628)
(191.672 0.107662 -5.67696)
(189.694 -0.366217 -5.12819)
(197.718 2.44868 2.03448)
(198.493 2.1049 0.974037)
(198.943 1.69943 -0.238092)
(199.018 1.26068 -1.56542)
(198.647 0.799314 -2.95582)
(197.764 0.320662 -4.33137)
(196.319 -0.17075 -5.55835)
(194.31 -0.672885 -6.45214)
(191.829 -1.18131 -6.74294)
(189.237 -1.65698 -6.2444)
(198.249 3.31568 1.90686)
(199.165 2.92958 0.843366)
(199.731 2.48829 -0.382162)
(199.89 2.02983 -1.77023)
(199.555 1.57145 -3.26638)
(198.634 1.12012 -4.80191)
(197.038 0.679749 -6.23218)
(194.725 0.241206 -7.34712)
(191.751 -0.212102 -7.78769)
(188.54 -0.684945 -7.29466)
(198.768 1.7017 2.93136)
(199.775 1.1812 1.8406)
(200.418 0.648067 0.52218)
(200.643 0.137041 -0.97418)
(200.346 -0.337734 -2.62458)
(199.419 -0.763829 -4.36129)
(197.736 -1.1301 -6.05531)
(195.209 -1.44919 -7.48188)
(191.828 -1.71372 -8.24128)
(188.033 -1.99241 -7.92705)
(198.345 2.70916 2.37162)
(199.391 2.11071 1.38836)
(200.095 1.55811 0.206103)
(200.368 1.04476 -1.19107)
(200.107 0.616802 -2.76595)
(199.183 0.294112 -4.46704)
(197.454 0.104097 -6.1819)
(194.783 0.0533455 -7.6658)
(191.131 0.130129 -8.55483)
(186.86 0.198038 -8.19698)
(190.244 0.45754 -0.0961122)
(190.265 0.417912 -0.167081)
(190.256 0.374821 -0.25635)
(190.223 0.338092 -0.334688)
(190.171 0.303664 -0.4047)
(190.105 0.272511 -0.460986)
(190.039 0.247461 -0.485695)
(190.027 0.212809 -0.505937)
(190.295 0.135219 -0.467606)
(191.445 -0.110486 -0.464475)
(191.689 1.55689 -0.556247)
(191.723 1.58359 -0.71462)
(191.707 1.57105 -0.842238)
(191.641 1.52598 -0.947739)
(191.529 1.46094 -1.02323)
(191.378 1.38364 -1.05939)
(191.198 1.30218 -1.04772)
(191.005 1.22253 -0.981896)
(190.816 1.15422 -0.856312)
(190.649 1.10218 -0.68788)
(192.795 1.41772 -0.137401)
(192.884 1.36078 -0.437741)
(192.882 1.26507 -0.733208)
(192.789 1.14157 -1.00902)
(192.605 0.997165 -1.24836)
(192.341 0.836727 -1.4296)
(192.013 0.664411 -1.53196)
(191.644 0.484432 -1.53826)
(191.268 0.302563 -1.43357)
(190.926 0.127104 -1.23231)
(193.804 2.23915 -0.148741)
(193.983 2.18747 -0.584428)
(194.028 2.07427 -1.01526)
(193.926 1.91448 -1.43467)
(193.675 1.72285 -1.81407)
(193.283 1.50789 -2.1193)
(192.767 1.27718 -2.31287)
(192.164 1.03909 -2.35905)
(191.526 0.804381 -2.22808)
(190.929 0.588595 -1.91503)
(194.835 1.8479 0.573283)
(195.135 1.71099 -0.0315145)
(195.254 1.51668 -0.67261)
(195.169 1.27894 -1.32273)
(194.869 1.00832 -1.94274)
(194.351 0.711822 -2.48418)
(193.632 0.396942 -2.88782)
(192.754 0.0718713 -3.09181)
(191.791 -0.25253 -3.03276)
(190.864 -0.554779 -2.69244)
(195.604 2.62735 0.662964)
(196.044 2.46132 -0.0505089)
(196.257 2.22805 -0.819635)
(196.21 1.94925 -1.62705)
(195.878 1.63878 -2.42321)
(195.244 1.30355 -3.14865)
(194.315 0.95067 -3.72089)
(193.133 0.585622 -4.04657)
(191.788 0.216703 -4.01823)
(190.462 -0.141558 -3.58762)
(196.443 1.84781 1.54159)
(197.023 1.57981 0.702259)
(197.333 1.25843 -0.246766)
(197.337 0.907363 -1.26407)
(196.992 0.536487 -2.30188)
(196.263 0.152388 -3.29154)
(195.138 -0.23967 -4.13209)
(193.649 -0.635388 -4.69552)
(191.893 -1.02833 -4.82309)
(190.116 -1.38667 -4.40917)
(196.906 2.77698 1.33445)
(197.605 2.47972 0.484087)
(198.007 2.13185 -0.483023)
(198.066 1.76752 -1.55714)
(197.725 1.40196 -2.68418)
(196.932 1.04319 -3.79702)
(195.65 0.696022 -4.77901)
(193.891 0.354831 -5.47802)
(191.743 0.00834826 -5.66881)
(189.509 -0.348293 -5.20693)
(197.421 1.16528 2.36002)
(198.202 0.744869 1.46298)
(198.667 0.309962 0.383934)
(198.773 -0.105235 -0.814369)
(198.448 -0.490048 -2.10425)
(197.623 -0.83194 -3.41181)
(196.238 -1.12203 -4.62607)
(194.276 -1.37076 -5.57053)
(191.796 -1.56847 -5.99011)
(189.134 -1.7658 -5.64325)
(196.989 2.35422 1.72415)
(197.803 1.87418 0.924255)
(198.319 1.43196 -0.0328881)
(198.46 1.02544 -1.14352)
(198.152 0.691988 -2.36638)
(197.313 0.449022 -3.63853)
(195.866 0.314745 -4.85731)
(193.762 0.28959 -5.82136)
(191.052 0.356946 -6.29474)
(188.046 0.410545 -5.85606)
(190.527 0.250241 -0.0353057)
(190.546 0.224311 -0.0706945)
(190.543 0.195118 -0.127927)
(190.527 0.173035 -0.17615)
(190.5 0.15264 -0.222023)
(190.466 0.134818 -0.262259)
(190.434 0.122621 -0.280407)
(190.451 0.101221 -0.306982)
(190.727 0.0399911 -0.28301)
(191.905 -0.193772 -0.312782)
(191.671 1.21935 -0.482987)
(191.694 1.26144 -0.574071)
(191.687 1.2711 -0.638557)
(191.65 1.25299 -0.685488)
(191.587 1.21769 -0.712272)
(191.5 1.17194 -0.714001)
(191.399 1.12298 -0.686533)
(191.29 1.07608 -0.62663)
(191.185 1.04002 -0.531814)
(191.091 1.01738 -0.412623)
(192.455 0.97012 -0.100287)
(192.513 0.93237 -0.296807)
(192.512 0.867331 -0.48923)
(192.454 0.782058 -0.6664)
(192.339 0.680921 -0.817488)
(192.175 0.5673 -0.929211)
(191.973 0.444283 -0.989455)
(191.748 0.314766 -0.989082)
(191.522 0.182263 -0.920118)
(191.316 0.051511 -0.79599)
(193.226 1.76077 -0.216807)
(193.347 1.73869 -0.511913)
(193.374 1.66644 -0.796739)
(193.301 1.55622 -1.06798)
(193.129 1.42005 -1.30613)
(192.865 1.26529 -1.48866)
(192.526 1.0985 -1.59278)
(192.137 0.9269 -1.59863)
(191.732 0.759513 -1.49238)
(191.355 0.60827 -1.27364)
(194.043 1.34648 0.389342)
(194.252 1.25055 -0.0483936)
(194.327 1.10865 -0.50669)
(194.255 0.931157 -0.96323)
(194.033 0.726836 -1.38871)
(193.663 0.502189 -1.74882)
(193.164 0.264051 -2.00513)
(192.57 0.0198421 -2.12104)
(191.935 -0.221374 -2.06294)
(191.332 -0.444137 -1.82707)
(194.665 2.10532 0.375441)
(194.979 1.99033 -0.152818)
(195.119 1.81946 -0.713378)
(195.063 1.61009 -1.29063)
(194.797 1.37425 -1.84507)
(194.321 1.11884 -2.33159)
(193.647 0.850735 -2.69373)
(192.818 0.575499 -2.87308)
(191.904 0.301154 -2.81006)
(191.019 0.0360566 -2.48549)
(195.405 1.33286 1.16145)
(195.829 1.12863 0.514483)
(196.039 0.879935 -0.209481)
(196.01 0.605622 -0.970725)
(195.715 0.314548 -1.72862)
(195.142 0.0135549 -2.42754)
(194.298 -0.291997 -2.99516)
(193.222 -0.596737 -3.34633)
(191.999 -0.894163 -3.39213)
(190.791 -1.15818 -3.07321)
(195.777 2.31244 0.875863)
(196.298 2.09175 0.217159)