/*--------------------------------*- C++ -*----------------------------------*\
| =========                 |                                                 |
| \\      /  F ield         | foam-extend: Open Source CFD                    |
|  \\    /   O peration     | Version:     4.0                                |
|   \\  /    A nd           | Web:         http://www.foam-extend.org         |
|    \\/     M anipulation  |                                                 |
\*---------------------------------------------------------------------------*/
FoamFile
{
    version     2.0;
    format      ascii;
    class       volScalarField;
    location    "1300";
    object      alphat;
}
// * * * * * * * * * * * * * * * * * * * * * * * * * * * * * * * * * * * * * //

dimensions      [1 -1 -1 0 0 0 0];

internalField   nonuniform List<scalar> 
34480
(
0.00188854
0.00188728
0.00188711
0.00188794
0.00189006
0.00189398
0.0019015
0.00191973
0.00195892
0.00203006
0.0158913
0.0150814
0.0147812
0.0145125
0.0128946
0.00822264
0.0033996
0.00134712
0.000985063
0.00145512
0.0442088
0.0425464
0.0408581
0.0374124
0.0285999
0.0146309
0.00510238
0.00182625
0.00124155
0.00181288
0.048359
0.046198
0.0442564
0.0402149
0.0296359
0.0141107
0.00477752
0.00177304
0.00128825
0.00197944
0.0476887
0.0452667
0.0435014
0.0396575
0.0287843
0.0131453
0.0043946
0.00168216
0.00129986
0.00209887
0.0459499
0.0434641
0.041803
0.0380131
0.0267812
0.0115808
0.00384709
0.00155137
0.0013063
0.00222661
0.0438291
0.0415047
0.040044
0.0364269
0.0252254
0.0105246
0.00348557
0.00145954
0.00131364
0.00233593
0.0363864
0.0346939
0.0336643
0.0309148
0.021396
0.00862142
0.00280701
0.00123875
0.00123659
0.00234221
0.0124275
0.0121077
0.0120045
0.0117279
0.0099303
0.00512444
0.00167651
0.000736657
0.000834528
0.00178679
0.00180175
0.00180164
0.0018033
0.00180655
0.00181131
0.0018174
0.00182539
0.00183656
0.00185305
0.00181416
0.00188865
0.00188679
0.00188619
0.0018867
0.00188857
0.00189202
0.00189753
0.00190697
0.00192465
0.00196542
0.014929
0.0142909
0.0140973
0.0142808
0.0146945
0.0147517
0.0129358
0.00763905
0.00249507
0.00204597
0.0406959
0.0394621
0.0387944
0.0382597
0.0366513
0.0319469
0.0229757
0.0112825
0.00328149
0.00280447
0.0447746
0.0431008
0.0422962
0.0417257
0.0398859
0.0343914
0.0241739
0.011424
0.0033007
0.00317318
0.0446143
0.0426535
0.0419066
0.0415496
0.0400676
0.0347989
0.0244218
0.0112685
0.00323804
0.00345557
0.0434082
0.0413378
0.040609
0.040385
0.03917
0.0341752
0.023929
0.0108353
0.00316572
0.00378737
0.0418106
0.0398234
0.0391849
0.0390442
0.038066
0.0334344
0.0235123
0.0105413
0.00312911
0.00410348
0.0351274
0.0336534
0.033184
0.0331659
0.0326556
0.0293396
0.0210784
0.00937694
0.00285443
0.0041746
0.0123669
0.0120595
0.0119981
0.0120559
0.0121874
0.0120363
0.0106145
0.00545552
0.00170709
0.00280223
0.00179709
0.00179462
0.00179412
0.0017953
0.00179808
0.00180217
0.0018083
0.00181807
0.00184228
0.00188949
0.00188422
0.00188261
0.00188207
0.00188253
0.00188413
0.00188691
0.0018909
0.00189688
0.00190581
0.00191932
0.0140378
0.0136178
0.0134818
0.0136324
0.0140735
0.0147208
0.0151337
0.0142103
0.0101107
0.00583784
0.0371747
0.0362014
0.0358609
0.036009
0.0363309
0.0359192
0.0329947
0.0253509
0.0133417
0.0071005
0.0410482
0.0397392
0.0393071
0.0395345
0.0400348
0.0396883
0.0361743
0.0266011
0.0125366
0.00720719
0.0412812
0.0397614
0.0393436
0.0396839
0.0404897
0.0406241
0.0373378
0.0266736
0.0114152
0.00718179
0.0405465
0.0389352
0.0384976
0.0389011
0.0399296
0.0405502
0.0376752
0.0261571
0.0103005
0.00725539
0.0394457
0.0378758
0.0374812
0.0378884
0.0390184
0.039997
0.03763
0.0255119
0.00937664
0.0073396
0.0336112
0.032446
0.0321358
0.0324522
0.0333918
0.0345531
0.0334033
0.0226291
0.00796648
0.00704962
0.0122611
0.0120052
0.0119607
0.0120211
0.0122175
0.0124574
0.0126107
0.0106495
0.00448906
0.00445975
0.00178971
0.0017868
0.00178592
0.0017868
0.00178947
0.00179382
0.00180081
0.00181259
0.00183928
0.00189273
0.00187608
0.00187495
0.00187456
0.00187492
0.00187608
0.00187796
0.00188029
0.00188337
0.00188731
0.00189198
0.0134521
0.0132004
0.0131075
0.0132037
0.0134974
0.0139603
0.0144429
0.0148621
0.0145952
0.0128639
0.0340121
0.0333237
0.0331259
0.0333293
0.033899
0.0345846
0.0346202
0.0324063
0.0256885
0.0173847
0.037621
0.0366753
0.0364047
0.0366967
0.0375074
0.0385185
0.0385842
0.0352857
0.0257927
0.0167255
0.0381709
0.0370744
0.0368038
0.0371606
0.0381743
0.0395576
0.0399578
0.0361336
0.0246309
0.0158866
0.0378547
0.0366751
0.0363716
0.036767
0.037926
0.0396702
0.0405229
0.0363384
0.0231371
0.0153429
0.0371981
0.0360198
0.0357371
0.0361248
0.0373262
0.0392648
0.0405004
0.0360464
0.0215167
0.0148557
0.0322003
0.0313167
0.0310857
0.0313721
0.0322785
0.0339091
0.0354
0.0319923
0.0185238
0.0137334
0.0121959
0.011985
0.0119521
0.0119983
0.0121481
0.0123457
0.0125509
0.0126778
0.00959008
0.00832546
0.00178073
0.00177769
0.00177667
0.00177747
0.00178017
0.00178482
0.00179239
0.00180506
0.00183117
0.0018785
0.00186504
0.00186434
0.00186411
0.00186435
0.00186511
0.00186624
0.00186743
0.00186885
0.00187043
0.00187189
0.0131741
0.0130329
0.0129708
0.0130309
0.0132135
0.0134814
0.0137181
0.0140101
0.0142945
0.0144179
0.0314881
0.0310829
0.0309742
0.0310999
0.0314861
0.0321057
0.0328013
0.0330924
0.0316474
0.0274673
0.0347581
0.0341518
0.0339804
0.0341764
0.0347734
0.0357617
0.0368691
0.0371097
0.0341037
0.0274759
0.0355027
0.0347754
0.034597
0.0348377
0.0355818
0.0368495
0.0383149
0.0385798
0.0342384
0.0263122
0.0355046
0.0346908
0.034474
0.0347498
0.0356096
0.0371499
0.0390365
0.0394521
0.0338304
0.025405
0.0351974
0.0343508
0.0341414
0.0344174
0.0353194
0.0369897
0.0391421
0.0396318
0.0328199
0.0244545
0.0309599
0.0303104
0.0301342
0.0303416
0.0310108
0.0323159
0.0341905
0.0350274
0.0289296
0.0223062
0.0121783
0.0120043
0.0119802
0.0120116
0.0121141
0.0122388
0.0123081
0.0127024
0.0125792
0.0122199
0.00177034
0.00176727
0.00176619
0.00176693
0.0017696
0.00177434
0.00178196
0.0017943
0.00181699
0.00185361
0.00185163
0.00185127
0.00185115
0.0018513
0.00185175
0.00185233
0.00185285
0.00185344
0.00185401
0.0018544
0.0131359
0.0130655
0.0130258
0.0130654
0.0131806
0.0133271
0.0134214
0.0135388
0.0136611
0.0137538
0.0297372
0.0295402
0.0294903
0.0295508
0.0297464
0.0300793
0.0305408
0.0311003
0.031431
0.0310687
0.0325983
0.0322539
0.032153
0.0322603
0.0326071
0.0332324
0.0341478
0.0351977
0.035494
0.0339571
0.0333818
0.0329406
0.0328311
0.03297
0.0334249
0.0342585
0.035504
0.0369074
0.036933
0.0340762
0.0335704
0.033044
0.0328964
0.033068
0.0336227
0.034676
0.0363007
0.0381507
0.0378684
0.0338606
0.0334962
0.0329181
0.0327701
0.0329485
0.0335536
0.0347234
0.036569
0.0386867
0.0379557
0.0331134
0.0299103
0.0294531
0.0293249
0.029465
0.0299183
0.030814
0.0322744
0.0342185
0.0337749
0.0299693
0.0122118
0.0120689
0.0120533
0.0120732
0.0121379
0.0121967
0.012148
0.0123421
0.0127536
0.013648
0.00175836
0.00175539
0.00175431
0.00175499
0.00175755
0.00176214
0.00176937
0.00178063
0.00179908
0.00182555
0.00183624
0.00183611
0.00183607
0.00183615
0.00183639
0.00183662
0.00183681
0.00183701
0.00183718
0.00183722
0.0132614
0.0132387
0.0132158
0.0132431
0.013316
0.0133855
0.0134265
0.0134705
0.0135031
0.0134939
0.0286815
0.0286014
0.0285843
0.0286098
0.0286938
0.0288315
0.0290274
0.0292982
0.0295859
0.0298039
0.0311258
0.0309455
0.0308894
0.0309421
0.031121
0.0314476
0.0319516
0.0326556
0.0333647
0.0337603
0.0318244
0.0315753
0.0315129
0.0315856
0.0318364
0.0323005
0.0330384
0.0341033
0.0351093
0.0354049
0.0320811
0.0317586
0.0316629
0.0317622
0.0320926
0.0327243
0.0337604
0.0353057
0.0366753
0.0367378
0.0321325
0.031755
0.0316553
0.031763
0.0321429
0.0328779
0.0341016
0.0359714
0.0374911
0.0371194
0.0290786
0.0287699
0.028681
0.0287704
0.0290589
0.0296198
0.0305449
0.0321191
0.0335698
0.0335646
0.012305
0.012187
0.0121787
0.0121898
0.0122256
0.0122295
0.0121074
0.01211
0.012297
0.0129944
0.00174465
0.00174189
0.00174085
0.00174148
0.00174385
0.00174809
0.00175462
0.00176434
0.00177874
0.00179731
0.00181909
0.00181911
0.00181912
0.00181916
0.00181927
0.00181932
0.00181936
0.00181939
0.0018194
0.00181932
0.0134932
0.013505
0.0134956
0.013515
0.0135591
0.0135879
0.0136079
0.0136254
0.0136275
0.013586
0.0281274
0.0281029
0.0281014
0.0281119
0.0281441
0.0281911
0.0282584
0.0283507
0.0284522
0.0285368
0.0302039
0.0301125
0.0300819
0.0301068
0.0301952
0.0303539
0.030594
0.0309291
0.0313105
0.0316443
0.0307589
0.030625
0.0305916
0.0306273
0.0307579
0.0309954
0.031368
0.0319198
0.0325704
0.0331442
0.0310041
0.0308146
0.0307551
0.03081
0.0309976
0.0313506
0.0319233
0.032816
0.0338956
0.0348373
0.031101
0.0308634
0.0307992
0.0308609
0.0310891
0.0315228
0.0322354
0.0333897
0.0347853
0.0359274
0.0284693
0.028269
0.0282104
0.0282645
0.0284378
0.0287634
0.0292788
0.0302126
0.0314774
0.0327182
0.0124639
0.0123651
0.0123629
0.0123678
0.012382
0.0123433
0.0121855
0.0120779
0.0120578
0.0123218
0.00172911
0.00172663
0.00172568
0.00172624
0.00172836
0.00173211
0.00173774
0.00174576
0.00175663
0.00176943
0.0018003
0.00180041
0.00180045
0.00180047
0.0018005
0.00180048
0.00180045
0.00180042
0.00180038
0.00180026
0.0137968
0.0138363
0.0138382
0.013852
0.0138746
0.0138861
0.0138974
0.0139046
0.0138956
0.0138433
0.0278897
0.0278897
0.0278949
0.0278997
0.0279101
0.0279231
0.0279427
0.0279687
0.0279944
0.0280092
0.0296678
0.0296205
0.0296035
0.0296155
0.0296598
0.0297375
0.0298507
0.0299999
0.0301643
0.0303001
0.0300751
0.0300047
0.0299875
0.0300045
0.030071
0.0301893
0.0303682
0.0306205
0.0309193
0.0311884
0.0302711
0.0301628
0.0301268
0.0301564
0.0302603
0.0304514
0.030751
0.0311999
0.0317657
0.0323218
0.0303659
0.03022
0.0301801
0.0302142
0.0303478
0.0305953
0.0309876
0.0316032
0.0324009
0.0332028
0.0280688
0.0279434
0.0279069
0.0279379
0.0280355
0.0282094
0.0284684
0.02894
0.0296481
0.03051
0.0126937
0.0126088
0.0126117
0.0126122
0.0126109
0.0125419
0.0123748
0.0122203
0.0120938
0.0121535
0.00171163
0.00170949
0.00170866
0.00170914
0.00171097
0.00171414
0.0017188
0.00172516
0.00173313
0.0017418
0.00177993
0.00178006
0.00178012
0.00178012
0.00178011
0.00178008
0.00178004
0.00177999
0.00177994
0.00177981
0.0141686
0.014221
0.014233
0.0142428
0.0142508
0.0142582
0.0142653
0.0142677
0.0142536
0.0141958
0.0278386
0.0278469
0.0278547
0.0278574
0.0278594
0.0278622
0.0278667
0.0278721
0.027875
0.0278708
0.0293773
0.0293514
0.0293415
0.0293476
0.029371
0.0294114
0.029468
0.029538
0.0296107
0.0296638
0.0296618
0.0296242
0.0296153
0.0296235
0.029658
0.0297179
0.029805
0.0299201
0.0300498
0.0301558
0.029801
0.0297398
0.0297184
0.0297343
0.0297916
0.0298944
0.0300498
0.0302687
0.0305367
0.0307865
0.0298735
0.0297847
0.0297603
0.0297789
0.0298565
0.0299963
0.0302095
0.0305245
0.0309228
0.0313025
0.0278498
0.0277737
0.0277525
0.0277692
0.0278196
0.0279014
0.0280169
0.0282294
0.0285612
0.0289812
0.0129986
0.0129234
0.0129307
0.0129281
0.0129153
0.0128284
0.0126688
0.0125064
0.0123408
0.01234
0.00169216
0.00169038
0.00168969
0.00169009
0.0016916
0.00169418
0.00169789
0.00170274
0.00170843
0.0017142
0.00175794
0.00175807
0.00175813
0.00175813
0.00175812
0.00175808
0.00175804
0.001758
0.00175795
0.00175782
0.014607
0.0146636
0.0146812
0.014688
0.0146933
0.0146986
0.0147031
0.0147026
0.0146854
0.0146235
0.0278915
0.0279015
0.0279093
0.0279114
0.0279119
0.0279121
0.0279124
0.0279121
0.0279091
0.0279004
0.0292321
0.0292168
0.0292107
0.0292141
0.0292273
0.0292499
0.0292805
0.0293167
0.0293523
0.0293757
0.0294261
0.0294049
0.0293999
0.0294042
0.029423
0.0294552
0.0295002
0.0295561
0.0296154
0.0296601
0.0295169
0.0294821
0.0294694
0.0294781
0.0295101
0.0295661
0.0296479
0.0297564
0.0298836
0.0299967
0.0295645
0.02951
0.0294951
0.0295056
0.0295511
0.0296308
0.0297483
0.0299113
0.0301071
0.0302794
0.0277781
0.0277329
0.0277217
0.02773
0.0277526
0.0277819
0.0278242
0.0279072
0.0280442
0.0282401
0.0133834
0.0133148
0.0133259
0.0133212
0.0132995
0.013207
0.0130646
0.0129155
0.0127479
0.0127472
0.00167065
0.00166924
0.00166868
0.001669
0.0016702
0.00167221
0.00167506
0.00167864
0.0016826
0.00168637
0.00173428
0.0017344
0.00173445
0.00173445
0.00173444
0.00173442
0.00173439
0.00173435
0.00173431
0.00173419
0.0151171
0.0151774
0.0151962
0.0152029
0.0152074
0.0152114
0.0152141
0.0152116
0.0151921
0.0151263
0.0280008
0.0280111
0.028018
0.0280202
0.0280205
0.0280202
0.0280197
0.0280182
0.0280138
0.0280042
0.0291673
0.0291577
0.0291538
0.0291558
0.0291637
0.0291769
0.0291945
0.0292147
0.0292342
0.0292459
0.0292995
0.0292865
0.0292833
0.0292858
0.0292969
0.0293157
0.0293411
0.029371
0.0294011
0.0294229
0.0293553
0.0293351
0.0293275
0.0293325
0.0293507
0.029382
0.0294262
0.0294818
0.0295444
0.0295999
0.0293844
0.02935
0.0293408
0.029347
0.0293746
0.0294214
0.0294883
0.0295761
0.0296757
0.0297597
0.0278178
0.0277915
0.0277867
0.0277902
0.0277971
0.0278006
0.0278086
0.0278322
0.0278788
0.027978
0.0138549
0.0137906
0.0138055
0.013799
0.0137696
0.0136838
0.0135637
0.0134378
0.0132862
0.0133083
0.00164709
0.00164601
0.00164558
0.00164583
0.00164674
0.00164826
0.00165036
0.00165291
0.0016556
0.00165803
0.00170888
0.00170899
0.00170903
0.00170903
0.00170903
0.00170901
0.00170898
0.00170895
0.00170892
0.0017088
0.0157103
0.0157743
0.0157941
0.0158007
0.0158048
0.0158078
0.0158092
0.0158054
0.0157841
0.0157144
0.0281406
0.0281506
0.0281568
0.0281588
0.0281593
0.0281592
0.0281586
0.028157
0.0281527
0.028143
0.0291439
0.029138
0.0291356
0.0291367
0.0291414
0.0291492
0.0291595
0.0291712
0.0291825
0.029189
0.0292357
0.0292272
0.0292248
0.0292264
0.0292335
0.0292454
0.029261
0.0292788
0.029296
0.0293084
0.0292688
0.0292569
0.0292522
0.0292551
0.0292658
0.0292838
0.0293084
0.029338
0.0293704
0.0294002
0.029288
0.0292655
0.0292596
0.0292638
0.0292811
0.02931
0.0293499
0.0293999
0.0294537
0.0294998
0.0279368
0.0279216
0.0279206
0.0279215
0.02792
0.0279142
0.0279085
0.0279079
0.0279162
0.0279752
0.0144231
0.0143622
0.0143811
0.0143731
0.0143372
0.0142695
0.0141735
0.0140736
0.0139449
0.0139958
0.00162146
0.00162067
0.00162036
0.00162054
0.0016212
0.00162231
0.00162381
0.00162557
0.00162735
0.00162889
0.00168165
0.00168175
0.00168178
0.00168178
0.00168178
0.00168177
0.00168175
0.00168173
0.0016817
0.00168159
0.0164046
0.0164727
0.0164931
0.0164996
0.0165035
0.0165058
0.0165064
0.0165016
0.016479
0.016405
0.0282968
0.0283064
0.0283118
0.0283137
0.0283143
0.0283144
0.0283141
0.0283128
0.0283088
0.0282993
0.0291404
0.0291369
0.0291355
0.0291362
0.0291388
0.0291432
0.029149
0.0291558
0.0291625
0.0291663
0.0292059
0.0292
0.0291981
0.0291991
0.0292039
0.0292119
0.0292223
0.0292337
0.0292445
0.0292524
0.0292254
0.0292181
0.0292151
0.0292169
0.0292234
0.029234
0.0292481
0.0292645
0.029282
0.0292993
0.029242
0.0292267
0.0292228
0.0292258
0.0292372
0.0292559
0.0292808
0.0293111
0.0293423
0.0293713
0.0281105
0.0280989
0.0281002
0.0280997
0.0280954
0.0280883
0.0280792
0.028071
0.0280654
0.0281074
0.0151176
0.0150478
0.0150704
0.0150606
0.0150315
0.0149811
0.0149086
0.0148338
0.0147288
0.0148073
0.00159377
0.00159321
0.00159299
0.00159312
0.00159359
0.00159436
0.0015954
0.00159657
0.00159771
0.00159868
0.00165252
0.00165261
0.00165264
0.00165264
0.00165264
0.00165263
0.00165261
0.0016526
0.00165257
0.00165247
0.0172258
0.0172985
0.0173192
0.0173255
0.0173295
0.0173314
0.0173313
0.0173261
0.0173026
0.0172239
0.0284614
0.0284704
0.028475
0.0284767
0.0284774
0.0284776
0.0284776
0.0284767
0.0284734
0.0284643
0.0291455
0.0291436
0.0291429
0.0291432
0.0291446
0.0291468
0.0291498
0.0291534
0.0291574
0.0291598
0.0291931
0.029189
0.0291874
0.0291881
0.0291914
0.0291969
0.0292039
0.0292116
0.0292187
0.0292242
0.0292046
0.0292
0.0291981
0.0291991
0.0292031
0.0292095
0.0292177
0.0292271
0.029237
0.0292476
0.029223
0.0292123
0.0292097
0.029212
0.0292198
0.0292323
0.0292486
0.0292678
0.029287
0.0293074
0.0283161
0.0283052
0.0283063
0.028306
0.0283027
0.0282971
0.028289
0.0282804
0.0282713
0.0283056
0.0159653
0.015888
0.0159048
0.0158986
0.0158791
0.0158446
0.0157939
0.0157413
0.0156582
0.0157595
0.00156401
0.00156363
0.00156348
0.00156357
0.00156388
0.00156441
0.00156509
0.00156584
0.00156656
0.00156716
0.00162145
0.00162153
0.00162155
0.00162155
0.00162156
0.00162155
0.00162154
0.00162152
0.0016215
0.00162141
0.0182111
0.018289
0.0183093
0.0183153
0.0183198
0.0183214
0.018321
0.0183155
0.0182916
0.0182077
0.0286285
0.0286367
0.0286405
0.0286419
0.0286426
0.028643
0.0286432
0.0286427
0.0286403
0.028632
0.0291532
0.0291523
0.0291521
0.0291523
0.0291528
0.0291537
0.029155
0.0291567
0.0291589
0.0291606
0.0291878
0.0291849
0.0291836
0.029184
0.0291862
0.02919
0.0291948
0.0291999
0.0292048
0.0292086
0.0291944
0.0291914
0.0291901
0.0291907
0.0291931
0.029197
0.0292019
0.0292074
0.0292131
0.0292198
0.0292161
0.0292086
0.0292068
0.0292085
0.0292139
0.0292225
0.0292332
0.0292456
0.0292579
0.0292732
0.0285347
0.0285244
0.0285251
0.028525
0.0285232
0.0285197
0.0285143
0.0285079
0.0284995
0.0285291
0.0170045
0.0169217
0.0169326
0.0169296
0.0169187
0.0168986
0.0168677
0.0168337
0.0167704
0.016888
0.0015322
0.00153195
0.00153185
0.00153191
0.00153212
0.00153246
0.0015329
0.00153336
0.00153379
0.00153415
0.00158851
0.00158857
0.00158859
0.0015886
0.0015886
0.00158859
0.00158858
0.00158857
0.00158855
0.00158846
0.0194147
0.0194985
0.0195201
0.0195256
0.0195285
0.0195296
0.019529
0.0195237
0.0195
0.0194106
0.0287921
0.0287992
0.0288019
0.028803
0.0288035
0.0288041
0.0288046
0.0288046
0.0288031
0.0287963
0.0291606
0.0291603
0.0291604
0.0291604
0.0291605
0.0291607
0.029161
0.0291616
0.0291627
0.0291641
0.0291847
0.0291826
0.0291816
0.0291818
0.0291832
0.0291857
0.0291888
0.0291922
0.0291955
0.0291982
0.029188
0.029186
0.0291851
0.0291854
0.0291868
0.0291891
0.0291921
0.0291952
0.0291986
0.0292029
0.0292115
0.0292063
0.029205
0.0292063
0.02921
0.0292156
0.0292226
0.0292305
0.0292383
0.0292497
0.0287487
0.0287392
0.0287396
0.0287398
0.0287391
0.0287376
0.0287349
0.0287312
0.0287248
0.0287503
0.0182922
0.0182065
0.0182111
0.0182109
0.0182078
0.0182007
0.0181881
0.0181696
0.0181246
0.0182503
0.00149844
0.00149828
0.00149821
0.00149825
0.00149838
0.00149859
0.00149886
0.00149913
0.0014994
0.0014996
0.00155391
0.00155396
0.00155398
0.00155398
0.00155398
0.00155398
0.00155397
0.00155396
0.00155393
0.00155385
0.0209193
0.0210087
0.0210312
0.0210363
0.0210373
0.0210374
0.0210366
0.0210319
0.0210095
0.0209145
0.0289436
0.0289489
0.0289505
0.028951
0.0289514
0.028952
0.0289527
0.0289532
0.0289529
0.0289485
0.0291659
0.0291659
0.0291661
0.0291661
0.029166
0.0291659
0.0291658
0.0291658
0.0291662
0.0291674
0.0291813
0.0291798
0.029179
0.029179
0.0291799
0.0291814
0.0291833
0.0291855
0.0291877
0.0291896
0.0291823
0.0291809
0.0291803
0.0291804
0.0291812
0.0291825
0.0291842
0.029186
0.0291879
0.0291905
0.0292029
0.0291995
0.0291987
0.0291995
0.0292018
0.0292053
0.0292095
0.0292142
0.0292188
0.0292269
0.0289387
0.0289306
0.0289307
0.028931
0.0289311
0.0289309
0.0289299
0.0289283
0.0289242
0.0289453
0.0199116
0.0198264
0.0198239
0.0198259
0.01983
0.0198354
0.0198408
0.0198362
0.0198109
0.0199331
0.0014629
0.0014628
0.00146276
0.00146278
0.00146286
0.00146299
0.00146315
0.00146331
0.00146348
0.00146359
0.00151785
0.00151789
0.0015179
0.0015179
0.00151789
0.00151789
0.00151789
0.00151788
0.00151787
0.00151782
0.0228579
0.0229499
0.0229697
0.0229738
0.0229746
0.0229745
0.0229736
0.0229695
0.0229496
0.0228516
0.0290708
0.0290734
0.0290738
0.0290737
0.0290739
0.0290745
0.0290754
0.0290764
0.0290773
0.0290762
0.0291685
0.0291685
0.0291686
0.0291686
0.0291686
0.0291684
0.0291683
0.0291681
0.0291682
0.0291689
0.0291772
0.0291762
0.0291756
0.0291756
0.0291761
0.0291769
0.0291781
0.0291794
0.0291808
0.0291822
0.0291769
0.0291761
0.0291757
0.0291757
0.0291761
0.0291768
0.0291777
0.0291787
0.0291797
0.0291811
0.0291888
0.0291869
0.0291864
0.0291868
0.0291881
0.02919
0.0291923
0.0291947
0.0291973
0.0292022
0.0290836
0.0290775
0.0290774
0.0290776
0.0290778
0.0290779
0.0290776
0.0290772
0.0290752
0.0290912
0.0220121
0.0219338
0.0219319
0.0219336
0.0219367
0.0219409
0.0219451
0.0219479
0.0219487
0.0220515
0.00142573
0.00142566
0.00142563
0.00142565
0.0014257
0.00142577
0.00142587
0.00142598
0.00142609
0.00142615
0.00147948
0.00147947
0.00147946
0.00147945
0.00147945
0.00147945
0.00147946
0.00147948
0.0014795
0.00147952
0.0254683
0.0255489
0.0255627
0.0255656
0.0255662
0.0255659
0.0255648
0.0255614
0.0255465
0.025458
0.0291601
0.0291598
0.0291591
0.0291586
0.0291586
0.0291591
0.02916
0.0291614
0.0291632
0.0291653
0.029169
0.029169
0.0291691
0.0291691
0.0291691
0.0291691
0.0291691
0.0291691
0.0291691
0.0291693
0.0291744
0.0291737
0.0291734
0.0291733
0.0291736
0.0291741
0.0291748
0.0291756
0.0291765
0.0291774
0.0291739
0.0291734
0.0291731
0.0291731
0.0291734
0.0291739
0.0291744
0.029175
0.0291756
0.0291763
0.0291757
0.0291747
0.0291744
0.0291747
0.0291754
0.0291764
0.0291777
0.029179
0.0291803
0.0291824
0.0291715
0.0291677
0.0291673
0.0291672
0.0291672
0.0291671
0.0291671
0.0291672
0.0291674
0.0291776
0.0249086
0.0248498
0.0248488
0.0248499
0.024852
0.0248547
0.0248575
0.0248593
0.0248595
0.0249361
0.00138615
0.0013861
0.00138608
0.00138609
0.00138612
0.00138619
0.00138626
0.00138634
0.00138642
0.00138647
0.00234378
0.00236465
0.00235444
0.00232055
0.0014107
0.00143367
0.00143103
0.00142626
0.00188748
0.0019295
0.00192035
0.00189569
0.00227449
0.00233258
0.00231304
0.00226678
0.00262194
0.00269301
0.00266099
0.00259643
0.00296325
0.00304546
0.00300529
0.00293176
0.00324508
0.00333543
0.00329318
0.0032198
0.00341241
0.00350908
0.0034691
0.00340036
0.00304377
0.00313316
0.00309442
0.00303863
0.00237483
0.00239148
0.0023567
0.0022756
0.00202756
0.00203327
0.00203439
0.00203138
0.0023551
0.00243549
0.0023357
0.00214397
0.00331131
0.00342587
0.00329547
0.0030575
0.00407574
0.0042441
0.00408532
0.0037871
0.004858
0.0050937
0.00489878
0.00452264
0.00583299
0.00615857
0.00591653
0.00543129
0.00679808
0.00721113
0.00690897
0.00631048
0.00749356
0.00799076
0.00763216
0.00693681
0.00591519
0.00635103
0.00599817
0.00540132
0.00218193
0.00221427
0.00220744
0.00217172
0.00193336
0.0019354
0.00193555
0.0019343
0.00406812
0.00404388
0.00405444
0.0041458
0.00499454
0.00497624
0.00499636
0.00510076
0.00550027
0.00552009
0.00553971
0.00558958
0.00601606
0.00606999
0.0060728
0.00603113
0.0067597
0.00685604
0.0068155
0.00663721
0.00751715
0.00763997
0.0075254
0.00718709
0.00805336
0.00821311
0.00802495
0.00752585
0.00612452
0.00626369
0.00608742
0.00560654
0.0020484
0.00206551
0.00206362
0.00204589
0.0018947
0.00189493
0.00189505
0.00189509
0.0102434
0.00996494
0.010101
0.0106159
0.0119524
0.0116187
0.0119218
0.0128157
0.0114461
0.0112653
0.0116376
0.012533
0.0110966
0.0110353
0.0114321
0.0122629
0.0112151
0.0112572
0.0116468
0.0123737
0.0114107
0.0115117
0.0118493
0.0124278
0.0113587
0.011535
0.0118041
0.0121749
0.00801981
0.00820354
0.0083261
0.00836758
0.0019572
0.00196766
0.00196864
0.00196067
0.00187282
0.00187286
0.00187289
0.00187291
0.0144937
0.0144338
0.0144619
0.0145711
0.0238483
0.0235248
0.0237127
0.0243398
0.0222539
0.0219619
0.0223146
0.0232415
0.02039
0.0202103
0.02069
0.0217976
0.0193399
0.019309
0.0198793
0.0210776
0.0185258
0.0185997
0.0191916
0.0203831
0.017336
0.0175466
0.0181006
0.0191131
0.0108828
0.0111167
0.0113575
0.0116715
0.00189397
0.00190046
0.00190193
0.00189853
0.00185481
0.00185478
0.00185477
0.00185476
0.0140893
0.0140157
0.0140062
0.0140609
0.0304136
0.0303064
0.0303321
0.0304789
0.031808
0.0315688
0.0316588
0.0320353
0.0304426
0.0301546
0.0303745
0.0310326
0.0290351
0.0288161
0.0292044
0.0301334
0.0274571
0.0273278
0.0278415
0.0289696
0.0247805
0.0248433
0.0253994
0.0264769
0.013177
0.0134076
0.0135826
0.0137438
0.00184602
0.00184995
0.00185123
0.00184988
0.00183752
0.00183747
0.00183745
0.00183744
0.0137868
0.0136961
0.0136784
0.0137327
0.0299263
0.0299289
0.0299429
0.0299684
0.0336879
0.0336906
0.0337224
0.0337809
0.0348362
0.0347889
0.0348491
0.0350048
0.0353563
0.0352699
0.0354053
0.0357321
0.0347157
0.0346002
0.0348313
0.0353654
0.031105
0.0311338
0.0314445
0.0320103
0.0133192
0.0135948
0.0136552
0.0135481
0.00180765
0.00181005
0.001811
0.00181049
0.00181958
0.00181953
0.0018195
0.00181949
0.0138657
0.0137686
0.0137484
0.0138039
0.0286329
0.0286258
0.0286284
0.0286411
0.0317699
0.0317953
0.0318121
0.0318207
0.0333272
0.0333714
0.0334034
0.0334246
0.0350618
0.0351332
0.0351934
0.0352444
0.0359256
0.0359878
0.0360724
0.0361805
0.0326267
0.0327817
0.0329069
0.033006
0.0123954
0.0126503
0.01269
0.0125517
0.0017748
0.00177631
0.00177695
0.00177672
0.00180052
0.00180045
0.00180042
0.00180042
0.0141245
0.0140241
0.014003
0.0140597
0.0280733
0.0280603
0.0280587
0.0280688
0.0303492
0.0303566
0.0303612
0.0303632
0.0312881
0.0313085
0.0313206
0.0313249
0.032565
0.0326204
0.0326507
0.0326576
0.0334982
0.0335746
0.0336169
0.0336301
0.0307773
0.0309421
0.0310091
0.0309864
0.0119603
0.0121837
0.0122248
0.0121035
0.00174469
0.00174571
0.00174612
0.00174594
0.00178007
0.00178
0.00177997
0.00177997
0.0144823
0.014379
0.0143572
0.0144152
0.0279249
0.0279113
0.0279089
0.027918
0.02968
0.0296806
0.0296813
0.0296819
0.0301847
0.0301892
0.030192
0.0301932
0.0308868
0.0309084
0.0309199
0.0309215
0.0314177
0.031449
0.031466
0.0314702
0.0290444
0.029152
0.0291908
0.0291623
0.0120353
0.0122537
0.0122949
0.0121728
0.0017158
0.00171654
0.0017168
0.00171662
0.00175809
0.00175801
0.00175798
0.00175798
0.0149172
0.0148107
0.0147881
0.0148477
0.0279503
0.0279371
0.0279347
0.0279433
0.0293824
0.0293816
0.0293814
0.0293818
0.0296676
0.0296679
0.0296682
0.0296684
0.0300366
0.0300447
0.0300488
0.0300489
0.0303031
0.0303124
0.0303179
0.0303199
0.0281874
0.0282602
0.0282838
0.0282578
0.0124005
0.0126305
0.0126729
0.0125414
0.00168726
0.00168784
0.001688
0.00168781
0.00173446
0.00173437
0.00173434
0.00173435
0.0154289
0.0153187
0.0152951
0.0153565
0.0280504
0.0280381
0.0280358
0.0280438
0.0292495
0.0292486
0.0292484
0.0292488
0.0294252
0.0294248
0.0294246
0.0294246
0.0296191
0.0296229
0.0296246
0.0296243
0.0297571
0.0297599
0.0297616
0.0297623
0.0278909
0.0279483
0.0279652
0.0279409
0.0129418
0.013191
0.0132363
0.0130926
0.00165852
0.001659
0.0016591
0.0016589
0.00170908
0.00170899
0.00170896
0.00170897
0.0160275
0.0159128
0.0158881
0.0159517
0.0281854
0.0281737
0.0281715
0.0281789
0.0291914
0.0291905
0.0291903
0.0291908
0.0293095
0.0293092
0.029309
0.0293089
0.0294116
0.0294138
0.0294147
0.0294143
0.0294929
0.0294943
0.029495
0.0294951
0.0278843
0.0279341
0.0279479
0.0279254
0.0136152
0.0138875
0.0139367
0.0137794
0.00162914
0.00162955
0.00162962
0.00162942
0.00168188
0.00168178
0.00168174
0.00168176
0.0167307
0.0166107
0.0165846
0.0166506
0.0283375
0.0283267
0.0283245
0.0283312
0.029168
0.0291672
0.0291671
0.0291675
0.0292532
0.029253
0.0292528
0.0292527
0.0293069
0.0293084
0.029309
0.0293087
0.0293662
0.0293675
0.029368
0.0293677
0.0280233
0.0280678
0.0280799
0.0280593
0.0144127
0.014711
0.0147646
0.0145923
0.00159879
0.00159915
0.00159919
0.00159899
0.00165277
0.00165267
0.00165263
0.00165265
0.0175645
0.0174378
0.0174099
0.017479
0.0284978
0.0284879
0.0284858
0.0284918
0.029161
0.0291604
0.0291603
0.0291607
0.0292248
0.0292247
0.0292246
0.0292244
0.0292531
0.0292542
0.0292545
0.0292542
0.0293054
0.0293068
0.0293073
0.0293068
0.0282324
0.0282726
0.0282832
0.0282643
0.0153488
0.015676
0.0157343
0.0155452
0.00156718
0.0015675
0.00156753
0.00156734
0.00162172
0.00162161
0.00162157
0.0016216
0.0185661
0.0184311
0.0184009
0.0184737
0.0286604
0.0286515
0.0286495
0.0286548
0.0291615
0.0291611
0.029161
0.0291614
0.0292091
0.0292091
0.029209
0.0292089
0.0292238
0.0292246
0.0292248
0.0292245
0.0292739
0.0292755
0.0292759
0.0292753
0.0284695
0.0285055
0.0285147
0.0284974
0.016457
0.0168161
0.0168792
0.0166714
0.00153413
0.00153441
0.00153443
0.00153426
0.0015888
0.00158867
0.00158863
0.00158867
0.0197902
0.0196441
0.0196107
0.0196882
0.0288189
0.0288112
0.0288094
0.0288139
0.0291648
0.0291645
0.0291645
0.0291647
0.0291987
0.0291987
0.0291987
0.0291986
0.0292057
0.0292062
0.0292063
0.0292061
0.0292523
0.0292539
0.0292543
0.0292535
0.0287067
0.0287384
0.0287461
0.0287302
0.0177915
0.0181847
0.0182521
0.0180242
0.00149956
0.0014998
0.00149981
0.00149966
0.00155422
0.00155409
0.00155405
0.0015541
0.0213172
0.0211555
0.0211177
0.0212017
0.0289668
0.0289608
0.0289593
0.0289627
0.0291678
0.0291677
0.0291677
0.0291678
0.0291902
0.0291903
0.0291903
0.0291902
0.0291923
0.0291926
0.0291927
0.0291925
0.0292303
0.0292316
0.029232
0.0292313
0.0289193
0.0289465
0.0289525
0.0289378
0.0194314
0.0198544
0.0199244
0.0196786
0.00146356
0.00146375
0.00146376
0.00146365
0.00151822
0.0015181
0.00151807
0.00151812
0.0232726
0.0230883
0.0230448
0.0231386
0.0290912
0.0290873
0.0290863
0.0290884
0.029169
0.029169
0.029169
0.029169
0.0291827
0.0291828
0.0291829
0.0291829
0.029182
0.0291821
0.0291821
0.0291821
0.029205
0.029206
0.0292063
0.0292057
0.0290824
0.029104
0.029108
0.0290954
0.0215208
0.0219731
0.0220401
0.0217725
0.00142624
0.0014264
0.00142641
0.00142632
0.00147997
0.00147987
0.00147986
0.00147992
0.0258505
0.0256417
0.025596
0.0257033
0.0291753
0.0291736
0.029173
0.0291739
0.0291687
0.0291686
0.0291686
0.0291686
0.0291778
0.0291778
0.0291779
0.029178
0.0291765
0.0291765
0.0291765
0.0291765
0.0291836
0.029184
0.0291841
0.029184
0.0291796
0.0291919
0.0291937
0.029186
0.0244725
0.0248974
0.024947
0.0246875
0.00138684
0.00138697
0.00138697
0.00138688
0.00215532
0.00203883
0.00197447
0.00194197
0.00192286
0.00191049
0.00190233
0.00189715
0.00189382
0.00189153
0.00174884
0.00158667
0.00477264
0.00942943
0.013935
0.0171166
0.0186207
0.0187649
0.0181269
0.0171817
0.00236602
0.00258201
0.0073358
0.0155597
0.0249548
0.0330661
0.0390414
0.0428342
0.0447004
0.0450786
0.00277126
0.0036112
0.00830016
0.0178452
0.02916
0.0385038
0.0449713
0.0486929
0.0501206
0.049903
0.0030797
0.00394763
0.00872438
0.0193472
0.032076
0.0419513
0.0481304
0.050976
0.051283
0.0500628
0.00339121
0.00407463
0.0089419
0.0204157
0.0342602
0.0443029
0.0498771
0.0516606
0.050878
0.0488315
0.00363265
0.00408623
0.00896935
0.0211666
0.0358957
0.0457565
0.050432
0.0510545
0.0493221
0.0467841
0.00371049
0.0038187