/*--------------------------------*- C++ -*----------------------------------*\
| =========                 |                                                 |
| \\      /  F ield         | foam-extend: Open Source CFD                    |
|  \\    /   O peration     | Version:     4.0                                |
|   \\  /    A nd           | Web:         http://www.foam-extend.org         |
|    \\/     M anipulation  |                                                 |
\*---------------------------------------------------------------------------*/
FoamFile
{
    version     2.0;
    format      ascii;
    class       volScalarField;
    location    "1300";
    object      k;
}
// * * * * * * * * * * * * * * * * * * * * * * * * * * * * * * * * * * * * * //

dimensions      [0 2 -2 0 0 0 0];

internalField   nonuniform List<scalar> 
34480
(
8.76625
8.76381
8.76366
8.76545
8.76932
8.77555
8.79052
8.85362
9.07561
9.68343
9.25849
8.64885
8.55658
8.83626
9.43535
10.3238
11.9271
15.8467
28.7424
67.0248
14.9858
13.5217
13.0787
13.2297
13.8027
14.8402
17.183
22.8958
41.654
101.443
14.4398
12.9174
12.4701
12.6668
13.3788
14.7959
17.9737
25.3902
49.2697
127.838
13.3851
11.9735
11.6245
11.8928
12.7445
14.455
18.2265
26.9343
55.2852
151.635
12.1856
10.9152
10.6041
10.8865
11.7776
13.6701
17.9108
27.8781
61.0679
176.702
11.2995
10.1813
9.92749
10.2027
11.097
13.0612
17.5607
28.3937
65.5123
198.021
9.82065
8.98566
8.78139
8.9972
9.70931
11.3785
15.4702
26.1017
64.5239
205.541
6.87596
6.60769
6.55914
6.66904
6.99818
7.72273
9.72169
16.2618
43.3848
149.562
9.23765
9.23792
9.24379
9.25666
9.27477
9.29638
9.32225
9.36062
9.43138
9.50394
8.67776
8.67471
8.6741
8.67588
8.6807
8.68918
8.70251
8.73345
8.80752
9.06581
7.91554
7.49644
7.40304
7.56068
8.00747
8.85061
10.2945
12.101
15.429
41.1797
12.1971
11.137
10.8459
11.0505
11.7305
12.994
15.1963
18.1073
23.7929
66.4467
12.1018
10.9361
10.6184
10.8627
11.6681
13.2191
16.0012
19.9913
28.3935
86.2385
11.5666
10.4348
10.1686
10.445
11.3368
13.0767
16.2637
21.0465
31.8408
104.371
10.7798
9.73088
9.47581
9.74944
10.6461
12.47
15.9359
21.4249
34.8321
123.782
10.1943
9.243
9.02583
9.2789
10.1503
11.9751
15.5775
21.5204
37.0971
141.014
9.0399
8.31847
8.13443
8.32552
9.00162
10.4963
13.6395
19.2594
35.6875
147.378
6.6398
6.39253
6.33835
6.41233
6.67645
7.26088
8.60573
11.5514
22.4784
102.379
9.11038
9.1057
9.10627
9.11346
9.12611
9.14199
9.16284
9.1984
9.27119
9.45605
8.57614
8.57321
8.57227
8.57326
8.57647
8.58157
8.58745
8.60033
8.62906
8.69453
6.77381
6.56206
6.5077
6.5836
6.81504
7.26276
8.05918
9.35637
11.1367
16.4413
9.66687
9.04724
8.8939
9.06209
9.58245
10.5391
12.1581
14.5603
17.5495
29.1899
9.86396
9.1265
8.94113
9.1554
9.81468
11.0706
13.2646
16.6254
21.1132
40.7829
9.73749
8.9827
8.8197
9.05637
9.79384
11.236
13.8381
17.9184
23.7732
52.2883
9.31331
8.58605
8.41833
8.65582
9.40853
10.9516
13.8631
18.5935
26.0155
64.9498
9.00151
8.31704
8.17048
8.39246
9.132
10.6967
13.7773
18.9293
27.7348
76.9743
8.18529
7.65686
7.52744
7.6973
8.27073
9.55037
12.2522
17.1402
26.6379
82.9109
6.36976
6.17747
6.1376
6.19835
6.40878
6.87104
7.91829
10.3597
16.6899
57.107
8.99078
8.98304
8.98053
8.98444
8.99403
9.00721
9.02512
9.05854
9.13715
9.33697
8.46075
8.45888
8.45832
8.45911
8.46134
8.46426
8.46557
8.46894
8.47785
8.49717
6.00349
5.91215
5.88466
5.91553
6.01597
6.2093
6.5475
7.13168
7.99862
9.8851
7.79399
7.48074
7.40734
7.50307
7.8051
8.36936
9.32377
10.8172
12.662
17.0807
8.10907
7.691
7.58675
7.72437
8.15047
8.97305
10.4084
12.7177
15.6005
23.5649
8.23303
7.77381
7.67642
7.83416
8.33173
9.31841
11.105
14.071
17.8831
30.1421
8.07218
7.60318
7.49314
7.65978
8.18823
9.28549
11.3695
14.9785
19.859
37.6601
7.96601
7.50113
7.40125
7.56229
8.09783
9.24104
11.5044
15.5577
21.3581
44.9867
7.43862
7.06792
6.97568
7.10372
7.52645
8.47038
10.4659
14.3655
20.6418
48.7907
6.12871
5.98163
5.95168
5.9975
6.15453
6.49216
7.21967
8.97877
12.9742
33.0443
8.85685
8.84906
8.84624
8.84961
8.8587
8.8724
8.89116
8.92495
8.99798
9.15376
8.33316
8.33226
8.33204
8.33255
8.33379
8.33482
8.33329
8.33192
8.33184
8.33392
5.53471
5.49965
5.48618
5.4961
5.53254
5.60189
5.71826
5.91181
6.18143
6.62467
6.55761
6.41893
6.38748
6.42793
6.56485
6.82436
7.26602
7.98163
8.88463
10.3632
6.86269
6.64493
6.58765
6.6585
6.8859
7.32903
8.10548
9.40457
11.0501
14.0283
7.09312
6.83231
6.77534
6.86264
7.1479
7.71578
8.7485
10.5529
12.8883
17.7872
7.08993
6.80241
6.73024
6.83057
7.15377
7.82523
9.10411
11.4549
14.6133
22.2486
7.11437
6.81079
6.7423
6.84397
7.18801
7.9185
9.36125
12.1192
15.9782
26.6634
6.80921
6.55707
6.49079
6.57661
6.85795
7.47789
8.76929
11.4641
15.6859
29.0272
5.9162
5.80519
5.7824
5.81412
5.92485
6.15689
6.62645
7.73665
10.1012
19.2443
8.71338
8.70569
8.70267
8.70553
8.71398
8.72747
8.74587
8.77722
8.83864
8.95112
8.19425
8.19411
8.19416
8.19445
8.19498
8.19473
8.19227
8.18971
8.18753
8.18617
5.26866
5.25672
5.25007
5.25235
5.26384
5.28608
5.32234
5.37837
5.44957
5.53978
5.80472
5.75227
5.74194
5.75547
5.80694
5.90473
6.06917
6.33531
6.67899
7.14401
6.03764
5.93276
5.90333
5.93589
6.04436
6.25341
6.61158
7.2106
7.99289
9.11348
6.27698
6.13914
6.1087
6.15238
6.30063
6.59048
7.10574
8.0179
9.24183
11.2112
6.34669
6.18011
6.13548
6.19162
6.37438
6.74645
7.4376
8.73563
10.542
13.8138
6.43808
6.24928
6.20516
6.26516
6.472
6.90047
7.72144
9.33361
11.6526
16.4039
6.29076
6.12731
6.08235
6.13716
6.31446
6.69459
7.45441
9.07086
11.6553
17.7775
5.7312
5.64991
5.63366
5.65493
5.73098
5.88602
6.18106
6.83276
8.09776
11.8477
8.55946
8.55214
8.54912
8.55158
8.55932
8.57203
8.58931
8.61709
8.66505
8.73979
8.04461
8.04499
8.04523
8.04537
8.04543
8.04435
8.04204
8.03956
8.03731
8.03562
5.12559
5.12175
5.11804
5.11798
5.12099
5.12763
5.13827
5.15359
5.17091
5.18722
5.37333
5.35752
5.35613
5.35906
5.37441
5.40426
5.45449
5.53442
5.63601
5.75374
5.52356
5.47557
5.46108
5.4749
5.52323
5.61446
5.76424
6.0035
6.31252
6.68496
5.72412
5.6556
5.6408
5.66082
5.7326
5.86892
6.10076
6.49754
7.03476
7.7558
5.8126
5.7206
5.69435
5.72392
5.82155
6.01453
6.35665
6.9815
7.86998
9.19373
5.92652
5.81397
5.78709
5.82034
5.93857
6.1757
6.60743
7.43568
8.65501
10.6682
5.88234
5.78137
5.75241
5.78571
5.89205
6.11343
6.53298
7.39835
8.80299
11.4763
5.57671
5.51863
5.50765
5.52135
5.57223
5.67326
5.85635
6.22817
6.88826
8.3264
8.39452
8.38781
8.38493
8.38704
8.39397
8.40538
8.42088
8.44454
8.48107
8.53035
7.88458
7.88529
7.88564
7.88569
7.88546
7.88418
7.88231
7.88032
7.87853
7.87716
5.05132
5.04975
5.04732
5.04679
5.04748
5.04967
5.05297
5.0574
5.06175
5.06437
5.13641
5.13408
5.13572
5.13534
5.13781
5.14367
5.15487
5.17377
5.19788
5.22184
5.21799
5.19647
5.18942
5.19504
5.21599
5.25472
5.31545
5.40597
5.51712
5.62957
5.36635
5.33412
5.32772
5.33619
5.36922
5.43008
5.52874
5.68717
5.89494
6.13045
5.44581
5.39715
5.38242
5.3973
5.44735
5.54338
5.7052
5.98248
6.36999
6.86046
5.55628
5.49166
5.4762
5.49363
5.55871
5.68512
5.90291
6.29547
6.86563
7.65229
5.57382
5.51468
5.49708
5.51644
5.57731
5.70077
5.92369
6.35537
7.04608
8.13922
5.45259
5.4119
5.40492
5.41349
5.44695
5.51175
5.62485
5.83554
6.1836
6.75887
8.21805
8.21213
8.20951
8.2113
8.21731
8.2271
8.24042
8.25978
8.28695
8.31986
7.71424
7.71515
7.71556
7.71557
7.71518
7.71406
7.71268
7.71121
7.70992
7.7089
5.01314
5.01198
5.01018
5.00972
5.01002
5.01112
5.01258
5.01436
5.01586
5.01623
5.01061
5.01226
5.01445
5.01344
5.01223
5.01115
5.0111
5.01299
5.01649
5.01951
5.04389
5.034
5.03045
5.03273
5.04192
5.05865
5.08383
5.11885
5.15926
5.19335
5.14442
5.12994
5.12758
5.13088
5.14554
5.17189
5.21294
5.27448
5.35126
5.42458
5.20473
5.17999
5.17205
5.17927
5.20414
5.25066
5.32584
5.44559
5.60645
5.78106
5.29976
5.26378
5.25536
5.26406
5.29893
5.3648
5.47308
5.65387
5.9056
6.19602
5.35058
5.31803
5.30803
5.31883
5.35201
5.41798
5.5331
5.74095
6.06277
6.49448
5.35674
5.32859
5.32446
5.32974
5.35162
5.393
5.46285
5.58264
5.7677
6.02067
8.02962
8.02461
8.02235
8.02383
8.02887
8.03688
8.04787
8.06311
8.0828
8.10468
7.53372
7.53456
7.53502
7.53499
7.53456
7.53377
7.5328
7.53178
7.53088
7.53014
4.9928
4.99175
4.99035
4.99005
4.9904
4.99123
4.99227
4.99345
4.99444
4.99458
4.94565
4.94791
4.94979
4.94895
4.94724
4.94494
4.94265
4.94092
4.94005
4.9394
4.94881
4.94387
4.94195
4.94293
4.94719
4.95486
4.96603
4.98065
4.99664
5.00805
5.01236
5.006
5.00531
5.0065
5.01293
5.02429
5.04144
5.06563
5.09428
5.118
5.05314
5.04099
5.03686
5.04028
5.05236
5.07448
5.10917
5.16093
5.22778
5.29286
5.12967
5.10999
5.10563
5.10984
5.12829
5.1623
5.21619
5.29986
5.41054
5.51989
5.19596
5.17944
5.17425
5.18006
5.19718
5.23075
5.28822
5.38595
5.53197
5.70767
5.28556
5.26612
5.2639
5.26722
5.28168
5.30836
5.35172
5.42049
5.51889
5.63984
7.82894
7.8249
7.82304
7.82423
7.82827
7.83455
7.84326
7.85482
7.86871
7.88302
7.3428
7.34348
7.3439
7.34386
7.34357
7.34303
7.34237
7.34168
7.34109
7.34052
4.98097
4.98007
4.97902
4.97885
4.9792
4.97991
4.9808
4.98179
4.98268
4.98282
4.91281
4.91471
4.91613
4.91559
4.91424
4.91232
4.91026
4.90844
4.90726
4.90648
4.89917
4.89639
4.89527
4.89573
4.89789
4.90173
4.90716
4.91398
4.92121
4.92566
4.93707
4.93416
4.93401
4.93442
4.93735
4.94249
4.95003
4.9601
4.97139
4.97992
4.96212
4.95631
4.95421
4.95583
4.96162
4.97203
4.98798
5.01057
5.03885
5.06538
5.02184
5.01104
5.00886
5.01092
5.02077
5.03852
5.06575
5.10546
5.15522
5.19945
5.09355
5.08612
5.0838
5.08684
5.09508
5.11112
5.13835
5.18277
5.24682
5.32304
5.23459
5.22105
5.22003
5.22225
5.23209
5.24971
5.27696
5.31709
5.36928
5.43091
7.61584
7.61273
7.61129
7.6122
7.6153
7.62004
7.62668
7.63512
7.64465
7.65384
7.14125
7.14181
7.14214
7.14212
7.14194
7.14159
7.14115
7.1407
7.14031
7.13986
4.9731
4.97239
4.97167
4.97157
4.97189
4.97248
4.97322
4.97405
4.97487
4.97498
4.89638
4.89781
4.89882
4.89854
4.89764
4.89636
4.89497
4.89373
4.89301
4.89258
4.87454
4.87283
4.87214
4.87239
4.87356
4.87561
4.87848
4.882
4.88574
4.88781
4.89604
4.89447
4.89439
4.89456
4.89607
4.89872
4.90248
4.90725
4.9123
4.91602
4.91007
4.90734
4.90628
4.90706
4.90983
4.91472
4.92206
4.93206
4.9443
4.95629
4.95651
4.95038
4.94929
4.9504
4.95587
4.9655
4.97976
4.99949
5.02285
5.04266
5.02857
5.02597
5.02526
5.02682
5.0304
5.03736
5.04915
5.06807
5.09416
5.1298
5.19917
5.18957
5.18925
5.19091
5.19792
5.20994
5.22747
5.25143
5.27905
5.31244
7.39027
7.38801
7.38695
7.38763
7.38987
7.39334
7.3982
7.40415
7.41049
7.41628
6.92885
6.92931
6.92957
6.92957
6.92947
6.92924
6.92896
6.92866
6.92841
6.92803
4.96708
4.9666
4.96614
4.9661
4.96635
4.9668
4.96739
4.96805
4.96879
4.96881
4.88815
4.88921
4.88991
4.8898
4.88927
4.88852
4.88771
4.887
4.88673
4.88659
4.86308
4.86202
4.86162
4.86176
4.86239
4.86349
4.86502
4.86691
4.86904
4.87016
4.87473
4.87368
4.87352
4.87362
4.87456
4.87621
4.87848
4.8812
4.88394
4.88606
4.88184
4.88053
4.87999
4.88038
4.88173
4.88406
4.88747
4.89197
4.89742
4.9035
4.91863
4.9149
4.91433
4.91504
4.91831
4.92389
4.93184
4.94236
4.95414
4.96435
4.98882
4.98854
4.98868
4.98949
4.99077
4.99327
4.99746
5.00447
5.01325
5.0316
5.17498
5.16801
5.16809
5.16948
5.17475
5.18324
5.19487
5.20964
5.22418
5.24368
7.15226
7.15073
7.15002
7.15049
7.152
7.1545
7.15793
7.16196
7.16603
7.16961
6.70544
6.70584
6.70603
6.70604
6.70599
6.70585
6.70567
6.70548
6.7053
6.70497
4.96196
4.96172
4.96148
4.96148
4.96166
4.96198
4.9624
4.9629
4.96358
4.9635
4.88395
4.88475
4.88523
4.88522
4.88495
4.88457
4.88418
4.88386
4.8839
4.88396
4.85831
4.85769
4.85751
4.85757
4.85787
4.8584
4.85914
4.86012
4.86136
4.86205
4.8643
4.86346
4.86322
4.8633
4.86398
4.86518
4.86678
4.86862
4.87041
4.87191
4.8674
4.86674
4.86645
4.86665
4.86732
4.86848
4.8701
4.87219
4.8747
4.87814
4.89743
4.89497
4.89462
4.89517
4.8973
4.90082
4.90561
4.91173
4.91826
4.92454
4.96484
4.96552
4.96606
4.9665
4.96675
4.96721
4.96794
4.96963
4.97077
4.98153
5.15826
5.15317
5.15346
5.15474
5.15881
5.16508
5.1731
5.18255
5.19004
5.20255
6.90209
6.90104
6.90061
6.90091
6.90194
6.90367
6.90597
6.90859
6.9111
6.91327
6.47096
6.4713
6.47145
6.47146
6.47144
6.47135
6.47123
6.47111
6.47099
6.47069
4.95734
4.95734
4.95726
4.95731
4.95743
4.95763
4.9579
4.95825
4.95891
4.95874
4.88169
4.88232
4.88263
4.88267
4.88257
4.88244
4.88233
4.88228
4.88254
4.88274
4.85682
4.85652
4.85647
4.85649
4.85659
4.85675
4.85701
4.85744
4.85814
4.85862
4.85959
4.85889
4.8586
4.85866
4.85919
4.86011
4.86132
4.86268
4.86398
4.86516
4.86055
4.86016
4.85998
4.86008
4.86045
4.86105
4.86187
4.86289
4.86411
4.86624
4.8857
4.88394
4.88369
4.88415
4.88564
4.88803
4.89115
4.89501
4.89899
4.90348
4.94976
4.95069
4.95139
4.95165
4.95152
4.9512
4.95055
4.95012
4.94815
4.95547
5.14613
5.14238
5.14282
5.14401
5.14727
5.15208
5.15785
5.16416
5.16775
5.1766
6.63997
6.63928
6.639
6.63921
6.6399
6.64102
6.6425
6.64411
6.64558
6.64687
6.22546
6.22576
6.22586
6.22588
6.22587
6.22582
6.22575
6.22566
6.22558
6.22529
4.95305
4.95329
4.95333
4.95343
4.9535
4.95359
4.95373
4.95396
4.95463
4.95442
4.88033
4.88082
4.881
4.88104
4.88104
4.88108
4.88115
4.88128
4.88169
4.88205
4.85688
4.85679
4.85682
4.85682
4.85679
4.85674
4.85673
4.85683
4.85719
4.85759
4.85776
4.85718
4.85689
4.85693
4.85732
4.85802
4.85893
4.85994
4.86091
4.86185
4.85767
4.85739
4.85726
4.85731
4.85751
4.85786
4.85831
4.85884
4.85946
4.86085
4.87883
4.87752
4.87732
4.87769
4.87876
4.88043
4.88255
4.8851
4.88769
4.89119
4.93883
4.93964
4.94034
4.94053
4.94033
4.93984
4.93885
4.9378
4.93484
4.94048
5.13636
5.13363
5.13414
5.13528
5.13795
5.14176
5.14607
5.15044
5.15179
5.15856
6.36622
6.3658
6.36563
6.36576
6.36619
6.36688
6.36778
6.36871
6.36949
6.37025
5.96924
5.96949
5.96958
5.9696
5.96959
5.96956
5.96951
5.96945
5.96938
5.96912
4.94898
4.94943
4.94956
4.9497
4.94975
4.94976
4.94978
4.9499
4.9506
4.95046
4.87927
4.87961
4.87966
4.87969
4.87975
4.87988
4.88006
4.8803
4.8808
4.88136
4.85762
4.85762
4.85768
4.85766
4.85758
4.85744
4.8573
4.85724
4.85739
4.85777
4.8573
4.85684
4.85659
4.85661
4.85688
4.85736
4.858
4.85872
4.85943
4.86017
4.85678
4.85656
4.85646
4.85647
4.85659
4.85679
4.85704
4.85732
4.85765
4.85856
4.87397
4.87299
4.87281
4.87308
4.87383
4.87497
4.87639
4.87806
4.87977
4.88252
4.92877
4.92932
4.92994
4.9301
4.92996
4.92954
4.92865
4.92762
4.92467
4.92931
5.12699
5.12507
5.12559
5.12667
5.12888
5.13195
5.13526
5.13834
5.13835
5.1437
6.08138
6.08114
6.08105
6.08113
6.08138
6.08177
6.08227
6.08275
6.08313
6.08354
5.70294
5.70316
5.70322
5.70324
5.70324
5.70322
5.70318
5.70313
5.70307
5.70283
4.94483
4.94544
4.94566
4.94584
4.94588
4.94584
4.94576
4.94575
4.94643
4.9465
4.87812
4.87825
4.87821
4.8782
4.87828
4.87844
4.87868
4.87897
4.87949
4.88028
4.85847
4.85847
4.85851
4.85849
4.8584
4.85826
4.85811
4.858
4.85804
4.85841
4.85747
4.85712
4.85694
4.85693
4.8571
4.85741
4.85781
4.85827
4.85876
4.85931
4.85688
4.85673
4.85665
4.85664
4.8567
4.8568
4.85692
4.85705
4.8572
4.85775
4.86939
4.86868
4.86854
4.8687
4.86917
4.86987
4.87073
4.87173
4.8728
4.87484
4.91747
4.91774
4.91821
4.91834
4.91824
4.91792
4.91722
4.91639
4.91395
4.91772
5.11528
5.11405
5.11453
5.1155
5.11729
5.11971
5.12222
5.12431
5.12351
5.12761
5.78629
5.78617
5.78612
5.78616
5.78629
5.78648
5.78673
5.78695
5.7871
5.78731
5.42741
5.42758
5.42762
5.42764
5.42764
5.42762
5.4276
5.42756
5.42751
5.42732
4.93921
4.93985
4.94024
4.94049
4.94054
4.94044
4.94025
4.94007
4.94044
4.9409
4.87655
4.87642
4.8763
4.87625
4.87631
4.87646
4.87669
4.877
4.87747
4.87844
4.85902
4.85896
4.85897
4.85894
4.85888
4.85878
4.85868
4.85861
4.85862
4.85894
4.85798
4.85775
4.85763
4.85762
4.85771
4.85788
4.8581
4.85837
4.85866
4.85903
4.85754
4.85744
4.85739
4.85738
4.85739
4.85742
4.85745
4.85748
4.85753
4.85779
4.8645
4.86407
4.86396
4.86404
4.86427
4.86462
4.86504
4.86552
4.8661
4.86742
4.90372
4.90374
4.90403
4.90408
4.90394
4.90362
4.90308
4.90243
4.90082
4.90362
5.09417
5.09351
5.09392
5.09472
5.09605
5.09781
5.09958
5.10079
5.09957
5.10221
5.48195
5.48189
5.48188
5.48189
5.48193
5.48199
5.48207
5.48213
5.48218
5.48227
5.14244
5.14255
5.14256
5.14256
5.14256
5.14256
5.14255
5.14254
5.14254
5.14244
4.92449
4.92509
4.92574
4.92608
4.92617
4.92604
4.92573
4.92528
4.92482
4.92536
4.87351
4.87314
4.87293
4.87283
4.87285
4.87296
4.87317
4.87347
4.87391
4.87488
4.85933
4.85926
4.85924
4.85922
4.85919
4.85915
4.85912
4.85909
4.85911
4.85929
4.85886
4.85874
4.85868
4.85868
4.85871
4.85879
4.8589
4.85902
4.85917
4.85937
4.8586
4.85857
4.85854
4.85853
4.85852
4.85852
4.85851
4.85849
4.85849
4.85856
4.86073
4.86054
4.86049
4.86051
4.8606
4.86073
4.86087
4.86103
4.86125
4.86185
4.887
4.88682
4.88687
4.88682
4.88663
4.88632
4.88591
4.88549
4.88493
4.88674
5.04033
5.04007
5.04033
5.04084
5.04163
5.04265
5.04366
5.04419
5.04314
5.04405
5.1684
5.16837
5.16837
5.16838
5.16838
5.16838
5.16838
5.16837
5.16835
5.16841
11.2649
11.3798
11.3343
11.118
82.8042
84.8753
85.3336
85.9836
143.15
148.612
149.078
147.829
202.795
212.213
212.075
207.777
264.434
278.069
276.859
269.39
332.654
350.897
348.797
340.058
394.936
417.537
415.151
407.755
432.827
459.033
457.078
452.486
345.289
367.802
365.251
363.883
11.4726
11.7108
11.5551
11.1484
9.71164
9.77092
9.77376
9.72979
76.0818
79.3135
80.0729
80.1938
133.922
144.821
145.918
143.743
192.949
214.544
215.068
209.152
256.166
290.957
289.991
280.011
329.48
380.155
378.381
365.492
399.462
466.362
465.394
452.338
445.797
527.126
528.165
516.939
350.151
422.345
420.452
415.584
10.7083
10.9386
10.8683
10.6483
8.77588
8.78881
8.78781
8.77633
26.538
28.9517
28.2133
25.7042
49.3666
53.7686
52.1007
47.4229
74.6005
81.3518
78.2246
70.7017
103.481
113.006
107.815
96.7219
139.464
152.804
145.168
129.262
177.302
194.631
184.463
163.428
207.455
228.582
216.317
190.776
164.609
181.453
169.978
149.15
9.91071
10.0013
9.97816
9.87911
8.51126
8.51379
8.51445
8.5135
11.4764
11.7253
11.6951
11.4974
21.2197
21.9458
21.8808
21.3368
32.0065
33.4907
33.2356
31.9172
44.5231
46.9512
46.2817
43.7554
60.6493
64.4086
63.0811
58.7598
78.0634
83.1618
80.8851
74.4357
92.5603
99.0905
95.7935
87.0985
71.9022
77.0231
73.5073
65.9095
9.44702
9.49137
9.4883
9.44796
8.33236
8.33344
8.33369
8.33306
7.04526
7.13673
7.16176
7.13166
11.6839
11.9799
12.0623
11.9756
16.878
17.4915
17.5908
17.323
22.8443
23.862
23.8957
23.2903
30.7215
32.3426
32.2264
31.0357
39.228
41.4561
41.0335
39.0522
46.2562
49.1825
48.3599
45.3789
34.3894
36.5987
35.4055
32.5276
9.09692
9.12081
9.12242
9.10551
8.18207
8.18297
8.18306
8.18231
5.60891
5.62313
5.62828
5.62646
7.46012
7.5298
7.56221
7.56326
9.94223
10.1253
10.1919
10.1664
12.8384
13.1829
13.2681
13.167
16.8006
17.4148
17.5029
17.2346
21.0475
21.9405
21.9613
21.4317
24.4748
25.7212
25.6167
24.6807
17.4754
18.3645
18.0084
17.0063
8.81153
8.82341
8.82577
8.81965
8.03124
8.03212
8.03218
8.03141
5.19823
5.20136
5.20219
5.20117
5.82542
5.84097
5.84941
5.85149
6.917
6.96934
6.99409
6.99499
8.26152
8.37279
8.41642
8.40649
10.2357
10.4617
10.5305
10.4816
12.3586
12.7038
12.7726
12.6535
14.05
14.5661
14.611
14.3474
10.2185
10.552
10.4725
10.1823
8.5642
8.56966
8.57173
8.57034
7.87299
7.87385
7.87392
7.87317
5.06399
5.0651
5.06507
5.06411
5.23424
5.23641
5.2377
5.23828
5.68537
5.6973
5.70354
5.70479
6.26675
6.29637
6.31044
6.31183
7.19485
7.26926
7.29919
7.29343
8.21485
8.33406
8.37293
8.35439
9.0662
9.26428
9.30771
9.24284
7.33661
7.44773
7.44104
7.37552
8.33627
8.33854
8.34
8.34023
7.705
7.70581
7.70588
7.70518
5.01375
5.01464
5.01455
5.01361
5.02081
5.02079
5.02074
5.02072
5.20501
5.20703
5.20809
5.20836
5.4558
5.4619
5.46514
5.46616
5.88078
5.90293
5.91297
5.9128
6.35819
6.39281
6.40745
6.40782
6.80466
6.87432
6.89605
6.88174
6.19669
6.22964
6.23355
6.22332
8.11312
8.1139
8.11479
8.11536
7.52651
7.52728
7.52734
7.52669
4.99161
4.99244
4.99237
4.99147
4.93909
4.9389
4.93873
4.9386
5.00983
5.00983
5.00979
5.00977
5.12358
5.12412
5.12445
5.12476
5.32339
5.32982
5.33278
5.33268
5.5591
5.56673
5.57088
5.57299
5.81298
5.83673
5.84528
5.84127
5.69706
5.70401
5.70638
5.70727
7.88751
7.88762
7.88812
7.88865
7.33717
7.33789
7.33794
7.33734
4.97976
4.98052
4.98045
4.97959
4.90613
4.90604
4.90591
4.90577
4.92544
4.92518
4.925
4.92495
4.98024
4.97985
4.97962
4.97964
5.07662
5.07878
5.07964
5.07931
5.20613
5.20666
5.20741
5.2088
5.36566
5.37461
5.37757
5.37502
5.45269
5.45137
5.45173
5.45406
7.65618
7.65602
7.65628
7.65669
7.13679
7.13744
7.13748
7.13693
4.97193
4.97261
4.97252
4.9717
4.89233
4.89231
4.89222
4.89209
4.88727
4.88705
4.88691
4.88687
4.91561
4.91524
4.91499
4.91493
4.96179
4.96277
4.96306
4.96269
5.04223
5.04139
5.04125
5.04201
5.15318
5.1575
5.15839
5.15592
5.32354
5.32
5.31935
5.32127
7.41736
7.41714
7.41727
7.41754
6.92525
6.92582
6.92586
6.92536
4.96585
4.96643
4.96631
4.96553
4.8864
4.88641
4.88635
4.88622
4.86966
4.8695
4.86941
4.8694
4.88579
4.88555
4.88538
4.8853
4.90691
4.90752
4.90765
4.90732
4.96337
4.96259
4.96232
4.96268
5.0486
5.05145
5.05162
5.04912
5.25155
5.24787
5.24686
5.24812
7.1699
7.16973
7.16979
7.16993
6.7025
6.70299
6.70301
6.70257
4.96068
4.96114
4.96099
4.96025
4.88381
4.88385
4.8838
4.88367
4.86167
4.86157
4.86151
4.8615
4.87184
4.87171
4.8716
4.87152
4.88055
4.88099
4.88106
4.88079
4.92447
4.92404
4.92383
4.92393
4.99612
4.9985
4.99842
4.9959
5.20947
5.20636
5.20529
5.2059
6.91302
6.91297
6.913
6.91301
6.46855
6.46895
6.46895
6.46857
4.9561
4.95644
4.95625
4.95555
4.88269
4.88275
4.88271
4.88257
4.8584
4.85835
4.85831
4.8583
4.86522
4.86516
4.86509
4.86502
4.86801
4.86833
4.86837
4.86815
4.90446
4.90436
4.90424
4.90415
4.96899
4.97125
4.97109
4.96852
5.1833
5.18099
5.18003
5.18
6.64624
6.64634
6.64635
6.64624
6.22353
6.22385
6.22383
6.22351
4.95203
4.95225
4.95202
4.95137
4.88218
4.88227
4.88224
4.88208
4.85756
4.85755
4.85753
4.85751
4.86199
4.86197
4.86192
4.86187
4.86214
4.86237
4.86238
4.8622
4.89295
4.89313
4.89308
4.89285
4.95343
4.95574
4.95557
4.9529
5.16528
5.1639
5.1631
5.16246
6.36934
6.36958
6.36959
6.36939
5.9678
5.96801
5.96797
5.96771
4.94842
4.94855
4.9483
4.9477
4.8818
4.88197
4.88195
4.88174
4.85793
4.85798
4.85798
4.85794
4.86035
4.86035
4.86033
4.86028
4.85944
4.85959
4.85959
4.85944
4.8847
4.88505
4.88506
4.88475
4.94172
4.94419
4.94404
4.94124
5.15047
5.15011
5.14952
5.14827
6.08245
6.08281
6.08282
6.08255
5.70203
5.70213
5.70206
5.70188
4.94511
4.94525
4.94502
4.94445
4.88114
4.8814
4.88138
4.88109
4.85874
4.85883
4.85885
4.85879
4.85951
4.85953
4.85952
4.85949
4.85828
4.85836
4.85835
4.85825
4.87703
4.87746
4.87751
4.87718
4.929
4.93163
4.93153
4.92868
5.1342
5.13501
5.13472
5.13281
5.78611
5.78655
5.78657
5.78627
5.42715
5.42712
5.42703
5.42694
4.9408
4.94116
4.94102
4.9404
4.87958
4.8799
4.87987
4.87949
4.85932
4.85944
4.85946
4.85939
4.85921
4.85924
4.85923
4.85922
4.85802
4.85805
4.85804
4.85799
4.8692
4.86959
4.86965
4.86938
4.91225
4.91465
4.9146
4.9121
5.10786
5.11016
5.11022
5.10749
5.48122
5.48174
5.48176
5.48143
5.14301
5.14276
5.14268
5.14275
4.92694
4.92783
4.92784
4.92692
4.87566
4.87586
4.87578
4.87547
4.85949
4.85957
4.85959
4.85956
4.85947
4.85949
4.85949
4.85949
4.85858
4.85857
4.85857
4.85856
4.86278
4.86299
4.86304
4.86291
4.89095
4.8921
4.89205
4.89083
5.04662
5.05007
5.05038
5.04702
5.16788
5.16843
5.16845
5.16807
10.1099
9.36478
9.0532
8.94085
8.87643
8.83107
8.80089
8.78398
8.77451
8.76884
103.682
49.1255
35.7521
29.9361
24.5268
19.9153
16.3293
13.6575
11.7524
10.3938
160.974
70.887
51.0936
43.7063
37.1328
31.358
26.5235
22.6441
19.6036
17.2335
206.427
82.6308
55.9699
46.6752
39.288
32.6882
27.1534
22.7654
19.3801
16.798
241.971
88.9309
58.7932
47.8986
39.9972
32.6573
26.6051
21.8912
18.3129
15.6737
277.89
94.6351
60.9189
48.2266
39.7667
31.715
25.2901
20.412
16.8378
14.2925
306.837
98.0688
61.6199
47.7034
38.9741
30.458
23.8919
19.0314
15.5597
13.1804
314.832
93.6371
56.5525
42.1581
33.8593
25.7402
19.8865
15.7665
13.0215
11.2082
224.094
56.0491
30.5011
21.0839
16.2592
12.2074
9.94323
8.60401
7.79697
7.27334
9.56858
9.54378
9.38846
9.3623
9.31572
9.2896
9.26883
9.25778
9.2503
9.24378
9.36539
9.05573
8.90375
8.81824
8.76436
8.72878
8.70571
8.69203
8.68461
8.67985
53.1009
28.6745
22.5595
19.4425
16.6546
14.1801
12.1443
10.5819
9.44314
8.65239
90.0006
46.2831
35.8047
31.005
27.15
23.4693
20.2473
17.5875
15.4603
13.8432
122.256
58.6195
42.8639
35.6076
30.5069
25.7168
21.6463
18.3755
15.829
13.9455
152.52
68.7635
47.8427
38.4835
32.3344
26.6259
21.9283
18.2538
15.4468
13.4405
186.365
78.8547
52.1176
40.431
33.207
26.6208
21.4107
17.4583
14.5599
12.5637
217.059
86.4288
54.673
41.2015
33.3058
26.1353
20.6618
16.6303
13.7457
11.8316
232.96
86.6783
51.8699
37.4386
29.5389
22.5451
17.5476
14.0615
11.7459
10.268
167.171
54.693
29.0324
19.3576
14.6784
11.2149
9.26598
8.12279
7.42838
6.99784
9.81683
9.50085
9.32987
9.26664
9.21177
9.17851
9.15436
9.13961
9.12922
9.12011
8.73687
8.69557
8.66291
8.63572
8.61444
8.599
8.58872
8.58256
8.57911
8.57658
19.9464
16.5753
14.5013
12.6809
11.1087
9.80374
8.78843
8.03908
7.50034
7.12802
35.9183
28.7132
24.9235
21.6806
18.8979
16.4846
14.4866
12.8808
11.6051
10.6437
51.0347
37.9397
31.5365
26.3341
22.2345
18.8109
16.0668
13.9183
12.2606
11.0481
66.1214
45.6933
36.6197
29.5705
24.3487
20.0932
16.7826
14.2621
12.3539
11.0027
83.2116
53.339
41.1273
32.0565
25.7036
20.6305
16.8139
13.9954
11.9533
10.5621
99.0876
59.1738
44.1257
33.4276
26.3059
20.6776
16.5735
13.6336
11.5536
10.1845
108.348
59.7268
42.5697
30.9712
23.7389
18.1963
14.4065
11.8419
10.1585
9.08737
75.8748
36.6219
23.8494
16.2585
12.2152
9.67474
8.28381
7.46666
6.95887
6.63968
9.56995
9.37578
9.24195
9.16217
9.10459
9.06857
9.0435
9.0264
9.01376
9.00278
8.50873
8.49874
8.48773
8.47781
8.47028
8.46515
8.46196
8.46033
8.45991
8.45937
10.9422
10.1345
9.28578
8.4404
7.73157
7.18735
6.7875
6.49878
6.28985
6.14462
19.868
18.0306
16.1787
14.3025
12.6825
11.3506
10.2867
9.44941
8.7894
8.29449
28.4773
24.6364
21.1904
17.9822
15.3886
13.3132
11.6884
10.4354
9.47756
8.78271
37.2411
30.6699
25.428
20.8521
17.3508
14.6215
12.5451
10.9924
9.82648
9.00311
47.4656
36.9728
29.5179
23.3451
18.8463
15.4209
12.8978
11.0708
9.76139
8.87186
57.0548
42.0726
32.5416
24.996
19.7409
15.8136
13.011
11.0477
9.66991
8.75968
62.7694
43.2529
32.0738
23.6952
18.2192
14.2921
11.6677
9.9311
8.79508
8.06318
42.7199
26.1922
17.9622
12.783
10.017
8.38614
7.46889
6.91483
6.55675
6.32632
9.32541
9.18703
9.07996
9.01035
8.96215
8.9305
8.90776
8.89144
8.87912
8.86861
8.33292
8.33148
8.32999
8.32882
8.32811
8.32782
8.32785
8.32831
8.32941
8.33036
7.00118
6.76121
6.50832
6.26906
6.06946
5.91193
5.79075
5.69852
5.62879
5.5806
11.6143
10.9295
10.1559
9.37614
8.68633
8.11139
7.6503
7.28749
6.99828
6.7798
16.4427
14.9622
13.3789
11.8587
10.5673
9.51437
8.68504
8.04652
7.55838
7.2055
21.5383
18.9397
16.3594
14.0073
12.1047
10.6046
9.46235
8.61406
7.9749
7.52078
27.7687
23.449
19.5078
16.08
13.4335
11.4109
9.92289
8.85425
8.08809
7.56487
33.7318
27.3849
22.0617
17.6327
14.3679
11.9437
10.2204
9.02528
8.18131
7.61548
37.3831
28.7888
22.256
17.1446
13.626
11.1493
9.50085
8.41515
7.69542
7.2212
24.5196
17.3305
12.8041
9.95206
8.3593
7.40123
6.82686
6.46429
6.2183
6.05674
9.05135
8.96835
8.89678
8.84573
8.80832
8.78152
8.76131
8.74613
8.73441
8.72456
8.18292
8.18311
8.18349
8.18408
8.18481
8.18559
8.1864
8.18738
8.18887
8.19059
5.60985
5.56685
5.51547
5.46272
5.41472
5.37355
5.33954
5.31221
5.29137
5.27822
7.50753
7.31735
7.06906
6.80833
6.57117
6.37129
6.21001
6.08141
5.97429
5.89087
9.98053
9.47619
8.85416
8.2283
7.67693
7.22089
6.85811
6.5755
6.35561
6.19571
12.7383
11.7785
10.6636
9.59812
8.70282
7.99023
7.44494
7.0378
6.72345
6.49564
16.3288
14.614
12.7543
11.0576
9.69266
8.64185
7.86467
7.30318
6.89341
6.60955
19.8635
17.2493
14.5822
12.2625
10.4803
9.15358
8.20562
7.54486
7.06591
6.73655
22.1137
18.4212
14.9951
12.2185
10.2318
8.83618
7.89663
7.26804
6.83891
6.5485
14.3906
11.5367
9.42489
8.04863
7.2128
6.6772
6.33033
6.10065
5.93671
5.82764
8.79632
8.75025
8.70607
8.67062
8.64229
8.62028
8.60288
8.5893
8.57856
8.56968
8.03215
8.03252
8.03309
8.03385
8.0347
8.03555
8.03636
8.0373
8.03871
8.04051
5.19784
5.18984
5.18013
5.16911
5.15801
5.14757
5.13836
5.13076
5.12555
5.12351
5.84043
5.79513
5.73282
5.6649
5.60144
5.54697
5.50233
5.46551
5.43143
5.40295
6.95169
6.79467
6.58648
6.36882
6.17045
6.0014
5.86233
5.7498
5.65881
5.59185
8.29907
7.96584
7.54587
7.13136
6.77297
6.48188
6.25377
6.07866
5.93628
5.82949
10.2213
9.55642
8.77024
8.02985
7.41607
6.93499
6.57077
6.30007
6.09508
5.95029
12.1892
11.1278
9.92443
8.84605
7.99114
7.34525
6.8732
6.53548
6.27892
6.09647
13.5167
11.9516
10.3384
8.99577
8.00068
7.28832
6.79285
6.44941
6.20532
6.03592
9.42416
8.38512
7.50511
6.88223
6.45944
6.16605
5.96104
5.81898
5.71233
5.64103
8.56084
8.53632
8.50961
8.48534
8.46429
8.44678
8.43234
8.42066
8.41119
8.4035
7.8739
7.87419
7.87462
7.87519
7.87584
7.87647
7.87706
7.87775
7.87891
7.88051
5.06361
5.06193
5.05991
5.05734
5.05444
5.05145
5.0487
5.04654
5.04572
5.04653
5.23634
5.22829
5.21661
5.20304
5.19006
5.17908
5.17047
5.16319
5.15417
5.14524
5.69499
5.65267
5.59245
5.5256
5.46117
5.40322
5.35287
5.30988
5.27355
5.24663
6.28755
6.18856
6.05431
5.91528
5.78941
5.68257
5.59505
5.52488
5.46348
5.41528
7.22096
6.98975
6.70006
6.41558
6.16936
5.96806
5.80841
5.68412
5.58555
5.51486
8.22769
7.83731
7.36065
6.91755
6.5514
6.26392
6.04416
5.88009
5.74764
5.6499
8.98294
8.3694
7.69529
7.11186
6.65788
6.31816
6.06957
5.88914
5.75542
5.66095
7.18434
6.82228
6.46725
6.18608
5.97322
5.81361
5.69416
5.60796
5.5399
5.4946
8.33605
8.3227
8.30636
8.28991
8.27463
8.26118
8.24963
8.23998
8.23196
8.22555
7.70588
7.70608
7.70636
7.70674
7.70717
7.70757
7.70791
7.70835
7.70924
7.71058
5.01365
5.01293
5.01213
5.01115
5.01
5.00876
5.00764
5.00689
5.00709
5.00827
5.02022
5.01939
5.01829
5.01687
5.01579
5.0155
5.01607
5.01672
5.01521
5.01258
5.20583
5.19489
5.17795
5.15755
5.13654
5.11648
5.09802
5.0814
5.06683
5.05607
5.46102
5.43489
5.39598
5.35266
5.31091
5.27345
5.24126
5.21429
5.18842
5.16687
5.89204
5.81843
5.72099
5.61878
5.52456
5.44282
5.37425
5.31813
5.27166
5.2382
6.37914
6.25264
6.0833
5.91588
5.76846
5.6457
5.54645
5.46879
5.40179
5.35036
6.80258
6.58128
6.32383
6.08627
5.88881
5.73201
5.61076
5.51866
5.44781
5.39743
6.17643
6.04539
5.89905
5.76965
5.662
5.57538
5.50646
5.45492
5.41209
5.38395