/*--------------------------------*- C++ -*----------------------------------*\
| =========                 |                                                 |
| \\      /  F ield         | foam-extend: Open Source CFD                    |
|  \\    /   O peration     | Version:     4.0                                |
|   \\  /    A nd           | Web:         http://www.foam-extend.org         |
|    \\/     M anipulation  |                                                 |
\*---------------------------------------------------------------------------*/
FoamFile
{
    version     2.0;
    format      ascii;
    class       volScalarField;
    location    "1300";
    object      MaU;
}
// * * * * * * * * * * * * * * * * * * * * * * * * * * * * * * * * * * * * * //

dimensions      [0 0 0 0 0 0 0];

internalField   nonuniform List<scalar> 
34480
(
0.623359
0.624358
0.624896
0.625012
0.624711
0.623919
0.622496
0.619763
0.613682
0.607895
0.626728
0.627561
0.628028
0.628068
0.62752
0.626239
0.624249
0.621302
0.614302
0.608773
0.628878
0.629644
0.630027
0.629948
0.629229
0.627901
0.626147
0.623872
0.616858
0.611781
0.628881
0.629667
0.630119
0.63017
0.629675
0.62875
0.627496
0.625937
0.619314
0.614722
0.629363
0.630251
0.63084
0.631107
0.630932
0.630483
0.629775
0.628989
0.623153
0.619055
0.628987
0.629929
0.630598
0.630991
0.63105
0.631005
0.630832
0.630871
0.626221
0.62295
0.629217
0.630296
0.631067
0.631597
0.631864
0.632159
0.632483
0.633344
0.630145
0.627681
0.628645
0.629761
0.630486
0.630899
0.63105
0.631301
0.63178
0.633185
0.631508
0.630234
0.628396
0.629668
0.630506
0.631055
0.631385
0.6318
0.632533
0.63444
0.634042
0.63268
0.624598
0.625613
0.625645
0.624772
0.623165
0.621202
0.619336
0.618835
0.618088
0.61896
0.613455
0.614919
0.615494
0.615249
0.61411
0.6118
0.607694
0.600436
0.58974
0.5759
0.618024
0.619338
0.619869
0.619614
0.618381
0.615796
0.611268
0.603435
0.590794
0.574661
0.621068
0.622297
0.622779
0.622495
0.621193
0.618568
0.614116
0.606449
0.592967
0.575668
0.621888
0.623128
0.623675
0.623524
0.62243
0.62015
0.616097
0.608862
0.594992
0.57728
0.623054
0.624367
0.625029
0.625082
0.624286
0.622457
0.618926
0.612336
0.598563
0.581014
0.62322
0.624574
0.625311
0.625497
0.624934
0.62352
0.620534
0.614734
0.601514
0.584759
0.623899
0.625356
0.626185
0.626512
0.626164
0.625121
0.622674
0.617731
0.605442
0.589765
0.623651
0.625134
0.625928
0.62617
0.625767
0.624789
0.622635
0.618412
0.607315
0.593331
0.623652
0.62524
0.626126
0.626483
0.626261
0.625518
0.62376
0.620289
0.610458
0.597279
0.620047
0.621451
0.62178
0.62112
0.619529
0.617156
0.613728
0.608959
0.599606
0.589555
0.605823
0.607392
0.607958
0.607641
0.606403
0.604088
0.600399
0.594839
0.586773
0.576587
0.610685
0.612223
0.612786
0.612414
0.61099
0.608249
0.603684
0.596436
0.585054
0.569905
0.614012
0.615549
0.616109
0.615738
0.614253
0.611337
0.606368
0.598218
0.584214
0.56441
0.615327
0.616927
0.617563
0.617305
0.61595
0.613175
0.608203
0.599629
0.583477
0.559573
0.616972
0.618659
0.619404
0.619325
0.618199
0.615731
0.610997
0.602408
0.584758
0.557571
0.617558
0.619299
0.620126
0.620177
0.619251
0.617104
0.612715
0.604406
0.585872
0.55632
0.618601
0.620432
0.621346
0.621539
0.620813
0.618992
0.615013
0.607182
0.588339
0.557125
0.618653
0.620507
0.621403
0.62154
0.620787
0.619053
0.615347
0.608047
0.589422
0.557369
0.618915
0.620832
0.621797
0.622025
0.621404
0.619865
0.616524
0.609892
0.591918
0.558469
0.615553
0.617299
0.617852
0.617322
0.615694
0.612968
0.608482
0.601082
0.583666
0.55064
0.600264
0.60164
0.602113
0.601807
0.600718
0.59879
0.595923
0.592023
0.587067
0.581536
0.604866
0.606334
0.606848
0.606444
0.60505
0.602519
0.598602
0.592954
0.585129
0.576202
0.60805
0.609638
0.610189
0.609756
0.608213
0.605334
0.600692
0.593658
0.583069
0.570136
0.609566
0.611292
0.611932
0.611564
0.610028
0.607051
0.602014
0.593981
0.580738
0.56353
0.611479
0.613332
0.614075
0.613839
0.612426
0.60955
0.604407
0.595786
0.580293
0.559092
0.612356
0.61429
0.615116
0.614987
0.613702
0.610994
0.605907
0.597029
0.579744
0.555067
0.613671
0.615699
0.616604
0.616602
0.615472
0.612984
0.608082
0.599207
0.580645
0.553026
0.61398
0.616031
0.616931
0.616891
0.615741
0.613306
0.608538
0.599836
0.580585
0.550712
0.614466
0.616552
0.617504
0.617539
0.616496
0.614199
0.609622
0.601258
0.581987
0.549581
0.611354
0.613284
0.613948
0.613443
0.611697
0.608586
0.603245
0.594277
0.575202
0.541605
0.596405
0.597489
0.597851
0.597615
0.596802
0.595421
0.593487
0.591069
0.588316
0.585593
0.600455
0.601699
0.602134
0.601782
0.600611
0.59857
0.59559
0.591645
0.586793
0.581998
0.603193
0.60467
0.60518
0.604767
0.603357
0.600827
0.596965
0.591551
0.584304
0.576679
0.604641
0.606339
0.606956
0.606558
0.605037
0.602204
0.597672
0.59098
0.581198
0.570146
0.606596
0.608479
0.609202
0.608887
0.607376
0.604441
0.599502
0.59185
0.579679
0.56504
0.6076
0.60961
0.610423
0.610183
0.608717
0.605776
0.600611
0.592293
0.577978
0.559857
0.609063
0.611189
0.612082
0.611945
0.61057
0.607719
0.602494
0.593776
0.577682
0.556302
0.609548
0.611713
0.612614
0.61245
0.611049
0.608189
0.602925
0.594024
0.57666
0.552438
0.610209
0.612398
0.613338
0.613233
0.611908
0.609138
0.60393
0.594998
0.577009
0.549719
0.607325
0.609372
0.610116
0.609632
0.607821
0.604489
0.598759
0.589304
0.571092
0.54173
0.593769
0.594575
0.594833
0.594672
0.59412
0.59321
0.591992
0.590558
0.589041
0.587584
0.597226
0.598187
0.598528
0.598254
0.59736
0.595849
0.593745
0.591141
0.58824
0.585649
0.599399
0.600654
0.601093
0.600739
0.599559
0.597508
0.594531
0.590641
0.585949
0.581513
0.60061
0.60215
0.602707
0.60233
0.600951
0.59847
0.594704
0.589525
0.582742
0.575894
0.60243
0.60421
0.604879
0.604538
0.603071
0.600329
0.595964
0.589673
0.58075
0.571157
0.60342
0.605376
0.606145
0.605844
0.604337
0.601435
0.596628
0.589429
0.578427
0.565949
0.604917
0.607024
0.607875
0.607648
0.606163
0.603215
0.598138
0.590257
0.577374
0.561989
0.60549
0.607661
0.608535
0.608284
0.60675
0.603722
0.598444
0.590095
0.575708
0.557583
0.606269
0.60847
0.609376
0.609169
0.607677
0.604677
0.599334
0.590689
0.575329
0.554216
0.60358
0.605653
0.606432
0.605965
0.60414
0.600748
0.595017
0.585878
0.570018
0.5467
0.591963
0.592552
0.592729
0.592628
0.592278
0.591716
0.590987
0.590166
0.589333
0.588496
0.594904
0.595598
0.595848
0.595653
0.595019
0.593971
0.592568
0.590919
0.589211
0.5878
0.596514
0.597508
0.597861
0.597584
0.596664
0.595107
0.592938
0.590266
0.58731
0.584734
0.597415
0.59872
0.599196
0.59887
0.597708
0.595676
0.592727
0.588915
0.584375
0.580169
0.598985
0.600567
0.601159
0.600834
0.599513
0.597122
0.593499
0.588595
0.582315
0.576135
0.599855
0.601656
0.602354
0.602037
0.600606
0.597942
0.593753
0.587863
0.579778
0.571396
0.601292
0.60328
0.604065
0.603791
0.602317
0.599494
0.594887
0.588171
0.578348
0.567623
0.601869
0.603949
0.60477
0.60447
0.60292
0.599947
0.595016
0.58766
0.576348
0.563295
0.602715
0.604841
0.605692
0.605421
0.603878
0.600872
0.595778
0.587968
0.575571
0.559979
0.600178
0.602192
0.602969
0.602521
0.600748
0.597456
0.592044
0.583755
0.570719
0.553206
0.590697
0.591136
0.591255
0.591196
0.590985
0.590652
0.590228
0.589766
0.5893
0.588761
0.593243
0.593717
0.593893
0.593762
0.593337
0.592646
0.591748
0.590732
0.589731
0.588941
0.594356
0.595099
0.595367
0.595164
0.594488
0.593366
0.591856
0.590079
0.588238
0.586728
0.594948
0.595994
0.596381
0.596119
0.595196
0.59362
0.591418
0.588713
0.585731
0.583149
0.596214
0.597549
0.598049
0.597763
0.596647
0.594677
0.591816
0.588146
0.583835
0.579884
0.596902
0.598478
0.599087
0.598785
0.597511
0.595206
0.591741
0.587129
0.581362
0.575804
0.598216
0.600007
0.600706
0.600422
0.599053
0.59651
0.592551
0.587089
0.579847
0.572504
0.598724
0.600631
0.601377
0.601062
0.599591
0.596843
0.592487
0.586323
0.577755
0.568579
0.599595
0.60157
0.602347
0.602049
0.600552
0.597718
0.593128
0.58644
0.576836
0.565689
0.597168
0.599048
0.599787
0.599368
0.597708
0.594652
0.589784
0.58264
0.572375
0.559744
0.58978
0.59012
0.590202
0.59017
0.590046
0.589855
0.589614
0.589354
0.589087
0.5887
0.592043
0.592356
0.592475
0.592393
0.592119
0.591682
0.591123
0.59051
0.589922
0.589469
0.59275
0.59328
0.593475
0.593334
0.59286
0.592086
0.591072
0.589922
0.588785
0.58789
0.593084
0.593882
0.594182
0.593984
0.593287
0.592119
0.590538
0.588675
0.586739
0.585149
0.59404
0.595113
0.595517
0.595283
0.594386
0.59284
0.590673
0.588016
0.585106
0.582588
0.594519
0.595837
0.596347
0.596081
0.595006
0.593108
0.590365
0.586882
0.582852
0.579199
0.59568
0.597226
0.597825
0.597558
0.596355
0.594179
0.590929
0.586655
0.581445
0.576484
0.596061
0.597739
0.598393
0.59809
0.596766
0.594353
0.590682
0.585728
0.579419
0.573087
0.596933
0.598699
0.599386
0.599089
0.597714
0.595175
0.591231
0.585752
0.578541
0.57077
0.594577
0.596263
0.596938
0.596558
0.595061
0.592341
0.588146
0.582249
0.574436
0.565609
0.589089
0.589368
0.589425
0.58941
0.589339
0.58923
0.589094
0.588949
0.588789
0.588483
0.591161
0.591364
0.591443
0.591394
0.591224
0.590954
0.590615
0.590248
0.5899
0.58963
0.591551
0.591914
0.59205
0.591955
0.591636
0.591122
0.590461
0.589732
0.589034
0.588497
0.591696
0.592281
0.592505
0.592363
0.591858
0.591026
0.589927
0.588675
0.587429
0.586444
0.592365
0.593192
0.593506
0.593323
0.592635
0.591471
0.589887
0.588018
0.58608
0.584476
0.592644
0.593699
0.59411
0.59389
0.593024
0.591528
0.589436
0.586887
0.584117
0.581731
0.593645
0.594927
0.595423
0.59519
0.594182
0.592402
0.589837
0.586605
0.582929
0.579612
0.593861
0.59528
0.595833
0.59556
0.594423
0.592398
0.589428
0.585589
0.58105
0.57675
0.594726
0.596248
0.596835
0.596561
0.595357
0.593184
0.589933
0.585612
0.580337
0.575031
0.592409
0.593863
0.594455
0.594122
0.592822
0.590496
0.587019
0.582334
0.576557
0.570547
0.588551
0.588791
0.588833
0.588827
0.588786
0.588726
0.588649
0.588567
0.588466
0.588207
0.5905
0.59063
0.590684
0.590655
0.590553
0.59039
0.590187
0.589968
0.589759
0.589589
0.590639
0.59088
0.590972
0.590911
0.590704
0.590372
0.589952
0.589498
0.589072
0.588745
0.590676
0.59109
0.591252
0.591154
0.590802
0.590228
0.589486
0.588661
0.587865
0.587249
0.591095
0.591708
0.591942
0.591806
0.591299
0.590453
0.589332
0.588049
0.586774
0.585754
0.591198
0.592011
0.59233
0.592156
0.591487
0.590352
0.58881
0.586996
0.585121
0.58357
0.592058
0.593081
0.593477
0.593284
0.592477
0.591078
0.589125
0.586753
0.584203
0.582006
0.592084
0.593237
0.593687
0.593454
0.59252
0.590889
0.588573
0.585696
0.582497
0.579618
0.592952
0.594216
0.594701
0.594464
0.593454
0.591671
0.589091
0.585798
0.582026
0.578464
0.590647
0.591851
0.592351
0.59207
0.590982
0.589069
0.586291
0.582697
0.578532
0.574534
0.588122
0.588336
0.588367
0.588366
0.588343
0.588309
0.588266
0.588219
0.588152
0.587922
0.589995
0.590082
0.590119
0.590103
0.590042
0.589945
0.589825
0.589694
0.589563
0.589448
0.589929
0.590085
0.590144
0.590106
0.589975
0.589767
0.589506
0.589228
0.588969
0.588766
0.589933
0.590218
0.590332
0.590267
0.59003
0.589646
0.589156
0.588621
0.588115
0.587725
0.590139
0.590578
0.590747
0.59065
0.590288
0.589695
0.588923
0.588063
0.587234
0.586584
0.590105
0.590709
0.590947
0.590816
0.590319
0.589488
0.588386
0.587126
0.585874
0.584871
0.590851
0.591639
0.591945
0.591794
0.591172
0.590113
0.588674
0.58698
0.585242
0.583796
0.590674
0.591575
0.591929
0.59174
0.591001
0.589738
0.587993
0.585901
0.583691
0.581788
0.591571
0.592585
0.592971
0.592776
0.591965
0.590558
0.588581
0.586149
0.583509
0.581151
0.589258
0.590213
0.59062
0.590391
0.589516
0.587999
0.585857
0.583188
0.580256
0.577653
0.587773
0.587967
0.587991
0.587993
0.58798
0.587961
0.587936
0.587909
0.587862
0.587653
0.589611
0.589671
0.589698
0.58969
0.589654
0.589597
0.589525
0.589445
0.589359
0.589273
0.589356
0.589455
0.589492
0.589468
0.589387
0.589259
0.589102
0.588934
0.588778
0.588649
0.589396
0.589589
0.589668
0.589627
0.589472
0.589221
0.588904
0.588563
0.588242
0.58799
0.589425
0.589728
0.589845
0.589778
0.589529
0.589125
0.588608
0.588043
0.587512
0.587098
0.589292
0.589725
0.589897
0.589803
0.589446
0.588858
0.588092
0.587238
0.586414
0.585767
0.589959
0.590545
0.590773
0.59066
0.590199
0.589425
0.588397
0.587219
0.586053
0.585107
0.589569
0.590246
0.590514
0.590366
0.589806
0.588862
0.58759
0.586112
0.584614
0.583374
0.590538
0.591323
0.59162
0.591467
0.59084
0.589771
0.588308
0.586565
0.584754
0.583212
0.588192
0.588919
0.589238
0.589058
0.588379
0.587221
0.585624
0.583703
0.581686
0.580028
0.587485
0.587663
0.58768
0.587683
0.587676
0.587665
0.587651
0.587635
0.587601
0.587411
0.589327
0.589371
0.589393
0.589389
0.589368
0.589334
0.589291
0.58924
0.589179
0.589107
0.588874
0.588935
0.588957
0.588943
0.588893
0.588817
0.588724
0.588626
0.588533
0.588448
0.589016
0.589144
0.589199
0.589174
0.589076
0.588915
0.588714
0.588498
0.588295
0.588127
0.588891
0.589094
0.589172
0.589127
0.588961
0.588693
0.588356
0.587994
0.587658
0.587395
0.588699
0.588999
0.58912
0.589054
0.588806
0.588403
0.587885
0.587319
0.586784
0.58637
0.589316
0.589737
0.589902
0.58982
0.589491
0.588945
0.588232
0.587434
0.586666
0.58605
0.588705
0.589194
0.589389
0.589278
0.588868
0.588188
0.587289
0.586275
0.585279
0.584483
0.5898
0.590388
0.590609
0.590495
0.590029
0.589247
0.588199
0.586984
0.585769
0.584769
0.587393
0.587922
0.588163
0.588027
0.58752
0.586667
0.585515
0.584175
0.582817
0.581788
0.587237
0.587398
0.587411
0.587414
0.58741
0.587404
0.587396
0.587386
0.587362
0.58719
0.589136
0.589173
0.58919
0.589189
0.589177
0.589156
0.589129
0.589094
0.589047
0.58898
0.588451
0.588487
0.588499
0.588489
0.588459
0.588415
0.588362
0.588307
0.588253
0.588196
0.588755
0.58884
0.588877
0.588863
0.588802
0.588702
0.588577
0.588442
0.588313
0.588197
0.588495
0.588626
0.588677
0.588647
0.588539
0.588367
0.588153
0.587926
0.587717
0.587551
0.588278
0.58848
0.588562
0.588518
0.588352
0.588083
0.587742
0.587375
0.587033
0.586768
0.588866
0.589158
0.589272
0.589215
0.588989
0.588616
0.588137
0.58761
0.587115
0.586717
0.588021
0.58836
0.588497
0.588418
0.588129
0.587654
0.587038
0.586361
0.585712
0.585211
0.589313
0.58974
0.589898
0.589816
0.589484
0.588931
0.588206
0.587383
0.586585
0.585941
0.586793
0.58716
0.587336
0.587237
0.586873
0.586267
0.585463
0.584556
0.583662
0.583042
0.586989
0.587133
0.587141
0.587144
0.587142
0.587139
0.587135
0.587129
0.587111
0.58696
0.589044
0.589077
0.589092
0.589093
0.589085
0.589072
0.589053
0.589027
0.588987
0.58892
0.588064
0.588083
0.588088
0.58808
0.588062
0.588037
0.588009
0.58798
0.587951
0.587914
0.588587
0.588644
0.588668
0.588661
0.588624
0.588563
0.588486
0.588403
0.588322
0.588239
0.588213
0.588295
0.588327
0.588308
0.58824
0.588132
0.587999
0.58786
0.587733
0.587627
0.588
0.588133
0.588188
0.58816
0.588052
0.587877
0.587658
0.587425
0.587209
0.58704
0.588563
0.588757
0.588833
0.588794
0.588643
0.588397
0.588086
0.587748
0.587438
0.587184
0.587474
0.5877
0.587794
0.58774
0.587543
0.587222
0.586812
0.586371
0.585954
0.585648
0.589041
0.589343
0.589452
0.589396
0.589167
0.588791
0.588305
0.587763
0.587252
0.586838
0.586307
0.586549
0.586674
0.586605
0.586352
0.585937
0.585393
0.584798
0.584221
0.583864
0.586641
0.586764
0.586768
0.58677
0.586769
0.586768
0.586767
0.586764
0.586754
0.586627
0.589076
0.589108
0.589121
0.589123
0.589118
0.589108
0.589094
0.589073
0.589037
0.588965
0.58771
0.587719
0.58772
0.587714
0.587704
0.58769
0.587675
0.587661
0.587646
0.587623
0.588495
0.588531
0.588546
0.588541
0.588519
0.588482
0.588437
0.588388
0.58834
0.58828
0.588035
0.588086
0.588107
0.588095
0.588054
0.587988
0.587906
0.587822
0.587745
0.587678
0.587854
0.58794
0.587976
0.587959
0.587891
0.58778
0.587643
0.587497
0.587361
0.587252
0.588377
0.588499
0.588546
0.58852
0.588422
0.588265
0.588069
0.587861
0.587674
0.587517
0.58706
0.587207
0.587271
0.587236
0.587106
0.586896
0.586629
0.586346
0.586077
0.585897
0.58898
0.589186
0.589259
0.589221
0.589069
0.588821
0.588506
0.58816
0.587842
0.587572
0.585797
0.58595
0.586037
0.58599
0.585822
0.585546
0.585188
0.584809
0.584439
0.584247
0.585972
0.586068
0.58607
0.586071
0.586071
0.586071
0.586072
0.586073
0.58607
0.585972
0.589298
0.58933
0.58934
0.589341
0.589338
0.58933
0.58932
0.589303
0.589271
0.589193
0.587435
0.587441
0.587444
0.587443
0.587438
0.58743
0.58742
0.58741
0.587398
0.587381
0.588461
0.588481
0.588486
0.588481
0.588468
0.588447
0.588422
0.588396
0.588371
0.588333
0.58796
0.587993
0.588007
0.588002
0.587977
0.587937
0.587887
0.587835
0.587787
0.587742
0.587831
0.587887
0.587911
0.587901
0.587859
0.58779
0.587704
0.587613
0.587527
0.587455
0.588293
0.588364
0.588391
0.588372
0.58831
0.588212
0.588092
0.587968
0.587862
0.587772
0.586855
0.586955
0.587
0.58698
0.586897
0.586761
0.586587
0.586404
0.586223
0.586112
0.58918
0.589314
0.58936
0.589334
0.589235
0.589076
0.588877
0.588664
0.588475
0.588298
0.585036
0.58513
0.585191
0.585161
0.585051
0.584871
0.58464
0.584401
0.584158
0.584064
0.584669
0.584735
0.584738
0.584741
0.584742
0.584742
0.584742
0.584741
0.584741
0.584671
0.58985
0.589871
0.589869
0.589864
0.58986
0.589856
0.589853
0.589848
0.589833
0.589764
0.587352
0.587369
0.587382
0.587388
0.587387
0.58738
0.587368
0.587352
0.587331
0.587303
0.588455
0.58846
0.588458
0.588452
0.588443
0.588431
0.588419
0.588408
0.588402
0.588386
0.587971
0.587995
0.588006
0.588004
0.587989
0.587963
0.587931
0.587897
0.587864
0.587832
0.5879
0.587939
0.587955
0.587949
0.587922
0.587878
0.587823
0.587765
0.587708
0.587659
0.588288
0.588327
0.588341
0.588328
0.588287
0.588224
0.58815
0.588075
0.588017
0.587974
0.587013
0.587091
0.587127
0.587117
0.587063
0.586973
0.586857
0.586731
0.586597
0.586506
0.589766
0.589842
0.589867
0.589847
0.58978
0.589677
0.589551
0.589423
0.589321
0.589222
0.583747
0.58381
0.583855
0.583835
0.583762
0.583643
0.58349
0.583334
0.583163
0.583117
0.582834
0.582875
0.582887
0.582895
0.582897
0.582894
0.582887
0.582874
0.582857
0.582801
0.590765
0.59074
0.590711
0.590692
0.590683
0.590684
0.590695
0.590716
0.590747
0.590745
0.587525
0.587564
0.587588
0.587601
0.587603
0.587596
0.58758
0.587554
0.587515
0.587462
0.588435
0.588429
0.588423
0.588416
0.588409
0.588401
0.588394
0.588391
0.588395
0.5884
0.588016
0.588036
0.588045
0.588044
0.588034
0.588015
0.587991
0.587965
0.587939
0.587913
0.587987
0.588015
0.588027
0.588023
0.588004
0.587972
0.587932
0.587889
0.587848
0.587811
0.5883
0.588324
0.588332
0.588322
0.588292
0.588246
0.588193
0.58814
0.588103
0.588085
0.587524
0.587596
0.587628
0.587621
0.587582
0.587515
0.587429
0.587331
0.587221
0.587119
0.590715
0.590744
0.590756
0.590737
0.590687
0.59061
0.590521
0.590436
0.590388
0.590384
0.582051
0.582109
0.582142
0.582128
0.582073
0.581984
0.581871
0.581755
0.581626
0.581584
0.438875
0.418134
0.425037
0.46598
0.391136
0.367908
0.378939
0.436157
0.347991
0.320851
0.338171
0.417073
0.309959
0.280565
0.304873
0.406178
0.278511
0.248443
0.279976
0.40378
0.251442
0.221912
0.261728
0.400855
0.229743
0.202078
0.250675
0.398218
0.209374
0.185228
0.242656
0.39612
0.191448
0.173387
0.239075
0.397748
0.172002
0.162078
0.234757
0.393236
0.498925
0.488727
0.489049
0.498758
0.46845
0.455835
0.456975
0.469642
0.437609
0.420888
0.423088
0.440645
0.408624
0.387655
0.391235
0.413936
0.383993
0.358523
0.363761
0.391804
0.361978
0.331617
0.33762
0.370918
0.34412
0.308768
0.314599
0.35299
0.3277
0.287546
0.292923
0.336302
0.314181
0.269989
0.274903
0.322675
0.298845
0.252221
0.254735
0.305039
0.566258
0.564039
0.563508
0.564642
0.548496
0.544796
0.544098
0.546396
0.52854
0.522642
0.52183
0.526158
0.506338
0.498068
0.497261
0.504085
0.485373
0.474647
0.474011
0.483733
0.464327
0.451013
0.450591
0.463318
0.445414
0.429431
0.429182
0.444854
0.426803
0.408271
0.408163
0.426598
0.410566
0.39035
0.390284
0.410642
0.391676
0.37194
0.371146
0.391031
0.578705
0.577618
0.577269
0.57762
0.569058
0.567643
0.56715
0.567513
0.557225
0.554738
0.554018
0.554914
0.542488
0.538695
0.537785
0.539504
0.528084
0.522842
0.521818
0.524665
0.512548
0.505729
0.504647
0.508884
0.497971
0.489503
0.488403
0.494232
0.48268
0.47264
0.471578
0.479076
0.468477
0.457489
0.456474
0.465272
0.450663
0.440717
0.439438
0.447776
0.585565
0.584971
0.58477
0.58496
0.579715
0.579232
0.579
0.579009
0.572259
0.571317
0.570891
0.570961
0.56219
0.560552
0.559896
0.56016
0.552264
0.549758
0.548882
0.549508
0.540997
0.537481
0.536409
0.537581
0.530291
0.525674
0.524451
0.526355
0.518529
0.512836
0.511531
0.514313
0.507376
0.501028
0.499718
0.503285
0.492651
0.487441
0.486001
0.489016
0.588143
0.587664
0.587518
0.587704
0.584676
0.584462
0.584352
0.584343
0.579611
0.579189
0.578971
0.578951
0.57242
0.571657
0.571278
0.571267
0.565398
0.564165
0.563594
0.563645
0.557108
0.55528
0.554503
0.554696
0.549303
0.546786
0.545816
0.54626
0.540426
0.537201
0.536091
0.536904
0.532017
0.528342
0.527193
0.528416
0.520134
0.517575
0.516348
0.516903
0.589274
0.58884
0.588716
0.588904
0.587371
0.587276
0.587224
0.587214
0.583852
0.583656
0.583548
0.583526
0.578513
0.578142
0.577939
0.577899
0.57334
0.572718
0.572388
0.572336
0.567016
0.566059
0.565571
0.565527
0.561197
0.55983
0.559175
0.559181
0.554418
0.552609
0.551812
0.551941
0.54827
0.546149
0.545292
0.545612
0.538626
0.537618
0.536715
0.536271
0.589614
0.589196
0.589081
0.589271
0.588722
0.588674
0.588646
0.588639
0.586278
0.586179
0.586123
0.58611
0.58229
0.582097
0.581987
0.581958
0.57842
0.57809
0.577902
0.577854
0.573484
0.572963
0.572673
0.572605
0.569068
0.568307
0.567898
0.567822
0.563808
0.562783
0.562262
0.562212
0.559409
0.558179
0.557593
0.557613
0.551399
0.551303
0.550703
0.549921
0.589582
0.589168
0.589057
0.589249
0.589349
0.589323
0.589306
0.589301
0.587646
0.587594
0.587563
0.587555
0.584675
0.58457
0.584508
0.584489
0.581779
0.581598
0.581491
0.581458
0.577911
0.577619
0.577448
0.577396
0.574566
0.574132
0.573883
0.573813
0.570437
0.569847
0.569521
0.569448
0.567303
0.566585
0.566205
0.566149
0.560519
0.560944
0.560578
0.559722
0.58937
0.588958
0.588848
0.589041
0.589558
0.589542
0.589531
0.589527
0.588356
0.588327
0.588309
0.588304
0.586164
0.586103
0.586066
0.586054
0.584004
0.583899
0.583836
0.583816
0.58098
0.58081
0.580708
0.580673
0.578494
0.578239
0.578087
0.578037
0.575227
0.574881
0.57468
0.574621
0.573033
0.572607
0.572367
0.572311
0.567193
0.567903
0.567695
0.56686
0.589086
0.588673
0.588563
0.588757
0.589541
0.589529
0.58952
0.589517
0.588659
0.588641
0.588631
0.588628
0.587074
0.587036
0.587013
0.587005
0.585464
0.585401
0.585363
0.58535
0.583111
0.583008
0.582946
0.582924
0.581322
0.581167
0.581073
0.581041
0.578709
0.578501
0.578378
0.578338
0.577255
0.576996
0.576848
0.576807
0.572148
0.573
0.572891
0.572105
0.588785
0.588369
0.58826
0.588456
0.58941
0.589399
0.589392
0.589389
0.58871
0.588699
0.588693
0.588691
0.587608
0.587582
0.587567
0.587561
0.586399
0.586359
0.586336
0.586329
0.584579
0.584514
0.584474
0.584461
0.583359
0.58326
0.583201
0.583182
0.581228
0.5811
0.581023
0.580998
0.580383
0.580221
0.580129
0.580105
0.575844
0.576749
0.576699
0.575968
0.588495
0.588075
0.587966
0.588165
0.589237
0.589227
0.58922
0.589217
0.588609
0.588601
0.588597
0.588597
0.587904
0.587885
0.587874
0.587871
0.586974
0.586948
0.586933
0.58693
0.585573
0.58553
0.585505
0.585498
0.584815
0.58475
0.584713
0.584702
0.583019
0.582938
0.58289
0.582876
0.582698
0.582594
0.582537
0.582525
0.578593
0.579496
0.579479
0.578806
0.588225
0.587802
0.587693
0.587895
0.589068
0.589057
0.58905
0.589047
0.588417
0.588411
0.588408
0.58841
0.588058
0.588043
0.588035
0.588033
0.587307
0.587289
0.587279
0.587279
0.586234
0.586204
0.586188
0.586185
0.585847
0.585803
0.585778
0.585774
0.584253
0.584201
0.584171
0.584164
0.584408
0.584339
0.584303
0.584301
0.580619
0.581482
0.581483
0.580871
0.587969
0.587543
0.587437
0.587643
0.588934
0.588922
0.588914
0.588912
0.588169
0.588164
0.588162
0.588165
0.588136
0.588122
0.588115
0.588115
0.587483
0.58747
0.587464
0.587466
0.586668
0.586645
0.586634
0.586635
0.58657
0.586539
0.586523
0.586524
0.58506
0.585025
0.585006
0.585004
0.585674
0.585625
0.585603
0.585608
0.582083
0.582878
0.582887
0.58234
0.587696
0.587269
0.587167
0.587378
0.588865
0.58885
0.588841
0.588839
0.587888
0.587883
0.587882
0.587886
0.588182
0.588169
0.588163
0.588165
0.587571
0.58756
0.587556
0.58756
0.58696
0.586941
0.586933
0.586937
0.587076
0.587054
0.587044
0.587048
0.585546
0.585521
0.585509
0.58551
0.586628
0.586592
0.586578
0.586589
0.583085
0.583788
0.583799
0.583325
0.587308
0.586885
0.586792
0.587007
0.588897
0.588878
0.588869
0.588867
0.587596
0.587591
0.58759
0.587595
0.588227
0.588214
0.58821
0.588215
0.587626
0.587615
0.587613
0.587618
0.587183
0.587166
0.58716
0.587165
0.58744
0.587424
0.58742
0.587426
0.58582
0.5858
0.585792
0.585795
0.587401
0.587371
0.587364
0.587379
0.583637
0.584228
0.584236
0.583844
0.586579
0.586172
0.586093
0.586309
0.58911
0.589087
0.589077
0.589077
0.587347
0.58734
0.587339
0.587344
0.588287
0.588276
0.588274
0.588281
0.587691
0.58768
0.587678
0.587684
0.587391
0.587375
0.587371
0.587377
0.587723
0.587714
0.587713
0.587721
0.586036
0.586015
0.586007
0.586012
0.588155
0.58813
0.588126
0.588144
0.583618
0.584073
0.584077
0.583774
0.585163
0.584805
0.584749
0.584949
0.589667
0.589643
0.589634
0.589639
0.587249
0.587236
0.587231
0.587234
0.588355
0.588347
0.588348
0.588357
0.587783
0.587771
0.587769
0.587775
0.587601
0.587586
0.587583
0.58759
0.587955
0.587951
0.587953
0.58796
0.586393
0.586365
0.586355
0.586363
0.589128
0.589109
0.589109
0.589129
0.582798
0.583086
0.583084
0.58289
0.583087
0.582864
0.582838
0.582964
0.590685
0.590672
0.590674
0.590693
0.587366
0.587345
0.587334
0.587334
0.588395
0.588393
0.588396
0.588405
0.58787
0.58786
0.587858
0.587863
0.587764
0.587752
0.587749
0.587756
0.588097
0.588099
0.588101
0.588105
0.586938
0.586896
0.586884
0.586901
0.590444
0.590451
0.590457
0.590465
0.581306
0.581379
0.581375
0.581331
0.594855
0.603303
0.607303
0.610401
0.61352
0.616273
0.618508
0.620254
0.621619
0.622765
0.595756
0.599079
0.606489
0.611525
0.615981
0.61936
0.62182
0.623582
0.624827
0.625773
0.599599
0.595942
0.606913
0.612613
0.617885
0.621471
0.624032
0.62585
0.627102
0.627995
0.602999
0.592057
0.606665
0.612226
0.618077
0.621618
0.624168
0.625943
0.627159
0.628025
0.607469
0.590038
0.607405
0.612704
0.619005
0.622402
0.624927
0.62662
0.627748
0.628534
0.610537
0.587372
0.60715
0.611981
0.618742
0.62196
0.624502
0.626149
0.627283
0.62811
0.61452
0.5861
0.607976
0.612101
0.619275
0.622234
0.624795
0.626386
0.627493
0.628293
0.616074
0.583044
0.606987
0.610349
0.618037
0.620802
0.623527
0.625202
0.626508
0.627543
0.617729
0.581558
0.607433
0.60946
0.61729
0.619588
0.622543
0.624368
0.625877
0.627104
0.602183
0.565702
0.594218
0.596589
0.606291
0.610172
0.614829
0.617946
0.620509
0.622527
0.53746
0.559512
0.575846
0.587463
0.595419
0.600958
0.604961
0.60795
0.610257
0.612176
0.523727
0.554247
0.576314
0.590245
0.599087
0.605071
0.609309
0.612382
0.614623
0.616288
0.513463
0.551113
0.577412
0.592408
0.601848
0.608101
0.612483
0.61562
0.617854
0.619449
0.505081
0.548085
0.57759
0.59291
0.602756
0.609088
0.61348
0.616581
0.61877
0.620323
0.500627
0.547268
0.578857
0.594236
0.604376
0.610662
0.614999
0.618003
0.620091
0.621555
0.497434
0.546199
0.579279
0.594429
0.604815
0.610985
0.615267
0.618188
0.620237
0.621703
0.497035
0.546629
0.580791
0.595423
0.60598
0.611932
0.616141
0.618964
0.620952
0.622377
0.496238
0.545681
0.580752
0.594691
0.605446
0.611186
0.615423
0.618264
0.620374
0.621971
0.49673
0.546003
0.581932
0.594613
0.605162
0.61043
0.614764
0.617726
0.620005
0.621787
0.48765
0.535972
0.572652
0.584844
0.596415
0.602703
0.608231
0.612124
0.615165
0.617431
0.568548
0.574817
0.580888
0.586259
0.590839
0.594668
0.597839
0.600457
0.602649
0.60454
0.555291
0.56667
0.576845
0.585163
0.591825
0.597069
0.60116
0.60434
0.6068
0.608676
0.542219
0.559373
0.573727
0.584603
0.592903
0.599146
0.603848
0.607393
0.610045
0.61199
0.529081
0.551964
0.570302
0.583285
0.592858
0.599762
0.604816
0.608543
0.61129
0.61328
0.519174
0.547124
0.568893
0.583461
0.593954
0.601245
0.606469
0.610244
0.612989
0.614952
0.510341
0.542605
0.567319
0.583015
0.594186
0.601683
0.60699
0.610769
0.613519
0.615503
0.504324
0.540091
0.567262
0.583647
0.595278
0.602813
0.608124
0.611861
0.614582
0.616545
0.498641
0.537065
0.566304
0.583006
0.594957
0.602445
0.607787
0.61155
0.614364
0.616459
0.494943
0.535732
0.566705
0.583072
0.594909
0.602112
0.607514
0.611378
0.614322
0.616567
0.484864
0.526846
0.559024
0.575334
0.587871
0.5958
0.60202
0.606549
0.610026
0.612548
0.578347
0.580755
0.583658
0.586602
0.589377
0.591887
0.594106
0.596047
0.59776
0.59932
0.569548
0.574307
0.579717
0.584856
0.58939
0.593247
0.596467
0.59912
0.601275
0.602979
0.559043
0.56711
0.575511
0.582928
0.589144
0.594208
0.598278
0.601515
0.604048
0.605978
0.546752
0.558841
0.570576
0.580251
0.587999
0.594058
0.598774
0.602429
0.605237
0.607339
0.536081
0.552463
0.567481
0.579163
0.588191
0.594997
0.600155
0.604061
0.607015
0.609193
0.525484
0.546175
0.564316
0.577706
0.587782
0.595134
0.600596
0.604664
0.607723
0.609983
0.516968
0.541783
0.562777
0.577518
0.588399
0.596098
0.60174
0.605885
0.608991
0.611273
0.508606
0.53718
0.560716
0.576444
0.587922
0.595822
0.601602
0.605839
0.609051
0.611453
0.502107
0.534305
0.560039
0.576168
0.587847
0.595729
0.601622
0.605968
0.609286
0.611808
0.491224
0.526012
0.553194
0.569711
0.582029
0.590478
0.596947
0.601765
0.605454
0.6081
0.584833
0.585597
0.586761
0.588125
0.589558
0.590973
0.592318
0.593571
0.59475
0.595904
0.579471
0.581325
0.583843
0.586566
0.589237
0.591719
0.593945
0.59589
0.597546
0.598904
0.57195
0.575347
0.579653
0.584039
0.588127
0.591751
0.594864
0.597476
0.599614
0.601309
0.56216
0.567766
0.57433
0.580584
0.586132
0.590843
0.59475
0.597936
0.600489
0.602473
0.553065
0.561348
0.570404
0.578534
0.585445
0.591092
0.595634
0.599246
0.602088
0.604257
0.543292
0.554579
0.566234
0.57615
0.584286
0.590713
0.595759
0.599695
0.602764
0.605097
0.534862
0.549337
0.563566
0.575076
0.584251
0.591279
0.596693
0.600849
0.604062
0.606482
0.526185
0.543871
0.560546
0.573392
0.583402
0.59087
0.596565
0.600908
0.604273