/*--------------------------------*- C++ -*----------------------------------*\
| =========                 |                                                 |
| \\      /  F ield         | foam-extend: Open Source CFD                    |
|  \\    /   O peration     | Version:     4.0                                |
|   \\  /    A nd           | Web:         http://www.foam-extend.org         |
|    \\/     M anipulation  |                                                 |
\*---------------------------------------------------------------------------*/
FoamFile
{
    version     2.0;
    format      ascii;
    class       volScalarField;
    location    "1300";
    object      p;
}
// * * * * * * * * * * * * * * * * * * * * * * * * * * * * * * * * * * * * * //

dimensions      [1 -1 -2 0 0 0 0];

internalField   nonuniform List<scalar> 
34480
(
107991
107892
107852
107867
107951
108133
108476
109156
110120
110464
107855
107756
107716
107727
107806
107982
108319
108987
110019
109990
107722
107619
107578
107580
107644
107790
108086
108686
109714
109134
107655
107550
107503
107493
107534
107635
107874
108375
109335
108177
107578
107463
107408
107380
107396
107453
107633
108029
108886
107186
107599
107484
107423
107387
107383
107403
107527
107815
108532
106307
107509
107381
107313
107265
107245
107236
107311
107499
108055
105372
107599
107476
107413
107380
107376
107377
107437
107552
107926
104777
107501
107373
107304
107266
107264
107274
107325
107382
107550
104029
107595
107480
107466
107531
107668
107858
108099
108331
108497
104491
108755
108630
108585
108610
108715
108918
109252
109780
110593
111658
108552
108420
108373
108399
108512
108737
109123
109775
110913
112514
108358
108221
108174
108194
108301
108518
108911
109616
110994
112978
108236
108094
108040
108048
108139
108331
108702
109396
110915
113150
108115
107962
107899
107890
107959
108117
108449
109099
110686
113066
108097
107942
107871
107852
107903
108027
108315
108896
110487
112898
107975
107809
107731
107698
107731
107824
108068
108574
110121
112504
108042
107879
107803
107778
107818
107912
108136
108575
110025
112289
107930
107763
107680
107647
107677
107764
107970
108360
109663
111848
108012
107856
107815
107860
107992
108202
108531
109025
110275
112255
109325
109212
109172
109201
109303
109489
109773
110174
110704
111314
109115
108983
108939
108973
109097
109328
109691
110233
111047
112053
108901
108758
108713
108747
108878
109125
109533
110181
111276
112702
108746
108594
108541
108569
108695
108942
109369
110076
111394
113201
108596
108430
108370
108384
108497
108727
109150
109877
111361
113496
108546
108377
108309
108314
108414
108624
109031
109745
111342
113726
108398
108218
108145
108136
108222
108408
108790
109476
111135
113716
108442
108266
108192
108189
108277
108461
108831
109484
111145
113835
108318
108137
108057
108046
108120
108290
108640
109268
110867
113673
108386
108214
108162
108205
108350
108601
109026
109719
111282
114087
109725
109637
109606
109629
109710
109848
110046
110298
110591
110872
109549
109432
109393
109426
109535
109729
110017
110407
110912
111431
109355
109218
109174
109210
109336
109564
109920
110433
111186
112024
109196
109042
108989
109022
109154
109402
109808
110422
111418
112602
109036
108865
108805
108828
108956
109206
109638
110319
111527
113053
108969
108791
108723
108739
108860
109105
109547
110264
111650
113486
108807
108617
108542
108547
108658
108890
109330
110062
111585
113706
108835
108646
108570
108579
108692
108924
109365
110101
111703
114050
108699
108506
108426
108428
108531
108752
109181
109918
111531
114106
108752
108567
108506
108547
108699
108976
109453
110238
111843
114559
110000
109939
109917
109934
109990
110084
110211
110363
110523
110661
109869
109777
109745
109772
109858
110006
110215
110479
110782
111058
109716
109595
109556
109589
109698
109890
110174
110551
111032
111504
109569
109427
109378
109411
109535
109761
110110
110598
111284
112005
109418
109253
109196
109223
109352
109596
109991
110569
111456
112449
109346
109170
109105
109128
109257
109509
109936
110581
111657
112923
109179
108988
108916
108931
109056
109307
109751
110444
111684
113223
109197
109005
108930
108948
109077
109334
109793
110519
111883
113665
109054
108857
108779
108792
108915
109167
109627
110379
111807
113848
109096
108905
108839
108879
109035
109325
109819
110614
112065
114303
110190
110150
110136
110147
110184
110242
110319
110406
110491
110559
110100
110033
110009
110029
110091
110196
110338
110507
110685
110833
109993
109895
109863
109889
109977
110127
110339
110603
110906
111173
109870
109746
109704
109733
109841
110031
110312
110680
111137
111571
109738
109589
109537
109565
109684
109902
110240
110703
111326
111955
109672
109508
109447
109473
109599
109837
110220
110764
111555
112396
109509
109326
109259
109279
109408
109655
110070
110680
111629
112696
109524
109338
109266
109290
109424
109684
110125
110787
111872
113157
109377
109185
109110
109130
109262
109524
109976
110681
111859
113389
109413
109224
109157
109195
109350
109638
110117
110862
112084
113801
110324
110300
110291
110298
110320
110355
110400
110449
110494
110529
110265
110219
110202
110215
110258
110328
110420
110525
110628
110710
110202
110128
110103
110122
110188
110298
110449
110627
110816
110972
110105
110004
109968
109993
110080
110231
110445
110711
111013
111278
109998
109870
109825
109851
109954
110139
110411
110765
111195
111595
109945
109799
109745
109771
109886
110097
110421
110857
111424
111979
109792
109625
109564
109587
109709
109939
110303
110812
111516
112244
109811
109638
109572
109598
109729
109975
110374
110943
111773
112677
109664
109483
109414
109438
109570
109823
110241
110860
111788
112896
109697
109517
109452
109489
109636
109909
110350
111008
111987
113247
110423
110408
110403
110407
110420
110440
110466
110493
110517
110535
110383
110353
110342
110350
110378
110423
110481
110544
110604
110649
110358
110304
110285
110299
110346
110424
110526
110643
110759
110851
110283
110205
110177
110196
110263
110377
110533
110720
110917
111080
110205
110100
110063
110085
110170
110317
110527
110788
111080
111336
110168
110044
109997
110021
110121
110298
110559
110895
111295
111661
110029
109882
109829
109852
109962
110162
110467
110873
111384
111879
110057
109902
109843
109869
109989
110210
110553
111021
111638
112267
109912
109747
109685
109710
109835
110066
110433
110951
111656
112438
109946
109782
109721
109755
109890
110138
110525
111079
111835
112728
110498
110490
110487
110489
110497
110508
110522
110537
110550
110560
110469
110450
110443
110448
110466
110494
110529
110566
110601
110626
110474
110436
110423
110433
110465
110517
110584
110659
110730
110784
110417
110359
110338
110352
110401
110484
110593
110720
110847
110948
110365
110283
110254
110271
110337
110450
110606
110792
110988
111151
110345
110244
110205
110226
110308
110450
110652
110901
111179
111419
110220
110097
110052
110073
110167
110334
110579
110891
111255
111589
110261
110129
110077
110102
110207
110396
110678
111047
111496
111927
110120
109975
109921
109946
110057
110259
110567
110982
111503
112043
110158
110014
109959
109989
110109
110325
110651
111098
111664
112283
110559
110554
110553
110554
110558
110564
110572
110580
110587
110592
110533
110522
110517
110520
110531
110548
110569
110591
110611
110625
110561
110535
110527
110533
110554
110588
110631
110678
110721
110752
110515
110474
110458
110468
110503
110561
110636
110720
110801
110863
110487
110425
110403
110416
110466
110549
110661
110789
110919
111022
110481
110403
110373
110389
110453
110563
110714
110894
111083
111239
110372
110272
110236
110253
110330
110464
110652
110885
111139
111362
110427
110318
110276
110297
110385
110540
110764
111044
111364
111654
110289
110167
110122
110143
110238
110407
110655
110977
111353
111718
110335
110212
110165
110192
110293
110474
110739
111087
111500
111919
110609
110606
110606
110606
110609
110612
110617
110621
110625
110627
110581
110575
110572
110574
110580
110590
110603
110616
110627
110636
110628
110611
110606
110610
110623
110645
110671
110700
110726
110744
110587
110558
110547
110554
110578
110617
110667
110722
110773
110812
110579
110534
110518
110527
110563
110623
110700
110787
110872
110937
110585
110526
110503
110516
110564
110646
110755
110881
111008
111109
110488
110410
110382
110396
110456
110559
110700
110868
111042
111189
110559
110473
110439
110457
110528
110650
110821
111027
111250
111442
110422
110323
110286
110305
110382
110518
110711
110952
111217
111460
110479
110379
110340
110361
110445
110590
110798
111060
111353
111632
110653
110651
110651
110651
110652
110654
110657
110659
110661
110662
110619
110615
110613
110614
110618
110624
110631
110639
110646
110651
110680
110670
110667
110669
110678
110691
110707
110724
110740
110750
110639
110620
110612
110616
110632
110658
110690
110726
110758
110782
110647
110616
110605
110611
110636
110677
110730
110788
110842
110882
110663
110620
110603
110612
110648
110706
110783
110869
110954
111018
110575
110517
110495
110506
110551
110627
110729
110847
110965
111061
110663
110597
110571
110585
110640
110732
110859
111006
111159
111284
110524
110446
110417
110432
110493
110598
110743
110917
111101
111261
110593
110514
110484
110501
110567
110679
110836
111028
111232
111414
110691
110690
110690
110690
110691
110692
110693
110694
110695
110696
110647
110645
110644
110645
110647
110650
110655
110660
110664
110667
110724
110718
110715
110717
110722
110730
110740
110750
110759
110764
110676
110663
110658
110661
110671
110688
110708
110731
110751
110766
110699
110677
110670
110674
110691
110719
110753
110791
110825
110850
110719
110689
110677
110684
110709
110749
110802
110860
110915
110955
110639
110596
110581
110589
110621
110676
110747
110828
110906
110968
110743
110695
110675
110686
110727
110795
110885
110988
111091
111170
110599
110539
110518
110529
110575
110653
110758
110881
111006
111110
110683
110624
110600
110613
110663
110747
110862
110998
111136
111254
110725
110724
110725
110725
110725
110726
110726
110727
110727
110727
110668
110667
110666
110666
110668
110670
110673
110676
110678
110681
110761
110757
110756
110757
110760
110765
110771
110776
110781
110783
110702
110694
110691
110692
110699
110709
110722
110736
110748
110758
110737
110723
110718
110721
110732
110750
110772
110796
110817
110832
110759
110739
110731
110735
110752
110780
110815
110852
110888
110913
110685
110655
110644
110649
110672
110710
110759
110813
110863
110903
110805
110771
110757
110765
110794
110842
110905
110974
111042
111092
110651
110606
110591
110599
110633
110688
110762
110847
110929
110997
110754
110711
110693
110703
110739
110800
110882
110974
111067
111142
110759
110758
110758
110758
110758
110759
110759
110759
110759
110759
110681
110681
110680
110680
110681
110682
110684
110686
110688
110691
110794
110792
110792
110792
110794
110797
110800
110803
110805
110805
110720
110715
110713
110714
110717
110724
110732
110741
110748
110755
110764
110756
110753
110755
110762
110773
110787
110801
110814
110823
110787
110773
110768
110771
110782
110800
110823
110847
110869
110885
110717
110697
110689
110693
110709
110734
110766
110801
110833
110858
110854
110831
110821
110827
110847
110880
110922
110968
111012
111041
110683
110652
110641
110647
110670
110709
110759
110815
110869
110913
110812
110782
110769
110776
110802
110844
110900
110962
111022
111068
110795
110794
110795
110795
110795
110795
110795
110795
110795
110794
110686
110686
110685
110685
110686
110687
110688
110690
110691
110694
110824
110823
110823
110824
110825
110827
110828
110829
110830
110829
110732
110728
110727
110728
110730
110734
110739
110744
110748
110753
110783
110778
110776
110777
110782
110789
110797
110806
110814
110819
110803
110794
110790
110792
110799
110811
110825
110841
110855
110864
110739
110726
110721
110724
110734
110751
110771
110793
110812
110828
110891
110877
110870
110874
110887
110909
110937
110966
110995
111012
110700
110678
110670
110674
110690
110716
110749
110785
110819
110848
110866
110846
110837
110841
110859
110887
110925
110964
111003
111031
110848
110847
110848
110848
110848
110848
110847
110847
110846
110846
110680
110679
110679
110679
110679
110680
110681
110683
110684
110687
110850
110850
110850
110850
110851
110852
110852
110853
110853
110851
110739
110737
110736
110737
110738
110740
110743
110746
110748
110751
110793
110790
110788
110789
110792
110796
110801
110807
110811
110814
110808
110802
110800
110801
110805
110813
110822
110831
110840
110846
110753
110745
110742
110744
110751
110761
110774
110787
110798
110807
110915
110906
110901
110903
110912
110926
110944
110963
110982
110991
110698
110683
110678
110681
110691
110708
110729
110752
110773
110792
110930
110917
110911
110914
110926
110944
110968
110994
111019
111034
110942
110942
110942
110942
110942
110942
110942
110941
110940
110939
110655
110654
110654
110653
110654
110654
110655
110656
110658
110661
110864
110863
110863
110863
110863
110863
110864
110865
110866
110864
110742
110742
110742
110742
110743
110744
110746
110747
110748
110749
110794
110792
110791
110791
110793
110796
110799
110802
110806
110807
110803
110800
110798
110799
110801
110806
110812
110818
110824
110828
110759
110755
110753
110755
110759
110765
110773
110781
110787
110792
110914
110907
110904
110905
110910
110919
110931
110944
110958
110963
110671
110662
110659
110661
110667
110678
110691
110705
110717
110730
111030
111022
111017
111019
111027
111039
111055
111071
111088
111096
111105
111105
111104
111104
111104
111104
111104
111104
111104
111104
110595
110595
110597
110597
110598
110598
110598
110598
110597
110599
110853
110851
110849
110848
110848
110849
110850
110852
110854
110855
110746
110746
110747
110748
110748
110749
110750
110750
110750
110749
110790
110788
110787
110787
110788
110790
110793
110795
110797
110799
110794
110791
110790
110790
110792
110795
110799
110803
110807
110810
110760
110758
110757
110758
110761
110766
110771
110776
110779
110781
110872
110866
110863
110864
110867
110874
110882
110891
110902
110909
110605
110601
110599
110601
110606
110613
110622
110630
110636
110642
111187
111181
111178
111179
111184
111193
111203
111215
111227
111232
111289
111287
111285
111284
111284
111285
111285
111287
111289
111293
110514
110520
110523
110525
110526
110526
110525
110522
110517
110511
110820
110816
110814
110813
110813
110813
110815
110817
110821
110826
110753
110754
110755
110755
110756
110757
110757
110757
110757
110756
110786
110785
110784
110784
110785
110787
110788
110791
110793
110795
110788
110786
110785
110785
110787
110789
110793
110796
110799
110802
110764
110762
110762
110763
110765
110769
110773
110777
110780
110781
110810
110804
110801
110802
110805
110810
110817
110825
110834
110843
110522
110521
110520
110522
110526
110532
110539
110546
110549
110546
111355
111350
111347
111348
111353
111360
111369
111378
111388
111392
122717
123930
123755
122482
125948
127354
126954
125334
128894
130481
129894
127905
131066
132768
131995
129728
132734
134516
133569
131098
134088
135930
134977
132386
135017
136892
136071
133413
135843
137723
137066
134371
135759
137612
137099
134412
135349
137188
136934
134401
113031
113221
113259
113139
115317
115688
115746
115456
117576
118128
118187
117678
119719
120439
120485
119731
121675
122531
122546
121535
123531
124497
124477
123250
125069
126119
126069
124685
126574
127684
127616
126123
127355
128496
128427
126882
128003
129178
129157
127662
111834
111923
111951
111925
113158
113326
113366
113299
114614
114881
114933
114804
116094
116466
116526
116314
117521
117996
118054
117738
119000
119576
119627
119194
120293
120962
121003
120451
121676
122421
122452
121786
122496
123288
123314
122553
123315
124144
124186
123371
110987
111010
111021
111021
111741
111794
111814
111807
112663
112766
112800
112775
113696
113865
113913
113859
114726
114967
115029
114931
115856
116176
116248
116093
116862
117259
117338
117115
118021
118489
118572
118274
118734
119253
119341
118979
119510
120072
120177
119774
110707
110716
110721
110722
111180
111204
111214
111214
111765
111814
111834
111830
112473
112557
112589
112578
113200
113327
113371
113348
114039
114216
114274
114229
114777
115007
115077
115003
115697
115981
116060
115950
116275
116600
116692
116549
116953
117314
117425
117259
110577
110581
110583
110584
110881
110891
110896
110897
111278
111298
111308
111310
111771
111810
111829
111831
112294
112358
112387
112387
112924
113020
113061
113056
113462
113593
113646
113631
114192
114360
114423
114393
114651
114849
114926
114882
115203
115428
115521
115464
110537
110539
110540
110541
110734
110738
110741
110742
111023
111032
111038
111039
111375
111394
111405
111408
111758
111792
111809
111814
112240
112292
112319
112324
112630
112704
112741
112744
113212
113310
113356
113355
113562
113681
113738
113732
113995
114133
114199
114187
110539
110540
110541
110541
110661
110663
110665
110665
110877
110882
110885
110886
111131
111141
111147
111149
111421
111439
111450
111453
111798
111827
111844
111849
112083
112125
112148
112155
112552
112609
112640
112646
112799
112871
112909
112914
113136
113220
113264
113266
110562
110562
110563
110563
110633
110634
110635
110635
110798
110801
110802
110803
110977
110983
110986
110988
111199
111209
111215
111218
111497
111514
111524
111528
111703
111727
111742
111747
112086
112120
112140
112146
112245
112289
112314
112319
112512
112562
112591
112596
110593
110594
110594
110594
110629
110630
110630
110631
110760
110762
110763
110763
110881
110884
110886
110887
111051
111056
111060
111062
111286
111296
111302
111305
111429
111443
111452
111456
111747
111768
111780
111784
111836
111863
111878
111883
112052
112082
112100
112105
110628
110628
110628
110628
110638
110639
110639
110639
110749
110749
110750
110750
110822
110824
110826
110826
110954
110957
110959
110961
111138
111144
111148
111150
111229
111238
111244
111247
111499
111511
111519
111522
111532
111548
111558
111562
111712
111731
111742
111745
110663
110663
110663
110663
110653
110653
110653
110653
110752
110753
110753
110753
110789
110790
110791
110791
110893
110895
110896
110897
111036
111040
111042
111043
111086
111091
111095
111097
111319
111327
111331
111333
111306
111316
111323
111325
111463
111475
111482
111484
110696
110696
110696
110696
110668
110668
110668
110669
110765
110766
110766
110765
110770
110771
110772
110772
110856
110857
110858
110858
110967
110970
110971
110972
110984
110987
110989
110991
111192
111197
111200
111201
111139
111145
111150
111151
111284
111291
111296
111297
110727
110727
110727
110727
110682
110682
110682
110682
110784
110784
110784
110784
110761
110761
110762
110762
110836
110836
110837
110837
110921
110923
110924
110924
110912
110914
110916
110917
111106
111109
111111
111111
111016
111020
111023
111024
111160
111164
111167
111168
110759
110759
110759
110759
110691
110691
110691
110692
110806
110806
110806
110805
110756
110756
110757
110757
110825
110825
110826
110826
110890
110891
110892
110892
110863
110864
110865
110866
111051
111053
111054
111054
110925
110928
110929
110930
111079
111081
111083
111084
110794
110794
110794
110794
110694
110695
110695
110695
110830
110830
110829
110829
110753
110753
110753
110754
110820
110820
110820
110820
110868
110869
110870
110870
110830
110830
110830
110831
111018
111019
111020
111020
110856
110858
110859
110859
111036
111038
111039
111039
110845
110845
110845
110845
110687
110688
110688
110688
110852
110852
110852
110852
110750
110750
110750
110750
110815
110815
110815
110816
110850
110850
110851
110851
110806
110806
110806
110806
110997
110998
110999
110999
110797
110798
110799
110799
111036
111037
111037
111038
110939
110939
110938
110938
110661
110661
110662
110662
110867
110867
110867
110867
110747
110747
110747
110747
110809
110809
110809
110809
110831
110831
110831
110831
110788
110788
110788
110788
110971
110973
110973
110973
110732
110733
110734
110734
111096
111096
111096
111098
111103
111103
111103
111103
110596
110596
110596
110596
110861
110862
110863
110863
110746
110745
110745
110745
110801
110801
110801
110801
110813
110813
110814
110814
110776
110775
110775
110776
110922
110925
110925
110924
110638
110637
110637
110638
111238
111238
111238
111239
111294
111295
111295
111296
110495
110492
110491
110491
110836
110838
110839
110840
110752
110751
110750
110750
110796
110797
110797
110797
110804
110805
110805
110805
110777
110775
110775
110776
110861
110865
110866
110864
110522
110516
110515
110518
111414
111417
111417
111415
116103
113590
111667
110380
109575
109056
108701
108451
108272
108136
117163
113983
111616
110217
109392
108867
108518
108277
108109
107984
117532
114029
111354
110035
109211
108692
108343
108101
107938
107832
117524
113934
111034
109881
109075
108590
108258
108029
107871
107764
117247
113722
110735
109711
108913
108463
108144
107928
107778
107683
116884
113604
110574
109683
108886
108474
108165
107962
107814
107710
116250
113354
110290
109538
108732
108361
108057
107863
107717
107620
115834
113383
110286
109677
108856
108519
108207
108008
107850
107727
115113
113054
109979
109548
108752
108461
108140
107936
107770
107638
115554
113753
110651
110246
109326
108932
108498
108206
107969
107767
112584
111840
111179
110627
110173
109803
109504
109263
109071
108920
114207
112843
111711
110857
110214
109732
109368
109092
108880
108721
115510
113560
112020
110946
110161
109596
109187
108886
108664
108515
116502
114054
112176
110972
110104
109507
109082
108776
108550
108396
117134
114326
112178
110897
109978
109372
108945
108642
108418
108271
117615
114581
112216
110905
109955
109357
108933
108635
108414
108259
117768
114619
112076
110770
109800
109218
108797
108507
108286
108136
117983
114826
112146
110881
109899
109337
108913
108619
108389
108219
117765
114631
111906
110749
109797
109265
108835
108534
108297
108117
118172
115146
112384
111249
110221
109616
109107
108742
108455
108224
111768
111453
111100
110761
110455
110187
109958
109764
109603
109473
112940
112300
111632
111053
110580
110198
109889
109641
109441
109285
114142
113093
112070
111249
110611
110123
109747
109456
109232
109073
115258
113775
112419
111405
110645
110084
109663
109345
109103
108930
116190
114276
112613
111445
110591
109982
109535
109204
108953
108780
117067
114754
112818
111536
110612
109976
109514
109177
108921
108738
117669
115000
112824
111463
110487
109838
109368
109029
108769
108590
118322
115367
112999
111601
110592
109939
109460
109114
108846
108648
118494
115322
112867
111508
110508
109866
109375
109019
108742
108535
118999
115742
113240
111876
110820
110125
109580
109178
108868
108625
110998
110902
110767
110615
110459
110307
110167
110040
109929
109835
111733
111505
111217
110923
110646
110396
110176
109986
109825
109696
112604
112169
111662
111184
110764
110407
110110
109866
109668
109521
113542
112854
112103
111443
110888
110438
110076
109787
109557
109385
114409
113432
112427
111596
110924
110399
109989
109669
109416
109234
115305
114022
112767
111785
111015
110433
109987
109646
109378
109181
116002
114406
112909
111801
110949
110326
109855
109500
109221
109022
116795
114909
113200
111997
111085
110433
109941
109570
109281
109064
117172
115039
113198
111960
111021
110355
109845
109462
109162
108937
117778
115468
113531
112245
111254
110545
109996
109581
109259
109008
110713
110673
110612
110536
110453
110368
110285
110207
110136
110075
111187
111092
110954
110797
110635
110477
110330
110197
110080
109983
111771
111579
111322
111049
110785
110542
110327
110139
109980
109858
112471
112146
111737
111328
110952
110621
110337
110097
109899
109744
113165
112672
112088
111537
111050
110637
110295
110013
109782
109610
113940
113251
112478
111786
111197
110714
110323
110008
109753
109559
114571
113664
112693
111870
111188
110647
110216
109876
109602
109400
115343
114214
113056
112119
111360
110772
110308
109945
109656
109434
115781
114448
113149
112136
111323
110701
110211
109831
109530
109301
116381
114868
113456
112375
111509
110849
110328
109923
109605
109357
110580
110563
110534
110497
110454
110408
110362
110316
110274
110236
110888
110845
110778
110694
110602
110507
110415
110328
110249
110181
111292
111204
111074
110920
110760
110601
110453
110317
110199
110105
111796
111642
111422
111178
110934
110703
110493
110307
110148
110019
112325
112079
111748
111400
111064
110759
110490
110258
110062
109911
112952
112592
112132
111672
111245
110870
110547
110276
110050
109872
113468
112970
112369
111793
111278
110839
110469
110165
109913
109722
114151
113504
112757
112075
111479
110983
110573
110240
109969
109756
114565
113769
112895
112123
111461
110921
110481
110128
109841
109620
115086
114152
113176
112334
111622
111046
110578
110203
109904
109667
110539
110530
110516
110497
110474
110450
110424
110398
110373
110352
110737
110716
110680
110634
110582
110526
110470
110415
110364
110320
111030
110986
110915
110826
110728
110627
110528
110435
110352
110285
111393
111314
111192
111045
110888
110731
110582
110446
110325
110224
111789
111661
111471
111253
111027
110809
110607
110426
110269
110144
112284
112092
111820
111519
111219
110939
110686
110465
110275
110122
112682
112409
112040
111651
111275
110933
110633
110375
110156
109986
113259
112892
112419
111940
111491
111093
110751
110461
110220
110027
113601
113131
112557
111996
111483
111041
110665
110354
110095
109892
114025
113464
112812
112189
111630
111154
110753
110422
110152
109935
110540
110536
110528
110518
110506
110493
110479
110464
110450
110438
110663
110652
110633
110607
110578
110545
110512
110478
110447
110419
110881
110857
110817
110765
110706
110642
110579
110517
110461
110415
111142
111099
111028
110939
110839
110735
110633
110537
110449
110374
111442
111372
111259
111121
110971
110820
110674
110539
110419
110322
111832
111725
111561
111365
111159
110956
110766
110594
110442
110316
112130
111976
111748
111487
111220
110964
110730
110522
110340
110197
112606
112395
112097
111767
111439
111134
110859
110620
110416
110248
112857
112581
112210
111815
111433
111086
110779
110518
110294
110116
113195
112862
112435
111992
111571
111194
110864
110585
110351
110160
110562
110560
110556
110551
110544
110537
110529
110521
110513
110507
110634
110628
110618
110604
110587
110568
110548
110528
110509
110491
110800
110786
110763
110733
110697
110658
110618
110578
110541
110512
110984
110959
110917
110863
110800
110732
110664
110598
110536
110483
111212
111171
111103
111015
110917
110814
110712
110615
110526
110454
111519
111457
111355
111229
111089
110946
110808
110678
110562
110463
111736
111645
111503
111329
111143
110957
110781
110620
110476
110359
112127
112003
111814
111591
111357
111130
110919
110729
110563
110423
112293
112129
111891
111620
111345
111082
110842
110630
110445
110295
112563
112366
112090
111783
111475
111188
110927
110700
110505
110344
110593
110592
110590
110587
110584
110580
110576
110571
110567
110563
110630
110627
110621
110613
110603
110593
110581
110569
110558
110547
110761
110753
110740
110722
110700
110676
110651
110626
110603
110585
110885
110870
110845
110812
110772
110729
110685
110640
110599
110562
111058
111034
110992
110937
110873
110804
110735
110667
110604
110552
111299
111262
111199
111117
111024
110925
110827
110734
110648
110573
111450
111395
111305
111191
111063
110932
110803
110683
110572
110482
111774
111700
111579
111430
111268
111104
110946
110801
110671
110559
111870
111771
111619
111437
111242
111049
110867
110702
110555
110433
112089
111970
111793
111585
111367
111154
110956
110778
110622
110490
110628
110627
110626
110625
110623
110621
110618
110616
110613
110612
110639
110637
110634
110629
110624
110618
110611
110604
110597
110590
110749
110744
110736
110725
110712
110698
110682
110667
110652
110642
110825
110817
110801
110781
110756
110729
110700
110672
110644
110619
110959
110943
110918
110883
110842
110796
110750
110704
110660
110624
111146
111124
111084
111031
110970
110903
110836
110770
110708
110653
111243
111209
111152
111077
110991
110900
110809
110721
110639
110572
111516
111470
111393
111295
111184
111069
110955
110847
110749
110663
111554
111494
111397
111275
111141
111003
110869
110745
110631
110536
111737
111665
111552
111413
111262
111109
110963
110828
110707
110603
110662
110662
110661
110661
110660
110658
110657
110656
110654
110654
110653
110652
110651
110648
110645
110641
110637
110634
110629
110625
110752
110749
110744
110738
110730
110721
110712
110702
110694
110689
110791
110786
110776
110764
110749
110732
110713
110695
110677
110660
110895
110886
110870
110848
110822
110793
110762
110731
110702
110678
111041
111027
111002
110969
110928
110884
110839
110793
110750
110711
111095
111074
111037
110988
110931
110869
110806
110744
110685
110637
111329
111301
111252
111188
111114
111034
110954
110877
110806
110741
111320
111283
111221
111141
111050
110954
110858
110767
110682
110611
111479
111435
111364
111272
111169
111063
110958
110859
110768
110689
110696
110695
110695
110695
110694
110693
110693
110692
110691
110691
110669
110668
110667
110666
110664
110662
110660
110658
110655
110651
110765
110763
110760
110756
110751
110746
110740
110735
110730
110728
110772
110769
110763
110756
110747
110736
110725
110713
110701
110690
110858
110852
110842
110828
110811
110793
110773
110753
110734
110719
110970
110962
110946
110924
110899
110870
110839
110809
110780
110753
110990
110976
110953
110921
110884
110843
110800
110757
110716
110682
111198
111181
111150
111108
111059
111006
110951
110897
110847
110800
111148
111125
111085
111033
110972
110906
110840
110775
110714
110662
111295
111268
111222
111163
111095
111022
110948
110878
110813
110755
110727
110727
110727
110727
110726
110726
110726
110725
110725
110725
110683
110682
110682
110681
110680
110679
110678
110676
110674
110671
110783
110782
110780
110778
110775
110772
110768
110765
110762
110762
110762
110760
110757
110753
110747
110741
110734
110726
110719
110712
110836
110833
110827
110818
110808
110796
110783
110771
110759
110749
110923
110918
110908
110894
110878
110859
110840
110820
110800
110782
110916
110908
110893