/*--------------------------------*- C++ -*----------------------------------*\
| =========                 |                                                 |
| \\      /  F ield         | foam-extend: Open Source CFD                    |
|  \\    /   O peration     | Version:     4.0                                |
|   \\  /    A nd           | Web:         http://www.foam-extend.org         |
|    \\/     M anipulation  |                                                 |
\*---------------------------------------------------------------------------*/
FoamFile
{
    version     2.0;
    format      ascii;
    class       surfaceScalarField;
    location    "1300";
    object      phi;
}
// * * * * * * * * * * * * * * * * * * * * * * * * * * * * * * * * * * * * * //

dimensions      [1 0 -1 0 0 0 0];

internalField   nonuniform List<scalar> 
97302
(
-0.000109786
9.56634e-07
-0.000869009
0.000878267
-0.000119588
1.14709e-06
-0.000870017
0.000878672
-0.0001295
1.20728e-06
-0.000870547
0.000879251
-0.000140093
1.14649e-06
-0.00087059
0.000880036
-0.000152193
9.55819e-07
-0.000870142
0.000881287
-0.000167281
6.25046e-07
-0.000868982
0.000883444
-0.000188447
1.27566e-07
-0.000866502
0.00088754
-0.000222692
-5.81249e-07
-0.000860885
0.000895711
-0.000271255
-1.62424e-06
-0.000851108
0.000901295
-4.38149e-06
-0.00082362
-0.000352898
0.000909645
-0.000150895
1.62074e-06
-0.00116527
0.00117533
-0.000161153
1.98547e-06
-0.00116623
0.00117565
-0.000171486
2.10565e-06
-0.00116683
0.00117627
-0.00018243
2.01524e-06
-0.00116687
0.00117694
-0.000194783
1.69956e-06
-0.00116608
0.00117769
-0.00021026
1.14724e-06
-0.00116409
0.00117904
-0.000232709
3.00593e-07
-0.00116051
0.00118279
-0.000271507
-9.36093e-07
-0.00115373
0.00119288
-0.000328273
-2.86688e-06
-0.00114144
0.00119945
-7.43256e-06
-0.00110357
-0.000432665
0.00121102
-0.000191218
1.93546e-06
-0.00146048
0.00147129
-0.00020177
2.43431e-06
-0.00146151
0.00147161
-0.000212273
2.61666e-06
-0.00146215
0.00147214
-0.000223237
2.54064e-06
-0.00146197
0.0014724
-0.000235588
2.1887e-06
-0.00146064
0.0014725
-0.000251462
1.55036e-06
-0.001458
0.00147347
-0.000275337
5.46636e-07
-0.00145415
0.00147778
-0.000318303
-9.21394e-07
-0.0014476
0.00149055
-0.000381622
-3.30734e-06
-0.00143446
0.00149821
-9.0936e-06
-0.00138579
-0.000500603
0.00150643
-0.00023148
2.14406e-06
-0.00175182
0.00176305
-0.000242325
2.7815e-06
-0.00175307
0.00176356
-0.000253122
3.04107e-06
-0.00175396
0.00176433
-0.000264398
3.00455e-06
-0.00175398
0.00176479
-0.000277145
2.64375e-06
-0.00175283
0.00176512
-0.000293686
1.95022e-06
-0.00175043
0.00176658
-0.000318831
8.22115e-07
-0.0017469
0.00177177
-0.000364931
-8.32724e-07
-0.00174071
0.00178672
-0.000432936
-3.6201e-06
-0.00172712
0.00179544
-1.05749e-05
-0.00166734
-0.000560691
0.00179657
-0.000271653
2.38841e-06
-0.00204437
0.0020558
-0.000282669
3.0935e-06
-0.00204599
0.00205669
-0.000293633
3.38943e-06
-0.00204738
0.002058
-0.000305101
3.36823e-06
-0.00204787
0.00205897
-0.000318133
2.99932e-06
-0.00204724
0.00205992
-0.000335172
2.27405e-06
-0.00204547
0.00206219
-0.000361319
1.07637e-06
-0.00204259
0.00206849
-0.000409953
-6.78291e-07
-0.00203709
0.00208557
-0.0004819
-3.74625e-06
-0.00202387
0.00209595
-1.18014e-05
-0.0019523
-0.000615139
0.00208677
-0.0003124
2.47479e-06
-0.00233557
0.00234731
-0.000323518
3.20408e-06
-0.00233763
0.00234864
-0.00033455
3.48718e-06
-0.0023394
0.00235033
-0.000346073
3.43826e-06
-0.0023403
0.00235175
-0.000359202
3.03539e-06
-0.00234019
0.00235328
-0.000376464
2.27881e-06
-0.00233917
0.00235643
-0.000403234
1.05098e-06
-0.00233722
0.00236402
-0.00045376
-7.15266e-07
-0.00233284
0.0023834
-0.000529015
-3.84184e-06
-0.00232114
0.00239649
-1.27691e-05
-0.00223748
-0.00066579
0.00237523
-0.000352968
2.4416e-06
-0.00262662
0.0026385
-0.00036403
3.07861e-06
-0.00262926
0.00264044
-0.000374982
3.2916e-06
-0.00263157
0.00264272
-0.000386412
3.15795e-06
-0.00263292
0.00264463
-0.000399486
2.68244e-06
-0.00263339
0.00264682
-0.000416763
1.85791e-06
-0.00263319
0.00265089
-0.000443868
6.20698e-07
-0.00263238
0.00265992
-0.000495734
-1.04616e-06
-0.00262962
0.00268182
-0.000573776
-3.79597e-06
-0.00262059
0.00269858
-1.29321e-05
-0.00252462
-0.00071256
0.00266356
-0.000394803
2.05964e-06
-0.00291822
0.00293054
-0.000405915
2.50879e-06
-0.00292143
0.00293311
-0.000416864
2.5372e-06
-0.00292385
0.00293555
-0.000428242
2.19962e-06
-0.00292514
0.00293747
-0.000441178
1.53199e-06
-0.0029255
0.00293958
-0.000458176
5.32175e-07
-0.00292546
0.00294379
-0.000485005
-7.718e-07
-0.00292537
0.00295359
-0.000537063
-2.31021e-06
-0.00292406
0.00297739
-0.000616575
-4.09835e-06
-0.00291841
0.00299822
-1.20991e-05
-0.00281196
-0.000755762
0.00295031
-0.000436029
1.08224e-06
-0.00320612
0.00321857
-0.000446714
1.15007e-06
-0.00321017
0.00322221
-0.000457267
8.59644e-07
-0.0032132
0.00322543
-0.00046834
1.27512e-07
-0.0032151
0.00322824
-0.0004811
-9.29517e-07
-0.00321626
0.00323148
-0.000497939
-2.28659e-06
-0.00321724
0.0032369
-0.000524621
-3.75882e-06
-0.00321858
0.00324825
-0.000576408
-5.07126e-06
-0.0032196
0.00327415
-0.000655856
-5.47819e-06
-0.00321636
0.00329719
-1.0174e-05
-0.00309918
-0.000792539
0.00323393
-0.000477462
-0.00347469
0.00348771
-0.000488788
-0.00347823
0.0034907
-0.00049995
-0.00347889
0.00349091
-0.000511632
-0.00347633
0.00348814
-0.000524877
-0.0034712
0.00348352
-0.000541817
-0.00346457
0.00347923
-0.000567689
-0.0034576
0.00347972
-0.00061669
-0.0034518
0.00349573
-0.00068978
-0.00344834
0.00351595
-0.00333957
-0.000818814
0.00345843
1.44043e-05
8.95573e-07
-0.000860571
5.33076e-06
1.12125e-06
-0.000862065
-3.76514e-06
1.20291e-06
-0.000862654
-1.30674e-05
1.14626e-06
-0.000862434
-2.27757e-05
9.41549e-07
-0.000861376
-3.31087e-05
5.7034e-07
-0.000859219
-4.42145e-05
-1.64466e-09
-0.000855394
-5.55132e-05
-8.53481e-07
-0.000848733
-6.6222e-05
-2.1815e-06
-0.000838217
-3.95334e-06
-0.000821966
-6.39226e-05
1.54298e-05
1.53382e-06
-0.00115544
5.42379e-06
1.95255e-06
-0.00115706
-4.57404e-06
2.1078e-06
-0.00115774
-1.48813e-05
2.03004e-06
-0.00115744
-2.57636e-05
1.69779e-06
-0.00115596
-3.75847e-05
1.08867e-06
-0.00115279
-5.11815e-05
1.40625e-07
-0.00114706
-6.75981e-05
-1.26308e-06
-0.0011369
-8.82355e-05
-3.5105e-06
-0.00111947
-6.57996e-06
-0.00109053
-9.8652e-05
1.67608e-05
1.86606e-06
-0.00144948
6.04596e-06
2.43292e-06
-0.00145128
-4.57847e-06
2.65737e-06
-0.00145208
-1.54452e-05
2.59569e-06
-0.00145167
-2.68931e-05
2.21545e-06
-0.00144971
-3.96573e-05
1.49301e-06
-0.00144564
-5.54836e-05
3.36264e-07
-0.00143852
-7.71002e-05
-1.3773e-06
-0.00142587
-0.000108598
-4.23395e-06
-0.00140223
-8.35098e-06
-0.00135872
-0.000133893
1.797e-05
2.0934e-06
-0.00174011
6.77171e-06
2.81663e-06
-0.00174225
-4.33645e-06
3.12717e-06
-0.00174332
-1.57517e-05
3.11046e-06
-0.00174308
-2.79308e-05
2.71979e-06
-0.00174116
-4.18674e-05
1.93371e-06
-0.00173694
-5.98717e-05
6.19453e-07
-0.00172918
-8.60664e-05
-1.3371e-06
-0.00171455
-0.000128008
-4.73069e-06
-0.00168468
-9.84658e-06
-0.00162483
-0.000169013
1.90746e-05
2.35134e-06
-0.00203225
7.58892e-06
3.15174e-06
-0.00203484
-3.79881e-06
3.50477e-06
-0.00203637
-1.55475e-05
3.50943e-06
-0.00203652
-2.82523e-05
3.11482e-06
-0.00203493
-4.30928e-05
2.299e-06
-0.002031
-6.28453e-05
8.90142e-07
-0.00202311
-9.29296e-05
-1.21612e-06
-0.00200713
-0.000144844
-5.00364e-06
-0.00197169
-1.09956e-05
-0.00189458
-0.000201417
1.97675e-05
2.47035e-06
-0.00232302
8.10391e-06
3.30405e-06
-0.00232612
-3.41335e-06
3.65189e-06
-0.00232803
-1.53025e-05
3.63907e-06
-0.00232854
-2.82793e-05
3.22149e-06
-0.00232732
-4.3687e-05
2.38709e-06
-0.00232385
-6.47314e-05
9.44039e-07
-0.00231623
-9.80019e-05
-1.20223e-06
-0.00229958
-0.000159312
-5.13463e-06
-0.0022597
-1.18126e-05
-0.00216514
-0.000230842
2.0169e-05
2.42871e-06
-0.00261379
8.5286e-06
3.16843e-06
-0.00261748
-2.9367e-06
3.45125e-06
-0.00261991
-1.47622e-05
3.36623e-06
-0.00262083
-2.77942e-05
2.90845e-06
-0.00262005
-4.34868e-05
2.04856e-06
-0.00261716
-6.54254e-05
6.10875e-07
-0.00261011
-0.00010124
-1.4994e-06
-0.00259351
-0.000171235
-5.17786e-06
-0.00255055
-1.21843e-05
-0.00243862
-0.000256865
1.99041e-05
2.07043e-06
-0.00290495
8.26267e-06
2.62578e-06
-0.00290925
-3.09456e-06
2.75415e-06
-0.00291179
-1.47511e-05
2.51761e-06
-0.00291263
-2.76087e-05
1.947e-06
-0.00291168
-4.3196e-05
1.00906e-06
-0.00290884
-6.53989e-05
-3.88773e-07
-0.00290216
-0.000102682
-2.35637e-06
-0.00288592
-0.000180086
-5.16708e-06
-0.00284101
-1.18493e-05
-0.00271287
-0.000279505
1.93744e-05
1.08895e-06
-0.00319258
8.20179e-06
1.23422e-06
-0.00319761
-2.65059e-06
1.07448e-06
-0.00320067
-1.37976e-05
4.91011e-07
-0.00320193
-2.62963e-05
-3.85176e-07
-0.00320143
-4.17859e-05
-1.56352e-06
-0.00319918
-6.43583e-05
-2.98647e-06
-0.00319341
-0.00010297
-4.64833e-06
-0.0031787
-0.000186342
-6.12057e-06
-0.00313204
-1.00478e-05
-0.00298535
-0.000301968
1.82219e-05
-0.00346087
6.79614e-06
-0.00346557
-4.10616e-06
-0.00346692
-1.51779e-05
-0.00346477
-2.73636e-05
-0.0034594
-4.22719e-05
-0.00345123
-6.3828e-05
-0.00343903
-0.000101223
-0.00341905
-0.000185999
-0.00336968
-0.00321549
-0.000320121
1.20341e-05
7.86218e-07
-0.000853916
4.43834e-06
1.02721e-06
-0.000855496
-3.27416e-06
1.11602e-06
-0.000856057
-1.10135e-05
1.05242e-06
-0.000855747
-1.86569e-05
8.30006e-07
-0.000854562
-2.59597e-05
4.32902e-07
-0.000852349
-3.23707e-05
-1.61004e-07
-0.000848822
-3.65861e-05
-9.89968e-07
-0.000843527
-3.67259e-05
-2.13823e-06
-0.000835939
-3.418e-06
-0.00082629
-2.89839e-05
1.38953e-05
1.38506e-06
-0.00114696
4.87925e-06
1.8276e-06
-0.00114884
-4.19991e-06
1.99205e-06
-0.00114954
-1.34333e-05
1.9027e-06
-0.00114906
-2.28276e-05
1.53847e-06
-0.00114727
-3.22328e-05
8.74718e-07
-0.00114382
-4.12488e-05
-1.42352e-07
-0.00113806
-4.87244e-05
-1.58581e-06
-0.00112883
-5.21967e-05
-3.67208e-06
-0.00111447
-6.09888e-06
-0.00109527
-4.47786e-05
1.59997e-05
1.75236e-06
-0.00143935
5.81115e-06
2.35024e-06
-0.00144161
-4.37393e-06
2.58477e-06
-0.00144248
-1.47517e-05
2.50523e-06
-0.00144189
-2.54185e-05
2.07438e-06
-0.00143958
-3.64388e-05
1.25697e-06
-0.00143501
-4.79272e-05
-4.23015e-08
-0.00142713
-5.94164e-05
-1.92183e-06
-0.00141404
-6.84988e-05
-4.79339e-06
-0.00139203
-8.31963e-06
-0.00136002
-6.49746e-05
1.76426e-05
2.0299e-06
-0.00172894
6.66591e-06
2.79542e-06
-0.00173172
-4.30301e-06
3.11835e-06
-0.00173289
-1.55766e-05
3.07942e-06
-0.00173238
-2.7402e-05
2.62531e-06
-0.00172988
-4.01105e-05
1.71836e-06
-0.00172469
-5.42641e-05
2.10101e-07
-0.00171528
-7.00559e-05
-2.02074e-06
-0.00169866
-8.57813e-05
-5.63857e-06
-0.00166811
-1.02735e-05
-0.00162039
-8.82673e-05
1.90388e-05
2.33271e-06
-0.0020204
7.5529e-06
3.18238e-06
-0.00202374
-3.90303e-06
3.55198e-06
-0.00202535
-1.575e-05
3.53574e-06
-0.00202513
-2.84147e-05
3.07541e-06
-0.00202272
-4.24816e-05
2.12914e-06
-0.00201734
-5.89652e-05
4.93329e-07
-0.00200691
-7.88574e-05
-1.98162e-06
-0.00198728
-0.000101913
-6.2256e-06
-0.00194804
-1.18995e-05
-0.00188271
-0.000112159
1.99672e-05
2.50049e-06
-0.00231055
8.1441e-06
3.388e-06
-0.0023145
-3.59365e-06
3.75704e-06
-0.0023165
-1.57616e-05
3.73073e-06
-0.00231656
-2.8945e-05
3.25309e-06
-0.00231431
-4.39787e-05
2.29082e-06
-0.00230898
-6.23644e-05
6.10051e-07
-0.00229796
-8.59995e-05
-1.96241e-06
-0.00227597
-0.00011685
-6.56098e-06
-0.00222851
-1.31075e-05
-0.00214449
-0.000136284
2.05102e-05
2.48216e-06
-0.00260087
8.60673e-06
3.27558e-06
-0.00260546
-3.17181e-06
3.58538e-06
-0.00260796
-1.53873e-05
3.50001e-06
-0.00260838
-2.87918e-05
3.00645e-06
-0.00260639
-4.44308e-05
2.05853e-06
-0.00260128
-6.42912e-05
4.20123e-07
-0.00259006
-9.12075e-05
-2.13267e-06
-0.00256642
-0.000129959
-6.69575e-06
-0.00251166
-1.38828e-05
-0.00240845
-0.000159344
2.03286e-05
2.13521e-06
-0.00289154
8.39526e-06
2.74026e-06
-0.00289678
-3.29841e-06
2.91207e-06
-0.00289943
-1.53776e-05
2.71582e-06
-0.00289977
-2.86895e-05
2.16742e-06
-0.00289753
-4.44692e-05
1.22002e-06
-0.00289222
-6.51731e-05
-2.78588e-07
-0.00288076
-9.4532e-05
-2.5948e-06
-0.0028561
-0.000140672
-6.34726e-06
-0.00279522
-1.36866e-05
-0.00267308
-0.000180666
1.97167e-05
1.16709e-06
-0.00317884
8.23492e-06
1.34485e-06
-0.00318473
-2.95863e-06
1.26487e-06
-0.00318783
-1.44942e-05
7.90536e-07
-0.00318847
-2.73773e-05
4.54426e-08
-0.00318642
-4.30857e-05
-9.91461e-07
-0.00318126
-6.45822e-05
-2.31229e-06
-0.00316988
-9.63863e-05
-4.06326e-06
-0.00314542
-0.000148886
-6.34236e-06
-0.00307954
-1.14851e-05
-0.00293576
-0.00020068
1.85575e-05
-0.00344699
6.99203e-06
-0.00345266
-4.0941e-06
-0.00345456
-1.54151e-05
-0.00345265
-2.78672e-05
-0.00344691
-4.2939e-05
-0.00343715
-6.36341e-05
-0.00342065
-9.5361e-05
-0.00339139
-0.000150679
-0.0033207
-0.00316219
-0.000215466
9.3411e-06
6.19198e-07
-0.000849102
3.47552e-06
8.63587e-07
-0.000850494
-2.5725e-06
9.56359e-07
-0.000850965
-8.52975e-06
8.90973e-07
-0.000850681
-1.40898e-05
6.6616e-07
-0.000849669
-1.88302e-05
2.72976e-07
-0.000847882
-2.21089e-05
-2.95594e-07
-0.000845248
-2.28877e-05
-1.04207e-06
-0.000841706
-1.95835e-05
-1.9634e-06
-0.00083728
-2.84903e-06
-0.000832427
-1.05967e-05
1.17386e-05
1.14173e-06
-0.00114015
4.12757e-06
1.59439e-06
-0.00114196
-3.61388e-06
1.76388e-06
-0.0011426
-1.13485e-05
1.66687e-06
-0.0011421
-1.88605e-05
1.2866e-06
-0.00114038
-2.57615e-05
6.05007e-07
-0.00113726
-3.12928e-05
-4.09699e-07
-0.00113241
-3.39372e-05
-1.78025e-06
-0.00112545
-3.08564e-05
-3.56812e-06
-0.00111594
-5.38851e-06
-0.0011054
-1.81801e-05
1.44463e-05
1.53344e-06
-0.00143061
5.28072e-06
2.14769e-06
-0.001433
-3.95322e-06
2.38507e-06
-0.00143387
-1.3257e-05
2.28499e-06
-0.0014332
-2.2525e-05
1.8119e-06
-0.00143084
-3.14636e-05
9.31106e-07
-0.00142639
-3.93958e-05
-4.35232e-07
-0.00141917
-4.47129e-05
-2.34067e-06
-0.00140816
-4.34904e-05
-4.9813e-06
-0.00139184
-7.84589e-06
-0.00137232
-2.87397e-05
1.6527e-05
1.86293e-06
-0.00171887
6.24448e-06
2.6576e-06
-0.00172195
-4.10205e-06
2.98454e-06
-0.00172314
-1.46515e-05
2.91535e-06
-0.00172246
-2.54502e-05
2.39717e-06
-0.00171967
-3.64109e-05
1.38807e-06
-0.00171419
-4.70669e-05
-2.48551e-07
-0.00170481
-5.58358e-05
-2.60569e-06
-0.00168963
-5.7868e-05
-6.10793e-06
-0.00166495
-1.01107e-05
-0.00163308
-4.29185e-05
1.82702e-05
2.21626e-06
-0.00200934
7.20227e-06
3.10463e-06
-0.00201312
-3.89737e-06
3.48226e-06
-0.00201475
-1.5307e-05
3.43304e-06
-0.00201424
-2.72653e-05
2.89717e-06
-0.00201126
-3.99356e-05
1.82348e-06
-0.00200511
-5.3157e-05
1.06926e-08
-0.00199395
-6.55648e-05
-2.68784e-06
-0.00197479
-7.19156e-05
-6.97573e-06
-0.00194083
-1.21202e-05
-0.00189395
-5.86665e-05
1.94951e-05
2.44405e-06
-0.00229863
7.87678e-06
3.37649e-06
-0.00230315
-3.71425e-06
3.75843e-06
-0.00230518
-1.56828e-05
3.70517e-06
-0.00230487
-2.84448e-05
3.15431e-06
-0.00230181
-4.24398e-05
2.05826e-06
-0.00229522
-5.79101e-05
1.72051e-07
-0.00228265
-7.39209e-05
-2.70326e-06
-0.00225994
-8.55158e-05
-7.52742e-06
-0.00221636
-1.36927e-05
-0.00215259
-7.58478e-05
2.02442e-05
2.46994e-06
-0.0025883
8.39058e-06
3.3098e-06
-0.00259354
-3.38858e-06
3.63774e-06
-0.00259606
-1.55769e-05
3.5364e-06
-0.00259602
-2.87781e-05
2.98358e-06
-0.00259302
-4.36927e-05
1.92157e-06
-0.00258623
-6.10244e-05
9.00244e-08
-0.00257265
-8.04102e-05
-2.7956e-06
-0.00254694
-9.78613e-05
-7.78333e-06
-0.00249395
-1.48294e-05
-0.00241199
-9.31881e-05
2.02202e-05
2.15171e-06
-0.00287837
8.26401e-06
2.79969e-06
-0.00288431
-3.50522e-06
3.00172e-06
-0.00288702
-1.56565e-05
2.82457e-06
-0.00288691
-2.89071e-05
2.26627e-06
-0.00288356
-4.42064e-05
1.27208e-06
-0.00287627
-6.27862e-05
-3.51647e-07
-0.00286174
-8.49991e-05
-2.96707e-06
-0.00283372
-0.000108503
-7.27515e-06
-0.00277223
-1.47791e-05
-0.00267147
-0.00011016
1.96741e-05
1.2173e-06
-0.00316525
8.1113e-06
1.42293e-06
-0.00317179
-3.21938e-06
1.4078e-06
-0.0031749
-1.48878e-05
1.01832e-06
-0.00317499
-2.77506e-05
3.66381e-07
-0.00317166
-4.29906e-05
-5.84986e-07
-0.00316416
-6.24616e-05
-1.87029e-06
-0.00314889
-8.76289e-05
-3.72459e-06
-0.0031195
-0.00011705
-6.46704e-06
-0.00305093
-1.21889e-05
-0.00292867
-0.000126726
1.85894e-05
-0.00343331
7.06462e-06
-0.00343971
-4.0477e-06
-0.00344204
-1.54215e-05
-0.00344026
-2.78304e-05
-0.00343413
-4.24975e-05
-0.00342306
-6.13781e-05
-0.00340364
-8.703e-05
-0.00336946
-0.000119688
-0.00329451
-0.00315457
-0.000139502
6.85563e-06
4.35825e-07
-0.000845772
2.58403e-06
6.67177e-07
-0.00084689
-1.88771e-06
7.58387e-07
-0.000847252
-6.2293e-06
6.96569e-07
-0.000847036
-1.00962e-05
4.85373e-07
-0.000846287
-1.30838e-05
1.23854e-07
-0.000845018
-1.46984e-05
-3.79644e-07
-0.000843254
-1.43359e-05
-1.00413e-06
-0.000841065
-1.13252e-05
-1.70432e-06
-0.000838587
-2.31488e-06
-0.000836063
-5.37511e-06
9.39735e-06
8.49668e-07
-0.00113497
3.31218e-06
1.29149e-06
-0.0011365
-2.95047e-06
1.45923e-06
-0.00113704
-9.111e-06
1.361e-06
-0.00113661
-1.48273e-05
9.85777e-07
-0.00113516
-1.96301e-05
3.26874e-07
-0.00113266
-2.28045e-05
-6.21026e-07
-0.001129
-2.32469e-05
-1.83659e-06
-0.00112418
-1.92941e-05
-3.2781e-06
-0.00111832
-4.60255e-06
-0.00111262
-9.78997e-06
1.24635e-05
1.23527e-06
-0.00142347
4.60756e-06
1.84605e-06
-0.0014257
-3.38277e-06
2.07995e-06
-0.0014265
-1.13255e-05
1.96427e-06
-0.00142587
-1.89462e-05
1.46873e-06
-0.0014237
-2.57736e-05
5.68819e-07
-0.00141981
-3.0932e-05
-7.82115e-07
-0.00141385
-3.28429e-05
-2.58709e-06
-0.0014055
-2.86197e-05
-4.8682e-06
-0.00139447
-7.09241e-06
-0.00138303
-1.54138e-05
1.48924e-05
1.59833e-06
-0.00171021
5.65181e-06
2.40606e-06
-0.00171327
-3.7286e-06
2.73151e-06
-0.00171441
-1.3184e-05
2.63412e-06
-0.00171368
-2.25514e-05
2.06597e-06
-0.0017109
-3.14664e-05
9.91606e-07
-0.00170569
-3.90371e-05
-6.92046e-07
-0.00169733
-4.33323e-05
-3.02771e-06
-0.00168489
-4.00317e-05
-6.1978e-06
-0.00166692
-9.47344e-06
-0.00164686
-2.387e-05
1.69685e-05
1.99412e-06
-0.00199943
6.67397e-06
2.90908e-06
-0.00200333
-3.72539e-06
3.28987e-06
-0.0020049
-1.43087e-05
3.20633e-06
-0.00200422
-2.50835e-05
2.60131e-06
-0.00200102
-3.58743e-05
1.42417e-06
-0.00199475
-4.59045e-05
-4.96317e-07
-0.00198411
-5.30437e-05
-3.2639e-06
-0.00196741
-5.16547e-05
-7.29537e-06
-0.00194112
-1.16972e-05
-0.00190971
-3.36665e-05
1.85057e-05
2.28228e-06
-0.00228767
7.43159e-06
3.25164e-06
-0.00229242
-3.68854e-06
3.64237e-06
-0.00229442
-1.50781e-05
3.55824e-06
-0.00229383
-2.69162e-05
2.93447e-06
-0.0022903
-3.92716e-05
1.7171e-06
-0.00228315
-5.16199e-05
-3.19933e-07
-0.00227048
-6.18445e-05
-3.35011e-06
-0.00224963
-6.33616e-05
-8.04063e-06
-0.0022141
-1.35133e-05
-0.0021691
-4.50395e-05
1.94934e-05
2.36574e-06
-0.00257648
8.00246e-06
3.24827e-06
-0.00258205
-3.48255e-06
3.59156e-06
-0.00258452
-1.52905e-05
3.46981e-06
-0.00258413
-2.77945e-05
2.85309e-06
-0.00258044
-4.13216e-05
1.67495e-06
-0.00257266
-5.57017e-05
-3.20093e-07
-0.00255827
-6.9008e-05
-3.40737e-06
-0.00253358
-7.42111e-05
-8.41403e-06
-0.00248838
-1.48841e-05
-0.00242794
-5.68943e-05
1.96733e-05
2.08758e-06
-0.0028658
7.97435e-06
2.77926e-06
-0.00287214
-3.61017e-06
3.00726e-06
-0.00287485
-1.55219e-05
2.84085e-06
-0.00287436
-2.826e-05
2.26135e-06
-0.00287023
-4.24063e-05
1.20554e-06
-0.00286165
-5.82644e-05
-5.38766e-07
-0.00284566
-7.43621e-05
-3.35471e-06
-0.00281767
-8.38692e-05
-7.85556e-06
-0.00276328
-1.49568e-05
-0.00268617
-6.90943e-05
1.92524e-05
1.21853e-06
-0.00315214
7.85998e-06
1.45278e-06
-0.00315907
-3.3783e-06
1.49449e-06
-0.00316215
-1.49129e-05
1.17395e-06
-0.00316179
-2.73914e-05
5.92051e-07
-0.00315751
-4.16022e-05
-3.04055e-07
-0.00314844
-5.83468e-05
-1.58153e-06
-0.0031311
-7.72585e-05
-3.51098e-06
-0.00310043
-9.15614e-05
-6.44718e-06
-0.00303804
-1.20524e-05
-0.0029416
-8.15407e-05
1.82767e-05
-0.00342012
6.9962e-06
-0.00342698
-3.95734e-06
-0.0034296
-1.51644e-05
-0.00342788
-2.72224e-05
-0.00342148
-4.10056e-05
-0.00340959
-5.7463e-05
-0.00338876
-7.70656e-05
-0.00335337
-9.41622e-05
-0.00328386
-0.00316985
-9.0928e-05
4.82191e-06
2.64172e-07
-0.000843528
1.84964e-06
4.69529e-07
-0.000844387
-1.30678e-06
5.54276e-07
-0.00084465
-4.33841e-06
5.00109e-07
-0.000844504
-6.93871e-06
3.14543e-07
-0.000844001
-8.78514e-06
2.5509e-09
-0.000843174
-9.54847e-06
-4.17646e-07
-0.000842073
-8.91393e-06
-9.14347e-07
-0.000840785
-6.6516e-06
-1.43152e-06
-0.000839417
-1.85229e-06
-0.000838008
-2.85437e-06
7.17608e-06
5.50182e-07
-0.00113116
2.52921e-06
9.60464e-07
-0.00113234
-2.31053e-06
1.11937e-06
-0.00113277
-7.01202e-06
1.0268e-06
-0.00113243
-1.12029e-05
6.77326e-07
-0.00113134
-1.44421e-05
7.54166e-08
-0.00112949
-1.61705e-05
-7.62533e-07
-0.00112692
-1.57073e-05
-1.7887e-06
-0.00112376
-1.22707e-05
-2.91595e-06
-0.00112028
-3.87787e-06
-0.00111719
-5.67189e-06
1.03379e-05
8.9678e-07
-0.00141786
3.87922e-06
1.48051e-06
-0.00141976
-2.7586e-06
1.70358e-06
-0.00142045
-9.2713e-06
1.58065e-06
-0.00141991
-1.52857e-05
1.08826e-06
-0.0014181
-2.02823e-05
2.16364e-07
-0.00141495
-2.3464e-05
-1.04743e-06
-0.00141039
-2.36558e-05
-2.66424e-06
-0.00140443
-1.91527e-05
-4.55661e-06
-0.00139734
-6.26493e-06
-0.00139069
-9.11176e-06
1.29518e-05
1.26463e-06
-0.00170307
4.95614e-06
2.06316e-06
-0.00170585
-3.24466e-06
2.38042e-06
-0.00170689
-1.14121e-05
2.26227e-06
-0.00170619
-1.92201e-05
1.66896e-06
-0.00170367
-2.61545e-05
5.78919e-07
-0.00169912
-3.12564e-05
-1.0667e-06
-0.00169221
-3.28732e-05
-3.25742e-06
-0.00168268
-2.80233e-05
-6.00173e-06
-0.00167033
-8.6216e-06
-0.00165796
-1.4564e-05
1.52765e-05
1.68418e-06
-0.0019909
6.0195e-06
2.60643e-06
-0.00199461
-3.41491e-06
2.98421e-06
-0.00199607
-1.29087e-05
2.87121e-06
-0.00199534
-2.22587e-05
2.21703e-06
-0.00199222
-3.10483e-05
9.80648e-07
-0.00198636
-3.82649e-05
-9.6148e-07
-0.001977
-4.18572e-05
-3.65317e-06
-0.00196342
-3.73924e-05
-7.26424e-06
-0.00194432
-1.0912e-05
-0.00192392
-2.08906e-05
1.70895e-05
2.02276e-06
-0.00227792
6.8476e-06
3.01418e-06
-0.00228259
-3.51918e-06
3.40836e-06
-0.00228447
-1.40334e-05
3.29507e-06
-0.00228374
-2.46344e-05
2.61187e-06
-0.0022801
-3.50781e-05
1.30797e-06
-0.00227304
-4.4435e-05
-8.00282e-07
-0.00226129
-5.042e-05
-3.83082e-06
-0.00224347
-4.72067e-05
-8.15699e-06
-0.00221642
-1.28338e-05
-0.00218584
-2.85365e-05
1.83097e-05
2.16912e-06
-0.0025657
7.47176e-06
3.08496e-06
-0.00257128
-3.43953e-06
3.43989e-06
-0.00257364
-1.45634e-05
3.29799e-06
-0.00257301
-2.60204e-05
2.62557e-06
-0.00256899
-3.77807e-05
1.35509e-06
-0.00256095
-4.91148e-05
-7.39348e-07
-0.00254699
-5.76637e-05
-3.87975e-06
-0.00252498
-5.64389e-05
-8.6173e-06
-0.00248914
-1.42845e-05
-0.00244642
-3.65083e-05
1.87127e-05
1.93727e-06
-0.00285414
7.54543e-06
2.66945e-06
-0.00286056
-3.59261e-06
2.91886e-06
-0.00286319
-1.49746e-05
2.75798e-06
-0.00286244
-2.68515e-05
2.15504e-06
-0.00285788
-3.94201e-05
1.04523e-06
-0.00284878
-5.22917e-05
-7.76714e-07
-0.00283275
-6.33168e-05
-3.65715e-06
-0.00280687
-6.48589e-05
-8.04431e-06
-0.00276231
-1.43861e-05
-0.00270592
-4.50062e-05
1.84495e-05
1.16393e-06
-0.00313983
7.48343e-06
1.42523e-06
-0.00314686
-3.41984e-06
1.51528e-06
-0.00314984
-1.45498e-05
1.24911e-06
-0.00314915
-2.63197e-05
7.18454e-07
-0.0031443
-3.91182e-05
-1.40742e-07
-0.00313446
-5.29003e-05
-1.41298e-06
-0.00311668
-6.62797e-05
-3.35179e-06
-0.00308736
-7.12618e-05
-6.26167e-06
-0.00303484
-1.12636e-05
-0.00296233
-5.36507e-05
1.7611e-05
-0.00340771
6.78646e-06
-0.00341473
-3.80759e-06
-0.00341749
-1.46178e-05
-0.00341582
-2.60362e-05
-0.00340934
-3.85681e-05
-0.00339719
-5.23565e-05
-0.00337639
-6.65474e-05
-0.00334253
-7.37067e-05
-0.00328297
-0.00319519
-5.9632e-05
3.29558e-06
1.21212e-07
-0.00084202
1.29337e-06
2.93557e-07
-0.000842678
-8.60997e-07
3.68691e-07
-0.000842864
-2.9151e-06
3.24254e-07
-0.000842774
-4.62854e-06
1.7038e-07
-0.000842458
-5.76822e-06
-8.49032e-08
-0.000841949
-6.12987e-06
-4.19106e-07
-0.000841292
-5.56194e-06
-7.99133e-07
-0.000840554
-4.0165e-06
-1.17331e-06
-0.000839789
-1.46187e-06
-0.00083891
-1.65189e-06
5.25275e-06
2.75097e-07
-0.00112842
1.83709e-06
6.38238e-07
-0.00112927
-1.75989e-06
7.82491e-07
-0.00112958
-5.22169e-06
7.00974e-07
-0.00112935
-8.20774e-06
3.92703e-07
-0.00112857
-1.0355e-05
-1.29537e-07
-0.0011273
-1.12701e-05
-8.35741e-07
-0.00112559
-1.05702e-05
-1.66676e-06
-0.0011236
-7.95546e-06
-2.52699e-06
-0.00112154
-3.22332e-06
-0.00111984
-3.55059e-06
8.28498e-06
5.55521e-07
-0.00141358
3.16123e-06
1.08964e-06
-0.00141508
-2.15819e-06
1.2945e-06
-0.00141564
-7.31898e-06
1.17306e-06
-0.00141522
-1.1921e-05
7.08524e-07
-0.00141381
-1.54783e-05
-9.52043e-08
-0.00141143
-1.73626e-05
-1.22232e-06
-0.00140812
-1.68156e-05
-2.6055e-06
-0.00140404
-1.29854e-05
-4.12314e-06
-0.00139957
-5.42247e-06
-0.00139568
-5.79003e-06
1.08959e-05
8.97041e-07
-0.00169738
4.21299e-06
1.66097e-06
-0.00169974
-2.71787e-06
1.96218e-06
-0.00170062
-9.54519e-06
1.83305e-06
-0.00170003
-1.58499e-05
1.24348e-06
-0.0016979
-2.10747e-05
1.88666e-07
-0.00169418
-2.43704e-05
-1.3468e-06
-0.00168879
-2.45338e-05
-3.30744e-06
-0.00168182
-1.98107e-05
-5.59718e-06
-0.00167358
-7.66057e-06
-0.00166599
-9.54993e-06
1.33406e-05
1.31521e-06
-0.00198379
5.28106e-06
2.21943e-06
-0.00198711
-3.01417e-06
2.58618e-06
-0.0019884
-1.12708e-05
2.45232e-06
-0.0019877
-1.9134e-05
1.77714e-06
-0.00198489
-2.6056e-05
5.35452e-07
-0.00197979
-3.10243e-05
-1.34272e-06
-0.00197204
-3.23889e-05
-3.84074e-06
-0.00196153
-2.72052e-05
-6.95043e-06
-0.00194815
-9.91005e-06
-0.00193505
-1.38272e-05
1.5349e-05
1.68579e-06
-0.00226952
6.15513e-06
2.67711e-06
-0.00227385
-3.23541e-06
3.06726e-06
-0.00227556
-1.26636e-05
2.93054e-06
-0.00227479
-2.18725e-05
2.21117e-06
-0.00227132
-3.0403e-05
8.70113e-07
-0.00226484
-3.71886e-05
-1.22045e-06
-0.00225462
-4.02251e-05
-4.11105e-06
-0.00224016
-3.5241e-05
-7.93308e-06
-0.00222042
-1.18217e-05
-0.00220001
-1.91624e-05
1.67586e-05
1.89186e-06
-0.00255618
6.81854e-06
2.82429e-06
-0.00256149
-3.27367e-06
3.18485e-06
-0.00256367
-1.34679e-05
3.0262e-06
-0.00256291
-2.36584e-05
2.31541e-06
-0.00255891
-3.35344e-05
9.92699e-07
-0.0025512
-4.2078e-05
-1.12028e-06
-0.00253855
-4.70498e-05
-4.16712e-06
-0.00251995
-4.28614e-05
-8.43846e-06
-0.00249283
-1.32155e-05
-0.00246331
-2.45756e-05
1.73777e-05
1.70596e-06
-0.00284362
6.98921e-06
2.46907e-06
-0.00284982
-3.45787e-06
2.73362e-06
-0.0028523
-1.40557e-05
2.5756e-06
-0.00285139
-2.48194e-05
1.95447e-06
-0.00284676
-3.56183e-05
8.11572e-07
-0.0028378
-4.5626e-05
-1.03043e-06
-0.00282284
-5.25969e-05
-3.83796e-06
-0.00280023
-4.99834e-05
-7.86571e-06
-0.00276549
-1.32374e-05
-0.00272538
-3.05067e-05
1.72843e-05
1.05345e-06
-0.00312859
6.98554e-06
1.3365e-06
-0.00313543
-3.34605e-06
1.4657e-06
-0.00313824
-1.38199e-05
1.2415e-06
-0.00313734
-2.46197e-05
7.49134e-07
-0.0031323
-3.57852e-05
-8.00424e-08
-0.0031224
-4.67095e-05
-1.33362e-06
-0.00310546
-5.55325e-05
-3.21264e-06
-0.00307916
-5.51156e-05
-5.92891e-06
-0.00303719
-1.00841e-05
-0.00298444
-3.61604e-05
1.66037e-05
-0.00339635
6.43931e-06
-0.00340322
-3.5939e-06
-0.00340599
-1.37864e-05
-0.00340439
-2.43212e-05
-0.00339806
-3.53649e-05
-0.00338623
-4.65012e-05
-0.00336659
-5.61667e-05
-0.00333608
-5.73841e-05
-0.00328768
-0.00322294
-3.9724e-05
2.21575e-06
1.32389e-08
-0.000840993
8.97591e-07
1.51587e-07
-0.000841512
-5.39162e-07
2.16015e-07
-0.000841643
-1.903e-06
1.81566e-07
-0.000841592
-3.01871e-06
5.99663e-08
-0.000841402
-3.72621e-06
-1.40097e-07
-0.000841102
-3.90164e-06
-3.96042e-07
-0.000840721
-3.47412e-06
-6.785e-07
-0.000840303
-2.45394e-06
-9.45327e-07
-0.000839864
-1.14276e-06
-0.000839247
-9.74013e-07
3.69518e-06
4.3672e-08
-0.00112645
1.26358e-06
3.51642e-07
-0.00112704
-1.32217e-06
4.77762e-07
-0.00112726
-3.79487e-06
4.10324e-07
-0.0011271
-5.87359e-06
1.51418e-07
-0.00112658
-7.28213e-06
-2.8173e-07
-0.00112575
-7.75877e-06
-8.53473e-07
-0.00112466
-7.09981e-06
-1.50412e-06
-0.00112343
-5.21857e-06
-2.14711e-06
-0.00112222
-2.64589e-06
-0.00112125
-2.29846e-06
6.44661e-06
2.41117e-07
-0.00141038
2.50376e-06
7.08381e-07
-0.0014115
-1.62577e-06
8.88995e-07
-0.00141192
-5.59559e-06
7.76212e-07
-0.00141161
-9.03149e-06
3.58503e-07
-0.00141058
-1.15215e-05
-3.49916e-07
-0.00140887
-1.26064e-05
-1.31479e-06
-0.00140657
-1.18297e-05
-2.45572e-06
-0.00140387
-8.82432e-06
-3.64152e-06
-0.00140108
-4.6145e-06
-0.00139879
-3.75242e-06
8.8864e-06
5.2971e-07
-0.00169296
3.47509e-06
1.23501e-06
-0.00169486
-2.19986e-06
1.51234e-06
-0.00169557
-7.73836e-06
1.38199e-06
-0.00169509
-1.26959e-05
8.23254e-07
-0.00169341
-1.65455e-05
-1.53096e-07
-0.00169053
-1.86067e-05
-1.52831e-06
-0.00168652
-1.8076e-05
-3.21666e-06
-0.00168159
-1.40395e-05
-5.07159e-06
-0.00167618
-6.66537e-06
-0.00167152
-6.45324e-06
1.13103e-05
9.1979e-07
-0.00197804
4.50592e-06
1.77848e-06
-0.00198085
-2.56904e-06
2.12522e-06
-0.00198194
-9.54211e-06
1.98074e-06
-0.00198133
-1.59763e-05
1.31508e-06
-0.00197895
-2.1289e-05
1.21166e-07
-0.00197475
-2.45909e-05
-1.6222e-06
-0.00196864
-2.46762e-05
-3.84896e-06
-0.00196081
-1.98075e-05
-6.44055e-06
-0.00195165
-8.78889e-06
-0.00194328
-9.45471e-06
1.34083e-05
1.29902e-06
-0.00226252
5.39313e-06
2.26321e-06
-0.00226632
-2.87217e-06
2.64018e-06
-0.00226781
-1.10911e-05
2.4884e-06
-0.00226708
-1.88744e-05
1.76159e-06
-0.00226399
-2.56542e-05
4.37788e-07
-0.00225838
-3.04039e-05
-1.55305e-06
-0.00224994
-3.15415e-05
-4.19735e-06
-0.00223868
-2.62979e-05
-7.45284e-06
-0.00222466
-1.06007e-05
-0.00221116
-1.3336e-05
1.49348e-05
1.55386e-06
-0.00254803
6.07246e-06
2.48003e-06
-0.00255284
-3.00881e-06
2.83806e-06
-0.00255478
-1.20973e-05
2.66858e-06
-0.002554
-2.09138e-05
1.94308e-06
-0.00255027
-2.89691e-05
6.16687e-07
-0.00254332
-3.51723e-05
-1.43369e-06
-0.00253247
-3.76328e-05
-4.26763e-06
-0.00251742
-3.24297e-05
-7.96578e-06
-0.00249752
-1.18497e-05
-0.00247741
-1.70757e-05
1.5739e-05
1.4065e-06
-0.00283439
6.32802e-06
2.18483e-06
-0.00284011
-3.22108e-06
2.4567e-06
-0.00284236
-1.28325e-05
2.30146e-06
-0.00284142
-2.2326e-05
1.67415e-06
-0.00283699
-3.13369e-05
5.29022e-07
-0.0028287
-3.88436e-05
-1.27087e-06
-0.00281549
-4.27952e-05
-3.89684e-06
-0.00279665
-3.83309e-05
-7.42152e-06
-0.0027705
-1.17551e-05
-0.00274249
-2.13132e-05
1.58062e-05
8.92681e-07
-0.00311861
6.38083e-06
1.18827e-06