/*--------------------------------*- C++ -*----------------------------------*\
| =========                 |                                                 |
| \\      /  F ield         | foam-extend: Open Source CFD                    |
|  \\    /   O peration     | Version:     4.0                                |
|   \\  /    A nd           | Web:         http://www.foam-extend.org         |
|    \\/     M anipulation  |                                                 |
\*---------------------------------------------------------------------------*/
FoamFile
{
    version     2.0;
    format      ascii;
    class       volScalarField;
    location    "1300";
    object      rho;
}
// * * * * * * * * * * * * * * * * * * * * * * * * * * * * * * * * * * * * * //

dimensions      [1 -3 0 0 0 0 0];

internalField   nonuniform List<scalar> 
34480
(
1.34617
1.34546
1.34535
1.34581
1.34702
1.34933
1.35353
1.36162
1.37231
1.37677
1.34712
1.34646
1.34641
1.34687
1.34802
1.3502
1.3543
1.36244
1.37428
1.37612
1.34598
1.34533
1.34534
1.34572
1.34671
1.3486
1.35241
1.36018
1.37242
1.369
1.34495
1.34438
1.34442
1.34478
1.34565
1.34723
1.35064
1.35769
1.36969
1.36071
1.34393
1.34334
1.34342
1.34373
1.34448
1.34577
1.34878
1.35506
1.36656
1.35247
1.34387
1.3434
1.34351
1.34383
1.34451
1.34559
1.34822
1.3537
1.36437
1.34548
1.34262
1.34211
1.34225
1.34254
1.34317
1.34409
1.34641
1.35121
1.36089
1.33803
1.34341
1.34307
1.34333
1.34385
1.34471
1.34583
1.34813
1.35243
1.36086
1.33409
1.34192
1.3416
1.34187
1.34243
1.34342
1.3448
1.34719
1.35116
1.35804
1.32819
1.33916
1.33907
1.33987
1.34136
1.34358
1.34653
1.35057
1.35605
1.36308
1.32937
1.35309
1.35199
1.35161
1.35184
1.3528
1.35461
1.35751
1.36185
1.36867
1.3776
1.35371
1.35247
1.35205
1.35229
1.35331
1.3553
1.3587
1.36439
1.37465
1.38944
1.35228
1.35095
1.35051
1.35067
1.35158
1.35346
1.35697
1.36335
1.37632
1.39537
1.35101
1.34963
1.34912
1.34917
1.34996
1.35163
1.35497
1.36136
1.37593
1.39786
1.34987
1.34836
1.34778
1.34768
1.34829
1.34967
1.35269
1.35873
1.37416
1.39785
1.34969
1.34819
1.34753
1.34734
1.3478
1.34889
1.35153
1.35695
1.37258
1.39679
1.34839
1.34677
1.34605
1.34573
1.34603
1.34685
1.34911
1.35386
1.36923
1.39333
1.34914
1.34758
1.34686
1.34663
1.347
1.34785
1.34995
1.35409
1.36861
1.3917
1.34767
1.34608
1.34532
1.34502
1.34532
1.34616
1.34816
1.35193
1.36503
1.38756
1.345
1.3435
1.34308
1.34343
1.34458
1.34647
1.34951
1.35418
1.36681
1.38806
1.35788
1.35696
1.35664
1.3569
1.35779
1.35939
1.3618
1.36509
1.36922
1.37372
1.35845
1.35728
1.35691
1.35722
1.35833
1.36035
1.36346
1.36798
1.37461
1.38249
1.35686
1.35555
1.35516
1.35548
1.35665
1.35882
1.36236
1.3679
1.3772
1.38886
1.35534
1.35393
1.35348
1.35374
1.35489
1.3571
1.36087
1.36702
1.37843
1.39353
1.35397
1.35243
1.35191
1.35206
1.35312
1.35521
1.35901
1.36538
1.3784
1.39652
1.35353
1.35197
1.35139
1.35146
1.35242
1.35436
1.35805
1.36435
1.37848
1.39892
1.35202
1.35035
1.34971
1.34967
1.3505
1.35225
1.35577
1.36186
1.37666
1.39898
1.35258
1.35096
1.35031
1.35032
1.35118
1.35293
1.35638
1.36223
1.37711
1.40047
1.35104
1.34938
1.34868
1.34861
1.34935
1.35098
1.35429
1.36004
1.37434
1.39877
1.34835
1.34674
1.34627
1.34664
1.34793
1.35022
1.35414
1.36048
1.37456
1.39928
1.36121
1.36053
1.3603
1.36049
1.36116
1.36229
1.36387
1.36583
1.36797
1.36979
1.36207
1.36107
1.36074
1.36102
1.36195
1.36358
1.36597
1.36909
1.37298
1.37672
1.36068
1.35946
1.35908
1.35939
1.36048
1.36244
1.36544
1.36965
1.37577
1.38225
1.35916
1.35778
1.35733
1.35762
1.35878
1.36095
1.36445
1.36961
1.37793
1.3874
1.35777
1.35621
1.35569
1.3559
1.35705
1.35928
1.36306
1.36886
1.37914
1.39162
1.35721
1.35559
1.355
1.35515
1.35626
1.35847
1.36239
1.36857
1.38048
1.39574
1.35559
1.35385
1.3532
1.35326
1.35429
1.35641
1.36036
1.36672
1.37994
1.39781
1.35603
1.35431
1.35364
1.35374
1.3548
1.35693
1.36093
1.36739
1.38138
1.40133
1.35441
1.35266
1.35195
1.35198
1.35295
1.35499
1.3589
1.36549
1.3796
1.40163
1.3517
1.34998
1.34942
1.34977
1.35113
1.35361
1.35792
1.36493
1.37904
1.40259
1.36351
1.36307
1.36292
1.36305
1.36351
1.36425
1.36524
1.3664
1.36756
1.36845
1.3647
1.36394
1.36368
1.3639
1.36461
1.36583
1.36752
1.36959
1.37187
1.37384
1.36367
1.36263
1.36231
1.36258
1.36351
1.36512
1.36746
1.37049
1.37426
1.3778
1.3623
1.36105
1.36063
1.36092
1.36199
1.36393
1.36688
1.37089
1.37643
1.38203
1.36102
1.35954
1.35906
1.3593
1.36044
1.36256
1.36596
1.37079
1.3781
1.38599
1.36044
1.35887
1.3583
1.35851
1.35967
1.36189
1.36561
1.37108
1.38006
1.39028
1.35881
1.35709
1.35647
1.35661
1.35774
1.35998
1.36389
1.36982
1.3803
1.39291
1.35917
1.35745
1.3568
1.35697
1.35815
1.36045
1.36454
1.37082
1.38245
1.3972
1.35752
1.35575
1.35507
1.35519
1.35632
1.3586
1.36271
1.36931
1.38154
1.39859
1.35482
1.35307
1.35248
1.35283
1.35421
1.35679
1.36118
1.36816
1.38064
1.39959
1.36513
1.36487
1.36478
1.36487
1.36515
1.36561
1.36619
1.36684
1.36744
1.36784
1.36659
1.36604
1.36585
1.36601
1.36652
1.36736
1.36848
1.36978
1.37111
1.37217
1.36596
1.36513
1.36487
1.36508
1.36581
1.36705
1.36877
1.37087
1.37319
1.37517
1.3648
1.36374
1.36338
1.36363
1.36455
1.36615
1.36849
1.37148
1.37509
1.3784
1.36372
1.36241
1.36197
1.36221
1.36325
1.36512
1.36798
1.3718
1.37682
1.38173
1.36321
1.36176
1.36124
1.36147
1.36258
1.36465
1.36793
1.37248
1.37895
1.38561
1.36164
1.36001
1.35943
1.35962
1.36076
1.36293
1.36653
1.37168
1.37955
1.38814
1.362
1.36035
1.35972
1.35994
1.36114
1.36344
1.3673
1.37296
1.38205
1.39251
1.36034
1.35862
1.35797
1.35816
1.35935
1.36167
1.36565
1.37176
1.3817
1.3943
1.3577
1.35599
1.35539
1.35573
1.35709
1.35962
1.36383
1.37029
1.38065
1.39497
1.36631
1.36618
1.36613
1.36618
1.36635
1.36662
1.36696
1.36731
1.36763
1.36781
1.36793
1.36757
1.36744
1.36754
1.36788
1.36843
1.36915
1.36994
1.37071
1.3713
1.36768
1.36706
1.36685
1.36701
1.36755
1.36845
1.36965
1.37105
1.3725
1.37366
1.36674
1.36589
1.3656
1.3658
1.36653
1.36779
1.36954
1.37169
1.37406
1.37607
1.3659
1.3648
1.36442
1.36464
1.36552
1.36708
1.36935
1.37225
1.37568
1.37878
1.36551
1.36425
1.36378
1.36401
1.36501
1.36682
1.36956
1.37317
1.37776
1.3821
1.36405
1.36258
1.36206
1.36226
1.36333
1.36532
1.36843
1.3727
1.37845
1.38425
1.36446
1.36294
1.36237
1.36261
1.36375
1.3659
1.36934
1.37417
1.38103
1.38831
1.36283
1.36122
1.36062
1.36084
1.36201
1.36423
1.36786
1.37316
1.3809
1.38995
1.36029
1.35867
1.3581
1.35842
1.35971
1.36209
1.36592
1.37156
1.37977
1.39014
1.36721
1.36717
1.36714
1.36717
1.36727
1.36742
1.36761
1.36781
1.36797
1.36803
1.36889
1.36866
1.36858
1.36865
1.36887
1.36921
1.36965
1.37013
1.37057
1.37089
1.36895
1.36851
1.36836
1.36848
1.36885
1.36947
1.37028
1.37119
1.37208
1.37276
1.36821
1.36756
1.36733
1.36749
1.36804
1.36898
1.37024
1.37173
1.37327
1.37452
1.36762
1.36673
1.36643
1.3666
1.36732
1.36855
1.37028
1.3724
1.37472
1.3767
1.36738
1.36632
1.36592
1.36613
1.36697
1.36848
1.37066
1.37342
1.37663
1.3795
1.36605
1.36478
1.36433
1.36452
1.36547
1.36718
1.36976
1.37314
1.37729
1.38121
1.36654
1.36521
1.3647
1.36493
1.36597
1.36788
1.3708
1.37473
1.3798
1.38482
1.36495
1.36351
1.36297
1.3632
1.36428
1.3663
1.36944
1.37384
1.37967
1.386
1.36256
1.3611
1.36057
1.36086
1.36204
1.36418
1.36751
1.37221
1.37849
1.38578
1.36795
1.36795
1.36794
1.36796
1.36801
1.3681
1.3682
1.36831
1.36839
1.36839
1.3696
1.36946
1.36941
1.36945
1.36959
1.3698
1.37006
1.37034
1.37059
1.37077
1.3699
1.3696
1.3695
1.36957
1.36983
1.37024
1.37077
1.37134
1.37188
1.37228
1.3693
1.36883
1.36865
1.36877
1.36917
1.36984
1.37072
1.37173
1.37272
1.37349
1.36895
1.36826
1.36802
1.36816
1.36871
1.36964
1.37092
1.37241
1.37396
1.37523
1.36884
1.36799
1.36767
1.36784
1.36853
1.36972
1.3714
1.37343
1.37565
1.37753
1.36766
1.3666
1.36622
1.3664
1.3672
1.36861
1.37066
1.37323
1.37617
1.37881
1.36827
1.36714
1.3667
1.36692
1.36782
1.36943
1.37181
1.37488
1.37854
1.38197
1.36673
1.36547
1.36501
1.36522
1.36618
1.36792
1.37053
1.37402
1.3783
1.38264
1.36452
1.36324
1.36277
1.36303
1.36406
1.36591
1.36869
1.37245
1.37711
1.38213
1.36857
1.36859
1.3686
1.36861
1.36864
1.36868
1.36874
1.3688
1.36884
1.36881
1.37013
1.37005
1.37002
1.37004
1.37012
1.37025
1.37041
1.37057
1.37071
1.37081
1.37062
1.37042
1.37035
1.3704
1.37057
1.37083
1.37117
1.37152
1.37185
1.37207
1.3701
1.36977
1.36964
1.36972
1.37
1.37047
1.37106
1.37172
1.37235
1.37283
1.36996
1.36944
1.36926
1.36937
1.36978
1.37046
1.37136
1.37239
1.37341
1.37421
1.36997
1.36932
1.36907
1.3692
1.36974
1.37065
1.37189
1.37334
1.37485
1.37606
1.36892
1.36807
1.36777
1.36791
1.36856
1.36968
1.37124
1.37314
1.37518
1.37694
1.36966
1.36874
1.36839
1.36857
1.36932
1.37062
1.37249
1.37481
1.3774
1.3797
1.36816
1.36711
1.36673
1.36691
1.36772
1.36916
1.37125
1.37392
1.37699
1.37991
1.36618
1.3651
1.3647
1.36492
1.36579
1.36732
1.36956
1.37246
1.37583
1.37922
1.36912
1.36916
1.36916
1.36917
1.36919
1.36921
1.36924
1.36927
1.36929
1.36924
1.37053
1.37049
1.37047
1.37049
1.37054
1.37061
1.3707
1.3708
1.37088
1.37093
1.37117
1.37104
1.371
1.37103
1.37114
1.37131
1.37151
1.37173
1.37192
1.37204
1.37068
1.37046
1.37037
1.37042
1.37061
1.37092
1.37132
1.37174
1.37214
1.37243
1.37071
1.37034
1.37021
1.37029
1.37058
1.37106
1.37168
1.37237
1.37303
1.37353
1.37082
1.37033
1.37015
1.37025
1.37065
1.37132
1.37221
1.37322
1.37423
1.37501
1.36988
1.36922
1.36899
1.36911
1.3696
1.37045
1.37161
1.37298
1.37436
1.37552
1.37076
1.37005
1.36976
1.36991
1.37051
1.37152
1.37294
1.37463
1.37643
1.37794
1.36928
1.36843
1.36813
1.36828
1.36894
1.37008
1.37168
1.37367
1.37582
1.37776
1.36756
1.36668
1.36635
1.36653
1.36724
1.36846
1.37019
1.37236
1.37474
1.377
1.36962
1.36966
1.36967
1.36967
1.36968
1.3697
1.36971
1.36973
1.36973
1.36968
1.37085
1.37083
1.37082
1.37082
1.37085
1.3709
1.37095
1.37101
1.37105
1.37108
1.37162
1.37153
1.37151
1.37153
1.3716
1.3717
1.37182
1.37195
1.37206
1.37212
1.3711
1.37095
1.37089
1.37092
1.37105
1.37125
1.37151
1.37178
1.37203
1.37221
1.37127
1.37102
1.37093
1.37098
1.37118
1.37151
1.37193
1.37238
1.3728
1.37311
1.37145
1.3711
1.37096
1.37104
1.37133
1.3718
1.37242
1.37311
1.37377
1.37427
1.37059
1.3701
1.36993
1.37002
1.37039
1.37101
1.37184
1.37279
1.37372
1.37448
1.37162
1.37108
1.37086
1.37098
1.37143
1.3722
1.37324
1.37443
1.37566
1.37663
1.37013
1.36947
1.36923
1.36935
1.36986
1.37073
1.37193
1.37336
1.37484
1.37611
1.36869
1.36801
1.36775
1.36789
1.36844
1.36938
1.37068
1.37224
1.37389
1.37537
1.37009
1.37013
1.37014
1.37014
1.37014
1.37015
1.37016
1.37017
1.37016
1.37011
1.37108
1.37108
1.37107
1.37108
1.3711
1.37112
1.37115
1.37119
1.37121
1.37123
1.37198
1.37193
1.37192
1.37193
1.37197
1.37203
1.3721
1.37218
1.37224
1.37226
1.3714
1.3713
1.37126
1.37128
1.37136
1.37149
1.37165
1.37183
1.37198
1.37209
1.37169
1.37152
1.37146
1.37149
1.37163
1.37185
1.37212
1.37241
1.37268
1.37286
1.3719
1.37166
1.37157
1.37162
1.37182
1.37215
1.37257
1.37302
1.37346
1.37376
1.37111
1.37076
1.37063
1.3707
1.37097
1.37141
1.37198
1.37263
1.37324
1.37373
1.37228
1.37189
1.37173
1.37182
1.37215
1.37271
1.37344
1.37427
1.37509
1.3757
1.37075
1.37025
1.37007
1.37016
1.37054
1.37118
1.37204
1.37305
1.37404
1.37487
1.36963
1.36911
1.36892
1.36903
1.36944
1.37014
1.37108
1.37217
1.37329
1.37425
1.37053
1.37057
1.37058
1.37058
1.37058
1.37059
1.37059
1.37059
1.37059
1.37053
1.37126
1.37126
1.37126
1.37126
1.37127
1.37129
1.37131
1.37133
1.37134
1.37135
1.37229
1.37227
1.37226
1.37227
1.37229
1.37233
1.37237
1.37241
1.37244
1.37244
1.37161
1.37155
1.37152
1.37153
1.37158
1.37166
1.37176
1.37187
1.37197
1.37204
1.372
1.37189
1.37185
1.37188
1.37196
1.3721
1.37228
1.37246
1.37262
1.37273
1.37222
1.37206
1.37199
1.37203
1.37217
1.37238
1.37266
1.37296
1.37324
1.37343
1.37149
1.37124
1.37115
1.3712
1.37138
1.37169
1.37207
1.3725
1.37289
1.37321
1.37279
1.37252
1.37241
1.37247
1.37271
1.37309
1.3736
1.37415
1.3747
1.37507
1.37117
1.3708
1.37068
1.37074
1.37102
1.37147
1.37207
1.37275
1.37341
1.37394
1.37042
1.37005
1.3699
1.36998
1.37028
1.37078
1.37144
1.37218
1.37292
1.37353
1.37097
1.37101
1.37102
1.37102
1.37102
1.37102
1.37103
1.37103
1.37102
1.37097
1.37137
1.37137
1.37137
1.37137
1.37138
1.37139
1.3714
1.37142
1.37143
1.37144
1.37257
1.37256
1.37256
1.37257
1.37258
1.3726
1.37262
1.37264
1.37266
1.37264
1.37176
1.37172
1.3717
1.3717
1.37174
1.37178
1.37185
1.37191
1.37197
1.37201
1.37222
1.37216
1.37213
1.37215
1.3722
1.37229
1.3724
1.37251
1.37261
1.37267
1.37243
1.37233
1.37228
1.37231
1.37239
1.37254
1.37272
1.37291
1.37308
1.3732
1.37175
1.37159
1.37153
1.37156
1.37168
1.37188
1.37213
1.37241
1.37265
1.37285
1.37319
1.37301
1.37293
1.37297
1.37314
1.3734
1.37374
1.3741
1.37445
1.37466
1.37144
1.37117
1.37109
1.37113
1.37132
1.37163
1.37204
1.37249
1.37291
1.37326
1.37113
1.37086
1.37076
1.37081
1.37102
1.37136
1.37181
1.3723
1.37278
1.37317
1.37147
1.3715
1.37151
1.37151
1.37151
1.37151
1.37151
1.37151
1.3715
1.37145
1.37141
1.37141
1.37141
1.37141
1.37142
1.37142
1.37143
1.37145
1.37145
1.37147
1.37283
1.37283
1.37283
1.37284
1.37284
1.37285
1.37287
1.37287
1.37288
1.37285
1.37185
1.37182
1.37181
1.37182
1.37184
1.37187
1.3719
1.37194
1.37197
1.372
1.37237
1.37233
1.37232
1.37233
1.37236
1.37241
1.37248
1.37255
1.3726
1.37264
1.37255
1.37248
1.37245
1.37247
1.37252
1.37261
1.37272
1.37284
1.37296
1.37302
1.37193
1.37183
1.37179
1.37181
1.37189
1.37202
1.37218
1.37235
1.37249
1.37262
1.37349
1.37337
1.37332
1.37335
1.37346
1.37363
1.37385
1.37408
1.37431
1.37442
1.37156
1.37138
1.37132
1.37135
1.37148
1.37168
1.37195
1.37224
1.3725
1.37273
1.37182
1.37164
1.37157
1.37161
1.37174
1.37197
1.37227
1.37258
1.37289
1.37313
1.37214
1.37217
1.37217
1.37217
1.37218
1.37217
1.37217
1.37217
1.37216
1.37211
1.37135
1.37135
1.37135
1.37134
1.37135
1.37135
1.37136
1.37138
1.37138
1.3714
1.37304
1.37305
1.37305
1.37305
1.37305
1.37306
1.37307
1.37307
1.37307
1.37304
1.37191
1.37189
1.37189
1.37189
1.3719
1.37192
1.37194
1.37196
1.37198
1.37199
1.37244
1.37242
1.3724
1.37241
1.37243
1.37246
1.3725
1.37254
1.37258
1.3726
1.37257
1.37252
1.37251
1.37251
1.37255
1.3726
1.37268
1.37275
1.37282
1.37286
1.37204
1.37199
1.37196
1.37198
1.37203
1.37211
1.37221
1.37231
1.37239
1.37246
1.37366
1.37359
1.37355
1.37357
1.37363
1.37375
1.37389
1.37404
1.37419
1.37425
1.37153
1.37141
1.37137
1.37139
1.37147
1.37161
1.37177
1.37195
1.37211
1.37227
1.37265
1.37253
1.37248
1.3725
1.37259
1.37274
1.37293
1.37313
1.37333
1.37347
1.37323
1.37326
1.37326
1.37327
1.37327
1.37326
1.37326
1.37325
1.37324
1.3732
1.3711
1.3711
1.3711
1.3711
1.3711
1.37111
1.37111
1.37112
1.37113
1.37115
1.37313
1.37313
1.37312
1.37312
1.37312
1.37313
1.37314
1.37314
1.37315
1.37313
1.37194
1.37194
1.37194
1.37194
1.37195
1.37196
1.37197
1.37198
1.37198
1.37198
1.37243
1.37242
1.37241
1.37241
1.37242
1.37244
1.37247
1.37249
1.37252
1.37253
1.37251
1.37248
1.37246
1.37247
1.37249
1.37253
1.37257
1.37262
1.37266
1.37269
1.37209
1.37206
1.37205
1.37207
1.3721
1.37215
1.37221
1.37227
1.37231
1.37234
1.37358
1.37352
1.3735
1.3735
1.37355
1.37362
1.37372
1.37382
1.37393
1.37397
1.37126
1.37119
1.37116
1.37118
1.37123
1.37132
1.37142
1.37153
1.37162
1.37173
1.37384
1.37377
1.37373
1.37375
1.37381
1.3739
1.37403
1.37415
1.37429
1.37437
1.375
1.37501
1.37501
1.37501
1.37501
1.37501
1.37501
1.37501
1.375
1.37498
1.37053
1.37054
1.37056
1.37056
1.37057
1.37057
1.37057
1.37056
1.37055
1.37056
1.37297
1.37295
1.37294
1.37293
1.37292
1.37293
1.37294
1.37296
1.37298
1.37299
1.37198
1.37199
1.372
1.372
1.37201
1.37201
1.37202
1.37202
1.37201
1.37201
1.37238
1.37237
1.37236
1.37236
1.37237
1.37238
1.3724
1.37242
1.37244
1.37245
1.37241
1.37239
1.37238
1.37238
1.3724
1.37242
1.37245
1.37249
1.37252
1.37254
1.37211
1.3721
1.37209
1.3721
1.37212
1.37216
1.3722
1.37224
1.37226
1.37227
1.37311
1.37306
1.37303
1.37304
1.37307
1.37312
1.37319
1.37326
1.37335
1.37341
1.37063
1.3706
1.37059
1.3706
1.37064
1.3707
1.37077
1.37084
1.37088
1.37093
1.3756
1.37555
1.37552
1.37553
1.37557
1.37564
1.37573
1.37582
1.37592
1.37597
1.37687
1.37685
1.37684
1.37683
1.37683
1.37683
1.37684
1.37686
1.37688
1.37691
1.36981
1.36987
1.3699
1.36993
1.36993
1.36993
1.36992
1.36989
1.36984
1.36976
1.37262
1.37259
1.37257
1.37255
1.37255
1.37256
1.37257
1.37259
1.37263
1.37268
1.37207
1.37208
1.37208
1.37209
1.37209
1.3721
1.3721
1.3721
1.3721
1.37209
1.37235
1.37234
1.37233
1.37233
1.37234
1.37235
1.37237
1.37239
1.37241
1.37242
1.37237
1.37235
1.37234
1.37234
1.37235
1.37238
1.3724
1.37243
1.37246
1.37249
1.37216
1.37215
1.37214
1.37215
1.37217
1.3722
1.37224
1.37227
1.3723
1.37231
1.3725
1.37244
1.37242
1.37242
1.37245
1.3725
1.37256
1.37262
1.3727
1.37279
1.36989
1.36988
1.36988
1.36989
1.36992
1.36998
1.37004
1.3701
1.37012
1.37008
1.37739
1.37734
1.37732
1.37733
1.37737
1.37743
1.37751
1.37759
1.37767
1.37771
1.47347
1.47907
1.47563
1.46846
1.50621
1.51195
1.5051
1.49435
1.53269
1.53775
1.52806
1.51477
1.5517
1.55562
1.54309
1.52779
1.56641
1.56893
1.55366
1.53686
1.57838
1.57944
1.5633
1.54454
1.58638
1.58581
1.57022
1.54912
1.59354
1.59122
1.57645
1.55307
1.59141
1.58722
1.57305
1.54762
1.58361
1.57841
1.56589
1.53933
1.37284
1.37252
1.37308
1.37414
1.39429
1.39566
1.39666
1.39633
1.41373
1.41643
1.41768
1.41577
1.43238
1.43629
1.43767
1.43385
1.44991
1.45468
1.45603
1.45013
1.4669
1.47219
1.47325
1.46568
1.48107
1.48663
1.4873
1.47862
1.49536
1.501
1.50136
1.49205
1.50235
1.50799
1.50819
1.49866
1.50599
1.51213
1.51233
1.50315
1.37709
1.37754
1.37772
1.37773
1.38981
1.3908
1.39109
1.39093
1.40192
1.40351
1.40394
1.40358
1.41373
1.41598
1.41652
1.41581
1.4253
1.42821
1.42877
1.42753
1.43755
1.44108
1.44162
1.4397
1.44819
1.45224
1.45273
1.45003
1.46009
1.46455
1.46496
1.46147
1.4661
1.47089
1.47123
1.46689
1.46961
1.47516
1.47552
1.47016
1.37038
1.37034
1.37037
1.37048
1.37841
1.37865
1.37875
1.37877
1.38631
1.38686
1.38706
1.38702
1.39471
1.39569
1.39603
1.39586
1.40319
1.40466
1.40513
1.40474
1.4126
1.4146
1.4152
1.41448
1.42079
1.42332
1.424
1.42287
1.43069
1.43371
1.43445
1.43284
1.43556
1.43901
1.43983
1.43773
1.43823
1.44253
1.44349
1.4407
1.36901
1.36895
1.36896
1.36902
1.37467
1.37482
1.37488
1.37488
1.37971
1.38003
1.38015
1.38012
1.38545
1.386
1.3862
1.38615
1.39148
1.3923
1.3926
1.39249
1.3985
1.39965
1.40006
1.39985
1.40445
1.40597
1.40648
1.40612
1.41236
1.41423
1.41485
1.41428
1.41626
1.41848
1.41925
1.41849
1.41829
1.42129
1.42226
1.42104
1.36824
1.36814
1.36813
1.36819
1.37248
1.37252
1.37255
1.37257
1.37589
1.37601
1.37608
1.3761
1.37984
1.3801
1.38022
1.38024
1.3842
1.38462
1.38481
1.38483
1.38952
1.39016
1.39044
1.39043
1.39384
1.39472
1.39509
1.39504
1.40022
1.40136
1.40182
1.40168
1.40337
1.40476
1.40538
1.40519
1.4046
1.40664
1.40742
1.40689
1.36815
1.36804
1.36802
1.36808
1.37147
1.37149
1.37151
1.37152
1.37402
1.37408
1.37411
1.37412
1.37677
1.3769
1.37697
1.37699
1.37996
1.38019
1.38031
1.38035
1.38403
1.38439
1.38457
1.38462
1.38711
1.38763
1.38788
1.38793
1.39228
1.39296
1.39329
1.39332
1.39471
1.39557
1.39602
1.39604
1.39513
1.39653
1.39709
1.39681
1.36834
1.36823
1.3682
1.36826
1.37098
1.37099
1.371
1.371
1.37294
1.37297
1.37299
1.373
1.37489
1.37496
1.375
1.37502
1.37732
1.37744
1.37751
1.37755
1.3805
1.3807
1.38082
1.38087
1.3827
1.38299
1.38316
1.38322
1.38692
1.38732
1.38755
1.38761
1.38859
1.38912
1.38943
1.38948
1.38837
1.38936
1.38974
1.38954
1.36869
1.36857
1.36854
1.36859
1.37082
1.37083
1.37083
1.37083
1.37238
1.3724
1.37241
1.37241
1.3737
1.37374
1.37377
1.37378
1.37558
1.37565
1.37569
1.37572
1.37811
1.37823
1.3783
1.37833
1.37965
1.37982
1.37993
1.37998
1.38315
1.38339
1.38354
1.38359
1.38411
1.38444
1.38463
1.38468
1.38346
1.3842
1.38445
1.38426
1.36909
1.36897
1.36894
1.369
1.37084
1.37084
1.37084
1.37085
1.37213
1.37214
1.37214
1.37215
1.37296
1.37298
1.373
1.37301
1.37441
1.37445
1.37448
1.3745
1.37642
1.37649
1.37653
1.37655
1.37744
1.37754
1.37761
1.37764
1.38039
1.38054
1.38063
1.38067
1.38077
1.38097
1.3811
1.38114
1.37987
1.38046
1.38062
1.38043
1.36952
1.36939
1.36936
1.36942
1.37095
1.37095
1.37095
1.37095
1.37207
1.37208
1.37208
1.37208
1.37251
1.37252
1.37254
1.37254
1.37366
1.37368
1.37369
1.3737
1.37523
1.37527
1.3753
1.37531
1.37582
1.37588
1.37593
1.37595
1.37836
1.37845
1.37851
1.37854
1.37828
1.37841
1.37849
1.37852
1.37727
1.37776
1.37786
1.37767
1.36995
1.36982
1.36979
1.36985
1.37109
1.37109
1.37109
1.37109
1.37214
1.37214
1.37214
1.37214
1.37225
1.37226
1.37227
1.37227
1.37318
1.37319
1.3732
1.37321
1.37441
1.37444
1.37445
1.37446
1.37466
1.37469
1.37472
1.37474
1.3769
1.37695
1.37699
1.37701
1.37643
1.37651
1.37656
1.37658
1.37543
1.37585
1.37592
1.37573
1.37037
1.37024
1.37021
1.37027
1.37123
1.37123
1.37123
1.37123
1.37227
1.37227
1.37227
1.37227
1.37212
1.37212
1.37213
1.37213
1.3729
1.3729
1.37291
1.37292
1.37385
1.37387
1.37388
1.37389
1.37383
1.37385
1.37387
1.37388
1.37586
1.3759
1.37592
1.37593
1.37507
1.37512
1.37515
1.37517
1.37419
1.37455
1.3746
1.37441
1.37078
1.37065
1.37062
1.37068
1.37135
1.37135
1.37135
1.37135
1.37244
1.37244
1.37244
1.37244
1.37205
1.37205
1.37205
1.37206
1.37275
1.37275
1.37275
1.37275
1.37348
1.37349
1.3735
1.3735
1.37326
1.37327
1.37328
1.37329
1.37517
1.37519
1.3752
1.37521
1.37407
1.3741
1.37412
1.37413
1.37341
1.37372
1.37376
1.37359
1.3712
1.37107
1.37104
1.3711
1.37143
1.37143
1.37143
1.37143
1.37264
1.37264
1.37263
1.37263
1.37201
1.37201
1.37201
1.37202
1.37267
1.37267
1.37267
1.37268
1.37323
1.37324
1.37324
1.37325
1.37286
1.37287
1.37287
1.37288
1.37473
1.37474
1.37475
1.37476
1.37333
1.37335
1.37336
1.37337
1.37301
1.37328
1.37331
1.37315
1.37167
1.37154
1.37151
1.37157
1.37146
1.37145
1.37145
1.37146
1.37285
1.37285
1.37284
1.37284
1.37199
1.37199
1.37199
1.37199
1.37263
1.37263
1.37263
1.37263
1.37305
1.37305
1.37306
1.37306
1.3726
1.3726
1.3726
1.37261
1.37447
1.37448
1.37449
1.37449
1.37277
1.37278
1.37279
1.3728
1.37296
1.37319
1.3732
1.37307
1.37231
1.37218
1.37215
1.37222
1.37138
1.37138
1.37138
1.37139
1.37304
1.37304
1.37304
1.37303
1.37197
1.37196
1.37196
1.37197
1.37259
1.37259
1.37259
1.37259
1.37288
1.37289
1.37289
1.37289
1.37242
1.37241
1.37241
1.37242
1.3743
1.3743
1.37431
1.37431
1.37228
1.37229
1.37229
1.3723
1.37331
1.37349
1.3735
1.37339
1.37338
1.37325
1.37323
1.37329
1.37112
1.37112
1.37112
1.37113
1.37315
1.37315
1.37315
1.37314
1.37194
1.37194
1.37194
1.37194
1.37253
1.37253
1.37253
1.37253
1.37271
1.37271
1.37271
1.37272
1.37229
1.37228
1.37228
1.37228
1.37405
1.37406
1.37406
1.37406
1.37171
1.37171
1.37172
1.37172
1.37424
1.37437
1.37438
1.3743
1.37513
1.37502
1.375
1.37506
1.37049
1.37048
1.37048
1.37049
1.37305
1.37306
1.37306
1.37306
1.37195
1.37194
1.37194
1.37194
1.37246
1.37246
1.37246
1.37246
1.37256
1.37256
1.37256
1.37256
1.37221
1.3722
1.37219
1.3722
1.37354
1.37356
1.37357
1.37356
1.37084
1.37083
1.37083
1.37084
1.37595
1.37603
1.37604
1.37599
1.37701
1.37695
1.37695
1.37699
1.36955
1.3695
1.36949
1.36949
1.37277
1.37279
1.3728
1.3728
1.37203
1.37202
1.37202
1.37202
1.37243
1.37243
1.37243
1.37244
1.3725
1.3725
1.3725
1.3725
1.37225
1.37224
1.37224
1.37225
1.37295
1.37299
1.37299
1.37298
1.3698
1.36973
1.36972
1.36976
1.3779
1.37796
1.37796
1.37791
1.43002
1.40554
1.38441
1.37015
1.36159
1.3563
1.35282
1.35044
1.34879
1.3476
1.44232
1.40936
1.38418
1.36938
1.36116
1.35612
1.35287
1.35069
1.34922
1.34817
1.44393
1.40738
1.3799
1.36665
1.35884
1.35406
1.35094
1.34885
1.34751
1.34673
1.44079
1.40354
1.37462
1.36375
1.35649
1.35225
1.34942
1.34756
1.34634
1.34562
1.43497
1.39866
1.36989
1.36087
1.35399
1.35028
1.34772
1.34608
1.34501
1.34446
1.42776
1.39477
1.36659
1.35939
1.35281
1.34967
1.34734
1.34592
1.34496
1.34439
1.4176
1.38974
1.3621
1.35673
1.35033
1.34775
1.34558
1.34435
1.34347
1.34304
1.40973
1.3877
1.36059
1.35707
1.35077
1.34871
1.34659
1.34542
1.34452
1.34391
1.39876
1.38177
1.35577
1.35434
1.3485
1.34703
1.34497
1.34388
1.34302
1.34243
1.39567
1.3819
1.35648
1.35562
1.3489
1.34676
1.34391
1.34222
1.34089
1.33979
1.3779
1.37513
1.37179
1.36844
1.36521
1.36231
1.35981
1.35773
1.35605
1.35476
1.39556
1.3876
1.38017
1.37381
1.36854
1.36439
1.36118
1.35869
1.35674
1.35528
1.40854
1.39549
1.38432
1.3756
1.36875
1.36367
1.35994
1.35716
1.3551
1.35373
1.41821
1.40064
1.38628
1.37605
1.36832
1.36287
1.35895
1.35609
1.35396
1.35252
1.42457
1.4037
1.38667
1.37552
1.36725
1.36168
1.35771
1.35487
1.35273
1.35134
1.42942
1.40648
1.38725
1.37567
1.36711
1.36158
1.35764
1.35485
1.35272
1.35125
1.43105
1.40703
1.38596
1.3743
1.36553
1.36015
1.35623
1.35349
1.35135
1.34993
1.43338
1.40928
1.38682
1.37546
1.36661
1.3614
1.35745
1.35466
1.35246
1.35083
1.43095
1.40695
1.38414
1.37371
1.36516
1.36018
1.35618
1.35335
1.3511
1.34942
1.43135
1.40799
1.3848
1.37443
1.36521
1.35962
1.35499
1.35164
1.34902
1.34684
1.37696
1.37492
1.37237
1.36978
1.36736
1.3652
1.36332
1.36171
1.36037
1.35933
1.38912
1.38459
1.37936
1.37471
1.37086
1.36772
1.36515
1.36304
1.36131
1.35996
1.40008
1.3922
1.38385
1.37697
1.3716
1.36745
1.36423
1.36171
1.35974
1.35837
1.40995
1.39839
1.38711
1.37849
1.37199
1.36715
1.36349
1.36069
1.35853
1.35699
1.41849
1.4031
1.38907
1.37903
1.37165
1.36634
1.3624
1.35945
1.35718
1.35563
1.42664
1.40763
1.39111
1.38
1.37198
1.36639
1.3623
1.35928
1.35695
1.35529
1.43223
1.40988
1.39114
1.37928
1.37075
1.36503
1.36083
1.35778
1.35539
1.35376
1.43856
1.4135
1.39301
1.3808
1.37195
1.36617
1.36187
1.35873
1.35628
1.35447
1.43963
1.41252
1.39146
1.3796
1.37083
1.36508
1.36066
1.35743
1.3549
1.35301
1.44079
1.41277
1.39139
1.3794
1.37012
1.3639
1.35904
1.35543
1.35264
1.3504
1.37041
1.36994
1.36914
1.36813
1.36702
1.3659
1.36483
1.36384
1.36298
1.36229
1.37846
1.37706
1.37512
1.37303
1.37097
1.36904
1.36728
1.36573
1.3644
1.36332
1.38612
1.38314
1.37937
1.3757
1.37237
1.3695
1.36706
1.36501
1.36334
1.3621
1.39406
1.38913
1.38334
1.37809
1.37356
1.36983
1.36678
1.36431
1.36232
1.36082
1.4016
1.39434
1.3864
1.37964
1.37406
1.36962
1.36611
1.36334
1.36111
1.35952
1.40953
1.39974
1.38963
1.38153
1.37505
1.37008
1.36623
1.36324
1.36086
1.35911
1.41561
1.40317
1.39092
1.38165
1.37441
1.36905
1.36494
1.3618
1.35929
1.35752
1.42294
1.408
1.39389
1.38376
1.37595
1.37029
1.36596
1.36266
1.36006
1.3581
1.42569
1.40871
1.3936
1.38315
1.37507
1.36922
1.3647
1.36128
1.35858
1.35656
1.42784
1.40929
1.39334
1.38236
1.3738
1.36758
1.36274
1.35905
1.35618
1.35388
1.36888
1.36861
1.36819
1.36766
1.36706
1.36644
1.36581
1.36522
1.36469
1.36428
1.37469
1.37406
1.37312
1.37199
1.37079
1.36958
1.36843
1.36738
1.36644
1.36564
1.37969
1.37833
1.37644
1.37439
1.37235
1.37044
1.36871
1.36718
1.36586
1.36486
1.38541
1.38306
1.37997
1.37679
1.3738
1.37113
1.3688
1.3668
1.36512
1.3638
1.39129
1.38765
1.38312
1.37875
1.3748
1.37141
1.36854
1.36615
1.36416
1.36268
1.39795
1.39278
1.38668
1.38111
1.37627
1.37225
1.36893
1.36623
1.364
1.36231
1.40325
1.39631
1.38854
1.38181
1.37615
1.37158
1.36789
1.36494
1.36252
1.36076
1.41022
1.40146
1.39211
1.38439
1.37802
1.373
1.36899
1.36581
1.36325
1.36129
1.41351
1.40317
1.39272
1.38431
1.37741
1.37204
1.36776
1.36443
1.36175
1.35972
1.41567
1.4038
1.39234
1.38326
1.37589
1.37018
1.36565
1.36209
1.35929
1.35703
1.36808
1.36795
1.36775
1.36749
1.36718
1.36685
1.36651
1.36618
1.36588
1.36567
1.37251
1.37223
1.37177
1.37117
1.3705
1.36979
1.36908
1.3684
1.36778
1.36725
1.37597
1.37536
1.37443
1.3733
1.37208
1.37085
1.36968
1.36859
1.36763
1.36688
1.38
1.3789
1.37728
1.37543
1.37353
1.37169
1.37
1.36847
1.36714
1.36606
1.38441
1.38262
1.38012
1.37742
1.37476
1.37229
1.37007
1.36814
1.36647
1.36519
1.38974
1.38707
1.38354
1.37991
1.37648
1.3734
1.37071
1.36841
1.36647
1.36494
1.39395
1.3902
1.3855
1.3809
1.3767
1.37304
1.36993
1.36732
1.36513
1.36349
1.40006
1.39514
1.38925
1.38372
1.3788
1.37464
1.37114
1.36826
1.3659
1.36404
1.40319
1.39716
1.39025
1.38392
1.37838
1.37379
1.36999
1.36693
1.36441
1.36247
1.40472
1.39753
1.38973
1.38277
1.37679
1.37187
1.36784
1.36459
1.36197
1.35983
1.36797
1.3679
1.36779
1.36766
1.3675
1.36732
1.36713
1.36695
1.36679
1.3667
1.37148
1.37133
1.37108
1.37075
1.37037
1.36995
1.36952
1.36911
1.36872
1.36837
1.37406
1.37374
1.37322
1.37257
1.37183
1.37105
1.37027
1.36953
1.36886
1.36834
1.37689
1.37632
1.37542
1.37431
1.3731
1.37186
1.37067
1.36956
1.36857
1.36774
1.38018
1.37925
1.37782
1.37614
1.37437
1.37262
1.37097
1.36948
1.36816
1.36713
1.38434
1.38293
1.38087
1.37853
1.37614
1.37386
1.37178
1.36993
1.36832
1.36702
1.38751
1.38547
1.38264
1.37956
1.37653
1.37372
1.37121
1.36904
1.36716
1.36571
1.39268
1.38992
1.38624
1.38241
1.37874
1.37544
1.37255
1.37008
1.368
1.36633
1.39523
1.39171
1.3872
1.38265
1.3784
1.37468
1.37148
1.36881
1.36656
1.3648
1.39599
1.39171
1.38655
1.38147
1.37682
1.3728
1.36939
1.36655
1.36421
1.36226
1.36816
1.36811
1.36806
1.36799
1.3679
1.3678
1.3677
1.36761
1.36753
1.36751
1.37098
1.3709
1.37077
1.37059
1.37037
1.37013
1.36988
1.36963
1.36939
1.36917
1.37297
1.37279
1.3725
1.37211
1.37166
1.37118
1.37068
1.3702
1.36975
1.3694
1.37496
1.37465
1.37413
1.37345
1.37268
1.37187
1.37105
1.37028
1.36957
1.36896
1.37747
1.37695
1.37611
1.37505
1.37387
1.37266
1.37148
1.37038
1.36938
1.36859
1.38074
1.37996
1.37872
1.3772
1.37557
1.37393
1.37237
1.37095
1.36968
1.36863
1.38305
1.38191
1.38017
1.37812
1.37598
1.37389
1.37195
1.37022
1.36868
1.36747
1.38735
1.38578
1.38347
1.38085
1.37819
1.37567
1.37338
1.37136
1.36962
1.36819
1.38914
1.38706
1.38416
1.38098
1.37785
1.37496
1.37238
1.37015
1.36823
1.36671
1.38926
1.38674
1.38338
1.3798
1.37633
1.37318
1.3704
1.36803
1.36602
1.36432
1.3685
1.36847
1.36844
1.3684
1.36835
1.3683
1.36825
1.3682
1.36817
1.36819
1.37082
1.37078
1.37071
1.37061
1.37048
1.37035
1.3702
1.37005
1.36991
1.36978
1.37239
1.37229
1.37212
1.37189
1.37162
1.37132
1.37101
1.3707
1.37041
1.37019
1.37375
1.37357
1.37325
1.37284
1.37235
1.37183
1.37129
1.37076
1.37027
1.36984
1.37567
1.37537
1.37485
1.37418
1.3734
1.37259
1.37177
1.37098
1.37026
1.36967
1.37826
1.3778
1.37703
1.37605
1.37494
1.3738
1.37267
1.37162
1.37065
1.36983
1.3799
1.37922
1.37813
1.37677
1.37528
1.37377
1.37233
1.37099
1.36978
1.36882
1.38347
1.38254
1.38107
1.37931
1.37742
1.37557
1.37382
1.37223
1.37083
1.36965
1.38452
1.38329
1.38143
1.37926
1.37702
1.37485
1.37284
1.37106
1.36949
1.36821
1.38421
1.38271