/*--------------------------------*- C++ -*----------------------------------*\
| =========                 |                                                 |
| \\      /  F ield         | foam-extend: Open Source CFD                    |
|  \\    /   O peration     | Version:     4.0                                |
|   \\  /    A nd           | Web:         http://www.foam-extend.org         |
|    \\/     M anipulation  |                                                 |
\*---------------------------------------------------------------------------*/
FoamFile
{
    version     2.0;
    format      ascii;
    class       volScalarField;
    location    "1300";
    object      T;
}
// * * * * * * * * * * * * * * * * * * * * * * * * * * * * * * * * * * * * * //

dimensions      [0 0 0 1 0 0 0];

internalField   nonuniform List<scalar> 
34480
(
278.838
278.727
278.646
278.591
278.558
278.549
278.563
278.647
278.917
278.881
278.289
278.171
278.077
278.01
277.976
277.979
278.003
278.046
278.261
277.815
278.18
278.048
277.942
277.867
277.829
277.815
277.794
277.74
277.866
277.087
278.221
278.068
277.939
277.836
277.763
277.698
277.613
277.453
277.458
276.331
278.233
278.056
277.898
277.763
277.648
277.528
277.373
277.103
276.952
275.469
278.3
278.099
277.919
277.758
277.609
277.438
277.217
276.832
276.495
274.629
278.324
278.099
277.895
277.71
277.53
277.315
277.031
276.532
275.984
273.731
278.395
278.148
277.931
277.737
277.55
277.32
277.002
276.418
275.661
272.988
278.451
278.184
277.95
277.737
277.525
277.267
276.906
276.239
275.271
272.243
279.267
278.988
278.785
278.643
278.538
278.417
278.206
277.677
276.669
273.21
279.371
279.278
279.242
279.258
279.33
279.476
279.736
280.192
280.859
281.728
278.724
278.64
278.606
278.623
278.703
278.869
279.16
279.656
280.448
281.467
278.52
278.441
278.411
278.431
278.516
278.687
278.975
279.464
280.313
281.426
278.466
278.387
278.353
278.364
278.436
278.586
278.849
279.313
280.191
281.352
278.391
278.307
278.265
278.263
278.316
278.437
278.668
279.093
279.972
281.147
278.38
278.293
278.246
278.235
278.273
278.368
278.564
278.941
279.791
280.942
278.336
278.242
278.189
278.169
278.193
278.263
278.426
278.749
279.546
280.657
278.352
278.257
278.206
278.191
278.219
278.285
278.428
278.705
279.428
280.448
278.368
278.266
278.209
278.186
278.201
278.251
278.369
278.598
279.24
280.18
279.132
279.042
279.021
279.064
279.167
279.319
279.537
279.84
280.433
281.098
279.845
279.746
279.71
279.73
279.808
279.954
280.184
280.53
281.028
281.65
279.19
279.093
279.057
279.081
279.171
279.345
279.634
280.089
280.795
281.723
278.971
278.872
278.837
278.861
278.956
279.142
279.459
279.973
280.843
282.055
278.886
278.784
278.743
278.76
278.847
279.026
279.343
279.886
280.891
282.354
278.781
278.673
278.625
278.631
278.703
278.863
279.167
279.713
280.815
282.484
278.743
278.631
278.578
278.575
278.636
278.775
279.057
279.588
280.749
282.571
278.677
278.559
278.5
278.488
278.535
278.654
278.911
279.413
280.598
282.535
278.674
278.554
278.497
278.488
278.537
278.65
278.89
279.358
280.532
282.529
278.672
278.549
278.487
278.472
278.513
278.613
278.829
279.256
280.393
282.469
279.404
279.292
279.257
279.292
279.396
279.57
279.854
280.319
281.4
283.395
280.183
280.097
280.067
280.087
280.155
280.275
280.453
280.694
280.999
281.337
279.557
279.465
279.432
279.458
279.545
279.705
279.95
280.303
280.787
281.335
279.348
279.247
279.212
279.24
279.338
279.52
279.813
280.253
280.909
281.7
279.251
279.142
279.101
279.124
279.222
279.412
279.73
280.234
281.054
282.102
279.13
279.012
278.965
278.98
279.07
279.254
279.58
280.123
281.083
282.372
279.074
278.951
278.898
278.906
278.989
279.162
279.486
280.046
281.118
282.618
278.991
278.861
278.803
278.803
278.876
279.036
279.349
279.911
281.065
282.746
278.972
278.84
278.783
278.786
278.859
279.016
279.32
279.872
281.07
282.888
278.955
278.822
278.761
278.759
278.826
278.973
279.267
279.798
280.999
282.966
279.654
279.532
279.489
279.522
279.633
279.831
280.167
280.727
281.899
283.897
280.412
280.345
280.322
280.337
280.388
280.473
280.593
280.742
280.911
281.077
279.833
279.755
279.728
279.75
279.823
279.951
280.137
280.382
280.683
280.978
279.653
279.56
279.528
279.554
279.643
279.802
280.044
280.381
280.829
281.297
279.562
279.454
279.415
279.44
279.537
279.715
280
280.417
281.021
281.696
279.438
279.319
279.273
279.293
279.389
279.575
279.886
280.365
281.116
282.006
279.375
279.247
279.196
279.211
279.304
279.491
279.817
280.338
281.221
282.32
279.282
279.147
279.091
279.099
279.187
279.368
279.699
280.247
281.241
282.535
279.252
279.115
279.058
279.068
279.157
279.339
279.673
280.232
281.304
282.767
279.225
279.086
279.026
279.033
279.117
279.294
279.624
280.186
281.299
282.942
279.891
279.762
279.715
279.746
279.861
280.071
280.43
281.017
282.13
283.87
280.564
280.514
280.498
280.508
280.542
280.598
280.673
280.761
280.854
280.943
280.034
279.974
279.953
279.97
280.026
280.12
280.251
280.413
280.592
280.752
279.89
279.812
279.784
279.806
279.88
280.009
280.194
280.436
280.726
280.999
279.814
279.717
279.682
279.706
279.793
279.948
280.184
280.505
280.924
281.343
279.7
279.588
279.546
279.567
279.66
279.832
280.106
280.497
281.047
281.632
279.638
279.515
279.466
279.485
279.58
279.763
280.064
280.513
281.19
281.948
279.544
279.411
279.357
279.371
279.465
279.651
279.97
280.462
281.255
282.187
279.508
279.371
279.316
279.332
279.429
279.62
279.952
280.473
281.358
282.452
279.473
279.334
279.277
279.29
279.384
279.574
279.911
280.452
281.397
282.668
280.108
279.978
279.928
279.958
280.073
280.287
280.644
281.21
282.176
283.56
280.662
280.626
280.615
280.621
280.643
280.677
280.722
280.772
280.823
280.874
280.178
280.135
280.12
280.132
280.171
280.236
280.323
280.426
280.531
280.619
280.07
280.008
279.986
280.003
280.061
280.158
280.293
280.458
280.641
280.8
280.014
279.932
279.902
279.923
279.995
280.122
280.306
280.542
280.822
281.08
279.916
279.816
279.779
279.8
279.882
280.032
280.258
280.562
280.949
281.327
279.861
279.748
279.704
279.724
279.814
279.981
280.242
280.608
281.105
281.616
279.771
279.646
279.597
279.614
279.707
279.884
280.172
280.589
281.193
281.844
279.736
279.605
279.553
279.572
279.67
279.857
280.165
280.622
281.316
282.106
279.696
279.562
279.509
279.526
279.623
279.812
280.132
280.618
281.379
282.32
280.301
280.175
280.126
280.154
280.266
280.472
280.808
281.32
282.113
283.158
280.726
280.699
280.691
280.695
280.708
280.728
280.754
280.783
280.811
280.844
280.281
280.251
280.241
280.249
280.275
280.318
280.374
280.437
280.499
280.548
280.204
280.158
280.141
280.154
280.196
280.266
280.36
280.47
280.583
280.677
280.167
280.102
280.078
280.094
280.152
280.25
280.386
280.554
280.738
280.897
280.088
280.005
279.974
279.992
280.061
280.184
280.362
280.589
280.855
281.097
280.045
279.947
279.909
279.928
280.007
280.151
280.367
280.652
281.007
281.346
279.964
279.851
279.808
279.825
279.911
280.07
280.317
280.655
281.1
281.547
279.933
279.813
279.766
279.786
279.878
280.05
280.322
280.703
281.229
281.786
279.891
279.767
279.718
279.737
279.831
280.009
280.295
280.71
281.3
281.975
280.467
280.35
280.304
280.33
280.434
280.624
280.926
281.366
281.991
282.749
280.767
280.746
280.741
280.743
280.751
280.762
280.777
280.793
280.809
280.833
280.355
280.335
280.328
280.333
280.35
280.377
280.412
280.45
280.486
280.514
280.304
280.271
280.259
280.268
280.297
280.345
280.408
280.479
280.55
280.605
280.283
280.233
280.215
280.227
280.27
280.343
280.441
280.556
280.676
280.773
280.224
280.157
280.132
280.146
280.202
280.298
280.433
280.597
280.776
280.931
280.194
280.112
280.08
280.096
280.163
280.282
280.452
280.667
280.915
281.139
280.122
280.025
279.988
280.004
280.08
280.215
280.417
280.681
281.001
281.304
280.099
279.994
279.953
279.972
280.055
280.205
280.433
280.739
281.126
281.512
280.056
279.946
279.903
279.921
280.007
280.166
280.412
280.751
281.194
281.666
280.605
280.501
280.458
280.482
280.576
280.745
281.004
281.367
281.843
282.375
280.793
280.776
280.773
280.774
280.778
280.784
280.793
280.801
280.811
280.83
280.409
280.396
280.391
280.394
280.405
280.422
280.443
280.465
280.487
280.504
280.378
280.356
280.347
280.353
280.373
280.405
280.446
280.491
280.534
280.567
280.369
280.333
280.319
280.328
280.359
280.41
280.478
280.556
280.633
280.694
280.327
280.276
280.257
280.268
280.311
280.383
280.481
280.597
280.716
280.815
280.31
280.245
280.219
280.233
280.287
280.379
280.509
280.666
280.837
280.983
280.248
280.168
280.137
280.152
280.215
280.325
280.484
280.684
280.91
281.113
280.235
280.147
280.113
280.13
280.2
280.326
280.51
280.747
281.026
281.289
280.192
280.098
280.061
280.078
280.153
280.289
280.491
280.758
281.082
281.406
280.715
280.625
280.588
280.609
280.69
280.834
281.049
281.336
281.689
282.053
280.809
280.794
280.792
280.792
280.794
280.798
280.803
280.808
280.814
280.83
280.449
280.441
280.438
280.439
280.446
280.456
280.468
280.482
280.495
280.506
280.435
280.42
280.414
280.418
280.431
280.451
280.477
280.505
280.532
280.552
280.432
280.406
280.396
280.402
280.424
280.46
280.506
280.557
280.606
280.644
280.406
280.368
280.354
280.362
280.394
280.446
280.515
280.595
280.673
280.736
280.4
280.349
280.33
280.34
280.382
280.452
280.548
280.66
280.775
280.87
280.347
280.283
280.258
280.27
280.321
280.407
280.528
280.675
280.832
280.966
280.346
280.274
280.246
280.26
280.319
280.42
280.563
280.74
280.937
281.113
280.302
280.223
280.193
280.208
280.271
280.382
280.542
280.745
280.977
281.195
280.798
280.724
280.692
280.71
280.777
280.896
281.067
281.288
281.542
281.785
280.817
280.803
280.802
280.802
280.803
280.805
280.808
280.81
280.815
280.829
280.48
280.474
280.472
280.473
280.477
280.483
280.49
280.498
280.506
280.514
280.479
280.469
280.465
280.468
280.476
280.489
280.505
280.522
280.538
280.55
280.478
280.46
280.453
280.457
280.472
280.496
280.526
280.559
280.59
280.614
280.465
280.438
280.428
280.434
280.456
280.493
280.541
280.594
280.645
280.685
280.467
280.43
280.415
280.423
280.454
280.506
280.574
280.651
280.729
280.79
280.421
280.372
280.353
280.363
280.401
280.467
280.556
280.661
280.768
280.856
280.433
280.377
280.355
280.367
280.413
280.491
280.599
280.728
280.864
280.98
280.386
280.323
280.299
280.311
280.362
280.449
280.572
280.722
280.885
281.029
280.856
280.797
280.772
280.786
280.84
280.933
281.065
281.229
281.409
281.567
280.818
280.806
280.805
280.805
280.806
280.807
280.808
280.81
280.813
280.825
280.503
280.499
280.497
280.498
280.5
280.504
280.508
280.513
280.518
280.524
280.514
280.508
280.506
280.507
280.512
280.52
280.53
280.54
280.55
280.558
280.511
280.499
280.494
280.497
280.507
280.522
280.542
280.563
280.583
280.598
280.509
280.491
280.483
280.488
280.503
280.528
280.56
280.595
280.628
280.653
280.518
280.491
280.48
280.486
280.508
280.545
280.592
280.645
280.695
280.735
280.477
280.44
280.426
280.433
280.462
280.51
280.573
280.646
280.718
280.776
280.501
280.459
280.443
280.452
280.486
280.545
280.623
280.714
280.807
280.883
280.449
280.4
280.382
280.391
280.43
280.497
280.587
280.695
280.807
280.901
280.892
280.847
280.827
280.838
280.88
280.952
281.05
281.168
281.291
281.393
280.815
280.804
280.803
280.803
280.803
280.804
280.805
280.806
280.808
280.819
280.52
280.517
280.516
280.516
280.517
280.519
280.522
280.525
280.529
280.533
280.544
280.54
280.539
280.539
280.542
280.547
280.553
280.559
280.565
280.57
280.535
280.527
280.523
280.525
280.531
280.541
280.553
280.567
280.579
280.59
280.542
280.53
280.525
280.528
280.538
280.555
280.576
280.598
280.619
280.635
280.554
280.536
280.528
280.532
280.548
280.573
280.605
280.64
280.672
280.698
280.516
280.49
280.48
280.485
280.505
280.539
280.583
280.632
280.68
280.718
280.554
280.524
280.512
280.519
280.544
280.586
280.642
280.704
280.766
280.815
280.493
280.457
280.443
280.451
280.479
280.528
280.593
280.668
280.743
280.804
280.909
280.877
280.862
280.87
280.901
280.954
281.025
281.107
281.19
281.253
280.808
280.798
280.797
280.797
280.797
280.797
280.798
280.799
280.8
280.811
280.531
280.528
280.527
280.527
280.528
280.529
280.531
280.533
280.536
280.54
280.57
280.568
280.567
280.567
280.569
280.572
280.575
280.579
280.582
280.585
280.551
280.546
280.543
280.544
280.548
280.554
280.562
280.57
280.578
280.585
280.567
280.559
280.556
280.558
280.564
280.575
280.588
280.602
280.615
280.625
280.58
280.568
280.563
280.565
280.576
280.592
280.613
280.636
280.657
280.673
280.544
280.526
280.519
280.522
280.536
280.559
280.589
280.622
280.652
280.677
280.597
280.576
280.567
280.572
280.59
280.619
280.657
280.699
280.739
280.77
280.522
280.496
280.486
280.491
280.512
280.546
280.591
280.642
280.691
280.731
280.913
280.89
280.879
280.885
280.908
280.945
280.995
281.05
281.105
281.143
280.799
280.79
280.79
280.79
280.79
280.79
280.79
280.791
280.792
280.801
280.536
280.534
280.533
280.533
280.533
280.534
280.535
280.537
280.539
280.543
280.594
280.592
280.592
280.593
280.594
280.595
280.597
280.599
280.601
280.603
280.561
280.558
280.556
280.557
280.559
280.563
280.567
280.573
280.578
280.583
280.584
280.579
280.577
280.578
280.583
280.589
280.598
280.606
280.614
280.62
280.597
280.589
280.586
280.588
280.594
280.605
280.619
280.633
280.646
280.657
280.563
280.551
280.546
280.548
280.558
280.573
280.592
280.613
280.632
280.648
280.63
280.616
280.61
280.614
280.626
280.646
280.671
280.698
280.724
280.743
280.538
280.519
280.513
280.516
280.53
280.554
280.584
280.617
280.649
280.674
280.907
280.892
280.885
280.889
280.904
280.93
280.963
281
281.035
281.057
280.795
280.788
280.788
280.788
280.788
280.788
280.788
280.788
280.789
280.796
280.533
280.531
280.53
280.53
280.53
280.531
280.532
280.533
280.535
280.54
280.615
280.615
280.615
280.615
280.616
280.617
280.618
280.618
280.619
280.621
280.567
280.565
280.564
280.564
280.565
280.568
280.57
280.574
280.577
280.58
280.595
280.592
280.591
280.592
280.594
280.598
280.603
280.608
280.613
280.617
280.607
280.601
280.599
280.6
280.604
280.611
280.62
280.629
280.637
280.644
280.574
280.567
280.564
280.565
280.571
280.581
280.593
280.606
280.618
280.627
280.656
280.647
280.643
280.645
280.653
280.666
280.682
280.7
280.716
280.727
280.541
280.528
280.523
280.526
280.535
280.55
280.57
280.591
280.611
280.628
280.901
280.892
280.886
280.889
280.9
280.916
280.938
280.962
280.985
280.996
280.81
280.804
280.804
280.804
280.804
280.804
280.804
280.804
280.804
280.81
280.519
280.517
280.516
280.516
280.516
280.517
280.517
280.518
280.52
280.525
280.632
280.632
280.632
280.632
280.632
280.633
280.633
280.634
280.635
280.636
280.569
280.568
280.567
280.568
280.569
280.57
280.571
280.573
280.575
280.577
280.6
280.598
280.597
280.597
280.599
280.601
280.604
280.608
280.611
280.613
280.608
280.604
280.603
280.604
280.606
280.61
280.616
280.621
280.627
280.631
280.579
280.575
280.573
280.575
280.578
280.584
280.592
280.599
280.606
280.612
280.668
280.662
280.659
280.661
280.666
280.674
280.685
280.696
280.707
280.714
280.527
280.519
280.516
280.518
280.524
280.534
280.546
280.559
280.571
280.582
280.908
280.903
280.899
280.901
280.907
280.918
280.933
280.947
280.962
280.968
280.862
280.858
280.858
280.857
280.857
280.857
280.857
280.857
280.857
280.862
280.484
280.483
280.483
280.483
280.483
280.484
280.484
280.484
280.485
280.489
280.637
280.636
280.636
280.635
280.635
280.636
280.636
280.637
280.639
280.64
280.569
280.569
280.569
280.57
280.57
280.571
280.572
280.572
280.573
280.574
280.599
280.598
280.597
280.597
280.598
280.6
280.602
280.604
280.606
280.608
280.604
280.601
280.6
280.601
280.602
280.605
280.608
280.612
280.615
280.619
280.58
280.577
280.576
280.577
280.58
280.584
280.588
280.593
280.596
280.599
280.658
280.654
280.651
280.652
280.655
280.661
280.668
280.676
280.684
280.69
280.49
280.485
280.484
280.485
280.489
280.495
280.503
280.511
280.517
280.523
280.946
280.942
280.939
280.94
280.945
280.952
280.961
280.971
280.981
280.984
280.944
280.942
280.941
280.941
280.94
280.941
280.941
280.942
280.943
280.946
280.427
280.428
280.43
280.431
280.432
280.432
280.431
280.43
280.428
280.428
280.627
280.624
280.623
280.622
280.622
280.622
280.623
280.625
280.627
280.631
280.571
280.571
280.571
280.572
280.572
280.573
280.573
280.573
280.573
280.573
280.596
280.595
280.595
280.595
280.595
280.597
280.598
280.6
280.601
280.603
280.598
280.597
280.596
280.596
280.597
280.599
280.602
280.604
280.607
280.609
280.579
280.577
280.577
280.578
280.579
280.582
280.586
280.589
280.591
280.592
280.627
280.622
280.62
280.621
280.623
280.627
280.633
280.639
280.646
280.652
280.43
280.428
280.428
280.429
280.432
280.437
280.442
280.448
280.45
280.451
281.005
281.002
281
281.001
281.004
281.01
281.016
281.024
281.031
281.034
289.484
291.24
291.504
289.916
290.647
292.776
293.185
291.526
292.308
294.933
295.467
293.496
293.59
296.655
297.323
295.143
294.536
298.011
298.82
296.5
295.284
299.139
300.108
297.922
295.831
300.046
301.208
299.348
296.303
300.842
302.21
300.728
296.516
301.356
302.939
301.881
297.076
302.106
303.955
303.482
286.179
286.726
286.707
286.183
287.475
288.117
288.056
287.404
289.077
289.88
289.769
288.912
290.515
291.465
291.294
290.245
291.69
292.78
292.545
291.311
292.711
293.939
293.679
292.288
293.517
294.875
294.627
293.101
294.212
295.675
295.45
293.814
294.649
296.177
295.979
294.278
295.434
296.935
296.848
295.202
282.276
282.41
282.441
282.372
283.004
283.222
283.262
283.126
284.169
284.507
284.551
284.302
285.434
285.892
285.933
285.554
286.596
287.169
287.197
286.675
287.73
288.416
288.428
287.769
288.72
289.514
289.515
288.731
289.658
290.544
290.536
289.647
290.415
291.343
291.333
290.394
291.658
292.514
292.544
291.682
281.509
281.576
281.597
281.575
281.768
281.854
281.883
281.861
282.475
282.623
282.666
282.612
283.35
283.571
283.623
283.522
284.189
284.488
284.545
284.382
285.077
285.457
285.515
285.278
285.894
286.355
286.412
286.093
286.73
287.262
287.314
286.914
287.484
288.05
288.098
287.643
288.827
289.318
289.38
288.968
281.078
281.115
281.127
281.116
281.117
281.147
281.161
281.161
281.566
281.623
281.649
281.645
282.176
282.274
282.313
282.297
282.769
282.918
282.969
282.932
283.435
283.64
283.701
283.633
284.059
284.323
284.392
284.282
284.732
285.053
285.124
284.967
285.368
285.718
285.788
285.591
286.619
286.898
286.974
286.813
280.908
280.938
280.947
280.935
280.812
280.825
280.832
280.832
281.115
281.141
281.155
281.156
281.554
281.601
281.624
281.624
281.98
282.054
282.088
282.085
282.478
282.586
282.632
282.621
282.942
283.09
283.147
283.12
283.464
283.651
283.715
283.668
283.965
284.175
284.24
284.17
285.085
285.228
285.296
285.265
280.825
280.852
280.86
280.848
280.645
280.651
280.654
280.655
280.854
280.866
280.873
280.874
281.181
281.204
281.217
281.219
281.497
281.535
281.555
281.558
281.88
281.938
281.967
281.97
282.231
282.312
282.351
282.351
282.636
282.743
282.79
282.782
283.015
283.138
283.188
283.17
284.009
284.067
284.119
284.145
280.791
280.817
280.824
280.812
280.561
280.564
280.566
280.566
280.704
280.71
280.714
280.715
280.949
280.961
280.968
280.97
281.187
281.207
281.218
281.221
281.487
281.519
281.537
281.541
281.755
281.801
281.826
281.83
282.073
282.134
282.165
282.168
282.352
282.424
282.459
282.458
283.243
283.248
283.283
283.329
280.778
280.803
280.81
280.798
280.521
280.523
280.524
280.524
280.62
280.623
280.625
280.625
280.803
280.809
280.813
280.814
280.98
280.992
280.998
281
281.217
281.235
281.245
281.249
281.421
281.447
281.463
281.467
281.672
281.708
281.728
281.732
281.876
281.919
281.942
281.945
282.679
282.653
282.675
282.726
280.775
280.8
280.807
280.795
280.508
280.509
280.51
280.51
280.576
280.578
280.579
280.579
280.711
280.715
280.717
280.718
280.844
280.85
280.854
280.855
281.029
281.04
281.046
281.048
281.181
281.197
281.206
281.209
281.381
281.402
281.414
281.418
281.528
281.553
281.568
281.572
282.255
282.212
282.224
282.275
280.775
280.8
280.807
280.795
280.508
280.509
280.51
280.51
280.557
280.558
280.559
280.559
280.655
280.657
280.658
280.659
280.754
280.758
280.76
280.761
280.898
280.905
280.909
280.91
281.008
281.018
281.023
281.025
281.169
281.181
281.189
281.191
281.27
281.285
281.294
281.297
281.93
281.878
281.884
281.932
280.775
280.801
280.807
280.795
280.516
280.516
280.517
280.517
280.554
280.555
280.555
280.555
280.622
280.623
280.624
280.625
280.696
280.699
280.7
280.701
280.808
280.812
280.815
280.815
280.883
280.889
280.893
280.894
281.015
281.022
281.027
281.029
281.077
281.086
281.092
281.094
281.678
281.622
281.625
281.67
280.773
280.799
280.806
280.793
280.526
280.526
280.527
280.527
280.56
280.561
280.561
280.561
280.603
280.605
280.605
280.605
280.661
280.662
280.663
280.663
280.747
280.75
280.751
280.752
280.794
280.798
280.8
280.801
280.905
280.91
280.913
280.913
280.933
280.939
280.943
280.944
281.48
281.425
281.426
281.467
280.769
280.795
280.802
280.789
280.535
280.536
280.537
280.537
280.572
280.572
280.572
280.572
280.594
280.595
280.595
280.595
280.64
280.641
280.642
280.642
280.706
280.708
280.709
280.709
280.73
280.733
280.734
280.735
280.829
280.832
280.834
280.834
280.827
280.831
280.833
280.833
281.325
281.272
281.272
281.31
280.762
280.789
280.795
280.782
280.543
280.544
280.544
280.544
280.587
280.587
280.588
280.587
280.589
280.59
280.59
280.59
280.629
280.63
280.631
280.63
280.68
280.681
280.682
280.682
280.686
280.688
280.689
280.689
280.779
280.781
280.782
280.782
280.748
280.75
280.752
280.751
281.202
281.153
281.152
281.186
280.755
280.782
280.788
280.775
280.547
280.548
280.548
280.548
280.604
280.605
280.605
280.605
280.586
280.587
280.587
280.587
280.624
280.625
280.625
280.625
280.662
280.663
280.663
280.663
280.654
280.656
280.656
280.656
280.749
280.751
280.751
280.751
280.687
280.689
280.69
280.69
281.105
281.062
281.061
281.09
280.754
280.78
280.786
280.773
280.544
280.545
280.546
280.546
280.622
280.623
280.623
280.622
280.583
280.584
280.584
280.584
280.621
280.621
280.621
280.621
280.648
280.649
280.649
280.649
280.632
280.633
280.633
280.633
280.732
280.733
280.734
280.734
280.638
280.64
280.64
280.64
281.034
280.997
280.997
281.021
280.772
280.797
280.802
280.789
280.53
280.532
280.532
280.532
280.638
280.638
280.638
280.638
280.58
280.58
280.581
280.58
280.617
280.617
280.617
280.617
280.635
280.636
280.636
280.636
280.615
280.615
280.615
280.615
280.719
280.72
280.72
280.72
280.591
280.592
280.592
280.591
280.995
280.967
280.967
280.986
280.831
280.853
280.857
280.845
280.495
280.497
280.497
280.497
280.644
280.645
280.645
280.645
280.576
280.576
280.576
280.575
280.611
280.612
280.612
280.611
280.622
280.623
280.623
280.623
280.6
280.6
280.6
280.6
280.697
280.698
280.699
280.698
280.529
280.53
280.53
280.529
281.004
280.986
280.986
280.998
280.929
280.943
280.944
280.936
280.432
280.433
280.432
280.431
280.637
280.638
280.639
280.639
280.573
280.573
280.573
280.572
280.605
280.606
280.606
280.606
280.612
280.613
280.613
280.613
280.591
280.591
280.591
280.591
280.663
280.666
280.666
280.665
280.447
280.447
280.446
280.446
281.051
281.047
281.047
281.05
282.203
280.905
280.364
280.017
279.723
279.482
279.291
279.139
279.018
278.913
282.35
281.113
280.282
279.758
279.343
279.036
278.809
278.639
278.51
278.405
282.925
281.621
280.493
279.854
279.356
279.009
278.756
278.566
278.423
278.309
283.522
282.158
280.76
280.058
279.493
279.123
278.85
278.646
278.49
278.365
284.002
282.613
280.97
280.217
279.592
279.202
278.91
278.693
278.527
278.393
284.553
283.107
281.24
280.45
279.765
279.357
279.043
278.811
278.63
278.479
285.036
283.507
281.441
280.627
279.885
279.462
279.127
278.881
278.686
278.525
285.603
283.997
281.744
280.914
280.112
279.672
279.308
279.037
278.814
278.621
286.052
284.389
281.958
281.152
280.315
279.871
279.47
279.17
278.918
278.7
287.783
286.12
283.533
282.674
281.712
281.142
280.617
280.213
279.877
279.583
284.001
282.693
281.707
280.995
280.502
280.157
279.906
279.718
279.573
279.452
284.448
282.664
281.335
280.477
279.924
279.547
279.278
279.083
278.94
278.834
285.044
282.852
281.267
280.339
279.745
279.349
279.07
278.869
278.726
278.624
285.532
283.039
281.261
280.31
279.689
279.286
279.006
278.807
278.667
278.567
285.799
283.095
281.187
280.229
279.587
279.186
278.909
278.716
278.582
278.488
285.998
283.166
281.165
280.218
279.559
279.166
278.891
278.704
278.572
278.478
286.043
283.147
281.075
280.157
279.486
279.105
278.835
278.654
278.526
278.434
286.1
283.206
281.078
280.202
279.519
279.153
278.881
278.699
278.563
278.461
286.058
283.195
281.02
280.224
279.557
279.22
278.942
278.751
278.604
278.489
286.967
284.255
282.084
281.34
280.624
280.231
279.884
279.637
279.444
279.3
282.136
281.757
281.388
281.059
280.777
280.54
280.343
280.18
280.043
279.925
282.598
281.917
281.3
280.79
280.377
280.049
279.793
279.592
279.436
279.318
283.369
282.355
281.489
280.822
280.307
279.915
279.618
279.393
279.224
279.1
284.138
282.801
281.702
280.907
280.312
279.878
279.558
279.321
279.145
279.018
284.712
283.092
281.792
280.899
280.245
279.786
279.454
279.213
279.037
278.911
285.221
283.363
281.891
280.928
280.232
279.759
279.421
279.18
279.003
278.876
285.568
283.514
281.897
280.891
280.165
279.688
279.349
279.11
278.935
278.809
285.89
283.692
281.955
280.93
280.184
279.711
279.371
279.13
278.949
278.815
286.093
283.778
281.942
280.939
280.201
279.746
279.403
279.156
278.967
278.823
287.081
284.761
282.888
281.907
281.14
280.648
280.26
279.975
279.756
279.596
281.531
281.385
281.207
281.027
280.857
280.702
280.565
280.445
280.338
280.241
281.739
281.45
281.12
280.804
280.524
280.285
280.084
279.918
279.783
279.675
282.366
281.883
281.373
280.919
280.535
280.219
279.965
279.761
279.601
279.479
283.098
282.382
281.676
281.086
280.607
280.23
279.934
279.704
279.526
279.393
283.725
282.765
281.867
281.155
280.597
280.173
279.848
279.602
279.414
279.276
284.339
283.14
282.06
281.246
280.624
280.165
279.821
279.564
279.37
279.226
284.828
283.4
282.155
281.259
280.587
280.105
279.75
279.487
279.289
279.144
285.3
283.67
282.28
281.325
280.616
280.123
279.758
279.49
279.286
279.133
285.668
283.847
282.333
281.355
280.635
280.143
279.772
279.497
279.286
279.125
286.713
284.789
283.216
282.231
281.482
280.962
280.561
280.259
280.028
279.861
281.124
281.077
281.006
280.922
280.834
280.747
280.664
280.587
280.514
280.443
281.132
281.019
280.864
280.697
280.532
280.378
280.239
280.118
280.015
279.93
281.585
281.378
281.115
280.846
280.594
280.369
280.175
280.012
279.878
279.771
282.177
281.84
281.442
281.06
280.718
280.426
280.183
279.983
279.823
279.698
282.721
282.228
281.682
281.187
280.762
280.412
280.128
279.902
279.723
279.586
283.299
282.634
281.936
281.334
280.834
280.436
280.121
279.874
279.681
279.533
283.792
282.946
282.098
281.401
280.837
280.401
280.063
279.802
279.599
279.446
284.292
283.268
282.281
281.504
280.89
280.427
280.072
279.799
279.587
279.425
284.708
283.503
282.39
281.562
280.919
280.443
280.075
279.793
279.574
279.406
285.745
284.418
283.233
282.374
281.7
281.199
280.808
280.507
280.273
280.105
280.95
280.932
280.9
280.859
280.812
280.764
280.716
280.669
280.621
280.57
280.821
280.77
280.694
280.603
280.508
280.413
280.323
280.241
280.168
280.106
281.135
281.038
280.899
280.743
280.584
280.434
280.297
280.176
280.073
279.988
281.585
281.421
281.198
280.96
280.73
280.52
280.334
280.175
280.042
279.935
282.014
281.761
281.439
281.112
280.808
280.54
280.311
280.119
279.962
279.838
282.503
282.143
281.709
281.29
280.914
280.594
280.327
280.108
279.931
279.791
282.936
282.453
281.902
281.394
280.952
280.587
280.288
280.048
279.856
279.706
283.396
282.783
282.115
281.526
281.029
280.627
280.304
280.047
279.841
279.682
283.789
283.034
282.257
281.607
281.07
280.644
280.304
280.035
279.821
279.655
284.771
283.912
283.064
282.372
281.802
281.352
280.992
280.708
280.483
280.32
280.866
280.86
280.845
280.824
280.8
280.774
280.746
280.718
280.688
280.652
280.65
280.626
280.587
280.539
280.484
280.427
280.372
280.318
280.27
280.228
280.866
280.818
280.743
280.653
280.557
280.46
280.368
280.283
280.208
280.145
281.204
281.12
280.995
280.851
280.701
280.557
280.423
280.303
280.2
280.113
281.532
281.399
281.21
281.001
280.793
280.598
280.423
280.271
280.141
280.036
281.926
281.731
281.467
281.187
280.918
280.674
280.46
280.277
280.124
280.001
282.281
282.01
281.661
281.307
280.978
280.688
280.44
280.232
280.06
279.924
282.673
282.316
281.879
281.455
281.072
280.743
280.466
280.237
280.049
279.901
283.006
282.55
282.03
281.547
281.122
280.764
280.467
280.224
280.026
279.87
283.91
283.38
282.8
282.274
281.815
281.434
281.119
280.862
280.655
280.503
280.83
280.829
280.821
280.811
280.798
280.784
280.768
280.752
280.732
280.705
280.564
280.551
280.531
280.504
280.472
280.439
280.405
280.372
280.341
280.314
280.711
280.685
280.644
280.592
280.533
280.472
280.412
280.355
280.303
280.258
280.963
280.917
280.846
280.758
280.663
280.567
280.474
280.387
280.311
280.245
281.209
281.136
281.025
280.893
280.754
280.618
280.489
280.373
280.272
280.187
281.522
281.413
281.253
281.069
280.882
280.703
280.54
280.394
280.269
280.165
281.801
281.647
281.429
281.189
280.952
280.732
280.535
280.363
280.217
280.099
282.123
281.914
281.634
281.338
281.054
280.796
280.57
280.377
280.214
280.082
282.387
282.117
281.776
281.431
281.108
280.821
280.574
280.365
280.19
280.05
283.207
282.889
282.503
282.12
281.767
281.458
281.193
280.972
280.789
280.654
280.817
280.817
280.814
280.808
280.801
280.793
280.785
280.775
280.762
280.74
280.524
280.517
280.505
280.49
280.472
280.452
280.432
280.412
280.393
280.376
280.623
280.609
280.585
280.555
280.52
280.482
280.443
280.406
280.372
280.341
280.81
280.785
280.743
280.69
280.63
280.566
280.503
280.443
280.389
280.341
280.994
280.953
280.886
280.803
280.712
280.618
280.527
280.442
280.366
280.301
281.24
281.177
281.079
280.96
280.832
280.705
280.584
280.473
280.375
280.292
281.453
281.363
281.227
281.067
280.901
280.739
280.588
280.453
280.334
280.236
281.711
281.588
281.41
281.208
281.004
280.809
280.632
280.475
280.34
280.228
281.912
281.752
281.533
281.293
281.055
280.834
280.636
280.464
280.317
280.196
282.653
282.465
282.212
281.942
281.679
281.439
281.226