/*--------------------------------*- C++ -*----------------------------------*\
| =========                 |                                                 |
| \\      /  F ield         | foam-extend: Open Source CFD                    |
|  \\    /   O peration     | Version:     4.0                                |
|   \\  /    A nd           | Web:         http://www.foam-extend.org         |
|    \\/     M anipulation  |                                                 |
\*---------------------------------------------------------------------------*/
FoamFile
{
    version     2.0;
    format      ascii;
    class       volVectorField;
    location    "1300";
    object      Urel;
}
// * * * * * * * * * * * * * * * * * * * * * * * * * * * * * * * * * * * * * //

dimensions      [0 1 -1 0 0 0 0];

internalField   nonuniform List<vector> 
34480
(
(208.866 -9.79183 -19.0916)
(209.186 -9.28995 -21.5519)
(209.345 -8.56321 -23.976)
(209.352 -7.63768 -26.4075)
(209.205 -6.55194 -28.9843)
(208.865 -5.30886 -31.8823)
(208.253 -3.88872 -35.5016)
(207.091 -2.17532 -40.1864)
(204.424 0.0597281 -48.1064)
(197.49 4.26271 -75.2689)
(209.782 -12.7943 -26.8105)
(210.044 -11.6645 -29.5919)
(210.173 -10.3806 -32.2485)
(210.149 -8.95696 -34.849)
(209.917 -7.4297 -37.5101)
(209.418 -5.8188 -40.4399)
(208.616 -4.14321 -44.0977)
(207.33 -2.3493 -49.225)
(204.2 -0.276381 -58.0432)
(196.049 3.67392 -88.6076)
(210.46 -17.0821 -33.7525)
(210.697 -15.5274 -36.834)
(210.794 -13.7967 -39.7763)
(210.728 -11.8839 -42.5949)
(210.438 -9.84437 -45.4169)
(209.917 -7.7122 -48.4998)
(209.172 -5.51463 -52.3716)
(208.036 -3.18204 -58.0602)
(204.742 -0.548605 -67.7549)
(195.546 4.15214 -101.265)
(210.469 -20.4711 -41.1701)
(210.706 -18.386 -44.5456)
(210.819 -16.1265 -47.7264)
(210.786 -13.6741 -50.7461)
(210.558 -11.0851 -53.7391)
(210.149 -8.39644 -56.992)
(209.54 -5.64018 -61.0354)
(208.568 -2.73765 -67.1172)
(205.25 0.482688 -77.4339)
(195.255 5.87039 -112.853)
(210.634 -24.9459 -48.0359)
(210.9 -22.4519 -51.6886)
(211.05 -19.7454 -55.1556)
(211.078 -16.8077 -58.4244)
(210.94 -13.7145 -61.6547)
(210.666 -10.5027 -65.1446)
(210.205 -7.19909 -69.4218)
(209.418 -3.71405 -75.9219)
(206.2 0.131403 -86.9055)
(195.565 6.22249 -123.844)
(210.528 -28.2034 -55.6339)
(210.803 -25.21 -59.5234)
(210.972 -21.9892 -63.1587)
(211.033 -18.5202 -66.5709)
(210.961 -14.87 -69.9119)
(210.804 -11.0814 -73.5044)
(210.496 -7.18265 -77.8602)
(209.924 -3.08714 -84.587)
(206.955 1.40405 -96.0557)
(195.923 8.13284 -134.144)
(210.617 -32.991 -62.4923)
(210.931 -29.6086 -66.6221)
(211.126 -25.9631 -70.5072)
(211.225 -22.0437 -74.1258)
(211.211 -17.9255 -77.6593)
(211.151 -13.645 -81.4314)
(210.985 -9.20677 -85.958)
(210.63 -4.50777 -92.9689)
(207.994 0.722737 -105.016)
(196.668 8.28289 -144.099)
(210.449 -36.1705 -70.3366)
(210.767 -32.3158 -74.674)
(210.941 -28.1518 -78.6876)
(210.997 -23.6936 -82.4156)
(210.943 -18.995 -86.0023)
(210.865 -14.1134 -89.7766)
(210.745 -9.04596 -94.238)
(210.549 -3.68574 -101.206)
(208.322 2.38932 -113.443)
(197.032 10.8531 -153.031)
(210.394 -41.441 -77.1623)
(210.755 -37.2191 -81.6864)
(210.96 -32.6792 -85.8837)
(211.056 -27.8608 -89.7629)
(211.053 -22.8195 -93.5101)
(211.021 -17.5854 -97.43)
(210.97 -12.1025 -102.057)
(210.916 -6.21803 -109.181)
(209.02 0.786153 -121.793)
(197.616 10.7406 -161.322)
(209.43 -44.6468 -85.1209)
(209.702 -40.0429 -89.9267)
(209.647 -35.0016 -94.3269)
(209.29 -29.6442 -98.3905)
(208.677 -23.9846 -102.245)
(207.899 -18.0637 -106.171)
(207.041 -11.8164 -110.64)
(206.269 -5.05181 -117.255)
(204.348 2.96251 -129.017)
(194.19 14.3067 -166.616)
(205.749 1.91496 2.99951)
(206.228 1.11362 1.54465)
(206.415 0.431671 -0.00718438)
(206.333 -0.111475 -1.60573)
(205.957 -0.539873 -3.31404)
(205.197 -0.854144 -5.14484)
(203.852 -1.05833 -7.15188)
(201.49 -1.16385 -9.31036)
(198.028 -1.24866 -11.2393)
(193.457 -1.15084 -14.3905)
(207.033 2.87728 2.79596)
(207.466 2.17531 1.162)
(207.64 1.53236 -0.489218)
(207.554 0.958249 -2.18381)
(207.145 0.43224 -3.98896)
(206.293 -0.0518255 -5.96297)
(204.804 -0.509111 -8.19903)
(202.223 -0.9749 -10.9482)
(198.059 -1.56585 -13.9976)
(192.382 -1.80801 -20.5764)
(207.973 2.59479 3.30034)
(208.385 1.79202 1.54118)
(208.545 1.0676 -0.255991)
(208.449 0.446762 -2.08566)
(208.017 -0.108483 -4.02186)
(207.149 -0.610713 -6.14884)
(205.67 -1.08924 -8.65562)
(203.099 -1.56072 -12.0741)
(198.561 -2.13292 -16.3201)
(191.953 -2.04984 -26.7091)
(208.22 3.20082 3.29204)
(208.637 2.42922 1.44834)
(208.819 1.72211 -0.405857)
(208.764 1.1169 -2.29468)
(208.395 0.575681 -4.3033)
(207.629 0.0867968 -6.55867)
(206.263 -0.3827 -9.28663)
(203.786 -0.825805 -13.2442)
(199.02 -1.3352 -18.4605)
(191.601 -0.907927 -32.444)
(208.58 2.69313 3.82353)
(209.024 1.8361 1.92477)
(209.244 1.07086 -0.025533)
(209.253 0.438126 -2.00843)
(208.976 -0.116869 -4.14077)
(208.345 -0.605438 -6.57693)
(207.13 -1.0624 -9.55911)
(204.816 -1.45879 -14.0472)
(199.973 -1.87347 -20.2126)
(191.848 -1.0464 -37.6812)
(208.625 3.41522 3.61821)
(209.082 2.56509 1.7077)
(209.326 1.80887 -0.213118)
(209.377 1.18989 -2.17624)
(209.173 0.661753 -4.29279)
(208.67 0.210055 -6.76333)
(207.621 -0.19632 -9.82967)
(205.528 -0.519945 -14.6457)
(200.773 -0.802811 -21.5282)
(192.125 0.390083 -42.1977)
(208.838 2.5839 4.14411)
(209.329 1.63469 2.22533)
(209.603 0.806574 0.252643)
(209.7 0.135671 -1.75022)
(209.562 -0.428158 -3.93069)
(209.174 -0.89661 -6.50542)
(208.287 -1.28627 -9.7297)
(206.44 -1.54447 -14.9001)
(201.893 -1.63298 -22.5477)
(192.822 0.0229155 -46.233)
(208.758 3.38241 3.68262)
(209.257 2.41993 1.79369)
(209.519 1.61043 -0.0928061)
(209.589 0.964933 -2.0234)
(209.436 0.456957 -4.11379)
(209.069 0.054306 -6.61114)
(208.277 -0.245827 -9.7654)
(206.652 -0.399806 -14.9868)
(202.435 -0.18991 -23.0328)
(193.237 1.85115 -49.2065)
(208.771 2.05748 4.23559)
(209.302 0.981273 2.39504)
(209.592 0.0722019 0.523557)
(209.698 -0.680743 -1.37487)
(209.602 -1.30842 -3.47237)
(209.311 -1.82352 -6.01709)
(208.641 -2.17831 -9.31782)
(207.245 -2.30987 -14.7739)
(203.369 -1.73081 -23.4689)
(193.922 1.01316 -51.4885)
(207.85 2.86143 3.63059)
(208.325 1.69221 1.7853)
(208.44 0.797341 -0.0349553)
(208.228 0.0705859 -1.90075)
(207.704 -0.470124 -3.91991)
(206.903 -0.850899 -6.3392)
(205.713 -1.00867 -9.45153)
(203.923 -0.828178 -14.5446)
(200.197 0.225123 -23.0197)
(191.572 4.0404 -51.3387)
(203.373 1.43158 2.33297)
(203.877 0.838101 1.21624)
(204.059 0.307927 -0.0118131)
(203.956 -0.125754 -1.26084)
(203.556 -0.475829 -2.55109)
(202.811 -0.739795 -3.82836)
(201.628 -0.927357 -5.04485)
(199.854 -1.06401 -6.05103)
(197.301 -1.23519 -6.4959)
(194.085 -1.42478 -6.51634)
(204.757 2.42394 2.31013)
(205.253 1.8836 0.944689)
(205.435 1.35888 -0.447914)
(205.313 0.869378 -1.86308)
(204.852 0.405412 -3.32705)
(203.966 -0.0384088 -4.84274)
(202.496 -0.475425 -6.37382)
(200.171 -0.937686 -7.85725)
(196.55 -1.53703 -8.79791)
(191.711 -2.12125 -9.8096)
(205.786 2.22904 2.94037)
(206.287 1.54875 1.3904)
(206.47 0.912553 -0.210064)
(206.348 0.350337 -1.83612)
(205.864 -0.169415 -3.53398)
(204.915 -0.656658 -5.32073)
(203.303 -1.13624 -7.20634)
(200.663 -1.63837 -9.28349)
(196.165 -2.30815 -10.9951)
(189.728 -2.89024 -13.5813)
(206.186 2.91875 2.98235)
(206.71 2.24478 1.30946)
(206.918 1.60585 -0.384779)
(206.831 1.0418 -2.11205)
(206.385 0.519704 -3.93614)
(205.473 0.0298304 -5.91581)
(203.846 -0.459685 -8.09717)
(201.039 -0.966582 -10.7303)
(195.805 -1.65285 -13.1905)
(187.874 -2.14099 -17.5543)
(206.696 2.44982 3.55416)
(207.251 1.67565 1.79424)
(207.495 0.968036 -0.0255761)
(207.464 0.368785 -1.87862)
(207.087 -0.172115 -3.86611)
(206.264 -0.663221 -6.07906)
(204.697 -1.14011 -8.59246)
(201.845 -1.60867 -11.8201)
(196.065 -2.25769 -15.1182)
(186.815 -2.55144 -21.5662)
(206.871 3.22115 3.37435)
(207.444 2.44008 1.58192)
(207.715 1.73192 -0.229164)
(207.724 1.14 -2.08603)
(207.409 0.620052 -4.08894)
(206.684 0.159741 -6.37996)
(205.216 -0.276377 -9.05221)
(202.423 -0.688103 -12.7021)
(196.298 -1.24988 -16.7021)
(185.958 -1.31493 -25.3275)
(207.197 2.40681 3.92386)
(207.801 1.52077 2.10503)
(208.1 0.739554 0.22478)
(208.155 0.0991982 -1.69081)
(207.901 -0.448633 -3.78153)
(207.275 -0.912382 -6.21272)
(205.927 -1.31465 -9.10982)
(203.255 -1.64617 -13.2185)
(196.955 -2.04607 -18.0139)
(185.688 -1.77767 -28.9509)
(207.21 3.2441 3.46677)
(207.821 2.34266 1.67437)
(208.113 1.57775 -0.122175)
(208.15 0.962223 -1.96977)
(207.889 0.469424 -3.9794)
(207.292 0.0729895 -6.35764)
(206.029 -0.239883 -9.24756)
(203.51 -0.470107 -13.54)
(197.228 -0.603011 -18.8585)
(185.299 -0.0530085 -31.8679)
(207.303 1.90615 4.02414)
(207.933 0.891654 2.26865)
(208.247 0.040966 0.470267)
(208.313 -0.652824 -1.35945)
(208.094 -1.22186 -3.38098)
(207.56 -1.67661 -5.80408)
(206.409 -1.98182 -8.86211)
(204.086 -2.11579 -13.4994)
(197.938 -1.85017 -19.6283)
(185.227 -0.789006 -34.2597)
(206.449 2.76779 3.3867)
(207.027 1.67615 1.65998)
(207.211 0.851735 -0.0529848)
(207.039 0.189928 -1.82065)
(206.506 -0.290026 -3.74018)
(205.6 -0.611213 -6.02601)
(204.092 -0.722453 -8.90748)
(201.533 -0.543641 -13.2905)
(195.524 0.220397 -19.5341)
(182.756 2.30344 -34.6934)
(201.638 0.953486 1.70009)
(202.075 0.552678 0.910677)
(202.227 0.171233 0.00828189)
(202.129 -0.151841 -0.895245)
(201.781 -0.422183 -1.79825)
(201.167 -0.634491 -2.61933)
(200.257 -0.800917 -3.29351)
(199.024 -0.944977 -3.68544)
(197.465 -1.1221 -3.57961)
(195.734 -1.35802 -2.75335)
(202.949 1.91787 1.78739)
(203.418 1.54404 0.715367)
(203.582 1.14815 -0.388596)
(203.452 0.756035 -1.49653)
(203.006 0.369243 -2.59986)
(202.199 -0.0150227 -3.66827)
(200.952 -0.407447 -4.62583)
(199.161 -0.830843 -5.34425)
(196.696 -1.35387 -5.40131)
(193.897 -1.92341 -4.62052)
(203.935 1.77655 2.4953)
(204.447 1.23918 1.19995)
(204.624 0.711112 -0.153801)
(204.485 0.22666 -1.51822)
(203.988 -0.237186 -2.90997)
(203.063 -0.688754 -4.30942)
(201.575 -1.14753 -5.65028)
(199.329 -1.63988 -6.84114)
(195.975 -2.27231 -7.29572)
(191.896 -2.97129 -6.92346)
(204.399 2.54723 2.57528)
(204.957 1.99521 1.12267)
(205.164 1.44553 -0.3596)
(205.044 0.941881 -1.86258)
(204.546 0.459534 -3.4218)
(203.583 -0.0107598 -5.05186)
(201.96 -0.498083 -6.70713)
(199.376 -1.02527 -8.3724)
(195.162 -1.73205 -9.28709)
(189.698 -2.50135 -9.5382)
(204.993 2.12296 3.18863)
(205.595 1.4561 1.61421)
(205.836 0.825903 -0.0265552)
(205.757 0.276579 -1.68981)
(205.295 -0.233981 -3.45009)
(204.355 -0.71376 -5.35137)
(202.683 -1.19584 -7.3746)
(199.884 -1.69931 -9.60292)
(194.919 -2.41443 -11.1321)
(188.116 -3.1559 -12.3649)
(205.258 2.94904 3.03821)
(205.887 2.26065 1.40694)
(206.156 1.61897 -0.250657)
(206.11 1.06937 -1.94624)
(205.687 0.573373 -3.7568)
(204.796 0.118502 -5.77462)
(203.131 -0.33293 -8.00308)
(200.227 -0.79991 -10.6593)
(194.657 -1.481 -12.7324)
(186.648 -2.14243 -15.1319)
(205.669 2.16155 3.61707)
(206.33 1.36021 1.93668)
(206.625 0.641767 0.188009)
(206.619 0.0438183 -1.5909)
(206.243 -0.477558 -3.51854)
(205.417 -0.930259 -5.71128)
(203.799 -1.34098 -8.21249)
(200.866 -1.72259 -11.3573)
(194.839 -2.27878 -14.1141)
(185.741 -2.75338 -17.9465)
(205.761 3.05028 3.17087)
(206.43 2.22933 1.50951)
(206.722 1.52242 -0.163778)
(206.704 0.946808 -1.88684)
(206.323 0.477546 -3.75187)
(205.513 0.092362 -5.91846)
(203.936 -0.230677 -8.45729)
(201.042 -0.519214 -11.8455)
(194.758 -0.864078 -15.1005)
(184.774 -1.178 -20.316)
(205.924 1.71139 3.75675)
(206.603 0.77532 2.11778)
(206.911 -0.0104354 0.421474)
(206.917 -0.645355 -1.3065)
(206.57 -1.16098 -3.20484)
(205.805 -1.56463 -5.42916)
(204.285 -1.83585 -8.13195)
(201.483 -1.98538 -11.8773)
(195.129 -1.93765 -15.9766)
(184.172 -1.88953 -22.3789)
(205.138 2.64673 3.09775)
(205.769 1.64501 1.51141)
(205.987 0.894208 -0.0763118)
(205.824 0.296021 -1.72357)
(205.256 -0.128481 -3.50961)
(204.237 -0.399454 -5.60285)
(202.478 -0.478173 -8.15516)
(199.486 -0.313482 -11.714)
(193.153 0.230863 -16.0491)
(181.707 1.20466 -22.864)
(200.428 0.555966 1.19201)
(200.772 0.300155 0.664863)
(200.886 0.0397355 0.0353413)
(200.812 -0.189298 -0.582932)
(200.554 -0.390408 -1.1868)
(200.116 -0.555964 -1.69664)
(199.504 -0.695462 -2.06574)
(198.742 -0.82408 -2.20415)
(197.877 -0.968315 -2.02018)
(197.024 -1.13524 -1.42961)
(201.576 1.44529 1.30671)
(201.971 1.21216 0.50651)
(202.109 0.933907 -0.323446)
(201.997 0.636062 -1.14661)
(201.625 0.328115 -1.93588)
(200.977 0.0113264 -2.64823)
(200.034 -0.318876 -3.20962)
(198.79 -0.672564 -3.51165)
(197.267 -1.07842 -3.32725)
(195.766 -1.4978 -2.51891)
(202.425 1.3088 2.04197)
(202.897 0.908848 1.00884)
(203.06 0.490551 -0.0874825)
(202.928 0.0897035 -1.18225)
(202.478 -0.308079 -2.26743)
(201.671 -0.707421 -3.30172)
(200.442 -1.12156 -4.20074)
(198.725 -1.56809 -4.8345)
(196.442 -2.10309 -4.81094)
(194.051 -2.67508 -3.92706)
(202.87 2.13671 2.13686)
(203.414 1.71257 0.926231)
(203.611 1.26057 -0.321272)
(203.484 0.827256 -1.5769)
(202.996 0.397769 -2.84699)
(202.088 -0.0343522 -4.11216)
(200.64 -0.493273 -5.29036)
(198.51 -0.998536 -6.2661)
(195.421 -1.63865 -6.46226)
(191.95 -2.34607 -5.60609)
(203.477 1.74918 2.78088)
(204.083 1.20136 1.42013)
(204.316 0.659655 -0.0134686)
(204.214 0.170766 -1.45718)
(203.725 -0.297239 -2.95349)
(202.779 -0.750356 -4.50364)
(201.19 -1.21717 -6.03978)
(198.737 -1.71985 -7.48646)
(194.874 -2.4 -8.08061)
(190.255 -3.16989 -7.53194)
(203.783 2.62544 2.65616)
(204.431 2.04445 1.21607)
(204.693 1.48134 -0.25868)
(204.614 0.984402 -1.76078)
(204.138 0.52381 -3.33611)
(203.185 0.0884337 -5.02615)
(201.518 -0.359088 -6.77837)
(198.837 -0.845461 -8.59905)
(194.279 -1.53474 -9.55349)
(188.538 -2.33039 -9.45691)
(204.239 1.86794 3.26302)
(204.927 1.16712 1.75102)
(205.215 0.523121 0.162855)
(205.168 -0.0235576 -1.44723)
(204.719 -0.509707 -3.16696)
(203.79 -0.942372 -5.05846)
(202.092 -1.35049 -7.10498)
(199.262 -1.75879 -9.38918)
(194.108 -2.35919 -10.8713)
(187.284 -3.08021 -11.4998)
(204.387 2.81423 2.8294)
(205.086 2.08944 1.32621)
(205.377 1.45168 -0.197822)
(205.321 0.924416 -1.76714)
(204.864 0.486862 -3.44617)
(203.932 0.12043 -5.33855)
(202.219 -0.203439 -7.45054)
(199.318 -0.527568 -9.98245)
(193.74 -0.975688 -11.8594)
(185.956 -1.64177 -13.2439)
(204.603 1.47797 3.45036)
(205.31 0.635101 1.95338)
(205.613 -0.0783988 0.384039)
(205.576 -0.652429 -1.21422)
(205.143 -1.116 -2.95333)
(204.238 -1.47386 -4.93021)
(202.54 -1.71813 -7.21635)
(199.617 -1.88113 -10.0656)
(193.796 -1.97274 -12.6769)
(184.967 -2.38592 -14.8177)
(203.879 2.50064 2.77055)
(204.542 1.59943 1.34182)
(204.783 0.926346 -0.104205)
(204.628 0.392089 -1.61077)
(204.043 0.0203864 -3.23483)
(202.962 -0.206065 -5.09413)
(201.099 -0.260851 -7.26341)
(198.008 -0.116156 -9.99171)
(192.086 0.262469 -12.8052)
(182.55 0.642981 -15.1323)
(199.599 0.256771 0.822797)
(199.853 0.0984654 0.48682)
(199.935 -0.0739048 0.0626389)
(199.884 -0.230635 -0.343233)
(199.709 -0.376039 -0.735549)
(199.422 -0.501158 -1.04643)
(199.037 -0.612176 -1.25075)
(198.586 -0.716631 -1.29407)
(198.109 -0.825255 -1.144)
(197.651 -0.937215 -0.777864)
(200.568 1.05126 0.9058)
(200.872 0.923035 0.332344)
(200.98 0.74101 -0.263263)
(200.893 0.525845 -0.84724)
(200.61 0.291178 -1.38765)
(200.133 0.0412592 -1.84381)
(199.47 -0.222768 -2.15839)
(198.65 -0.50165 -2.25864)
(197.74 -0.800705 -2.03796)
(196.929 -1.09121 -1.43187)
(201.243 0.876843 1.62762)
(201.642 0.592164 0.835111)
(201.782 0.273238 -0.0202346)
(201.669 -0.0467954 -0.866776)
(201.294 -0.375791 -1.68214)
(200.643 -0.71423 -2.41782)
(199.7 -1.06865 -2.99761)
(198.471 -1.44788 -3.31305)
(196.995 -1.87466 -3.14245)
(195.605 -2.30755 -2.34637)
(201.616 1.73004 1.70945)
(202.106 1.42373 0.737103)
(202.284 1.06748 -0.275467)
(202.163 0.707606 -1.28676)
(201.724 0.338115 -2.28156)
(200.934 -0.0432847 -3.22041)
(199.739 -0.453339 -4.01645)
(198.099 -0.904768 -4.54239)
(195.964 -1.44434 -4.43431)
(193.82 -2.01942 -3.4375)
(202.182 1.36195 2.36508)
(202.751 0.93154 1.22635)
(202.966 0.48145 0.0110036)
(202.856 0.0588955 -1.20412)
(202.386 -0.35787 -2.43373)
(201.508 -0.771503 -3.64811)
(200.115 -1.20375 -4.76066)
(198.113 -1.67401 -5.64294)
(195.294 -2.2726 -5.77039)
(192.283 -2.93982 -4.76316)
(202.485 2.27517 2.25558)
(203.111 1.80567 1.02183)
(203.358 1.32723 -0.253239)
(203.26 0.889925 -1.5454)
(202.776 0.47336 -2.87127)
(201.845 0.0693661 -4.23038)
(200.307 -0.354857 -5.53979)
(198.009 -0.826079 -6.70721)
(194.528 -1.46028 -7.04178)
(190.607 -2.2054 -6.09263)
(202.952 1.54429 2.8832)
(203.629 0.951712 1.55853)
(203.902 0.389492 0.150866)
(203.828 -0.0992446 -1.26988)
(203.348 -0.542899 -2.76018)
(202.398 -0.946593 -4.33379)
(200.765 -1.33807 -5.93275)
(198.235 -1.74673 -7.49895)
(194.141 -2.32413 -8.21976)
(189.288 -3.05688 -7.55606)
(203.127 2.54861 2.45945)
(203.824 1.92949 1.13324)
(204.104 1.36886 -0.222)
(204.022 0.89664 -1.6164)
(203.528 0.497579 -3.08523)
(202.551 0.157199 -4.68006)
(200.852 -0.154984 -6.35555)
(198.166 -0.486966 -8.13434)
(193.586 -0.959101 -9.12941)
(187.853 -1.70355 -8.7916)
(203.379 1.21406 3.11699)
(204.085 0.47444 1.78085)
(204.376 -0.161243 0.358488)
(204.308 -0.672651 -1.08769)
(203.826 -1.08494 -2.64174)
(202.857 -1.4003 -4.34728)
(201.135 -1.62017 -6.21239)
(198.345 -1.78645 -8.27237)
(193.43 -1.94991 -9.82742)
(186.722 -2.50626 -9.91357)
(202.706 2.33576 2.41492)
(203.374 1.54255 1.15631)
(203.625 0.950325 -0.134508)
(203.474 0.480299 -1.48359)
(202.888 0.159123 -2.92412)
(201.796 -0.0279166 -4.52602)
(199.95 -0.0652376 -6.29971)
(197 0.0581679 -8.29052)
(191.907 0.315972 -9.97977)
(184.481 0.414885 -10.0836)
(199.028 0.047238 0.574208)
(199.213 -0.0513092 0.36798)
(199.269 -0.164935 0.0863419)
(199.237 -0.270178 -0.173376)
(199.127 -0.373509 -0.426156)
(198.949 -0.465546 -0.616865)
(198.719 -0.550104 -0.736694)
(198.461 -0.629509 -0.752972)
(198.199 -0.706765 -0.658542)
(197.936 -0.77835 -0.451827)
(199.843 0.751235 0.593757)
(200.061 0.693881 0.195502)
(200.14 0.584249 -0.214858)
(200.078 0.436236 -0.612531)
(199.878 0.264834 -0.968688)
(199.548 0.0757565 -1.25148)
(199.107 -0.12579 -1.42203)
(198.588 -0.335539 -1.43725)
(198.052 -0.548744 -1.25248)
(197.61 -0.742851 -0.851144)
(200.342 0.509739 1.27607)
(200.657 0.312267 0.687179)
(200.769 0.0760413 0.0404049)
(200.681 -0.17165 -0.594725)
(200.39 -0.434788 -1.19103)
(199.897 -0.710644 -1.70303)
(199.212 -1.00036 -2.07136)
(198.369 -1.30539 -2.22177)
(197.44 -1.62977 -2.04173)
(196.631 -1.94152 -1.47252)
(200.62 1.35857 1.32041)
(201.034 1.15069 0.565182)
(201.185 0.880917 -0.229075)
(201.082 0.592043 -1.01645)
(200.713 0.28462 -1.76993)
(200.069 -0.0396814 -2.44326)
(199.137 -0.389592 -2.96071)
(197.934 -0.770188 -3.21844)
(196.507 -1.20014 -3.01136)
(195.189 -1.63863 -2.19098)
(201.109 0.989842 1.96681)
(201.613 0.665254 1.04215)
(201.802 0.303102 0.0412473)
(201.698 -0.0516902 -0.952318)
(201.277 -0.412161 -1.93377)
(200.516 -0.777267 -2.85698)
(199.365 -1.16104 -3.63639)
(197.811 -1.57675 -4.14578)
(195.832 -2.07447 -4.06283)
(193.894 -2.60758 -3.11562)
(201.376 1.92173 1.85888)
(201.95 1.55857 0.832777)
(202.173 1.16506 -0.238108)
(202.071 0.790895 -1.31765)
(201.614 0.424314 -2.39982)
(200.765 0.0608635 -3.45659)
(199.432 -0.324717 -4.39606)
(197.564 -0.75397 -5.09628)
(195.015 -1.29906 -5.10162)
(192.388 -1.92662 -4.02793)
(201.825 1.20952 2.49629)
(202.46 0.724919 1.36647)
(202.711 0.2471 0.149529)
(202.623 -0.179641 -1.07258)
(202.151 -0.57532 -2.32946)
(201.247 -0.942383 -3.59979)
(199.775 -1.30444 -4.80498)
(197.635 -1.68929 -5.82306)
(194.527 -2.20436 -6.09534)
(191.158 -2.84844 -5.07049)
(202.002 2.26766 2.07674)
(202.666 1.75696 0.93714)
(202.928 1.27754 -0.237497)
(202.832 0.864778 -1.44462)
(202.335 0.509276 -2.69334)
(201.383 0.200705 -3.99459)
(199.808 -0.0893589 -5.27183)
(197.462 -0.404709 -6.4488)
(193.88 -0.844996 -6.87934)
(189.778 -1.5272 -5.92113)
(202.273 0.930188 2.76976)
(202.953 0.298177 1.60537)
(203.225 -0.256719 0.343644)
(203.138 -0.704769 -0.935556)
(202.643 -1.06663 -2.29042)
(201.679 -1.34204 -3.72192)
(200.048 -1.53846 -5.19621)
(197.551 -1.69836 -6.62424)
(193.612 -1.88218 -7.46029)
(188.696 -2.41178 -6.69897)
(201.639 2.16021 2.04226)
(202.284 1.47852 0.960195)
(202.533 0.968721 -0.166224)
(202.39 0.562701 -1.3463)
(201.823 0.289819 -2.59066)
(200.769 0.137586 -3.92933)
(199.036 0.112842 -5.32601)
(196.384 0.215442 -6.70986)
(192.23 0.386918 -7.61285)
(186.699 0.374405 -6.78187)
(198.625 -0.0935574 0.415646)
(198.763 -0.157685 0.293726)
(198.801 -0.234497 0.105591)
(198.782 -0.305028 -0.0589796)
(198.716 -0.378096 -0.223842)
(198.61 -0.444533 -0.343987)
(198.477 -0.506892 -0.420841)
(198.331 -0.564794 -0.433336)
(198.184 -0.618042 -0.383543)
(198.015 -0.662884 -0.273398)
(199.322 0.540658 0.361982)
(199.472 0.527737 0.0919045)
(199.527 0.469221 -0.180441)
(199.486 0.372568 -0.440988)
(199.352 0.252534 -0.667109)
(199.134 0.115113 -0.836604)
(198.852 -0.0325702 -0.925244)
(198.533 -0.184285 -0.909093)
(198.218 -0.332384 -0.77185)
(197.971 -0.460224 -0.513161)
(199.667 0.217883 0.994312)
(199.902 0.0811474 0.567635)
(199.987 -0.0906212 0.0907042)
(199.923 -0.277421 -0.374695)
(199.709 -0.481575 -0.802706)
(199.355 -0.6987 -1.15595)
(198.878 -0.92661 -1.39192)
(198.318 -1.16198 -1.46478)
(197.739 -1.40021 -1.32065)
(197.265 -1.61773 -0.945013)
(199.851 1.04138 0.985133)
(200.181 0.909322 0.416204)
(200.304 0.712602 -0.186882)
(200.221 0.48823 -0.780601)
(199.929 0.240697 -1.33432)
(199.431 -0.0255327 -1.80423)
(198.736 -0.312469 -2.13122)
(197.884 -0.619258 -2.24127)
(196.947 -0.948027 -2.02746)
(196.138 -1.26835 -1.42104)
(200.245 0.654644 1.60475)
(200.669 0.418509 0.874423)
(200.828 0.135632 0.0724575)
(200.737 -0.15397 -0.71823)
(200.382 -0.456799 -1.48179)
(199.758 -0.768656 -2.16792)
(198.851 -1.09681 -2.70281)
(197.692 -1.44758 -2.98448)
(196.334 -1.84384 -2.82868)
(195.094 -2.24868 -2.08136)
(200.457 1.58572 1.48528)
(200.957 1.31686 0.656357)
(201.151 1.00348 -0.217054)
(201.055 0.692431 -1.09296)
(200.65 0.378882 -1.95071)
(199.918 0.0619174 -2.74872)
(198.82 -0.27531 -3.40088)
(197.362 -0.647045 -3.79298)
(195.547 -1.09124 -3.64394)
(193.806 -1.58629 -2.70883)
(200.867 0.882185 2.1201)
(201.438 0.498391 1.18168)
(201.66 0.103045 0.155806)
(201.569 -0.260553 -0.868994)
(201.133 -0.604981 -1.90206)
(200.323 -0.929824 -2.9015)
(199.064 -1.25315 -3.78521)
(197.331 -1.59708 -4.41798)
(195.046 -2.03097 -4.44431)
(192.741 -2.55316 -3.45368)
(201.023 1.98647 1.6975)
(201.63 1.58043 0.744672)
(201.867 1.18226 -0.246)
(201.766 0.83078 -1.26275)
(201.298 0.521963 -2.29402)
(200.423 0.249315 -3.32367)
(199.038 -0.0110918 -4.26298)
(197.083 -0.294205 -4.99846)
(194.38 -0.672138 -5.08675)
(191.502 -1.23113 -4.02683)
(201.302 0.63823 2.42315)
(201.931 0.112382 1.43292)
(202.178 -0.361769 0.338131)
(202.083 -0.747153 -0.767508)
(201.605 -1.05987 -1.92051)
(200.701 -1.29745 -3.092)
(199.24 -1.47052 -4.22554)
(197.114 -1.61712 -5.18053)
(194.075 -1.79171 -5.5625)
(190.571 -2.22598 -4.57125)
(200.692 1.98353 1.66528)
(201.292 1.41257 0.759576)
(201.528 0.984639 -0.198683)
(201.394 0.641419 -1.20454)
(200.865 0.414295 -2.24947)
(199.891 0.292634 -3.33402)
(198.34 0.276877 -4.39312)
(196.067 0.360439 -5.30706)
(192.813 0.47088 -5.69314)
(188.838 0.42613 -4.59152)
(198.331 -0.187129 0.319247)
(198.438 -0.232293 0.250442)
(198.464 -0.287168 0.121035)
(198.454 -0.335261 0.015834)
(198.415 -0.387438 -0.0954986)
(198.355 -0.435061 -0.175144)
(198.278 -0.480196 -0.230236)
(198.197 -0.521382 -0.245737)
(198.112 -0.557384 -0.226573)
(197.991 -0.585016 -0.173588)
(198.946 0.405479 0.194327)
(199.044 0.418893 0.0143748)
(199.082 0.39478 -0.159626)
(199.056 0.335611 -0.323418)
(198.97 0.25523 -0.460857)
(198.832 0.159262 -0.55774)
(198.657 0.0549701 -0.599905)
(198.464 -0.0512285 -0.574376)
(198.279 -0.151927 -0.477143)
(198.137 -0.235107 -0.310974)
(199.165 -0.00130072 0.778271)
(199.332 -0.0985782 0.474887)
(199.393 -0.222673 0.129564)
(199.349 -0.360786 -0.205965)
(199.199 -0.514984 -0.510002)
(198.955 -0.68072 -0.754359)
(198.635 -0.854138 -0.910325)
(198.273 -1.02981 -0.951625)
(197.915 -1.2004 -0.853119)
(197.633 -1.34906 -0.620081)
(199.268 0.786102 0.708537)
(199.52 0.70851 0.292024)
(199.614 0.570183 -0.151789)
(199.552 0.401392 -0.585876)
(199.332 0.208412 -0.981349)
(198.963 -0.00279229 -1.30153)
(198.465 -0.229818 -1.50364)
(197.879 -0.468298 -1.53904)
(197.271 -0.712433 -1.35574)
(196.772 -0.939843 -0.928848)
(199.566 0.369945 1.28973)
(199.906 0.203153 0.727205)
(200.034 -0.0119732 0.100887)
(199.96 -0.242052 -0.512811)
(199.676 -0.489228 -1.09362)
(199.186 -0.747224 -1.59496)
(198.501 -1.01842 -1.95852)
(197.663 -1.30329 -2.11083)
(196.747 -1.60886 -1.95177)
(195.956 -1.90507 -1.40799)
(199.714 1.28245 1.14898)
(200.131 1.09196 0.498214)
(200.292 0.850221 -0.193391)
(200.208 0.599113 -0.883557)
(199.868 0.338706 -1.5443)
(199.267 0.0708499 -2.13104)
(198.4 -0.213558 -2.57114)
(197.302 -0.522253 -2.77364)
(196.035 -0.870029 -2.57212)
(194.89 -1.24216 -1.83788)
(200.077 0.578233 1.76944)
(200.567 0.283222 1.00992)
(200.758 -0.0353983 0.166543)
(200.673 -0.337554 -0.671482)
(200.29 -0.629866 -1.50009)
(199.599 -0.909374 -2.26903)
(198.569 -1.18874 -2.90358)
(197.218 -1.48292 -3.28301)
(195.576 -1.83311 -3.19401)
(194.018 -2.23267 -2.3728)
(200.193 1.71911 1.33662)
(200.726 1.40867 0.562122)
(200.933 1.08803 -0.24944)
(200.837 0.796999 -1.08146)
(200.416 0.535918 -1.9082)
(199.651 0.301523 -2.69874)
(198.488 0.075526 -3.3659)
(196.922 -0.167685 -3.79787)
(194.936 -0.475136 -3.7006)
(192.952 -0.901104 -2.75388)
(200.471 0.349914 2.09122)
(201.032 -0.0763928 1.26945)
(201.251 -0.472898 0.340381)
(201.156 -0.79798 -0.593433)
(200.719 -1.06358 -1.55207)
(199.912 -1.2654 -2.48914)
(198.661 -1.41507 -3.34053)
(196.926 -1.54392 -3.96)
(194.65 -1.69554 -4.08007)
(192.21 -2.02479 -3.1458)
(199.875 1.81566 1.29662)
(200.411 1.35052 0.560538)
(200.626 1.00156 -0.231679)
(200.505 0.718673 -1.06483)
(200.029 0.534271 -1.91589)
(199.165 0.439249 -2.76658)
(197.833 0.429871 -3.53859)
(195.964 0.496833 -4.10715)
(193.496 0.564732 -4.17789)
(190.721 0.520883 -3.11546)
(198.108 -0.251597 0.263984)
(198.196 -0.286504 0.227914)
(198.214 -0.328886 0.1341)
(198.209 -0.362965 0.0646589)
(198.187 -0.401232 -0.0149279)
(198.152 -0.435649 -0.0718682)
(198.11 -0.468188 -0.116028)
(198.064 -0.497158 -0.13565)
(198.013 -0.521189 -0.136224)
(197.917 -0.537766 -0.116869)
(198.669 0.32916 0.0734658)
(198.733 0.35768 -0.0446574)
(198.757 0.355986 -0.15071)
(198.742 0.323246 -0.248118)
(198.689 0.272267 -0.326306)
(198.604 0.208048 -0.376792)
(198.497 0.136945 -0.391811)
(198.382 0.0647034 -0.364154)
(198.273 -0.00261479 -0.294896)
(198.188 -0.0563481 -0.184976)
(198.788 -0.157693 0.618439)
(198.903 -0.230798 0.405181)
(198.946 -0.321072 0.1577)
(198.916 -0.421922 -0.0823989)
(198.815 -0.535813 -0.29816)
(198.653 -0.659052 -0.469543)
(198.445 -0.787223 -0.577903)
(198.215 -0.914674 -0.609076)
(197.995 -1.03428 -0.550956)
(197.826 -1.13442 -0.415702)
(198.833 0.59168 0.488203)
(199.018 0.550852 0.191618)
(199.088 0.457046 -0.125037)
(199.043 0.334007 -0.432821)
(198.885 0.18828 -0.707348)
(198.622 0.0263243 -0.920323)
(198.276 -0.147394 -1.04244)
(197.882 -0.326999 -1.04338)
(197.491 -0.504168 -0.900223)
(197.182 -0.662989 -0.606955)
(199.042 0.141695 1.0255)
(199.304 0.0263348 0.601802)
(199.403 -0.13348 0.123969)
(199.345 -0.311665 -0.341743)
(199.128 -0.507813 -0.775014)
(198.76 -0.714849 -1.13689)
(198.26 -0.931976 -1.38411)
(197.67 -1.15589 -1.46788)
(197.06 -1.38595 -1.33612)
(196.556 -1.59745 -0.960505)
(199.128 1.02109 0.858543)
(199.461 0.891975 0.361881)
(199.591 0.711212 -0.169672)
(199.522 0.514398 -0.697701)
(199.248 0.304577 -1.19253)
(198.775 0.0853919 -1.61315)
(198.116 -0.146133 -1.90257)
(197.313 -0.3931 -1.99565)
(196.442 -0.656911 -1.79642)
(195.694 -0.927518 -1.25103)
(199.441 0.309662 1.45487)
(199.847 0.0888739 0.855278)
(200.005 -0.161481 0.178794)
(199.93 -0.406354 -0.489959)
(199.611 -0.648038 -1.13946)
(199.047 -0.881674 -1.71975)
(198.236 -1.1156 -2.16866)
(197.216 -1.35789 -2.39067)
(196.058 -1.63186 -2.2653)
(195.016 -1.92536 -1.63557)
(199.507 1.47709 1.00615)
(199.956 1.2496 0.394723)
(200.131 0.999717 -0.24972)
(200.044 0.765896 -0.910028)
(199.684 0.551549 -1.55254)
(199.044 0.355862 -2.14115)
(198.106 0.166435 -2.59821)
(196.895 -0.0345623 -2.83243)
(195.468 -0.275607 -2.65235)
(194.12 -0.58662 -1.88611)
(199.782 0.0754548 1.78615)
(200.264 -0.261903 1.12031)
(200.451 -0.586581 0.348834)
(200.364 -0.855407 -0.422343)
(199.982 -1.07682 -1.20215)
(199.293 -1.24524 -1.93698)
(198.264 -1.37194 -2.56512)
(196.899 -1.48073 -2.95828)
(195.237 -1.60457 -2.94659)
(193.571 -1.84276 -2.17642)
(199.188 1.66606 0.947436)
(199.649 1.29838 0.36858)
(199.837 1.02324 -0.265392)
(199.732 0.796884 -0.933659)
(199.32 0.651601 -1.60377)
(198.583 0.579558 -2.24804)
(197.482 0.574697 -2.7865)
(196.001 0.627662 -3.11297)
(194.178 0.666206 -3.00989)
(192.29 0.63472 -2.10675)
(197.933 -0.300682 0.23593)
(198.008 -0.330035 0.219576)
(198.021 -0.365692 0.146513)
(198.019 -0.391345 0.0977258)
(198.007 -0.420688 0.0364307)
(197.988 -0.446199 -0.00837514)
(197.963 -0.469934 -0.0474114)
(197.937 -0.490315 -0.0709056)
(197.906 -0.506176 -0.0842252)
(197.824 -0.515585 -0.0850782)
(198.461 0.296637 -0.0155494)
(198.502 0.333936 -0.0917365)
(198.519 0.346582 -0.151611)
(198.51 0.332072 -0.204054)
(198.477 0.302314 -0.242886)
(198.426 0.261451 -0.263295)
(198.363 0.214697 -0.261449)
(198.294 0.166822 -0.233023)
(198.228 0.12238 -0.181234)
(198.175 0.0877661 -0.104003)
(198.502 -0.264136 0.503728)
(198.578 -0.323073 0.354136)
(198.607 -0.390095 0.176871)
(198.588 -0.463481 0.00449858)
(198.522 -0.546335 -0.150148)
(198.418 -0.635974 -0.273527)
(198.286 -0.728326 -0.353741)
(198.142 -0.818455 -0.383643)
(198.008 -0.900547 -0.356474)
(197.905 -0.966903 -0.286219)
(198.514 0.451524 0.317362)
(198.644 0.434036 0.112214)
(198.695 0.372839 -0.106584)
(198.664 0.285996 -0.317876)
(198.553 0.179472 -0.502711)
(198.373 0.0594092 -0.640407)
(198.139 -0.0692922 -0.711756)
(197.88 -0.200637 -0.69837)
(197.63 -0.326524 -0.592089)
(197.436 -0.436196 -0.392452)