/*--------------------------------*- C++ -*----------------------------------*\
| =========                 |                                                 |
| \\      /  F ield         | foam-extend: Open Source CFD                    |
|  \\    /   O peration     | Version:     4.0                                |
|   \\  /    A nd           | Web:         http://www.foam-extend.org         |
|    \\/     M anipulation  |                                                 |
\*---------------------------------------------------------------------------*/
FoamFile
{
    version     2.0;
    format      ascii;
    class       volScalarField;
    location    "2050";
    object      alphat;
}
// * * * * * * * * * * * * * * * * * * * * * * * * * * * * * * * * * * * * * //

dimensions      [1 -1 -1 0 0 0 0];

internalField   nonuniform List<scalar> 
34480
(
0.00188848
0.00188722
0.00188706
0.00188789
0.00189001
0.00189391
0.00190144
0.00191971
0.00195897
0.00203021
0.0159257
0.0151177
0.0148181
0.0145482
0.0129259
0.00824332
0.00340665
0.00134825
0.000984816
0.00145486
0.0442672
0.042609
0.0409217
0.0374771
0.0286683
0.0146801
0.00511789
0.00182841
0.00124085
0.00181178
0.0484166
0.0462588
0.0443178
0.0402788
0.0297064
0.0141595
0.00479284
0.00177542
0.00128736
0.00197765
0.0477399
0.0453199
0.043555
0.0397141
0.0288481
0.0131883
0.00440818
0.00168445
0.0012989
0.00209664
0.0459911
0.0435066
0.041846
0.0380597
0.0268348
0.011615
0.00385774
0.00155325
0.00130533
0.0022242
0.0438618
0.0415385
0.0400785
0.036465
0.0252698
0.0105519
0.00349395
0.00146108
0.00131283
0.00233376
0.0364089
0.0347167
0.0336871
0.0309399
0.0214251
0.00863858
0.002812
0.0012397
0.00123604
0.00234069
0.0124289
0.0121092
0.012006
0.0117294
0.00993109
0.00512549
0.00167723
0.000736713
0.000834284
0.00178635
0.00180097
0.00180088
0.00180254
0.00180582
0.0018106
0.00181671
0.00182475
0.00183599
0.00185255
0.00181384
0.00188852
0.00188665
0.00188605
0.00188657
0.00188843
0.00189188
0.00189738
0.00190684
0.00192454
0.00196536
0.0149578
0.0143228
0.0141307
0.014314
0.014725
0.0147739
0.012947
0.00764418
0.00249477
0.00204501
0.0407422
0.0395138
0.0388473
0.0383096
0.0366963
0.0319854
0.0230042
0.0112942
0.00328112
0.00280218
0.0448189
0.0431494
0.0423456
0.0417726
0.0399298
0.0344315
0.0242057
0.0114383
0.00330047
0.00316946
0.0446535
0.0426961
0.0419501
0.0415915
0.0401082
0.0348375
0.0244532
0.0112833
0.0032379
0.00345066
0.0434394
0.0413716
0.0406436
0.0404192
0.0392046
0.0342098
0.0239575
0.0108488
0.00316549
0.00378164
0.0418351
0.03985
0.0392126
0.0390722
0.0380957
0.0334654
0.0235377
0.0105532
0.00312905
0.004098
0.0351436
0.0336708
0.0332017
0.033184
0.0326751
0.0293599
0.0210944
0.00938433
0.00285439
0.00417051
0.0123672
0.0120601
0.0119989
0.0120568
0.0121869
0.0120297
0.0106115
0.00545477
0.00170677
0.00280085
0.00179639
0.00179393
0.00179343
0.00179462
0.00179742
0.00180153
0.0018077
0.00181753
0.00184181
0.00188912
0.00188402
0.00188241
0.00188187
0.00188234
0.00188393
0.0018867
0.00189068
0.00189668
0.00190561
0.00191914
0.0140614
0.0136449
0.0135107
0.0136613
0.0141
0.0147404
0.015143
0.0142154
0.0101115
0.00583658
0.0372105
0.0362425
0.0359039
0.03605
0.0363668
0.0359473
0.0330141
0.025363
0.0133436
0.00709913
0.041081
0.0397764
0.039346
0.0395716
0.0400685
0.0397164
0.0361966
0.0266174
0.0125399
0.00720397
0.04131
0.0397938
0.0393776
0.0397171
0.0405213
0.0406519
0.0373608
0.0266924
0.0114196
0.00717618
0.0405688
0.0389604
0.0385242
0.0389278
0.0399566
0.0405755
0.0376969
0.0261766
0.0103052
0.00724784
0.0394628
0.0378955
0.0375023
0.0379103
0.0390418
0.0400205
0.0376505
0.0255308
0.00938135
0.00733155
0.0336217
0.032458
0.0321485
0.0324657
0.0334067
0.034568
0.0334141
0.0226406
0.00796952
0.00704274
0.0122603
0.0120049
0.0119607
0.0120212
0.012217
0.0124493
0.0126046
0.0106468
0.00448899
0.00445644
0.00178907
0.00178617
0.00178529
0.00178619
0.00178888
0.00179323
0.00180026
0.00181209
0.00183883
0.00189233
0.00187583
0.00187469
0.00187432
0.00187467
0.00187583
0.0018777
0.00188002
0.0018831
0.00188705
0.00189173
0.0134708
0.0132229
0.013132
0.0132279
0.013519
0.0139751
0.0144496
0.0148651
0.014595
0.0128621
0.034038
0.0333543
0.0331587
0.033361
0.0339271
0.034606
0.0346325
0.0324112
0.0256869
0.0173826
0.0376436
0.0367018
0.0364333
0.0367245
0.0375331
0.0385397
0.0385988
0.0352936
0.025793
0.0167225
0.0381904
0.0370974
0.0368288
0.0371853
0.0381984
0.0395791
0.0399742
0.0361446
0.0246343
0.0158812
0.0378692
0.0366925
0.0363906
0.0367865
0.0379462
0.0396898
0.0405392
0.0363512
0.0231432
0.0153348
0.037209
0.0360333
0.035752
0.0361405
0.0373436
0.0392832
0.0405167
0.0360606
0.0215249
0.0148462
0.0322058
0.0313239
0.0310937
0.0313809
0.0322886
0.0339195
0.0354073
0.0319997
0.0185293
0.0137237
0.0121943
0.011984
0.0119515
0.0119978
0.0121467
0.0123371
0.012544
0.0126727
0.00958881
0.00831946
0.00178016
0.00177712
0.00177611
0.00177692
0.00177963
0.00178429
0.00179189
0.0018046
0.00183074
0.00187809
0.00186475
0.00186405
0.00186382
0.00186406
0.00186481
0.00186593
0.00186712
0.00186854
0.00187012
0.00187159
0.0131885
0.0130513
0.0129913
0.0130508
0.0132304
0.0134912
0.0137224
0.0140113
0.0142928
0.0144153
0.0315049
0.0311038
0.0309973
0.0311223
0.0315059
0.0321202
0.0328079
0.0330906
0.0316398
0.0274615
0.0347717
0.0341691
0.0339998
0.0341954
0.0347911
0.0357762
0.0368776
0.0371095
0.0340963
0.02747
0.0355143
0.0347904
0.0346139
0.0348546
0.0355983
0.0368645
0.0383257
0.0385828
0.0342336
0.0263053
0.0355126
0.0347016
0.0344864
0.0347625
0.035623
0.0371635
0.0390476
0.0394572
0.0338288
0.025396
0.0352031
0.034359
0.034151
0.0344275
0.0353309
0.0370024
0.0391538
0.0396394
0.0328223
0.0244442
0.0309613
0.0303137
0.0301383
0.0303462
0.0310162
0.0323215
0.034194
0.0350291
0.0289295
0.0222942
0.0121761
0.0120027
0.0119791
0.0120106
0.012112
0.0122299
0.0123006
0.012696
0.0125742
0.0122116
0.00176982
0.00176676
0.00176569
0.00176643
0.00176911
0.00177386
0.0017815
0.00179387
0.00181659
0.00185322
0.00185131
0.00185096
0.00185084
0.00185099
0.00185143
0.001852
0.00185252
0.00185311
0.00185368
0.00185407
0.0131466
0.0130802
0.0130427
0.0130817
0.0131935
0.0133323
0.0134243
0.0135394
0.0136594
0.0137514
0.0297465
0.0295531
0.0295054
0.0295653
0.0297588
0.0300875
0.0305431
0.0310947
0.0314187
0.031058
0.0326047
0.0322637
0.0321648
0.032272
0.0326178
0.0332408
0.0341514
0.0351926
0.0354802
0.0339461
0.0333871
0.0329492
0.0328414
0.0329804
0.0334351
0.0342676
0.0355099
0.0369055
0.0369212
0.0340659
0.0335732
0.0330496
0.0329034
0.0330752
0.0336303
0.0346838
0.0363071
0.0381507
0.0378588
0.0338495
0.0334979
0.0329222
0.0327754
0.0329541
0.0335601
0.034731
0.0365762
0.0386894
0.0379499
0.0331018
0.0299085
0.0294532
0.0293256
0.0294661
0.0299198
0.0308153
0.0322742
0.034216
0.0337666
0.0299548
0.0122091
0.0120668
0.0120518
0.0120717
0.0121353
0.0121879
0.0121403
0.0123352
0.0127467
0.0136382
0.00175789
0.00175493
0.00175385
0.00175454
0.00175711
0.00176171
0.00176896
0.00178023
0.0017987
0.00182517
0.0018359
0.00183578
0.00183575
0.00183583
0.00183606
0.00183628
0.00183647
0.00183667
0.00183684
0.00183688
0.0132689
0.01325
0.0132294
0.013256
0.0133253
0.0133888
0.0134286
0.0134711
0.013502
0.0134923
0.0286854
0.0286084
0.0285931
0.0286182
0.0287005
0.028835
0.0290272
0.0292922
0.029574
0.0297923
0.0311272
0.0309499
0.0308955
0.0309482
0.0311264
0.0314513
0.031952
0.0326489
0.0333493
0.0337454
0.0318253
0.0315792
0.0315183
0.031591
0.0318416
0.0323049
0.0330406
0.0340991
0.0350949
0.0353903
0.0320803
0.0317603
0.0316658
0.0317653
0.0320959
0.0327277
0.0337629
0.0353031
0.0366622
0.0367233
0.0321313
0.031756
0.0316573
0.0317652
0.0321457
0.0328814
0.0341051
0.0359714
0.0374812
0.0371056
0.0290745
0.0287675
0.0286792
0.0287688
0.0290575
0.0296179
0.0305419
0.0321142
0.0335576
0.0335478
0.0123019
0.0121845
0.0121768
0.012188
0.0122224
0.012221
0.0120998
0.012103
0.0122898
0.012985
0.00174424
0.00174148
0.00174045
0.00174108
0.00174345
0.0017477
0.00175424
0.00176398
0.00177838
0.00179695
0.00181875
0.00181877
0.00181879
0.00181883
0.00181893
0.00181898
0.00181901
0.00181904
0.00181906
0.00181898
0.0134976
0.0135131
0.0135062
0.0135247
0.013565
0.0135903
0.0136096
0.0136262
0.013627
0.0135851
0.0281278
0.0281058
0.0281059
0.0281161
0.0281469
0.028192
0.028257
0.0283455
0.0284431
0.0285277
0.0302022
0.0301133
0.0300841
0.0301091
0.030197
0.0303545
0.0305925
0.0309227
0.0312975
0.0316308
0.030757
0.0306257
0.0305936
0.0306293
0.0307597
0.0309967
0.0313678
0.0319151
0.0325576
0.0331296
0.031001
0.0308137
0.0307552
0.0308101
0.0309979
0.031351
0.0319231
0.0328123
0.0338831
0.034822
0.0310981
0.0308623
0.0307989
0.0308608
0.0310894
0.0315235
0.0322362
0.0333881
0.0347754
0.0359129
0.0284636
0.0282649
0.0282069
0.0282611
0.0284343
0.0287592
0.029274
0.0302064
0.0314651
0.0327014
0.0124605
0.0123623
0.0123609
0.0123657
0.0123784
0.0123353
0.0121782
0.0120711
0.0120509
0.0123134
0.00172874
0.00172626
0.00172532
0.00172588
0.001728
0.00173175
0.00173739
0.00174542
0.0017563
0.00176909
0.00179997
0.00180008
0.00180012
0.00180014
0.00180016
0.00180014
0.00180012
0.00180009
0.00180005
0.00179993
0.0137983
0.0138412
0.0138459
0.0138587
0.0138771
0.013888
0.0138989
0.0139055
0.0138956
0.013843
0.0278879
0.0278899
0.0278964
0.0279008
0.0279102
0.0279225
0.0279408
0.0279645
0.0279877
0.0280026
0.0296644
0.0296191
0.0296032
0.0296152
0.0296592
0.0297363
0.0298482
0.0299943
0.0301543
0.0302897
0.0300718
0.0300033
0.0299872
0.0300042
0.0300707
0.0301887
0.0303666
0.0306161
0.0309093
0.0311769
0.0302668
0.0301602
0.030125
0.0301547
0.0302587
0.0304499
0.0307492
0.0311958
0.0317555
0.0323089
0.0303621
0.0302178
0.0301784
0.0302126
0.0303465
0.0305944
0.0309869
0.031601
0.0323925
0.0331903
0.0280621
0.0279382
0.0279022
0.0279332
0.0280306
0.0282037
0.0284625
0.0289334
0.0296369
0.0304954
0.01269
0.0126057
0.0126095
0.01261
0.0126069
0.0125344
0.0123679
0.0122138
0.0120873
0.012146
0.0017113
0.00170916
0.00170833
0.00170882
0.00171064
0.00171382
0.00171849
0.00172485
0.00173282
0.00174149
0.00177961
0.00177974
0.0017798
0.00177981
0.0017798
0.00177976
0.00177972
0.00177967
0.00177962
0.0017795
0.0141698
0.0142229
0.0142378
0.0142465
0.0142528
0.01426
0.0142667
0.0142687
0.0142539
0.0141958
0.027836
0.0278454
0.0278543
0.0278566
0.0278583
0.0278608
0.0278646
0.0278686
0.0278701
0.0278658
0.0293733
0.0293488
0.0293396
0.0293458
0.029369
0.0294092
0.029465
0.0295332
0.0296031
0.0296559
0.0296579
0.0296218
0.0296136
0.0296219
0.0296564
0.0297162
0.0298028
0.0299162
0.0300422
0.0301471
0.0297963
0.0297363
0.0297155
0.0297314
0.0297889
0.0298919
0.0300472
0.0302648
0.0305286
0.0307764
0.0298694
0.0297818
0.0297578
0.0297765
0.0298543
0.0299944
0.0302079
0.0305221
0.0309163
0.0312926
0.0278427
0.0277679
0.027747
0.0277637
0.027814
0.0278948
0.0280107
0.0282228
0.0285515
0.028969
0.0129946
0.0129201
0.0129283
0.0129258
0.0129109
0.0128217
0.0126625
0.0125003
0.0123347
0.0123332
0.00169186
0.00169008
0.00168939
0.00168979
0.0016913
0.00169388
0.0016976
0.00170245
0.00170815
0.00171391
0.00175764
0.00175777
0.00175783
0.00175783
0.00175782
0.00175778
0.00175774
0.0017577
0.00175765
0.00175753
0.0146082
0.0146652
0.0146833
0.0146902
0.0146952
0.0147003
0.0147045
0.0147037
0.014686
0.0146237
0.0278887
0.0278994
0.0279076
0.0279098
0.0279103
0.0279102
0.0279102
0.0279092
0.0279053
0.0278966
0.029228
0.0292136
0.029208
0.0292114
0.0292246
0.0292471
0.0292773
0.0293125
0.0293464
0.0293694
0.0294222
0.029402
0.0293975
0.0294018
0.0294207
0.0294529
0.0294977
0.0295527
0.0296096
0.0296533
0.0295122
0.0294783
0.0294659
0.0294747
0.0295069
0.0295631
0.029645
0.0297526
0.0298772
0.0299888
0.0295605
0.0295069
0.0294923
0.0295028
0.0295485
0.0296285
0.0297464
0.029909
0.030102
0.0302717
0.0277709
0.0277268
0.0277159
0.0277242
0.0277465
0.0277754
0.0278181
0.0279009
0.0280358
0.0282299
0.0133792
0.0133111
0.0133234
0.0133186
0.0132946
0.0132011
0.013059
0.0129099
0.0127423
0.0127412
0.00167038
0.00166897
0.00166841
0.00166873
0.00166993
0.00167195
0.0016748
0.00167838
0.00168234
0.00168611
0.001734
0.00173412
0.00173417
0.00173417
0.00173417
0.00173414
0.00173411
0.00173407
0.00173403
0.00173391
0.0151183
0.015179
0.0151983
0.0152051
0.0152093
0.015213
0.0152155
0.0152128
0.0151929
0.0151268
0.0279981
0.0280088
0.028016
0.0280182
0.0280186
0.0280182
0.0280175
0.0280156
0.0280108
0.0280011
0.0291632
0.0291543
0.0291507
0.0291528
0.0291607
0.0291739
0.0291914
0.029211
0.0292293
0.0292407
0.0292958
0.0292835
0.0292806
0.0292831
0.0292943
0.0293132
0.0293385
0.029368
0.0293966
0.0294176
0.0293508
0.0293312
0.0293238
0.0293289
0.0293473
0.0293788
0.0294231
0.0294783
0.0295393
0.0295936
0.0293807
0.0293469
0.0293379
0.0293441
0.0293719
0.0294191
0.0294863
0.0295739
0.0296717
0.0297537
0.0278107
0.0277854
0.0277808
0.0277843
0.0277909
0.0277944
0.0278028
0.0278263
0.0278716
0.0279695
0.0138502
0.0137865
0.0138027
0.0137963
0.0137642
0.0136786
0.0135588
0.0134327
0.0132811
0.0133029
0.00164684
0.00164576
0.00164533
0.00164558
0.00164649
0.00164801
0.00165012
0.00165267
0.00165536
0.00165779
0.00170862
0.00170873
0.00170877
0.00170877
0.00170877
0.00170875
0.00170872
0.0017087
0.00170866
0.00170855
0.0157115
0.015776
0.0157964
0.0158031
0.0158068
0.0158094
0.0158107
0.0158066
0.015785
0.015715
0.028138
0.0281483
0.0281546
0.0281568
0.0281572
0.028157
0.0281564
0.0281547
0.0281501
0.0281403
0.0291401
0.0291346
0.0291323
0.0291336
0.0291383
0.0291461
0.0291564
0.0291678
0.0291784
0.0291845
0.0292323
0.0292242
0.0292219
0.0292235
0.0292308
0.0292428
0.0292585
0.0292761
0.0292923
0.0293041
0.0292647
0.0292531
0.0292485
0.0292515
0.0292624
0.0292806
0.0293054
0.0293348
0.0293661
0.029395
0.0292847
0.0292626
0.0292568
0.029261
0.0292785
0.0293076
0.0293478
0.0293979
0.0294506
0.0294951
0.0279304
0.0279156
0.0279147
0.0279156
0.0279139
0.0279084
0.027903
0.0279024
0.0279099
0.027968
0.0144185
0.0143576
0.014378
0.01437
0.0143327
0.0142652
0.0141693
0.0140691
0.0139403
0.013991
0.00162123
0.00162044
0.00162013
0.00162031
0.00162097
0.00162208
0.00162359
0.00162534
0.00162712
0.00162867
0.00168141
0.0016815
0.00168154
0.00168154
0.00168154
0.00168153
0.00168151
0.00168149
0.00168146
0.00168136
0.0164059
0.0164744
0.0164957
0.0165023
0.0165056
0.0165075
0.0165079
0.0165029
0.01648
0.0164057
0.0282944
0.0283041
0.0283096
0.0283116
0.0283122
0.0283122
0.0283119
0.0283105
0.0283065
0.028297
0.0291369
0.0291336
0.0291323
0.029133
0.0291357
0.0291402
0.029146
0.0291526
0.0291589
0.0291624
0.0292027
0.0291971
0.0291952
0.0291963
0.0292012
0.0292093
0.0292198
0.0292311
0.0292414
0.0292488
0.0292216
0.0292145
0.0292116
0.0292134
0.0292199
0.0292307
0.029245
0.0292614
0.0292783
0.0292949
0.029239
0.0292239
0.0292201
0.0292231
0.0292346
0.0292536
0.0292788
0.0293092
0.0293398
0.0293676
0.0281047
0.0280931
0.0280944
0.028094
0.0280898
0.028083
0.0280741
0.0280659
0.0280598
0.0281012
0.0151139
0.0150442
0.0150668
0.015057
0.015028
0.0149777
0.0149053
0.0148299
0.0147248
0.0148031
0.00159356
0.00159299
0.00159277
0.0015929
0.00159337
0.00159415
0.00159518
0.00159635
0.0015975
0.00159847
0.00165229
0.00165238
0.00165241
0.00165241
0.00165241
0.0016524
0.00165239
0.00165237
0.00165235
0.00165225
0.0172271
0.0173002
0.0173222
0.0173286
0.0173317
0.017333
0.0173328
0.0173274
0.0173035
0.0172246
0.0284591
0.0284681
0.0284728
0.0284745
0.0284752
0.0284754
0.0284754
0.0284745
0.0284712
0.0284621
0.0291422
0.0291403
0.0291397
0.02914
0.0291414
0.0291437
0.0291468
0.0291504
0.029154
0.0291562
0.0291902
0.0291861
0.0291845
0.0291852
0.0291886
0.0291942
0.0292014
0.029209
0.0292159
0.029221
0.029201
0.0291965
0.0291946
0.0291957
0.0291997
0.0292062
0.0292147
0.0292241
0.0292337
0.0292438
0.0292203
0.0292097
0.0292071
0.0292093
0.0292173
0.02923
0.0292465
0.0292658
0.0292848
0.0293044
0.0283108
0.0282999
0.028301
0.0283007
0.0282976
0.0282921
0.0282843
0.0282757
0.0282663
0.0283001
0.0159627
0.0158854
0.0159022
0.015896
0.0158765
0.0158422
0.0157915
0.015738
0.0156549
0.0157561
0.00156381
0.00156342
0.00156327
0.00156336
0.00156368
0.0015642
0.00156489
0.00156564
0.00156636
0.00156696
0.00162123
0.00162131
0.00162133
0.00162134
0.00162134
0.00162133
0.00162132
0.0016213
0.00162128
0.00162119
0.0182123
0.0182905
0.0183127
0.0183188
0.018322
0.0183228
0.0183223
0.0183167
0.0182925
0.0182084
0.0286262
0.0286344
0.0286381
0.0286396
0.0286402
0.0286406
0.0286409
0.0286404
0.028638
0.0286298
0.0291499
0.0291491
0.0291488
0.029149
0.0291495
0.0291505
0.0291518
0.0291536
0.0291556
0.0291572
0.0291849
0.0291819
0.0291806
0.029181
0.0291833
0.0291871
0.029192
0.0291973
0.029202
0.0292056
0.0291909
0.0291879
0.0291866
0.0291872
0.0291897
0.0291937
0.0291988
0.0292043
0.0292099
0.0292163
0.0292135
0.0292059
0.0292041
0.0292058
0.0292113
0.02922
0.0292309
0.0292435
0.0292557
0.0292706
0.0285298
0.0285195
0.0285202
0.0285202
0.0285184
0.0285151
0.0285098
0.0285035
0.0284949
0.0285241
0.0170031
0.0169202
0.0169311
0.0169282
0.0169173
0.0168973
0.0168663
0.0168312
0.0167677
0.0168853
0.001532
0.00153175
0.00153165
0.00153171
0.00153192
0.00153226
0.0015327
0.00153316
0.0015336
0.00153395
0.00158829
0.00158835
0.00158837
0.00158838
0.00158838
0.00158837
0.00158836
0.00158835
0.00158833
0.00158824
0.0194157
0.0194995
0.0195219
0.0195276
0.0195302
0.0195307
0.0195299
0.0195246
0.0195007
0.019411
0.0287895
0.0287965
0.0287993
0.0288003
0.0288009
0.0288014
0.0288019
0.0288019
0.0288005
0.0287938
0.0291572
0.0291569
0.0291569
0.029157
0.0291571
0.0291573
0.0291576
0.0291583
0.0291593
0.0291607
0.0291816
0.0291795
0.0291784
0.0291786
0.0291801
0.0291826
0.0291858
0.0291893
0.0291926
0.0291952
0.0291845
0.0291824
0.0291815
0.0291818
0.0291833
0.0291857
0.0291887
0.029192
0.0291953
0.0291993
0.0292087
0.0292035
0.0292022
0.0292035
0.0292072
0.0292129
0.02922
0.0292281
0.0292359
0.0292472
0.0287441
0.0287346
0.028735
0.0287352
0.0287346
0.0287332
0.0287305
0.0287269
0.0287204
0.0287456
0.0182921
0.0182063
0.0182109
0.0182108
0.0182076
0.0182006
0.018188
0.0181679
0.0181228
0.0182486
0.00149824
0.00149808
0.00149801
0.00149805
0.00149818
0.00149839
0.00149866
0.00149894
0.0014992
0.0014994
0.00155368
0.00155374
0.00155375
0.00155376
0.00155376
0.00155375
0.00155374
0.00155373
0.00155371
0.00155363
0.0209196
0.021009
0.0210315
0.0210365
0.0210376
0.0210377
0.0210369
0.0210322
0.0210096
0.0209144
0.0289406
0.0289458
0.0289474
0.0289479
0.0289483
0.0289489
0.0289496
0.0289501
0.0289498
0.0289454
0.0291622
0.0291621
0.0291623
0.0291623
0.0291622
0.0291621
0.029162
0.0291621
0.0291626
0.0291638
0.0291779
0.0291763
0.0291755
0.0291755
0.0291764
0.0291779
0.0291799
0.0291821
0.0291843
0.0291863
0.0291785
0.0291771
0.0291765
0.0291766
0.0291774
0.0291788
0.0291805
0.0291824
0.0291842
0.0291867
0.0291998
0.0291964
0.0291955
0.0291963
0.0291987
0.0292022
0.0292065
0.0292113
0.029216
0.0292242
0.0289342
0.0289261
0.0289262
0.0289265
0.0289267
0.0289265
0.0289256
0.028924
0.0289198
0.0289405
0.0199131
0.0198278
0.0198252
0.0198272
0.0198313
0.0198368
0.0198422
0.0198355
0.0198102
0.0199326
0.0014627
0.0014626
0.00146256
0.00146258
0.00146266
0.00146279
0.00146295
0.00146311
0.00146328
0.00146339
0.00151761
0.00151765
0.00151765
0.00151765
0.00151765
0.00151765
0.00151765
0.00151764
0.00151763
0.00151758
0.0228571
0.022949
0.0229688
0.0229729
0.0229737
0.0229736
0.0229727
0.0229687
0.0229488
0.0228508
0.0290671
0.0290697
0.0290701
0.02907
0.0290702
0.0290708
0.0290717
0.0290727
0.0290734
0.0290722
0.0291642
0.0291641
0.0291643
0.0291643
0.0291642
0.0291641
0.029164
0.0291639
0.029164
0.0291649
0.0291733
0.0291722
0.0291716
0.0291716
0.0291721
0.0291729
0.0291741
0.0291754
0.0291768
0.0291782
0.0291727
0.0291719
0.0291715
0.0291715
0.0291719
0.0291727
0.0291736
0.0291745
0.0291755
0.0291769
0.0291852
0.0291832
0.0291826
0.0291831
0.0291844
0.0291863
0.0291886
0.0291911
0.0291937
0.0291988
0.0290789
0.0290728
0.0290727
0.029073
0.0290732
0.0290733
0.0290731
0.0290727
0.0290706
0.0290862
0.0220126
0.0219342
0.0219322
0.021934
0.0219371
0.0219413
0.0219455
0.0219484
0.0219493
0.0220525
0.00142552
0.00142546
0.00142543
0.00142544
0.00142549
0.00142557
0.00142567
0.00142577
0.00142589
0.00142595
0.00147921
0.00147921
0.0014792
0.00147919
0.00147919
0.00147919
0.0014792
0.00147921
0.00147924
0.00147926
0.0254656
0.0255461
0.0255599
0.0255627
0.0255633
0.025563
0.0255619
0.0255587
0.0255439
0.0254557
0.0291555
0.0291552
0.0291545
0.0291541
0.0291541
0.0291545
0.0291554
0.0291567
0.0291583
0.0291601
0.029164
0.029164
0.0291641
0.0291641
0.0291641
0.0291641
0.0291641
0.0291641
0.0291641
0.0291644
0.0291696
0.029169
0.0291686
0.0291686
0.0291689
0.0291694
0.0291701
0.0291709
0.0291717
0.0291726
0.0291691
0.0291686
0.0291683
0.0291683
0.0291686
0.0291691
0.0291696
0.0291702
0.0291708
0.0291714
0.0291712
0.0291702
0.0291699
0.0291702
0.0291709
0.029172
0.0291732
0.0291745
0.0291758
0.0291781
0.0291664
0.0291627
0.0291622
0.0291622
0.0291621
0.0291621
0.0291621
0.0291621
0.0291623
0.0291721
0.0249071
0.0248484
0.0248473
0.0248484
0.0248505
0.0248532
0.024856
0.0248578
0.0248582
0.0249351
0.00138593
0.00138588
0.00138586
0.00138587
0.00138591
0.00138597
0.00138605
0.00138613
0.00138621
0.00138625
0.00234419
0.00236506
0.00235484
0.00232092
0.00141082
0.00143384
0.0014312
0.00142636
0.0018874
0.00192949
0.00192036
0.00189567
0.00227437
0.00233254
0.00231301
0.00226678
0.00262184
0.002693
0.00266099
0.00259651
0.00296331
0.00304562
0.00300537
0.00293188
0.00324543
0.00333591
0.00329358
0.00322027
0.00341319
0.00351002
0.00346996
0.00340133
0.00304496
0.00313452
0.00309565
0.00303995
0.00237485
0.0023915
0.00235661
0.00227535
0.00202755
0.00203326
0.00203438
0.00203136
0.00235363
0.00243398
0.00233399
0.00214214
0.00330826
0.0034228
0.00329236
0.00305449
0.00407186
0.00424033
0.0040817
0.00378375
0.00485371
0.0050897
0.00489516
0.00451948
0.00582859
0.00615469
0.0059132
0.00542863
0.00679493
0.00720876
0.00690719
0.00630938
0.00749287
0.0079911
0.00763299
0.00693819
0.00591719
0.00635404
0.00600119
0.00540459
0.00218168
0.00221403
0.00220716
0.00217138
0.0019332
0.00193526
0.00193541
0.00193416
0.00406628
0.00404186
0.00405226
0.00414331
0.00499144
0.00497285
0.004993
0.00509728
0.00549623
0.00551595
0.00553581
0.00558561
0.00601115
0.00606527
0.0060686
0.00602704
0.00675417
0.00685098
0.00681139
0.0066336
0.00751226
0.00763581
0.00752229
0.00718451
0.00805063
0.00821128
0.00802407
0.00752536
0.00612447
0.00626437
0.00608846
0.0056075
0.00204804
0.00206514
0.00206323
0.00204547
0.00189446
0.00189469
0.00189481
0.00189485
0.0102406
0.009962
0.010098
0.0106126
0.0119477
0.0116137
0.0119166
0.01281
0.0114408
0.0112597
0.0116319
0.0125268
0.0110904
0.0110292
0.0114262
0.0122565
0.0112083
0.0112509
0.0116414
0.0123683
0.0114045
0.0115063
0.0118451
0.0124236
0.0113546
0.011532
0.0118023
0.0121732
0.00801811
0.00820283
0.00832604
0.00836718
0.0019568
0.00196725
0.00196822
0.00196022
0.00187253
0.00187258
0.00187261
0.00187262
0.0144911
0.0144312
0.0144594
0.0145687
0.0238418
0.0235183
0.0237061
0.0243332
0.022246
0.021954
0.0223067
0.0232335
0.0203814
0.020202
0.0206819
0.0217894
0.0193313
0.0193011
0.019872
0.0210703
0.0185184
0.0185935
0.0191864
0.0203778
0.017331
0.0175433
0.0180985
0.0191105
0.01088
0.0111154
0.0113568
0.0116702
0.00189356
0.00190005
0.00190151
0.0018981
0.00185449
0.00185447
0.00185446
0.00185445
0.0140869
0.0140132
0.0140038
0.0140587
0.0304041
0.0302974
0.0303234
0.0304706
0.031798
0.0315593
0.0316499
0.0320269
0.0304327
0.0301455
0.030366
0.0310247
0.0290257
0.0288079
0.029197
0.0301265
0.0274495
0.027322
0.0278367
0.0289648
0.0247751
0.0248404
0.0253976
0.0264743
0.0131736
0.0134059
0.0135815
0.0137421
0.00184563
0.00184955
0.00185083
0.00184947
0.00183719
0.00183715
0.00183712
0.00183711
0.0137853
0.0136946
0.013677
0.0137313
0.0299161
0.0299192
0.0299336
0.0299594
0.0336756
0.0336792
0.0337118
0.0337708
0.0348252
0.0347791
0.0348403
0.0349965
0.0353466
0.0352619
0.0353984
0.0357256
0.0347085
0.0345952
0.0348274
0.0353615
0.0310991
0.0311309
0.0314428
0.0320076
0.0133159
0.0135933
0.0136544
0.0135467
0.00180729
0.00180968
0.00181062
0.00181011
0.00181926
0.0018192
0.00181918
0.00181917
0.013865
0.0137678
0.0137476
0.0138032
0.0286251
0.0286184
0.0286213
0.0286343
0.0317591
0.0317854
0.0318029
0.0318118
0.0333168
0.0333623
0.0333953
0.0334169
0.0350527
0.0351259
0.0351873
0.0352386
0.0359192
0.0359838
0.0360697
0.0361778
0.0326214
0.0327797
0.0329062
0.0330044
0.0123924
0.0126489
0.0126893
0.0125503
0.00177446
0.00177597
0.00177661
0.00177637
0.0018002
0.00180014
0.00180011
0.0018001
0.0141242
0.0140238
0.0140027
0.0140595
0.0280676
0.0280549
0.0280535
0.0280638
0.0303409
0.030349
0.0303542
0.0303565
0.0312801
0.0313015
0.0313144
0.0313191
0.0325576
0.0326146
0.032646
0.0326532
0.0334933
0.033572
0.0336155
0.0336287
0.0307734
0.0309412
0.0310095
0.0309861
0.0119573
0.012182
0.0122236
0.0121017
0.00174438
0.0017454
0.00174581
0.00174563
0.00177977
0.0017797
0.00177967
0.00177967
0.0144824
0.0143791
0.0143573
0.0144154
0.0279206
0.0279071
0.0279049
0.0279142
0.0296735
0.0296747
0.0296757
0.0296766
0.0301785
0.0301838
0.0301871
0.0301886
0.0308809
0.0309038
0.0309161
0.030918
0.0314138
0.0314469
0.0314649
0.0314691
0.029041
0.0291511
0.029191
0.0291618
0.0120323
0.0122516
0.0122932
0.0121707
0.00171551
0.00171626
0.00171651
0.00171633
0.00175781
0.00175774
0.0017577
0.0017577
0.0149176
0.0148111
0.0147884
0.0148481
0.0279468
0.0279338
0.0279315
0.0279402
0.0293771
0.0293767
0.0293767
0.0293774
0.0296626
0.0296635
0.0296641
0.0296645
0.0300317
0.0300407
0.0300454
0.0300457
0.0302997
0.0303104
0.0303166
0.0303186
0.0281839
0.0282588
0.0282832
0.0282566
0.0123975
0.0126282
0.0126709
0.012539
0.00168701
0.00168758
0.00168775
0.00168755
0.0017342
0.00173412
0.00173409
0.00173409
0.0154295
0.0153193
0.0152957
0.0153572
0.0280475
0.0280352
0.028033
0.028041
0.0292451
0.0292444
0.0292443
0.0292449
0.029421
0.029421
0.0294211
0.0294212
0.0296149
0.0296192
0.0296214
0.0296212
0.029754
0.0297577
0.0297599
0.0297607
0.0278874
0.0279463
0.0279638
0.027939
0.012939
0.0131887
0.0132341
0.0130901
0.00165829
0.00165876
0.00165886
0.00165866
0.00170885
0.00170876
0.00170873
0.00170874
0.0160283
0.0159137
0.015889
0.0159526
0.0281828
0.0281713
0.0281691
0.0281764
0.0291874
0.0291868
0.0291867
0.0291872
0.0293059
0.0293058
0.0293058
0.0293058
0.0294078
0.0294105
0.0294117
0.0294114
0.0294901
0.029492
0.0294931
0.0294932
0.0278808
0.0279317
0.0279459
0.0279231
0.0136126
0.0138853
0.0139345
0.0137769
0.00162892
0.00162933
0.0016294
0.0016292
0.00168166
0.00168157
0.00168153
0.00168155
0.0167317
0.0166117
0.0165856
0.0166517
0.0283352
0.0283244
0.0283222
0.0283289
0.0291644
0.0291639
0.0291638
0.0291643
0.02925
0.0292499
0.0292499
0.0292499
0.0293036
0.0293054
0.0293061
0.0293058
0.0293636
0.0293653
0.029366
0.0293658
0.0280198
0.0280652
0.0280776
0.0280566
0.0144105
0.014709
0.0147626
0.01459
0.00159858
0.00159894
0.00159899
0.00159879
0.00165257
0.00165247
0.00165243
0.00165245
0.0175655
0.0174389
0.017411
0.0174802
0.0284956
0.0284857
0.0284836
0.0284895
0.0291577
0.0291573
0.0291572
0.0291577
0.0292218
0.0292218
0.0292218
0.0292217
0.02925
0.0292513
0.0292517
0.0292515
0.029303
0.0293047
0.0293053
0.0293049
0.028229
0.0282697
0.0282806
0.0282614
0.0153472
0.0156745
0.0157328
0.0155435
0.00156698
0.0015673
0.00156733
0.00156714
0.00162153
0.00162142
0.00162138
0.00162141
0.0185671
0.0184321
0.018402
0.0184748
0.0286581
0.0286492
0.0286472
0.0286524
0.0291584
0.029158
0.0291581
0.0291584
0.0292063
0.0292063
0.0292063
0.0292062
0.0292208
0.0292217
0.029222
0.0292218
0.0292716
0.0292734
0.0292739
0.0292733
0.0284661
0.0285024
0.0285118
0.0284943
0.0164563
0.0168156
0.0168787
0.0166706
0.00153394
0.00153422
0.00153424
0.00153406
0.0015886
0.00158848
0.00158844
0.00158848
0.019791
0.0196449
0.0196116
0.0196892
0.0288164
0.0288086
0.0288069
0.0288113
0.0291616
0.0291614
0.0291615
0.0291617
0.0291958
0.0291959
0.0291959
0.0291959
0.0292027
0.0292033
0.0292035
0.0292032
0.02925
0.0292517
0.0292522
0.0292515
0.028703
0.028735
0.0287428
0.0287267
0.0177921
0.0181856
0.018253
0.0180246
0.00149937
0.00149961
0.00149962
0.00149947
0.00155401
0.00155389
0.00155385
0.00155389
0.0213175
0.0211559
0.0211182
0.0212023
0.0289638
0.0289577
0.0289563
0.0289597
0.0291645
0.0291644
0.0291645
0.0291645
0.029187
0.0291872
0.0291872
0.0291872
0.029189
0.0291894
0.0291895
0.0291893
0.0292278
0.0292292
0.0292296
0.0292289
0.0289152
0.0289426
0.0289486
0.0289339
0.0194342
0.0198574
0.0199275
0.0196812
0.00146336
0.00146356
0.00146357
0.00146345
0.001518
0.00151788
0.00151784
0.00151789
0.023272
0.0230878
0.0230444
0.0231382
0.0290873
0.0290835
0.0290825
0.0290847
0.0291652
0.0291653
0.0291653
0.0291652
0.029179
0.0291792
0.0291793
0.0291793
0.0291782
0.0291784
0.0291784
0.0291783
0.029202
0.0292031
0.0292033
0.0292028
0.0290777
0.0290993
0.0291034
0.0290907
0.0215228
0.0219754
0.0220424
0.0217746
0.00142604
0.0014262
0.00142621
0.00142612
0.00147971
0.00147962
0.0014796
0.00147966
0.0258483
0.0256395
0.0255939
0.0257011
0.0291703
0.0291687
0.0291682
0.0291692
0.029164
0.029164
0.0291639
0.0291639
0.0291732
0.0291733
0.0291734
0.0291735
0.0291718
0.0291719
0.029172
0.0291719
0.0291795
0.02918
0.0291801
0.0291799
0.0291742
0.0291865
0.0291884
0.0291807
0.0244723
0.0248973
0.0249469
0.0246872
0.00138662
0.00138676
0.00138676
0.00138666
0.00215548
0.00203892
0.00197451
0.00194197
0.00192284
0.00191046
0.00190228
0.00189709
0.00189376
0.00189147
0.00174748
0.00158324
0.00476563
0.00942415
0.0139348
0.0171225
0.0186331
0.0187842
0.0181526
0.0172124
0.00236382
0.00257428
0.00732517
0.0155534
0.0249584
0.0330799
0.0390648
0.0428677
0.0447438
0.0451301
0.00276862
0.00359701
0.00828882
0.017841
0.0291684
0.0385208
0.0449955
0.0487255
0.0501627
0.0499537
0.00307717
0.00394194
0.00871619
0.0193457
0.0320851
0.0419665
0.0481508
0.0510039
0.0513194
0.0501075
0.00338887
0.00407087
0.00893764
0.0204178
0.0342683
0.0443135
0.0498917
0.0516822
0.0509072
0.0488676
0.00363093
0.00408392
0.00896748
0.0211695
0.0358998
0.0457605
0.0504401
0.0510702
0.0493449