/*--------------------------------*- C++ -*----------------------------------*\
| =========                 |                                                 |
| \\      /  F ield         | foam-extend: Open Source CFD                    |
|  \\    /   O peration     | Version:     4.0                                |
|   \\  /    A nd           | Web:         http://www.foam-extend.org         |
|    \\/     M anipulation  |                                                 |
\*---------------------------------------------------------------------------*/
FoamFile
{
    version     2.0;
    format      ascii;
    class       volScalarField;
    location    "2050";
    object      MaU;
}
// * * * * * * * * * * * * * * * * * * * * * * * * * * * * * * * * * * * * * //

dimensions      [0 0 0 0 0 0 0];

internalField   nonuniform List<scalar> 
34480
(
0.623796
0.624793
0.625328
0.62544
0.625134
0.624335
0.622902
0.620156
0.61406
0.608263
0.627217
0.628044
0.628504
0.628536
0.627977
0.626682
0.624678
0.621713
0.614695
0.60914
0.629405
0.630163
0.630535
0.630442
0.629707
0.628359
0.626584
0.624289
0.617253
0.612133
0.629402
0.630181
0.630622
0.63066
0.630149
0.629204
0.627929
0.626348
0.6197
0.615054
0.629866
0.630749
0.631331
0.631588
0.631399
0.630932
0.630204
0.629393
0.62353
0.619369
0.629465
0.630407
0.631072
0.631459
0.631507
0.631446
0.631252
0.631265
0.626583
0.623242
0.629673
0.630756
0.631528
0.632056
0.632314
0.632594
0.632896
0.633726
0.630492
0.627952
0.629085
0.630209
0.630938
0.631351
0.631494
0.631728
0.632182
0.633552
0.631834
0.630481
0.628836
0.630117
0.63096
0.631508
0.631827
0.632222
0.632925
0.634792
0.634345
0.632899
0.625034
0.626058
0.626094
0.625217
0.623596
0.62161
0.61971
0.619166
0.618366
0.619152
0.613897
0.615359
0.615931
0.615683
0.614539
0.612223
0.608108
0.600839
0.590128
0.576272
0.618512
0.619821
0.620345
0.620084
0.618841
0.616245
0.611703
0.603856
0.591197
0.575039
0.621584
0.622807
0.62328
0.622984
0.621668
0.619027
0.614556
0.60687
0.593365
0.576029
0.622395
0.62363
0.624168
0.624006
0.622898
0.6206
0.616528
0.60927
0.595376
0.577618
0.623541
0.624851
0.625506
0.62555
0.624741
0.622897
0.619346
0.612732
0.598932
0.581329
0.623681
0.625034
0.625769
0.625949
0.625375
0.623946
0.62094
0.615114
0.601864
0.585051
0.624337
0.625797
0.626627
0.626951
0.626595
0.625537
0.623069
0.618096
0.605774
0.590034
0.624072
0.625561
0.626359
0.6266
0.626189
0.625195
0.623017
0.618762
0.607628
0.593577
0.62407
0.625666
0.626556
0.626912
0.62668
0.625919
0.624133
0.620625
0.610749
0.597498
0.62046
0.621872
0.622205
0.621542
0.619938
0.617544
0.614086
0.609278
0.599878
0.58975
0.606268
0.607835
0.608399
0.608079
0.606837
0.604517
0.600822
0.595255
0.587182
0.576993
0.611169
0.612703
0.61326
0.612883
0.611451
0.608701
0.604126
0.596868
0.585479
0.570322
0.614515
0.616047
0.616599
0.616219
0.614723
0.611794
0.60681
0.598646
0.584629
0.564808
0.615819
0.617413
0.618043
0.617775
0.616408
0.613619
0.60863
0.600039
0.58387
0.559944
0.617443
0.619126
0.619865
0.619778
0.618642
0.616159
0.611408
0.602799
0.585129
0.557914
0.618001
0.619742
0.620566
0.620611
0.619676
0.617516
0.613109
0.604778
0.586221
0.556637
0.61902
0.620854
0.621768
0.621959
0.621226
0.619391
0.615392
0.607537
0.588668
0.557417
0.619055
0.620915
0.621813
0.621949
0.621188
0.61944
0.615713
0.608385
0.58973
0.557638
0.619313
0.621236
0.622204
0.62243
0.6218
0.620245
0.616879
0.610216
0.592205
0.558711
0.615944
0.617697
0.618253
0.61772
0.616081
0.613337
0.608825
0.601391
0.583936
0.550857
0.600708
0.602082
0.602554
0.602246
0.601154
0.599222
0.596352
0.592448
0.587488
0.581958
0.605344
0.606808
0.607318
0.606909
0.605509
0.602972
0.599048
0.593394
0.585569
0.576645
0.608538
0.610123
0.610667
0.610227
0.608675
0.605786
0.601133
0.59409
0.583497
0.570561
0.610041
0.611763
0.612397
0.612021
0.610475
0.607487
0.602437
0.594392
0.58114
0.563926
0.611932
0.613782
0.614519
0.614278
0.612855
0.609967
0.60481
0.596174
0.58067
0.55946
0.612782
0.614715
0.615538
0.615405
0.614112
0.611392
0.60629
0.597395
0.580095
0.555407
0.614073
0.616102
0.617008
0.617003
0.615866
0.613366
0.608448
0.599553
0.580974
0.55334
0.614365
0.61642
0.617322
0.61728
0.616123
0.613675
0.608889
0.600165
0.580893
0.551001
0.614845
0.616935
0.61789
0.617923
0.616872
0.61456
0.609962
0.601572
0.582275
0.549844
0.611725
0.613661
0.614327
0.613819
0.612064
0.608937
0.603574
0.594578
0.575474
0.541844
0.596846
0.597928
0.598289
0.598052
0.597237
0.595854
0.593917
0.591497
0.588743
0.586025
0.600926
0.602166
0.602597
0.602241
0.601066
0.599021
0.596036
0.592089
0.587241
0.582456
0.603667
0.60514
0.605645
0.605226
0.60381
0.601273
0.597403
0.591985
0.58474
0.57712
0.605099
0.606794
0.607405
0.607001
0.605473
0.602631
0.59809
0.59139
0.581606
0.570557
0.607031
0.608911
0.609629
0.60931
0.607791
0.604847
0.599897
0.592235
0.580058
0.565422
0.608009
0.610017
0.610828
0.610584
0.609111
0.606161
0.600984
0.592654
0.578331
0.560211
0.609449
0.611576
0.612468
0.612329
0.610948
0.608087
0.602848
0.594116
0.578011
0.55663
0.609917
0.612084
0.612987
0.612821
0.611413
0.608543
0.603264
0.594345
0.576968
0.552742
0.61057
0.612762
0.613704
0.613598
0.612266
0.609483
0.604258
0.595306
0.577298
0.549998
0.607677
0.609729
0.610475
0.609989
0.608169
0.604824
0.599076
0.5896
0.571366
0.541986
0.594204
0.595008
0.595266
0.595103
0.59455
0.593639
0.592419
0.590985
0.589468
0.588017
0.597687
0.598644
0.598982
0.598705
0.597808
0.596294
0.594188
0.591585
0.58869
0.586112
0.599858
0.60111
0.601543
0.601186
0.600001
0.597945
0.594964
0.591073
0.586385
0.58196
0.601052
0.602587
0.60314
0.602758
0.601374
0.598887
0.595114
0.589932
0.583151
0.576312
0.602848
0.604624
0.60529
0.604945
0.603472
0.600723
0.596351
0.590052
0.581129
0.571545
0.603812
0.605767
0.606533
0.606229
0.604717
0.601807
0.596992
0.589784
0.578779
0.566309
0.605287
0.607394
0.608245
0.608015
0.606525
0.603569
0.598482
0.59059
0.577702
0.562324
0.605844
0.608016
0.608891
0.608638
0.607099
0.604062
0.598773
0.590411
0.576016
0.557895
0.606614
0.608817
0.609725
0.609516
0.608018
0.605008
0.599652
0.590992
0.575619
0.554504
0.603915
0.605992
0.606773
0.606303
0.604472
0.601069
0.595324
0.586168
0.570294
0.546966
0.592389
0.592977
0.593153
0.593051
0.5927
0.592138
0.591407
0.590586
0.589755
0.588924
0.595354
0.596043
0.596291
0.596093
0.595457
0.594408
0.593004
0.591357
0.589657
0.58826
0.596957
0.597948
0.598297
0.598016
0.597093
0.595533
0.593362
0.590691
0.587743
0.58518
0.59784
0.59914
0.599613
0.599284
0.598118
0.596081
0.593129
0.589315
0.58478
0.580587
0.599386
0.600965
0.601554
0.601225
0.599901
0.597505
0.593876
0.588969
0.582691
0.576524
0.600232
0.60203
0.602726
0.602407
0.600972
0.598303
0.594107
0.588211
0.580127
0.571757
0.601648
0.603635
0.604419
0.604143
0.602666
0.599837
0.595222
0.588498
0.578674
0.567959
0.60221
0.604289
0.605111
0.604809
0.603255
0.600275
0.595335
0.587971
0.576654
0.563611
0.603045
0.605173
0.606026
0.605753
0.604205
0.601191
0.596086
0.588265
0.575861
0.560272
0.600498
0.602516
0.603293
0.602844
0.601065
0.597765
0.592342
0.584041
0.570995
0.553478
0.591112
0.591548
0.591667
0.591608
0.591396
0.591063
0.590639
0.590176
0.589711
0.58918
0.593679
0.59415
0.594322
0.59419
0.593763
0.593072
0.592173
0.59116
0.590168
0.589394
0.594784
0.595523
0.595788
0.595582
0.594903
0.59378
0.592269
0.590494
0.588662
0.587167
0.595357
0.596398
0.596781
0.596517
0.595592
0.594012
0.591808
0.589103
0.586127
0.583562
0.5966
0.59793
0.598428
0.59814
0.59702
0.595047
0.592183
0.588511
0.584204
0.580268
0.597264
0.598837
0.599444
0.599141
0.597864
0.595555
0.592085
0.58747
0.581705
0.576162
0.598559
0.600348
0.601046
0.600761
0.599389
0.596841
0.592877
0.587409
0.580168
0.572839
0.599052
0.600958
0.601705
0.601388
0.599913
0.59716
0.592798
0.586627
0.578058
0.568894
0.599912
0.601889
0.602667
0.602367
0.600866
0.598026
0.593428
0.586733
0.577124
0.565984
0.597475
0.599358
0.600098
0.599677
0.598013
0.594951
0.590074
0.582921
0.57265
0.560018
0.59018
0.590519
0.5906
0.590568
0.590444
0.590252
0.590011
0.589752
0.589485
0.589107
0.592465
0.592773
0.59289
0.592806
0.592532
0.592093
0.591536
0.590925
0.590347
0.589911
0.593163
0.593688
0.593879
0.593736
0.593261
0.592486
0.591472
0.590325
0.589197
0.58832
0.593476
0.594269
0.594567
0.594367
0.593668
0.592498
0.590916
0.589054
0.587125
0.585553
0.59441
0.595478
0.59588
0.595644
0.594746
0.593197
0.591028
0.588371
0.585465
0.582965
0.594868
0.596182
0.59669
0.596424
0.595346
0.593446
0.590699
0.587215
0.583188
0.579551
0.59601
0.597554
0.598153
0.597885
0.596679
0.5945
0.591246
0.586969
0.58176
0.576815
0.596377
0.598055
0.598709
0.598404
0.597078
0.594661
0.590986
0.586027
0.579717
0.5734
0.597239
0.599006
0.599693
0.599395
0.598017
0.595474
0.591525
0.58604
0.578826
0.571063
0.594872
0.596561
0.597236
0.596855
0.595355
0.59263
0.588429
0.582526
0.574709
0.565882
0.589474
0.589751
0.589808
0.589792
0.589721
0.589613
0.589477
0.589332
0.589173
0.588875
0.591568
0.591765
0.591842
0.591791
0.591621
0.591351
0.591013
0.590649
0.590311
0.590059
0.591947
0.592305
0.592438
0.592342
0.592022
0.591507
0.590847
0.590121
0.589433
0.588915
0.592073
0.592653
0.592874
0.59273
0.592225
0.591391
0.590292
0.589041
0.587803
0.586837
0.592721
0.593543
0.593855
0.593672
0.592982
0.591816
0.590231
0.588362
0.586429
0.584844
0.592979
0.594032
0.594441
0.59422
0.593352
0.591854
0.589761
0.587211
0.584444
0.582076
0.593964
0.595244
0.59574
0.595505
0.594496
0.592713
0.590146
0.586912
0.583237
0.579937
0.594168
0.595585
0.596138
0.595864
0.594725
0.592697
0.589724
0.585883
0.581344
0.577059
0.595022
0.596544
0.597132
0.596858
0.595651
0.593475
0.59022
0.585896
0.580619
0.575321
0.592695
0.59415
0.594743
0.594409
0.593106
0.590777
0.587296
0.582608
0.576827
0.570818
0.58892
0.589158
0.5892
0.589193
0.589153
0.589092
0.589016
0.588934
0.588834
0.588583
0.590891
0.591016
0.591066
0.591036
0.590934
0.590771
0.590569
0.590354
0.590154
0.590004
0.59102
0.591255
0.591344
0.591282
0.591074
0.590741
0.590323
0.589872
0.589456
0.589149
0.591038
0.591446
0.591606
0.591507
0.591155
0.59058
0.589837
0.589014
0.588226
0.587631
0.591437
0.592045
0.592278
0.592141
0.591633
0.590786
0.589664
0.588382
0.587113
0.586112
0.591522
0.592332
0.592649
0.592475
0.591805
0.590669
0.589126
0.587311
0.585439
0.583907
0.592367
0.593388
0.593784
0.59359
0.592782
0.591381
0.589426
0.587052
0.584506
0.582325
0.592382
0.593533
0.593983
0.59375
0.592814
0.591181
0.588863
0.585984
0.582786
0.579921
0.59324
0.594504
0.594989
0.594751
0.59374
0.591955
0.589372
0.586076
0.582304
0.57875
0.590925
0.59213
0.59263
0.592349
0.59126
0.589344
0.586563
0.582967
0.5788
0.574802
0.588475
0.588687
0.588718
0.588717
0.588694
0.58866
0.588617
0.58857
0.588504
0.588282
0.590372
0.590451
0.590485
0.590468
0.590407
0.590311
0.590191
0.590063
0.589943
0.58985
0.590295
0.590445
0.590501
0.590462
0.59033
0.590122
0.589862
0.589587
0.589339
0.589157
0.59028
0.59056
0.590672
0.590606
0.590369
0.589984
0.589494
0.588961
0.588463
0.588095
0.590469
0.590903
0.59107
0.590973
0.590611
0.590016
0.589244
0.588385
0.587562
0.586933
0.590419
0.591019
0.591256
0.591125
0.590627
0.589795
0.588692
0.587432
0.586184
0.5852
0.591152
0.591937
0.592243
0.592091
0.591469
0.590408
0.588968
0.587273
0.585537
0.584108
0.590965
0.591864
0.592217
0.592028
0.591289
0.590023
0.588277
0.586184
0.583975
0.582087
0.591853
0.592866
0.593253
0.593057
0.592245
0.590836
0.588858
0.586424
0.583784
0.581434
0.58953
0.590486
0.590893
0.590664
0.589787
0.588269
0.586125
0.583454
0.580521
0.577918
0.588111
0.588304
0.588327
0.588329
0.588316
0.588297
0.588273
0.588245
0.588199
0.587998
0.589973
0.590025
0.590049
0.59004
0.590004
0.589947
0.589876
0.5898
0.589724
0.589661
0.589708
0.5898
0.589834
0.58981
0.589728
0.5896
0.589443
0.589279
0.589133
0.589028
0.589731
0.589918
0.589995
0.589954
0.589798
0.589547
0.58923
0.58889
0.588577
0.588348
0.589743
0.590042
0.590158
0.59009
0.589841
0.589436
0.588919
0.588355
0.58783
0.587437
0.589597
0.590026
0.590197
0.590103
0.589746
0.589157
0.58839
0.587536
0.586716
0.586089
0.590252
0.590836
0.591063
0.59095
0.590489
0.589714
0.588685
0.587506
0.586342
0.585414
0.589853
0.590529
0.590796
0.590649
0.590087
0.589142
0.587869
0.586391
0.584894
0.583668
0.590814
0.591598
0.591896
0.591743
0.591115
0.590045
0.588581
0.586836
0.585025
0.583491
0.58846
0.589187
0.589506
0.589327
0.588647
0.587488
0.585889
0.583967
0.581948
0.580291
0.58781
0.587986
0.588004
0.588006
0.587999
0.587988
0.587975
0.587958
0.587925
0.587742
0.589676
0.589713
0.58973
0.589726
0.589705
0.589671
0.589628
0.589581
0.58953
0.589483
0.589214
0.589268
0.589287
0.589272
0.589222
0.589146
0.589053
0.588958
0.588875
0.588815
0.58934
0.589463
0.589515
0.58949
0.589391
0.589231
0.58903
0.588816
0.588619
0.588475
0.5892
0.589399
0.589476
0.589431
0.589264
0.588996
0.588659
0.588297
0.587967
0.587725
0.588996
0.589293
0.589413
0.589347
0.589099
0.588695
0.588177
0.587611
0.587079
0.586684
0.589603
0.590023
0.590187
0.590105
0.589776
0.589229
0.588515
0.587716
0.58695
0.586351
0.588984
0.589472
0.589667
0.589556
0.589146
0.588464
0.587565
0.58655
0.585555
0.584772
0.590073
0.590661
0.590881
0.590767
0.590301
0.589518
0.588469
0.587254
0.586038
0.585045
0.587658
0.588187
0.588428
0.588293
0.587785
0.586931
0.585778
0.584437
0.583078
0.582049
0.587551
0.587711
0.587724
0.587727
0.587723
0.587717
0.587709
0.5877
0.587675
0.58751
0.589474
0.589503
0.589517
0.589516
0.589503
0.589482
0.589455
0.589424
0.589387
0.589345
0.588781
0.58881
0.588819
0.588808
0.588778
0.588734
0.588681
0.588628
0.588584
0.588553
0.589069
0.58915
0.589185
0.589171
0.58911
0.58901
0.588884
0.58875
0.588628
0.588535
0.588797
0.588925
0.588974
0.588944
0.588836
0.588664
0.588449
0.588222
0.588019
0.587873
0.588569
0.588769
0.588851
0.588806
0.58864
0.588371
0.588029
0.587662
0.587323
0.587076
0.589149
0.58944
0.589554
0.589497
0.58927
0.588896
0.588417
0.58789
0.587396
0.587013
0.588298
0.588635
0.588773
0.588693
0.588404
0.587929
0.587312
0.586635
0.585986
0.585497
0.589584
0.590011
0.590168
0.590087
0.589754
0.589201
0.588475
0.587651
0.586853
0.586215
0.587057
0.587424
0.5876
0.587502
0.587137
0.586531
0.585726
0.584818
0.583924
0.583304
0.587296
0.587439
0.587447
0.58745
0.587448
0.587445
0.587441
0.587435
0.587418
0.587272
0.589374
0.589399
0.589411
0.589412
0.589404
0.58939
0.589372
0.589349
0.589318
0.589277
0.588386
0.588398
0.5884
0.588392
0.588374
0.588349
0.588321
0.588294
0.588273
0.588262
0.588896
0.588948
0.588971
0.588963
0.588926
0.588865
0.588788
0.588706
0.58863
0.58857
0.58851
0.588589
0.588621
0.588601
0.588533
0.588425
0.588292
0.588153
0.588029
0.587943
0.588289
0.58842
0.588474
0.588446
0.588337
0.588163
0.587943
0.58771
0.587496
0.587343
0.588844
0.589037
0.589113
0.589074
0.588922
0.588676
0.588364
0.588027
0.587718
0.587476
0.587749
0.587975
0.588068
0.588014
0.587817
0.587496
0.587085
0.586644
0.586227
0.585932
0.589312
0.589613
0.589722
0.589666
0.589437
0.589061
0.588574
0.588032
0.58752
0.587111
0.586571
0.586814
0.586939
0.58687
0.586617
0.586202
0.585657
0.585062
0.584484
0.584126
0.586946
0.587068
0.587072
0.587074
0.587073
0.587072
0.587071
0.587069
0.587059
0.586935
0.5894
0.589426
0.589437
0.589438
0.589433
0.589423
0.58941
0.58939
0.589362
0.589316
0.588027
0.58803
0.588029
0.588023
0.588013
0.587999
0.587984
0.587972
0.587964
0.587964
0.588801
0.588833
0.588847
0.588842
0.588819
0.588783
0.588738
0.588689
0.588645
0.588606
0.588331
0.588379
0.5884
0.588388
0.588346
0.58828
0.588199
0.588114
0.58804
0.58799
0.588142
0.588226
0.588262
0.588245
0.588177
0.588066
0.587928
0.587782
0.587648
0.587553
0.588659
0.58878
0.588827
0.5888
0.588702
0.588545
0.588349
0.58814
0.587955
0.587808
0.587336
0.587483
0.587547
0.587512
0.587382
0.587171
0.586903
0.58662
0.586352
0.58618
0.589252
0.589458
0.589531
0.589493
0.589341
0.589093
0.588778
0.588431
0.588113
0.587847
0.586064
0.586217
0.586304
0.586258
0.586089
0.585813
0.585455
0.585075
0.584705
0.584512
0.586279
0.586374
0.586376
0.586377
0.586378
0.586378
0.586379
0.586379
0.586377
0.586281
0.589622
0.589649
0.589657
0.589658
0.589654
0.589647
0.589637
0.589621
0.589595
0.589541
0.587751
0.587753
0.587755
0.587754
0.587748
0.58774
0.58773
0.587721
0.587715
0.587718
0.588768
0.588784
0.588789
0.588784
0.588771
0.58875
0.588725
0.588699
0.588678
0.588656
0.588258
0.588289
0.588303
0.588297
0.588272
0.588232
0.588182
0.588131
0.588084
0.588053
0.588121
0.588176
0.5882
0.58819
0.588148
0.588079
0.587993
0.587902
0.587817
0.587755
0.588578
0.588648
0.588674
0.588656
0.588593
0.588495
0.588375
0.588251
0.588146
0.588064
0.587134
0.587233
0.587279
0.587258
0.587175
0.587039
0.586866
0.586682
0.586502
0.586396
0.589456
0.589589
0.589636
0.589609
0.58951
0.589351
0.589153
0.588939
0.58875
0.588576
0.585307
0.5854
0.585462
0.585432
0.585322
0.585142
0.584911
0.584671
0.584428
0.584335
0.584984
0.585049
0.585052
0.585055
0.585056
0.585057
0.585056
0.585055
0.585055
0.584987
0.590179
0.590196
0.590194
0.590188
0.590183
0.59018
0.590177
0.590173
0.590162
0.590111
0.587673
0.587687
0.587699
0.587705
0.587704
0.587697
0.587686
0.58767
0.587652
0.58764
0.588768
0.58877
0.588768
0.588762
0.588752
0.588741
0.588729
0.588719
0.588714
0.588711
0.588275
0.588297
0.588308
0.588306
0.588291
0.588266
0.588234
0.5882
0.588169
0.588146
0.588197
0.588234
0.58825
0.588244
0.588217
0.588174
0.588119
0.588061
0.588005
0.587963
0.588579
0.588617
0.58863
0.588617
0.588576
0.588514
0.588439
0.588365
0.588308
0.58827
0.587298
0.587376
0.587412
0.587401
0.587347
0.587257
0.587141
0.587016
0.586883
0.586796
0.590048
0.590123
0.590149
0.590128
0.590061
0.589958
0.589833
0.589704
0.589603
0.589506
0.584023
0.584087
0.584132
0.584112
0.584039
0.58392
0.583767
0.583611
0.583441
0.583394
0.58316
0.583201
0.583213
0.583221
0.583223
0.58322
0.583213
0.583201
0.583184
0.583129
0.591104
0.591075
0.591046
0.591027
0.591018
0.591019
0.59103
0.591053
0.591086
0.591096
0.587856
0.587892
0.587916
0.587928
0.58793
0.587924
0.587909
0.587884
0.587848
0.587803
0.588758
0.588749
0.588742
0.588736
0.588728
0.588721
0.588715
0.588713
0.588719
0.588732
0.58833
0.588348
0.588357
0.588356
0.588345
0.588327
0.588304
0.588279
0.588255
0.588235
0.588293
0.58832
0.588332
0.588327
0.588308
0.588277
0.588238
0.588196
0.588157
0.588124
0.5886
0.588622
0.588631
0.58862
0.58859
0.588545
0.588492
0.58844
0.588405
0.588391
0.587818
0.587889
0.58792
0.587914
0.587874
0.587808
0.587722
0.587626
0.587517
0.587418
0.591006
0.591034
0.591045
0.591026
0.590976
0.5909
0.59081
0.590726
0.59068
0.590678
0.582337
0.582394
0.582427
0.582413
0.582357
0.582269
0.582157
0.582041
0.581913
0.581871
0.439197
0.418445
0.425351
0.466308
0.391423
0.368185
0.379226
0.436461
0.348235
0.321088
0.338426
0.417349
0.310165
0.280768
0.305102
0.406429
0.278687
0.248622
0.28019
0.404017
0.251584
0.222067
0.261903
0.401208
0.229867
0.202224
0.250849
0.398574
0.209482
0.185365
0.242828
0.39648
0.19154
0.173517
0.239246
0.398113
0.172078
0.162208
0.234933
0.393616
0.499277
0.489079
0.489404
0.499118
0.468788
0.456173
0.457318
0.469996
0.437912
0.421191
0.423401
0.440974
0.408891
0.387925
0.391519
0.414239
0.38423
0.358766
0.364023
0.392089
0.362185
0.331836
0.337887
0.371216
0.344304
0.308967
0.314853
0.353278
0.327861
0.287726
0.293164
0.336581
0.314319
0.270149
0.275134
0.322945
0.298957
0.252363
0.254962
0.305303
0.566679
0.564463
0.563933
0.565066
0.548921
0.545224
0.544529
0.54683
0.528934
0.523039
0.522231
0.526567
0.506697
0.498429
0.497629
0.504463
0.485699
0.474977
0.47435
0.484084
0.464624
0.451317
0.450908
0.463653
0.445686
0.429712
0.42948
0.445172
0.427052
0.408532
0.408444
0.426901
0.410791
0.390591
0.390548
0.41093
0.391875
0.372163
0.371398
0.391307
0.579144
0.57806
0.577711
0.578062
0.569515
0.568103
0.567613
0.567977
0.557656
0.555172
0.554454
0.555354
0.542884
0.539094
0.538188
0.539913
0.528449
0.523209
0.522191
0.525045
0.512885
0.506071
0.504996
0.509242
0.498284
0.489822
0.48873
0.49457
0.482971
0.472939
0.471887
0.479397
0.468748
0.45777
0.456767
0.465577
0.450907
0.440976
0.439713
0.448063
0.586012
0.585422
0.585222
0.58541
0.580185
0.579706
0.579476
0.579485
0.572707
0.571767
0.571344
0.571416
0.562605
0.560969
0.560316
0.560584
0.552648
0.550143
0.549271
0.549903
0.541354
0.537839
0.536772
0.53795
0.530624
0.52601
0.524792
0.526703
0.518841
0.513152
0.511853
0.514642
0.50767
0.501329
0.500026
0.503601
0.492919
0.487719
0.486289
0.489311
0.588591
0.588115
0.587969
0.588154
0.585147
0.584936
0.584827
0.584819
0.580063
0.579642
0.579426
0.579408
0.572841
0.572079
0.571702
0.571694
0.565787
0.564556
0.563987
0.564043
0.557471
0.555644
0.55487
0.555068
0.549643
0.547128
0.546161
0.546609
0.540747
0.537524
0.536417
0.537236
0.532324
0.528653
0.527508
0.528735
0.520413
0.517861
0.51664
0.517199
0.589717
0.589285
0.589162
0.589349
0.587837
0.587744
0.587693
0.587684
0.5843
0.584105
0.583999
0.583979
0.578932
0.578562
0.57836
0.578323
0.57373
0.573109
0.57278
0.572732
0.56738
0.566423
0.565938
0.565897
0.561539
0.560172
0.559519
0.55953
0.554741
0.552934
0.55214
0.552272
0.548582
0.546464
0.54561
0.545932
0.538908
0.537906
0.537006
0.536565
0.590049
0.589632
0.589518
0.589707
0.58918
0.589133
0.589106
0.5891
0.586719
0.586621
0.586567
0.586555
0.582704
0.582512
0.582403
0.582377
0.578806
0.578477
0.578291
0.578246
0.573846
0.573326
0.573037
0.572972
0.569409
0.568649
0.568241
0.568168
0.564132
0.563109
0.56259
0.562541
0.559723
0.558497
0.557912
0.557932
0.551682
0.551589
0.550991
0.55021
0.590004
0.589594
0.589483
0.589673
0.589796
0.58977
0.589755
0.589751
0.588078
0.588027
0.587998
0.587991
0.585081
0.584977
0.584917
0.5849
0.582161
0.58198
0.581875
0.581844
0.57827
0.577979
0.577809
0.577759
0.574906
0.574473
0.574226
0.574157
0.570761
0.570173
0.569849
0.569776
0.567617
0.566902
0.566523
0.566466
0.560799
0.561227
0.560862
0.560006
0.589779
0.589369
0.58926
0.589451
0.589993
0.589978
0.589968
0.589965
0.588778
0.58875
0.588734
0.58873
0.586563
0.586503
0.586468
0.586457
0.58438
0.584277
0.584215
0.584196
0.581335
0.581167
0.581066
0.581032
0.578831
0.578579
0.578429
0.578379
0.57555
0.575207
0.575007
0.574949
0.573345
0.572922
0.572684
0.572625
0.567469
0.568182
0.567974
0.567139
0.589481
0.58907
0.588961
0.589153
0.589964
0.589954
0.589947
0.589944
0.589071
0.589055
0.589046
0.589044
0.587464
0.587428
0.587407
0.587399
0.585834
0.585773
0.585737
0.585724
0.583462
0.583362
0.583301
0.583279
0.581658
0.581506
0.581413
0.581381
0.579032
0.578827
0.578705
0.578664
0.577564
0.57731
0.577162
0.577118
0.57242
0.573274
0.573166
0.572378
0.589166
0.588753
0.588644
0.588837
0.589822
0.589814
0.589809
0.589806
0.589113
0.589104
0.5891
0.589098
0.58799
0.587968
0.587954
0.587949
0.586763
0.586727
0.586705
0.586697
0.584926
0.584865
0.584827
0.584813
0.583692
0.583598
0.58354
0.583519
0.581549
0.581426
0.58135
0.581323
0.58069
0.580533
0.580441
0.580413
0.576113
0.57702
0.57697
0.576238
0.588861
0.588446
0.588337
0.588532
0.589639
0.589633
0.589628
0.589625
0.589003
0.588999
0.588997
0.588997
0.58828
0.588265
0.588256
0.588252
0.587333
0.587312
0.587298
0.587294
0.585917
0.58588
0.585856
0.585847
0.585147
0.585087
0.585051
0.585038
0.583339
0.583263
0.583217
0.583199
0.583003
0.582904
0.582847
0.582831
0.578859
0.579764
0.579747
0.579073
0.588579
0.58816
0.588052
0.58825
0.589462
0.589456
0.589451
0.589448
0.588804
0.588803
0.588802
0.588802
0.588428
0.588418
0.588412
0.588409
0.587662
0.587649
0.587642
0.587639
0.586576
0.586552
0.586537
0.586531
0.586177
0.586139
0.586116
0.586108
0.584572
0.584526
0.584497
0.584485
0.584711
0.584647
0.584612
0.584604
0.580883
0.581748
0.581749
0.581135
0.588313
0.587891
0.587785
0.587987
0.589323
0.589316
0.589311
0.589307
0.588551
0.588551
0.588552
0.588553
0.588502
0.588494
0.58849
0.588487
0.587835
0.587828
0.587824
0.587823
0.587007
0.586992
0.586983
0.586979
0.586899
0.586875
0.586861
0.586856
0.585378
0.58535
0.585332
0.585324
0.585975
0.585932
0.58591
0.585909
0.582347
0.583143
0.583152
0.582604
0.588032
0.587609
0.587508
0.587714
0.58925
0.589241
0.589235
0.589231
0.588266
0.588268
0.588269
0.58827
0.588545
0.58854
0.588536
0.588535
0.587921
0.587918
0.587916
0.587915
0.587298
0.587288
0.587281
0.587279
0.587403
0.587389
0.587381
0.587379
0.585863
0.585845
0.585834
0.585829
0.586928
0.586898
0.586885
0.586889
0.58335
0.584055
0.584065
0.58359
0.587639
0.58722
0.587127
0.587338
0.58928
0.58927
0.589262
0.589258
0.587972
0.587975
0.587977
0.587978
0.588589
0.588585
0.588583
0.588583
0.587975
0.587973
0.587972
0.587972
0.58752
0.587512
0.587507
0.587506
0.587766
0.587759
0.587756
0.587755
0.586136
0.586124
0.586115
0.586112
0.5877
0.587677
0.58767
0.587678
0.583905
0.584497
0.584505
0.584111
0.586907
0.586505
0.586427
0.586638
0.589494
0.58948
0.589471
0.589467
0.587723
0.587725
0.587725
0.587726
0.588649
0.588648
0.588647
0.588648
0.58804
0.588038
0.588037
0.588037
0.587727
0.587721
0.587717
0.587716
0.588048
0.588048
0.588047
0.588048
0.58635
0.586337
0.58633
0.586327
0.588455
0.588435
0.588431
0.588444
0.58389
0.584346
0.58435
0.584047
0.585494
0.58514
0.585084
0.58528
0.590053
0.590037
0.59003
0.59003
0.587624
0.58762
0.587617
0.587614
0.588717
0.588718
0.58872
0.588723
0.588131
0.588128
0.588127
0.588126
0.587936
0.58793
0.587927
0.587927
0.588279
0.588283
0.588285
0.588285
0.586707
0.586685
0.586676
0.586678
0.589429
0.589415
0.589415
0.589431
0.583077
0.583366
0.583363
0.583169
0.583423
0.583203
0.583177
0.583301
0.591069
0.591063
0.591067
0.591081
0.58774
0.587727
0.587717
0.587711
0.588755
0.588761
0.588765
0.588768
0.588218
0.588214
0.588212
0.588212
0.5881
0.588094
0.588091
0.588093
0.588422
0.588429
0.588432
0.588431
0.587253
0.587216
0.587204
0.587217
0.590749
0.59076
0.590766
0.590771
0.581595
0.581668
0.581664
0.58162
0.595268
0.603725
0.607727
0.61083
0.613954
0.616711
0.618949
0.620697
0.622063
0.623209
0.5962
0.599536
0.606958
0.612007
0.616472
0.619859
0.622324
0.624088
0.625333
0.626275
0.60006
0.596417
0.607401
0.613116
0.618399
0.621996
0.624564
0.626387
0.62764
0.628531
0.603474
0.592543
0.607157
0.61273
0.618589
0.622138
0.624694
0.626472
0.627689
0.628553
0.607966
0.590532
0.607905
0.613204
0.619509
0.622909
0.625436
0.627131
0.628258
0.629041
0.611053
0.587877
0.607647
0.612473
0.61923
0.622446
0.624986
0.626632
0.627765
0.628589
0.615054
0.586614
0.608472
0.612582
0.619744
0.622696
0.625252
0.626841
0.627947
0.628747
0.616623
0.583563
0.607478
0.61082
0.61849
0.621243
0.623962
0.625635
0.62694
0.627977
0.618287
0.582079
0.607927
0.609935
0.617748
0.620035
0.622982
0.624803
0.62631
0.627539
0.602742
0.566214
0.594707
0.59706
0.606747
0.610615
0.615263
0.618375
0.620936
0.622956
0.53785
0.559917
0.576263
0.58789
0.595854
0.601398
0.605404
0.608396
0.610705
0.612623
0.52414
0.554684
0.57677
0.590718
0.599571
0.605562
0.609805
0.61288
0.615123
0.616785
0.513876
0.551554
0.577876
0.592893
0.602346
0.60861
0.612998
0.61614
0.618377
0.619972
0.505489
0.548523
0.57805
0.593389
0.603247
0.609588
0.613986
0.617091
0.619282
0.620834
0.501032
0.547706
0.579315
0.594706
0.604854
0.611146
0.615486
0.618494
0.620582
0.622045
0.497836
0.546635
0.579729
0.594885
0.605274
0.611445
0.615728
0.61865
0.620699
0.622164
0.497438
0.547067
0.581235
0.595866
0.606419
0.612367
0.616575
0.619398
0.621387
0.622812
0.496643
0.546119
0.58119
0.595123
0.605868
0.611601
0.615836
0.618677
0.620788
0.622386
0.497134
0.54644
0.582369
0.595045
0.605586
0.610847
0.615178
0.618138
0.620417
0.622201
0.488051
0.536405
0.573085
0.585273
0.596835
0.603116
0.608638
0.612528
0.615569
0.617837
0.568967
0.575241
0.581318
0.586694
0.591278
0.595111
0.598285
0.600906
0.603098
0.604989
0.555732
0.567125
0.577311
0.585637
0.592305
0.597553
0.601648
0.604831
0.607292
0.609167
0.542647
0.559822
0.574191
0.58508
0.59339
0.599641
0.604348
0.607898
0.610552
0.612497
0.529492
0.552398
0.570752
0.583748
0.593331
0.600243
0.605303
0.609035
0.611785
0.613774
0.519569
0.547544
0.569329
0.583907
0.594409
0.601707
0.606936
0.610714
0.613461
0.615424
0.510725
0.543014
0.56774
0.583443
0.594619
0.602121
0.60743
0.611212
0.613962
0.615947
0.504698
0.540491
0.56767
0.584059
0.59569
0.603226
0.608538
0.612276
0.614998
0.616962
0.499007
0.537458
0.566701
0.583404
0.595352
0.602838
0.60818
0.611945
0.61476
0.616857
0.4953
0.536119
0.567098
0.583467
0.595303
0.602504
0.607904
0.611769
0.614714
0.616961
0.48521
0.527226
0.559413
0.575725
0.58826
0.596185
0.602402
0.60693
0.610409
0.612933
0.578781
0.581189
0.584094
0.587042
0.589819
0.592332
0.594554
0.596496
0.59821
0.599769
0.570009
0.574774
0.580188
0.585331
0.589867
0.593727
0.596948
0.599603
0.601759
0.603462
0.559489
0.567567
0.575977
0.583401
0.589622
0.594691
0.598765
0.602005
0.60454
0.606469
0.547174
0.559277
0.571021
0.580704
0.58846
0.594524
0.599246
0.602904
0.605714
0.607816
0.536483
0.552878
0.567906
0.579595
0.58863
0.595442
0.600604
0.604513
0.607469
0.609647
0.525867
0.546571
0.564721
0.578116
0.588196
0.595553
0.601018
0.605089
0.608149
0.610409
0.517335
0.542164
0.563164
0.577908
0.588791
0.596492
0.602137
0.606284
0.609391
0.611674
0.50896
0.537548
0.561089
0.576818
0.588297
0.596198
0.601979
0.606218
0.609432
0.611835
0.502447
0.534664
0.560405
0.576538
0.588217
0.5961
0.601994
0.60634
0.609661
0.612184
0.491547
0.526362
0.553553
0.570074
0.582393
0.59084
0.597309
0.602127
0.605818
0.608466
0.585275
0.586037
0.587201
0.588566
0.590001
0.591418
0.592764
0.594017
0.595197
0.59635
0.579944
0.581799
0.584317
0.58704
0.589711
0.592193
0.59442
0.596366
0.598021
0.599378
0.572407
0.575809
0.580118
0.584506
0.588597
0.592224
0.595338
0.597951
0.600091
0.601786
0.562591
0.568203
0.574771
0.581029
0.586581
0.591296
0.595207
0.598395
0.600949
0.602933
0.553472
0.561761
0.57082
0.578955
0.58587
0.591521
0.596068
0.599681
0.602525
0.604694
0.543676
0.554969
0.566627
0.576546
0.584685
0.591117
0.596166
0.600104
0.603174
0.605507
0.535227
0.549707
0.563938
0.57545
0.584627
0.591658
0.597075
0.601233
0.604448
0.606868
0.526534
0.544225
0.560902
0.57375
0.583761
0.59123
0.596928
0.601273
0.604639