/*--------------------------------*- C++ -*----------------------------------*\
| =========                 |                                                 |
| \\      /  F ield         | foam-extend: Open Source CFD                    |
|  \\    /   O peration     | Version:     4.0                                |
|   \\  /    A nd           | Web:         http://www.foam-extend.org         |
|    \\/     M anipulation  |                                                 |
\*---------------------------------------------------------------------------*/
FoamFile
{
    version     2.0;
    format      ascii;
    class       volScalarField;
    location    "2050";
    object      p;
}
// * * * * * * * * * * * * * * * * * * * * * * * * * * * * * * * * * * * * * //

dimensions      [1 -1 -2 0 0 0 0];

internalField   nonuniform List<scalar> 
34480
(
107969
107869
107830
107845
107930
108111
108455
109137
110103
110449
107828
107729
107689
107700
107780
107957
108295
108965
109999
109974
107687
107584
107544
107546
107612
107759
108057
108659
109689
109114
107613
107509
107463
107453
107496
107599
107839
108342
109304
108153
107531
107416
107362
107335
107352
107410
107592
107990
108850
107157
107548
107433
107373
107337
107335
107356
107482
107772
108492
106275
107454
107326
107259
107211
107193
107184
107261
107453
108013
105338
107542
107419
107356
107323
107320
107323
107385
107504
107882
104742
107442
107314
107245
107208
107206
107219
107272
107333
107506
103995
107535
107420
107407
107472
107611
107802
108047
108283
108454
104458
108729
108604
108559
108584
108690
108893
109228
109756
110571
111637
108522
108390
108343
108370
108483
108709
109096
109749
110889
112493
108321
108185
108138
108159
108267
108485
108880
109586
110967
112954
108194
108052
107999
108008
108100
108294
108666
109362
110883
113122
108069
107916
107853
107846
107916
108075
108408
109061
110650
113035
108047
107893
107823
107804
107856
107981
108271
108855
110448
112865
107923
107757
107680
107647
107681
107775
108021
108530
110079
112469
107988
107826
107749
107725
107766
107861
108087
108530
109982
112253
107874
107708
107625
107593
107624
107712
107920
108314
109620
111812
107955
107800
107759
107805
107938
108150
108482
108979
110233
112219
109296
109183
109144
109172
109275
109461
109746
110147
110677
111288
109082
108950
108906
108941
109066
109297
109661
110205
111020
112027
108863
108720
108675
108711
108842
109091
109500
110149
111245
112674
108705
108552
108500
108528
108656
108903
109332
110041
111360
113170
108551
108385
108326
108340
108454
108686
109110
109838
111325
113463
108498
108330
108263
108268
108369
108580
108988
109704
111303
113691
108349
108169
108096
108088
108174
108362
108745
109433
111095
113680
108392
108215
108141
108139
108228
108414
108785
109440
111104
113798
108266
108086
108006
107995
108070
108241
108593
109224
110826
113635
108334
108161
108110
108154
108299
108552
108980
109676
111242
114050
109694
109606
109575
109598
109679
109817
110015
110269
110562
110842
109515
109398
109359
109392
109502
109696
109985
110376
110882
111401
109317
109179
109136
109172
109299
109528
109885
110399
111153
111992
109155
109001
108949
108982
109115
109364
109771
110386
111383
112568
108993
108822
108762
108785
108914
109165
109599
110280
111490
113018
108925
108746
108679
108695
108817
109063
109506
110225
111612
113450
108761
108570
108497
108502
108614
108846
109287
110021
111546
113668
108788
108598
108523
108532
108646
108880
109321
110059
111663
114012
108651
108458
108378
108380
108485
108707
109137
109877
111492
114068
108704
108518
108457
108499
108652
108930
109410
110197
111804
114522
109968
109906
109885
109901
109958
110052
110179
110331
110491
110629
109834
109742
109710
109737
109824
109972
110182
110446
110749
111025
109678
109557
109519
109551
109661
109854
110138
110516
110998
111470
109529
109387
109338
109371
109496
109723
110073
110562
111248
111970
109376
109211
109155
109183
109312
109556
109953
110532
111419
112413
109304
109128
109062
109086
109216
109468
109897
110543
111619
112886
109136
108945
108873
108888
109014
109266
109711
110405
111646
113186
109153
108961
108887
108905
109035
109292
109752
110480
111844
113628
109009
108812
108734
108747
108872
109124
109586
110340
111769
113811
109051
108860
108794
108835
108992
109282
109778
110575
112027
114266
110156
110117
110103
110114
110150
110209
110286
110373
110458
110526
110065
109997
109974
109993
110056
110161
110303
110472
110651
110799
109956
109858
109826
109852
109940
110091
110303
110568
110870
111138
109831
109708
109665
109695
109803
109994
110275
110644
111101
111535
109698
109549
109497
109526
109645
109864
110203
110666
111289
111919
109632
109468
109407
109433
109560
109799
110183
110727
111518
112359
109469
109286
109218
109239
109368
109617
110032
110642
111592
112660
109483
109297
109225
109249
109384
109645
110087
110750
111835
113120
109336
109143
109069
109089
109222
109484
109938
110644
111823
113353
109371
109182
109115
109154
109309
109598
110079
110824
112047
113765
110290
110266
110257
110264
110286
110321
110366
110415
110461
110495
110230
110183
110167
110180
110223
110294
110385
110490
110594
110675
110165
110091
110066
110086
110152
110263
110413
110592
110781
110937
110067
109967
109931
109956
110044
110195
110409
110676
110978
111243
109961
109833
109788
109814
109917
110102
110375
110729
111159
111560
109908
109761
109707
109733
109849
110061
110385
110821
111389
111943
109754
109587
109526
109550
109672
109902
110267
110776
111480
112209
109773
109600
109534
109560
109691
109938
110337
110908
111738
112642
109626
109444
109375
109400
109532
109786
110205
110825
111753
112861
109658
109479
109414
109451
109598
109872
110314
110972
111952
113212
110389
110374
110370
110373
110386
110407
110432
110459
110484
110501
110349
110318
110307
110316
110344
110389
110446
110510
110569
110615
110322
110268
110250
110264
110311
110389
110491
110608
110725
110816
110248
110170
110141
110161
110228
110342
110499
110685
110882
111046
110169
110064
110028
110049
110134
110282
110492
110753
111046
111302
110132
110008
109962
109986
110086
110264
110525
110861
111261
111627
109993
109847
109793
109817
109927
110128
110433
110839
111351
111846
110021
109867
109807
109834
109955
110176
110519
110987
111605
112234
109876
109711
109649
109675
109800
110032
110399
110918
111623
112405
109910
109746
109685
109719
109855
110103
110491
111045
111802
112695
110465
110457
110454
110456
110464
110475
110489
110504
110517
110526
110436
110417
110409
110415
110433
110460
110495
110533
110567
110593
110440
110402
110389
110399
110431
110483
110551
110625
110697
110750
110383
110325
110304
110318
110368
110450
110560
110687
110814
110915
110331
110249
110220
110237
110304
110417
110573
110759
110955
111118
110311
110210
110172
110193
110275
110417
110620
110869
111146
111387
110187
110064
110019
110040
110134
110302
110546
110859
111223
111557
110228
110096
110045
110069
110175
110364
110646
111015
111465
111896
110087
109942
109888
109913
110024
110227
110535
110951
111472
112011
110125
109980
109926
109956
110076
110292
110619
111067
111633
112251
110527
110522
110521
110522
110526
110532
110540
110548
110555
110560
110501
110489
110485
110488
110499
110516
110537
110559
110579
110593
110528
110503
110495
110501
110522
110556
110599
110646
110689
110720
110483
110442
110426
110436
110471
110529
110604
110688
110769
110832
110455
110394
110371
110385
110434
110518
110630
110758
110888
110991
110450
110371
110341
110358
110422
110532
110683
110863
111052
111209
110341
110241
110205
110222
110299
110433
110622
110855
111109
111331
110396
110287
110245
110267
110355
110510
110733
111014
111334
111624
110258
110136
110091
110113
110208
110377
110625
110947
111323
111688
110304
110181
110135
110161
110263
110443
110709
111057
111470
111889
110579
110576
110575
110576
110578
110582
110586
110590
110594
110597
110551
110544
110541
110543
110550
110560
110572
110585
110597
110605
110597
110581
110575
110579
110593
110614
110641
110669
110695
110713
110557
110528
110517
110524
110548
110587
110637
110692
110743
110782
110549
110504
110488
110498
110534
110593
110671
110758
110842
110908
110556
110497
110474
110486
110535
110617
110726
110852
110980
111080
110459
110381
110353
110367
110427
110530
110671
110839
111013
111160
110530
110444
110410
110428
110499
110621
110792
110999
111222
111414
110393
110294
110258
110276
110354
110490
110683
110923
111189
111432
110450
110350
110311
110333
110416
110562
110769
111032
111325
111604
110623
110622
110622
110622
110623
110625
110627
110630
110632
110633
110590
110586
110584
110585
110589
110595
110602
110610
110617
110622
110652
110641
110638
110640
110649
110662
110678
110696
110711
110721
110610
110591
110583
110588
110604
110629
110662
110697
110729
110754
110619
110588
110577
110583
110608
110649
110702
110760
110814
110855
110635
110592
110575
110584
110620
110679
110756
110842
110926
110991
110548
110489
110468
110479
110524
110600
110702
110820
110938
111034
110636
110570
110544
110558
110613
110705
110832
110980
111133
111257
110497
110419
110390
110405
110466
110571
110716
110891
111075
111235
110566
110487
110456
110474
110540
110652
110810
111001
111205
111388
110663
110662
110662
110662
110663
110664
110665
110666
110667
110668
110620
110618
110616
110617
110619
110623
110627
110632
110636
110640
110696
110690
110688
110690
110695
110703
110713
110723
110731
110737
110649
110636
110631
110634
110644
110661
110681
110704
110724
110739
110672
110651
110643
110648
110665
110692
110727
110764
110798
110824
110693
110663
110651
110657
110682
110723
110776
110834
110889
110929
110613
110570
110555
110563
110595
110650
110722
110803
110880
110943
110717
110669
110650
110661
110701
110769
110860
110962
111065
111145
110573
110513
110492
110503
110549
110627
110732
110856
110980
111085
110658
110598
110574
110587
110637
110722
110837
110972
111111
111229
110699
110698
110698
110698
110699
110699
110700
110700
110701
110701
110642
110641
110640
110640
110641
110644
110646
110649
110652
110655
110735
110731
110730
110731
110734
110739
110745
110750
110755
110757
110677
110668
110665
110666
110673
110683
110696
110710
110723
110733
110711
110698
110692
110695
110707
110724
110747
110770
110792
110807
110734
110714
110706
110710
110727
110755
110790
110828
110863
110888
110660
110630
110619
110624
110647
110685
110734
110788
110838
110879
110780
110747
110733
110741
110770
110818
110881
110950
111018
111067
110626
110582
110566
110574
110608
110664
110738
110823
110905
110973
110730
110686
110669
110678
110715
110776
110857
110950
111042
111117
110733
110732
110732
110732
110733
110733
110733
110733
110733
110733
110656
110655
110655
110655
110656
110657
110659
110661
110663
110665
110769
110767
110767
110767
110769
110772
110775
110778
110780
110780
110696
110690
110688
110689
110693
110699
110707
110716
110724
110730
110740
110731
110728
110730
110737
110748
110762
110777
110790
110799
110763
110749
110743
110746
110757
110776
110798
110823
110845
110861
110693
110673
110665
110669
110685
110710
110742
110777
110809
110835
110830
110807
110798
110803
110823
110856
110899
110944
110989
111018
110660
110628
110617
110623
110646
110685
110735
110792
110845
110889
110788
110758
110745
110752
110778
110821
110876
110938
110998
111045
110770
110769
110770
110770
110770
110770
110770
110770
110770
110769
110662
110661
110661
110660
110661
110662
110663
110665
110667
110669
110799
110799
110799
110799
110800
110802
110804
110805
110806
110805
110708
110704
110703
110703
110706
110710
110714
110720
110724
110729
110759
110754
110752
110753
110757
110764
110773
110782
110790
110795
110779
110770
110766
110768
110775
110787
110802
110817
110831
110841
110716
110703
110698
110700
110711
110727
110747
110769
110789
110805
110868
110853
110847
110850
110864
110886
110914
110943
110972
110988
110676
110654
110647
110651
110666
110692
110725
110762
110796
110825
110843
110822
110813
110818
110836
110864
110901
110941
110980
111008
110822
110822
110822
110822
110822
110822
110822
110822
110821
110821
110655
110655
110654
110654
110654
110655
110656
110658
110659
110663
110825
110825
110825
110825
110826
110827
110828
110828
110829
110827
110714
110712
110712
110712
110714
110716
110719
110722
110724
110727
110769
110766
110764
110765
110768
110772
110777
110783
110788
110791
110784
110779
110776
110777
110782
110789
110798
110808
110817
110823
110729
110722
110719
110721
110727
110737
110750
110763
110774
110784
110892
110883
110878
110880
110889
110903
110921
110940
110959
110968
110675
110660
110655
110658
110668
110685
110706
110729
110750
110769
110907
110894
110888
110891
110902
110921
110945
110971
110996
111011
110916
110916
110916
110916
110916
110916
110916
110915
110915
110914
110629
110628
110628
110628
110628
110629
110630
110631
110632
110636
110838
110838
110838
110837
110838
110838
110839
110840
110841
110839
110717
110717
110717
110717
110718
110719
110721
110722
110723
110724
110770
110768
110767
110767
110768
110771
110774
110778
110781
110783
110779
110775
110774
110774
110777
110782
110787
110794
110799
110804
110735
110731
110729
110731
110735
110741
110749
110757
110763
110768
110890
110884
110880
110881
110887
110896
110908
110921
110934
110940
110648
110638
110635
110637
110644
110655
110668
110682
110694
110707
111007
110998
110994
110996
111003
111016
111031
111047
111064
111073
111078
111078
111078
111077
111077
111077
111077
111077
111077
111077
110568
110568
110570
110570
110571
110571
110571
110571
110570
110572
110826
110824
110823
110822
110822
110822
110823
110825
110827
110829
110720
110720
110721
110722
110722
110723
110724
110724
110724
110723
110764
110763
110762
110762
110763
110765
110767
110769
110772
110773
110769
110766
110765
110765
110767
110770
110774
110778
110782
110785
110736
110733
110733
110734
110737
110741
110746
110751
110754
110756
110848
110842
110839
110839
110843
110849
110858
110867
110877
110884
110581
110577
110575
110577
110582
110589
110598
110606
110612
110618
111163
111157
111154
111155
111160
111169
111180
111191
111203
111208
111261
111258
111257
111256
111256
111256
111257
111259
111261
111265
110485
110491
110494
110497
110498
110497
110496
110493
110488
110481
110792
110788
110786
110785
110784
110785
110786
110789
110792
110797
110725
110726
110727
110728
110728
110729
110729
110729
110729
110727
110759
110758
110757
110757
110758
110759
110761
110763
110765
110767
110762
110760
110759
110759
110760
110763
110766
110769
110772
110775
110738
110736
110736
110737
110739
110743
110747
110751
110754
110755
110785
110778
110776
110776
110780
110785
110792
110799
110808
110817
110497
110495
110495
110496
110500
110507
110514
110520
110523
110520
111330
111325
111322
111324
111328
111335
111344
111353
111363
111367
122713
123927
123751
122477
125945
127352
126951
125329
128889
130476
129888
127897
131056
132758
131984
129715
132719
134501
133553
131079
134069
135910
134953
132358
134995
136869
136043
133382
135819
137698
137036
134336
135734
137585
137067
134376
135322
137160
136900
134363
113011
113201
113239
113119
115297
115669
115727
115437
117554
118107
118166
117656
119695
120415
120460
119705
121648
122504
122519
121506
123501
124467
124446
123217
125037
126086
126035
124648
126541
127650
127581
126084
127322
128461
128390
126842
127969
129143
129120
127620
111809
111898
111926
111899
113133
113301
113340
113273
114587
114853
114906
114776
116065
116436
116496
116283
117489
117964
118022
117704
118966
119541
119591
119157
120257
120925
120966
120412
121639
122383
122413
121746
122459
123250
123274
122512
123278
124106
124147
123329
110958
110981
110992
110992
111711
111764
111784
111776
112631
112735
112768
112743
113663
113831
113880
113825
114691
114931
114993
114895
115820
116139
116211
116055
116824
117221
117300
117075
117982
118450
118532
118233
118696
119214
119301
118937
119472
120033
120137
119733
110675
110685
110690
110690
111147
111171
111182
111181
111731
111780
111799
111795
112438
112522
112553
112542
113164
113290
113334
113311
114002
114178
114236
114191
114739
114969
115038
114964
115658
115942
116021
115910
116237
116561
116653
116509
116915
117275
117386
117218
110544
110548
110550
110550
110847
110856
110861
110863
111242
111262
111273
111275
111735
111774
111793
111795
112257
112321
112350
112350
112888
112983
113024
113018
113425
113556
113608
113593
114154
114322
114385
114354
114614
114811
114888
114844
115166
115391
115483
115426
110504
110506
110507
110507
110699
110704
110706
110707
110987
110997
111002
111004
111339
111358
111369
111372
111723
111756
111774
111778
112205
112257
112283
112288
112595
112669
112705
112708
113176
113275
113320
113319
113526
113646
113702
113696
113959
114097
114163
114151
110506
110507
110507
110507
110627
110629
110631
110631
110842
110847
110850
110851
111096
111106
111113
111115
111387
111405
111415
111419
111764
111793
111809
111815
112049
112091
112114
112121
112518
112575
112606
112612
112765
112837
112875
112880
113102
113186
113230
113232
110529
110529
110529
110530
110600
110601
110602
110602
110764
110767
110769
110769
110944
110949
110953
110954
111166
111176
111182
111185
111465
111482
111492
111495
111671
111695
111710
111715
112055
112088
112108
112114
112213
112257
112282
112287
112480
112530
112559
112564
110561
110562
110562
110562
110597
110598
110598
110599
110728
110730
110731
110731
110849
110852
110854
110855
111020
111025
111029
111031
111255
111265
111271
111274
111398
111413
111422
111426
111717
111738
111750
111754
111806
111833
111848
111853
112022
112052
112070
112075
110597
110597
110597
110597
110608
110608
110608
110608
110718
110719
110719
110719
110792
110794
110796
110796
110925
110928
110930
110931
111109
111115
111119
111121
111201
111210
111216
111218
111470
111483
111491
111494
111504
111520
111530
111533
111683
111702
111714
111717
110633
110633
110633
110633
110624
110624
110624
110624
110724
110724
110724
110724
110760
110762
110762
110763
110865
110867
110868
110869
111009
111013
111015
111016
111059
111064
111068
111070
111292
111300
111305
111307
111279
111290
111296
111298
111436
111448
111455
111457
110668
110668
110668
110668
110640
110641
110641
110641
110738
110738
110738
110738
110743
110744
110745
110745
110830
110831
110832
110832
110941
110944
110945
110946
110958
110962
110964
110965
111167
111171
111174
111176
111114
111120
111124
111126
111259
111266
111270
111272
110701
110701
110701
110701
110655
110656
110656
110656
110758
110758
110758
110758
110735
110736
110736
110737
110811
110811
110812
110812
110896
110898
110899
110899
110888
110890
110891
110892
111082
111085
111086
111087
110992
110996
110998
110999
111135
111140
111142
111143
110733
110733
110733
110733
110666
110666
110666
110667
110781
110781
110781
110781
110731
110732
110732
110732
110801
110801
110802
110802
110867
110868
110868
110869
110839
110840
110841
110842
111027
111029
111030
111031
110901
110904
110906
110906
111055
111058
111060
111060
110769
110769
110769
110769
110670
110670
110670
110671
110805
110805
110805
110805
110729
110729
110729
110730
110796
110796
110797
110797
110845
110846
110846
110846
110806
110807
110807
110808
110995
110996
110997
110997
110833
110834
110836
110836
111013
111015
111016
111016
110820
110820
110820
110820
110663
110663
110663
110664
110828
110828
110828
110827
110726
110726
110726
110726
110792
110792
110792
110792
110826
110827
110827
110827
110783
110783
110783
110783
110974
110975
110976
110976
110774
110775
110776
110776
111013
111014
111014
111015
110913
110913
110913
110912
110636
110636
110636
110637
110842
110842
110842
110842
110722
110722
110722
110722
110784
110785
110785
110785
110807
110807
110807
110807
110765
110764
110764
110764
110948
110949
110950
110950
110709
110710
110710
110710
111073
111073
111073
111074
111076
111077
111076
111076
110569
110569
110569
110569
110835
110836
110836
110836
110720
110719
110719
110719
110775
110775
110775
110775
110788
110788
110788
110788
110752
110751
110750
110751
110898
110900
110901
110900
110614
110613
110613
110613
111214
111214
111215
111215
111265
111266
111267
111267
110465
110462
110461
110461
110807
110809
110810
110810
110723
110722
110721
110721
110768
110768
110769
110769
110777
110777
110777
110777
110750
110749
110748
110749
110835
110838
110839
110838
110496
110490
110489
110492
111389
111392
111392
111390
116089
113574
111649
110361
109555
109035
108680
108430
108250
108114
117146
113964
111595
110193
109368
108842
108492
108251
108082
107957
117508
114003
111326
110004
109179
108659
108309
108067
107903
107796
117492
113900
110998
109842
109036
108550
108216
107987
107829
107722
117207
113680
110690
109664
108865
108415
108095
107880
107730
107635
116838
113553
110521
109629
108832
108420
108112
107908
107761
107658
116196
113296
110230
109478
108672
108302
107999
107805
107660
107564
115775
113320
110222
109612
108793
108457
108146
107949
107791
107669
115049
112987
109910
109481
108685
108396
108076
107874
107709
107578
115488
113684
110581
110177
109259
108866
108434
108143
107907
107706
112562
111818
111157
110604
110149
109779
109479
109238
109045
108895
114185
112819
111686
110831
110187
109703
109339
109062
108850
108691
115484
113532
111990
110914
110127
109562
109151
108849
108627
108477
116472
114020
112139
110934
110064
109466
109041
108734
108508
108353
117099
114287
112135
110853
109932
109326
108898
108595
108371
108224
117574
114536
112168
110855
109905
109306
108882
108585
108363
108209
117722
114568
112023
110716
109745
109163
108743
108454
108233
108084
117933
114771
112089
110824
109842
109280
108857
108563
108334
108164
117713
114574
111847
110689
109737
109206
108777
108477
108240
108060
118119
115087
112323
111187
110160
109555
109048
108683
108398
108168
111743
111427
111074
110734
110427
110159
109930
109736
109574
109444
112914
112273
111603
111024
110549
110167
109858
109609
109408
109253
114112
113062
112038
111215
110576
110087
109710
109418
109194
109035
115226
113741
112382
111367
110605
110043
109622
109304
109061
108888
116154
114237
112572
111403
110547
109938
109490
109159
108907
108734
117027
114711
112773
111490
110565
109928
109466
109129
108873
108690
117626
114953
112775
111413
110437
109788
109318
108979
108720
108540
118277
115317
112947
111548
110539
109887
109408
109062
108795
108598
118447
115271
112814
111453
110453
109811
109321
108966
108690
108483
118951
115690
113186
111821
110765
110070
109526
109124
108815
108572
110969
110873
110738
110585
110428
110277
110136
110009
109898
109804
111702
111474
111186
110891
110614
110363
110142
109952
109791
109662
112571
112136
111627
111149
110728
110370
110073
109828
109630
109482
113507
112818
112066
111405
110849
110398
110036
109746
109516
109343
114372
113393
112387
111555
110882
110356
109946
109625
109372
109190
115266
113980
112724
111741
110970
110388
109942
109600
109333
109136
115960
114362
112864
111754
110902
110279
109809
109453
109174
108975
116752
114863
113153
111949
111036
110385
109893
109523
109234
109017
117128
114992
113149
111911
110972
110306
109795
109413
109114
108889
117734
115421
113481
112194
111203
110495
109946
109531
109210
108959
110682
110641
110580
110504
110421
110336
110253
110175
110103
110042
111154
111058
110921
110763
110600
110442
110295
110162
110045
109948
111736
111544
111286
111013
110748
110505
110289
110101
109942
109819
112435
112109
111699
111290
110913
110581
110297
110057
109858
109704
113128
112634
112049
111497
111009
110596
110253
109971
109740
109568
113901
113211
112437
111745
111155
110672
110280
109965
109710
109516
114530
113622
112651
111827
111145
110604
110173
109833
109558
109357
115302
114171
113012
112075
111316
110728
110264
109901
109612
109390
115740
114404
113104
112091
111277
110655
110165
109786
109485
109256
116339
114824
113411
112329
111463
110803
110282
109877
109560
109312
110547
110530
110501
110464
110421
110375
110328
110283
110240
110203
110854
110811
110743
110659
110567
110472
110379
110292
110214
110146
111256
111168
111037
110884
110723
110564
110415
110280
110161
110067
111760
111605
111385
111141
110896
110665
110454
110268
110109
109980
112288
112041
111710
111361
111025
110720
110450
110219
110022
109871
112914
112553
112094
111633
111206
110830
110507
110236
110009
109832
113429
112931
112329
111753
111238
110798
110429
110124
109872
109681
114112
113464
112717
112034
111438
110942
110532
110199
109928
109715
114526
113728
112854
112081
111419
110880
110439
110086
109799
109578
115047
114111
113135
112292
111580
111004
110536
110161
109862
109625
110505
110497
110482
110463
110441
110416
110390
110364
110339
110318
110703
110681
110645
110599
110547
110491
110434
110380
110329
110285
110995
110950
110879
110790
110692
110591
110492
110399
110315
110248
111357
111278
111156
111008
110851
110694
110545
110408
110287
110186
111753
111625
111435
111216
110990
110771
110569
110389
110231
110107
112248
112055
111783
111482
111182
110901
110648
110427
110237
110084
112646
112372
112003
111613
111237
110896
110595
110337
110118
109948
113223
112855
112382
111902
111453
111055
110712
110423
110182
109989
113564
113094
112519
111957
111445
111002
110626
110315
110056
109853
113988
113426
112773
112150
111591
111115
110714
110383
110113
109897
110506
110502
110495
110485
110472
110459
110445
110431
110417
110404
110629
110617
110598
110573
110543
110511
110477
110444
110412
110384
110846
110822
110782
110730
110670
110607
110543
110482
110425
110380
111107
111064
110993
110904
110804
110700
110598
110501
110413
110338
111408
111337
111224
111086
110936
110784
110638
110504
110383
110286
111797
111690
111526
111330
111124
110921
110730
110558
110406
110280
112095
111941
111713
111452
111185
110929
110694
110487
110305
110161
112572
112361
112062
111732
111404
111098
110824
110585
110380
110212
112823
112546
112174
111779
111397
111050
110744
110482
110258
110080
113161
112827
112400
111956
111535
111158
110828
110549
110315
110124
110529
110527
110523
110518
110511
110504
110496
110488
110480
110474
110601
110595
110584
110570
110553
110534
110514
110495
110476
110458
110766
110753
110729
110699
110663
110624
110584
110544
110507
110478
110950
110925
110884
110829
110766
110698
110630
110564
110502
110449
111179
111138
111069
110982
110883
110780
110678
110581
110493
110420
111486
111424
111322
111196
111056
110913
110774
110645
110529
110430
111703
111613
111470
111297
111110
110924
110748
110587
110442
110326
112095
111971
111781
111558
111324
111097
110886
110696
110530
110390
112261
112097
111858
111587
111311
111049
110808
110597
110412
110261
112531
112333
112057
111749
111442
111154
110894
110667
110472
110311
110561
110560
110558
110555
110552
110548
110544
110539
110535
110531
110598
110595
110589
110581
110571
110560
110549
110537
110526
110515
110729
110721
110708
110689
110668
110644
110619
110594
110570
110552
110853
110839
110813
110780
110740
110697
110653
110608
110567
110530
111027
111003
110961
110905
110841
110773
110703
110635
110572
110520
111269
111231
111168
111086
110993
110894
110796
110702
110616
110541
111420
111365
111275
111160
111033
110901
110772
110652
110541
110451
111744
111669
111548
111399
111237
111073
110915
110770
110640
110528
111839
111741
111589
111406
111211
111019
110836
110672
110524
110402
112058
111940
111763
111554
111336
111124
110925
110747
110591
110459
110597
110597
110595
110594
110592
110590
110587
110585
110583
110581
110608
110606
110603
110599
110593
110587
110580
110573
110567
110560
110718
110713
110705
110695
110682
110667
110652
110636
110622
110611
110795
110787
110771
110751
110726
110699
110670
110641
110614
110588
110929
110914
110888
110853
110812
110767
110720
110674
110630
110595
111117
111095
111055
111002
110940
110874
110806
110740
110678
110624
111215
111181
111123
111048
110962
110871
110780
110692
110610
110543
111487
111442
111365
111266
111155
111040
110926
110818
110721
110634
111526
111466
111368
111246
111112
110974
110840
110716
110602
110508
111708
111636
111523
111384
111233
111080
110934
110799
110678
110574
110633
110633
110632
110631
110630
110629
110628
110627
110625
110624
110624
110623
110621
110619
110616
110612
110608
110604
110600
110596
110723
110720
110715
110709
110701
110692
110683
110673
110665
110660
110762
110757
110748
110736
110720
110703
110685
110666
110649
110632
110868
110858
110842
110820
110794
110765
110734
110703
110674
110650
111014
111000
110975
110941
110901
110857
110811
110766
110722
110684
111068
111047
111010
110961
110904
110842
110779
110717
110658
110609
111303
111275
111225
111161
111087
111007
110927
110850
110779
110714
111294
111256
111194
111114
111022
110927
110831
110740
110655
110584
111452
111408
111337
111245
111142
111036
110930
110832
110741
110662
110668
110668
110667
110667
110666
110666
110665
110664
110663
110663
110641
110641
110640
110638
110637
110635
110632
110630
110627
110624
110737
110736
110733
110729
110724
110719
110713
110707
110703
110700
110745
110742
110737
110729
110720
110709
110698
110686
110674
110663
110831
110825
110815
110802
110785
110766
110746
110726
110707
110692
110944
110936
110920
110898
110873
110844
110813
110783
110754
110727
110964
110951
110927
110896
110858
110817
110774
110731
110690
110656
111173
111156
111124
111083
111034
110980
110925
110872
110821
110774
111123
111099
111060
111007
110946
110881
110814
110750
110688
110637
111269
111242
111197
111138
111069
110996
110923
110853
110787
110729
110701
110701
110700
110700
110700
110699
110699
110699
110698
110698
110656
110656
110656
110655
110654
110653
110651
110650
110648
110645
110757
110756
110754
110752
110749
110746
110742
110739
110736
110736
110737
110735
110732
110727
110722
110715
110708
110701
110693
110686
110811
110808
110801
110793
110783
110771
110758
110745
110733
110724
110898
110893
110883
110870
110853
110835
110815
110795
110776
110757
110892
110883
110868