/*--------------------------------*- C++ -*----------------------------------*\
| =========                 |                                                 |
| \\      /  F ield         | foam-extend: Open Source CFD                    |
|  \\    /   O peration     | Version:     4.0                                |
|   \\  /    A nd           | Web:         http://www.foam-extend.org         |
|    \\/     M anipulation  |                                                 |
\*---------------------------------------------------------------------------*/
FoamFile
{
    version     2.0;
    format      ascii;
    class       surfaceScalarField;
    location    "2050";
    object      phi;
}
// * * * * * * * * * * * * * * * * * * * * * * * * * * * * * * * * * * * * * //

dimensions      [1 0 -1 0 0 0 0];

internalField   nonuniform List<scalar> 
97302
(
-0.000109786
9.52103e-07
-0.000869481
0.000878756
-0.0001196
1.14147e-06
-0.000870484
0.000879157
-0.000129522
1.20062e-06
-0.000871009
0.000879731
-0.000140124
1.13868e-06
-0.000871048
0.000880511
-0.000152231
9.46604e-07
-0.000870596
0.000881757
-0.000167324
6.14274e-07
-0.00086943
0.000883908
-0.000188494
1.15205e-07
-0.000866943
0.000887998
-0.000222746
-5.9492e-07
-0.000861316
0.000896163
-0.000271323
-1.6385e-06
-0.000851528
0.000901745
-4.39546e-06
-0.00082403
-0.000352994
0.000910095
-0.000150901
1.60429e-06
-0.00116594
0.00117604
-0.000161173
1.96663e-06
-0.00116689
0.00117634
-0.000171517
2.0852e-06
-0.00116748
0.00117694
-0.000182472
1.99325e-06
-0.00116751
0.00117761
-0.000194833
1.67582e-06
-0.00116671
0.00117834
-0.000210313
1.12165e-06
-0.0011647
0.00117968
-0.000232765
2.73134e-07
-0.00116111
0.0011834
-0.000271567
-9.64894e-07
-0.00115432
0.00119349
-0.000328348
-2.89545e-06
-0.00114202
0.00120006
-7.45847e-06
-0.00110413
-0.000432767
0.00121161
-0.000191208
1.89864e-06
-0.00146131
0.00147216
-0.000201778
2.39491e-06
-0.00146232
0.00147246
-0.000212297
2.57641e-06
-0.00146294
0.00147297
-0.000223273
2.49995e-06
-0.00146273
0.0014732
-0.000235633
2.14745e-06
-0.00146139
0.00147328
-0.00025151
1.50832e-06
-0.00145872
0.00147421
-0.000275387
5.03342e-07
-0.00145484
0.00147849
-0.000318358
-9.65915e-07
-0.00144827
0.00149124
-0.000381692
-3.35129e-06
-0.00143511
0.0014989
-9.13309e-06
-0.0013864
-0.000500691
0.00150707
-0.000231438
2.08889e-06
-0.00175269
0.00176395
-0.000242302
2.72482e-06
-0.00175392
0.00176445
-0.000253116
2.98501e-06
-0.0017548
0.0017652
-0.000264406
2.94936e-06
-0.0017548
0.00176564
-0.000277164
2.58915e-06
-0.00175362
0.00176593
-0.000293712
1.89561e-06
-0.00175119
0.00176735
-0.000318863
7.66462e-07
-0.00174763
0.00177251
-0.000364969
-8.89893e-07
-0.0017414
0.00178743
-0.00043299
-3.67718e-06
-0.00172779
0.00179614
-1.06266e-05
-0.00166794
-0.000560753
0.0017972
-0.000271571
2.322e-06
-0.00204522
0.00205667
-0.000282605
3.02717e-06
-0.00204683
0.00205756
-0.000293587
3.32508e-06
-0.00204821
0.00205885
-0.000305072
3.30566e-06
-0.00204868
0.00205981
-0.000318119
2.93793e-06
-0.00204803
0.00206073
-0.000335169
2.21279e-06
-0.00204622
0.00206296
-0.000361326
1.0137e-06
-0.00204331
0.00206922
-0.000409968
-7.43267e-07
-0.00203777
0.00208626
-0.000481931
-3.81185e-06
-0.00202452
0.00209662
-1.18609e-05
-0.00195286
-0.000615168
0.00208733
-0.000312275
2.40764e-06
-0.00233635
0.0023481
-0.000323411
3.13833e-06
-0.00233841
0.00234944
-0.000334462
3.42407e-06
-0.00234019
0.00235114
-0.000346006
3.37698e-06
-0.00234107
0.00235254
-0.000359152
2.975e-06
-0.00234095
0.00235405
-0.000376429
2.2179e-06
-0.00233989
0.00235716
-0.000403212
9.87804e-07
-0.0023379
0.00236471
-0.000453747
-7.8152e-07
-0.00233347
0.00238404
-0.000529016
-3.90955e-06
-0.00232172
0.00239709
-1.28305e-05
-0.00223796
-0.000665772
0.00237569
-0.000352801
2.38637e-06
-0.00262732
0.00263919
-0.00036388
3.0248e-06
-0.00262997
0.00264116
-0.000374854
3.23973e-06
-0.00263231
0.00264346
-0.000386307
3.10676e-06
-0.00263366
0.00264538
-0.000399402
2.63074e-06
-0.00263411
0.00264755
-0.000416698
1.80428e-06
-0.00263387
0.00265158
-0.00044382
5.6354e-07
-0.00263301
0.00266055
-0.000495695
-1.1071e-06
-0.00263018
0.00268238
-0.000573748
-3.85872e-06
-0.00262109
0.00269909
-1.29874e-05
-0.002525
-0.00071251
0.00266392
-0.000394598
2.02642e-06
-0.00291885
0.00293115
-0.000405729
2.47568e-06
-0.0029221
0.00293378
-0.000416702
2.50429e-06
-0.00292455
0.00293625
-0.000428105
2.16553e-06
-0.00292584
0.00293819
-0.000441065
1.49553e-06
-0.00292619
0.00294028
-0.000458086
4.92335e-07
-0.00292611
0.00294444
-0.000484933
-8.15825e-07
-0.00292595
0.00295418
-0.000536999
-2.35818e-06
-0.00292456
0.00297788
-0.00061652
-4.1477e-06
-0.00291882
0.00299863
-1.21398e-05
-0.00281223
-0.000755681
0.00295055
-0.000435795
1.06901e-06
-0.00320673
0.00321917
-0.0004465
1.13645e-06
-0.00321084
0.00322288
-0.000457079
8.45532e-07
-0.0032139
0.00322614
-0.000468178
1.1199e-07
-0.00321581
0.00322896
-0.000480967
-9.47388e-07
-0.00321694
0.00323218
-0.000497831
-2.30737e-06
-0.00321787
0.00323754
-0.000524532
-3.78234e-06
-0.00321913
0.0032488
-0.000576325
-5.09724e-06
-0.00322004
0.00327457
-0.000655778
-5.50484e-06
-0.00321668
0.00329749
-1.01945e-05
-0.00309932
-0.000792428
0.00323402
-0.000477207
-0.00347531
0.00348833
-0.000488552
-0.00347891
0.00349139
-0.00049974
-0.00347962
0.00349165
-0.000511451
-0.00347706
0.00348888
-0.000524725
-0.0034719
0.00348423
-0.000541692
-0.00346521
0.00347987
-0.000567582
-0.00345814
0.00348025
-0.000616587
-0.00345221
0.00349612
-0.000689677
-0.0034486
0.00351618
-0.00333962
-0.000818677
0.00345842
1.4396e-05
8.89504e-07
-0.000861026
5.31301e-06
1.11418e-06
-0.000862515
-3.7908e-06
1.19493e-06
-0.0008631
-1.30991e-05
1.13727e-06
-0.000862877
-2.28112e-05
9.31302e-07
-0.000861815
-3.31453e-05
5.58664e-07
-0.000859654
-4.42485e-05
-1.47912e-08
-0.000855825
-5.55398e-05
-8.67862e-07
-0.000849157
-6.6235e-05
-2.19646e-06
-0.000838637
-3.96753e-06
-0.000822384
-6.39132e-05
1.54096e-05
1.51512e-06
-0.00115609
5.3915e-06
1.93144e-06
-0.00115769
-4.61619e-06
2.08516e-06
-0.00115837
-1.49309e-05
2.00595e-06
-0.00115806
-2.58177e-05
1.67195e-06
-0.00115657
-3.76394e-05
1.06086e-06
-0.00115339
-5.12324e-05
1.10936e-07
-0.00114764
-6.76402e-05
-1.29402e-06
-0.00113748
-8.82611e-05
-3.54111e-06
-0.00112005
-6.60734e-06
-0.0010911
-9.86429e-05
1.67385e-05
1.82694e-06
-0.00145026
6.008e-06
2.39103e-06
-0.00145205
-4.62981e-06
2.61452e-06
-0.00145283
-1.5507e-05
2.55223e-06
-0.0014524
-2.69613e-05
2.17107e-06
-0.00145043
-3.97265e-05
1.44739e-06
-0.00144634
-5.55482e-05
2.89256e-07
-0.0014392
-7.71553e-05
-1.42531e-06
-0.00142653
-0.000108635
-4.28118e-06
-0.00140289
-8.3937e-06
-0.00135936
-0.000133882
1.79545e-05
2.03595e-06
-0.00174095
6.74043e-06
2.7573e-06
-0.00174307
-4.38261e-06
3.06821e-06
-0.00174413
-1.58102e-05
3.05202e-06
-0.00174387
-2.79981e-05
2.66136e-06
-0.00174192
-4.19381e-05
1.87467e-06
-0.00173768
-5.99406e-05
5.59303e-07
-0.00172989
-8.61283e-05
-1.39837e-06
-0.00171524
-0.000128052
-4.79158e-06
-0.00168536
-9.90304e-06
-0.00162549
-0.000168998
1.90688e-05
2.28264e-06
-0.00203308
7.56839e-06
3.0826e-06
-0.00203565
-3.83507e-06
3.43731e-06
-0.00203717
-1.55981e-05
3.44336e-06
-0.00203731
-2.83143e-05
3.04932e-06
-0.0020357
-4.31615e-05
2.23306e-06
-0.00203173
-6.29156e-05
8.2289e-07
-0.00202382
-9.2995e-05
-1.28513e-06
-0.0020078
-0.00014489
-5.07298e-06
-0.00197234
-1.10609e-05
-0.0018952
-0.000201392
1.97724e-05
2.40096e-06
-0.00232379
8.09483e-06
3.23552e-06
-0.00232689
-3.43924e-06
3.58575e-06
-0.0023288
-1.53449e-05
3.57446e-06
-0.0023293
-2.83358e-05
3.15724e-06
-0.00232806
-4.37531e-05
2.32189e-06
-0.00232456
-6.48014e-05
8.76792e-07
-0.0023169
-9.80675e-05
-1.27195e-06
-0.00230021
-0.000159355
-5.20559e-06
-0.0022603
-1.18799e-05
-0.0021657
-0.000230799
2.01843e-05
2.37145e-06
-0.00261449
8.52954e-06
3.11218e-06
-0.00261819
-2.95418e-06
3.3969e-06
-0.00262063
-1.47987e-05
3.31247e-06
-0.00262155
-2.78476e-05
2.85394e-06
-0.00262075
-4.35525e-05
1.99193e-06
-0.00261783
-6.54966e-05
5.50988e-07
-0.00261074
-0.000101306
-1.56266e-06
-0.00259408
-0.000171273
-5.24329e-06
-0.00255108
-1.22459e-05
-0.0024391
-0.000256802
1.99257e-05
2.03556e-06
-0.0029056
8.26933e-06
2.59084e-06
-0.00290992
-3.10777e-06
2.71958e-06
-0.00291249
-1.47852e-05
2.48209e-06
-0.00291333
-2.76619e-05
1.90924e-06
-0.00291236
-4.32632e-05
9.68029e-07
-0.00290949
-6.54721e-05
-4.33889e-07
-0.00290276
-0.000102749
-2.40555e-06
-0.00288644
-0.000180117
-5.21875e-06
-0.00284148
-1.18973e-05
-0.00271328
-0.000279419
1.93953e-05
1.07461e-06
-0.00319321
8.20889e-06
1.21948e-06
-0.00319828
-2.66356e-06
1.05945e-06
-0.00320137
-1.38328e-05
4.74896e-07
-0.00320264
-2.6352e-05
-4.03212e-07
-0.00320211
-4.18574e-05
-1.58423e-06
-0.00319982
-6.44362e-05
-3.00976e-06
-0.00319397
-0.000103038
-4.6743e-06
-0.00317917
-0.000186367
-6.14808e-06
-0.00313242
-1.00744e-05
-0.00298565
-0.000301862
1.82401e-05
-0.00346151
6.8021e-06
-0.00346626
-4.11955e-06
-0.00346764
-1.52134e-05
-0.00346549
-2.74199e-05
-0.0034601
-4.23434e-05
-0.00345187
-6.39044e-05
-0.00343959
-0.000101287
-0.0034195
-0.000186015
-0.00337002
-0.0032157
-0.000320008
1.20262e-05
7.78221e-07
-0.000854355
4.42362e-06
1.01829e-06
-0.000855931
-3.29414e-06
1.10632e-06
-0.000856489
-1.10371e-05
1.04188e-06
-0.000856176
-1.8682e-05
8.18412e-07
-0.000854989
-2.59839e-05
4.20114e-07
-0.000852773
-3.23909e-05
-1.7503e-07
-0.000849243
-3.6599e-05
-1.00494e-06
-0.000843944
-3.67274e-05
-2.15339e-06
-0.000836355
-3.43167e-06
-0.000826709
-2.89707e-05
1.38785e-05
1.36344e-06
-0.00114758
4.85318e-06
1.80366e-06
-0.00114945
-4.23323e-06
1.96674e-06
-0.00115014
-1.34716e-05
1.87609e-06
-0.00114966
-2.28681e-05
1.51023e-06
-0.00114786
-3.22719e-05
8.44598e-07
-0.00114441
-4.12822e-05
-1.74255e-07
-0.00113863
-4.87469e-05
-1.61885e-06
-0.0011294
-5.22014e-05
-3.70429e-06
-0.00111505
-6.12659e-06
-0.00109586
-4.47554e-05
1.59828e-05
1.71056e-06
-0.0014401
5.78089e-06
2.30572e-06
-0.00144235
-4.41549e-06
2.53927e-06
-0.00144321
-1.48018e-05
2.45901e-06
-0.0014426
-2.54734e-05
2.02699e-06
-0.00144028
-3.64934e-05
1.20798e-06
-0.00143569
-4.79757e-05
-9.28755e-08
-0.0014278
-5.9452e-05
-1.97341e-06
-0.0014147
-6.85117e-05
-4.84355e-06
-0.00139269
-8.36367e-06
-0.00136069
-6.49457e-05
1.76321e-05
1.97016e-06
-0.00172975
6.64109e-06
2.73368e-06
-0.00173251
-4.34128e-06
3.05675e-06
-0.00173366
-1.56259e-05
3.018e-06
-0.00173314
-2.74587e-05
2.56338e-06
-0.00173062
-4.01694e-05
1.65522e-06
-0.00172541
-5.43188e-05
1.45495e-07
-0.00171598
-7.00989e-05
-2.08644e-06
-0.00169935
-8.58003e-05
-5.70309e-06
-0.0016688
-1.0332e-05
-0.00162109
-8.82327e-05
1.90366e-05
2.26206e-06
-0.0020212
7.53682e-06
3.11099e-06
-0.00202453
-3.93375e-06
3.48188e-06
-0.00202613
-1.57939e-05
3.46658e-06
-0.00202589
-2.84689e-05
3.00619e-06
-0.00202347
-4.2541e-05
2.05881e-06
-0.00201807
-5.90231e-05
4.21276e-07
-0.00200761
-7.89045e-05
-2.05525e-06
-0.00198795
-0.000101935
-6.29858e-06
-0.00194871
-1.1967e-05
-0.00188339
-0.000112117
1.9974e-05
2.42937e-06
-0.00231131
8.1375e-06
3.3173e-06
-0.00231526
-3.61603e-06
3.68831e-06
-0.00231725
-1.57994e-05
3.6631e-06
-0.00231731
-2.89957e-05
3.18526e-06
-0.00231504
-4.4037e-05
2.22143e-06
-0.00230968
-6.24229e-05
5.3831e-07
-0.00229864
-8.60475e-05
-2.03633e-06
-0.00227661
-0.00011687
-6.63512e-06
-0.00222914
-1.31771e-05
-0.00214513
-0.000136227
2.05256e-05
2.42324e-06
-0.00260157
8.60858e-06
3.21726e-06
-0.00260618
-3.18724e-06
3.52867e-06
-0.00260868
-1.54205e-05
3.44368e-06
-0.0026091
-2.88406e-05
2.94907e-06
-0.0026071
-4.44896e-05
1.99866e-06
-0.00260196
-6.43516e-05
3.5688e-07
-0.00259069
-9.12567e-05
-2.19904e-06
-0.00256701
-0.000129975
-6.76343e-06
-0.00251223
-1.39465e-05
-0.00240904
-0.000159274
2.03491e-05
2.09862e-06
-0.0028922
8.40183e-06
2.70338e-06
-0.00289746
-3.31034e-06
2.87554e-06
-0.00290013
-1.5409e-05
2.67843e-06
-0.00290047
-2.87383e-05
2.1279e-06
-0.00289821
-4.45296e-05
1.17727e-06
-0.00289287
-6.52356e-05
-3.25419e-07
-0.00288137
-9.4582e-05
-2.64559e-06
-0.00285665
-0.000140684
-6.40027e-06
-0.00279574
-1.37362e-05
-0.00267359
-0.000180578
1.9736e-05
1.15147e-06
-0.0031795
8.24145e-06
1.3288e-06
-0.00318541
-2.97049e-06
1.24863e-06
-0.00318853
-1.45263e-05
7.73374e-07
-0.00318917
-2.74278e-05
2.66065e-08
-0.00318711
-4.31493e-05
-1.01267e-06
-0.00318191
-6.46488e-05
-2.33597e-06
-0.00317046
-9.64388e-05
-4.08963e-06
-0.00314593
-0.000148896
-6.37025e-06
-0.00307999
-1.1512e-05
-0.00293619
-0.000200579
1.8574e-05
-0.00344765
6.99739e-06
-0.00345335
-4.10637e-06
-0.00345529
-1.54473e-05
-0.00345338
-2.79177e-05
-0.0034476
-4.30021e-05
-0.0034378
-6.3699e-05
-0.00342123
-9.54099e-05
-0.00339188
-0.000150679
-0.00332112
-0.00316254
-0.00021535
9.33388e-06
6.09379e-07
-0.000849525
3.46379e-06
8.52936e-07
-0.000850914
-2.58746e-06
9.45065e-07
-0.000851383
-8.54653e-06
8.79006e-07
-0.000851096
-1.41067e-05
6.53364e-07
-0.000850082
-1.88452e-05
2.59253e-07
-0.000848293
-2.21198e-05
-3.10267e-07
-0.000845658
-2.28921e-05
-1.05739e-06
-0.000842115
-1.95794e-05
-1.97861e-06
-0.000837689
-2.86235e-06
-0.000832843
-1.05827e-05
1.17252e-05
1.11743e-06
-0.00114075
4.10747e-06
1.56788e-06
-0.00114255
-3.63895e-06
1.73616e-06
-0.00114319
-1.13765e-05
1.63805e-06
-0.00114268
-1.88889e-05
1.2564e-06
-0.00114095
-2.57872e-05
5.73181e-07
-0.00113782
-3.1312e-05
-4.43096e-07
-0.00113297
-3.39457e-05
-1.81461e-06
-0.00112601
-3.08497e-05
-3.60144e-06
-0.00111652
-5.4167e-06
-0.001106
-1.81527e-05
1.44342e-05
1.48946e-06
-0.00143133
5.25783e-06
2.10106e-06
-0.0014337
-3.98524e-06
2.33748e-06
-0.00143457
-1.32955e-05
2.23667e-06
-0.00143389
-2.25666e-05
1.76239e-06
-0.00143151
-3.15038e-05
8.79936e-07
-0.00142706
-3.94294e-05
-4.88133e-07
-0.00141983
-4.47338e-05
-2.39461e-06
-0.00140882
-4.3491e-05
-5.03365e-06
-0.0013925
-7.89109e-06
-0.001373
-2.87087e-05
1.65208e-05
1.80161e-06
-0.00171965
6.22583e-06
2.5942e-06
-0.00172271
-4.13238e-06
2.92106e-06
-0.00172389
-1.46912e-05
2.85183e-06
-0.0017232
-2.54957e-05
2.33289e-06
-0.00172039
-3.64572e-05
1.3223e-06
-0.00171489
-4.71082e-05
-3.16024e-07
-0.0017055
-5.58647e-05
-2.67446e-06
-0.00169031
-5.78748e-05
-6.17527e-06
-0.00166565
-1.01707e-05
-0.0016338
-4.28848e-05
1.82711e-05
2.14452e-06
-0.00201012
7.19042e-06
3.03184e-06
-0.00201389
-3.92241e-06
3.41037e-06
-0.0020155
-1.53438e-05
3.36174e-06
-0.00201498
-2.73107e-05
2.82548e-06
-0.00201199
-3.99846e-05
1.75032e-06
-0.00200582
-5.32028e-05
-6.44635e-08
-0.00199464
-6.55986e-05
-2.76475e-06
-0.00197547
-7.19259e-05
-7.05157e-06
-0.00194151
-1.21894e-05
-0.00189466
-5.86285e-05
1.95032e-05
2.37203e-06
-0.00229939
7.8724e-06
3.30444e-06
-0.0023039
-3.733e-06
3.6879e-06
-0.00230593
-1.57153e-05
3.6354e-06
-0.0023056
-2.84884e-05
3.08404e-06
-0.00230253
-4.24892e-05
1.98616e-06
-0.00229592
-5.79576e-05
9.74456e-08
-0.00228333
-7.39561e-05
-2.78019e-06
-0.00226059
-8.55249e-05
-7.60397e-06
-0.00221702
-1.37637e-05
-0.00215328
-7.58004e-05
2.02593e-05
2.40996e-06
-0.00258901
8.39303e-06
3.24999e-06
-0.00259425
-3.4019e-06
3.57923e-06
-0.00259677
-1.56061e-05
3.47809e-06
-0.00259674
-2.8821e-05
2.92414e-06
-0.00259372
-4.37436e-05
1.85958e-06
-0.00258691
-6.10746e-05
2.46469e-08
-0.00257329
-8.0447e-05
-2.86409e-06
-0.00254755
-9.78684e-05
-7.85251e-06
-0.00249456
-1.4894e-05
-0.00241264
-9.31306e-05
2.02392e-05
2.11366e-06
-0.00287905
8.27018e-06
2.76112e-06
-0.002885
-3.51584e-06
2.96343e-06
-0.00288772
-1.56846e-05
2.78549e-06
-0.00288761
-2.89504e-05
2.22527e-06
-0.00288425
-4.42591e-05
1.22807e-06
-0.00287693
-6.28385e-05
-3.99552e-07
-0.00286236
-8.50367e-05
-3.01876e-06
-0.0028343
-0.000108506
-7.32868e-06
-0.00277279
-1.48288e-05
-0.00267208
-0.00011009
1.96915e-05
1.20045e-06
-0.00316592
8.11716e-06
1.4056e-06
-0.00317248
-3.23002e-06
1.39033e-06
-0.00317561
-1.49164e-05
1.00005e-06
-0.0031757
-2.7795e-05
3.46657e-07
-0.00317235
-4.30453e-05
-6.06766e-07
-0.00316482
-6.25168e-05
-1.89428e-06
-0.0031495
-8.76684e-05
-3.75108e-06
-0.00312005
-0.00011705
-6.49486e-06
-0.00305145
-1.22149e-05
-0.00292921
-0.000126645
1.86043e-05
-0.00343398
7.06935e-06
-0.00344041
-4.05874e-06
-0.00344277
-1.54502e-05
-0.00344099
-2.78749e-05
-0.00343483
-4.25519e-05
-0.00342373
-6.14318e-05
-0.00340425
-8.7066e-05
-0.00337
-0.000119681
-0.003295
-0.00315503
-0.000139404
6.84933e-06
4.24413e-07
-0.00084618
2.57494e-06
6.55022e-07
-0.000847294
-1.89857e-06
7.4572e-07
-0.000847655
-6.24083e-06
6.83393e-07
-0.000847437
-1.01072e-05
4.71577e-07
-0.000846687
-1.30926e-05
1.0937e-07
-0.000845417
-1.47036e-05
-3.9481e-07
-0.000843652
-1.43361e-05
-1.01968e-06
-0.000841462
-1.13198e-05
-1.71954e-06
-0.000838986
-2.32799e-06
-0.000836471
-5.36433e-06
9.38736e-06
8.23131e-07
-0.00113554
3.29755e-06
1.26285e-06
-0.00113707
-2.96834e-06
1.42955e-06
-0.0011376
-9.13036e-06
1.33043e-06
-0.00113716
-1.4846e-05
9.54104e-07
-0.00113572
-1.96458e-05
2.9389e-07
-0.00113321
-2.2814e-05
-6.55285e-07
-0.00112955
-2.32474e-05
-1.87158e-06
-0.00112473
-1.92828e-05
-3.31193e-06
-0.00111889
-4.631e-06
-0.00111321
-9.76516e-06
1.24559e-05
1.18977e-06
-0.00142416
4.59137e-06
1.79797e-06
-0.00142637
-3.40612e-06
2.03092e-06
-0.00142717
-1.13537e-05
1.91457e-06
-0.00142653
-1.89764e-05
1.41794e-06
-0.00142435
-2.58019e-05
5.165e-07
-0.00142045
-3.0954e-05
-8.36075e-07
-0.00141449
-3.2854e-05
-2.64207e-06
-0.00140614
-2.86145e-05
-4.92165e-06
-0.00139513
-7.13831e-06
-0.00138372
-1.53866e-05
1.48901e-05
1.53623e-06
-0.00171096
5.63884e-06
2.34177e-06
-0.001714
-3.75147e-06
2.66696e-06
-0.00171513
-1.32146e-05
2.56938e-06
-0.00171439
-2.25865e-05
2.0004e-06
-0.0017116
-3.15015e-05
9.24514e-07
-0.00170639
-3.90672e-05
-7.60872e-07
-0.00169801
-4.33515e-05
-3.09792e-06
-0.00168557
-4.0033e-05
-6.26669e-06
-0.00166762
-9.53436e-06
-0.00164759
-2.38431e-05
1.69719e-05
1.92213e-06
-0.0020002
6.66601e-06
2.83574e-06
-0.00200407
-3.74492e-06
3.21708e-06
-0.00200564
-1.43382e-05
3.13384e-06
-0.00200495
-2.51202e-05
2.52825e-06
-0.00200174
-3.59134e-05
1.34957e-06
-0.00199545
-4.594e-05
-5.73008e-07
-0.0019848
-5.30681e-05
-3.3424e-06
-0.00196809
-5.16601e-05
-7.37285e-06
-0.00194181
-1.17672e-05
-0.00191045
-3.36387e-05
1.85147e-05
2.21014e-06
-0.00228841
7.42922e-06
3.17902e-06
-0.00229316
-3.70366e-06
3.57085e-06
-0.00229515
-1.51052e-05
3.4872e-06
-0.00229455
-2.69526e-05
2.86277e-06
-0.00229102
-3.93123e-05
1.64355e-06
-0.00228385
-5.16578e-05
-3.95946e-07
-0.00227116
-6.18707e-05
-3.42849e-06
-0.0022503
-6.33671e-05
-8.11852e-06
-0.00221478
-1.35848e-05
-0.00216983
-4.50066e-05
1.95079e-05
2.30528e-06
-0.00257719
8.00538e-06
3.18755e-06
-0.00258276
-3.49368e-06
3.53182e-06
-0.00258524
-1.53156e-05
3.41013e-06
-0.00258484
-2.78311e-05
2.7923e-06
-0.00258114
-4.13644e-05
1.61179e-06
-0.00257335
-5.57424e-05
-3.8639e-07
-0.00255892
-6.9036e-05
-3.4767e-06
-0.00253421
-7.42153e-05
-8.48376e-06
-0.00248902
-1.49486e-05
-0.00242864
-5.68545e-05
1.96905e-05
2.04834e-06
-0.0028665
7.98006e-06
2.73929e-06
-0.00287284
-3.61936e-06
2.96749e-06
-0.00287556
-1.55463e-05
2.80036e-06
-0.00287507
-2.82973e-05
2.21917e-06
-0.00287093
-4.24509e-05
1.16067e-06
-0.00286233
-5.83071e-05
-5.87133e-07
-0.00284631
-7.43906e-05
-3.40642e-06
-0.00281828
-8.38701e-05
-7.90868e-06
-0.00276389
-1.50056e-05
-0.00268684
-6.90447e-05
1.9268e-05
1.20051e-06
-0.00315283
7.86519e-06
1.43423e-06
-0.00315977
-3.38761e-06
1.47583e-06
-0.00316287
-1.49378e-05
1.1546e-06
-0.00316251
-2.74296e-05
5.71442e-07
-0.00315821
-4.16482e-05
-3.26387e-07
-0.00314911
-5.83915e-05
-1.60577e-06
-0.00313174
-7.72878e-05
-3.53734e-06
-0.00310102
-9.15592e-05
-6.47443e-06
-0.00303861
-1.20771e-05
-0.00294221
-8.14819e-05
1.82898e-05
-0.0034208
7.00033e-06
-0.00342769
-3.96706e-06
-0.00343032
-1.51894e-05
-0.00342861
-2.72606e-05
-0.00342219
-4.10512e-05
-0.00341026
-5.75062e-05
-0.0033894
-7.70913e-05
-0.00335395
-9.41514e-05
-0.00328441
-0.00317041
-9.08525e-05
4.81655e-06
2.51478e-07
-0.000843921
1.84273e-06
4.56176e-07
-0.000844777
-1.31447e-06
5.40533e-07
-0.000845038
-4.34608e-06
4.86002e-07
-0.000844892
-6.94544e-06
2.99994e-07
-0.000844388
-8.78989e-06
-1.24908e-08
-0.00084356
-9.55028e-06
-4.33162e-07
-0.000842458
-8.91208e-06
-9.30052e-07
-0.000841171
-6.64605e-06
-1.44677e-06
-0.000839805
-1.86535e-06
-0.000838405
-2.84618e-06
7.16933e-06
5.21977e-07
-0.00113172
2.51934e-06
9.30267e-07
-0.00113289
-2.32247e-06
1.08828e-06
-0.00113331
-7.02469e-06
9.95034e-07
-0.00113297
-1.12147e-05
6.44708e-07
-0.00113187
-1.4451e-05
4.18069e-08
-0.00113002
-1.61744e-05
-7.97133e-07
-0.00112746
-1.57044e-05
-1.82379e-06
-0.0011243
-1.22595e-05
-2.9498e-06
-0.00112083
-3.90627e-06
-0.00111778
-5.65262e-06
1.03342e-05
8.50478e-07
-0.00141852
3.86888e-06
1.43167e-06
-0.00142041
-2.77457e-06
1.65383e-06
-0.00142109
-9.29104e-06
1.5303e-06
-0.00142054
-1.53068e-05
1.03698e-06
-0.00141873
-2.03016e-05
1.63781e-07
-0.00141558
-2.34783e-05
-1.10143e-06
-0.00141101
-2.36619e-05
-2.7191e-06
-0.00140507
-1.9147e-05
-4.61003e-06
-0.00139799
-6.31083e-06
-0.00139137
-9.091e-06
1.29527e-05
1.20254e-06
-0.00170379
4.94816e-06
1.99877e-06
-0.00170656
-3.26094e-06
2.31561e-06
-0.00170759
-1.14348e-05
2.19719e-06
-0.00170688
-1.92463e-05
1.60305e-06
-0.00170435
-2.61806e-05
5.11621e-07
-0.0016998
-3.12786e-05
-1.13556e-06
-0.00169288
-3.2887e-05
-3.32757e-06
-0.00168336
-2.8024e-05
-6.07074e-06
-0.00167102
-8.68258e-06
-0.0016587
-1.45454e-05
1.5282e-05
1.61274e-06
-0.00199164
6.01499e-06
2.53335e-06
-0.00199534
-3.42943e-06
2.91136e-06
-0.00199679
-1.29317e-05
2.79845e-06
-0.00199605
-2.22875e-05
2.14364e-06
-0.00199292
-3.1079e-05
9.05805e-07
-0.00198705
-3.82924e-05
-1.03826e-06
-0.00197769
-4.18759e-05
-3.73164e-06
-0.00196411
-3.73973e-05
-7.34188e-06
-0.00194502
-1.09821e-05
-0.00192468
-2.08732e-05
1.7099e-05
1.9512e-06
-0.00227865
6.84701e-06
2.94174e-06
-0.00228331
-3.53087e-06
3.33664e-06
-0.00228519
-1.40552e-05
3.22358e-06
-0.00228445
-2.46639e-05
2.53967e-06
-0.0022808
-3.51108e-05
1.23406e-06
-0.00227373
-4.44651e-05
-8.76417e-07
-0.00226197
-5.04405e-05
-3.90911e-06
-0.00224414
-4.72122e-05
-8.23485e-06
-0.00221711
-1.2905e-05
-0.0021866
-2.85169e-05
1.83233e-05
2.1087e-06
-0.00256642
7.47504e-06
3.0239e-06
-0.00257199
-3.44849e-06
3.37952e-06
-0.00257435
-1.45842e-05
3.23755e-06
-0.00257372
-2.60508e-05
2.56409e-06
-0.0025697
-3.78159e-05
1.29151e-06
-0.00256164
-4.91477e-05
-8.05643e-07
-0.00254766
-5.76857e-05
-3.9487e-06
-0.00252564
-5.64437e-05
-8.68645e-06
-0.00248981
-1.43481e-05
-0.00244716
-3.64847e-05
1.87282e-05
1.89712e-06
-0.00285485
7.55066e-06
2.6284e-06
-0.00286127
-3.60032e-06
2.87791e-06
-0.00286391
-1.49953e-05
2.71638e-06
-0.00286316
-2.68828e-05
2.11199e-06
-0.00285859
-3.94569e-05
9.99852e-07
-0.00284946
-5.23262e-05
-8.25029e-07
-0.00283342
-6.33388e-05
-3.70817e-06
-0.00280751
-6.48607e-05
-8.09612e-06
-0.00276296
-1.44334e-05
-0.00270664
-4.49753e-05
1.84632e-05
1.14483e-06
-0.00314054
7.48802e-06
1.40555e-06
-0.00314758
-3.42776e-06
1.49551e-06
-0.00315057
-1.45709e-05
1.22875e-06
-0.00314988
-2.63518e-05
6.97015e-07
-0.00314502
-3.91559e-05
-1.63615e-07
-0.00313515
-5.29359e-05
-1.43744e-06
-0.00311734
-6.63015e-05
-3.37789e-06
-0.00308799
-7.12596e-05
-6.28806e-06
-0.00303546
-1.1287e-05
-0.00296301
-5.36116e-05
1.76224e-05
-0.00340841
6.79002e-06
-0.00341545
-3.81594e-06
-0.00341822
-1.4639e-05
-0.00341656
-2.60683e-05
-0.00341006
-3.86055e-05
-0.00339789
-5.23906e-05
-0.00337705
-6.65656e-05
-0.00334315
-7.36959e-05
-0.00328357
-0.00319581
-5.95777e-05
3.29108e-06
1.07602e-07
-0.000842398
1.28815e-06
2.7937e-07
-0.000843053
-8.66359e-07
3.54219e-07
-0.000843238
-2.92006e-06
3.09537e-07
-0.000843148
-4.63247e-06
1.5536e-07
-0.000842831
-5.77047e-06
-1.0028e-07
-0.000842322
-6.12981e-06
-4.34794e-07
-0.000841664
-5.55923e-06
-8.14898e-07
-0.000840926
-4.01142e-06
-1.18858e-06
-0.000840164
-1.47498e-06
-0.000839296
-1.6458e-06
5.24899e-06
2.45873e-07
-0.00112896
1.83119e-06
6.07134e-07
-0.0011298
-1.7672e-06
7.50637e-07
-0.00113011
-5.22945e-06
6.68611e-07
-0.00112987
-8.21478e-06
3.59711e-07
-0.00112909
-1.03599e-05
-1.63257e-07
-0.00112782
-1.12714e-05
-8.70213e-07
-0.00112611
-1.05667e-05
-1.70151e-06
-0.00112412
-7.94673e-06
-2.56046e-06
-0.00112208
-3.25139e-06
-0.00112041
-3.53737e-06
8.28474e-06
5.09168e-07
-0.00141422
3.15574e-06
1.0408e-06
-0.00141571
-2.16823e-06
1.24478e-06
-0.00141626
-7.33214e-06
1.12283e-06
-0.00141583
-1.19354e-05
6.57522e-07
-0.00141442
-1.54916e-05
-1.47245e-07
-0.00141204
-1.73725e-05
-1.27554e-06
-0.00140873
-1.68201e-05
-2.65937e-06
-0.00140466
-1.29823e-05
-4.17559e-06
-0.00140021
-5.46762e-06
-0.00139636
-5.77708e-06
1.08995e-05
8.35727e-07
-0.00169808
4.20916e-06
1.59726e-06
-0.00170043
-2.72867e-06
1.89792e-06
-0.0017013
-9.56135e-06
1.76847e-06
-0.0017007
-1.58691e-05
1.17815e-06
-0.00169857
-2.10941e-05
1.22146e-07
-0.00169484
-2.43873e-05
-1.41464e-06
-0.00168945
-2.45453e-05
-3.37632e-06
-0.00168248
-1.98139e-05
-5.665e-06
-0.00167426
-7.72061e-06
-0.00166672
-9.5402e-06
1.33476e-05
1.24506e-06
-0.00198452
5.27942e-06
2.14739e-06
-0.00198782
-3.02437e-06
2.5141e-06
-0.00198911
-1.12882e-05
2.38019e-06
-0.0019884
-1.91562e-05
1.70436e-06
-0.00198558
-2.60799e-05
4.61402e-07
-0.00198047
-3.10461e-05
-1.41843e-06
-0.00197272
-3.24048e-05
-3.91783e-06
-0.00196221
-2.72123e-05
-7.02678e-06
-0.00194885
-9.97899e-06
-0.00193581
-1.38196e-05
1.53588e-05
1.61546e-06
-0.00227026
6.156e-06
2.60557e-06
-0.00227457
-3.24403e-06
2.9961e-06
-0.00227628
-1.26808e-05
2.85943e-06
-0.0022755
-2.18959e-05
2.13935e-06
-0.00227202
-3.0429e-05
7.96797e-07
-0.00226554
-3.72128e-05
-1.29562e-06
-0.00225531
-4.02426e-05
-4.18798e-06
-0.00224084
-3.52489e-05
-8.00958e-06
-0.00222113
-1.18916e-05
-0.00220078
-1.91543e-05
1.67711e-05
1.83197e-06
-0.0025569
6.82205e-06
2.76346e-06
-0.0025622
-3.28062e-06
3.12443e-06
-0.00256438
-1.34848e-05
2.96564e-06
-0.00256362
-2.36832e-05
2.25389e-06
-0.00255961
-3.35629e-05
9.2939e-07
-0.00255189
-4.21046e-05
-1.18581e-06
-0.00253923
-4.70682e-05
-4.23473e-06
-0.00252063
-4.28687e-05
-8.50599e-06
-0.00249351
-1.32775e-05
-0.00246407
-2.45653e-05
1.73914e-05
1.6652e-06
-0.00284434
6.99395e-06
2.42728e-06
-0.00285054
-3.46413e-06
2.69186e-06
-0.00285302
-1.40728e-05
2.53325e-06
-0.00285212
-2.48452e-05
1.91089e-06
-0.00284747
-3.56482e-05
7.66039e-07
-0.0028385
-4.56536e-05
-1.07832e-06
-0.00282352
-5.26148e-05
-3.88784e-06
-0.0028009
-4.99876e-05
-7.91567e-06
-0.00276618
-1.32826e-05
-0.00272614
-3.04908e-05
1.7296e-05
1.03341e-06
-0.00312931
6.98955e-06
1.31583e-06
-0.00313616
-3.35258e-06
1.44496e-06
-0.00313898
-1.38373e-05
1.22024e-06
-0.00313808
-2.46459e-05
7.26972e-07
-0.00313303
-3.58156e-05
-1.03359e-07
-0.00312311
-4.67373e-05
-1.3582e-06
-0.00310614
-5.55491e-05
-3.23841e-06
-0.00307982
-5.5115e-05
-5.95442e-06
-0.00303785
-1.01064e-05
-0.00298516
-3.61366e-05
1.66135e-05
-0.00339708
6.44234e-06
-0.00340396
-3.60088e-06
-0.00340673
-1.38041e-05
-0.00340513
-2.43475e-05
-0.00339879
-3.5395e-05
-0.00338695
-4.65276e-05
-0.00336728
-5.61796e-05
-0.00333674
-5.7375e-05
-0.00328833
-0.00322361
-3.96868e-05
2.21193e-06
-8.89876e-10
-0.000841356
8.93627e-07
1.36954e-07
-0.000841872
-5.42898e-07
2.01184e-07
-0.000842003
-1.90615e-06
1.66582e-07
-0.000841951
-3.02086e-06
4.47821e-08
-0.000841761
-3.72697e-06
-1.5553e-07
-0.00084146
-3.90062e-06
-4.1169e-07
-0.000841079
-3.47115e-06
-6.94174e-07
-0.000840662
-2.44943e-06
-9.60522e-07
-0.000840225
-1.15587e-06
-0.00083962
-9.69482e-07
3.694e-06
1.4121e-08
-0.00112697
1.26082e-06
3.20316e-07
-0.00112755
-1.32606e-06
4.45808e-07
-0.00112777
-3.79925e-06
3.78e-07
-0.00112761
-5.87764e-06
1.18635e-07
-0.00112709
-7.28485e-06
-3.15051e-07
-0.00112625
-7.75919e-06
-8.87358e-07
-0.00112516
-7.09727e-06
-1.53816e-06
-0.00112394
-5.213e-06
-2.17985e-06
-0.00112275
-2.67336e-06
-0.00112182
-2.29054e-06
6.44925e-06
1.95456e-07
-0.001411
2.50206e-06
6.6027e-07
-0.00141211
-1.63132e-06
8.40042e-07
-0.00141252
-5.60397e-06
7.26828e-07
-0.00141221
-9.04129e-06
3.08503e-07
-0.00141118
-1.15311e-05
-4.00776e-07
-0.00140946
-1.26142e-05
-1.36656e-06
-0.00140716
-1.18345e-05
-2.50793e-06
-0.00140447
-8.82494e-06
-3.69231e-06
-0.00140171
-4.65823e-06
-0.00139946
-3.74665e-06
8.89209e-06
4.69898e-07
-0.00169364
3.47447e-06
1.17272e-06
-0.00169552
-2.20639e-06
1.44941e-06
-0.00169623
-7.74952e-06
1.31873e-06
-0.00169575
-1.27099e-05
7.59336e-07
-0.00169406
-1.65604e-05
-2.17962e-07
-0.00169118
-1.86205e-05
-1.59427e-06
-0.00168716
-1.8087e-05
-3.28338e-06
-0.00168224
-1.4046e-05
-5.1372e-06
-0.00167686
-6.7235e-06
-0.00167225
-6.45129e-06
1.13183e-05
8.51602e-07
-0.00197876
4.50649e-06
1.70821e-06
-0.00198155
-2.57575e-06
2.05469e-06
-0.00198263
-9.55491e-06
1.91006e-06
-0.00198201
-1.59933e-05
1.24379e-06
-0.00197963
-2.13078e-05
4.88221e-08
-0.00197542
-2.46089e-05
-1.69589e-06
-0.00196932
-2.4691e-05
-3.92369e-06
-0.00196148
-1.98175e-05
-6.51447e-06
-0.00195235
-8.85568e-06
-0.00194404
-9.45527e-06
1.34179e-05
1.23052e-06
-0.00226324
5.39506e-06
2.19321e-06
-0.00226703
-2.87822e-06
2.57028e-06
-0.00226852
-1.11042e-05
2.41843e-06
-0.00226778
-1.88927e-05
1.69096e-06
-0.00226468
-2.56748e-05
3.65905e-07
-0.00225907
-3.04237e-05
-1.6264e-06
-0.00225063
-3.15573e-05
-4.272e-06
-0.00223936
-2.63085e-05
-7.52692e-06
-0.00222536
-1.06684e-05
-0.00221194
-1.33367e-05
1.49462e-05
1.49496e-06
-0.00254876
6.07604e-06
2.41995e-06
-0.00255356
-3.01399e-06
2.77817e-06
-0.0025555
-1.21107e-05
2.60848e-06
-0.00255471
-2.09336e-05
1.88214e-06
-0.00255098
-2.89919e-05
5.54288e-07
-0.00254402
-3.5194e-05
-1.49783e-06
-0.00253316
-3.76491e-05
-4.33326e-06
-0.00251811
-3.24396e-05
-8.03099e-06
-0.00249822
-1.19094e-05
-0.0024782
-1.70752e-05
1.57509e-05
1.36544e-06
-0.00283513
6.33226e-06
2.14266e-06
-0.00284084
-3.226e-06
2.4145e-06
-0.00284309
-1.28462e-05
2.25873e-06
-0.00284215
-2.23466e-05
1.6304e-06
-0.00283772
-3.13608e-05
4.83683e-07
-0.00282941
-3.88657e-05
-1.31801e-06
-0.00281619
-4.28103e-05
-3.94533e-06
-0.00279734
-3.83377e-05
-7.46949e-06
-0.00277121
-1.17982e-05
-0.00274328
-2.13084e-05
1.58162e-05
8.71838e-07
-0.00311935
6.38428e-06
1.16678e-06