/*--------------------------------*- C++ -*----------------------------------*\
| =========                 |                                                 |
| \\      /  F ield         | foam-extend: Open Source CFD                    |
|  \\    /   O peration     | Version:     4.0                                |
|   \\  /    A nd           | Web:         http://www.foam-extend.org         |
|    \\/     M anipulation  |                                                 |
\*---------------------------------------------------------------------------*/
FoamFile
{
    version     2.0;
    format      ascii;
    class       volScalarField;
    location    "2050";
    object      rho;
}
// * * * * * * * * * * * * * * * * * * * * * * * * * * * * * * * * * * * * * //

dimensions      [1 -3 0 0 0 0 0];

internalField   nonuniform List<scalar> 
34480
(
1.34602
1.34531
1.34521
1.34566
1.34688
1.34919
1.3534
1.3615
1.37221
1.3767
1.34694
1.34627
1.34622
1.34668
1.34784
1.35003
1.35414
1.3623
1.37416
1.37604
1.34571
1.34506
1.34507
1.34546
1.34646
1.34836
1.35218
1.35998
1.37223
1.36886
1.34459
1.34402
1.34407
1.34444
1.34532
1.34692
1.35034
1.35741
1.36944
1.36051
1.3435
1.34291
1.343
1.34332
1.34408
1.34539
1.34841
1.35471
1.36623
1.35221
1.34338
1.34291
1.34303
1.34336
1.34405
1.34514
1.34778
1.35329
1.36399
1.34518
1.34208
1.34157
1.34172
1.34202
1.34266
1.34359
1.34592
1.35075
1.36047
1.33769
1.34283
1.3425
1.34276
1.34328
1.34415
1.3453
1.34762
1.35195
1.36042
1.33374
1.34131
1.341
1.34128
1.34184
1.34285
1.34424
1.34666
1.35067
1.35758
1.32783
1.33854
1.33846
1.33927
1.34077
1.343
1.34597
1.35004
1.35555
1.36263
1.32901
1.35291
1.35181
1.35142
1.35165
1.35261
1.35443
1.35734
1.36168
1.36851
1.37745
1.35348
1.35224
1.35182
1.35207
1.35309
1.35509
1.3585
1.3642
1.37448
1.3893
1.35198
1.35065
1.35021
1.35038
1.3513
1.35319
1.35671
1.36311
1.3761
1.39518
1.35065
1.34926
1.34876
1.34882
1.34961
1.3513
1.35465
1.36106
1.37565
1.39763
1.34945
1.34794
1.34736
1.34727
1.34789
1.34928
1.35232
1.35837
1.37383
1.39757
1.34922
1.34772
1.34707
1.34689
1.34735
1.34845
1.35111
1.35654
1.37221
1.39647
1.34788
1.34626
1.34555
1.34524
1.34554
1.34638
1.34865
1.35342
1.36882
1.39298
1.3486
1.34704
1.34633
1.3461
1.34648
1.34734
1.34946
1.35363
1.36818
1.39133
1.34711
1.34553
1.34476
1.34447
1.34478
1.34564
1.34766
1.35145
1.36459
1.38718
1.34443
1.34293
1.34252
1.34288
1.34404
1.34594
1.349
1.35371
1.36637
1.38768
1.35766
1.35673
1.35642
1.35667
1.35757
1.35918
1.36159
1.36488
1.36902
1.37352
1.3582
1.35703
1.35665
1.35697
1.35808
1.36011
1.36323
1.36775
1.3744
1.38229
1.35654
1.35523
1.35485
1.35517
1.35635
1.35853
1.36208
1.36763
1.37695
1.38863
1.35497
1.35357
1.35312
1.35338
1.35454
1.35676
1.36054
1.36671
1.37813
1.39326
1.35356
1.35201
1.35151
1.35166
1.35272
1.35483
1.35864
1.36503
1.37807
1.39621
1.35308
1.35152
1.35094
1.35102
1.35198
1.35394
1.35764
1.36396
1.37811
1.39858
1.35154
1.34987
1.34924
1.3492
1.35004
1.3518
1.35533
1.36144
1.37627
1.39862
1.35208
1.35046
1.34981
1.34983
1.3507
1.35246
1.35592
1.36179
1.37669
1.40009
1.35052
1.34886
1.34817
1.3481
1.34885
1.35049
1.35382
1.35959
1.37393
1.39839
1.34782
1.34621
1.34574
1.34612
1.34743
1.34973
1.35366
1.36003
1.37414
1.39889
1.36095
1.36028
1.36004
1.36024
1.36091
1.36204
1.36363
1.36559
1.36773
1.36956
1.36179
1.36079
1.36046
1.36074
1.36168
1.36331
1.3657
1.36883
1.37273
1.37648
1.36035
1.35913
1.35876
1.35907
1.36017
1.36213
1.36514
1.36936
1.37549
1.38198
1.3588
1.35741
1.35696
1.35726
1.35843
1.36061
1.36411
1.36928
1.37762
1.3871
1.35737
1.35581
1.35529
1.35551
1.35667
1.3589
1.3627
1.36851
1.3788
1.3913
1.35678
1.35516
1.35457
1.35473
1.35585
1.35806
1.362
1.36819
1.38012
1.39539
1.35515
1.3534
1.35276
1.35282
1.35386
1.35598
1.35994
1.36632
1.37955
1.39744
1.35556
1.35384
1.35318
1.35328
1.35434
1.35649
1.3605
1.36698
1.38098
1.40095
1.35393
1.35217
1.35147
1.35151
1.35249
1.35454
1.35847
1.36507
1.3792
1.40125
1.3512
1.34949
1.34894
1.34929
1.35066
1.35316
1.35748
1.3645
1.37864
1.4022
1.36324
1.3628
1.36265
1.36278
1.36323
1.36398
1.36498
1.36613
1.36729
1.36819
1.36441
1.36364
1.36339
1.36361
1.36433
1.36554
1.36723
1.36931
1.3716
1.37358
1.36335
1.3623
1.36198
1.36225
1.36319
1.3648
1.36715
1.37019
1.37396
1.37752
1.36194
1.36069
1.36028
1.36057
1.36165
1.36359
1.36654
1.37057
1.37611
1.38172
1.36063
1.35916
1.35868
1.35892
1.36007
1.3622
1.3656
1.37044
1.37776
1.38565
1.36003
1.35846
1.3579
1.35812
1.35928
1.36151
1.36524
1.37071
1.3797
1.38993
1.35839
1.35667
1.35605
1.35619
1.35733
1.35958
1.36349
1.36943
1.37992
1.39255
1.35874
1.35702
1.35637
1.35655
1.35773
1.36004
1.36413
1.37043
1.38206
1.39683
1.35708
1.35531
1.35463
1.35476
1.35589
1.35817
1.3623
1.36891
1.38115
1.39821
1.35436
1.35262
1.35203
1.35238
1.35377
1.35636
1.36077
1.36776
1.38026
1.39921
1.36484
1.36459
1.36449
1.36458
1.36487
1.36532
1.36591
1.36656
1.36716
1.36756
1.36629
1.36574
1.36555
1.36571
1.36622
1.36706
1.36819
1.36949
1.37083
1.37189
1.36564
1.36481
1.36454
1.36476
1.36549
1.36673
1.36846
1.37056
1.37289
1.37487
1.36446
1.36339
1.36303
1.36329
1.36421
1.36581
1.36815
1.37115
1.37477
1.37808
1.36335
1.36204
1.36161
1.36185
1.36289
1.36477
1.36763
1.37146
1.37648
1.3814
1.36283
1.36138
1.36086
1.3611
1.36221
1.36429
1.36757
1.37213
1.3786
1.38527
1.36125
1.35962
1.35904
1.35923
1.36038
1.36256
1.36616
1.37132
1.37919
1.38779
1.3616
1.35995
1.35933
1.35955
1.36075
1.36305
1.36692
1.37259
1.38168
1.39215
1.35993
1.35821
1.35757
1.35776
1.35895
1.36128
1.36527
1.37138
1.38133
1.39394
1.35728
1.35557
1.35498
1.35532
1.35668
1.35923
1.36345
1.36991
1.38029
1.3946
1.36601
1.36589
1.36584
1.36589
1.36606
1.36633
1.36666
1.36702
1.36734
1.36752
1.36763
1.36727
1.36714
1.36724
1.36758
1.36814
1.36885
1.36965
1.37042
1.37101
1.36736
1.36674
1.36654
1.3667
1.36724
1.36813
1.36934
1.37075
1.3722
1.37336
1.36641
1.36556
1.36526
1.36547
1.3662
1.36746
1.36922
1.37137
1.37374
1.37576
1.36556
1.36445
1.36408
1.3643
1.36518
1.36674
1.36902
1.37192
1.37536
1.37846
1.36516
1.36389
1.36343
1.36366
1.36466
1.36647
1.36922
1.37283
1.37742
1.38177
1.36369
1.36222
1.3617
1.36191
1.36298
1.36496
1.36809
1.37236
1.37811
1.38391
1.36409
1.36257
1.362
1.36224
1.36339
1.36554
1.36899
1.37383
1.38069
1.38797
1.36245
1.36084
1.36025
1.36047
1.36164
1.36387
1.3675
1.37281
1.38056
1.38961
1.3599
1.35829
1.35772
1.35804
1.35933
1.36172
1.36556
1.37121
1.37942
1.38979
1.36692
1.36687
1.36685
1.36688
1.36698
1.36713
1.36732
1.36751
1.36768
1.36774
1.3686
1.36837
1.36828
1.36835
1.36857
1.36892
1.36936
1.36983
1.37027
1.3706
1.36865
1.3682
1.36805
1.36817
1.36855
1.36917
1.36998
1.37089
1.37178
1.37246
1.36789
1.36724
1.36701
1.36717
1.36773
1.36866
1.36993
1.37142
1.37297
1.37422
1.3673
1.36641
1.3661
1.36628
1.367
1.36823
1.36997
1.37209
1.37441
1.3764
1.36705
1.36598
1.36559
1.3658
1.36665
1.36815
1.37034
1.3731
1.37632
1.37918
1.36571
1.36444
1.36399
1.36419
1.36514
1.36685
1.36944
1.37282
1.37697
1.38089
1.3662
1.36487
1.36436
1.3646
1.36564
1.36755
1.37048
1.37441
1.37948
1.3845
1.36461
1.36316
1.36263
1.36286
1.36394
1.36596
1.36911
1.37351
1.37934
1.38568
1.36221
1.36075
1.36022
1.36052
1.36169
1.36384
1.36717
1.37188
1.37816
1.38545
1.36766
1.36766
1.36765
1.36767
1.36772
1.36781
1.36791
1.36802
1.3681
1.3681
1.36931
1.36917
1.36912
1.36916
1.3693
1.36951
1.36977
1.37005
1.37031
1.37049
1.36961
1.3693
1.3692
1.36928
1.36953
1.36995
1.37047
1.37105
1.37159
1.37199
1.369
1.36853
1.36835
1.36847
1.36887
1.36954
1.37042
1.37143
1.37242
1.3732
1.36865
1.36795
1.36771
1.36786
1.36841
1.36934
1.37062
1.37212
1.37367
1.37494
1.36854
1.36768
1.36737
1.36754
1.36823
1.36942
1.3711
1.37313
1.37535
1.37724
1.36735
1.36629
1.36591
1.36609
1.36689
1.3683
1.37035
1.37293
1.37587
1.37852
1.36796
1.36683
1.36639
1.36661
1.36751
1.36912
1.37151
1.37458
1.37824
1.38168
1.36641
1.36515
1.3647
1.36491
1.36587
1.36761
1.37023
1.37372
1.378
1.38234
1.3642
1.36292
1.36245
1.36271
1.36374
1.3656
1.36838
1.37214
1.3768
1.38182
1.36829
1.36831
1.36832
1.36832
1.36836
1.3684
1.36846
1.36852
1.36856
1.36853
1.36985
1.36977
1.36974
1.36977
1.36985
1.36997
1.37013
1.37029
1.37044
1.37054
1.37034
1.37014
1.37007
1.37012
1.37029
1.37055
1.37089
1.37124
1.37157
1.3718
1.36982
1.36948
1.36936
1.36944
1.36972
1.37018
1.37078
1.37144
1.37208
1.37256
1.36967
1.36916
1.36898
1.36908
1.36949
1.37017
1.37108
1.37211
1.37313
1.37393
1.36969
1.36903
1.36878
1.36892
1.36945
1.37036
1.3716
1.37306
1.37457
1.37579
1.36863
1.36778
1.36748
1.36763
1.36827
1.36939
1.37096
1.37286
1.3749
1.37667
1.36938
1.36845
1.3681
1.36828
1.36903
1.37034
1.37221
1.37452
1.37712
1.37942
1.36787
1.36682
1.36643
1.36662
1.36743
1.36887
1.37096
1.37364
1.3767
1.37963
1.36588
1.3648
1.3644
1.36463
1.3655
1.36703
1.36927
1.37217
1.37554
1.37893
1.36885
1.36889
1.36889
1.3689
1.36892
1.36894
1.36897
1.369
1.36902
1.36898
1.37027
1.37023
1.37021
1.37022
1.37027
1.37035
1.37044
1.37053
1.37062
1.37068
1.37091
1.37078
1.37074
1.37077
1.37087
1.37104
1.37125
1.37146
1.37166
1.37179
1.37042
1.37019
1.3701
1.37015
1.37034
1.37065
1.37105
1.37148
1.37188
1.37218
1.37044
1.37007
1.36994
1.37002
1.37031
1.37079
1.37142
1.37211
1.37277
1.37328
1.37056
1.37007
1.36988
1.36998
1.37038
1.37105
1.37194
1.37296
1.37397
1.37475
1.36961
1.36896
1.36872
1.36884
1.36934
1.37019
1.37135
1.37271
1.3741
1.37527
1.3705
1.36978
1.36949
1.36965
1.37024
1.37126
1.37267
1.37437
1.37617
1.37768
1.36901
1.36816
1.36786
1.36801
1.36867
1.36981
1.37142
1.37341
1.37556
1.3775
1.36728
1.36641
1.36608
1.36626
1.36697
1.36819
1.36993
1.37209
1.37447
1.37673
1.36936
1.3694
1.36941
1.36942
1.36943
1.36944
1.36946
1.36947
1.36948
1.36943
1.3706
1.37058
1.37057
1.37057
1.3706
1.37065
1.3707
1.37076
1.37081
1.37084
1.37137
1.37129
1.37126
1.37128
1.37134
1.37145
1.37157
1.3717
1.37181
1.37188
1.37085
1.3707
1.37064
1.37067
1.3708
1.371
1.37126
1.37153
1.37178
1.37197
1.37102
1.37077
1.37068
1.37073
1.37093
1.37126
1.37168
1.37213
1.37256
1.37287
1.3712
1.37085
1.37071
1.37079
1.37108
1.37155
1.37217
1.37286
1.37353
1.37403
1.37034
1.36986
1.36968
1.36977
1.37014
1.37076
1.37159
1.37255
1.37348
1.37424
1.37137
1.37083
1.37061
1.37073
1.37119
1.37195
1.37299
1.37419
1.37542
1.37639
1.36988
1.36922
1.36898
1.3691
1.36961
1.37048
1.37168
1.37311
1.37459
1.37587
1.36844
1.36775
1.36749
1.36764
1.36819
1.36913
1.37043
1.37199
1.37364
1.37512
1.36984
1.36988
1.36989
1.36989
1.3699
1.36991
1.36991
1.36992
1.36992
1.36987
1.37085
1.37084
1.37084
1.37084
1.37086
1.37089
1.37092
1.37095
1.37098
1.37101
1.37175
1.3717
1.37168
1.3717
1.37174
1.3718
1.37187
1.37194
1.37201
1.37204
1.37117
1.37107
1.37103
1.37105
1.37113
1.37126
1.37142
1.37159
1.37175
1.37187
1.37146
1.37128
1.37122
1.37126
1.37139
1.37161
1.37189
1.37218
1.37245
1.37264
1.37167
1.37143
1.37133
1.37138
1.37158
1.37191
1.37233
1.37279
1.37323
1.37354
1.37088
1.37053
1.3704
1.37047
1.37073
1.37117
1.37175
1.3724
1.37301
1.3735
1.37205
1.37166
1.3715
1.37159
1.37192
1.37247
1.37321
1.37404
1.37486
1.37548
1.37051
1.37001
1.36983
1.36993
1.37031
1.37095
1.37181
1.37281
1.37381
1.37464
1.36939
1.36888
1.36868
1.36879
1.3692
1.3699
1.37084
1.37194
1.37305
1.37401
1.3703
1.37034
1.37035
1.37035
1.37035
1.37035
1.37036
1.37036
1.37036
1.3703
1.37104
1.37104
1.37103
1.37104
1.37105
1.37106
1.37108
1.37111
1.37112
1.37114
1.37207
1.37205
1.37204
1.37205
1.37207
1.37211
1.37215
1.37219
1.37222
1.37223
1.37139
1.37133
1.3713
1.37131
1.37136
1.37144
1.37154
1.37165
1.37175
1.37183
1.37178
1.37167
1.37163
1.37165
1.37174
1.37188
1.37205
1.37224
1.3724
1.37252
1.372
1.37184
1.37177
1.37181
1.37194
1.37216
1.37244
1.37274
1.37302
1.37321
1.37127
1.37102
1.37093
1.37098
1.37116
1.37146
1.37185
1.37228
1.37267
1.37299
1.37257
1.3723
1.37218
1.37225
1.37249
1.37287
1.37338
1.37393
1.37448
1.37485
1.37095
1.37058
1.37046
1.37052
1.3708
1.37125
1.37185
1.37253
1.37319
1.37373
1.3702
1.36982
1.36968
1.36976
1.37006
1.37055
1.37121
1.37196
1.3727
1.37331
1.37075
1.37079
1.3708
1.3708
1.3708
1.3708
1.3708
1.3708
1.37079
1.37074
1.37116
1.37116
1.37116
1.37116
1.37116
1.37118
1.37119
1.37121
1.37122
1.37124
1.37236
1.37235
1.37235
1.37235
1.37237
1.37239
1.37241
1.37243
1.37245
1.37244
1.37154
1.3715
1.37148
1.37149
1.37152
1.37157
1.37163
1.3717
1.37176
1.37181
1.37201
1.37194
1.37192
1.37193
1.37199
1.37208
1.37219
1.3723
1.3724
1.37247
1.37222
1.37212
1.37207
1.37209
1.37218
1.37232
1.3725
1.3727
1.37287
1.37299
1.37154
1.37137
1.37131
1.37135
1.37147
1.37167
1.37192
1.3722
1.37244
1.37265
1.37297
1.3728
1.37272
1.37276
1.37292
1.37319
1.37353
1.37389
1.37424
1.37446
1.37123
1.37096
1.37087
1.37092
1.37111
1.37142
1.37183
1.37228
1.3727
1.37305
1.37091
1.37064
1.37054
1.3706
1.37081
1.37115
1.3716
1.37209
1.37257
1.37296
1.37125
1.37128
1.37129
1.37129
1.37129
1.37129
1.37129
1.37129
1.37128
1.37123
1.3712
1.3712
1.3712
1.3712
1.3712
1.37121
1.37122
1.37124
1.37125
1.37127
1.37262
1.37262
1.37262
1.37263
1.37263
1.37264
1.37266
1.37266
1.37267
1.37265
1.37164
1.37161
1.3716
1.37161
1.37163
1.37166
1.37169
1.37173
1.37177
1.3718
1.37217
1.37212
1.37211
1.37212
1.37215
1.3722
1.37227
1.37234
1.3724
1.37244
1.37234
1.37227
1.37224
1.37226
1.37231
1.3724
1.37252
1.37264
1.37275
1.37282
1.37172
1.37162
1.37158
1.37161
1.37169
1.37181
1.37197
1.37214
1.37229
1.37242
1.37328
1.37317
1.37311
1.37314
1.37325
1.37342
1.37365
1.37388
1.37411
1.37422
1.37136
1.37117
1.37111
1.37114
1.37127
1.37148
1.37174
1.37203
1.37229
1.37253
1.37161
1.37143
1.37136
1.3714
1.37154
1.37176
1.37206
1.37237
1.37268
1.37292
1.37192
1.37195
1.37195
1.37196
1.37196
1.37195
1.37195
1.37195
1.37194
1.37189
1.37114
1.37113
1.37113
1.37113
1.37113
1.37114
1.37115
1.37116
1.37118
1.3712
1.37283
1.37284
1.37283
1.37284
1.37284
1.37285
1.37286
1.37286
1.37286
1.37284
1.3717
1.37168
1.37168
1.37168
1.37169
1.37171
1.37173
1.37175
1.37177
1.37179
1.37223
1.37221
1.3722
1.3722
1.37222
1.37225
1.37229
1.37234
1.37237
1.3724
1.37236
1.37232
1.3723
1.37231
1.37234
1.3724
1.37247
1.37254
1.37262
1.37266
1.37184
1.37178
1.37176
1.37177
1.37183
1.37191
1.372
1.3721
1.37218
1.37226
1.37346
1.37338
1.37334
1.37336
1.37343
1.37354
1.37369
1.37383
1.37399
1.37405
1.37133
1.3712
1.37117
1.37119
1.37127
1.3714
1.37157
1.37175
1.37191
1.37207
1.37244
1.37232
1.37227
1.3723
1.37239
1.37254
1.37273
1.37293
1.37312
1.37326
1.37301
1.37303
1.37304
1.37304
1.37304
1.37304
1.37303
1.37303
1.37302
1.37297
1.37088
1.37088
1.37088
1.37088
1.37088
1.37088
1.37089
1.3709
1.37091
1.37094
1.37292
1.37291
1.37291
1.3729
1.37291
1.37291
1.37292
1.37293
1.37293
1.37292
1.37172
1.37172
1.37172
1.37173
1.37173
1.37174
1.37175
1.37176
1.37177
1.37177
1.37222
1.3722
1.37219
1.37219
1.37221
1.37223
1.37225
1.37228
1.37231
1.37232
1.3723
1.37227
1.37225
1.37226
1.37228
1.37231
1.37236
1.37241
1.37245
1.37249
1.37189
1.37185
1.37184
1.37186
1.37189
1.37194
1.372
1.37206
1.3721
1.37214
1.37337
1.37332
1.37329
1.3733
1.37334
1.37341
1.37351
1.37361
1.37372
1.37376
1.37105
1.37098
1.37096
1.37097
1.37103
1.37111
1.37122
1.37132
1.37141
1.37152
1.37364
1.37356
1.37352
1.37354
1.3736
1.3737
1.37382
1.37395
1.37409
1.37416
1.37476
1.37478
1.37478
1.37477
1.37477
1.37477
1.37477
1.37477
1.37477
1.37475
1.3703
1.3703
1.37032
1.37033
1.37033
1.37033
1.37033
1.37033
1.37032
1.37033
1.37274
1.37272
1.3727
1.37269
1.37269
1.3727
1.37271
1.37273
1.37275
1.37276
1.37176
1.37176
1.37177
1.37177
1.37178
1.37178
1.37179
1.37179
1.37178
1.37178
1.37216
1.37214
1.37214
1.37214
1.37214
1.37216
1.37218
1.3722
1.37222
1.37223
1.37219
1.37217
1.37216
1.37216
1.37218
1.3722
1.37223
1.37226
1.3723
1.37232
1.37189
1.37188
1.37187
1.37188
1.3719
1.37194
1.37198
1.37202
1.37204
1.37205
1.37289
1.37284
1.37282
1.37282
1.37285
1.3729
1.37297
1.37305
1.37314
1.3732
1.37042
1.37038
1.37037
1.37039
1.37043
1.37049
1.37056
1.37062
1.37066
1.37071
1.37539
1.37534
1.37531
1.37532
1.37536
1.37543
1.37552
1.37561
1.37571
1.37576
1.37662
1.3766
1.37659
1.37658
1.37658
1.37658
1.37659
1.3766
1.37663
1.37666
1.36955
1.36961
1.36965
1.36967
1.36968
1.36968
1.36966
1.36963
1.36958
1.3695
1.37237
1.37233
1.37231
1.3723
1.3723
1.37231
1.37232
1.37234
1.37237
1.37242
1.37182
1.37183
1.37184
1.37184
1.37185
1.37185
1.37185
1.37185
1.37185
1.37183
1.37211
1.3721
1.37209
1.37209
1.3721
1.37211
1.37213
1.37214
1.37216
1.37217
1.37213
1.37211
1.3721
1.37211
1.37212
1.37214
1.37217
1.3722
1.37222
1.37224
1.37193
1.37192
1.37191
1.37192
1.37194
1.37197
1.37201
1.37204
1.37207
1.37207
1.37227
1.37221
1.37219
1.3722
1.37222
1.37227
1.37233
1.3724
1.37247
1.37255
1.36966
1.36966
1.36965
1.36966
1.3697
1.36975
1.36981
1.36987
1.36989
1.36985
1.37717
1.37712
1.3771
1.37711
1.37715
1.37721
1.37728
1.37736
1.37745
1.37748
1.47348
1.47907
1.47564
1.46845
1.50623
1.51196
1.50511
1.49434
1.53267
1.53772
1.52802
1.51472
1.55162
1.55553
1.54299
1.52767
1.56628
1.56878
1.55351
1.53668
1.5782
1.57925
1.56306
1.5443
1.58617
1.58558
1.56994
1.54884
1.5933
1.59097
1.57615
1.55276
1.59116
1.58695
1.57273
1.54729
1.58334
1.57812
1.56556
1.53898
1.37269
1.37237
1.37292
1.37398
1.39414
1.39551
1.39651
1.39618
1.41354
1.41625
1.4175
1.41558
1.43215
1.43607
1.43745
1.43361
1.44964
1.45441
1.45575
1.44984
1.46659
1.47188
1.47294
1.46534
1.48074
1.48629
1.48695
1.47825
1.49501
1.50064
1.50098
1.49165
1.50199
1.50761
1.5078
1.49824
1.50562
1.51174
1.51193
1.50272
1.3769
1.37735
1.37753
1.37754
1.38962
1.39061
1.3909
1.39074
1.4017
1.40328
1.40371
1.40336
1.41346
1.41572
1.41625
1.41554
1.425
1.4279
1.42847
1.42722
1.43722
1.44074
1.44128
1.43934
1.44783
1.45187
1.45236
1.44965
1.45972
1.46416
1.46457
1.46106
1.46572
1.47049
1.47083
1.46647
1.46922
1.47476
1.4751
1.46973
1.37015
1.37011
1.37014
1.37025
1.37818
1.37842
1.37852
1.37854
1.38605
1.3866
1.3868
1.38675
1.39441
1.39539
1.39573
1.39556
1.40286
1.40433
1.4048
1.4044
1.41224
1.41425
1.41484
1.41412
1.42041
1.42294
1.42362
1.42248
1.43031
1.43332
1.43405
1.43244
1.43517
1.43861
1.43942
1.43731
1.43784
1.44213
1.44308
1.44028
1.36875
1.3687
1.3687
1.36876
1.37441
1.37456
1.37462
1.37462
1.37942
1.37974
1.37986
1.37983
1.38514
1.38569
1.38588
1.38583
1.39114
1.39196
1.39226
1.39215
1.39814
1.3993
1.3997
1.39949
1.40408
1.40559
1.4061
1.40574
1.41198
1.41385
1.41446
1.41389
1.41588
1.41809
1.41886
1.41809
1.4179
1.4209
1.42186
1.42063
1.36796
1.36787
1.36785
1.36791
1.37219
1.37224
1.37227
1.37229
1.37559
1.37571
1.37578
1.37579
1.37952
1.37978
1.3799
1.37992
1.38386
1.38429
1.38448
1.38449
1.38917
1.38981
1.39009
1.39008
1.39349
1.39436
1.39473
1.39467
1.39986
1.40099
1.40145
1.40131
1.403
1.40439
1.40501
1.40481
1.40422
1.40626
1.40704
1.4065
1.36787
1.36776
1.36773
1.36779
1.37118
1.3712
1.37122
1.37123
1.37371
1.37377
1.37381
1.37382
1.37645
1.37658
1.37665
1.37668
1.37964
1.37986
1.37998
1.38002
1.3837
1.38405
1.38424
1.38428
1.38678
1.38729
1.38754
1.38758
1.39194
1.39262
1.39295
1.39297
1.39436
1.39522
1.39567
1.39568
1.39477
1.39617
1.39673
1.39645
1.36806
1.36794
1.36791
1.36797
1.37069
1.3707
1.37071
1.37072
1.37265
1.37268
1.3727
1.37271
1.37459
1.37465
1.3747
1.37471
1.37701
1.37713
1.37721
1.37724
1.38019
1.38039
1.38051
1.38055
1.38238
1.38267
1.38284
1.3829
1.3866
1.387
1.38723
1.38729
1.38827
1.3888
1.3891
1.38916
1.38803
1.38903
1.38941
1.3892
1.3684
1.36828
1.36825
1.36831
1.37054
1.37055
1.37055
1.37056
1.3721
1.37211
1.37212
1.37213
1.37341
1.37345
1.37348
1.37349
1.37529
1.37536
1.3754
1.37543
1.37782
1.37794
1.37801
1.37804
1.37936
1.37953
1.37964
1.37968
1.38286
1.3831
1.38324
1.3833
1.38381
1.38414
1.38433
1.38438
1.38314
1.38389
1.38414
1.38395
1.36882
1.3687
1.36867
1.36872
1.37057
1.37058
1.37058
1.37058
1.37186
1.37187
1.37187
1.37188
1.37269
1.37271
1.37273
1.37274
1.37414
1.37418
1.37421
1.37423
1.37614
1.37622
1.37626
1.37628
1.37716
1.37727
1.37734
1.37737
1.38012
1.38027
1.38036
1.3804
1.38049
1.3807
1.38082
1.38086
1.37958
1.38017
1.38033
1.38014
1.36926
1.36913
1.3691
1.36916
1.3707
1.3707
1.3707
1.3707
1.37182
1.37183
1.37183
1.37183
1.37226
1.37227
1.37228
1.37229
1.3734
1.37343
1.37344
1.37345
1.37498
1.37502
1.37505
1.37506
1.37557
1.37563
1.37568
1.3757
1.37811
1.3782
1.37826
1.37829
1.37802
1.37815
1.37823
1.37826
1.377
1.37749
1.37759
1.3774
1.3697
1.36957
1.36954
1.3696
1.37085
1.37085
1.37086
1.37086
1.3719
1.3719
1.37191
1.37191
1.37202
1.37203
1.37204
1.37204
1.37295
1.37296
1.37297
1.37298
1.37418
1.3742
1.37422
1.37423
1.37442
1.37446
1.37449
1.37451
1.37666
1.37672
1.37676
1.37677
1.37619
1.37628
1.37633
1.37634
1.37518
1.3756
1.37567
1.37548
1.37013
1.37001
1.36997
1.37003
1.37101
1.37101
1.37101
1.37101
1.37205
1.37205
1.37205
1.37205
1.3719
1.3719
1.37191
1.37191
1.37268
1.37269
1.3727
1.3727
1.37364
1.37366
1.37367
1.37367
1.37361
1.37364
1.37366
1.37367
1.37565
1.37568
1.37571
1.37572
1.37485
1.3749
1.37493
1.37494
1.37395
1.37431
1.37436
1.37418
1.37056
1.37043
1.3704
1.37046
1.37115
1.37115
1.37115
1.37115
1.37224
1.37224
1.37224
1.37224
1.37184
1.37185
1.37185
1.37185
1.37254
1.37255
1.37255
1.37255
1.37328
1.37329
1.3733
1.3733
1.37305
1.37307
1.37308
1.37309
1.37497
1.37499
1.375
1.37501
1.37386
1.37389
1.37391
1.37392
1.37319
1.3735
1.37353
1.37336
1.37099
1.37086
1.37083
1.37089
1.37124
1.37124
1.37124
1.37124
1.37245
1.37245
1.37244
1.37244
1.37182
1.37182
1.37182
1.37183
1.37248
1.37248
1.37248
1.37248
1.37304
1.37305
1.37305
1.37306
1.37267
1.37268
1.37268
1.37269
1.37454
1.37455
1.37456
1.37456
1.37313
1.37315
1.37317
1.37317
1.3728
1.37307
1.37309
1.37294
1.37146
1.37133
1.3713
1.37136
1.37127
1.37127
1.37127
1.37127
1.37266
1.37266
1.37266
1.37266
1.3718
1.3718
1.3718
1.37181
1.37245
1.37245
1.37245
1.37245
1.37286
1.37287
1.37287
1.37287
1.37241
1.37241
1.37242
1.37242
1.37429
1.3743
1.3743
1.3743
1.37257
1.37259
1.3726
1.3726
1.37275
1.37298
1.373
1.37286
1.3721
1.37197
1.37194
1.37201
1.37119
1.37119
1.37119
1.3712
1.37286
1.37286
1.37285
1.37285
1.37178
1.37178
1.37178
1.37178
1.37241
1.37241
1.37241
1.37241
1.37269
1.3727
1.3727
1.3727
1.37223
1.37223
1.37223
1.37224
1.37411
1.37412
1.37412
1.37412
1.37208
1.37209
1.3721
1.3721
1.3731
1.37328
1.3733
1.37319
1.37316
1.37304
1.37301
1.37307
1.37092
1.37092
1.37092
1.37093
1.37295
1.37296
1.37295
1.37295
1.37175
1.37174
1.37174
1.37175
1.37233
1.37234
1.37234
1.37234
1.37252
1.37252
1.37252
1.37252
1.37209
1.37208
1.37208
1.37209
1.37385
1.37386
1.37387
1.37386
1.37151
1.37152
1.37152
1.37153
1.37403
1.37416
1.37417
1.3741
1.37489
1.37479
1.37477
1.37483
1.37027
1.37027
1.37026
1.37027
1.37283
1.37284
1.37285
1.37285
1.37174
1.37173
1.37173
1.37173
1.37224
1.37225
1.37225
1.37225
1.37234
1.37235
1.37235
1.37235
1.372
1.37199
1.37199
1.37199
1.37333
1.37336
1.37336
1.37336
1.37063
1.37062
1.37062
1.37063
1.37573
1.37582
1.37583
1.37578
1.37676
1.3767
1.3767
1.37674
1.36929
1.36925
1.36924
1.36924
1.37252
1.37254
1.37255
1.37255
1.37179
1.37178
1.37177
1.37177
1.37219
1.37219
1.37219
1.37219
1.37226
1.37226
1.37226
1.37226
1.37202
1.37201
1.37201
1.37201
1.37272
1.37275
1.37276
1.37275
1.36957
1.3695
1.36949
1.36953
1.37768
1.37773
1.37773
1.37769
1.42997
1.40547
1.38432
1.37004
1.36147
1.35618
1.35269
1.35031
1.34866
1.34747
1.44224
1.40925
1.38406
1.36924
1.36101
1.35596
1.3527
1.35052
1.34904
1.34799
1.44376
1.40719
1.37969
1.36642
1.3586
1.35381
1.35068
1.34858
1.34724
1.34645
1.44053
1.40326
1.37432
1.36342
1.35615
1.3519
1.34907
1.3472
1.34598
1.34525
1.43462
1.39829
1.36948
1.36044
1.35355
1.34984
1.34727
1.34563
1.34456
1.34402
1.42734
1.3943
1.36608
1.35887
1.35229
1.34915
1.34682
1.3454
1.34445
1.34388
1.41709
1.38918
1.36151
1.35614
1.34973
1.34716
1.345
1.34378
1.34291
1.34248
1.40915
1.38708
1.35994
1.35642
1.35013
1.34807
1.34596
1.34481
1.34391
1.34332
1.39813
1.38109
1.35508
1.35364
1.34781
1.34635
1.34431
1.34324
1.34239
1.34181
1.39501
1.3812
1.35577
1.35491
1.3482
1.34608
1.34324
1.34157
1.34025
1.33916
1.37775
1.37497
1.37163
1.36827
1.36504
1.36214
1.35964
1.35756
1.35587
1.35458
1.39541
1.38744
1.37999
1.37363
1.36835
1.36419
1.36097
1.35848
1.35652
1.35506
1.40834
1.39527
1.38409
1.37535
1.36849
1.3634
1.35965
1.35687
1.3548
1.35343
1.41796
1.40035
1.38597
1.37573
1.36798
1.36252
1.35859
1.35573
1.35359
1.35215
1.42425
1.40335
1.38628
1.37512
1.36684
1.36125
1.35728
1.35443
1.35229
1.35091
1.42903
1.40605
1.38679
1.3752
1.36662
1.3611
1.35715
1.35436
1.35223
1.35077
1.43061
1.40654
1.38544
1.37376
1.36499
1.3596
1.35569
1.35296
1.35082
1.34941
1.43289
1.40874
1.38625
1.37488
1.36603
1.36082
1.35687
1.3541
1.3519
1.35028
1.43043
1.40637
1.38353
1.3731
1.36454
1.35958
1.35558
1.35276
1.35052
1.34884
1.43081
1.4074
1.38418
1.3738
1.36458
1.359
1.35438
1.35104
1.34842
1.34626
1.37676
1.37472
1.37217
1.36958
1.36716
1.36499
1.3631
1.3615
1.36016
1.35911
1.38893
1.38438
1.37915
1.37449
1.37063
1.36749
1.36491
1.36279
1.36106
1.35971
1.39984
1.39195
1.38359
1.3767
1.37131
1.36716
1.36392
1.3614
1.35943
1.35805
1.40967
1.39809
1.38679
1.37816
1.37164
1.36679
1.36312
1.36032
1.35816
1.35662
1.41816
1.40275
1.38869
1.37863
1.37124
1.36593
1.36199
1.35904
1.35676
1.35521
1.42627
1.40722
1.39068
1.37956
1.37152
1.36593
1.36184
1.35882
1.35649
1.35483
1.43182
1.40943
1.39066
1.37879
1.37025
1.36453
1.36033
1.35728
1.3549
1.35328
1.43811
1.413
1.39249
1.38027
1.37142
1.36564
1.36135
1.35821
1.35577
1.35396
1.43916
1.41201
1.39091
1.37905
1.37028
1.36453
1.36011
1.35688
1.35436
1.35249
1.44031
1.41224
1.39083
1.37884
1.36955
1.36333
1.35848
1.35488
1.3521
1.34986
1.37018
1.3697
1.3689
1.36789
1.36678
1.36566
1.36458
1.3636
1.36273
1.36204
1.37822
1.37682
1.37487
1.37278
1.37071
1.36877
1.36702
1.36546
1.36413
1.36304
1.38585
1.38287
1.37909
1.3754
1.37207
1.36918
1.36674
1.36469
1.36301
1.36177
1.39375
1.38881
1.38301
1.37775
1.37322
1.36947
1.36642
1.36395
1.36195
1.36046
1.40126
1.39399
1.38603
1.37926
1.37367
1.36923
1.36571
1.36294
1.3607
1.35912
1.40915
1.39935
1.38922
1.38111
1.37462
1.36965
1.3658
1.36281
1.36043
1.35867
1.4152
1.40274
1.39048
1.3812
1.37396
1.36859
1.36448
1.36134
1.35884
1.35706
1.42251
1.40755
1.39341
1.38327
1.37546
1.36981
1.36548
1.36218
1.35958
1.35763
1.42524
1.40824
1.39311
1.38265
1.37457
1.36872
1.3642
1.36078
1.35809
1.35607
1.42738
1.40881
1.39284
1.38185
1.37329
1.36707
1.36223
1.35854
1.35568
1.35338
1.36862
1.36834
1.36793
1.3674
1.3668
1.36617
1.36554
1.36495
1.36443
1.36401
1.37443
1.37379
1.37285
1.37172
1.37051
1.3693
1.36815
1.36709
1.36615
1.36535
1.3794
1.37803
1.37614
1.37408
1.37204
1.37012
1.36839
1.36685
1.36554
1.36453
1.3851
1.38274
1.37963
1.37645
1.37346
1.37078
1.36845
1.36645
1.36476
1.36344
1.39094
1.38729
1.38276
1.37838
1.37443
1.37103
1.36816
1.36577
1.36377
1.3623
1.39758
1.3924
1.38629
1.38071
1.37587
1.37184
1.36853
1.36582
1.3636
1.36191
1.40286
1.3959
1.38813
1.38139
1.37572
1.37116
1.36747
1.36452
1.3621
1.36034
1.40981
1.40104
1.39167
1.38395
1.37757
1.37256
1.36855
1.36537
1.36282
1.36085
1.4131
1.40273
1.39227
1.38385
1.37696
1.37159
1.36731
1.36397
1.3613
1.35927
1.41525
1.40335
1.39188
1.3828
1.37542
1.36972
1.36518
1.36163
1.35883
1.35657
1.3678
1.36767
1.36747
1.36721
1.3669
1.36657
1.36623
1.3659
1.3656
1.36538
1.37223
1.37195
1.37148
1.37089
1.37021
1.36949
1.36878
1.36811
1.36749
1.36695
1.37567
1.37506
1.37412
1.37298
1.37176
1.37054
1.36936
1.36827
1.3673
1.36655
1.37968
1.37857
1.37695
1.37509
1.37319
1.37135
1.36965
1.36812
1.36679
1.36572
1.38408
1.38228
1.37977
1.37706
1.3744
1.37193
1.36971
1.36777
1.3661
1.36483
1.38938
1.38671
1.38317
1.37954
1.3761
1.37302
1.37033
1.36803
1.36609
1.36456
1.39358
1.38983
1.38512
1.38052
1.37631
1.37265
1.36954
1.36693
1.36474
1.3631
1.39968
1.39475
1.38885
1.38332
1.3784
1.37423
1.37074
1.36786
1.3655
1.36364
1.40281
1.39676
1.38984
1.38351
1.37797
1.37337
1.36957
1.36651
1.364
1.36206
1.40432
1.39712
1.38932
1.38235
1.37636
1.37145
1.36741
1.36416
1.36155
1.35941
1.36769
1.36761
1.3675
1.36737
1.36721
1.36703
1.36684
1.36666
1.3665
1.3664
1.37119
1.37104
1.37079
1.37046
1.37007
1.36965
1.36923
1.36881
1.36842
1.36807
1.37375
1.37343
1.37292
1.37226
1.37151
1.37073
1.36996
1.36921
1.36854
1.36802
1.37657
1.376
1.3751
1.37399
1.37277
1.37153
1.37034
1.36923
1.36823
1.3674
1.37985
1.37892
1.37749
1.37581
1.37403
1.37228
1.37063
1.36914
1.36781
1.36678
1.38401
1.38259
1.38052
1.37818
1.37579
1.37351
1.37143
1.36958
1.36797
1.36667
1.38717
1.38512
1.38228
1.3792
1.37617
1.37336
1.37085
1.36868
1.3668
1.36535
1.39232
1.38956
1.38588
1.38204
1.37837
1.37507
1.37218
1.36971
1.36763
1.36596
1.39488
1.39134
1.38683
1.38227
1.37803
1.3743
1.3711
1.36843
1.36618
1.36442
1.39562
1.39134
1.38617
1.38108
1.37644
1.37241
1.369
1.36616
1.36382
1.36188
1.36787
1.36782
1.36777
1.36769
1.36761
1.36751
1.36741
1.36731
1.36724
1.36722
1.3707
1.37062
1.37048
1.3703
1.37008
1.36984
1.36959
1.36934
1.3691
1.36888
1.37267
1.37249
1.3722
1.37181
1.37136
1.37087
1.37037
1.36989
1.36944
1.36909
1.37466
1.37435
1.37382
1.37314
1.37237
1.37155
1.37074
1.36996
1.36925
1.36864
1.37716
1.37664
1.37579
1.37473
1.37355
1.37234
1.37116
1.37006
1.36906
1.36826
1.38043
1.37965
1.3784
1.37688
1.37524
1.3736
1.37205
1.37062
1.36935
1.3683
1.38273
1.38159
1.37984
1.37779
1.37565
1.37356
1.37162
1.36988
1.36834
1.36714
1.38702
1.38544
1.38313
1.38051
1.37785
1.37533
1.37304
1.37102
1.36929
1.36785
1.38881
1.38672
1.38382
1.38064
1.37751
1.37461
1.37203
1.36981
1.36789
1.36636
1.38892
1.38639
1.38303
1.37944
1.37598
1.37283
1.37005
1.36767
1.36567
1.36396
1.36821
1.36818
1.36815
1.36811
1.36806
1.36801
1.36796
1.36791
1.36788
1.3679
1.37055
1.3705
1.37043
1.37032
1.3702
1.37006
1.36992
1.36977
1.36963
1.36949
1.37211
1.372
1.37183
1.3716
1.37133
1.37103
1.37071
1.3704
1.37012
1.3699
1.37346
1.37328
1.37296
1.37254
1.37206
1.37153
1.37099
1.37046
1.36997
1.36954
1.37538
1.37507
1.37455
1.37388
1.3731
1.37229
1.37147
1.37068
1.36995
1.36937
1.37797
1.37751
1.37673
1.37574
1.37464
1.37349
1.37237
1.37131
1.37035
1.36953
1.3796
1.37892
1.37782
1.37646
1.37497
1.37347
1.37202
1.37068
1.36947
1.36851
1.38317
1.38223
1.38076
1.379
1.37711
1.37525
1.37351
1.37192
1.37052
1.36934
1.38421
1.38297
1.38111
1.37894
1.3767
1.37453
1.37252
1.37075
1.36917
1.3679
1.3839
1.38239
1.38022
1.37776
1.37525