/*--------------------------------*- C++ -*----------------------------------*\
| =========                 |                                                 |
| \\      /  F ield         | foam-extend: Open Source CFD                    |
|  \\    /   O peration     | Version:     4.0                                |
|   \\  /    A nd           | Web:         http://www.foam-extend.org         |
|    \\/     M anipulation  |                                                 |
\*---------------------------------------------------------------------------*/
FoamFile
{
    version     2.0;
    format      ascii;
    class       volVectorField;
    location    "2050";
    object      U;
}
// * * * * * * * * * * * * * * * * * * * * * * * * * * * * * * * * * * * * * //

dimensions      [0 1 -1 0 0 0 0];

internalField   nonuniform List<vector> 
34480
(
(209.001 2.16703 3.26209)
(209.322 1.19994 1.52482)
(209.479 0.414121 -0.272611)
(209.485 -0.209998 -2.17587)
(209.336 -0.704759 -4.32542)
(208.994 -1.06638 -6.89858)
(208.378 -1.26847 -10.297)
(207.212 -1.18806 -14.8661)
(204.541 -0.589708 -22.7769)
(197.604 1.98038 -50.0415)
(209.934 3.08162 2.87473)
(210.194 2.26019 1.05394)
(210.32 1.53508 -0.770409)
(210.294 0.90058 -2.66933)
(210.059 0.328641 -4.76297)
(209.555 -0.191803 -7.2611)
(208.748 -0.670826 -10.6252)
(207.456 -1.04547 -15.5986)
(204.321 -1.14527 -24.4043)
(196.161 0.63768 -55.0996)
(210.623 2.71843 3.28953)
(210.858 1.83835 1.40607)
(210.952 1.06292 -0.498669)
(210.881 0.408541 -2.44279)
(210.586 -0.1699 -4.55736)
(210.058 -0.69563 -7.10206)
(209.307 -1.18506 -10.6077)
(208.163 -1.5573 -16.1043)
(204.863 -1.6342 -25.7838)
(195.653 0.362621 -59.454)
(210.631 3.26275 3.23931)
(210.866 2.43013 1.30029)
(210.975 1.68624 -0.636761)
(210.938 1.06189 -2.60835)
(210.704 0.513151 -4.75351)
(210.29 0.0159542 -7.36172)
(209.673 -0.448927 -10.9669)
(208.694 -0.789218 -16.8193)
(205.368 -0.81849 -27.1183)
(195.355 1.32699 -62.7264)
(210.79 2.72839 3.7455)
(211.055 1.8217 1.76809)
(211.202 1.02705 -0.248177)
(211.227 0.377679 -2.29475)
(211.084 -0.187443 -4.53645)
(210.805 -0.690254 -7.27516)
(210.337 -1.14218 -11.0421)
(209.541 -1.43801 -17.275)
(206.314 -1.38197 -28.2379)
(195.658 0.927949 -65.396)
(210.676 3.41803 3.52091)
(210.951 2.52737 1.54589)
(211.119 1.74882 -0.431396)
(211.178 1.11998 -2.44673)
(211.102 0.590595 -4.65807)
(210.94 0.135267 -7.39232)
(210.625 -0.25702 -11.1652)
(210.044 -0.481439 -17.5866)
(207.064 -0.31979 -29.0307)
(196.008 2.08858 -67.3678)
(210.758 2.58143 4.03694)
(211.074 1.5958 2.06102)
(211.269 0.743194 0.0416096)
(211.367 0.0533605 -2.00545)
(211.35 -0.529627 -4.26799)
(211.285 -1.02268 -7.07467)
(211.111 -1.41052 -10.9454)
(210.746 -1.56979 -17.6123)
(208.097 -1.209 -29.6308)
(196.746 1.49114 -68.9917)
(210.586 3.35731 3.56598)
(210.906 2.35943 1.62219)
(211.081 1.52608 -0.317667)
(211.137 0.863294 -2.29891)
(211.08 0.338805 -4.473)
(210.997 -0.0830414 -7.17412)
(210.868 -0.377428 -10.9062)
(210.66 -0.414507 -17.491)
(208.419 0.250869 -29.6943)
(197.103 3.31591 -69.5902)
(210.531 2.04081 4.11404)
(210.895 0.925716 2.22355)
(211.101 -0.030848 0.3082)
(211.195 -0.844955 -1.64912)
(211.189 -1.54842 -3.8419)
(211.15 -2.14717 -6.58094)
(211.09 -2.56067 -10.4053)
(211.022 -2.61176 -17.1062)
(209.11 -1.55705 -29.6783)
(197.679 2.4591 -69.5443)
(209.566 2.78722 3.53042)
(209.84 1.57005 1.59814)
(209.787 0.616355 -0.312058)
(209.428 -0.169484 -2.27861)
(208.81 -0.775425 -4.43719)
(208.025 -1.21619 -7.07403)
(207.155 -1.39988 -10.666)
(206.369 -1.10905 -16.8181)
(204.432 0.415619 -28.5354)
(194.246 5.28071 -66.5)
(205.887 1.91242 3.00047)
(206.365 1.10993 1.54387)
(206.552 0.426864 -0.00993824)
(206.468 -0.117066 -1.60999)
(206.09 -0.54616 -3.31969)
(205.329 -0.860953 -5.15142)
(203.981 -1.06554 -7.1589)
(201.616 -1.17141 -9.31712)
(198.15 -1.25649 -11.2448)
(193.575 -1.15868 -14.3933)
(207.185 2.86915 2.79772)
(207.617 2.16491 1.16166)
(207.788 1.52011 -0.492298)
(207.7 0.94463 -2.18907)
(207.288 0.41729 -3.99621)
(206.433 -0.0679684 -5.97165)
(204.939 -0.526262 -8.20851)
(202.355 -0.992527 -10.9579)
(198.186 -1.58298 -14.0066)
(192.502 -1.82335 -20.5814)
(208.134 2.57849 3.30672)
(208.543 1.77253 1.54442)
(208.701 1.04592 -0.256947)
(208.601 0.423798 -2.09027)
(208.165 -0.132385 -4.02976)
(207.291 -0.635157 -6.15918)
(205.807 -1.11383 -8.66746)
(203.229 -1.58508 -12.0865)
(198.685 -2.15598 -16.3328)
(192.067 -2.07015 -26.7164)
(208.378 3.17905 3.30295)
(208.793 2.40461 1.45566)
(208.972 1.69563 -0.403724)
(208.914 1.08948 -2.29717)
(208.541 0.547669 -4.31005)
(207.769 0.0584961 -6.56878)
(206.397 -0.411149 -9.29918)
(203.913 -0.854123 -13.2583)
(199.139 -1.36229 -18.4761)
(191.707 -0.932394 -32.4537)
(208.732 2.6695 3.83765)
(209.174 1.81016 1.93517)
(209.392 1.04334 -0.0207878)
(209.399 0.4098 -2.0089)
(209.117 -0.145694 -4.14622)
(208.482 -0.634428 -6.58658)
(207.26 -1.09128 -9.57219)
(204.938 -1.4874 -14.0626)
(200.086 -1.90104 -20.2303)
(191.946 -1.07183 -37.6927)
(208.768 3.39401 3.63351)
(209.225 2.54218 1.71927)
(209.468 1.78461 -0.207257)
(209.518 1.16476 -2.17587)
(209.31 0.635963 -4.29779)
(208.802 0.183785 -6.77297)
(207.747 -0.223018 -9.8432)
(205.645 -0.546891 -14.6619)
(200.881 -0.829009 -21.547)
(192.216 0.36569 -42.2095)
(208.974 2.56752 4.15929)
(209.466 1.61679 2.23692)
(209.74 0.78718 0.25866)
(209.836 0.11503 -1.74981)
(209.696 -0.449845 -3.93589)
(209.303 -0.919041 -6.51562)
(208.409 -1.30908 -9.74415)
(206.553 -1.56732 -14.9173)
(201.996 -1.65531 -22.5671)
(192.907 0.00191551 -46.2445)
(208.889 3.37414 3.69508)
(209.39 2.40994 1.80297)
(209.653 1.59857 -0.0885735)
(209.723 0.951304 -2.02453)
(209.566 0.441767 -4.12037)
(209.195 0.0378695 -6.62263)
(208.395 -0.26331 -9.78097)
(206.76 -0.417732 -15.0049)
(202.531 -0.207468 -23.0521)
(193.314 1.835 -49.2169)
(208.901 2.05544 4.2446)
(209.434 0.97744 2.40155)
(209.725 0.0663026 0.525716)
(209.831 -0.688686 -1.37779)
(209.732 -1.3181 -3.4806)
(209.435 -1.83438 -6.03021)
(208.756 -2.18967 -9.335)
(207.348 -2.32124 -14.7932)
(203.459 -1.74152 -23.488)
(193.991 1.00321 -51.4975)
(207.979 2.8636 3.63654)
(208.456 1.69297 1.78924)
(208.572 0.796274 -0.0348729)
(208.359 0.0678313 -1.90548)
(207.831 -0.474101 -3.92972)
(207.024 -0.855504 -6.35355)
(205.824 -1.01317 -9.46934)
(204.022 -0.832002 -14.5636)
(200.281 0.222314 -23.0375)
(191.634 4.03745 -51.3443)
(203.512 1.42815 2.33427)
(204.016 0.833837 1.21623)
(204.197 0.302833 -0.0132793)
(204.093 -0.13143 -1.26338)
(203.692 -0.482019 -2.55456)
(202.945 -0.746362 -3.83235)
(201.76 -0.934232 -5.04896)
(199.984 -1.07115 -6.05469)
(197.43 -1.24252 -6.49843)
(194.213 -1.4319 -6.51688)
(204.908 2.41487 2.31302)
(205.403 1.8726 0.945951)
(205.583 1.34636 -0.448899)
(205.46 0.855747 -1.86581)
(204.996 0.390687 -3.33133)
(204.107 -0.0541664 -4.84806)
(202.634 -0.492125 -6.37962)
(200.306 -0.954833 -7.86286)
(196.683 -1.55369 -8.80234)
(191.843 -2.13586 -9.81069)
(205.943 2.2129 2.94766)
(206.442 1.5298 1.39509)
(206.623 0.89165 -0.208984)
(206.498 0.328224 -1.83818)
(206.01 -0.192506 -3.53883)
(205.057 -0.68046 -5.32766)
(203.441 -1.1604 -7.21449)
(200.797 -1.66248 -9.29183)
(196.295 -2.33109 -11.0025)
(189.854 -2.91023 -13.5839)
(206.34 2.89795 2.99362)
(206.862 2.2214 1.3176)
(207.068 1.58068 -0.381208)
(206.978 1.01562 -2.11255)
(206.527 0.492715 -3.94038)
(205.612 0.00223434 -5.92299)
(203.98 -0.487716 -8.10633)
(201.167 -0.994577 -10.7403)
(195.928 -1.67972 -13.2003)
(187.992 -2.16514 -17.5584)
(206.842 2.42743 3.56812)
(207.397 1.65105 1.80487)
(207.639 0.94186 -0.0199864)
(207.605 0.341684 -1.87768)
(207.225 -0.199932 -3.8696)
(206.398 -0.691486 -6.08626)
(204.824 -1.16847 -8.60243)
(201.967 -1.63688 -11.8314)
(196.181 -2.28493 -15.1298)
(186.924 -2.57659 -21.5714)
(207.009 3.20106 3.38902)
(207.582 2.41831 1.59325)
(207.852 1.70878 -0.222934)
(207.86 1.11591 -2.0847)
(207.541 0.595135 -4.09237)
(206.812 0.134128 -6.38747)
(205.339 -0.302559 -9.06283)
(202.539 -0.714486 -12.7143)
(196.407 -1.27554 -16.7146)
(186.059 -1.33901 -25.3326)
(207.327 2.39113 3.9381)
(207.932 1.50357 2.11606)
(208.231 0.720926 0.230861)
(208.285 0.0793529 -1.68972)
(208.029 -0.469561 -3.78542)
(207.399 -0.934128 -6.22097)
(206.044 -1.33679 -9.12146)
(203.365 -1.66836 -13.2317)
(197.057 -2.06779 -18.027)
(185.781 -1.79841 -28.9558)
(207.335 3.23585 3.47824)
(207.948 2.33282 1.68303)
(208.241 1.56624 -0.117961)
(208.278 0.949125 -1.97029)
(208.014 0.454898 -3.98472)
(207.412 0.0572676 -6.36718)
(206.142 -0.256595 -9.26029)
(203.615 -0.487231 -13.554)
(197.324 -0.619936 -18.8718)
(185.385 -0.0690988 -31.8722)
(207.427 1.90362 4.0323)
(208.059 0.887545 2.27461)
(208.374 0.0350873 0.472435)
(208.439 -0.660432 -1.36169)
(208.217 -1.23092 -3.38778)
(207.677 -1.68663 -5.81499)
(206.519 -1.99227 -8.87619)
(204.186 -2.12633 -13.5145)
(198.028 -1.86039 -19.6417)
(185.305 -0.798989 -34.2634)
(206.571 2.76944 3.3919)
(207.151 1.67658 1.66345)
(207.336 0.85062 -0.0528288)
(207.163 0.18739 -1.8246)
(206.626 -0.293572 -3.74841)
(205.715 -0.615263 -6.03798)
(204.199 -0.726396 -8.92206)
(201.629 -0.547058 -13.3054)
(195.608 0.217666 -19.5465)
(182.826 2.30029 -34.6942)
(201.777 0.949369 1.70168)
(202.214 0.547987 0.91133)
(202.365 0.165941 0.00786117)
(202.266 -0.157552 -0.896424)
(201.918 -0.428261 -1.80006)
(201.302 -0.64083 -2.62145)
(200.391 -0.807479 -3.29561)
(199.157 -0.951719 -3.68714)
(197.598 -1.12895 -3.58046)
(195.867 -1.36455 -2.75287)
(203.099 1.90807 1.79114)
(203.566 1.53265 0.717912)
(203.729 1.13552 -0.387865)
(203.598 0.742524 -1.4972)
(203.15 0.354867 -2.60173)
(202.34 -0.0302335 -3.67093)
(201.091 -0.423434 -4.62879)
(199.299 -0.847214 -5.34696)
(196.834 -1.36978 -5.40299)
(194.037 -1.93722 -4.61972)
(204.088 1.76071 2.50311)
(204.598 1.22091 1.2057)
(204.774 0.691144 -0.151087)
(204.632 0.205613 -1.51815)
(204.132 -0.259138 -2.91222)
(203.204 -0.711429 -4.3134)
(201.713 -1.17069 -5.65523)
(199.464 -1.66318 -6.84623)
(196.11 -2.29465 -7.29986)
(192.03 -2.99062 -6.92397)
(204.548 2.5275 2.58654)
(205.104 1.97318 1.13129)
(205.309 1.42186 -0.354924)
(205.187 0.917194 -1.86141)
(204.686 0.433986 -3.42381)
(203.72 -0.0370604 -5.05636)
(202.092 -0.525023 -6.71325)
(199.505 -1.05235 -8.37918)
(195.288 -1.7582 -9.2933)
(189.823 -2.52464 -9.54015)
(205.134 2.10193 3.20209)
(205.735 1.43299 1.62478)
(205.975 0.801278 -0.0203866)
(205.894 0.251004 -1.68768)
(205.428 -0.260342 -3.45178)
(204.486 -0.740699 -5.35624)
(202.808 -1.22303 -7.38173)
(200.005 -1.72659 -9.61103)
(195.037 -2.44092 -11.1399)
(188.233 -3.18018 -12.3677)
(205.391 2.93017 3.05201)
(206.02 2.24016 1.4178)
(206.287 1.59714 -0.244256)
(206.24 1.04659 -1.94409)
(205.814 0.549728 -3.75876)
(204.92 0.0940668 -5.78004)
(203.251 -0.358081 -8.01099)
(200.341 -0.825327 -10.6683)
(194.767 -1.50579 -12.741)
(186.756 -2.16556 -15.1347)
(205.794 2.14667 3.63022)
(206.456 1.34384 1.94701)
(206.75 0.62406 0.194013)
(206.744 0.0249749 -1.58923)
(206.365 -0.497419 -3.52114)
(205.536 -0.950917 -5.7176)
(203.913 -1.36206 -8.22151)
(200.974 -1.74385 -11.3672)
(194.942 -2.29963 -14.1232)
(185.84 -2.77325 -17.9491)
(205.881 3.04214 3.1813)
(206.551 2.21971 1.51749)
(206.844 1.51132 -0.159666)
(206.826 0.934325 -1.88682)
(206.442 0.463822 -3.75592)
(205.628 0.0775587 -5.92604)
(204.046 -0.246416 -8.46736)
(201.145 -0.535383 -11.8562)
(194.855 -0.880132 -15.1097)
(184.867 -1.19336 -20.3178)
(206.042 1.70847 3.76407)
(206.722 0.770993 2.12319)
(207.031 -0.0162672 0.42363)
(207.037 -0.652634 -1.30809)
(206.687 -1.16945 -3.21026)
(205.917 -1.57386 -5.43794)
(204.391 -1.84542 -8.14309)
(201.58 -1.99509 -11.8888)
(195.22 -1.94722 -15.9859)
(184.256 -1.89894 -22.3802)
(205.254 2.6479 3.10226)
(205.887 1.64513 1.51443)
(206.105 0.89304 -0.0760859)
(205.941 0.29367 -1.72678)
(205.371 -0.131661 -3.51636)
(204.347 -0.403035 -5.61259)
(202.581 -0.481651 -8.16679)
(199.58 -0.316544 -11.7253)
(193.239 0.228277 -16.0575)
(181.784 1.2017 -22.8628)
(200.567 0.551386 1.19382)
(200.909 0.295197 0.666011)
(201.024 0.0343513 0.035696)
(200.949 -0.194976 -0.583127)
(200.69 -0.396341 -1.18744)
(200.252 -0.562076 -1.69751)
(199.64 -0.701738 -2.0666)
(198.877 -0.830468 -2.20477)
(198.012 -0.974743 -2.02031)
(197.16 -1.14127 -1.42912)
(201.723 1.43509 1.31108)
(202.117 1.20064 0.510009)
(202.254 0.921394 -0.32142)
(202.14 0.622847 -1.14574)
(201.767 0.314218 -1.93599)
(201.119 -0.00323986 -2.649)
(200.174 -0.334041 -3.21067)
(198.93 -0.687999 -3.51259)
(197.407 -1.09339 -3.32756)
(195.91 -1.51065 -2.51765)
(202.573 1.29346 2.05)
(203.044 0.891444 1.01526)
(203.205 0.471683 -0.0835744)
(203.072 0.0698968 -1.18057)
(202.619 -0.328675 -2.26768)
(201.81 -0.72867 -3.30345)
(200.579 -1.1433 -4.20333)
(198.862 -1.59008 -4.83734)
(196.579 -2.12431 -4.81318)
(194.19 -2.69338 -3.92692)
(203.013 2.11819 2.14781)
(203.556 1.69201 0.935006)
(203.752 1.23852 -0.315832)
(203.622 0.804248 -1.57443)
(203.132 0.373922 -2.84721)
(202.222 -0.0589793 -4.11448)
(200.771 -0.518592 -5.29408)
(198.639 -1.02413 -6.27048)
(195.549 -1.66355 -6.46626)
(192.079 -2.36809 -5.6074)
(203.613 1.72961 2.79361)
(204.218 1.17986 1.4304)
(204.45 0.636738 -0.00696828)
(204.346 0.146925 -1.45414)
(203.855 -0.321857 -2.95369)
(202.905 -0.775571 -4.50654)
(201.314 -1.24273 -6.04455)
(198.857 -1.74566 -7.49208)
(194.993 -2.42526 -8.08591)
(190.376 -3.19285 -7.53415)
(203.911 2.60788 2.66895)
(204.558 2.02534 1.22632)
(204.819 1.46097 -0.252263)
(204.739 0.963117 -1.75799)
(204.261 0.501687 -3.3368)
(203.306 0.0655218 -5.02974)
(201.634 -0.382765 -6.78396)
(198.95 -0.86947 -8.60551)
(194.39 -1.55829 -9.55952)
(188.65 -2.35217 -9.45923)
(204.36 1.85395 3.27501)
(205.047 1.1517 1.76058)
(205.336 0.506463 0.168692)
(205.288 -0.0412462 -1.44508)
(204.837 -0.528309 -3.16842)
(203.904 -0.961684 -5.06301)
(202.203 -1.37018 -7.11167)
(199.368 -1.77879 -9.39652)
(194.212 -2.37891 -10.8778)
(187.387 -3.09882 -11.5018)
(204.502 2.80626 2.83878)
(205.202 2.08012 1.33347)
(205.493 1.44107 -0.193852)
(205.437 0.912626 -1.76662)
(204.978 0.474018 -3.44906)
(204.042 0.106653 -5.34432)
(202.325 -0.218048 -7.45821)
(199.418 -0.542591 -9.99044)
(193.837 -0.990659 -11.866)
(186.053 -1.65601 -13.2452)
(204.715 1.47473 3.45689)
(205.423 0.630626 1.95828)
(205.727 -0.0841373 0.386176)
(205.69 -0.659363 -1.21522)
(205.255 -1.1239 -2.95749)
(204.346 -1.48234 -4.93705)
(202.643 -1.72686 -7.22492)
(199.713 -1.88998 -10.0742)
(193.887 -1.98153 -12.6834)
(185.055 -2.39444 -14.8182)
(203.989 2.50137 2.77443)
(204.654 1.59928 1.34444)
(204.895 0.925129 -0.103913)
(204.739 0.389902 -1.61331)
(204.152 0.0175255 -3.24023)
(203.067 -0.209245 -5.10187)
(201.198 -0.263936 -7.27246)
(198.101 -0.118911 -10.0002)
(192.173 0.260072 -12.8108)
(182.632 0.64038 -15.1306)
(199.736 0.251952 0.824754)
(199.989 0.0934076 0.488302)
(200.071 -0.0792612 0.0635228)
(200.019 -0.236194 -0.342768)
(199.844 -0.381774 -0.73543)
(199.556 -0.507016 -1.04652)
(199.172 -0.618161 -1.25088)
(198.72 -0.722689 -1.29412)
(198.243 -0.831327 -1.14383)
(197.788 -0.942894 -0.777491)
(200.713 1.04099 0.910586)
(201.016 0.911666 0.336478)
(201.122 0.728839 -0.260349)
(201.034 0.513111 -0.845317)
(200.751 0.277901 -1.38659)
(200.273 0.0274376 -1.84338)
(199.609 -0.237035 -2.15831)
(198.79 -0.516091 -2.25868)
(197.881 -0.814668 -2.03777)
(197.075 -1.10306 -1.43094)
(201.387 0.862269 1.63562)
(201.784 0.575802 0.841869)
(201.923 0.255619 -0.0155568)
(201.809 -0.0652233 -0.863979)
(201.432 -0.394894 -1.68101)
(200.78 -0.733883 -2.41801)
(199.836 -1.08877 -2.99864)
(198.607 -1.46823 -3.31455)
(197.132 -1.89436 -3.14381)
(195.745 -2.32451 -2.34641)
(201.754 1.71283 1.71988)
(202.243 1.40472 0.745777)
(202.419 1.04714 -0.269589)
(202.298 0.686387 -1.2834)
(201.856 0.316116 -2.28047)
(201.065 -0.066033 -3.22113)
(199.867 -0.476729 -4.01846)
(198.227 -0.928465 -4.5452)
(196.093 -1.46751 -4.43712)
(193.951 -2.03984 -3.43892)
(202.313 1.34391 2.37693)
(202.881 0.91174 1.23615)
(203.094 0.46034 0.017605)
(202.983 0.0369164 -1.20045)
(202.511 -0.380577 -2.4328)
(201.631 -0.794766 -3.64948)
(200.236 -1.22739 -4.76365)
(198.232 -1.69796 -5.64684)
(195.413 -2.29616 -5.77423)
(192.406 -2.96115 -4.76547)
(202.608 2.25895 2.26727)
(203.233 1.78801 1.03137)
(203.479 1.30841 -0.246944)
(203.381 0.870252 -1.54216)
(202.895 0.452906 -2.87094)
(201.961 0.0481705 -4.23246)
(200.42 -0.376759 -5.54357)
(198.12 -0.848333 -6.71184)
(194.638 -1.48223 -7.04619)
(190.721 -2.22555 -6.09512)
(203.068 1.53124 2.89401)
(203.744 0.937326 1.56728)
(204.018 0.373979 0.156463)
(203.942 -0.115676 -1.26738)
(203.461 -0.560129 -2.76068)
(202.508 -0.964425 -4.33684)
(200.872 -1.35624 -5.93753)
(198.339 -1.76523 -7.50433)
(194.244 -2.34245 -8.22454)
(189.394 -3.07401 -7.55832)
(203.238 2.54089 2.46783)
(203.935 1.92056 1.13981)
(204.216 1.35882 -0.218199)
(204.133 0.885599 -1.61546)
(203.637 0.485654 -3.08709)
(202.657 0.144484 -4.68424)
(200.955 -0.168387 -6.36121)
(198.265 -0.50072 -8.14024)
(193.683 -0.972815 -9.13421)
(187.952 -1.71646 -8.79311)
(203.487 1.21058 3.12277)
(204.194 0.469894 1.78525)
(204.485 -0.166839 0.360593)
(204.416 -0.679223 -1.08816)
(203.933 -1.09229 -2.64478)
(202.961 -1.40808 -4.35242)
(201.234 -1.62813 -6.2188)
(198.44 -1.79449 -8.27869)
(193.521 -1.95784 -9.83197)
(186.814 -2.51378 -9.91418)
(202.811 2.3361 2.41823)
(203.48 1.54215 1.15855)
(203.731 0.949067 -0.134157)
(203.581 0.478259 -1.48552)
(202.992 0.156542 -2.92832)
(201.897 -0.0307519 -4.53201)
(200.046 -0.0679894 -6.30657)
(197.092 0.0556768 -8.29674)
(191.994 0.313773 -9.98349)
(184.566 0.412643 -10.0822)
(199.162 0.0423881 0.576232)
(199.347 -0.0563072 0.369649)
(199.402 -0.17014 0.0875449)
(199.37 -0.275523 -0.172511)
(199.259 -0.378975 -0.425583)
(199.082 -0.471105 -0.616494)
(198.851 -0.555765 -0.736425)
(198.593 -0.635226 -0.75274)
(198.331 -0.712496 -0.658273)
(198.07 -0.783739 -0.451613)
(199.984 0.741215 0.598749)
(200.201 0.68293 0.199978)
(200.279 0.572644 -0.211419)
(200.217 0.424169 -0.609979)
(200.016 0.252323 -0.966931)
(199.685 0.0627963 -1.25037)
(199.243 -0.139077 -1.42137)
(198.726 -0.348937 -1.43693)
(198.193 -0.561668 -1.25227)
(197.755 -0.753741 -0.850792)
(200.481 0.496148 1.28384)
(200.795 0.297111 0.693981)
(200.906 0.0598006 0.0454694)
(200.817 -0.188589 -0.591279)
(200.525 -0.452299 -1.18904)
(200.031 -0.728601 -1.70227)
(199.345 -1.01875 -2.07149)
(198.503 -1.32397 -2.22257)
(197.575 -1.64775 -2.0428)
(196.771 -1.95693 -1.47314)
(200.754 1.34277 1.33018)
(201.166 1.1333 0.573535)
(201.316 0.86234 -0.223057)
(201.212 0.572673 -1.01257)
(200.842 0.264543 -1.76799)
(200.196 -0.0604541 -2.44292)
(199.262 -0.410904 -2.96162)
(198.059 -0.791772 -3.22031)
(196.634 -1.22128 -3.01361)
(195.321 -1.6572 -2.19286)
(201.235 0.973382 1.97767)
(201.738 0.647191 1.05133)
(201.926 0.28385 0.047742)
(201.821 -0.0717375 -0.94829)
(201.399 -0.432869 -1.93206)
(200.636 -0.798457 -2.85725)
(199.483 -1.1826 -3.63813)
(197.928 -1.59858 -4.14854)
(195.95 -2.09601 -4.06588)
(194.016 -2.62702 -3.11829)
(201.494 1.90688 1.86943)
(202.067 1.54241 0.841547)
(202.289 1.14784 -0.232059)
(202.187 0.772895 -1.31415)
(201.729 0.405607 -2.39874)
(200.878 0.041478 -3.45753)
(199.543 -0.344703 -4.39848)
(197.673 -0.774266 -5.09963)
(195.124 -1.31912 -5.10507)
(192.502 -1.94496 -4.03081)
(201.936 1.19744 2.50594)
(202.571 0.711617 1.37439)
(202.822 0.23279 0.154822)
(202.733 -0.194753 -1.06985)
(202.26 -0.591118 -2.3292)
(201.354 -0.958669 -3.60163)
(199.88 -1.32101 -4.80828)
(197.738 -1.70614 -5.82701)
(194.629 -2.22107 -6.09902)
(191.264 -2.86397 -5.07316)
(202.108 2.26025 2.08415)
(202.772 1.74849 0.94305)
(203.035 1.26812 -0.233893)
(202.938 0.854524 -1.44336)
(202.44 0.498286 -2.69436)
(201.486 0.189049 -3.99746)
(199.908 -0.101555 -5.27587)
(197.56 -0.417166 -6.45313)
(193.977 -0.857366 -6.88294)
(189.878 -1.53869 -5.92307)
(202.377 0.926565 2.77485)
(203.057 0.293635 1.60931)
(203.329 -0.262123 0.345699)
(203.241 -0.71096 -0.935577)
(202.745 -1.07343 -2.29249)
(201.779 -1.34916 -3.72564)
(200.145 -1.54571 -5.20088)
(197.645 -1.70563 -6.62882)
(193.703 -1.88929 -7.46355)
(188.789 -2.41837 -6.69986)
(201.739 2.16022 2.04506)
(202.386 1.47792 0.962116)
(202.635 0.967437 -0.165821)
(202.491 0.560797 -1.3477)
(201.922 0.287485 -2.59382)
(200.866 0.135048 -3.93384)
(199.13 0.110374 -5.3311)
(196.474 0.213178 -6.71433)
(192.318 0.384897 -7.61535)
(186.786 0.372452 -6.78095)
(198.755 -0.0982594 0.417655)
(198.893 -0.162478 0.295451)
(198.93 -0.239434 0.106944)
(198.912 -0.310063 -0.0579123)
(198.845 -0.383214 -0.223036)
(198.74 -0.449732 -0.343381)
(198.606 -0.512177 -0.420382)
(198.46 -0.570131 -0.432986)
(198.314 -0.623405 -0.383265)
(198.147 -0.667975 -0.273312)
(199.459 0.531161 0.366989)
(199.607 0.517433 0.0964672)
(199.661 0.458375 -0.176782)
(199.62 0.361334 -0.438146)
(199.485 0.240928 -0.665024)
(199.268 0.103153 -0.835188)
(198.985 -0.0447902 -0.924366)
(198.667 -0.196581 -0.908717)
(198.356 -0.344231 -0.771798)
(198.113 -0.470153 -0.513336)
(199.802 0.205448 1.00169)
(200.035 0.0673254 0.574229)
(200.119 -0.105386 0.0958345)
(200.054 -0.29279 -0.370976)
(199.84 -0.497431 -0.800297)
(199.485 -0.714947 -1.1547)
(199.008 -0.943222 -1.39159)
(198.449 -1.17873 -1.46529)
(197.872 -1.4164 -1.32171)
(197.403 -1.63153 -0.94621)
(199.979 1.02705 0.994139)
(200.308 0.893578 0.42406)
(200.429 0.695808 -0.180973)
(200.346 0.470728 -0.776505)
(200.053 0.222566 -1.3319)
(199.554 -0.044282 -1.80327)
(198.859 -0.331655 -2.13148)
(198.007 -0.638658 -2.24261)
(197.072 -0.967002 -2.02947)
(196.268 -1.28496 -1.42334)
(200.366 0.639775 1.61456)
(200.788 0.40219 0.882865)
(200.947 0.118247 0.0786695)
(200.855 -0.172068 -0.71409)
(200.499 -0.475479 -1.47963)
(199.874 -0.787733 -2.16747)
(198.966 -1.11623 -2.70372)
(197.806 -1.46723 -2.9865)
(196.45 -1.8632 -2.83129)
(195.215 -2.26609 -2.08434)
(200.57 1.57222 1.4947)
(201.07 1.30218 0.664314)
(201.263 0.987858 -0.211353)
(201.166 0.67612 -1.08937)
(200.76 0.361943 -1.94913)
(200.027 0.0443671 -2.74884)
(198.928 -0.293338 -3.40232)
(197.469 -0.665315 -3.79544)
(195.655 -1.10929 -3.6468)
(193.919 -1.60272 -2.71199)
(200.975 0.871096 2.12862)
(201.544 0.486197 1.18879)
(201.767 0.0899633 0.160741)
(201.675 -0.274323 -0.86616)
(201.238 -0.619328 -1.90126)
(200.426 -0.944549 -2.90244)
(199.166 -1.26813 -3.78739)
(197.432 -1.61227 -4.4209)
(195.147 -2.046 -4.44727)
(192.847 -2.56703 -3.45665)
(201.126 1.97941 1.70401)
(201.732 1.57247 0.749945)
(201.97 1.1735 -0.242618)
(201.869 0.821332 -1.26126)
(201.399 0.511908 -2.29437)
(200.522 0.238696 -3.32549)
(199.136 -0.0221172 -4.26577)
(197.179 -0.305404 -5.00163)
(194.475 -0.68319 -5.08954)
(191.602 -1.24126 -4.02911)
(201.401 0.63454 2.42761)
(202.03 0.107914 1.43644)
(202.278 -0.366937 0.340115)
(202.182 -0.752946 -0.767176)
(201.703 -1.06613 -1.9218)
(200.798 -1.30394 -3.09458)
(199.334 -1.4771 -4.22885)
(197.206 -1.6237 -5.18382)
(194.166 -1.79808 -5.5649)
(190.665 -2.23179 -4.57236)
(200.788 1.98326 1.66763)
(201.389 1.41181 0.761213)
(201.625 0.983345 -0.198242)
(201.491 0.63964 -1.2055)
(200.961 0.412177 -2.25178)
(199.985 0.290354 -3.33731)
(198.432 0.274654 -4.3968)
(196.156 0.358372 -5.31025)
(192.9 0.469015 -5.69487)
(188.925 0.424387 -4.59105)
(198.457 -0.191537 0.321165)
(198.564 -0.236759 0.252116)
(198.589 -0.291734 0.122408)
(198.579 -0.339896 0.0169594)
(198.54 -0.392132 -0.0946109)
(198.48 -0.439832 -0.174448)
(198.403 -0.485043 -0.229708)
(198.322 -0.526284 -0.245352)
(198.238 -0.562329 -0.226316)
(198.119 -0.589762 -0.173584)
(199.079 0.396712 0.199176)
(199.175 0.409413 0.0188141)
(199.212 0.384846 -0.155989)
(199.185 0.325342 -0.320539)
(199.099 0.244638 -0.458702)
(198.961 0.148401 -0.556259)
(198.786 0.0438953 -0.599013)
(198.595 -0.0623612 -0.574079)
(198.413 -0.162649 -0.477299)
(198.276 -0.244055 -0.311571)
(199.294 -0.0124643 0.785108)
(199.46 -0.110991 0.481074)
(199.52 -0.235908 0.134509)
(199.475 -0.374545 -0.202259)
(199.325 -0.529152 -0.507475)
(199.08 -0.695245 -0.75291)
(198.761 -0.868966 -0.909812)
(198.399 -1.04474 -0.952035)
(198.044 -1.21481 -0.85424)
(197.768 -1.36127 -0.621694)
(199.391 0.773253 0.716703)
(199.641 0.694401 0.299247)
(199.735 0.55515 -0.146187)
(199.672 0.385735 -0.581817)
(199.452 0.192204 -0.978743)
(199.082 -0.0195113 -1.30025)
(198.584 -0.246895 -1.50354)
(197.998 -0.485533 -1.54008)
(197.392 -0.729253 -1.35761)
(196.899 -0.954479 -0.931391)
(199.682 0.356642 1.29847)
(200.021 0.188543 0.734842)
(200.148 -0.0275232 0.106678)
(200.073 -0.258228 -0.508756)
(199.789 -0.505906 -1.09124)
(199.298 -0.764229 -1.59409)
(198.613 -1.03574 -1.9589)
(197.774 -1.32077 -2.11236)
(196.86 -1.62605 -1.95406)
(196.074 -1.92044 -1.41107)
(199.823 1.27027 1.15729)
(200.239 1.07875 0.505339)
(200.4 0.836174 -0.18812)
(200.316 0.584465 -0.88002)
(199.974 0.323511 -1.54243)
(199.373 0.0551053 -2.13061)
(198.505 -0.229655 -2.57192)
(197.406 -0.538524 -2.77546)
(196.14 -0.886073 -2.57455)
(195.001 -1.25666 -1.84108)
(200.18 0.568129 1.77689)
(200.67 0.272134 1.01623)
(200.86 -0.0472558 0.171078)
(200.775 -0.349991 -0.668655)
(200.392 -0.642779 -1.49893)
(199.7 -0.922563 -2.26931)
(198.669 -1.20215 -2.90494)
(197.316 -1.49647 -3.28515)
(195.675 -1.8465 -3.19644)
(194.123 -2.24493 -2.37582)
(200.293 1.71245 1.34231)
(200.824 1.40125 0.566793)
(201.032 1.07995 -0.246304)
(200.935 0.78836 -1.07984)
(200.514 0.526781 -1.90804)
(199.748 0.291904 -2.69977)
(198.584 0.0656181 -3.36775)
(197.017 -0.177702 -3.80017)
(195.03 -0.484968 -3.70282)
(193.051 -0.910024 -2.75625)
(200.567 0.346229 2.09509)
(201.128 -0.0807266 1.27256)
(201.347 -0.477793 0.342272)
(201.252 -0.803365 -0.592838)
(200.814 -1.06932 -1.55275)
(200.006 -1.2713 -2.49082)
(198.753 -1.42105 -3.3428)
(197.016 -1.54988 -3.96232)
(194.74 -1.70128 -4.08188)
(192.302 -2.02998 -3.147)
(199.968 1.81516 1.29858)
(200.505 1.34964 0.561929)
(200.719 1.00027 -0.231215)
(200.598 0.717012 -1.06543)
(200.122 0.532343 -1.9175)
(199.256 0.437195 -2.76892)
(197.923 0.42786 -3.5412)
(196.052 0.49494 -4.10938)
(193.582 0.563001 -4.17912)
(190.808 0.51929 -3.11533)
(198.229 -0.255606 0.265741)
(198.316 -0.290543 0.229452)
(198.334 -0.332994 0.135395)
(198.329 -0.367124 0.0657407)
(198.307 -0.405445 -0.014052)
(198.273 -0.439927 -0.0711707)
(198.23 -0.472536 -0.115499)
(198.184 -0.501565 -0.135267)
(198.134 -0.525651 -0.135987)
(198.04 -0.542099 -0.116898)
(198.797 0.321279 0.0779927)
(198.859 0.349145 -0.0405061)
(198.883 0.347066 -0.147274)
(198.867 0.314028 -0.245382)
(198.813 0.262797 -0.324253)
(198.728 0.198355 -0.375392)
(198.622 0.127071 -0.391014)
(198.508 0.0547829 -0.363984)
(198.402 -0.0121691 -0.295239)
(198.323 -0.0642873 -0.185877)
(198.913 -0.167576 0.624636)
(199.026 -0.241784 0.410812)
(199.067 -0.332777 0.162277)
(199.037 -0.434078 -0.0789056)
(198.936 -0.548323 -0.295718)
(198.774 -0.67188 -0.468085)
(198.566 -0.8003 -0.577357)
(198.337 -0.927816 -0.609468)
(198.12 -1.04693 -0.552127)
(197.957 -1.14509 -0.417561)
(198.952 0.580294 0.495483)
(199.134 0.538324 0.198115)
(199.204 0.443713 -0.119883)
(199.159 0.320133 -0.428976)
(199 0.173928 -0.704759)
(198.737 0.0115719 -0.918935)
(198.391 -0.162433 -1.04216)
(197.998 -0.342146 -1.04423)
(197.609 -0.51891 -0.901954)
(197.306 -0.675736 -0.60956)
(199.154 0.129894 1.03318)
(199.414 0.0133627 0.608592)
(199.512 -0.147269 0.129242)
(199.455 -0.325991 -0.337916)
(199.236 -0.52256 -0.772606)
(198.868 -0.729887 -1.13579)
(198.368 -0.947268 -1.38414)
(197.778 -1.1713 -1.46904)
(197.17 -1.40105 -1.33811)
(196.672 -1.61086 -0.963499)
(199.233 1.01017 0.8658)
(199.566 0.880149 0.368175)
(199.695 0.698674 -0.164885)
(199.625 0.501347 -0.69433)
(199.351 0.291061 -1.19053)
(198.878 0.0714168 -1.61238)
(198.218 -0.160373 -1.9029)
(197.415 -0.407459 -1.99698)
(196.545 -0.671035 -1.79845)
(195.803 -0.940208 -1.25407)
(199.541 0.300511 1.46133)
(199.947 0.078861 0.860823)
(200.104 -0.172148 0.182902)
(200.029 -0.4175 -0.487228)
(199.71 -0.659568 -1.13809)
(199.145 -0.893394 -1.71958)
(198.333 -1.12753 -2.16943)
(197.312 -1.36992 -2.39221)
(196.155 -1.64369 -2.26727)
(195.119 -1.93612 -1.63841)
(199.603 1.47085 1.01107)
(200.051 1.24273 0.398828)
(200.226 0.992317 -0.246848)
(200.14 0.758048 -0.908353)
(199.779 0.543296 -1.55204)
(199.138 0.34719 -2.14158)
(198.199 0.157579 -2.59936)
(196.987 -0.0434859 -2.83406)
(195.561 -0.28434 -2.65409)
(194.217 -0.594497 -1.88836)
(199.875 0.0718342 1.78949)
(200.357 -0.266055 1.12306)
(200.544 -0.591176 0.35061)
(200.456 -0.86038 -0.421572)
(200.074 -1.08206 -1.20238)
(199.384 -1.25058 -1.93799)
(198.354 -1.37736 -2.56662)
(196.988 -1.48613 -2.9599)
(195.326 -1.60977 -2.94797)
(193.662 -1.84748 -2.17759)
(199.278 1.66539 0.949052)
(199.74 1.29741 0.369757)
(199.928 1.02197 -0.26492)
(199.822 0.795332 -0.933976)
(199.409 0.649843 -1.60484)
(198.671 0.577704 -2.24963)
(197.569 0.572872 -2.78829)
(196.087 0.625923 -3.11452)
(194.264 0.664589 -3.0108)
(192.376 0.633234 -2.10683)
(198.049 -0.304207 0.237464)
(198.124 -0.333583 0.220919)
(198.137 -0.369277 0.147662)
(198.135 -0.394973 0.0986976)
(198.122 -0.424364 0.0372321)
(198.103 -0.449929 -0.00772527)
(198.079 -0.473728 -0.0469118)
(198.053 -0.49417 -0.0705333)
(198.021 -0.510095 -0.0839943)
(197.942 -0.519433 -0.0850943)
(198.584 0.28972 -0.0114685)
(198.623 0.326431 -0.088014)
(198.639 0.338726 -0.148504)
(198.629 0.323973 -0.201584)
(198.597 0.294007 -0.241036)
(198.546 0.252957 -0.26205)
(198.483 0.206053 -0.260784)
(198.415 0.158138 -0.23297)
(198.352 0.114017 -0.181704)
(198.306 0.0808511 -0.105087)
(198.622 -0.272774 0.509204)
(198.696 -0.332686 0.359119)
(198.724 -0.400321 0.180962)
(198.704 -0.474105 0.00766059)
(198.639 -0.557272 -0.147896)
(198.534 -0.647175 -0.272158)
(198.402 -0.739725 -0.353221)
(198.26 -0.829889 -0.384018)
(198.129 -0.911533 -0.357629)
(198.032 -0.97611 -0.288162)
(198.627 0.441528 0.323721)
(198.756 0.422993 0.117935)
(198.806 0.361104 -0.101967)
(198.775 0.273801 -0.314357)
(198.664 0.166887 -0.500277)
(198.483 0.046516 -0.639026)
(198.25 -0.0824084 -0.711381)
(197.991 -0.213818 -0.699037)
(197.743 -0.339314 -0.593633)
(197.556 -0.447179 -0.394961)