/*--------------------------------*- C++ -*----------------------------------*\
| =========                 |                                                 |
| \\      /  F ield         | foam-extend: Open Source CFD                    |
|  \\    /   O peration     | Version:     4.0                                |
|   \\  /    A nd           | Web:         http://www.foam-extend.org         |
|    \\/     M anipulation  |                                                 |
\*---------------------------------------------------------------------------*/
FoamFile
{
    version     2.0;
    format      ascii;
    class       volScalarField;
    location    "1600";
    object      alphat;
}
// * * * * * * * * * * * * * * * * * * * * * * * * * * * * * * * * * * * * * //

dimensions      [1 -1 -1 0 0 0 0];

internalField   nonuniform List<scalar> 
34480
(
0.00190222
0.00189998
0.00189886
0.00189923
0.00190204
0.0019096
0.00192678
0.00195871
0.0020054
0.00212245
0.0178396
0.0163628
0.0137637
0.00989913
0.00582658
0.00306526
0.00188017
0.0016981
0.00200346
0.00236926
0.05165
0.0469029
0.0394235
0.0290451
0.0174491
0.00838303
0.00387694
0.00255564
0.00265404
0.00304955
0.064184
0.0592729
0.0513572
0.039707
0.0252843
0.0124169
0.005285
0.0029955
0.00293876
0.00339568
0.0695354
0.0652763
0.0580893
0.046698
0.0311872
0.0158114
0.0065022
0.00334676
0.00317124
0.00370351
0.0714233
0.0679645
0.0616444
0.0507778
0.0347956
0.0179162
0.00725927
0.0035921
0.00342501
0.00408118
0.0700529
0.0676135
0.0624781
0.0525631
0.0367672
0.0191976
0.00776875
0.00378211
0.00366894
0.0044559
0.059364
0.0585168
0.055492
0.0479329
0.0341393
0.0179377
0.00731606
0.0036433
0.00372656
0.00468431
0.0192256
0.0199202
0.02044
0.0194944
0.0151797
0.00850431
0.00377541
0.00216771
0.00265594
0.00383218
0.00177385
0.00176253
0.00175377
0.00174786
0.00174584
0.00174729
0.00175121
0.00175793
0.00175736
0.00172636
0.00191549
0.00191442
0.00191518
0.00191827
0.0019241
0.00193346
0.00194897
0.0019754
0.00201987
0.00209602
0.016543
0.0162443
0.0156672
0.0143926
0.0119131
0.00821822
0.00461248
0.00272075
0.00244169
0.00326345
0.0497517
0.0475425
0.0437017
0.037795
0.029924
0.0204755
0.0110419
0.0051991
0.00376835
0.00491412
0.0613861
0.0591162
0.0550931
0.048571
0.0394381
0.0279796
0.0154943
0.00672038
0.0044019
0.00582385
0.0661746
0.0644469
0.0611366
0.0552399
0.0460706
0.0337837
0.0192764
0.00798578
0.00490485
0.00665627
0.0678278
0.0667722
0.0643495
0.0593567
0.0505553
0.0379334
0.0220735
0.00889243
0.00537291
0.00767748
0.0665175
0.0662476
0.0649375
0.0611776
0.0532494
0.040845
0.0242466
0.00960653
0.00579731
0.00873588
0.056243
0.0569451
0.0572171
0.0556756
0.0501803
0.0397525
0.0241388
0.00943774
0.00584172
0.00940154
0.018001
0.0187022
0.0198255
0.0212122
0.022082
0.0206195
0.0140701
0.00549145
0.00374486
0.007044
0.00177558
0.00176343
0.00175321
0.00174561
0.00174211
0.00174337
0.0017476
0.00175404
0.00178506
0.00189471
0.00192073
0.00192057
0.00192201
0.00192558
0.00193159
0.00194038
0.00195264
0.00196987
0.00199473
0.00202992
0.014638
0.0145999
0.0146273
0.0144948
0.0137599
0.0120507
0.00950238
0.00696054
0.00533996
0.0048026
0.0461744
0.0451071
0.0430161
0.0395766
0.0345598
0.0277934
0.0197965
0.0124683
0.00817135
0.00700868
0.0566472
0.0556345
0.0535126
0.0496631
0.0438464
0.0356603
0.0252613
0.0150026
0.00912517
0.0080203
0.0607755
0.0602374
0.0587937
0.0555744
0.0499856
0.041454
0.0295686
0.0168165
0.00966094
0.00888656
0.0621968
0.0622017
0.0615649
0.0592683
0.0542595
0.045782
0.032852
0.0179987
0.00999817
0.00983833
0.0610906
0.0616688
0.0619627
0.0608352
0.0568212
0.0488612
0.035374
0.0187598
0.010175
0.0107734
0.0517868
0.0529
0.0542475
0.0548733
0.0530401
0.047122
0.0347773
0.0179813
0.00971763
0.0112395
0.0168108
0.0173598
0.0183419
0.019771
0.0214008
0.0220947
0.0188439
0.010348
0.00590321
0.0079246
0.00177133
0.0017604
0.00175129
0.00174472
0.00174191
0.0017445
0.00175308
0.00176677
0.00179859
0.00189768
0.00191788
0.0019181
0.00191934
0.00192195
0.00192611
0.00193194
0.00193965
0.00194965
0.00196308
0.00198211
0.0130371
0.0130421
0.0132248
0.0135348
0.0137663
0.0136369
0.0129236
0.0116515
0.0101836
0.00906361
0.0423787
0.0419038
0.040873
0.0390689
0.0362291
0.0321323
0.0268844
0.0211007
0.0160239
0.0130267
0.0515014
0.0511292
0.0500935
0.0479736
0.0445127
0.0393506
0.0324455
0.0245018
0.0175634
0.0140663
0.0549054
0.0549236
0.0544648
0.0528352
0.0496133
0.0442682
0.0364415
0.0267493
0.0182554
0.0147445
0.056124
0.0565459
0.0567401
0.0558786
0.0531928
0.0479886
0.0395263
0.0282802
0.0185694
0.0155185
0.0553129
0.0561267
0.0570281
0.0571113
0.0552827
0.0505817
0.0418112
0.029184
0.0184754
0.0161517
0.0472442
0.0483192
0.0498566
0.0511882
0.0510573
0.0480742
0.0404257
0.0278172
0.017224
0.0160525
0.0157952
0.0161891
0.016942
0.0180729
0.01953
0.020809
0.020244
0.0155837
0.0102473
0.0107871
0.00176516
0.00175564
0.0017479
0.00174256
0.00174059
0.00174379
0.00175407
0.00177234
0.00180499
0.00188228
0.0019089
0.00190925
0.00191012
0.00191167
0.00191396
0.001917
0.00192086
0.00192578
0.00193272
0.00194427
0.0119933
0.0119748
0.0121105
0.0124293
0.0128885
0.0134023
0.0138314
0.0140145
0.0138281
0.0133457
0.0387144
0.0386175
0.0383348
0.0377186
0.0365369
0.0345654
0.0317263
0.0281492
0.0242165
0.0208859
0.046477
0.0464941
0.0462183
0.0453802
0.0437261
0.0409654
0.0369884
0.0319502
0.0264266
0.0220933
0.049184
0.0494859
0.049627
0.0491371
0.047673
0.0448212
0.0403279
0.0342545
0.0274145
0.0225771
0.0502406
0.0508044
0.051411
0.0514733
0.0504406
0.0477594
0.0429678
0.0359893
0.0279959
0.0231561
0.0497506
0.0505551
0.0516415
0.0523707
0.0519843
0.0497302
0.0448556
0.0370472
0.0279549
0.0234389
0.0429891
0.0438822
0.0452816
0.0467776
0.0475577
0.0466093
0.0427412
0.0352144
0.0260657
0.0225459
0.014963
0.015226
0.0157656
0.0165805
0.0176875
0.0189481
0.0196766
0.0183749
0.0148265
0.0140848
0.0017578
0.00174968
0.0017433
0.00173917
0.0017381
0.00174164
0.00175181
0.00177044
0.00180065
0.0018569
0.0018953
0.00189569
0.00189622
0.00189699
0.001898
0.0018992
0.00190062
0.00190249
0.0019058
0.00191337
0.0115498
0.0115064
0.0115637
0.0117552
0.0120785
0.0125305
0.0130995
0.0137573
0.0144351
0.0149805
0.0351613
0.0352651
0.0354089
0.0355258
0.0354732
0.0350727
0.0341748
0.0327104
0.0307306
0.0286309
0.041689
0.0419182
0.0421245
0.0421692
0.0418505
0.040931
0.0392405
0.036733
0.0335004
0.0302603
0.0438752
0.0442903
0.044765
0.0450396
0.0448507
0.043878
0.0418783
0.0387525
0.0345644
0.0305473
0.0448529
0.0454133
0.0461727
0.0468039
0.04693
0.0461212
0.0440131
0.0404185
0.0353744
0.0309118
0.0446791
0.0453721
0.0464225
0.0474629
0.0480208
0.0475369
0.0454669
0.0414602
0.0355293
0.0308538
0.0391862
0.039869
0.0410083
0.0424067
0.0436199
0.043999
0.0427322
0.0391531
0.033201
0.029072
0.0143121
0.0144745
0.0148428
0.0153944
0.0161571
0.0171388
0.0181529
0.0185258
0.0172914
0.0164681
0.00174899
0.00174222
0.00173711
0.00173411
0.00173388
0.00173765
0.001747
0.00176361
0.00178904
0.00182799
0.0018784
0.0018788
0.0018791
0.00187938
0.00187961
0.00187977
0.00187988
0.00188015
0.00188159
0.00188706
0.0115837
0.0115322
0.011543
0.0116398
0.0118211
0.0120889
0.0124501
0.0129252
0.0135431
0.0142799
0.0320683
0.0321905
0.0324037
0.0327055
0.0330516
0.0333678
0.0335652
0.0335525
0.0332612
0.0327477
0.037405
0.0376535
0.0379895
0.0383832
0.0387352
0.0389115
0.0387702
0.038199
0.0371404
0.0358034
0.0392438
0.039618
0.0401379
0.0407054
0.0411808
0.0413722
0.0410781
0.0401456
0.038467
0.0364139
0.0402074
0.0406597
0.0413448
0.0421422
0.0428519
0.0432097
0.0429235
0.0417721
0.0395486
0.0368908
0.0403075
0.0408354
0.0416941
0.0427271
0.0437067
0.0442963
0.04409
0.0427579
0.0399414
0.0367562
0.0359655
0.0364474
0.0372832
0.038408
0.0396375
0.0406582
0.0409602
0.0400122
0.0372381
0.0342
0.0138477
0.0139363
0.0141758
0.0145274
0.0150099
0.0156585
0.0164613
0.0172009
0.0171834
0.0169438
0.00173846
0.00173297
0.00172901
0.00172697
0.0017274
0.00173121
0.00173948
0.00175334
0.0017733
0.00179945
0.00185915
0.00185954
0.00185971
0.00185969
0.00185949
0.00185909
0.00185851
0.00185796
0.00185841
0.00186273
0.0119249
0.0118776
0.0118688
0.0119159
0.0120173
0.0121729
0.0123893
0.0126926
0.0131412
0.0138005
0.0299362
0.0300041
0.0301285
0.0303233
0.0305822
0.0308877
0.0312148
0.0315245
0.0317585
0.0318636
0.0340969
0.0342565
0.0344903
0.0348154
0.0352024
0.0356086
0.0359758
0.0362341
0.0363085
0.0362085
0.035591
0.0358415
0.036212
0.0366838
0.0372143
0.0377359
0.0381534
0.0383615
0.0382476
0.0378688
0.0365012
0.0368014
0.0372785
0.0379149
0.0386442
0.0393697
0.0399409
0.0401908
0.0399176
0.0392129
0.0367698
0.0371235
0.0377185
0.0385082
0.0394264
0.0403472
0.0410561
0.0413081
0.0407671
0.039634
0.0333894
0.0337019
0.0342532
0.035032
0.0359861
0.0370331
0.0379541
0.0384185
0.0378927
0.0366968
0.0135655
0.013602
0.0137504
0.0139625
0.0142469
0.0146276
0.0151216
0.0156624
0.0157894
0.0157541
0.001726
0.00172167
0.00171871
0.00171743
0.00171828
0.00172189
0.00172894
0.00174002
0.00175488
0.00177216
0.00183811
0.0018385
0.00183859
0.00183842
0.00183798
0.00183728
0.00183634
0.00183535
0.00183525
0.00183882
0.0124391
0.0124014
0.0123862
0.012408
0.0124663
0.0125613
0.0127006
0.0129137
0.013272
0.0138878
0.0287758
0.0288029
0.0288538
0.0289387
0.029058
0.0292074
0.0293809
0.0295651
0.0297298
0.029825
0.0319393
0.0320149
0.0321259
0.0322924
0.0325045
0.0327504
0.0330115
0.0332592
0.0334492
0.0335563
0.033037
0.0331721
0.0333719
0.0336364
0.0339565
0.0343156
0.0346852
0.0350238
0.0352676
0.0354073
0.0338018
0.0339703
0.0342395
0.0346171
0.0350878
0.0356346
0.0362146
0.0367605
0.0371534
0.0373646
0.0341078
0.034317
0.034672
0.0351582
0.035771
0.0364899
0.0372523
0.0379544
0.0383926
0.0385503
0.0314604
0.0316458
0.0319748
0.0324443
0.0330425
0.0337729
0.03459
0.0353694
0.0357788
0.035844
0.013457
0.0134581
0.0135454
0.0136668
0.013825
0.0140308
0.0142948
0.0145834
0.0145364
0.0143631
0.00171143
0.00170813
0.00170599
0.00170527
0.00170631
0.00170951
0.00171524
0.00172375
0.00173435
0.00174562
0.00181559
0.00181598
0.00181603
0.00181577
0.00181521
0.00181435
0.00181322
0.001812
0.00181153
0.00181456
0.0130466
0.0130201
0.013004
0.013012
0.0130449
0.0131042
0.0131991
0.0133626
0.0136746
0.0142763
0.0282713
0.0282807
0.0282981
0.0283297
0.028377
0.0284396
0.0285169
0.0286052
0.0286894
0.0287312
0.0306988
0.0307286
0.0307716
0.0308413
0.0309323
0.0310394
0.0311554
0.0312678
0.0313556
0.0314018
0.0314258
0.0314891
0.0315803
0.0317003
0.0318454
0.0320101
0.0321847
0.032354
0.0324903
0.0325856
0.0319973
0.0320803
0.0322109
0.0323965
0.0326309
0.0329125
0.0332311
0.0335657
0.0338633
0.0340939
0.0322471
0.0323577
0.0325456
0.0328009
0.0331286
0.0335295
0.0339919
0.034486
0.0349169
0.0352587
0.0301219
0.0302215
0.0304012
0.0306542
0.0309732
0.0313705
0.0318469
0.0323698
0.032766
0.0330544
0.0135115
0.0134891
0.0135375
0.0136035
0.0136873
0.0137921
0.0139221
0.0140517
0.0138836
0.0136235
0.0016946
0.00169219
0.00169071
0.00169037
0.0016914
0.00169405
0.00169847
0.00170471
0.00171196
0.0017191
0.00179169
0.00179208
0.00179211
0.00179181
0.00179119
0.00179024
0.00178901
0.00178764
0.00178692
0.00178948
0.0137111
0.0136957
0.013681
0.0136809
0.0136976
0.0137337
0.0138004
0.0139336
0.0142196
0.0148201
0.0281302
0.028134
0.0281391
0.02815
0.0281684
0.0281956
0.0282332
0.0282817
0.0283323
0.0283522
0.0300419
0.030052
0.0300669
0.0300944
0.0301314
0.0301755
0.0302233
0.0302692
0.0303034
0.0303158
0.0304834
0.0305101
0.0305478
0.030597
0.0306554
0.03072
0.0307869
0.0308501
0.0308998
0.0309332
0.0308738
0.0309106
0.0309677
0.0310496
0.0311519
0.0312735
0.0314111
0.0315571
0.0316905
0.0317935
0.0310335
0.0310856
0.031176
0.0312969
0.0314513
0.0316399
0.0318589
0.0320986
0.0323159
0.0324939
0.029276
0.029323
0.0294136
0.0295383
0.0296896
0.0298731
0.0300928
0.0303369
0.0305119
0.0306467
0.0137183
0.0136808
0.0137054
0.0137396
0.013782
0.013833
0.0138935
0.0139427
0.0137364
0.0134815
0.00167543
0.00167375
0.00167278
0.00167267
0.00167357
0.00167561
0.00167883
0.00168315
0.00168785
0.00169215
0.00176642
0.0017668
0.00176682
0.0017665
0.00176584
0.00176485
0.00176356
0.0017621
0.00176117
0.00176328
0.0144247
0.0144194
0.0144072
0.0144024
0.0144084
0.0144289
0.0144766
0.0145902
0.0148608
0.015466
0.0281721
0.0281748
0.0281762
0.0281796
0.0281869
0.0282001
0.0282218
0.028254
0.028291
0.0283025
0.0297156
0.0297185
0.0297232
0.0297342
0.02975
0.0297693
0.0297908
0.0298118
0.0298272
0.0298301
0.0299637
0.0299734
0.029988
0.0300074
0.0300306
0.0300558
0.0300815
0.0301053
0.030124
0.0301372
0.0302151
0.0302295
0.0302525
0.0302865
0.0303287
0.0303782
0.0304336
0.0304919
0.0305459
0.030586
0.0302921
0.0303129
0.0303526
0.0304062
0.0304751
0.030559
0.0306558
0.0307613
0.0308555
0.0309284
0.0288098
0.0288269
0.0288691
0.028926
0.028991
0.0290658
0.0291525
0.029244
0.029287
0.0293165
0.0140699
0.0140228
0.0140336
0.0140503
0.014071
0.014095
0.0141217
0.014134
0.0139369
0.0137269
0.00165386
0.00165278
0.00165218
0.00165219
0.00165289
0.00165434
0.00165652
0.00165931
0.00166213
0.00166448
0.00173968
0.00174006
0.00174008
0.00173974
0.00173907
0.00173805
0.00173673
0.00173519
0.00173408
0.00173576
0.0151966
0.0152006
0.0151914
0.0151842
0.0151831
0.0151929
0.0152276
0.0153282
0.0155904
0.0162038
0.028301
0.0283039
0.0283045
0.0283054
0.0283085
0.0283158
0.0283304
0.0283549
0.0283855
0.0283937
0.0295639
0.0295645
0.0295661
0.0295707
0.0295779
0.0295872
0.0295981
0.0296093
0.0296179
0.0296187
0.0296921
0.0296946
0.0296997
0.0297076
0.0297175
0.0297288
0.0297406
0.0297521
0.0297619
0.0297703
0.029849
0.0298537
0.0298621
0.0298759
0.0298933
0.0299137
0.0299365
0.0299607
0.0299839
0.0300013
0.0298685
0.0298739
0.0298894
0.0299122
0.0299431
0.0299818
0.0300269
0.0300766
0.0301205
0.0301532
0.0286156
0.0286173
0.0286352
0.0286592
0.0286842
0.0287105
0.0287389
0.0287649
0.0287569
0.0287514
0.0145637
0.0145107
0.0145137
0.0145214
0.0145314
0.0145425
0.0145537
0.0145502
0.0143838
0.0142277
0.00162987
0.00162925
0.00162892
0.00162898
0.00162946
0.0016304
0.00163172
0.00163334
0.00163481
0.00163583
0.00171138
0.00171176
0.00171177
0.00171143
0.00171075
0.00170971
0.00170836
0.00170677
0.00170549
0.00170673
0.0160478
0.0160604
0.0160545
0.0160464
0.0160408
0.0160433
0.0160692
0.0161613
0.0164199
0.0170456
0.0284687
0.0284721
0.0284728
0.0284731
0.0284745
0.0284792
0.0284901
0.0285105
0.0285376
0.0285452
0.029499
0.0294994
0.0295
0.0295021
0.0295056
0.0295102
0.0295161
0.0295227
0.0295283
0.0295289
0.0295581
0.0295578
0.0295593
0.0295627
0.0295678
0.0295742
0.0295813
0.0295888
0.029596
0.029603
0.0296555
0.0296563
0.0296591
0.0296647
0.0296722
0.0296813
0.0296917
0.029703
0.0297143
0.0297234
0.0296439
0.0296426
0.0296473
0.029657
0.029672
0.029692
0.0297162
0.0297436
0.0297683
0.0297871
0.0286034
0.0285979
0.0286045
0.0286136
0.0286218
0.0286286
0.0286343
0.0286359
0.0286145
0.0286043
0.0152055
0.0151487
0.0151476
0.0151511
0.015156
0.0151614
0.0151657
0.0151554
0.0150288
0.0149233
0.00160347
0.00160318
0.00160305
0.00160311
0.0016034
0.0016039
0.00160457
0.00160531
0.00160585
0.00160597
0.00168141
0.00168179
0.0016818
0.00168145
0.00168076
0.00167972
0.00167834
0.0016767
0.00167526
0.00167604
0.0170093
0.0170299
0.0170277
0.0170198
0.0170116
0.0170093
0.0170292
0.0171158
0.017375
0.0180191
0.0286518
0.0286556
0.0286566
0.0286568
0.0286578
0.0286611
0.0286698
0.0286874
0.0287126
0.0287213
0.0294747
0.0294752
0.0294757
0.0294767
0.0294783
0.0294805
0.0294836
0.0294876
0.0294916
0.0294925
0.0294964
0.0294952
0.0294954
0.0294972
0.0295003
0.0295046
0.0295098
0.0295155
0.0295213
0.0295273
0.0295574
0.0295569
0.0295577
0.0295601
0.0295638
0.0295685
0.0295739
0.0295799
0.0295862
0.0295917
0.0295353
0.0295317
0.0295321
0.0295364
0.0295447
0.0295568
0.0295721
0.0295898
0.0296063
0.0296198
0.0287033
0.0286951
0.0286969
0.0286999
0.0287017
0.0287018
0.0287
0.0286943
0.0286739
0.028668
0.0160125
0.0159534
0.0159503
0.0159518
0.0159545
0.0159574
0.015959
0.0159474
0.0158612
0.0157989
0.00157467
0.00157463
0.00157463
0.00157467
0.00157479
0.00157496
0.00157514
0.00157527
0.00157516
0.00157469
0.00164969
0.00165007
0.00165008
0.00164973
0.00164902
0.00164797
0.00164658
0.00164489
0.00164329
0.00164359
0.0181234
0.0181516
0.0181534
0.0181467
0.0181374
0.0181321
0.0181479
0.0182311
0.0184942
0.0191683
0.0288381
0.028842
0.0288433
0.0288437
0.0288445
0.0288471
0.0288542
0.0288695
0.0288934
0.0289048
0.0294674
0.0294682
0.0294687
0.0294691
0.0294697
0.0294705
0.029472
0.0294743
0.0294772
0.0294787
0.0294702
0.029469
0.0294688
0.0294699
0.029472
0.0294752
0.029479
0.0294833
0.0294879
0.0294927
0.0295087
0.029508
0.0295082
0.0295094
0.0295114
0.0295141
0.0295174
0.0295209
0.0295247
0.0295282
0.0294889
0.029485
0.029484
0.0294862
0.0294914
0.0294996
0.0295101
0.0295225
0.0295345
0.0295452
0.0288641
0.0288557
0.0288556
0.0288562
0.0288561
0.0288547
0.0288515
0.0288451
0.0288301
0.02883
0.0170187
0.0169582
0.0169542
0.016955
0.0169567
0.0169585
0.0169588
0.0169525
0.0169002
0.0168729
0.00154353
0.00154367
0.00154375
0.00154377
0.00154376
0.00154368
0.00154352
0.00154322
0.00154269
0.00154182
0.00161625
0.00161662
0.00161663
0.00161627
0.00161556
0.00161449
0.00161308
0.00161135
0.0016096
0.00160939
0.0194482
0.0194841
0.0194901
0.0194852
0.0194761
0.0194696
0.0194827
0.0195631
0.0198321
0.020552
0.0290191
0.0290229
0.0290242
0.0290249
0.0290256
0.0290278
0.0290335
0.0290466
0.0290688
0.0290837
0.0294656
0.0294664
0.0294668
0.029467
0.029467
0.0294672
0.0294676
0.0294688
0.0294709
0.029473
0.0294598
0.0294589
0.0294587
0.0294593
0.0294608
0.0294629
0.0294656
0.0294687
0.029472
0.0294755
0.0294837
0.0294831
0.0294831
0.0294837
0.029485
0.0294867
0.0294886
0.0294908
0.0294931
0.0294954
0.0294714
0.0294681
0.0294669
0.0294682
0.0294718
0.0294774
0.0294847
0.0294932
0.0295017
0.0295102
0.0290481
0.0290406
0.0290399
0.0290399
0.0290395
0.0290384
0.0290359
0.0290313
0.0290219
0.0290266
0.0182822
0.0182214
0.0182172
0.0182177
0.0182189
0.01822
0.0182196
0.0182168
0.018194
0.0181937
0.00151018
0.00151044
0.00151057
0.00151057
0.00151046
0.00151021
0.00150982
0.00150925
0.00150843
0.00150732
0.00158123
0.00158162
0.00158162
0.00158126
0.00158054
0.00157947
0.00157804
0.00157628
0.00157439
0.00157364
0.0210643
0.0211075
0.021118
0.0211159
0.0211087
0.0211029
0.0211147
0.0211914
0.0214644
0.0222485
0.0291856
0.0291888
0.0291901
0.0291908
0.0291916
0.0291934
0.0291978
0.0292082
0.0292278
0.0292459
0.0294635
0.0294642
0.0294645
0.0294646
0.0294644
0.0294642
0.0294642
0.0294647
0.0294661
0.0294684
0.029455
0.0294544
0.0294542
0.0294546
0.0294555
0.0294569
0.0294586
0.0294605
0.0294626
0.029465
0.0294688
0.0294685
0.0294685
0.0294688
0.0294695
0.0294705
0.0294717
0.0294729
0.0294741
0.0294755
0.029463
0.0294607
0.0294598
0.0294606
0.0294629
0.0294665
0.0294711
0.0294765
0.0294819
0.0294881
0.0292246
0.0292188
0.0292181
0.029218
0.0292178
0.0292173
0.0292158
0.0292134
0.0292081
0.0292157
0.0199001
0.0198408
0.019837
0.0198373
0.0198381
0.0198385
0.0198373
0.0198338
0.0198244
0.0198437
0.00147485
0.00147518
0.00147535
0.00147534
0.00147516
0.0014748
0.00147425
0.00147351
0.00147252
0.00147126
0.00154487
0.00154519
0.0015452
0.00154485
0.00154415
0.00154309
0.00154167
0.00153991
0.00153792
0.00153662
0.0230712
0.0231201
0.0231355
0.0231382
0.0231363
0.0231354
0.0231491
0.0232202
0.0234844
0.0243349
0.0293249
0.0293273
0.0293283
0.0293289
0.0293297
0.0293311
0.0293343
0.0293416
0.0293567
0.0293756
0.0294593
0.0294597
0.0294599
0.0294599
0.0294598
0.0294595
0.0294594
0.0294595
0.0294603
0.0294621
0.0294515
0.0294511
0.029451
0.0294512
0.0294518
0.0294525
0.0294535
0.0294546
0.0294558
0.0294572
0.0294585
0.0294583
0.0294583
0.0294585
0.0294589
0.0294594
0.02946
0.0294606
0.0294612
0.0294619
0.0294538
0.0294523
0.0294518
0.0294523
0.0294536
0.0294557
0.0294582
0.0294611
0.0294641
0.029468
0.0293663
0.0293627
0.0293623
0.0293623
0.0293622
0.029362
0.0293612
0.0293599
0.0293566
0.0293648
0.0220389
0.0219843
0.0219814
0.0219816
0.0219819
0.0219817
0.0219797
0.0219754
0.0219649
0.0219772
0.00143772
0.00143809
0.00143826
0.00143824
0.00143802
0.0014376
0.00143698
0.00143614
0.00143506
0.00143374
0.00150609
0.00150648
0.0015065
0.00150616
0.00150548
0.00150444
0.00150305
0.00150133
0.0014993
0.00149756
0.025717
0.0257561
0.0257658
0.0257667
0.0257644
0.0257617
0.0257658
0.0258044
0.0259928
0.0268312
0.0294245
0.0294255
0.029426
0.0294265
0.0294271
0.029428
0.0294298
0.0294337
0.0294422
0.0294568
0.0294541
0.0294543
0.0294544
0.0294544
0.0294543
0.0294542
0.0294541
0.0294541
0.0294544
0.0294552
0.0294492
0.029449
0.0294489
0.0294491
0.0294494
0.0294498
0.0294504
0.029451
0.0294517
0.0294525
0.0294517
0.0294515
0.0294515
0.0294516
0.0294518
0.0294522
0.0294526
0.029453
0.0294535
0.0294539
0.0294444
0.0294435
0.0294432
0.0294435
0.0294443
0.0294455
0.0294469
0.0294483
0.0294498
0.0294517
0.0294531
0.0294515
0.0294514
0.0294515
0.0294515
0.0294515
0.0294514
0.0294512
0.0294508
0.0294568
0.0250111
0.0249697
0.024968
0.0249681
0.0249681
0.0249677
0.0249661
0.0249624
0.0249536
0.0249567
0.00139807
0.00139844
0.00139861
0.00139858
0.00139835
0.0013979
0.00139725
0.00139637
0.00139527
0.00139398
0.00239276
0.00246242
0.0024325
0.00231098
0.0023252
0.00232567
0.00229673
0.0022556
0.00287902
0.0028877
0.00284888
0.0027588
0.00319375
0.00320979
0.00317008
0.00305547
0.00349095
0.00351302
0.00347054
0.00334453
0.00381565
0.00383354
0.0037817
0.00365014
0.00408554
0.00409715
0.00404217
0.0039219
0.00421879
0.00422245
0.00416596
0.00405172
0.0037293
0.00371211
0.00364467
0.00352862
0.00255889
0.00262092
0.002659
0.00265926
0.00204793
0.00209964
0.002119
0.00209344
0.00411237
0.0042918
0.00425008
0.0039414
0.00627438
0.00644937
0.0063447
0.00589819
0.00757894
0.00772664
0.00758701
0.0071083
0.00889421
0.00907154
0.0089178
0.00842038
0.0107367
0.0110484
0.0109378
0.0104905
0.0127138
0.0131346
0.0130392
0.0126367
0.014231
0.0147281
0.0146691
0.0143975
0.0119188
0.0123343
0.0122529
0.0119967
0.00235818
0.00239071
0.0023946
0.00237541
0.00193785
0.00196087
0.00196701
0.00195428
0.00475912
0.00497839
0.00507283
0.0051857
0.00701014
0.00728929
0.00736951
0.00752306
0.00819413
0.00846928
0.00853636
0.00867999
0.00934833
0.00963575
0.00970147
0.009786
0.0108311
0.011239
0.0114247
0.0116369
0.0124845
0.0130316
0.0133242
0.0136179
0.0137855
0.0144571
0.0148427
0.0152411
0.0108131
0.0113715
0.0116737
0.0119422
0.00214166
0.00216807
0.00217866
0.00217651
0.00188474
0.00189585
0.00189815
0.00189005
0.00821333
0.00824497
0.0085298
0.00921403
0.01167
0.0117608
0.0122182
0.0132354
0.0127169
0.0129102
0.0134678
0.0146179
0.013581
0.0138723
0.0144977
0.0157188
0.0147118
0.0151344
0.0158867
0.0172901
0.0158409
0.0163867
0.0172357
0.0187381
0.0164495
0.0171251
0.0180645
0.019599
0.0120204
0.0126121
0.0133269
0.0143266
0.00200819
0.00202468
0.002036
0.00204404
0.00184825
0.00185598
0.00185677
0.00185015
0.0124924
0.0125114
0.0127886
0.0133828
0.0193453
0.0193498
0.0199169
0.0210688
0.0203829
0.0205443
0.0213161
0.0227215
0.0209105
0.0212394
0.0221621
0.0237238
0.0217661
0.0223132
0.0234361
0.0251742
0.0224608
0.023194
0.0244488
0.0262468
0.0221767
0.0230476
0.0243337
0.0260197
0.0146217
0.0152996
0.0161078
0.0169454
0.00193364
0.00194473
0.00195364
0.00196127
0.00181877
0.00182509
0.0018255
0.00181969
0.014001
0.0140904
0.0142479
0.0144878
0.0274893
0.0273905
0.0277545
0.0285139
0.028867
0.0288618
0.0294169
0.0304327
0.0290438
0.0291761
0.0298838
0.031053
0.0294684
0.0297834
0.0306649
0.0319808
0.0295726
0.0300472
0.0310412
0.0324093
0.028137
0.0287199
0.0297082
0.0309466
0.0165026
0.0168931
0.0173685
0.0177805
0.00187911
0.00188614
0.00189266
0.00189921
0.00179351
0.00179911
0.00179932
0.00179397
0.0130498
0.0131828
0.0132784
0.0133519
0.0322256
0.0321782
0.0322994
0.0325611
0.0351911
0.0351572
0.0353823
0.0358055
0.035612
0.0356237
0.0359461
0.0364921
0.0359495
0.0360475
0.0364936
0.0371763
0.0357184
0.0359009
0.0364334
0.0371859
0.033244
0.0334865
0.0340077
0.0346725
0.01706
0.0172017
0.0173403
0.0173783
0.00183729
0.00184173
0.00184637
0.00185164
0.00176998
0.00177513
0.00177525
0.0017702
0.0124454
0.0125769
0.0126422
0.0126519
0.0315356
0.0315158
0.031536
0.0315927
0.0361014
0.0360986
0.0361402
0.0362135
0.0376915
0.0376934
0.0377689
0.0378926
0.0389177
0.0389426
0.039088
0.039313
0.0391747
0.0392163
0.0394118
0.0397037
0.036204
0.0362555
0.0364321
0.0366686
0.0160526
0.0160942
0.0160844
0.0159684
0.0018026
0.00180536
0.0018086
0.00181275
0.00174678
0.00175159
0.00175165
0.00174688
0.0124431
0.0125686
0.0126149
0.012589
0.0294967
0.0294707
0.0294741
0.0295069
0.0335422
0.0335454
0.0335482
0.033549
0.035435
0.0354462
0.0354495
0.0354405
0.0374259
0.0374594
0.0374964
0.0375282
0.0385957
0.0386371
0.0386965
0.0387583
0.0359021
0.0359337
0.0359684
0.0359845
0.0146135
0.0146301
0.0146018
0.0144911
0.00177175
0.00177341
0.00177564
0.00177883
0.00172318
0.00172767
0.0017277
0.00172322
0.0127367
0.0128545
0.0128875
0.0128413
0.0284083
0.0283783
0.02838
0.0284137
0.0313795
0.0313786
0.0313805
0.0313848
0.032606
0.0326114
0.0326076
0.0325936
0.0341726
0.0341971
0.0342104
0.0342099
0.0354044
0.0354446
0.0354696
0.0354744
0.033276
0.0333126
0.0333178
0.0332826
0.0137851
0.0137884
0.0137635
0.0136858
0.0017426
0.00174355
0.00174506
0.00174747
0.00169875
0.00170292
0.00170293
0.00169876
0.0131773
0.0132843
0.0133075
0.0132521
0.0280449
0.0280141
0.0280152
0.0280485
0.0302928
0.0302908
0.0302937
0.0303012
0.0309388
0.0309406
0.0309388
0.0309329
0.031827
0.0318382
0.0318451
0.0318467
0.0325727
0.032594
0.0326071
0.0326098
0.0308052
0.030827
0.030826
0.0307969
0.0136119
0.0136102
0.0135884
0.0135318
0.00171398
0.00171446
0.00171547
0.00171728
0.0016732
0.00167704
0.00167704
0.0016732
0.0137106
0.013801
0.0138163
0.0137632
0.028013
0.0279825
0.027983
0.0280149
0.0298109
0.029809
0.0298117
0.0298186
0.0301399
0.030141
0.0301405
0.0301384
0.0305984
0.0306034
0.0306074
0.0306103
0.0309606
0.0309696
0.0309766
0.0309806
0.0294154
0.0294253
0.0294213
0.0294009
0.0138649
0.0138642
0.0138459
0.0138013
0.00168521
0.00168541
0.00168607
0.00168741
0.00164631
0.00164979
0.00164979
0.0016463
0.0143232
0.0143846
0.0143935
0.0143585
0.0281234
0.0280938
0.028094
0.0281242
0.0296032
0.0296016
0.0296036
0.0296091
0.0297731
0.0297742
0.0297743
0.0297735
0.0300069
0.0300094
0.030012
0.0300144
0.030167
0.0301709
0.0301748
0.0301786
0.028823
0.0288282
0.0288238
0.0288086
0.0143909
0.0143943
0.01438
0.0143423
0.00165585
0.00165587
0.0016563
0.00165729
0.00161791
0.00162104
0.00162104
0.00161789
0.0150237
0.0150658
0.0150713
0.0150442
0.0282963
0.0282685
0.0282684
0.0282964
0.0295166
0.0295153
0.0295166
0.0295205
0.0296061
0.0296072
0.0296075
0.0296072
0.0297266
0.0297282
0.0297299
0.0297316
0.0297941
0.0297961
0.0297986
0.0298016
0.0286635
0.0286672
0.0286636
0.0286521
0.0151191
0.0151282
0.0151176
0.0150839
0.00162554
0.00162547
0.00162574
0.00162646
0.00158785
0.00159064
0.00159064
0.00158784
0.0158347
0.015874
0.0158779
0.0158494
0.0284968
0.0284717
0.0284717
0.0284968
0.0294832
0.0294822
0.0294829
0.0294855
0.0295302
0.0295312
0.0295316
0.0295314
0.029594
0.029595
0.0295961
0.0295972
0.0296241
0.0296253
0.029627
0.0296293
0.0287195
0.0287229
0.0287204
0.0287117
0.0160305
0.0160457
0.0160384
0.0160068
0.00159399
0.00159387
0.00159404
0.00159456
0.00155606
0.00155848
0.00155848
0.00155606
0.0168103
0.0168538
0.0168564
0.0168201
0.0287084
0.0286871
0.028687
0.0287084
0.0294723
0.0294716
0.0294719
0.0294733
0.0294952
0.029496
0.0294963
0.0294962
0.0295299
0.0295306
0.0295313
0.029532
0.0295482
0.0295489
0.0295501
0.0295519
0.0288749
0.0288781
0.0288766
0.0288701
0.0171401
0.0171607
0.0171564
0.0171261
0.00156098
0.00156086
0.00156095
0.00156132
0.00152253
0.00152454
0.00152454
0.00152252
0.0180076
0.0180684
0.01807
0.0180136
0.0289203
0.0289038
0.0289038
0.0289204
0.0294694
0.0294691
0.0294692
0.0294697
0.0294774
0.029478
0.0294782
0.0294781
0.0294965
0.029497
0.0294974
0.0294977
0.0295121
0.0295127
0.0295135
0.0295148
0.0290651
0.0290682
0.0290672
0.0290622
0.0184902
0.0185137
0.0185119
0.0184843
0.00152642
0.00152631
0.00152636
0.00152661
0.00148743
0.00148901
0.00148901
0.00148743
0.0195187
0.0196222
0.0196229
0.0195216
0.0291209
0.0291106
0.0291106
0.0291211
0.0294672
0.0294674
0.0294674
0.0294672
0.0294664
0.0294667
0.0294668
0.0294667
0.0294763
0.0294765
0.0294766
0.0294766
0.0294894
0.0294899
0.0294904
0.029491
0.029248
0.0292509
0.0292502
0.0292458
0.0201461
0.0201639
0.0201641
0.0201469
0.00149038
0.00149029
0.00149032
0.00149048
0.00145109
0.00145219
0.00145219
0.00145109
0.0215075
0.0217033
0.0217035
0.0215082
0.0292946
0.0292912
0.0292913
0.0292948
0.0294624
0.0294629
0.0294628
0.0294623
0.029458
0.0294583
0.0294583
0.0294582
0.0294623
0.0294624
0.0294623
0.0294622
0.0294689
0.0294693
0.0294696
0.0294698
0.0293904
0.0293932
0.0293924
0.029388
0.0222613
0.0222728
0.0222733
0.0222626
0.00145296
0.00145292
0.00145294
0.00145302
0.00141283
0.00141344
0.00141344
0.00141283
0.0243556
0.0247001
0.0247001
0.0243558
0.0294222
0.0294243
0.0294243
0.0294224
0.0294556
0.0294559
0.0294559
0.0294556
0.0294529
0.029453
0.029453
0.029453
0.029454
0.029454
0.029454
0.0294539
0.0294521
0.0294524
0.0294527
0.0294529
0.0294701
0.0294713
0.0294703
0.0294673
0.0251727
0.0251737
0.0251744
0.0251745
0.00141339
0.00141339
0.00141341
0.00141343
0.00219671
0.0020832
0.00202182
0.00198604
0.00196482
0.001949
0.00193544
0.00192385
0.00191446
0.00190699
0.00280768
0.00252616
0.00385317
0.00831312
0.0133735
0.0171513
0.0192291
0.0198416
0.019565
0.0188344
0.00403298
0.00498878
0.0114597
0.0211313
0.0322306
0.0418059
0.0487954
0.053031
0.0547537
0.0542276
0.00557888
0.00897647
0.0176704
0.0302628
0.0434625
0.0540595
0.0614777
0.0658093
0.067452
0.0668417
0.00878467
0.0121278
0.0230717
0.0370163
0.0505345
0.0609186
0.0677837
0.0714847
0.0725936
0.0718686
0.0132497
0.0159731
0.0274758
0.0417014
0.054959
0.0648093
0.0708983
0.0737686
0.0742231
0.0733573
0.0167236
0.0188513
0.0294886
0.0436889
0.0565159
0.0656421
0.0707069
0.0725994
0.0723476
0.0714177
0.0185346
0.019468
0.0276007
0.0403739
0.0509873