/*--------------------------------*- C++ -*----------------------------------*\
| =========                 |                                                 |
| \\      /  F ield         | foam-extend: Open Source CFD                    |
|  \\    /   O peration     | Version:     4.0                                |
|   \\  /    A nd           | Web:         http://www.foam-extend.org         |
|    \\/     M anipulation  |                                                 |
\*---------------------------------------------------------------------------*/
FoamFile
{
    version     2.0;
    format      ascii;
    class       volScalarField;
    location    "1600";
    object      divFlux;
}
// * * * * * * * * * * * * * * * * * * * * * * * * * * * * * * * * * * * * * //

dimensions      [1 -3 -1 0 0 0 0];

internalField   nonuniform List<scalar> 
34480
(
0.0719545
0.0230652
0.0237627
0.0221023
0.0202159
0.0183899
0.0166578
0.0150636
0.0136661
0.0124684
0.0198933
0.0100907
0.010233
0.00996043
0.00970081
0.00936455
0.00887298
0.00825237
0.0075846
0.00694014
0.00531006
0.00348627
0.00356465
0.00362857
0.00374607
0.00384597
0.00383509
0.00368483
0.00343689
0.0031463
0.00187412
0.0013815
0.00140296
0.00143631
0.00150159
0.00157393
0.00160673
0.00157253
0.00147926
0.00135031
0.00076752
0.000603213
0.000604955
0.000614823
0.00064091
0.000675279
0.000696985
0.00068961
0.000651788
0.000592956
0.000356869
0.000290736
0.000287306
0.000288644
0.000298556
0.0003142
0.000325784
0.000324564
0.000307993
0.000282653
0.000188215
0.000156069
0.000151554
0.000150024
0.000153533
0.000160958
0.000167443
0.000168254
0.000161095
0.000150215
0.000118769
9.86701e-05
9.36662e-05
9.08226e-05
9.13857e-05
9.48324e-05
9.85511e-05
9.99409e-05
9.714e-05
9.24994e-05
0.000104603
8.5926e-05
7.90723e-05
7.37675e-05
7.07931e-05
6.99518e-05
7.01884e-05
7.04655e-05
6.93358e-05
6.76018e-05
9.47685e-05
7.83761e-05
7.15001e-05
6.57818e-05
6.14811e-05
5.86401e-05
5.71943e-05
5.6933e-05
5.6933e-05
5.72325e-05
0.0939752
0.0270997
0.027869
0.0262517
0.0243803
0.0227054
0.0212707
0.0201421
0.0194426
0.020531
0.0283189
0.0131249
0.013325
0.0129976
0.0126565
0.0123844
0.0121352
0.0118687
0.0116227
0.0124068
0.00815533
0.00500797
0.00512634
0.00521856
0.0053863
0.00555952
0.00569278
0.00574351
0.00569775
0.00608443
0.00317064
0.00221917
0.00224979
0.00229545
0.0023999
0.00252065
0.00262421
0.00268185
0.00266804
0.00282831
0.00142848
0.00107648
0.00107432
0.00108721
0.00113131
0.00119492
0.00125352
0.00129053
0.00128416
0.00134981
0.000728693
0.000573204
0.000562619
0.000562689
0.000580511
0.000613645
0.000646625
0.000669877
0.000667373
0.000697055
0.000421256
0.000339004
0.000326823
0.00032236
0.000329401
0.000348174
0.00036907
0.000386143
0.000387149
0.000404967
0.000294293
0.000238522
0.000225076
0.000217946
0.000219486
0.00023043
0.000244845
0.000258897
0.000262182
0.000275627
0.000297027
0.000239163
0.000219563
0.000204968
0.000196595
0.000195813
0.000200577
0.000209252
0.000212724
0.000225438
0.000294581
0.000239472
0.000219196
0.000202957
0.000191069
0.000185428
0.000185431
0.000190485
0.000195017
0.000209755
0.095804
0.0237017
0.0248263
0.0236885
0.0223898
0.021298
0.0204819
0.0200259
0.0201553
0.0200778
0.0279369
0.0109965
0.0112839
0.010927
0.0106114
0.0104726
0.0104873
0.0106351
0.0110186
0.0047423
0.00757613
0.00399212
0.0040749
0.00407649
0.00412959
0.00426098
0.00446928
0.0047221
0.00503846
0.00187634
0.00277777
0.0016865
0.00169684
0.00169625
0.0017321
0.00180268
0.00191775
0.00206279
0.00223533
0.00261515
0.00117197
0.000775611
0.000766732
0.000757107
0.000768579
0.000799137
0.000854126
0.000929682
0.00102077
0.00121164
0.000555216
0.000388159
0.000376821
0.000366592
0.000367738
0.000380919
0.000408207
0.000449354
0.000500559
0.000603918
0.000295997
0.000214133
0.000204046
0.00019516
0.000193024
0.000198981
0.000214041
0.000239081
0.000271685
0.000335558
0.000188545
0.000138708
0.000129645
0.000121671
0.000118153
0.000120524
0.000129618
0.000146695
0.000170528
0.000217235
0.00016505
0.000120802
0.000111615
0.000103196
9.76465e-05
9.61074e-05
9.96973e-05
0.000110351
0.00012918
0.000171902
0.000138046
0.000100333
9.28092e-05
8.61634e-05
8.18342e-05
8.04377e-05
8.22132e-05
8.91175e-05
0.000105578
0.000153112
0.0981436
0.0218308
0.0230984
0.0223212
0.0213626
0.020574
0.0200303
0.0184708
0.00926341
0.00860898
0.0291694
0.0105444
0.0108521
0.0104809
0.0101238
0.00991467
0.00987516
0.0100169
0.00919055
0.00368888
0.00795934
0.00391428
0.00398829
0.00394232
0.00393157
0.00399491
0.00414411
0.00437563
0.00469031
0.00091896
0.00294748
0.0016922
0.00169915
0.00168159
0.00168721
0.00172645
0.00181115
0.00194087
0.00211319
0.000447208
0.00125096
0.000791927
0.000781888
0.000765908
0.000766166
0.000782152
0.000822959
0.000890082
0.000981464
0.000578628
0.000593253
0.000400664
0.000388776
0.000376072
0.000372606
0.000378895
0.000399336
0.000436105
0.000487891
0.000433731
0.000315344
0.00022231
0.000211956
0.000201996
0.000197781
0.000200179
0.000211642
0.000234301
0.00026751
0.000321964
0.000199074
0.000143941
0.0001349
0.000126515
0.000121995
0.000122365
0.000129398
0.000145107
0.000169537
0.000209797
0.000169588
0.000123161
0.000114576
0.000106601
0.00010116
9.90514e-05
0.00010186
0.000111942
0.000131395
0.00016942
0.000139635
0.00010105
9.4103e-05
8.8002e-05
8.41589e-05
8.2927e-05
8.50187e-05
9.24587e-05
0.000109577
0.000152748
0.098565
0.0197404
0.0211089
0.0206099
0.019884
0.0192694
0.0168362
0.0129679
0.00808901
0.00060354
0.02985
0.00990931
0.0102631
0.00993471
0.00957923
0.00931687
0.00917511
0.00917393
0.00635922
0.000692092
0.00828148
0.00378769
0.00386076
0.0037837
0.00372582
0.00372315
0.00378669
0.00392324
0.00391683
7.93866e-05
0.00310512
0.0016771
0.0016841
0.00165257
0.00163553
0.00164449
0.00168831
0.00177128
0.00189064
0.000471323
0.00132645
0.000798609
0.000788882
0.000769291
0.000759219
0.000762056
0.000784102
0.00082856
0.000894715
0.000327698
0.000629697
0.000408209
0.000396855
0.000382704
0.000375506
0.000375515
0.000386839
0.000411967
0.000450913
9.31538e-05
0.000333693
0.000227629
0.000217722
0.000207418
0.000201659
0.000200917
0.00020754
0.000223631
0.000249583
2.07207e-06
0.000208618
0.000147075
0.000138552
0.000130321
0.00012527
0.000124015
0.000128251
0.000139885
0.0001597
2.40521e-05
0.000172931
0.000123351
0.000115557
0.000108265
0.00010322
0.000100887
0.000102677
0.000110693
0.000127156
9.14395e-05
0.000140574
0.00010001
9.36926e-05
8.81491e-05
8.46951e-05
8.35999e-05
8.57333e-05
9.28522e-05
0.000108267
0.000144945
0.0971271
0.0175033
0.0189018
0.0186057
0.0179074
0.0161644
0.0141299
0.0120911
0.00972121
0.00591519
0.02981
0.00909392
0.00948734
0.00922445
0.00890913
0.00864797
0.00846085
0.00783045
0.00575611
0.00199626
0.00851465
0.00360884
0.00368498
0.00359086
0.00350303
0.003453
0.00344792
0.00349296
0.00326437
0.00107723
0.00323803
0.00163909
0.00164733
0.00160545
0.0015715
0.00155639
0.0015657
0.00160259
0.00166427
0.000719203
0.0013923
0.000794042
0.00078581
0.000762391
0.000744756
0.000736898
0.000742822
0.000764815
0.000801186
0.000326557
0.000661664
0.00041009
0.000399735
0.000384806
0.00037419
0.000369145
0.000372497
0.000385939
0.000409083
7.66279e-07
0.000349637
0.00022983
0.000220719
0.000210323
0.000203289
0.000199984
0.000202306
0.000211691
0.000228326
0.000167642
0.000216501
0.000148157
0.000140366
0.000132477
0.000127076
0.000124571
0.000126336
0.000133736
0.000147379
0.000273856
0.000174993
0.000121947
0.000114955
0.000108322
0.000103658
0.000101279
0.000102292
0.000108193
0.000120623
0.000224198
0.000140821
9.78291e-05
9.21414e-05
8.70952e-05
8.39306e-05
8.29018e-05
8.48625e-05
9.11625e-05
0.000103985
0.000167054
0.093696
0.0148013
0.0160726
0.0156493
0.0146736
0.0137119
0.0125267
0.0114995
0.0102255
0.00852143
0.0290583
0.00814918
0.00856172
0.00836282
0.0080992
0.00786891
0.00765392
0.00698933
0.00568238
0.00363027
0.00861331
0.00337626
0.0034597
0.00336373
0.00326474
0.0031903
0.00314495
0.00313126
0.00287511
0.00156126
0.00332815
0.00157467
0.00158617
0.0015395
0.00149604
0.00146559
0.00145146
0.00145514
0.00148594
0.000841605
0.00144023
0.00077577
0.000769673
0.000744242
0.000722001
0.000706846
0.000701228
0.000706287
0.000719205
0.000350523
0.000685298
0.000404787
0.000395885
0.00038054
0.000367779
0.000359255
0.000356717
0.000361086
0.000371275
6.65457e-06
0.000361298
0.000228093
0.000219987
0.000209824
0.000201891
0.000196804
0.000195886
0.00019993
0.000208626
0.000202087
0.000221759
0.000146784
0.000139831
0.000132389
0.000126848
0.000123529
0.000123454
0.000127439
0.000135655
0.000356685
0.000175309
0.000118894
0.000112675
0.000106628
0.000102292
9.99528e-05
0.000100434
0.000104659
0.000113529
0.000352819
0.000140029
9.45341e-05
8.94511e-05
8.48404e-05
8.18833e-05
8.08464e-05
8.24732e-05
8.77094e-05
9.78563e-05
0.000307934
0.0885277
0.0117904
0.013117
0.0130603
0.0124835
0.0119457
0.0112108
0.0106993
0.0099101
0.00918561
0.0277218
0.00714551
0.0075544
0.00740691
0.00718882
0.00699214
0.00674496
0.00629791
0.00553071
0.00442783
0.00851683
0.00308874
0.0031799
0.00309343
0.00299827
0.00291959
0.0028607
0.00283148
0.00260237
0.00179229
0.00335084
0.00148009
0.00149624
0.00145048
0.00140504
0.00136871
0.00134337
0.00132955
0.0013367
0.00088365
0.00146073
0.000741623
0.000738277
0.000713011
0.000689368
0.000670859
0.000658882
0.000653847
0.000654336
0.000365004
0.000696566
0.00039108
0.0003839
0.000368887
0.000355478
0.000345228
0.000339172
0.000337693
0.000338159
1.45212e-05
0.000366799
0.000221738
0.000214767
0.00020509
0.0001969
0.000190938
0.000187977
0.000188386
0.000191511
0.000176686
0.000223466
0.000142613
0.000136526
0.00012965
0.000124184
0.000120511
0.000119278
0.000120882
0.000125154
0.000350579
0.000173405
0.000114068
0.000108579
0.000103051
9.90048e-05
9.67301e-05
9.68229e-05
9.97943e-05
0.000106022
0.000357045
0.000137831
9.00389e-05
8.55371e-05
8.13116e-05
7.85107e-05
7.74157e-05
7.86101e-05
8.27113e-05
9.04453e-05
0.000326494
0.0835554
0.00974487
0.0109738
0.0110817
0.0107117
0.0103928
0.00988906
0.00962967
0.00906199
0.00878724
0.0259546
0.00614546
0.00653234
0.0064236
0.00624235
0.00607233
0.00585267
0.00555182
0.00509735
0.00448336
0.00820634
0.00275525
0.00285002
0.0027767
0.00269176
0.00261894
0.00256127
0.00252771
0.00235097
0.00185731
0.00328855
0.00135535
0.00137558
0.00133395
0.00129118
0.00125535
0.00122764
0.00120821
0.00119793
0.000883993
0.00144631
0.000691021
0.000690393
0.000666812
0.000644078
0.000625322
0.000611312
0.0006021
0.000593628
0.000371753
0.000692225
0.000368565
0.000363113
0.000349063
0.000336123
0.00032566
0.000318232
0.000313917
0.000296522
4.05587e-05
0.000364618
0.000210477
0.00020466
0.000195674
0.00018781
0.000181728
0.000177845
0.000176263
0.000176181
0.000131617
0.000220902
0.000135514
0.000130269
0.000123977
0.000118809
0.000115153
0.00011335
0.000113544
0.000107973
0.000308882
0.000168905
0.000107429
0.000102613
9.75803e-05
9.37832e-05
9.15762e-05
9.13381e-05
9.33389e-05
9.76717e-05
0.000297487
0.000133916
8.43039e-05
8.03552e-05
7.64893e-05
7.38204e-05
7.26474e-05
7.33816e-05
7.63984e-05
8.20897e-05
0.00029007
0.0783955
0.0081741
0.00923993
0.00940958
0.00914853
0.00894444
0.0085644
0.00843223
0.00797881
0.00791047
0.0238853
0.00519251
0.00554438
0.00546426
0.00532135
0.00516883
0.0049885
0.00478003
0.00449887
0.00412992
0.00771192
0.00239624
0.0024889
0.00242781
0.00235358
0.0022886
0.00223602
0.00219867
0.00206999
0.00176823
0.0031413
0.00120687
0.00122929
0.00119265
0.00115407
0.00112108
0.00109465
0.00107482
0.00105463
0.000842277
0.00139467
0.00062603
0.000627497
0.000606209
0.000585363
0.000567808
0.000553996
0.000543852
0.000530375
0.000367514
0.000670769
0.000337942
0.000333994
0.000321205
0.000309281
0.000299426
0.000291921
0.000286714
0.000261557
6.51828e-05
0.000353912
0.000194579
0.000189825
0.000181649
0.000174399
0.000168643
0.000164586
0.000162195
0.000160661
7.9018e-05
0.000213651
0.000125623
0.000121165
0.000115461
0.000110714
0.000107257
0.000105261
0.000104731
6.04144e-05
0.000252059
0.000161566
9.90613e-05
9.4882e-05
9.0297e-05
8.67726e-05
8.46287e-05
8.40904e-05
8.52941e-05
8.8199e-05
0.000217881
0.000128059
7.73695e-05
7.39423e-05
7.04198e-05
6.79029e-05
6.6668e-05
6.69705e-05
6.90325e-05
6.99753e-05
0.000233253
0.0725822
0.00679853
0.00767925
0.00785927
0.00765876
0.00751889
0.0072138
0.00715766
0.00677965
0.00681846
0.0215974
0.00434646
0.0046229
0.00457422
0.00445233
0.00431423
0.00417098
0.00402269
0.00384104
0.00359793
0.00707699
0.00203306
0.00211881
0.00206828
0.00200399
0.00194665
0.00191119
0.00185976
0.00176463
0.00157151
0.00292073
0.00104462
0.00106722
0.00103554
0.00100131
0.000971621
0.00094736
0.000928536
0.000904549
0.000758733
0.00130821
0.000550713
0.00055349
0.00053465
0.000515943
0.000499982
0.000487073
0.00047712
0.000462288
0.000344569
0.000632555
0.000300905
0.000298151
0.000286728
0.000275992
0.000267007
0.000259918
0.000254636
0.000226861
7.99011e-05
0.00033463
0.000174797
0.000170972
0.000163657
0.000157122
0.000151854
0.000147945
0.000145317
0.000143226
2.94679e-05
0.000201649
0.00011334
0.000109602
0.000104495
0.000100205
9.70104e-05
9.49844e-05
9.40782e-05
3.34484e-05
0.000195743
0.000151311
8.91803e-05
8.56001e-05
8.14727e-05
7.82473e-05
7.61765e-05
7.53877e-05
7.59367e-05
7.77221e-05
0.000142534
0.000120143
6.93724e-05
6.64448e-05
6.32724e-05
6.09439e-05
5.96769e-05
5.96221e-05
6.09021e-05
3.31354e-05
0.000176035
0.0672324
0.00572154
0.00643701
0.00660427
0.00642852
0.00630229
0.00601065
0.00595926
0.00557486
0.00560455
0.019163
0.00356731
0.00379033
0.00374256
0.00363647
0.00352163
0.00341078
0.00330452
0.00318482
0.00301234
0.00633817
0.0016815
0.00175703
0.00171563
0.00166092
0.00162388
0.00158079
0.00152914
0.00145678
0.00132615
0.0026414
0.000878085
0.000899293
0.000872414
0.000842618
0.000816421
0.000794687
0.00077742
0.000754109
0.000650442
0.00119191
0.000469702
0.000473111
0.000456793
0.000440337
0.000426121
0.000414383
0.000405032
0.000391008
0.000304893
0.000579307
0.000259653
0.000257806
0.000247817
0.000238341
0.000230313
0.000223813
0.000218747
0.000189953
8.0888e-05
0.000307421
0.000152214
0.000149192
0.000142775
0.000136997
0.00013227
0.000128627
0.000125984
0.000123681
9.17082e-06
0.00018518
9.92457e-05
9.61698e-05
9.1678e-05
8.78685e-05
8.49632e-05
8.29832e-05
8.18623e-05
1.34429e-05
0.000151495
0.000138251
7.81221e-05
7.51144e-05
7.14671e-05
6.85707e-05
6.6612e-05
6.56534e-05
6.57036e-05
6.66329e-05
7.79055e-05
0.000110182
6.05491e-05
5.80993e-05
5.52987e-05
5.31938e-05
5.19428e-05
5.16278e-05
5.23092e-05
1.48102e-05
0.000127635
0.0578035
0.00425098
0.00483163
0.00507612
0.00505278
0.00509052
0.00498183
0.00512145
0.00492014
0.00513482
0.0165984
0.00282003
0.00300973
0.00297579
0.00289332
0.00280154
0.0027132
0.00262928
0.00253759
0.00238838
0.00554141
0.00137662
0.0014393
0.00140491
0.00135772
0.00131053
0.00126395
0.00121726
0.00116047
0.0010681
0.00231758
0.000714928
0.000733593
0.000711333
0.000686044
0.000663538
0.000644636
0.000629354
0.000610183
0.000534195
0.00105182
0.000387315
0.000390817
0.000377077
0.000362989
0.000350678
0.000340345
0.000331911
0.000319471
0.000255506
0.000513619
0.000216472
0.000215291
0.000206801
0.000198656
0.000191673
0.000185895
0.00018017
0.000151456
7.07665e-05
0.00027347
0.000128063
0.000125729
0.000120249
0.00011527
0.000111134
0.000107843
0.000105321
0.000102991
3.63852e-05
0.000164842
8.40386e-05
8.15687e-05
7.77181e-05
7.44184e-05
7.184e-05
6.99763e-05
5.36222e-05
6.38209e-06
0.000122982
0.0001227
6.63113e-05
6.3848e-05
6.07085e-05
5.81751e-05
5.63825e-05
5.5351e-05
5.50704e-05
5.53849e-05
2.38567e-05
9.83393e-05
5.12121e-05
4.92146e-05
4.68093e-05
4.4962e-05
4.37831e-05
4.33102e-05
4.35699e-05
4.7702e-06
9.1299e-05
0.0599197
0.00367258
0.00384773
0.0036848
0.00325736
0.00287126
0.00236053
0.00213225
0.00157902
0.00149408
0.0139497
0.00213804
0.00231088
0.00230147
0.00225784
0.00221601
0.0021848
0.00216519
0.00214899
0.00207986
0.00463777
0.00107157
0.0011304
0.00110358
0.00106118
0.00101761
0.00097548
0.000935183
0.000888568
0.000819133
0.00196268
0.00056101
0.000576464
0.000558676
0.000537993
0.000519371
0.000503557
0.000490571
0.000477063
0.000421441
0.000894623
0.000307289
0.000310489
0.00029933
0.000287698
0.000277425
0.000268691
0.000261426
0.000249886
0.000202056
0.000438696
0.00017352
0.000172803
0.000165845
0.000159089
0.000153233
0.000148301
0.000136801
0.000112575
5.34579e-05
0.000234393
0.000103589
0.000101837
9.73218e-05
9.31762e-05
8.96836e-05
8.68312e-05
8.45536e-05
8.2357e-05
5.51788e-05
0.000141505
6.84663e-05
6.65437e-05
6.33554e-05
6.0592e-05
5.83846e-05
4.57319e-05
1.40329e-05
2.96282e-05
0.000109604
0.000105178
5.42377e-05
5.22839e-05
4.96716e-05
4.75324e-05
4.59601e-05
4.49513e-05
4.44873e-05
4.44089e-05
2.20597e-05
8.49398e-05
4.17278e-05
4.01515e-05
3.81585e-05
3.65973e-05
3.55436e-05
3.50091e-05
3.49992e-05
2.07815e-06
6.64625e-05
0.043581
0.00461743
0.00576254
0.00680341
0.0076128
0.0082952
0.00863395
0.00900938
0.00878682
0.0088663
0.0112537
0.00157338
0.00160893
0.00149166
0.00134443
0.00120259
0.00107795
0.000972748
0.000880956
0.000757375
0.00367526
0.000761967
0.000825657
0.000811482
0.000780065
0.000745951
0.000713342
0.000683959
0.000652218
0.000610508
0.00158968
0.000419996
0.000431881
0.000418336
0.000402325
0.000387804
0.000375373
0.000365022
0.000354009
0.000319543
0.000727523
0.000232659
0.000235283
0.000226628
0.000217467
0.000209306
0.000202292
0.000196367
0.000183569
0.000148141
0.000358238
0.000132717
0.000132292
0.000126846
0.000121493
0.000116583
0.000107599
9.41122e-05
7.44204e-05
3.20671e-05
0.000192137
7.99647e-05
7.86926e-05
7.51361e-05
7.1836e-05
6.90218e-05
6.66745e-05
6.47407e-05
6.28088e-05
5.77623e-05
0.00029289
0.000102932
6.14089e-05
4.70735e-05
3.46446e-05
1.83673e-05
3.61122e-06
2.73128e-05
5.99864e-05
0.00011136
8.63957e-05
4.24161e-05
4.09271e-05
3.88465e-05
3.71197e-05
3.58108e-05
3.49087e-05
3.43808e-05
3.40914e-05
3.3802e-05
7.04574e-05
3.24916e-05
3.12956e-05
2.97177e-05
2.84607e-05
2.75739e-05
2.70561e-05
2.5391e-05
5.96841e-06
4.90478e-05
0.0251561
0.00942932
0.0131775
0.0154593
0.0165675
0.0166127
0.0160231
0.0147614
0.0135662
0.0118112
0.00925035
0.00186175
0.00219159
0.00241486
0.00257302
0.00266637
0.00269858
0.0026796
0.00261838
0.00254805
0.00279929
0.000494135
0.000564524
0.000552943
0.000520725
0.000483333
0.00044614
0.000410691
0.000372401
0.000332941
0.00122367
0.000298704
0.000306612
0.000296165
0.000283839
0.00027275
0.00026344
0.000255895
0.000247944
0.000227179
0.000559087
0.000166223
0.000168169
0.000161839
0.000155025
0.000148812
0.000141558
0.000133271
0.000121876
9.65546e-05
0.000328661
0.000120753
0.00010574
9.54475e-05
8.65429e-05
7.69916e-05
6.60056e-05
5.40403e-05
3.86314e-05
9.50432e-06
0.000148912
5.82275e-05
5.73373e-05
5.46958e-05
5.22207e-05
5.0084e-05
4.82726e-05
4.67421e-05
4.51633e-05
4.09599e-05
0.000634833
0.000230414
7.90839e-05
1.64593e-05
1.63004e-05
3.92042e-05
6.0274e-05
7.80236e-05
0.000103728
0.000131391
6.72265e-05
3.13501e-05
3.027e-05
2.87053e-05
2.73908e-05
2.63703e-05
2.56257e-05
2.51309e-05
2.47686e-05
2.40978e-05
5.55057e-05
2.38864e-05
2.30232e-05
2.18465e-05
2.08952e-05
2.02016e-05
1.97576e-05
1.59535e-05
2.24928e-06
3.10134e-05
0.434692
0.0602454
0.0642952
0.0598019
0.053125
0.0460541
0.0392644
0.0330173
0.0272061
0.0223952
0.00179208
0.00251459
0.00310102
0.00346641
0.00357535
0.00346098
0.00318275
0.00279732
0.00234521
0.00191835
0.00144049
0.000209662
0.000371462
0.000426837
0.000438547
0.000425771
0.000400459
0.000369446
0.000332582
0.00029272
0.00085396
0.000192752
0.000198053
0.000191771
0.00018386
0.000176267
0.000169406
0.000163444
0.000157139
0.000142077
0.000399612
0.000112033
0.000111888
0.00010544
9.82043e-05
9.09105e-05
8.36071e-05
7.64456e-05
6.75606e-05
5.08535e-05
0.000262924
9.67457e-05
7.45267e-05
5.98398e-05
4.86238e-05
3.87721e-05
2.92809e-05
2.01656e-05
8.85159e-06
1.00297e-05
0.000107097
3.9228e-05
3.8627e-05
3.68134e-05
3.50987e-05
3.36043e-05
3.23192e-05
3.12074e-05
3.00217e-05
2.6792e-05
0.000975244
0.000336637
7.33361e-05
3.42989e-05
8.45277e-05
0.000112717
0.000133024
0.000146768
0.00016847
0.000175037
4.86305e-05
2.14812e-05
2.07478e-05
1.96579e-05
1.87341e-05
1.80027e-05
1.74478e-05
1.70463e-05
1.67078e-05
1.59247e-05
4.07927e-05
1.62526e-05
1.56676e-05
1.48593e-05
1.41984e-05
1.37042e-05
1.33685e-05
1.31827e-05
1.10553e-05
7.19424e-06
2.22113
0.0953346
0.0949213
0.0811175
0.0661951
0.0528715
0.0415909
0.0321736
0.0244428
0.0176802
0.0294346
0.0119038
0.0115903
0.0106618
0.0094191
0.00805047
0.00666908
0.00532972
0.0040374
0.00288523
0.00158054
0.000294581
0.000183874
0.000157377
0.000133288
0.000105042
7.08021e-05
3.00645e-05
1.87772e-05
9.62439e-05
0.000565433
0.000115341
0.000119184
0.000114672
0.000108501
0.000102246
9.6146e-05
8.99467e-05
8.22748e-05
6.76862e-05
0.000246658
5.85085e-05
5.77964e-05
5.26858e-05
4.69673e-05
4.13597e-05
3.60058e-05
3.10066e-05
2.49988e-05
1.51625e-05
0.00015896
5.12043e-05
3.53495e-05
2.48872e-05
1.70051e-05
1.04006e-05
4.35227e-06
1.27504e-06
8.63854e-06
2.04062e-05
6.90182e-05
2.35658e-05
2.31764e-05
2.207e-05
2.10175e-05
2.00924e-05
1.92846e-05
1.85705e-05
1.77767e-05
1.55431e-05
0.00111612
0.00034689
1.83088e-05
0.000111523
0.000168433
0.000197089
0.000214988
0.000225905
0.000245313
0.00023497
3.15939e-05
1.31586e-05
1.27021e-05
1.2027e-05
1.1451e-05
1.09881e-05
1.06273e-05
1.03502e-05
1.00918e-05
9.39366e-06
2.70631e-05
9.8502e-06
9.48623e-06
8.99585e-06
8.59252e-06
8.28578e-06
8.06891e-06
4.87356e-07
1.2514e-06
1.04692e-05
3.92898
0.0412843
0.0393009
0.0339538
0.0282051
0.0228218
0.0180025
0.013784
0.00963691
0.00664508
0.0264985
0.0175287
0.0149187
0.0120508
0.00943523
0.00717195
0.00523511
0.0035587
0.00205945
0.000769061
5.64949e-05
1.59818e-05
0.000220756
0.000245594
0.000204921
0.000129061
3.41496e-05
7.32707e-05
0.000190456
0.000300232
0.000259302
4.62637e-05
4.80113e-05
4.9624e-05
5.21803e-05
5.57145e-05
6.03028e-05
6.61728e-05
7.28755e-05
7.44269e-05
0.000120247
1.88551e-05
1.78389e-05
1.50661e-05
1.20434e-05
9.05644e-06
6.12478e-06
3.22252e-06
4.5402e-07
6.56615e-06
6.6313e-05
1.38532e-05
8.16491e-06
4.2676e-06
1.22398e-06
1.35903e-06
3.76403e-06
6.12599e-06
9.91757e-06
1.76993e-05
3.68022e-05
1.15355e-05
1.12927e-05
1.07462e-05
1.02268e-05
9.76723e-06
9.35887e-06
8.98897e-06
8.5505e-06
7.247e-06
0.000627607
0.000141688
8.87525e-05
0.000176661
0.000213956
0.000231876
0.000242616
0.000249781
0.000265568
0.00025253
1.70224e-05
6.58527e-06
6.339e-06
6.00159e-06
5.71276e-06
5.4801e-06
5.29417e-06
5.14491e-06
4.98992e-06
4.50323e-06
0.000250071
0.000255001
0.000228772
0.000203769
0.00018962
0.000182595
0.000179778
0.000181893
0.000179352
0.000184727
0.826715
0.0332051
0.0280172
0.0224941
0.0175977
0.0134747
0.0100369
0.00716312
0.00471149
0.00282289
0.00305003
0.00378089
0.00324913
0.00261225
0.00199642
0.00143164
0.000916064
0.000436173
2.6977e-05
0.000465121
0.000198347
0.000164789
0.000120384
9.90424e-05
7.50173e-05
4.83945e-05
1.90351e-05
1.3654e-05
5.16621e-05
8.75453e-05
8.73312e-05
1.77977e-05
1.57663e-05
1.28195e-05
9.66666e-06
6.40786e-06
2.99205e-06
6.38015e-07
4.57077e-06
8.42541e-06
3.37456e-05
3.25152e-06
3.0012e-06
2.47728e-06
1.94341e-06
1.44969e-06
9.80596e-07
4.82458e-07
5.27132e-07
4.50922e-06
1.5987e-05
1.50905e-06
8.82679e-07
3.76352e-07
2.46181e-08
3.56133e-07
6.7567e-07
1.06433e-06
2.32984e-06
8.08552e-06
1.17277e-05
3.83647e-06
3.70272e-06
3.51741e-06
3.3467e-06
3.19525e-06
3.05817e-06
2.92848e-06
2.7613e-06
2.23079e-06
4.64385e-05
6.79066e-05
0.000101962
0.000114977
0.000120784
0.000123764
0.000125925
0.000128175
0.00013546
0.000140199
5.54347e-06
2.23707e-06
2.13101e-06
2.01757e-06
1.92312e-06
1.84687e-06
1.78478e-06
1.73324e-06
1.67267e-06
1.44748e-06
0.000856328
0.000757827
0.00071046
0.0006791
0.000661248
0.000651847
0.00064753
0.000647126
0.000646145
0.000663165
1.25873
1.26911
1.46254
1.90001
0.952182
1.00215
1.1978
1.777
0.525793
0.50499
0.711916
1.1854
0.222228
0.185825
0.337627
0.607777
0.0652417
0.048409
0.1148
0.21977
0.00416053
0.00310221
0.0152324
0.0503607
0.0219729
0.0135472
0.030963
0.0522978
0.0297319
0.017481
0.0449841
0.0915873
0.0319551
0.0179448
0.051345
0.11561
0.0293992
0.0157408
0.0518682
0.1257
0.106668
0.0209639
0.0271752
0.0610763
0.121552
0.0301156
0.0256219
0.0425872
0.0855762
0.0215619
0.0154623
0.0251723
0.0469048
0.0103052
0.00462985
0.0205647
0.0201881
0.00238182
0.000757711
0.0106312
0.00493046
0.000904234
0.00191592
0.000481759
0.00235048
0.00133229
0.00140649
0.00146769
0.0056003
0.000896758
0.00101177
0.00101914
0.0074168
0.000815339
0.000924831
0.000924687
0.00809993
0.00092066
0.00109001
0.00108091
0.109148
0.104056
0.100248
0.130836
0.093286
0.0838883
0.0796091
0.114732
0.059764
0.0507394
0.0503036
0.0734981
0.031586
0.0248318
0.0270361
0.0402235
0.0145275
0.0101438
0.0121316
0.0188957
0.00611694
0.00364685
0.00439148
0.00730425
0.00185794
0.000501233
0.000406225
0.00105178
0.000306298
0.00103414
0.00154127
0.0019845
0.00171526
0.00195083
0.00254756
0.00343427
0.00299211
0.00275348
0.00341888
0.00409898
0.01843
0.0254996
0.0274512
0.0309081
0.0189771
0.0212805
0.0233033
0.030933
0.014377
0.0144695
0.0165592
0.0231513
0.00859342
0.00789903
0.00919659
0.0139248
0.00474515
0.00373508
0.00413325
0.0069424
0.00273985
0.00167644
0.00156789
0.00293172
0.00178258
0.000697748
0.000377475
0.000940839
0.00138537
0.000279529
9.49639e-05
0.00010293
0.00101572
7.97342e-05
0.000413561
0.000367945
0.000429713
0.000504175
0.000737009
0.000673828
0.0010438
0.00673507
0.00786355
0.00956177
0.0039471
0.00821397
0.0106076
0.0147243
0.00370431
0.00628329
0.00814553
0.0114878
0.00240755
0.00379061
0.004779
0.00699809
0.00162451
0.00207624
0.00236137
0.00362849
0.00137489
0.00128043
0.00119328
0.00184698
0.00135372
0.00089706
0.00060057
0.000902208
0.00146656
0.00076382
0.000342693
0.000494539
0.00144467
0.000566158
7.4975e-05
0.00020861
0.00110546
0.000214965
0.00026446
4.11722e-05
0.00835295
0.00447513
0.00369142
0.00264305
0.00266305
0.00120247
0.00285904
0.0050289
0.000363614
0.00202193
0.00325927
0.00507802
2.64748e-05
0.00147413
0.00217897
0.00333386
0.000292507
0.000964942
0.00119681
0.00183389
0.000579241
0.000764197
0.000718371
0.00103898
0.000820982
0.000676556
0.000453351
0.000598324
0.00105722
0.000693485
0.000346126
0.00042383
0.00111989
0.000610192
0.000156431
0.00026374
0.000815282
0.000332837
0.000116188
0.000130748
0.0112589
0.00845958
0.00796365
0.00730744
0.00554569
0.00221382
0.0012925
0.000193007
0.00181839
0.00017087
0.000905818
0.00184925
0.000803748
0.000423629
0.000874803
0.00143245
0.000209311
0.000411024
0.000574927
0.000863243
0.000222865
0.000463048
0.00044266
0.00056858
0.00052187
0.000505127
0.000350374
0.00038647
0.000768009
0.000585505
0.000325537
0.000327706
0.000834736
0.000564777
0.00019548
0.000235389
0.00055424
0.000361269
1.55772e-05
0.000194568
0.0116816
0.0095279
0.00923641
0.00884531
0.00669349
0.00390893
0.00343614
0.00292351
0.00249944
0.000817847
0.000415912
4.63853e-05
0.00118151
0.000150583
0.000109375
0.000350121
0.000452564
8.22202e-05
0.000179887
0.000292802
1.76545e-05
0.000248449
0.000232657
0.000263253
0.000314467
0.000343974
0.000234934
0.000217604
0.000540823
0.000446801
0.000258488
0.00022268
0.000579174
0.000448832
0.000168572
0.000169987
0.0003302
0.000300907
6.69214e-05
0.00018857
0.0109003
0.00917152
0.00900565
0.0087724
0.00663202
0.0043041
0.00406445
0.00386558
0.00272099
0.00127787
0.00106921
0.000863591
0.00134646
0.000454707
0.000315528
0.000237331
0.000582635
0.000109766
6.03085e-05
3.02812e-05
0.00010961
0.00010872
9.06119e-05
7.98184e-05
0.000172057
0.000224499
0.000143392
0.00010509
0.000377832
0.000333396
0.000195005
0.000145775
0.000379515
0.000330453
0.00012342
0.000108048
0.000179551
0.00022923
7.85981e-05
0.000159002
0.00963858
0.00821734
0.0081195
0.00797412
0.00598286
0.00403953
0.00391817
0.00388398
0.00260318
0.00137966
0.00127568
0.00120098
0.00134631
0.000579459
0.000511214
0.000514958
0.000630968
0.000213797
0.000194917
0.000204682
0.00018922
1.5793e-05
5.31882e-06
3.28476e-05
6.55708e-05
0.000132402
6.85489e-05
2.51353e-05
0.000252327
0.000240144
0.000135866
8.6994e-05
0.000230595
0.00022485
7.26598e-05
5.21439e-05
7.86001e-05
0.00016143
6.55469e-05
0.00011934
0.00821843
0.00706383
0.00702163
0.00694419
0.00511294
0.00350756
0.00344703
0.00349801
0.00228602
0.00126849
0.00121703
0.00120121
0.00122368
0.000578088
0.000547605
0.000587604
0.000605575
0.000247743
0.000245082
0.000271629
0.000222222
3.75566e-05
5.89078e-05
9.18354e-05
7.77264e-06
6.458e-05
1.37621e-05
2.8812e-05
0.00015898
0.000166311
8.73487e-05
4.38829e-05
0.000130284
0.000144124
3.14389e-05
9.98115e-06
1.44977e-05
0.000106533
4.44504e-05
8.03371e-05
0.00660731
0.00562358
0.00556312
0.00549578
0.00421417
0.00291773
0.00289353
0.0029895
0.00189139
0.00106713
0.00104177
0.00104869
0.00103845
0.000509263
0.000497721
0.000549667
0.000531851
0.000235167
0.000239575
0.0002698
0.000216939
5.88101e-05
7.80049e-05
0.000109936
4.95796e-05
1.99259e-05
1.98987e-05
5.92849e-05
9.64996e-05
0.00011242
5.32436e-05
1.66663e-05
6.54701e-05
8.55514e-05
1.71883e-06
1.87007e-05
2.27258e-05
6.60494e-05
2.45337e-05
4.74805e-05
0.00626635
0.0054663
0.00548043
0.00546867
0.00325481
0.00223474
0.00222386
0.00234299
0.00148516
0.000841221
0.000828806
0.000840172
0.000834265
0.000414587
0.00041237
0.000464788
0.000435555
0.000198944
0.000205563
0.000232874
0.00018794
5.91767e-05
7.51064e-05
0.00010254
6.77206e-05
6.19345e-06
3.67576e-05
7.18769e-05
5.99014e-05
7.68118e-05
3.3143e-05
4.19265e-06
2.40013e-05
4.32858e-05
1.88386e-05
3.70278e-05
4.03701e-05
3.87526e-05
9.95045e-06
2.30277e-05
0.00140389
0.00112438
0.00117631
0.00130926
0.00284283
0.00205121
0.00204298
0.00205723
0.00110507
0.000621114
0.000615006
0.000625014
0.000637281
0.000317436
0.000319504
0.000367481
0.000333865
0.000153777
0.000160223
0.000181801
0.000147353
4.81602e-05
6.06309e-05
8.20623e-05
7.15243e-05
2.01617e-05
4.31403e-05
7.39611e-05
4.22933e-05
5.54689e-05
2.38136e-05
2.96033e-06
2.91703e-06
1.23265e-05
3.31109e-05
4.85361e-05