/*--------------------------------*- C++ -*----------------------------------*\
| =========                 |                                                 |
| \\      /  F ield         | foam-extend: Open Source CFD                    |
|  \\    /   O peration     | Version:     4.0                                |
|   \\  /    A nd           | Web:         http://www.foam-extend.org         |
|    \\/     M anipulation  |                                                 |
\*---------------------------------------------------------------------------*/
FoamFile
{
    version     2.0;
    format      ascii;
    class       volScalarField;
    location    "1600";
    object      epsilon;
}
// * * * * * * * * * * * * * * * * * * * * * * * * * * * * * * * * * * * * * //

dimensions      [0 2 -3 0 0 0 0];

internalField   nonuniform List<scalar> 
34480
(
4842.59
4836.11
4833.72
4833.32
4836.26
4853.05
4913.83
5079.33
5442.68
6227.98
5605.03
6903.55
9577.43
15784.9
32414.3
80947.6
220862
580752
1.32141e+06
2.41081e+06
7323.82
8758.65
11498.1
17299.8
31902.1
75608.9
216528
645888
1.72654e+06
3.72026e+06
6071.75
7331.57
9660.99
14395.7
25905.6
60968
183574
605796
1.82984e+06
4.45284e+06
4874.15
5995.5
8045.57
12120.7
21829.4
51616
161983
579000
1.92725e+06
5.17524e+06
3836
4774.25
6511.97
10014.1
18466.9
45093.6
149604
576528
2.08319e+06
6.05799e+06
2992.01
3746.88
5174.21
8117.98
15415.5
39145.7
137024
562902
2.17688e+06
6.75811e+06
2113.85
2634.45
3638.36
5793.24
11405
30736.1
115393
506831
2.08907e+06
6.87428e+06
1188.73
1385.85
1773.81
2672.27
5315.3
15640.6
65144.1
310489
1.37036e+06
4.74806e+06
5630.5
5614
5616.36
5643.84
5704.26
5793.2
5891.14
5995.85
6182.71
6431.9
4773.07
4771.5
4779.19
4796.63
4823.35
4860.85
4921.4
5030.96
5233.77
5628.12
3018.93
3485.79
4376.61
6074.22
9648.29
18299.7
43833.4
130435
410382
1.14447e+06
4163.19
4793.35
5922.43
7965.95
11945
21028
46850.9
142446
513617
1.66954e+06
3667.96
4283.5
5368.95
7310.25
10962.5
19052.7
41887.7
132864
541514
1.98624e+06
3089.02
3677.75
4718.88
6565.56
10024
17504.3
38445.6
126461
571737
2.31216e+06
2532.69
3046.89
3973.2
5652.72
8872.07
15850.2
35611.5
123738
620204
2.73356e+06
2051.22
2479.27
3267.99
4731.49
7627.19
13998.6
32354.5
118448
650425
3.08129e+06
1510.72
1811.48
2374.45
3456.24
5677.34
10725.9
25835.2
102058
622278
3.1721e+06
961.446
1075.44
1288.96
1709.96
2628.84
4870.53
12224.8
55866.3
403157
2.30101e+06
5507.38
5484.23
5475.49
5488.38
5536.28
5623.54
5724.02
5805.92
6049.43
6663.1
4694.12
4692.47
4698.18
4712.81
4737.04
4771.41
4819.04
4889.46
5001.48
5182.32
1613.04
1794.83
2123.3
2706.61
3775.79
5855.17
10326.9
20984.8
47277.2
104629
2195.53
2485.01
2989.42
3837.24
5306.77
8091.63
14067.6
29336.1
73615.1
189723
2083.87
2392.88
2931.28
3849.64
5407.64
8340.44
14708.4
32168.2
90860.1
270472
1870.32
2186.42
2745.3
3703.83
5342.92
8411.66
15131
34666.7
109416
369877
1615.61
1905.59
2430.78
3359.78
5007.07
8140.59
15188.5
37132.5
131961
500989
1371.41
1624.07
2093.46
2945.09
4517.92
7584.02
14703.7
38356.5
152406
640113
1064.93
1249.13
1596.58
2251.5
3514.68
6075.41
12323.7
34928.1
157438
731507
786.547
860.62
1000.25
1266.06
1811.14
3010.85
6217.13
19333.7
101914
541354
5400.89
5375.6
5361.33
5363.57
5391.83
5454
5541.55
5617.68
5749.81
6165.36
4605
4603.62
4607.58
4618.22
4636.26
4662.41
4697.87
4746
4816.78
4935.97
907.254
972.04
1078.96
1263.25
1572.75
2100.07
3029.32
4725.26
7874.45
13275.1
1092.87
1212.73
1414.7
1739.06
2262.97
3137.11
4676.77
7617.3
13760
26359.5
1123.05
1264.68
1506.64
1904.61
2542
3616.18
5543.74
9420.53
18545.9
40702.9
1087.98
1244.9
1520.13
1979.49
2721.39
3987.1
6297.83
11157.4
23950.6
60049.4
1000.76
1153.46
1429.9
1909.24
2717.1
4137.65
6830.61
12849.5
30611.3
87697
898.41
1039.22
1301.72
1768.85
2593.27
4092.46
7053.25
14082.3
37200
120490
745.112
852.832
1056.19
1432.72
2129.97
3459.18
6242.04
13406.8
39933.7
146515
651.076
697.871
785.949
946.769
1257.77
1899.28
3385.81
7625.86
25432.8
107295
5279.06
5255.22
5240.36
5238.39
5255.2
5298.33
5370.89
5454.75
5553.55
5829.39
4504.22
4502.79
4505.13
4512.01
4523.72
4540.65
4563.6
4594.86
4641.61
4726.56
576.951
599.589
631.238
682.919
762.232
884.347
1073.4
1361.66
1779.65
2356
547.102
591.179
661.949
770.808
936.34
1188.51
1579.22
2194.14
3163.28
4677.91
598.22
656.241
752.173
904.374
1136.01
1495.19
2065.12
3003.46
4624.77
7581.35
625.655
696.561
818.193
1013.72
1314.04
1789
2559.11
3876.05
6370.44
11698.7
614.557
688.455
820.356
1042.7
1398.9
1986.1
2981.46
4783.23
8563.12
17894.9
585.066
658.021
792.729
1025.29
1416.06
2085.94
3273.25
5543.39
10805.4
25644.9
522.309
581.723
692.171
890.332
1239.64
1869.99
3059.92
5518.92
11906.1
32323.9
545.177
573.784
626.901
718.841
883.824
1198.55
1853.39
3352.28
7675.32
23469.5
5152.47
5130.68
5116.46
5112.57
5122.55
5151.86
5205.91
5281.01
5368.89
5549.04
4392.88
4391.43
4392.8
4397.43
4405.39
4416.76
4431.96
4452.77
4485.53
4550.79
420.977
429.752
439.41
453.803
473.357
499.984
536.065
582.903
637.206
698.406
300.999
316.195
339.006
372.617
420.783
488.447
582.943
711.918
877.296
1080.44
335.501
357.372
391.991
445.225
522.425
633.769
793.858
1021.85
1334.14
1770.03
371.347
401.183
450.546
526.59
637.993
802.485
1045.27
1403.98
1931.13
2794.56
385.614
419.14
477.241
571.757
716.081
940.336
1289.4
1837.49
2718.45
4397.94
386.655
422.41
486.814
593.61
764.092
1040.71
1492.61
2241.9
3555.57
6453.38
371.503
402.948
459.492
556.649
718.403
994.79
1477.1
2342.43
4031.68
8294.96
462.64
479.793
510.875
561.697
646.156
793.899
1070.78
1617.42
2788.01
6117.05
5019.77
5000.52
4987.82
4983.78
4990.65
5012.07
5052.25
5112.44
5186.51
5301.41
4272.27
4270.82
4271.59
4274.92
4280.79
4289.23
4300.5
4316.05
4341.43
4395.22
341.515
345.42
348.644
352.737
357.357
362.589
368.311
373.571
375.719
374.614
194.686
199.866
206.907
216.748
229.946
247.05
268.8
295.24
324.173
353.615
211.325
219.133
230.787
248.26
272.371
304.827
347.58
401.829
464.144
532.747
238.872
250.859
269.691
297.3
335.71
388.662
460.422
555.016
669.971
818.193
256.551
271.115
295.186
332.645
387.082
466.628
581.368
743.602
958.244
1279.74
266.704
283.594
312.753
358.616
427.907
533.871
694.699
935.468
1279.02
1876.94
273.193
289.418
317.082
362.066
432.185
544.811
727.53
1024.53
1494.82
2433.54
399.449
409.575
427.237
454.484
496.673
564.32
678.313
878.524
1225.56
1986.3
4880.06
4863.54
4852.79
4849.48
4855.19
4872.31
4903.56
4950.65
5009.49
5081.47
4143.86
4142.41
4142.84
4145.4
4150.1
4156.95
4166.17
4178.99
4200.34
4247.07
296.519
298.476
299.727
300.921
301.805
302.294
302.141
300.496
295.512
286.308
148.184
150.049
152.244
155.074
158.566
162.695
167.461
172.652
177.561
181.977
153.529
156.273
160.054
165.635
172.945
182.127
193.244
205.964
218.561
229.729
171.352
176.112
183.087
192.718
205.335
221.497
241.599
265.521
290.493
316.823
185.574
191.792
201.417
215.631
235.151
261.848
297.568
343.794
396.854
461.513
196.083
203.938
216.722
235.528
262.306
300.594
354.532
428.658
519.769
648.476
210.533
218.835
231.985
252.012
281.04
324.439
389.707
487.478
621.432
838.036
351.474
357.396
367.152
381.365
402.155
432.997
480.164
555.326
671.036
870.939
4732.56
4718.76
4710.04
4707.76
4713.08
4727.59
4752.91
4790.12
4835
4881.67
4008.69
4007.27
4007.51
4009.62
4013.62
4019.53
4027.54
4038.7
4057.4
4098.98
267.838
268.877
269.475
269.867
269.909
269.528
268.526
266.198
260.974
251.257
126.8
127.542
128.262
129.065
129.938
130.844
131.768
132.648
133.323
133.954
126.161
127.142
128.355
130.151
132.381
134.998
137.918
140.933
143.476
145.154
136.779
138.709
141.297
144.622
148.675
153.46
158.888
164.7
169.904
174.431
146.717
149.391
153.203
158.511
165.335
174.026
184.797
197.631
210.759
224.144
154.98
158.638
164.183
171.73
181.799
195.179
212.615
234.718
258.84
287.364
171.099
175.372
181.535
190.25
201.948
218.106
240.569
271.763
310.487
363.021
315.117
318.581
323.808
331.012
341.165
355.32
375.371
405.168
450.633
515.922
4576.7
4565.46
4558.61
4557.31
4562.37
4574.83
4595.58
4625.06
4658.81
4690.83
3867.45
3866.07
3866.21
3868.04
3871.59
3876.88
3884.08
3894.08
3910.75
3948.04
247.309
247.849
248.203
248.403
248.361
248.022
247.219
245.326
240.882
231.863
116.344
116.67
116.924
117.139
117.311
117.433
117.513
117.555
117.546
117.659
112.854
113.214
113.601
114.192
114.888
115.652
116.441
117.175
117.67
117.787
118.797
119.607
120.586
121.74
123.027
124.404
125.805
127.128
128.076
128.684
125.323
126.498
128.016
129.999
132.362
135.151
138.353
141.882
145.143
147.916
131.131
132.849
135.26
138.272
142.026
146.656
152.243
158.808
165.251
171.746
146.43
148.664
151.536
155.279
159.904
165.789
173.378
183.232
194.817
208.601
287.336
289.398
292.101
295.639
300.566
307.152
316.008
328.693
350.087
377.296
4412.18
4403.2
4397.97
4397.42
4402.1
4412.65
4429.45
4452.57
4477.8
4500.78
3720.53
3719.2
3719.28
3720.92
3724.15
3728.97
3735.55
3744.62
3759.57
3793.01
231.079
231.317
231.56
231.732
231.772
231.633
231.167
229.803
226.159
218.003
110.891
111.042
111.14
111.186
111.186
111.142
111.07
110.992
110.932
111.034
106.285
106.42
106.541
106.739
106.96
107.187
107.403
107.581
107.659
107.567
109.354
109.703
110.08
110.48
110.877
111.245
111.56
111.795
111.873
111.843
113.502
114.031
114.639
115.379
116.181
117.045
117.958
118.892
119.678
120.198
117.338
118.149
119.196
120.394
121.786
123.385
125.181
127.163
128.928
130.442
131.035
132.232
133.564
135.145
136.919
138.982
141.462
144.528
148.171
152.238
265.638
266.924
268.261
269.942
272.336
275.487
279.607
285.48
297.203
310.88
4238.94
4231.89
4227.97
4227.91
4232.05
4240.76
4254.12
4271.98
4290.8
4307.83
3568.17
3566.89
3566.95
3568.44
3571.39
3575.83
3581.87
3590.12
3603.51
3633.34
217.213
217.257
217.433
217.608
217.733
217.764
217.567
216.621
213.634
206.313
107.819
107.889
107.929
107.932
107.903
107.848
107.781
107.724
107.712
107.863
103.048
103.101
103.137
103.205
103.275
103.341
103.399
103.44
103.441
103.361
104.422
104.572
104.717
104.855
104.97
105.052
105.095
105.094
105.036
104.96
107.012
107.255
107.499
107.769
108.025
108.264
108.485
108.688
108.837
108.88
109.442
109.819
110.268
110.737
111.247
111.795
112.374
112.988
113.484
113.837
121.424
122.085
122.7
123.346
123.981
124.632
125.351
126.218
127.381
128.756
248.026
248.901
249.523
250.297
251.49
253.09
255.167
258.188
265.311
272.981
4057.17
4051.69
4048.79
4048.99
4052.52
4059.53
4069.97
4083.6
4097.73
4110.69
3410.56
3409.35
3409.38
3410.74
3413.46
3417.53
3423.07
3430.57
3442.5
3468.84
204.656
204.571
204.695
204.869
205.043
205.181
205.157
204.503
202.027
195.48
105.912
105.94
105.957
105.953
105.932
105.898
105.861
105.841
105.873
106.062
101.475
101.498
101.51
101.533
101.554
101.571
101.584
101.592
101.586
101.54
101.901
101.963
102.018
102.065
102.097
102.11
102.103
102.077
102.032
101.997
103.511
103.624
103.722
103.817
103.887
103.932
103.955
103.963
103.957
103.915
105.01
105.178
105.362
105.541
105.726
105.918
106.114
106.322
106.476
106.565
115.375
115.756
116.038
116.287
116.48
116.627
116.755
116.913
117.243
117.781
232.942
233.607
233.869
234.222
234.859
235.76
236.939
238.707
243.254
247.76
3867.31
3863.08
3860.93
3861.24
3864.14
3869.67
3877.72
3888.06
3898.81
3908.94
3247.92
3246.78
3246.8
3248.04
3250.52
3254.25
3259.31
3266.08
3276.62
3299.59
192.768
192.597
192.677
192.836
193.027
193.216
193.286
192.822
190.739
184.896
104.593
104.598
104.605
104.604
104.594
104.581
104.57
104.576
104.634
104.843
100.725
100.739
100.745
100.752
100.757
100.757
100.756
100.755
100.753
100.734
100.664
100.686
100.706
100.723
100.734
100.738
100.735
100.725
100.71
100.71
101.67
101.725
101.765
101.796
101.808
101.802
101.78
101.749
101.716
101.676
102.594
102.661
102.728
102.795
102.867
102.945
103.028
103.124
103.196
103.238
111.473
111.702
111.832
111.918
111.953
111.94
111.891
111.843
111.881
112.134
219.199
219.76
219.849
220.015
220.397
220.979
221.746
222.927
225.818
228.464
3670
3666.72
3665.12
3665.44
3667.76
3672.07
3678.25
3686.1
3694.45
3702.56
3080.53
3079.46
3079.47
3080.59
3082.84
3086.23
3090.82
3096.89
3106.11
3125.82
181.125
180.898
180.937
181.073
181.255
181.454
181.562
181.214
179.429
174.21
103.582
103.576
103.579
103.581
103.581
103.582
103.587
103.607
103.677
103.889
100.375
100.387
100.392
100.394
100.391
100.386
100.38
100.375
100.376
100.375
100.097
100.102
100.108
100.116
100.124
100.131
100.137
100.142
100.147
100.165
100.734
100.76
100.777
100.787
100.785
100.772
100.749
100.721
100.693
100.668
101.323
101.341
101.36
101.386
101.421
101.466
101.52
101.587
101.643
101.687
108.82
108.962
109.022
109.045
109.033
108.986
108.907
108.821
108.757
108.909
205.92
206.424
206.435
206.522
206.784
207.207
207.763
208.613
210.365
211.859
3466.06
3463.51
3462.29
3462.58
3464.4
3467.74
3472.49
3478.51
3485.13
3491.78
2908.78
2907.79
2907.8
2908.81
2910.83
2913.88
2918
2923.39
2931.34
2947.94
169.421
169.159
169.163
169.269
169.426
169.606
169.715
169.431
167.871
163.169
102.749
102.738
102.739
102.743
102.75
102.758
102.772
102.798
102.866
103.07
100.213
100.225
100.229
100.229
100.225
100.217
100.208
100.202
100.204
100.214
99.8712
99.8694
99.8706
99.8751
99.8824
99.8918
99.9026
99.9143
99.9272
99.9502
100.276
100.289
100.297
100.3
100.297
100.288
100.273
100.255
100.237
100.224
100.677
100.674
100.675
100.687
100.71
100.744
100.789
100.845
100.896
100.946
106.855
106.946
106.973
106.975
106.956
106.916
106.851
106.78
106.685
106.804
192.461
192.923
192.9
192.955
193.153
193.483
193.912
194.493
195.486
196.261
3256.5
3254.49
3253.55
3253.78
3255.21
3257.79
3261.47
3266.17
3271.49
3277.04
2733.27
2732.37
2732.36
2733.26
2735.06
2737.77
2741.42
2746.16
2752.92
2766.57
157.419
157.141
157.114
157.186
157.307
157.452
157.537
157.286
155.898
151.604
102.032
102.021
102.021
102.026
102.035
102.047
102.064
102.089
102.149
102.331
100.135
100.146
100.15
100.149
100.144
100.137
100.128
100.121
100.123
100.14
99.8108
99.8076
99.8073
99.8103
99.8163
99.8248
99.8353
99.8471
99.8601
99.8803
100.066
100.073
100.077
100.078
100.077
100.072
100.063
100.053
100.042
100.037
100.354
100.344
100.34
100.346
100.364
100.392
100.428
100.473
100.516
100.563
105.251
105.308
105.319
105.316
105.302
105.278
105.236
105.189
105.093
105.2
178.333
178.748
178.712
178.752
178.908
179.171
179.508
179.914
180.38
180.72
3042.51
3040.91
3040.17
3040.35
3041.46
3043.48
3046.37
3050.08
3054.41
3059.09
2554.82
2554.01
2554.01
2554.79
2556.37
2558.75
2561.95
2566.06
2571.71
2582.61
144.928
144.648
144.596
144.632
144.711
144.807
144.853
144.619
143.383
139.402
101.409
101.399
101.399
101.404
101.413
101.426
101.442
101.464
101.511
101.658
100.089
100.097
100.1
100.1
100.096
100.09
100.083
100.077
100.078
100.097
99.8256
99.8231
99.8226
99.8244
99.8284
99.8344
99.8417
99.8501
99.8595
99.8736
99.9847
99.9887
99.9909
99.9915
99.9904
99.9875
99.9826
99.9761
99.9688
99.966
100.18
100.17
100.165
100.17
100.182
100.202
100.227
100.257
100.287
100.325
103.834
103.87
103.873
103.87
103.862
103.849
103.825
103.795
103.713
103.808
163.092
163.444
163.407
163.436
163.557
163.761
164.018
164.319
164.525
164.619
2825.52
2824.22
2823.64
2823.77
2824.64
2826.24
2828.53
2831.49
2835.02
2838.98
2374.37
2373.68
2373.68
2374.37
2375.75
2377.82
2380.6
2384.13
2388.79
2397.2
131.842
131.577
131.505
131.501
131.525
131.557
131.547
131.324
130.271
126.616
100.885
100.877
100.877
100.881
100.889
100.9
100.914
100.931
100.962
101.063
100.048
100.053
100.056
100.056
100.053
100.05
100.045
100.042
100.042
100.057
99.8714
99.87
99.8697
99.8706
99.8727
99.8758
99.8796
99.884
99.889
99.8967
99.9682
99.9709
99.9723
99.9725
99.9715
99.9691
99.9653
99.9604
99.9549
99.9521
100.062
100.056
100.053
100.055
100.063
100.073
100.086
100.101
100.116
100.142
102.537
102.558
102.56
102.558
102.552
102.543
102.527
102.507
102.451
102.52
146.137
146.401
146.367
146.386
146.471
146.614
146.792
146.993
147.104
147.199
2607.03
2605.97
2605.49
2605.59
2606.28
2607.55
2609.38
2611.78
2614.67
2618.01
2192.35
2191.79
2191.79
2192.39
2193.57
2195.36
2197.74
2200.75
2204.53
2210.96
117.394
117.224
117.188
117.189
117.202
117.22
117.224
117.122
116.494
113.445
100.466
100.463
100.463
100.466
100.472
100.48
100.491
100.505
100.524
100.573
100.017
100.019
100.02
100.021
100.02
100.018
100.016
100.014
100.014
100.021
99.9311
99.9305
99.9304
99.9307
99.9315
99.9326
99.934
99.9355
99.9374
99.9403
99.9846
99.9864
99.9873
99.9872
99.9863
99.9844
99.9815
99.9778
99.9738
99.9711
99.9917
99.9889
99.9878
99.9888
99.9917
99.9956
99.9999
100.004
100.008
100.018
101.346
101.358
101.36
101.358
101.353
101.344
101.331
101.317
101.293
101.332
126.184
126.32
126.295
126.303
126.35
126.429
126.528
126.633
126.673
126.74
2387.84
2386.95
2386.56
2386.64
2387.19
2388.21
2389.69
2391.64
2394.03
2396.86
8536.64
9001.72
8764.79
7685.53
2.71636e+06
2.61587e+06
2.55458e+06
2.47244e+06
5.07387e+06
4.91952e+06
4.75953e+06
4.42677e+06
6.87843e+06
6.6996e+06
6.421e+06
5.90971e+06
8.92142e+06
8.70833e+06
8.25988e+06
7.61518e+06
1.14453e+07
1.1064e+07
1.03029e+07
9.42918e+06
1.37905e+07
1.32093e+07
1.21816e+07
1.11822e+07
1.49105e+07
1.41713e+07
1.29879e+07
1.19035e+07
1.0343e+07
9.67001e+06
8.70059e+06
7.8137e+06
9638.45
9841.83
9743.72
9573.31
6443.73
6784.25
6926.95
6755.72
1.76834e+06
1.42423e+06
1.38708e+06
1.4092e+06
2.85649e+06
2.41247e+06
2.33337e+06
2.20174e+06
3.71219e+06
3.27018e+06
3.15631e+06
2.84289e+06
4.70067e+06
4.29675e+06
4.06646e+06
3.55495e+06
5.96144e+06
5.46277e+06
4.87953e+06
4.04587e+06
7.06997e+06
6.43137e+06
5.49516e+06
4.46646e+06
7.62114e+06
6.88666e+06
5.73363e+06
4.48391e+06
5.99818e+06
5.33952e+06
4.30083e+06
3.17995e+06
9234.67
9314.36
9122.87
8754.8
5638.07
5781.12
5821.65
5729.72
179242
180447
164393
132111
349927
348500
311385
239158
528918
521346
460250
348307
764660
749974
655079
492211
1.09917e+06
1.07613e+06
928803
679559
1.48407e+06
1.44805e+06
1.23741e+06
894850
1.78803e+06
1.72884e+06
1.45349e+06
1.02926e+06
1.46311e+06
1.39006e+06
1.13674e+06
761242
7065.47
7152.61
7135.9
7040.19
5375.1
5440.51
5450.67
5390.78
17733.7
17939.9
16808.4
14169.4
38340
38425.6
34849.6
28426.4
63310
62247.8
55177.2
44079.9
99613.9
96549.2
84030.6
65390.6
154608
147925
126385
96213.2
224955
212917
179546
135210
290154
271710
226915
169937
232890
212166
173638
125742
6144.7
6197.24
6223.29
6228.48
5165.44
5213.25
5214.56
5165.3
2762.4
2814.15
2706.84
2478.28
5817.04
5933.72
5586.76
4928.67
9948.08
10017.1
9271.53
8024.66
16258
16179.4
14728.3
12465.1
26461.7
26113.5
23526
19692.7
40394
39599.7
35440.7
29484.7
54608.1
53267.9
47570.2
39511.5
43974.2
42276.8
37592.8
30558.3
5627.53
5662.94
5692.45
5716.34
4983.36
5023.97
5024.38
4982.07
761.494
760.892
748.512
729.19
1194.7
1211.47
1176.37
1103.65
2029.92
2050.05
1973.26
1831.86
3356.47
3376.97
3218.51
2945.03
5597.65
5628.66
5344.75
4863.19
8747.83
8792.45
8329.83
7546.5
12097.9
12170.3
11545.9
10445.1
9717.3
9715.53
9272.95
8304.93
5275.86
5295.67
5318.15
5344.67
4815.94
4852.45
4852.55
4814.81
409.489
404.697
401.595
400.755
367.174
369.202
364.596
354.57
563.564
567.122
558.678
541.086
895.018
902.13
884.648
848.497
1469.5
1488.65
1460.97
1397.25
2279.75
2320.33
2279.25
2172.81
3160.87
3234.98
3189.25
3037.49
2700.72
2763.3
2757.77
2629.87
5009.52
5020.15
5036.41
5060.94
4652.66
4686.07
4686.04
4651.75
318.629
314.397
312.805
313.897
184.586
184.681
183.605
181.479
233.158
233.485
232.307
229.841
327.939
329.271
326.931
321.312
494.012
499
496.672
487.584
724.271
736.212
734.576
719.746
986.354
1009.91
1012.46
992.308
1027.56
1051.88
1067.22
1055.81
4790.03
4795.16
4806.5
4827.27
4487.45
4517.97
4517.9
4486.76
283.196
279.883
278.879
280.149
135.361
135.323
134.879
134.057
145.225
145.126
144.896
144.537
175.946
176.084
175.597
174.466
229.96
231.038
230.913
229.466
302.352
305.295
305.903
303.789
395.309
401.733
404.332
401.985
554.511
563.056
571.012
573.315
4592.19
4594.03
4601.69
4618.31
4318.06
4345.64
4345.57
4317.55
263.309
260.769
260.121
261.318
118.961
118.979
118.733
118.239
117.555
117.451
117.391
117.37
128.772
128.727
128.553
128.234
148.882
149.069
149.065
148.807
174.69
175.35
175.631
175.365
216.103
217.832
218.849
218.758
386.938
390.081
393.642
396.357
4401.43
4401.35
4406.38
4419.24
4143.49
4168.07
4168
4143.13
248.703
246.812
246.407
247.427
112.327
112.4
112.247
111.883
107.406
107.342
107.327
107.358
111.777
111.732
111.647
111.519
120.278
120.286
120.274
120.221
130.899
131.018
131.107
131.111
154.055
154.543
154.898
154.998
311.975
313.149
314.804
316.74
4210.97
4209.85
4213.06
4222.82
3963.35
3984.86
3984.78
3963.08
236.099
234.828
234.597
235.311
109.124
109.232
109.135
108.842
103.28
103.246
103.245
103.275
104.919
104.893
104.847
104.78
108.823
108.804
108.79
108.776
113.781
113.776
113.796
113.832
129.147
129.289
129.406
129.466
271
271.347
272.173
273.54
4018.16
4016.53
4018.54
4025.83
3777.53
3795.93
3795.86
3777.33
224.277
223.72
223.609
223.822
107.267
107.396
107.334
107.089
101.514
101.497
101.5
101.52
101.989
101.977
101.95
101.911
103.859
103.843
103.832
103.826
106.427
106.397
106.398
106.431
117.789
117.829
117.862
117.882
244.46
244.407
244.847
245.879
3821.9
3820.12
3821.35
3826.71
3586.17
3601.72
3601.67
3586.01
212.656
212.558
212.503
212.442
105.975
106.115
106.076
105.866
100.742
100.736
100.739
100.749
100.721
100.718
100.702
100.677
101.641
101.631
101.624
101.62
103.115
103.087
103.083
103.109
112.047
112.059
112.062
112.059
224.532
224.264
224.508
225.345
3621.78
3620.08
3620.79
3624.68
3389.63
3402.57
3402.54
3389.54
200.897
200.979
200.944
200.762
104.936
105.078
105.055
104.871
100.404
100.407
100.408
100.408
100.184
100.185
100.176
100.16
100.65
100.645
100.642
100.638
101.596
101.577
101.574
101.593
108.819
108.826
108.821
108.803
207.639
207.252
207.388
208.105
3417.77
3416.27
3416.67
3419.43
3188.54
3198.96
3198.95
3188.49
188.542
188.718
188.698
188.463
104.018
104.157
104.145
103.983
100.258
100.266
100.266
100.259
99.9695
99.9724
99.9677
99.957
100.216
100.215
100.213
100.209
100.888
100.877
100.876
100.889
106.744
106.757
106.749
106.721
191.992
191.552
191.626
192.25
3210.13
3208.91
3209.12
3211.02
2983.56
2991.61
2991.61
2983.54
175.414
175.568
175.558
175.373
103.166
103.298
103.292
103.15
100.192
100.204
100.204
100.19
99.8963
99.8991
99.8964
99.8893
100.034
100.034
100.032
100.029
100.534
100.53
100.53
100.536
105.184
105.208
105.199
105.158
176.638
176.214
176.251
176.771
2999.46
2998.55
2998.65
2999.89
2775.72
2781.58
2781.58
2775.71
161.259
161.212
161.208
161.243
102.356
102.472
102.47
102.35
100.15
100.164
100.163
100.147
99.8844
99.8863
99.8846
99.88
99.9648
99.9645
99.9625
99.9588
100.316
100.318
100.319
100.319
103.831
103.867
103.857
103.8
161.048
160.74
160.754
161.105
2786.69
2786.07
2786.11
2786.87
2566.33
2570.26
2570.26
2566.33
145.555
145.037
145.036
145.551
101.581
101.669
101.668
101.58
100.101
100.113
100.112
100.099
99.9022
99.903
99.9019
99.8993
99.9501
99.9489
99.9466
99.9435
100.146
100.151
100.152
100.149
102.545
102.584
102.571
102.507
144.37
144.197
144.209
144.415
2573.09
2572.76
2572.77
2573.14
2356.06
2358.43
2358.43
2356.05
126.775
125.63
125.63
126.773
100.855
100.897
100.898
100.855
100.044
100.05
100.05
100.042
99.9419
99.9419
99.9412
99.9402
99.9683
99.9667
99.9647
99.9627
100.025
100.03
100.031
100.028
101.312
101.326
101.312
101.272
124.924
124.92
124.931
124.962
2359.28
2359.19
2359.19
2359.28
6110.85
5480.26
5192.95
5079.69
5027.49
4983.52
4939.16
4900.38
4871.68
4853.71
1.84084e+06
553581
126725
37644.9
17954.4
10740.6
7470.87
5863.03
5165.92
5079.72
2.33311e+06
402621
86930.8
33407.5
17920.5
11675.8
8767.34
7323.99
6695.79
6682.81
2.2641e+06
258304
68919.8
27261.4
14829.9
9697.26
7276.32
6057.72
5502.56
5496.29
2.05335e+06
237183
62569.4
24588.6
13025.4
8286.44
6061.07
4940.3
4400.46
4371.52
1.97104e+06
256611
64446.2
24246.2
12147.9
7364.42
5159.64
4063.86
3517.65
3441.61
2.07653e+06
287298
65954.2
23380.5
11037
6407.02
4327.46
3314.42
2796.59
2693.6
2.09919e+06
292630
59451.9
19619.4
8696.82
4861.13
3197.53
2414.27
2018.39
1921.68
1.46853e+06
180062
29534.2
8929.8
3897.73
2300.26
1625.82
1315.51
1160.81
1113.84
9369.28
7009.57
6390.12
6121.09
5953.71
5843.12
5769.67
5717.82
5675.04
5645.15
5745.01
5332.04
5131.89
5021.08
4950.65
4897.35
4853.64
4818.99
4794.78
4780.68
653855
196648
61796.3
23275.4
11199.2
6602.45
4532.6
3500.93
3017.48
2869.22
807482
197310
58074.8
22424.7
11626.5
7399.27
5442.06
4459.47
4003.43
3908.25
843172
174498
49082.9
19007.3
10021.1
6426.36
4743.01
3892.49
3485.65
3410.04
887127
165374
45442.7
17529.5
9089.85
5706.34
4127.38
3333.28
2934.59
2850.59
1.01104e+06
179498
47783
17789.8
8796.44
5281.23
3668.77
2868.86
2455.74
2344.28
1.18427e+06
202407
50242.2
17675.2
8269.65
4762.75
3195.76
2435.3
2033.72
1908.26
1.29517e+06
210780
46932.8
15343.4
6751.21
3745.9
2450.34
1842.72
1527.61
1420.48
953639
134353
24611.9
7361.8
3234.85
1924.03
1366.76
1106.2
975.008
926.038
8139.58
6697.38
6195.52
5961.46
5817.16
5720.18
5653.65
5605.13
5563.85
5531.45
5228.82
5049.01
4951.84
4884.12
4830.5
4786.67
4751.87
4725.89
4708.69
4699.37
63059.2
27582.2
13387.6
7311.36
4456.29
3004.92
2235.57
1818.21
1616
1552.11
95494.5
36860.1
16968
8920.98
5414.81
3706.23
2819.53
2348.54
2126.02
2077.95
118268
40236.1
17379.8
8737.69
5191
3514.36
2661.49
2213.41
1997.45
1954.76
145549
44326.5
18251.8
8776.01
5032.29
3316.84
2461.47
2018.78
1795.29
1744.24
192728
54309.5
20862
9456.6
5132.87
3229.78
2302.96
1830.5
1584.71
1513.15
255296
66193.2
23032.4
9798.43
5027.98
3035.62
2092.75
1623.82
1374.15
1290.95
308005
72808.7
22111.3
8796.74
4259.93
2484.72
1674.46
1285.48
1083.28
1012.3
223637
44945
11281.6
4398.43
2228.29
1436.08
1067.41
886.417
796.422
763.685
6967.06
6308.19
5977.87
5798.58
5682.39
5602.07
5544.16
5499.51
5459.62
5427.18
4945.49
4840.02
4777.61
4730.69
4693.08
4663.05
4639.94
4623.25
4612.78
4607.92
9574.38
5908.15
3742.25
2479.42
1752.97
1335.21
1096.73
960.872
895.545
878.679
16723.5
9245.16
5431.92
3369.03
2273.34
1670.59
1332.79
1145.13
1056.58
1040.77
23382.8
11647.7
6341.18
3719.56
2427.67
1747.27
1377.08
1175.01
1077.99
1061.48
31573.5
14339.4
7287.98
4044.16
2534.33
1772.49
1369.32
1154.47
1046.57
1023.95
45278.6
19029.3
8887.36
4629.9
2741.24
1829.05
1358.56
1111.48
983.043
946.483
63705.5
24275.9
10233.3
5017.01
2811.51
1801.57
1295.81
1037.23
899.373
853.698
81777.4
27477.6
10138.2
4697.5
2496.08
1552.28
1096.09
871
754.333
714.262
61164.5
16854.5
5373.56
2606.58
1515.61
1066.14
835.549
715.671
657.124
636.471
6301.44
5945.59
5737.8
5608.67
5520.86
5456.58
5408.03
5369.08
5333.09
5303.47
4724.06
4650.55
4609.36
4579.87
4556.66
4538.16
4523.91
4513.76
4507.79
4505.78
2059.56
1572.86
1201.13
945.84
781.152
678.145
615.715
578.532
562.116
561.856
3731.63
2535.95
1736.06
1228.52
920.453
734.152
622.637
558.212
528.461
525.584
5728.97
3582.96
2262.47
1507.28
1081.39
836.082
694.263
613.83
575.596
571.087
8365.37
4829.94
2817.06
1769
1214.64
911.284
741.892
649.13
603.037
595.16
12831.6
6860.9
3660.83
2153.56
1394.02
996.877
780.815
663.942
603.373
587.252
18851
9120.02
4411.35
2446.18
1499.59
1030.67
783.079
652.944
583.493
561.132
25113.5
10585.6
4559.56
2409.47
1408.89
944.913
707.842
587.363
525.145
504.642
19119.9
6595.23
2701.34
1587.54
1053.99
805.354
664.207
586.102
549.005
536.109
5820.05
5628.83
5510.49
5422.41
5357.77
5306.76
5266.36
5232.87
5201
5174.59
4546.9
4489.21
4459.78
4440.1
4424.92
4412.83
4403.59
4397.24
4393.95
4393.64
661.079
600.284
539.105
490.213
455.55
432.591
418.358
409.953
407.886
411.887
964.833
765.594
601.234
483.214
403.455
351.53
318.887
299.544
291.274
292.161
1548.89
1143.16
828.201
624.615
495.689
415.448
366.503
337.671
324.29
324.032
2385.8
1628.02
1087.92
772.917
586.408
476.74
412.532
376.549
359.051
357.383
3847.09
2427.2
1485.75
986.657
704.58
545.828
454.974
404.364
378.287
372.31
5836.82
3333.91
1864.17
1167.03
789.914
588.641
476.743
416.263
383.918
374.14
7944.06
3978.68
2027.09
1216.77
791.308
578.039
462.645
402.076
370.983
361.483
6193.51
2713.58
1473.98
1020.93
763.192
625.668
539.4
488.41
465.198
457.11
5460.99
5364.24
5299.07
5239.6
5191.81
5151.36
5117.99
5089.67
5062.07
5039.15
4391.9
4342.85
4319.36
4304.46
4293.23
4284.45
4277.92
4273.7
4271.95
4272.59
362.713
360.775
352.405
343.723
337.12
332.884
330.636
329.799
331.252
335.62
333.742
297.639
263.779
237.205
217.868
204.672
196.162
191.132
189.489
190.876
501.695
421.512
348.443
295.92
259.348
235.048
219.492
209.938
205.735
206.485
761.433
594.339
456.872
367.32
309.164
272.788
250.627
238.008
232.169
232.535
1229.15
890.399
630.648
474.182
376.618
317.761
282.382
262.081
251.765
250.116
1869.31
1233.73
806.346
572.091
431.974
351.444
304.265
278.025
263.969
260.205
2563.91
1513.89
923.458
631.302
461.139
368.416
315.072
286.08
271.41
267.495
2211.67
1281.66
896.196
705.546
579.968
502.72
449.522
415.842
401.384
396.179
5181.05
5135.09
5097.98
5057.31
5021.62
4989.7
4962.5
4939.09
4915.82
4896.52
4244.63
4200.78
4180.48
4168
4158.79
4151.77
4146.73
4143.71
4142.81
4143.94
279.292
286.215
287.304
286.544
285.817
285.668
286.07
286.906
288.823
292.567
176.281
168.788
161.566
155.642
151.194
148.146
146.24
145.233
145.29
146.389
223.803
207.179
190.141
176.781
166.733
159.665
154.922
151.858
150.66
151.394
305.663
267.682
233.433
208.844
191.69
180.395
173.315
169.286
167.653
168.407
457.332
376.419
307.075
259.792
227.706
207.013
193.965
186.269
182.498
182.401
662.869
504.388
385.057
309.514
260.083
229.435
210.483
199.66
193.891
192.685
900.313
630.726
458.743
356.844
291.512
252.513
228.589
215.146
208.587
207.25
978.966
733.146
609.512
525.612
462.696
418.221
384.879
362.218
353.157
349.634
4945.94
4924.53
4901.61
4873.21
4846.39
4821.45
4799.67
4780.81
4761.79
4746.1
4097.32
4057.44
4039.32
4028.31
4020.3
4014.29
4010.11
4007.77
4007.31
4008.66
246.631
254.713
257.458
258.157
258.476
258.967
259.668
260.583
262.181
265.164
131.465
129.489
127.824
126.501
125.562
125.002
124.755
124.76
125.128
125.879
143.597
139.932
135.77
132.277
129.473
127.398
125.938
124.938
124.636
125.155
171.062
161.874
153.218
146.525
141.607
138.251
136.142
135.001
134.711
135.352
223.479