/*--------------------------------*- C++ -*----------------------------------*\
| =========                 |                                                 |
| \\      /  F ield         | foam-extend: Open Source CFD                    |
|  \\    /   O peration     | Version:     4.0                                |
|   \\  /    A nd           | Web:         http://www.foam-extend.org         |
|    \\/     M anipulation  |                                                 |
\*---------------------------------------------------------------------------*/
FoamFile
{
    version     2.0;
    format      ascii;
    class       volScalarField;
    location    "1600";
    object      k;
}
// * * * * * * * * * * * * * * * * * * * * * * * * * * * * * * * * * * * * * //

dimensions      [0 2 -2 0 0 0 0];

internalField   nonuniform List<scalar> 
34480
(
8.7134
8.70707
8.70422
8.70231
8.70298
8.71881
8.78567
8.97446
9.38823
10.259
28.7697
30.6107
33.0952
36.0504
39.6304
45.3774
58.5594
89.9036
147.071
214.817
56.0478
58.4968
61.5313
64.8582
68.3176
72.8941
83.7593
117.063
194.835
305.645
56.9539
60.2617
64.5098
69.3607
74.3593
80.0089
90.5227
123.483
212.506
356.33
53.1537
57.2536
62.7036
69.1535
75.9982
83.3429
94.7081
128.234
227.879
404.73
47.8032
52.1597
58.1574
65.6161
73.9418
83.0911
96.4346
133.035
247.31
462.869
41.8406
46.1296
52.2434
60.1788
69.5411
80.2773
95.6892
135.283
262.663
513.938
32.3727
35.9836
41.2873
48.5468
57.6387
68.7673
85.2479
126.113
259.816
533.719
13.8314
15.245
17.5159
21.0475
26.2561
33.7894
46.0265
76.1965
177.954
402.842
9.15257
9.13667
9.14014
9.16976
9.2338
9.32714
9.42843
9.53515
9.72633
9.97876
8.62981
8.62935
8.63862
8.65822
8.68748
8.72815
8.79469
8.9174
9.14643
9.58923
20.2282
21.5562
23.7336
26.8029
30.7207
35.0971
40.5943
53.5572
89.4027
170.762
41.2827
43.356
46.2503
49.9175
54.403
59.6755
65.2877
77.8026
124.905
253.873
43.1065
45.7921
49.5643
54.3706
60.0489
66.692
73.5029
85.9106
139.399
302.687
41.1096
44.3615
49.0344
55.0712
62.2323
70.4837
78.8751
91.8136
151.989
350.632
37.6989
41.1268
46.2059
53.0402
61.4395
71.2381
81.4832
96.206
166.416
411.174
33.6206
36.9873
42.1452
49.3345
58.5649
69.6189
81.6238
98.1771
177.782
467.804
26.5294
29.3139
33.7275
40.2368
49.0723
60.162
72.8588
90.497
175.053
494.198
11.9854
12.9582
14.645
17.4909
22.1781
29.2318
38.3138
51.1694
113.148
365.595
9.01866
8.99532
8.98666
9.00058
9.05162
9.14413
9.24927
9.3327
9.58605
10.2165
8.53438
8.53379
8.54073
8.55705
8.58354
8.62076
8.67232
8.74939
8.87376
9.07592
13.8547
14.6021
15.8991
17.864
20.5405
23.9015
28.1203
34.1897
44.7374
62.7272
28.7828
30.2899
32.4588
35.2772
38.75
42.8584
47.5839
54.3281
69.2767
102.155
31.1187
33.0873
35.948
39.7079
44.2207
49.4884
55.204
62.6776
81.6349
130.715
30.5752
32.9648
36.5395
41.3018
47.0666
53.7632
60.804
69.1579
92.5007
161.208
28.7661
31.3029
35.2288
40.6885
47.5658
55.7167
64.3959
74.2825
103.649
197.739
26.2899
28.8077
32.8447
38.6591
46.3273
55.6854
65.9242
77.3137
112.716
234.395
21.3314
23.4047
26.8489
32.121
39.5083
48.9951
59.9238
72.3604
112.187
256.332
10.4545
11.1404
12.3719
14.4775
18.041
23.6546
31.384
40.9243
70.5318
185.531
8.90202
8.87615
8.86132
8.86361
8.89348
8.95941
9.05165
9.12987
9.26686
9.70114
8.42602
8.42573
8.43058
8.44217
8.46136
8.48896
8.52633
8.5774
8.65392
8.78597
9.77839
10.1261
10.7428
11.7552
13.2178
15.1829
17.7203
20.9648
25.2284
30.8074
19.3999
20.3323
21.6937
23.5127
25.8127
28.5874
31.8639
35.9217
41.9071
52.0587
21.7244
22.9907
24.8524
27.3501
30.4258
34.0849
38.2448
43.1822
51.0479
67.2633
22.1094
23.6837
26.0847
29.3321
33.3266
38.0742
43.3344
49.246
59.2693
83.6947
21.4563
23.1575
25.8581
29.6753
34.5494
40.4749
47.1168
54.4704
67.6999
103.801
20.2027
21.9273
24.7722
28.9276
34.4788
41.4201
49.3645
58.0735
74.5947
124.226
17.0067
18.4369
20.8748
24.6648
30.0565
37.1662
45.7238
55.4029
74.7176
136.596
9.20052
9.6639
10.5097
11.9298
14.3061
18.148
23.8719
31.3337
46.0812
95.906
8.76764
8.74313
8.72751
8.72515
8.7426
8.78811
8.86484
8.95248
9.05477
9.34544
8.30263
8.30225
8.30514
8.31223
8.32388
8.34051
8.36308
8.39432
8.44282
8.53568
7.46462
7.60493
7.84663
8.26547
8.88662
9.75207
10.9016
12.3414
13.9918
15.7897
13.0908
13.5958
14.3352
15.341
16.6315
18.2067
20.0765
22.2458
24.7135
27.838
15.0288
15.7537
16.8216
18.2768
20.0981
22.2951
24.8554
27.7897
31.258
36.4575
15.834
16.7743
18.2167
20.1808
22.6254
25.5739
28.9616
32.7558
37.4125
45.784
15.875
16.917
18.5923
20.983
24.0573
27.8704
32.331
37.3615
43.8754
57.3324
15.4305
16.5204
18.3459
21.0246
24.6198
29.2067
34.686
40.8871
49.3132
69.0578
13.5558
14.4776
16.0621
18.5303
22.0528
26.8002
32.7741
39.8173
50.0134
76.0015
8.17819
8.47844
9.03031
9.9261
11.3724
13.7015
17.3344
22.4517
30.3253
51.1967
8.62691
8.60445
8.5894
8.58487
8.59485
8.62539
8.68236
8.76136
8.85292
9.04335
8.16524
8.1648
8.16651
8.17091
8.17808
8.18811
8.20148
8.22036
8.25248
8.32274
6.24949
6.303
6.38887
6.54458
6.77244
7.08504
7.4952
8.00259
8.56274
9.12437
9.23865
9.48524
9.84172
10.3329
10.9671
11.7401
12.6471
13.6556
14.6711
15.6923
10.6404
11.0168
11.5688
12.3346
13.3045
14.4795
15.8464
17.364
18.9067
20.6512
11.5002
12.0182
12.8092
13.8911
15.2522
16.9042
18.8194
20.9356
23.1225
26.0681
11.8598
12.4533
13.4071
14.7779
16.5561
18.7916
21.4607
24.4886
27.7666
32.8811
11.8658
12.5127
13.598
15.1887
17.3309
20.1073
23.5098
27.436
31.85
39.7856
10.8954
11.4609
12.424
13.9129
16.0298
18.9305
22.6933
27.2716
32.7892
43.7483
7.35463
7.54314
7.89044
8.43133
9.2651
10.5699
12.6111
15.6077
19.6944
28.2723
8.47814
8.4583
8.44482
8.44008
8.44667
8.46865
8.51066
8.57391
8.65128
8.77227
8.0151
8.0146
8.01558
8.01843
8.02314
8.02972
8.03849
8.05121
8.07478
8.13196
5.63303
5.65285
5.68154
5.73777
5.8184
5.92457
6.05687
6.21203
6.37365
6.53198
7.08762
7.19612
7.34602
7.55231
7.81711
8.13688
8.50655
8.90599
9.28317
9.61228
7.98797
8.16376
8.41628
8.77306
9.22762
9.77752
10.4117
11.0986
11.7454
12.3381
8.70982
8.9728
9.36673
9.90339
10.581
11.4026
12.3518
13.3854
14.3679
15.4177
9.14443
9.45991
9.95784
10.673
11.6059
12.7854
14.2041
15.8164
17.4264
19.398
9.34519
9.70833
10.3077
11.1756
12.3435
13.8684
15.7591
17.9678
20.243
23.4433
8.93652
9.26933
9.81971
10.6535
11.822
13.432
15.5541
18.1966
21.1271
25.725
6.71107
6.82536
7.03627
7.34957
7.80873
8.4946
9.53274
11.059
13.0022
16.3553
8.3201
8.30313
8.29171
8.28778
8.29313
8.31048
8.34285
8.39205
8.45329
8.52793
7.85367
7.85314
7.8537
7.85565
7.859
7.86376
7.87021
7.87985
7.89886
7.94818
5.32357
5.33068
5.3397
5.36041
5.39014
5.42807
5.47321
5.52306
5.57131
5.61824
5.96974
6.01465
6.07101
6.14617
6.23991
6.34982
6.47318
6.6018
6.7161
6.80692
6.49375
6.5683
6.67034
6.81678
7.00202
7.22323
7.47362
7.73701
7.97118
8.15411
7.01654
7.14101
7.31977
7.55806
7.85513
8.21037
8.61447
9.04526
9.43477
9.79163
7.40039
7.55826
7.79782
8.13683
8.57562
9.12749
9.7898
10.5403
11.2663
12.0203
7.64263
7.83708
8.14672
8.58194
9.16115
9.9133
10.8465
11.942
13.0346
14.3218
7.54804
7.73775
8.03585
8.47153
9.06465
9.87221
10.9382
12.2831
13.7363
15.6518
6.22163
6.28814
6.41186
6.58649
6.83058
7.17596
7.67174
8.37754
9.21783
10.4527
8.15159
8.13752
8.12829
8.12551
8.13051
8.14509
8.17109
8.20964
8.25583
8.3029
7.68194
7.6814
7.68172
7.68316
7.68574
7.68948
7.69463
7.7025
7.71863
7.76232
5.1667
5.16898
5.17146
5.17948
5.19152
5.20689
5.22511
5.24499
5.26392
5.28265
5.41141
5.43015
5.45025
5.47488
5.50375
5.5358
5.57016
5.60439
5.63237
5.653
5.69299
5.72271
5.76011
5.81475
5.88226
5.96047
6.04577
6.13107
6.20023
6.24301
6.03398
6.09044
6.16612
6.26247
6.37805
6.51104
6.65648
6.80478
6.92944
7.02919
6.32537
6.40113
6.50914
6.65709
6.84295
7.07103
7.33956
7.63908
7.92118
8.18226
6.53637
6.63679
6.7885
6.99135
7.25364
7.58609
7.99198
8.46464
8.92603
9.40915
6.59694
6.70268
6.85728
7.07175
7.35063
7.71759
8.19338
8.79211
9.43354
10.189
5.86005
5.89668
5.96667
6.06032
6.18637
6.35554
6.58535
6.89811
7.24664
7.68847
7.97162
7.9603
7.95313
7.95146
7.95624
7.96867
7.98975
8.01995
8.05403
8.08507
7.50043
7.49988
7.50007
7.50121
7.50334
7.50646
7.51081
7.5175
7.5315
7.57058
5.08444
5.08489
5.08532
5.08876
5.09448
5.10216
5.11186
5.1232
5.13502
5.14718
5.13625
5.14454
5.15171
5.15905
5.16662
5.17425
5.1821
5.19
5.19638
5.20171
5.27599
5.2875
5.30035
5.31979
5.34301
5.36876
5.39546
5.4203
5.43737
5.44223
5.48057
5.50578
5.53664
5.57327
5.61434
5.65837
5.70309
5.74496
5.77517
5.79417
5.683
5.71858
5.76521
5.82611
5.89867
5.98359
6.07962
6.18298
6.2761
6.35223
5.84059
5.89108
5.96264
6.05214
6.1627
6.29691
6.45492
6.63393
6.8018
6.96039
5.96546
6.02357
6.10106
6.20165
6.32429
6.47703
6.66777
6.90256
7.15095
7.42168
5.60109
5.61959
5.6576
5.70585
5.76932
5.85082
5.95655
6.09488
6.24215
6.40821
7.77942
7.77056
7.76518
7.76437
7.7688
7.77921
7.79603
7.81929
7.84404
7.8652
7.30925
7.30871
7.30883
7.30978
7.3116
7.31431
7.31808
7.3239
7.33613
7.37107
5.03863
5.03842
5.03833
5.0401
5.04346
5.04838
5.05528
5.06433
5.07504
5.08657
5.00099
5.0049
5.00756
5.00941
5.01072
5.01171
5.01289
5.01481
5.01734
5.02086
5.06327
5.06769
5.07188
5.0787
5.08657
5.09488
5.10304
5.11001
5.11357
5.11135
5.17604
5.18721
5.19955
5.21294
5.22652
5.2395
5.25102
5.26006
5.26415
5.26444
5.30909
5.32564
5.34519
5.36924
5.39577
5.42468
5.45544
5.48688
5.51355
5.53154
5.41584
5.44059
5.47329
5.51117
5.55544
5.60634
5.66337
5.72554
5.78021
5.82572
5.55868
5.59039
5.62813
5.67322
5.72361
5.78173
5.85058
5.93253
6.01831
6.10797
5.42175
5.42965
5.44926
5.4731
5.50448
5.54367
5.5929
5.65569
5.72121
5.79005
7.57443
7.56767
7.56375
7.56353
7.56743
7.57586
7.58892
7.60641
7.62411
7.63877
7.10831
7.10779
7.10787
7.10869
7.11028
7.11265
7.11597
7.12104
7.13169
7.16273
5.01103
5.01064
5.01053
5.01168
5.01406
5.01787
5.02375
5.03228
5.04345
5.05605
4.93442
4.93635
4.9374
4.93767
4.93747
4.93711
4.93716
4.93831
4.9409
4.94506
4.9573
4.95903
4.96035
4.96274
4.96543
4.96814
4.97071
4.97274
4.97334
4.971
5.01274
5.01759
5.02242
5.02717
5.03138
5.03468
5.03683
5.03765
5.03659
5.03474
5.09728
5.10496
5.11297
5.12207
5.13106
5.13979
5.14821
5.15616
5.16237
5.16498
5.16457
5.17625
5.19064
5.20607
5.22311
5.24169
5.26149
5.2824
5.29936
5.31124
5.30455
5.32185
5.33976
5.35892
5.37772
5.39692
5.4179
5.44188
5.46728
5.49597
5.30189
5.30392
5.31332
5.32462
5.34017
5.35961
5.38363
5.41392
5.44533
5.4774
7.35632
7.3513
7.34852
7.34862
7.35187
7.35845
7.3683
7.38112
7.39365
7.4039
6.89742
6.89693
6.89698
6.89769
6.89908
6.90116
6.90407
6.90846
6.91764
6.94487
4.99293
4.99256
4.99255
4.99346
4.99536
4.99859
5.00393
5.01233
5.02423
5.03837
4.90151
4.90247
4.90292
4.90286
4.90252
4.90222
4.90244
4.90389
4.90706
4.91197
4.90607
4.90683
4.90727
4.90812
4.90903
4.90991
4.91075
4.91143
4.91158
4.91014
4.92805
4.93003
4.93187
4.93354
4.93482
4.93557
4.93573
4.93532
4.93429
4.93343
4.98095
4.98452
4.98774
4.99102
4.99371
4.99575
4.99723
4.99828
4.99887
4.99821
5.02122
5.02636
5.03232
5.03836
5.0448
5.05163
5.05872
5.06624
5.07189
5.07509
5.15054
5.16004
5.16834
5.17589
5.18172
5.18609
5.18971
5.19346
5.19773
5.20696
5.22464
5.22368
5.22762
5.23283
5.24092
5.25148
5.26451
5.28086
5.29748
5.31444
7.12499
7.12134
7.11941
7.11966
7.12223
7.12719
7.1344
7.14357
7.1524
7.15962
6.67636
6.6759
6.67593
6.67654
6.67774
6.67956
6.68208
6.68582
6.69359
6.7171
4.98008
4.97981
4.97993
4.98072
4.98229
4.98508
4.98996
4.99817
5.01067
5.02639
4.88514
4.8856
4.88583
4.88579
4.88565
4.88564
4.88621
4.88797
4.89155
4.89697
4.88218
4.88264
4.88285
4.88315
4.88341
4.88363
4.88387
4.88413
4.88428
4.88363
4.88608
4.88676
4.88741
4.88804
4.88853
4.88884
4.88894
4.88885
4.88862
4.88876
4.9192
4.92087
4.92217
4.92329
4.92391
4.92403
4.92373
4.92318
4.92257
4.92166
4.94281
4.94475
4.94695
4.94925
4.95182
4.9547
4.95782
4.96136
4.96405
4.96558
5.05952
5.0648
5.06857
5.0712
5.07219
5.07163
5.06986
5.06752
5.06499
5.06844
5.1765
5.1742
5.17536
5.17779
5.18253
5.18923
5.19753
5.20784
5.21768
5.22791
6.88053
6.87794
6.87662
6.87689
6.87883
6.88245
6.88759
6.894
6.90022
6.90535
6.44494
6.44452
6.44454
6.44506
6.44608
6.44762
6.44976
6.45289
6.4593
6.47914
4.9703
4.97017
4.97039
4.97109
4.97238
4.97474
4.97911
4.98694
4.99972
5.01692
4.87699
4.8772
4.87735
4.8774
4.87746
4.87771
4.8785
4.88041
4.88412
4.88982
4.87151
4.87189
4.87206
4.87216
4.87216
4.87211
4.87208
4.87214
4.87233
4.87224
4.86661
4.86674
4.86694
4.86723
4.86755
4.86788
4.86821
4.86851
4.86883
4.8695
4.88755
4.88834
4.88889
4.88925
4.88932
4.88907
4.88857
4.88792
4.88729
4.88671
4.90193
4.90236
4.90297
4.90387
4.90513
4.90678
4.90878
4.9112
4.91324
4.91476
5.00607
5.00901
5.01069
5.01138
5.01091
5.00925
5.0065
5.00314
4.99893
5.00108
5.14715
5.14444
5.14426
5.1455
5.14878
5.15379
5.15999
5.16751
5.17392
5.1809
6.62322
6.62141
6.62052
6.62076
6.62216
6.62471
6.62827
6.63268
6.63706
6.64072
6.20311
6.20274
6.20275
6.20317
6.20401
6.20528
6.20704
6.20957
6.21469
6.23095
4.96241
4.96243
4.96272
4.96334
4.96436
4.96627
4.97
4.97719
4.98983
5.00829
4.87299
4.87308
4.87321
4.87334
4.87353
4.87393
4.87481
4.87668
4.88029
4.88604
4.86693
4.8673
4.86746
4.86748
4.86738
4.8672
4.86704
4.86698
4.86717
4.86746
4.85859
4.85852
4.85855
4.85872
4.85899
4.85936
4.85978
4.86025
4.86077
4.86157
4.87191
4.87229
4.87253
4.87266
4.87263
4.87244
4.8721
4.87167
4.87124
4.87097
4.88164
4.88144
4.88143
4.88184
4.88267
4.88391
4.8855
4.88747
4.88928
4.89095
4.97339
4.975
4.97571
4.97574
4.97506
4.97362
4.97135
4.96858
4.96446
4.96673
5.12906
5.12641
5.12562
5.1264
5.12901
5.13318
5.1383
5.14429
5.14869
5.15397
6.35349
6.35226
6.35167
6.35185
6.35282
6.35455
6.35696
6.35993
6.36298
6.36559
5.951
5.95069
5.95069
5.95102
5.95168
5.95267
5.95404
5.95599
5.95988
5.97268
4.95567
4.95584
4.95616
4.95668
4.95743
4.95888
4.96187
4.96812
4.98003
4.99929
4.87108
4.87113
4.87125
4.87142
4.87168
4.87213
4.87298
4.87466
4.87793
4.8835
4.8649
4.86524
4.86539
4.86538
4.86525
4.86504
4.86483
4.86471
4.86488
4.86541
4.8561
4.85598
4.85597
4.85608
4.8563
4.85661
4.85699
4.85743
4.85791
4.85859
4.86452
4.86471
4.86483
4.86489
4.86487
4.86477
4.86458
4.86433
4.86406
4.86396
4.87183
4.87144
4.87126
4.8715
4.87211
4.87309
4.87435
4.8759
4.87738
4.87898
4.95087
4.95172
4.95196
4.95183
4.95133
4.95041
4.94891
4.94705
4.9436
4.94624
5.1167
5.11434
5.11332
5.11391
5.11613
5.11974
5.1241
5.12904
5.13199
5.13629
6.07202
6.07121
6.07083
6.07095
6.07159
6.07272
6.07428
6.07623
6.0783
6.08012
5.68904
5.68883
5.68883
5.68907
5.68954
5.69027
5.69126
5.69265
5.69539
5.70488
4.94933
4.94961
4.94993
4.95031
4.95081
4.95178
4.95395
4.95893
4.96938
4.9886
4.87013
4.87017
4.87027
4.87044
4.8707
4.87113
4.87187
4.87325
4.87597
4.881
4.86365
4.86392
4.86404
4.86403
4.86392
4.86374
4.86354
4.86342
4.86355
4.86417
4.85606
4.85597
4.85596
4.85602
4.85616
4.85637
4.85663
4.85693
4.85727
4.85774
4.86131
4.86142
4.86149
4.86152
4.8615
4.86143
4.86131
4.86115
4.86095
4.8609
4.86661
4.86625
4.86609
4.86623
4.86666
4.86734
4.86819
4.86922
4.87024
4.87154
4.93218
4.93263
4.93267
4.93256
4.93226
4.93174
4.93084
4.9297
4.92703
4.92975
5.10522
5.10323
5.1022
5.10267
5.10454
5.10758
5.11119
5.11514
5.11687
5.12047
5.77977
5.77926
5.77904
5.77911
5.7795
5.78018
5.78114
5.78234
5.78364
5.78485
5.41809
5.4178
5.4178
5.41796
5.41828
5.41876
5.41941
5.42031
5.42201
5.42847
4.94155
4.94182
4.94211
4.94234
4.94259
4.9431
4.94441
4.9478
4.95591
4.97361
4.86948
4.8695
4.86958
4.86971
4.86994
4.8703
4.87087
4.87187
4.87384
4.8778
4.86233
4.8625
4.86258
4.86258
4.86251
4.86239
4.86226
4.86217
4.86225
4.86277
4.85699
4.85694
4.85693
4.85696
4.85703
4.85714
4.85727
4.85742
4.8576
4.85785
4.86018
4.86026
4.86031
4.86032
4.86029
4.86022
4.86011
4.85996
4.8598
4.85972
4.86286
4.86264
4.86254
4.86262
4.86286
4.86322
4.86366
4.86415
4.86468
4.86552
4.9138
4.91409
4.91411
4.91403
4.91383
4.91346
4.91287
4.91209
4.91028
4.91245
5.08659
5.08494
5.08405
5.08438
5.08581
5.08813
5.09083
5.09363
5.09417
5.09702
5.47783
5.47754
5.47742
5.47745
5.47766
5.47803
5.47855
5.4792
5.47992
5.48064
5.13735
5.13736
5.13738
5.13746
5.13763
5.13788
5.13822
5.13867
5.13948
5.14354
4.92448
4.92465
4.92484
4.92495
4.92502
4.92519
4.92571
4.92732
4.93207
4.94514
4.86825
4.86825
4.8683
4.8684
4.86857
4.86883
4.86922
4.86983
4.87095
4.8733
4.86103
4.86111
4.86116
4.86116
4.86113
4.86108
4.86102
4.86097
4.86099
4.86124
4.85833
4.85832
4.85831
4.85832
4.85835
4.85838
4.85843
4.85848
4.85854
4.85863
4.8601
4.86015
4.86018
4.86018
4.86015
4.86009
4.85999
4.85987
4.85974
4.85965
4.86028
4.86018
4.86015
4.86018
4.86027
4.8604
4.86054
4.86067
4.86081
4.86113
4.89344
4.89366
4.89372
4.89368
4.89349
4.89317
4.89272
4.89219
4.89141
4.89264
5.03656
5.03517
5.03452
5.03466
5.03554
5.03696
5.03862
5.0402
5.03999
5.04159
5.16632
5.16618
5.16612
5.16613
5.16621
5.16635
5.16656
5.16682
5.16713
5.16749
12.1668
12.6048
12.3826
11.344
212.907
207.623
204.368
199.963
322.917
316.335
309.439
294.842
395.541
388.655
377.805
357.472
470.422
462.901
446.87
423.303
555.412
543.007
517.812
488.106
628.906
611.108
578.986
546.867
662.51
640.429
604.26
570.139
519.152
496.382
462.627
430.628
13.1924
13.3773
13.2882
13.1328
10.0865
10.4388
10.5847
10.4095
236.053
215.437
211.222
205.319
370.057
343.021
333.932
312.985
463.084
436.381
423.77
389.261
563.608
540.936
520.117
472.235
696.204
671.956
629.696
561.084
824.027
794.008
728.595
646.035
903.604
868.644
788.011
689.274
733.685
700.171
623.838
529.569
12.8213
12.8949
12.7176
12.3732
9.22723
9.38265
9.42646
9.32695
81.3316
83.2945
80.1987
72.7059
137.766
139.848
132.777
117.573
182.951
184.116
173.412
152.086
234.658
235.142
220.079
191.504
302.261
303.512
283.625
244.631
376.426
378.351
352.711
302.857
433.239
434.419
402.439
342.638
346.825
345.209
315.356
260.544
10.7254
10.8134
10.7965
10.6998
8.93804
9.0104
9.02162
8.95541
33.8281
34.0553
33.5116
31.9781
59.2421
59.4619
57.6749
54.2033
79.4126
79.2133
76.0941
70.8247
102.834
102.128
97.2749
89.2852
133.139
131.807
124.633
113.33
166.429
164.295
154.461
139.578
192.247
189.344
177.375
159.629
147.139
143.483
133.158
117.271
9.77203
9.82765
9.85517
9.86065
8.70408
8.75771
8.75917
8.70392
16.5253
16.6832
16.5373
16.1858
29.828
30.1072
29.6249
28.6128
40.0189
40.2787
39.4462
37.8735
51.7734
51.9939
50.6314
48.1644
67.2986
67.5996
65.6918
62.2424
84.3653
84.7562
82.2267
77.6323
97.2907
97.7957
94.8376
89.2701
70.8362
70.9238
68.5276
63.2855
9.21572
9.25434
9.28646
9.31243
8.4983
8.54441
8.54488
8.49684
9.20621
9.22929
9.20321
9.15899
16.1547
16.2316
16.0959
15.7995
21.572
21.6646
21.4492
21.0137
27.8051
27.9337
27.5838
26.8851
36.1285
36.3908
35.9575
35.0067
45.2009
45.6337
45.1094
43.8393
51.764
52.3966
51.8583
50.2968
35.5026
35.875
35.5032
33.9617
8.82768
8.84976
8.87479
8.90427
8.30689
8.34882
8.34893
8.30559
6.52678
6.52041
6.51813
6.52889
9.71154
9.72873
9.68425
9.58754
12.5712
12.6004
12.5427
12.4145
15.9288
15.9874
15.8972
15.6818
20.488
20.6378
20.5615
20.2867
25.4175
25.6914
25.6368
25.2748
28.8316
29.2522
29.2513
28.8063
19.0792
19.3635
19.4085
18.9609
8.52802
8.54008
8.55851
8.58628
8.11805
8.15687
8.15684
8.117
5.6276
5.61904
5.61895
5.63066
6.81812
6.81671
6.79819
6.7642
8.19873
8.20237
8.18489
8.14836
9.93156
9.94907
9.92111
9.84943
12.3773
12.4391
12.4292
12.3467
15.028
15.1529
15.1679
15.0639
16.8383
17.0419
17.0972
16.9736
11.4386
11.5818
11.6568
11.547
8.27707
8.28297
8.29603
8.31991
7.92473
7.96061
7.96053
7.92391
5.30828
5.30341
5.30341
5.30986
5.65021
5.64639
5.63703
5.62264
6.24138
6.23868
6.23326
6.225
7.05919
7.06175
7.05114
7.02647
8.28927
8.31038
8.31044
8.28622
9.64884
9.69805
9.7126
9.68426
10.6296
10.7166
10.7532
10.7211
8.02963
8.09281
8.13915
8.12196
8.04756
8.04971
8.05865
8.07805
7.72402
7.75688
7.7568
7.72341
5.18078
5.17936
5.17944
5.18191
5.20037
5.19771
5.19224
5.18433
5.43392
5.43096
5.42934
5.42887
5.79625
5.795
5.79012
5.78111
6.37764
6.3829
6.38311
6.37667
7.03029
7.04616
7.05303
7.04695
7.57379
7.60644
7.62316
7.61598
6.5223
6.54784
6.57019
6.57271
7.82312
7.82303
7.82898
7.84422
7.51442
7.54411
7.54402
7.51397
5.12292
5.12403
5.12422
5.12403
5.02221
5.0209
5.01745
5.01217
5.10498
5.10301
5.10265
5.10381
5.26234
5.261
5.25847
5.25461
5.53476
5.53533
5.5351
5.53353
5.84077
5.84456
5.847
5.84665
6.15721
6.16819
6.17426
6.17248
5.82481
5.83437
5.84416
5.84898
7.59578
7.59443
7.5983
7.61003
7.295
7.32138
7.32128
7.29468
5.09258
5.09554
5.09581
5.09368
4.94815
4.9478
4.94555
4.94167
4.9671
4.96594
4.96598
4.96716
5.03335
5.03256
5.03116
5.02918
5.16373
5.16333
5.163
5.16261
5.31135
5.31152
5.31217
5.31293
5.5118
5.51518
5.51676
5.5156
5.48269
5.48541
5.48953
5.49386
7.36211
7.36012
7.36258
7.37148
7.06517
7.0881
7.08801
7.06493
5.07398
5.07852
5.0788
5.07498
4.91609
4.9164
4.91494
4.91192
4.908
4.90737
4.9075
4.90835
4.93307
4.93272
4.93193
4.93077
4.99674
4.99634
4.99608
4.99594
5.07213
5.07146
5.07153
5.07236
5.21251
5.2135
5.21349
5.21223
5.30771
5.30736
5.30909
5.31293
7.12039
7.11819
7.1197
7.12636
6.82451
6.84422
6.84416
6.8243
5.06083
5.06676
5.06701
5.06168
4.90173
4.9025
4.90158
4.89911
4.88267
4.88238
4.8825
4.88299
4.88903
4.88895
4.88851
4.88779
4.9207
4.92045
4.92029
4.92021
4.96267
4.96198
4.96193
4.96264
5.07102
5.07138
5.07092
5.06962
5.21569
5.21389
5.21464
5.21829
6.86961
6.86746
6.86837
6.87328
6.57283
6.58954
6.58951
6.57272
5.05052
5.05782
5.05801
5.05114
4.89506
4.89619
4.89563
4.89349
4.87212
4.87206
4.87212
4.87229
4.87004
4.87008
4.86985
4.86939
4.88621
4.88611
4.88602
4.88596
4.91261
4.91211
4.91207
4.91263
5.00306
5.00337
5.00289
5.0016
5.16589
5.16335
5.16372
5.16738
6.60915
6.60723
6.60774
6.61129
6.31023
6.32397
6.32396
6.31017
5.04174
5.05065
5.05077
5.04216
4.89171
4.89314
4.89283
4.89085
4.86798
4.86809
4.86811
4.86801
4.86214
4.86224
4.86211
4.86182
4.87076
4.87074
4.87069
4.87061
4.88961
4.88933
4.88934
4.88973
4.96892
4.96941
4.96901
4.9677
5.13743
5.13453
5.13477
5.13848
6.33868
6.33709
6.33736
6.33986
6.03682
6.04766
6.04766
6.03679
5.03384
5.04457
5.04465
5.03408
4.88955
4.89124
4.89109
4.88914
4.86639
4.86665
4.86663
4.86633
4.85908
4.85917
4.8591
4.8589
4.8639
4.8639
4.86386
4.86376
4.87833
4.87825
4.87828
4.87849
4.94895
4.94971
4.94938
4.94794
5.11893
5.11596
5.11618
5.11986
6.05823
6.05701
6.05714
6.05882
5.7531
5.76119
5.76119
5.75308
5.0257
5.03829
5.03832
5.02581
4.88719
4.88907
4.88902
4.88705
4.86539
4.86574
4.86571
4.86529
4.85807
4.85814
4.85809
4.85795
4.86087
4.86086
4.8608
4.86069
4.87141
4.87147
4.8715
4.87153
4.93286
4.93392
4.93358
4.93185
5.10295
5.10027
5.10049
5.10382
5.76824
5.76739
5.76745
5.76849
5.46
5.46557
5.46556
5.46
5.01344
5.0273
5.0273
5.01345
4.88346
4.88527
4.88526
4.88345
4.86389
4.86422
4.8642
4.8638
4.85802
4.85805
4.85802
4.85794
4.85965
4.85961
4.85954
4.85944
4.86573
4.86587
4.86589
4.86581
4.91497
4.9161
4.91569
4.91379
5.08033
5.07859
5.07881
5.08118
5.46958
5.46911
5.46912
5.46965
5.15752
5.16099
5.16099
5.15752
4.98087
4.99338
4.99337
4.98085
4.87717
4.87835
4.87835
4.8772
4.86185
4.86204
4.86203
4.86181
4.85868
4.85868
4.85866
4.85863
4.85955
4.8595
4.85944
4.85937
4.86137
4.8615
4.86153
4.86146
4.89298
4.89336
4.89291
4.89172
5.02731
5.0274
5.02767
5.02819
5.16223
5.16209
5.1621
5.16223
10.13
9.4314
9.1078
8.98227
8.92651
8.87876
8.82889
8.78406
8.74971
8.72673
197.847
104.179
62.1035
50.0255
44.0128
38.6782
34.2457
30.8835
28.8385
28.103
266.327
124.694
88.6893
75.1144
68.2553
62.9689
59.1223
56.4719
54.9817
54.7664
307.769
133.715
97.9426
81.1095
72.0473
65.2271
60.4497
57.2258
55.3535
55.1885
366.622
148.623
106.455
85.0913
72.7483
63.9766
57.9225
53.8682
51.3748
51.0646
439.626
176.96
117.655
89.5486
73.1806
62.1566
54.6248
49.6148
46.4414
45.7795
505.326
203.076
123.129
89.9398
70.703
58.3397
49.9641
44.4646
40.9033
39.9848
532.821
207.932
112.881
79.1083
59.5512
47.6562
39.8259
34.8962
31.7918
30.9034
397.778
129.347
56.5191
35.9686
24.8861
19.2202
16.0908
14.4514
13.4719
13.2007
12.823
10.5753
9.9487
9.67221
9.49863
9.38306
9.30555
9.24989
9.20279
9.16844
9.72154
9.26056
9.03627
8.91304
8.83532
8.77611
8.72669
8.68652
8.65739
8.63897
131.835
71.4924
48.5016
38.8059
33.1706
28.7137
25.1166
22.391
20.6823
19.9318
182.93
96.5682
70.5721
58.9488
52.425
47.6592
44.2116
41.8566
40.5543
40.3044
213.146
108.306
79.2604
64.6799
56.3887
50.4358
46.3075
43.5708
42.0169
41.7885
250.609
121.605
87.0008
68.5888
57.8479
50.4356
45.375
42.0487
40.0144
39.6059
316.465
144.333
97.435
73.3701
59.3996
50.1156
43.8246
39.6929
37.0566
36.2966
391.633
166.125
103.594
74.9622
58.5374
48.046
40.9936
36.4163
33.4008
32.3741
432.386
172.303
96.8886
67.2733
50.3615
40.1122
33.4196
29.2493
26.5714
25.5944
324.707
108.801
49.6937
31.3878
21.784
16.8975
14.2016
12.7975
11.9335
11.6269
11.6749
10.2589
9.74567
9.50331
9.35284
9.25098
9.18038
9.12795
9.08218
9.04491
9.13013
8.92989
8.82365
8.75023
8.69179
8.64339
8.60427
8.57428
8.55345
8.54074
55.6531
41.8886
33.393
27.5038
23.078
19.6659
17.1159
15.295
14.1956
13.7094
85.1999
63.0641
51.1676
42.9991
37.5607
33.6861
30.9734
29.1738
28.2246
28.0705
105.989
74.4965
58.6766
48.0566
41.3345
36.6523
33.4634
31.3946
30.282
30.1509
128.633
85.2505
65.0664
51.5597
43.19
37.5081
33.6697
31.1966
29.7514
29.4792
159.379
101.2
73.4401
56.0034
45.2899
38.166
33.3577
30.2409
28.3151
27.7542
194.359
116.048
78.842
58.153
45.515
37.3763
31.9206
28.4247
26.1781
25.3922
219.457
120.73
74.5821
53.0983
39.91
31.8609
26.6316
23.4179
21.4062
20.6656
160.002
74.1476
37.7737
24.9431
17.7314
14.1087
12.103
11.0554
10.4166
10.2022
10.5249
9.85749
9.51607
9.32942
9.20782
9.12319
9.06146
9.01292
8.9684
8.93088
8.79727
8.68173
8.61545
8.56599
8.52615
8.49392
8.46862
8.44968
8.4369
8.42957
29.2234
24.8129
20.8152
17.4812
14.8707
12.9058
11.4945
10.5198
9.94993
9.70388
47.5432
39.9386
33.7846
28.8416
25.2502
22.6582
20.8437
19.6487
19.0352
18.9497
60.435
48.9596
40.0129
33.3202
28.7347
25.5135
23.3146
21.896
21.1612
21.0934
73.677
57.5543
45.2555
36.54
30.7807
26.8396
24.1782
22.4859
21.5398
21.3843
92.3473
69.5154
52.0146
40.568
33.0758
28.0333
24.6283
22.4456
21.1469
20.7841
112.721
80.3405
56.7515
42.9562
33.9559
28.0836
24.1537
21.6691
20.1269
19.599
127.654
83.6684
54.4996
39.9587
30.4015
24.5247
20.7288
18.432
17.0443
16.5532
90.3163
49.3007
27.2782
19.0439
14.1609
11.7117
10.3318
9.60386
9.16152
9.02523
9.84338
9.47604
9.25956
9.12459
9.03248
8.96454
8.91252
8.86985
8.82929
8.79465
8.53267
8.45365
8.41197
8.38295
8.36011
8.34157
8.32684
8.31574
8.30839
8.30455
15.696
14.0406
12.3277
10.8528
9.69237
8.8241
8.20383
7.77327
7.52493
7.4233
26.7516
23.7296
20.7846
18.2897
16.3559
14.9128
13.8853
13.2064
12.8671
12.8339
34.8832
30.1386
25.5126
21.9068
19.2451
17.3181
15.9832
15.1184
14.6823
14.6555
43.4363
36.3603
29.5699
24.6564
21.1704
18.7299
17.0723
16.028
15.4665
15.3915
55.4323
44.8359
34.807
28.067
23.3342
20.081
17.8756
16.4748
15.6699
15.4589
68.2021
52.5068
38.7644
30.3574
24.4893
20.589
17.9781
16.3486
15.3702
15.0467
77.2438
54.9585
37.9595
28.8328
22.4667
18.5075
15.9608
14.4416
13.5546
13.2585
52.1034
31.064
19.1696
14.3538
11.3571
9.81646
8.91833
8.43642
8.14218
8.05939
9.33546
9.1364
9.01336
8.92144
8.85371
8.79969
8.75619
8.71919
8.68289
8.65158
8.31799
8.25699
8.22899
8.21152
8.19818
8.18728
8.17854
8.172
8.16792
8.16618
9.18243
8.64688
8.0422
7.51044
7.08667
6.76396
6.52696
6.35565
6.25754
6.22324
15.2477
14.0703
12.7959
11.67
10.7581
10.0662
9.57252
9.2487
9.09645
9.09891
20.1102
18.138
15.9856
14.2257
12.8489
11.8299
11.1182
10.6558
10.4309
10.4326
25.353
22.1609
18.8272
16.2994
14.4005
13.0482
12.1297
11.5586
11.2649
11.244
32.7568
27.7046
22.5866
18.9202
16.1923
14.2818
12.9852
12.1698
11.7171
11.6131
40.5741
32.7827
25.6119
20.8397
17.3266
14.9485
13.3581
12.378
11.8066
11.6295
45.8595
34.5572
25.6134
20.2471
16.3532
13.8964
12.3197
11.3895
10.8633
10.7037
29.5363
19.2903
13.6181
11.0122
9.30977
8.38625
7.82322
7.51406
7.3235
7.27531
8.94743
8.8478
8.78132
8.71978
8.66993
8.62705
8.59094
8.55939
8.52757
8.49995
8.12787
8.07653
8.05534
8.04341
8.03471
8.0277
8.02218
8.01822
8.01602
8.01549
6.58478
6.43253
6.2433
6.07162
5.92996
5.81676
5.7287
5.66127
5.62363
5.61556
9.40672
8.95457
8.455
8.00782
7.64263
7.36719
7.17291
7.04788
6.99711
7.0144
12.1156
11.2988
10.3765
9.59622
8.96887
8.50138
8.17453
7.96102
7.86302
7.87831
15.1186
13.6843
12.1771
10.9813
10.0602
9.40228
8.95962
8.68959
8.55964
8.56774
19.4482
17.0866
14.6674
12.8084
11.3833
10.3754
9.69343
9.26845
9.04123
9.00274
24.0098
20.2607
16.7794
14.243
12.3234
11.0065
10.1275
9.59174
9.28729
9.20311
27.0064
21.5156
17.1222
14.1713
11.995
10.5991
9.70197
9.17608
8.88791
8.81387
17.1523
12.5974
10.1318
8.79843
7.88063
7.34406
7.00082
6.80719
6.68643
6.65931
8.63899
8.594
8.55773
8.51634
8.47941
8.4456
8.41605
8.38973
8.36252
8.3388
7.94514
7.89941
7.88173
7.87251
7.86609
7.86111
7.85732
7.85479
7.85364
7.85377
5.64692
5.60311
5.54041
5.48125
5.43061
5.38825
5.35346
5.32566
5.3112
5.31192
6.70455
6.54844
6.38082
6.2316
6.11102
6.02161
5.96007
5.92241
5.91344
5.93165
8.05771
7.75376
7.40436
7.10287
6.85725
6.67309
6.5432
6.45662
6.42065
6.43767
9.63787
9.04162
8.4247
7.92286
7.53554
7.25999
7.07698
6.96824
6.92213
6.93995
12.0324
11.0005
9.93835
9.08122
8.41754
7.9451
7.62539
7.42712
7.32624
7.32048
14.5748
12.8787
11.2885
10.051
9.10448
8.44671
8.00639
7.73978
7.5918
7.55877
16.2544
13.7501
11.7139
10.2225
9.11474
8.38771
7.91645
7.64099
7.49613
7.46984
10.8773
9.06119
8.05041
7.39132
6.91068
6.60463
6.39921
6.2797
6.20412
6.18896
8.37561
8.35744
8.33654
8.30839
8.28098
8.25467
8.23093
8.20951
8.18691
8.16714
7.76022
7.71868
7.70329
7.69562
7.69047
7.6866
7.68378
7.68204
7.68145
7.6819
5.29855
5.28176
5.25504
5.22961
5.20793
5.1897
5.17434
5.16195
5.15623
5.15907
5.59885
5.54716
5.49667
5.45297
5.41902
5.39529
5.38057
5.3736
5.37729
5.39128
6.20472
6.10884
5.99382
5.89216
5.80728
5.74223
5.69512
5.66239
5.65106
5.6644
6.95092
6.7322
6.51157
6.32963
6.18906
6.08909
6.02393
5.98719
5.97621
5.9932
8.17695
7.7746
7.35625
7.00615
6.73148
6.53278
6.39717
6.31326
6.27403
6.28057
9.5067
8.81059
8.14768
7.60707
7.18716
6.88822
6.68535
6.56298
6.49695
6.48777
10.4465
9.40202
8.53226
7.84854
7.33198
6.98082
6.74987
6.61577
6.55007
6.54701
7.90107
7.23757
6.83199
6.51258
6.2644
6.09183
5.97019
5.89679
5.84944