/*--------------------------------*- C++ -*----------------------------------*\
| =========                 |                                                 |
| \\      /  F ield         | foam-extend: Open Source CFD                    |
|  \\    /   O peration     | Version:     4.0                                |
|   \\  /    A nd           | Web:         http://www.foam-extend.org         |
|    \\/     M anipulation  |                                                 |
\*---------------------------------------------------------------------------*/
FoamFile
{
    version     2.0;
    format      ascii;
    class       volScalarField;
    location    "1600";
    object      MaU;
}
// * * * * * * * * * * * * * * * * * * * * * * * * * * * * * * * * * * * * * //

dimensions      [0 0 0 0 0 0 0];

internalField   nonuniform List<scalar> 
34480
(
0.633709
0.63886
0.643791
0.648731
0.653961
0.65937
0.663116
0.659444
0.638554
0.572878
0.641317
0.647452
0.6531
0.658352
0.663728
0.669682
0.67555
0.677424
0.667139
0.612754
0.645061
0.65203
0.658594
0.664852
0.671241
0.678487
0.686595
0.692667
0.690259
0.646027
0.645997
0.65447
0.662633
0.670595
0.678603
0.687364
0.697285
0.706481
0.710192
0.673749
0.646552
0.656349
0.665893
0.675356
0.684886
0.695102
0.706623
0.718461
0.727326
0.696877
0.645986
0.656822
0.667403
0.677997
0.688735
0.70016
0.712994
0.727034
0.740284
0.714757
0.64579
0.657298
0.668483
0.679733
0.691198
0.703405
0.717206
0.73321
0.750644
0.729965
0.64484
0.656655
0.668055
0.679501
0.691158
0.703557
0.71771
0.735139
0.756584
0.741156
0.644632
0.656518
0.66796
0.679502
0.691297
0.703801
0.718041
0.736395
0.761596
0.750725
0.640313
0.652258
0.663774
0.675325
0.686904
0.698851
0.712241
0.730256
0.75877
0.753418
0.608672
0.611525
0.613046
0.612953
0.610788
0.605726
0.596476
0.58131
0.555674
0.501155
0.622216
0.626511
0.629635
0.631161
0.630761
0.62774
0.620561
0.606982
0.58342
0.528373
0.62972
0.635102
0.639486
0.642604
0.64412
0.643521
0.639376
0.628946
0.608825
0.554782
0.63318
0.640088
0.646159
0.651212
0.654817
0.656483
0.654909
0.647283
0.630468
0.578367
0.635462
0.643708
0.65124
0.657937
0.663381
0.667042
0.667723
0.662709
0.649087
0.599443
0.636199
0.64554
0.654216
0.662188
0.669104
0.67441
0.676995
0.674327
0.663579
0.616061
0.636968
0.647059
0.656475
0.665282
0.673213
0.679745
0.683906
0.68349
0.675743
0.63085
0.636698
0.647209
0.657014
0.666266
0.674768
0.682066
0.687374
0.688957
0.684446
0.643184
0.636684
0.647317
0.657275
0.666806
0.675798
0.68383
0.690168
0.693491
0.692349
0.654862
0.632826
0.643517
0.653629
0.663297
0.672358
0.680441
0.687037
0.691276
0.693608
0.66093
0.590118
0.591646
0.591667
0.589967
0.586159
0.579708
0.569913
0.555965
0.536474
0.508571
0.606269
0.609175
0.610675
0.610396
0.607838
0.602228
0.592427
0.576873
0.553231
0.517583
0.615952
0.620037
0.622844
0.624034
0.623143
0.619331
0.611122
0.596263
0.571417
0.529774
0.621218
0.626776
0.631192
0.634178
0.635173
0.633302
0.626862
0.613028
0.587631
0.541091
0.624853
0.631723
0.637574
0.642164
0.644895
0.644867
0.640235
0.627746
0.602481
0.552357
0.626659
0.634646
0.641678
0.647573
0.651769
0.653342
0.650377
0.63934
0.614618
0.562012
0.628237
0.637025
0.644883
0.651708
0.657011
0.659886
0.658438
0.649039
0.625458
0.571635
0.628603
0.637887
0.646252
0.653672
0.659739
0.663597
0.663454
0.655772
0.633905
0.580026
0.628991
0.638436
0.647005
0.654758
0.661414
0.666186
0.667373
0.661534
0.641804
0.587884
0.625773
0.635259
0.643989
0.65189
0.65865
0.66355
0.665337
0.660958
0.643832
0.590048
0.577039
0.577763
0.577167
0.575122
0.571447
0.565947
0.558509
0.549263
0.538517
0.525966
0.593406
0.595232
0.595667
0.594446
0.591213
0.585508
0.576783
0.564534
0.548335
0.528438
0.604028
0.606969
0.608545
0.608438
0.606234
0.601297
0.592724
0.579415
0.56016
0.534236
0.610437
0.614724
0.617713
0.619071
0.618269
0.614509
0.606549
0.592678
0.570836
0.538998
0.615084
0.620612
0.624915
0.627693
0.62831
0.625867
0.618832
0.604921
0.581165
0.544113
0.617767
0.624389
0.629834
0.633836
0.635734
0.634549
0.628519
0.614859
0.589665
0.548063
0.620049
0.627491
0.633783
0.638721
0.641667
0.641603
0.636628
0.62358
0.597639
0.552486
0.620986
0.628976
0.635838
0.641434
0.645188
0.646082
0.642166
0.630037
0.60407
0.556397
0.621704
0.629903
0.637014
0.642969
0.647302
0.649068
0.646354
0.63558
0.610354
0.5604
0.618925
0.627188
0.634498
0.640651
0.645186
0.647186
0.645031
0.635393
0.611781
0.559862
0.569012
0.569364
0.568743
0.567102
0.564397
0.560613
0.555852
0.550513
0.545452
0.541186
0.58386
0.584983
0.584933
0.583555
0.580666
0.576068
0.569602
0.561263
0.551343
0.540861
0.594203
0.596272
0.597077
0.596383
0.593904
0.589268
0.582055
0.571927
0.558837
0.543835
0.600994
0.604227
0.606169
0.606524
0.604883
0.600682
0.593186
0.581607
0.565376
0.545381
0.606181
0.61054
0.613613
0.615097
0.614459
0.610974
0.603602
0.591049
0.572051
0.547127
0.609429
0.614823
0.618933
0.621473
0.621823
0.619138
0.612093
0.598889
0.577443
0.54777
0.61221
0.618413
0.623339
0.626741
0.627968
0.626092
0.619556
0.606113
0.582779
0.548899
0.613591
0.620369
0.625883
0.629936
0.631899
0.630796
0.624918
0.611637
0.587058
0.549626
0.614624
0.621651
0.627443
0.631861
0.634341
0.633946
0.628926
0.616345
0.591347
0.550685
0.612213
0.619331
0.625348
0.629988
0.63271
0.632572
0.627968
0.615986
0.591507
0.548083
0.564696
0.564885
0.564423
0.563307
0.561554
0.559208
0.556413
0.553564
0.551567
0.551313
0.577236
0.577918
0.577708
0.576527
0.574311
0.571019
0.566671
0.561414
0.555603
0.54998
0.586505
0.587926
0.588284
0.58743
0.585203
0.581436
0.576006
0.568941
0.560562
0.551874
0.593074
0.59545
0.596656
0.596461
0.594596
0.590728
0.584517
0.575743
0.56454
0.552172
0.598377
0.601731
0.603851
0.60447
0.603197
0.599534
0.592889
0.582704
0.568747
0.552439
0.601893
0.606189
0.609198
0.610649
0.610042
0.606736
0.599876
0.588514
0.571892
0.551485
0.604971
0.610037
0.613785
0.615968
0.61601
0.613164
0.606324
0.594144
0.5752
0.550863
0.606654
0.612295
0.61661
0.619381
0.620014
0.617683
0.611084
0.598481
0.577692
0.549754
0.607941
0.613862
0.61847
0.621588
0.622644
0.620807
0.614671
0.602173
0.58027
0.549
0.605804
0.611839
0.616686
0.620036
0.621338
0.61973
0.613839
0.60147
0.579299
0.545186
0.562876
0.563
0.562714
0.562036
0.560995
0.559641
0.558093
0.556679
0.556254
0.55804
0.572978
0.573396
0.573189
0.572322
0.570785
0.568603
0.56585
0.562679
0.559346
0.556282
0.580763
0.581722
0.581854
0.581075
0.579311
0.576516
0.572705
0.56802
0.562792
0.557692
0.586685
0.588394
0.589114
0.58869
0.586964
0.583776
0.57902
0.57274
0.56527
0.557591
0.591752
0.594275
0.595693
0.595798
0.594331
0.590997
0.585519
0.57776
0.567932
0.557321
0.595265
0.598612
0.600754
0.601459
0.600365
0.597041
0.591008
0.581881
0.569615
0.555775
0.598446
0.602498
0.605274
0.606552
0.605875
0.6027
0.596333
0.586096
0.571547
0.554435
0.60028
0.604883
0.608175
0.609942
0.609683
0.606763
0.600292
0.589275
0.572753
0.552487
0.601749
0.606648
0.61023
0.612309
0.612367
0.609733
0.603387
0.592049
0.574128
0.550919
0.599804
0.604829
0.608649
0.610948
0.611222
0.608754
0.602492
0.590962
0.572343
0.546673
0.562551
0.562647
0.562492
0.56211
0.561527
0.560781
0.559959
0.559321
0.559665
0.562493
0.570474
0.570736
0.570586
0.570009
0.569019
0.56765
0.565976
0.56411
0.562215
0.560519
0.576686
0.577327
0.577359
0.576744
0.575457
0.573508
0.570958
0.567949
0.564729
0.561694
0.58173
0.582934
0.583353
0.582888
0.581462
0.579018
0.575567
0.571238
0.566348
0.561537
0.586308
0.588165
0.589089
0.588931
0.587536
0.584757
0.580506
0.574841
0.568085
0.561162
0.5896
0.59215
0.593637
0.593874
0.592623
0.589629
0.584669
0.577673
0.568886
0.559534
0.592717
0.595887
0.597893
0.598542
0.597509
0.594433
0.588935
0.580762
0.56997
0.558056
0.594558
0.598235
0.600686
0.601712
0.600931
0.597894
0.592059
0.582951
0.570337
0.555874
0.596133
0.600106
0.602827
0.604116
0.603549
0.600626
0.594676
0.585012
0.571
0.554161
0.594306
0.598408
0.601349
0.602828
0.602428
0.599591
0.593593
0.583555
0.568696
0.549896
0.563019
0.563099
0.563026
0.562823
0.56251
0.562112
0.56169
0.561455
0.562155
0.565511
0.569178
0.569346
0.569255
0.568899
0.568294
0.567472
0.566484
0.565406
0.564336
0.563386
0.573928
0.574353
0.574354
0.573913
0.573029
0.571731
0.570081
0.568191
0.566224
0.564408
0.578029
0.578864
0.579106
0.578697
0.577605
0.575828
0.57342
0.570515
0.567353
0.564327
0.581972
0.583311
0.583903
0.583646
0.582457
0.580279
0.577123
0.573113
0.568545
0.564024
0.584892
0.586793
0.587803
0.58778
0.586581
0.584075
0.580194
0.575016
0.568849
0.56255
0.587815
0.590244
0.591659
0.591909
0.590775
0.588046
0.583552
0.577274
0.569465
0.561234
0.589536
0.592411
0.594193
0.594711
0.593694
0.590853
0.585901
0.578685
0.56933
0.559139
0.591151
0.594307
0.596324
0.597047
0.596154
0.593302
0.588097
0.580244
0.56965
0.557646
0.589378
0.592653
0.594866
0.595739
0.594955
0.592114
0.586769
0.578469
0.567052
0.553567
0.563835
0.563903
0.563874
0.563771
0.563607
0.5634
0.563189
0.563153
0.563993
0.5676
0.568654
0.568764
0.568717
0.56851
0.568155
0.567676
0.567106
0.566493
0.565892
0.565358
0.572151
0.572432
0.572428
0.572134
0.571557
0.570724
0.569685
0.568517
0.567323
0.56623
0.575365
0.575936
0.576079
0.57576
0.574972
0.573734
0.572104
0.570193
0.568167
0.56626
0.578618
0.579567
0.579942
0.579679
0.57874
0.577116
0.574854
0.572083
0.569033
0.566084
0.581084
0.582473
0.583146
0.583005
0.581969
0.579985
0.577067
0.573339
0.569081
0.564857
0.583731
0.585551
0.586529
0.58655
0.58548
0.58321
0.579694
0.57502
0.569479
0.563836
0.585229
0.587427
0.588694
0.58889
0.587839
0.585371
0.581367
0.575846
0.569069
0.561968
0.586834
0.589286
0.590747
0.591091
0.59009
0.58753
0.583215
0.577079
0.569279
0.560844
0.585063
0.587616
0.589241
0.589694
0.58875
0.586145
0.58164
0.57506
0.56655
0.557038
0.564739
0.564799
0.564791
0.564741
0.564656
0.564549
0.564448
0.564501
0.565367
0.569066
0.568588
0.568661
0.56864
0.568525
0.568324
0.56805
0.567727
0.567382
0.567047
0.566746
0.571062
0.571246
0.571246
0.571061
0.570699
0.57018
0.569541
0.56883
0.568109
0.567452
0.573519
0.573904
0.57399
0.573762
0.573219
0.572387
0.571313
0.570077
0.568789
0.567587
0.576095
0.576755
0.576992
0.576769
0.576069
0.574906
0.573333
0.571458
0.569444
0.567526
0.578084
0.579077
0.57952
0.579346
0.578514
0.577016
0.574895
0.572275
0.569376
0.56656
0.580416
0.58175
0.582413
0.582324
0.581405
0.579611
0.576962
0.573576
0.569711
0.565874
0.581619
0.58326
0.584141
0.584154
0.583192
0.581169
0.578062
0.573966
0.569155
0.564262
0.583187
0.585047
0.586081
0.586191
0.585226
0.58307
0.579648
0.575013
0.569399
0.563548
0.581375
0.583315
0.584479
0.584661
0.583713
0.581478
0.577853
0.572821
0.566642
0.560032
0.5656
0.565652
0.565653
0.56563
0.565586
0.565531
0.565484
0.565569
0.5664
0.570092
0.568768
0.568817
0.56881
0.568749
0.568636
0.568483
0.568301
0.568109
0.567924
0.567753
0.570428
0.570548
0.570552
0.570441
0.570221
0.569906
0.56952
0.569093
0.568661
0.568266
0.572289
0.572545
0.5726
0.572446
0.572087
0.571543
0.57085
0.570064
0.569252
0.568497
0.574246
0.574696
0.574847
0.574676
0.574178
0.573374
0.572309
0.571064
0.56975
0.56851
0.575782
0.576477
0.576765
0.576602
0.575971
0.574883
0.573387
0.571587
0.569642
0.567778
0.577796
0.578752
0.579194
0.579067
0.57833
0.576974
0.575043
0.572651
0.569998
0.567414
0.578657
0.579853
0.580453
0.580377
0.579566
0.577986
0.575662
0.572708
0.569356
0.566024
0.580185
0.581564
0.582277
0.582259
0.581414
0.579688
0.577078
0.573682
0.569723
0.565716
0.578299
0.579734
0.580548
0.580572
0.579717
0.577899
0.5751
0.571375
0.566993
0.562465
0.566357
0.566402
0.566407
0.566396
0.566373
0.566344
0.566322
0.566412
0.567171
0.570785
0.569064
0.569097
0.569097
0.569065
0.569003
0.568917
0.568816
0.568708
0.568607
0.568509
0.570077
0.570154
0.570159
0.570095
0.569965
0.569778
0.569548
0.569295
0.569038
0.568803
0.571509
0.571677
0.571713
0.571613
0.571383
0.571036
0.570599
0.570105
0.569599
0.569126
0.572922
0.573224
0.57332
0.573197
0.572857
0.572317
0.571614
0.570803
0.569956
0.569161
0.574058
0.574534
0.574719
0.574586
0.57413
0.573367
0.572341
0.57113
0.569844
0.568623
0.575779
0.57645
0.576739
0.576614
0.576054
0.575069
0.573704
0.572053
0.570263
0.56854
0.576274
0.577125
0.577524
0.577418
0.576776
0.575593
0.573912
0.571837
0.569547
0.567308
0.577786
0.578783
0.579264
0.579188
0.578498
0.577177
0.575256
0.572836
0.5701
0.567391
0.575799
0.576829
0.577384
0.577329
0.576615
0.575205
0.573123
0.570447
0.567409
0.564353
0.566988
0.567028
0.567033
0.567029
0.567016
0.567
0.56699
0.567069
0.567733
0.571208
0.569405
0.569426
0.569429
0.569412
0.569378
0.56933
0.569273
0.569213
0.569157
0.569099
0.569882
0.569931
0.569937
0.569901
0.569826
0.569717
0.569582
0.569434
0.569283
0.569143
0.571045
0.571154
0.571178
0.571116
0.570972
0.570756
0.570485
0.57018
0.569866
0.569573
0.571995
0.572193
0.572254
0.572171
0.571946
0.571594
0.571139
0.570621
0.570083
0.569578
0.5728
0.573119
0.573237
0.573138
0.57282
0.572302
0.571616
0.570819
0.569983
0.569194
0.574268
0.574727
0.574914
0.574809
0.574404
0.573712
0.572775
0.571662
0.570475
0.569341
0.574388
0.574977
0.575237
0.575133
0.57465
0.573798
0.57262
0.571201
0.569667
0.568186
0.575932
0.576636
0.576952
0.576861
0.576329
0.575359
0.573992
0.572313
0.57046
0.568653
0.573813
0.574531
0.5749
0.574816
0.574255
0.573207
0.571712
0.569845
0.567786
0.565756
0.567488
0.567523
0.567527
0.567525
0.567518
0.567509
0.567502
0.567565
0.568121
0.571393
0.569757
0.569771
0.569775
0.569766
0.569746
0.569719
0.569686
0.569652
0.569621
0.569585
0.569761
0.569791
0.569796
0.569776
0.569733
0.569671
0.569593
0.569507
0.56942
0.569338
0.570799
0.570868
0.570885
0.570848
0.57076
0.570629
0.570463
0.570277
0.570086
0.569904
0.57136
0.571487
0.571526
0.571472
0.571328
0.571103
0.570816
0.570491
0.570155
0.569839
0.571911
0.57212
0.572194
0.572124
0.571911
0.571569
0.571122
0.570609
0.570075
0.569572
0.573166
0.573473
0.573593
0.573512
0.573231
0.572761
0.572136
0.571404
0.570632
0.569896
0.572913
0.573309
0.573474
0.573386
0.573039
0.572447
0.571646
0.5707
0.569695
0.568733
0.574558
0.575043
0.575247
0.575162
0.574772
0.574087
0.573145
0.57201
0.570782
0.569594
0.572264
0.572747
0.572986
0.572902
0.572484
0.571735
0.570698
0.569432
0.568069
0.566745
0.567836
0.567866
0.567869
0.567869
0.567865
0.567859
0.567854
0.567899
0.568336
0.571332
0.570117
0.570127
0.570129
0.570124
0.570113
0.570096
0.570077
0.570057
0.57004
0.570015
0.569656
0.569674
0.569678
0.569667
0.569643
0.569607
0.569563
0.569514
0.569463
0.569416
0.5707
0.570743
0.570754
0.570733
0.570682
0.570604
0.570505
0.570394
0.570279
0.570167
0.570944
0.571023
0.571047
0.571013
0.570923
0.570784
0.570606
0.570405
0.570198
0.570003
0.571314
0.571447
0.571494
0.571446
0.571308
0.571089
0.570805
0.570481
0.570145
0.56983
0.572389
0.572588
0.572663
0.572607
0.572419
0.572111
0.571705
0.571236
0.570745
0.570275
0.571769
0.572028
0.572131
0.572063
0.571823
0.571425
0.570896
0.570281
0.569636
0.569028
0.573605
0.573931
0.57406
0.573992
0.573718
0.573252
0.572623
0.571876
0.571081
0.570309
0.571044
0.571358
0.57151
0.571438
0.57114
0.570626
0.56993
0.569095
0.568216
0.567369
0.567953
0.567979
0.567981
0.567982
0.567981
0.567978
0.567975
0.568004
0.568319
0.570947
0.570507
0.570513
0.570515
0.570512
0.570505
0.570495
0.570484
0.570472
0.570462
0.570445
0.569546
0.569556
0.569558
0.569551
0.569537
0.569516
0.56949
0.569462
0.569432
0.569404
0.570696
0.570724
0.570732
0.570721
0.570692
0.570647
0.57059
0.570526
0.570459
0.570392
0.570699
0.570747
0.570762
0.570741
0.570685
0.5706
0.570492
0.57037
0.570244
0.570125
0.570956
0.57104
0.571068
0.571038
0.57095
0.570813
0.570636
0.570435
0.570228
0.570033
0.571868
0.571994
0.572041
0.572003
0.571882
0.571686
0.571431
0.571139
0.570835
0.570541
0.57092
0.571084
0.571146
0.571096
0.570936
0.570675
0.570333
0.569942
0.569535
0.569161
0.573038
0.57325
0.57333
0.57328
0.573096
0.57279
0.572383
0.571904
0.571402
0.570902
0.569997
0.570195
0.570287
0.570233
0.570029
0.569688
0.569234
0.568697
0.568145
0.567615
0.56764
0.567659
0.567662
0.567663
0.567664
0.567663
0.567661
0.567677
0.56787
0.570011
0.570993
0.570999
0.571
0.570999
0.570996
0.570993
0.570988
0.570983
0.570978
0.570967
0.569461
0.569465
0.569465
0.569459
0.569449
0.569434
0.569416
0.569396
0.569375
0.569356
0.57075
0.570769
0.570775
0.57077
0.570755
0.570732
0.570701
0.570666
0.570629
0.570592
0.570596
0.570625
0.570634
0.570621
0.570587
0.570535
0.570469
0.570395
0.570318
0.570244
0.5708
0.570852
0.570869
0.57085
0.570796
0.570711
0.570602
0.570478
0.57035
0.57023
0.571559
0.571637
0.571665
0.571641
0.571565
0.571444
0.571288
0.57111
0.570928
0.570749
0.570407
0.57051
0.570547
0.570512
0.570407
0.570238
0.570019
0.569769
0.569508
0.56928
0.57288
0.573014
0.573063
0.573028
0.572909
0.572712
0.572456
0.572156
0.571848
0.57152
0.568867
0.568992
0.569047
0.569008
0.568873
0.568651
0.56836
0.568019
0.567677
0.567347
0.56661
0.566626
0.566625
0.566621
0.566613
0.566604
0.566592
0.566584
0.566656
0.56813
0.571724
0.571731
0.571733
0.571736
0.57174
0.571745
0.571751
0.571757
0.571762
0.571763
0.569504
0.569503
0.569501
0.569495
0.569484
0.56947
0.569452
0.569432
0.56941
0.569386
0.570818
0.570831
0.570837
0.570836
0.570829
0.570818
0.570803
0.570787
0.57077
0.570753
0.570602
0.57062
0.570625
0.570617
0.570596
0.570563
0.570521
0.570475
0.570426
0.570378
0.570795
0.570828
0.570839
0.570827
0.570793
0.570739
0.57067
0.570592
0.57051
0.570432
0.571418
0.571468
0.571486
0.57147
0.571422
0.571346
0.571248
0.57114
0.571032
0.570925
0.570364
0.570433
0.570456
0.570432
0.570362
0.57025
0.570103
0.569934
0.569752
0.569593
0.573238
0.573321
0.573352
0.573328
0.57325
0.573123
0.572961
0.572775
0.572594
0.572379
0.567344
0.567435
0.56747
0.567445
0.567354
0.567207
0.567014
0.566789
0.566564
0.566338
0.565005
0.565003
0.564992
0.564974
0.564947
0.564913
0.564869
0.564815
0.564756
0.565264
0.572755
0.572763
0.572769
0.572778
0.572791
0.572808
0.572831
0.572861
0.572896
0.572942
0.569738
0.569737
0.569733
0.569725
0.569714
0.569698
0.569679
0.569654
0.569625
0.569587
0.570848
0.570857
0.570862
0.570863
0.57086
0.570854
0.570847
0.570841
0.570836
0.570834
0.570654
0.570666
0.57067
0.570664
0.570649
0.570626
0.570597
0.570563
0.570528
0.570492
0.570852
0.570876
0.570884
0.570876
0.570852
0.570813
0.570764
0.570708
0.570649
0.570592
0.57137
0.571406
0.571419
0.571408
0.571373
0.571319
0.57125
0.571174
0.571101
0.571035
0.570775
0.570829
0.570847
0.57083
0.570778
0.570694
0.570584
0.570453
0.570305
0.570157
0.574087
0.574145
0.574168
0.574149
0.574092
0.574
0.573886
0.573762
0.573656
0.57355
0.565509
0.565602
0.565634
0.565617
0.56555
0.565439
0.565294
0.565123
0.564942
0.564734
0.357091
0.26272
0.259722
0.358553
0.350499
0.254569
0.250065
0.355711
0.341203
0.244807
0.239341
0.335242
0.32944
0.232121
0.223509
0.3006
0.31612
0.218476
0.206436
0.268818
0.303331
0.208458
0.197123
0.260115
0.292183
0.202203
0.192868
0.256259
0.279596
0.19444
0.186342
0.24719
0.266976
0.186877
0.179364
0.235871
0.254948
0.179996
0.170849
0.219269
0.39362
0.357086
0.350949
0.37479
0.397322
0.35543
0.347493
0.371296
0.396206
0.350002
0.337379
0.358151
0.392881
0.34218
0.3234
0.339069
0.388511
0.333745
0.309588
0.319798
0.379698
0.320814
0.291848
0.297134
0.370781
0.308847
0.276188
0.276431
0.361784
0.29813
0.263586
0.261954
0.353413
0.288566
0.252191
0.247846
0.345345
0.278351
0.238306
0.228623
0.471413
0.458112
0.453847
0.460189
0.47552
0.457959
0.452306
0.459828
0.473665
0.453502
0.4461
0.451585
0.468681
0.445675
0.435936
0.43888
0.462524
0.436768
0.424589
0.425407
0.454294
0.426192
0.412377
0.412279
0.446234
0.416093
0.400822
0.399447
0.437586
0.405763
0.389096
0.385771
0.429637
0.396844
0.378785
0.372843
0.422907
0.390274
0.369883
0.358901
0.505005
0.500445
0.498374
0.49876
0.510888
0.502865
0.499804
0.501503
0.510014
0.500354
0.49604
0.496693
0.505983
0.494395
0.488559
0.488088
0.500933
0.48743
0.480112
0.47863
0.493522
0.478147
0.469433
0.466863
0.485803
0.468647
0.458586
0.454826
0.477262
0.458514
0.447139
0.441891
0.468733
0.448976
0.436411
0.429235
0.459389
0.439986
0.426067
0.415139
0.526533
0.525565
0.524374
0.522919
0.533096
0.529169
0.527244
0.52729
0.532866
0.52795
0.525152
0.524433
0.529811
0.523634
0.519793
0.518206
0.525942
0.518463
0.513571
0.511108
0.519986
0.511178
0.505212
0.501793
0.513728
0.503612
0.496572
0.492133
0.506489
0.495126
0.486994
0.48138
0.499326
0.487096
0.477979
0.470834
0.491469
0.47945
0.469362
0.459087
0.539033
0.539691
0.539012
0.536965
0.546081
0.544001
0.542822
0.542537
0.546266
0.543569
0.541791
0.540947
0.543984
0.540461
0.537954
0.536461
0.541009
0.536604
0.533333
0.531156
0.536096
0.53075
0.526669
0.523753
0.530907
0.524615
0.519719
0.516033
0.524749
0.517544
0.511833
0.507304
0.518752
0.51092
0.504517
0.498899
0.511705
0.504019
0.497063
0.489244
0.546861
0.548322
0.54793
0.545675
0.554184
0.553033
0.55232
0.552038
0.554591
0.553036
0.551916
0.551249
0.552938
0.550839
0.549216
0.548083
0.550696
0.548002
0.545835
0.544197
0.54671
0.543372
0.540622
0.538434
0.542525
0.538535
0.535195
0.532442
0.537415
0.532798
0.528878
0.525531
0.532602
0.527565
0.523182
0.519095
0.526418
0.521411
0.516691
0.511174
0.551923
0.553812
0.553587
0.55124
0.559324
0.558668
0.558239
0.558031
0.559887
0.558959
0.558257
0.557793
0.558741
0.557446
0.556401
0.555615
0.557104
0.555405
0.55398
0.552833
0.553908
0.551771
0.549934
0.548393
0.550604
0.548022
0.545771
0.543829
0.546412
0.543411
0.540762
0.538413
0.54269
0.539416
0.53647
0.533648
0.53724
0.533943
0.530791
0.527097
0.555361
0.557497
0.557369
0.554966
0.562672
0.56229
0.562032
0.561894
0.563332
0.562771
0.562333
0.562025
0.562602
0.561791
0.561119
0.560592
0.561465
0.560376
0.55944
0.558662
0.558952
0.557562
0.556339
0.555282
0.556433
0.55474
0.553229
0.551891
0.553041
0.551069
0.54929
0.547676
0.550297
0.548146
0.546175
0.544271
0.545479
0.543289
0.541191
0.538775
0.557809
0.560097
0.560024
0.557579
0.564912
0.564685
0.56453
0.564444
0.56558
0.565238
0.564966
0.564766
0.565181
0.564669
0.564237
0.563891
0.564448
0.563744
0.56313
0.56261
0.562521
0.561608
0.560795
0.56008
0.560691
0.55957
0.558557
0.557648
0.557972
0.556665
0.55547
0.554375
0.556047
0.554619
0.5533
0.552032
0.551787
0.550324
0.548926
0.54736
0.559632
0.562019
0.561977
0.559498
0.566454
0.566318
0.566225
0.566173
0.567056
0.566847
0.566678
0.566551
0.566907
0.566582
0.566306
0.56608
0.566473
0.566016
0.565615
0.565271
0.565033
0.564432
0.563892
0.563414
0.563798
0.563053
0.562376
0.561764
0.561623
0.560753
0.559952
0.559214
0.560374
0.55942
0.558537
0.557697
0.556596
0.555615
0.554683
0.55367
0.561048
0.563495
0.563471
0.560969
0.567553
0.567469
0.567413
0.567384
0.568025
0.567897
0.567793
0.567713
0.568066
0.56786
0.567684
0.56754
0.567831
0.567535
0.567274
0.567048
0.566778
0.566383
0.566027
0.565709
0.566039
0.565544
0.565093
0.564684
0.564277
0.563698
0.563163
0.562668
0.563599
0.562959
0.562369
0.561816
0.560215
0.559557
0.558936
0.558282
0.562188
0.564665
0.564651
0.562143
0.568364
0.568311
0.568277
0.568262
0.568655
0.568578
0.568514
0.568465
0.568853
0.568723
0.568612
0.568521
0.568725
0.568535
0.568366
0.56822
0.567971
0.567713
0.567479
0.567271
0.567631
0.567304
0.567005
0.566736
0.566155
0.565772
0.565416
0.565087
0.565971
0.565543
0.565151
0.56479
0.56289
0.56245
0.562037
0.561616
0.563139
0.565611
0.565603
0.563113
0.568989
0.568955
0.568934
0.568928
0.569054
0.569007
0.568968
0.568938
0.569399
0.569317
0.569247
0.569191
0.5693
0.569179
0.569072
0.568979
0.568771
0.568604
0.568453
0.568318
0.568743
0.568528
0.568333
0.568158
0.567432
0.56718
0.566946
0.56673
0.567697
0.56741
0.567152
0.566921
0.564817
0.564525
0.564253
0.563985
0.563956
0.566377
0.566373
0.563941
0.569498
0.569475
0.569462
0.56946
0.569284
0.569256
0.569233
0.569215
0.569793
0.569741
0.569699
0.569665
0.569663
0.569587
0.569519
0.569462
0.569301
0.569194
0.569097
0.569012
0.569506
0.569366
0.56924
0.569129
0.568248
0.568085
0.567933
0.567793
0.568943
0.568752
0.568585
0.56844
0.566155
0.565962
0.565786
0.565617
0.564662
0.566975
0.566972
0.564654
0.569944
0.569928
0.56992
0.569921
0.569384
0.569367
0.569354
0.569344
0.570096
0.570063
0.570037
0.570017
0.569894
0.569846
0.569804
0.569769
0.569658
0.56959
0.56953
0.569477
0.570024
0.569934
0.569855
0.569785
0.568721
0.568618
0.568521
0.568431
0.569856
0.569727
0.569621
0.569536
0.567009
0.566884
0.566772
0.566667
0.565222
0.567341
0.56734
0.565218
0.570387
0.570375
0.57037
0.570371
0.569386
0.569376
0.569368
0.569363
0.570345
0.570325
0.570309
0.570298
0.570056
0.570026
0.570001
0.56998
0.569923
0.569881
0.569843
0.569812
0.570382
0.570326
0.570277
0.570234
0.568971
0.568906
0.568845
0.568789
0.570574
0.570485
0.570418
0.570373
0.567405
0.567325
0.567254
0.567191
0.565462
0.56727
0.567269
0.56546
0.570919
0.570911
0.570907
0.570909
0.569344
0.569337
0.569332
0.569331
0.570562
0.57055
0.57054
0.570534
0.570199
0.57018
0.570165
0.570154
0.570157
0.57013
0.570107
0.570089
0.570653
0.570618
0.570588
0.570562
0.569154
0.569112
0.569075
0.569042
0.571264
0.5712
0.571158
0.571139
0.567231
0.567181
0.567137
0.567099
0.565047
0.56637
0.56637
0.565046
0.571725
0.571721
0.571719
0.571718
0.569371
0.569363
0.56936
0.569363
0.570737
0.570731
0.570725
0.57072
0.570345
0.570332
0.570322
0.570317
0.57038
0.570362
0.570348
0.570338
0.570872
0.570851
0.570832
0.570815
0.569476
0.569442
0.569418
0.569404
0.572172
0.572121
0.572094
0.572092
0.566266
0.566234
0.566206
0.566182
0.563985
0.564559
0.564559
0.563985
0.572944
0.572958
0.572956
0.572939
0.569559
0.569546
0.569544
0.569554
0.570832
0.57083
0.570826
0.57082
0.570464
0.570454
0.570447
0.570445
0.57055
0.570535
0.570525
0.57052
0.571011
0.570998
0.570985
0.57097
0.569989
0.56995
0.569933
0.569937
0.573462
0.573429
0.57341
0.573404
0.564642
0.564612
0.564592
0.564581
0.524117
0.563271
0.578655
0.587926
0.595806
0.603399
0.610566
0.616991
0.622877
0.628383
0.517987
0.543625
0.563618
0.579153
0.592196
0.602829
0.612038
0.620235
0.627733
0.63471
0.501521
0.526618
0.555921
0.574147
0.589527
0.601872
0.612504
0.621884
0.630312
0.637883
0.476995
0.508783
0.542923
0.564234
0.581957
0.596155
0.608416
0.619249
0.628984
0.637628
0.453627
0.492478
0.530701
0.555387
0.57517
0.5911
0.604801
0.616884
0.627715
0.637199
0.424607
0.475817
0.518098
0.546172
0.567942
0.585526
0.600525
0.613727
0.625533
0.63578
0.395434
0.462304
0.50797
0.539338
0.56275
0.581752
0.597787
0.611857
0.624348
0.635048
0.365636
0.449964
0.498228
0.532873
0.557641
0.577919
0.594804
0.60957
0.622593
0.633711
0.336942
0.440822
0.490526
0.528316
0.554216
0.575756
0.593367
0.608664
0.621934
0.633281
0.301921
0.430433
0.479464
0.519866
0.546941
0.569699
0.588176
0.604243
0.618045
0.629797
0.457761
0.502901
0.53073
0.550916
0.565971
0.577506
0.586635
0.594002
0.599977
0.604808
0.454002
0.501377
0.53334
0.55589
0.572392
0.584963
0.595077
0.603504
0.610685
0.616877
0.448689
0.499142
0.534607
0.557786
0.574945
0.588268
0.599237
0.608554
0.616608
0.623569
0.437479
0.490735
0.528394
0.552613
0.571092
0.585695
0.597942
0.608507
0.617778
0.625823
0.425189
0.480625
0.520551
0.546597
0.566627
0.582626
0.596129
0.607839
0.618175
0.627103
0.408114
0.467818
0.510737
0.539193
0.560941
0.5784
0.593113
0.605896
0.617209
0.626949
0.389355
0.456286
0.502261
0.5334
0.556702
0.57548
0.591202
0.604837
0.616864
0.62713
0.366375
0.44532
0.49372
0.527689
0.552296
0.572257
0.588796
0.603106
0.61568
0.626408
0.342941
0.437234
0.486725
0.523513
0.549146
0.570229
0.587446
0.602266
0.615105
0.626133
0.315328
0.428604
0.476501
0.515663
0.542304
0.564499
0.582502
0.598032
0.611371
0.622862
0.491062
0.511586
0.528013
0.541953
0.553741
0.563559
0.571645
0.578206
0.583402
0.587344
0.484239
0.509772
0.530855
0.548009
0.561968
0.573339
0.582687
0.590421
0.596814
0.602075
0.47885
0.5077
0.532029
0.550891
0.566059
0.578382
0.588624
0.597264
0.604595
0.610781
0.468951
0.500285
0.52717
0.547644
0.564198
0.577753
0.589193
0.599021
0.607543
0.614839
0.458429
0.491288
0.520782
0.543095
0.561162
0.57604
0.588687
0.599631
0.609223
0.617456
0.44363
0.47978
0.5122
0.536751
0.55649
0.572777
0.586621
0.598637
0.60923
0.618333
0.427382
0.469056
0.504478
0.531516
0.552836
0.570436
0.585316
0.598208
0.609563
0.619272
0.408374
0.458776
0.49662
0.526268
0.548931
0.567694
0.583404
0.596982
0.608912
0.61913
0.388893
0.451382
0.490295
0.522601
0.546296
0.566095
0.582443
0.5965
0.608697
0.619234
0.366672
0.444076
0.481388
0.515855
0.540354
0.561052
0.578021
0.592643
0.605231
0.616153
0.516551
0.524109
0.532767
0.541653
0.549901
0.557142
0.563283
0.568333
0.572298
0.575189
0.50931
0.522171
0.535262
0.547271
0.557814
0.56685
0.574497
0.580888
0.586117
0.590295
0.504675
0.520002
0.53582
0.549817
0.561887
0.572174
0.580939
0.588391
0.594672
0.599882
0.495941
0.513277
0.531467
0.547284
0.560909
0.572564
0.582606
0.591286
0.598772
0.605112
0.48625
0.505221
0.525749
0.543456
0.558679
0.571724
0.583016
0.592843
0.601425
0.608743
0.473462
0.494779
0.51785
0.537732
0.554669
0.569161
0.581692
0.592626
0.602243
0.610479
0.459767
0.484791
0.510529
0.532803
0.551399
0.567259
0.580886
0.592744
0.603175
0.612084
0.443833
0.474987
0.503014
0.527788
0.547821
0.564881
0.579384
0.591963
0.603011
0.612473
0.427431
0.467729
0.496917
0.524283
0.545429
0.563515
0.578672
0.591742
0.60309
0.61289
0.409276
0.460499
0.48865
0.518057
0.539968
0.55887
0.574581
0.588151
0.599859
0.610034
0.53619
0.537314
0.541013
0.545885
0.550889
0.555552
0.559666
0.56313
0.565864
0.567819
0.529716
0.535664
0.542914
0.550384
0.5575
0.563968
0.569656
0.574509
0.578492
0.581632
0.52618
0.533472
0.542698
0.552026
0.560782
0.568686
0.575658
0.58169
0.586789
0.590985
0.518999
0.527435
0.538527
0.549649
0.560038
0.569413
0.577739
0.585043
0.591353
0.596668
0.510777
0.520252
0.533219
0.546165
0.558185
0.569008
0.578636
0.587128
0.594555
0.600867
0.499879
0.51085
0.525861
0.540834
0.554564
0.566866
0.577778
0.587416
0.595908
0.60317
0.488303
0.50171
0.51891
0.536101
0.551514
0.565229
0.577295
0.587908
0.597263
0.605251
0.475067
0.492556
0.511733
0.531234
0.548135
0.563082
0.576077
0.587457
0.597474