/*--------------------------------*- C++ -*----------------------------------*\
| =========                 |                                                 |
| \\      /  F ield         | foam-extend: Open Source CFD                    |
|  \\    /   O peration     | Version:     4.0                                |
|   \\  /    A nd           | Web:         http://www.foam-extend.org         |
|    \\/     M anipulation  |                                                 |
\*---------------------------------------------------------------------------*/
FoamFile
{
    version     2.0;
    format      ascii;
    class       surfaceScalarField;
    location    "1600";
    object      phi;
}
// * * * * * * * * * * * * * * * * * * * * * * * * * * * * * * * * * * * * * //

dimensions      [1 0 -1 0 0 0 0];

internalField   nonuniform List<scalar> 
97302
(
-0.000109139
5.32504e-06
-0.000614474
0.000631273
-0.000133877
5.79143e-06
-0.000618069
0.000637016
-0.00016248
6.21504e-06
-0.000620886
0.000643274
-0.000196784
6.62969e-06
-0.000622924
0.0006506
-0.000239316
7.05411e-06
-0.000624037
0.000659514
-0.000293148
7.47194e-06
-0.000623489
0.000669849
-0.000361031
7.79055e-06
-0.000619226
0.000679318
-0.000442243
7.78508e-06
-0.000606595
0.000680023
-0.000532782
7.05619e-06
-0.000574915
0.000658397
4.58461e-06
-0.000490875
-0.000669087
0.000622596
-0.000137824
7.90471e-06
-0.000859385
0.000874863
-0.000158069
8.79935e-06
-0.000865169
0.000882406
-0.000181342
9.46875e-06
-0.000869931
0.00088995
-0.000209419
9.97777e-06
-0.000873506
0.000898235
-0.000245324
1.03705e-05
-0.000876184
0.000908773
-0.000293459
1.06479e-05
-0.000877813
0.000922772
-0.000359331
1.07216e-05
-0.000876563
0.000939504
-0.000446077
1.03216e-05
-0.000867154
0.000951364
-0.000549321
8.8441e-06
-0.000836235
0.000937691
4.5927e-06
-0.000726079
-0.000721674
0.000898424
-0.000168251
8.42355e-06
-0.0011031
0.00111771
-0.000185256
9.68043e-06
-0.00111109
0.00112722
-0.000204916
1.06043e-05
-0.00111806
0.00113659
-0.000228846
1.12694e-05
-0.00112388
0.00114652
-0.000260171
1.17201e-05
-0.00112882
0.0011588
-0.000304097
1.19728e-05
-0.00113338
0.00117598
-0.000367912
1.19507e-05
-0.00113646
0.00119905
-0.000457806
1.13501e-05
-0.00113248
0.00122135
-0.000569406
9.36824e-06
-0.00110593
0.00121701
3.58467e-06
-0.000974605
-0.000767485
0.00117369
-0.000199687
8.51033e-06
-0.00134331
0.00135723
-0.000215506
9.98945e-06
-0.00135482
0.00137033
-0.000233854
1.10724e-05
-0.00136533
0.00138321
-0.000256136
1.18288e-05
-0.00137468
0.00139641
-0.000285282
1.22802e-05
-0.00138284
0.00141142
-0.000326733
1.24351e-05
-0.00139053
0.00143151
-0.000388978
1.22218e-05
-0.00139742
0.00145939
-0.000480662
1.13189e-05
-0.00139865
0.00149036
-0.000597506
8.69342e-06
-0.00137749
0.00149501
1.10079e-06
-0.00122719
-0.00081145
0.00144362
-0.000233306
8.42846e-06
-0.00158358
0.00159703
-0.000248471
9.96326e-06
-0.00159904
0.00161423
-0.000266107
1.10617e-05
-0.00161355
0.0016312
-0.00028745
1.17925e-05
-0.00162688
0.00164825
-0.000315231
1.21628e-05
-0.00163874
0.00166664
-0.000354929
1.21613e-05
-0.00164981
0.00168978
-0.000415879
1.1714e-05
-0.00166039
0.00172185
-0.000508747
1.04906e-05
-0.00166673
0.00176042
-0.000629391
7.18316e-06
-0.0016514
0.00177355
-2.38001e-06
-0.00148221
-0.000852928
0.00170923
-0.000269447
8.22041e-06
-0.0018223
0.00183537
-0.000284103
9.6514e-06
-0.00184188
0.00185685
-0.000301179
1.06304e-05
-0.0018604
0.0018779
-0.000321801
1.12288e-05
-0.00187769
0.00189887
-0.000348543
1.14447e-05
-0.00189333
0.00192079
-0.000386844
1.12557e-05
-0.00190782
0.00194702
-0.000446675
1.06002e-05
-0.00192188
0.00198283
-0.000540558
9.18669e-06
-0.00193291
0.0020281
-0.000665122
5.47684e-06
-0.00192286
0.00204913
-5.68618e-06
-0.00173173
-0.000898879
0.00196879
-0.000307465
7.99591e-06
-0.00206016
0.00207285
-0.000321661
9.12765e-06
-0.00208351
0.00209823
-0.000338192
9.84771e-06
-0.00210565
0.00212296
-0.000358089
1.02004e-05
-0.00212645
0.00214738
-0.000383755
1.01746e-05
-0.00214555
0.00217249
-0.000420498
9.75201e-06
-0.00216322
0.00220147
-0.000478721
8.93836e-06
-0.0021807
0.00224058
-0.000572641
7.57201e-06
-0.00219664
0.00229218
-0.000700014
4.01399e-06
-0.00219272
0.00232155
-7.88484e-06
-0.00197968
-0.000942642
0.00222451
-0.000348493
7.2219e-06
-0.00229821
0.00231083
-0.000362043
7.88853e-06
-0.00232493
0.00233972
-0.000377883
8.29187e-06
-0.00235004
0.00236744
-0.00039696
8.40229e-06
-0.00237378
0.00239466
-0.000421451
8.17799e-06
-0.00239573
0.00242222
-0.000456364
7.59103e-06
-0.00241605
0.00245313
-0.000512214
6.75163e-06
-0.00243639
0.00249443
-0.000604736
5.7255e-06
-0.00245714
0.00255151
-0.000733251
3.1154e-06
-0.00246085
0.00259027
-8.13585e-06
-0.0022285
-0.000982695
0.0024782
-0.000390294
5.05375e-06
-0.00253314
0.00254587
-0.000402763
5.04378e-06
-0.00256236
0.00257768
-0.000417691
4.98411e-06
-0.00258984
0.00260808
-0.000436135
4.76897e-06
-0.00261647
0.00263855
-0.000460046
4.3634e-06
-0.00264205
0.00266978
-0.000493747
3.72178e-06
-0.00266631
0.00270388
-0.000547136
3.03573e-06
-0.0026903
0.0027474
-0.000636969
2.60061e-06
-0.00271581
0.00280876
-0.000764457
1.65773e-06
-0.0027279
0.00285685
-7.25333e-06
-0.00248083
-0.00101447
0.00272995
-0.000432679
-0.00275311
0.00276672
-0.000443553
-0.00278498
0.0028009
-0.000456984
-0.00281503
0.00283344
-0.00047415
-0.00284413
0.00286607
-0.000496959
-0.00287196
0.00289913
-0.000529303
-0.0028985
0.00293457
-0.000579923
-0.00292516
0.00297882
-0.000665283
-0.00295605
0.00304402
-0.000788291
-0.00298212
0.00310678
-0.00273899
-0.00103716
0.0029806
1.23626e-05
5.37853e-06
-0.000599342
-1.00703e-05
5.84349e-06
-0.00060148
-3.4851e-05
6.23225e-06
-0.000602338
-6.26029e-05
6.55193e-06
-0.000601725
-9.42397e-05
6.7978e-06
-0.000599198
-0.000130646
6.9373e-06
-0.00059402
-0.000171709
6.89752e-06
-0.000585061
-0.000214152
6.53309e-06
-0.000570685
-0.000247582
5.58442e-06
-0.000547068
3.53191e-06
-0.000504936
-0.000237053
2.2607e-05
7.96364e-06
-0.000844048
2.66735e-06
8.91727e-06
-0.000848303
-1.95818e-05
9.62656e-06
-0.000851076
-4.47135e-05
1.01217e-05
-0.000851944
-7.40384e-05
1.04083e-05
-0.00085047
-0.000109663
1.04606e-05
-0.000845711
-0.000153715
1.0209e-05
-0.000835822
-0.000206096
9.4712e-06
-0.000817712
-0.000259339
7.89139e-06
-0.000785298
4.6313e-06
-0.000720658
-0.000265859
3.22223e-05
8.47429e-06
-0.00108774
1.44397e-05
9.87202e-06
-0.00109427
-5.70732e-06
1.09192e-05
-0.00109921
-2.89463e-05
1.16611e-05
-0.00110218
-5.66928e-05
1.20942e-05
-0.00110276
-9.17443e-05
1.21933e-05
-0.00110006
-0.000138086
1.18887e-05
-0.0010918
-0.000198759
1.09604e-05
-0.0010733
-0.000270143
8.91178e-06
-0.00103557
4.48978e-06
-0.000947611
-0.000296995
4.15406e-05
8.41595e-06
-0.00132807
2.43601e-05
1.01442e-05
-0.00133791
4.66272e-06
1.14598e-05
-0.00134618
-1.83246e-05
1.24068e-05
-0.00135244
-4.6013e-05
1.2962e-05
-0.00135602
-8.13909e-05
1.30773e-05
-0.00135603
-0.000129668
1.26698e-05
-0.00134992
-0.000197019
1.1501e-05
-0.00133184
-0.000284486
8.927e-06
-0.00129004
3.2091e-06
-0.00117818
-0.000332222
4.89858e-05
8.12804e-06
-0.00156839
3.19935e-05
1.00425e-05
-0.00158195
1.23855e-05
1.15035e-05
-0.00159399
-1.06535e-05
1.25551e-05
-0.00160399
-3.85421e-05
1.31677e-05
-0.00161106
-7.43156e-05
1.32637e-05
-0.00161422
-0.000124038
1.27371e-05
-0.00161073
-0.000196761
1.13408e-05
-0.00159384
-0.0002983
8.26406e-06
-0.00154919
1.20757e-06
-0.00141309
-0.000365415
5.41914e-05
7.65465e-06
-0.00180709
3.7322e-05
9.60881e-06
-0.00182458
1.77849e-05
1.10948e-05
-0.00184045
-5.27648e-06
1.21615e-05
-0.00185423
-3.3292e-05
1.27764e-05
-0.00186493
-6.93261e-05
1.28455e-05
-0.00187136
-0.00012006
1.22481e-05
-0.00187066
-0.000197016
1.07541e-05
-0.00185537
-0.000310458
7.41309e-06
-0.00180856
-7.12371e-07
-0.00164725
-0.000393015
5.71401e-05
7.06364e-06
-0.00204496
4.04428e-05
8.8646e-06
-0.00206607
2.11054e-05
1.02446e-05
-0.00208546
-1.75414e-06
1.12337e-05
-0.00210267
-2.95672e-05
1.17951e-05
-0.00211676
-6.53937e-05
1.18262e-05
-0.00212638
-0.000116382
1.12233e-05
-0.00212868
-0.000196288
9.83603e-06
-0.00211582
-0.000319809
6.67197e-06
-0.00206845
-2.09332e-06
-0.00188262
-0.000415494
5.75418e-05
5.88955e-06
-0.00228282
4.13287e-05
7.33723e-06
-0.00230719
2.25255e-05
8.52475e-06
-0.00232952
2.29651e-07
9.42391e-06
-0.00234968
-2.69503e-05
9.98354e-06
-0.00236674
-6.19994e-05
1.00779e-05
-0.00237925
-0.000112325
9.64806e-06
-0.00238449
-0.000193671
8.66489e-06
-0.00237463
-0.000325686
6.38297e-06
-0.00232855
-2.25976e-06
-0.00212015
-0.000433875
5.59001e-05
3.40886e-06
-0.00251742
4.07384e-05
4.2384e-06
-0.0025441
2.29937e-05
5.03427e-06
-0.00256861
1.58216e-06
5.68005e-06
-0.00259132
-2.49936e-05
6.17112e-06
-0.00261166
-5.95388e-05
6.3708e-06
-0.00262806
-0.000109095
6.27703e-06
-0.00263737
-0.000190733
5.97798e-06
-0.00263148
-0.000329918
5.36552e-06
-0.0025877
-1.42254e-06
-0.00235842
-0.000453157
5.31945e-05
-0.00273784
3.93159e-05
-0.00276687
2.30214e-05
-0.0027937
3.15007e-06
-0.00281858
-2.18535e-05
-0.00284079
-5.49573e-05
-0.00285903
-0.000102673
-0.00287117
-0.000182624
-0.00287013
-0.000327083
-0.00283229
-0.00258982
-0.00047767
6.86124e-06
5.29258e-06
-0.000587257
-1.18946e-05
5.70213e-06
-0.000588426
-3.19622e-05
6.00363e-06
-0.000588274
-5.32315e-05
6.19897e-06
-0.000586654
-7.54136e-05
6.26798e-06
-0.000583284
-9.77999e-05
6.16478e-06
-0.000577798
-0.000118873
5.81875e-06
-0.000569807
-0.000135701
5.13693e-06
-0.000558994
-0.000141892
4.00794e-06
-0.000544885
2.34247e-06
-0.000526289
-0.000122882
1.61898e-05
7.98689e-06
-0.000830309
-2.04533e-06
8.86545e-06
-0.000833232
-2.21034e-05
9.48103e-06
-0.000834496
-4.39542e-05
9.84974e-06
-0.000833744
-6.7656e-05
9.95313e-06
-0.000830453
-9.31074e-05
9.73127e-06
-0.000823827
-0.00011945
9.09339e-06
-0.000812754
-0.000144103
7.90735e-06
-0.000795829
-0.000160301
6.0088e-06
-0.000771102
3.25033e-06
-0.000736495
-0.000145372
2.57669e-05
8.71254e-06
-0.00107309
8.48565e-06
1.00404e-05
-0.00107816
-1.09144e-05
1.10021e-05
-0.00108133
-3.27195e-05
1.16236e-05
-0.00108215
-5.73629e-05
1.18764e-05
-0.00108004
-8.54668e-05
1.16885e-05
-0.00107391
-0.000117206
1.09394e-05
-0.00106191
-0.000150827
9.42905e-06
-0.0010412
-0.000179624
6.86311e-06
-0.00100762
2.91317e-06
-0.000954559
-0.000172339
3.5238e-05
8.76305e-06
-0.00131306
1.80878e-05
1.04449e-05
-0.00132117
-1.51942e-06
1.16976e-05
-0.00132726
-2.40665e-05
1.25511e-05
-0.00133082
-5.01873e-05
1.29496e-05
-0.00133097
-8.09747e-05
1.27966e-05
-0.00132635
-0.000117564
1.19329e-05
-0.00131433
-0.000159566
1.00932e-05
-0.0012905
-0.000201462
6.83102e-06
-0.00124811
1.58976e-06
-0.00117376
-0.00020456
4.31637e-05
8.52829e-06
-0.00155316
2.59418e-05
1.04299e-05
-0.00156471
6.02638e-06
1.18633e-05
-0.00157424
-1.7183e-05
1.28605e-05
-0.00158109
-4.45412e-05
1.33534e-05
-0.0015841
-7.74851e-05
1.32154e-05
-0.0015817
-0.000118059
1.22458e-05
-0.00157047
-0.000167536
1.01148e-05
-0.00154439
-0.000222316
6.18373e-06
-0.00149377
-4.17061e-07
-0.00139629
-0.000237114
4.90165e-05
8.04618e-06
-0.00179168
3.17662e-05
1.00225e-05
-0.00180692
1.16815e-05
1.15199e-05
-0.00182002
-1.19393e-05
1.2576e-05
-0.00183033
-4.01503e-05
1.31191e-05
-0.00183648
-7.46847e-05
1.30035e-05
-0.00183662
-0.00011844
1.20002e-05
-0.00182666
-0.000174507
9.73698e-06
-0.00179892
-0.000241746
5.37901e-06
-0.00174052
-2.36288e-06
-0.00161832
-0.000268729
5.26741e-05
7.36164e-06
-0.00202941
3.55305e-05
9.21259e-06
-0.00204812
1.55258e-05
1.06387e-05
-0.00206457
-8.12118e-06
1.16649e-05
-0.00207811
-3.66279e-05
1.22217e-05
-0.00208735
-7.19831e-05
1.21491e-05
-0.00209017
-0.000117889
1.12156e-05
-0.00208199
-0.000179381
9.05781e-06
-0.00205365
-0.000258307
4.70219e-06
-0.00198885
-3.87176e-06
-0.00184171
-0.000297708
5.37195e-05
6.05374e-06
-0.00226702
3.70539e-05
7.5524e-06
-0.00228886
1.75701e-05
8.78398e-06
-0.00230818
-5.59354e-06
9.72995e-06
-0.00232458
-3.37576e-05
1.03289e-05
-0.00233668
-6.90982e-05
1.04088e-05
-0.00234217
-0.000116004
9.77483e-06
-0.00233614
-0.000181461
8.11606e-06
-0.00230823
-0.000271039
4.54581e-06
-0.00223881
-4.24961e-06
-0.00206757
-0.000323241
5.24222e-05
3.55041e-06
-0.00250127
3.67787e-05
4.40276e-06
-0.00252531
1.84026e-05
5.21685e-06
-0.00254667
-3.75866e-06
5.87785e-06
-0.00256531
-3.12874e-05
6.39945e-06
-0.00258021
-6.65168e-05
6.63164e-06
-0.00258905
-0.000114034
6.47709e-06
-0.00258656
-0.000182186
5.71783e-06
-0.00256093
-0.000280794
3.90835e-06
-0.00248846
-3.26747e-06
-0.00229315
-0.000347053
5.00564e-05
-0.00272181
3.55816e-05
-0.00274799
1.86112e-05
-0.00277151
-1.98879e-06
-0.0027921
-2.77916e-05
-0.00280858
-6.14122e-05
-0.00281878
-0.000107754
-0.00281835
-0.000176257
-0.00279591
-0.000280713
-0.00272393
-0.00250853
-0.000365275
3.97307e-06
4.93237e-06
-0.000578806
-1.02723e-05
5.27119e-06
-0.000579452
-2.50312e-05
5.47932e-06
-0.000578995
-3.98848e-05
5.55975e-06
-0.000577361
-5.42218e-05
5.49393e-06
-0.000574441
-6.71341e-05
5.24787e-06
-0.000570134
-7.72737e-05
4.77951e-06
-0.000564447
-8.26487e-05
4.04502e-06
-0.000557664
-8.01103e-05
3.01347e-06
-0.000550437
1.74529e-06
-0.000542903
-6.52417e-05
1.13864e-05
7.66567e-06
-0.000819054
-4.02569e-06
8.44068e-06
-0.000820989
-2.06202e-05
8.93405e-06
-0.000821356
-3.80367e-05
9.15883e-06
-0.000819927
-5.57337e-05
9.09213e-06
-0.000816355
-7.2784e-05
8.67641e-06
-0.000810205
-8.75892e-05
7.84035e-06
-0.00080101
-9.74629e-05
6.51669e-06
-0.000788427
-9.78177e-05
4.67855e-06
-0.000772412
2.4709e-06
-0.000753919
-8.11198e-05
2.00696e-05
8.65644e-06
-0.00105999
4.26079e-06
9.87021e-06
-0.00106378
-1.32104e-05
1.07001e-05
-0.00106563
-3.22228e-05
1.11575e-05
-0.00106514
-5.25586e-05
1.1207e-05
-0.00106182
-7.36725e-05
1.07664e-05
-0.00105489
-9.41606e-05
9.72201e-06
-0.0010433
-0.000110923
7.93757e-06
-0.00102586
-0.000117642
5.29634e-06
-0.00100152
1.92719e-06
-0.000970607
-0.00010105
2.9099e-05
8.88798e-06
-0.00129896
1.27485e-05
1.04717e-05
-0.00130542
-5.74803e-06
1.16045e-05
-0.00130967
-2.65237e-05
1.23026e-05
-0.00131119
-4.95895e-05
1.24942e-05
-0.00130919
-7.47651e-05
1.20649e-05
-0.00130248
-0.000101011
1.08473e-05
-0.00128921
-0.000125242
8.62194e-06
-0.00126695
-0.000140081
5.14437e-06
-0.00123312
5.05912e-07
-0.00118634
-0.000126081
3.70803e-05
8.76819e-06
-0.00153845
2.0241e-05
1.06011e-05
-0.001548
8.75202e-07
1.19438e-05
-0.00155521
-2.13273e-05
1.28168e-05
-0.0015594
-4.66295e-05
1.31224e-05
-0.00155943
-7.52442e-05
1.27112e-05
-0.00155373
-0.000106656
1.13553e-05
-0.00153957
-0.0001382
8.74104e-06
-0.00151296
-0.000162108
4.44428e-06
-0.00146916
-1.552e-06
-0.00140381
-0.000152533
4.3287e-05
8.32836e-06
-0.00177648
2.61455e-05
1.02702e-05
-0.00178945
6.2235e-06
1.17139e-05
-0.00179987
-1.69467e-05
1.26863e-05
-0.00180702
-4.39085e-05
1.30793e-05
-0.00180948
-7.52487e-05
1.27171e-05
-0.00180528
-0.00011109
1.13217e-05
-0.00179079
-0.000149528
8.49311e-06
-0.00176024
-0.000183042
3.59804e-06
-0.00170616
-3.58638e-06
-0.0016199
-0.00017943
4.74733e-05
7.603e-06
-0.00201387
3.02727e-05
9.44815e-06
-0.00203009
1.01836e-05
1.08522e-05
-0.00204362
-1.3398e-05
1.18354e-05
-0.00205368
-4.12863e-05
1.22941e-05
-0.00205868
-7.44413e-05
1.20315e-05
-0.00205633
-0.000113716
1.07421e-05
-0.00204214
-0.000158303
7.96979e-06
-0.00200853
-0.000201629
2.88069e-06
-0.00194481
-5.2678e-06
-0.0018364
-0.000205259
4.90967e-05
6.2065e-06
-0.0022511
3.22878e-05
7.71187e-06
-0.00227031
1.25943e-05
8.92612e-06
-0.00228656
-1.07236e-05
9.83728e-06
-0.00229926
-3.87035e-05
1.03641e-05
-0.00230677
-7.26505e-05
1.03085e-05
-0.0023065
-0.000114183
9.39383e-06
-0.00229326
-0.00016388
7.15498e-06
-0.00225771
-0.000217006
2.71441e-06
-0.00218552
-5.81042e-06
-0.0020546
-0.000229434
4.83638e-05
3.67583e-06
-0.00248492
3.24973e-05
4.53484e-06
-0.00250627
1.38596e-05
5.33784e-06
-0.00252444
-8.46143e-06
5.9667e-06
-0.00253911
-3.58567e-05
6.42943e-06
-0.00254888
-7.00291e-05
6.56965e-06
-0.00255114
-0.000113198
6.24383e-06
-0.00254024
-0.00016715
5.07605e-06
-0.0025049
-0.000229455
2.44371e-06
-0.00242588
-4.60635e-06
-0.00227166
-0.000252148
4.6476e-05
-0.00270533
3.16822e-05
-0.00272866
1.43778e-05
-0.00274887
-6.43843e-06
-0.00276532
-3.21348e-05
-0.00277646
-6.46903e-05
-0.00277965
-0.00010712
-0.00276968
-0.0001629
-0.00273505
-0.000231895
-0.00265249
-0.00247676
-0.000268268
2.52363e-06
4.39406e-06
-0.000573591
-7.60159e-06
4.66311e-06
-0.00057399
-1.78293e-05
4.79602e-06
-0.000573563
-2.76955e-05
4.79793e-06
-0.000572292
-3.66309e-05
4.65911e-06
-0.000570165
-4.39345e-05
4.36312e-06
-0.000567193
-4.87729e-05
3.89531e-06
-0.000563504
-5.01871e-05
3.24624e-06
-0.000559496
-4.69637e-05
2.41917e-06
-0.000556079
1.47623e-06
-0.000553904
-3.74389e-05
7.98112e-06
7.0719e-06
-0.000810556
-4.24733e-06
7.73121e-06
-0.000811829
-1.71281e-05
8.10398e-06
-0.000811783
-3.01629e-05
8.20474e-06
-0.000810299
-4.26657e-05
8.01788e-06
-0.000807211
-5.36577e-05
7.50607e-06
-0.000802356
-6.17774e-05
6.63367e-06
-0.000795629
-6.52472e-05
5.38915e-06
-0.0007871
-6.18762e-05
3.82178e-06
-0.000777186
2.13089e-06
-0.000766936
-4.95132e-05
1.53923e-05
8.305e-06
-0.00104896
1.68856e-06
9.37662e-06
-0.00105172
-1.3187e-05
1.00568e-05
-0.0010527
-2.88397e-05
1.03497e-05
-0.00105163
-4.46977e-05
1.02235e-05
-0.00104817
-5.98073e-05
9.60929e-06
-0.00104188
-7.25628e-05
8.43127e-06
-0.00103234
-8.0396e-05
6.63261e-06
-0.00101927
-7.94516e-05
4.22628e-06
-0.00100287
1.48027e-06
-0.000984651
-6.47573e-05
2.35687e-05
8.74574e-06
-0.00128634
8.66805e-06
1.01927e-05
-0.00129133
-7.96112e-06
1.11745e-05
-0.00129416
-2.61246e-05
1.16941e-05
-0.00129437
-4.53935e-05
1.16797e-05
-0.00129138
-6.49276e-05
1.10227e-05
-0.00128435
-8.30098e-05
9.59067e-06
-0.00127228
-9.64169e-05
7.25437e-06
-0.00125417
-9.96646e-05
3.947e-06
-0.00122959
1.19388e-08
-0.00120035
-8.41856e-05
3.12311e-05
8.78017e-06
-0.00152474
1.5365e-05
1.04992e-05
-0.00153244
-2.69078e-06
1.17093e-05
-0.00153769
-2.29466e-05
1.24173e-05
-0.00153986
-4.51678e-05
1.25134e-05
-0.00153804
-6.87519e-05
1.18466e-05
-0.00153097
-9.20736e-05
1.02142e-05
-0.00151687
-0.000111519
7.38932e-06
-0.00149365
-0.000120185
3.16612e-06
-0.00145971
-2.0876e-06
-0.00141665
-0.00010524
3.74963e-05
8.42479e-06
-0.00176196
2.09904e-05
1.0285e-05
-0.00177273
1.93438e-06
1.16262e-05
-0.00178073
-1.98607e-05
1.24636e-05
-0.00178528
-4.44152e-05
1.26647e-05
-0.00178507
-7.14395e-05
1.20448e-05
-0.00177846
-9.95884e-05
1.03329e-05
-0.00176276
-0.000125168
7.19674e-06
-0.00173446
-0.000140233
2.24557e-06
-0.00169018
-4.19978e-06
-0.00163068
-0.000127335
4.20035e-05
7.70651e-06
-0.00199874
2.52012e-05
9.50235e-06
-0.00201251
5.65443e-06
1.0835e-05
-0.00202328
-1.70023e-05
1.17175e-05
-0.00203027
-4.3091e-05
1.20188e-05
-0.00203194
-7.26827e-05
1.15264e-05
-0.00202622
-0.000104898
9.91748e-06
-0.00200951
-0.00013632
6.76094e-06
-0.00197668
-0.000158475
1.45228e-06
-0.00192186
-6.00142e-06
-0.00184409
-0.000148982
4.40892e-05
6.25984e-06
-0.00223539
2.75217e-05
7.74243e-06
-0.00225199
8.15633e-06
8.90285e-06
-0.00226526
-1.45522e-05
9.73177e-06
-0.00227457
-4.12155e-05
1.01244e-05
-0.00227822
-7.22964e-05
9.87122e-06
-0.00227377
-0.000107535
8.6618e-06
-0.00225677
-0.00014418
6.00462e-06
-0.00222031
-0.000173996
1.18982e-06
-0.00215544
-6.67681e-06
-0.00205824
-0.000169678
4.39355e-05
3.73289e-06
-0.0024687
2.81748e-05
4.58629e-06
-0.00248735
9.72003e-06
5.36185e-06
-0.00250244
-1.21317e-05
5.93706e-06
-0.00251347
-3.83768e-05
6.30556e-06
-0.00251881
-6.99901e-05
6.3046e-06
-0.00251596
-0.000107453
5.75956e-06
-0.00249987
-0.000148844
4.24821e-06
-0.00246175
-0.000186571
1.20443e-06
-0.00238817
-5.30279e-06
-0.00227035
-0.000189258
4.25065e-05
-0.00268878
2.7708e-05
-0.00270927
1.04662e-05
-0.00272627
-1.0035e-05
-0.00273888
-3.48061e-05
-0.00274538
-6.50865e-05
-0.00274307
-0.00010214
-0.00272686
-0.000145718
-0.00268722
-0.000189485
-0.00260752
-0.00246976
-0.000201794
1.82814e-06
3.77286e-06
-0.000570838
-5.01095e-06
3.98216e-06
-0.000571133
-1.17989e-05
4.0641e-06
-0.000570839
-1.81495e-05
4.02541e-06
-0.000569967
-2.36406e-05
3.86472e-06
-0.000568539
-2.78165e-05
3.57877e-06
-0.000566596
-3.02202e-05
3.1701e-06
-0.00056427
-3.0441e-05
2.64525e-06
-0.000561921
-2.80748e-05
2.01302e-06
-0.000560459
1.30381e-06
-0.000560936
-2.23471e-05
5.63528e-06
6.29956e-06
-0.000804625
-3.56927e-06
6.84512e-06
-0.000805487
-1.30801e-05
7.11575e-06
-0.000805324
-2.24009e-05
7.12903e-06
-0.000804082
-3.09204e-05
6.88016e-06
-0.000801707
-3.78732e-05
6.35377e-06
-0.000798178
-4.23349e-05
5.54444e-06
-0.000793541
-4.3297e-05
4.4738e-06
-0.000787966
-3.98586e-05
3.21671e-06
-0.000781828
1.94687e-06
-0.000775804
-3.16344e-05
1.17059e-05
7.70709e-06
-0.00104019
3.92735e-07
8.62381e-06
-0.00104219
-1.16806e-05
9.15748e-06
-0.00104267
-2.40074e-05
9.31156e-06
-0.00104148
-3.59155e-05
9.064e-06
-0.00103844
-4.64514e-05
8.36863e-06
-0.00103336
-5.42956e-05
7.19025e-06
-0.00102614
-5.77342e-05
5.5321e-06
-0.00101689
-5.47744e-05
3.47622e-06
-0.00100609
1.29205e-06
-0.000994958
-4.38129e-05
1.87997e-05
8.34841e-06
-0.00127555
5.79336e-06
9.63312e-06
-0.00127934
-8.51581e-06
1.04517e-05
-0.00128115
-2.37192e-05
1.07996e-05
-0.00128066
-3.91632e-05
1.06158e-05
-0.00127748
-5.3802e-05
9.81326e-06
-0.00127116
-6.59693e-05
8.30831e-06
-0.00126124
-7.31672e-05
6.05718e-06
-0.0012475
-7.20388e-05
3.11321e-06
-0.00123035
-1.32035e-07
-0.00121176
-5.9204e-05
2.58551e-05
8.5532e-06
-0.00151247
1.14562e-05
1.01223e-05
-0.00151853
-4.73026e-06
1.11741e-05
-0.00152223
-2.24555e-05
1.17031e-05
-0.00152304
-4.1168e-05
1.16042e-05
-0.00152032
-5.98637e-05
1.0743e-05
-0.0015132
-7.66738e-05
8.96807e-06
-0.00150072
-8.8392e-05
6.15542e-06
-0.00148203
-9.0157e-05
2.27361e-06
-0.00145711
-2.19029e-06
-0.00142861
-7.61443e-05
3.19093e-05
8.31281e-06
-0.00174853
1.65232e-05
1.00505e-05
-0.00175727
-1.06376e-06
1.12535e-05
-0.00176323
-2.0778e-05
1.19251e-05
-0.00176578
-4.22375e-05
1.19269e-05
-0.00176394
-6.46065e-05
1.10843e-05
-0.00175643
-8.59898e-05
9.17105e-06
-0.00174158
-0.000102656
5.96236e-06
-0.0017176
-0.000108298
1.29082e-06
-0.00168355
-4.30163e-06
-0.00164268
-9.41871e-05
3.65218e-05
7.64598e-06
-0.00198441
2.057e-05
9.3537e-06
-0.00199586
2.15151e-06
1.05766e-05
-0.00200419
-1.88419e-05
1.13188e-05
-0.00200867
-4.22872e-05
1.14358e-05
-0.00200801
-6.76167e-05
1.072e-05
-0.00200052
-9.3112e-05
8.87679e-06
-0.00198372
-0.000114781
5.56593e-06
-0.00195461
-0.000125084
4.30029e-07
-0.00191069
-6.13501e-06
-0.00185546
-0.00011188
3.89184e-05
6.1934e-06
-0.00222028
2.29941e-05
7.62533e-06
-0.00223433
4.49097e-06
8.70305e-06
-0.00224488
-1.6899e-05
9.41706e-06
-0.00225128
-4.13445e-05
9.64492e-06
-0.00225198
-6.8625e-05
9.1808e-06
-0.00224495
-9.74107e-05
7.72263e-06
-0.00222683
-0.000123801
4.83538e-06
-0.00219319
-0.000139525
4.55074e-08
-0.00213933
-6.89657e-06
-0.00206825
-0.00012875
3.92721e-05
3.71283e-06
-0.00245295
2.3969e-05
4.54546e-06
-0.00246897
6.15413e-06
5.2774e-06
-0.0024812
-1.46243e-05
5.78126e-06
-0.00248905
-3.88993e-05
6.03579e-06
-0.00249093
-6.695e-05
5.87807e-06
-0.00248461
-9.81149e-05
5.12692e-06
-0.00246611
-0.000128948
3.38403e-06
-0.00242947
-0.000150722
2.45608e-07
-0.00236659
-5.43386e-06
-0.00227846
-0.000144071
3.82536e-05
-0.00267255
2.37824e-05
-0.00269026
7.01759e-06
-0.00270422
-1.26339e-05
-0.00271345
-3.57687e-05
-0.00271621
-6.29244e-05
-0.00271003
-9.40382e-05
-0.00269062
-0.000126876
-0.002651
-0.000153244
-0.0025809
-0.00247596
-0.00015248
1.44897e-06
3.14796e-06
-0.000569731
-3.01017e-06
3.31001e-06
-0.000569984
-7.39429e-06
3.36211e-06
-0.000569817
-1.1421e-05
3.31157e-06
-0.000569252
-1.48063e-05
3.16243e-06
-0.000568316
-1.72737e-05
2.91872e-06
-0.000567048
-1.8585e-05
2.59075e-06
-0.00056555
-1.85778e-05
2.18932e-06
-0.000564117
-1.71391e-05
1.71753e-06
-0.000563615
1.17095e-06
-0.000565443
-1.38031e-05
4.00911e-06
5.44411e-06
-0.000800804
-2.6322e-06
5.88675e-06
-0.000801423
-9.39498e-06
6.07998e-06
-0.000801279
-1.5854e-05
6.04364e-06
-0.000800355
-2.15336e-05
5.78213e-06
-0.000798647
-2.59036e-05
5.29596e-06
-0.000796185
-2.84008e-05
4.59841e-06
-0.000793052
-2.85023e-05
3.7254e-06
-0.000789401
-2.58787e-05
2.7511e-06
-0.000785485
1.80667e-06
-0.00078168
-2.0638e-05
8.84807e-06
6.93714e-06
-0.00103361
-9.72519e-08
7.69983e-06
-0.00103505
-9.50484e-06
8.10386e-06
-0.00103529
-1.88736e-05
8.15594e-06
-0.00103423
-2.75847e-05
7.84546e-06
-0.00103179
-3.48544e-05
7.14913e-06
-0.00102795
-3.97362e-05
6.06246e-06
-0.00102273
-4.11915e-05
4.62227e-06
-0.00101633
-3.8275e-05
2.93308e-06
-0.00100919
1.21961e-06
-0.00100207
-3.05808e-05
1.4789e-05
7.74014e-06
-0.00126675
3.88349e-06
8.85061e-06
-0.00126958
-7.95383e-06
9.50961e-06
-0.00127071
-2.02231e-05
9.71178e-06
-0.00126994
-3.22228e-05
9.41219e-06
-0.00126705
-4.29631e-05
8.55217e-06
-0.00126182
-5.10934e-05
7.09292e-06
-0.00125414
-5.49114e-05
5.05064e-06
-0.00124411
-5.25696e-05
2.54014e-06
-0.0012323
-8.4428e-08
-0.00122014
-4.28865e-05
2.10522e-05
8.10716e-06
-0.0015019
8.44945e-06
9.50175e-06
-0.00150658
-5.53977e-06
1.03849e-05
-0.00150911
-2.04998e-05
1.07434e-05
-0.00150911
-3.57355e-05
1.04887e-05
-0.00150616
-5.01514e-05
9.51551e-06
-0.00149975
-6.20534e-05
7.72829e-06
-0.00148945
-6.90168e-05
5.08893e-06
-0.00147511
-6.8015e-05
1.67826e-06
-0.00145725
-2.02903e-06
-0.00143809
-5.6586e-05
2.66787e-05
7.99576e-06
-0.00173651
1.27935e-05
9.57834e-06
-0.00174346
-2.89467e-06
1.06217e-05
-0.00174777
-2.01047e-05
1.11186e-05
-0.00174895
-3.82209e-05
1.09421e-05
-0.00174627
-5.61612e-05
9.94349e-06
-0.00173892
-7.20097e-05
7.95721e-06
-0.00172596
-8.26777e-05
4.86391e-06
-0.00170671
-8.38296e-05
6.64567e-07
-0.00168138
-4.06095e-06
-0.00165315
-7.13348e-05
3.1197e-05
7.41538e-06
-0.00197124
1.64869e-05
9.00134e-06
-0.00198057
-3.29247e-07
1.00875e-05
-0.00198684
-1.91308e-05
1.06688e-05
-0.00198942
-3.94775e-05
1.06042e-05
-0.00198732
-6.04325e-05
9.70846e-06
-0.00197933
-8.00292e-05
7.74368e-06
-0.00196391
-9.46625e-05
4.48007e-06
-0.00193959
-9.86556e-05
-2.29209e-07
-0.00190581
-5.83649e-06
-0.00186663
-8.57127e-05
3.37441e-05
5.99803e-06
-0.0022061
1.88349e-05
7.35253e-06
-0.00221778
1.65899e-06
8.32521e-06
-0.00222595
-1.78518e-05
8.90516e-06
-0.00223
-3.94992e-05
8.96344e-06
-0.00222869
-6.26011e-05
8.31308e-06
-0.00222045
-8.53552e-05
6.69387e-06
-0.00220302
-0.000103901
3.76808e-06
-0.00217394
-0.000111471
-7.10995e-07
-0.00213128
-6.63133e-06
-0.0020797
-9.92316e-05
3.45017e-05
3.61013e-06
-0.00243802
1.99987e-05
4.40493e-06
-0.00245152
3.24505e-06
5.07827e-06
-0.0024612
-1.59534e-05
5.49826e-06
-0.00246645
-3.77033e-05
5.63347e-06
-0.00246585
-6.17231e-05
5.32948e-06
-0.00245761
-8.66928e-05
4.42261e-06
-0.00243887
-0.000108923
2.58308e-06
-0.00240605
-0.000120744
-4.11903e-07
-0.00235507
-5.17485e-06
-0.00229008
-0.000110577
3.38317e-05
-0.00265702
2.00154e-05
-0.00267204
4.12356e-06
-0.00268325
-1.42001e-05
-0.00268963
-3.5161e-05
-0.00268962
-5.87239e-05
-0.00268114
-8.39752e-05
-0.00266095
-0.000107922
-0.00262447
-0.000122936
-0.0025663
-0.00248799
-0.000116078
1.19024e-06
2.5713e-06
-0.000569607
-1.65096e-06
2.69736e-06
-0.00056984
-4.43946e-06
2.73402e-06
-0.000569763
-6.98195e-06
2.68811e-06
-0.000569398
-9.09598e-06
2.56643e-06
-0.000568768
-1.06171e-05
2.3759e-06
-0.000567903
-1.14212e-05
2.12886e-06
-0.000566875
-1.14486e-05
1.83479e-06
-0.000565925
-1.06826e-05
1.48851e-06
-0.000565869
1.05531e-06
-0.000568388
-8.79324e-06
2.86089e-06
4.58529e-06
-0.000798561
-1.76794e-06
4.93959e-06
-0.000799036
-6.43818e-06
5.07841e-06
-0.000798954
-1.08174e-05
5.02209e-06
-0.00079831
-1.45601e-05
4.7811e-06
-0.000797119
-1.73156e-05
4.36486e-06
-0.000795419
-1.87519e-05
3.79479e-06
-0.000793281
-1.86088e-05
3.10881e-06
-0.000790818
-1.67917e-05
2.37032e-06
-0.000788184
1.67346e-06
-0.000785571
-1.35191e-05
6.64815e-06
6.07608e-06
-0.00102893
-1.73148e-07
6.69536e-06
-0.00102999
-7.25899e-06
6.99292e-06
-0.00103012
-1.4173e-05
6.97914e-06
-0.00102927
-2.04117e-05
6.6537e-06
-0.00102743
-2.5395e-05
6.0113e-06
-0.00102461
-2.8493e-05
5.06649e-06
-0.0010209
-2.91031e-05
3.86913e-06
-0.00101648
-2.67873e-05
2.51925e-06
-0.00101165
1.18922e-06
-0.00100686
-2.1505e-05
1.1478e-05
6.98276e-06
-0.00125988
2.65976e-06
7.9194e-06
-0.00126199
-6.79511e-06
8.43378e-06
-0.0012627
-1.63847e-05
8.52393e-06
-0.0012619
-2.54674e-05
8.16249e-06
-0.00125948
-3.32257e-05
7.31823e-06
-0.00125537
-3.8668e-05
5.98674e-06
-0.00124961
-4.07074e-05
4.21791e-06
-0.00124242
-3.83739e-05
2.14408e-06
-0.00123426
5.52287e-08
-0.00122605
-3.13256e-05
1.68606e-05
7.4822e-06
-0.00149312
6.19674e-06
8.69027e-06
-0.00149669
-5.4924e-06
9.40807e-06
-0.0014984
-1.77166e-05
9.61982e-06
-0.00149799
-2.97676e-05
9.25933e-06
-0.0014952
-4.06443e-05
8.25493e-06
-0.00148981
-4.8987e-05
6.56093e-06
-0.00148168
-5.31062e-05
4.19808e-06
-0.00147097
-5.12291e-05
1.30132e-06
-0.00145828
-1.7212e-06
-0.00144517
-4.23779e-05
2.19085e-05
7.4954e-06
-0.00172609
9.76639e-06
8.90082e-06
-0.00173153
-3.78753e-06
9.77698e-06
-0.00173459
-1.83349e-05
1.01098e-05
-0.00173489
-3.31673e-05
9.79417e-06
-0.00173198
-4.7187e-05
8.7174e-06
-0.00172536
-5.87246e-05
6.77592e-06
-0.00171463
-6.54646e-05
3.93437e-06
-0.00169971
-6.46463e-05
2.96351e-07
-0.0016812
-3.60966e-06
-0.00166151
-5.43971e-05
2.61661e-05
7.02284e-06
-0.0019595
1.29888e-05
8.46063e-06
-0.00196696
-1.90343e-06
9.39545e-06
-0.00197156
-1.82133e-05
9.81452e-06
-0.00197282
-3.53259e-05
9.59331e-06
-0.00197001
-5.21671e-05
8.58192e-06
-0.00196236
-6.68789e-05
6.61092e-06
-0.00194903
-7.65719e-05
3.55387e-06
-0.00192952
-7.73405e-05
-5.8857e-07
-0.00190415
-5.25594e-06
-0.00187631
-6.6008e-05
2.87134e-05
5.67322e-06
-0.00219314
1.51252e-05
6.92645e-06
-0.00220265
-3.6924e-07
7.77964e-06
-0.00220884
-1.76289e-05
8.22079e-06
-0.00221115
-3.62019e-05
8.12618e-06
-0.00220865
-5.51624e-05
7.3392e-06
-0.00220025
-7.26475e-05
5.66175e-06
-0.00218459
-8.53615e-05
2.8639e-06
-0.00216053
-8.83433e-05
-1.12377e-06
-0.00212776
-6.03121e-06
-0.0020905
-7.67648e-05
2.97595e-05
3.42411e-06
-0.00242419
1.6361e-05
4.16418e-06
-0.00243536
1.02094e-06
4.76695e-06
-0.00244285
-1.62224e-05
5.09758e-06
-0.00244608
-3.51478e-05
5.12132e-06
-0.00244392