/*--------------------------------*- C++ -*----------------------------------*\
| =========                 |                                                 |
| \\      /  F ield         | foam-extend: Open Source CFD                    |
|  \\    /   O peration     | Version:     4.0                                |
|   \\  /    A nd           | Web:         http://www.foam-extend.org         |
|    \\/     M anipulation  |                                                 |
\*---------------------------------------------------------------------------*/
FoamFile
{
    version     2.0;
    format      ascii;
    class       volScalarField;
    location    "1600";
    object      T;
}
// * * * * * * * * * * * * * * * * * * * * * * * * * * * * * * * * * * * * * //

dimensions      [0 0 0 1 0 0 0];

internalField   nonuniform List<scalar> 
34480
(
278.179
277.733
277.288
276.823
276.313
275.76
275.294
275.31
276.405
280.287
277.469
276.949
276.444
275.943
275.396
274.754
274.05
273.55
273.73
276.639
277.33
276.748
276.175
275.595
274.963
274.2
273.273
272.372
271.84
273.803
277.404
276.706
276.005
275.286
274.515
273.608
272.485
271.246
270.08
271.148
277.509
276.704
275.885
275.035
274.126
273.073
271.77
270.221
268.471
268.724
277.682
276.788
275.873
274.917
273.889
272.709
271.247
269.421
267.131
266.602
277.817
276.857
275.875
274.846
273.734
272.457
270.868
268.79
265.968
264.634
277.975
276.977
275.958
274.891
273.735
272.411
270.752
268.48
265.147
262.944
278.08
277.066
276.025
274.924
273.719
272.34
270.619
268.188
264.324
261.22
278.936
277.924
276.877
275.765
274.556
273.184
271.481
269.011
264.643
260.428
279.651
279.47
279.374
279.382
279.522
279.849
280.442
281.408
283.004
286.187
278.474
278.2
278.001
277.907
277.938
278.139
278.607
279.486
280.994
284.343
277.977
277.632
277.352
277.155
277.063
277.111
277.391
278.086
279.432
282.894
277.744
277.299
276.907
276.582
276.354
276.255
276.371
276.893
278.061
281.539
277.588
277.054
276.564
276.129
275.778
275.547
275.515
275.87
276.854
280.299
277.533
276.926
276.36
275.838
275.388
275.046
274.888
275.089
275.904
279.327
277.478
276.82
276.204
275.625
275.104
274.679
274.414
274.465
275.095
278.45
277.496
276.809
276.164
275.553
274.992
274.512
274.168
274.082
274.5
277.685
277.52
276.822
276.163
275.526
274.923
274.383
273.96
273.746
273.906
276.786
278.29
277.589
276.918
276.27
275.658
275.107
274.656
274.368
274.223
276.511
280.803
280.707
280.706
280.812
281.048
281.445
282.044
282.887
284.047
285.664
279.485
279.303
279.209
279.229
279.393
279.75
280.365
281.326
282.751
284.816
278.864
278.605
278.427
278.353
278.415
278.664
279.192
280.133
281.673
284.15
278.526
278.17
277.887
277.698
277.638
277.765
278.189
279.084
280.694
283.527
278.29
277.848
277.471
277.175
277.002
277.011
277.323
278.145
279.78
282.9
278.171
277.655
277.199
276.817
276.547
276.451
276.657
277.395
279.023
282.364
278.066
277.497
276.986
276.541
276.196
276.014
276.122
276.759
278.337
281.824
278.041
277.439
276.892
276.406
276.009
275.76
275.781
276.308
277.79
281.338
278.026
277.412
276.849
276.337
275.895
275.58
275.508
275.911
277.253
280.812
278.733
278.116
277.542
277.019
276.567
276.238
276.119
276.415
277.559
281.009
281.594
281.549
281.586
281.71
281.933
282.265
282.71
283.26
283.898
284.652
280.285
280.172
280.146
280.223
280.425
280.778
281.314
282.055
283.018
284.17
279.613
279.428
279.33
279.339
279.48
279.793
280.332
281.155
282.321
283.846
279.209
278.937
278.748
278.664
278.718
278.962
279.471
280.344
281.689
283.585
278.913
278.561
278.286
278.11
278.074
278.237
278.694
279.584
281.069
283.304
278.741
278.317
277.968
277.711
277.592
277.675
278.074
278.959
280.554
283.093
278.594
278.116
277.71
277.391
277.204
277.214
277.548
278.403
280.065
282.853
278.532
278.018
277.574
277.211
276.969
276.917
277.183
277.985
279.663
282.636
278.495
277.966
277.504
277.115
276.831
276.718
276.904
277.619
279.258
282.384
279.157
278.624
278.148
277.745
277.446
277.314
277.457
278.091
279.614
282.81
282.068
282.046
282.084
282.182
282.345
282.571
282.854
283.171
283.476
283.755
280.871
280.802
280.805
280.89
281.068
281.348
281.74
282.241
282.829
283.442
280.222
280.094
280.044
280.088
280.244
280.533
280.978
281.597
282.383
283.268
279.799
279.596
279.475
279.454
279.559
279.825
280.295
281.012
281.999
283.186
279.473
279.198
279.004
278.911
278.954
279.179
279.648
280.435
281.602
283.092
279.267
278.925
278.664
278.504
278.484
278.66
279.114
279.951
281.281
283.066
279.091
278.696
278.381
278.164
278.088
278.214
278.64
279.501
280.961
283.011
279.002
278.57
278.216
277.956
277.832
277.908
278.294
279.151
280.7
282.977
278.946
278.497
278.124
277.838
277.679
277.707
278.037
278.852
280.434
282.913
279.568
279.113
278.725
278.424
278.247
278.256
278.555
279.327
280.869
283.483
282.315
282.303
282.33
282.397
282.502
282.642
282.808
282.977
283.102
283.144
281.272
281.231
281.244
281.316
281.45
281.65
281.912
282.226
282.571
282.903
280.695
280.607
280.586
280.639
280.776
281.008
281.34
281.769
282.271
282.787
280.289
280.141
280.067
280.08
280.197
280.438
280.822
281.36
282.037
282.773
279.959
279.749
279.617
279.579
279.66
279.892
280.308
280.938
281.788
282.762
279.739
279.469
279.28
279.189
279.229
279.441
279.875
280.584
281.603
282.825
279.546
279.226
278.989
278.851
278.85
279.034
279.471
280.238
281.407
282.868
279.439
279.083
278.808
278.632
278.594
278.746
279.17
279.969
281.257
282.938
279.369
278.994
278.7
278.5
278.433
278.553
278.948
279.742
281.105
282.988
279.955
279.573
279.263
279.048
278.964
279.068
279.445
280.228
281.601
283.633
282.411
282.403
282.419
282.46
282.522
282.603
282.695
282.779
282.81
282.729
281.529
281.503
281.516
281.568
281.661
281.793
281.958
282.148
282.346
282.528
281.045
280.986
280.979
281.026
281.134
281.305
281.537
281.82
282.133
282.437
280.682
280.576
280.532
280.559
280.666
280.862
281.154
281.536
281.987
282.445
280.369
280.213
280.125
280.119
280.211
280.418
280.757
281.233
281.829
282.464
280.151
279.943
279.809
279.765
279.835
280.044
280.42
280.984
281.731
282.559
279.953
279.699
279.525
279.445
279.489
279.69
280.091
280.727
281.617
282.642
279.839
279.55
279.342
279.231
279.249
279.435
279.844
280.532
281.546
282.76
279.758
279.449
279.223
279.091
279.088
279.256
279.658
280.368
281.471
282.862
280.313
279.996
279.755
279.609
279.591
279.748
280.143
280.864
282.004
283.527
282.416
282.41
282.419
282.441
282.476
282.521
282.57
282.609
282.593
282.447
281.678
281.662
281.671
281.706
281.766
281.848
281.948
282.06
282.173
282.274
281.293
281.254
281.252
281.289
281.368
281.486
281.64
281.822
282.015
282.196
280.985
280.911
280.885
280.914
281.001
281.151
281.361
281.624
281.918
282.206
280.704
280.59
280.533
280.543
280.629
280.8
281.061
281.407
281.815
282.23
280.501
280.343
280.251
280.237
280.315
280.501
280.807
281.236
281.769
282.329
280.308
280.111
279.986
279.946
280.011
280.204
280.545
281.049
281.705
282.419
280.195
279.965
279.812
279.748
279.798
279.989
280.353
280.916
281.685
282.551
280.108
279.859
279.689
279.608
279.644
279.828
280.2
280.799
281.655
282.663
280.635
280.378
280.194
280.101
280.126
280.304
280.679
281.3
282.203
283.318
282.374
282.368
282.372
282.384
282.403
282.427
282.452
282.467
282.429
282.249
281.755
281.745
281.75
281.771
281.808
281.857
281.917
281.981
282.045
282.102
281.459
281.434
281.434
281.46
281.514
281.592
281.692
281.806
281.924
282.033
281.21
281.159
281.144
281.169
281.236
281.344
281.49
281.666
281.856
282.038
280.969
280.887
280.851
280.867
280.94
281.073
281.266
281.51
281.785
282.057
280.79
280.673
280.611
280.613
280.687
280.841
281.079
281.395
281.768
282.146
280.611
280.461
280.373
280.358
280.428
280.597
280.874
281.258
281.732
282.226
280.505
280.327
280.216
280.184
280.248
280.425
280.731
281.174
281.741
282.352
280.416
280.22
280.095
280.05
280.105
280.283
280.606
281.089
281.733
282.452
280.918
280.714
280.577
280.522
280.571
280.748
281.079
281.588
282.28
283.08
282.31
282.305
282.306
282.312
282.322
282.335
282.347
282.35
282.303
282.106
281.785
281.778
281.781
281.794
281.815
281.844
281.878
281.915
281.951
281.983
281.567
281.55
281.55
281.568
281.603
281.653
281.716
281.786
281.858
281.923
281.372
281.337
281.328
281.348
281.395
281.471
281.569
281.685
281.807
281.921
281.174
281.116
281.093
281.109
281.166
281.265
281.403
281.571
281.755
281.932
281.023
280.938
280.897
280.906
280.969
281.091
281.269
281.495
281.753
282.006
280.861
280.749
280.689
280.688
280.754
280.894
281.109
281.394
281.729
282.068
280.77
280.635
280.557
280.545
280.61
280.762
281.008
281.345
281.755
282.181
280.681
280.53
280.44
280.419
280.481
280.639
280.905
281.28
281.753
282.259
281.16
281.002
280.902
280.873
280.932
281.093
281.37
281.772
282.286
282.851
282.239
282.235
282.235
282.238
282.243
282.249
282.256
282.253
282.204
281.999
281.788
281.784
281.785
281.792
281.804
281.82
281.84
281.86
281.88
281.898
281.632
281.621
281.621
281.632
281.654
281.685
281.724
281.767
281.81
281.85
281.483
281.46
281.455
281.469
281.501
281.552
281.617
281.691
281.769
281.841
281.327
281.287
281.273
281.286
281.329
281.399
281.495
281.608
281.73
281.845
281.206
281.146
281.119
281.129
281.18
281.271
281.4
281.559
281.734
281.903
281.064
280.982
280.942
280.947
281.004
281.113
281.275
281.481
281.714
281.945
280.991
280.89
280.836
280.836
280.895
281.019
281.209
281.458
281.749
282.042
280.905
280.79
280.727
280.72
280.779
280.912
281.121
281.404
281.744
282.096
281.36
281.241
281.169
281.158
281.216
281.354
281.575
281.882
282.254
282.648
282.17
282.166
282.166
282.167
282.17
282.173
282.176
282.172
282.124
281.917
281.776
281.773
281.773
281.777
281.784
281.793
281.804
281.816
281.827
281.837
281.67
281.663
281.663
281.67
281.683
281.702
281.725
281.751
281.777
281.801
281.558
281.542
281.539
281.548
281.57
281.603
281.645
281.692
281.741
281.786
281.439
281.412
281.403
281.413
281.443
281.492
281.557
281.632
281.711
281.786
281.346
281.304
281.286
281.296
281.335
281.401
281.491
281.6
281.718
281.83
281.224
281.165
281.138
281.146
281.191
281.274
281.391
281.536
281.696
281.852
281.172
281.099
281.062
281.067
281.116
281.213
281.354
281.533
281.736
281.936
281.087
281.003
280.959
280.96
281.012
281.118
281.277
281.483
281.723
281.964
281.521
281.433
281.383
281.382
281.434
281.545
281.716
281.942
282.206
282.476
282.107
282.103
282.102
282.103
282.104
282.106
282.108
282.103
282.059
281.855
281.757
281.755
281.755
281.757
281.761
281.766
281.772
281.779
281.785
281.791
281.691
281.687
281.686
281.69
281.698
281.709
281.723
281.739
281.754
281.768
281.605
281.595
281.592
281.598
281.612
281.633
281.66
281.69
281.72
281.749
281.519
281.501
281.495
281.503
281.523
281.556
281.598
281.647
281.699
281.746
281.451
281.422
281.41
281.419
281.446
281.492
281.555
281.628
281.705
281.779
281.346
281.305
281.288
281.295
281.329
281.389
281.472
281.572
281.68
281.784
281.317
281.265
281.241
281.247
281.286
281.358
281.46
281.586
281.724
281.859
281.232
281.171
281.142
281.147
281.189
281.269
281.386
281.533
281.699
281.862
281.644
281.581
281.547
281.55
281.594
281.68
281.806
281.968
282.151
282.334
282.049
282.046
282.045
282.045
282.046
282.047
282.048
282.044
282.005
281.807
281.736
281.735
281.734
281.735
281.738
281.74
281.744
281.748
281.751
281.754
281.703
281.7
281.7
281.702
281.707
281.713
281.721
281.73
281.739
281.748
281.633
281.626
281.625
281.628
281.637
281.65
281.667
281.685
281.704
281.722
281.575
281.563
281.56
281.565
281.578
281.6
281.627
281.658
281.691
281.721
281.527
281.507
281.5
281.506
281.525
281.557
281.598
281.646
281.697
281.744
281.438
281.41
281.399
281.405
281.43
281.472
281.528
281.596
281.667
281.736
281.431
281.395
281.379
281.386
281.415
281.467
281.538
281.624
281.716
281.806
281.344
281.301
281.282
281.287
281.32
281.379
281.462
281.563
281.676
281.785
281.733
281.69
281.667
281.672
281.706
281.77
281.861
281.974
282.098
282.219
281.999
281.995
281.995
281.995
281.995
281.996
281.997
281.993
281.961
281.773
281.714
281.713
281.713
281.713
281.715
281.716
281.718
281.72
281.722
281.724
281.71
281.709
281.708
281.709
281.712
281.716
281.72
281.726
281.731
281.736
281.648
281.643
281.642
281.645
281.65
281.658
281.668
281.679
281.691
281.702
281.614
281.606
281.604
281.607
281.616
281.629
281.647
281.666
281.686
281.706
281.58
281.568
281.563
281.568
281.58
281.601
281.628
281.659
281.691
281.722
281.505
281.486
281.479
281.484
281.501
281.529
281.567
281.611
281.658
281.702
281.52
281.496
281.486
281.492
281.513
281.548
281.597
281.654
281.715
281.773
281.426
281.397
281.384
281.389
281.413
281.455
281.512
281.58
281.655
281.726
281.794
281.765
281.751
281.756
281.781
281.826
281.889
281.966
282.048
282.127
281.956
281.953
281.952
281.952
281.953
281.953
281.953
281.951
281.926
281.752
281.691
281.691
281.691
281.691
281.692
281.693
281.694
281.695
281.696
281.698
281.717
281.716
281.715
281.716
281.717
281.72
281.722
281.725
281.728
281.731
281.654
281.651
281.65
281.652
281.655
281.659
281.665
281.672
281.679
281.686
281.639
281.634
281.633
281.635
281.64
281.649
281.659
281.671
281.684
281.696
281.617
281.608
281.606
281.609
281.617
281.63
281.647
281.667
281.687
281.706
281.552
281.539
281.535
281.538
281.55
281.568
281.593
281.621
281.651
281.679
281.589
281.574
281.567
281.572
281.586
281.61
281.642
281.679
281.718
281.755
281.483
281.463
281.455
281.459
281.476
281.504
281.542
281.587
281.635
281.682
281.833
281.814
281.805
281.81
281.828
281.859
281.901
281.951
282.004
282.055
281.926
281.923
281.922
281.922
281.923
281.923
281.923
281.921
281.903
281.75
281.667
281.667
281.667
281.667
281.667
281.668
281.669
281.669
281.67
281.671
281.723
281.723
281.723
281.723
281.724
281.725
281.727
281.728
281.73
281.732
281.654
281.652
281.652
281.652
281.654
281.657
281.66
281.664
281.668
281.672
281.654
281.651
281.65
281.651
281.654
281.66
281.666
281.673
281.681
281.688
281.638
281.633
281.631
281.633
281.638
281.647
281.657
281.67
281.682
281.694
281.583
281.575
281.573
281.575
281.582
281.594
281.609
281.627
281.645
281.663
281.641
281.631
281.627
281.63
281.64
281.655
281.676
281.699
281.724
281.747
281.516
281.503
281.498
281.501
281.512
281.531
281.555
281.584
281.615
281.645
281.86
281.848
281.842
281.846
281.858
281.879
281.906
281.938
281.972
282.004
281.919
281.917
281.917
281.917
281.917
281.917
281.917
281.916
281.905
281.78
281.637
281.637
281.637
281.637
281.637
281.637
281.637
281.638
281.638
281.639
281.728
281.728
281.728
281.728
281.729
281.73
281.731
281.732
281.734
281.735
281.651
281.649
281.649
281.649
281.65
281.652
281.654
281.656
281.658
281.66
281.66
281.658
281.658
281.658
281.66
281.664
281.668
281.672
281.677
281.681
281.648
281.644
281.643
281.645
281.648
281.653
281.659
281.667
281.675
281.682
281.602
281.597
281.595
281.597
281.601
281.609
281.618
281.629
281.64
281.651
281.671
281.665
281.663
281.665
281.671
281.682
281.695
281.71
281.726
281.739
281.524
281.516
281.513
281.515
281.523
281.534
281.55
281.568
281.587
281.607
281.889
281.882
281.878
281.881
281.889
281.902
281.92
281.941
281.961
281.981
281.96
281.954
281.953
281.954
281.954
281.955
281.955
281.956
281.952
281.865
281.592
281.592
281.592
281.592
281.591
281.591
281.591
281.59
281.59
281.59
281.726
281.726
281.726
281.726
281.727
281.728
281.729
281.73
281.731
281.733
281.646
281.646
281.645
281.645
281.646
281.646
281.647
281.648
281.649
281.65
281.659
281.658
281.658
281.659
281.66
281.662
281.664
281.667
281.67
281.673
281.648
281.646
281.645
281.646
281.648
281.651
281.655
281.66
281.665
281.67
281.61
281.607
281.606
281.607
281.61
281.615
281.62
281.627
281.634
281.64
281.674
281.67
281.668
281.67
281.674
281.681
281.69
281.7
281.711
281.72
281.502
281.497
281.495
281.496
281.501
281.509
281.518
281.53
281.541
281.554
281.94
281.935
281.932
281.934
281.939
281.948
281.96
281.974
281.987
282.001
282.021
282.023
282.023
282.025
282.026
282.028
282.031
282.034
282.038
282.008
281.53
281.529
281.529
281.528
281.527
281.526
281.525
281.523
281.521
281.518
281.712
281.712
281.712
281.712
281.713
281.714
281.715
281.717
281.718
281.721
281.645
281.644
281.644
281.644
281.644
281.644
281.645
281.645
281.645
281.645
281.656
281.656
281.655
281.656
281.657
281.658
281.66
281.662
281.664
281.666
281.644
281.643
281.642
281.643
281.644
281.647
281.65
281.653
281.657
281.66
281.613
281.611
281.61
281.611
281.613
281.616
281.62
281.625
281.629
281.633
281.649
281.646
281.645
281.646
281.649
281.654
281.661
281.668
281.677
281.686
281.449
281.446
281.444
281.446
281.449
281.455
281.461
281.469
281.475
281.482
282.007
282.001
281.999
282.001
282.005
282.011
282.02
282.03
282.041
282.054
292.019
296.755
297.822
295.396
291.297
296.402
297.712
295.614
291.312
296.709
298.295
296.954
291.295
296.91
298.853
298.459
291.332
297.091
299.355
299.626
291.302
297.041
299.423
299.734
291.203
296.858
299.29
299.679
291.142
296.686
299.18
299.785
290.857
296.31
298.911
299.836
290.675
296.077
298.852
300.213
291.575
293.123
293.367
292.364
291.093
292.851
293.155
292.158
291.282
293.192
293.661
292.786
291.539
293.604
294.282
293.614
291.852
294.045
294.881
294.419
292.392
294.673
295.604
295.297
292.923
295.237
296.21
296.047
293.393
295.688
296.651
296.52
293.577
295.865
296.861
296.827
293.702
296.086
297.263
297.493
287.714
288.41
288.623
288.279
287.111
288.015
288.296
287.909
287.246
288.279
288.641
288.352
287.548
288.712
289.178
289.012
287.916
289.199
289.768
289.7
288.401
289.776
290.403
290.366
288.878
290.327
290.999
291.007
289.363
290.862
291.573
291.654
289.695
291.212
291.973
292.171
290.199
291.692
292.568
293.017
285.886
286.152
286.264
286.22
285.16
285.602
285.768
285.673
285.217
285.747
285.98
285.941
285.458
286.088
286.398
286.418
285.756
286.483
286.866
286.937
286.187
287.003
287.45
287.571
286.632
287.529
288.033
288.209
287.11
288.074
288.632
288.874
287.539
288.538
289.148
289.48
288.349
289.317
289.993
290.512
284.665
284.738
284.805
284.865
283.892
284.117
284.226
284.222
283.903
284.184
284.342
284.382
284.086
284.437
284.653
284.74
284.317
284.739
285.011
285.145
284.668
285.16
285.487
285.671
285.034
285.593
285.973
286.208
285.449
286.068
286.502
286.794
285.84
286.499
286.98
287.349
286.642
287.282
287.813
288.347
283.931
283.912
283.951
284.048
283.134
283.255
283.323
283.339
283.116
283.273
283.376
283.425
283.253
283.457
283.602
283.688
283.431
283.686
283.873
283.997
283.723
284.029
284.261
284.425
284.029
284.387
284.662
284.867
284.387
284.793
285.11
285.359
284.73
285.168
285.521
285.827
285.515
285.939
286.322
286.752
283.459
283.392
283.415
283.526
282.654
282.722
282.764
282.78
282.621
282.713
282.778
282.818
282.72
282.844
282.939
283.005
282.855
283.013
283.14
283.235
283.093
283.288
283.447
283.573
283.341
283.573
283.765
283.922
283.642
283.907
284.131
284.321
283.927
284.215
284.464
284.694
284.669
284.952
285.22
285.535
283.144
283.051
283.064
283.183
282.348
282.387
282.412
282.424
282.304
282.359
282.401
282.428
282.373
282.45
282.512
282.558
282.472
282.572
282.656
282.724
282.663
282.789
282.897
282.987
282.86
283.011
283.143
283.256
283.108
283.283
283.437
283.573
283.336
283.526
283.696
283.859
284.03
284.218
284.401
284.619
282.922
282.812
282.82
282.944
282.147
282.17
282.185
282.193
282.098
282.131
282.157
282.175
282.141
282.189
282.23
282.261
282.21
282.274
282.33
282.376
282.36
282.443
282.515
282.578
282.511
282.611
282.7
282.779
282.713
282.829
282.934
283.028
282.886
283.012
283.128
283.239
283.531
283.657
283.78
283.926
282.756
282.636
282.641
282.77
282.012
282.026
282.035
282.04
281.962
281.983
281.999
282.011
281.986
282.017
282.043
282.063
282.03
282.072
282.109
282.14
282.146
282.2
282.249
282.291
282.256
282.322
282.383
282.437
282.419
282.496
282.567
282.632
282.544
282.628
282.706
282.781
283.138
283.223
283.306
283.403
282.626
282.499
282.501
282.634
281.918
281.927
281.932
281.935
281.874
281.886
281.896
281.904
281.882
281.902
281.918
281.932
281.908
281.936
281.96
281.98
281.995
282.031
282.063
282.092
282.069
282.114
282.154
282.191
282.2
282.252
282.3
282.343
282.285
282.342
282.394
282.444
282.83
282.887
282.943
283.007
282.519
282.386
282.388
282.523
281.851
281.856
281.86
281.861
281.815
281.823
281.829
281.834
281.812
281.825
281.835
281.844
281.827
281.844
281.86
281.874
281.89
281.914
281.935
281.954
281.934
281.964
281.991
282.016
282.041
282.075
282.107
282.137
282.09
282.129
282.164
282.197
282.59
282.628
282.665
282.707
282.426
282.29
282.291
282.429
281.801
281.805
281.807
281.808
281.777
281.782
281.786
281.789
281.765
281.773
281.78
281.785
281.773
281.784
281.794
281.803
281.818
281.834
281.848
281.86
281.839
281.858
281.876
281.892
281.928
281.951
281.972
281.992
281.947
281.972
281.996
282.018
282.403
282.428
282.453
282.48
282.343
282.206
282.206
282.345
281.763
281.765
281.766
281.766
281.753
281.756
281.758
281.76
281.732
281.737
281.741
281.745
281.738
281.745
281.752
281.757
281.77
281.78
281.789
281.797
281.772
281.785
281.796
281.807
281.851
281.866
281.88
281.893
281.842
281.859
281.874
281.888
282.259
282.275
282.291
282.309
282.267
282.13
282.13
282.267
281.731
281.733
281.733
281.733
281.739
281.741
281.742
281.743
281.708
281.711
281.714
281.716
281.716
281.721
281.725
281.728
281.738
281.744
281.75
281.755
281.726
281.734
281.742
281.748
281.802
281.812
281.821
281.829
281.765
281.777
281.787
281.796
282.148
282.158
282.169
282.18
282.195
282.063
282.063
282.195
281.703
281.704
281.705
281.705
281.733
281.734
281.735
281.736
281.69
281.692
281.694
281.695
281.702
281.705
281.708
281.71
281.716
281.721
281.724
281.727
281.694
281.7
281.705
281.709
281.773
281.779
281.785
281.791
281.709
281.717
281.723
281.728
282.064
282.071
282.077
282.085
282.129
282.007
282.007
282.13
281.676
281.676
281.677
281.676
281.733
281.734
281.734
281.734
281.675
281.676
281.677
281.678
281.692
281.694
281.696
281.697
281.7
281.703
281.705
281.707
281.673
281.676
281.679
281.682
281.758
281.762
281.766
281.769
281.665
281.67
281.674
281.677
282.006
282.01
282.014
282.019
282.081
281.976
281.976
282.081
281.642
281.643
281.643
281.643
281.735
281.736
281.736
281.736
281.662
281.663
281.663
281.664
281.684
281.685
281.686
281.687
281.686
281.688
281.689
281.69
281.656
281.659
281.66
281.662
281.747
281.749
281.752
281.754
281.622
281.626
281.628
281.629
281.98
281.983
281.985
281.988
282.07
281.993
281.993
282.07
281.593
281.593
281.593
281.593
281.734
281.734
281.734
281.734
281.651
281.652
281.652
281.652
281.675
281.676
281.676
281.677
281.673
281.674
281.675
281.675
281.643
281.644
281.646
281.647
281.727
281.73
281.731
281.732
281.566
281.569
281.571
281.571
282
282.001
282.003
282.005
282.095
282.061
282.061
282.095
281.518
281.518
281.518
281.519
281.722
281.723
281.723
281.723
281.646
281.646
281.646
281.646
281.668
281.668
281.669
281.669
281.663
281.663
281.664
281.664
281.635
281.636
281.636
281.637
281.697
281.699
281.7
281.7
281.487
281.489
281.49
281.491
282.056
282.058
282.059
282.06
287.144
284.096
282.695
281.866
281.206
280.603
280.045
279.54
279.071
278.623
287.422
284.962
283.358
282.191
281.236
280.45
279.762
279.139
278.559
278.005
288.643
286.018
283.954
282.631
281.538
280.644
279.862
279.158
278.511
277.912
290.112
287.116
284.886
283.404
282.187
281.184
280.301
279.5
278.759
278.08
291.422
288.171
285.788
284.14
282.811
281.705
280.728
279.84
279.015
278.27
293.052
289.268
286.729
284.914
283.472
282.264
281.199
280.229
279.328
278.519
294.636
290.234
287.541
285.563
284.016
282.713
281.569
280.529
279.564
278.713
296.099
291.151
288.313
286.179
284.534
283.143
281.928
280.826
279.808
278.912
297.302
291.93
288.971
286.706
284.963
283.477
282.186
281.025
279.967
279.036
298.777
293.234
290.223
287.886
286.053
284.492
283.136
281.915
280.808
279.826
288.416
285.965
284.372
283.186
282.285
281.585
281.025
280.569
280.196
279.894
288.248
285.709
283.9
282.578
281.585
280.816
280.188
279.66
279.207
278.814
288.539
285.834
283.825
282.458
281.419
280.598
279.913
279.326
278.815
278.371
289.105
286.289
284.177
282.756
281.643
280.746
279.984
279.319
278.731
278.217
289.712
286.828
284.616
283.101
281.902
280.925
280.088
279.353
278.698
278.126
290.535
287.5
285.159
283.524
282.233
281.175
280.267
279.468
278.753
278.13
291.404
288.091
285.621
283.85
282.478
281.346
280.38
279.53
278.77
278.114
292.401
288.638
286.081
284.173
282.737
281.541
280.53
279.64
278.847
278.161
293.323
289.04
286.479
284.442
282.96
281.702
280.649
279.725
278.913
278.205
294.705
289.902
287.5
285.382
283.867
282.56
281.471
280.511
279.67
278.935
286.595
285.437
284.499
283.692
283
282.416
281.93
281.532
281.214
280.973
286.621
285.226
284.034
283.038
282.209
281.524
280.952
280.475
280.077
279.749
286.922
285.348
283.97
282.868
281.962
281.213
280.581
280.043
279.583
279.192
287.455
285.763
284.252
283.061
282.074
281.25
280.545
279.932
279.395
278.933
288.014
286.259
284.618
283.328
282.255
281.353
280.574
279.892
279.287
278.763
288.78
286.883
285.103
283.697
282.532
281.55
280.7
279.952
279.284
278.705
289.598
287.455
285.533
283.998
282.747
281.69
280.779
279.977
279.261
278.643
290.513
287.988
285.96
284.295
282.975
281.853
280.895
280.052
279.301
278.65
291.378
288.356
286.305
284.512
283.142
281.963
280.967
280.095
279.327
278.655
292.684
289.141
287.233
285.36
283.968
282.753
281.732
280.833
280.044
279.351
285.167
284.712
284.21
283.696
283.214
282.787
282.421
282.119
281.88
281.706
285.238
284.517
283.769
283.071
282.448
281.907
281.445
281.056
280.735
280.477
285.5
284.642
283.737
282.92
282.202
281.582
281.047
280.588
280.198
279.873
285.987
285.025
283.992
283.071
282.263
281.56
280.946
280.41
279.943
279.545
286.519
285.478
284.322
283.297
282.397
281.611
280.921
280.313
279.776
279.315
287.209
286.058
284.773
283.632
282.636
281.767
281.002
280.326
279.725
279.204
287.933
286.602
285.185
283.917
282.829
281.881
281.051
280.318
279.665
279.101
288.747
287.125
285.599
284.203
283.038
282.023
281.142
280.365
279.674
279.076
289.544
287.501
285.936
284.41
283.188
282.115
281.195
280.389
279.679
279.059
290.79
288.301
286.831
285.221
283.975
282.867
281.925
281.094
280.366
279.724
284.034
283.942
283.722
283.437
283.144
282.869
282.625
282.419
282.256
282.14
284.08
283.738
283.318
282.881
282.46
282.075
281.733
281.44
281.198
281.007
284.281
283.863
283.328
282.78
282.26
281.785
281.363
280.994
280.681
280.421
284.693
284.212
283.573
282.922
282.306
281.743
281.237
280.789
280.399
280.069
285.159
284.624
283.882
283.129
282.418
281.768
281.183
280.662
280.201
279.807
285.768
285.156
284.306
283.442
282.634
281.898
281.236
280.644
280.117
279.662
286.405
285.666
284.702
283.717
282.815
281.997
281.266
280.614
280.032
279.531
287.114
286.167
285.103
283.997
283.013
282.125
281.34
280.641
280.019
279.48
287.809
286.541
285.429
284.197
283.151
282.206
281.38
280.65
280.006
279.445
288.956
287.355
286.29
284.977
283.903
282.924
282.075
281.323
280.661
280.078
283.298
283.374
283.299
283.151
282.983
282.817
282.666
282.535
282.432
282.359
283.292
283.131
282.901
282.64
282.373
282.115
281.879
281.672
281.501
281.366
283.423
283.226
282.922
282.574
282.217
281.875
281.56
281.28
281.04
280.843
283.742
283.519
283.142
282.706
282.26
281.831
281.435
281.077
280.764
280.5
284.12
283.871
283.42
282.893
282.358
281.845
281.369
280.938
280.555
280.229
284.628
284.341
283.808
283.184
282.557
281.959
281.405
280.903
280.454
280.067
285.16
284.799
284.176
283.446
282.727
282.047
281.422
280.858
280.354
279.919
285.754
285.262
284.556
283.717
282.917
282.166
281.485
280.872
280.325
279.851
286.329
285.618
284.86
283.909
283.046
282.238
281.515
280.87
280.299
279.802
287.368
286.433
285.689
284.662
283.767
282.925
282.18
281.513
280.924
280.404
282.814
282.969
282.966
282.895
282.803
282.709
282.62
282.542
282.48
282.437
282.764
282.688
282.566
282.416
282.254
282.09
281.936
281.798
281.682
281.591
282.839
282.749
282.58
282.366
282.132
281.897
281.674
281.472
281.296
281.151
283.073
282.978
282.762
282.481
282.171
281.859
281.561
281.287
281.046
280.841
283.361
283.263
282.998
282.644
282.257
281.867
281.494
281.15
280.843
280.581
283.769
283.66
283.339
282.906
282.437
281.968
281.521
281.108
280.737
280.417
284.194
284.053
283.668
283.146
282.593
282.046
281.53
281.056
280.629
280.262
284.676
284.464
284.015
283.402
282.774
282.159
281.586
281.062
280.592
280.185
285.131
284.784
284.287
283.581
282.893
282.224
281.609
281.052
280.557
280.126
286.061
285.581
285.077
284.307
283.584
282.882
282.244
281.666
281.152
280.699
282.494
282.685
282.717
282.686
282.638
282.586
282.536
282.491
282.456
282.432
282.418
282.382
282.318
282.234
282.138
282.038
281.941
281.853
281.778
281.718
282.45
282.409
282.317
282.189
282.04
281.885
281.733
281.593
281.469
281.367
282.614
282.577
282.456
282.279
282.072
281.853
281.637
281.435
281.255
281.102
282.825
282.796
282.644
282.414
282.142
281.856
281.574
281.309
281.07
280.866
283.142
283.12
282.932
282.641
282.301
281.945
281.595
281.267
280.969
280.712
283.471
283.442
283.211
282.851
282.439
282.013
281.598
281.211
280.861
280.559
283.853
283.793
283.517
283.085
282.606
282.118
281.65
281.215
280.821
280.48
284.198
284.066
283.751
283.246
282.714
282.175
281.666
281.199
280.779
280.414
285.029
284.827
284.498
283.941
283.375
282.805
282.273
281.785
281.346
280.96
282.275
282.483
282.529
282.52
282.495
282.467
282.439
282.415
282.395
282.383
282.188
282.172
282.139
282.092
282.037
281.978
281.919
281.865
281.818
281.78
282.192
282.175
282.125
282.049
281.957
281.858
281.758
281.664
281.58
281.51
282.302
282.291
282.224
282.115
281.979
281.83
281.679
281.535
281.405
281.294
282.45
282.451
282.365
282.218
282.033
281.829
281.623
281.425
281.245
281.091
282.692
282.705
282.599
282.407
282.167
281.905
281.64
281.386
281.154
280.953
282.939
282.958
282.824
282.581
282.283
281.96
281.637
281.33
281.05
280.808
283.236
283.248
283.085
282.788
282.434
282.058
281.686
281.334
281.013
280.735
283.489
283.47
283.278
282.927
282.527
282.106
281.696
281.313
280.966
280.666
284.233
284.183
283.976
283.585
283.155