/*--------------------------------*- C++ -*----------------------------------*\
| =========                 |                                                 |
| \\      /  F ield         | foam-extend: Open Source CFD                    |
|  \\    /   O peration     | Version:     4.0                                |
|   \\  /    A nd           | Web:         http://www.foam-extend.org         |
|    \\/     M anipulation  |                                                 |
\*---------------------------------------------------------------------------*/
FoamFile
{
    version     2.0;
    format      ascii;
    class       volVectorField;
    location    "1600";
    object      U;
}
// * * * * * * * * * * * * * * * * * * * * * * * * * * * * * * * * * * * * * //

dimensions      [0 1 -1 0 0 0 0];

internalField   nonuniform List<vector> 
34480
(
(211.989 7.06411 2.32003)
(213.601 5.25121 -1.76249)
(215.018 3.65189 -6.56865)
(216.252 2.27179 -12.3827)
(217.278 1.11956 -19.6038)
(217.863 0.212907 -28.7165)
(217.142 -0.416039 -40.0725)
(212.803 -0.830776 -54.1766)
(199.95 -1.35626 -73.5675)
(167.855 -1.95161 -94.1836)
(214.106 10.749 2.61595)
(216.023 9.66618 -0.748646)
(217.711 8.58077 -4.57435)
(219.161 7.52064 -9.13604)
(220.455 6.47808 -14.9052)
(221.563 5.42723 -22.58)
(221.965 4.36547 -32.955)
(219.893 3.2804 -46.8765)
(210.792 1.85265 -68.0652)
(180.369 -0.147203 -96.4478)
(215.293 10.1911 4.89411)
(217.478 9.41683 1.95518)
(219.483 8.561 -1.35635)
(221.312 7.65155 -5.30997)
(223.04 6.69373 -10.3439)
(224.745 5.64912 -17.2678)
(226.115 4.49805 -27.172)
(225.665 3.2534 -41.2187)
(219.289 1.62342 -63.8485)
(190.496 -0.714519 -98.6724)
(215.573 10.467 6.69985)
(218.235 9.76908 3.9054)
(220.75 8.96334 0.736377)
(223.129 8.08659 -3.04264)
(225.397 7.13786 -7.82504)
(227.645 6.07761 -14.4112)
(229.693 4.87484 -24.0425)
(230.337 3.53702 -38.2188)
(225.894 1.75571 -61.9239)
(198.157 -0.890103 -101.527)
(215.766 9.76823 8.57883)
(218.853 8.95767 5.86784)
(221.809 8.0283 2.71503)
(224.666 7.04219 -1.02821)
(227.422 5.97571 -5.75728)
(230.151 4.78817 -12.2201)
(232.747 3.43474 -21.738)
(234.244 1.91662 -36.139)
(231.295 -0.0989033 -60.8686)
(204.156 -3.15021 -104.273)
(215.597 10.0455 9.40721)
(219.01 9.14096 6.79945)
(222.291 8.10572 3.71118)
(225.5 7.03392 0.0388232)
(228.631 5.89694 -4.62441)
(231.74 4.66485 -10.9742)
(234.761 3.28919 -20.3652)
(236.928 1.75475 -34.9369)
(235.138 -0.338453 -60.6039)
(208.205 -3.6928 -107.213)
(215.582 9.01789 10.4382)
(219.207 7.9196 7.90113)
(222.678 6.70848 4.82416)
(226.088 5.49148 1.17548)
(229.442 4.22355 -3.46462)
(232.794 2.88808 -9.73516)
(236.125 1.45251 -18.9983)
(238.884 -0.0691175 -33.6902)
(238.186 -2.04375 -60.199)
(211.576 -5.24714 -109.557)
(215.327 9.24935 10.1831)
(219.038 8.03753 7.8064)
(222.566 6.74116 4.87408)
(226.029 5.46205 1.36226)
(229.435 4.16178 -3.12703)
(232.848 2.84691 -9.1707)
(236.312 1.52991 -18.0881)
(239.544 0.261543 -32.5368)
(239.994 -1.31083 -59.428)
(214.145 -4.03578 -110.911)
(215.35 7.32625 10.6461)
(219.071 5.95857 8.43001)
(222.6 4.58662 5.59408)
(226.08 3.2617 2.12938)
(229.513 1.92521 -2.36573)
(232.944 0.595977 -8.37806)
(236.44 -0.659212 -17.1184)
(239.988 -1.68909 -31.2826)
(241.518 -2.58872 -58.4256)
(216.531 -4.10505 -111.326)
(214.275 6.91384 10.0499)
(218.006 5.46856 8.18278)
(221.554 4.02178 5.64877)
(225.038 2.63728 2.43156)
(228.412 1.31579 -1.84894)
(231.689 0.107555 -7.64756)
(234.969 -0.878309 -16.0608)
(238.555 -1.43263 -29.4868)
(241.294 -1.58336 -56.0574)
(218.206 -1.87275 -109.197)
(204.179 6.13892 1.56739)
(205.109 4.59572 -1.86058)
(205.537 3.24236 -5.76604)
(205.351 2.10499 -10.2135)
(204.361 1.18189 -15.355)
(202.24 0.483632 -21.3157)
(198.482 0.00795764 -28.1452)
(192.431 -0.272275 -35.6541)
(182.64 -0.419539 -42.8731)
(163.981 -0.560214 -45.3887)
(208.155 9.62374 1.59898)
(209.534 8.67733 -1.41469)
(210.492 7.71088 -4.81544)
(210.877 6.78076 -8.65929)
(210.549 5.88883 -13.1445)
(209.225 5.01787 -18.5613)
(206.292 4.14771 -25.2984)
(200.829 3.2715 -33.6204)
(191.386 2.3563 -43.4585)
(171.538 1.27942 -50.4557)
(210.476 9.16622 3.67947)
(212.207 8.45769 0.919881)
(213.586 7.67121 -2.16464)
(214.515 6.83324 -5.74214)
(214.857 5.97183 -9.97599)
(214.389 5.06556 -15.2518)
(212.521 4.0873 -22.1738)
(208.112 3.01816 -31.4101)
(199.498 1.82565 -43.7571)
(178.76 0.420592 -55.801)
(211.494 9.50517 5.42883)
(213.714 8.8624 2.75785)
(215.639 8.11979 -0.249461)
(217.196 7.29761 -3.79583)
(218.222 6.42264 -8.04121)
(218.503 5.47767 -13.3847)
(217.49 4.43621 -20.5368)
(213.974 3.2697 -30.4977)
(206.145 1.9125 -44.9149)
(184.673 0.275942 -61.8661)
(212.168 8.85813 7.34477)
(214.825 8.11462 4.7264)
(217.226 7.26297 1.69629)
(219.317 6.34418 -1.88632)
(220.938 5.3603 -6.23841)
(221.867 4.2966 -11.7295)
(221.586 3.11577 -19.1382)
(218.884 1.78649 -29.7545)
(211.815 0.229961 -45.9836)
(189.699 -1.61307 -67.6672)
(212.346 9.22167 8.24363)
(215.353 8.3977 5.71473)
(218.122 7.45025 2.72973)
(220.622 6.45269 -0.815507)
(222.715 5.39872 -5.19308)
(224.17 4.28826 -10.7484)
(224.498 3.08348 -18.3015)
(222.519 1.74914 -29.3916)
(216.147 0.163315 -47.0455)
(193.327 -1.7668 -72.9414)
(212.575 8.24424 9.39311)
(215.826 7.24403 6.92938)
(218.837 6.13934 3.94388)
(221.606 5.01963 0.401559)
(224.025 3.85775 -4.01599)
(225.872 2.66456 -9.62973)
(226.706 1.40483 -17.2829)
(225.424 0.0603957 -28.7512)
(219.825 -1.4581 -47.6398)
(196.512 -3.27874 -77.4951)
(212.485 8.54955 9.26745)
(215.864 7.44449 6.96648)
(218.994 6.26209 4.13061)
(221.903 5.09322 0.725442)
(224.503 3.91238 -3.57244)
(226.598 2.74456 -9.06489)
(227.809 1.58394 -16.5872)
(227.178 0.442419 -28.0898)
(222.511 -0.768656 -47.7729)
(199.194 -2.39207 -81.1415)
(212.53 6.69785 9.84317)
(215.94 5.42229 7.71788)
(219.112 4.15549 5.00736)
(222.105 2.94527 1.69581)
(224.858 1.74718 -2.58666)
(227.184 0.585648 -8.11801)
(228.721 -0.515608 -15.6873)
(228.656 -1.48239 -27.208)
(224.968 -2.19709 -47.6114)
(201.843 -3.22279 -84.0077)
(211.564 6.48606 9.27707)
(214.985 5.09215 7.4448)
(218.2 3.74041 5.05047)
(221.238 2.45097 2.03134)
(224.022 1.23723 -1.96098)
(226.385 0.145252 -7.24128)
(228.04 -0.756628 -14.6216)
(228.348 -1.31634 -25.7479)
(225.803 -1.36234 -46.3361)
(203.66 -1.22926 -84.6823)
(198.397 4.9006 0.460851)
(198.891 3.72475 -2.2118)
(198.86 2.70062 -5.14501)
(198.226 1.84086 -8.35313)
(196.856 1.16215 -11.7923)
(194.573 0.672586 -15.3616)
(191.157 0.3571 -18.8617)
(186.375 0.162245 -21.9674)
(179.87 0.00874568 -23.9388)
(170.967 -0.209975 -23.0007)
(203.244 8.23156 0.421847)
(204.172 7.45588 -2.13133)
(204.62 6.64869 -4.95352)
(204.459 5.85792 -8.05597)
(203.516 5.0944 -11.4764)
(201.531 4.35558 -15.2017)
(198.122 3.63065 -19.1587)
(192.78 2.90376 -23.1255)
(184.804 2.15958 -26.4311)
(173.195 1.36208 -27.0758)
(206.262 7.99166 2.33946)
(207.571 7.36728 -0.139821)
(208.449 6.65849 -2.90023)
(208.777 5.89952 -6.01761)
(208.389 5.11201 -9.55723)
(206.995 4.28475 -13.6238)
(204.085 3.40418 -18.2917)
(198.889 2.45652 -23.4822)
(190.314 1.42951 -28.6644)
(176.393 0.297452 -31.724)
(207.859 8.44285 3.95741)
(209.643 7.86352 1.48548)
(211.04 7.18103 -1.29085)
(211.948 6.41486 -4.52606)
(212.168 5.59546 -8.27489)
(211.391 4.7075 -12.7171)
(209.022 3.73775 -18.0373)
(204.067 2.67016 -24.3341)
(195.08 1.4826 -31.3199)
(179.044 0.150288 -37.1145)
(208.968 7.85643 5.84567)
(211.18 7.17866 3.37203)
(213.045 6.39538 0.517484)
(214.471 5.53569 -2.85388)
(215.249 4.6135 -6.84128)
(215.055 3.61044 -11.652)
(213.237 2.5029 -17.5712)
(208.626 1.26918 -24.9022)
(199.428 -0.115001 -33.6455)
(181.542 -1.64073 -42.472)
(209.483 8.30445 6.76453)
(212.054 7.55398 4.34729)
(214.299 6.68493 1.50223)
(216.144 5.75191 -1.8914)
(217.389 4.76322 -5.9955)
(217.7 3.71182 -11.031)
(216.391 2.57142 -17.371)
(212.168 1.31375 -25.5362)
(202.903 -0.114071 -35.8255)
(183.419 -1.72856 -47.7113)
(209.964 7.35843 7.99964)
(212.796 6.44514 5.62557)
(215.31 5.435 2.75518)
(217.456 4.39602 -0.675477)
(219.055 3.31715 -4.88831)
(219.777 2.19914 -10.1105)
(218.935 1.015 -16.7924)
(215.167 -0.259395 -25.6902)
(206.036 -1.6587 -37.4438)
(185.269 -3.20825 -52.5018)
(210.065 7.72603 7.9701)
(213.051 6.715 5.74639)
(215.723 5.63387 3.01603)
(218.055 4.55532 -0.293424)
(219.897 3.47041 -4.4282)
(220.934 2.38965 -9.62581)
(220.505 1.30454 -16.3878)
(217.252 0.208893 -25.6888)
(208.496 -0.934506 -38.5763)
(186.852 -2.37547 -56.5986)
(210.223 5.90789 8.62949)
(213.254 4.72185 6.55889)
(215.987 3.54858 3.94168)
(218.424 2.42493 0.730545)
(220.453 1.33043 -3.38218)
(221.778 0.278485 -8.65378)
(221.763 -0.710541 -15.6145)
(219.067 -1.60314 -25.2981)
(210.83 -2.29238 -39.2873)
(188.404 -3.29565 -59.8506)
(209.432 5.8686 8.11489)
(212.473 4.54855 6.29037)
(215.252 3.29032 3.96586)
(217.737 2.08668 1.03038)
(219.808 0.971487 -2.79878)
(221.195 -0.0147593 -7.80201)
(221.398 -0.803986 -14.5892)
(219.206 -1.2888 -24.1732)
(211.731 -1.30451 -38.8409)
(188.957 -1.19929 -60.8212)
(194.295 3.82373 -0.0919937)
(194.528 3.00626 -1.97101)
(194.319 2.28958 -3.9706)
(193.625 1.68628 -6.06342)
(192.388 1.21153 -8.16029)
(190.553 0.867555 -10.1379)
(188.093 0.638981 -11.8115)
(185.072 0.475699 -12.9376)
(181.627 0.297702 -13.1077)
(177.705 0.018237 -11.7307)
(199.262 6.83557 -0.29008)
(199.842 6.25516 -2.29189)
(199.961 5.63196 -4.43234)
(199.531 5.00219 -6.71457)
(198.436 4.38554 -9.09223)
(196.529 3.78599 -11.4549)
(193.645 3.19735 -13.6176)
(189.644 2.60794 -15.282)
(184.439 2.01301 -15.8796)
(178.169 1.42363 -14.6594)
(202.587 6.78532 1.33397)
(203.527 6.26878 -0.765679)
(204.016 5.66388 -3.0715)
(203.947 5.00897 -5.59333)
(203.18 4.32219 -8.33123)
(201.508 3.60138 -11.2408)
(198.641 2.83934 -14.1882)
(194.239 2.02673 -16.8638)
(187.975 1.15862 -18.5501)
(179.722 0.24868 -18.1465)
(204.557 7.35927 2.71884)
(205.93 6.86247 0.53564)
(206.873 6.25857 -1.89625)
(207.273 5.57337 -4.66021)
(206.95 4.83339 -7.7566)
(205.637 4.03193 -11.2067)
(202.926 3.16495 -14.9291)
(198.269 2.22352 -18.6457)
(191.061 1.19726 -21.5492)
(180.788 0.0994532 -22.327)
(205.994 6.83775 4.49948)
(207.772 6.23832 2.24801)
(209.143 5.53506 -0.330707)
(209.999 4.75364 -3.33878)
(210.127 3.91247 -6.78869)
(209.219 2.99571 -10.7581)
(206.762 1.99334 -15.2309)
(202.004 0.892315 -20.0069)
(194.03 -0.319897 -24.2457)
(181.855 -1.60519 -26.6195)
(206.791 7.37002 5.37582)
(208.921 6.70196 3.13477)
(210.659 5.92023 0.517476)
(211.907 5.0678 -2.58966)
(212.44 4.16194 -6.24864)
(211.921 3.19254 -10.5728)
(209.751 2.14678 -15.6205)
(204.992 1.0064 -21.3046)
(196.398 -0.260554 -26.7981)
(182.454 -1.63926 -30.9348)
(207.495 6.45669 6.65008)
(209.892 5.63416 4.41872)
(211.906 4.72244 1.73911)
(213.456 3.77323 -1.46225)
(214.323 2.78803 -5.30849)
(214.152 1.76081 -9.93847)
(212.289 0.676237 -15.4919)
(207.647 -0.484198 -22.0329)
(198.636 -1.74721 -28.8177)
(183.14 -3.09758 -34.9964)
(207.771 6.90346 6.681)
(210.339 5.98909 4.5781)
(212.532 5.00983 2.01633)
(214.291 4.02369 -1.09711)
(215.414 3.03628 -4.92041)
(215.546 2.04852 -9.62244)
(214.008 1.05563 -15.4146)
(209.609 0.0477194 -22.5358)
(200.44 -1.00844 -30.4192)
(183.692 -2.2973 -38.6465)
(208.023 5.13194 7.44809)
(210.655 4.04395 5.47157)
(212.925 2.96727 2.99638)
(214.799 1.93094 -0.0364524)
(216.108 0.933939 -3.84887)
(216.517 -0.0161621 -8.65164)
(215.35 -0.894629 -14.7356)
(211.335 -1.68615 -22.453)
(202.242 -2.32903 -31.5312)
(184.318 -3.25745 -41.6508)
(207.351 5.26419 6.98659)
(210.001 4.03961 5.22194)
(212.331 2.88562 3.0134)
(214.268 1.77961 0.230075)
(215.65 0.771732 -3.32469)
(216.15 -0.104781 -7.87613)
(215.185 -0.777679 -13.8032)
(211.548 -1.16521 -21.5871)
(202.866 -1.14114 -31.5459)
(184.063 -1.05192 -42.702)
(191.768 2.90774 -0.314748)
(191.881 2.37648 -1.54093)
(191.675 1.90162 -2.81738)
(191.136 1.49664 -4.10095)
(190.25 1.17196 -5.31453)
(189.018 0.92786 -6.36592)
(187.479 0.753648 -7.13439)
(185.765 0.609374 -7.50338)
(184.163 0.427188 -7.30185)
(182.846 0.125805 -6.33889)
(196.298 5.53094 -0.654075)
(196.652 5.13434 -2.12342)
(196.626 4.68455 -3.64003)
(196.167 4.21055 -5.20141)
(195.219 3.73569 -6.73941)
(193.722 3.26766 -8.14436)
(191.634 2.80633 -9.25778)
(188.964 2.34616 -9.87138)
(185.824 1.89014 -9.68006)
(182.544 1.46232 -8.45812)
(199.545 5.6094 0.650381)
(200.204 5.20588 -1.03499)
(200.451 4.71472 -2.85061)
(200.209 4.17327 -4.7719)
(199.385 3.59896 -6.76069)
(197.862 2.99542 -8.71923)
(195.513 2.36003 -10.4807)
(192.245 1.68864 -11.7709)
(188.074 0.982957 -12.1152)
(183.362 0.270393 -11.0368)
(201.648 6.29499 1.7535)
(202.68 5.8902 -0.0898559)
(203.291 5.37843 -2.11551)
(203.382 4.78853 -4.35304)
(202.817 4.14513 -6.76448)
(201.415 3.44882 -9.28559)
(198.945 2.7009 -11.7488)
(195.17 1.89865 -13.8322)
(189.957 1.0399 -14.8813)
(183.643 0.156071 -14.1821)
(203.265 5.83347 3.37117)
(204.664 5.32131 1.39834)
(205.642 4.70733 -0.840617)
(206.093 4.01906 -3.39469)
(205.842 3.2733 -6.23147)
(204.65 2.46182 -9.32765)
(202.18 1.58247 -12.5347)
(198.033 0.628762 -15.5201)
(191.862 -0.405758 -17.4622)
(183.913 -1.47082 -17.4889)
(204.247 6.44516 4.15478)
(205.979 5.86745 2.14438)
(207.29 5.18035 -0.180235)
(208.078 4.42161 -2.90419)
(208.137 3.6123 -6.01633)
(207.184 2.74431 -9.53634)
(204.785 1.81376 -13.3522)
(200.367 0.808744 -17.1557)
(193.33 -0.293272 -19.9872)
(183.766 -1.46166 -20.9027)
(205.112 5.56477 5.42476)
(207.108 4.83899 3.38577)
(208.683 4.02962 0.957942)
(209.749 3.17886 -1.91931)
(210.085 2.29611 -5.28613)
(209.377 1.37442 -9.1937)
(207.108 0.40672 -13.5868)
(202.545 -0.621521 -18.2215)
(194.793 -1.73505 -22.0537)
(183.716 -2.89876 -24.1598)
(205.526 6.09879 5.48019)
(207.703 5.2881 3.54076)
(209.464 4.41499 1.20028)
(210.737 3.5285 -1.63152)
(211.305 2.64387 -5.03124)
(210.839 1.7595 -9.08839)
(208.762 0.873499 -13.8106)
(204.202 -0.0282001 -19.057)
(195.952 -0.980803 -23.7801)
(183.545 -2.10737 -27.1526)
(205.871 4.37281 6.34255)
(208.126 3.39326 4.49838)
(209.976 2.42073 2.20843)
(211.365 1.48175 -0.577306)
(212.102 0.587573 -3.99698)
(211.861 -0.255053 -8.18579)
(210.045 -1.02277 -13.2471)
(205.66 -1.714 -19.1483)
(197.155 -2.29648 -24.9474)
(183.487 -3.10577 -29.6376)
(205.297 4.67663 5.90794)
(207.58 3.56517 4.24819)
(209.5 2.52535 2.19621)
(210.961 1.53022 -0.373019)
(211.78 0.638958 -3.57792)
(211.633 -0.119353 -7.56955)
(209.966 -0.676134 -12.5248)
(205.777 -0.968912 -18.5338)
(197.354 -0.914207 -25.1186)
(182.668 -0.833727 -30.5014)
(190.407 2.15408 -0.355065)
(190.467 1.827 -1.10855)
(190.317 1.5259 -1.88261)
(189.956 1.26343 -2.63512)
(189.39 1.0454 -3.31476)
(188.636 0.871872 -3.86435)
(187.741 0.737497 -4.21281)
(186.833 0.612683 -4.31805)
(186.205 0.442764 -4.10225)
(186.146 0.140638 -3.53105)
(194.237 4.37915 -0.787679)
(194.451 4.13514 -1.80758)
(194.379 3.83239 -2.82249)
(193.995 3.49388 -3.82994)
(193.28 3.1427 -4.76981)
(192.224 2.78857 -5.56236)
(190.835 2.43653 -6.10389)
(189.167 2.08694 -6.27665)
(187.336 1.74786 -5.93406)
(185.576 1.44234 -5.04335)
(197.153 4.51265 0.226787)
(197.604 4.21495 -1.06051)
(197.713 3.83452 -2.41807)
(197.43 3.40418 -3.81147)
(196.705 2.94056 -5.19054)
(195.488 2.45034 -6.45762)
(193.744 1.93472 -7.47549)
(191.49 1.39448 -8.05863)
(188.842 0.836891 -7.94904)
(186.12 0.289456 -6.97188)
(199.197 5.28478 1.04053)
(199.953 4.9729 -0.449586)
(200.331 4.55847 -2.05894)
(200.255 4.06962 -3.78729)
(199.639 3.52972 -5.57836)
(198.377 2.94408 -7.33999)
(196.366 2.31731 -8.90635)
(193.549 1.65211 -10.0232)
(189.993 0.954258 -10.279)
(186.113 0.259074 -9.32898)
(200.859 4.87097 2.46514)
(201.933 4.4491 0.800363)
(202.606 3.93006 -1.06768)
(202.789 3.34172 -3.14553)
(202.354 2.69917 -5.37849)
(201.14 2.00068 -7.69092)
(198.964 1.24857 -9.90354)
(195.661 0.442103 -11.7115)
(191.196 -0.417176 -12.5288)
(186.052 -1.27751 -11.8546)
(201.934 5.55167 3.12057)
(203.31 5.06808 1.37715)
(204.268 4.48002 -0.616293)
(204.715 3.82347 -2.90682)
(204.486 3.11872 -5.44529)
(203.373 2.36223 -8.18653)
(201.102 1.55514 -10.9542)
(197.385 0.690953 -13.4169)
(192.031 -0.242417 -14.8159)
(185.562 -1.20679 -14.5135)
(202.896 4.70217 4.34907)
(204.524 4.07686 2.54009)
(205.721 3.37244 0.406536)
(206.403 2.62631 -2.08579)
(206.377 1.85141 -4.92083)
(205.396 1.0429 -8.08186)
(203.103 0.19882 -11.4181)
(199.075 -0.691378 -14.6034)
(192.918 -1.64499 -16.7293)
(185.134 -2.61462 -17.0546)
(203.406 5.32629 4.39442)
(205.215 4.62448 2.65321)
(206.593 3.8614 0.573896)
(207.461 3.08147 -1.91513)
(207.621 2.30475 -4.82713)
(206.799 1.53058 -8.18219)
(204.565 0.758637 -11.87)
(200.364 -0.0279983 -15.6073)
(193.563 -0.861618 -18.387)
(184.559 -1.80883 -19.406)
(203.827 3.64114 5.32907)
(205.726 2.77708 3.64938)
(207.198 1.91447 1.57983)
(208.178 1.08109 -0.906897)
(208.475 0.294346 -3.87966)
(207.808 -0.437763 -7.39651)
(205.711 -1.09557 -11.431)
(201.506 -1.68831 -15.7751)
(194.27 -2.19906 -19.4235)
(184.098 -2.85878 -21.2885)
(203.325 4.11786 4.89572)
(205.26 3.13107 3.37665)
(206.806 2.21227 1.51555)
(207.861 1.33688 -0.79034)
(208.24 0.566817 -3.5955)
(207.654 -0.0713342 -6.97771)
(205.643 -0.517452 -10.9675)
(201.478 -0.727434 -15.4238)
(194.104 -0.654475 -19.645)
(182.962 -0.571131 -21.8976)
(189.831 1.5524 -0.312203)
(189.87 1.35855 -0.753955)
(189.778 1.17332 -1.20732)
(189.561 1.00795 -1.63618)
(189.228 0.864849 -2.01141)
(188.795 0.744517 -2.3006)
(188.302 0.645536 -2.46134)
(187.853 0.545008 -2.48903)
(187.722 0.397393 -2.33315)
(188.302 0.105956 -2.02495)
(192.911 3.40969 -0.78912)
(193.041 3.27986 -1.46518)
(192.973 3.09155 -2.11264)
(192.695 2.86247 -2.73217)
(192.204 2.61341 -3.28005)
(191.509 2.35454 -3.70547)
(190.635 2.09392 -3.9489)
(189.633 1.83606 -3.95147)
(188.584 1.59143 -3.64674)
(187.622 1.37767 -3.05679)
(195.364 3.53051 -0.00888206)
(195.668 3.32269 -0.949283)
(195.707 3.04052 -1.92009)
(195.454 2.71086 -2.88971)
(194.887 2.34868 -3.81205)
(193.992 1.96167 -4.61051)
(192.777 1.55366 -5.18975)
(191.291 1.12876 -5.43853)
(189.643 0.696768 -5.22812)
(188.044 0.280689 -4.51175)
(197.212 4.3571 0.537157)
(197.754 4.13126 -0.618808)
(197.98 3.81064 -1.84278)
(197.837 3.42049 -3.12319)
(197.277 2.98269 -4.40211)
(196.25 2.50518 -5.59224)
(194.727 1.99477 -6.56192)
(192.727 1.45795 -7.13819)
(190.368 0.905554 -7.09092)
(187.961 0.36958 -6.27366)
(198.806 3.97424 1.76149)
(199.612 3.63931 0.406393)
(200.062 3.21469 -1.09409)
(200.087 2.726 -2.72208)
(199.603 2.18743 -4.41606)
(198.518 1.60164 -6.08681)
(196.747 0.973755 -7.5734)
(194.259 0.307634 -8.64399)
(191.136 -0.388717 -8.93442)
(187.8 -1.06909 -8.18974)
(199.888 4.70858 2.26985)
(200.958 4.31749 0.80766)
(201.639 3.82866 -0.843308)
(201.853 3.27625 -2.6972)
(201.483 2.67828 -4.69215)
(200.391 2.03585 -6.75078)
(198.427 1.35294 -8.6944)
(195.482 0.627911 -10.2436)
(191.57 -0.141849 -10.8863)
(187.209 -0.919358 -10.2448)
(200.887 3.88564 3.42883)
(202.186 3.36031 1.87075)
(203.073 2.76045 0.0514843)
(203.47 2.12083 -2.03311)
(203.228 1.45462 -4.3388)
(202.171 0.760587 -6.80696)
(200.079 0.0399613 -9.25994)
(196.748 -0.713183 -11.3906)
(192.076 -1.5068 -12.5401)
(186.655 -2.29084 -12.202)
(201.447 4.59797 3.43516)
(202.92 4.00614 1.9148)
(203.97 3.3541 0.119686)
(204.522 2.68392 -1.99604)
(204.412 2.01677 -4.4047)
(203.431 1.35432 -7.07761)
(201.292 0.69774 -9.85445)
(197.689 0.0306086 -12.4309)
(192.361 -0.674661 -14.0241)
(185.916 -1.44654 -14.0159)
(201.923 2.94655 4.41868)
(203.492 2.20046 2.92645)
(204.635 1.45015 1.10089)
(205.288 0.726187 -1.05709)
(205.28 0.0475681 -3.56689)
(204.387 -0.575913 -6.42441)
(202.279 -1.12799 -9.52868)
(198.546 -1.62283 -12.6126)
(192.727 -2.05171 -14.856)
(185.3 -2.56542 -15.3651)
(201.468 3.59801 3.96309)
(203.078 2.74176 2.6106)
(204.296 1.94713 0.965416)
(205.02 1.1952 -1.04526)
(205.082 0.545679 -3.42921)
(204.246 0.0230588 -6.2037)
(202.167 -0.32324 -9.30935)
(198.369 -0.464773 -12.5)
(192.298 -0.383431 -15.1203)
(184.06 -0.299055 -15.802)
(189.727 1.08455 -0.240061)
(189.757 0.972035 -0.489098)
(189.707 0.859815 -0.749681)
(189.586 0.758076 -0.990583)
(189.4 0.666597 -1.19815)
(189.162 0.586283 -1.35472)
(188.901 0.518152 -1.4324)
(188.699 0.44314 -1.44437)
(188.811 0.321288 -1.34394)
(189.717 0.0454757 -1.19435)
(192.131 2.62638 -0.725705)
(192.213 2.57477 -1.15671)
(192.164 2.4694 -1.55222)
(191.98 2.32346 -1.91659)
(191.665 2.15481 -2.22174)
(191.231 1.97309 -2.43747)
(190.701 1.7873 -2.53159)
(190.113 1.6037 -2.47629)
(189.516 1.4334 -2.24242)
(188.983 1.28887 -1.85943)
(194.091 2.68495 -0.118414)
(194.294 2.54664 -0.779788)
(194.303 2.34491 -1.44909)
(194.105 2.10067 -2.10095)
(193.694 1.82647 -2.69951)
(193.074 1.52965 -3.19181)
(192.264 1.2152 -3.51792)
(191.312 0.888519 -3.61589)
(190.297 0.559276 -3.4231)
(189.344 0.245141 -2.93788)
(195.668 3.53354 0.198141)
(196.049 3.38109 -0.665266)
(196.18 3.14393 -1.55981)
(196.029 2.84373 -2.47258)
(195.571 2.50035 -3.35344)
(194.79 2.12291 -4.13317)
(193.692 1.71936 -4.7193)
(192.32 1.29815 -5.00396)
(190.778 0.87186 -4.86549)
(189.269 0.466751 -4.24757)
(197.113 3.16339 1.23228)
(197.704 2.90677 0.165585)
(197.997 2.57007 -0.998432)
(197.942 2.17531 -2.23142)
(197.49 1.73579 -3.47544)
(196.595 1.25688 -4.64943)
(195.233 0.745399 -5.62868)
(193.427 0.208148 -6.25406)
(191.288 -0.343569 -6.31383)
(189.112 -0.871871 -5.68921)
(198.132 3.93252 1.58992)
(198.945 3.62733 0.402593)
(199.417 3.23324 -0.918806)
(199.486 2.78094 -2.36849)
(199.076 2.28697 -3.88312)
(198.106 1.75554 -5.3803)
(196.509 1.19241 -6.70868)
(194.271 0.599652 -7.65933)
(191.483 -0.0188372 -7.91299)
(188.542 -0.632355 -7.26438)
(199.114 3.13021 2.66139)
(200.128 2.69998 1.35782)
(200.768 2.2008 -0.148667)
(200.969 1.66505 -1.83629)
(200.624 1.10431 -3.65318)
(199.619 0.521367 -5.5218)
(197.836 -0.0805917 -7.27803)
(195.203 -0.70302 -8.67221)
(191.761 -1.34617 -9.26926)
(188.001 -1.96394 -8.75221)
(199.679 3.92468 2.60733)
(200.854 3.43946 1.31712)
(201.634 2.89584 -0.18828)
(201.954 2.33419 -1.9292)
(201.688 1.77431 -3.85736)
(200.69 1.22067 -5.9159)
(198.792 0.675951 -7.94021)
(195.849 0.126933 -9.66238)
(191.817 -0.448645 -10.5345)
(187.245 -1.06091 -10.1357)
(200.186 2.29786 3.61911)
(201.457 1.6677 2.32683)
(202.325 1.02841 0.755956)
(202.729 0.413208 -1.06554)
(202.531 -0.160398 -3.12724)
(201.568 -0.681035 -5.38366)
(199.624 -1.13512 -7.70437)
(196.488 -1.53714 -9.82735)
(191.987 -1.88086 -11.1594)
(186.64 -2.26564 -11.0655)
(199.758 3.12622 3.12037)
(201.07 2.40102 1.94996)
(202.008 1.72974 0.534877)
(202.472 1.09994 -1.16715)
(202.328 0.565627 -3.13415)
(201.394 0.149098 -5.34039)
(199.435 -0.111541 -7.68347)
(196.175 -0.200363 -9.89493)
(191.387 -0.118261 -11.4596)
(185.407 -0.0390984 -11.403)
(189.872 0.727372 -0.164506)
(189.897 0.661834 -0.300019)
(189.874 0.593484 -0.450132)
(189.809 0.532037 -0.585768)
(189.71 0.475155 -0.703233)
(189.583 0.423862 -0.792922)
(189.449 0.380428 -0.833848)
(189.375 0.327912 -0.848043)
(189.599 0.230068 -0.785908)
(190.67 -0.0297511 -0.728787)
(191.728 2.01573 -0.639754)
(191.78 2.01355 -0.905332)
(191.751 1.96463 -1.13643)
(191.638 1.87852 -1.34016)
(191.446 1.77021 -1.50043)
(191.186 1.64844 -1.60014)
(190.874 1.522 -1.62249)
(190.534 1.39735 -1.55441)
(190.197 1.28497 -1.38319)
(189.899 1.19307 -1.13294)
(193.229 1.98247 -0.149417)
(193.363 1.89341 -0.600547)
(193.362 1.7532 -1.0496)
(193.222 1.57743 -1.47699)
(192.941 1.37579 -1.8574)
(192.529 1.15457 -2.15642)
(192.006 0.918689 -2.33839)
(191.409 0.673382 -2.37043)
(190.789 0.426655 -2.22236)
(190.217 0.191124 -1.90598)
(194.513 2.82626 -0.0180082)
(194.776 2.73181 -0.641246)
(194.852 2.56405 -1.27233)
(194.721 2.34109 -1.901)
(194.372 2.08037 -2.48798)
(193.808 1.79107 -2.98331)
(193.044 1.48135 -3.32684)
(192.125 1.16013 -3.45531)
(191.129 0.839588 -3.30718)
(190.179 0.54011 -2.86322)
(195.759 2.45206 0.847016)
(196.185 2.26184 0.032521)
(196.373 2.00257 -0.843171)
(196.289 1.69217 -1.74987)
(195.907 1.34277 -2.63825)
(195.21 0.961086 -3.44333)
(194.204 0.554682 -4.07681)
(192.93 0.131684 -4.43706)
(191.486 -0.296015 -4.40623)
(190.064 -0.699276 -3.93366)
(196.667 3.23593 1.06238)
(197.271 3.00643 0.127803)
(197.591 2.69843 -0.896142)
(197.581 2.3382 -1.99431)
(197.194 1.94108 -3.10849)
(196.389 1.51315 -4.16526)
(195.148 1.06116 -5.04925)
(193.5 0.589516 -5.61664)
(191.549 0.10543 -5.67838)
(189.569 -0.368709 -5.13054)
(197.59 2.448 2.03779)
(198.366 2.10436 0.977409)
(198.817 1.69895 -0.234808)
(198.892 1.26018 -1.56244)
(198.523 0.798747 -2.95336)
(197.641 0.319973 -4.3297)
(196.196 -0.171599 -5.55772)
(194.188 -0.673923 -6.45274)
(191.707 -1.18255 -6.74477)
(189.111 -1.65844 -6.24733)
(198.12 3.31545 1.91)
(199.037 2.92945 0.846627)
(199.604 2.48817 -0.378932)
(199.764 2.02964 -1.76725)
(199.43 1.57114 -3.26387)
(198.51 1.11966 -4.80016)
(196.915 0.679114 -6.23149)
(194.603 0.24039 -7.34777)
(191.628 -0.213115 -7.78974)
(188.415 -0.686169 -7.29807)
(198.639 1.70254 2.93387)
(199.647 1.18208 1.84329)
(200.29 0.648942 0.524931)
(200.516 0.137816 -0.971588)
(200.221 -0.337094 -2.62233)
(199.295 -0.763355 -4.35968)
(197.613 -1.12979 -6.05466)
(195.088 -1.44902 -7.48253)
(191.707 -1.71363 -8.24344)
(187.91 -1.99243 -7.93075)
(198.217 2.71 2.37401)
(199.263 2.11154 1.39093)
(199.968 1.55886 0.208751)
(200.242 1.04535 -1.18853)
(199.982 0.617196 -2.76372)
(199.059 0.29429 -4.46539)
(197.332 0.104072 -6.18111)
(194.661 0.0531651 -7.66623)
(191.01 0.129873 -8.55679)
(186.739 0.197734 -8.20069)
(190.126 0.456549 -0.0954242)
(190.148 0.416906 -0.166427)
(190.138 0.373806 -0.255754)
(190.106 0.337067 -0.334156)
(190.054 0.302626 -0.404246)
(189.988 0.271455 -0.460611)
(189.921 0.246376 -0.485418)
(189.91 0.211684 -0.505735)
(190.178 0.134029 -0.467515)
(191.327 -0.111676 -0.464417)
(191.567 1.55484 -0.55473)
(191.601 1.58149 -0.71318)
(191.585 1.56892 -0.840947)
(191.52 1.52383 -0.94662)
(191.408 1.45876 -1.0223)
(191.256 1.38143 -1.05867)
(191.076 1.29993 -1.04722)
(190.883 1.22021 -0.98161)
(190.694 1.15183 -0.856236)
(190.526 1.0997 -0.68798)
(192.672 1.41565 -0.135504)
(192.761 1.35871 -0.435949)
(192.759 1.263 -0.731601)
(192.666 1.13949 -1.00765)
(192.483 0.995062 -1.24726)
(192.219 0.834578 -1.42882)
(191.89 0.662197 -1.5315)
(191.521 0.482136 -1.53811)
(191.144 0.300179 -1.43373)
(190.8 0.12463 -1.23269)
(193.68 2.23699 -0.146379)
(193.859 2.18536 -0.582177)
(193.904 2.07219 -1.01324)
(193.802 1.91241 -1.43295)
(193.552 1.72076 -1.81274)
(193.16 1.50574 -2.1184)
(192.644 1.27494 -2.31245)
(192.041 1.03673 -2.35911)
(191.402 0.801895 -2.22856)
(190.803 0.585958 -1.91584)
(194.709 1.84626 0.575824)
(195.011 1.70944 -0.02907)
(195.129 1.51519 -0.67039)
(195.045 1.27746 -1.32085)
(194.745 1.00681 -1.94129)
(194.228 0.710236 -2.48328)
(193.509 0.395245 -2.88753)
(192.631 0.0700319 -3.09215)
(191.667 -0.254534 -3.03366)
(190.738 -0.556955 -2.69378)
(195.478 2.62595 0.665767)
(195.919 2.46002 -0.0477849)
(196.132 2.2268 -0.817134)
(196.085 1.94799 -1.62492)
(195.754 1.63746 -2.42158)
(195.12 1.30214 -3.14766)
(194.192 0.949128 -3.72066)
(193.009 0.583909 -4.04715)
(191.664 0.214789 -4.01954)
(190.335 -0.143687 -3.58949)
(196.316 1.84734 1.54419)
(196.896 1.57943 0.704833)
(197.207 1.25808 -0.244353)
(197.212 0.906992 -1.26198)
(196.867 0.536049 -2.30029)
(196.139 0.151842 -3.29063)
(195.015 -0.240355 -4.13201)
(193.526 -0.636236 -4.69637)
(191.769 -1.02936 -4.8248)
(189.99 -1.38787 -4.41154)
(196.778 2.77682 1.33701)
(197.478 2.47962 0.486657)
(197.88 2.13174 -0.480574)
(197.94 1.76735 -1.55499)
(197.6 1.40169 -2.68251)
(196.808 1.04279 -3.79603)
(195.527 0.69548 -4.7789)
(193.767 0.354139 -5.47894)
(191.619 0.00749034 -5.67074)
(189.382 -0.349324 -5.20968)
(197.293 1.16608 2.36207)
(198.075 0.745688 1.4651)
(198.54 0.310756 0.386018)
(198.647 -0.104529 -0.812506)
(198.323 -0.489458 -2.10276)
(197.499 -0.831487 -3.41093)
(196.114 -1.12171 -4.626)
(194.153 -1.37055 -5.57146)
(191.673 -1.56833 -5.99212)
(189.009 -1.76574 -5.6462)
(196.861 2.35495 1.72616)
(197.676 1.87487 0.926353)
(198.193 1.43256 -0.0308015)
(198.334 1.02589 -1.14162)
(198.028 0.692266 -2.36483)
(197.19 0.449117 -3.63754)
(195.744 0.314676 -4.8571)
(193.639 0.289406 -5.82213)
(190.93 0.356714 -6.29661)
(187.923 0.41029 -5.85903)
(190.408 0.249398 -0.0347643)
(190.426 0.223448 -0.0701897)
(190.424 0.194239 -0.127474)
(190.408 0.172143 -0.175755)
(190.381 0.151731 -0.221693)
(190.347 0.133891 -0.26199)
(190.315 0.121667 -0.280215)
(190.332 0.100231 -0.30684)
(190.608 0.0389404 -0.282952)
(191.785 -0.194827 -0.312733)
(191.548 1.21766 -0.48181)
(191.571 1.25969 -0.57297)
(191.564 1.26931 -0.637585)
(191.527 1.25117 -0.684661)
(191.464 1.21584 -0.711601)
(191.377 1.17005 -0.713493)
(191.275 1.12104 -0.686188)
(191.167 1.07409 -0.626441)
(191.061 1.03796 -0.531772)
(190.966 1.01525 -0.412699)
(192.33 0.968491 -0.0988821)
(192.389 0.930724 -0.295511)
(192.388 0.865671 -0.488094)
(192.33 0.780376 -0.66546)
(192.215 0.679206 -0.816765)
(192.051 0.565537 -0.928722)
(191.849 0.442459 -0.989202)
(191.624 0.312871 -0.989051)
(191.396 0.180294 -0.920279)
(191.189 0.0494734 -0.796282)
(193.101 1.75904 -0.21504)
(193.222 1.73699 -0.510271)
(193.249 1.66474 -0.795305)
(193.177 1.55452 -1.0668)
(193.005 1.41832 -1.30526)
(192.742 1.2635 -1.48812)
(192.402 1.09663 -1.59259)
(192.012 0.924937 -1.59878)
(191.606 0.757442 -1.49281)
(191.228 0.606079 -1.27427)
(193.918 1.34521 0.391233)
(194.127 1.24934 -0.0466267)
(194.202 1.10747 -0.505139)
(194.131 0.929971 -0.96197)
(193.908 0.725614 -1.38781)
(193.539 0.500902 -1.74834)
(193.04 0.262669 -2.0051)
(192.446 0.0183425 -2.12146)
(191.81 -0.223006 -2.06373)
(191.205 -0.445907 -1.82809)
(194.539 2.10422 0.377581)
(194.854 1.9893 -0.150798)
(194.994 1.81844 -0.711588)
(194.938 1.60906 -1.28917)
(194.673 1.37317 -1.84403)
(194.196 1.11768 -2.33107)
(193.523 0.849453 -2.69378)
(192.694 0.574077 -2.87371)
(191.779 0.29957 -2.81119)
(190.892 0.0343001 -2.48695)
(195.278 1.33256 1.16343)
(195.702 1.12839 0.516384)
(195.913 0.879717 -0.207769)
(195.884 0.605376 -0.969327)
(195.59 0.314242 -1.72765)
(195.017 0.0131551 -2.42713)
(194.173 -0.292514 -2.99538)
(193.098 -0.597389 -3.34723)
(191.874 -0.89496 -3.39362)
(190.663 -1.15913 -3.07508)
(195.65 2.31233 0.877886)
(196.171 2.09169 0.219127)