/*--------------------------------*- C++ -*----------------------------------*\
| =========                 |                                                 |
| \\      /  F ield         | foam-extend: Open Source CFD                    |
|  \\    /   O peration     | Version:     4.0                                |
|   \\  /    A nd           | Web:         http://www.foam-extend.org         |
|    \\/     M anipulation  |                                                 |
\*---------------------------------------------------------------------------*/
FoamFile
{
    version     2.0;
    format      ascii;
    class       volScalarField;
    location    "2100";
    object      epsilon;
}
// * * * * * * * * * * * * * * * * * * * * * * * * * * * * * * * * * * * * * //

dimensions      [0 2 -3 0 0 0 0];

internalField   nonuniform List<scalar> 
34480
(
4930.63
4928.6
4928.49
4929.99
4933.21
4938.38
4951
5004.64
5194.49
5725.79
655.459
602.16
601.24
653.213
838.758
1576.07
5099.52
22849.7
103709
382385
618.807
523.153
509.504
569.144
809.947
1829.12
7041.7
35119.3
172536
699244
524.825
439.418
427.379
485.083
733.802
1883.41
8219.42
44412.9
232221
1.01098e+06
456.667
384.787
377.349
433.114
684.809
1927.54
9178.03
52591.9
289187
1.33362e+06
392.497
332.814
326.579
378.447
628.346
1956.24
10121.4
61046
350636
1.69871e+06
353.26
302.764
298.365
346.384
591.454
1962.74
10725.7
67199.8
400352
2.02275e+06
321.356
282.094
277.691
317.481
534.171
1820.46
10350.3
66983.3
412649
2.16761e+06
460.04
435.956
433.346
458.752
597.07
1410.09
6840.8
43695.2
275983
1.49849e+06
5709.12
5709.35
5714.8
5726.76
5743.58
5763.66
5787.86
5823.81
5890.21
5958.86
4856.06
4853.54
4853.05
4854.54
4858.55
4865.56
4876.7
4902.82
4965.46
5185.98
512.082
479.211
473.575
487.695
532.099
648.54
1002.87
2354.53
11801.2
103648
447.048
383.978
370.278
389.684
458.478
645.756
1229.68
3567.11
21358.1
197643
399.639
338.699
325.239
344.947
416.415
620.161
1294.45
4289.53
30234.7
294759
365.863
311.13
300.59
319.799
390.749
598.884
1321.78
4812.17
38717.4
396507
326.339
278.955
269.146
286.43
352.207
554.103
1294.06
5180.36
47349.3
508571
302.534
260.836
252.656
267.917
328.905
521.417
1256.1
5360.98
54216.9
607817
283.102
249.953
242.275
253.891
301.54
456.609
1074.58
4827.87
54992.4
652022
432.838
410.948
405.844
413.307
443.423
531.652
848.09
2980.59
36399.6
467542
5591.65
5587.33
5587.85
5594.48
5606.16
5620.75
5640.11
5673.12
5740.78
5913.67
4770.93
4768.53
4767.77
4768.59
4771.22
4775.36
4780.19
4790.98
4815.05
4870.1
399.898
386.452
383.789
388.546
403.679
439.043
527.093
758.601
1516.84
5758.51
308.14
276.908
270.072
279.25
309.661
379.28
550.399
1030.15
2859.51
14988.4
290.269
256.444
248.769
259.346
294.504
378.423
597.211
1279.79
4409.22
28919.6
280.861
247.9
241.45
252.406
289.514
380.299
629.007
1481.32
6140.51
47810.2
261.335
231.079
224.586
234.984
270.679
361.642
625.199
1625.59
8150.94
73154.1
250.541
222.518
216.925
226.414
260.501
349.157
617.149
1724.49
10165.5
101600
243.066
220.096
214.682
222.306
249.639
322.161
549.908
1594.41
11043.4
122899
402.711
386.368
382.617
388.264
408.694
461.596
607.099
1235.52
7681.02
92098
5481.98
5474.88
5472.58
5476.16
5484.96
5496.95
5513.46
5544.23
5616.71
5802.12
4674.91
4673.41
4672.98
4673.62
4675.41
4677.71
4678.71
4681.52
4688.92
4705.04
328.465
324.344
323.525
324.618
328.698
339.05
365.06
421.605
541.214
940.38
219.311
206.056
203.204
207.247
220.639
248.931
309.069
445.235
772.133
2085.82
214.436
197.714
193.78
199.302
217.258
256.749
345.536
565.531
1169.55
4141.63
217.568
199.528
195.939
202.138
222.742
269.287
379.519
675.968
1611.23
7155.39
210.707
192.759
188.72
195.11
216.337
266.414
392.081
761.661
2117.74
11600.1
208.502
190.719
187.072
193.223
214.617
266.144
401.054
827.388
2633.61
17124.4
209.976
194.698
190.975
196.267
214.334
258.883
379.775
795.191
2860.95
21851.6
375.679
363.693
360.859
365.05
380.011
416.98
508.732
782.683
2181.18
16546
5359.98
5352.9
5350.35
5353.41
5361.68
5374.06
5391.19
5422.05
5488.86
5632.07
4569.51
4568.83
4568.68
4569.08
4570.05
4570.77
4569.45
4568.32
4568.26
4570.02
285.511
284.771
284.672
284.44
284.434
286.168
293.405
307.38
329.718
375.961
167.902
162.883
161.841
163.26
168.293
178.514
198.298
237.434
308.118
484.229
166.466
158.74
156.779
159.276
167.532
184.767
219.566
294.213
443.143
889.757
173.91
164.601
162.667
165.757
176.206
198.544
246.028
356.469
601.436
1498.01
173.61
163.417
160.924
164.469
176.203
202.431
261.452
410.915
783.906
2435.02
176.086
165.184
162.812
166.437
179.069
207.871
275.347
457.569
966.556
3640.85
183.347
173.467
170.897
174.277
185.601
212.168
276.67
463.588
1058.71
4746.8
351.35
342.748
340.565
343.453
353.994
379.242
438.166
581.534
1009.51
3814.51
5230.32
5223.38
5220.66
5223.25
5230.86
5242.95
5259.61
5287.99
5343.68
5446.03
4455.7
4455.64
4455.72
4455.94
4456.31
4455.98
4453.96
4451.87
4450.09
4449.02
259.799
259.881
259.964
259.443
258.449
258.048
259.946
263.301
268.034
275.307
139.442
137.795
137.525
137.91
139.525
142.768
148.672
159.187
175.184
203.048
137.534
134.153
133.228
134.274
137.826
144.895
157.835
182.367
222.511
303.003
145.042
140.508
139.558
140.985
145.955
156.009
175.32
215.179
286.348
458.044
147.357
141.836
140.382
142.246
148.404
161.434
187.862
247.285
364.066
701.824
151.777
145.375
143.928
145.953
153.079
168.443
200.803
278.308
444.187
1014.12
162.266
156.164
154.488
156.566
163.393
178.654
212.129
297.462
500.467
1320.64
329.472
323.576
321.969
323.921
331.26
348.537
387.043
467.604
639.999
1290.64
5092.36
5085.82
5083.13
5085.33
5092.24
5103.53
5119.02
5143.93
5187
5254.26
4334.19
4334.55
4334.77
4334.87
4334.86
4333.9
4332.03
4330.02
4328.2
4326.87
243.797
243.752
243.777
243.301
242.371
241.926
242.289
243.019
244.123
245.927
123.983
123.569
123.576
123.614
124.001
124.849
126.393
128.976
132.498
137.196
120.665
119.229
118.805
119.219
120.692
123.515
128.268
136.264
147.557
163.747
126.663
124.56
124.136
124.749
127.002
131.342
138.96
152.943
174.385
210.56
129.504
126.625
125.814
126.747
129.854
136.112
147.658
170.703
209.292
285.817
134.269
130.64
129.802
130.873
134.746
142.683
157.835
190.043
247.852
381.567
146.166
142.564
141.521
142.747
146.709
155.217
172.348
210.933
286.975
489.931
310.141
306.292
305.134
306.427
311.506
323.494
349.132
396.323
479.998
667.566
4945.89
4939.95
4937.41
4939.28
4945.4
4955.44
4969.19
4990.19
5022.65
5066.49
4205.49
4206.1
4206.42
4206.45
4206.2
4205.13
4203.63
4202.04
4200.61
4199.54
232.908
232.484
232.38
232.027
231.434
231.25
231.268
231.417
231.805
232.796
115.6
115.577
115.656
115.605
115.613
115.726
115.998
116.503
117.192
117.984
111.052
110.447
110.253
110.413
111.019
112.152
113.943
116.657
120.075
123.798
115.29
114.362
114.198
114.442
115.429
117.255
120.248
125.186
131.931
140.367
117.752
116.304
115.87
116.32
117.844
120.795
125.85
134.851
148.244
167.562
122.083
120.088
119.629
120.169
122.219
126.247
133.353
146.775
167.944
202.428
134.226
132.208
131.591
132.29
134.514
139.156
147.943
165.5
195.878
252.196
293.162
290.8
289.971
290.827
294.378
302.949
320.346
348.994
394.122
462.639
4790.74
4785.56
4783.28
4784.85
4790.1
4798.62
4810.31
4827.3
4851.17
4880.09
4069.94
4070.69
4071.06
4071.05
4070.68
4069.8
4068.7
4067.54
4066.52
4065.73
224.503
223.703
223.468
223.231
222.983
222.931
222.911
222.974
223.26
224.152
111.005
111.068
111.143
111.087
111.012
110.939
110.887
110.889
110.953
111.059
105.703
105.44
105.348
105.41
105.666
106.136
106.846
107.835
108.976
109.979
108.444
108.056
108.008
108.096
108.516
109.272
110.454
112.242
114.484
116.708
110.261
109.559
109.335
109.546
110.277
111.651
113.889
117.508
122.463
128.097
113.877
112.808
112.57
112.831
113.897
115.927
119.309
125.064
133.302
143.388
125.6
124.539
124.195
124.583
125.794
128.285
132.822
140.975
153.82
171.856
278.189
276.866
276.26
276.842
279.397
285.758
297.748
315.698
341.522
371.322
4626.9
4622.58
4620.63
4621.91
4626.25
4633.15
4642.67
4655.89
4672.98
4691.96
3927.95
3928.6
3929
3928.96
3928.61
3927.99
3927.22
3926.43
3925.73
3925.16
216.926
216.031
215.685
215.536
215.482
215.46
215.461
215.538
215.834
216.726
108.392
108.454
108.506
108.464
108.393
108.299
108.2
108.116
108.073
108.077
102.81
102.685
102.637
102.662
102.778
102.987
103.292
103.688
104.116
104.434
104.448
104.292
104.288
104.316
104.493
104.806
105.28
105.948
106.729
107.391
105.648
105.321
105.209
105.307
105.65
106.283
107.28
108.777
110.713
112.636
108.535
107.971
107.854
107.977
108.529
109.555
111.196
113.759
117.162
120.571
119.492
118.984
118.806
119.018
119.66
120.985
123.325
127.18
132.826
139.525
264.779
264.153
263.685
264.107
266.032
270.898
279.25
290.776
306.136
320.301
4454.51
4451.06
4449.48
4450.5
4453.93
4459.28
4466.73
4476.62
4488.52
4500.77
3779.62
3780.14
3780.47
3780.44
3780.21
3779.79
3779.28
3778.75
3778.29
3777.87
209.481
208.599
208.258
208.151
208.116
208.112
208.133
208.228
208.539
209.428
106.793
106.835
106.868
106.84
106.786
106.714
106.635
106.565
106.529
106.536
101.295
101.227
101.199
101.211
101.268
101.371
101.516
101.695
101.881
101.999
102.196
102.133
102.138
102.147
102.224
102.361
102.563
102.829
103.117
103.339
102.916
102.77
102.716
102.761
102.92
103.209
103.654
104.285
105.066
105.814
105.177
104.878
104.823
104.882
105.173
105.703
106.52
107.712
109.19
110.497
115.214
115.008
114.925
115.042
115.376
116.078
117.268
119.1
121.603
124.392
252.448
252.272
251.882
252.215
253.754
257.505
263.343
270.859
280.265
287.086
4273.84
4271.23
4270.02
4270.79
4273.38
4277.36
4282.96
4290.09
4298.13
4305.89
3625.1
3625.51
3625.77
3625.76
3625.62
3625.35
3625.01
3624.67
3624.37
3624.04
201.821
200.966
200.655
200.561
200.535
200.539
200.57
200.671
200.985
201.857
105.698
105.72
105.738
105.72
105.685
105.638
105.588
105.546
105.532
105.552
100.53
100.488
100.472
100.478
100.508
100.562
100.638
100.728
100.822
100.874
100.978
100.947
100.95
100.953
100.992
101.062
101.16
101.283
101.404
101.494
101.368
101.305
101.28
101.301
101.374
101.506
101.704
101.973
102.295
102.62
103.14
102.974
102.949
102.981
103.141
103.428
103.854
104.44
105.119
105.682
112.203
112.149
112.119
112.185
112.359
112.725
113.312
114.17
115.246
116.504
240.731
240.833
240.477
240.764
242.076
244.885
248.944
253.87
259.754
262.809
4085.33
4083.46
4082.59
4083.15
4084.99
4087.87
4091.91
4096.86
4102.13
4106.94
3464.58
3464.93
3465.13
3465.13
3465.04
3464.87
3464.66
3464.44
3464.25
3463.98
193.767
192.947
192.665
192.581
192.559
192.565
192.597
192.695
193.002
193.847
104.847
104.856
104.863
104.852
104.831
104.804
104.776
104.755
104.76
104.789
100.159
100.133
100.124
100.127
100.143
100.171
100.211
100.259
100.311
100.338
100.349
100.327
100.326
100.328
100.353
100.397
100.457
100.527
100.591
100.641
100.535
100.508
100.496
100.506
100.541
100.601
100.69
100.806
100.941
101.099
101.942
101.843
101.831
101.852
101.948
102.115
102.352
102.664
103.001
103.281
110.018
110.035
110.032
110.072
110.165
110.346
110.619
111.003
111.418
112.028
229.207
229.474
229.121
229.388
230.524
232.494
235.276
238.488
242.214
243.255
3889.53
3888.27
3887.7
3888.08
3889.31
3891.36
3894.16
3897.45
3900.78
3903.71
3298.38
3298.67
3298.82
3298.83
3298.78
3298.68
3298.54
3298.4
3298.28
3298.04
185.211
184.43
184.176
184.103
184.082
184.087
184.115
184.204
184.498
185.309
104.114
104.113
104.114
104.107
104.095
104.082
104.069
104.062
104.079
104.114
99.9895
99.9742
99.9702
99.9717
99.9792
99.9921
100.011
100.034
100.064
100.08
100.045
100.025
100.019
100.021
100.04
100.073
100.117
100.167
100.21
100.245
100.114
100.102
100.096
100.101
100.118
100.146
100.187
100.239
100.296
100.382
101.253
101.188
101.18
101.197
101.26
101.366
101.509
101.691
101.876
102.044
108.329
108.384
108.393
108.42
108.468
108.549
108.66
108.813
108.924
109.247
217.322
217.837
217.512
217.772
218.584
219.93
221.791
223.856
226.218
226.177
3687.21
3686.36
3686.01
3686.25
3687.09
3688.47
3690.32
3692.42
3694.44
3696.19
3126.88
3127.13
3127.24
3127.25
3127.22
3127.16
3127.08
3126.99
3126.9
3126.69
176.069
175.332
175.106
175.045
175.023
175.025
175.048
175.125
175.401
176.175
103.438
103.432
103.429
103.425
103.419
103.415
103.412
103.414
103.437
103.475
99.9214
99.9142
99.9136
99.9141
99.9159
99.9192
99.9249
99.9341
99.9506
99.9614
99.9112
99.8928
99.8849
99.8865
99.9013
99.9277
99.9622
100
100.033
100.062
99.9194
99.9129
99.909
99.9115
99.9202
99.935
99.9549
99.9792
100.005
100.056
100.853
100.807
100.801
100.815
100.86
100.931
101.024
101.14
101.253
101.373
106.922
106.989
107.009
107.025
107.046
107.076
107.108
107.153
107.128
107.32
204.841
205.495
205.298
205.48
206.023
206.908
208.105
209.4
210.875
210.284
3479.12
3478.58
3478.36
3478.52
3479.06
3479.95
3481.11
3482.38
3483.54
3484.56
2950.62
2950.82
2950.91
2950.92
2950.91
2950.87
2950.82
2950.76
2950.7
2950.5
166.262
165.572
165.376
165.327
165.304
165.304
165.319
165.383
165.637
166.371
102.797
102.788
102.782
102.78
102.778
102.779
102.782
102.789
102.815
102.856
99.9046
99.9026
99.9041
99.9039
99.9024
99.9002
99.8985
99.8994
99.9074
99.9167
99.8646
99.8483
99.8399
99.8409
99.8524
99.8727
99.8993
99.9285
99.9547
99.9785
99.845
99.8398
99.8367
99.8378
99.8429
99.8514
99.8622
99.8747
99.8867
99.9199
100.607
100.572
100.567
100.578
100.61
100.66
100.724
100.8
100.875
100.969
105.657
105.722
105.745
105.756
105.764
105.77
105.767
105.766
105.687
105.819
191.594
192.298
192.203
192.325
192.668
193.215
193.936
194.72
195.602
194.782
3266.15
3265.82
3265.69
3265.8
3266.13
3266.66
3267.35
3268.07
3268.68
3269.26
2770.32
2770.49
2770.55
2770.56
2770.56
2770.54
2770.5
2770.46
2770.42
2770.24
155.694
155.055
154.887
154.85
154.833
154.831
154.84
154.889
155.116
155.807
102.185
102.174
102.166
102.164
102.165
102.169
102.176
102.186
102.211
102.254
99.9138
99.914
99.916
99.9154
99.9126
99.9081
99.9032
99.9003
99.9033
99.913
99.8609
99.8473
99.8399
99.8403
99.8483
99.8628
99.8819
99.903
99.9229
99.9422
99.8324
99.8276
99.825
99.8253
99.8283
99.8334
99.8395
99.8464
99.8524
99.8738
100.43
100.403
100.398
100.407
100.429
100.463
100.506
100.556
100.606
100.683
104.458
104.51
104.532
104.54
104.542
104.539
104.524
104.506
104.416
104.517
177.435
178.119
178.103
178.182
178.378
178.679
179.059
179.501
179.974
179.133
3049.37
3049.19
3049.11
3049.18
3049.36
3049.66
3050.03
3050.4
3050.68
3051
2586.97
2587.12
2587.16
2587.17
2587.17
2587.16
2587.13
2587.1
2587.06
2586.9
144.231
143.654
143.513
143.489
143.484
143.482
143.484
143.516
143.706
144.352
101.609
101.596
101.588
101.586
101.588
101.593
101.6
101.611
101.633
101.677
99.9328
99.9326
99.934
99.9332
99.9304
99.926
99.9212
99.9177
99.9184
99.929
99.8783
99.8679
99.8623
99.8622
99.8672
99.8764
99.8887
99.9026
99.9166
99.9314
99.8521
99.8483
99.8462
99.846
99.8474
99.8501
99.8531
99.8563
99.8592
99.8717
100.273
100.253
100.249
100.254
100.268
100.289
100.315
100.345
100.377
100.436
103.291
103.328
103.345
103.35
103.35
103.343
103.325
103.304
103.225
103.304
162.208
162.816
162.864
162.911
162.998
163.119
163.249
163.454
163.627
162.904
2830.08
2829.99
2829.95
2829.98
2830.07
2830.22
2830.4
2830.56
2830.67
2830.83
2401.73
2401.84
2401.87
2401.88
2401.88
2401.87
2401.85
2401.83
2401.8
2401.67
131.646
131.153
131.062
131.051
131.05
131.046
131.042
131.056
131.188
131.768
101.087
101.072
101.064
101.062
101.064
101.068
101.075
101.085
101.102
101.142
99.9496
99.9477
99.9479
99.9469
99.9449
99.9422
99.9391
99.937
99.9374
99.9479
99.9083
99.9014
99.8978
99.8975
99.9002
99.9052
99.9121
99.9202
99.9289
99.9392
99.89
99.8877
99.8863
99.8859
99.8863
99.887
99.8878
99.8885
99.8893
99.895
100.119
100.106
100.103
100.105
100.112
100.123
100.136
100.151
100.168
100.208
102.169
102.188
102.199
102.2
102.196
102.187
102.17
102.151
102.097
102.157
145.451
145.928
145.962
145.998
146.058
146.138
146.22
146.279
146.211
145.692
2609.71
2609.66
2609.65
2609.66
2609.69
2609.74
2609.79
2609.83
2609.87
2609.94
2215.03
2215.09
2215.1
2215.1
2215.1
2215.1
2215.09
2215.09
2215.09
2215.03
117.389
117.051
117.021
117.025
117.027
117.022
117.012
117.005
117.05
117.478
100.625
100.609
100.601
100.598
100.599
100.602
100.608
100.617
100.63
100.662
99.9659
99.9637
99.963
99.9623
99.9614
99.9603
99.9592
99.9586
99.9593
99.9663
99.9506
99.9469
99.9451
99.9449
99.9461
99.9485
99.9517
99.9556
99.9601
99.9657
99.9406
99.9396
99.9389
99.9386
99.9385
99.9383
99.938
99.9376
99.9373
99.9386
100.009
100.004
100.002
100.003
100.006
100.01
100.014
100.019
100.026
100.045
101.125
101.127
101.129
101.128
101.122
101.113
101.1
101.087
101.069
101.111
125.762
126.044
126.062
126.082
126.115
126.157
126.2
126.224
126.174
125.833
2388.98
2388.96
2388.97
2388.97
2388.97
2388.97
2388.97
2388.97
2388.95
2388.99
7183.91
7294.22
7250.48
7044.03
658912
683859
689423
697308
1.49739e+06
1.5841e+06
1.59161e+06
1.57172e+06
2.52527e+06
2.70357e+06
2.70103e+06
2.61952e+06
3.76097e+06
4.05609e+06
4.02975e+06
3.86818e+06
5.30803e+06
5.75135e+06
5.69981e+06
5.48693e+06
6.86847e+06
7.46742e+06
7.40361e+06
7.20688e+06
7.88278e+06
8.61068e+06
8.55599e+06
8.42793e+06
5.61958e+06
6.17901e+06
6.11495e+06
6.08112e+06
7903.57
8151.31
7988.96
7569.76
5749.29
5802.08
5804.61
5765.48
308549
324668
345342
377324
689319
780860
824923
861808
1.17797e+06
1.40288e+06
1.46609e+06
1.49202e+06
1.76356e+06
2.17758e+06
2.25149e+06
2.26495e+06
2.45883e+06
3.11243e+06
3.21168e+06
3.24757e+06
3.13174e+06
4.04025e+06
4.20103e+06
4.31984e+06
3.57326e+06
4.70397e+06
4.94525e+06
5.18011e+06
2.80673e+06
3.81849e+06
4.00708e+06
4.32021e+06
7126.33
7357.92
7286.97
7066.61
4937.89
4948.84
4947.99
4938.27
21660.7
25959.6
24596.4
19966.1
61569.2
73408.7
68677.7
55730.4
128748
152838
140886
114032
228361
270536
246269
199438
372380
441933
401382
326404
545330
648540
591608
485403
702802
839394
769569
636838
584453
696861
629349
524647
6344.34
6431.64
6409.33
6314
4716
4718.12
4718.68
4717.87
1594.3
1711.27
1679.84
1544.97
4698.11
5172.38
5012.53
4434.54
11230.5
12505
11926.3
10213.5
22554.8
25253.9
23699.6
19746
41691.9
46923.5
43528.4
35537.1
68296.1
76986.5
70797.4
57129.7
97161.4
109915
100445
80429.7
83359
93766.2
84199.9
67266.3
5904.02
5945.71
5942.83
5904.91
4568
4568.91
4569.12
4568.59
423.287
436.216
438.469
431.554
710.111
757.05
761.563
731.373
1595.03
1736.82
1729.31
1610.29
3203.62
3529.33
3458.54
3118.65
6140.17
6823.46
6583.19
5758.29
10498.4
11694
11109.4
9472.8
15692.4
17555.9
16464.1
13724.8
13860.6
15397.5
14114.1
11586.5
5578.72
5600.75
5602.23
5586.62
4444.96
4445.71
4445.79
4445.16
275.589
278.461
279.172
277.913
226.36
231.46
233.287
232.247
385.584
403.076
407.314
400.544
674.052
717.864
722.116
696.122
1215.17
1316.49
1312.66
1233.53
2023.67
2211.48
2175.79
1991.43
3047.02
3360.55
3262.02
2904.6
2929.06
3183.39
3023.51
2664.22
5318.17
5328.95
5331.09
5325.53
4322.62
4323.34
4323.39
4322.76
241.777
243.682
244.082
243.024
140.135
140.889
141.242
141.228
175.866
178.565
179.693
179.438
243.2
250.228
252.464
250.763
368.972
386.598
390.327
383.185
549.228
582.692
585.335
565.816
795.535
855
852.157
807.148
984.71
1029.75
1010.28
962.52
5095.78
5100.66
5102.51
5101.26
4195.5
4196.2
4196.26
4195.65
228.096
229.813
230.152
229.142
118.189
118.327
118.382
118.358
125.852
126.302
126.527
126.554
146.029
147.259
147.803
147.781
183.405
186.917
188.184
187.623
233.788
240.342
242.098
240.311
314.616
327.189
329.129
323.573
543.039
548.702
546.187
542.497
4893.66
4895.67
4896.96
4897.15
4061.96
4062.61
4062.67
4062.11
219.491
221.146
221.474
220.499
110.888
110.945
110.954
110.915
110.346
110.419
110.457
110.465
117.765
117.975
118.086
118.118
131.711
132.521
132.875
132.842
149.878
151.235
151.775
151.735
187.36
190.301
191.147
190.487
400.187
397.211
396.465
399.124
4698.45
4699.14
4699.92
4700.4
3921.66
3922.27
3922.32
3921.8
212.196
213.795
214.116
213.178
107.868
107.917
107.921
107.881
104.484
104.491
104.494
104.494
107.574
107.596
107.61
107.622
113.656
113.877
113.977
113.969
121.961
122.212
122.351
122.428
144.58
145.283
145.546
145.485
335.329
330.248
329.468
332.883
4503.81
4503.91
4504.33
4504.79
3774.64
3775.19
3775.24
3774.77
205.055
206.596
206.908
206.007
106.338
106.386
106.391
106.353
101.988
101.986
101.984
101.983
103.357
103.35
103.347
103.349
106.198
106.277
106.309
106.296
110.766
110.778
110.804
110.857
126.729
126.86
126.912
126.907
297.589
292.079
291.173
294.488
4307.1
4306.97
4307.19
4307.54
3621.09
3621.58
3621.62
3621.2
197.658
199.136
199.437
198.576
105.37
105.417
105.423
105.388
100.853
100.851
100.849
100.848
101.489
101.481
101.476
101.476
102.817
102.856
102.869
102.856
105.715
105.685
105.683
105.713
117.998
117.976
117.958
117.946
271.425
265.971
265.017
268.132
4107.11
4106.94
4107.04
4107.27
3461.3
3461.73
3461.76
3461.39
189.834
191.248
191.537
190.716
104.624
104.668
104.674
104.641
100.318
100.317
100.316
100.315
100.637
100.632
100.629
100.627
101.224
101.249
101.256
101.244
103.288
103.261
103.254
103.27
113.192
113.133
113.093
113.071
250.817
245.569
244.622
247.545
3903.26
3903.13
3903.18
3903.29
3295.65
3296.02
3296.04
3295.71
181.495
182.842
183.12
182.341
103.966
104.007
104.013
103.983
100.064
100.064
100.064
100.063
100.245
100.243
100.241
100.239
100.469
100.488
100.492
100.482
102.071
102.055
102.049
102.055
110.241
110.18
110.134
110.104
232.982
227.993
227.083
229.828
3695.34
3695.31
3695.33
3695.33
3124.61
3124.91
3124.91
3124.63
172.574
173.852
174.119
173.385
103.349
103.387
103.392
103.364
99.9512
99.9523
99.9524
99.9515
100.065
100.064
100.063
100.061
100.119
100.132
100.135
100.127
101.425
101.419
101.415
101.415
108.201
108.151
108.107
108.067
216.458
211.757
210.9
213.472
3483.46
3483.54
3483.55
3483.46
2948.75
2948.98
2948.97
2948.74
163
164.211
164.468
163.78
102.757
102.792
102.798
102.772
99.9133
99.9154
99.9157
99.9142
99.9827
99.9827
99.9819
99.9807
99.9646
99.9738
99.975
99.9685
101.04
101.043
101.041
101.035
106.605
106.574
106.534
106.484
200.392
196.01
195.221
197.612
3268
3268.19
3268.2
3268.04
2768.85
2769
2768.97
2768.79
152.691
153.837
154.086
153.445
102.191
102.224
102.229
102.205
99.9167
99.9199
99.9202
99.9179
99.9475
99.9481
99.9478
99.9469
99.9035
99.9096
99.9099
99.9049
100.761
100.771
100.77
100.761
105.209
105.2
105.167
105.106
184.223
180.215
179.512
181.698
3049.65
3049.93
3049.94
3049.73
2585.92
2586
2585.95
2585.82
141.543
142.634
142.878
142.281
101.648
101.68
101.685
101.662
99.9386
99.9427
99.9431
99.9401
99.9374
99.9384
99.9385
99.9379
99.889
99.8924
99.8924
99.8891
100.511
100.524
100.524
100.514
103.877
103.891
103.867
103.8
167.522
164.008
163.415
165.334
2829.46
2829.79
2829.81
2829.58
2401.16
2401.14
2401.08
2401.01
129.373
130.425
130.665
130.103
101.141
101.169
101.172
101.151
99.9597
99.9641
99.9645
99.9612
99.9447
99.9459
99.9463
99.9461
99.9026
99.904
99.9038
99.9023
100.268
100.28
100.281
100.272
102.554
102.581
102.566
102.506
149.614
146.669
146.227
147.864
2608.73
2609.1
2609.12
2608.88
2215.02
2214.86
2214.8
2214.85
115.752
116.733
116.939
116.406
100.666
100.683
100.684
100.67
99.9738
99.9764
99.9766
99.9746
99.9697
99.9706
99.971
99.9711
99.9404
99.9405
99.9404
99.9402
100.077
100.084
100.085
100.08
101.288
101.296
101.289
101.264
128.33
126.309
126.072
127.23
2388.2
2388.59
2388.6
2388.34
6105.8
5442.87
5173.12
5076.99
5022.18
4983.66
4958.06
4943.68
4935.7
4930.95
798403
193284
33404
11732.5
5300.81
2836.36
1749.36
1212.54
928.32
765.138
1.42407e+06
247048
44254.1
15129.3
6776.39
3637.37
2200.48
1460.42
1048.24
803.007
1.99548e+06
239532
46768
15018
6483.11
3391.09
2000.49
1297.47
912.899
688.57
2.45863e+06
252609
48934.5
14560.9
6098.19
3102.17
1792.01
1144.41
795.479
596.695
2.93034e+06
276394
51142.6
13974.5
5638.52
2768.56
1561.52
981.185
677.38
508.274
3.31251e+06
294966
52001.5
13162.3
5158.66
2467.85
1375.77
861.535
595.625
450.398
3.39643e+06
287380
47700.9
11002.1
4164.22
1946.72
1093.03
700.31
502.938
394.794
2.34153e+06
182147
27371.4
5711.23
2275.2
1237.9
858.007
671.604
568.178
506.572
6016.21
5992.97
5847.2
5822.8
5779.39
5755.09
5735.81
5725.56
5718.64
5712.69
5443.26
5175.18
5045.25
4972.68
4927.13
4897.12
4877.67
4866.12
4859.9
4855.96
180238
44894.6
13613.3
5322.68
2635.44
1567.19
1065.11
802.481
656.255
572.305
375675
86408.4
23466.9
8290.71
3888.99
2187.73
1383.83
956.17
710.766
565.734
595030
126244
30701.2
9651.46
4227.97
2261.51
1372.55
915.82
661.572
515.48
830491
165011
36427.3
10417.5
4317.53
2219.9
1310.33
857.607
610.386
471.995
1.10978e+06
207209
41753.2
10864
4247.14
2091.43
1198.73
768.883
542.076
418.472
1.38888e+06
244449
45355.7
10850.8
4055.83
1939.26
1095.7
699.587
493.227
382.944
1.56423e+06
258677
43998.4
9553.35
3395.84
1585.33
900.734
587.793
429.935
345.812
1.1822e+06
178724
26852.9
5249.84
1966.83
1091.41
771.654
615.199
526.594
476.283
6252.84
5952.91
5792.79
5733.96
5683.08
5652.31
5630.02
5616.41
5606.83
5598.53
4903.99
4869.16
4841.69
4818.89
4801.07
4788.15
4779.54
4774.38
4771.52
4769.47
9199.39
4175.69
2298.78
1432.74
985.388
735.857
591.216
504.964
452.254
420.447
23997.4
9564.36
4650.06
2546.78
1542.02
1010.21
712.657
538.329
431.102
364.748
45437
15961.6
6937.93
3411.06
1898.28
1159
771.507
555.673
428.52
352.731
73592.5
22902.2
9011.71
4056.05
2119.68
1232.33
791.783
556.644
421.531
343.274
112047
31041.5
11040.8
4548.41
2235.27
1237.02
767.179
526.28
393.51
318.982
156044
38869.2
12577.6
4795.15
2251.79
1206.01
734.772
500.587
373.469
303.533
191499
42871.2
12521.5
4385.68
1974.95
1036.74
636.271
443.059
341.766
286.179
141661
27755.6
7304.46
2547.39
1307.85
842.949
642.71
536.567
472.995
436.289
6018.33
5835.85
5711.24
5637.38
5584.28
5551.16
5528.14
5512.46
5500.88
5490.91
4712.97
4704.61
4695.44
4687.2
4680.95
4676.69
4674.04
4672.68
4672.35
4671.97
1208.03
906.467
708.855
570.468
479.258
420.773
383.193
358.481
341.799
331.527
3028.67
1919.44
1270.35
860.741
612.377
460.942
367.172
307.607
268.165
242.3
6220.83
3481.14
2057.49
1252.15
812.871
564.693
420.241
333.131
278.33
243.978
10746.9
5351.2
2878.31
1610.55
978.838
644.275
460.257
354.597
289.912
250.451
17346.3
7666.84
3761.58
1939.13
1105.23
689.166
472.649
353.774
284.436
243.616
25222
9947.96
4497.02
2165.97
1178.9
709.704
476.405
352.866
281.934
240.942
32103.6
11242.6
4659.48
2095.24
1100.71
652.781
441.608
333
272.794
238.099
23544.2
7367.37
2961.88
1443.43
906.144
663.586
542.619
472.665
427.905
401.446
5789.06
5660.53
5561.79
5497.89
5453.8
5424.92
5404.2
5389.35
5378.14
5368.66
4567.57
4566.34
4565.09
4564.13
4563.55
4563.31
4563.33
4563.71
4564.62
4565.46
412.728
382.964
356.669
334.886
318.458
306.414
297.565
290.936
285.858
282.611
637.756
512.539
411.722
334.513
279.758
241.957
216.074
198.172
185.234
176.179
1287.27
926.076
666.27
486.298
369.847
294.966
246.635
214.936
193.463
179.264
2276.12
1481.75
973.413
652.896
462.863
348.837
279.635
236.701
208.345
189.974
3814.32
2241.04
1346.95
830.667
548.861
390.258
299.435
245.694
212.117
191.237
5703.74
3044.46
1696.39
978.358
614.8
420.824
314.955
254.777
217.678
194.938
7460.63
3599.99
1861.29
1012.38
616.779
417.074
313.391
255.923
221.784
201.017
5662.43
2637.13
1436.21
904.155
665.89
539.379
466.855
421.204
389.964
371.096
5535.68
5459.63
5394.36
5347.96
5314.04
5289.78
5271.52
5257.82
5247.24
5238.42
4444.78
4444.9
4445.19
4445.67
4446.27
4446.9
4447.56
4448.36
4449.57
4451.01
277.888
274.89
271.419
267.993
264.975
262.415
260.261
258.414
256.791
255.487
225.925
210.877
194.963
180.653
169.146
160.376
153.851
148.963
145.035
142.074
373.136
321.831
273.24
233.344
203.637
182.281
167.099
156.242
148.277
142.751
613.197
488.043
382.08
302.914
248.818
212.617
188.484
172.247
160.533
152.453
1013.15
737.772
529.304
386.607
296.648
240.22
204.68
181.849
166.424
156.304
1522.15
1022.74
681.337
465.955
339.926
265.199
220.358
192.768
174.281
162.236
2045.54
1267.06
790.244
514.317
364.941
280.921
232.637
203.524
184.88
172.956
1814.44
1182.41
824.927
628.737
519.806
452.687
409.118
379.511
357.928
344.65
5303.33
5261.68
5221.85
5189.96
5164.53
5144.79
5129.22
5117.07
5107.46
5099.58
4322.51
4322.78
4323.23
4323.84
4324.52
4325.21
4325.86
4326.62
4327.76
4329.21
244.177
244.015
243.669
243.199
242.684
242.15
241.601
241.016
240.375
239.618
140.671
138.603
136.042
133.465
131.202
129.349
127.883
126.7
125.584
124.654
176.556
168.272
158.71
149.715
142.177
136.16
131.443
127.752
124.824
122.726
241.578
220.119
197.597
178.254
163.323
152.232
144.103
138.16
133.434
129.971
355.629
303.675
254.583
215.801
188
168.57
155.05
145.572
138.634
133.881
503.86
404.364
318.13
255.357
213.455
185.772
167.407
155.116
146.111
139.898
681.144
513.427
382.552
294.85
240.147
205.645
183.589
169.09
159.11
152.47
826.684
675.218
559.14
481.199
428.727
391.944
365.439
346.186
331.322
322.019
5091.77
5069.89
5046.1
5024.51
5005.81
4990.27
4977.47
4967.12
4958.73
4951.97
4195.42
4195.62
4195.96
4196.42
4196.93
4197.44
4197.9
4198.46
4199.39
4200.66
230.443
230.671
230.775
230.787
230.729
230.604
230.41
230.124
229.721
229.085
118.339
118.071
117.707
117.306
116.937
116.634
116.404
116.207
115.926
115.638
126.158
124.612
122.561
120.39
118.365
116.581
115.05
113.75
112.651
111.857
146.602
142.55
137.537
132.673
128.478
125.037
122.286
120.122
118.218
116.741
183.563
172.781
160.748
149.916
141.153
134.337
129.115
125.143
122.023
119.832
231.576
210.511
188.334
169.885
155.902
145.594
138.048
132.588
128.224
125.058
302.868
263.991
227.256
198.866
178.537
164.159
153.997
146.778
141.493
137.889
515.497
472.602
430.216
396.138
369.324
348.448
332.063
319.462
309.227
302.738
4892.53
4880.77
4866.39
4851.93
4838.51
4826.71
4816.58
4808.12
4801.09
4795.51
4061.87
4062.01
4062.23
4062.53
4062.86
4063.18
4063.45
4063.8
4064.5
4065.56
221.792
222.058
222.206
222.276
222.282
222.225
222.094
221.865
221.499
220.867
110.951
110.94
110.928
110.913
110.91
110.929
110.97
111.005
110.952
110.856
110.387
110.046
109.543
108.952
108.349
107.772
107.239
106.755
106.327
106.022
117.934
117.078
115.872
114.565
113.325
112.22
111.276
110.492
109.719
109.079
132.023
129.426
126.189
122.908
119.953
117.43
115.336
113.634
112.221
111.224
150.424
145.534
139.437
133.688
128.789
124.801
121.627