/*--------------------------------*- C++ -*----------------------------------*\
| =========                 |                                                 |
| \\      /  F ield         | foam-extend: Open Source CFD                    |
|  \\    /   O peration     | Version:     4.0                                |
|   \\  /    A nd           | Web:         http://www.foam-extend.org         |
|    \\/     M anipulation  |                                                 |
\*---------------------------------------------------------------------------*/
FoamFile
{
    version     2.0;
    format      ascii;
    class       volScalarField;
    location    "2100";
    object      k;
}
// * * * * * * * * * * * * * * * * * * * * * * * * * * * * * * * * * * * * * //

dimensions      [0 2 -2 0 0 0 0];

internalField   nonuniform List<scalar> 
34480
(
8.76717
8.76476
8.76463
8.76641
8.77022
8.77635
8.79129
8.85468
9.07722
9.68608
9.27978
8.66804
8.57532
8.85496
9.45408
10.341
11.9396
15.8518
28.7375
67.0237
15.0394
13.5701
13.124
13.2723
13.8428
14.8757
17.2093
22.905
41.6354
101.406
14.4909
12.9634
12.5133
12.7075
13.418
14.8326
18.0047
25.406
49.2501
127.782
13.4278
12.012
11.661
11.928
12.7795
14.4896
18.2591
26.9556
55.2704
151.576
12.2191
10.9455
10.6331
10.9149
11.8065
13.6999
17.9414
27.902
61.061
176.658
11.3261
10.2059
9.95126
10.2262
11.1213
13.0869
17.5888
28.4194
65.5185
198.016
9.83935
9.00304
8.79817
9.01386
9.72637
11.3965
15.4908
26.1242
64.5442
205.594
6.88226
6.61369
6.56502
6.67503
7.00445
7.72905
9.72962
16.2732
43.4113
149.667
9.23848
9.23873
9.24461
9.2575
9.27562
9.29722
9.32323
9.3618
9.43282
9.50597
8.67855
8.67554
8.67496
8.67674
8.68151
8.68987
8.70312
8.73417
8.8084
9.06731
7.92989
7.50998
7.41661
7.57433
8.02135
8.86378
10.3053
12.1078
15.4274
41.1732
12.2349
11.1723
10.88
11.0833
11.762
13.0232
15.221
18.1221
23.7875
66.4125
12.1389
10.9706
10.6518
10.8951
11.7002
13.2507
16.0315
20.0139
28.3902
86.1794
11.5983
10.4644
10.1975
10.4736
11.3663
13.1077
16.2964
21.0748
31.8419
104.295
10.8048
9.75439
9.49896
9.77278
10.6711
12.4978
15.9674
21.4554
34.8377
123.702
10.2144
9.26219
9.04497
9.29852
10.1719
12.0001
15.6072
21.5514
37.1094
140.954
9.05385
8.33191
8.14774
8.33926
9.01695
10.5145
13.6616
19.2845
35.7044
147.365
6.64474
6.39737
6.34316
6.41732
6.68201
7.26701
8.61384
11.5615
22.4917
102.419
9.11132
9.10662
9.10718
9.11439
9.12707
9.14289
9.16387
9.1996
9.2726
9.45785
8.57682
8.57394
8.57304
8.57402
8.57717
8.58213
8.58791
8.60083
8.62961
8.69527
6.78261
6.57096
6.51689
6.5928
6.82422
7.27125
8.0658
9.35977
11.1353
16.4369
9.69114
9.07102
8.91766
9.08526
9.60496
10.56
12.1751
14.5697
17.547
29.1787
9.88869
9.15069
8.96529
9.1792
9.83861
11.0944
13.2869
16.6417
21.1137
40.7607
9.75927
9.00404
8.8412
9.07793
9.81643
11.2601
13.8633
17.9403
23.778
52.2522
9.33068
8.60322
8.43568
8.67358
9.42792
10.9737
13.8883
18.6184
26.0239
64.9013
9.01569
8.33125
8.18499
8.40758
9.14904
10.717
13.8019
18.9558
27.7478
76.9258
8.19503
7.66666
7.53737
7.70773
8.28272
9.56513
12.2708
17.162
26.6522
82.8796
6.37348
6.18123
6.14139
6.20233
6.41325
6.87599
7.92488
10.3683
16.6987
57.1075
8.99178
8.98402
8.98151
8.98542
8.99504
9.00815
9.02617
9.05973
9.13852
9.33853
8.46136
8.45954
8.45902
8.45979
8.46196
8.46473
8.46594
8.46932
8.47825
8.49766
6.00861
5.91778
5.89066
5.9215
6.02173
6.21435
6.55108
7.13251
7.99601
9.88105
7.80855
7.49587
7.42296
7.5184
7.8199
8.38278
9.3339
10.8209
12.6576
17.0736
8.12455
7.70707
7.60329
7.74077
8.16692
8.98925
10.4229
12.7266
15.5983
23.5537
8.24719
7.78854
7.69164
7.84946
8.3477
9.33528
11.1222
14.0845
17.8847
30.1247
8.08366
7.61519
7.50554
7.6725
8.20206
9.30119
11.3872
14.9951
19.8642
37.6355
7.97564
7.51129
7.4118
7.57329
8.11022
9.25582
11.5223
15.5767
21.3678
44.9598
7.44512
7.07479
6.98272
7.11115
7.53503
8.48102
10.4795
14.3816
20.6526
48.7691
6.13153
5.98455
5.95464
6.0006
6.158
6.49599
7.22466
8.98528
12.9806
33.0384
8.85789
8.85008
8.84726
8.85064
8.85975
8.87338
8.89223
8.92613
8.99931
9.15517
8.3337
8.33286
8.33269
8.33317
8.33435
8.33522
8.33362
8.33225
8.33217
8.33431
5.53762
5.50315
5.49004
5.49992
5.53611
5.60487
5.72015
5.91162
6.17867
6.62119
6.56593
6.42822
6.3974
6.43767
6.57405
6.83238
7.27144
7.98204
8.87906
10.3566
6.8719
6.65521
6.59856
6.66931
6.89655
7.33921
8.11398
9.40815
11.0453
14.0195
7.10189
6.84211
6.78573
6.87304
7.15854
7.7267
8.75903
10.5599
12.8859
17.7757
7.09714
6.81049
6.73875
6.83925
7.16304
7.83549
9.11528
11.4643
14.6138
22.2338
7.12066
6.81783
6.74971
6.85164
7.19652
7.92847
9.37305
12.1312
15.9828
26.6478
6.8133
6.56165
6.49555
6.58161
6.86369
7.48495
8.77824
11.4745
15.692
29.0137
5.91836
5.80746
5.78471
5.81652
5.92752
6.15984
6.63019
7.7413
10.1055
19.2398
8.71444
8.70674
8.70372
8.70659
8.71505
8.72847
8.74695
8.77839
8.83991
8.95243
8.19474
8.19466
8.19476
8.19503
8.19548
8.19508
8.1926
8.19004
8.18786
8.18654
5.27033
5.25892
5.25257
5.25482
5.26613
5.28797
5.32345
5.37806
5.44752
5.53735
5.80936
5.75789
5.74816
5.76157
5.81259
5.90946
6.07207
6.33471
6.67424
7.13892
6.04291
5.93918
5.91038
5.94286
6.05109
6.2596
6.61636
7.21169
7.98791
9.10666
6.28219
6.1455
6.11563
6.15927
6.30753
6.5973
7.11192
8.02111
9.23804
11.2029
6.35096
6.18535
6.14113
6.19733
6.38036
6.75286
7.44423
8.74046
10.5398
13.8038
6.44201
6.25402
6.21022
6.27035
6.47768
6.90695
7.72884
9.34051
11.6535
16.394
6.29311
6.13019
6.08537
6.14032
6.31809
6.69903
7.45995
9.07698
11.6576
17.7689
5.73287
5.65171
5.63548
5.65681
5.73306
5.88834
6.18392
6.83617
8.10068
11.8452
8.56053
8.5532
8.55017
8.55264
8.5604
8.57304
8.59037
8.61823
8.66626
8.74102
8.04506
8.04551
8.04579
8.04591
8.04589
8.0447
8.04239
8.03991
8.03766
8.036
5.12659
5.12318
5.11971
5.11964
5.12253
5.12894
5.13905
5.15344
5.1696
5.18567
5.37589
5.36093
5.36004
5.3629
5.37793
5.40714
5.45618
5.5339
5.63286
5.75054
5.52648
5.47954
5.46558
5.47935
5.52747
5.61825
5.76701
6.00381
6.30883
6.68037
5.72711
5.65965
5.64535
5.66533
5.73703
5.87317
6.10442
6.49907
7.0315
7.75017
5.81497
5.72388
5.69799
5.72758
5.82531
6.01846
6.36052
6.98391
7.86741
9.18702
5.92888
5.81709
5.79048
5.82379
5.9423
6.17986
6.61203
7.43965
8.65449
10.6618
5.8835
5.78302
5.75418
5.78757
5.8942
6.11608
6.53627
7.40178
8.80343
11.4707
5.57807
5.5201
5.50912
5.52286
5.5739
5.67515
5.85864
6.23082
6.89044
8.32536
8.39558
8.38886
8.38598
8.3881
8.39503
8.40638
8.42193
8.44564
8.48222
8.53151
7.88501
7.88577
7.88617
7.8862
7.8859
7.88455
7.88268
7.88069
7.8789
7.87757
5.05198
5.05074
5.04849
5.04797
5.0486
5.05064
5.05361
5.05744
5.06101
5.06341
5.13784
5.13617
5.13819
5.13779
5.14005
5.14552
5.15599
5.17355
5.19606
5.22003
5.21957
5.19891
5.19228
5.19788
5.21867
5.2571
5.31717
5.40616
5.51481
5.62681
5.36803
5.33669
5.33068
5.33913
5.37209
5.43279
5.53103
5.68808
5.89279
6.127
5.44702
5.39915
5.3847
5.39957
5.44967
5.54577
5.70749
5.98377
6.36798
6.85617
5.55766
5.4937
5.47846
5.49591
5.56116
5.68783
5.90585
6.2979
6.86495
7.64821
5.57422
5.5155
5.49799
5.5174
5.57846
5.70226
5.9256
6.3573
7.04583
8.13553
5.45377
5.41317
5.40618
5.41478
5.44836
5.51337
5.62678
5.83775
6.18544
6.75865
8.21907
8.21315
8.21054
8.21234
8.21834
8.22808
8.24143
8.26083
8.28804
8.32095
7.71466
7.71561
7.71607
7.71606
7.71559
7.71447
7.71308
7.71162
7.71032
7.70933
5.01363
5.01273
5.01105
5.01062
5.01091
5.0119
5.01315
5.01454
5.01551
5.01565
5.01142
5.01357
5.01604
5.01503
5.01371
5.0124
5.01192
5.01303
5.01555
5.01856
5.04473
5.03549
5.03226
5.03454
5.04364
5.06019
5.08499
5.11907
5.15793
5.19175
5.14536
5.13158
5.12952
5.13281
5.14743
5.17368
5.21448
5.27517
5.35002
5.42256
5.20528
5.18116
5.17344
5.18065
5.20556
5.25212
5.32725
5.44637
5.60512
5.77838
5.30058
5.26512
5.25687
5.26558
5.30057
5.36662
5.47506
5.65552
5.90519
6.19349
5.35052
5.31832
5.30838
5.31921
5.35254
5.41875
5.53417
5.74205
6.06237
6.49197
5.35784
5.32975
5.3256
5.3309
5.35289
5.39446
5.46457
5.58458
5.76939
6.02096
8.0306
8.0256
8.02334
8.02482
8.02985
8.03783
8.04884
8.06411
8.08383
8.1057
7.53416
7.535
7.53551
7.53546
7.53501
7.53421
7.53324
7.53222
7.53132
7.53059
4.99321
4.99237
4.99106
4.99079
4.99113
4.9919
4.99281
4.99374
4.99433
4.99423
4.94614
4.94876
4.95084
4.95002
4.94824
4.94583
4.9433
4.94112
4.93966
4.93897
4.94926
4.9448
4.9431
4.94409
4.94831
4.9559
4.96685
4.98093
4.99595
5.00715
5.01292
5.00707
5.0066
5.00779
5.01421
5.02553
5.04256
5.06623
5.09368
5.11685
5.05334
5.04166
5.03767
5.04111
5.05322
5.0754
5.11008
5.16147
5.22697
5.29115
5.13019
5.11091
5.10667
5.11089
5.12943
5.16359
5.21762
5.30111
5.41044
5.51834
5.19567
5.1794
5.17424
5.18008
5.19731
5.23109
5.2888
5.38658
5.53161
5.7059
5.28665
5.26725
5.265
5.26833
5.28288
5.30974
5.3533
5.42228
5.52053
5.64048
7.82987
7.82582
7.82397
7.82516
7.82919
7.83545
7.84418
7.85576
7.86967
7.88398
7.34328
7.34395
7.34437
7.34434
7.34404
7.3435
7.34283
7.34215
7.34155
7.341
4.98133
4.98061
4.97965
4.9795
4.97984
4.98052
4.98134
4.98215
4.98272
4.98262
4.91314
4.9153
4.91685
4.91634
4.91495
4.91299
4.9108
4.90873
4.9072
4.90635
4.89943
4.89698
4.89601
4.89649
4.89864
4.90245
4.90778
4.91429
4.9209
4.92515
4.93746
4.9349
4.93489
4.93531
4.93825
4.9434
4.95089
4.96067
4.97121
4.9793
4.96216
4.95669
4.95468
4.95632
4.96214
4.97262
4.98861
5.011
5.03841
5.06428
5.02223
5.01172
5.00961
5.01169
5.02161
5.03949
5.06685
5.10649
5.15538
5.19853
5.09315
5.0859
5.0836
5.08666
5.09499
5.1112
5.13864
5.18314
5.24655
5.32176
5.23571
5.22218
5.22112
5.22335
5.23328
5.25104
5.27848
5.31879
5.37091
5.43181
7.6167
7.61359
7.61215
7.61307
7.61615
7.62088
7.62753
7.63599
7.64553
7.65472
7.14174
7.14229
7.14263
7.14261
7.14242
7.14207
7.14163
7.14118
7.14079
7.14036
4.97346
4.9729
4.97225
4.97217
4.97248
4.97305
4.97375
4.97445
4.975
4.97486
4.89665
4.89826
4.89935
4.89908
4.89818
4.89689
4.89544
4.89406
4.89313
4.89262
4.87471
4.87322
4.87264
4.8729
4.87408
4.87613
4.87896
4.8823
4.88566
4.88754
4.89635
4.89502
4.89502
4.8952
4.89674
4.89941
4.90318
4.9078
4.91236
4.91574
4.91007
4.90755
4.90656
4.90735
4.91016
4.91512
4.92252
4.93243
4.94411
4.9556
4.95687
4.95093
4.94988
4.95101
4.95654
4.96628
4.98067
5.00039
5.02321
5.04218
5.02816
5.02566
5.02496
5.02654
5.0302
5.0373
5.04926
5.06828
5.09397
5.12887
5.20034
5.19072
5.19037
5.19204
5.19913
5.21126
5.22894
5.25307
5.28067
5.31354
7.39105
7.38879
7.38774
7.38841
7.39063
7.39411
7.39898
7.40494
7.41129
7.41708
6.92934
6.9298
6.93006
6.93006
6.92995
6.92972
6.92944
6.92915
6.92889
6.92853
4.96745
4.96709
4.96669
4.96666
4.96691
4.96736
4.96791
4.96847
4.96898
4.96874
4.88841
4.88958
4.89033
4.89023
4.8897
4.88895
4.88812
4.88735
4.88695
4.88674
4.86322
4.8623
4.86197
4.86211
4.86276
4.86387
4.8654
4.86721
4.86908
4.87003
4.87502
4.87412
4.874
4.87411
4.87508
4.87677
4.87906
4.88172
4.88416
4.88599
4.88184
4.88067
4.88017
4.88057
4.88195
4.88435
4.88783
4.8923
4.8974
4.90308
4.919
4.91539
4.91483
4.91556
4.91889
4.92457
4.93262
4.94317
4.95462
4.9642
4.98843
4.98821
4.98835
4.98917
4.99052
4.99313
4.99747
5.00458
5.01312
5.03091
5.1762
5.1692
5.16924
5.17063
5.17597
5.18455
5.19631
5.21122
5.22578
5.24493
7.15296
7.15142
7.15072
7.15119
7.15269
7.1552
7.15863
7.16267
7.16675
7.17034
6.70592
6.70631
6.70652
6.70652
6.70646
6.70632
6.70614
6.70595
6.70578
6.70546
4.96235
4.96221
4.96201
4.96202
4.96221
4.96252
4.96292
4.96334
4.96382
4.96346
4.88421
4.88508
4.88558
4.88558
4.88532
4.88494
4.88455
4.8842
4.88417
4.88416
4.85845
4.85791
4.85776
4.85783
4.85815
4.85869
4.85945
4.86039
4.86147
4.862
4.86458
4.86383
4.86361
4.8637
4.86441
4.86564
4.86727
4.8691
4.87071
4.87198
4.86743
4.86685
4.86657
4.86678
4.8675
4.8687
4.87039
4.87248
4.87479
4.87791
4.89782
4.89542
4.89508
4.89564
4.89782
4.90142
4.9063
4.91247
4.91882
4.92462
4.96448
4.96519
4.96573
4.96618
4.96649
4.96704
4.96788
4.96966
4.97067
4.98101
5.1595
5.15437
5.15464
5.15591
5.16003
5.16637
5.17449
5.18407
5.19161
5.2039
6.90271
6.90165
6.90122
6.90152
6.90256
6.90428
6.90659
6.90922
6.91173
6.91391
6.47141
6.47175
6.4719
6.47191
6.47188
6.47179
6.47168
6.47155
6.47144
6.47114
4.95774
4.95783
4.95778
4.95784
4.95796
4.95816
4.95842
4.9587
4.95917
4.95871
4.88197
4.88263
4.88295
4.88299
4.8829
4.88277
4.88267
4.8826
4.88283
4.88297
4.85696
4.8567
4.85667
4.8567
4.8568
4.85699
4.85727
4.85768
4.85828
4.85863
4.85988
4.85921
4.85893
4.859
4.85955
4.8605
4.86175
4.86311
4.86431
4.86531
4.86061
4.86026
4.86009
4.8602
4.86059
4.86124
4.86211
4.86315
4.86425
4.86613
4.8861
4.88438
4.88413
4.88459
4.88612
4.88856
4.89176
4.89567
4.89957
4.90373
4.94944
4.95038
4.95108
4.95135
4.95126
4.95101
4.95044
4.95008
4.94805
4.95505
5.14737
5.14358
5.144
5.14519
5.14847
5.15334
5.15919
5.1656
5.16926
5.17801
6.6405
6.63981
6.63953
6.63973
6.64042
6.64155
6.64304
6.64465
6.64612
6.64742
6.22587
6.22616
6.22627
6.22629
6.22627
6.22622
6.22615
6.22606
6.22598
6.2257
4.95346
4.95377
4.95384
4.95393
4.95401
4.95411
4.95424
4.95442
4.95492
4.95441
4.88062
4.88112
4.88129
4.88134
4.88135
4.88139
4.88146
4.88158
4.88197
4.88228
4.85702
4.85695
4.85699
4.85699
4.85697
4.85694
4.85694
4.85704
4.85735
4.85764
4.85804
4.85747
4.85718
4.85723
4.85763
4.85835
4.85929
4.86031
4.86124
4.86204
4.85775
4.85749
4.85736
4.85741
4.85764
4.85803
4.85851
4.85907
4.85962
4.86083
4.87923
4.87793
4.87772
4.87809
4.8792
4.88091
4.88308
4.88569
4.88825
4.89155
4.93854
4.93936
4.94005
4.94026
4.94009
4.93964
4.93871
4.93772
4.93473
4.94012
5.13758
5.1348
5.13528
5.13642
5.13911
5.14297
5.14735
5.1518
5.15322
5.15998
6.36666
6.36624
6.36607
6.3662
6.36663
6.36732
6.36822
6.36915
6.36994
6.3707
5.96958
5.96983
5.96992
5.96994
5.96993
5.9699
5.96985
5.96979
5.96973
5.96947
4.94938
4.94989
4.95003
4.95017
4.95022
4.95024
4.95027
4.95035
4.95091
4.95047
4.87955
4.87989
4.87994
4.87998
4.88004
4.88017
4.88035
4.88058
4.88106
4.88156
4.85775
4.85776
4.85782
4.8578
4.85772
4.8576
4.85748
4.85742
4.85755
4.85786
4.85756
4.85709
4.85684
4.85686
4.85714
4.85765
4.85831
4.85904
4.85972
4.86037
4.85687
4.85666
4.85656
4.85657
4.85671
4.85693
4.85721
4.85752
4.85781
4.85858
4.87434
4.87335
4.87317
4.87345
4.87421
4.87538
4.87684
4.87855
4.88027
4.88293
4.92852
4.92908
4.92969
4.92987
4.92974
4.92935
4.9285
4.92751
4.92455
4.92897
5.12815
5.12618
5.12668
5.12775
5.12997
5.13307
5.13643
5.13958
5.13967
5.14509
6.08174
6.0815
6.0814
6.08148
6.08173
6.08212
6.08262
6.08311
6.08349
6.08391
5.70321
5.70342
5.70349
5.7035
5.7035
5.70348
5.70344
5.7034
5.70334
5.7031
4.94521
4.94585
4.94607
4.94625
4.94629
4.94625
4.94619
4.94617
4.94677
4.94657
4.87839
4.87851
4.87848
4.87848
4.87855
4.87872
4.87895
4.87923
4.87971
4.88042
4.85859
4.85858
4.85862
4.8586
4.85851
4.85838
4.85824
4.85815
4.85819
4.85853
4.85768
4.85734
4.85715
4.85714
4.85731
4.85763
4.85805
4.85853
4.859
4.8595
4.85697
4.85682
4.85674
4.85673
4.8568
4.85691
4.85705
4.8572
4.85734
4.85779
4.8697
4.86898
4.86883
4.869
4.86947
4.87019
4.87108
4.8721
4.8732
4.87524
4.91725
4.91753
4.91801
4.91814
4.91806
4.91775
4.91708
4.91626
4.91381
4.91739
5.11633
5.11505
5.11551
5.11648
5.11828
5.12072
5.12327
5.12541
5.12469
5.12891
5.78656
5.78643
5.78638
5.78642
5.78655
5.78674
5.787
5.78721
5.78737
5.78758
5.42759
5.42776
5.4278
5.42781
5.42781
5.4278
5.42778
5.42774
5.4277
5.42751
4.93954
4.94018
4.94055
4.94079
4.94084
4.94075
4.94057
4.94042
4.94078
4.94108
4.87678
4.87666
4.87655
4.87651
4.87657
4.87672
4.87694
4.87723
4.87765
4.87849
4.8591
4.85904
4.85905
4.85901
4.85895
4.85886
4.85877
4.85871
4.85874
4.85908
4.85814
4.85791
4.85779
4.85778
4.85787
4.85804
4.85827
4.85854
4.85884
4.85918
4.8576
4.85751
4.85746
4.85745
4.85747
4.8575
4.85754
4.85758
4.85763
4.85783
4.86472
4.86428
4.86417
4.86424
4.86448
4.86484
4.86527
4.86577
4.86637
4.86774
4.90353
4.90357
4.90386
4.90391
4.90378
4.90348
4.90294
4.9023
4.90068
4.90331
5.09505
5.09435
5.09473
5.09553
5.09687
5.09864
5.10043
5.10169
5.10053
5.10333
5.48212
5.48206
5.48205
5.48206
5.4821
5.48216
5.48224
5.4823
5.48235
5.48245
5.14253
5.14263
5.14264
5.14264
5.14264
5.14264
5.14264
5.14263
5.14263
5.14254
4.92471
4.92527
4.92589
4.92622
4.92631
4.92619
4.92589
4.92549
4.92508
4.9257
4.87367
4.87333
4.87312
4.87303
4.87304
4.87315
4.87335
4.87364
4.87404
4.87487
4.85937
4.8593
4.85928
4.85925
4.85922
4.85919
4.85915
4.85914
4.85916
4.85939
4.85895
4.85883
4.85877
4.85876
4.8588
4.85888
4.85899
4.85912
4.85927
4.85945
4.85863
4.85859
4.85857
4.85856
4.85856
4.85855
4.85855
4.85853
4.85853
4.85857
4.86083
4.86064
4.86059
4.86061
4.8607
4.86083
4.86098
4.86115
4.86138
4.86202
4.88686
4.88669
4.88675
4.88669
4.88651
4.8862
4.88579
4.88537
4.8848
4.8865
5.04091
5.04062
5.04087
5.04137
5.04216
5.0432
5.04422
5.04477
5.04377
5.04481
5.16848
5.16845
5.16846
5.16846
5.16847
5.16847
5.16846
5.16846
5.16843
5.16849
11.269
11.384
11.3385
11.1222
82.8099
84.8871
85.3469
85.9965
143.137
148.611
149.081
147.836
202.801
212.237
212.105
207.815
264.483
278.144
276.938
269.485
332.777
351.057
348.956
340.213
395.158
417.809
415.426
408.034
433.163
459.434
457.487
452.91
345.675
368.251
365.702
364.352
11.4768
11.7154
11.5593
11.1514
9.71373
9.7731
9.77593
9.73195
76.0774
79.3209
80.0805
80.2022
133.884
144.804
145.906
143.741
192.905
214.535
215.07
209.174
256.141
290.983
290.036
280.085
329.512
380.274
378.499
365.623
399.601
466.621
465.653
452.622
446.084
527.57
528.611
517.418
350.518
422.874
420.966
416.129
10.7115
10.9423
10.8719
10.6516
8.77681
8.78979
8.78878
8.77727
26.5379
28.9545
28.2172
25.7082
49.3564
53.7624
52.0984
47.4247
74.5822
81.3415
78.2221
70.7066
103.456
112.996
107.818
96.7353
139.443
152.806
145.178
129.285
177.311
194.676
184.517
163.493
207.53
228.706
216.446
190.909
164.729
181.622
170.139
149.303
9.91282
10.0035
9.9804
9.88119
8.51187
8.51443
8.5151
8.51413
11.4729
11.7225
11.6929
11.4958
21.2126
21.9398
21.8764
21.3342
31.9969
33.4837
33.2318
31.9161
44.5104
46.9439
46.2797
43.7575
60.6341
64.4027
63.0829
58.7666
78.056
83.169
80.9022
74.4579
92.5761
99.1267
95.8399
87.1475
71.9358
77.076
73.5642
65.9626
9.44868
9.49312
9.49005
9.44963
8.33285
8.33395
8.33421
8.33356
7.0419
7.13345
7.15864
7.12878
11.6779
11.9742
12.0571
11.9711
16.871
17.4856
17.586
17.3193
22.8365
23.8565
23.8924
23.2884
30.713
32.3382
32.2255
31.0367
39.2233
41.4582
41.0406
39.0612
46.2618
49.198
48.3812
45.4009
34.4015
36.6202
35.4299
32.5498
9.09835
9.12228
9.12389
9.10694
8.18253
8.18345
8.18355
8.18278
5.60672
5.62101
5.62622
5.62449
7.45589
7.52584
7.55856
7.55991
9.9374
10.1212
10.1884
10.1633
12.8336
13.1795
13.2658
13.1652
16.7961
17.4126
17.5026
17.2348
21.0457
21.9426
21.9661
21.4369
24.4784
25.7305
25.6291
24.6928
17.4811
18.3752
18.0208
17.0171
8.81281
8.82471
8.82707
8.82093
8.0317
8.03259
8.03266
8.03188
5.19694
5.20013
5.201
5.20002
5.82313
5.83895
5.84759
5.84979
6.91427
6.96717
6.99235
6.99343
8.25892
8.37119
8.41554
8.40582
10.2336
10.4613
10.5312
10.4824
12.3586
12.7064
12.7767
12.6577
14.0532
14.5729
14.6196
14.3554
10.222
10.5582
10.4797
10.1885
8.56538
8.57085
8.57292
8.57152
7.87346
7.87433
7.8744
7.87365
5.06322
5.06439
5.0644
5.06346
5.23313
5.23551
5.23695
5.2376
5.68405
5.69641
5.70296
5.70433
6.26557
6.29593
6.31049
6.31201
7.19408
7.26969
7.30036
7.29466
8.21561
8.33659
8.37647
8.35782
9.06875
9.26926
9.31386
9.24849
7.33902
7.45175
7.4457
7.37962
8.33737
8.33965
8.34111
8.34132
7.70548
7.70631
7.70638
7.70567
5.01329
5.01422
5.01416
5.01324
5.02032
5.02044
5.0205
5.02054
5.20441
5.20675
5.20803
5.2084
5.45535
5.46197
5.46556
5.46667
5.88057
5.90356
5.91412
5.91398
6.35901
6.39483
6.41016
6.41046
6.80643
6.87772
6.90024
6.88559
6.19857
6.23249
6.23683
6.22632
8.11414
8.11494
8.11583
8.11639
7.52701
7.52779
7.52786
7.5272
4.99134
4.99219
4.99214
4.99126
4.93892
4.93883
4.93872
4.93863
5.00959
5.00982
5.00994
5.00999
5.12348
5.12437
5.12495
5.12534
5.32339
5.3304
5.33372
5.33365
5.55977
5.56822
5.57285
5.57492
5.8141
5.83895
5.84804
5.84381
5.69867
5.70623
5.7089
5.70967
7.88847
7.88858
7.88908
7.88961
7.33769
7.33841
7.33847
7.33786
4.97959
4.98037
4.98032
4.97948
4.90613
4.90609
4.90601
4.9059
4.92538
4.92527
4.92521
4.92522
4.98029
4.98015
4.98009
4.98017
5.07668
5.07925
5.08036
5.08005
5.20667
5.20775
5.20883
5.2102
5.36633
5.37604
5.37937
5.37668
5.45415
5.45321
5.45379
5.45609
7.65707
7.65692
7.65718
7.65759
7.13732
7.13798
7.13803
7.13747
4.97183
4.97253
4.97246
4.97166
4.89242
4.89243
4.89237
4.89225
4.8873
4.88717
4.88712
4.88714
4.91575
4.91553
4.91541
4.91539
4.96187
4.96313
4.96359
4.96324
5.04267
5.0422
5.04229
5.04304
5.15356
5.15841
5.15956
5.15698
5.32494
5.32163
5.32113
5.32306
7.41818
7.41796
7.4181
7.41836
6.92578
6.92636
6.9264
6.9259
4.9658
4.96639
4.9663
4.96555
4.88653
4.88655
4.8865
4.88638
4.86972
4.86964
4.86961
4.86963
4.88596
4.88583
4.88573
4.88569
4.90699
4.90779
4.90804
4.90773
4.96376
4.96322
4.96311
4.96348
5.04879
5.052
5.05235
5.04978
5.25293
5.24938
5.24847
5.24977
7.17064
7.17048
7.17054
7.17067
6.70302
6.70352
6.70354
6.7031
4.96066
4.96114
4.96101
4.96031
4.88397
4.884
4.88395
4.88382
4.86175
4.8617
4.86168
4.8617
4.87202
4.87196
4.8719
4.87186
4.88064
4.8812
4.88135
4.88109
4.92485
4.92456
4.92446
4.92457
4.99618
4.9988
4.99884
4.99627
5.21086
5.20782
5.20683
5.20748
6.91368
6.91364
6.91366
6.91367
6.46904
6.46945
6.46946
6.46908
4.9561
4.95647
4.95631
4.95565
4.88285
4.88289
4.88284
4.8827
4.85849
4.85847
4.85847
4.85848
4.86541
4.86539
4.86535
4.86531
4.86809
4.8685
4.86859
4.86838
4.90484
4.90483
4.90478
4.9047
4.96895
4.97137
4.97128
4.96868
5.18472
5.18246
5.18155
5.18156
6.64681
6.64691
6.64692
6.64681
6.22398
6.2243
6.22429
6.22397
4.95205
4.9523
4.95212
4.95151
4.88233
4.8824
4.88236
4.8822
4.85765
4.85768
4.85768
4.85767
4.86218
4.86219
4.86217
4.86213
4.86222
4.86251
4.86256
4.86238
4.89335
4.89358
4.89357
4.89336
4.95329
4.95571
4.95558
4.9529
5.16676
5.16541
5.16464
5.16402
6.36982
6.37007
6.37008
6.36987
5.96819
5.96841
5.96837
5.96811
4.94846
4.94863
4.94843
4.94787
4.88193
4.88208
4.88205
4.88185
4.85805
4.85811
4.85812
4.85808
4.86054
4.86055
4.86055
4.86052
4.85952
4.85971
4.85973
4.85959
4.88512
4.88549
4.88553
4.88522
4.94149
4.94402
4.9439
4.94111
5.15198
5.15166
5.15109
5.14984
6.08284
6.0832
6.08322
6.08294
5.70234
5.70245
5.70238
5.70219
4.9452
4.94538
4.9452
4.94466
4.88122
4.88148
4.88146
4.8812
4.85887
4.85897
4.85899
4.85892
4.85968
4.85971
4.85972
4.85971
4.85835
4.85846
4.85846
4.85837
4.87744
4.87788
4.87794
4.87761
4.92869
4.93135
4.93127
4.92844
5.13569
5.13657
5.13629
5.13434
5.7864
5.78685
5.78687
5.78656
5.42737
5.42735
5.42726
5.42716
4.941
4.94138
4.94127
4.94065
4.8796
4.87994
4.87993
4.8796
4.85947
4.85958
4.8596
4.85951
4.85935
4.85939
4.85941
4.8594
4.85808
4.85813
4.85812
4.85808
4.86955
4.86995
4.87
4.86973
4.91188
4.91429
4.91427
4.9118
5.10923
5.11162
5.11169
5.10889
5.48141
5.48193
5.48196
5.48162
5.14313
5.14289
5.1428
5.14287
4.92731
4.9282
4.92818
4.92722
4.87564
4.87587
4.87584
4.87557
4.85962
4.8597
4.8597
4.85965
4.85958
4.8596
4.85962
4.85963
4.85863
4.85863
4.85863
4.85863
4.863
4.86323
4.86327
4.86313
4.89064
4.89181
4.89178
4.89056
5.04763
5.05116
5.05147
5.04804
5.16797
5.16853
5.16854
5.16817
10.1125
9.36663
9.05454
8.94202
8.87754
8.83209
8.80181
8.78479
8.77534
8.76971
103.675
49.1185
35.7481
29.9538
24.5568
19.9491
16.3631
13.6892
11.7813
10.4192
160.953
70.8607
51.0935
43.7428
37.1913
31.4252
26.5924
22.7116
19.668
17.2935
206.427
82.5941
55.9823
46.7281
39.3618
32.7662
27.2282
22.8346
19.4431
16.8554
242.064
88.9521
58.8263
47.9652
40.077
32.7359
26.6763
21.9539
18.3674
15.722
278.036
94.6912
60.9743
48.302
39.845
31.7867
25.3521
20.4645
16.8817
14.3305
307.092
98.159
61.6907
47.7807
39.0455
30.5193
23.9431
19.0738
15.5942
13.2101
315.202
93.7521
56.6281
42.2274
33.917
25.7865
19.9238
15.7966
13.0457
11.2288
224.467
56.1338
30.5432
21.1158
16.2831
12.2239
9.955
8.61294
7.804
7.27981
9.56922
9.54457
9.38916
9.36301
9.31643
9.29029
9.26953
9.25848
9.25102
9.2446
9.36708
9.05694
8.90471
8.81911
8.76517
8.72955
8.70642
8.69267
8.68526
8.68057
53.1034
28.6707
22.5564
19.4494
16.6687
14.1978
12.1631
10.6005
9.46081
8.66871
89.9991
46.2743
35.8004
31.0207
27.1811
23.5087
20.2902
17.6312
15.5032
13.8843
122.266
58.612
42.8649
35.6342
30.5503
25.7664
21.6958
18.4226
15.8726
13.9861
152.564
68.7681
47.8568
38.5204
32.3846
26.6782
21.9772
18.2979
15.4854
13.4753
186.438
78.8764
52.1457
40.476
33.2581
26.6696
21.454
17.4958
14.5913
12.5911
217.205
86.4758
54.7143
41.2504
33.3536
26.1777
20.6981
16.6609
13.7707
11.8532
233.195
86.7508
51.9189
37.4846
29.5784
22.5775
17.5742
14.0833
11.7633
10.2829
167.405
54.756
29.0627
19.3796
14.6947
11.2265
9.2745
8.12945
7.43354
7.00266
9.81852
9.50198
9.33082
9.26754
9.21264
9.17935
9.1552
9.14044
9.13005
9.12103
8.73771
8.69628
8.66355
8.63633
8.61502
8.59956
8.58925
8.58307
8.57964
8.57718
19.9482
16.5762
14.5026
12.6844
11.1148
9.81178
8.79751
8.04862
7.50989
7.13732
35.9203
28.7119
24.9251
21.6893
18.9137
16.5055
14.5103
12.906
11.6307
10.6689
51.0373
37.936
31.5407
26.3503
22.2592
18.8397
16.0964
13.9472
12.2878
11.074
66.1284
45.6926
36.6303
29.5939
24.3792
20.1254
16.8133
14.2903
12.3788
11.0257
83.2262
53.3446
41.1448
32.0848
25.7355
20.6616
16.842
14.02
11.974
10.5805
99.1247
59.1919
44.1514
33.4589
26.3366
20.7055
16.5977
13.6542
11.5704
10.1992
108.419
59.7595
42.6007
31.0011
23.7647
18.218
14.4245
11.8568
10.1702
9.09737
75.9443
36.65
23.8688
16.273
12.2256
9.68239
8.28966
7.47141
6.96262
6.6432
9.57147
9.377
9.24304
9.16318
9.10555
9.0695
9.04442
9.02731
9.01466
9.00376
8.50931
8.49924
8.48819
8.47826
8.47072
8.46559
8.46238
8.46075
8.46035
8.45988
10.9414
10.1333
9.28421
8.43984
7.7327
7.19
6.79121
6.50318
6.29464
6.14959
19.8677
18.0284
16.1766
14.3037
12.688
11.3597
10.2983
9.46255
8.80332
8.30879
28.4777
24.6331
21.1903
17.9885
15.4005
13.3283
11.7047
10.4518
9.49335
8.79817
37.2432
30.667
25.4315
20.8637
17.3675
14.64
12.5632
11.0093
9.84157
9.01726
47.4703
36.9717
29.5251
23.3603
18.8649
15.4398
12.9153
11.0862
9.77425
8.88338
57.0694
42.0779
32.5541
25.014
19.76
15.8315
13.0268
11.0612
9.68076
8.76917
62.7993
43.2663
32.0899
23.713
18.2357
14.3065
11.6797
9.94094
8.80267
8.0696
42.7465
26.2049
17.973
12.7917
10.0236
8.39134
7.47308
6.91834
6.55956
6.32891
9.32681
9.18825
9.08108
9.0114
8.96315
8.93148
8.90873
8.89239
8.88006
8.86962
8.33338
8.33188
8.33037
8.3292
8.32849
8.3282
8.32822
8.32868
8.32979
8.33082
6.99879
6.75856
6.5056
6.26722
6.0689
5.91249
5.79214
5.70049
5.63115
5.58319
11.611
10.9251
10.1513
9.3737
8.68692
8.11463
7.65542
7.29383
7.00535
6.78743
16.4399
14.9572
13.3755
11.8595
10.572
9.52158
8.69339
8.05519
7.56691
7.21411
21.5363
18.9348
16.3584
14.0119
12.1132
10.6147
9.47252
8.62362
7.98345
7.52896
27.768
23.4446
19.5091
16.0873
13.4439
11.422
9.93327
8.86335
8.09561
7.57164
33.7361
27.3838
22.0665
17.6425
14.3795
11.9551
10.2305
9.03379
8.188
7.6213
37.3948
28.792
22.2633
17.1548
13.6365
11.1587
9.50871
8.42146
7.7001
7.22503
24.5293
17.3353
12.8097
9.95733
8.36371
7.40492
6.82999
6.46698
6.22046
6.05868
9.05264
8.96954
8.8979
8.84681
8.80936
8.78253
8.76231
8.74712
8.73538
8.72559
8.18335
8.1835
8.18386
8.18444
8.18518
8.18596
8.18676
8.18775
8.18923
8.191
5.60802
5.56479
5.51343
5.46125
5.41405
5.37358
5.34008
5.31312
5.29255
5.27959
7.50456
7.31347
7.06507
6.80571
6.57047
6.37228
6.21219
6.08436
5.97774
5.89478
9.97768
9.47189
8.85067
8.22741
7.6786
7.22424
6.86225
6.57989
6.35996
6.20023
12.7361
11.7743
10.6616
9.59968
8.70698
7.99558
7.45046
7.04297
6.728
6.50007
16.3274
14.61
12.7537
11.0611
9.69841
8.64819
7.87064
7.30834
6.89752
6.61321
19.8651
17.2471
14.584
12.2681
10.4874
9.16067
8.21191
7.55008
7.06984
6.73989
22.119
18.4211
14.9985
12.2245
10.2383
8.84212
7.90158
7.27192
6.84158
6.55054
14.3946
11.5388
9.42818
8.05209
7.21594
6.67999
6.33279
6.10279
5.93843
5.82912
8.79753
8.75141
8.70718
8.67169
8.64334
8.62131
8.6039
8.5903
8.57955
8.57072
8.03258
8.03291
8.03347
8.03422
8.03507
8.03592
8.03673
8.03767
8.03908
8.04088
5.19671
5.18854
5.17888
5.16822
5.15757
5.14754
5.13862
5.13123
5.12617
5.12428
5.83875
5.7928
5.73041
5.66328
5.6009
5.54737
5.50335
5.46692
5.43309
5.4049
6.95004
6.79203
6.58426
6.36811
6.17122
6.00313
5.86448
5.75202
5.66096
5.59411
8.2979
7.9633
7.54447
7.13206
6.77522
6.48484
6.25681
6.08144
5.93862
5.83175
10.2208
9.55396
8.76964
8.03172
7.41934
6.93864
6.57418
6.30293
6.09718
5.95208
12.1906
11.1265
9.92544
8.84951
7.99559
7.3497
6.87712
6.53867
6.28117
6.09827
13.5199
11.9512
10.3403
8.99942
8.00472
7.29202
6.79591
6.45172
6.20672
6.0368
9.42653
8.38659
7.50747
6.88483
6.46193
6.16834
5.9631
5.8208
5.71378
5.64224
8.56198
8.53743
8.51069
8.4864
8.46534
8.44781
8.43335
8.42166
8.41218
8.40452
7.87435
7.87461
7.87503
7.8756
7.87624
7.87687
7.87746
7.87816
7.87932
7.8809
5.06296
5.06119
5.05922
5.05687
5.05424
5.05148
5.04888
5.04683
5.04608
5.04699
5.23563
5.22717
5.21544
5.2023
5.18989
5.17937
5.17104
5.16391
5.15496
5.1462
5.69441
5.65146
5.59146
5.52541
5.46178
5.40431
5.35411
5.31107
5.27459
5.2477
6.28733
6.18745
6.05377
5.91588
5.79086
5.68439
5.59685
5.52644
5.46466
5.41638
7.22117
6.98862
6.69988
6.41679
6.17135
5.97025
5.81042
5.68571
5.58656
5.5156
8.22916
7.83693
7.36155
6.91987
6.55431
6.2668
6.0467
5.8821
5.74893
5.65082
8.98528
8.36935
7.69647
7.11413
6.66039
6.32046
6.07146
5.89049
5.75606
5.66113
7.18625
6.82371
6.46927
6.18829
5.97536
5.81561
5.69599
5.60958
5.54122
5.49567
8.33713
8.32377
8.30741
8.29095
8.27565
8.26219
8.25063
8.24097
8.23293
8.22655
7.70635
7.70653
7.7068
7.70718
7.7076
7.708
7.70835
7.70879
7.70967
7.71101
5.01329
5.01254
5.0118
5.01096
5.00997
5.00885
5.00781
5.00711
5.00734
5.00859
5.02002
5.01895
5.01783
5.01664
5.01585
5.01577
5.01645
5.01711
5.01559
5.01304
5.20581
5.19451
5.17768
5.15772
5.13712
5.11728
5.09884
5.0821
5.06734
5.05655
5.46128
5.43459
5.39599
5.3533
5.312
5.27471
5.24245
5.21525
5.18904
5.16738
5.89254
5.81804
5.7211
5.61966
5.52588
5.44423
5.37551
5.31905
5.27212
5.2384
6.38048
6.25279
6.08416
5.91756
5.77048
5.6477
5.54821
5.47015
5.40258
5.35083
6.80424
6.58141
6.32464
6.08771
5.89041
5.73348
5.61194
5.51943
5.44802
5.39724
6.17819
6.04691
5.90096
5.77168
5.66398
5.57724
5.50817
5.45645
5.41335
5.385
8.11413
8.10661
8.09655