/*--------------------------------*- C++ -*----------------------------------*\
| =========                 |                                                 |
| \\      /  F ield         | foam-extend: Open Source CFD                    |
|  \\    /   O peration     | Version:     4.0                                |
|   \\  /    A nd           | Web:         http://www.foam-extend.org         |
|    \\/     M anipulation  |                                                 |
\*---------------------------------------------------------------------------*/
FoamFile
{
    version     2.0;
    format      ascii;
    class       volScalarField;
    location    "2100";
    object      MaU;
}
// * * * * * * * * * * * * * * * * * * * * * * * * * * * * * * * * * * * * * //

dimensions      [0 0 0 0 0 0 0];

internalField   nonuniform List<scalar> 
34480
(
0.623808
0.624805
0.62534
0.625453
0.625146
0.624347
0.622913
0.620166
0.61407
0.608272
0.627229
0.628055
0.628516
0.628547
0.627988
0.626693
0.624687
0.621723
0.614703
0.609147
0.629414
0.630172
0.630545
0.630451
0.629716
0.628367
0.626592
0.624297
0.61726
0.612139
0.629409
0.630188
0.63063
0.630667
0.630156
0.629211
0.627936
0.626355
0.619706
0.615059
0.62987
0.630754
0.631336
0.631593
0.631404
0.630937
0.630208
0.629398
0.623534
0.619373
0.629467
0.630409
0.631074
0.631462
0.63151
0.631449
0.631255
0.631267
0.626586
0.623244
0.629673
0.630756
0.631529
0.632057
0.632315
0.632595
0.632897
0.633727
0.630493
0.627953
0.629083
0.630208
0.630938
0.631351
0.631494
0.631728
0.632182
0.633552
0.631834
0.630481
0.628833
0.630115
0.630959
0.631507
0.631826
0.632221
0.632924
0.63479
0.634344
0.632898
0.625031
0.626056
0.626093
0.625215
0.623594
0.621608
0.619708
0.619164
0.618364
0.619151
0.613908
0.61537
0.615943
0.615694
0.61455
0.612234
0.608119
0.600849
0.590138
0.576281
0.618523
0.619831
0.620356
0.620094
0.618851
0.616255
0.611713
0.603864
0.591205
0.575046
0.621593
0.622816
0.623288
0.622992
0.621676
0.619034
0.614563
0.606877
0.593372
0.576035
0.622401
0.623636
0.624174
0.624012
0.622904
0.620606
0.616533
0.609276
0.595381
0.577622
0.623545
0.624855
0.62551
0.625554
0.624746
0.622901
0.619349
0.612735
0.598935
0.581332
0.623682
0.625036
0.625771
0.625951
0.625378
0.623948
0.620942
0.615116
0.601866
0.585052
0.624336
0.625797
0.626627
0.626952
0.626596
0.625538
0.623069
0.618097
0.605774
0.590034
0.624069
0.625559
0.626358
0.6266
0.626189
0.625194
0.623017
0.618761
0.607627
0.593576
0.624067
0.625664
0.626554
0.62691
0.626678
0.625917
0.624131
0.620623
0.610748
0.597497
0.620456
0.621869
0.622203
0.62154
0.619936
0.617542
0.614084
0.609276
0.599876
0.589748
0.606278
0.607845
0.608409
0.608089
0.606847
0.604527
0.600832
0.595264
0.587191
0.577001
0.611178
0.612712
0.613269
0.612892
0.61146
0.60871
0.604134
0.596876
0.585487
0.570329
0.614522
0.616054
0.616607
0.616226
0.61473
0.6118
0.606817
0.598652
0.584635
0.564814
0.615824
0.617419
0.618048
0.617781
0.616414
0.613624
0.608635
0.600044
0.583874
0.559948
0.617445
0.619129
0.619869
0.619782
0.618645
0.616163
0.611411
0.602802
0.585132
0.557917
0.618002
0.619743
0.620567
0.620613
0.619678
0.617517
0.61311
0.604779
0.586222
0.556638
0.619019
0.620854
0.621768
0.621959
0.621226
0.619391
0.615392
0.607536
0.588668
0.557417
0.619053
0.620913
0.621812
0.621948
0.621187
0.619439
0.615712
0.608384
0.589729
0.557637
0.619309
0.621233
0.622202
0.622428
0.621798
0.620243
0.616877
0.610214
0.592203
0.55871
0.61594
0.617694
0.618251
0.617718
0.616078
0.613334
0.608822
0.601388
0.583934
0.550855
0.600717
0.602091
0.602563
0.602255
0.601163
0.599231
0.596361
0.592456
0.587497
0.581966
0.605352
0.606816
0.607326
0.606917
0.605517
0.602979
0.599056
0.593402
0.585576
0.576651
0.608544
0.610129
0.610674
0.610233
0.608681
0.605792
0.601139
0.594096
0.583502
0.570567
0.610045
0.611767
0.612401
0.612025
0.61048
0.607491
0.602442
0.594396
0.581144
0.56393
0.611934
0.613784
0.614522
0.61428
0.612858
0.60997
0.604812
0.596176
0.580672
0.559462
0.612782
0.614715
0.615539
0.615406
0.614113
0.611393
0.60629
0.597396
0.580096
0.555407
0.614072
0.616101
0.617007
0.617003
0.615865
0.613366
0.608447
0.599552
0.580973
0.553339
0.614362
0.616418
0.61732
0.617278
0.616121
0.613673
0.608888
0.600163
0.580892
0.550999
0.614841
0.616932
0.617887
0.61792
0.61687
0.614558
0.60996
0.60157
0.582272
0.549842
0.611721
0.613657
0.614324
0.613816
0.612061
0.608934
0.603571
0.594576
0.575471
0.541841
0.596854
0.597936
0.598297
0.59806
0.597245
0.595861
0.593925
0.591505
0.588751
0.586033
0.600932
0.602173
0.602604
0.602248
0.601073
0.599027
0.596042
0.592096
0.587248
0.582462
0.603672
0.605145
0.60565
0.605231
0.603815
0.601278
0.597408
0.59199
0.584744
0.577124
0.605103
0.606797
0.607408
0.607005
0.605476
0.602635
0.598093
0.591394
0.581609
0.57056
0.607033
0.608913
0.609631
0.609312
0.607793
0.604849
0.599899
0.592237
0.58006
0.565423
0.608009
0.610017
0.610828
0.610585
0.609111
0.606162
0.600984
0.592654
0.578332
0.560211
0.609447
0.611574
0.612467
0.612328
0.610947
0.608086
0.602848
0.594115
0.57801
0.556629
0.609914
0.612082
0.612985
0.612819
0.611411
0.608541
0.603262
0.594343
0.576966
0.55274
0.610566
0.612759
0.613701
0.613595
0.612263
0.60948
0.604256
0.595304
0.577295
0.549995
0.607673
0.609725
0.610471
0.609986
0.608166
0.604821
0.599072
0.589597
0.571363
0.541983
0.594211
0.595015
0.595272
0.59511
0.594557
0.593646
0.592426
0.590991
0.589475
0.588023
0.597692
0.59865
0.598987
0.59871
0.597813
0.5963
0.594193
0.59159
0.588695
0.586117
0.599862
0.601114
0.601548
0.60119
0.600005
0.59795
0.594968
0.591077
0.586389
0.581964
0.601055
0.60259
0.603143
0.602761
0.601377
0.59889
0.595117
0.589934
0.583153
0.576315
0.602849
0.604626
0.605292
0.604947
0.603474
0.600724
0.596352
0.590054
0.58113
0.571546
0.603812
0.605766
0.606533
0.606229
0.604717
0.601807
0.596992
0.589784
0.578779
0.566309
0.605285
0.607393
0.608244
0.608014
0.606524
0.603568
0.598481
0.590589
0.577701
0.562322
0.605841
0.608014
0.608889
0.608636
0.607097
0.60406
0.598771
0.590409
0.576014
0.557893
0.60661
0.608814
0.609722
0.609513
0.608015
0.605005
0.599649
0.590989
0.575616
0.554501
0.603911
0.605988
0.60677
0.6063
0.604469
0.601065
0.59532
0.586165
0.57029
0.546963
0.592395
0.592982
0.593158
0.593057
0.592706
0.592143
0.591413
0.590592
0.58976
0.58893
0.595359
0.596048
0.596295
0.596098
0.595462
0.594413
0.593008
0.591362
0.589661
0.588264
0.596961
0.597951
0.5983
0.59802
0.597097
0.595536
0.593366
0.590694
0.587746
0.585183
0.597842
0.599143
0.599615
0.599286
0.59812
0.596083
0.593131
0.589317
0.584782
0.580589
0.599387
0.600966
0.601555
0.601226
0.599902
0.597506
0.593877
0.588969
0.582692
0.576524
0.600231
0.602029
0.602726
0.602406
0.600972
0.598302
0.594106
0.588211
0.580127
0.571757
0.601646
0.603633
0.604418
0.604142
0.602664
0.599835
0.59522
0.588497
0.578672
0.567958
0.602207
0.604287
0.605109
0.604807
0.603253
0.600273
0.595333
0.587968
0.576651
0.563608
0.603041
0.605169
0.606022
0.60575
0.604202
0.601188
0.596084
0.588262
0.575858
0.560269
0.600494
0.602512
0.60329
0.60284
0.601062
0.597761
0.592339
0.584037
0.570991
0.553474
0.591116
0.591553
0.591672
0.591613
0.591401
0.591067
0.590643
0.590181
0.589716
0.589184
0.593683
0.594153
0.594326
0.594194
0.593767
0.593076
0.592177
0.591164
0.590171
0.589397
0.594786
0.595525
0.59579
0.595585
0.594906
0.593782
0.592271
0.590497
0.588665
0.58717
0.595358
0.596399
0.596783
0.596519
0.595593
0.594014
0.59181
0.589105
0.586129
0.583563
0.5966
0.597931
0.598428
0.59814
0.597021
0.595048
0.592183
0.588511
0.584204
0.580268
0.597263
0.598836
0.599443
0.59914
0.597863
0.595554
0.592085
0.587469
0.581704
0.576161
0.598557
0.600346
0.601045
0.600759
0.599387
0.59684
0.592875
0.587408
0.580166
0.572837
0.599049
0.600956
0.601702
0.601386
0.599911
0.597158
0.592796
0.586625
0.578055
0.568892
0.599909
0.601885
0.602663
0.602364
0.600863
0.598023
0.593425
0.58673
0.577121
0.565981
0.597471
0.599354
0.600094
0.599674
0.598009
0.594947
0.590071
0.582918
0.572647
0.560014
0.590184
0.590522
0.590604
0.590571
0.590448
0.590256
0.590014
0.589756
0.589489
0.58911
0.592468
0.592776
0.592893
0.592809
0.592535
0.592096
0.591539
0.590928
0.59035
0.589914
0.593165
0.59369
0.593881
0.593738
0.593263
0.592488
0.591474
0.590326
0.589199
0.588322
0.593477
0.59427
0.594568
0.594368
0.593669
0.592499
0.590917
0.589055
0.587126
0.585554
0.59441
0.595479
0.595881
0.595645
0.594746
0.593197
0.591028
0.588371
0.585465
0.582965
0.594867
0.596181
0.59669
0.596423
0.595346
0.593445
0.590698
0.587214
0.583186
0.579551
0.596008
0.597552
0.598151
0.597883
0.596678
0.594498
0.591244
0.586967
0.581758
0.576813
0.596375
0.598052
0.598706
0.598402
0.597075
0.594659
0.590983
0.586024
0.579715
0.573398
0.597235
0.599003
0.59969
0.599392
0.598014
0.595471
0.591522
0.586037
0.578823
0.57106
0.594868
0.596557
0.597233
0.596852
0.595351
0.592627
0.588426
0.582523
0.574706
0.565878
0.589477
0.589754
0.589811
0.589795
0.589724
0.589616
0.58948
0.589335
0.589175
0.588878
0.59157
0.591767
0.591844
0.591793
0.591623
0.591353
0.591015
0.590651
0.590313
0.590061
0.591949
0.592306
0.592439
0.592343
0.592024
0.591508
0.590848
0.590122
0.589434
0.588916
0.592074
0.592653
0.592875
0.592731
0.592226
0.591392
0.590293
0.589042
0.587804
0.586838
0.592721
0.593543
0.593855
0.593671
0.592982
0.591816
0.590231
0.588362
0.586429
0.584844
0.592978
0.59403
0.59444
0.594219
0.593351
0.591853
0.58976
0.58721
0.584443
0.582075
0.593963
0.595242
0.595738
0.595503
0.594495
0.592712
0.590144
0.58691
0.583235
0.579936
0.594165
0.595583
0.596136
0.595861
0.594723
0.592695
0.589722
0.58588
0.581342
0.577056
0.595019
0.596541
0.597129
0.596855
0.595648
0.593472
0.590217
0.585893
0.580616
0.575318
0.592691
0.594146
0.594739
0.594405
0.593103
0.590774
0.587293
0.582604
0.576823
0.570814
0.588922
0.58916
0.589202
0.589195
0.589155
0.589094
0.589018
0.588936
0.588836
0.588585
0.590893
0.591017
0.591068
0.591038
0.590935
0.590773
0.590571
0.590355
0.590156
0.590006
0.591021
0.591257
0.591345
0.591283
0.591075
0.590743
0.590324
0.589873
0.589457
0.58915
0.591039
0.591447
0.591606
0.591507
0.591155
0.59058
0.589838
0.589014
0.588226
0.587631
0.591436
0.592045
0.592277
0.592141
0.591633
0.590786
0.589664
0.588382
0.587112
0.586112
0.591521
0.592331
0.592648
0.592474
0.591804
0.590668
0.589124
0.58731
0.585438
0.583906
0.592365
0.593386
0.593782
0.593588
0.59278
0.591379
0.589424
0.587051
0.584504
0.582323
0.59238
0.593531
0.593981
0.593748
0.592812
0.591179
0.588861
0.585981
0.582784
0.579919
0.593237
0.594501
0.594987
0.594749
0.593738
0.591952
0.589369
0.586074
0.582301
0.578747
0.590922
0.592126
0.592627
0.592345
0.591257
0.589341
0.58656
0.582963
0.578796
0.574799
0.588476
0.588688
0.588719
0.588718
0.588695
0.588661
0.588618
0.588571
0.588505
0.588283
0.590373
0.590452
0.590487
0.59047
0.590409
0.590312
0.590192
0.590065
0.589944
0.589851
0.590296
0.590445
0.590502
0.590463
0.590331
0.590122
0.589863
0.589588
0.589339
0.589158
0.590281
0.59056
0.590672
0.590606
0.590369
0.589984
0.589494
0.588961
0.588463
0.588095
0.590469
0.590903
0.59107
0.590972
0.590611
0.590016
0.589244
0.588384
0.587561
0.586932
0.590418
0.591018
0.591255
0.591124
0.590626
0.589794
0.588691
0.587431
0.586183
0.585199
0.59115
0.591936
0.592241
0.59209
0.591467
0.590407
0.588966
0.587272
0.585535
0.584107
0.590963
0.591862
0.592215
0.592026
0.591287
0.590022
0.588275
0.586182
0.583973
0.582085
0.59185
0.592864
0.59325
0.593055
0.592242
0.590834
0.588855
0.586422
0.583781
0.581431
0.589526
0.590483
0.59089
0.590661
0.589784
0.588266
0.586122
0.583451
0.580517
0.577915
0.588112
0.588305
0.588328
0.58833
0.588316
0.588298
0.588273
0.588246
0.5882
0.587999
0.589974
0.590026
0.59005
0.590041
0.590005
0.589948
0.589877
0.5898
0.589725
0.589662
0.589709
0.589801
0.589835
0.58981
0.589729
0.589601
0.589444
0.58928
0.589134
0.589028
0.589732
0.589918
0.589995
0.589954
0.589799
0.589547
0.589231
0.58889
0.588577
0.588348
0.589743
0.590042
0.590158
0.59009
0.589841
0.589436
0.588919
0.588355
0.587829
0.587437
0.589596
0.590025
0.590197
0.590102
0.589745
0.589156
0.588389
0.587535
0.586715
0.586088
0.590251
0.590834
0.591062
0.590949
0.590488
0.589713
0.588684
0.587505
0.586341
0.585412
0.589852
0.590527
0.590794
0.590647
0.590086
0.589141
0.587867
0.586389
0.584892
0.583666
0.590812
0.591596
0.591893
0.591741
0.591113
0.590043
0.588579
0.586834
0.585023
0.583488
0.588457
0.589184
0.589504
0.589324
0.588644
0.587485
0.585886
0.583964
0.581945
0.580288
0.58781
0.587987
0.588004
0.588007
0.587999
0.587989
0.587975
0.587959
0.587926
0.587743
0.589677
0.589713
0.589731
0.589727
0.589706
0.589672
0.589629
0.589581
0.589531
0.589484
0.589215
0.589269
0.589288
0.589272
0.589223
0.589146
0.589054
0.588959
0.588875
0.588816
0.58934
0.589463
0.589515
0.58949
0.589392
0.589231
0.58903
0.588816
0.588619
0.588476
0.5892
0.589399
0.589476
0.58943
0.589264
0.588996
0.588658
0.588297
0.587966
0.587725
0.588995
0.589292
0.589412
0.589346
0.589099
0.588694
0.588176
0.58761
0.587078
0.586683
0.589602
0.590022
0.590186
0.590104
0.589775
0.589228
0.588514
0.587715
0.586949
0.58635
0.588983
0.58947
0.589665
0.589555
0.589144
0.588463
0.587563
0.586549
0.585554
0.584771
0.590071
0.590659
0.590879
0.590765
0.590299
0.589516
0.588468
0.587252
0.586036
0.585043
0.587656
0.588185
0.588426
0.58829
0.587783
0.586929
0.585776
0.584435
0.583076
0.582047
0.587552
0.587712
0.587725
0.587728
0.587723
0.587718
0.58771
0.5877
0.587676
0.58751
0.589475
0.589503
0.589518
0.589516
0.589504
0.589483
0.589456
0.589425
0.589387
0.589346
0.588782
0.58881
0.588819
0.588809
0.588779
0.588734
0.588682
0.588629
0.588585
0.588554
0.58907
0.58915
0.589185
0.589171
0.58911
0.58901
0.588884
0.588751
0.588628
0.588536
0.588797
0.588925
0.588974
0.588944
0.588836
0.588664
0.588449
0.588222
0.588019
0.587873
0.588569
0.588769
0.58885
0.588806
0.58864
0.58837
0.588029
0.587662
0.587322
0.587076
0.589149
0.589439
0.589553
0.589496
0.589269
0.588896
0.588416
0.587889
0.587395
0.587012
0.588297
0.588634
0.588772
0.588692
0.588403
0.587928
0.587311
0.586634
0.585985
0.585497
0.589582
0.590009
0.590167
0.590086
0.589753
0.5892
0.588474
0.58765
0.586851
0.586214
0.587055
0.587422
0.587599
0.5875
0.587135
0.586529
0.585724
0.584817
0.583922
0.583302
0.587297
0.58744
0.587448
0.587451
0.587449
0.587446
0.587442
0.587436
0.587419
0.587272
0.589375
0.5894
0.589413
0.589413
0.589405
0.589392
0.589373
0.58935
0.589319
0.589278
0.588387
0.588399
0.588401
0.588393
0.588375
0.58835
0.588322
0.588295
0.588274
0.588263
0.588897
0.588948
0.588972
0.588964
0.588927
0.588865
0.588789
0.588706
0.588631
0.588571
0.588511
0.58859
0.588621
0.588602
0.588534
0.588426
0.588292
0.588153
0.58803
0.587944
0.588289
0.58842
0.588474
0.588446
0.588337
0.588163
0.587943
0.58771
0.587496
0.587343
0.588844
0.589037
0.589112
0.589074
0.588922
0.588676
0.588364
0.588026
0.587718
0.587476
0.587749
0.587974
0.588068
0.588014
0.587816
0.587496
0.587085
0.586644
0.586227
0.585932
0.589311
0.589613
0.589722
0.589665
0.589437
0.58906
0.588574
0.588031
0.58752
0.58711
0.58657
0.586813
0.586938
0.586869
0.586616
0.586201
0.585656
0.585061
0.584483
0.584125
0.586947
0.587069
0.587074
0.587075
0.587074
0.587073
0.587072
0.58707
0.58706
0.586936
0.589402
0.589427
0.589438
0.58944
0.589435
0.589425
0.589411
0.589392
0.589363
0.589317
0.588029
0.588031
0.588031
0.588025
0.588014
0.588
0.587986
0.587973
0.587965
0.587966
0.588802
0.588834
0.588848
0.588843
0.58882
0.588784
0.588739
0.58869
0.588646
0.588607
0.588332
0.58838
0.5884
0.588389
0.588347
0.588281
0.588199
0.588115
0.588041
0.587991
0.588142
0.588227
0.588263
0.588245
0.588177
0.588067
0.587928
0.587782
0.587648
0.587553
0.588659
0.58878
0.588827
0.5888
0.588702
0.588545
0.588349
0.58814
0.587955
0.587808
0.587336
0.587483
0.587547
0.587512
0.587382
0.587171
0.586903
0.58662
0.586352
0.58618
0.589252
0.589458
0.58953
0.589492
0.58934
0.589093
0.588777
0.588431
0.588113
0.587847
0.586064
0.586216
0.586304
0.586257
0.586089
0.585813
0.585454
0.585075
0.584704
0.584512
0.58628
0.586376
0.586378
0.586379
0.586379
0.58638
0.586381
0.586381
0.586378
0.586283
0.589624
0.589651
0.589659
0.58966
0.589656
0.589649
0.589639
0.589623
0.589597
0.589543
0.587753
0.587755
0.587757
0.587755
0.58775
0.587742
0.587732
0.587723
0.587716
0.58772
0.588769
0.588786
0.588791
0.588786
0.588772
0.588751
0.588726
0.588701
0.588679
0.588658
0.588259
0.58829
0.588304
0.588298
0.588274
0.588233
0.588184
0.588132
0.588086
0.588054
0.588122
0.588177
0.588201
0.588191
0.588149
0.58808
0.587994
0.587903
0.587818
0.587757
0.588579
0.588649
0.588675
0.588657
0.588594
0.588496
0.588376
0.588252
0.588147
0.588065
0.587135
0.587234
0.587279
0.587259
0.587176
0.58704
0.586866
0.586683
0.586503
0.586397
0.589456
0.58959
0.589636
0.589609
0.58951
0.589352
0.589153
0.588939
0.58875
0.588577
0.585307
0.585401
0.585462
0.585432
0.585322
0.585142
0.584911
0.584672
0.584428
0.584335
0.584986
0.585051
0.585054
0.585057
0.585058
0.585059
0.585058
0.585057
0.585057
0.584989
0.590181
0.590199
0.590196
0.590191
0.590186
0.590182
0.590179
0.590176
0.590165
0.590114
0.587675
0.587689
0.587701
0.587707
0.587706
0.587699
0.587688
0.587672
0.587654
0.587643
0.58877
0.588772
0.58877
0.588764
0.588754
0.588743
0.588731
0.588721
0.588716
0.588713
0.588277
0.588299
0.58831
0.588308
0.588293
0.588267
0.588236
0.588202
0.588171
0.588148
0.588199
0.588236
0.588252
0.588246
0.588219
0.588175
0.588121
0.588062
0.588007
0.587965
0.58858
0.588618
0.588632
0.588618
0.588577
0.588515
0.588441
0.588367
0.58831
0.588271
0.5873
0.587377
0.587413
0.587402
0.587348
0.587258
0.587142
0.587017
0.586884
0.586797
0.590049
0.590124
0.59015
0.590129
0.590062
0.589959
0.589834
0.589705
0.589604
0.589508
0.584024
0.584088
0.584132
0.584113
0.584039
0.58392
0.583768
0.583612
0.583441
0.583395
0.583163
0.583204
0.583216
0.583223
0.583225
0.583223
0.583216
0.583203
0.583187
0.583132
0.591107
0.591078
0.591049
0.591029
0.591021
0.591021
0.591033
0.591056
0.591089
0.591099
0.587859
0.587895
0.587919
0.587931
0.587933
0.587927
0.587911
0.587887
0.587851
0.587806
0.588761
0.588752
0.588745
0.588738
0.588731
0.588723
0.588717
0.588716
0.588722
0.588735
0.588333
0.588351
0.588359
0.588358
0.588347
0.58833
0.588307
0.588282
0.588258
0.588238
0.588296
0.588322
0.588334
0.58833
0.58831
0.588279
0.58824
0.588198
0.588159
0.588127
0.588602
0.588624
0.588633
0.588622
0.588592
0.588547
0.588494
0.588442
0.588407
0.588393
0.58782
0.587891
0.587922
0.587916
0.587876
0.58781
0.587724
0.587628
0.587519
0.58742
0.591007
0.591036
0.591047
0.591028
0.590977
0.590901
0.590812
0.590728
0.590681
0.59068
0.582338
0.582396
0.582429
0.582414
0.582359
0.58227
0.582158
0.582042
0.581914
0.581873
0.439203
0.418451
0.425357
0.466316
0.391428
0.368189
0.379231
0.436467
0.348238
0.321091
0.33843
0.417353
0.310168
0.280771
0.305105
0.406432
0.278689
0.248623
0.280192
0.404019
0.251585
0.222068
0.261903
0.401209
0.229868
0.202224
0.250848
0.398572
0.209482
0.185365
0.242827
0.396477
0.191539
0.173516
0.239244
0.398107
0.172078
0.162206
0.234931
0.39361
0.499284
0.489086
0.489411
0.499126
0.468793
0.456178
0.457323
0.470002
0.437916
0.421195
0.423405
0.440979
0.408894
0.387928
0.391522
0.414243
0.384232
0.358768
0.364026
0.392092
0.362186
0.331837
0.337888
0.371217
0.344304
0.308967
0.314852
0.353278
0.327861
0.287726
0.293163
0.336579
0.314318
0.270148
0.275132
0.322942
0.298957
0.252362
0.254959
0.305299
0.566686
0.56447
0.56394
0.565074
0.548926
0.545229
0.544535
0.546836
0.528939
0.523044
0.522236
0.526571
0.5067
0.498432
0.497632
0.504467
0.485702
0.474979
0.474352
0.484086
0.464625
0.451318
0.450909
0.463654
0.445686
0.429712
0.42948
0.445172
0.427051
0.408531
0.408442
0.4269
0.410789
0.390589
0.390546
0.410927
0.391873
0.37216
0.371395
0.391303
0.579151
0.578067
0.577718
0.578069
0.56952
0.568108
0.567618
0.567982
0.55766
0.555176
0.554458
0.555359
0.542887
0.539097
0.538191
0.539916
0.52845
0.523211
0.522193
0.525047
0.512886
0.506071
0.504996
0.509243
0.498284
0.489822
0.48873
0.494569
0.48297
0.472937
0.471885
0.479395
0.468745
0.457768
0.456764
0.465574
0.450904
0.440973
0.43971
0.448059
0.586019
0.585428
0.585228
0.585416
0.58019
0.57971
0.57948
0.57949
0.572711
0.571771
0.571348
0.571419
0.562607
0.560971
0.560319
0.560586
0.552649
0.550145
0.549272
0.549904
0.541354
0.53784
0.536772
0.537951
0.530623
0.52601
0.524791
0.526702
0.51884
0.513151
0.511851
0.51464
0.507668
0.501326
0.500023
0.503597
0.492916
0.487715
0.486285
0.489306
0.588597
0.588121
0.587975
0.58816
0.585151
0.58494
0.584831
0.584823
0.580066
0.579645
0.579429
0.579411
0.572843
0.572081
0.571704
0.571696
0.565788
0.564557
0.563989
0.564044
0.557471
0.555644
0.554871
0.555068
0.549642
0.547127
0.546161
0.546608
0.540745
0.537522
0.536415
0.537234
0.532321
0.52865
0.527505
0.528731
0.520409
0.517857
0.516636
0.517194
0.589722
0.58929
0.589167
0.589354
0.58784
0.587747
0.587696
0.587687
0.584303
0.584108
0.584001
0.583981
0.578934
0.578564
0.578362
0.578325
0.573731
0.57311
0.572781
0.572733
0.56738
0.566423
0.565938
0.565897
0.561538
0.560171
0.559518
0.559529
0.55474
0.552932
0.552138
0.55227
0.548579
0.546461
0.545607
0.545929
0.538904
0.537902
0.537002
0.536561
0.590053
0.589636
0.589522
0.589711
0.589182
0.589135
0.589108
0.589103
0.586721
0.586623
0.586569
0.586557
0.582705
0.582513
0.582405
0.582378
0.578807
0.578477
0.578292
0.578246
0.573846
0.573326
0.573037
0.572972
0.569408
0.568648
0.568241
0.568167
0.56413
0.563107
0.562588
0.562539
0.55972
0.558494
0.55791
0.557929
0.551678
0.551585
0.550987
0.550206
0.590007
0.589597
0.589486
0.589676
0.589798
0.589772
0.589757
0.589753
0.58808
0.588028
0.587999
0.587992
0.585082
0.584979
0.584918
0.584901
0.582161
0.581981
0.581876
0.581844
0.578269
0.577979
0.577809
0.577759
0.574905
0.574473
0.574225
0.574156
0.570759
0.570172
0.569847
0.569774
0.567614
0.566899
0.56652
0.566463
0.560795
0.561223
0.560858
0.560002
0.589782
0.589372
0.589263
0.589454
0.589995
0.58998
0.58997
0.589967
0.588779
0.588751
0.588735
0.588731
0.586564
0.586504
0.586469
0.586458
0.58438
0.584277
0.584216
0.584196
0.581335
0.581167
0.581066
0.581032
0.578831
0.578578
0.578428
0.578378
0.575549
0.575206
0.575006
0.574947
0.573342
0.57292
0.572682
0.572622
0.567466
0.568178
0.567971
0.567135
0.589483
0.589072
0.588963
0.589155
0.589965
0.589955
0.589948
0.589946
0.589072
0.589057
0.589048
0.589045
0.587465
0.587429
0.587408
0.5874
0.585834
0.585774
0.585737
0.585725
0.583462
0.583362
0.583301
0.583279
0.581657
0.581506
0.581413
0.58138
0.579031
0.578827
0.578704
0.578663
0.577562
0.577308
0.57716
0.577116
0.572417
0.573271
0.573162
0.572375
0.589167
0.588755
0.588646
0.588839
0.589823
0.589816
0.58981
0.589808
0.589114
0.589106
0.589101
0.5891
0.587991
0.587969
0.587955
0.58795
0.586763
0.586727
0.586705
0.586698
0.584926
0.584865
0.584828
0.584813
0.583692
0.583598
0.58354
0.583519
0.581549
0.581425
0.58135
0.581322
0.580688
0.580532
0.58044
0.580411
0.57611
0.577017
0.576967
0.576235
0.588863
0.588447
0.588339
0.588534
0.589641
0.589634
0.589629
0.589626
0.589005
0.589001
0.588998
0.588998
0.588281
0.588266
0.588257
0.588253
0.587334
0.587312
0.587299
0.587295
0.585918
0.58588
0.585857
0.585847
0.585147
0.585088
0.585051
0.585038
0.583339
0.583264
0.583217
0.583199
0.583002
0.582903
0.582846
0.58283
0.578856
0.579761
0.579745
0.57907
0.58858
0.588161
0.588053
0.588252
0.589464
0.589457
0.589452
0.589449
0.588805
0.588804
0.588804
0.588804
0.58843
0.58842
0.588413
0.58841
0.587662
0.58765
0.587643
0.58764
0.586576
0.586553
0.586538
0.586532
0.586177
0.58614
0.586117
0.586108
0.584572
0.584527
0.584497
0.584486
0.58471
0.584647
0.584611
0.584604
0.580881
0.581746
0.581747
0.581133
0.588314
0.587893
0.587787
0.587989
0.589325
0.589318
0.589312
0.589309
0.588552
0.588553
0.588554
0.588555
0.588503
0.588496
0.588491
0.588489
0.587836
0.58783
0.587826
0.587824
0.587008
0.586993
0.586984
0.58698
0.5869
0.586876
0.586862
0.586857
0.585379
0.585351
0.585333
0.585325
0.585975
0.585932
0.58591
0.585909
0.582345
0.583142
0.58315
0.582603
0.588033
0.587611
0.58751
0.587716
0.589252
0.589243
0.589237
0.589233
0.588268
0.58827
0.588271
0.588272
0.588547
0.588542
0.588538
0.588536
0.587923
0.58792
0.587918
0.587917
0.587299
0.587289
0.587283
0.58728
0.587405
0.587391
0.587383
0.58738
0.585864
0.585847
0.585835
0.58583
0.586929
0.586898
0.586886
0.58689
0.583349
0.584054
0.584064
0.583589
0.587641
0.587222
0.587129
0.58734
0.589282
0.589272
0.589264
0.58926
0.587974
0.587977
0.587979
0.58798
0.588592
0.588588
0.588586
0.588585
0.587977
0.587976
0.587975
0.587974
0.587522
0.587514
0.58751
0.587508
0.587768
0.587761
0.587758
0.587757
0.586137
0.586126
0.586118
0.586113
0.587702
0.587678
0.587671
0.58768
0.583904
0.584496
0.584505
0.584111
0.58691
0.586508
0.586429
0.586641
0.589496
0.589483
0.589474
0.58947
0.587726
0.587727
0.587728
0.587728
0.588652
0.58865
0.58865
0.588651
0.588043
0.588041
0.58804
0.588039
0.58773
0.587724
0.58772
0.587719
0.588051
0.58805
0.58805
0.58805
0.586352
0.58634
0.586332
0.586329
0.588456
0.588437
0.588433
0.588446
0.58389
0.584346
0.58435
0.584047
0.585496
0.585143
0.585087
0.585283
0.590056
0.59004
0.590033
0.590033
0.587627
0.587624
0.587621
0.587618
0.58872
0.588722
0.588724
0.588726
0.588134
0.588132
0.58813
0.588129
0.587939
0.587933
0.58793
0.58793
0.588281
0.588286
0.588288
0.588288
0.586709
0.586688
0.586679
0.586681
0.589431
0.589418
0.589418
0.589433
0.583078
0.583367
0.583364
0.58317
0.583426
0.583206
0.58318
0.583304
0.591072
0.591067
0.591071
0.591084
0.587744
0.58773
0.587721
0.587715
0.588759
0.588765
0.588769
0.588772
0.588221
0.588218
0.588216
0.588216
0.588103
0.588097
0.588095
0.588096
0.588425
0.588432
0.588435
0.588434
0.587256
0.587219
0.587208
0.58722
0.590751
0.590763
0.590769
0.590773
0.581596
0.58167
0.581665
0.581621
0.595279
0.603737
0.607739
0.610842
0.613966
0.616723
0.618961
0.620709
0.622076
0.623222
0.59621
0.599546
0.606968
0.612018
0.616483
0.61987
0.622334
0.624099
0.625343
0.626286
0.600068
0.596425
0.60741
0.613125
0.618408
0.622005
0.624573
0.626395
0.627649
0.62854
0.603481
0.592549
0.607163
0.612736
0.618596
0.622145
0.624701
0.626479
0.627695
0.628559
0.60797
0.590536
0.607908
0.613208
0.619513
0.622913
0.62544
0.627134
0.628262
0.629045
0.611054
0.587877
0.607647
0.612473
0.61923
0.622446
0.624987
0.626633
0.627766
0.62859
0.615052
0.586612
0.608469
0.612579
0.619741
0.622693
0.62525
0.626839
0.627946
0.628746
0.616619
0.583558
0.607473
0.610815
0.618485
0.621239
0.623958
0.625631
0.626937
0.627974
0.61828
0.582073
0.60792
0.609928
0.617741
0.620028
0.622976
0.624797
0.626306
0.627535
0.602734
0.566206
0.594699
0.597053
0.606739
0.610608
0.615256
0.618369
0.620931
0.622952
0.537859
0.559927
0.576274
0.587901
0.595865
0.601409
0.605415
0.608407
0.610716
0.612635
0.524148
0.554693
0.576779
0.590727
0.59958
0.605571
0.609814
0.61289
0.615132
0.616795
0.513882
0.551561
0.577883
0.5929
0.602354
0.608617
0.613006
0.616148
0.618384
0.61998
0.505494
0.548529
0.578055
0.593394
0.603252
0.609593
0.613991
0.617097
0.619288
0.62084
0.501034
0.547709
0.579318
0.594709
0.604856
0.611149
0.615489
0.618497
0.620585
0.622048
0.497836
0.546635
0.579729
0.594885
0.605274
0.611445
0.615728
0.61865
0.6207
0.622165
0.497437
0.547065
0.581233
0.595864
0.606416
0.612365
0.616573
0.619396
0.621385
0.622811
0.49664
0.546115
0.581186
0.595118
0.605863
0.611597
0.615832
0.618673
0.620785
0.622384
0.497129
0.546434
0.582363
0.595038
0.605579
0.610841
0.615172
0.618133
0.620413
0.622197
0.488045
0.536398
0.573078
0.585266
0.596828
0.60311
0.608632
0.612523
0.615564
0.617832
0.568976
0.57525
0.581328
0.586703
0.591288
0.595121
0.598295
0.600916
0.603109
0.604999
0.555739
0.567132
0.577318
0.585645
0.592313
0.597562
0.601656
0.604839
0.607301
0.609175
0.542653
0.559828
0.574197
0.585086
0.593397
0.599647
0.604355
0.607904
0.610558
0.612504
0.529496
0.552403
0.570757
0.583753
0.593336
0.600248
0.605308
0.609039
0.611789
0.613779
0.519571
0.547547
0.569331
0.58391
0.594411
0.601709
0.606938
0.610717
0.613464
0.615427
0.510725
0.543014
0.56774
0.583443
0.594619
0.60212
0.60743
0.611212
0.613963
0.615947
0.504697
0.540489
0.567668
0.584056
0.595687
0.603223
0.608536
0.612274
0.614997
0.616961
0.499004
0.537454
0.566697
0.583399
0.595348
0.602834
0.608176
0.611941
0.614757
0.616854
0.495295
0.536113
0.567092
0.583461
0.595297
0.602498
0.607899
0.611764
0.614709
0.616957
0.485204
0.52722
0.559406
0.575718
0.588253
0.596179
0.602396
0.606925
0.610403
0.612928
0.578789
0.581198
0.584103
0.587051
0.589828
0.592341
0.594563
0.596505
0.598219
0.599778
0.570015
0.574781
0.580195
0.585338
0.589874
0.593734
0.596955
0.59961
0.601766
0.60347
0.559494
0.567572
0.575983
0.583406
0.589627
0.594696
0.598771
0.60201
0.604545
0.606475
0.547178
0.559281
0.571025
0.580708
0.588464
0.594528
0.59925
0.602908
0.605717
0.60782
0.536485
0.55288
0.567907
0.579597
0.588632
0.595444
0.600606
0.604515
0.607471
0.609649
0.525867
0.546571
0.56472
0.578115
0.588196
0.595553
0.601018
0.605089
0.608149
0.610409
0.517334
0.542162
0.563162
0.577906
0.588788
0.59649
0.602135
0.606282
0.609389
0.611673
0.508957
0.537544
0.561085
0.576814
0.588293
0.596194
0.601975
0.606214
0.609428
0.611832
0.502442
0.534659
0.5604
0.576533
0.588212
0.596094
0.601988
0.606336
0.609656
0.61218
0.491542
0.526356
0.553547
0.570068
0.582386
0.590834
0.597303
0.602121
0.605812
0.608461
0.585283
0.586044
0.587208
0.588574
0.590009
0.591425
0.592772
0.594025
0.595205
0.596358
0.579949
0.581804
0.584322
0.587046
0.589717
0.592199
0.594426
0.596372
0.598027
0.599384
0.572411
0.575814
0.580123
0.584511
0.588602
0.592228
0.595343
0.597956
0.600096
0.60179
0.562595
0.568206
0.574774
0.581032
0.586584
0.591299
0.59521
0.598398
0.600952
0.602936
0.553473
0.561762
0.570821
0.578956
0.585871
0.591523
0.596069
0.599683
0.602527
0.604695
0.543676
0.554969
0.566626
0.576545
0.584685
0.591116
0.596165
0.600104
0.603174
0.605506
0.535226
0.549705
0.563935
0.575448
0.584625
0.591656
0.597073
0.601231
0.604446
0.606866
0.526531
0.544221
0.560898
0.573746
0.583757
0.591227
0.596924