/*--------------------------------*- C++ -*----------------------------------*\
| =========                 |                                                 |
| \\      /  F ield         | foam-extend: Open Source CFD                    |
|  \\    /   O peration     | Version:     4.0                                |
|   \\  /    A nd           | Web:         http://www.foam-extend.org         |
|    \\/     M anipulation  |                                                 |
\*---------------------------------------------------------------------------*/
FoamFile
{
    version     2.0;
    format      ascii;
    class       volScalarField;
    location    "2100";
    object      mut;
}
// * * * * * * * * * * * * * * * * * * * * * * * * * * * * * * * * * * * * * //

dimensions      [1 -1 -1 0 0 0 0];

internalField   nonuniform List<scalar> 
34480
(
0.00188847
0.00188721
0.00188705
0.00188788
0.00188999
0.0018939
0.00190143
0.0019197
0.00195896
0.00203021
0.0159264
0.0151183
0.0148186
0.0145487
0.0129265
0.00824384
0.00340687
0.0013483
0.000984826
0.00145488
0.0442686
0.0426105
0.040923
0.0374784
0.0286696
0.0146811
0.00511826
0.00182847
0.00124084
0.00181176
0.048418
0.0462601
0.044319
0.0402799
0.0297075
0.0141603
0.00479311
0.00177548
0.00128735
0.00197761
0.0477409
0.0453208
0.0435558
0.0397147
0.0288485
0.0131886
0.00440832
0.00168449
0.00129889
0.00209661
0.0459918
0.0435072
0.0418464
0.0380599
0.0268348
0.011615
0.00385777
0.00155328
0.00130534
0.00222419
0.0438622
0.0415388
0.0400786
0.0364649
0.0252694
0.0105516
0.00349389
0.0014611
0.00131286
0.00233378
0.0364093
0.0347169
0.0336871
0.0309397
0.0214247
0.00863827
0.00281193
0.00123972
0.00123609
0.00234075
0.0124291
0.0121093
0.012006
0.0117293
0.00993099
0.00512539
0.00167721
0.000736726
0.000834323
0.00178642
0.00180097
0.00180088
0.00180255
0.00180582
0.0018106
0.00181672
0.00182475
0.00183599
0.00185256
0.00181385
0.0018885
0.00188664
0.00188604
0.00188656
0.00188842
0.00189187
0.00189737
0.00190683
0.00192453
0.00196536
0.0149585
0.0143234
0.0141313
0.0143146
0.0147255
0.0147744
0.0129473
0.00764438
0.00249481
0.00204505
0.0407435
0.0395151
0.0388485
0.0383107
0.0366973
0.0319863
0.023005
0.0112946
0.00328114
0.00280215
0.0448201
0.0431506
0.0423467
0.0417735
0.0399308
0.0344324
0.0242065
0.0114386
0.0033005
0.00316938
0.0446544
0.0426969
0.0419508
0.0415921
0.0401088
0.0348381
0.0244537
0.0112836
0.00323794
0.00345058
0.0434399
0.041372
0.040644
0.0404195
0.0392049
0.0342101
0.0239578
0.010849
0.00316555
0.0037816
0.0418355
0.0398503
0.0392127
0.0390723
0.0380957
0.0334654
0.0235378
0.0105532
0.00312912
0.00409802
0.035144
0.033671
0.0332018
0.033184
0.0326751
0.0293599
0.0210944
0.00938433
0.00285449
0.00417063
0.0123673
0.0120601
0.0119989
0.0120568
0.0121869
0.0120297
0.0106115
0.00545475
0.00170684
0.002801
0.0017964
0.00179394
0.00179344
0.00179463
0.00179743
0.00180153
0.00180771
0.00181754
0.00184181
0.00188913
0.00188401
0.0018824
0.00188186
0.00188233
0.00188392
0.00188669
0.00189067
0.00189667
0.0019056
0.00191913
0.014062
0.0136455
0.0135113
0.0136618
0.0141006
0.0147409
0.0151432
0.0142156
0.0101115
0.00583671
0.0372115
0.0362435
0.0359049
0.0360509
0.0363677
0.035948
0.0330147
0.0253634
0.0133437
0.00709915
0.0410818
0.0397773
0.0393468
0.0395724
0.0400693
0.0397171
0.0361972
0.0266179
0.0125401
0.00720386
0.0413107
0.0397944
0.0393782
0.0397177
0.0405219
0.0406525
0.0373614
0.0266929
0.0114198
0.007176
0.0405692
0.0389607
0.0385245
0.0389281
0.0399569
0.040576
0.0376973
0.026177
0.0103054
0.0072477
0.0394631
0.0378957
0.0375024
0.0379104
0.0390419
0.0400208
0.0376508
0.0255309
0.00938153
0.00733149
0.033622
0.0324582
0.0321486
0.0324657
0.0334068
0.0345682
0.0334143
0.0226407
0.00796972
0.00704284
0.0122604
0.012005
0.0119607
0.0120212
0.012217
0.0124493
0.0126047
0.0106468
0.00448907
0.00445663
0.00178908
0.00178618
0.0017853
0.00178619
0.00178888
0.00179324
0.00180027
0.0018121
0.00183884
0.00189234
0.00187582
0.00187469
0.00187431
0.00187466
0.00187582
0.00187769
0.00188001
0.00188309
0.00188704
0.00189172
0.0134713
0.0132234
0.0131325
0.0132284
0.0135195
0.0139754
0.0144497
0.0148652
0.014595
0.0128621
0.0340388
0.0333551
0.0331594
0.0333616
0.0339277
0.0346066
0.0346329
0.0324115
0.025687
0.0173826
0.0376442
0.0367024
0.0364338
0.0367251
0.0375336
0.0385402
0.0385994
0.035294
0.0257932
0.0167224
0.0381908
0.0370978
0.0368292
0.0371857
0.0381988
0.0395796
0.0399748
0.0361451
0.0246346
0.0158809
0.0378695
0.0366928
0.0363908
0.0367867
0.0379464
0.0396902
0.0405397
0.0363518
0.0231436
0.0153346
0.0372092
0.0360334
0.0357521
0.0361406
0.0373437
0.0392835
0.0405172
0.0360611
0.0215253
0.014846
0.032206
0.0313241
0.0310938
0.0313809
0.0322887
0.0339198
0.0354077
0.0320001
0.0185297
0.0137238
0.0121945
0.0119841
0.0119516
0.0119978
0.0121468
0.0123371
0.0125441
0.0126729
0.00958894
0.00831967
0.00178017
0.00177713
0.00177612
0.00177693
0.00177964
0.0017843
0.0017919
0.0018046
0.00183075
0.0018781
0.00186474
0.00186405
0.00186382
0.00186406
0.00186481
0.00186592
0.00186711
0.00186854
0.00187011
0.00187158
0.0131889
0.0130517
0.0129917
0.0130513
0.0132309
0.0134914
0.0137225
0.0140114
0.0142928
0.0144153
0.0315054
0.0311044
0.0309978
0.0311228
0.0315063
0.0321206
0.0328081
0.0330907
0.0316398
0.0274614
0.0347721
0.0341695
0.0340002
0.0341958
0.0347915
0.0357766
0.036878
0.0371099
0.0340964
0.0274698
0.0355146
0.0347907
0.0346142
0.0348549
0.0355986
0.0368649
0.0383261
0.0385833
0.0342339
0.026305
0.0355127
0.0347018
0.0344865
0.0347626
0.0356232
0.0371637
0.0390481
0.0394578
0.0338293
0.0253958
0.0352033
0.0343591
0.034151
0.0344276
0.035331
0.0370026
0.0391542
0.03964
0.0328228
0.024444
0.0309615
0.0303138
0.0301383
0.0303462
0.0310163
0.0323217
0.0341944
0.0350297
0.0289301
0.0222943
0.0121762
0.0120027
0.0119791
0.0120106
0.0121121
0.0122299
0.0123007
0.0126962
0.0125745
0.0122118
0.00176983
0.00176677
0.0017657
0.00176644
0.00176912
0.00177387
0.00178151
0.00179388
0.0018166
0.00185323
0.0018513
0.00185095
0.00185084
0.00185098
0.00185142
0.00185199
0.00185251
0.0018531
0.00185367
0.00185407
0.0131469
0.0130806
0.0130431
0.013082
0.0131939
0.0133324
0.0134243
0.0135395
0.0136594
0.0137514
0.0297468
0.0295534
0.0295057
0.0295656
0.0297591
0.0300877
0.0305433
0.0310948
0.0314186
0.0310579
0.0326049
0.032264
0.0321651
0.0322722
0.0326181
0.0332411
0.0341517
0.0351929
0.0354803
0.033946
0.0333873
0.0329494
0.0328416
0.0329806
0.0334352
0.0342678
0.0355102
0.0369059
0.0369215
0.0340658
0.0335733
0.0330497
0.0329035
0.0330753
0.0336304
0.034684
0.0363074
0.0381513
0.0378592
0.0338494
0.033498
0.0329223
0.0327754
0.0329541
0.0335602
0.0347311
0.0365766
0.03869
0.0379505
0.0331018
0.0299087
0.0294533
0.0293257
0.0294662
0.0299199
0.0308155
0.0322745
0.0342167
0.0337673
0.029955
0.0122092
0.0120669
0.0120518
0.0120717
0.0121353
0.0121879
0.0121404
0.0123353
0.012747
0.0136385
0.00175791
0.00175494
0.00175386
0.00175456
0.00175712
0.00176172
0.00176897
0.00178024
0.00179871
0.00182518
0.0018359
0.00183578
0.00183574
0.00183583
0.00183605
0.00183628
0.00183646
0.00183666
0.00183683
0.00183688
0.0132691
0.0132503
0.0132298
0.0132563
0.0133255
0.0133889
0.0134286
0.0134711
0.013502
0.0134923
0.0286856
0.0286086
0.0285934
0.0286184
0.0287007
0.0288351
0.0290274
0.0292923
0.0295739
0.0297922
0.0311273
0.03095
0.0308957
0.0309484
0.0311266
0.0314515
0.0319522
0.0326491
0.0333493
0.0337453
0.0318254
0.0315793
0.0315184
0.0315912
0.0318417
0.0323051
0.0330408
0.0340994
0.0350952
0.0353902
0.0320804
0.0317604
0.0316659
0.0317653
0.032096
0.0327279
0.0337631
0.0353035
0.0366626
0.0367234
0.0321314
0.031756
0.0316573
0.0317653
0.0321458
0.0328815
0.0341054
0.0359719
0.0374819
0.0371058
0.0290746
0.0287676
0.0286793
0.0287689
0.0290576
0.029618
0.0305422
0.0321147
0.0335583
0.0335481
0.012302
0.0121846
0.0121769
0.0121881
0.0122225
0.012221
0.0120998
0.0121031
0.01229
0.0129852
0.00174425
0.00174149
0.00174046
0.00174109
0.00174347
0.00174771
0.00175425
0.00176399
0.00177839
0.00179696
0.00181875
0.00181877
0.00181879
0.00181883
0.00181893
0.00181898
0.00181901
0.00181904
0.00181905
0.00181898
0.0134976
0.0135133
0.0135065
0.0135249
0.0135651
0.0135903
0.0136096
0.0136262
0.013627
0.0135851
0.0281279
0.028106
0.0281061
0.0281162
0.028147
0.0281921
0.0282571
0.0283456
0.0284431
0.0285277
0.0302023
0.0301134
0.0300842
0.0301092
0.0301971
0.0303547
0.0305926
0.0309229
0.0312976
0.0316308
0.0307571
0.0306258
0.0305937
0.0306294
0.0307598
0.0309968
0.031368
0.0319154
0.0325578
0.0331297
0.0310011
0.0308137
0.0307552
0.0308102
0.030998
0.0313511
0.0319233
0.0328127
0.0338835
0.0348221
0.0310981
0.0308624
0.030799
0.0308608
0.0310895
0.0315237
0.0322365
0.0333886
0.0347759
0.0359131
0.0284637
0.028265
0.0282069
0.0282612
0.0284344
0.0287594
0.0292742
0.0302069
0.0314657
0.0327018
0.0124606
0.0123623
0.0123609
0.0123658
0.0123785
0.0123353
0.0121783
0.0120712
0.0120511
0.0123136
0.00172875
0.00172627
0.00172533
0.00172589
0.00172801
0.00173177
0.00173741
0.00174544
0.00175631
0.00176911
0.00179997
0.00180008
0.00180012
0.00180014
0.00180016
0.00180014
0.00180012
0.00180009
0.00180005
0.00179993
0.0137984
0.0138413
0.0138461
0.0138588
0.0138772
0.0138881
0.0138989
0.0139055
0.0138957
0.013843
0.027888
0.02789
0.0278965
0.0279009
0.0279102
0.0279225
0.0279409
0.0279646
0.0279878
0.0280026
0.0296645
0.0296192
0.0296033
0.0296153
0.0296593
0.0297365
0.0298483
0.0299945
0.0301545
0.0302897
0.0300719
0.0300034
0.0299873
0.0300043
0.0300708
0.0301888
0.0303668
0.0306164
0.0309096
0.0311769
0.0302669
0.0301603
0.0301251
0.0301547
0.0302588
0.03045
0.0307495
0.0311962
0.0317559
0.0323091
0.0303622
0.0302178
0.0301785
0.0302127
0.0303466
0.0305945
0.0309871
0.0316014
0.032393
0.0331906
0.0280622
0.0279383
0.0279023
0.0279333
0.0280307
0.0282039
0.0284628
0.0289338
0.0296375
0.0304958
0.0126901
0.0126058
0.0126096
0.01261
0.0126069
0.0125344
0.012368
0.0122138
0.0120875
0.0121462
0.00171131
0.00170917
0.00170834
0.00170883
0.00171066
0.00171383
0.0017185
0.00172486
0.00173284
0.0017415
0.00177961
0.00177974
0.0017798
0.00177981
0.0017798
0.00177976
0.00177972
0.00177968
0.00177962
0.0017795
0.0141698
0.0142229
0.0142379
0.0142465
0.0142529
0.01426
0.0142668
0.0142687
0.014254
0.0141959
0.027836
0.0278454
0.0278543
0.0278567
0.0278584
0.0278608
0.0278646
0.0278687
0.0278702
0.0278659
0.0293733
0.0293489
0.0293397
0.0293459
0.0293691
0.0294093
0.0294651
0.0295334
0.0296033
0.029656
0.029658
0.0296219
0.0296137
0.029622
0.0296565
0.0297164
0.029803
0.0299164
0.0300424
0.0301472
0.0297963
0.0297364
0.0297155
0.0297315
0.029789
0.029892
0.0300474
0.030265
0.0305289
0.0307766
0.0298695
0.0297819
0.0297579
0.0297766
0.0298544
0.0299946
0.0302082
0.0305225
0.0309167
0.0312929
0.0278428
0.027768
0.0277471
0.0277638
0.0278141
0.027895
0.028011
0.0282231
0.0285519
0.0289693
0.0129947
0.0129201
0.0129284
0.0129258
0.012911
0.0128218
0.0126625
0.0125004
0.0123348
0.0123333
0.00169187
0.0016901
0.0016894
0.00168981
0.00169132
0.0016939
0.00169761
0.00170247
0.00170816
0.00171392
0.00175765
0.00175777
0.00175783
0.00175783
0.00175782
0.00175779
0.00175775
0.0017577
0.00175765
0.00175753
0.0146082
0.0146652
0.0146834
0.0146902
0.0146952
0.0147003
0.0147046
0.0147037
0.014686
0.0146238
0.0278887
0.0278995
0.0279077
0.0279099
0.0279103
0.0279103
0.0279103
0.0279093
0.0279054
0.0278966
0.029228
0.0292137
0.0292081
0.0292115
0.0292248
0.0292472
0.0292775
0.0293126
0.0293465
0.0293695
0.0294223
0.0294021
0.0293976
0.0294019
0.0294208
0.0294531
0.0294979
0.0295529
0.0296098
0.0296535
0.0295123
0.0294784
0.029466
0.0294748
0.029507
0.0295632
0.0296452
0.0297529
0.0298774
0.029989
0.0295607
0.029507
0.0294924
0.0295029
0.0295487
0.0296287
0.0297466
0.0299093
0.0301024
0.030272
0.027771
0.0277269
0.027716
0.0277243
0.0277467
0.0277755
0.0278183
0.0279011
0.0280362
0.0282302
0.0133792
0.0133112
0.0133234
0.0133187
0.0132947
0.0132011
0.013059
0.01291
0.0127424
0.0127413
0.00167039
0.00166898
0.00166842
0.00166874
0.00166994
0.00167196
0.00167481
0.00167839
0.00168235
0.00168612
0.00173401
0.00173412
0.00173418
0.00173418
0.00173417
0.00173414
0.00173411
0.00173407
0.00173403
0.00173392
0.0151183
0.015179
0.0151984
0.0152052
0.0152094
0.015213
0.0152156
0.0152128
0.0151929
0.0151268
0.0279981
0.0280088
0.0280161
0.0280183
0.0280186
0.0280183
0.0280176
0.0280157
0.0280109
0.0280012
0.0291633
0.0291544
0.0291509
0.0291529
0.0291608
0.0291741
0.0291915
0.0292112
0.0292295
0.0292408
0.0292959
0.0292836
0.0292807
0.0292832
0.0292944
0.0293133
0.0293387
0.0293682
0.0293968
0.0294178
0.0293509
0.0293314
0.0293239
0.029329
0.0293474
0.0293789
0.0294233
0.0294785
0.0295395
0.0295938
0.0293808
0.029347
0.029338
0.0293443
0.029372
0.0294192
0.0294865
0.0295742
0.029672
0.0297539
0.0278108
0.0277855
0.0277808
0.0277844
0.027791
0.0277946
0.027803
0.0278265
0.0278718
0.0279698
0.0138502
0.0137866
0.0138027
0.0137963
0.0137642
0.0136786
0.0135588
0.0134328
0.0132811
0.013303
0.00164685
0.00164577
0.00164534
0.00164559
0.0016465
0.00164802
0.00165013
0.00165268
0.00165537
0.0016578
0.00170862
0.00170873
0.00170878
0.00170878
0.00170877
0.00170875
0.00170873
0.0017087
0.00170867
0.00170856
0.0157116
0.015776
0.0157965
0.0158032
0.0158069
0.0158095
0.0158108
0.0158067
0.0157851
0.015715
0.0281381
0.0281483
0.0281547
0.0281568
0.0281573
0.0281571
0.0281565
0.0281548
0.0281502
0.0281404
0.0291402
0.0291347
0.0291325
0.0291337
0.0291384
0.0291463
0.0291565
0.029168
0.0291785
0.0291846
0.0292324
0.0292243
0.029222
0.0292237
0.0292309
0.0292429
0.0292587
0.0292762
0.0292925
0.0293043
0.0292648
0.0292532
0.0292486
0.0292516
0.0292625
0.0292807
0.0293055
0.029335
0.0293664
0.0293952
0.0292849
0.0292627
0.029257
0.0292611
0.0292787
0.0293078
0.0293481
0.0293981
0.0294509
0.0294953
0.0279305
0.0279157
0.0279148
0.0279157
0.027914
0.0279085
0.0279032
0.0279026
0.0279101
0.0279682
0.0144186
0.0143576
0.0143781
0.0143701
0.0143327
0.0142652
0.0141694
0.0140691
0.0139403
0.0139911
0.00162124
0.00162045
0.00162014
0.00162032
0.00162098
0.00162209
0.0016236
0.00162535
0.00162713
0.00162868
0.00168141
0.00168151
0.00168155
0.00168155
0.00168155
0.00168153
0.00168151
0.00168149
0.00168147
0.00168136
0.0164059
0.0164744
0.0164958
0.0165024
0.0165057
0.0165076
0.0165079
0.016503
0.0164801
0.0164058
0.0282944
0.0283042
0.0283097
0.0283117
0.0283122
0.0283123
0.028312
0.0283106
0.0283066
0.028297
0.0291371
0.0291337
0.0291324
0.0291331
0.0291358
0.0291403
0.0291461
0.0291528
0.029159
0.0291625
0.0292029
0.0291972
0.0291953
0.0291964
0.0292013
0.0292094
0.0292199
0.0292313
0.0292415
0.0292489
0.0292217
0.0292146
0.0292117
0.0292135
0.0292201
0.0292309
0.0292452
0.0292616
0.0292785
0.0292951
0.0292392
0.029224
0.0292202
0.0292232
0.0292348
0.0292537
0.029279
0.0293094
0.02934
0.0293678
0.0281047
0.0280932
0.0280945
0.028094
0.0280899
0.0280831
0.0280743
0.0280661
0.02806
0.0281014
0.015114
0.0150442
0.0150668
0.015057
0.015028
0.0149778
0.0149053
0.01483
0.0147249
0.0148032
0.00159356
0.001593
0.00159278
0.00159291
0.00159338
0.00159416
0.00159519
0.00159636
0.00159751
0.00159848
0.00165229
0.00165238
0.00165241
0.00165242
0.00165241
0.0016524
0.00165239
0.00165237
0.00165235
0.00165225
0.0172272
0.0173003
0.0173223
0.0173287
0.0173318
0.0173331
0.0173329
0.0173275
0.0173036
0.0172247
0.0284591
0.0284682
0.0284728
0.0284746
0.0284752
0.0284755
0.0284755
0.0284745
0.0284713
0.0284622
0.0291423
0.0291404
0.0291398
0.0291401
0.0291415
0.0291438
0.0291469
0.0291505
0.0291542
0.0291563
0.0291903
0.0291862
0.0291846
0.0291853
0.0291887
0.0291943
0.0292015
0.0292092
0.029216
0.0292211
0.0292011
0.0291966
0.0291947
0.0291958
0.0291998
0.0292064
0.0292148
0.0292243
0.0292338
0.0292439
0.0292205
0.0292098
0.0292072
0.0292095
0.0292174
0.0292302
0.0292467
0.029266
0.029285
0.0293046
0.0283109
0.0283
0.0283011
0.0283008
0.0282977
0.0282922
0.0282844
0.0282758
0.0282665
0.0283003
0.0159627
0.0158854
0.0159023
0.015896
0.0158766
0.0158422
0.0157915
0.015738
0.0156549
0.0157561
0.00156381
0.00156343
0.00156328
0.00156337
0.00156369
0.00156421
0.0015649
0.00156565
0.00156636
0.00156696
0.00162123
0.00162131
0.00162134
0.00162134
0.00162134
0.00162133
0.00162132
0.00162131
0.00162129
0.00162119
0.0182124
0.0182906
0.0183128
0.0183189
0.0183221
0.0183229
0.0183224
0.0183168
0.0182925
0.0182084
0.0286262
0.0286344
0.0286382
0.0286396
0.0286402
0.0286407
0.0286409
0.0286405
0.0286381
0.0286299
0.02915
0.0291492
0.0291489
0.0291491
0.0291496
0.0291506
0.0291519
0.0291537
0.0291557
0.0291573
0.029185
0.029182
0.0291807
0.0291811
0.0291834
0.0291873
0.0291922
0.0291974
0.0292021
0.0292057
0.029191
0.029188
0.0291867
0.0291873
0.0291898
0.0291938
0.0291989
0.0292045
0.02921
0.0292164
0.0292136
0.029206
0.0292042
0.029206
0.0292115
0.0292202
0.0292311
0.0292437
0.0292559
0.0292707
0.0285299
0.0285196
0.0285203
0.0285202
0.0285185
0.0285152
0.0285099
0.0285036
0.028495
0.0285242
0.0170031
0.0169203
0.0169312
0.0169282
0.0169173
0.0168973
0.0168664
0.0168312
0.0167677
0.0168854
0.00153201
0.00153176
0.00153166
0.00153172
0.00153192
0.00153226
0.0015327
0.00153316
0.0015336
0.00153396
0.00158829
0.00158835
0.00158838
0.00158838
0.00158838
0.00158837
0.00158836
0.00158835
0.00158833
0.00158824
0.0194157
0.0194996
0.019522
0.0195277
0.0195303
0.0195308
0.01953
0.0195247
0.0195008
0.019411
0.0287896
0.0287966
0.0287993
0.0288004
0.0288009
0.0288015
0.028802
0.028802
0.0288006
0.0287938
0.0291573
0.029157
0.029157
0.029157
0.0291571
0.0291574
0.0291577
0.0291584
0.0291594
0.0291608
0.0291817
0.0291796
0.0291785
0.0291787
0.0291801
0.0291827
0.0291859
0.0291894
0.0291926
0.0291952
0.0291845
0.0291825
0.0291816
0.0291819
0.0291834
0.0291858
0.0291888
0.0291921
0.0291954
0.0291994
0.0292088
0.0292036
0.0292023
0.0292036
0.0292073
0.029213
0.0292202
0.0292282
0.029236
0.0292473
0.0287442
0.0287347
0.028735
0.0287352
0.0287346
0.0287333
0.0287306
0.0287269
0.0287204
0.0287456
0.0182922
0.0182064
0.018211
0.0182108
0.0182077
0.0182007
0.0181881
0.018168
0.0181229
0.0182486
0.00149824
0.00149808
0.00149802
0.00149805
0.00149818
0.00149839
0.00149867
0.00149894
0.0014992
0.00149941
0.00155368
0.00155374
0.00155375
0.00155376
0.00155376
0.00155375
0.00155374
0.00155373
0.00155371
0.00155363
0.0209197
0.0210091
0.0210315
0.0210366
0.0210377
0.0210378
0.021037
0.0210323
0.0210097
0.0209145
0.0289406
0.0289458
0.0289474
0.0289479
0.0289483
0.0289489
0.0289496
0.0289502
0.0289498
0.0289454
0.0291623
0.0291622
0.0291623
0.0291623
0.0291623
0.0291622
0.0291621
0.0291622
0.0291626
0.0291638
0.0291779
0.0291763
0.0291755
0.0291756
0.0291764
0.029178
0.02918
0.0291822
0.0291844
0.0291863
0.0291785
0.0291772
0.0291766
0.0291767
0.0291775
0.0291789
0.0291806
0.0291824
0.0291843
0.0291868
0.0291999
0.0291964
0.0291956
0.0291964
0.0291987
0.0292023
0.0292066
0.0292113
0.0292161
0.0292243
0.0289342
0.0289262
0.0289263
0.0289266
0.0289267
0.0289265
0.0289256
0.0289241
0.0289198
0.0289405
0.0199132
0.0198279
0.0198253
0.0198274
0.0198314
0.0198369
0.0198423
0.0198356
0.0198102
0.0199326
0.0014627
0.00146261
0.00146256
0.00146258
0.00146266
0.00146279
0.00146295
0.00146312
0.00146328
0.00146339
0.00151761
0.00151765
0.00151765
0.00151765
0.00151765
0.00151765
0.00151765
0.00151764
0.00151763
0.00151758
0.0228572
0.0229491
0.0229689
0.0229729
0.0229737
0.0229736
0.0229727
0.0229687
0.0229489
0.0228508
0.0290671
0.0290697
0.0290701
0.02907
0.0290702
0.0290708
0.0290717
0.0290727
0.0290734
0.0290722
0.0291642
0.0291641
0.0291643
0.0291643
0.0291642
0.0291641
0.029164
0.0291639
0.029164
0.0291649
0.0291733
0.0291722
0.0291716
0.0291716
0.0291721
0.0291729
0.0291741
0.0291754
0.0291769
0.0291782
0.0291727
0.0291719
0.0291715
0.0291715
0.029172
0.0291727
0.0291736
0.0291745
0.0291755
0.0291769
0.0291852
0.0291832
0.0291827
0.0291831
0.0291844
0.0291864
0.0291887
0.0291912
0.0291937
0.0291989
0.0290789
0.0290728
0.0290727
0.029073
0.0290732
0.0290733
0.0290731
0.0290727
0.0290707
0.0290862
0.0220127
0.0219343
0.0219323
0.0219341
0.0219372
0.0219414
0.0219456
0.0219485
0.0219494
0.0220526
0.00142552
0.00142546
0.00142543
0.00142544
0.00142549
0.00142557
0.00142567
0.00142577
0.00142589
0.00142595
0.00147921
0.00147921
0.00147919
0.00147919
0.00147918
0.00147919
0.0014792
0.00147921
0.00147924
0.00147926
0.0254656
0.0255461
0.0255599
0.0255627
0.0255633
0.025563
0.0255619
0.0255587
0.0255439
0.0254557
0.0291555
0.0291552
0.0291545
0.029154
0.029154
0.0291545
0.0291554
0.0291567
0.0291583
0.0291601
0.029164
0.029164
0.029164
0.0291641
0.0291641
0.0291641
0.0291641
0.029164
0.029164
0.0291644
0.0291696
0.0291689
0.0291686
0.0291686
0.0291689
0.0291694
0.0291701
0.0291708
0.0291717
0.0291726
0.029169
0.0291685
0.0291683
0.0291683
0.0291686
0.029169
0.0291696
0.0291702
0.0291707
0.0291714
0.0291712
0.0291702
0.0291699
0.0291702
0.0291709
0.0291719
0.0291732
0.0291745
0.0291758
0.0291781
0.0291664
0.0291626
0.0291622
0.0291621
0.0291621
0.0291621
0.029162
0.0291621
0.0291623
0.0291721
0.0249072
0.0248484
0.0248473
0.0248485
0.0248505
0.0248533
0.0248561
0.0248579
0.0248582
0.0249351
0.00138593
0.00138588
0.00138586
0.00138587
0.00138591
0.00138597
0.00138605
0.00138613
0.00138621
0.00138625
0.00234419
0.00236507
0.00235485
0.00232092
0.00141081
0.00143384
0.00143119
0.00142636
0.00188739
0.00192948
0.00192034
0.00189566
0.00227436
0.00233253
0.002313
0.00226677
0.00262184
0.002693
0.002661
0.00259652
0.00296332
0.00304564
0.00300539
0.00293189
0.00324545
0.00333594
0.00329361
0.00322029
0.00341322
0.00351005
0.00347
0.00340136
0.003045
0.00313456
0.0030957
0.00304
0.00237486
0.00239151
0.00235662
0.00227536
0.00202754
0.00203325
0.00203437
0.00203135
0.0023536
0.00243394
0.00233393
0.00214209
0.00330818
0.00342271
0.00329226
0.0030544
0.00407179
0.00424026
0.00408162
0.00378367
0.00485367
0.00508967
0.00489513
0.00451945
0.00582862
0.00615473
0.00591324
0.00542866
0.00679502
0.00720886
0.0069073
0.00630947
0.00749304
0.00799128
0.00763318
0.00693835
0.00591741
0.00635427
0.00600142
0.00540478
0.0021817
0.00221404
0.00220718
0.0021714
0.0019332
0.00193525
0.0019354
0.00193415
0.0040663
0.00404184
0.00405221
0.00414324
0.00499136
0.00497275
0.00499288
0.00509714
0.00549612
0.00551583
0.00553568
0.00558546
0.00601106
0.00606519
0.00606851
0.00602693
0.00675413
0.00685096
0.00681138
0.00663356
0.00751231
0.00763588
0.00752236
0.00718457
0.0080508
0.00821148
0.00802426
0.00752553
0.00612472
0.00626463
0.0060887
0.00560771
0.00204805
0.00206515
0.00206324
0.00204548
0.00189446
0.00189468
0.00189481
0.00189484
0.0102406
0.009962
0.0100979
0.0106126
0.0119476
0.0116136
0.0119165
0.0128099
0.0114406
0.0112596
0.0116318
0.0125266
0.0110902
0.0110291
0.0114261
0.0122564
0.0112082
0.0112509
0.0116413
0.0123682
0.0114045
0.0115064
0.0118452
0.0124237
0.0113548
0.0115322
0.0118025
0.0121734
0.00801837
0.00820312
0.00832632
0.00836746
0.00195681
0.00196726
0.00196823
0.00196024
0.00187252
0.00187257
0.0018726
0.00187261
0.0144911
0.0144312
0.0144593
0.0145686
0.0238417
0.0235182
0.023706
0.0243331
0.0222459
0.0219539
0.0223065
0.0232333
0.0203813
0.0202019
0.0206818
0.0217892
0.0193312
0.019301
0.019872
0.0210703
0.0185184
0.0185935
0.0191865
0.020378
0.0173312
0.0175436
0.0180988
0.0191109
0.0108803
0.0111157
0.0113572
0.0116705
0.00189357
0.00190006
0.00190152
0.00189811
0.00185449
0.00185446
0.00185445
0.00185445
0.0140869
0.0140132
0.0140037
0.0140587
0.030404
0.0302973
0.0303233
0.0304704
0.0317979
0.0315592
0.0316498
0.0320268
0.0304326
0.0301455
0.030366
0.0310246
0.0290256
0.0288078
0.029197
0.0301265
0.0274496
0.0273221
0.0278369
0.028965
0.0247754
0.0248407
0.025398
0.0264749
0.0131739
0.0134063
0.0135819
0.0137425
0.00184564
0.00184957
0.00185084
0.00184949
0.00183719
0.00183714
0.00183712
0.00183711
0.0137853
0.0136946
0.0136769
0.0137313
0.029916
0.0299191
0.0299335
0.0299593
0.0336756
0.0336792
0.0337118
0.0337708
0.0348252
0.0347792
0.0348403
0.0349966
0.0353467
0.0352621
0.0353985
0.0357258
0.0347087
0.0345955
0.0348277
0.0353619
0.0310995
0.0311315
0.0314434
0.0320083
0.0133163
0.0135937
0.0136548
0.0135471
0.0018073
0.00180969
0.00181064
0.00181012
0.00181925
0.0018192
0.00181917
0.00181916
0.013865
0.0137678
0.0137476
0.0138032
0.0286251
0.0286184
0.0286214
0.0286343
0.0317592
0.0317855
0.0318029
0.0318119
0.0333169
0.0333625
0.0333954
0.0334171
0.0350528
0.0351262
0.0351876
0.0352389
0.0359196
0.0359842
0.0360702
0.0361783
0.032622
0.0327804
0.0329069
0.0330051
0.0123927
0.0126492
0.0126896
0.0125507
0.00177447
0.00177599
0.00177662
0.00177638
0.0018002
0.00180014
0.00180011
0.0018001
0.0141242
0.0140238
0.0140027
0.0140595
0.0280676
0.0280549
0.0280535
0.0280638
0.030341
0.0303491
0.0303542
0.0303566
0.0312802
0.0313017
0.0313145
0.0313193
0.0325578
0.0326148
0.0326462
0.0326535
0.0334937
0.0335724
0.033616
0.0336291
0.030774
0.0309418
0.0310102
0.0309868
0.0119575
0.0121822
0.0122239
0.012102
0.00174439
0.00174541
0.00174582
0.00174564
0.00177977
0.00177971
0.00177967
0.00177967
0.0144824
0.0143791
0.0143573
0.0144154
0.0279206
0.0279072
0.0279049
0.0279142
0.0296736
0.0296748
0.0296758
0.0296767
0.0301786
0.0301839
0.0301873
0.0301887
0.0308811
0.030904
0.0309163
0.0309182
0.0314141
0.0314473
0.0314653
0.0314695
0.0290414
0.0291516
0.0291915
0.0291624
0.0120325
0.0122518
0.0122934
0.0121709
0.00171552
0.00171627
0.00171652
0.00171634
0.00175781
0.00175774
0.0017577
0.00175771
0.0149176
0.0148111
0.0147885
0.0148482
0.0279468
0.0279339
0.0279316
0.0279402
0.0293772
0.0293768
0.0293768
0.0293775
0.0296627
0.0296636
0.0296642
0.0296647
0.0300319
0.0300409
0.0300456
0.0300459
0.0303
0.0303106
0.0303169
0.0303189
0.0281843
0.0282592
0.0282836
0.028257
0.0123977
0.0126284
0.0126711
0.0125392
0.00168702
0.0016876
0.00168776
0.00168756
0.0017342
0.00173412
0.00173409
0.0017341
0.0154296
0.0153193
0.0152958
0.0153572
0.0280476
0.0280353
0.0280331
0.0280411
0.0292452
0.0292445
0.0292444
0.029245
0.0294211
0.0294211
0.0294212
0.0294213
0.0296151
0.0296194
0.0296216
0.0296214
0.0297542
0.0297579
0.0297602
0.029761
0.0278877
0.0279467
0.0279641
0.0279394
0.0129391
0.0131888
0.0132342
0.0130902
0.0016583
0.00165877
0.00165888
0.00165868
0.00170885
0.00170877
0.00170873
0.00170874
0.0160284
0.0159137
0.015889
0.0159526
0.0281829
0.0281714
0.0281691
0.0281765
0.0291875
0.0291869
0.0291868
0.0291874
0.029306
0.0293059
0.0293059
0.0293059
0.029408
0.0294106
0.0294118
0.0294116
0.0294903
0.0294922
0.0294933
0.0294935
0.0278811
0.027932
0.0279462
0.0279233
0.0136127
0.0138854
0.0139346
0.013777
0.00162893
0.00162934
0.00162941
0.00162921
0.00168167
0.00168157
0.00168154
0.00168155
0.0167317
0.0166117
0.0165856
0.0166517
0.0283352
0.0283245
0.0283223
0.028329
0.0291645
0.0291639
0.0291639
0.0291644
0.0292501
0.02925
0.02925
0.02925
0.0293037
0.0293055
0.0293062
0.029306
0.0293638
0.0293654
0.0293662
0.029366
0.0280201
0.0280654
0.0280778
0.0280569
0.0144106
0.0147091
0.0147627
0.0145901
0.00159859
0.00159895
0.00159899
0.0015988
0.00165257
0.00165247
0.00165243
0.00165246
0.0175656
0.017439
0.0174111
0.0174802
0.0284957
0.0284858
0.0284837
0.0284896
0.0291578
0.0291573
0.0291573
0.0291578
0.0292219
0.0292219
0.0292219
0.0292218
0.0292501
0.0292514
0.0292519
0.0292516
0.0293031
0.0293048
0.0293055
0.029305
0.0282292
0.0282699
0.0282807
0.0282616
0.0153473
0.0156746
0.0157329
0.0155436
0.00156699
0.00156731
0.00156734
0.00156715
0.00162153
0.00162142
0.00162138
0.00162141
0.0185672
0.0184322
0.018402
0.0184749
0.0286582
0.0286492
0.0286473
0.0286525
0.0291584
0.0291581
0.0291581
0.0291585
0.0292063
0.0292063
0.0292063
0.0292063
0.0292209
0.0292218
0.0292221
0.0292219
0.0292717
0.0292735
0.029274
0.0292734
0.0284662
0.0285026
0.0285119
0.0284944
0.0164564
0.0168157
0.0168787
0.0166706
0.00153394
0.00153423
0.00153425
0.00153407
0.0015886
0.00158848
0.00158844
0.00158848
0.0197911
0.019645
0.0196117
0.0196892
0.0288164
0.0288086
0.0288069
0.0288113
0.0291616
0.0291615
0.0291615
0.0291617
0.0291959
0.0291959
0.029196
0.0291959
0.0292027
0.0292034
0.0292035
0.0292033
0.0292501
0.0292518
0.0292523
0.0292515
0.0287031
0.0287352
0.0287429
0.0287268
0.0177922
0.0181857
0.018253
0.0180247
0.00149937
0.00149961
0.00149963
0.00149947
0.00155401
0.00155389
0.00155385
0.00155389
0.0213175
0.0211559
0.0211182
0.0212023
0.0289638
0.0289577
0.0289563
0.0289597
0.0291645
0.0291644
0.0291645
0.0291646
0.0291871
0.0291872
0.0291872
0.0291872
0.029189
0.0291895
0.0291896
0.0291894
0.0292278
0.0292293
0.0292297
0.029229
0.0289153
0.0289427
0.0289487
0.028934
0.0194343
0.0198575
0.0199276
0.0196813
0.00146337
0.00146356
0.00146357
0.00146345
0.001518
0.00151787
0.00151784
0.00151789
0.023272
0.0230878
0.0230444
0.0231382
0.0290873
0.0290834
0.0290825
0.0290847
0.0291652
0.0291652
0.0291652
0.0291652
0.029179
0.0291792
0.0291793
0.0291793
0.0291782
0.0291784
0.0291785
0.0291783
0.029202
0.0292031
0.0292033
0.0292028
0.0290777
0.0290993
0.0291034
0.0290908
0.0215229
0.0219755
0.0220425
0.0217747
0.00142604
0.0014262
0.00142621
0.00142612
0.00147971
0.00147962
0.0014796
0.00147966
0.0258483
0.0256395
0.0255938
0.025701
0.0291702
0.0291686
0.0291682
0.0291691
0.029164
0.0291639
0.0291639
0.0291638
0.0291732
0.0291733
0.0291734
0.0291734
0.0291718
0.0291719
0.0291719
0.0291719
0.0291795
0.0291799
0.0291801
0.0291799
0.0291742
0.0291865
0.0291884
0.0291807
0.0244723
0.0248973
0.0249469
0.0246873
0.00138662
0.00138675
0.00138676
0.00138666
0.00215548
0.00203892
0.0019745
0.00194196
0.00192283
0.00191045
0.00190227
0.00189708
0.00189374
0.00189146
0.00174745
0.00158315
0.00476544
0.00942401
0.0139348
0.0171227
0.0186334
0.0187846
0.0181532
0.017213
0.00236376
0.00257409
0.00732486
0.0155532
0.0249584
0.0330801
0.0390652
0.0428684
0.0447447
0.0451314
0.00276855
0.00359678
0.00828858
0.0178409
0.0291685
0.038521
0.044996
0.0487263
0.0501636
0.0499549
0.00307713
0.00394186
0.00871615
0.0193457
0.0320853
0.0419668
0.0481514
0.0510046
0.0513202
0.0501083
0.00338887
0.00407089
0.00893782
0.0204181
0.0342686
0.0443138
0.0498921
0.0516828
0.0509078
0.0488682
0.00363096
0.00408404
0.00896784
0.02117
0.0359
0.0457607
0.0504404
0.0510706
0.0493453
0.046813
0.00370987