/*--------------------------------*- C++ -*----------------------------------*\
| =========                 |                                                 |
| \\      /  F ield         | foam-extend: Open Source CFD                    |
|  \\    /   O peration     | Version:     4.0                                |
|   \\  /    A nd           | Web:         http://www.foam-extend.org         |
|    \\/     M anipulation  |                                                 |
\*---------------------------------------------------------------------------*/
FoamFile
{
    version     2.0;
    format      ascii;
    class       volScalarField;
    location    "2100";
    object      p;
}
// * * * * * * * * * * * * * * * * * * * * * * * * * * * * * * * * * * * * * //

dimensions      [1 -1 -2 0 0 0 0];

internalField   nonuniform List<scalar> 
34480
(
107968
107868
107829
107844
107929
108111
108454
109136
110102
110449
107827
107728
107688
107700
107779
107956
108294
108964
109999
109973
107686
107583
107543
107545
107611
107758
108056
108658
109688
109113
107612
107508
107462
107452
107495
107598
107839
108341
109304
108152
107531
107415
107362
107335
107352
107410
107592
107990
108850
107157
107548
107433
107373
107337
107335
107356
107481
107772
108492
106275
107454
107326
107259
107211
107193
107184
107261
107453
108013
105339
107542
107420
107357
107324
107321
107323
107385
107504
107882
104742
107442
107314
107245
107208
107207
107219
107272
107333
107506
103995
107535
107420
107407
107472
107611
107802
108047
108283
108454
104458
108728
108604
108559
108583
108689
108892
109227
109756
110570
111637
108521
108389
108342
108369
108482
108708
109095
109748
110889
112492
108321
108184
108137
108158
108266
108484
108879
109585
110966
112953
108193
108052
107998
108008
108100
108293
108665
109362
110883
113122
108069
107915
107853
107845
107916
108074
108408
109060
110650
113035
108047
107893
107823
107804
107856
107981
108271
108855
110448
112865
107924
107757
107680
107647
107681
107775
108021
108530
110080
112470
107988
107826
107750
107725
107767
107861
108087
108530
109983
112253
107875
107708
107625
107593
107624
107712
107920
108314
109621
111812
107956
107801
107760
107805
107938
108150
108482
108979
110233
112220
109295
109182
109143
109171
109274
109460
109745
110146
110677
111287
109082
108950
108906
108941
109065
109296
109661
110204
111019
112026
108863
108719
108675
108710
108842
109090
109500
110149
111245
112673
108704
108552
108500
108528
108655
108903
109332
110041
111360
113170
108551
108385
108325
108340
108454
108685
109110
109838
111325
113463
108499
108330
108263
108268
108369
108580
108988
109704
111303
113691
108350
108170
108096
108088
108174
108362
108746
109433
111095
113680
108392
108216
108142
108140
108229
108414
108786
109440
111104
113798
108267
108086
108006
107995
108071
108242
108594
109224
110826
113636
108334
108162
108110
108154
108300
108553
108981
109676
111242
114051
109693
109605
109574
109598
109678
109817
110015
110268
110561
110842
109514
109398
109359
109391
109501
109695
109984
110376
110881
111401
109317
109179
109136
109172
109298
109528
109885
110399
111153
111992
109154
109000
108949
108982
109115
109364
109771
110386
111383
112568
108993
108822
108762
108785
108914
109165
109599
110280
111491
113018
108925
108747
108679
108695
108817
109063
109506
110225
111612
113450
108762
108571
108497
108502
108614
108847
109287
110022
111546
113668
108788
108599
108523
108533
108647
108880
109322
110060
111664
114012
108651
108458
108378
108381
108485
108708
109138
109877
111492
114069
108704
108519
108458
108499
108652
108931
109410
110197
111805
114523
109967
109905
109884
109901
109957
110051
110178
110330
110491
110629
109834
109741
109710
109737
109823
109972
110181
110445
110749
111025
109677
109557
109518
109551
109661
109854
110138
110516
110997
111470
109529
109386
109338
109371
109496
109723
110073
110561
111248
111970
109376
109211
109155
109183
109312
109556
109953
110532
111419
112413
109304
109128
109063
109086
109216
109469
109897
110543
111619
112886
109137
108945
108874
108889
109014
109266
109711
110405
111646
113186
109154
108962
108887
108905
109035
109292
109752
110480
111845
113628
109010
108813
108735
108748
108872
109125
109586
110340
111770
113812
109052
108861
108795
108835
108992
109283
109779
110575
112027
114267
110156
110116
110102
110113
110150
110209
110286
110373
110458
110525
110064
109997
109973
109993
110056
110161
110303
110472
110650
110799
109955
109858
109826
109852
109940
110091
110303
110568
110870
111138
109831
109708
109665
109695
109803
109994
110275
110644
111101
111535
109698
109549
109498
109526
109646
109865
110203
110666
111289
111919
109633
109468
109407
109434
109561
109799
110183
110727
111518
112360
109469
109286
109219
109240
109368
109617
110032
110643
111593
112660
109484
109298
109226
109250
109385
109645
110087
110750
111836
113121
109337
109144
109069
109090
109223
109485
109938
110644
111823
113353
109372
109183
109116
109155
109310
109599
110079
110825
112048
113766
110290
110265
110257
110264
110286
110321
110366
110415
110460
110495
110229
110183
110167
110180
110223
110293
110385
110490
110594
110675
110165
110091
110066
110086
110152
110263
110413
110592
110781
110937
110067
109967
109931
109956
110044
110195
110409
110676
110978
111243
109961
109833
109788
109814
109918
110102
110375
110729
111160
111560
109908
109762
109707
109734
109850
110061
110386
110822
111389
111944
109755
109588
109527
109550
109673
109902
110267
110777
111481
112209
109774
109601
109534
109561
109692
109939
110338
110908
111738
112643
109627
109445
109376
109400
109533
109787
110205
110826
111753
112862
109659
109480
109414
109451
109599
109873
110315
110973
111953
113212
110389
110374
110369
110373
110386
110407
110432
110459
110483
110501
110348
110318
110307
110316
110344
110389
110446
110509
110569
110614
110322
110268
110250
110264
110311
110389
110491
110608
110725
110816
110248
110170
110142
110161
110228
110343
110499
110685
110882
111046
110169
110065
110028
110050
110135
110283
110493
110753
111046
111302
110133
110009
109962
109986
110086
110264
110525
110861
111261
111627
109994
109848
109794
109817
109927
110128
110433
110840
111351
111846
110022
109867
109808
109835
109955
110177
110520
110988
111606
112234
109877
109712
109650
109676
109800
110033
110400
110918
111623
112406
109910
109746
109686
109720
109855
110104
110492
111046
111802
112696
110465
110457
110454
110456
110464
110475
110489
110504
110517
110526
110436
110417
110409
110415
110433
110460
110495
110533
110567
110593
110440
110402
110389
110399
110431
110483
110551
110625
110697
110750
110383
110325
110304
110318
110368
110450
110560
110687
110814
110915
110332
110250
110221
110238
110304
110418
110573
110759
110955
111119
110312
110211
110173
110193
110275
110418
110620
110870
111147
111387
110188
110065
110020
110041
110135
110302
110547
110860
111223
111558
110229
110096
110045
110070
110175
110365
110647
111016
111465
111896
110087
109943
109889
109913
110025
110228
110535
110951
111473
112012
110125
109981
109927
109957
110077
110293
110620
111068
111634
112252
110527
110522
110521
110522
110526
110532
110540
110548
110555
110560
110501
110490
110485
110488
110499
110516
110537
110559
110579
110593
110529
110503
110495
110501
110522
110556
110599
110646
110689
110720
110483
110442
110427
110436
110472
110529
110604
110688
110770
110832
110456
110394
110372
110385
110435
110518
110630
110759
110888
110992
110451
110372
110342
110358
110423
110533
110684
110864
111053
111209
110341
110242
110205
110223
110300
110433
110623
110855
111109
111332
110397
110288
110246
110267
110355
110511
110734
111015
111335
111625
110259
110137
110092
110113
110208
110378
110626
110948
111324
111689
110305
110182
110135
110161
110263
110444
110710
111058
111471
111889
110579
110576
110575
110576
110578
110582
110586
110590
110594
110597
110551
110544
110541
110543
110550
110560
110572
110585
110597
110605
110597
110581
110575
110579
110593
110614
110641
110670
110696
110714
110557
110529
110517
110524
110548
110587
110637
110692
110743
110782
110549
110505
110488
110498
110534
110593
110671
110758
110843
110908
110556
110497
110474
110487
110536
110617
110727
110853
110980
111081
110460
110382
110353
110367
110427
110530
110672
110840
111014
111161
110531
110445
110411
110429
110500
110622
110793
111000
111223
111415
110394
110295
110258
110276
110354
110490
110683
110924
111190
111433
110450
110350
110312
110333
110417
110562
110770
111032
111326
111605
110624
110622
110622
110622
110623
110625
110627
110630
110632
110633
110590
110586
110584
110585
110589
110595
110603
110610
110617
110622
110652
110641
110638
110641
110649
110662
110679
110696
110711
110721
110611
110591
110584
110588
110604
110630
110662
110697
110730
110754
110620
110588
110577
110584
110609
110650
110702
110760
110814
110855
110635
110592
110576
110585
110620
110679
110756
110842
110927
110991
110548
110490
110468
110479
110524
110600
110703
110821
110938
111035
110636
110571
110544
110559
110613
110706
110832
110980
111133
111258
110498
110419
110391
110405
110466
110571
110716
110891
111075
111235
110567
110488
110457
110474
110540
110653
110810
111001
111206
111388
110663
110662
110662
110662
110663
110664
110665
110666
110667
110668
110620
110618
110617
110617
110620
110623
110627
110632
110636
110640
110697
110690
110688
110690
110695
110703
110713
110723
110732
110737
110649
110637
110631
110634
110644
110661
110682
110704
110724
110740
110672
110651
110643
110648
110665
110692
110727
110764
110799
110824
110693
110663
110651
110658
110683
110724
110776
110834
110889
110930
110614
110571
110555
110563
110596
110650
110722
110803
110881
110943
110718
110670
110650
110661
110702
110770
110860
110963
111066
111145
110574
110514
110492
110503
110550
110628
110733
110856
110981
111085
110658
110598
110575
110588
110638
110722
110837
110973
111111
111229
110699
110698
110698
110698
110699
110699
110700
110700
110701
110701
110642
110641
110640
110640
110642
110644
110647
110650
110652
110655
110735
110731
110730
110731
110735
110739
110745
110750
110755
110757
110677
110669
110665
110667
110673
110684
110697
110711
110723
110733
110712
110698
110693
110696
110707
110725
110747
110771
110792
110807
110735
110714
110706
110710
110727
110755
110790
110828
110863
110889
110660
110630
110619
110625
110648
110686
110734
110788
110839
110879
110781
110747
110733
110741
110770
110818
110881
110950
111019
111068
110626
110582
110567
110575
110608
110664
110738
110823
110906
110973
110730
110687
110669
110679
110715
110776
110858
110950
111043
111118
110733
110732
110733
110732
110733
110733
110733
110733
110734
110733
110656
110655
110655
110655
110656
110657
110659
110661
110663
110666
110769
110767
110767
110768
110769
110772
110775
110778
110780
110781
110696
110690
110688
110689
110693
110699
110707
110716
110724
110730
110740
110732
110728
110730
110737
110749
110763
110777
110790
110799
110763
110749
110744
110747
110758
110776
110799
110823
110846
110861
110693
110673
110665
110669
110685
110710
110742
110777
110809
110835
110830
110808
110798
110803
110824
110856
110899
110944
110989
111018
110660
110628
110617
110623
110646
110685
110735
110792
110846
110889
110789
110758
110746
110753
110778
110821
110877
110938
110999
111045
110770
110769
110770
110770
110770
110770
110770
110770
110770
110769
110662
110661
110661
110661
110661
110662
110663
110665
110667
110669
110799
110799
110799
110799
110801
110802
110804
110805
110806
110805
110708
110704
110703
110703
110706
110710
110715
110720
110724
110729
110759
110754
110752
110753
110758
110765
110773
110782
110790
110795
110779
110770
110767
110768
110776
110787
110802
110817
110831
110841
110716
110703
110698
110701
110711
110727
110748
110770
110789
110805
110868
110854
110847
110851
110864
110886
110914
110943
110972
110989
110677
110654
110647
110651
110667
110693
110726
110762
110796
110825
110843
110823
110814
110818
110836
110864
110902
110941
110980
111008
110822
110822
110822
110822
110823
110822
110822
110822
110821
110821
110655
110655
110654
110654
110654
110655
110656
110658
110659
110663
110825
110825
110825
110826
110826
110827
110828
110829
110829
110827
110714
110712
110712
110712
110714
110716
110719
110722
110724
110727
110769
110766
110765
110765
110768
110772
110777
110783
110788
110791
110784
110779
110776
110777
110782
110789
110798
110808
110817
110823
110729
110722
110719
110721
110727
110738
110750
110764
110775
110784
110892
110883
110878
110880
110889
110903
110921
110940
110959
110968
110675
110660
110655
110658
110668
110685
110706
110729
110750
110769
110907
110894
110888
110891
110903
110921
110946
110971
110996
111012
110916
110916
110916
110916
110916
110916
110916
110915
110914
110913
110629
110628
110628
110628
110628
110629
110629
110631
110632
110636
110838
110838
110838
110837
110838
110838
110839
110840
110841
110839
110717
110717
110717
110717
110718
110719
110721
110722
110723
110724
110770
110768
110767
110767
110768
110771
110774
110778
110781
110783
110779
110775
110774
110774
110777
110782
110787
110794
110799
110804
110735
110731
110729
110731
110735
110741
110749
110757
110763
110768
110891
110884
110880
110881
110887
110896
110908
110921
110934
110940
110648
110638
110635
110637
110644
110655
110668
110682
110694
110707
111007
110998
110994
110996
111003
111016
111031
111047
111064
111073
111078
111078
111078
111077
111077
111077
111077
111077
111077
111077
110568
110568
110569
110570
110571
110571
110571
110570
110570
110572
110826
110824
110822
110821
110821
110822
110823
110825
110827
110829
110720
110720
110721
110721
110722
110723
110723
110724
110723
110723
110764
110763
110762
110762
110763
110765
110767
110769
110772
110773
110769
110766
110765
110765
110767
110770
110774
110778
110782
110785
110736
110733
110733
110734
110737
110741
110746
110751
110754
110756
110848
110842
110839
110839
110843
110849
110858
110867
110877
110884
110581
110577
110575
110577
110582
110589
110598
110606
110612
110618
111163
111157
111154
111155
111160
111169
111180
111191
111203
111208
111261
111258
111257
111256
111256
111256
111257
111258
111261
111264
110485
110490
110494
110496
110497
110497
110496
110493
110488
110481
110792
110788
110785
110784
110784
110785
110786
110788
110792
110797
110725
110726
110727
110727
110728
110729
110729
110729
110728
110727
110759
110758
110757
110757
110758
110759
110761
110763
110765
110767
110761
110759
110758
110759
110760
110763
110766
110769
110772
110775
110738
110736
110736
110736
110739
110742
110747
110751
110754
110754
110784
110778
110776
110776
110779
110785
110792
110799
110808
110817
110496
110495
110495
110496
110500
110506
110513
110520
110523
110520
111330
111325
111322
111323
111328
111335
111344
111353
111363
111367
122713
123926
123751
122477
125945
127351
126951
125329
128889
130475
129888
127897
131055
132758
131984
129715
132719
134501
133553
131079
134070
135910
134953
132358
134996
136869
136044
133382
135819
137698
137036
134336
135734
137585
137068
134376
135322
137160
136901
134363
113010
113200
113238
113118
115297
115668
115726
115436
117554
118107
118165
117656
119695
120415
120460
119705
121648
122504
122519
121506
123502
124467
124446
123217
125037
126087
126036
124648
126542
127650
127581
126085
127322
128461
128390
126842
127970
129143
129120
127621
111808
111898
111925
111899
113132
113300
113340
113273
114586
114853
114905
114775
116064
116436
116496
116283
117489
117964
118022
117704
118966
119542
119592
119158
120258
120925
120966
120412
121639
122383
122413
121746
122460
123251
123275
122512
123278
124106
124147
123330
110957
110980
110991
110991
111710
111763
111783
111776
112630
112734
112767
112742
113663
113831
113879
113825
114691
114931
114993
114895
115820
116139
116211
116055
116824
117221
117300
117076
117983
118450
118532
118234
118696
119214
119301
118938
119473
120033
120137
119733
110674
110684
110689
110690
111147
111170
111181
111181
111731
111780
111799
111795
112438
112521
112553
112542
113164
113290
113334
113311
114002
114179
114236
114191
114739
114969
115039
114964
115659
115942
116021
115910
116238
116562
116654
116510
116915
117275
117386
117219
110543
110547
110550
110550
110847
110856
110861
110862
111242
111262
111273
111274
111735
111774
111793
111795
112257
112321
112350
112350
112888
112983
113024
113019
113425
113556
113608
113593
114155
114322
114386
114355
114614
114812
114889
114844
115167
115392
115483
115426
110503
110505
110506
110507
110699
110704
110706
110707
110987
110997
111002
111004
111339
111359
111369
111372
111723
111756
111774
111778
112205
112257
112284
112288
112595
112669
112705
112709
113177
113275
113321
113320
113527
113646
113703
113696
113960
114097
114164
114151
110505
110506
110507
110507
110627
110629
110630
110631
110842
110847
110850
110851
111097
111107
111113
111115
111388
111405
111416
111419
111765
111794
111810
111815
112049
112091
112115
112121
112519
112576
112606
112612
112766
112838
112876
112880
113103
113186
113231
113233
110529
110529
110529
110529
110600
110601
110602
110602
110765
110767
110769
110769
110944
110950
110953
110955
111167
111177
111183
111185
111466
111482
111492
111496
111671
111696
111711
111716
112055
112089
112109
112115
112214
112257
112282
112288
112481
112531
112560
112564
110561
110562
110562
110562
110597
110598
110598
110599
110729
110730
110731
110731
110849
110853
110855
110856
111020
111026
111030
111031
111256
111266
111272
111274
111399
111414
111423
111427
111718
111738
111751
111755
111807
111833
111849
111854
112022
112053
112071
112075
110597
110597
110598
110598
110608
110608
110608
110609
110718
110719
110719
110720
110793
110795
110796
110797
110925
110928
110931
110932
111110
111116
111120
111121
111202
111210
111216
111219
111471
111483
111491
111494
111504
111521
111531
111534
111684
111703
111714
111717
110633
110633
110633
110633
110624
110624
110624
110624
110724
110724
110724
110724
110761
110762
110763
110763
110865
110867
110869
110869
111009
111013
111016
111017
111060
111065
111069
111070
111293
111300
111305
111307
111280
111290
111297
111299
111437
111448
111455
111458
110668
110668
110668
110668
110641
110641
110641
110641
110738
110739
110739
110739
110744
110745
110745
110746
110830
110831
110832
110832
110942
110944
110946
110946
110959
110962
110964
110966
111167
111172
111175
111176
111114
111121
111125
111126
111259
111266
111271
111272
110701
110701
110701
110701
110656
110656
110656
110656
110758
110758
110758
110758
110736
110736
110737
110737
110811
110811
110812
110812
110897
110898
110899
110900
110888
110890
110892
110893
111082
111085
111087
111088
110992
110996
110999
111000
111136
111140
111143
111144
110733
110733
110733
110733
110666
110666
110666
110667
110781
110781
110781
110781
110732
110732
110732
110733
110801
110802
110802
110802
110867
110868
110869
110869
110840
110841
110842
110842
111028
111029
111031
111031
110902
110905
110906
110907
111056
111058
111060
111061
110769
110769
110769
110769
110670
110670
110670
110671
110806
110805
110805
110805
110729
110729
110730
110730
110797
110797
110797
110797
110845
110846
110846
110847
110807
110807
110807
110808
110995
110997
110997
110997
110833
110835
110836
110836
111014
111015
111016
111017
110820
110820
110820
110820
110663
110663
110663
110664
110828
110828
110828
110827
110726
110726
110726
110726
110792
110792
110792
110792
110826
110827
110827
110827
110783
110783
110783
110784
110974
110975
110976
110976
110774
110775
110776
110776
111014
111014
111014
111015
110913
110913
110913
110912
110636
110636
110636
110637
110842
110842
110842
110842
110722
110722
110722
110722
110784
110785
110785
110785
110807
110807
110807
110807
110765
110764
110764
110764
110948
110949
110950
110950
110709
110710
110710
110710
111073
111073
111073
111075
111076
111076
111076
111076
110569
110569
110569
110569
110835
110836
110836
110836
110720
110719
110719
110719
110775
110775
110775
110775
110788
110788
110788
110788
110751
110750
110750
110751
110897
110900
110901
110900
110614
110613
110613
110613
111214
111214
111215
111215
111265
111266
111267
111267
110465
110462
110460
110460
110807
110809
110810
110810
110722
110722
110721
110721
110768
110768
110768
110768
110776
110777
110777
110777
110749
110748
110748
110749
110834
110838
110839
110838
110495
110489
110488
110492
111389
111392
111392
111389
116088
113574
111649
110361
109554
109034
108679
108429
108249
108113
117145
113963
111594
110193
109367
108841
108491
108250
108081
107956
117507
114002
111325
110003
109178
108658
108308
108066
107902
107795
117492
113900
110998
109842
109035
108549
108215
107986
107828
107721
117207
113680
110689
109664
108865
108415
108095
107879
107730
107634
116838
113554
110521
109629
108832
108420
108112
107908
107761
107658
116196
113297
110230
109478
108673
108302
107999
107806
107661
107564
115775
113321
110222
109613
108793
108457
108147
107949
107791
107669
115050
112988
109911
109481
108686
108396
108077
107875
107710
107579
115489
113685
110582
110178
109259
108866
108434
108143
107908
107706
112562
111817
111156
110603
110148
109778
109478
109237
109045
108894
114184
112819
111685
110830
110186
109702
109339
109062
108849
108690
115484
113531
111989
110914
110126
109561
109151
108849
108627
108477
116472
114020
112139
110933
110064
109466
109040
108733
108507
108353
117099
114287
112135
110852
109932
109326
108898
108595
108371
108224
117574
114536
112168
110855
109905
109306
108882
108585
108363
108209
117723
114568
112023
110716
109745
109164
108744
108454
108233
108084
117934
114771
112090
110824
109843
109280
108858
108564
108335
108165
117714
114574
111847
110690
109738
109207
108778
108477
108240
108061
118120
115087
112324
111188
110161
109556
109049
108684
108399
108168
111742
111426
111073
110733
110426
110158
109929
109735
109574
109443
112913
112272
111603
111023
110549
110166
109857
109608
109408
109252
114112
113062
112037
111214
110576
110086
109709
109418
109193
109034
115226
113740
112382
111367
110605
110043
109622
109303
109061
108888
116154
114237
112572
111403
110547
109938
109490
109159
108907
108734
117028
114712
112774
111490
110565
109929
109467
109129
108873
108691
117627
114954
112776
111413
110437
109788
109318
108980
108720
108541
118277
115318
112948
111549
110540
109888
109409
109063
108796
108598
118448
115271
112814
111454
110454
109812
109322
108967
108690
108484
118952
115690
113187
111821
110766
110070
109526
109125
108816
108573
110968
110872
110737
110584
110428
110276
110135
110009
109897
109803
111702
111474
111185
110891
110613
110362
110142
109951
109791
109661
112571
112136
111627
111148
110727
110370
110073
109828
109630
109482
113507
112818
112066
111405
110849
110398
110036
109746
109515
109343
114372
113393
112387
111555
110882
110356
109946
109625
109372
109190
115266
113981
112724
111742
110970
110388
109943
109601
109333
109136
115960
114363
112865
111755
110903
110280
109809
109454
109175
108976
116753
114864
113153
111950
111037
110386
109894
109523
109234
109017
117129
114992
113150
111912
110973
110307
109796
109414
109114
108890
117734
115421
113482
112195
111204
110496
109947
109532
109210
108960
110681
110641
110579
110503
110420
110335
110252
110174
110103
110041
111154
111058
110920
110763
110600
110442
110294
110161
110045
109948
111736
111543
111286
111013
110748
110505
110289
110101
109942
109819
112435
112109
111699
111290
110913
110581
110297
110057
109858
109703
113128
112634
112049
111497
111009
110596
110253
109971
109740
109568
113901
113212
112437
111745
111155
110672
110281
109966
109711
109517
114531
113623
112652
111828
111145
110604
110174
109833
109559
109357
115302
114171
113013
112076
111316
110728
110265
109901
109612
109391
115740
114405
113105
112092
111278
110656
110166
109787
109485
109256
116339
114825
113411
112329
111464
110804
110283
109878
109561
109313
110547
110529
110501
110463
110420
110375
110328
110283
110240
110202
110854
110811
110743
110659
110567
110472
110379
110292
110213
110146
111256
111168
111037
110884
110723
110564
110415
110280
110161
110067
111760
111605
111385
111141
110896
110665
110454
110268
110109
109980
112288
112041
111710
111361
111025
110720
110451
110219
110022
109871
112914
112554
112094
111633
111206
110830
110508
110236
110010
109832
113430
112932
112329
111754
111238
110799
110429
110125
109873
109682
114113
113465
112717
112035
111439
110943
110533
110200
109928
109716
114526
113729
112855
112082
111420
110880
110439
110087
109800
109579
115048
114112
113136
112293
111580
111005
110536
110162
109863
109626
110505
110496
110482
110463
110440
110415
110389
110364
110339
110317
110702
110681
110645
110599
110547
110491
110434
110380
110329
110284
110995
110950
110879
110790
110692
110591
110492
110399
110315
110248
111357
111278
111156
111009
110851
110694
110545
110408
110287
110187
111754
111625
111435
111216
110990
110771
110570
110389
110231
110107
112248
112056
111783
111482
111183
110902
110649
110428
110238
110084
112646
112373
112004
111614
111238
110896
110596
110338
110119
109949
113223
112856
112382
111903
111454
111056
110713
110424
110183
109989
113565
113094
112520
111958
111446
111003
110627
110316
110057
109854
113989
113427
112774
112151
111592
111116
110714
110384
110114
109897
110506
110502
110494
110484
110472
110459
110445
110431
110417
110404
110629
110617
110598
110573
110543
110511
110477
110444
110412
110384
110846
110822
110782
110730
110671
110607
110543
110482
110425
110380
111108
111064
110993
110904
110804
110700
110598
110501
110413
110338
111408
111337
111225
111086
110936
110784
110639
110504
110383
110286
111798
111691
111526
111331
111124
110921
110731
110558
110407
110281
112096
111942
111714
111453
111185
110930
110695
110487
110306
110162
112572
112361
112062
111733
111405
111099
110825
110585
110381
110213
112823
112546
112175
111780
111398
111051
110744
110483
110259
110081
113161
112828
112401
111957
111536
111158
110829
110550
110316
110125
110529
110527
110523
110517
110511
110504
110496
110488
110480
110474
110601
110595
110584
110570
110553
110534
110514
110495
110476
110458
110767
110753
110730
110699
110663
110624
110584
110544
110507
110478
110951
110926
110884
110829
110766
110699
110630
110564
110503
110449
111179
111138
111070
110982
110884
110781
110679
110582
110493
110421
111487
111425
111323
111196
111056
110913
110775
110646
110529
110430
111704
111613
111471
111297
111111
110925
110749
110587
110443
110327
112096
111972
111782
111559
111325
111098
110887
110697
110530
110391
112261
112097
111859
111588
111312
111050
110809
110598
110412
110262
112531
112333
112057
111750
111443
111155
110895
110668
110473
110311
110562
110560
110558
110555
110552
110548
110544
110539
110535
110531
110598
110595
110589
110581
110571
110560
110549
110537
110526
110515
110729
110721
110708
110690
110668
110644
110619
110594
110571
110553
110853
110839
110814
110780
110741
110697
110653
110609
110567
110530
111028
111003
110961
110906
110842
110773
110703
110636
110572
110521
111269
111232
111168
111086
110993
110895
110797
110703
110617
110542
111420
111365
111275
111161
111033
110902
110773
110652
110542
110451
111745
111670
111549
111400
111238
111074
110916
110771
110641
110529
111840
111742
111589
111407
111212
111019
110837
110672
110524
110403
112059
111940
111763
111555
111337
111124
110926
110748
110591
110459
110597
110597
110596
110594
110592
110590
110588
110585
110583
110581
110608
110607
110603
110599
110593
110587
110580
110574
110567
110560
110718
110714
110706
110695
110682
110667
110652
110636
110622
110612
110796
110787
110772
110751
110727
110699
110670
110642
110614
110589
110930
110914
110888
110854
110812
110767
110720
110674
110631
110595
111118
111095
111055
111003
110941
110875
110807
110741
110679
110624
111215
111181
111124
111049
110963
110872
110780
110693
110611
110543
111488
111442
111365
111267
111156
111040
110927
110819
110721
110635
111526
111466
111369
111247
111113
110975
110841
110717
110603
110508
111709
111637
111524
111385
111234
111081
110934
110799
110678
110575
110633
110633
110632
110631
110630
110629
110628
110627
110625
110625
110624
110623
110622
110619
110616
110612
110609
110605
110600
110596
110723
110721
110716
110709
110701
110693
110683
110674
110665
110660
110763
110758
110748
110736
110721
110704
110685
110667
110649
110632
110868
110859
110843
110821
110794
110765
110734
110704
110674
110650
111014
111000
110975
110942
110901
110857
110811
110766
110723
110684
111069
111047
111011
110962
110905
110843
110779
110717
110658
110610
111303
111275
111226
111162
111087
111008
110928
110850
110779
110714
111294
111257
111195
111114
111023
110927
110831
110741
110656
110585
111453
111409
111337
111246
111143
111036
110931
110832
110742
110663
110668
110668
110667
110667
110666
110666
110665
110664
110663
110663
110641
110641
110640
110639
110637
110635
110633
110630
110628
110624
110738
110736
110733
110729
110724
110719
110713
110708
110703
110701
110745
110742
110737
110729
110720
110709
110698
110686
110675
110664
110832
110826
110816
110802
110785
110767
110747
110727
110708
110692
110945
110936
110920
110899
110873
110844
110814
110783
110754
110727
110965
110951
110928
110896
110859
110817
110774
110732
110691
110657
111173
111156
111125
111083
111034
110981
110926
110872
110822
110775
111123
111100
111060
111008
110947
110881
110815
110750
110689
110637
111270
111243
111197
111138
111069
110997
110923
110853
110788
110730
110701
110701
110700
110700
110700
110700
110699
110699
110698
110699
110656
110656
110656
110655
110654
110653
110652
110650
110648
110645
110757
110756
110754
110752
110749
110746
110743
110739
110737
110736
110737
110735
110732
110727
110722
110715
110708
110701
110694
110686
110812
110808
110802
110793
110783
110771
110759
110746
110734
110724
110899
110893
110884
110870
110854
110835
110815
110795
110776
110758
110892
110884
110869