/*--------------------------------*- C++ -*----------------------------------*\
| =========                 |                                                 |
| \\      /  F ield         | foam-extend: Open Source CFD                    |
|  \\    /   O peration     | Version:     4.0                                |
|   \\  /    A nd           | Web:         http://www.foam-extend.org         |
|    \\/     M anipulation  |                                                 |
\*---------------------------------------------------------------------------*/
FoamFile
{
    version     2.0;
    format      ascii;
    class       surfaceScalarField;
    location    "2100";
    object      phi;
}
// * * * * * * * * * * * * * * * * * * * * * * * * * * * * * * * * * * * * * //

dimensions      [1 0 -1 0 0 0 0];

internalField   nonuniform List<scalar> 
97302
(
-0.000109786
9.51465e-07
-0.000869492
0.000878769
-0.0001196
1.14081e-06
-0.000870495
0.000879169
-0.000129523
1.19994e-06
-0.000871021
0.000879743
-0.000140124
1.138e-06
-0.000871059
0.000880523
-0.000152232
9.45922e-07
-0.000870607
0.000881769
-0.000167325
6.13588e-07
-0.00086944
0.00088392
-0.000188495
1.14509e-07
-0.000866953
0.000888009
-0.000222746
-5.95631e-07
-0.000861327
0.000896173
-0.000271324
-1.63921e-06
-0.000851538
0.000901755
-4.39609e-06
-0.000824038
-0.000352994
0.000910104
-0.000150901
1.60283e-06
-0.00116596
0.00117605
-0.000161173
1.96512e-06
-0.00116691
0.00117635
-0.000171518
2.0837e-06
-0.0011675
0.00117696
-0.000182472
1.99177e-06
-0.00116752
0.00117762
-0.000194833
1.67436e-06
-0.00116672
0.00117836
-0.000210313
1.12018e-06
-0.00116472
0.00117969
-0.000232765
2.71639e-07
-0.00116112
0.00118342
-0.000271567
-9.66442e-07
-0.00115433
0.0011935
-0.000328348
-2.89704e-06
-0.00114203
0.00120007
-7.45994e-06
-0.00110413
-0.000432767
0.00121162
-0.000191208
1.8965e-06
-0.00146132
0.00147217
-0.000201778
2.39272e-06
-0.00146233
0.00147247
-0.000212296
2.57427e-06
-0.00146295
0.00147298
-0.000223273
2.49786e-06
-0.00146275
0.00147322
-0.000235633
2.14538e-06
-0.0014614
0.00147329
-0.00025151
1.50625e-06
-0.00145873
0.00147422
-0.000275387
5.01221e-07
-0.00145485
0.0014785
-0.000318358
-9.68144e-07
-0.00144828
0.00149125
-0.000381692
-3.35364e-06
-0.00143512
0.00149891
-9.13536e-06
-0.00138641
-0.000500691
0.00150708
-0.000231437
2.08623e-06
-0.0017527
0.00176397
-0.000242301
2.72217e-06
-0.00175393
0.00176447
-0.000253115
2.98245e-06
-0.00175481
0.00176521
-0.000264405
2.94686e-06
-0.00175481
0.00176565
-0.000277164
2.58669e-06
-0.00175363
0.00176594
-0.000293712
1.89314e-06
-0.0017512
0.00176736
-0.000318864
7.63934e-07
-0.00174764
0.00177253
-0.000364969
-8.92553e-07
-0.00174141
0.00178744
-0.000432991
-3.68e-06
-0.0017278
0.00179615
-1.06294e-05
-0.00166795
-0.000560754
0.00179721
-0.00027157
2.31911e-06
-0.00204523
0.00205668
-0.000282603
3.02434e-06
-0.00204684
0.00205757
-0.000293586
3.32236e-06
-0.00204822
0.00205886
-0.000305071
3.30301e-06
-0.00204869
0.00205982
-0.000318118
2.93532e-06
-0.00204804
0.00206074
-0.000335169
2.21018e-06
-0.00204623
0.00206297
-0.000361326
1.01103e-06
-0.00204332
0.00206923
-0.000409968
-7.46062e-07
-0.00203778
0.00208627
-0.000481932
-3.81481e-06
-0.00202453
0.00209662
-1.18638e-05
-0.00195287
-0.00061517
0.00208734
-0.000312274
2.40486e-06
-0.00233636
0.00234811
-0.00032341
3.13565e-06
-0.00233842
0.00234944
-0.000334461
3.42149e-06
-0.00234019
0.00235115
-0.000346005
3.37445e-06
-0.00234108
0.00235255
-0.000359152
2.9725e-06
-0.00234095
0.00235406
-0.000376429
2.21539e-06
-0.0023399
0.00235717
-0.000403213
9.85259e-07
-0.00233791
0.00236472
-0.000453748
-7.84153e-07
-0.00233347
0.00238405
-0.000529018
-3.91231e-06
-0.00232173
0.00239709
-1.28333e-05
-0.00223797
-0.000665776
0.0023757
-0.0003528
2.38406e-06
-0.00262732
0.00263919
-0.000363879
3.0226e-06
-0.00262998
0.00264117
-0.000374854
3.23759e-06
-0.00263231
0.00264347
-0.000386306
3.10463e-06
-0.00263366
0.00264539
-0.000399402
2.6286e-06
-0.00263411
0.00264755
-0.000416699
1.80213e-06
-0.00263387
0.00265158
-0.00044382
5.61377e-07
-0.00263301
0.00266056
-0.000495696
-1.10928e-06
-0.00263018
0.00268238
-0.000573751
-3.86091e-06
-0.00262109
0.00269909
-1.29895e-05
-0.002525
-0.000712514
0.00266392
-0.000394597
2.02488e-06
-0.00291885
0.00293115
-0.000405728
2.47421e-06
-0.0029221
0.00293378
-0.000416702
2.50283e-06
-0.00292455
0.00293626
-0.000428105
2.16404e-06
-0.00292585
0.00293819
-0.000441065
1.49398e-06
-0.00292619
0.00294028
-0.000458086
4.90762e-07
-0.00292611
0.00294445
-0.000484934
-8.17382e-07
-0.00292595
0.00295418
-0.000537001
-2.35969e-06
-0.00292457
0.00297788
-0.000616523
-4.14909e-06
-0.00291882
0.00299863
-1.2141e-05
-0.00281223
-0.000755686
0.00295055
-0.000435794
1.06835e-06
-0.00320673
0.00321917
-0.000446499
1.13583e-06
-0.00321084
0.00322288
-0.000457078
8.44886e-07
-0.0032139
0.00322614
-0.000468178
1.11296e-07
-0.00321581
0.00322896
-0.000480967
-9.48143e-07
-0.00321694
0.00323218
-0.000497831
-2.30816e-06
-0.00321787
0.00323754
-0.000524533
-3.78312e-06
-0.00321913
0.00324879
-0.000576326
-5.09794e-06
-0.00322004
0.00327457
-0.00065578
-5.5054e-06
-0.00321668
0.00329749
-1.01949e-05
-0.00309932
-0.000792432
0.00323402
-0.000477206
-0.00347531
0.00348832
-0.000488551
-0.00347891
0.00349139
-0.000499739
-0.00347962
0.00349165
-0.000511451
-0.00347706
0.00348888
-0.000524726
-0.0034719
0.00348423
-0.000541693
-0.0034652
0.00347986
-0.000567584
-0.00345814
0.00348025
-0.000616589
-0.00345221
0.00349611
-0.000689679
-0.0034486
0.00351618
-0.00333962
-0.00081868
0.00345842
1.43955e-05
8.88813e-07
-0.000861036
5.31235e-06
1.11345e-06
-0.000862526
-3.79156e-06
1.19419e-06
-0.000863111
-1.30999e-05
1.13654e-06
-0.000862888
-2.28121e-05
9.30563e-07
-0.000861826
-3.31461e-05
5.57921e-07
-0.000859664
-4.42491e-05
-1.55404e-08
-0.000855835
-5.55402e-05
-8.68622e-07
-0.000849167
-6.62349e-05
-2.19722e-06
-0.000838646
-3.96823e-06
-0.000822393
-6.39121e-05
1.54088e-05
1.51358e-06
-0.0011561
5.39063e-06
1.92983e-06
-0.0011577
-4.61709e-06
2.08356e-06
-0.00115838
-1.49318e-05
2.00438e-06
-0.00115807
-2.58186e-05
1.67039e-06
-0.00115658
-3.76401e-05
1.05931e-06
-0.0011534
-5.12329e-05
1.0937e-07
-0.00114765
-6.76404e-05
-1.29562e-06
-0.00113749
-8.82608e-05
-3.54276e-06
-0.00112006
-6.6089e-06
-0.00109111
-9.86415e-05
1.6738e-05
1.82469e-06
-0.00145027
6.00755e-06
2.38872e-06
-0.00145206
-4.63029e-06
2.61227e-06
-0.00145284
-1.55075e-05
2.55003e-06
-0.00145241
-2.69618e-05
2.1689e-06
-0.00145044
-3.9727e-05
1.44524e-06
-0.00144635
-5.55487e-05
2.87079e-07
-0.00143921
-7.71557e-05
-1.42757e-06
-0.00142654
-0.000108635
-4.28358e-06
-0.0014029
-8.39604e-06
-0.00135937
-0.000133882
1.79546e-05
2.03317e-06
-0.00174096
6.7405e-06
2.75452e-06
-0.00174308
-4.38267e-06
3.06552e-06
-0.00174414
-1.58104e-05
3.04941e-06
-0.00174388
-2.79984e-05
2.65881e-06
-0.00174193
-4.19386e-05
1.87214e-06
-0.00173769
-5.99413e-05
5.56733e-07
-0.0017299
-8.61291e-05
-1.40105e-06
-0.00171525
-0.000128052
-4.79445e-06
-0.00168537
-9.90593e-06
-0.0016255
-0.000168998
1.90697e-05
2.27963e-06
-0.00203309
7.569e-06
3.07964e-06
-0.00203566
-3.83472e-06
3.43447e-06
-0.00203718
-1.5598e-05
3.44061e-06
-0.00203731
-2.83145e-05
3.04662e-06
-0.00203571
-4.3162e-05
2.23039e-06
-0.00203174
-6.29164e-05
8.20192e-07
-0.00202382
-9.29961e-05
-1.28794e-06
-0.00200781
-0.000144892
-5.076e-06
-0.00197235
-1.1064e-05
-0.00189521
-0.000201393
1.97739e-05
2.39806e-06
-0.0023238
8.09588e-06
3.23272e-06
-0.00232689
-3.43859e-06
3.58306e-06
-0.00232881
-1.53446e-05
3.57184e-06
-0.00232931
-2.83359e-05
3.15466e-06
-0.00232807
-4.37536e-05
2.31934e-06
-0.00232457
-6.48023e-05
8.74227e-07
-0.00231691
-9.80688e-05
-1.2746e-06
-0.00230022
-0.000159357
-5.20841e-06
-0.00226031
-1.18828e-05
-0.00216571
-0.000230801
2.01862e-05
2.36903e-06
-0.00261449
8.5309e-06
3.10988e-06
-0.0026182
-2.95335e-06
3.39467e-06
-0.00262064
-1.47983e-05
3.31028e-06
-0.00262156
-2.78476e-05
2.85176e-06
-0.00262076
-4.3553e-05
1.98976e-06
-0.00261784
-6.54974e-05
5.48814e-07
-0.00261074
-0.000101307
-1.56486e-06
-0.00259408
-0.000171276
-5.24557e-06
-0.00255109
-1.22482e-05
-0.00243911
-0.000256804
1.99279e-05
2.03393e-06
-0.0029056
8.27083e-06
2.5893e-06
-0.00290992
-3.10691e-06
2.71807e-06
-0.00291249
-1.47849e-05
2.48056e-06
-0.00291334
-2.76619e-05
1.90769e-06
-0.00291237
-4.32636e-05
9.66453e-07
-0.00290949
-6.54729e-05
-4.35452e-07
-0.00290276
-0.00010275
-2.40709e-06
-0.00288645
-0.00018012
-5.22023e-06
-0.00284148
-1.18987e-05
-0.00271328
-0.000279422
1.93979e-05
1.0739e-06
-0.00319321
8.21063e-06
1.21882e-06
-0.00319828
-2.66259e-06
1.05878e-06
-0.00320137
-1.38324e-05
4.74198e-07
-0.00320263
-2.63521e-05
-4.03957e-07
-0.00320211
-4.18579e-05
-1.58501e-06
-0.00319982
-6.44369e-05
-3.01053e-06
-0.00319397
-0.000103039
-4.67502e-06
-0.00317916
-0.000186369
-6.1487e-06
-0.00313242
-1.0075e-05
-0.00298565
-0.000301865
1.82426e-05
-0.00346151
6.80382e-06
-0.00346625
-4.11862e-06
-0.00346764
-1.52131e-05
-0.00346549
-2.742e-05
-0.0034601
-4.23438e-05
-0.00345187
-6.39051e-05
-0.00343959
-0.000101288
-0.0034195
-0.000186017
-0.00337002
-0.0032157
-0.000320011
1.20258e-05
7.7748e-07
-0.000854365
4.42315e-06
1.01752e-06
-0.000855941
-3.29469e-06
1.10555e-06
-0.000856499
-1.10377e-05
1.0411e-06
-0.000856186
-1.86826e-05
8.17631e-07
-0.000854998
-2.59844e-05
4.19328e-07
-0.000852782
-3.23912e-05
-1.75822e-07
-0.000849252
-3.65991e-05
-1.00574e-06
-0.000843953
-3.67272e-05
-2.15419e-06
-0.000836364
-3.43239e-06
-0.000826718
-2.897e-05
1.38779e-05
1.36184e-06
-0.00114759
4.85252e-06
1.80199e-06
-0.00114946
-4.2339e-06
1.96509e-06
-0.00115015
-1.34723e-05
1.87446e-06
-0.00114967
-2.28687e-05
1.50861e-06
-0.00114787
-3.22723e-05
8.42982e-07
-0.00114442
-4.12824e-05
-1.75879e-07
-0.00113864
-4.87468e-05
-1.6205e-06
-0.00112941
-5.22009e-05
-3.70596e-06
-0.00111506
-6.12813e-06
-0.00109586
-4.47543e-05
1.59825e-05
1.70826e-06
-0.00144011
5.78061e-06
2.30337e-06
-0.00144236
-4.41582e-06
2.53697e-06
-0.00144322
-1.48021e-05
2.45676e-06
-0.00144261
-2.54737e-05
2.02477e-06
-0.00144029
-3.64937e-05
1.20578e-06
-0.0014357
-4.7976e-05
-9.50999e-08
-0.00142781
-5.94521e-05
-1.9757e-06
-0.00141471
-6.85115e-05
-4.84594e-06
-0.0013927
-8.36595e-06
-0.0013607
-6.4945e-05
1.76324e-05
1.96735e-06
-0.00172976
6.64127e-06
2.73087e-06
-0.00173252
-4.34125e-06
3.05402e-06
-0.00173367
-1.56261e-05
3.01535e-06
-0.00173315
-2.7459e-05
2.56078e-06
-0.00173063
-4.01698e-05
1.65263e-06
-0.00172542
-5.43193e-05
1.42885e-07
-0.00171599
-7.00994e-05
-2.08914e-06
-0.00169936
-8.58008e-05
-5.70594e-06
-0.00166881
-1.03348e-05
-0.0016211
-8.82327e-05
1.90375e-05
2.25902e-06
-0.00202121
7.53749e-06
3.108e-06
-0.00202454
-3.93337e-06
3.479e-06
-0.00202614
-1.57938e-05
3.46378e-06
-0.0020259
-2.84691e-05
3.00345e-06
-0.00202348
-4.25414e-05
2.05609e-06
-0.00201807
-5.90238e-05
4.18541e-07
-0.00200762
-7.89054e-05
-2.05808e-06
-0.00198796
-0.000101936
-6.3016e-06
-0.00194872
-1.19701e-05
-0.00188339
-0.000112118
1.99755e-05
2.42644e-06
-0.00231131
8.13856e-06
3.31447e-06
-0.00231526
-3.61538e-06
3.68559e-06
-0.00231726
-1.57992e-05
3.66045e-06
-0.00231732
-2.89959e-05
3.18265e-06
-0.00231505
-4.40375e-05
2.21884e-06
-0.00230969
-6.24238e-05
5.35716e-07
-0.00229864
-8.60487e-05
-2.039e-06
-0.00227661
-0.000116871
-6.63795e-06
-0.00222915
-1.318e-05
-0.00214514
-0.000136229
2.05275e-05
2.42078e-06
-0.00260158
8.60994e-06
3.21491e-06
-0.00260618
-3.18642e-06
3.52641e-06
-0.00260868
-1.54202e-05
3.44146e-06
-0.0026091
-2.88407e-05
2.94687e-06
-0.0026071
-4.44901e-05
1.99647e-06
-0.00260196
-6.43525e-05
3.54692e-07
-0.0025907
-9.12581e-05
-2.20125e-06
-0.00256702
-0.000129977
-6.76575e-06
-0.00251224
-1.39489e-05
-0.00240904
-0.000159276
2.03513e-05
2.09695e-06
-0.0028922
8.40333e-06
2.7018e-06
-0.00289746
-3.30946e-06
2.874e-06
-0.00290013
-1.54087e-05
2.67689e-06
-0.00290047
-2.87384e-05
2.12635e-06
-0.00289822
-4.45301e-05
1.1757e-06
-0.00289288
-6.52365e-05
-3.26975e-07
-0.00288137
-9.45834e-05
-2.64713e-06
-0.00285665
-0.000140686
-6.4018e-06
-0.00279574
-1.37377e-05
-0.00267359
-0.000180581
1.97384e-05
1.15073e-06
-0.00317949
8.24317e-06
1.32811e-06
-0.00318541
-2.9695e-06
1.24794e-06
-0.00318853
-1.45259e-05
7.72671e-07
-0.00318917
-2.74279e-05
2.58717e-08
-0.00318711
-4.31498e-05
-1.01343e-06
-0.0031819
-6.46497e-05
-2.33672e-06
-0.00317046
-9.64403e-05
-4.09035e-06
-0.00314593
-0.000148898
-6.3709e-06
-0.00307999
-1.15127e-05
-0.00293619
-0.000200583
1.85764e-05
-0.00344764
6.99908e-06
-0.00345335
-4.10543e-06
-0.00345528
-1.5447e-05
-0.00345337
-2.79178e-05
-0.0034476
-4.30025e-05
-0.00343779
-6.36999e-05
-0.00342123
-9.54113e-05
-0.00339188
-0.000150682
-0.00332112
-0.00316254
-0.000215354
9.33363e-06
6.08601e-07
-0.000849533
3.46347e-06
8.52131e-07
-0.000850923
-2.58782e-06
9.44259e-07
-0.000851392
-8.5469e-06
8.78199e-07
-0.000851105
-1.4107e-05
6.52555e-07
-0.000850091
-1.88455e-05
2.58441e-07
-0.000848302
-2.21199e-05
-3.11085e-07
-0.000845666
-2.28921e-05
-1.05822e-06
-0.000842123
-1.95792e-05
-1.97943e-06
-0.000837697
-2.86308e-06
-0.000832851
-1.05822e-05
1.17248e-05
1.1158e-06
-0.00114076
4.10701e-06
1.56619e-06
-0.00114256
-3.63941e-06
1.73449e-06
-0.0011432
-1.13769e-05
1.6364e-06
-0.00114269
-1.88892e-05
1.25475e-06
-0.00114096
-2.57874e-05
5.71538e-07
-0.00113783
-3.13121e-05
-4.44749e-07
-0.00113298
-3.39456e-05
-1.81628e-06
-0.00112602
-3.08492e-05
-3.60312e-06
-0.00111653
-5.41818e-06
-0.00110601
-1.81518e-05
1.44342e-05
1.48717e-06
-0.00143134
5.2577e-06
2.09872e-06
-0.00143371
-3.98542e-06
2.33518e-06
-0.00143458
-1.32957e-05
2.23442e-06
-0.0014339
-2.25669e-05
1.76016e-06
-0.00143152
-3.1504e-05
8.77712e-07
-0.00142706
-3.94295e-05
-4.90377e-07
-0.00141984
-4.47338e-05
-2.39691e-06
-0.00140882
-4.34908e-05
-5.036e-06
-0.00139251
-7.89325e-06
-0.00137301
-2.87081e-05
1.65213e-05
1.79882e-06
-0.00171966
6.22612e-06
2.5914e-06
-0.00172272
-4.13227e-06
2.91835e-06
-0.0017239
-1.46913e-05
2.84918e-06
-0.00172321
-2.5496e-05
2.33029e-06
-0.0017204
-3.64576e-05
1.3197e-06
-0.0017149
-4.71086e-05
-3.18646e-07
-0.00170551
-5.58651e-05
-2.67716e-06
-0.00169032
-5.78752e-05
-6.17808e-06
-0.00166565
-1.01734e-05
-0.00163381
-4.28848e-05
1.8272e-05
2.14151e-06
-0.00201013
7.19113e-06
3.02888e-06
-0.00201389
-3.92199e-06
3.40752e-06
-0.00201551
-1.53436e-05
3.35896e-06
-0.00201499
-2.73108e-05
2.82274e-06
-0.002012
-3.9985e-05
1.7476e-06
-0.00200583
-5.32034e-05
-6.72084e-08
-0.00199465
-6.55994e-05
-2.76758e-06
-0.00197547
-7.19268e-05
-7.05455e-06
-0.00194152
-1.21923e-05
-0.00189467
-5.86292e-05
1.95046e-05
2.36912e-06
-0.00229939
7.87346e-06
3.30163e-06
-0.00230391
-3.73235e-06
3.6852e-06
-0.00230593
-1.57151e-05
3.63276e-06
-0.00230561
-2.84886e-05
3.08145e-06
-0.00230254
-4.24898e-05
1.98358e-06
-0.00229592
-5.79585e-05
9.48468e-08
-0.00228334
-7.39573e-05
-2.78286e-06
-0.0022606
-8.55265e-05
-7.60679e-06
-0.00221703
-1.37665e-05
-0.00215329
-7.5802e-05
2.02611e-05
2.40752e-06
-0.00258902
8.39436e-06
3.24765e-06
-0.00259426
-3.40109e-06
3.57698e-06
-0.00259678
-1.56058e-05
3.47588e-06
-0.00259674
-2.88212e-05
2.92195e-06
-0.00259373
-4.37442e-05
1.8574e-06
-0.00258692
-6.10755e-05
2.24602e-08
-0.0025733
-8.04484e-05
-2.86631e-06
-0.00254756
-9.78704e-05
-7.85484e-06
-0.00249457
-1.48963e-05
-0.00241265
-9.31329e-05
2.02413e-05
2.11197e-06
-0.00287905
8.27165e-06
2.75953e-06
-0.002885
-3.51498e-06
2.96189e-06
-0.00288773
-1.56843e-05
2.78396e-06
-0.00288761
-2.89506e-05
2.22373e-06
-0.00288425
-4.42597e-05
1.22653e-06
-0.00287694
-6.28395e-05
-4.01093e-07
-0.00286237
-8.50383e-05
-3.0203e-06
-0.0028343
-0.000108509
-7.33026e-06
-0.00277279
-1.48304e-05
-0.00267208
-0.000110093
1.96938e-05
1.19969e-06
-0.00316592
8.11883e-06
1.40489e-06
-0.00317248
-3.22904e-06
1.38963e-06
-0.00317561
-1.4916e-05
9.99349e-07
-0.0031757
-2.77952e-05
3.45933e-07
-0.00317235
-4.30459e-05
-6.07506e-07
-0.00316482
-6.25179e-05
-1.89501e-06
-0.0031495
-8.767e-05
-3.75179e-06
-0.00312005
-0.000117053
-6.49553e-06
-0.00305144
-1.22157e-05
-0.0029292
-0.000126649
1.86066e-05
-0.00343397
7.071e-06
-0.00344041
-4.0578e-06
-0.00344276
-1.54499e-05
-0.00344098
-2.7875e-05
-0.00343483
-4.25524e-05
-0.00342372
-6.14327e-05
-0.00340424
-8.70675e-05
-0.00337
-0.000119683
-0.003295
-0.00315503
-0.000139408
6.84917e-06
4.23614e-07
-0.000846188
2.57475e-06
6.54199e-07
-0.000847302
-1.8988e-06
7.44898e-07
-0.000847663
-6.24105e-06
6.82573e-07
-0.000847445
-1.01074e-05
4.70757e-07
-0.000846695
-1.30927e-05
1.08547e-07
-0.000845425
-1.47037e-05
-3.95639e-07
-0.00084366
-1.43361e-05
-1.02051e-06
-0.00084147
-1.13196e-05
-1.72037e-06
-0.000838993
-2.32872e-06
-0.000836478
-5.36405e-06
9.3871e-06
8.21511e-07
-0.00113555
3.29727e-06
1.26118e-06
-0.00113708
-2.96862e-06
1.42789e-06
-0.00113761
-9.13062e-06
1.32879e-06
-0.00113717
-1.48462e-05
9.52471e-07
-0.00113573
-1.96459e-05
2.92256e-07
-0.00113321
-2.2814e-05
-6.56931e-07
-0.00112955
-2.32473e-05
-1.87324e-06
-0.00112474
-1.92824e-05
-3.31359e-06
-0.0011189
-4.63243e-06
-0.00111322
-9.76464e-06
1.24559e-05
1.18752e-06
-0.00142417
4.59139e-06
1.79567e-06
-0.00142638
-3.40617e-06
2.02867e-06
-0.00142718
-1.13538e-05
1.91235e-06
-0.00142653
-1.89765e-05
1.41575e-06
-0.00142436
-2.5802e-05
5.14306e-07
-0.00142046
-3.09541e-05
-8.38293e-07
-0.0014145
-3.28541e-05
-2.64434e-06
-0.00140615
-2.86144e-05
-4.92394e-06
-0.00139514
-7.14034e-06
-0.00138373
-1.53863e-05
1.48906e-05
1.53352e-06
-0.00171097
5.63922e-06
2.33905e-06
-0.00171401
-3.75128e-06
2.66432e-06
-0.00171514
-1.32146e-05
2.5668e-06
-0.0017144
-2.25866e-05
1.99784e-06
-0.00171161
-3.15018e-05
9.21954e-07
-0.00170639
-3.90676e-05
-7.63462e-07
-0.00169802
-4.33519e-05
-3.10059e-06
-0.00168558
-4.00334e-05
-6.26943e-06
-0.00166763
-9.53692e-06
-0.0016476
-2.38433e-05
1.69729e-05
1.91921e-06
-0.0020002
6.66675e-06
2.83286e-06
-0.00200408
-3.74448e-06
3.21429e-06
-0.00200565
-1.43381e-05
3.13112e-06
-0.00200496
-2.51204e-05
2.52556e-06
-0.00200175
-3.59139e-05
1.34689e-06
-0.00199546
-4.59406e-05
-5.75723e-07
-0.00198481
-5.30689e-05
-3.3452e-06
-0.0019681
-5.1661e-05
-7.37577e-06
-0.00194182
-1.17701e-05
-0.00191046
-3.36394e-05
1.85161e-05
2.20731e-06
-0.00228842
7.43027e-06
3.17628e-06
-0.00229316
-3.70303e-06
3.56821e-06
-0.00229515
-1.5105e-05
3.48462e-06
-0.00229456
-2.69528e-05
2.86022e-06
-0.00229102
-3.93128e-05
1.64101e-06
-0.00228386
-5.16587e-05
-3.98518e-07
-0.00227117
-6.18719e-05
-3.43114e-06
-0.0022503
-6.33685e-05
-8.1213e-06
-0.00221478
-1.35876e-05
-0.00216983
-4.50079e-05
1.95096e-05
2.30288e-06
-0.0025772
8.00666e-06
3.18526e-06
-0.00258277
-3.4929e-06
3.52961e-06
-0.00258524
-1.53153e-05
3.40796e-06
-0.00258484
-2.78313e-05
2.79015e-06
-0.00258114
-4.13651e-05
1.60964e-06
-0.00257335
-5.57435e-05
-3.88552e-07
-0.00255893
-6.90374e-05
-3.47892e-06
-0.00253422
-7.42172e-05
-8.48609e-06
-0.00248902
-1.4951e-05
-0.00242864
-5.68566e-05
1.96925e-05
2.04666e-06
-0.0028665
7.98147e-06
2.73771e-06
-0.00287285
-3.61852e-06
2.96596e-06
-0.00287556
-1.5546e-05
2.79885e-06
-0.00287508
-2.82975e-05
2.21766e-06
-0.00287093
-4.24515e-05
1.15915e-06
-0.00286233
-5.83083e-05
-5.88653e-07
-0.00284631
-7.43922e-05
-3.40796e-06
-0.00281829
-8.38723e-05
-7.91028e-06
-0.00276389
-1.50073e-05
-0.00268684
-6.90473e-05
1.92702e-05
1.19974e-06
-0.00315283
7.86678e-06
1.43351e-06
-0.00315977
-3.38667e-06
1.47513e-06
-0.00316287
-1.49374e-05
1.1539e-06
-0.00316251
-2.74298e-05
5.70731e-07
-0.00315821
-4.16489e-05
-3.27107e-07
-0.00314911
-5.83927e-05
-1.60649e-06
-0.00313174
-7.72896e-05
-3.53804e-06
-0.00310102
-9.15618e-05
-6.47513e-06
-0.00303861
-1.20779e-05
-0.00294221
-8.14852e-05
1.8292e-05
-0.0034208
7.0019e-06
-0.00342768
-3.96614e-06
-0.00343032
-1.5189e-05
-0.00342861
-2.72608e-05
-0.00342219
-4.10518e-05
-0.00341026
-5.75073e-05
-0.00338939
-7.70929e-05
-0.00335395
-9.41539e-05
-0.00328441
-0.0031704
-9.0856e-05
4.81647e-06
2.50674e-07
-0.000843928
1.84263e-06
4.55352e-07
-0.000844784
-1.31459e-06
5.39713e-07
-0.000845045
-4.34621e-06
4.85185e-07
-0.000844899
-6.94555e-06
2.99178e-07
-0.000844395
-8.78998e-06
-1.33087e-08
-0.000843567
-9.55032e-06
-4.33985e-07
-0.000842465
-8.91206e-06
-9.30881e-07
-0.000841178
-6.64596e-06
-1.4476e-06
-0.000839812
-1.86608e-06
-0.000838412
-2.84604e-06
7.16922e-06
5.20397e-07
-0.00113172
2.51922e-06
9.28636e-07
-0.0011329
-2.3226e-06
1.08667e-06
-0.00113332
-7.02481e-06
9.93438e-07
-0.00113298
-1.12148e-05
6.43121e-07
-0.00113188
-1.44511e-05
4.02176e-08
-0.00113003
-1.61744e-05
-7.98736e-07
-0.00112747
-1.57043e-05
-1.82541e-06
-0.00112431
-1.22593e-05
-2.95142e-06
-0.00112084
-3.90765e-06
-0.00111779
-5.65234e-06
1.03344e-05
8.4832e-07
-0.00141853
3.86903e-06
1.42947e-06
-0.00142042
-2.7745e-06
1.65167e-06
-0.0014211
-9.29106e-06
1.52817e-06
-0.00142055
-1.53069e-05
1.03487e-06
-0.00141874
-2.03018e-05
1.61662e-07
-0.00141559
-2.34785e-05
-1.10357e-06
-0.00141102
-2.36621e-05
-2.72129e-06
-0.00140507
-1.91472e-05
-4.61224e-06
-0.001398
-6.31275e-06
-0.00139138
-9.09103e-06
1.29533e-05
1.19995e-06
-0.0017038
4.94862e-06
1.99617e-06
-0.00170657
-3.26069e-06
2.31308e-06
-0.00170759
-1.14347e-05
2.1947e-06
-0.00170689
-1.92464e-05
1.60059e-06
-0.00170436
-2.61809e-05
5.09149e-07
-0.00169981
-3.1279e-05
-1.13807e-06
-0.00169289
-3.28875e-05
-3.33014e-06
-0.00168336
-2.80245e-05
-6.07338e-06
-0.00167103
-8.68498e-06
-0.00165871
-1.45458e-05
1.5283e-05
1.60995e-06
-0.00199165
6.01575e-06
2.53059e-06
-0.00199535
-3.42897e-06
2.90869e-06
-0.0019968
-1.29315e-05
2.79584e-06
-0.00199606
-2.22877e-05
2.14105e-06
-0.00199293
-3.10795e-05
9.0321e-07
-0.00198706
-3.82931e-05
-1.0409e-06
-0.0019777
-4.18767e-05
-3.73436e-06
-0.00196411
-3.73982e-05
-7.34471e-06
-0.00194503
-1.09847e-05
-0.00192469
-2.0874e-05
1.71004e-05
1.94849e-06
-0.00227866
6.84803e-06
2.93911e-06
-0.00228332
-3.53025e-06
3.3341e-06
-0.0022852
-1.4055e-05
3.2211e-06
-0.00228446
-2.46641e-05
2.53721e-06
-0.00228081
-3.51114e-05
1.23159e-06
-0.00227374
-4.4466e-05
-8.78923e-07
-0.00226197
-5.04417e-05
-3.9117e-06
-0.00224415
-4.72136e-05
-8.23756e-06
-0.00221712
-1.29077e-05
-0.0021866
-2.85182e-05
1.83249e-05
2.10639e-06
-0.00256642
7.47626e-06
3.02168e-06
-0.002572
-3.44775e-06
3.37738e-06
-0.00257436
-1.45839e-05
3.23546e-06
-0.00257372
-2.6051e-05
2.56201e-06
-0.0025697
-3.78166e-05
1.28943e-06
-0.00256164
-4.91488e-05
-8.07755e-07
-0.00254767
-5.76872e-05
-3.95087e-06
-0.00252564
-5.64455e-05
-8.68875e-06
-0.00248981
-1.43505e-05
-0.00244716
-3.64866e-05
1.873e-05
1.89548e-06
-0.00285485
7.552e-06
2.62684e-06
-0.00286127
-3.59953e-06
2.87641e-06
-0.00286391
-1.4995e-05
2.71491e-06
-0.00286316
-2.68831e-05
2.11052e-06
-0.00285859
-3.94576e-05
9.98382e-07
-0.00284947
-5.23274e-05
-8.26517e-07
-0.00283342
-6.33405e-05
-3.70969e-06
-0.00280752
-6.48628e-05
-8.09772e-06
-0.00276296
-1.4435e-05
-0.00270665
-4.49777e-05
1.84652e-05
1.14407e-06
-0.00314054
7.48952e-06
1.40483e-06
-0.00314758
-3.42686e-06
1.49481e-06
-0.00315057
-1.45705e-05
1.22806e-06
-0.00314988
-2.63519e-05
6.96318e-07
-0.00314502
-3.91566e-05
-1.64317e-07
-0.00313515
-5.29371e-05
-1.43814e-06
-0.00311734
-6.63033e-05
-3.37859e-06
-0.00308799
-7.12622e-05
-6.28876e-06
-0.00303546
-1.12877e-05
-0.00296301
-5.36146e-05
1.76244e-05
-0.00340841
6.79149e-06
-0.00341545
-3.81507e-06
-0.00341822
-1.46387e-05
-0.00341655
-2.60685e-05
-0.00341006
-3.86062e-05
-0.00339789
-5.23917e-05
-0.00337705
-6.65673e-05
-0.00334315
-7.36983e-05
-0.00328357
-0.00319581
-5.95808e-05
3.29106e-06
1.06808e-07
-0.000842404
1.28812e-06
2.7856e-07
-0.000843059
-8.66411e-07
3.53415e-07
-0.000843244
-2.92012e-06
3.08738e-07
-0.000843154
-4.63254e-06
1.54564e-07
-0.000842837
-5.77053e-06
-1.01078e-07
-0.000842328
-6.12985e-06
-4.35597e-07
-0.000841671
-5.55924e-06
-8.15707e-07
-0.000840932
-4.01139e-06
-1.18939e-06
-0.00084017
-1.47569e-06
-0.000839302
-1.64576e-06
5.24901e-06
2.44364e-07
-0.00112896
1.8312e-06
6.05579e-07
-0.00112981
-1.76721e-06
7.49101e-07
-0.00113011
-5.22949e-06
6.67092e-07
-0.00112988
-8.21482e-06
3.582e-07
-0.0011291
-1.03599e-05
-1.64771e-07
-0.00112782
-1.12714e-05
-8.71743e-07
-0.00112612
-1.05667e-05
-1.70306e-06
-0.00112413
-7.94665e-06
-2.56201e-06
-0.00112209
-3.25271e-06
-0.00112042
-3.53726e-06
8.2851e-06
5.07139e-07
-0.00141423
3.156e-06
1.03872e-06
-0.00141572
-2.16807e-06
1.24275e-06
-0.00141627
-7.3321e-06
1.12082e-06
-0.00141584
-1.19355e-05
6.55527e-07
-0.00141443
-1.54917e-05
-1.49247e-07
-0.00141205
-1.73727e-05
-1.27757e-06
-0.00140873
-1.68204e-05
-2.66145e-06
-0.00140467
-1.29826e-05
-4.17768e-06
-0.00140022
-5.46942e-06
-0.00139637
-5.77731e-06
1.09002e-05
8.33299e-07
-0.00169808
4.20968e-06
1.59483e-06
-0.00170044
-2.72836e-06
1.89554e-06
-0.00170131
-9.56126e-06
1.76613e-06
-0.0017007
-1.58693e-05
1.17582e-06
-0.00169857
-2.10944e-05
1.19807e-07
-0.00169485
-2.43878e-05
-1.41702e-06
-0.00168946
-2.45459e-05
-3.37877e-06
-0.00168249
-1.98145e-05
-5.6675e-06
-0.00167427
-7.72286e-06
-0.00166673
-9.54073e-06
1.33487e-05
1.24244e-06
-0.00198453
5.28018e-06
2.1448e-06
-0.00198783
-3.02391e-06
2.51159e-06
-0.00198911
-1.12881e-05
2.37772e-06
-0.00198841
-1.91564e-05
1.7019e-06
-0.00198559
-2.60804e-05
4.58937e-07
-0.00198048
-3.10468e-05
-1.42094e-06
-0.00197272
-3.24056e-05
-3.92043e-06
-0.00196221
-2.72133e-05
-7.02947e-06
-0.00194886
-9.98152e-06
-0.00193582
-1.38205e-05
1.53601e-05
1.61291e-06
-0.00227026
6.15697e-06
2.60308e-06
-0.00227457
-3.24345e-06
2.99369e-06
-0.00227628
-1.26806e-05
2.85707e-06
-0.0022755
-2.18961e-05
2.13701e-06
-0.00227203
-3.04296e-05
7.94443e-07
-0.00226554
-3.72137e-05
-1.29802e-06
-0.00225531
-4.02437e-05
-4.19047e-06
-0.00224085
-3.52502e-05
-8.01218e-06
-0.00222113
-1.18941e-05
-0.00220079
-1.91555e-05
1.67727e-05
1.82977e-06
-0.00255691
6.8232e-06
2.76134e-06
-0.00256221
-3.27993e-06
3.12239e-06
-0.00256439
-1.34846e-05
2.96364e-06
-0.00256362
-2.36834e-05
2.2519e-06
-0.00255962
-3.35636e-05
9.27393e-07
-0.0025519
-4.21057e-05
-1.18784e-06
-0.00253923
-4.70697e-05
-4.23684e-06
-0.00252063
-4.28704e-05
-8.50823e-06
-0.00249352
-1.32797e-05
-0.00246408
-2.4567e-05
1.73931e-05
1.66362e-06
-0.00284435
6.99521e-06
2.42577e-06
-0.00285054
-3.46339e-06
2.6904e-06
-0.00285302
-1.40725e-05
2.53183e-06
-0.00285212
-2.48454e-05
1.90947e-06
-0.00284747
-3.56489e-05
7.64618e-07
-0.0028385
-4.56548e-05
-1.07976e-06
-0.00282352
-5.26165e-05
-3.88933e-06
-0.0028009
-4.99897e-05
-7.91725e-06
-0.00276618
-1.32842e-05
-0.00272614
-3.0493e-05
1.72979e-05
1.03266e-06
-0.00312931
6.99094e-06
1.31512e-06
-0.00313616
-3.35175e-06
1.44427e-06
-0.00313898
-1.3837e-05
1.21957e-06
-0.00313808
-2.46461e-05
7.26292e-07
-0.00313303
-3.58163e-05
-1.04042e-07
-0.00312311
-4.67386e-05
-1.35888e-06
-0.00310614
-5.55509e-05
-3.2391e-06
-0.00307982
-5.51174e-05
-5.95513e-06
-0.00303785
-1.01072e-05
-0.00298516
-3.61393e-05
1.66154e-05
-0.00339707
6.4437e-06
-0.00340396
-3.60007e-06
-0.00340673
-1.38038e-05
-0.00340513
-2.43477e-05
-0.00339879
-3.53956e-05
-0.00338694
-4.65288e-05
-0.00336727
-5.61813e-05
-0.00333674
-5.73772e-05
-0.00328833
-0.0032236
-3.96895e-05
2.21195e-06
-1.65725e-09
-0.000841361
8.93636e-07
1.36174e-07
-0.000841877
-5.42905e-07
2.00413e-07
-0.000842008
-1.90617e-06
1.65817e-07
-0.000841956
-3.0209e-06
4.40204e-08
-0.000841767
-3.72702e-06
-1.56293e-07
-0.000841466
-3.90067e-06
-4.12458e-07
-0.000841084
-3.47119e-06
-6.94949e-07
-0.000840667
-2.44946e-06
-9.61297e-07
-0.000840231
-1.15656e-06
-0.000839625
-9.69508e-07
3.69414e-06
1.27114e-08
-0.00112698
1.26094e-06
3.18864e-07
-0.00112756
-1.32598e-06
4.44375e-07
-0.00112777
-3.79922e-06
3.76584e-07
-0.00112761
-5.87763e-06
1.17226e-07
-0.00112709
-7.28487e-06
-3.16463e-07
-0.00112626
-7.75921e-06
-8.88786e-07
-0.00112517
-7.09729e-06
-1.53961e-06
-0.00112395
-5.21301e-06
-2.1813e-06
-0.00112275
-2.67459e-06
-0.00112182
-2.29055e-06
6.4497e-06
1.93586e-07
-0.001411
2.50241e-06
6.58357e-07
-0.00141211
-1.6311e-06
8.38161e-07
-0.00141253
-5.60387e-06
7.24972e-07
-0.00141222
-9.04133e-06
3.06657e-07
-0.00141118
-1.15312e-05
-4.02631e-07
-0.00140947
-1.26144e-05
-1.36845e-06
-0.00140717
-1.18348e-05
-2.50986e-06
-0.00140448
-8.82534e-06
-3.69425e-06
-0.00140171
-4.6599e-06
-0.00139946
-3.74701e-06
8.89283e-06
4.67667e-07
-0.00169365
3.47503e-06
1.17047e-06
-0.00169553
-2.20605e-06
1.44721e-06
-0.00169624
-7.7494e-06
1.31656e-06
-0.00169575
-1.271e-05
7.57179e-07
-0.00169406
-1.65606e-05
-2.20134e-07
-0.00169118
-1.8621e-05
-1.59648e-06
-0.00168717
-1.80876e-05
-3.28565e-06
-0.00168225
-1.40467e-05
-5.13953e-06
-0.00167687
-6.72559e-06
-0.00167226
-6.45194e-06
1.13193e-05
8.49189e-07
-0.00197876
4.50724e-06
1.70581e-06
-0.00198155
-2.57529e-06
2.05236e-06
-0.00198264
-9.55477e-06
1.90776e-06
-0.00198202
-1.59935e-05
1.24151e-06
-0.00197964
-2.13083e-05
4.65218e-08
-0.00197543
-2.46096e-05
-1.69824e-06
-0.00196932
-2.46919e-05
-3.92612e-06
-0.00196149
-1.98185e-05
-6.51698e-06
-0.00195235
-8.85804e-06
-0.00194405
-9.4562e-06
1.34191e-05
1.22815e-06
-0.00226325
5.39597e-06
2.19089e-06
-0.00226704
-2.87767e-06
2.56803e-06
-0.00226852
-1.1104e-05
2.41623e-06
-0.00226779
-1.88929e-05
1.68877e-06
-0.00226469
-2.56754e-05
3.63692e-07
-0.00225908
-3.04246e-05
-1.62866e-06
-0.00225063
-3.15584e-05
-4.27435e-06
-0.00223937
-2.63098e-05
-7.52938e-06
-0.00222537
-1.06708e-05
-0.00221194
-1.33379e-05
1.49476e-05
1.4929e-06
-0.00254877
6.0771e-06
2.41795e-06
-0.00255356
-3.01337e-06
2.77624e-06
-0.0025555
-1.21105e-05
2.60659e-06
-0.00255472
-2.09338e-05
1.88026e-06
-0.00255098
-2.89926e-05
5.52396e-07
-0.00254403
-3.51951e-05
-1.49976e-06
-0.00253316
-3.76505e-05
-4.33527e-06
-0.00251811
-3.24413e-05
-8.03312e-06
-0.00249822
-1.19116e-05
-0.0024782
-1.70768e-05
1.57525e-05
1.36393e-06
-0.00283513
6.33341e-06
2.14121e-06
-0.00284084
-3.22533e-06
2.4131e-06
-0.0028431
-1.2846e-05
2.25737e-06
-0.00284215
-2.23469e-05
1.62904e-06
-0.00283772
-3.13615e-05
4.8232e-07
-0.00282941
-3.88669e-05
-1.3194e-06
-0.0028162
-4.28119e-05
-3.94677e-06
-0.00279734
-3.83396e-05
-7.47103e-06
-0.00277121
-1.17998e-05
-0.00274328
-2.13103e-05
1.58179e-05
8.71109e-07
-0.00311935
6.38554e-06