/*--------------------------------*- C++ -*----------------------------------*\
| =========                 |                                                 |
| \\      /  F ield         | foam-extend: Open Source CFD                    |
|  \\    /   O peration     | Version:     4.0                                |
|   \\  /    A nd           | Web:         http://www.foam-extend.org         |
|    \\/     M anipulation  |                                                 |
\*---------------------------------------------------------------------------*/
FoamFile
{
    version     2.0;
    format      ascii;
    class       volVectorField;
    location    "2100";
    object      Urel;
}
// * * * * * * * * * * * * * * * * * * * * * * * * * * * * * * * * * * * * * //

dimensions      [0 1 -1 0 0 0 0];

internalField   nonuniform List<vector> 
34480
(
(209.005 -9.79402 -19.0913)
(209.325 -9.29369 -21.5539)
(209.483 -8.56834 -23.9804)
(209.489 -7.64384 -26.414)
(209.34 -6.55897 -28.9927)
(208.998 -5.31656 -31.8923)
(208.382 -3.8969 -35.5129)
(207.215 -2.18377 -40.199)
(204.544 0.051452 -48.1212)
(197.606 4.25577 -75.2916)
(209.938 -12.8029 -26.81)
(210.197 -11.6756 -29.594)
(210.324 -10.3939 -32.2538)
(210.297 -8.97183 -34.8569)
(210.062 -7.44605 -37.5205)
(209.559 -5.83636 -40.4521)
(208.752 -4.16174 -44.1113)
(207.459 -2.36819 -49.2401)
(204.323 -0.294272 -58.0611)
(196.164 3.65893 -88.6312)
(210.626 -17.1001 -33.747)
(210.861 -15.5489 -36.8322)
(210.955 -13.8204 -39.7793)
(210.884 -11.9089 -42.602)
(210.589 -9.87011 -45.4278)
(210.061 -7.73816 -48.5133)
(209.309 -5.54058 -52.3871)
(208.166 -3.20767 -58.0777)
(204.865 -0.57254 -67.7762)
(195.655 4.13199 -101.29)
(210.633 -20.4952 -41.1593)
(210.868 -18.4132 -44.539)
(210.977 -16.1555 -47.7256)
(210.94 -13.7039 -50.7504)
(210.706 -11.1151 -53.7482)
(210.292 -8.42633 -57.0047)
(209.675 -5.67008 -61.0512)
(208.696 -2.7675 -67.1362)
(205.369 0.454354 -77.4581)
(195.356 5.84574 -112.879)
(210.792 -24.972 -48.0212)
(211.056 -22.4803 -51.6783)
(211.203 -19.7753 -55.1515)
(211.228 -16.8382 -58.4261)
(211.086 -13.7452 -61.6618)
(210.806 -10.5333 -65.1565)
(210.338 -7.22954 -69.4381)
(209.542 -3.74431 -75.9422)
(206.315 0.102395 -86.9317)
(195.658 6.19687 -123.872)
(210.677 -28.2266 -55.6175)
(210.952 -25.235 -59.5114)
(211.12 -22.0155 -63.1531)
(211.178 -18.5472 -66.5714)
(211.103 -14.8975 -69.9183)
(210.941 -11.1091 -73.5161)
(210.626 -7.21089 -77.8768)
(210.044 -3.11581 -84.6081)
(207.064 1.37633 -96.0825)
(196.009 8.10818 -134.171)
(210.758 -33.0087 -62.4758)
(211.074 -29.6279 -66.6099)
(211.27 -25.984 -70.5012)
(211.367 -22.0658 -74.1261)
(211.351 -17.9486 -77.6658)
(211.286 -13.6689 -81.4436)
(211.111 -9.23116 -85.9755)
(210.746 -4.53228 -92.9908)
(208.097 0.699012 -105.044)
(196.746 8.26175 -144.124)
(210.585 -36.1792 -70.3228)
(210.906 -32.3265 -74.664)
(211.081 -28.1646 -78.6834)
(211.137 -23.7085 -82.4174)
(211.08 -19.0115 -86.0102)
(210.997 -14.1313 -89.7902)
(210.868 -9.06498 -94.2567)
(210.66 -3.70514 -101.228)
(208.419 2.37089 -113.47)
(197.103 10.8378 -153.054)
(210.53 -41.4427 -77.152)
(210.894 -37.223 -81.6793)
(211.101 -32.6856 -85.8817)
(211.195 -27.8697 -89.7668)
(211.189 -22.8304 -93.52)
(211.15 -17.5977 -97.4455)
(211.09 -12.1153 -102.078)
(211.022 -6.23061 -109.204)
(209.11 0.774989 -121.818)
(197.678 10.7323 -161.341)
(209.565 -44.6439 -85.1138)
(209.84 -40.0419 -89.9223)
(209.787 -35.0029 -94.3272)
(209.428 -29.6475 -98.3966)
(208.81 -23.9893 -102.257)
(208.024 -18.0692 -106.188)
(207.155 -11.8217 -110.661)
(206.368 -5.05618 -117.277)
(204.431 2.95962 -129.04)
(194.246 14.3052 -166.631)
(205.89 1.91209 3.00057)
(206.368 1.10957 1.54392)
(206.555 0.426476 -0.00994037)
(206.472 -0.117466 -1.61003)
(206.094 -0.546566 -3.31977)
(205.332 -0.861359 -5.15153)
(203.985 -1.06595 -7.15903)
(201.619 -1.1718 -9.31725)
(198.153 -1.25688 -11.2449)
(193.578 -1.15904 -14.3933)
(207.188 2.86832 2.79802)
(207.62 2.16401 1.16191)
(207.792 1.51919 -0.492132)
(207.703 0.943707 -2.18897)
(207.291 0.416367 -3.99618)
(206.436 -0.0688891 -5.97167)
(204.942 -0.527184 -8.20857)
(202.357 -0.993457 -10.958)
(198.188 -1.58391 -14.0067)
(192.504 -1.82421 -20.5814)
(208.137 2.57745 3.30719)
(208.546 1.77142 1.54485)
(208.704 1.0448 -0.256614)
(208.604 0.422677 -2.09003)
(208.167 -0.133505 -4.02961)
(207.293 -0.636281 -6.15911)
(205.809 -1.11496 -8.66747)
(203.232 -1.58626 -12.0866)
(198.687 -2.15719 -16.333)
(192.069 -2.0713 -26.7165)
(208.38 3.17797 3.30358)
(208.795 2.40348 1.45622)
(208.974 1.69449 -0.403285)
(208.916 1.08833 -2.29685)
(208.543 0.546516 -4.30984)
(207.771 0.0573329 -6.56868)
(206.399 -0.412339 -9.29919)
(203.914 -0.855364 -13.2584)
(199.141 -1.36359 -18.4763)
(191.708 -0.933661 -32.454)
(208.733 2.66849 3.8384)
(209.175 1.8091 1.93581)
(209.393 1.04227 -0.0202795)
(209.4 0.40871 -2.00853)
(209.119 -0.146795 -4.14598)
(208.483 -0.635544 -6.58647)
(207.261 -1.09242 -9.5722)
(204.939 -1.48859 -14.0627)
(200.087 -1.90229 -20.2306)
(191.947 -1.07305 -37.6931)
(208.768 3.39317 3.63429)
(209.226 2.5413 1.71994)
(209.469 1.7837 -0.20674)
(209.518 1.16383 -2.1755)
(209.311 0.635012 -4.29755)
(208.803 0.182819 -6.77287)
(207.747 -0.224003 -9.84323)
(205.646 -0.547914 -14.6621)
(200.882 -0.830079 -21.5473)
(192.216 0.364654 -42.21)
(208.973 2.56693 4.16005)
(209.466 1.61614 2.23755)
(209.741 0.786485 0.259142)
(209.836 0.114292 -1.74947)
(209.696 -0.450613 -3.93568)
(209.303 -0.919829 -6.51554)
(208.41 -1.30988 -9.74419)
(206.553 -1.56814 -14.9175)
(201.996 -1.65614 -22.5674)
(192.906 0.00113685 -46.2451)
(208.888 3.37382 3.69577)
(209.389 2.40956 1.80352)
(209.653 1.59813 -0.088171)
(209.722 0.950805 -2.02427)
(209.566 0.44123 -4.12022)
(209.195 0.0373147 -6.62257)
(208.395 -0.263869 -9.781)
(206.759 -0.418287 -15.005)
(202.531 -0.208005 -23.0524)
(193.314 1.83454 -49.2175)
(208.9 2.05541 4.24522)
(209.433 0.977336 2.40203)
(209.725 0.0661178 0.526053)
(209.83 -0.688938 -1.37759)
(209.732 -1.3184 -3.4805)
(209.434 -1.8347 -6.03019)
(208.756 -2.18999 -9.33505)
(207.348 -2.32154 -14.7933)
(203.458 -1.74178 -23.4882)
(193.99 1.00302 -51.498)
(207.978 2.8638 3.63703)
(208.455 1.69309 1.78963)
(208.572 0.796307 -0.0346244)
(208.358 0.0678023 -1.90535)
(207.831 -0.474167 -3.92969)
(207.023 -0.855587 -6.35358)
(205.823 -1.01325 -9.4694)
(204.021 -0.832072 -14.5637)
(200.28 0.222276 -23.0377)
(191.633 4.03745 -51.3447)
(203.516 1.42782 2.33439)
(204.019 0.833479 1.21632)
(204.2 0.302457 -0.0132358)
(204.096 -0.131817 -1.26337)
(203.695 -0.482412 -2.55458)
(202.949 -0.746756 -3.83239)
(201.763 -0.934623 -5.04901)
(199.987 -1.07154 -6.05474)
(197.433 -1.2429 -6.49845)
(194.216 -1.43226 -6.51684)
(204.911 2.41407 2.31333)
(205.406 1.87175 0.946225)
(205.585 1.34549 -0.448696)
(205.462 0.85487 -1.86567)
(204.999 0.389806 -3.33124)
(204.11 -0.0550487 -4.84802)
(202.637 -0.493012 -6.37962)
(200.309 -0.955726 -7.86287)
(196.685 -1.55458 -8.80235)
(191.846 -2.13667 -9.81064)
(205.945 2.21193 2.94814)
(206.445 1.52876 1.39552)
(206.625 0.890593 -0.20864)
(206.5 0.327162 -1.83793)
(206.012 -0.193569 -3.53866)
(205.059 -0.681529 -5.32756)
(203.443 -1.16148 -7.21445)
(200.799 -1.66359 -9.29185)
(196.297 -2.33221 -11.0026)
(189.855 -2.91128 -13.5839)
(206.341 2.89695 2.99423)
(206.864 2.22034 1.31814)
(207.069 1.57961 -0.380779)
(206.979 1.01453 -2.11223)
(206.529 0.491627 -3.94016)
(205.613 0.00113725 -5.92288)
(203.981 -0.488834 -8.1063)
(201.168 -0.99573 -10.7404)
(195.929 -1.68092 -13.2004)
(187.993 -2.16629 -17.5586)
(206.843 2.42648 3.56882)
(207.398 1.65006 1.80548)
(207.64 0.940852 -0.0195032)
(207.606 0.34066 -1.87733)
(207.226 -0.200968 -3.86937)
(206.399 -0.692536 -6.08615)
(204.825 -1.16953 -8.60242)
(201.968 -1.63798 -11.8315)
(196.182 -2.28608 -15.13)
(186.924 -2.57771 -21.5717)
(207.009 3.20027 3.38974)
(207.583 2.41748 1.59386)
(207.852 1.70793 -0.22245)
(207.86 1.11503 -2.08435)
(207.542 0.594241 -4.09215)
(206.813 0.133221 -6.38737)
(205.339 -0.30348 -9.06285)
(202.539 -0.715435 -12.7145)
(196.407 -1.27653 -16.7148)
(186.059 -1.33997 -25.333)
(207.327 2.39056 3.9388)
(207.932 1.50296 2.11665)
(208.231 0.720273 0.231312)
(208.285 0.0786612 -1.6894)
(208.029 -0.470281 -3.78522)
(207.399 -0.934865 -6.22089)
(206.044 -1.33754 -9.12149)
(203.364 -1.66911 -13.2319)
(197.057 -2.06857 -18.0273)
(185.78 -1.79915 -28.9563)
(207.334 3.23554 3.47888)
(207.947 2.33246 1.68354)
(208.24 1.56582 -0.117584)
(208.277 0.948658 -1.97004)
(208.014 0.454399 -3.98458)
(207.412 0.0567526 -6.36713)
(206.142 -0.257114 -9.26033)
(203.615 -0.487746 -13.5541)
(197.323 -0.620444 -18.8721)
(185.385 -0.0695526 -31.8727)
(207.426 1.90358 4.03286)
(208.058 0.887435 2.27506)
(208.373 0.0349099 0.472751)
(208.438 -0.660666 -1.3615)
(208.217 -1.2312 -3.38769)
(207.677 -1.68693 -5.81498)
(206.518 -1.99256 -8.87625)
(204.185 -2.12661 -13.5147)
(198.027 -1.86064 -19.6419)
(185.304 -0.799189 -34.2639)
(206.57 2.76961 3.39234)
(207.15 1.67668 1.66379)
(207.335 0.850648 -0.0525963)
(207.163 0.187365 -1.82448)
(206.626 -0.293629 -3.74838)
(205.714 -0.615337 -6.03801)
(204.198 -0.72647 -8.92214)
(201.628 -0.547122 -13.3055)
(195.607 0.217629 -19.5468)
(182.826 2.30028 -34.6947)
(201.78 0.949042 1.70182)
(202.217 0.54764 0.91144)
(202.368 0.165579 0.00793649)
(202.269 -0.157923 -0.896378)
(201.921 -0.428638 -1.80004)
(201.305 -0.641208 -2.62144)
(200.394 -0.807857 -3.29562)
(199.16 -0.952097 -3.68715)
(197.6 -1.12932 -3.58046)
(195.87 -1.3649 -2.75285)
(203.101 1.90732 1.79146)
(203.569 1.53186 0.7182)
(203.731 1.13471 -0.387639)
(203.6 0.741706 -1.49703)
(203.152 0.354043 -2.60161)
(202.342 -0.0310628 -3.67085)
(201.094 -0.424272 -4.62874)
(199.301 -0.848059 -5.34693)
(196.836 -1.37062 -5.40297)
(194.039 -1.93796 -4.61969)
(204.089 1.75981 2.50358)
(204.6 1.21995 1.20613)
(204.776 0.690168 -0.150743)
(204.634 0.204629 -1.51789)
(204.134 -0.260128 -2.91203)
(203.206 -0.712428 -4.31328)
(201.715 -1.17169 -5.65517)
(199.466 -1.66421 -6.84623)
(196.112 -2.29568 -7.29989)
(192.032 -2.99154 -6.92401)
(204.549 2.52658 2.58712)
(205.106 1.97221 1.1318)
(205.311 1.42087 -0.354514)
(205.188 0.916196 -1.8611)
(204.687 0.432979 -3.4236)
(203.721 -0.0380801 -5.05624)
(202.093 -0.526062 -6.71321)
(199.506 -1.05342 -8.37922)
(195.29 -1.75929 -9.2934)
(189.825 -2.52567 -9.54029)
(205.135 2.10107 3.20274)
(205.736 1.43208 1.62535)
(205.975 0.800352 -0.0199358)
(205.895 0.25006 -1.68735)
(205.429 -0.261301 -3.45156)
(204.486 -0.741674 -5.35613)
(202.809 -1.22402 -7.38172)
(200.006 -1.72761 -9.61111)
(195.037 -2.44196 -11.14)
(188.233 -3.18119 -12.3679)
(205.391 2.92945 3.05267)
(206.02 2.2394 1.41837)
(206.288 1.59636 -0.243809)
(206.241 1.04578 -1.94377)
(205.815 0.548901 -3.75855)
(204.92 0.0932251 -5.77995)
(203.251 -0.358939 -8.01101)
(200.341 -0.826206 -10.6684)
(194.767 -1.5067 -12.7412)
(186.756 -2.16644 -15.135)
(205.794 2.14614 3.63086)
(206.455 1.34328 1.94755)
(206.75 0.623456 0.194427)
(206.744 0.0243368 -1.58894)
(206.365 -0.498083 -3.52096)
(205.536 -0.9516 -5.71753)
(203.913 -1.36275 -8.22154)
(200.974 -1.74455 -11.3673)
(194.942 -2.30035 -14.1234)
(185.84 -2.77393 -17.9495)
(205.881 3.04184 3.18187)
(206.55 2.21937 1.51795)
(206.843 1.51093 -0.159319)
(206.825 0.933895 -1.88658)
(206.441 0.463364 -3.75579)
(205.628 0.0770847 -5.926)
(204.045 -0.246896 -8.46741)
(201.144 -0.535861 -11.8564)
(194.854 -0.880609 -15.11)
(184.866 -1.19381 -20.3183)
(206.041 1.70841 3.76457)
(206.721 0.77088 2.12359)
(207.03 -0.0164364 0.423921)
(207.036 -0.652851 -1.30791)
(206.686 -1.1697 -3.21017)
(205.916 -1.57413 -5.43793)
(204.391 -1.84569 -8.14316)
(201.58 -1.99534 -11.889)
(195.219 -1.94746 -15.9861)
(184.255 -1.89914 -22.3807)
(205.253 2.64804 3.10265)
(205.886 1.64521 1.51474)
(206.104 0.893063 -0.0758723)
(205.94 0.293647 -1.72666)
(205.37 -0.131713 -3.51632)
(204.346 -0.403102 -5.61262)
(202.58 -0.481719 -8.16687)
(199.579 -0.316604 -11.7255)
(193.238 0.228241 -16.0577)
(181.783 1.2017 -22.8633)
(200.569 0.551069 1.19397)
(200.912 0.294865 0.666135)
(201.026 0.034008 0.0357908)
(200.951 -0.195327 -0.583058)
(200.692 -0.396697 -1.1874)
(200.254 -0.562434 -1.69748)
(199.642 -0.702098 -2.06659)
(198.879 -0.830829 -2.20477)
(198.014 -0.975105 -2.02031)
(197.162 -1.14161 -1.42912)
(201.725 1.4344 1.31141)
(202.119 1.19992 0.5103)
(202.256 0.920652 -0.321184)
(202.142 0.622096 -1.14556)
(201.769 0.31346 -1.93585)
(201.121 -0.00400534 -2.64891)
(200.176 -0.334816 -3.2106)
(198.932 -0.688783 -3.51256)
(197.409 -1.09417 -3.32755)
(195.912 -1.51132 -2.51766)
(202.575 1.29265 2.05045)
(203.045 0.890579 1.01567)
(203.207 0.4708 -0.0832403)
(203.073 0.0690034 -1.18031)
(202.621 -0.329578 -2.26749)
(201.812 -0.729583 -3.30332)
(200.581 -1.14423 -4.20326)
(198.863 -1.59102 -4.83733)
(196.58 -2.12525 -4.81321)
(194.191 -2.69419 -3.92698)
(203.014 2.11736 2.14835)
(203.557 1.69114 0.935483)
(203.753 1.23763 -0.315448)
(203.623 0.803346 -1.57414)
(203.133 0.373008 -2.84701)
(202.223 -0.0599096 -4.11436)
(200.772 -0.519542 -5.29404)
(198.64 -1.0251 -6.27051)
(195.55 -1.66453 -6.46634)
(192.08 -2.36898 -5.60754)
(203.613 1.72883 2.7942)
(204.219 1.17905 1.43092)
(204.45 0.635903 -0.00655473)
(204.346 0.14607 -1.45383)
(203.856 -0.322729 -2.95349)
(202.906 -0.776462 -4.50643)
(201.314 -1.24364 -6.04453)
(198.858 -1.74659 -7.49215)
(194.993 -2.42621 -8.08605)
(190.376 -3.19374 -7.53437)
(203.911 2.60723 2.66954)
(204.558 2.02465 1.22683)
(204.819 1.46026 -0.251858)
(204.739 0.962385 -1.7577)
(204.261 0.500935 -3.33661)
(203.306 0.0647528 -5.02966)
(201.634 -0.383553 -6.78398)
(198.95 -0.870276 -8.60562)
(194.39 -1.55911 -9.55971)
(188.65 -2.35296 -9.45952)
(204.359 1.85346 3.27558)
(205.047 1.15118 1.76106)
(205.335 0.505915 0.169066)
(205.288 -0.0418263 -1.44482)
(204.837 -0.528914 -3.16826)
(203.904 -0.962308 -5.06295)
(202.202 -1.37081 -7.11171)
(199.367 -1.77943 -9.39665)
(194.212 -2.37956 -10.8781)
(187.387 -3.09945 -11.5022)
(204.501 2.80598 2.83929)
(205.201 2.0798 1.33389)
(205.493 1.44071 -0.193537)
(205.437 0.912233 -1.76641)
(204.978 0.473601 -3.44894)
(204.042 0.106221 -5.34429)
(202.324 -0.21849 -7.45827)
(199.418 -0.543034 -9.99059)
(193.836 -0.991106 -11.8663)
(186.052 -1.65643 -13.2456)
(204.714 1.47466 3.45733)
(205.422 0.630514 1.95863)
(205.726 -0.0842973 0.386439)
(205.689 -0.659563 -1.21505)
(205.254 -1.12413 -2.95741)
(204.345 -1.48259 -4.93704)
(202.642 -1.72711 -7.225)
(199.712 -1.89022 -10.0744)
(193.887 -1.98175 -12.6837)
(185.055 -2.39464 -14.8187)
(203.988 2.50149 2.77477)
(204.653 1.59935 1.34471)
(204.894 0.925146 -0.10372)
(204.738 0.38988 -1.6132)
(204.151 0.0174782 -3.2402)
(203.066 -0.209306 -5.10189)
(201.197 -0.263998 -7.27254)
(198.1 -0.118966 -10.0004)
(192.172 0.260037 -12.811)
(182.631 0.640369 -15.1311)
(199.738 0.251651 0.824903)
(199.992 0.0930952 0.488432)
(200.073 -0.0795822 0.0636268)
(200.021 -0.236522 -0.342687)
(199.846 -0.382106 -0.735371)
(199.559 -0.507351 -1.04648)
(199.174 -0.618499 -1.25085)
(198.722 -0.723028 -1.29411)
(198.245 -0.831667 -1.14383)
(197.79 -0.943216 -0.777506)
(200.715 1.04037 0.910896)
(201.017 0.911012 0.336762)
(201.124 0.728171 -0.260114)
(201.036 0.512434 -0.84513)
(200.752 0.277217 -1.38644)
(200.274 0.0267437 -1.84327)
(199.61 -0.237739 -2.15825)
(198.791 -0.516804 -2.25865)
(197.883 -0.815379 -2.03777)
(197.076 -1.10367 -1.43097)
(201.388 0.861554 1.63604)
(201.786 0.575036 0.842252)
(201.924 0.254836 -0.0152421)
(201.81 -0.0660183 -0.863732)
(201.434 -0.3957 -1.68082)
(200.781 -0.7347 -2.41789)
(199.837 -1.0896 -2.99857)
(198.608 -1.46908 -3.31454)
(197.133 -1.89521 -3.14384)
(195.747 -2.32521 -2.3465)
(201.755 1.7121 1.72037)
(202.244 1.40395 0.746213)
(202.42 1.04636 -0.269237)
(202.299 0.685586 -1.28313)
(201.857 0.315301 -2.28028)
(201.066 -0.0668652 -3.22102)
(199.868 -0.477581 -4.01842)
(198.228 -0.929338 -4.54523)
(196.093 -1.46839 -4.4372)
(193.952 -2.04062 -3.43907)
(202.313 1.34323 2.37746)
(202.881 0.91102 1.23661)
(203.095 0.459599 0.0179779)
(202.984 0.0361555 -1.20017)
(202.512 -0.381356 -2.43262)
(201.632 -0.795563 -3.64938)
(200.236 -1.22821 -4.76364)
(198.232 -1.69879 -5.6469)
(195.413 -2.29701 -5.77436)
(192.406 -2.96193 -4.76568)
(202.607 2.25838 2.2678)
(203.233 1.7874 1.03183)
(203.479 1.30778 -0.246582)
(203.381 0.869598 -1.5419)
(202.895 0.452233 -2.87078)
(201.961 0.0474795 -4.23238)
(200.42 -0.377469 -5.54358)
(198.12 -0.849063 -6.71194)
(194.638 -1.48298 -7.04636)
(190.721 -2.22625 -6.09538)
(203.067 1.53081 2.89451)
(203.744 0.936863 1.5677)
(204.017 0.373486 0.156796)
(203.942 -0.116196 -1.26714)
(203.461 -0.560672 -2.76053)
(202.508 -0.964987 -4.33679)
(200.872 -1.35681 -5.93758)
(198.339 -1.76581 -7.50446)
(194.243 -2.34304 -8.22475)
(189.393 -3.07458 -7.55863)
(203.237 2.54063 2.46827)
(203.934 1.92027 1.14018)
(204.215 1.35849 -0.217918)
(204.132 0.885244 -1.61527)
(203.636 0.485278 -3.08699)
(202.657 0.144093 -4.68422)
(200.955 -0.168789 -6.36127)
(198.265 -0.501127 -8.14039)
(193.682 -0.973229 -9.13444)
(187.951 -1.71685 -8.79346)
(203.485 1.21051 3.12316)
(204.193 0.469784 1.78556)
(204.484 -0.166989 0.360827)
(204.416 -0.679407 -1.08801)
(203.932 -1.09249 -2.64471)
(202.96 -1.4083 -4.35242)
(201.233 -1.62835 -6.21888)
(198.439 -1.79471 -8.27886)
(193.52 -1.95805 -9.83222)
(186.813 -2.51398 -9.91459)
(202.81 2.3362 2.41852)
(203.479 1.5422 1.15879)
(203.73 0.949079 -0.133986)
(203.579 0.478237 -1.48542)
(202.991 0.156498 -2.92829)
(201.896 -0.0308084 -4.53203)
(200.045 -0.0680481 -6.30666)
(197.091 0.0556241 -8.2969)
(191.993 0.313738 -9.98372)
(184.565 0.41263 -10.0826)
(199.163 0.0421079 0.576378)
(199.348 -0.0565958 0.369778)
(199.404 -0.170436 0.0876502)
(199.372 -0.275824 -0.172427)
(199.261 -0.37928 -0.42552)
(199.084 -0.471413 -0.616451)
(198.853 -0.556077 -0.7364)
(198.595 -0.63554 -0.752732)
(198.333 -0.712811 -0.65828)
(198.072 -0.784037 -0.451637)
(199.985 0.740668 0.59904)
(200.202 0.682352 0.200246)
(200.28 0.572053 -0.211195)
(200.218 0.42357 -0.609799)
(200.017 0.251716 -0.966792)
(199.687 0.062179 -1.25027)
(199.245 -0.139704 -1.42131)
(198.727 -0.349573 -1.43691)
(198.194 -0.562302 -1.25227)
(197.756 -0.754283 -0.85084)
(200.482 0.495529 1.28422)
(200.796 0.296447 0.69433)
(200.907 0.0591196 0.0457581)
(200.818 -0.189282 -0.591053)
(200.526 -0.453004 -1.18888)
(200.032 -0.729317 -1.70216)
(199.346 -1.01948 -2.07143)
(198.504 -1.32471 -2.22257)
(197.576 -1.64849 -2.04284)
(196.772 -1.95755 -1.47326)
(200.754 1.34215 1.33062)
(201.167 1.13264 0.573926)
(201.317 0.86166 -0.22274)
(201.212 0.571976 -1.01233)
(200.842 0.26383 -1.76782)
(200.197 -0.0611843 -2.44282)
(199.263 -0.411652 -2.96159)
(198.06 -0.792539 -3.22035)
(196.634 -1.22205 -3.0137)
(195.321 -1.65787 -2.19302)
(201.235 0.972793 1.97814)
(201.738 0.646566 1.05174)
(201.926 0.283205 0.0480725)
(201.821 -0.0724027 -0.948043)
(201.399 -0.433552 -1.9319)
(200.636 -0.799158 -2.85717)
(199.483 -1.18331 -3.63812)
(197.929 -1.59932 -4.1486)
(195.95 -2.09676 -4.066)
(194.016 -2.62769 -3.1185)
(201.494 1.90638 1.8699)
(202.067 1.54188 0.841948)
(202.289 1.14728 -0.231741)
(202.187 0.772321 -1.31392)
(201.729 0.405014 -2.39859)
(200.878 0.040867 -3.45747)
(199.543 -0.345333 -4.3985)
(197.673 -0.774914 -5.09973)
(195.124 -1.31978 -5.10523)
(192.502 -1.94558 -4.03105)
(201.936 1.19706 2.50638)
(202.571 0.711208 1.37476)
(202.822 0.232355 0.155114)
(202.733 -0.195213 -1.06964)
(202.259 -0.591599 -2.32908)
(201.354 -0.959167 -3.6016)
(199.879 -1.32152 -4.80832)
(197.737 -1.70666 -5.82714)
(194.629 -2.22161 -6.09921)
(191.264 -2.86447 -5.07344)
(202.107 2.26001 2.08454)
(202.772 1.74822 0.943374)
(203.034 1.26783 -0.233645)
(202.937 0.854207 -1.4432)
(202.439 0.49795 -2.69427)
(201.486 0.188699 -3.99745)
(199.908 -0.101917 -5.27593)
(197.559 -0.417535 -6.45328)
(193.976 -0.857744 -6.88316)
(189.877 -1.53905 -5.92338)
(202.375 0.926493 2.77519)
(203.056 0.29353 1.60959)
(203.328 -0.262262 0.345904)
(203.24 -0.711128 -0.935446)
(202.744 -1.07362 -2.29243)
(201.778 -1.34936 -3.72565)
(200.144 -1.54591 -5.20096)
(197.644 -1.70584 -6.62898)
(193.702 -1.88948 -7.46378)
(188.788 -2.41855 -6.70021)
(201.738 2.1603 2.0453)
(202.384 1.47796 0.962319)
(202.633 0.967443 -0.165673)
(202.49 0.560775 -1.34761)
(201.921 0.287443 -2.5938)
(200.865 0.134996 -3.93387)
(199.129 0.110319 -5.33119)
(196.473 0.213128 -6.71449)
(192.316 0.384863 -7.61557)
(186.785 0.372437 -6.78126)
(198.757 -0.0985145 0.417793)
(198.894 -0.16274 0.295572)
(198.932 -0.2397 0.107045)
(198.913 -0.310334 -0.0578315)
(198.846 -0.383489 -0.222975)
(198.741 -0.45001 -0.343339)
(198.607 -0.512458 -0.420359)
(198.462 -0.570415 -0.43298)
(198.315 -0.623691 -0.383275)
(198.148 -0.668246 -0.27334)
(199.46 0.530688 0.367257)
(199.608 0.516932 0.0967138)
(199.663 0.457863 -0.176575)
(199.621 0.360814 -0.437979)
(199.487 0.240399 -0.664896)
(199.269 0.102616 -0.835098)
(198.987 -0.045337 -0.924312)
(198.668 -0.197136 -0.908699)
(198.357 -0.344784 -0.771811)
(198.114 -0.470622 -0.513391)
(199.802 0.204926 1.00203)
(200.036 0.0667611 0.574541)
(200.12 -0.105966 0.0960926)
(200.055 -0.293382 -0.370774)
(199.84 -0.498034 -0.80015)
(199.485 -0.715562 -1.1546)
(199.009 -0.94385 -1.39155)
(198.449 -1.17937 -1.46529)
(197.873 -1.41704 -1.32176)
(197.404 -1.63206 -0.946325)
(199.979 1.02653 0.994525)
(200.308 0.893016 0.424403)
(200.43 0.695229 -0.180694)
(200.346 0.470132 -0.776292)
(200.054 0.221955 -1.33175)
(199.554 -0.0449104 -1.80318)
(198.859 -0.332299 -2.13146)
(198.007 -0.639319 -2.24265)
(197.072 -0.967668 -2.02955)
(196.268 -1.28553 -1.4235)
(200.366 0.639277 1.61497)
(200.789 0.401657 0.883223)
(200.947 0.117695 0.0789571)
(200.855 -0.172639 -0.713875)
(200.5 -0.476068 -1.47949)
(199.874 -0.788337 -2.1674)
(198.966 -1.11685 -2.70372)
(197.806 -1.46787 -2.98656)
(196.45 -1.86385 -2.8314)
(195.215 -2.26667 -2.08453)
(200.57 1.57179 1.4951)
(201.069 1.30173 0.664661)
(201.262 0.987382 -0.211077)
(201.166 0.675624 -1.08917)
(200.76 0.361429 -1.949)
(200.027 0.0438351 -2.74879)
(198.928 -0.293887 -3.40235)
(197.469 -0.665881 -3.79553)
(195.655 -1.10987 -3.64695)
(193.919 -1.60325 -2.71221)
(200.974 0.870767 2.129)
(201.544 0.485841 1.18911)
(201.766 0.0895839 0.160993)
(201.675 -0.274724 -0.865983)
(201.238 -0.619749 -1.90116)
(200.426 -0.944985 -2.90241)
(199.165 -1.26857 -3.78743)
(197.431 -1.61273 -4.42101)
(195.146 -2.04647 -4.44745)
(192.846 -2.56747 -3.4569)
(201.125 1.97921 1.70435)
(201.731 1.57224 0.750226)
(201.969 1.17325 -0.242404)
(201.868 0.821051 -1.26112)
(201.398 0.51161 -2.29429)
(200.522 0.238385 -3.32549)
(199.135 -0.02244 -4.26584)
(197.178 -0.305734 -5.00176)
(194.475 -0.683529 -5.08974)
(191.601 -1.24159 -4.02938)
(201.4 0.634469 2.42789)
(202.029 0.107814 1.43667)
(202.277 -0.367066 0.340293)
(202.181 -0.753099 -0.767063)
(201.703 -1.0663 -1.92175)
(200.797 -1.30412 -3.0946)
(199.333 -1.47729 -4.22893)
(197.205 -1.62389 -5.18397)
(194.165 -1.79826 -5.56512)
(190.664 -2.23195 -4.57266)
(200.787 1.98332 1.66784)
(201.388 1.41184 0.761385)
(201.624 0.983346 -0.198116)
(201.49 0.639617 -1.20543)
(200.96 0.412137 -2.25176)
(199.984 0.290305 -3.33735)
(198.431 0.274602 -4.39689)
(196.155 0.358325 -5.31039)
(192.899 0.468982 -5.69506)
(188.924 0.42437 -4.5913)
(198.458 -0.191765 0.32129)
(198.565 -0.236991 0.252227)
(198.59 -0.291969 0.1225)
(198.58 -0.340135 0.0170337)
(198.541 -0.392374 -0.0945551)
(198.481 -0.440078 -0.17441)
(198.405 -0.485291 -0.229688)
(198.323 -0.526536 -0.245348)
(198.239 -0.562582 -0.226329)
(198.12 -0.590004 -0.173614)
(199.079 0.396311 0.199417)
(199.176 0.408988 0.0190354)
(199.213 0.384412 -0.155803)
(199.186 0.324899 -0.32039)
(199.1 0.244187 -0.458589)
(198.962 0.147942 -0.556181)
(198.787 0.0434281 -0.598969)
(198.595 -0.0628363 -0.574069)
(198.414 -0.163122 -0.477317)
(198.277 -0.244452 -0.311629)
(199.295 -0.0128959 0.785407)
(199.46 -0.11146 0.481346)
(199.521 -0.236392 0.134734)
(199.476 -0.37504 -0.202084)
(199.326 -0.529658 -0.507349)
(199.081 -0.695762 -0.752832)
(198.761 -0.869496 -0.90978)
(198.4 -1.04528 -0.95205)
(198.045 -1.21535 -0.854294)
(197.769 -1.36172 -0.621804)
(199.391 0.77282 0.717036)
(199.642 0.693933 0.299544)
(199.736 0.554665 -0.145946)
(199.672 0.385234 -0.581634)
(199.452 0.191689 -0.978617)
(199.083 -0.0200418 -1.30019)
(198.584 -0.24744 -1.50352)
(197.998 -0.486092 -1.54012)
(197.393 -0.729816 -1.3577)
(196.899 -0.954962 -0.931537)
(199.682 0.356228 1.29882)
(200.021 0.188097 0.735148)
(200.148 -0.0279886 0.106924)
(200.073 -0.258711 -0.508574)
(199.789 -0.506405 -1.09112)
(199.298 -0.764742 -1.59403)
(198.613 -1.03626 -1.95891)
(197.774 -1.32132 -2.11242)
(196.86 -1.6266 -1.95418)
(196.074 -1.92093 -1.41124)
(199.823 1.26991 1.15763)
(200.239 1.07836 0.505635)
(200.4 0.835769 -0.187885)
(200.315 0.584041 -0.879852)
(199.974 0.323071 -1.54233)
(199.373 0.0546484 -2.13057)
(198.505 -0.230126 -2.57195)
(197.406 -0.539009 -2.77555)
(196.14 -0.886568 -2.57468)
(195 -1.25712 -1.84127)
(200.18 0.567847 1.77721)
(200.669 0.271827 1.01651)
(200.86 -0.047583 0.171293)
(200.775 -0.350338 -0.668505)
(200.392 -0.643143 -1.49885)
(199.7 -0.922939 -2.26929)
(198.668 -1.20254 -2.90498)
(197.316 -1.49687 -3.28526)
(195.674 -1.8469 -3.1966)
(194.122 -2.24531 -2.37604)
(200.292 1.71227 1.34259)
(200.824 1.40105 0.567033)
(201.031 1.07972 -0.246121)
(200.934 0.788113 -1.07971)
(200.513 0.526519 -1.90798)
(199.747 0.291629 -2.69977)
(198.583 0.0653329 -3.36782)
(197.016 -0.177994 -3.80029)
(195.03 -0.485268 -3.70299)
(193.05 -0.910309 -2.75648)
(200.566 0.346159 2.09533)
(201.127 -0.0808212 1.27277)
(201.346 -0.477912 0.342423)
(201.251 -0.803504 -0.592743)
(200.813 -1.06947 -1.55271)
(200.005 -1.27146 -2.49084)
(198.752 -1.42122 -3.34288)
(197.015 -1.55005 -3.96246)
(194.739 -1.70145 -4.08207)
(192.301 -2.03013 -3.14725)
(199.966 1.8152 1.29875)
(200.504 1.34966 0.562073)
(200.718 1.00027 -0.231109)
(200.597 0.716988 -1.06537)
(200.121 0.532305 -1.91748)
(199.255 0.437148 -2.76895)
(197.922 0.427811 -3.54128)
(196.051 0.494896 -4.10951)
(193.581 0.562968 -4.1793)
(190.806 0.519272 -3.11554)
(198.23 -0.255803 0.265852)
(198.317 -0.290744 0.22955)
(198.335 -0.333197 0.135477)
(198.33 -0.367329 0.0658061)
(198.308 -0.405654 -0.014003)
(198.274 -0.44014 -0.0711379)
(198.231 -0.472751 -0.115482)
(198.185 -0.501783 -0.135265)
(198.135 -0.525872 -0.136)
(198.041 -0.542311 -0.116926)
(198.798 0.320948 0.0782035)
(198.859 0.348791 -0.0403127)
(198.883 0.346705 -0.147111)
(198.867 0.313659 -0.245252)
(198.814 0.262422 -0.324156)
(198.729 0.197973 -0.375327)
(198.623 0.126681 -0.390979)
(198.509 0.0543853 -0.36398)
(198.403 -0.0125646 -0.295259)
(198.324 -0.064615 -0.185933)
(198.913 -0.167925 0.624891)
(199.026 -0.242165 0.411043)
(199.068 -0.333171 0.162468)
(199.038 -0.434484 -0.0787579)
(198.937 -0.548739 -0.295613)
(198.774 -0.672307 -0.468022)
(198.566 -0.800738 -0.577335)
(198.337 -0.928265 -0.609487)
(198.121 -1.04738 -0.55218)
(197.958 -1.14545 -0.417662)
(198.952 0.579943 0.495765)
(199.135 0.537942 0.198366)
(199.204 0.443314 -0.11968)
(199.159 0.31972 -0.428823)
(199 0.173501 -0.704655)
(198.737 0.0111319 -0.918881)
(198.391 -0.162885 -1.04215)
(197.998 -0.342611 -1.04427)
(197.609 -0.519377 -0.902035)
(197.306 -0.676134 -0.609691)
(199.154 0.129556 1.03347)
(199.414 0.0129943 0.608849)
(199.512 -0.147655 0.129448)
(199.454 -0.326394 -0.337764)
(199.236 -0.522977 -0.772508)
(198.868 -0.730316 -1.13575)
(198.367 -0.947709 -1.38415)
(197.778 -1.17175 -1.4691)
(197.17 -1.40151 -1.33821)
(196.672 -1.61127 -0.963649)
(199.233 1.00987 0.866086)
(199.565 0.879826 0.368423)
(199.695 0.698333 -0.164689)
(199.625 0.50099 -0.69419)
(199.351 0.290689 -1.19045)
(198.878 0.0710303 -1.61235)
(198.217 -0.160771 -1.90293)
(197.414 -0.407869 -1.99706)
(196.545 -0.671451 -1.79857)
(195.802 -0.940588 -1.25423)
(199.541 0.300272 1.4616)
(199.946 0.0785996 0.861054)
(200.103 -0.172428 0.183082)
(200.029 -0.417796 -0.487103)
(199.709 -0.659879 -1.13802)
(199.144 -0.893716 -1.71956)
(198.332 -1.12786 -2.16947)
(197.311 -1.37026 -2.39231)
(196.154 -1.64404 -2.26741)
(195.118 -1.93645 -1.63859)
(199.602 1.47069 1.01131)
(200.051 1.24255 0.39903)
(200.226 0.992118 -0.246694)
(200.139 0.757832 -0.908251)
(199.778 0.543067 -1.55198)
(199.137 0.346948 -2.14159)
(198.198 0.157329 -2.59942)
(196.987 -0.0437421 -2.83417)
(195.56 -0.284602 -2.65424)
(194.216 -0.594743 -1.88855)
(199.874 0.0717669 1.7897)
(200.356 -0.266143 1.12323)
(200.543 -0.591284 0.350737)
(200.456 -0.860505 -0.421493)
(200.073 -1.0822 -1.20235)
(199.383 -1.25073 -1.93801)
(198.353 -1.37751 -2.56669)
(196.987 -1.48627 -2.96002)
(195.325 -1.60991 -2.94813)
(193.661 -1.84761 -2.1778)
(199.277 1.66541 0.949192)
(199.739 1.29742 0.369875)
(199.927 1.02196 -0.264833)
(199.821 0.795307 -0.933927)
(199.408 0.649805 -1.60483)
(198.67 0.577659 -2.24966)
(197.568 0.572826 -2.78836)
(196.086 0.625881 -3.11463)
(194.263 0.664557 -3.01095)
(192.375 0.633215 -2.107)
(198.049 -0.304375 0.237558)
(198.124 -0.333752 0.221002)
(198.137 -0.369447 0.147731)
(198.135 -0.395146 0.0987531)
(198.123 -0.424539 0.0372734)
(198.103 -0.450107 -0.00769785)
(198.079 -0.473909 -0.0468985)
(198.053 -0.494353 -0.0705325)
(198.022 -0.510281 -0.0840062)
(197.943 -0.519614 -0.0851186)
(198.585 0.289453 -0.0112891)
(198.624 0.326146 -0.0878499)
(198.639 0.338434 -0.148366)
(198.63 0.323674 -0.201475)
(198.598 0.293702 -0.240956)
(198.547 0.252646 -0.261998)
(198.483 0.205734 -0.260758)
(198.416 0.157813 -0.23297)
(198.353 0.113694 -0.181725)
(198.306 0.0805874 -0.105138)
(198.622 -0.27305 0.509416)
(198.696 -0.332989 0.359311)
(198.724 -0.400636 0.18112)
(198.705 -0.47443 0.00778181)
(198.639 -0.557607 -0.147812)
(198.534 -0.647519 -0.272109)
(198.402 -0.740079 -0.353208)
(198.26 -0.830253 -0.384039)
(198.129 -0.911895 -0.357677)
(198.032 -0.976403 -0.288249)
(198.628 0.441249 0.323954)
(198.756 0.422685 0.118142)
(198.806 0.360781 -0.101799)
(198.775 0.273465 -0.314231)
(198.664 0.166539 -0.500193)
(198.483 0.0461569 -0.638984)
(198.25 -0.0827778 -0.711382)
(197.991 -0.214197 -0.699077)
(197.743 -0.339695 -0.593706)
(197.556 -0.447501 -0.395074)
(198.752 -0.0409287 0.817257)