/*--------------------------------*- C++ -*----------------------------------*\
| =========                 |                                                 |
| \\      /  F ield         | foam-extend: Open Source CFD                    |
|  \\    /   O peration     | Version:     4.0                                |
|   \\  /    A nd           | Web:         http://www.foam-extend.org         |
|    \\/     M anipulation  |                                                 |
\*---------------------------------------------------------------------------*/
FoamFile
{
    version     2.0;
    format      ascii;
    class       volScalarField;
    location    "3000";
    object      divFlux;
}
// * * * * * * * * * * * * * * * * * * * * * * * * * * * * * * * * * * * * * //

dimensions      [1 -3 -1 0 0 0 0];

internalField   nonuniform List<scalar> 
34480
(
2.00446e-05
7.4262e-06
7.94594e-06
7.38374e-06
6.84181e-06
6.4168e-06
6.09584e-06
0.000297914
0.000165587
5.44287e-06
5.99431e-06
3.47723e-06
3.30363e-06
3.05569e-06
2.88719e-06
2.81038e-06
2.80655e-06
2.81038e-06
0.003482
2.71422e-06
2.2892e-06
1.01192e-06
1.07423e-06
1.03006e-06
1.0116e-06
1.04514e-06
1.10429e-06
1.14214e-06
0.00335546
1.12706e-06
8.31048e-07
3.65905e-07
4.19323e-07
4.00537e-07
3.98323e-07
4.19399e-07
4.46166e-07
4.62279e-07
0.000806601
4.57506e-07
3.48652e-07
1.42105e-07
1.78041e-07
1.66848e-07
1.67371e-07
1.73786e-07
1.87074e-07
1.91721e-07
1.94208e-07
1.90543e-07
1.28351e-07
7.22227e-08
7.5831e-08
7.41127e-08
7.30818e-08
7.7091e-08
8.15011e-08
8.36202e-08
8.45939e-08
8.29902e-08
6.76408e-08
3.02917e-08
3.69609e-08
3.21244e-08
3.46699e-08
3.44663e-08
3.72155e-08
3.84373e-08
3.90991e-08
3.76227e-08
3.54298e-08
1.96107e-08
1.94732e-08
1.58535e-08
1.71822e-08
1.74572e-08
1.80528e-08
1.79154e-08
1.88317e-08
1.86026e-08
4.68242e-08
2.91577e-09
1.70781e-08
8.03921e-09
1.02052e-08
9.74702e-09
9.83032e-09
9.45544e-09
1.07051e-08
9.78867e-09
1.71822e-10
1.22948e-08
4.23829e-09
9.50751e-09
5.95651e-09
6.56743e-09
6.91108e-09
6.37652e-09
6.6438e-09
7.14018e-09
2.96092e-05
1.02882e-05
1.01838e-05
9.5156e-06
8.9428e-06
8.50993e-06
8.22202e-06
8.07265e-06
8.05501e-06
0.00106858
9.44695e-06
4.97102e-06
4.79681e-06
4.50684e-06
4.3043e-06
4.21949e-06
4.2246e-06
4.30638e-06
4.44875e-06
0.00346313
3.04099e-06
1.84706e-06
1.74134e-06
1.71829e-06
1.71361e-06
1.77882e-06
1.86623e-06
1.97391e-06
2.0835e-06
0.00431801
1.28618e-06
7.1379e-07
7.38637e-07
7.83682e-07
7.54433e-07
8.10978e-07
8.4942e-07
9.03552e-07
9.57328e-07
0.00150129
7.12479e-07
2.68654e-07
2.46687e-07
4.551e-07
3.06077e-07
3.92241e-07
3.92728e-07
4.20354e-07
4.46581e-07
4.57568e-07
1.48712e-07
1.88697e-07
1.63459e-08
2.95824e-07
1.12345e-07
2.02168e-07
1.85343e-07
2.027e-07
2.15425e-07
2.17552e-07
7.29813e-09
2.76112e-07
2.82643e-07
3.19086e-07
8.99233e-10
1.04169e-07
9.54607e-08
1.00525e-07
1.06914e-07
1.08872e-07
7.3812e-07
2.74356e-07
1.81669e-07
1.71531e-07
1.32045e-09
6.09112e-08
4.94531e-08
5.46923e-08
5.81425e-08
5.86217e-08
8.21628e-08
5.87427e-08
8.34867e-08
1.07921e-07
6.11823e-09
3.4386e-08
3.13269e-08
3.48507e-08
3.51217e-08
3.71886e-08
7.15872e-07
1.1948e-07
1.02939e-07
7.76653e-08
9.65492e-09
2.58411e-08
2.55217e-08
2.55217e-08
2.88938e-08
3.06464e-08
2.65716e-05
7.78979e-06
7.92832e-06
7.45182e-06
7.02704e-06
6.72576e-06
6.56202e-06
6.54239e-06
2.99281e-05
0.00087837
8.38088e-06
3.60169e-06
3.54135e-06
3.31554e-06
3.12834e-06
3.00614e-06
2.96777e-06
3.0343e-06
8.2322e-05
0.0013573
2.44249e-06
1.35279e-06
1.23122e-06
1.17753e-06
1.135e-06
1.11492e-06
1.13345e-06
1.20576e-06
0.000121117
0.00127678
1.03752e-06
5.21176e-07
4.80852e-07
4.81248e-07
4.597e-07
4.54619e-07
4.63099e-07
4.991e-07
5.59289e-07
7.00382e-07
5.06998e-07
2.07324e-07
1.86167e-07
2.20052e-07
1.91202e-07
1.93408e-07
1.96406e-07
2.12528e-07
2.40473e-07
3.06606e-07
1.60928e-07
1.12854e-07
8.13245e-08
1.02608e-07
8.177e-08
8.66702e-08
8.67197e-08
9.37484e-08
1.07707e-07
1.39973e-07
8.56926e-08
7.48843e-08
1.57512e-08
6.33569e-08
3.19864e-08
4.1446e-08
4.0566e-08
4.36019e-08
5.04215e-08
6.69565e-08
7.42958e-08
6.14166e-08
2.0393e-08
2.63327e-08
1.69084e-08
2.06702e-08
2.06306e-08
2.11058e-08
2.58179e-08
3.50047e-08
8.44946e-08
3.03465e-08
3.54223e-08
1.29594e-08
1.10875e-08
1.34993e-08
1.29594e-08
1.31394e-08
1.59112e-08
2.16889e-08
5.9989e-08
1.43543e-08
5.97271e-09
1.74561e-08
5.54373e-09
9.73452e-09
8.1506e-09
9.70152e-09
9.53653e-09
1.45482e-08
2.63159e-05
7.10194e-06
7.26587e-06
6.83217e-06
6.45199e-06
6.18505e-06
6.04522e-06
6.04271e-06
1.57247e-05
0.00037708
8.24985e-06
3.31573e-06
3.3114e-06
3.11358e-06
2.94204e-06
2.8196e-06
2.75918e-06
2.77864e-06
3.62234e-05
0.00114944
2.24315e-06
1.33019e-06
1.21957e-06
1.143e-06
1.08893e-06
1.0534e-06
1.04648e-06
1.08389e-06
0.000122927
0.00229538
9.24512e-07
5.61379e-07
4.85578e-07
4.71773e-07
4.50606e-07
4.35851e-07
4.3398e-07
4.53275e-07
0.000114242
0.00211101
4.48241e-07
2.48795e-07
1.87056e-07
2.09985e-07
1.93525e-07
1.87635e-07
1.8653e-07
1.96417e-07
4.56074e-05
0.00157401
1.6194e-07
1.20558e-07
7.81789e-08
9.90696e-08
8.52652e-08
8.43909e-08
8.36087e-08
8.80261e-08
1.08811e-05
0.000989925
9.01958e-08
6.67929e-08
2.06555e-08
5.62402e-08
3.68936e-08
3.9634e-08
3.82433e-08
4.09428e-08
4.69963e-08
0.000416307
5.92036e-09
3.45662e-08
2.28969e-08
2.43694e-08
1.89212e-08
2.04305e-08
1.99152e-08
2.09091e-08
2.50688e-08
0.00015675
1.18539e-07
3.90539e-08
3.22605e-08
1.33861e-08
1.02738e-08
1.38546e-08
1.22483e-08
1.28841e-08
1.51597e-08
2.07756e-08
2.41194e-08
2.37129e-08
5.24567e-09
1.73015e-08
5.52176e-09
8.89617e-09
8.58941e-09
8.52806e-09
1.08901e-08
1.44218e-08
2.53436e-05
6.32496e-06
6.53582e-06
6.16529e-06
5.82843e-06
5.59633e-06
5.47193e-06
5.45622e-06
2.02084e-05
0.000145315
8.2318e-06
3.03904e-06
3.04028e-06
2.86271e-06
2.71137e-06
2.60314e-06
2.54279e-06
2.53432e-06
2.40492e-06
0.000582984
2.20186e-06
1.23529e-06
1.17578e-06
1.09943e-06
1.04013e-06
9.9937e-07
9.78085e-07
9.84416e-07
7.75574e-05
0.00133853
7.92008e-07
5.49597e-07
4.82409e-07
4.5737e-07
4.35269e-07
4.19071e-07
4.10629e-07
4.15991e-07
7.98739e-05
0.00142402
3.38855e-07
2.74212e-07
1.92569e-07
2.01516e-07
1.90125e-07
1.83574e-07
1.78783e-07
1.82009e-07
5.35576e-05
0.00128237
1.33393e-07
1.36672e-07
7.75117e-08
9.49647e-08
8.56821e-08
8.24738e-08
8.09766e-08
8.23883e-08
4.05322e-05
0.00101756
7.18432e-08
7.75307e-08
2.08371e-08
5.13323e-08
3.88604e-08
3.89365e-08
3.80999e-08
3.96969e-08
5.90675e-06
0.000667646
2.88562e-08
2.55292e-08
2.1628e-08
2.4263e-08
1.99854e-08
2.02591e-08
1.96431e-08
2.02249e-08
8.67313e-06
0.000499985
1.37894e-07
3.82347e-08
2.60706e-08
1.6053e-08
1.09509e-08
1.30664e-08
1.28797e-08
1.25686e-08
1.44353e-08
0.00030623
2.01319e-09
2.96872e-08
6.50209e-09
1.69682e-08
5.70358e-09
8.755e-09
8.755e-09
8.52686e-09
1.0295e-08
0.00040359
2.41618e-05
5.50933e-06
5.75355e-06
5.44515e-06
5.15429e-06
4.94925e-06
4.83499e-06
4.81593e-06
4.88751e-06
2.51419e-05
7.91351e-06
2.76328e-06
2.7745e-06
2.60759e-06
2.4673e-06
2.36549e-06
2.30644e-06
2.28691e-06
1.50646e-05
0.000224671
2.24981e-06
1.106e-06
1.08373e-06
1.02405e-06
9.73335e-07
9.34299e-07
9.09039e-07
9.00259e-07
3.57349e-05
0.000720475
7.73502e-07
5.03502e-07
4.65511e-07
4.37542e-07
4.15564e-07
3.98517e-07
3.87648e-07
3.84175e-07
4.22278e-05
0.000849774
2.46281e-07
2.67006e-07
1.9638e-07
1.92608e-07
1.83019e-07
1.76565e-07
1.71384e-07
1.70384e-07
3.72275e-05
0.000864446
8.59148e-08
1.44354e-07
8.03291e-08
8.91176e-08
8.36696e-08
8.04087e-08
7.82613e-08
7.84203e-08
3.53292e-05
0.000779893
3.17111e-08
9.20118e-08
2.27643e-08
4.64124e-08
3.98376e-08
3.81762e-08
3.70804e-08
3.69744e-08
1.92752e-05
0.000593765
3.608e-08
2.8314e-08
1.83564e-08
2.30966e-08
2.02334e-08
1.94699e-08
1.97244e-08
1.90881e-08
2.59489e-05
0.00052345
1.40626e-07
2.86611e-08
1.73239e-08
1.73239e-08
1.00936e-08
1.287e-08
1.22337e-08
1.26386e-08
9.46088e-06
0.000446081
1.23482e-08
3.54986e-08
8.245e-09
1.65165e-08
6.28317e-09
8.45709e-09
8.37756e-09
9.01383e-09
2.58403e-05
0.000522605
2.30109e-05
4.74338e-06
4.99792e-06
4.75011e-06
4.49961e-06
4.31526e-06
4.20669e-06
4.17229e-06
4.20361e-06
1.81585e-06
7.29888e-06
2.3982e-06
2.44323e-06
2.3104e-06
2.19154e-06
2.10452e-06
2.05054e-06
2.0281e-06
1.03447e-05
7.19784e-05
2.29201e-06
1.01108e-06
9.89076e-07
9.32706e-07
8.87219e-07
8.51877e-07
8.28927e-07
8.15796e-07
1.37633e-05
0.000378918
8.06228e-07
4.48184e-07
4.29823e-07
4.08332e-07
3.87851e-07
3.72398e-07
3.60889e-07
3.54481e-07
1.66726e-05
0.000490891
2.24291e-07
2.366e-07
1.91097e-07
1.83745e-07
1.73943e-07
1.67056e-07
1.6131e-07
1.59071e-07
1.75234e-05
0.000542579
5.11329e-08
1.3501e-07
8.28099e-08
8.45474e-08
8.02591e-08
7.74864e-08
7.48986e-08
7.36047e-08
1.98671e-05
0.000535567
1.69065e-08
1.00818e-07
2.57631e-08
4.18322e-08
3.88089e-08
3.69687e-08
3.55885e-08
3.55885e-08
1.55008e-05
0.00044001
2.45962e-08
3.43957e-08
1.71535e-08
2.22404e-08
1.9135e-08
1.91942e-08
1.88393e-08
1.85731e-08
2.48774e-05
0.000430877
1.25273e-07
1.07814e-08
8.20033e-09
1.93044e-08
1.0647e-08
1.20989e-08
1.23408e-08
1.18569e-08
1.89261e-05
0.000406699
2.90532e-08
4.38449e-08
1.0228e-08
1.55762e-08
6.67901e-09
7.29516e-09
8.42887e-09
7.73878e-09
3.23484e-05
0.000466247
2.14562e-05
3.99787e-06
4.2493e-06
4.04979e-06
3.8363e-06
3.68048e-06
3.58679e-06
3.55568e-06
3.58569e-06
3.82428e-06
6.83336e-06
2.0773e-06
2.12442e-06
2.00919e-06
1.90495e-06
1.82824e-06
1.77996e-06
1.75631e-06
2.94993e-06
1.48043e-05
2.13257e-06
9.0532e-07
8.90501e-07
8.4016e-07
7.96637e-07
7.62957e-07
7.39779e-07
7.25812e-07
4.89986e-06
0.00018091
8.19575e-07
4.02374e-07
3.87756e-07
3.69977e-07
3.53183e-07
3.38977e-07
3.28255e-07
3.21106e-07
5.21665e-06
0.000266792
2.5451e-07
2.02434e-07
1.76865e-07
1.68695e-07
1.60761e-07
1.54398e-07
1.4996e-07
1.46425e-07
5.5208e-06
0.000320997
5.23333e-08
1.13962e-07
8.17945e-08
7.95262e-08
7.45086e-08
7.19654e-08
6.95597e-08
6.87005e-08
7.31284e-06
0.000348405
5.44609e-08
9.68703e-08
3.02739e-08
3.81555e-08
3.65669e-08
3.50395e-08
3.39703e-08
3.29927e-08
8.12238e-06
0.000300538
5.9228e-09
3.73093e-08
1.78711e-08
2.00981e-08
1.86959e-08
1.86409e-08
1.74587e-08
1.75411e-08
1.78623e-05
0.000322635
9.27651e-08
8.32316e-09
8.74807e-10
1.8071e-08
1.02227e-08
1.15225e-08
1.11225e-08
1.17724e-08
1.73143e-05
0.000308797
4.99412e-08
5.28571e-08
1.21661e-08
1.41136e-08
7.65248e-09
7.07969e-09
7.67539e-09
7.78995e-09
2.92338e-05
0.000363113
1.94402e-05
3.27737e-06
3.5349e-06
3.39445e-06
3.21622e-06
3.07743e-06
2.98867e-06
2.95012e-06
2.96073e-06
3.1315e-06
6.19863e-06
1.76094e-06
1.82082e-06
1.7272e-06
1.63624e-06
1.56723e-06
1.52337e-06
1.50136e-06
1.49596e-06
4.70135e-07
1.88989e-06
7.65144e-07
7.63074e-07
7.27189e-07
6.92223e-07
6.65156e-07
6.44146e-07
6.30804e-07
1.51674e-06
7.96329e-05
7.7827e-07
3.629e-07
3.48736e-07
3.30866e-07
3.14146e-07
3.01451e-07
2.91589e-07
2.84816e-07
1.39835e-06
0.000135204
2.80725e-07
1.77053e-07
1.5865e-07
1.52662e-07
1.45871e-07
1.39773e-07
1.34953e-07
1.31631e-07
6.5808e-07
0.000176025
8.28197e-08
9.13107e-08
7.50486e-08
7.32275e-08
6.9138e-08
6.64862e-08
6.39942e-08
1.23852e-05
6.0598e-07
0.000213067
6.45939e-08
8.30394e-08
3.30851e-08
3.42495e-08
3.33975e-08
3.25172e-08
3.11824e-08
3.087e-08
2.77887e-06
0.000187915
8.91522e-09
3.39172e-08
1.88117e-08
1.94251e-08
1.64347e-08
1.72781e-08
1.66136e-08
1.03691e-05
1.08635e-05
0.000223993
4.91015e-08
2.86497e-08
4.18244e-09
1.70783e-08
1.03864e-08
1.08511e-08
1.07117e-08
1.01773e-08
1.25662e-05
0.000211057
7.785e-08
6.19388e-08
1.13526e-08
1.1097e-08
7.5826e-09
6.81582e-09
6.85842e-09
4.96997e-06
2.28254e-05
0.000260642
1.78771e-05
2.59853e-06
2.85693e-06
2.77293e-06
2.64526e-06
2.54037e-06
2.46913e-06
2.42925e-06
2.42119e-06
2.51533e-06
5.44778e-06
1.4122e-06
1.49301e-06
1.4269e-06
1.35591e-06
1.29939e-06
1.26319e-06
1.2421e-06
1.23705e-06
1.17352e-06
1.77731e-06
6.67015e-07
6.55824e-07
6.23461e-07
5.92596e-07
5.66839e-07
5.49351e-07
5.36782e-07
4.47655e-08
3.15118e-05
6.67255e-07
3.0699e-07
3.00238e-07
2.86536e-07
2.72854e-07
2.62043e-07
2.52934e-07
2.46539e-07
2.89625e-07
6.38633e-05
2.70626e-07
1.57636e-07
1.40562e-07
1.3357e-07
1.28377e-07
1.23421e-07
1.1894e-07
1.16191e-07
7.09703e-07
9.02391e-05
1.14387e-07
7.36884e-08
6.64116e-08
6.45998e-08
6.16594e-08
5.88675e-08
5.71152e-08
1.78132e-05
2.1705e-06
0.000123995
5.15427e-08
6.61872e-08
3.3186e-08
3.10475e-08
3.07835e-08
2.95427e-08
2.85394e-08
2.72986e-08
1.53733e-07
0.000107136
4.96454e-09
2.2953e-08
1.94126e-08
1.78444e-08
1.51594e-08
1.54208e-08
1.51594e-08
1.94863e-05
5.7886e-06
0.00014707
5.89296e-10
4.54913e-08
7.21466e-09
1.47749e-08
9.89316e-09
9.20193e-09
9.50435e-09
9.82836e-09
7.80994e-06
0.000133665
1.06411e-07
6.59958e-08
7.86089e-09
7.50447e-09
7.08866e-09
6.15802e-09
6.37583e-09
1.05501e-05
1.62779e-05
0.000176811
1.62904e-05
2.02511e-06
2.23958e-06
2.18391e-06
2.09455e-06
2.01381e-06
1.96713e-06
1.9532e-06
1.98241e-06
2.10489e-06
4.92636e-06
1.13145e-06
1.21859e-06
1.1737e-06
1.1148e-06
1.06629e-06
1.03246e-06
1.01112e-06
9.94775e-07
9.12451e-07
1.47106e-06
5.49043e-07
5.35524e-07
5.12022e-07
4.89513e-07
4.69854e-07
4.54016e-07
4.44827e-07
4.36809e-07
1.07137e-05
6.08707e-07
2.5984e-07
2.54115e-07
2.41948e-07
2.31234e-07
2.21129e-07
2.13232e-07
2.07544e-07
4.37545e-08
2.70844e-05
2.25016e-07
1.36447e-07
1.21836e-07
1.15651e-07
1.10003e-07
1.06122e-07
1.01483e-07
9.899e-08
7.70778e-07
4.33953e-05
1.26986e-07
6.21251e-08
5.71275e-08
5.63544e-08
5.40903e-08
5.15225e-08
4.99486e-08
1.71473e-05
3.0113e-06
7.002e-05
2.86301e-08
5.08536e-08
3.08509e-08
2.71939e-08
2.62368e-08
2.61386e-08
2.51323e-08
2.45678e-08
6.41561e-07
5.53383e-05
1.91782e-08
9.69704e-09
1.66771e-08
1.74282e-08
1.34522e-08
1.38939e-08
9.29348e-07
2.1825e-05
2.5308e-06
9.36094e-05
4.545e-08
5.82345e-08
7.91186e-09
1.19079e-08
9.61873e-09
8.67493e-09
8.4942e-09
8.53436e-09
4.09489e-06
7.78795e-05
1.27911e-07
6.2843e-08
1.67508e-09
5.17249e-09
6.75553e-09
5.61427e-09
5.59586e-09
1.17293e-05
1.08604e-05
0.000114852
1.44176e-05
1.59236e-06
1.73169e-06
1.66955e-06
1.57597e-06
1.48892e-06
1.41359e-06
1.35221e-06
1.29045e-06
1.2434e-06
4.2915e-06
8.34528e-07
9.36406e-07
9.2139e-07
8.78011e-07
8.39611e-07
8.13891e-07
8.01699e-07
7.99517e-07
7.48568e-07
1.23321e-06
4.71578e-07
4.38312e-07
4.15478e-07
3.96257e-07
3.79357e-07
3.6564e-07
3.54859e-07
3.44592e-07
3.30954e-06
5.1833e-07
2.12534e-07
2.05603e-07
1.97732e-07
1.8974e-07
1.81817e-07
1.75126e-07
1.69924e-07
1.65715e-07
8.79011e-06
1.83029e-07
1.12911e-07
1.02497e-07
9.61315e-08
9.2318e-08
8.80937e-08
8.56589e-08
8.20506e-08
4.81068e-07
1.93674e-05
1.20356e-07
5.12596e-08
4.87185e-08
4.74094e-08
4.51506e-08
4.35335e-08
1.22936e-06
1.46154e-05
3.01336e-06
3.88005e-05
1.16425e-08
3.8628e-08
2.79043e-08
2.35008e-08
2.25197e-08
2.19493e-08
2.10366e-08
2.07628e-08
4.09301e-07
2.45899e-05
5.66983e-08
1.4785e-09
1.24235e-08
1.60376e-08
1.22797e-08
1.13351e-08
1.67198e-05
2.1076e-05
5.66777e-07
5.88453e-05
8.94643e-08
6.77644e-08
6.29107e-09
8.64322e-09
8.34454e-09
7.52315e-09
7.35514e-09
7.13113e-09
1.61449e-06
4.02292e-05
1.33004e-07
5.0327e-08
5.23634e-09
3.31977e-09
5.30479e-09
5.185e-09
5.16789e-09
1.07028e-05
6.87461e-06
7.20783e-05
1.27773e-05
1.87218e-06
1.92213e-06
1.93274e-06
1.9564e-06
1.96335e-06
1.99128e-06
2.06736e-06
2.20216e-06
2.43366e-06
3.69777e-06
5.6205e-07
6.77471e-07
7.09971e-07
7.0224e-07
6.80096e-07
6.59264e-07
6.41821e-07
6.19629e-07
5.37554e-07
8.50849e-07
3.90901e-07
3.41535e-07
3.21414e-07
3.10686e-07
2.99079e-07
2.89439e-07
2.81956e-07
3.09884e-07
2.18325e-06
4.35954e-07
1.74989e-07
1.63408e-07
1.56647e-07
1.50745e-07
1.44064e-07
1.39307e-07
1.34328e-07
1.30431e-07
6.3468e-08
1.45634e-07
9.08126e-08
8.22223e-08
7.78316e-08
7.44773e-08
7.12866e-08
6.79595e-08
6.61869e-08
2.3134e-07
8.05512e-06
1.01794e-07
4.31667e-08
3.98498e-08
3.84181e-08
3.76784e-08
3.57217e-08
9.01742e-06
1.2031e-05
2.73062e-06
2.13943e-05
4.77575e-09
2.81468e-08
2.40531e-08
2.01715e-08
1.81777e-08
1.86443e-08
1.75838e-08
1.69687e-08
1.66081e-08
7.70432e-06
3.05283e-06
9.02945e-09
6.31871e-09
1.42982e-08
1.01557e-08
1.59228e-05
2.47403e-05
1.93056e-05
5.78114e-07
3.72153e-05
1.32735e-07
7.24195e-08
2.3949e-09
5.18894e-09
7.51442e-09
6.54258e-09
6.4558e-09
6.38639e-09
2.00616e-07
1.62577e-05
1.11715e-07
3.01141e-08
9.14717e-09
3.49979e-09
4.40655e-09
3.96112e-09
2.01653e-06
8.86086e-06
4.16914e-06
4.40341e-05
7.76509e-06
1.47154e-06
2.43756e-06
2.81486e-06
2.86094e-06
2.95651e-06
3.10163e-06
3.20274e-06
3.18523e-06
3.02064e-06
4.45273e-06
5.47324e-07
4.96037e-07
4.70149e-07
4.43685e-07
4.10255e-07
3.91954e-07
4.00583e-07
4.32904e-07
4.51798e-07
5.81944e-05
6.89017e-06
9.44069e-06
7.15473e-06
5.88976e-06
4.95921e-06
3.8048e-06
1.58015e-06
1.61956e-06
3.89237e-06
3.26211e-07
1.46394e-07
1.27168e-07
1.20558e-07
1.15781e-07
1.10945e-07
1.05784e-07
1.02397e-07
9.71621e-08
8.11205e-08
1.17376e-07
6.94902e-08
6.45719e-08
6.00846e-08
5.82339e-08
5.58001e-08
5.33409e-08
5.13127e-08
1.42682e-07
3.43435e-06
9.80136e-06
3.43173e-08
3.14113e-08
3.06349e-08
2.89268e-08
7.45988e-06
1.21332e-05
9.94782e-06
2.42519e-06
1.19673e-05
6.50512e-09
1.87127e-08
1.98366e-08
1.70564e-08
1.49465e-08
1.44141e-08
1.39803e-08
1.34676e-08
1.29747e-08
1.27837e-08
4.97833e-05
4.59363e-05
4.13032e-05
3.67541e-05
3.50696e-05
3.28237e-05
2.8301e-05
1.75386e-05
1.27077e-06
2.42309e-05
1.75385e-07
7.19701e-08
2.48451e-09
3.37184e-09
5.01742e-09
5.69501e-09
5.22715e-09
4.85609e-09
5.32395e-09
1.94014e-06
6.22179e-08
8.35564e-09
9.45001e-09
3.47536e-09
2.97254e-09
3.62324e-09
5.23918e-06
6.86173e-06
2.42173e-06
2.62546e-05
9.22588e-05
1.96666e-05
1.77528e-05
1.61308e-05
1.60959e-05
1.60309e-05
1.52134e-05
1.36063e-05
1.14001e-05
8.74108e-06
5.24592e-07
2.00035e-08
1.36932e-08
1.71082e-07
3.2216e-07
3.88419e-07
3.78913e-07
3.43917e-07
3.28698e-07
3.40056e-07
0.000200438
0.000128176
6.99598e-05
3.99971e-05
2.26129e-05
1.2808e-05
6.69993e-06
1.75774e-06
3.54898e-06
6.93231e-06
2.02909e-07
1.1921e-07
9.4381e-08
8.60359e-08
8.38224e-08
8.25439e-08
8.10728e-08
7.7952e-08
7.51474e-08
6.37421e-08
9.19272e-08
5.24865e-08
4.73722e-08
4.46854e-08
4.29414e-08
4.10323e-08
3.95947e-08
1.76314e-07
2.07518e-07
2.00371e-06
3.95411e-05
3.01202e-05
1.97484e-05
1.58313e-05
1.51643e-05
1.44937e-05
1.26171e-05
8.29807e-06
2.17589e-06
6.88196e-06
1.0127e-08
1.08702e-08
1.4518e-08
1.37481e-08
1.17134e-08
1.05402e-08
1.06502e-08
1.03203e-08
1.0247e-08
8.89852e-09
0.000218404
4.41325e-05
8.05188e-05
7.07441e-05
5.53273e-05
4.15318e-05
2.96205e-05
1.62572e-05
1.77382e-06
1.66786e-05
2.12256e-07
6.17167e-08
8.1739e-09
2.78962e-09
3.59951e-09
4.10945e-09
4.04945e-09
3.94447e-09
3.88448e-09
4.31942e-09
7.90765e-09
8.74382e-09
5.78797e-09
3.67076e-09
2.76338e-09
2.76338e-09
5.45568e-06
4.76733e-06
1.29094e-06
1.48815e-05
0.000452879
2.97903e-05
4.6668e-05
5.50569e-05
5.34121e-05
4.60359e-05
3.64406e-05
2.65456e-05
1.7046e-05
7.84397e-06
1.34287e-05
3.52329e-06
1.91476e-06
1.10803e-06
8.93107e-07
8.46521e-07
7.42518e-07
4.71629e-07
5.9143e-08
9.20249e-07
0.00034019
0.000242103
0.000117741
6.14845e-05
3.11223e-05
1.53333e-05
6.52259e-06
3.42703e-07
6.3324e-06
1.10046e-05
6.55839e-08
1.01978e-07
7.27353e-08
5.79735e-08
5.43694e-08
5.29379e-08
5.33852e-08
5.3807e-08
5.44588e-08
4.33366e-08
1.8361e-05
3.87586e-08
3.44423e-08
2.07793e-07
1.60917e-06
2.45042e-06
2.52807e-06
1.71475e-06
3.44883e-07
1.72402e-06
4.00754e-05
4.52426e-05
3.54062e-05
2.6517e-05
2.02213e-05
1.54144e-05
1.1235e-05
6.69847e-06
1.92603e-06
3.95658e-06
1.15897e-08
4.78853e-09
8.91245e-09
1.01053e-08
8.46939e-09
8.16265e-09
7.34468e-09
7.27651e-09
6.79937e-09
6.43397e-09
0.000485586
1.54883e-05
8.4991e-05
8.40383e-05
6.45522e-05
4.55189e-05
2.99518e-05
1.5576e-05
2.26899e-06
1.23462e-05
2.24642e-07
4.27203e-08
9.64831e-09
3.56932e-09
2.96978e-09
3.0395e-09
2.50968e-09
3.09527e-09
2.67699e-09
2.91917e-09
6.79934e-08
1.21928e-08
2.07048e-09
2.6584e-09
2.12161e-09
3.65019e-08
3.03657e-06
2.4127e-06
5.35361e-07
7.07989e-06
0.000957448
0.000247962
0.000226234
0.000166967
0.000114598
7.45107e-05
4.50029e-05
2.30329e-05
5.52879e-06
1.01484e-05
3.4923e-05
2.07849e-06
3.32604e-06
4.09773e-06
3.8721e-06
2.88953e-06
1.41478e-06
4.49475e-07
2.78382e-06
5.57245e-06
0.000487617
0.000366116
0.000159974
7.55157e-05
3.35702e-05
1.3674e-05
3.76547e-06
2.60068e-06
1.00417e-05
1.61578e-05
1.77842e-08
8.52256e-08
5.92409e-08
4.21316e-08
3.09868e-08
2.3751e-08
1.8844e-08
1.58855e-08
1.52795e-08
2.40852e-08
5.90374e-05
3.54674e-05
2.05325e-05
1.32764e-05
9.0435e-06
6.27188e-06
4.15754e-06
2.23433e-06
4.33333e-07
1.4815e-06
2.95062e-05
3.74008e-05
3.09455e-05
2.31044e-05
1.68468e-05
1.20489e-05
8.22297e-06
4.74877e-06
1.53419e-06
2.03344e-06
8.2864e-09
9.66358e-10
5.24368e-09
6.3843e-09
5.92488e-09
5.38626e-09
5.49715e-09
4.92684e-09
4.45158e-09
3.88236e-09
0.0008329
0.000118
6.29976e-05
8.09653e-05
6.45482e-05
4.50779e-05
2.88121e-05
1.4872e-05
2.78506e-06
9.42939e-06
1.8894e-07
2.07774e-08
6.07898e-09
2.9682e-09
1.94424e-09
1.59427e-09
2.03497e-09
1.82758e-09
1.98312e-09
1.39719e-09
8.60544e-08
8.42395e-09
9.50516e-11
1.54459e-09
1.42577e-09
1.54459e-09
1.40201e-09
2.95218e-07
1.10462e-07
1.97125e-06
0.00669141
0.000134973
9.94758e-05
5.11826e-05
1.89612e-05
1.19545e-07
1.08129e-05
1.79913e-05
2.42493e-05
3.12549e-05
4.17017e-05
3.03021e-05
2.27623e-05
1.5676e-05
9.50699e-06
4.42225e-06
1.28237e-07
3.85948e-06
8.11029e-06
1.26135e-05
0.000554115
0.000460721
0.000179266
7.5764e-05
2.8757e-05
8.76892e-06
2.60769e-07
4.52416e-06
1.07717e-05
1.73704e-05
7.664e-08
5.47632e-08
4.50984e-08
3.29927e-08
2.20908e-08
1.06257e-08
1.84458e-09
1.54746e-08
2.99993e-08
5.7912e-08
5.07057e-05
3.4393e-05
1.94842e-05
1.2168e-05
7.85409e-06
5.11071e-06
3.19005e-06
1.6695e-06
3.7194e-07
9.12706e-07
1.67519e-05
2.01907e-05
1.71551e-05
1.28673e-05
9.27906e-06
6.50123e-06
4.33873e-06
2.51405e-06
9.29753e-07
7.46465e-07
1.62591e-09
8.83633e-11
2.84235e-09
3.21053e-09
3.21053e-09
3.43144e-09
2.75399e-09
2.6509e-09
2.79817e-09
2.57109e-09
0.00106612
0.000213896
2.21496e-05
5.9307e-05
5.13757e-05
3.6569e-05
2.33898e-05
1.23447e-05
2.95437e-06
6.23528e-06
1.15495e-07
1.13507e-08
3.20518e-09
1.2652e-09
1.57849e-09
1.34955e-09
1.09651e-09
1.04831e-09
9.63964e-10
1.52544e-09
1.29763e-06
7.92034e-07
3.8659e-10
4.97044e-10
7.73179e-10
5.14418e-07
8.61653e-07
4.48565e-07
4.6689e-08
1.10734e-06
0.00429731
0.000517214
0.000334431
0.000224314
0.000158468
0.000109529
6.89276e-05
3.47301e-05
4.61257e-06
3.77175e-05
3.69636e-05
1.91214e-05
8.88749e-06
1.59542e-06
2.48487e-06
4.68167e-06
6.02354e-06
7.14612e-06
8.36764e-06
9.0424e-06
0.000287775
0.000372629
0.000125188
4.65325e-05
1.36943e-05
1.15813e-06
3.47479e-06
5.93444e-06
9.65385e-06
1.4417e-05
5.99273e-09
3.16261e-09
1.91399e-08
3.5107e-08
4.73878e-08
5.7235e-08
6.6384e-08
7.34074e-08
7.75558e-08
7.41031e-08
2.07266e-05
1.53592e-05
8.45055e-06
5.12709e-06
3.21162e-06
2.03046e-06
1.2431e-06
6.56667e-07
1.74319e-07
3.10789e-07
6.33067e-06
5.92545e-06
5.03568e-06
3.78173e-06
2.71734e-06
1.89127e-06
1.25687e-06
7.45256e-07
3.21261e-07
1.22713e-07
3.34238e-10
1.36909e-09
1.2048e-09
2.06733e-09
2.10841e-09
1.41017e-09
1.39648e-09
1.3554e-09
1.60184e-09
2.95619e-10
0.000712647
0.000176948
6.89011e-06
2.52189e-05
2.48759e-05
1.8389e-05
1.20054e-05
6.62186e-06
2.06626e-06
2.37881e-06
7.85647e-08
8.32285e-09
2.60999e-09
8.06521e-10
9.18538e-10
2.46437e-10
8.06521e-10
5.82487e-10
4.48067e-10
3.88624e-10
9.21983e-05
0.000130145
8.63385e-05
5.14779e-05
2.98308e-05
1.72127e-05
9.66227e-06
4.44357e-06
1.88781e-07
4.59607e-06
0.0098337
0.000674879
0.000508872
0.00038729
0.00029314
0.000218579
0.000158507
0.00010944
6.8103e-05
3.46344e-05
2.26697e-05
4.75232e-05
3.29955e-05
2.17764e-05
1.40891e-05
8.90451e-06
5.25517e-06
2.34749e-06
5.43904e-07
4.13942e-06
9.69764e-05
8.34558e-05
1.97275e-05
5.6238e-06
3.71285e-07
1.16931e-06
1.52457e-06
1.74062e-06
2.392e-06
3.67205e-06
2.38852e-08
3.70659e-08
2.04087e-08
5.93742e-09
5.44104e-09
1.6915e-08
2.83221e-08
3.85359e-08
4.77857e-08
5.94124e-08
1.72357e-06
1.80252e-06
9.53958e-07
5.64772e-07
3.44921e-07
2.15007e-07
1.30978e-07
7.30654e-08
2.48733e-08
3.12226e-08
8.06883e-07
4.67457e-07
3.84596e-07
2.85884e-07
2.04526e-07
1.4214e-07
9.53185e-08
5.92215e-08
3.21308e-08
1.89005e-09
5.96862e-09
2.91462e-09
8.01838e-10
8.90931e-11
4.96376e-10
3.56372e-10
3.43645e-10
7.382e-10
1.27276e-11
6.36379e-10
5.25481e-05
2.78498e-05
2.05119e-06
3.11174e-06
3.39626e-06
2.63265e-06
1.80944e-06
1.1049e-06
5.09614e-07
9.76982e-08
6.1205e-08
6.66463e-10
1.14548e-10
8.33078e-11
7.28944e-11
4.37366e-10
6.24809e-11
3.33231e-10
2.7075e-10
1.87443e-10
0.000266807
0.000162353
9.72317e-05
5.65303e-05
3.28332e-05
1.92738e-05
1.12191e-05
5.86984e-06
1.51431e-06
3.21194e-06
0.525884
0.418866
0.530036
0.919472
0.68637
0.624064
0.739414
1.11597
0.85006
0.791888
0.938275
1.44185
0.617226
0.593676
0.703287
1.10053
0.451155
0.449624
0.533837
0.864217
0.299115
0.295521
0.366482
0.623556
0.199353
0.190206
0.253957
0.456167
0.128914
0.118804
0.170123
0.316814
0.0892439
0.0814588
0.122878
0.232389
0.0673873
0.0621465
0.100206
0.189607
0.0358829
0.0017982
1.5846e-05
0.0190337
0.0785977
0.00652705
1.18079e-05
0.0409769
0.136738
0.0152137
6.3896e-06
0.0704631
0.125132
0.0170383
3.30365e-06
0.060429
0.110461
0.0170132
1.70376e-06
0.0489714
0.0855306
0.0142648
8.75076e-07
0.0376331
0.0646284
0.0110938
4.62628e-07
0.0305926
0.0466654
0.00837234
2.67204e-07
0.0232738
0.0359667
0.00718494
0.0010462
0.0185236
0.0303568
0.00830726
0.00384811
0.0156031
0.0171538
0.0134814
0.0141563
0.0197153
0.0387793
0.0267018
0.0262076
0.0408541
0.0750275
0.0487341
0.0492974
0.0797272
0.0711462
0.043122
0.0447306
0.0750617
0.0651967
0.0371107
0.0396128
0.0700287
0.0520928
0.028088
0.030725
0.0567672
0.0405228
0.0207028
0.0232801
0.0452836
0.0300489
0.0145872
0.0167386
0.033764
0.0236035
0.0105025
0.0124445
0.0260827
0.0202051
0.00855444
0.0106258
0.0216323
0.00193228
0.00139509
0.00134291
0.00195593
0.00610895
0.00418232
0.00386942
0.00632376
0.0162563
0.0110205
0.0104866
0.0166073
0.0190706
0.0125696
0.0124068
0.0189859
0.0207442
0.0131849
0.0136165
0.0207477
0.0189805
0.0116463
0.012461
0.019058
0.0164541
0.00968811
0.0107046
0.0167576
0.0134205
0.0076208
0.00862159
0.0136915
0.0112249
0.0058527
0.00693176
0.0112608
0.00998089
0.00510032
0.00650301
0.0101053
0.00061483
0.000573617
0.000603101
0.000821256
0.00227421
0.00210893
0.0023697
0.0034131
0.00610085
0.00574864
0.00640888
0.00889898
0.00730272
0.00655513
0.00706467
0.0096071
0.00838909
0.00714091
0.00763807
0.010355
0.00814444
0.00656485
0.00704559
0.00952016
0.00746272
0.00568713
0.00618312
0.0084171
0.00649358
0.00469712
0.00517809
0.00705397
0.00584162
0.0038777
0.00446262
0.0060504
0.00559591
0.00369585
0.00456738
0.00583283
0.000113331
0.000105651
0.000105415
0.00016491
0.000769062
0.000723749
0.000847615
0.00123673
0.00245741
0.00249094
0.00298839
0.00411138
0.00302248
0.00305549
0.0035451
0.00472001
0.00358617
0.00355184
0.00403943
0.00531446
0.00361513
0.00344955
0.00386883
0.00503599
0.00342368
0.00312944
0.00349184
0.00451787
0.0031512
0.00273555
0.00304432
0.00389594
0.00305091
0.00243777
0.0027909
0.00346758
0.00302559
0.00237971
0.00289047
0.00336596
1.03068e-05
9.96944e-06
5.34976e-06
2.42335e-05
0.000271631
0.000252179
0.000301563
0.000460564
0.00117436
0.00119874
0.00148103
0.00206913
0.00149252
0.00157159
0.00189661
0.00252808
0.00179883
0.00191319
0.00227543
0.00297637
0.00184119
0.00193024
0.00225896
0.00291362
0.00174555
0.00179292
0.0020759
0.00264365
0.0016649
0.00163861
0.00187
0.00234727
0.00168981
0.00155077
0.00178397
0.0021337
0.00168803
0.00152756
0.00182436
0.00205123
1.3412e-05
4.82794e-06
4.64276e-06
4.78126e-06
7.51525e-05
6.32709e-05
7.54942e-05
0.000129417
0.000536307
0.000529162
0.000659812
0.000947237
0.000754987
0.000795277
0.000972057
0.0013041
0.000953688
0.00103433
0.0012541
0.00164571
0.00101851
0.0011058
0.00132407
0.00171082
0.00096781
0.00105124
0.00124773
0.00158242
0.000954452
0.00100618
0.00117231
0.00146413
0.000955987
0.000961039
0.00110872
0.00130602
0.000969894
0.000973813
0.00114841
0.001279
1.09411e-05
3.81849e-06
3.68229e-06
3.81877e-06
1.16203e-05
6.01425e-06
5.8619e-06
1.99949e-05
0.000232471
0.000209966
0.000261756
0.000400725
0.000376374
0.000390469
0.000479002
0.000648806
0.000502333
0.00054718
0.000669088
0.000882471
0.000575383
0.000633154
0.000765804
0.000993693
0.000551041
0.000615995
0.000740013
0.000936349
0.000570156
0.000623493
0.000734773
0.000917451
0.000543349
0.000579581
0.00066855
0.000784802
0.000574173
0.000619045
0.000722664
0.000804608
8.32989e-06
2.75876e-06
2.662e-06
2.72991e-06
2.66169e-06
1.05383e-06
1.02928e-06
1.13728e-06
8.743e-05
6.0415e-05
7.35365e-05
0.000138168
0.000181024
0.00018151
0.000222196
0.000305354
0.000255233
0.000275882
0.000338967
0.000450927
0.000319666
0.000352275
0.000428327
0.000559888
0.000304798
0.000346916
0.000419387
0.000529171
0.000340023
0.000378968
0.000449446
0.000563267
0.000310027
0.000342852
0.000395417
0.000464859
0.000345791
0.000389485
0.000451366
0.000503592
7.29383e-06
2.45335e-06
2.33372e-06
2.44207e-06
2.11604e-06
7.42962e-07
7.31114e-07
8.12184e-07
2.20467e-05
3.3027e-07
3.17197e-07
2.16703e-05
8.28407e-05
7.82615e-05
9.4854e-05
0.000133026
0.000124473
0.000131832
0.00016252
0.000219471
0.00017546
0.000191766
0.000234043
0.000309682
0.000161519
0.000186267
0.000226224
0.00028408
0.000201839
0.000226302
0.000269727
0.000340872
0.000174709
0.000197081
0.000227365
0.000267896
0.000208865
0.000241068
0.000278423
0.000311024
2.84412e-06
7.91737e-07
8.23872e-07
9.47846e-07
1.6083e-06
5.50759e-07
5.27322e-07
5.90354e-07
6.37787e-07
2.41275e-07
2.36287e-07
2.66287e-07
3.45328e-05
2.93195e-05
3.45505e-05
4.96122e-05
5.69265e-05
5.8001e-05
7.16629e-05
9.92995e-05
9.51484e-05
0.000102249
0.000125149
0.000168646
8.00611e-05
9.3686e-05
0.000114266
0.000141905
0.00011976
0.000133614
0.000160041
0.000205156
9.39093e-05
0.000107014
0.000123482
0.000145561
0.000124911
0.000145941
0.000168724
0.000188244
1.06345e-05
3.01301e-06
2.63291e-06
2.48041e-06
1.22425e-06
4.07406e-07
4.11966e-07
4.71374e-07
4.6865e-07
1.6065e-07
1.55448e-07