/*--------------------------------*- C++ -*----------------------------------*\
| =========                 |                                                 |
| \\      /  F ield         | foam-extend: Open Source CFD                    |
|  \\    /   O peration     | Version:     4.0                                |
|   \\  /    A nd           | Web:         http://www.foam-extend.org         |
|    \\/     M anipulation  |                                                 |
\*---------------------------------------------------------------------------*/
FoamFile
{
    version     2.0;
    format      ascii;
    class       volScalarField;
    location    "4800";
    object      divFlux;
}
// * * * * * * * * * * * * * * * * * * * * * * * * * * * * * * * * * * * * * //

dimensions      [1 -3 -1 0 0 0 0];

internalField   nonuniform List<scalar> 
34480
(
2.61235e-05
9.7088e-06
9.83435e-06
9.07993e-06
8.42304e-06
7.90662e-06
7.51165e-06
0.000299825
0.000183539
6.70321e-06
7.79269e-06
4.17849e-06
4.05266e-06
3.76217e-06
3.55443e-06
3.45947e-06
3.45392e-06
3.45936e-06
0.00346283
3.34154e-06
2.18802e-06
1.3607e-06
1.33004e-06
1.2636e-06
1.245e-06
1.2883e-06
1.35776e-06
1.40555e-06
0.0033408
1.38571e-06
7.84493e-07
5.20278e-07
5.12107e-07
4.88205e-07
4.90228e-07
5.15925e-07
5.48686e-07
5.69229e-07
0.000801387
5.61745e-07
3.16587e-07
2.13518e-07
2.13649e-07
2.02456e-07
2.04747e-07
2.1666e-07
2.28442e-07
2.35642e-07
2.39439e-07
2.33809e-07
1.35496e-07
9.51896e-08
9.45596e-08
8.86604e-08
9.03213e-08
9.50178e-08
1.00172e-07
1.02693e-07
1.04411e-07
1.01662e-07
6.66098e-08
4.2561e-08
4.33756e-08
3.99137e-08
4.17465e-08
4.33247e-08
4.57175e-08
4.63793e-08
4.69393e-08
4.7143e-08
3.25718e-08
2.31388e-08
2.23598e-08
2.03896e-08
2.0802e-08
2.11227e-08
2.19016e-08
2.26347e-08
2.3322e-08
2.2818e-08
2.27326e-08
1.29127e-08
1.36208e-08
1.14548e-08
1.14965e-08
1.16631e-08
1.14132e-08
1.21213e-08
1.25378e-08
1.23296e-08
9.83206e-09
1.11875e-08
8.24748e-09
8.55294e-09
7.7511e-09
7.67473e-09
8.09474e-09
8.97295e-09
8.89658e-09
8.36202e-09
3.59867e-05
1.24552e-05
1.2495e-05
1.17094e-05
1.10043e-05
1.047e-05
1.01169e-05
9.93591e-06
9.91724e-06
0.00106359
1.17598e-05
6.10225e-06
5.91392e-06
5.55527e-06
5.30476e-06
5.19784e-06
5.20402e-06
5.30039e-06
5.47658e-06
0.00345517
3.54508e-06
2.26449e-06
2.19672e-06
2.1143e-06
2.10778e-06
2.18373e-06
2.29857e-06
2.42708e-06
2.56359e-06
0.00431046
1.41798e-06
9.70391e-07
9.607e-07
9.3028e-07
9.39793e-07
9.88778e-07
1.04703e-06
1.11234e-06
1.17726e-06
0.0014978
6.33476e-07
4.3082e-07
4.52362e-07
4.30455e-07
4.35628e-07
4.60272e-07
4.86803e-07
5.17289e-07
5.47532e-07
5.63318e-07
2.71017e-07
1.99239e-07
2.23891e-07
2.09196e-07
2.08238e-07
2.23678e-07
2.34167e-07
2.4833e-07
2.63132e-07
2.68264e-07
1.11171e-07
8.74622e-08
1.08713e-07
1.15102e-07
9.70225e-08
1.14061e-07
1.1619e-07
1.23905e-07
1.31619e-07
1.32672e-07
4.61965e-08
4.53213e-08
6.62782e-08
5.99741e-08
5.29459e-08
6.17205e-08
6.31262e-08
6.57245e-08
7.16878e-08
7.23374e-08
5.43828e-08
8.40288e-09
4.71258e-08
4.75905e-08
3.41149e-08
3.99234e-08
4.07365e-08
4.05042e-08
4.56544e-08
4.67483e-08
1.74069e-07
2.09427e-08
2.48117e-08
3.6135e-08
2.85033e-08
3.05976e-08
3.04911e-08
3.25499e-08
3.35083e-08
3.57135e-08
3.35743e-05
9.44743e-06
9.75646e-06
9.19453e-06
8.66494e-06
8.28876e-06
8.08246e-06
8.05569e-06
3.26595e-05
0.000872148
1.03348e-05
4.39385e-06
4.34168e-06
4.07202e-06
3.84809e-06
3.70049e-06
3.65411e-06
3.73642e-06
8.04267e-05
0.00135235
2.96909e-06
1.5817e-06
1.53815e-06
1.45317e-06
1.39468e-06
1.36894e-06
1.39346e-06
1.48184e-06
0.000119998
0.00127384
1.10237e-06
6.24989e-07
6.17202e-07
5.85754e-07
5.64932e-07
5.57442e-07
5.70476e-07
6.13011e-07
6.88214e-07
8.60136e-07
4.60791e-07
2.5801e-07
2.66665e-07
2.49468e-07
2.40586e-07
2.37758e-07
2.42283e-07
2.6163e-07
2.96646e-07
3.76965e-07
1.96528e-07
1.16022e-07
1.20428e-07
1.10182e-07
1.0736e-07
1.0543e-07
1.0637e-07
1.16567e-07
1.32653e-07
1.71639e-07
9.53488e-08
5.11695e-08
5.72412e-08
5.08175e-08
4.91456e-08
4.83096e-08
4.91456e-08
5.37214e-08
6.23009e-08
8.14125e-08
3.12602e-08
3.1916e-08
3.00153e-08
2.51844e-08
2.53032e-08
2.45508e-08
2.45904e-08
2.75602e-08
3.12429e-08
4.22041e-08
3.58897e-08
1.33553e-08
2.1023e-08
1.51913e-08
1.52992e-08
1.46873e-08
1.51913e-08
1.68472e-08
1.83231e-08
2.53023e-08
2.65565e-08
1.50143e-08
8.38159e-09
1.26054e-08
1.01965e-08
9.47053e-09
1.07575e-08
1.05925e-08
1.30344e-08
1.94319e-08
3.31227e-05
8.53137e-06
8.89099e-06
8.40743e-06
7.94213e-06
7.61675e-06
7.44824e-06
7.44444e-06
1.74308e-05
0.00037232
1.02862e-05
4.10414e-06
4.07837e-06
3.82773e-06
3.61478e-06
3.46412e-06
3.39197e-06
3.41746e-06
3.4276e-05
0.00114342
2.98969e-06
1.54263e-06
1.50247e-06
1.41549e-06
1.34448e-06
1.29876e-06
1.28977e-06
1.33203e-06
0.000121508
0.00228938
1.13929e-06
6.32058e-07
6.15247e-07
5.80705e-07
5.53311e-07
5.35458e-07
5.33279e-07
5.57146e-07
0.000113005
0.0021055
4.77701e-07
2.6231e-07
2.65676e-07
2.49794e-07
2.37856e-07
2.2981e-07
2.29916e-07
2.40223e-07
4.50853e-05
0.0015699
2.05657e-07
1.17015e-07
1.20789e-07
1.11402e-07
1.0634e-07
1.03763e-07
1.01969e-07
1.07674e-07
1.07288e-05
0.000987002
1.03474e-07
5.05957e-08
5.84898e-08
5.18637e-08
4.98186e-08
4.80189e-08
4.78553e-08
5.10456e-08
5.72218e-08
0.000414883
4.32584e-08
2.80137e-08
3.09219e-08
2.55474e-08
2.51056e-08
2.48111e-08
2.36331e-08
2.6394e-08
3.00752e-08
0.000156085
3.97096e-08
1.22148e-08
2.07484e-08
1.67661e-08
1.55948e-08
1.62641e-08
1.51597e-08
1.65988e-08
1.83055e-08
2.43167e-08
1.80703e-08
1.73936e-08
7.91453e-09
1.23013e-08
1.02153e-08
1.07674e-08
1.01846e-08
1.03993e-08
1.29455e-08
1.77866e-08
3.22941e-05
7.57516e-06
7.98279e-06
7.57367e-06
7.1661e-06
6.8794e-06
6.72646e-06
6.70907e-06
2.18034e-05
0.000141933
1.00359e-05
3.75769e-06
3.75833e-06
3.53534e-06
3.3443e-06
3.20814e-06
3.1314e-06
3.11908e-06
4.26498e-06
0.000578563
2.96739e-06
1.45855e-06
1.42772e-06
1.34542e-06
1.27749e-06
1.22773e-06
1.2034e-06
1.21185e-06
7.62368e-05
0.0013344
1.13251e-06
6.15588e-07
5.99333e-07
5.65852e-07
5.3762e-07
5.15747e-07
5.06022e-07
5.10129e-07
7.87659e-05
0.00142019
4.81274e-07
2.63603e-07
2.60817e-07
2.46639e-07
2.33635e-07
2.24493e-07
2.20435e-07
2.22978e-07
5.29374e-05
0.00127951
2.08649e-07
1.16952e-07
1.18834e-07
1.11733e-07
1.05146e-07
1.0198e-07
9.93279e-08
1.01253e-07
4.01163e-05
0.0010155
1.04472e-07
5.06858e-08
5.74541e-08
5.15984e-08
4.99254e-08
4.7758e-08
4.65793e-08
4.79862e-08
5.85093e-06
0.000666438
4.94148e-08
2.62479e-08
3.01491e-08
2.58372e-08
2.5495e-08
2.53581e-08
2.34075e-08
2.49475e-08
8.61827e-06
0.000499084
4.32814e-08
1.10442e-08
2.00351e-08
1.65819e-08
1.59286e-08
1.55863e-08
1.44353e-08
1.65508e-08
1.7733e-08
0.000305699
1.12116e-08
2.01336e-08
7.50021e-09
1.24338e-08
9.92424e-09
1.01239e-08
1.07798e-08
1.06372e-08
1.19205e-08
0.000402795
3.10596e-05
6.58123e-06
7.03055e-06
6.70528e-06
6.35239e-06
6.1e-06
5.95817e-06
5.9303e-06
6.00907e-06
2.33223e-05
9.61271e-06
3.37454e-06
3.39673e-06
3.20092e-06
3.03012e-06
2.90978e-06
2.83737e-06
2.8151e-06
1.62078e-05
0.000222314
2.93586e-06
1.36105e-06
1.33715e-06
1.25978e-06
1.19517e-06
1.14694e-06
1.11691e-06
1.10625e-06
3.48096e-05
0.000718203
1.10123e-06
5.79351e-07
5.66758e-07
5.36058e-07
5.11084e-07
4.90034e-07
4.76964e-07
4.72961e-07
4.14781e-05
0.000847792
4.67972e-07
2.56371e-07
2.51463e-07
2.37647e-07
2.26649e-07
2.1665e-07
2.11242e-07
2.09787e-07
3.68495e-05
0.000863257
2.0587e-07
1.17153e-07
1.14449e-07
1.08444e-07
1.03712e-07
9.87014e-08
9.61564e-08
9.50827e-08
3.51927e-05
0.000779475
1.03922e-07
5.15732e-08
5.52848e-08
5.11137e-08
4.86393e-08
4.66598e-08
4.57761e-08
4.57408e-08
1.93282e-05
0.000594028
5.18168e-08
2.50054e-08
2.92048e-08
2.66279e-08
2.46555e-08
2.43055e-08
2.3892e-08
2.37647e-08
2.61505e-05
0.000524131
4.47244e-08
1.13083e-08
1.83362e-08
1.64852e-08
1.5444e-08
1.53862e-08
1.46053e-08
1.58489e-08
9.54972e-06
0.000446892
7.64353e-09
1.97509e-08
8.40407e-09
1.19831e-08
1.00743e-08
9.80917e-09
1.04454e-08
1.04189e-08
2.607e-05
0.000523491
2.9628e-05
5.57476e-06
6.06977e-06
5.82935e-06
5.52736e-06
5.30301e-06
5.17108e-06
5.13182e-06
5.17892e-06
2.97354e-06
9.02489e-06
2.97398e-06
3.01265e-06
2.84393e-06
2.69509e-06
2.58637e-06
2.51923e-06
2.49217e-06
1.10011e-05
7.08547e-05
2.80718e-06
1.23393e-06
1.2202e-06
1.15171e-06
1.09327e-06
1.05098e-06
1.02034e-06
1.00306e-06
1.32791e-05
0.000377931
1.08198e-06
5.40187e-07
5.28998e-07
5.00704e-07
4.75566e-07
4.57648e-07
4.4328e-07
4.34925e-07
1.63641e-05
0.000490248
4.46546e-07
2.41332e-07
2.36135e-07
2.23714e-07
2.13362e-07
2.04786e-07
1.98828e-07
1.95237e-07
1.75195e-05
0.000542648
1.97033e-07
1.12385e-07
1.0976e-07
1.03069e-07
9.81889e-08
9.48617e-08
9.2163e-08
9.05733e-08
2.01944e-05
0.000536472
9.8564e-08
5.16248e-08
5.23806e-08
4.92588e-08
4.72542e-08
4.52826e-08
4.42967e-08
4.34095e-08
1.5933e-05
0.000441545
5.20841e-08
2.46951e-08
2.79779e-08
2.56415e-08
2.3867e-08
2.35417e-08
2.30685e-08
2.30093e-08
2.56601e-05
0.000433108
4.42623e-08
1.24484e-08
1.72073e-08
1.65082e-08
1.45455e-08
1.52714e-08
1.38465e-08
1.55672e-08
1.94495e-05
0.000409077
4.62186e-09
1.99878e-08
7.19658e-09
1.12138e-08
9.80903e-09
9.90762e-09
9.90762e-09
9.61187e-09
3.3149e-05
0.000468931
2.81635e-05
4.55581e-06
5.11066e-06
4.97313e-06
4.72932e-06
4.53144e-06
4.40973e-06
4.36938e-06
4.39898e-06
4.6803e-06
8.3057e-06
2.56402e-06
2.61735e-06
2.47751e-06
2.34922e-06
2.25433e-06
2.19285e-06
2.16336e-06
3.36986e-06
1.42579e-05
2.63231e-06
1.09231e-06
1.08598e-06
1.02786e-06
9.76255e-07
9.37076e-07
9.09554e-07
8.93168e-07
4.68607e-06
0.000180618
1.02607e-06
4.89873e-07
4.82358e-07
4.56445e-07
4.35023e-07
4.16923e-07
4.04001e-07
3.94744e-07
5.21012e-06
0.000266886
4.29385e-07
2.22151e-07
2.19127e-07
2.07422e-07
1.97721e-07
1.89865e-07
1.83738e-07
1.79928e-07
5.77483e-06
0.000321724
1.8593e-07
1.04924e-07
1.02484e-07
9.69849e-08
9.26546e-08
8.89085e-08
8.61591e-08
8.42689e-08
7.9962e-06
0.000350024
9.15033e-08
4.95196e-08
4.98251e-08
4.65564e-08
4.46929e-08
4.29822e-08
4.13937e-08
4.08438e-08
8.85088e-06
0.000302731
5.0048e-08
2.44421e-08
2.61742e-08
2.42497e-08
2.29574e-08
2.21876e-08
2.16102e-08
2.21601e-08
1.91534e-05
0.00032578
4.10203e-08
1.3697e-08
1.49467e-08
1.55966e-08
1.44218e-08
1.44468e-08
1.39469e-08
1.42219e-08
1.82183e-05
0.000311974
1.17386e-09
2.02539e-08
6.98804e-09
1.10663e-08
8.98135e-09
9.14173e-09
9.2792e-09
9.53123e-09
3.05445e-05
0.000366804
2.69098e-05
3.50093e-06
4.12555e-06
4.12142e-06
3.95499e-06
3.7913e-06
3.6821e-06
3.63639e-06
3.64908e-06
3.8639e-06
7.51387e-06
2.16168e-06
2.22376e-06
2.11289e-06
2.00555e-06
1.92216e-06
1.8666e-06
1.84053e-06
1.82986e-06
7.83089e-07
2.40499e-06
9.48379e-07
9.48226e-07
8.97133e-07
8.52813e-07
8.17873e-07
7.92339e-07
7.75956e-07
1.39702e-06
7.95874e-05
9.45983e-07
4.31931e-07
4.26884e-07
4.04902e-07
3.85776e-07
3.71164e-07
3.58491e-07
3.49801e-07
1.50204e-06
0.000135557
4.03669e-07
2.01188e-07
1.97866e-07
1.87971e-07
1.79061e-07
1.71686e-07
1.66355e-07
1.61645e-07
9.83961e-07
0.000176903
1.75461e-07
9.53044e-08
9.32596e-08
8.86909e-08
8.46334e-08
8.14704e-08
7.85311e-08
1.22987e-05
1.43666e-06
0.000214834
8.39005e-08
4.64328e-08
4.61772e-08
4.30817e-08
4.10653e-08
3.97022e-08
3.89638e-08
3.75722e-08
3.57078e-06
0.000190132
4.53682e-08
2.25945e-08
2.37957e-08
2.28245e-08
2.16743e-08
2.12398e-08
2.02174e-08
1.01757e-05
1.24154e-05
0.000227336
3.55206e-08
1.5568e-08
1.28958e-08
1.50568e-08
1.27332e-08
1.29888e-08
1.25008e-08
1.30817e-08
1.36385e-05
0.000214254
1.69497e-09
2.00215e-08
7.22051e-09
9.73385e-09
8.86057e-09
8.75407e-09
8.90317e-09
4.82652e-06
2.44225e-05
0.000264525
2.68741e-05
2.54267e-06
3.19546e-06
3.32096e-06
3.25193e-06
3.13974e-06
3.04913e-06
2.99579e-06
2.9843e-06
3.10373e-06
6.63335e-06
1.77586e-06
1.84462e-06
1.76178e-06
1.67639e-06
1.60772e-06
1.55865e-06
1.53412e-06
1.52361e-06
1.43532e-06
2.1498e-06
8.00741e-07
8.04258e-07
7.64221e-07
7.27059e-07
6.97263e-07
6.7431e-07
6.5915e-07
5.60994e-08
3.15154e-05
8.59199e-07
3.74135e-07
3.70788e-07
3.52215e-07
3.35305e-07
3.21861e-07
3.11545e-07
3.02377e-07
3.79441e-07
6.42063e-05
3.6773e-07
1.76068e-07
1.7342e-07
1.65308e-07
1.57331e-07
1.5156e-07
1.46163e-07
1.42633e-07
4.30649e-07
9.10011e-05
1.63563e-07
8.43808e-08
8.39055e-08
7.91534e-08
7.58863e-08
7.20548e-08
7.05995e-08
1.76156e-05
1.3457e-06
0.000125581
7.75594e-08
4.13175e-08
4.13967e-08
3.92318e-08
3.72782e-08
3.58525e-08
3.47701e-08
3.40044e-08
8.1872e-07
0.000108972
4.18191e-08
2.15273e-08
2.19075e-08
2.10046e-08
1.9769e-08
1.87236e-08
1.83434e-08
1.9012e-05
7.39293e-06
0.000150132
2.71844e-08
1.79719e-08
1.13404e-08
1.34789e-08
1.2334e-08
1.21828e-08
1.18372e-08
1.15564e-08
8.82561e-06
0.000136408
4.24524e-09
1.81969e-08
7.38567e-09
8.63311e-09
7.86089e-09
8.1777e-09
7.16786e-09
1.01672e-05
1.79263e-05
0.000180344
2.67346e-05
1.66567e-06
2.24101e-06
2.43356e-06
2.46281e-06
2.44567e-06
2.4345e-06
2.44156e-06
2.49025e-06
2.65768e-06
5.73224e-06
1.41999e-06
1.48435e-06
1.42402e-06
1.36214e-06
1.3086e-06
1.27232e-06
1.24949e-06
1.23505e-06
1.14554e-06
1.8746e-06
6.59664e-07
6.65981e-07
6.33179e-07
6.03359e-07
5.77758e-07
5.6022e-07
5.46083e-07
5.34817e-07
1.07057e-05
7.52808e-07
3.13221e-07
3.1289e-07
2.97446e-07
2.83732e-07
2.71657e-07
2.6273e-07
2.55127e-07
2.37088e-08
2.73138e-05
3.27634e-07
1.51183e-07
1.48911e-07
1.42e-07
1.36036e-07
1.30009e-07
1.25307e-07
1.21647e-07
5.85799e-07
4.39499e-05
1.48641e-07
7.34181e-08
7.22861e-08
6.88347e-08
6.57698e-08
6.38094e-08
6.07722e-08
1.68856e-05
2.26613e-06
7.13206e-05
7.11499e-08
3.55141e-08
3.64713e-08
3.46551e-08
3.26916e-08
3.16854e-08
3.06055e-08
2.95746e-08
2.08225e-07
5.66517e-05
3.82055e-08
1.8621e-08
1.93057e-08
1.83559e-08
1.72736e-08
1.70306e-08
9.21263e-07
2.11605e-05
4.06704e-06
9.62118e-05
1.84352e-08
1.74703e-08
1.00404e-08
1.18075e-08
1.1165e-08
1.0683e-08
1.00806e-08
1.05224e-08
4.88503e-06
7.99475e-05
6.88697e-09
1.60513e-08
6.90279e-09
7.39979e-09
7.10528e-09
6.62668e-09
7.32617e-09
1.12168e-05
1.23862e-05
0.000117777
2.73488e-05
1.42066e-06
1.78747e-06
1.7815e-06
1.65294e-06
1.52015e-06
1.41725e-06
1.33876e-06
1.25848e-06
1.20083e-06
4.84408e-06
1.13639e-06
1.17687e-06
1.11937e-06
1.05915e-06
1.01259e-06
9.80966e-07
9.65822e-07
9.63486e-07
9.08295e-07
1.59083e-06
5.3232e-07
5.37926e-07
5.10861e-07
4.84762e-07
4.66014e-07
4.47635e-07
4.37019e-07
4.26094e-07
3.27358e-06
6.48392e-07
2.56461e-07
2.55571e-07
2.4414e-07
2.32709e-07
2.22887e-07
2.15665e-07
2.07828e-07
2.01975e-07
8.89339e-06
2.79457e-07
1.26846e-07
1.24147e-07
1.18544e-07
1.12618e-07
1.08628e-07
1.04609e-07
1.01324e-07
3.88222e-07
1.97197e-05
1.29998e-07
6.20403e-08
6.14756e-08
5.86008e-08
5.58286e-08
5.33644e-08
1.22908e-06
1.43219e-05
2.36742e-06
3.98185e-05
6.52389e-08
2.93417e-08
3.13268e-08
2.93874e-08
2.84063e-08
2.66494e-08
2.59421e-08
2.53717e-08
2.49861e-07
2.53839e-05
3.64044e-08
1.51546e-08
1.66125e-08
1.62634e-08
1.51135e-08
1.43948e-08
1.64419e-05
2.02921e-05
1.9912e-06
6.0984e-05
8.54332e-09
1.78091e-08
8.99791e-09
1.00993e-08
9.72596e-09
9.46461e-09
8.94191e-09
9.10992e-09
2.07559e-06
4.15781e-05
6.2606e-09
1.31764e-08
6.98178e-09
6.28018e-09
6.57109e-09
6.38286e-09
5.93794e-09
1.01521e-05
8.1827e-06
7.43521e-05
2.41415e-05
2.47053e-06
3.32208e-06
3.69095e-06
3.75809e-06
3.71995e-06
3.67495e-06
3.64173e-06
3.64165e-06
3.71001e-06
3.34913e-06
8.28853e-07
9.20412e-07
9.1805e-07
8.98053e-07
8.73022e-07
8.45938e-07
8.16588e-07
7.77788e-07
6.60462e-07
1.27996e-06
4.10659e-07
4.15927e-07
3.99052e-07
3.83551e-07
3.69119e-07
3.58314e-07
3.49209e-07
2.81631e-07
2.15819e-06
5.38189e-07
2.01938e-07
2.03115e-07
1.93538e-07
1.8552e-07
1.7728e-07
1.70917e-07
1.66256e-07
1.60895e-07
4.14518e-08
2.32638e-07
1.01257e-07
1.00112e-07
9.52033e-08
9.20126e-08
8.75401e-08
8.44312e-08
8.17041e-08
1.98779e-07
8.25843e-06
1.0828e-07
5.03969e-08
5.03492e-08
4.78675e-08
4.54575e-08
4.37871e-08
8.91038e-06
1.17198e-05
2.17382e-06
2.21802e-05
5.76731e-08
2.43925e-08
2.5453e-08
2.43712e-08
2.33319e-08
2.25259e-08
2.16563e-08
2.11048e-08
2.05321e-08
8.04099e-06
2.9576e-06
1.31337e-08
1.29428e-08
1.34964e-08
1.29238e-08
1.57343e-05
2.42305e-05
1.84379e-05
7.45703e-07
3.89744e-05
5.16494e-10
1.58966e-08
8.81599e-09
7.87886e-09
8.46891e-09
7.93092e-09
7.61854e-09
7.47971e-09
2.87891e-07
1.69368e-05
2.65436e-09
8.66993e-09
6.64959e-09
5.6792e-09
4.83607e-09
5.36104e-09
1.96857e-06
8.32971e-06
5.23409e-06
4.57246e-05
2.28218e-05
9.7352e-06
9.31452e-06
8.43824e-06
7.88644e-06
7.4223e-06
6.86125e-06
6.13425e-06
5.25196e-06
4.20374e-06
4.57948e-06
8.02297e-07
7.07375e-07
5.95861e-07
5.10123e-07
4.64004e-07
4.54199e-07
4.75673e-07
5.0775e-07
4.94312e-07
5.87132e-05
6.87086e-06
9.47782e-06
7.19154e-06
5.90989e-06
4.95788e-06
3.7807e-06
1.54542e-06
1.69736e-06
3.9309e-06
4.31015e-07
1.5574e-07
1.56376e-07
1.49085e-07
1.41942e-07
1.35613e-07
1.29683e-07
1.24802e-07
1.20144e-07
1.01675e-07
1.8743e-07
7.79832e-08
7.77297e-08
7.46621e-08
7.07578e-08
6.74367e-08
6.54339e-08
6.28226e-08
1.26431e-07
3.5533e-06
9.787e-06
3.99296e-08
3.95747e-08
3.74451e-08
3.58923e-08
7.39399e-06
1.19393e-05
9.62056e-06
1.93018e-06
1.25886e-05
4.80991e-08
1.93437e-08
2.05859e-08
1.98366e-08
1.89493e-08
1.77662e-08
1.72338e-08
1.66028e-08
1.59324e-08
1.5123e-08
5.02607e-05
4.56867e-05
4.11039e-05
3.65132e-05
3.47346e-05
3.2335e-05
2.75821e-05
1.6587e-05
2.83944e-10
2.57281e-05
4.58687e-09
1.26323e-08
7.42126e-09
6.7114e-09
6.38874e-09
6.42101e-09
6.08221e-09
6.43714e-09
6.01768e-09
2.04092e-06
3.50724e-09
5.23522e-09
5.57536e-09
4.43663e-09
3.9486e-09
4.24437e-09
5.08819e-06
6.38352e-06
3.25702e-06
2.7475e-05
0.000265685
2.79388e-05
3.11311e-05
3.1006e-05
2.90989e-05
2.59311e-05
2.20348e-05
1.78369e-05
1.35205e-05
9.07117e-06
3.71814e-06
5.97405e-07
8.14165e-08
2.13461e-07
3.42184e-07
3.7384e-07
3.75819e-07
4.04732e-07
5.24712e-07
7.38822e-07
0.000200941
0.00012793
6.98089e-05
3.98685e-05
2.24782e-05
1.26589e-05
6.53335e-06
1.58842e-06
3.76327e-06
7.06639e-06
3.27007e-07
1.12322e-07
1.11924e-07
1.0828e-07
1.04582e-07
1.01159e-07
9.76806e-08
9.34324e-08
9.04216e-08
7.47728e-08
1.45123e-07
5.852e-08
5.76951e-08
5.49847e-08
5.2675e-08
5.12138e-08
4.82913e-08
1.80391e-07
1.61348e-07
2.09918e-06
3.93894e-05
3.00265e-05
1.96758e-05
1.5749e-05
1.50439e-05
1.43118e-05
1.23537e-05
7.95164e-06
1.71703e-06
7.39911e-06
3.80358e-08
1.4628e-08
1.4903e-08
1.4958e-08
1.44264e-08
1.37665e-08
1.28316e-08
1.28866e-08
1.2135e-08
1.1363e-08
0.00021922
4.35019e-05
7.99393e-05
7.01336e-05
5.46531e-05
4.07535e-05
2.86883e-05
1.51863e-05
4.76835e-07
1.8049e-05
6.69203e-09
9.44873e-09
6.28415e-09
5.45926e-09
5.24929e-09
5.06932e-09
5.1743e-09
4.09445e-09
4.87434e-09
4.88508e-09
9.39151e-09
2.83212e-09
3.98696e-09
4.06945e-09
3.49203e-09
3.38204e-09
5.26938e-06
4.37982e-06
1.90801e-06
1.5724e-05
0.00067028
9.64997e-05
9.84375e-05
8.53101e-05
6.9001e-05
5.30346e-05
3.87061e-05
2.62014e-05
1.50248e-05
4.34999e-06
1.72979e-05
3.24192e-06
2.4231e-06
1.99825e-06
1.73062e-06
1.42509e-06
9.90189e-07
3.59325e-07
5.76457e-07
1.89999e-06
0.000340784
0.000241603
0.000117351
6.11457e-05
3.08e-05
1.50157e-05
6.20466e-06
4.30967e-08
6.6476e-06
1.11766e-05
2.23171e-07
7.88062e-08
7.75153e-08
7.35916e-08
7.12655e-08
6.91567e-08
6.89778e-08
6.87733e-08
6.64472e-08
5.17216e-08
1.83821e-05
4.10591e-08
4.00513e-08
2.16557e-07
1.60277e-06
2.42314e-06
2.47571e-06
1.63864e-06
2.3976e-07
1.84317e-06
3.98325e-05
4.50336e-05
3.52124e-05
2.63189e-05
2.00013e-05
1.5158e-05
1.09285e-05
6.34323e-06
1.49575e-06
4.40508e-06
2.84595e-08
1.0787e-08
1.09233e-08
1.10255e-08
1.01053e-08
1.00372e-08
9.27031e-09
8.91245e-09
8.69092e-09
7.7822e-09
0.000486731
1.65029e-05
8.4024e-05
8.30541e-05
6.35278e-05
4.44313e-05
2.87633e-05
1.43129e-05
8.39037e-07
1.37402e-05
3.61913e-09
4.67079e-09
4.69867e-09
4.1828e-09
4.00154e-09
3.49961e-09
3.33229e-09
3.6948e-09
3.27652e-09
3.53715e-09
1.16219e-08
1.82765e-09
2.81177e-09
2.27498e-09
2.70952e-09
3.65402e-08
2.91288e-06
2.18065e-06
9.12917e-07
7.57643e-06
0.00245906
0.000204549
0.000184596
0.000135787
9.36425e-05
6.15576e-05
3.76671e-05
1.93176e-05
3.97918e-06
1.05016e-05
3.43399e-05
9.64117e-06
8.06779e-06
6.60668e-06
4.93665e-06
3.10439e-06
1.13198e-06
1.07272e-06
3.72842e-06
6.84182e-06
0.000488134
0.00036529
0.000159239
7.48354e-05
3.29221e-05
1.30322e-05
3.11071e-06
3.26812e-06
1.07766e-05
1.67315e-05
1.62041e-07
5.61517e-08
4.9914e-08
4.46861e-08
4.0789e-08
3.68563e-08
3.49196e-08
3.41592e-08
3.62265e-08
4.40275e-08
5.89632e-05
3.53715e-05
2.04419e-05
1.31834e-05
8.94518e-06
6.1623e-06
4.03465e-06
2.10065e-06
2.79554e-07
1.62879e-06
2.92398e-05
3.71551e-05
3.07093e-05
2.28675e-05
1.65986e-05
1.17811e-05
7.92661e-06
4.42523e-06
1.16104e-06
2.40765e-06
1.86739e-08
7.09719e-09
7.39818e-09
6.7645e-09
7.04966e-09
6.25756e-09
6.22588e-09
5.86151e-09
5.52883e-09
4.6201e-09
0.000834375
0.000119404
6.16358e-05
7.95976e-05
6.31602e-05
4.36537e-05
2.73271e-05
1.33475e-05
1.12973e-06
1.09765e-05
2.0602e-09
2.99413e-09
2.6312e-09
2.69601e-09
2.73489e-09
2.35901e-09
2.55343e-09
2.44974e-09
2.38493e-09
2.27196e-09
1.03038e-08
1.12874e-09
1.69905e-09
2.01985e-09
1.36637e-09
1.81786e-09
1.36637e-09
2.60631e-07
2.44449e-07
2.14907e-06
0.00535951
0.000108349
8.40443e-05
5.13519e-05
2.7593e-05
1.17052e-05
6.69308e-07
8.03755e-06
1.63868e-05
2.56486e-05
3.28672e-05
2.50166e-05
1.82187e-05
1.22092e-05
7.24196e-06
3.18751e-06
3.22233e-07
3.71043e-06
7.43354e-06
1.1346e-05
0.000554229
0.000460007
0.000178525
7.50042e-05
2.79961e-05
8.00542e-06
5.12644e-07
5.31758e-06
1.16327e-05
1.8075e-05
7.15787e-08
4.0371e-08
3.69359e-08
2.89058e-08
2.05997e-08
1.15093e-08
1.68995e-09
9.78624e-09
2.11741e-08
4.76799e-08
5.06072e-05
3.42729e-05
1.93698e-05
1.20537e-05
7.73794e-06
4.99106e-06
3.06457e-06
1.53709e-06
2.28053e-07
1.05015e-06
1.65439e-05
1.99983e-05
1.6968e-05
1.26802e-05
9.08718e-06
6.30028e-06
4.12644e-06
2.28766e-06
6.75565e-07
1.00188e-06
1.12071e-08
4.9778e-09
4.62435e-09
3.97635e-09
4.0058e-09
4.22671e-09
3.66708e-09
3.85853e-09
3.10744e-09
2.8883e-09
0.00106778
0.000215525
2.05485e-05
5.77075e-05
4.97688e-05
3.49462e-05
2.17373e-05
1.06728e-05
1.18498e-06
7.87867e-06
5.33926e-09
1.4098e-09
1.30135e-09
1.50619e-09
1.67489e-09
1.73513e-09
1.2893e-09
1.22905e-09
1.13266e-09
1.53368e-09
1.23729e-06
7.93834e-07
1.12663e-09
1.01618e-09
1.3365e-09
4.95917e-07
8.04758e-07
3.81409e-07
2.0096e-07
1.2463e-06
0.00315901
0.000656692
0.000458469
0.000311339
0.00021632
0.000147247
9.31426e-05
4.97768e-05
3.99334e-06
3.40928e-05
1.10067e-05
1.1626e-05
6.04615e-06
1.84238e-06
8.21929e-07
2.58981e-06
3.98395e-06
5.3511e-06
6.88391e-06
7.98224e-06
0.000287139
0.000372479
0.000124874
4.6124e-05
1.32468e-05
6.97528e-07
3.93262e-06
6.38604e-06
1.01286e-05
1.48393e-05
4.91181e-08
9.85748e-09
2.27133e-08
3.17904e-08
3.96661e-08
4.67101e-08
5.34666e-08
5.77176e-08
6.12191e-08
6.33963e-08
2.06669e-05
1.52893e-05
8.38322e-06
5.0616e-06
3.14522e-06
1.96379e-06
1.17462e-06
5.86626e-07
9.91557e-08
3.85895e-07
6.23262e-06
5.83912e-06
4.95001e-06
3.69648e-06
2.63218e-06
1.80343e-06
1.16606e-06
6.50224e-07
2.16402e-07
2.3211e-07
4.69701e-09
1.58815e-09
2.7245e-09
2.20424e-09
1.73875e-09
2.05364e-09
1.86197e-09
1.61553e-09
1.69768e-09
1.23073e-09
0.000713967
0.000178242
8.17183e-06
2.39381e-05
2.35945e-05
1.71052e-05
1.07165e-05
5.33265e-06
7.29564e-07
3.63182e-06
2.13408e-09
1.25459e-09
9.18538e-10
7.05706e-10
3.58454e-10
6.94504e-10
8.6253e-10
5.60084e-10
8.06521e-10
8.84922e-10
9.12259e-05
0.000129194
8.54048e-05
5.05415e-05
2.88933e-05
1.62722e-05
8.71003e-06
3.49789e-06
8.29107e-07
5.54378e-06
0.0045359
0.000677402
0.000506036
0.000381711
0.000286801
0.00021251
0.000153127
0.000104822
6.42035e-05
3.13315e-05
9.47433e-06
2.04175e-05
1.42877e-05
9.59052e-06
6.42573e-06
4.35647e-06
2.96911e-06
1.92918e-06
9.10301e-07
5.66584e-07
9.73429e-05
8.3782e-05
1.98528e-05
5.64889e-06
3.63851e-07
1.15756e-06
1.45229e-06
1.56884e-06
2.08544e-06
3.33944e-06
1.92027e-08
1.52063e-08
9.03022e-09
3.11189e-09
1.52731e-09
5.63196e-09
1.03762e-08
1.41849e-08
1.72682e-08
2.00841e-08
1.70817e-06
1.78897e-06
9.40081e-07
5.51583e-07
3.32305e-07
2.02145e-07
1.1859e-07
5.99906e-08
1.18639e-08
4.2972e-08
7.9242e-07
4.53525e-07
3.70592e-07
2.72138e-07
1.90666e-07
1.28208e-07
8.20595e-08
4.57334e-08
1.71966e-08
1.43472e-08
1.78267e-09
5.47286e-10
5.47286e-10
9.41841e-10
9.54569e-10
7.00017e-10
4.45466e-10
5.21831e-10
2.80007e-10
4.83648e-10
5.29845e-05
2.82569e-05
2.45539e-06
2.70865e-06
2.99379e-06
2.23123e-06
1.41104e-06
7.10062e-07
1.12074e-07
4.71985e-07
3.90462e-10
5.93568e-10
4.06126e-10
2.0827e-10
1.04135e-11
1.45789e-10
1.14548e-10
3.12404e-10
6.24809e-11
9.37213e-11
0.000264514
0.000160045
9.4921e-05
5.42164e-05
3.05215e-05
1.69671e-05
8.92285e-06
3.59199e-06
7.62452e-07
5.34852e-06
0.525995
0.418957
0.530142
0.919606
0.686116
0.623858
0.739192
1.11565
0.849569
0.79148
0.937832
1.44122
0.616641
0.593184
0.702751
1.09974
0.450501
0.449064
0.533221
0.863285
0.298415
0.294926
0.365825
0.622513
0.198639
0.189617
0.253271
0.455012
0.128209
0.118235
0.169411
0.315549
0.0885367
0.0808802
0.122106
0.230983
0.0666984
0.0615665
0.0993583
0.188058
0.0358265
0.0017927
1.94492e-05
0.0190137
0.0785091
0.00651849
1.45435e-05
0.0409438
0.136612
0.0152003
7.8674e-06
0.070417
0.124981
0.0170198
4.06373e-06
0.0603773
0.110287
0.0169897
2.10034e-06
0.0489178
0.0853362
0.0142366
1.07958e-06
0.0375743
0.0644177
0.0110625
5.72602e-07
0.0305244
0.0464406
0.00833729
3.27446e-07
0.023195
0.0357256
0.00714242
0.00104048
0.0184319
0.030102
0.00824478
0.00382107
0.0155016
0.0171024
0.0134489
0.0141268
0.0196799
0.0387125
0.0266628
0.0261743
0.0408089
0.0749417
0.0486861
0.0492552
0.0796673
0.0710509
0.043072
0.0446852
0.0749943
0.0650961
0.0370613
0.0395668
0.069957
0.0519878
0.0280393
0.0306784
0.0566914
0.0404139
0.020655
0.0232331
0.0452032
0.0299342
0.0145389
0.0166896
0.0336764
0.0234825
0.010455
0.0123939
0.0259871
0.0200759
0.00850532
0.0105698
0.0215282
0.00191829
0.00138777
0.00133651
0.00194844
0.00609235
0.00417313
0.00386216
0.00631404
0.0162339
0.0110078
0.0104764
0.0165935
0.0190433
0.0125543
0.0123939
0.018969
0.0207146
0.0131689
0.0136024
0.0207293
0.0189494
0.0116301
0.0124462
0.0190385
0.0164222
0.00967211
0.0106895
0.0167375
0.0133862
0.00760401
0.00860514
0.013669
0.011189
0.00583621
0.00691443
0.0112361
0.00994074
0.00508186
0.00648169
0.0100758
0.000605937
0.000568746
0.000598622
0.00081634
0.00226566
0.00210313
0.00236447
0.00340692
0.00609151
0.00574175
0.0064027
0.00889184
0.0072925
0.00654764
0.00705804
0.00959951
0.00837937
0.00713409
0.00763205
0.0103482
0.00813575
0.00655903
0.00704043
0.00951437
0.00745551
0.00568255
0.00617903
0.00841259
0.00648687
0.00469301
0.00517432
0.00704984
0.00583524
0.00387401
0.00445896
0.00604632
0.00558724
0.00369072
0.00456177
0.00582674
0.000107949
0.000103299
0.000103265
0.000162557
0.000765038
0.000721241
0.000845285
0.001234
0.00245372
0.00248819
0.00298581
0.00410849
0.003019
0.00305274
0.00354257
0.00471722
0.00358378
0.00354997
0.00403774
0.00531267
0.00361428
0.00344894
0.00386834
0.00503556
0.00342469
0.00313026
0.0034927
0.00451897
0.00315372
0.00273746
0.00304622
0.00389823
0.00305457
0.00244035
0.00279357
0.00347068
0.00302868
0.00238188
0.00289295
0.00336878
6.25359e-06
8.44077e-06
3.89949e-06
2.26663e-05
0.000269525
0.000251077
0.000300531
0.000459354
0.00117286
0.00119768
0.00148002
0.00206799
0.00149156
0.00157087
0.00189593
0.00252735
0.00179897
0.00191334
0.0022756
0.00297658
0.00184282
0.00193167
0.00226035
0.00291517
0.0017488
0.0017957
0.00207858
0.0026466
0.0016698
0.0016427
0.00187396
0.00235161
0.00169594
0.00155567
0.00178893
0.00213899
0.00169424
0.00153256
0.00182979
0.00205684
1.64626e-05
5.92326e-06
5.71333e-06
5.87835e-06
7.38814e-05
6.2735e-05
7.49856e-05
0.000128845
0.000535783
0.000528873
0.000659529
0.000946913
0.000755025
0.000795367
0.000972151
0.00130421
0.000954663
0.0010352
0.00125494
0.00164663
0.00102079
0.00110781
0.00132602
0.00171293
0.000971359
0.00105439
0.00125079
0.00158568
0.000959525
0.00101065
0.00117666
0.00146878
0.000961871
0.000966154
0.00111384
0.00131135
0.000976134
0.000979372
0.00115428
0.00128495
1.33759e-05
4.69505e-06
4.51617e-06
4.66388e-06
1.07963e-05
5.68159e-06
5.52964e-06
1.9621e-05
0.000232268
0.000209921
0.000261717
0.000400698
0.000376734
0.000390796
0.000479314
0.00064916
0.000503405
0.000548122
0.000670007
0.00088347
0.000577572
0.000635089
0.000767679
0.000995716
0.00055416
0.000618817
0.00074275
0.000939238
0.000574631
0.00062755
0.000738729
0.000921639
0.000548133
0.000583968
0.000672915
0.000789292
0.000579511
0.000624124
0.00072796
0.000809908
1.02513e-05
3.37238e-06
3.24025e-06
3.38539e-06
3.2376e-06
1.25352e-06
1.21959e-06
1.35172e-06
8.72905e-05
6.03615e-05
7.34851e-05
0.000138131
0.000181395
0.000181838
0.000222511
0.00030571
0.00025612
0.000276647
0.000339704
0.000451737
0.00032147
0.000353864
0.000429863
0.000561551
0.000307214
0.000349125
0.000421531
0.000531415
0.000343636
0.000382279
0.00045268
0.000566688
0.000313638
0.000346264
0.000398793
0.000468318
0.000350038
0.000393696
0.000455698
0.000507922
9.57889e-06
3.19757e-06
3.07401e-06
3.14618e-06
2.66133e-06
9.23812e-07
9.04628e-07
1.00365e-06
2.19288e-05
3.99151e-07
3.84825e-07
2.16234e-05
8.3093e-05
7.84746e-05
9.50594e-05
0.000133262
0.000125116
0.000132374
0.000163042
0.000220047
0.000176853
0.00019297
0.000235201
0.00031095
0.000163237
0.000187848
0.000227756
0.000285673
0.000204624
0.000228857
0.000272221
0.000343523
0.000177285
0.000199551
0.000229798
0.000270379
0.000212092
0.000244333
0.000281759
0.000314353
1.9472e-06
6.57393e-07
7.48503e-07
9.84602e-07
1.9648e-06
6.72785e-07
6.57625e-07
7.32031e-07
7.77933e-07
2.87307e-07
2.77381e-07
3.15315e-07
3.46765e-05
2.94332e-05
3.46522e-05
4.97315e-05
5.73269e-05
5.83298e-05
7.19783e-05
9.96565e-05
9.61814e-05
0.000103123
0.000125987
0.000169575
8.11829e-05
9.47273e-05
0.000115272
0.000142936
0.000121869
0.000135525
0.000161904
0.00020716
9.56212e-05
0.000108661
0.000125096
0.000147199
0.000127267
0.000148345
0.000171178
0.000190679
1.48513e-05
3.74888e-06
3.12765e-06
2.8095e-06
1.584e-06
5.54977e-07
5.59567e-07
6.51204e-07