/*--------------------------------*- C++ -*----------------------------------*\
| =========                 |                                                 |
| \\      /  F ield         | foam-extend: Open Source CFD                    |
|  \\    /   O peration     | Version:     4.0                                |
|   \\  /    A nd           | Web:         http://www.foam-extend.org         |
|    \\/     M anipulation  |                                                 |
\*---------------------------------------------------------------------------*/
FoamFile
{
    version     2.0;
    format      ascii;
    class       volScalarField;
    location    "4100";
    object      T;
}
// * * * * * * * * * * * * * * * * * * * * * * * * * * * * * * * * * * * * * //

dimensions      [0 0 0 1 0 0 0];

internalField   nonuniform List<scalar> 
34480
(
278.809
278.698
278.617
278.563
278.53
278.521
278.536
278.621
278.893
278.859
278.257
278.139
278.045
277.979
277.946
277.949
277.974
278.019
278.235
277.791
278.145
278.014
277.908
277.834
277.796
277.784
277.765
277.712
277.84
277.064
278.186
278.034
277.905
277.803
277.731
277.667
277.583
277.425
277.432
276.308
278.2
278.022
277.865
277.73
277.616
277.497
277.344
277.075
276.925
275.446
278.268
278.068
277.887
277.726
277.578
277.408
277.188
276.804
276.469
274.607
278.295
278.069
277.865
277.679
277.499
277.285
277.002
276.505
275.959
273.71
278.366
278.118
277.901
277.707
277.519
277.29
276.973
276.392
275.637
272.968
278.423
278.155
277.92
277.707
277.494
277.238
276.878
276.214
275.249
272.226
279.24
278.959
278.756
278.614
278.509
278.389
278.18
277.654
276.648
273.195
279.342
279.25
279.213
279.229
279.302
279.449
279.709
280.166
280.835
281.705
278.691
278.608
278.575
278.592
278.673
278.84
279.131
279.629
280.422
281.443
278.486
278.408
278.378
278.399
278.485
278.657
278.946
279.437
280.287
281.403
278.433
278.354
278.32
278.332
278.405
278.556
278.821
279.286
280.167
281.331
278.359
278.275
278.233
278.232
278.286
278.408
278.641
279.068
279.948
281.127
278.349
278.262
278.216
278.205
278.244
278.339
278.538
278.916
279.768
280.924
278.307
278.213
278.16
278.14
278.165
278.236
278.4
278.725
279.525
280.639
278.325
278.229
278.178
278.163
278.191
278.258
278.402
278.682
279.408
280.432
278.341
278.238
278.18
278.158
278.174
278.225
278.344
278.576
279.222
280.166
279.105
279.015
278.994
279.037
279.141
279.294
279.514
279.82
280.416
281.085
279.816
279.717
279.682
279.702
279.78
279.926
280.157
280.503
281.002
281.625
279.159
279.061
279.026
279.05
279.141
279.316
279.605
280.061
280.768
281.697
278.938
278.84
278.804
278.829
278.925
279.113
279.43
279.945
280.817
282.031
278.854
278.752
278.712
278.729
278.817
278.997
279.315
279.859
280.866
282.332
278.75
278.642
278.595
278.601
278.674
278.835
279.14
279.687
280.792
282.463
278.714
278.602
278.55
278.547
278.608
278.748
279.032
279.564
280.727
282.551
278.649
278.531
278.472
278.46
278.508
278.628
278.886
279.39
280.578
282.517
278.647
278.528
278.47
278.461
278.511
278.625
278.866
279.336
280.513
282.512
278.646
278.522
278.46
278.446
278.487
278.588
278.806
279.235
280.374
282.454
279.379
279.267
279.231
279.266
279.371
279.546
279.832
280.3
281.384
283.382
280.155
280.069
280.039
280.058
280.127
280.247
280.425
280.667
280.972
281.311
279.526
279.434
279.402
279.427
279.516
279.675
279.922
280.275
280.759
281.307
279.316
279.215
279.181
279.209
279.307
279.491
279.784
280.226
280.882
281.673
279.221
279.111
279.071
279.095
279.193
279.383
279.703
280.208
281.028
282.077
279.101
278.983
278.936
278.951
279.042
279.227
279.554
280.098
281.059
282.35
279.047
278.923
278.87
278.879
278.962
279.136
279.461
280.023
281.096
282.597
278.964
278.835
278.777
278.777
278.85
279.011
279.325
279.889
281.044
282.727
278.947
278.815
278.757
278.76
278.835
278.992
279.298
279.851
281.05
282.87
278.931
278.797
278.736
278.734
278.801
278.95
279.245
279.778
280.982
282.95
279.63
279.508
279.465
279.498
279.61
279.808
280.146
280.708
281.883
283.883
280.384
280.317
280.294
280.309
280.36
280.446
280.565
280.714
280.884
281.05
279.803
279.725
279.698
279.72
279.794
279.922
280.108
280.354
280.654
280.949
279.622
279.529
279.498
279.524
279.613
279.773
280.016
280.354
280.802
281.269
279.532
279.425
279.386
279.412
279.508
279.688
279.973
280.391
280.996
281.67
279.41
279.291
279.246
279.266
279.362
279.549
279.861
280.34
281.092
281.982
279.349
279.221
279.17
279.185
279.279
279.466
279.793
280.315
281.199
282.298
279.258
279.122
279.066
279.075
279.163
279.345
279.676
280.225
281.22
282.515
279.229
279.091
279.033
279.044
279.134
279.316
279.651
280.211
281.285
282.749
279.202
279.062
279.002
279.009
279.094
279.271
279.603
280.167
281.281
282.925
279.869
279.739
279.692
279.723
279.838
280.05
280.41
280.999
282.113
283.855
280.536
280.486
280.47
280.48
280.514
280.571
280.646
280.734
280.827
280.916
280.005
279.945
279.924
279.941
279.997
280.091
280.223
280.384
280.564
280.723
279.861
279.782
279.755
279.777
279.852
279.981
280.167
280.409
280.699
280.971
279.786
279.689
279.654
279.679
279.766
279.922
280.157
280.48
280.898
281.317
279.673
279.561
279.519
279.541
279.634
279.807
280.081
280.473
281.023
281.608
279.613
279.489
279.441
279.46
279.556
279.739
280.041
280.49
281.168
281.926
279.52
279.387
279.333
279.348
279.442
279.629
279.949
280.441
281.235
282.167
279.486
279.348
279.293
279.309
279.407
279.598
279.931
280.453
281.339
282.433
279.451
279.312
279.254
279.267
279.362
279.553
279.891
280.433
281.379
282.65
280.087
279.956
279.907
279.937
280.052
280.266
280.625
281.192
282.159
283.545
280.635
280.599
280.588
280.594
280.616
280.65
280.695
280.745
280.796
280.847
280.15
280.107
280.091
280.103
280.143
280.208
280.296
280.398
280.503
280.589
280.042
279.98
279.958
279.976
280.033
280.131
280.266
280.431
280.614
280.772
279.986
279.905
279.875
279.896
279.969
280.096
280.28
280.517
280.797
281.054
279.89
279.791
279.754
279.775
279.858
280.008
280.234
280.539
280.926
281.303
279.837
279.724
279.68
279.701
279.791
279.958
280.22
280.586
281.083
281.593
279.749
279.624
279.574
279.592
279.685
279.862
280.151
280.569
281.173
281.824
279.714
279.583
279.531
279.55
279.648
279.836
280.145
280.602
281.297
282.087
279.675
279.541
279.487
279.504
279.602
279.792
280.112
280.599
281.361
282.302
280.281
280.155
280.106
280.134
280.246
280.452
280.79
281.302
282.096
283.142
280.7
280.673
280.665
280.669
280.682
280.702
280.728
280.757
280.785
280.817
280.253
280.224
280.213
280.221
280.248
280.291
280.347
280.409
280.471
280.519
280.177
280.131
280.114
280.127
280.17
280.239
280.333
280.443
280.557
280.649
280.141
280.076
280.052
280.069
280.126
280.225
280.362
280.529
280.713
280.871
280.064
279.981
279.95
279.968
280.038
280.161
280.339
280.566
280.832
281.073
280.022
279.924
279.886
279.905
279.985
280.129
280.345
280.631
280.985
281.324
279.942
279.83
279.786
279.804
279.89
280.049
280.296
280.635
281.08
281.527
279.912
279.792
279.745
279.765
279.858
280.03
280.302
280.684
281.21
281.766
279.871
279.747
279.698
279.717
279.811
279.989
280.276
280.692
281.282
281.957
280.448
280.331
280.284
280.311
280.415
280.606
280.908
281.349
281.974
282.732
280.742
280.721
280.716
280.718
280.725
280.737
280.752
280.768
280.784
280.807
280.328
280.309
280.302
280.307
280.324
280.351
280.386
280.423
280.459
280.486
280.278
280.245
280.233
280.242
280.272
280.32
280.383
280.454
280.523
280.578
280.258
280.209
280.19
280.203
280.246
280.319
280.417
280.532
280.651
280.748
280.2
280.133
280.108
280.123
280.179
280.275
280.41
280.574
280.754
280.907
280.172
280.09
280.058
280.075
280.142
280.26
280.431
280.646
280.894
281.117
280.101
280.004
279.967
279.984
280.059
280.195
280.397
280.661
280.982
281.284
280.079
279.974
279.933
279.952
280.035
280.186
280.414
280.721
281.108
281.492
280.037
279.926
279.883
279.902
279.988
280.147
280.393
280.733
281.176
281.648
280.587
280.482
280.44
280.464
280.557
280.727
280.987
281.349
281.826
282.358
280.769
280.752
280.748
280.749
280.754
280.76
280.769
280.777
280.787
280.805
280.383
280.371
280.366
280.369
280.38
280.396
280.417
280.44
280.461
280.476
280.353
280.331
280.323
280.329
280.348
280.38
280.421
280.466
280.509
280.541
280.345
280.309
280.295
280.304
280.336
280.387
280.455
280.533
280.609
280.669
280.305
280.254
280.234
280.246
280.289
280.361
280.459
280.575
280.694
280.792
280.289
280.224
280.198
280.212
280.266
280.359
280.489
280.646
280.816
280.962
280.228
280.148
280.117
280.132
280.195
280.306
280.465
280.665
280.891
281.093
280.216
280.128
280.093
280.11
280.181
280.307
280.492
280.729
281.008
281.269
280.174
280.079
280.042
280.059
280.135
280.27
280.473
280.74
281.065
281.388
280.697
280.607
280.57
280.591
280.672
280.816
281.031
281.32
281.672
282.036
280.786
280.771
280.768
280.769
280.771
280.775
280.78
280.784
280.791
280.806
280.424
280.417
280.413
280.415
280.422
280.432
280.444
280.458
280.47
280.479
280.41
280.396
280.39
280.394
280.407
280.428
280.454
280.482
280.507
280.526
280.409
280.384
280.374
280.38
280.402
280.438
280.484
280.534
280.583
280.62
280.385
280.347
280.332
280.341
280.372
280.425
280.494
280.574
280.652
280.713
280.379
280.329
280.309
280.32
280.362
280.432
280.528
280.64
280.755
280.849
280.327
280.264
280.239
280.251
280.301
280.388
280.509
280.656
280.813
280.946
280.327
280.255
280.227
280.242
280.3
280.401
280.545
280.722
280.919
281.094
280.283
280.205
280.175
280.19
280.252
280.364
280.524
280.728
280.96
281.177
280.781
280.706
280.675
280.693
280.76
280.879
281.05
281.271
281.526
281.769
280.794
280.781
280.78
280.78
280.781
280.783
280.786
280.788
280.792
280.806
280.456
280.451
280.449
280.45
280.454
280.46
280.467
280.475
280.482
280.488
280.455
280.446
280.443
280.445
280.453
280.466
280.482
280.499
280.515
280.526
280.456
280.439
280.432
280.436
280.451
280.474
280.505
280.538
280.568
280.591
280.444
280.418
280.407
280.413
280.436
280.472
280.52
280.573
280.624
280.663
280.448
280.41
280.396
280.404
280.435
280.486
280.554
280.632
280.709
280.77
280.402
280.354
280.335
280.344
280.383
280.448
280.538
280.642
280.749
280.837
280.415
280.359
280.337
280.349
280.394
280.473
280.581
280.71
280.846
280.962
280.368
280.306
280.282
280.294
280.344
280.432
280.554
280.705
280.868
281.012
280.839
280.78
280.755
280.769
280.823
280.917
281.049
281.213
281.393
281.551
280.797
280.785
280.784
280.784
280.784
280.786
280.787
280.789
280.791
280.804
280.48
280.477
280.475
280.476
280.478
280.481
280.486
280.491
280.495
280.499
280.492
280.486
280.484
280.485
280.49
280.498
280.508
280.518
280.527
280.534
280.49
280.479
280.474
280.476
280.486
280.501
280.521
280.542
280.561
280.576
280.489
280.471
280.464
280.468
280.483
280.508
280.54
280.575
280.608
280.632
280.498
280.472
280.461
280.467
280.489
280.526
280.573
280.626
280.676
280.715
280.458
280.422
280.408
280.415
280.443
280.491
280.555
280.628
280.699
280.757
280.483
280.441
280.425
280.434
280.469
280.527
280.606
280.697
280.789
280.864
280.432
280.383
280.365
280.374
280.413
280.479
280.57
280.678
280.79
280.884
280.875
280.83
280.81
280.822
280.864
280.935
281.033
281.152
281.275
281.377
280.795
280.784
280.783
280.782
280.783
280.784
280.784
280.785
280.787
280.799
280.498
280.495
280.494
280.494
280.496
280.498
280.5
280.503
280.507
280.509
280.522
280.519
280.518
280.519
280.522
280.526
280.532
280.538
280.543
280.547
280.514
280.507
280.503
280.505
280.511
280.521
280.533
280.547
280.559
280.568
280.523
280.511
280.506
280.509
280.519
280.536
280.556
280.579
280.599
280.614
280.536
280.517
280.51
280.514
280.529
280.554
280.586
280.621
280.654
280.678
280.498
280.472
280.462
280.467
280.487
280.521
280.565
280.615
280.662
280.699
280.537
280.507
280.495
280.501
280.527
280.569
280.624
280.687
280.748
280.796
280.476
280.44
280.426
280.433
280.462
280.511
280.576
280.651
280.726
280.787
280.893
280.86
280.845
280.854
280.885
280.938
281.009
281.091
281.174
281.237
280.788
280.778
280.777
280.777
280.778
280.778
280.778
280.779
280.78
280.791
280.509
280.508
280.507
280.507
280.508
280.509
280.511
280.512
280.515
280.517
280.549
280.547
280.547
280.547
280.549
280.552
280.555
280.558
280.561
280.563
280.531
280.526
280.524
280.525
280.529
280.535
280.542
280.551
280.558
280.564
280.548
280.54
280.537
280.539
280.545
280.556
280.569
280.583
280.596
280.605
280.562
280.55
280.545
280.547
280.558
280.574
280.595
280.618
280.639
280.654
280.526
280.508
280.501
280.505
280.519
280.542
280.571
280.604
280.634
280.658
280.579
280.558
280.55
280.555
280.573
280.602
280.64
280.682
280.722
280.752
280.505
280.479
280.469
280.474
280.495
280.529
280.574
280.625
280.674
280.713
280.896
280.874
280.863
280.869
280.891
280.929
280.978
281.034
281.089
281.127
280.78
280.771
280.771
280.771
280.771
280.771
280.771
280.771
280.772
280.781
280.515
280.513
280.513
280.513
280.513
280.514
280.515
280.516
280.518
280.521
280.573
280.573
280.572
280.573
280.574
280.576
280.577
280.579
280.58
280.581
280.542
280.539
280.537
280.538
280.54
280.544
280.548
280.553
280.558
280.562
280.566
280.561
280.559
280.56
280.564
280.571
280.579
280.588
280.595
280.601
280.579
280.571
280.568
280.57
280.576
280.587
280.601
280.615
280.628
280.638
280.545
280.533
280.528
280.531
280.54
280.555
280.575
280.596
280.615
280.629
280.613
280.599
280.593
280.597
280.609
280.629
280.654
280.681
280.707
280.725
280.521
280.502
280.496
280.499
280.513
280.537
280.567
280.6
280.632
280.657
280.891
280.876
280.868
280.872
280.888
280.913
280.947
280.983
281.019
281.041
280.776
280.769
280.769
280.768
280.769
280.769
280.769
280.769
280.769
280.777
280.513
280.511
280.51
280.51
280.51
280.511
280.512
280.513
280.515
280.518
280.595
280.595
280.595
280.596
280.596
280.597
280.598
280.599
280.599
280.599
280.548
280.546
280.545
280.545
280.546
280.549
280.552
280.555
280.557
280.56
280.577
280.574
280.572
280.573
280.576
280.58
280.585
280.59
280.595
280.598
280.588
280.583
280.581
280.582
280.586
280.593
280.602
280.611
280.619
280.625
280.556
280.549
280.546
280.548
280.554
280.563
280.576
280.588
280.6
280.609
280.638
280.629
280.625
280.627
280.635
280.648
280.665
280.682
280.699
280.71
280.523
280.511
280.506
280.509
280.518
280.533
280.553
280.574
280.594
280.61
280.884
280.875
280.87
280.872
280.883
280.9
280.922
280.945
280.968
280.98
280.791
280.785
280.785
280.785
280.785
280.785
280.785
280.785
280.785
280.791
280.498
280.496
280.496
280.496
280.496
280.497
280.497
280.498
280.5
280.503
280.612
280.612
280.612
280.612
280.613
280.613
280.614
280.614
280.615
280.614
280.55
280.549
280.548
280.549
280.549
280.551
280.552
280.554
280.555
280.556
280.581
280.579
280.578
280.579
280.58
280.583
280.586
280.589
280.592
280.594
280.59
280.586
280.585
280.585
280.588
280.592
280.598
280.603
280.608
280.612
280.561
280.557
280.555
280.557
280.56
280.567
280.574
280.582
280.588
280.593
280.651
280.645
280.642
280.643
280.648
280.657
280.667
280.679
280.69
280.696
280.51
280.501
280.499
280.5
280.506
280.516
280.528
280.542
280.553
280.564
280.891
280.886
280.882
280.884
280.89
280.901
280.916
280.93
280.945
280.951
280.842
280.838
280.838
280.838
280.838
280.838
280.838
280.838
280.838
280.842
280.463
280.462
280.462
280.463
280.463
280.463
280.463
280.463
280.464
280.467
280.617
280.616
280.616
280.615
280.615
280.616
280.616
280.617
280.618
280.619
280.55
280.549
280.55
280.55
280.551
280.551
280.552
280.553
280.553
280.553
280.58
280.579
280.578
280.578
280.579
280.581
280.583
280.585
280.587
280.588
280.585
280.583
280.582
280.582
280.584
280.586
280.59
280.593
280.597
280.599
280.561
280.559
280.558
280.559
280.562
280.565
280.57
280.575
280.578
280.58
280.64
280.636
280.633
280.634
280.637
280.643
280.65
280.658
280.666
280.671
280.472
280.467
280.466
280.467
280.471
280.478
280.485
280.493
280.5
280.505
280.928
280.924
280.922
280.923
280.927
280.935
280.944
280.954
280.964
280.967
280.924
280.921
280.921
280.92
280.92
280.92
280.921
280.921
280.922
280.926
280.405
280.407
280.409
280.41
280.411
280.411
280.41
280.408
280.406
280.406
280.606
280.604
280.602
280.601
280.601
280.602
280.603
280.604
280.606
280.609
280.55
280.551
280.551
280.552
280.552
280.552
280.553
280.553
280.553
280.552
280.577
280.575
280.575
280.575
280.576
280.577
280.578
280.58
280.581
280.582
280.579
280.577
280.577
280.577
280.578
280.58
280.582
280.585
280.587
280.589
280.56
280.559
280.558
280.559
280.561
280.563
280.567
280.57
280.572
280.573
280.608
280.604
280.602
280.602
280.605
280.609
280.614
280.62
280.627
280.633
280.412
280.41
280.409
280.411
280.414
280.418
280.424
280.429
280.432
280.432
280.988
280.984
280.982
280.983
280.986
280.992
280.999
281.006
281.014
281.016
289.472
291.23
291.495
289.906
290.638
292.768
293.177
291.517
292.3
294.926
295.461
293.488
293.582
296.649
297.317
295.134
294.527
298.004
298.814
296.49
295.276
299.132
300.101
297.906
295.822
300.039
301.199
299.33
296.294
300.834
302.201
300.71
296.508
301.349
302.929
301.863
297.067
302.098
303.945
303.463
286.16
286.707
286.688
286.164
287.457
288.1
288.038
287.385
289.062
289.866
289.754
288.895
290.502
291.452
291.281
290.23
291.679
292.77
292.533
291.298
292.701
293.929
293.668
292.274
293.508
294.866
294.617
293.088
294.204
295.668
295.44
293.801
294.642
296.17
295.971
294.267
295.428
296.929
296.84
295.19
282.25
282.384
282.415
282.347
282.979
283.197
283.237
283.1
284.146
284.484
284.528
284.278
285.414
285.872
285.912
285.532
286.578
287.151
287.179
286.656
287.713
288.399
288.412
287.751
288.705
289.5
289.5
288.714
289.644
290.531
290.522
289.631
290.403
291.331
291.32
290.379
291.647
292.504
292.532
291.669
281.482
281.548
281.569
281.548
281.74
281.825
281.855
281.833
282.449
282.597
282.639
282.586
283.326
283.547
283.599
283.498
284.168
284.467
284.524
284.36
285.058
285.438
285.496
285.258
285.876
286.337
286.393
286.074
286.713
287.246
287.297
286.897
287.469
288.035
288.082
287.627
288.813
289.305
289.366
288.953
281.05
281.087
281.099
281.087
281.088
281.117
281.132
281.131
281.538
281.596
281.621
281.617
282.15
282.248
282.287
282.271
282.746
282.894
282.946
282.908
283.414
283.618
283.68
283.611
284.039
284.303
284.372
284.262
284.714
285.034
285.106
284.948
285.351
285.701
285.771
285.573
286.604
286.882
286.958
286.797
280.88
280.909
280.918
280.907
280.782
280.795
280.802
280.802
281.087
281.113
281.126
281.127
281.528
281.575
281.597
281.598
281.956
282.03
282.064
282.061
282.456
282.564
282.61
282.598
282.921
283.07
283.126
283.099
283.445
283.632
283.696
283.648
283.947
284.157
284.222
284.151
285.069
285.211
285.279
285.248
280.798
280.824
280.832
280.82
280.615
280.621
280.624
280.625
280.826
280.838
280.845
280.846
281.155
281.178
281.19
281.192
281.473
281.511
281.531
281.533
281.858
281.916
281.945
281.947
282.21
282.292
282.33
282.33
282.616
282.723
282.77
282.762
282.996
283.12
283.169
283.151
283.993
284.05
284.102
284.128
280.763
280.789
280.796
280.784
280.532
280.535
280.536
280.537
280.677
280.683
280.686
280.687
280.923
280.935
280.942
280.944
281.162
281.183
281.194
281.197
281.465
281.497
281.514
281.518
281.734
281.78
281.805
281.809
282.053
282.114
282.146
282.148
282.333
282.405
282.44
282.439
283.226
283.231
283.266
283.312
280.751
280.776
280.783
280.772
280.493
280.495
280.496
280.496
280.593
280.596
280.598
280.598
280.777
280.783
280.787
280.788
280.957
280.968
280.974
280.976
281.195
281.213
281.223
281.226
281.4
281.426
281.441
281.445
281.652
281.688
281.708
281.712
281.857
281.9
281.922
281.926
282.663
282.637
282.658
282.709
280.749
280.774
280.781
280.769
280.48
280.481
280.482
280.482
280.549
280.551
280.552
280.552
280.686
280.689
280.692
280.692
280.82
280.826
280.83
280.831
281.007
281.017
281.024
281.026
281.16
281.176
281.185
281.188
281.361
281.382
281.394
281.398
281.509
281.534
281.548
281.552
282.238
282.195
282.208
282.258
280.75
280.775
280.782
280.77
280.481
280.482
280.483
280.483
280.531
280.532
280.533
280.533
280.63
280.632
280.634
280.634
280.731
280.734
280.737
280.737
280.876
280.883
280.886
280.888
280.987
280.997
281.002
281.004
281.149
281.161
281.169
281.171
281.25
281.265
281.274
281.277
281.913
281.861
281.868
281.916
280.751
280.777
280.783
280.771
280.49
280.49
280.491
280.491
280.528
280.529
280.529
280.529
280.598
280.599
280.6
280.6
280.673
280.676
280.677
280.677
280.786
280.79
280.793
280.793
280.862
280.868
280.872
280.873
280.995
281.002
281.007
281.008
281.058
281.067
281.072
281.074
281.661
281.606
281.609
281.653
280.75
280.776
280.783
280.77
280.5
280.501
280.501
280.501
280.535
280.535
280.536
280.536
280.58
280.581
280.581
280.581
280.638
280.639
280.64
280.641
280.725
280.728
280.729
280.73
280.773
280.777
280.779
280.78
280.885
280.889
280.892
280.893
280.914
280.92
280.923
280.925
281.464
281.409
281.41
281.451
280.746
280.772
280.779
280.767
280.511
280.511
280.511
280.511
280.547
280.548
280.548
280.548
280.57
280.571
280.572
280.572
280.618
280.619
280.619
280.619
280.685
280.686
280.687
280.688
280.71
280.712
280.713
280.714
280.809
280.812
280.813
280.814
280.808
280.811
280.814
280.814
281.309
281.256
281.255
281.293
280.741
280.767
280.773
280.761
280.518
280.519
280.519
280.519
280.563
280.563
280.563
280.563
280.566
280.566
280.567
280.567
280.607
280.608
280.608
280.608
280.658
280.659
280.66
280.66
280.665
280.666
280.667
280.668
280.759
280.761
280.762
280.762
280.729
280.731
280.732
280.732
281.186
281.137
281.136
281.17
280.734
280.76
280.767
280.754
280.522
280.523
280.523
280.523
280.581
280.58
280.58
280.58
280.563
280.564
280.564
280.564
280.602
280.602
280.602
280.602
280.64
280.641
280.641
280.641
280.634
280.635
280.635
280.635
280.729
280.73
280.731
280.731
280.668
280.67
280.671
280.671
281.089
281.045
281.045
281.074
280.733
280.759
280.765
280.752
280.52
280.52
280.521
280.521
280.599
280.599
280.598
280.598
280.561
280.561
280.561
280.561
280.598
280.599
280.599
280.599
280.627
280.627
280.627
280.627
280.611
280.612
280.612
280.612
280.712
280.713
280.713
280.714
280.619
280.621
280.621
280.621
281.017
280.981
280.98
281.004
280.752
280.777
280.781
280.768
280.506
280.507
280.507
280.508
280.614
280.614
280.614
280.614
280.557
280.557
280.557
280.557
280.594
280.595
280.595
280.595
280.614
280.614
280.614
280.614
280.594
280.594
280.594
280.594
280.699
280.7
280.7
280.7
280.572
280.573
280.573
280.572
280.978
280.95
280.95
280.969
280.811
280.832
280.836
280.824
280.471
280.472
280.472
280.472
280.62
280.62
280.62
280.621
280.553
280.553
280.552
280.552
280.589
280.589
280.589
280.589
280.601
280.601
280.601
280.601
280.58
280.58
280.579
280.579
280.677
280.678
280.679
280.679
280.51
280.511
280.511
280.51
280.986
280.969
280.969
280.981
280.908
280.921
280.923
280.915
280.407
280.408
280.407
280.407
280.613
280.614
280.614
280.615
280.55
280.55
280.55
280.549
280.583
280.584
280.584
280.584
280.591
280.591
280.591
280.591
280.571
280.57
280.57
280.57
280.643
280.645
280.646
280.645
280.428
280.427
280.427
280.426
281.033
281.029
281.029
281.032
282.18
280.88
280.337
279.99
279.695
279.454
279.262
279.11
278.989
278.884
282.325
281.086
280.252
279.727
279.311
279.003
278.776
278.605
278.477
278.372
282.899
281.593
280.462
279.823
279.323
278.975
278.721
278.531
278.387
278.273
283.495
282.129
280.73
280.026
279.461
279.09
278.816
278.611
278.455
278.33
283.973
282.584
280.939
280.185
279.56
279.169
278.877
278.66
278.494
278.36
284.523
283.076
281.209
280.419
279.734
279.326
279.012
278.78
278.599
278.448
285.005
283.476
281.41
280.597
279.855
279.433
279.098
278.851
278.656
278.495
285.572
283.966
281.713
280.884
280.083
279.644
279.279
279.009
278.786
278.593
286.021
284.358
281.926
281.121
280.286
279.842
279.442
279.142
278.89
278.672
287.753
286.09
283.503
282.644
281.683
281.114
280.589
280.185
279.85
279.556
283.978
282.668
281.681
280.968
280.474
280.128
279.877
279.689
279.544
279.423
284.424
282.637
281.307
280.447
279.893
279.515
279.246
279.05
278.908
278.801
285.02
282.826
281.238
280.308
279.713
279.316
279.036
278.835
278.692
278.589
285.509
283.013
281.232
280.279
279.657
279.254
278.973
278.774
278.633
278.533
285.776
283.069
281.158
280.199
279.556
279.155
278.877
278.684
278.55
278.456
285.976
283.139
281.136
280.189
279.53
279.136
278.861
278.674
278.542
278.447
286.021
283.121
281.047
280.129
279.458
279.077
278.807
278.625
278.497
278.406
286.077
283.179
281.05
280.175
279.492
279.126
278.854
278.672
278.536
278.433
286.035
283.169
280.992
280.197
279.53
279.193
278.915
278.724
278.577
278.462
286.944
284.23
282.058
281.314
280.598
280.205
279.858
279.612
279.418
279.274
282.11
281.731
281.361
281.031
280.749
280.512
280.315
280.151
280.014
279.896
282.571
281.889
281.271
280.76
280.346
280.018
279.761
279.56
279.404
279.286
283.344
282.327
281.46
280.792
280.276
279.883
279.586
279.361
279.191
279.067
284.114
282.775
281.674
280.878
280.282
279.847
279.526
279.289
279.113
278.986
284.69
283.067
281.765
280.871
280.216
279.756
279.424
279.183
279.007
278.88
285.199
283.338
281.865
280.902
280.204
279.731
279.393
279.151
278.974
278.847
285.546
283.49
281.872
280.865
280.139
279.661
279.323
279.083
278.908
278.782
285.869
283.669
281.931
280.906
280.159
279.686
279.345
279.104
278.924
278.789
286.073
283.755
281.918
280.914
280.176
279.721
279.378
279.131
278.942
278.798
287.062
284.739
282.865
281.883
281.116
280.624
280.236
279.951
279.731
279.571
281.504
281.357
281.18
280.999
280.829
280.674
280.536
280.416
280.31
280.213
281.71
281.421
281.091
280.774
280.494
280.254
280.053
279.887
279.751
279.644
282.339
281.854
281.344
280.889
280.504
280.188
279.933
279.729
279.569
279.447
283.073
282.356
281.649
281.057
280.578
280.2
279.904
279.673
279.496
279.362
283.701
282.74
281.84
281.128
280.569
280.144
279.82
279.573
279.385
279.246
284.317
283.116
282.035
281.22
280.598
280.138
279.794
279.537
279.342
279.198
284.806
283.377
282.132
281.235
280.562
280.08
279.724
279.461
279.264
279.118
285.28
283.648
282.257
281.302
280.593
280.099
279.734
279.466
279.261
279.108
285.649
283.826
282.31
281.332
280.612
280.12
279.749
279.473
279.262
279.101
286.695
284.769
283.194
282.209
281.46
280.94
280.538
280.237
280.005
279.837
281.096
281.049
280.978
280.894
280.806
280.719
280.636
280.559
280.486
280.414
281.103
280.989
280.834
280.667
280.502
280.348
280.209
280.088
279.984
279.899
281.556
281.35
281.086
280.817
280.564
280.339
280.145
279.981
279.847
279.741
282.15
281.813
281.414
281.032
280.69
280.397
280.153
279.954
279.794
279.669
282.696
282.202
281.656
281.16
280.735
280.384
280.101
279.874
279.695
279.558
283.276
282.61
281.912
281.309
280.809
280.41
280.095
279.848
279.654
279.507
283.77
282.924
282.076
281.378
280.814
280.377
280.039
279.777
279.575
279.421
284.272
283.247
282.259
281.482
280.868
280.405
280.049
279.776
279.563
279.402
284.689
283.483
282.369
281.541
280.897
280.421
280.052
279.77
279.551
279.382
285.727
284.399
283.213
282.353
281.679
281.178
280.786
280.485
280.252
280.083
280.922
280.905
280.872
280.831
280.785
280.736
280.688
280.641
280.593
280.542
280.791
280.74
280.664
280.574
280.478
280.383
280.293
280.211
280.138
280.077
281.106
281.009
280.87
280.714
280.555
280.405
280.268
280.147
280.043
279.958
281.558
281.394
281.171
280.933
280.702
280.492
280.306
280.147
280.014
279.907
281.989
281.736
281.414
281.086
280.782
280.513
280.284
280.093
279.935
279.811
282.48
282.119
281.685
281.266
280.89
280.569
280.302
280.083
279.905
279.766
282.914
282.431
281.88
281.371
280.93
280.564
280.265
280.025
279.832
279.683
283.376
282.763
282.094
281.505
281.007
280.605
280.282
280.024
279.819
279.659
283.77
283.014
282.236
281.586
281.049
280.623
280.283
280.013
279.799
279.633
284.753
283.893
283.045
282.353
281.782
281.332
280.972
280.687
280.463
280.299
280.839
280.832
280.817
280.797
280.773
280.746
280.719
280.691
280.661
280.625
280.621
280.597
280.558
280.509
280.455
280.398
280.342
280.289
280.241
280.199
280.837
280.789
280.715
280.625
280.528
280.432
280.339
280.255
280.18
280.116
281.177
281.093
280.968
280.824
280.674
280.53
280.396
280.276
280.172
280.086
281.507
281.374
281.185
280.976
280.768
280.573
280.398
280.245
280.115
280.01
281.903
281.708
281.444
281.164
280.894
280.65
280.436
280.253
280.1
279.976
282.259
281.988
281.64
281.286
280.956
280.666
280.418
280.209
280.037
279.901
282.653
282.295
281.859
281.435
281.051
280.722
280.445
280.216
280.028
279.879
282.987
282.531
282.01
281.527
281.102
280.744
280.446
280.203
280.005
279.849
283.893
283.362
282.781
282.255
281.797
281.415
281.099
280.843
280.635
280.483
280.803
280.802
280.795
280.784
280.771
280.757
280.742
280.725
280.705
280.679
280.535
280.522
280.502
280.475
280.444
280.411
280.377
280.344
280.313
280.286
280.682
280.657
280.616
280.564
280.506
280.445
280.385
280.328
280.276
280.231
280.936
280.891
280.82
280.732
280.637
280.54
280.447
280.361
280.284
280.219
281.184
281.112
281.001
280.869
280.73
280.593
280.465
280.349
280.247
280.162
281.499
281.39
281.23
281.047
280.859
280.68
280.516
280.371
280.246
280.142
281.779
281.625
281.407
281.168
280.931
280.71
280.513
280.341
280.195
280.077
282.102
281.894
281.614
281.318
281.034
280.776
280.55
280.356
280.193
280.061
282.367
282.098
281.757
281.412
281.088
280.802
280.554
280.345
280.17
280.03
283.19
282.872
282.485
282.102
281.748
281.439
281.175
280.953
280.77
280.635
280.791
280.791
280.788
280.782
280.776
280.768
280.759
280.749
280.736
280.715
280.495
280.488
280.477
280.462
280.444
280.425
280.405
280.384
280.365
280.349
280.596
280.581
280.558
280.528
280.493
280.455
280.417
280.38
280.345
280.315
280.784
280.759
280.718
280.664
280.604
280.541
280.478
280.418
280.363
280.316
280.97
280.929
280.862
280.779
280.688
280.594
280.503
280.418
280.342
280.277
281.217
281.154
281.057
280.938
280.81
280.683
280.562
280.451
280.353
280.27
281.432
281.342
281.206
281.047
280.88
280.718
280.567
280.431
280.313
280.215
281.691
281.568
281.39
281.189
280.984
280.789
280.612
280.455
280.32
280.208
281.893
281.734
281.514
281.274
281.036
280.815
280.617
280.445
280.297
280.176
282.636