/*--------------------------------*- C++ -*----------------------------------*\
| =========                 |                                                 |
| \\      /  F ield         | foam-extend: Open Source CFD                    |
|  \\    /   O peration     | Version:     4.0                                |
|   \\  /    A nd           | Web:         http://www.foam-extend.org         |
|    \\/     M anipulation  |                                                 |
\*---------------------------------------------------------------------------*/
FoamFile
{
    version     2.0;
    format      ascii;
    class       volScalarField;
    location    "3000";
    object      divFlux;
}
// * * * * * * * * * * * * * * * * * * * * * * * * * * * * * * * * * * * * * //

dimensions      [1 -3 -1 0 0 0 0];

internalField   nonuniform List<scalar> 
34480
(
0.0382172
0.0122006
0.012483
0.0115363
0.0104865
0.00948343
0.00854498
0.00769342
0.0069575
0.00633632
0.00987526
0.00499494
0.00503199
0.00486927
0.00471637
0.00453027
0.00427448
0.00396321
0.00363608
0.00332623
0.00230488
0.0015164
0.00154623
0.00157031
0.00161719
0.00165628
0.00164803
0.00158101
0.00147336
0.00134854
0.000643816
0.000480787
0.000492154
0.000507598
0.000533662
0.000561188
0.00057351
0.00056105
0.000526653
0.000478632
0.00017915
0.0001458
0.000150648
0.000157222
0.000167311
0.000178525
0.000185093
0.000182666
0.000170885
0.000152428
4.06631e-05
3.63904e-05
3.91292e-05
4.22156e-05
4.60564e-05
4.99862e-05
5.22164e-05
5.13037e-05
4.6879e-05
4.04752e-05
7.28909e-07
1.33261e-06
3.23673e-06
4.97667e-06
6.53724e-06
7.72526e-06
8.14487e-06
7.52178e-06
5.79015e-06
3.5862e-06
1.3067e-05
9.73092e-06
8.08719e-06
6.78713e-06
5.96197e-06
5.65399e-06
5.80214e-06
6.29571e-06
7.0068e-06
7.80721e-06
1.98962e-05
1.56277e-05
1.35877e-05
1.19394e-05
1.0828e-05
1.02588e-05
1.01196e-05
1.02886e-05
1.05661e-05
1.09451e-05
2.1658e-05
1.74554e-05
1.53593e-05
1.35975e-05
1.22383e-05
1.13173e-05
1.08416e-05
1.07818e-05
1.09745e-05
1.14044e-05
0.0494904
0.0141563
0.0144545
0.0135288
0.0124902
0.0115697
0.0107893
0.0101809
0.00980419
0.0103448
0.013916
0.00640929
0.00646572
0.00627217
0.00607724
0.00592101
0.00578239
0.00564371
0.00552356
0.00590417
0.00349118
0.00214159
0.00218758
0.00222285
0.00229
0.00235972
0.00241308
0.00243295
0.00241453
0.00258385
0.00106628
0.000754322
0.000771121
0.000792471
0.000832673
0.000877227
0.000914386
0.000934044
0.000927916
0.000982526
0.00032047
0.000250216
0.000257195
0.000266754
0.000282313
0.000300885
0.000316213
0.000323755
0.000318399
0.000329566
7.47409e-05
6.54428e-05
7.00176e-05
7.49011e-05
8.06904e-05
8.68808e-05
9.12017e-05
9.19781e-05
8.72688e-05
8.53153e-05
7.27376e-06
1.45871e-06
2.44621e-06
5.60885e-06
7.88153e-06
9.12845e-06
9.01476e-06
7.16112e-06
3.52511e-06
1.00375e-06
3.63919e-05
2.66603e-05
2.2639e-05
1.98165e-05
1.85054e-05
1.88485e-05
2.04272e-05
2.30988e-05
2.5842e-05
3.03225e-05
5.93718e-05
4.55171e-05
3.97453e-05
3.53336e-05
3.25481e-05
3.16549e-05
3.23412e-05
3.44326e-05
3.64158e-05
4.06145e-05
6.85586e-05
5.39011e-05
4.76317e-05
4.25516e-05
3.87901e-05
3.67751e-05
3.6386e-05
3.75428e-05
3.92202e-05
4.37431e-05
0.0498965
0.0122221
0.0127092
0.0120487
0.0113212
0.010713
0.0102578
0.00999756
0.0100448
0.0290475
0.0135461
0.00529005
0.00539371
0.00519509
0.00502126
0.00493603
0.00492856
0.0049901
0.00517049
0.0100272
0.00319944
0.00168239
0.00171349
0.00171122
0.00173081
0.00178369
0.00186944
0.001975
0.00210929
0.000898095
0.000927128
0.000568589
0.000576609
0.000580696
0.000596282
0.000623041
0.000664133
0.00071441
0.000772906
0.000901472
0.000266719
0.000182706
0.000185765
0.000188079
0.000194477
0.000204525
0.000219358
0.000237586
0.000257281
0.00029803
6.22974e-05
4.80673e-05
5.04778e-05
5.24939e-05
5.51861e-05
5.86034e-05
6.28909e-05
6.75834e-05
7.13606e-05
7.84501e-05
9.00759e-07
2.18673e-06
4.51262e-06
6.45853e-06
7.96207e-06
9.00136e-06
9.50555e-06
9.16443e-06
7.24578e-06
2.99734e-06
2.03707e-05
1.32561e-05
1.09005e-05
8.90959e-06
7.66734e-06
7.32553e-06
8.00328e-06
1.00223e-05
1.37755e-05
2.1507e-05
3.05581e-05
2.11106e-05
1.846e-05
1.61261e-05
1.45256e-05
1.38701e-05
1.43553e-05
1.64024e-05
2.0505e-05
2.98055e-05
3.02774e-05
2.11296e-05
1.88261e-05
1.68116e-05
1.54302e-05
1.4828e-05
1.50837e-05
1.66541e-05
2.06021e-05
3.16835e-05
0.0504788
0.0111084
0.0116644
0.0111979
0.0106539
0.0102077
0.00989589
0.0084794
0.000283557
0.0176763
0.013949
0.00500108
0.00511337
0.00491228
0.00472321
0.00460824
0.0045774
0.00463635
0.00374655
0.00840834
0.00331448
0.00162626
0.00165337
0.00163184
0.00162531
0.00164992
0.00171064
0.00180633
0.00193778
0.00279808
0.000972382
0.000563691
0.000570438
0.000568738
0.000574048
0.000589988
0.000620444
0.000665153
0.000723121
0.000169829
0.000283393
0.000185468
0.000188237
0.000189008
0.000192646
0.000199117
0.000210453
0.000226696
0.000246825
0.000347425
6.75332e-05
5.00748e-05
5.24426e-05
5.41448e-05
5.62284e-05
5.8758e-05
6.21893e-05
6.64823e-05
7.0859e-05
0.000196288
1.28589e-07
2.90873e-06
5.25426e-06
7.19535e-06
8.67259e-06
9.67649e-06
1.01654e-05
9.91848e-06
8.40709e-06
5.10363e-06
2.06245e-05
1.32003e-05
1.08449e-05
8.82113e-06
7.49255e-06
6.96968e-06
7.45317e-06
9.29459e-06
1.2884e-05
1.93936e-05
3.0575e-05
2.09922e-05
1.84658e-05
1.62294e-05
1.46623e-05
1.39265e-05
1.43005e-05
1.6258e-05
2.03865e-05
2.86126e-05
2.99941e-05
2.087e-05
1.87082e-05
1.68246e-05
1.55547e-05
1.49972e-05
1.53269e-05
1.7013e-05
2.1067e-05
3.1095e-05
0.0499419
0.00988563
0.0104873
0.010171
0.00975459
0.00940439
0.00726706
0.00372706
0.000868376
0.00932513
0.0140464
0.00462328
0.00475625
0.0045799
0.0043962
0.00425994
0.00418364
0.00417636
0.00169644
0.00490073
0.00339381
0.0015484
0.00157492
0.00154155
0.00151643
0.00151419
0.00153939
0.00159492
0.00157557
0.00148095
0.00101048
0.000551081
0.00055769
0.000551372
0.000549096
0.000554722
0.000571156
0.000599761
0.000639411
0.000135646
0.000298132
0.000185568
0.000188354
0.000188199
0.000189317
0.00019255
0.000199311
0.000210191
0.000224678
0.000479224
7.20995e-05
5.12592e-05
5.36831e-05
5.51622e-05
5.67252e-05
5.84127e-05
6.0681e-05
6.36626e-05
6.7004e-05
0.000425824
9.21845e-07
3.49641e-06
5.84496e-06
7.7612e-06
9.19439e-06
1.014e-05
1.05802e-05
1.03906e-05
9.26968e-06
0.000255648
2.09053e-05
1.30023e-05
1.07066e-05
8.71588e-06
7.35821e-06
6.70373e-06
6.93706e-06
8.3401e-06
1.12255e-05
0.000140233
3.05112e-05
2.0564e-05
1.82006e-05
1.61046e-05
1.46242e-05
1.38635e-05
1.40785e-05
1.56785e-05
1.9184e-05
1.8849e-05
2.96912e-05
2.0303e-05
1.82951e-05
1.65484e-05
1.53739e-05
1.48534e-05
1.51907e-05
1.67941e-05
2.04315e-05
2.89017e-05
0.0483389
0.00860084
0.00921135
0.00900544
0.00853822
0.00710663
0.00536391
0.00355878
0.00138064
0.00233679
0.0137663
0.00416323
0.00431372
0.00417252
0.0040122
0.00388028
0.00378556
0.00332847
0.00156973
0.00188832
0.00342642
0.00144868
0.00147632
0.00143729
0.00140116
0.0013804
0.00137791
0.00139578
0.00132711
0.000337356
0.00103775
0.000530592
0.000537461
0.000527863
0.000520083
0.000517686
0.000522506
0.000535554
0.000586395
0.00040604
0.000309953
0.000182876
0.000185915
0.000184792
0.000184058
0.000184675
0.000187557
0.000193176
0.00020094
0.000509713
7.59462e-05
5.16597e-05
5.41557e-05
5.54691e-05
5.65352e-05
5.75322e-05
5.87893e-05
6.04466e-05
6.22822e-05
0.000443368
1.64582e-06
4.00806e-06
6.33876e-06
8.21119e-06
9.58642e-06
1.0471e-05
1.08667e-05
1.07225e-05
9.89272e-06
0.000311357
2.10522e-05
1.26394e-05
1.04353e-05
8.50404e-06
7.14431e-06
6.39819e-06
6.40902e-06
7.36179e-06
9.43414e-06
0.000238536
3.02876e-05
1.99073e-05
1.77105e-05
1.57566e-05
1.43619e-05
1.36045e-05
1.36884e-05
1.49074e-05
1.7617e-05
0.000161714
2.93058e-05
1.95413e-05
1.76845e-05
1.60647e-05
1.49667e-05
1.44677e-05
1.47646e-05
1.61728e-05
1.9206e-05
0.000128864
0.0454154
0.00689145
0.0073977
0.00702618
0.00628619
0.00556475
0.00460853
0.00375472
0.00263293
0.000959198
0.0131299
0.00365089
0.00380934
0.00370221
0.00357042
0.00345658
0.00334974
0.00289271
0.00181968
3.76239e-05
0.00339609
0.00132829
0.00135872
0.00132034
0.00128107
0.00125153
0.00123352
0.00122804
0.00118644
0.000237484
0.00104898
0.000501643
0.000509399
0.000498447
0.00048774
0.000480416
0.000477566
0.000479679
0.000609049
0.00049243
0.000317283
0.000177018
0.000180405
0.000178738
0.000176868
0.000175721
0.000175877
0.0001776
0.000180123
0.000462033
7.87792e-05
5.11527e-05
5.37326e-05
5.48984e-05
5.56214e-05
5.61312e-05
5.66525e-05
5.72908e-05
5.78373e-05
0.000387097
2.37273e-06
4.45563e-06
6.74046e-06
8.55264e-06
9.86471e-06
1.06963e-05
1.10618e-05
1.09544e-05
1.03125e-05
0.000276794
2.09308e-05
1.20694e-05
9.98062e-06
8.13347e-06
6.79373e-06
5.99424e-06
5.83702e-06
6.42081e-06
7.81641e-06
0.000227396
2.97887e-05
1.90076e-05
1.6978e-05
1.5158e-05
1.38448e-05
1.31031e-05
1.30901e-05
1.39891e-05
1.59985e-05
0.000173589
2.87351e-05
1.85778e-05
1.68719e-05
1.53673e-05
1.43339e-05
1.38429e-05
1.40653e-05
1.52264e-05
1.76437e-05
0.000149952
0.041326
0.00491461
0.00551162
0.00545198
0.00505455
0.00470588
0.00415831
0.00378131
0.00312508
0.00240448
0.0122176
0.00312418
0.00328043
0.00320109
0.00309465
0.00300002
0.00288779
0.00258584
0.00197923
0.000993691
0.00328331
0.00118884
0.00122217
0.0011889
0.00115246
0.00112232
0.00109975
0.00112251
0.00106647
0.000511508
0.00103739
0.000463626
0.000472649
0.000462173
0.000451033
0.000441984
0.000435658
0.000432246
0.000565357
0.000479865
0.000318301
0.000167653
0.000171456
0.000169715
0.000167454
0.000165502
0.000164207
0.000163691
0.000205253
0.000383925
8.02159e-05
4.96128e-05
5.22522e-05
5.33308e-05
5.38856e-05
5.41363e-05
5.42323e-05
5.42441e-05
5.8413e-05
0.000311954
3.11494e-06
4.82417e-06
7.02826e-06
8.75854e-06
1.00072e-05
1.07989e-05
1.11529e-05
1.10823e-05
1.0561e-05
0.000219001
2.04464e-05
1.12734e-05
9.32242e-06
7.58193e-06
6.28749e-06
5.47402e-06
5.20388e-06
5.52093e-06
6.42937e-06
0.000185703
2.89263e-05
1.78475e-05
1.59867e-05
1.42987e-05
1.30641e-05
1.23442e-05
1.22533e-05
1.29008e-05
1.43789e-05
0.00014002
2.78917e-05
1.73991e-05
1.58419e-05
1.44494e-05
1.34731e-05
1.29833e-05
1.3114e-05
1.40166e-05
1.58816e-05
0.000121744
0.03777
0.00381656
0.00437149
0.00444308
0.00421258
0.00404612
0.00370171
0.00355094
0.00310587
0.00282498
0.0111236
0.00261547
0.00276175
0.00270389
0.00261832
0.00255347
0.00245138
0.00225489
0.00191303
0.00137731
0.00308746
0.00103596
0.00107052
0.00104354
0.00101227
0.000985427
0.000964146
0.00100026
0.000941205
0.000622219
0.00099911
0.00041721
0.000427201
0.000418119
0.000407968
0.000399226
0.00039231
0.000387295
0.000487949
0.000430689
0.0003117
0.000154794
0.000158905
0.000157365
0.000155199
0.000153145
0.000151412
0.00015005
0.000199643
0.000303845
7.99303e-05
4.69928e-05
4.96227e-05
5.0643e-05
5.11373e-05
5.13074e-05
5.1249e-05
5.10025e-05
8.81349e-05
0.000240327
3.85049e-06
5.08433e-06
7.16633e-06
8.78708e-06
9.96341e-06
1.07201e-05
1.10784e-05
1.10571e-05
1.06362e-05
0.000162915
1.95496e-05
1.02628e-05
8.47043e-06
6.85424e-06
5.63381e-06
4.84081e-06
4.50706e-06
4.6453e-06
2.06729e-06
0.000142135
2.76437e-05
1.64338e-05
1.4744e-05
1.31918e-05
1.20366e-05
1.13433e-05
1.11881e-05
1.16323e-05
1.27152e-05
9.75682e-05
2.67119e-05
1.60032e-05
1.45966e-05
1.33157e-05
1.23962e-05
1.19089e-05
1.19472e-05
1.26083e-05
1.40057e-05
8.63153e-05
0.0342985
0.00309539
0.00355647
0.00367249
0.00352282
0.00344365
0.00320262
0.00315981
0.00282229
0.00274607
0.00992804
0.00214601
0.00227722
0.00223566
0.00218325
0.00212976
0.00204084
0.0019119
0.00171464
0.00140825
0.00282744
0.000879144
0.000912702
0.000891348
0.000865178
0.000842204
0.000823585
0.000855316
0.000806303
0.000624538
0.000936048
0.000364999
0.000375251
0.000367677
0.000358855
0.000351066
0.00034465
0.00033965
0.000402551
0.000369208
0.000297351
0.000139035
0.000143211
0.000141915
0.000139986
0.000138096
0.000136387
0.00013488
0.000170127
0.000232602
7.77667e-05
4.3369e-05
4.58901e-05
4.68295e-05
4.72837e-05
4.74372e-05
4.73551e-05
4.70628e-05
8.76861e-05
0.000177657
4.53556e-06
5.20598e-06
7.12151e-06
8.60151e-06
9.68115e-06
1.03908e-05
1.07507e-05
1.07789e-05
1.04515e-05
0.000113154
1.82385e-05
9.0771e-06
7.46148e-06
5.9893e-06
4.86789e-06
4.11999e-06
3.75976e-06
3.78557e-06
1.19744e-05
0.000102909
2.59201e-05
1.47972e-05
1.32833e-05
1.18701e-05
1.08053e-05
1.01463e-05
9.93773e-06
1.02146e-05
1.09905e-05
6.07729e-05
2.5161e-05
1.44094e-05
1.31548e-05
1.1988e-05
1.11366e-05
1.06591e-05
1.06159e-05
1.1068e-05
1.15954e-05
5.57543e-05
0.0308039
0.00253897
0.00289674
0.00301953
0.00291163
0.00287456
0.00268915
0.00269928
0.00242123
0.00243786
0.00869097
0.00177467
0.00184974
0.00183419
0.00179076
0.00173338
0.0016635
0.00157848
0.00146213
0.00127595
0.00252618
0.000727357
0.000758127
0.000741419
0.000719733
0.000700296
0.000712258
0.000709331
0.000670321
0.000562766
0.000853569
0.000310457
0.00032027
0.000314029
0.000306448
0.000299633
0.000293892
0.000289266
0.000323607
0.000305163
0.000276127
0.000121364
0.000125353
0.000124244
0.000122527
0.000120817
0.000119222
0.000117757
0.000137621
0.000174912
7.37619e-05
3.89305e-05
4.12474e-05
4.2065e-05
4.24501e-05
4.25731e-05
4.24836e-05
4.21979e-05
7.6255e-05
0.000127759
5.10819e-06
5.16577e-06
6.87687e-06
8.18462e-06
9.1417e-06
9.78094e-06
1.01204e-05
1.01789e-05
9.9274e-06
7.28737e-05
1.65518e-05
7.77987e-06
6.35485e-06
5.0446e-06
4.03943e-06
3.35612e-06
2.99712e-06
2.95345e-06
1.5844e-05
7.10797e-05
2.377e-05
1.29901e-05
1.16575e-05
1.03928e-05
9.4317e-06
8.81532e-06
8.56938e-06
8.71319e-06
9.24475e-06
3.37596e-05
2.3232e-05
1.26583e-05
1.15589e-05
1.05143e-05
9.7412e-06
9.28399e-06
9.17928e-06
9.46388e-06
6.77323e-06
3.31727e-05
0.0271218
0.00204202
0.00230387
0.00242092
0.00234176
0.00233059
0.00218427
0.00223027
0.00199478
0.00206149
0.0074513
0.00143432
0.00148545
0.00146273
0.00142197
0.00137435
0.00132371
0.00126852
0.00119938
0.00107899
0.00220231
0.000586611
0.000613417
0.000600477
0.000584655
0.000591533
0.000589273
0.000573134
0.000541982
0.000473966
0.000757459
0.000256625
0.000265472
0.000260375
0.000253929
0.000248035
0.000242985
0.000238815
0.000254036
0.000244061
0.00024934
0.000102833
0.000106433
0.000105463
0.000103924
0.000102369
0.000100892
9.95041e-05
0.000109049
0.000130206
6.80736e-05
3.39246e-05
3.59619e-05
3.66295e-05
3.69213e-05
3.69889e-05
3.6874e-05
3.65906e-05
6.31698e-05
9.08566e-05
5.50406e-06
4.9525e-06
6.42953e-06
7.54432e-06
8.35933e-06
8.90691e-06
9.20469e-06
9.26952e-06
9.06993e-06
4.34757e-05
1.4569e-05
6.44149e-06
5.21816e-06
4.08296e-06
3.20919e-06
2.60504e-06
2.26631e-06
2.18349e-06
1.59747e-05
4.78673e-05
2.12443e-05
1.10819e-05
9.9353e-06
8.82921e-06
7.98186e-06
7.42109e-06
7.16027e-06
7.20472e-06
7.54661e-06
1.55118e-05
2.09505e-05
1.08094e-05
9.86708e-06
8.95417e-06
8.26933e-06
7.84603e-06
7.70261e-06
7.86093e-06
4.85819e-06
1.80556e-05
0.0237855
0.00163885
0.00181196
0.0019049
0.00182997
0.00181424
0.0016745
0.00172408
0.00149332
0.00156521
0.00623829
0.00107956
0.00112761
0.00111285
0.00108642
0.0010549
0.0010235
0.000991602
0.000953793
0.000875018
0.00190085
0.000496379
0.000518761
0.000509785
0.000498349
0.000486127
0.000471337
0.000451655
0.000426254
0.000379485
0.000652735
0.000205682
0.000213223
0.000209119
0.000203741
0.00019875
0.000194418
0.000190778
0.000193649
0.000188691
0.000218381
8.43522e-05
8.74317e-05
8.65797e-05
8.52104e-05
8.38147e-05
8.24742e-05
8.11988e-05
8.5392e-05
9.59531e-05
6.09318e-05
2.86031e-05
3.03174e-05
3.08278e-05
3.10191e-05
3.1025e-05
3.08801e-05
3.30506e-05
5.11749e-05
6.43207e-05
5.65978e-06
4.56598e-06
5.7942e-06
6.70753e-06
7.37155e-06
7.81599e-06
8.05852e-06
8.11358e-06
7.94915e-06
2.35108e-05
1.2393e-05
5.13452e-06
4.11793e-06
3.16588e-06
2.43125e-06
1.9163e-06
1.61459e-06
3.12869e-06
1.51117e-05
3.21912e-05
1.84259e-05
9.15008e-06
8.19102e-06
7.25262e-06
6.52818e-06
6.03575e-06
5.77943e-06
5.75877e-06
5.96151e-06
4.04205e-06
1.83726e-05
8.93214e-06
8.14683e-06
7.37148e-06
6.78561e-06
6.40806e-06
6.24964e-06
6.31944e-06
3.9191e-06
8.80328e-06
0.0195299
0.00126498
0.00140496
0.00153432
0.00152815
0.00156782
0.00148918
0.00159044
0.00139595
0.00150028
0.00506932
0.000787673
0.00084228
0.000828986
0.000801295
0.000772996
0.00074788
0.000726547
0.000705474
0.000649017
0.00154745
0.000396072
0.000422432
0.000415124
0.000400189
0.000383436
0.000365614
0.000346258
0.000325114
0.000290368
0.000543663
0.000159073
0.000165124
0.000161884
0.000157518
0.00015342
0.000149829
0.000146773
0.000143217
0.00014016
0.000184621
6.66593e-05
6.91483e-05
6.84077e-05
6.7222e-05
6.60062e-05
6.48323e-05
6.37081e-05
6.62035e-05
6.98e-05
5.26168e-05
2.32116e-05
2.45834e-05
2.49478e-05
2.5048e-05
2.50023e-05
2.48373e-05
3.4045e-05
4.08191e-05
4.53182e-05
5.52425e-06
4.02056e-06
4.99976e-06
5.71634e-06
6.23105e-06
6.57248e-06
6.75646e-06
6.79402e-06
6.65484e-06
1.06809e-05
1.01408e-05
3.92419e-06
3.11033e-06
2.34273e-06
1.74888e-06
1.32916e-06
2.96333e-06
9.23647e-06
1.42259e-05
2.21095e-05
1.54262e-05
7.27508e-06
6.50097e-06
5.73223e-06
5.13534e-06
4.72103e-06
4.48766e-06
4.43214e-06
4.539e-06
2.50852e-06
1.55822e-05
7.10195e-06
6.47013e-06
5.83616e-06
5.35277e-06
5.03225e-06
4.87766e-06
4.8928e-06
3.22794e-06
3.6255e-06
0.0156478
0.000586383
0.000499241
0.000472023
0.00037192
0.000341563
0.000241258
0.000347917
0.000163455
0.000305483
0.00396433
0.000581517
0.000630733
0.000632459
0.000623013
0.00061153
0.000600527
0.00059059
0.000580426
0.000556375
0.0011774
0.000278655
0.000319206
0.000320463
0.000309064
0.000293226
0.000275641
0.00025726
0.00023834
0.000209545
0.000434357
0.000117858
0.000122386
0.000119885
0.000116459
0.000113211
0.000110348
0.000107893
0.000105017
9.88947e-05
0.000149476
5.03535e-05
5.22385e-05
5.1617e-05
5.06299e-05
4.96172e-05
4.86352e-05
4.76916e-05
5.06426e-05
4.98655e-05
4.34732e-05
1.79799e-05
1.90174e-05
1.92567e-05
1.92881e-05
2.11513e-05
2.80011e-05
3.10106e-05
3.19134e-05
3.16167e-05
5.07527e-06
3.35077e-06
4.09279e-06
4.62576e-06
5.00488e-06
5.25191e-06
5.37987e-06
5.3993e-06
5.28087e-06
4.73968e-06
0.000198141
6.78888e-05
2.25097e-05
1.30783e-05
1.1594e-05
1.1949e-05
1.27782e-05
1.27835e-05
1.36281e-05
1.59331e-05
1.23757e-05
5.53082e-06
4.93201e-06
4.32984e-06
3.86068e-06
3.5292e-06
3.33246e-06
3.26329e-06
3.31093e-06
3.46403e-06
1.26888e-05
5.39066e-06
4.90398e-06
4.40933e-06
4.02983e-06
3.77255e-06
3.63673e-06
3.62786e-06
2.64137e-06
8.93815e-07
0.0239969
0.00260394
0.00286097
0.00292793
0.00281446
0.00266753
0.00241265
0.00228481
0.00190747
0.00184199
0.00276928
0.00029756
0.000298497
0.000272464
0.000246726
0.000228199
0.00021768
0.000213902
0.000214303
0.000212062
0.00079839
0.000157054
0.000223393
0.000238225
0.000234629
0.000222807
0.00020748
0.000191077
0.000174495
0.0001502
0.000327699
8.23353e-05
8.54952e-05
8.37217e-05
8.12331e-05
7.88359e-05
7.66832e-05
7.47952e-05
7.25509e-05
6.63053e-05
0.00011441
3.58836e-05
3.71985e-05
3.67062e-05
3.59378e-05
3.58068e-05
3.7628e-05
3.8093e-05
3.76503e-05
3.45651e-05
0.000101865
5.10468e-05
3.52161e-05
2.99896e-05
2.84659e-05
2.78785e-05
2.71623e-05
2.56031e-05
2.39251e-05
2.14814e-05
4.33046e-06
2.60676e-06
3.1344e-06
3.50804e-06
3.76818e-06
3.93474e-06
4.01569e-06
4.02014e-06
3.92179e-06
3.4703e-06
0.000628874
0.000274342
0.00012075
6.17787e-05
3.6718e-05
2.4919e-05
1.89165e-05
1.496e-05
1.33374e-05
1.23537e-05
9.41193e-06
3.97844e-06
3.53957e-06
3.09391e-06
2.74635e-06
2.49713e-06
2.34364e-06
2.27954e-06
2.29247e-06
2.3552e-06
9.81586e-06
3.86177e-06
3.50674e-06
3.14326e-06
2.86368e-06
2.67081e-06
2.56299e-06
2.57846e-06
2.17048e-06
6.20765e-07
0.0540738
0.00461769
0.00478053
0.00428178
0.00365457
0.00303482
0.00246461
0.00195462
0.0016177
0.00110376
0.00278827
0.000632822
0.000674975
0.000673289
0.000647911
0.000608296
0.000560813
0.000509621
0.000456083
0.000405919
0.0004821
2.63243e-05
0.000129311
0.000157142
0.000160711
0.000152576
0.00013942
0.000124844
0.0001102
9.05456e-05
0.000230735
5.35035e-05
5.54242e-05
5.41578e-05
5.24192e-05
5.076e-05
4.92831e-05
4.79849e-05
4.63894e-05
4.18274e-05
9.52477e-05
3.78001e-05
3.69523e-05
3.49374e-05
3.30807e-05
3.13982e-05
2.97443e-05
2.79527e-05
2.61036e-05
2.25151e-05
0.000118676
6.88314e-05
4.63173e-05
3.49216e-05
2.84537e-05
2.42518e-05
2.11573e-05
1.84591e-05
1.62929e-05
1.36028e-05
3.35796e-06
1.85068e-06
2.1972e-06
2.43796e-06
2.60403e-06
2.70528e-06
2.75117e-06
2.74527e-06
2.66776e-06
2.31681e-06
0.00106912
0.000468254
0.000203922
9.87433e-05
5.36767e-05
3.26791e-05
2.20619e-05
1.58181e-05
1.27884e-05
1.00963e-05
6.66907e-06
2.66048e-06
2.36085e-06
2.05631e-06
1.81789e-06
1.64648e-06
1.5371e-06
1.48611e-06
1.4849e-06
1.49679e-06
7.09152e-06
2.56033e-06
2.3198e-06
2.07378e-06
1.88483e-06
1.75256e-06
1.67669e-06
1.65328e-06
1.66197e-06
1.35527e-06
0.195328
0.00698138
0.00693114
0.00596572
0.00492073
0.00398413
0.00318799
0.00252083
0.00185108
0.00149317
0.000649589
0.000789842
0.000726153
0.000634394
0.000529725
0.000422073
0.000317132
0.000217206
0.000122068
3.88353e-05
0.000103336
9.42019e-05
7.15796e-05
0.000121174
0.000134614
0.000128938
0.000114203
9.58329e-05
7.57308e-05
5.05712e-05
0.000142028
3.05202e-05
3.1446e-05
3.07747e-05
2.9884e-05
2.90589e-05
2.83605e-05
2.78142e-05
2.71507e-05
2.46126e-05
6.6328e-05
2.87595e-05
2.78062e-05
2.53969e-05
2.30028e-05
2.08578e-05
1.89584e-05
1.72299e-05
1.56011e-05
1.28985e-05
7.90069e-05
4.78905e-05
3.20665e-05
2.34703e-05
1.82846e-05
1.48663e-05
1.24398e-05
1.05449e-05
9.10231e-06
7.33071e-06
2.27759e-06
1.15194e-06
1.35337e-06
1.49204e-06
1.58556e-06
1.63997e-06
1.6608e-06
1.65176e-06
1.59518e-06
1.34895e-06
0.00131148
0.000566896
0.000238198
0.000109814
5.60923e-05
3.18908e-05
2.00636e-05
1.35961e-05
1.03391e-05
7.46441e-06
4.26206e-06
1.59855e-06
1.41512e-06
1.22945e-06
1.08375e-06
9.78765e-07
9.11704e-07
8.78382e-07
8.72195e-07
8.6286e-07
4.63368e-06
1.51288e-06
1.36627e-06
1.21938e-06
1.10684e-06
1.02851e-06
9.82636e-07
1.07841e-06
9.60379e-07
8.63968e-07
0.252924
0.00340092
0.00306203
0.00256298
0.00207503
0.00163976
0.00125771
0.000897625
0.000776632
0.000406284
0.00242099
0.00122341
0.00105581
0.000865629
0.000690354
0.000537758
0.000406506
0.0002923
0.000189337
9.90226e-05
7.94673e-05
0.00019133
2.60809e-05
2.32526e-05
4.47825e-05
5.19151e-05
5.27336e-05
5.14784e-05
4.98548e-05
4.64583e-05
7.48557e-05
1.48441e-05
1.50743e-05
1.44365e-05
1.3598e-05
1.2716e-05
1.18191e-05
1.08894e-05
9.75875e-06
7.70989e-06
3.31916e-05
1.28228e-05
1.24748e-05
1.1441e-05
1.03795e-05
9.41965e-06
8.58115e-06
7.84567e-06
7.13516e-06
5.86547e-06
2.79794e-05
1.73044e-05
1.18214e-05
8.76594e-06
6.86309e-06
5.60269e-06
4.7189e-06
4.05591e-06
3.54839e-06
2.86146e-06
1.23398e-06
5.69657e-07
6.61987e-07
7.26359e-07
7.68629e-07
7.91797e-07
7.99192e-07
7.89972e-07
7.56325e-07
6.10392e-07
0.000860111
0.000386894
0.000156726
6.9468e-05
3.37141e-05
1.8065e-05
1.06595e-05
6.81614e-06
4.85969e-06
3.31077e-06
2.27746e-06
7.92659e-07
6.99425e-07
6.08279e-07
5.3656e-07
4.8555e-07
4.52959e-07
4.36673e-07
4.3234e-07
4.18165e-07
9.08182e-05
8.82404e-05
5.95803e-05
3.48124e-05
1.93529e-05
1.04165e-05
5.40309e-06
2.59384e-06
8.1416e-07
4.81487e-07
0.0489399
0.0015167
0.00130867
0.00103903
0.000790039
0.000576502
0.000397526
0.000238826
8.82219e-05
5.97261e-05
2.71063e-05
0.000198179
0.000167262
0.000130335
9.41498e-05
6.03998e-05
2.90284e-05
6.87389e-07
2.9667e-05
5.67759e-05
0.000124038
4.56101e-05
4.82712e-06
1.38565e-05
1.58345e-05
1.39733e-05
1.0417e-05
6.11044e-06
1.33673e-06
3.56375e-06
2.17477e-05
4.60888e-06
4.75322e-06
4.76273e-06
4.75924e-06
4.77161e-06
4.81005e-06
4.8706e-06
4.87932e-06
4.38262e-06
8.78329e-06
2.77731e-06
2.72764e-06
2.57211e-06
2.40366e-06
2.2427e-06
2.09341e-06
1.95514e-06
1.79638e-06
1.4335e-06
3.49299e-06
2.04989e-06
1.60281e-06
1.34762e-06
1.17334e-06
1.05017e-06
9.58343e-07
8.84756e-07
8.12851e-07
6.49608e-07
3.71781e-07
1.7594e-07
2.04694e-07
2.24968e-07
2.3757e-07
2.44403e-07
2.45975e-07
2.41616e-07
2.28182e-07
1.71141e-07
7.40808e-05
5.6846e-05
2.29286e-05
1.0095e-05
4.65154e-06
2.25095e-06
1.11878e-06
5.40394e-07
2.27373e-07
2.51257e-08
7.48514e-07
2.73594e-07
2.39351e-07
2.09226e-07
1.86113e-07
1.70389e-07
1.59892e-07
1.55158e-07
1.53562e-07
1.43936e-07
0.000207218
0.000121845
7.32858e-05
4.21722e-05
2.37889e-05
1.34249e-05
7.71627e-06
4.55207e-06
2.63992e-06
1.2775e-06
1.24216
1.25717
1.45217
1.88008
0.942134
0.995855
1.1932
1.76108
0.520148
0.504
0.703517
1.16011
0.217759
0.185122
0.328543
0.582006
0.0615599
0.0475705
0.105754
0.194125
0.00286496
0.000203176
0.00123336
0.00269391
0.0255867
0.0144159
0.0360415
0.0795575
0.0317606
0.0173887
0.0463226
0.109094
0.0323412
0.0169198
0.0489941
0.12221
0.0293275
0.0145002
0.0478712
0.126022
0.116754
0.0370222
0.00649223
0.0747165
0.126983
0.0406831
0.00996705
0.0532722
0.085801
0.0269489
0.00604348
0.0314178
0.0433762
0.0126814
0.000443251
0.0228496
0.0143636
0.00336961
0.00163399
0.0103003
0.00155908
0.000195548
0.000191491
8.13013e-05
0.00890601
0.000519065
3.43927e-05
8.03982e-05
0.0119889
8.67616e-05
0.000131242
0.00013136
0.013699
0.000158152
0.000179902
0.000179061
0.0139943
0.000202278
0.000239745
0.000236664
0.117613
0.113297
0.11037
0.13892
0.0976531
0.0885843
0.0854611
0.11869
0.0592738
0.05138
0.0519126
0.0734636
0.0276362
0.023117
0.0258827
0.0374812
0.00844084
0.00724336
0.00935035
0.0143492
0.00149119
0.000100129
0.000577021
0.00149375
0.00642633
0.00354769
0.00376229
0.0052339
0.00878498
0.00503491
0.00544089
0.00784361
0.0105111
0.00581858
0.00615791
0.00893814
0.012419
0.00655969
0.00688005
0.00890022
0.0295786
0.0359081
0.0382142
0.0412272
0.0259105
0.0270126
0.0293317
0.0364065
0.0170099
0.0166055
0.0189155
0.0249959
0.00825413
0.00795836
0.00948411
0.0136231
0.00242666
0.0026123
0.00331481
0.00537208
0.000911368
0.000115066
0.000227806
0.000717343
0.00269786
0.00138179
0.00105519
0.0014857
0.00364433
0.00190664
0.00140082
0.00231264
0.0042714
0.00200261
0.00122166
0.00245569
0.00441818
0.0015804
0.000595592
0.00197835
0.0118296
0.0165144
0.0178521
0.0193478
0.0103747
0.0130951
0.0155308
0.0194131
0.00649033
0.00809102
0.00999169
0.0131377
0.00295093
0.00398895
0.0050899
0.00709379
0.00067922
0.00132762
0.00183706
0.0028298
0.000647181
0.000107153
0.000174342
0.000493409
0.00142152
0.000870699
0.000624313
0.000723516
0.00189818
0.00126161
0.0009269
0.00125747
0.00228467
0.00144854
0.000928922
0.00142989
0.00246489
0.00142533
0.00075998
0.0013767
0.00178788
0.00463698
0.00551475
0.00642234
0.00326721
0.00557226
0.00722234
0.00931773
0.0022009
0.00359519
0.00483331
0.00659872
0.000876671
0.0018196
0.00257506
0.00366433
4.22403e-05
0.000598074
0.000964129
0.00150612
0.000456964
9.52609e-05
0.000105567
0.000305206
0.00076379
0.000489545
0.000329096
0.000338894
0.00097546
0.000710655
0.000506674
0.000632862
0.00116011
0.00083324
0.000507651
0.000729838
0.00115894
0.000799245
0.000413015
0.000751374
0.0020548
0.000238281
0.000292693
0.000841219
3.40818e-06
0.00183376
0.00274935
0.00382683
0.000504243
0.00156707
0.00230619
0.00326846
0.000107585
0.000825528
0.0013107
0.00188261
0.000162557
0.00025976
0.000512449
0.000800308
0.000340787
8.28486e-05
6.18033e-05
0.000182844
0.000463706
0.000299394
0.000194272
0.000173084
0.000563854
0.00043639
0.000316913
0.00035079
0.000655887
0.000524443
0.000331632
0.000416486
0.000603651
0.000500973
0.000299723
0.000467401
0.00349809
0.00225479
0.00195428
0.00164692
0.00158804
0.000196158
0.00026895
0.000774969
0.000310254
0.000493611
0.000902229
0.00140772
0.000224123
0.000307175
0.000593866
0.000879296
0.000227281
8.40102e-05
0.00024508
0.000393625
0.000259189
7.18635e-05
2.71793e-05
9.77974e-05
0.000295733
0.000184964
0.00011526
9.05362e-05
0.000340017
0.000266658
0.000194272
0.000194399
0.000377488
0.000321671
0.000207188
0.000236434
0.000313416
0.000300443
0.000202508
0.000288876
0.00375877
0.00285521
0.00269012
0.00252096
0.00210518
0.00103095
0.000799082
0.00059257
0.000678471
5.47906e-05
0.000160239
0.000413159
0.00036686
3.62109e-05
0.000196353
0.000326403
0.000240217
6.88777e-06
9.02222e-05
0.000164132
0.000201449
6.26575e-05
3.39362e-06
4.39488e-05
0.000196392
0.000117973
7.09072e-05
5.05456e-05
0.000213008
0.000166603
0.000120663
0.000111024
0.000216231
0.000193233
0.000124551
0.000132432
0.000161472
0.000176911
0.000130801
0.000176896
0.00349675
0.00281587
0.00272681
0.00263428
0.00209253
0.00124939
0.00113419
0.00107901
0.000780207
0.000291771
0.000182272
6.19588e-05
0.000405202
9.63439e-05
1.20448e-05
3.50159e-05
0.000228118
5.21451e-05
2.68102e-06
3.49931e-05
0.000157168
5.40739e-05
1.19286e-05
9.94641e-06
0.000131195
7.55107e-05
4.40991e-05
2.96767e-05
0.000133467
0.00010348
7.33025e-05
6.28775e-05
0.000118812
0.000110287
6.83022e-05
6.83728e-05
7.73501e-05
9.95523e-05
7.79955e-05
0.00010376
0.00301932
0.00249324
0.00244397
0.00239272
0.00185566
0.00119268
0.00113714
0.00115768
0.000733472
0.000349936
0.000293653
0.000236349
0.000380249
0.000142794
0.000100161
9.29599e-05
0.000200506
6.79018e-05
3.8599e-05
2.79634e-05
0.00012121
4.51854e-05
1.9459e-05
8.95289e-06
8.62537e-05
4.7421e-05
2.73603e-05
1.82081e-05
8.15656e-05
6.24831e-05
4.2815e-05
3.42769e-05
6.14458e-05
5.93627e-05
3.33927e-05
3.08732e-05
3.07679e-05
5.23407e-05
4.20861e-05
5.68735e-05
0.00251981
0.00211283
0.00208866
0.00206689
0.00154111
0.00102494
0.00100048
0.00105858
0.000622451
0.00032444
0.000294685
0.000265845
0.000324626
0.000143149
0.000122412
0.000131837
0.000165754
6.62435e-05
5.122e-05
5.02866e-05
9.17618e-05
3.62154e-05
2.10344e-05
1.67758e-05
5.54448e-05
2.90279e-05
1.69839e-05
1.18174e-05
4.82797e-05
3.64096e-05
2.40447e-05
1.79183e-05
2.83836e-05
2.9175e-05
1.31563e-05
1.01937e-05
6.0307e-06
2.45982e-05
1.95326e-05
2.80146e-05
0.00187499
0.00156435
0.00154884
0.00154899
0.00123597
0.000841372
0.000834514
0.000911726
0.000493142
0.000266684
0.000250166
0.000233568
0.000259086
0.000123001
0.000113695
0.000128637
0.000130064
5.63204e-05
4.89066e-05
5.13875e-05
6.78773e-05
2.78127e-05
1.90678e-05
1.78072e-05
3.4736e-05
1.73317e-05
1.06361e-05
8.17806e-06
2.77996e-05
2.06247e-05
1.32104e-05
9.30939e-06
9.98138e-06
1.19502e-05
2.25731e-06
3.18914e-07
5.69096e-06
9.28125e-06
6.67028e-06