/*--------------------------------*- C++ -*----------------------------------*\
| =========                 |                                                 |
| \\      /  F ield         | foam-extend: Open Source CFD                    |
|  \\    /   O peration     | Version:     4.0                                |
|   \\  /    A nd           | Web:         http://www.foam-extend.org         |
|    \\/     M anipulation  |                                                 |
\*---------------------------------------------------------------------------*/
FoamFile
{
    version     2.0;
    format      ascii;
    class       volScalarField;
    location    "3000";
    object      epsilon;
}
// * * * * * * * * * * * * * * * * * * * * * * * * * * * * * * * * * * * * * //

dimensions      [0 2 -3 0 0 0 0];

internalField   nonuniform List<scalar> 
34480
(
4843.35
4836.87
4834.48
4834.08
4837.03
4853.81
4914.54
5079.94
5443.18
6228.6
5609.47
6908.41
9583.1
15792.5
32427.1
80978.8
220962
581074
1.32231e+06
2.41279e+06
7330.35
8765.25
11504.8
17306.6
31908.9
75616.6
216555
646044
1.72726e+06
3.7226e+06
6076.76
7336.6
9666.08
14400.4
25907.7
60960.7
183541
605748
1.83005e+06
4.45447e+06
4877.8
5999.25
8049.52
12124.3
21829.5
51601.7
161916
578797
1.92696e+06
5.17589e+06
3838.85
4777.37
6515.55
10017.7
18467.2
45077.3
149516
576202
2.08244e+06
6.05774e+06
2994.39
3749.66
5177.67
8121.88
15417.3
39133.3
136943
562576
2.17607e+06
6.7578e+06
2115.73
2636.78
3641.45
5797.16
11408.3
30729.5
115332
506566
2.08841e+06
6.87429e+06
1189.34
1386.66
1774.98
2673.89
5316.77
15637.2
65112.5
310351
1.37004e+06
4.74836e+06
5631.16
5614.63
5616.98
5644.47
5704.89
5793.86
5891.8
5996.28
6182.4
6430.34
4773.9
4772.34
4780.04
4797.5
4824.24
4861.79
4922.4
5032.01
5234.85
5629.21
3020.58
3487.54
4378.62
6076.83
9652.37
18307.3
43851.7
130495
410607
1.14525e+06
4165.81
4795.91
5924.97
7968.38
11947.5
21030.7
46853.2
142452
513709
1.67023e+06
3670.11
4285.53
5370.89
7312.04
10963.6
19052
41879.7
132824
541409
1.98644e+06
3090.66
3679.31
4720.43
6567.05
10024.6
17502.3
38433
126389
571445
2.31175e+06
2534.06
3048.31
3974.79
5654.5
8873.2
15849.2
35599.3
123648
619732
2.73243e+06
2052.43
2480.64
3269.73
4733.7
7629.39
13999.9
32347.2
118363
649910
3.08009e+06
1511.75
1812.74
2376.16
3458.63
5680.6
10729.9
25836.1
101999
621828
3.17109e+06
961.756
1075.86
1289.6
1710.99
2630.56
4873.48
12228.8
55844.6
402914
2.30047e+06
5508.05
5484.87
5476.11
5488.99
5536.9
5624.18
5724.72
5806.56
6049.61
6662.17
4694.97
4693.34
4699.06
4713.71
4737.96
4772.37
4820.04
4890.5
5002.59
5183.49
1613.56
1795.35
2123.8
2707.29
3776.83
5856.95
10330.2
20991.7
47295.3
104687
2196.21
2485.6
2989.91
3837.56
5306.97
8091.49
14066.4
29331.3
73603.9
189741
2084.47
2393.36
2931.6
3849.66
5407.19
8338.87
14703.5
32151.5
90806
270382
1870.8
2186.78
2745.53
3703.83
5342.19
8409.43
15124.1
34640.4
109313
369627
1616.06
1906.01
2431.18
3360.09
5006.79
8138.93
15181.7
37099.5
131804
500529
1371.87
1624.57
2094.08
2945.81
4518.39
7583.67
14698.9
38322.6
152209
639468
1065.38
1249.69
1597.35
2252.57
3516
6076.89
12323.1
34902.9
157243
730809
786.654
860.782
1000.52
1266.52
1811.87
3012.05
6218.41
19323.7
101800
540877
5401.56
5376.24
5361.95
5364.18
5392.43
5454.6
5542.2
5618.37
5750.34
6165.41
4605.85
4604.49
4608.46
4619.11
4637.16
4663.34
4698.82
4746.98
4817.8
4937.05
907.434
972.202
1079.1
1263.43
1573.01
2100.5
3030.05
4726.57
7877.12
13281.7
1092.9
1212.68
1414.57
1738.82
2262.61
3136.54
4675.75
7615.3
13756.3
26357.3
1123.06
1264.59
1506.41
1904.17
2541.26
3614.85
5541.14
9414.74
18532.2
40679
1087.98
1244.8
1519.88
1979
2720.43
3985.29
6294.03
11148
23924.3
59990.1
1000.81
1153.44
1429.79
1908.96
2716.34
4135.96
6826.5
12837.3
30569.5
87583.4
898.506
1039.3
1301.79
1768.84
2592.91
4091.34
7049.79
14069.2
37144.4
120315
745.259
853.017
1056.44
1433.03
2130.2
3459.14
6240.54
13396.6
39875.1
146301
651.072
697.892
786.012
946.893
1257.93
1899.49
3385.69
7621.85
25399.5
107146
5279.72
5255.85
5240.98
5239
5255.81
5298.95
5371.54
5455.45
5554.26
5829.92
4505.04
4503.62
4505.97
4512.86
4524.59
4541.53
4564.49
4595.77
4642.53
4727.52
577.051
599.678
631.317
683.01
762.346
884.497
1073.6
1361.94
1780.1
2356.95
547.004
591.039
661.76
770.567
936.039
1188.11
1578.63
2193.2
3161.88
4676.66
598.091
656.052
751.902
903.986
1135.47
1494.39
2063.81
3001.14
4620.56
7575.19
625.524
696.365
817.893
1013.25
1313.33
1787.86
2557.14
3872.23
6362.46
11684
614.465
688.314
820.129
1042.32
1398.23
1984.9
2979.14
4778.13
8550.38
17866.5
585.016
657.945
792.601
1025.05
1415.55
2084.9
3270.99
5537.65
10788.2
25599.3
522.311
581.732
692.178
890.306
1239.46
1869.48
3058.48
5514.15
11887.6
32265
545.113
573.729
626.856
718.802
883.752
1198.38
1852.88
3350.26
7665.15
23429.3
5153.12
5131.31
5117.08
5113.18
5123.17
5152.49
5206.57
5281.71
5369.65
5549.74
4393.65
4392.22
4393.59
4398.23
4406.2
4417.58
4432.78
4453.61
4486.38
4551.66
421.056
429.826
439.481
453.879
473.443
500.081
536.169
583.01
637.325
698.598
300.922
316.098
338.887
372.477
420.619
488.239
582.655
711.496
876.723
1079.88
335.389
357.229
391.808
444.991
522.123
633.357
793.247
1020.88
1332.63
1768.08
371.223
401.023
450.329
526.288
637.574
801.874
1044.31
1402.36
1928.31
2790.22
385.507
419.003
477.05
571.471
715.642
939.631
1288.19
1835.23
2713.93
4389.59
386.567
422.302
486.661
593.373
763.688
1040
1491.3
2239.22
3549.4
6439.93
371.448
402.889
459.415
556.525
718.16
994.308
1476.09
2340.03
4025.02
8277.38
462.548
479.704
510.783
561.593
646.01
793.662
1070.32
1616.31
2784.45
6105.43
5020.4
5001.14
4988.44
4984.39
4991.27
5012.71
5052.92
5113.15
5187.27
5302.17
4272.99
4271.54
4272.33
4275.65
4281.53
4289.98
4301.26
4316.81
4342.2
4396
341.583
345.484
348.708
352.803
357.428
362.664
368.388
373.644
375.785
374.691
194.641
199.813
206.846
216.68
229.87
246.957
268.675
295.062
323.935
353.373
211.254
219.048
230.685
248.139
272.224
304.639
347.316
401.432
463.565
532.049
238.785
250.754
269.56
297.131
335.492
388.367
459.99
554.338
668.9
816.719
256.467
271.015
295.057
332.468
386.835
466.263
580.794
742.623
956.517
1276.97
266.624
283.501
312.632
358.443
427.65
533.466
694.023
934.239
1276.63
1872.53
273.126
289.346
316.992
361.94
431.988
544.48
726.935
1023.35
1492.2
2427.8
399.349
409.475
427.13
454.364
496.521
564.11
677.983
877.918
1224.15
1982.61
4880.67
4864.15
4853.4
4850.09
4855.81
4872.95
4904.23
4951.35
5010.23
5082.23
4144.5
4143.07
4143.51
4146.08
4150.78
4157.63
4166.86
4179.67
4201.03
4247.78
296.575
298.53
299.781
300.976
301.862
302.353
302.2
300.552
295.561
286.355
148.16
150.022
152.214
155.042
158.531
162.655
167.407
172.575
177.457
181.867
153.488
156.227
160.001
165.576
172.877
182.045
193.133
205.8
218.325
229.45
171.298
176.049
183.013
192.629
205.227
221.361
241.412
265.241
290.067
316.265
185.518
191.727
201.338
215.532
235.022
261.672
297.31
343.382
396.171
460.506
196.022
203.869
216.638
235.418
262.158
300.382
354.208
428.118
518.813
646.899
210.473
218.77
231.908
251.913
280.904
324.239
389.392
486.925
620.36
835.999
351.377
357.297
367.047
381.25
402.02
432.831
479.942
554.995
670.422
869.585
4733.15
4719.35
4710.62
4708.35
4713.68
4728.21
4753.56
4790.8
4835.7
4882.4
4009.27
4007.87
4008.12
4010.23
4014.23
4020.14
4028.16
4039.32
4058.02
4099.61
267.881
268.919
269.517
269.91
269.953
269.572
268.571
266.24
261.01
251.288
126.788
127.528
128.247
129.05
129.921
130.826
131.743
132.611
133.272
133.898
126.139
127.117
128.328
130.122
132.349
134.962
137.87
140.862
143.371
145.028
136.747
138.672
141.256
144.575
148.622
153.397
158.806
164.58
169.721
174.194
146.681
149.351
153.156
158.455
165.268
173.943
184.684
197.457
210.476
223.738
154.938
158.59
164.128
171.664
181.716
195.071
212.465
234.485
258.445
286.747
171.05
175.319
181.475
190.179
201.859
217.99
240.407
271.508
310.033
362.227
315.027
318.49
323.712
330.909
341.051
355.191
375.219
404.975
450.329
515.324
4577.26
4566.01
4559.17
4557.87
4562.94
4575.42
4596.18
4625.69
4659.46
4691.5
3867.97
3866.6
3866.75
3868.59
3872.14
3877.43
3884.63
3894.63
3911.3
3948.61
247.339
247.879
248.233
248.433
248.393
248.053
247.251
245.355
240.908
231.882
116.338
116.662
116.916
117.131
117.303
117.424
117.5
117.535
117.517
117.627
112.842
113.201
113.587
114.177
114.873
115.636
116.42
117.142
117.618
117.722
118.778
119.586
120.563
121.715
122.999
124.373
125.768
127.072
127.99
128.568
125.3
126.473
127.988
129.968
132.327
135.11
138.301
141.805
145.015
147.729
131.103
132.818
135.225
138.232
141.979
146.601
152.172
158.704
165.077
171.475
146.392
148.624
151.491
155.229
159.846
165.721
173.292
183.11
194.611
208.252
287.256
289.317
292.016
295.551
300.472
307.051
315.898
328.57
349.916
376.98
4412.7
4403.72
4398.49
4397.95
4402.64
4413.19
4430.02
4453.15
4478.39
4501.39
3720.98
3719.67
3719.77
3721.41
3724.63
3729.46
3736.04
3745.11
3760.06
3793.51
231.098
231.335
231.579
231.751
231.792
231.653
231.188
229.822
226.176
218.013
110.887
111.038
111.135
111.181
111.181
111.137
111.063
110.98
110.915
111.015
106.28
106.414
106.534
106.733
106.954
107.18
107.393
107.564
107.631
107.531
109.343
109.691
110.067
110.467
110.863
111.23
111.542
111.768
111.828
111.78
113.489
114.016
114.623
115.361
116.162
117.024
117.934
118.856
119.615
120.101
117.32
118.129
119.174
120.369
121.759
123.355
125.146
127.114
128.844
130.307
131.007
132.202
133.532
135.11
136.88
138.939
141.413
144.465
148.068
152.062
265.567
266.853
268.188
269.867
272.258
275.406
279.523
285.395
297.097
310.69
4239.42
4232.36
4228.45
4228.39
4232.54
4241.26
4254.63
4272.5
4291.33
4308.37
3568.56
3567.31
3567.37
3568.87
3571.82
3576.26
3582.3
3590.55
3603.94
3633.77
217.223
217.266
217.442
217.618
217.743
217.775
217.578
216.631
213.642
206.315
107.816
107.886
107.925
107.928
107.9
107.845
107.777
107.717
107.701
107.85
103.046
103.098
103.135
103.202
103.273
103.339
103.395
103.432
103.426
103.34
104.416
104.565
104.71
104.847
104.962
105.044
105.086
105.08
105.012
104.924
107.005
107.247
107.49
107.76
108.015
108.254
108.473
108.67
108.804
108.826
109.43
109.807
110.254
110.722
111.231
111.779
112.356
112.963
113.441
113.763
121.403
122.063
122.676
123.321
123.954
124.604
125.321
126.182
127.324
128.657
247.964
248.838
249.459
250.233
251.425
253.024
255.101
258.126
265.239
272.858
4057.6
4052.12
4049.22
4049.43
4052.96
4059.98
4070.43
4084.06
4098.19
4111.16
3410.89
3409.71
3409.75
3411.11
3413.83
3417.9
3423.44
3430.94
3442.87
3469.22
204.658
204.573
204.697
204.871
205.046
205.185
205.161
204.507
202.029
195.476
105.91
105.938
105.954
105.951
105.929
105.895
105.858
105.836
105.866
106.054
101.475
101.498
101.51
101.532
101.554
101.571
101.583
101.588
101.578
101.528
101.898
101.96
102.014
102.061
102.093
102.106
102.099
102.07
102.019
101.976
103.507
103.62
103.717
103.812
103.882
103.927
103.95
103.954
103.939
103.884
105.004
105.171
105.354
105.532
105.718
105.91
106.104
106.31
106.453
106.522
115.359
115.739
116.021
116.269
116.462
116.608
116.736
116.892
117.21
117.722
232.887
233.552
233.814
234.166
234.803
235.704
236.885
238.659
243.201
247.675
3867.69
3863.46
3861.31
3861.63
3864.53
3870.06
3878.12
3888.46
3899.22
3909.35
3248.2
3247.08
3247.11
3248.35
3250.83
3254.56
3259.62
3266.39
3276.94
3299.91
192.764
192.593
192.674
192.833
193.025
193.214
193.285
192.821
190.736
184.887
104.591
104.596
104.603
104.601
104.592
104.579
104.567
104.572
104.63
104.838
100.726
100.74
100.746
100.753
100.757
100.758
100.757
100.754
100.749
100.728
100.663
100.685
100.704
100.721
100.733
100.737
100.733
100.722
100.703
100.698
101.668
101.722
101.762
101.793
101.806
101.799
101.778
101.745
101.707
101.658
102.59
102.657
102.724
102.791
102.863
102.941
103.024
103.118
103.184
103.214
111.462
111.69
111.819
111.905
111.939
111.927
111.879
111.83
111.861
112.097
219.151
219.712
219.801
219.967
220.349
220.931
221.699
222.888
225.777
228.403
3670.33
3667.05
3665.45
3665.78
3668.09
3672.4
3678.59
3686.44
3694.79
3702.91
3080.75
3079.71
3079.73
3080.85
3083.1
3086.49
3091.08
3097.15
3106.37
3126.09
181.117
180.891
180.93
181.066
181.249
181.448
181.556
181.208
179.423
174.199
103.581
103.574
103.577
103.579
103.58
103.58
103.585
103.605
103.674
103.886
100.376
100.388
100.393
100.394
100.392
100.387
100.381
100.375
100.374
100.372
100.097
100.102
100.108
100.115
100.123
100.131
100.137
100.141
100.144
100.158
100.733
100.759
100.776
100.786
100.784
100.771
100.748
100.719
100.688
100.658
101.321
101.339
101.358
101.384
101.419
101.464
101.518
101.584
101.637
101.673
108.811
108.953
109.013
109.036
109.023
108.976
108.898
108.812
108.744
108.886
205.878
206.382
206.393
206.48
206.742
207.165
207.722
208.579
210.331
211.814
3466.34
3463.78
3462.57
3462.86
3464.68
3468.02
3472.77
3478.79
3485.41
3492.07
2908.96
2908
2908
2909.01
2911.04
2914.09
2918.21
2923.6
2931.55
2948.16
169.411
169.15
169.154
169.259
169.417
169.598
169.707
169.423
167.863
163.157
102.748
102.737
102.738
102.742
102.748
102.757
102.77
102.796
102.864
103.067
100.214
100.226
100.23
100.23
100.226
100.218
100.21
100.203
100.204
100.213
99.8714
99.8696
99.8707
99.8753
99.8826
99.8921
99.9029
99.9144
99.926
99.9468
100.276
100.289
100.297
100.3
100.297
100.288
100.273
100.255
100.235
100.218
100.676
100.674
100.674
100.686
100.709
100.744
100.789
100.845
100.894
100.939
106.848
106.939
106.966
106.967
106.949
106.909
106.845
106.774
106.676
106.789
192.425
192.886
192.864
192.919
193.117
193.447
193.877
194.461
195.457
196.225
3256.73
3254.71
3253.77
3254.01
3255.43
3258.02
3261.7
3266.4
3271.72
3277.27
2733.4
2732.52
2732.52
2733.42
2735.22
2737.93
2741.58
2746.32
2753.09
2766.73
157.408
157.13
157.103
157.175
157.297
157.442
157.527
157.276
155.888
151.592
102.031
102.02
102.02
102.025
102.034
102.046
102.062
102.088
102.148
102.329
100.136
100.146
100.151
100.15
100.145
100.138
100.129
100.122
100.123
100.14
99.8113
99.808
99.8077
99.8107
99.8168
99.8254
99.8359
99.8476
99.8599
99.8789
100.067
100.073
100.077
100.079
100.077
100.072
100.064
100.053
100.041
100.034
100.354
100.344
100.339
100.346
100.364
100.392
100.429
100.473
100.515
100.56
105.246
105.303
105.314
105.31
105.297
105.272
105.231
105.184
105.087
105.19
178.302
178.717
178.681
178.721
178.878
179.141
179.478
179.884
180.354
180.691
3042.69
3041.08
3040.34
3040.53
3041.64
3043.66
3046.54
3050.26
3054.59
3059.27
2554.91
2554.13
2554.13
2554.91
2556.49
2558.87
2562.07
2566.17
2571.83
2582.72
144.916
144.636
144.584
144.62
144.699
144.796
144.842
144.608
143.372
139.39
101.409
101.399
101.399
101.404
101.413
101.425
101.441
101.464
101.51
101.656
100.089
100.097
100.101
100.1
100.097
100.091
100.084
100.078
100.079
100.097
99.8262
99.8236
99.8231
99.8249
99.829
99.8349
99.8423
99.8507
99.8597
99.8731
99.985
99.9889
99.9911
99.9917
99.9906
99.9878
99.9829
99.9764
99.9687
99.9646
100.18
100.17
100.166
100.17
100.183
100.202
100.227
100.258
100.287
100.324
103.831
103.866
103.869
103.866
103.858
103.845
103.821
103.792
103.709
103.801
163.067
163.419
163.381
163.411
163.532
163.736
163.993
164.294
164.501
164.593
2825.65
2824.35
2823.76
2823.9
2824.77
2826.36
2828.65
2831.62
2835.15
2839.11
2374.45
2373.76
2373.76
2374.44
2375.82
2377.9
2380.68
2384.21
2388.87
2397.28
131.83
131.565
131.493
131.489
131.513
131.545
131.535
131.312
130.26
126.604
100.884
100.877
100.877
100.881
100.888
100.899
100.913
100.931
100.962
101.062
100.049
100.054
100.056
100.056
100.054
100.05
100.046
100.042
100.043
100.058
99.8719
99.8705
99.8702
99.8711
99.8731
99.8762
99.88
99.8844
99.8893
99.8966
99.9684
99.9711
99.9725
99.9727
99.9717
99.9693
99.9656
99.9606
99.955
99.9515
100.063
100.056
100.053
100.056
100.063
100.074
100.087
100.101
100.117
100.141
102.534
102.556
102.557
102.555
102.55
102.54
102.524
102.504
102.448
102.515
146.119
146.382
146.348
146.367
146.453
146.596
146.774
146.975
147.086
147.18
2607.11
2606.05
2605.57
2605.68
2606.36
2607.63
2609.47
2611.86
2614.75
2618.09
2192.4
2191.83
2191.83
2192.42
2193.61
2195.4
2197.78
2200.79
2204.57
2211
117.387
117.217
117.181
117.182
117.195
117.214
117.218
117.116
116.488
113.44
100.466
100.463
100.463
100.466
100.472
100.48
100.491
100.505
100.524
100.573
100.017
100.019
100.021
100.021
100.02
100.018
100.016
100.014
100.014
100.022
99.9313
99.9308
99.9306
99.931
99.9317
99.9328
99.9342
99.9357
99.9376
99.9403
99.9847
99.9865
99.9873
99.9873
99.9863
99.9844
99.9816
99.9779
99.9739
99.9709
99.992
99.9892
99.988
99.989
99.9919
99.9959
100
100.004
100.008
100.018
101.345
101.356
101.358
101.357
101.352
101.343
101.33
101.315
101.291
101.329
126.174
126.309
126.284
126.292
126.339
126.419
126.517
126.623
126.663
126.731
2387.88
2387
2386.6
2386.68
2387.23
2388.25
2389.74
2391.68
2394.07
2396.91
8538.49
9003.97
8766.78
7686.67
2.71895e+06
2.61873e+06
2.55752e+06
2.4754e+06
5.07807e+06
4.92437e+06
4.76456e+06
4.43141e+06
6.88263e+06
6.70476e+06
6.42668e+06
5.91471e+06
8.92509e+06
8.7133e+06
8.26544e+06
7.61998e+06
1.14491e+07
1.107e+07
1.03101e+07
9.43564e+06
1.37949e+07
1.32155e+07
1.21878e+07
1.11864e+07
1.49159e+07
1.41784e+07
1.29949e+07
1.19092e+07
1.03473e+07
9.67508e+06
8.70517e+06
7.81695e+06
9638.23
9841.98
9743.94
9573.29
6444.66
6785.28
6928.02
6756.55
1.77003e+06
1.42598e+06
1.38897e+06
1.41127e+06
2.8589e+06
2.41512e+06
2.33608e+06
2.20439e+06
3.71447e+06
3.27287e+06
3.15963e+06
2.846e+06
4.70258e+06
4.29946e+06
4.07005e+06
3.55846e+06
5.96334e+06
5.46673e+06
4.88559e+06
4.05167e+06
7.07315e+06
6.43646e+06
5.50129e+06
4.47135e+06
7.62543e+06
6.89263e+06
5.73998e+06
4.49025e+06
6.00214e+06
5.3445e+06
4.30561e+06
3.18421e+06
9233.19
9313.49
9122.6
8755.01
5639.24
5782.28
5822.83
5730.8
179407
180655
164609
132300
350160
348818
311713
239417
529113
521663
460598
348572
764743
750241
655430
492584
1.09906e+06
1.07628e+06
929111
679902
1.48393e+06
1.44827e+06
1.23781e+06
895215
1.78811e+06
1.7294e+06
1.45428e+06
1.03e+06
1.46329e+06
1.39062e+06
1.13741e+06
761767
7065.36
7152.73
7136.28
7040.79
5376.38
5441.74
5451.91
5391.95
17748.1
17958.8
16829.2
14187.3
38355.7
38452.9
34881.9
28453.5
63311.6
62268.2
55206.9
44108.9
99586.7
96552.9
84054.7
65421.4
154529
147896
126391
96230.2
224817
212845
179519
135199
289984
271619
226871
169903
232764
212101
173600
125706
6145.33
6197.99
6224.15
6229.43
5166.58
5214.43
5215.74
5166.42
2764.36
2816.79
2709.75
2480.92
5818.25
5936.76
5590.8
4932.59
9945.78
10018.1
9274.59
8028.29
16248.5
16175.3
14728.1
12466.5
26438.3
26098.2
23517.1
19686.9
40352
39569.1
35419.5
29468.6
54549.1
53222.5
47535.2
39482.1
43929.4
42242.8
37565
30534.3
5628.31
5663.8
5693.37
5717.32
4984.38
5025.02
5025.43
4983.1
761.892
761.435
749.134
729.796
1194.62
1211.76
1176.93
1104.28
2028.79
2049.63
1973.4
1832.25
3353.28
3374.93
3217.47
2944.52
5590.47
5623.22
5340.93
4860.35
8735.18
8782.27
8322.06
7540.32
12079.7
12155
11533.5
10434.8
9703.91
9704.52
9263.77
8297.14
5276.67
5296.52
5319.04
5345.6
4816.86
4853.39
4853.49
4815.74
409.645
404.903
401.833
400.996
367.066
369.204
364.686
354.695
563.104
566.865
558.602
541.108
893.903
901.346
884.178
848.221
1467.16
1486.81
1459.64
1396.25
2275.75
2317.03
2276.71
2170.81
3155.23
3230.2
3185.4
3034.34
2696.72
2760.02
2755.14
2627.7
5010.3
5020.96
5037.25
5061.8
4653.49
4686.92
4686.89
4652.58
318.72
314.511
312.935
314.032
184.527
184.666
183.626
181.518
232.968
233.371
232.265
229.841
327.521
328.976
326.757
321.217
493.193
498.363
496.228
487.271
722.92
735.118
733.764
719.133
984.498
1008.38
1011.28
991.388
1026.23
1050.83
1066.45
1055.22
4790.77
4795.91
4807.27
4828.04
4488.2
4518.72
4518.67
4487.51
283.255
279.953
278.958
280.233
135.329
135.313
134.888
134.076
145.139
145.076
144.88
144.543
175.771
175.966
175.536
174.442
229.643
230.802
230.763
229.375
301.852
304.907
305.637
303.608
394.636
401.199
403.955
401.716
553.964
562.651
570.752
573.134
4592.86
4594.71
4602.38
4619.01
4318.72
4346.32
4346.26
4318.22
263.347
260.81
260.167
261.37
118.942
118.972
118.737
118.25
117.51
117.427
117.387
117.378
128.688
128.673
128.531
128.232
148.742
148.971
149.012
148.784
174.48
175.196
175.54
175.316
215.823
217.621
218.716
218.678
386.66
389.882
393.526
396.287
4402.03
4401.96
4406.99
4419.86
4144.08
4168.67
4168.61
4143.72
248.723
246.831
246.427
247.455
112.315
112.395
112.249
111.889
107.381
107.329
107.326
107.365
111.732
111.704
111.638
111.523
120.206
120.239
120.253
120.218
130.798
130.949
131.072
131.101
153.918
154.445
154.843
154.973
311.81
313.031
314.738
316.702
4211.51
4210.39
4213.61
4223.36
3963.86
3985.38
3985.31
3963.6
236.106
234.83
234.596
235.322
109.116
109.228
109.135
108.845
103.266
103.239
103.245
103.281
104.893
104.878
104.843
104.785
108.783
108.779
108.781
108.778
113.726
113.74
113.782
113.833
129.07
129.235
129.379
129.457
270.893
271.269
272.127
273.513
4018.62
4017
4019.02
4026.3
3777.97
3796.39
3796.31
3777.78
224.271
223.707
223.598
223.82
107.261
107.393
107.333
107.089
101.506
101.494
101.501
101.524
101.974
101.969
101.949
101.915
103.836
103.829
103.829
103.83
106.396
106.378
106.392
106.434
117.742
117.797
117.846
117.878
244.386
244.351
244.811
245.855
3822.3
3820.53
3821.75
3827.12
3586.55
3602.1
3602.06
3586.39
212.641
212.54
212.485
212.429
105.971
106.112
106.075
105.865
100.737
100.735
100.741
100.752
100.712
100.713
100.702
100.681
101.627
101.624
101.623
101.624
103.097
103.076
103.081
103.113
112.017
112.037
112.051
112.055
224.478
224.221
224.478
225.323
3622.12
3620.42
3621.14
3625.02
3389.94
3402.88
3402.86
3389.85
200.881
200.959
200.925
200.746
104.933
105.075
105.054
104.87
100.402
100.406
100.41
100.411
100.179
100.183
100.177
100.163
100.642
100.641
100.641
100.641
101.587
101.571
101.574
101.597
108.799
108.812
108.813
108.8
207.598
207.218
207.362
208.083
3418.05
3416.56
3416.96
3419.71
3188.79
3199.21
3199.2
3188.74
188.524
188.697
188.678
188.447
104.016
104.155
104.143
103.982
100.258
100.266
100.268
100.261
99.9671
99.9713
99.9683
99.9588
100.212
100.213
100.213
100.211
100.883
100.874
100.877
100.892
106.73
106.747
106.743
106.717
191.959
191.524
191.603
192.229
3210.36
3209.14
3209.35
3211.25
2983.75
2991.8
2991.8
2983.73
175.397
175.549
175.539
175.357
103.164
103.296
103.29
103.148
100.193
100.205
100.205
100.192
99.8953
99.8988
99.897
99.8906
100.032
100.033
100.032
100.03
100.531
100.529
100.531
100.539
105.174
105.2
105.194
105.154
176.611
176.189
176.229
176.751
2999.63
2998.72
2998.83
3000.07
2775.86
2781.72
2781.72
2775.85
161.244
161.195
161.191
161.228
102.354
102.47
102.468
102.349
100.151
100.165
100.164
100.149
99.8841
99.8864
99.8851
99.8809
99.9637
99.964
99.9628
99.9596
100.316
100.319
100.32
100.321
103.824
103.861
103.852
103.797
161.024
160.718
160.734
161.085
2786.82
2786.2
2786.24
2787
2566.42
2570.34
2570.34
2566.42
145.542
145.024
145.024
145.539
101.58
101.668
101.667
101.579
100.102
100.114
100.113
100.1
99.9022
99.9032
99.9023
99.8999
99.9497
99.9488
99.9469
99.944
100.146
100.152
100.153
100.15
102.54
102.579
102.567
102.504
144.354
144.182
144.195
144.4
2573.17
2572.84
2572.85
2573.22
2356.1
2358.48
2358.48
2356.1
126.768
125.624
125.623
126.766
100.854
100.897
100.897
100.855
100.044
100.051
100.05
100.043
99.942
99.9421
99.9415
99.9406
99.9682
99.9667
99.965
99.963
100.026
100.03
100.032
100.029
101.309
101.323
101.309
101.27
124.916
124.913
124.925
124.955
2359.32
2359.23
2359.23
2359.33
6110.86
5480.66
5193.67
5080.52
5028.36
4984.38
4939.99
4901.19
4872.46
4854.47
1.84346e+06
554625
126983
37707.6
17978.3
10754.1
7479.45
5869.04
5170.76
5084.11
2.33614e+06
403570
87051.5
33447.6
17941.3
11689.1
8776.98
7331.78
6702.83
6689.49
2.26762e+06
258595
68984
27282.3
14841.7
9705.18
7282.47
6063.03
5507.68
5501.34
2.05646e+06
237316
62594.3
24596.2
13030.7
8290.61
6064.67
4943.66
4403.94
4375.1
1.97281e+06
256550
64434.6
24243.8
12149.1
7366.28
5161.71
4066.05
3520.12
3444.29
2.07719e+06
287137
65930.1
23375
11036.8
6407.98
4328.84
3316.03
2798.49
2695.73
2.09946e+06
292440
59429.4
19614.5
8696.54
4861.78
3198.54
2415.47
2019.81
1923.31
1.46838e+06
179935
29522
8926.78
3897.07
2300.12
1625.92
1315.78
1161.21
1114.34
9368.41
7010.31
6391.24
6122.13
5954.68
5844.03
5770.52
5718.6
5675.77
5645.84
5745.1
5332.88
5132.91
5022.09
4951.63
4898.29
4854.55
4819.86
4795.64
4781.51
654914
196962
61883.9
23303.9
11211.6
6609.15
4536.69
3503.64
3019.52
2870.93
808568
197583
58144.8
22448.4
11637.9
7406.08
5446.74
4463
4006.47
3911.03
844219
174704
49127.9
19020.5
10027.7
6430.47
4746.01
3894.93
3487.95
3412.28
888000
165499
45461.7
17533.7
9092.34
5708.21
4128.98
3334.75
2936.16
2852.24
1.01141e+06
179499
47774.1
17786.2
8795.84
5281.54
3669.45
2869.71
2456.86
2345.57
1.18425e+06
202329
50221
17668.6
8268.01
4762.5
3196.07
2435.88
2034.6
1909.34
1.29493e+06
210661
46910.6
15337.2
6749.7
3745.61
2450.55
1843.17
1528.3
1421.34
953296
134267
24598.9
7358.2
3233.77
1923.58
1366.59
1106.21
975.151
926.273
8139.23
6698.27
6196.64
5962.5
5818.15
5721.1
5654.51
5605.92
5564.59
5532.15
5229.64
5050.08
4952.91
4885.16
4831.5
4787.63
4752.8
4726.8
4709.57
4700.23
63144.3
27614.3
13401.4
7318.27
4460.23
3007.29
2237.08
1819.19
1616.71
1552.66
95594.9
36895.3
16982.8
8928.26
5418.94
3708.8
2821.23
2349.73
2126.97
2078.75
118362
40266.4
17390.3
8742.22
5193.51
3515.91
2662.57
2214.22
1998.19
1955.45
145603
44339.4
18255
8777.04
5032.98
3317.35
2461.9
2019.17
1795.76
1744.76
192697
54290.5
20855.7
9453.92
5131.89
3229.42
2302.9
1830.61
1585.02
1513.58
255145
66150.1
23021.6
9794.16
5026.37
3034.94
2092.52
1623.83
1374.39
1291.35
307760
72746.2
22100.7
8792.69
4258.48
2484.11
1674.28
1285.51
1083.51
1012.66
223416
44904.5
11276.3
4396.22
2227.4
1435.59
1067.14
886.307
796.412
763.745
6967.8
6309.29
5979
5799.62
5683.36
5602.97
5545
5500.29
5460.35
5427.87
4946.49
4841.06
4778.63
4731.67
4694.04
4663.97
4640.85
4624.14
4613.65
4608.77
9585.08
5913.73
3745.41
2481.34
1754.2
1336.02
1097.28
961.244
895.816
878.881
16737.8
9252.13
5435.56
3371.09
2274.59
1671.36
1333.27
1145.41
1056.75
1040.87
23396.5
11653.4
6343.77
3720.85
2428.4
1747.7
1377.34
1175.15
1078.09
1061.56
31580.2
14340.2
7288.21
4044.11
2534.31
1772.46
1369.29
1154.44
1046.59
1023.98
45262.4
19020.4
8884.03
4628.15
2740.37
1828.56
1358.28
1111.32
983.015
946.527
63659.3
24258.9
10228.1
5014.42
2810.29
1800.9
1295.45
1037.04
899.342
853.764
81691
27454.2
10133.3
4694.99
2494.96
1551.7
1095.8
870.871
754.34
714.36
61091.9
16840.7
5371.31
2605.22
1514.94
1065.71
835.271
715.519
657.043
636.438
6302.48
5946.71
5738.88
5609.66
5521.79
5457.45
5408.84
5369.83
5333.8
5304.15
4725.06
4651.5
4610.29
4580.78
4557.55
4539.03
4524.77
4514.61
4508.63
4506.61
2061.43
1574.04
1201.94
946.424
781.59
678.477
615.967
578.72
562.26
561.967
3734.18
2537.31
1736.84
1229
920.765
734.342
622.734
558.234
528.435
525.521
5731.25
3583.87
2262.93
1507.52
1081.52
836.135
694.261
613.783
575.53
570.998
8365.42
4829.29
2816.67
1768.72
1214.46
911.133
741.76
649.005
602.933
595.06
12825.2
6857
3659.01
2152.5
1393.41
996.49
780.554
663.753
603.254
587.168
18836
9113.29
4408.65
2444.67
1498.77
1030.17
782.766
652.738
583.378
561.071
25085.3
10577.1
4556.95
2407.95
1408.12
944.46
707.576
587.202
525.069
504.62
19096.9
6590.61
2700.08
1586.68
1053.5
805.002
663.953
585.943
548.895
536.029
5821.11
5629.89
5511.5
5423.36
5358.66
5307.59
5267.15
5233.6
5201.69
5175.26
4547.8
4490.07
4460.63
4440.94
4425.74
4413.65
4404.4
4398.04
4394.74
4394.42
661.542
600.63
539.393
490.46
455.764
432.773
418.511
410.078
407.988
411.972
965.306
765.84
601.381
483.313
403.525
351.57
318.895
299.524
291.232
292.1
1549.21
1143.22
828.207
624.609
495.674
415.421
366.459
337.607
324.214
323.942
2385.41
1627.55
1087.59
772.694
586.253
476.614
412.419
376.439
358.948
357.278
3844.86
2425.59
1484.82
986.084
704.218
545.577
454.788
404.217
378.173
372.212
5832.03
3331.23
1862.8
1166.21
789.424
588.318
476.519
416.097
383.801
374.05
7935.75
3975.43
2025.68
1215.92
790.824
577.727
462.439
401.933
370.888
361.418
6187.11
2711.84
1473.22
1020.39
762.829
625.386
539.18
488.26
465.079
457.01
5461.99
5365.22
5300
5240.48
5192.65
5152.14
5118.73
5090.37
5062.74
5039.8
4392.7
4343.63
4320.13
4305.22
4293.98
4285.19
4278.66
4274.44
4272.69
4273.32
362.899
360.935
352.555
343.865
337.253
333.005
330.743
329.893
331.333
335.691
333.846
297.686
263.806
237.226
217.885
204.681
196.159
191.116
189.462
190.84
501.737
421.482
348.406
295.892
259.325
235.023
219.459
209.895
205.684
206.425
761.26
594.114
456.697
367.198
309.075
272.712
250.556
237.936
232.097
232.46
1228.43
889.774
630.224
473.903
376.428
317.62
282.269
261.985
251.682
250.038
1867.84
1232.71
805.709
571.685
431.709
351.256
304.123
277.911
263.878
260.127
2561.55
1512.64
922.751
630.853
460.856
368.218
314.928
285.969
271.325
267.425
2209.9
1280.93
895.733
705.192
579.7
502.498
449.338
415.707
401.269
396.075
5181.97
5135.98
5098.83
5058.13
5022.4
4990.44
4963.21
4939.76
4916.46
4897.15
4245.35
4201.48
4181.18
4168.69
4159.48
4152.45
4147.41
4144.39
4143.48
4144.61
279.394
286.311
287.399
286.637
285.908
285.753
286.148
286.976
288.886
292.624
176.316
168.802
161.574
155.65
151.202
148.151
146.24
145.225
145.276
146.37
223.818
207.163
190.121
176.767
166.722
159.653
154.904
151.834
150.631
151.36
305.612
267.594
233.356
208.788
191.647
180.356
173.275
169.244
167.608
168.359
457.118
376.187
306.896
259.667
227.615
206.94
193.902
186.211
182.445
182.348
662.438
504.001
384.78
309.326
259.95
229.332
210.399
199.588
193.828
192.627
899.644
630.238
458.41
356.617
291.353
252.392
228.492
215.067
208.519
207.188
978.436
732.791
609.223
525.373
462.496
418.047
384.728
362.102
353.053
349.535
4946.76
4925.33
4902.38
4873.95
4847.11
4822.14
4800.33
4781.44
4762.4
4746.7
4097.96
4058.07
4039.94
4028.93
4020.91
4014.9
4010.72
4008.38
4007.93
4009.28
246.694
254.776
257.522
258.221
258.539
259.027
259.724
260.635
262.228
265.207
131.483
129.496
127.829
126.506
125.568
125.005
124.756
124.757
125.121
125.87
143.61
139.929
135.763
132.273
129.471
127.394
125.931
124.927
124.621
125.136
171.057
161.844
153.188
146.502
141.588
138.232
136.121
134.978
134.685
135.323
223.427
203.635
185.076
170.939
160.584