/*--------------------------------*- C++ -*----------------------------------*\
| =========                 |                                                 |
| \\      /  F ield         | foam-extend: Open Source CFD                    |
|  \\    /   O peration     | Version:     4.0                                |
|   \\  /    A nd           | Web:         http://www.foam-extend.org         |
|    \\/     M anipulation  |                                                 |
\*---------------------------------------------------------------------------*/
FoamFile
{
    version     2.0;
    format      ascii;
    class       volScalarField;
    location    "3000";
    object      MaU;
}
// * * * * * * * * * * * * * * * * * * * * * * * * * * * * * * * * * * * * * //

dimensions      [0 0 0 0 0 0 0];

internalField   nonuniform List<scalar> 
34480
(
0.63409
0.639239
0.644166
0.649101
0.654325
0.659724
0.663458
0.659769
0.638855
0.573127
0.641735
0.647867
0.653511
0.658756
0.664123
0.670066
0.675919
0.677774
0.667462
0.613017
0.645504
0.65247
0.659028
0.665279
0.671657
0.67889
0.686982
0.693033
0.690593
0.64629
0.646453
0.654924
0.663082
0.671036
0.679034
0.687781
0.697684
0.706857
0.710532
0.674011
0.647016
0.656812
0.666352
0.675809
0.685329
0.695532
0.707033
0.718847
0.727673
0.697137
0.646458
0.657294
0.667873
0.678462
0.689191
0.700603
0.713421
0.727436
0.740642
0.715016
0.646267
0.657775
0.66896
0.680207
0.691666
0.703863
0.717649
0.733629
0.751013
0.730221
0.645319
0.657135
0.668536
0.679982
0.691636
0.70403
0.718172
0.735582
0.756973
0.741419
0.645104
0.656994
0.668439
0.679983
0.691779
0.704282
0.718518
0.736857
0.762003
0.750993
0.64078
0.652729
0.664249
0.675803
0.687388
0.69934
0.712735
0.730745
0.759207
0.7537
0.609032
0.611883
0.6134
0.613301
0.611127
0.606055
0.596792
0.581608
0.555947
0.501393
0.622614
0.626906
0.630024
0.631543
0.631134
0.6281
0.620906
0.607307
0.583715
0.528625
0.630143
0.635522
0.6399
0.643009
0.644515
0.643902
0.63974
0.629287
0.609132
0.555037
0.633618
0.640523
0.646589
0.651633
0.655227
0.656877
0.655285
0.647633
0.63078
0.57862
0.63591
0.644154
0.651681
0.658371
0.663804
0.667449
0.66811
0.663068
0.649404
0.599694
0.636656
0.645996
0.654669
0.662634
0.66954
0.674831
0.677395
0.6747
0.663905
0.616316
0.637431
0.647522
0.656936
0.665738
0.67366
0.680179
0.684321
0.683876
0.676076
0.631101
0.637164
0.647676
0.65748
0.666729
0.675225
0.682514
0.687806
0.689361
0.684791
0.643435
0.637146
0.64778
0.657739
0.66727
0.67626
0.684286
0.690612
0.69391
0.692705
0.65511
0.633282
0.643976
0.65409
0.663759
0.672821
0.680903
0.687494
0.691716
0.693982
0.66118
0.590467
0.591992
0.59201
0.590304
0.58649
0.58003
0.570226
0.556267
0.536763
0.508846
0.606652
0.609555
0.611051
0.610765
0.608199
0.602578
0.592766
0.577198
0.553539
0.517873
0.61636
0.620442
0.623244
0.624426
0.623524
0.6197
0.611477
0.596602
0.571734
0.530068
0.621642
0.627196
0.631606
0.634585
0.635569
0.633684
0.627227
0.613373
0.587951
0.541382
0.625288
0.632155
0.638
0.642583
0.645302
0.645259
0.64061
0.628098
0.602803
0.552644
0.627103
0.635088
0.642116
0.648004
0.652189
0.653748
0.650763
0.639702
0.614944
0.562296
0.628688
0.637474
0.645329
0.652149
0.657442
0.660303
0.658836
0.64941
0.625787
0.571913
0.629057
0.638341
0.646703
0.65412
0.660179
0.664026
0.663866
0.656156
0.634242
0.580301
0.629441
0.638887
0.647455
0.655207
0.661857
0.666621
0.667794
0.661929
0.642145
0.588154
0.626219
0.635707
0.644437
0.652337
0.659095
0.66399
0.665766
0.661365
0.644184
0.590316
0.577383
0.578105
0.577507
0.575458
0.571778
0.566273
0.558828
0.549575
0.538823
0.526268
0.593781
0.595605
0.596036
0.59481
0.591571
0.585859
0.577125
0.564867
0.54866
0.528756
0.604426
0.607364
0.608935
0.608821
0.606609
0.601663
0.59308
0.57976
0.560494
0.534561
0.610849
0.615133
0.618116
0.619467
0.618656
0.614884
0.606912
0.593027
0.571171
0.539321
0.615507
0.621031
0.62533
0.628099
0.628707
0.626251
0.619202
0.605274
0.581501
0.544433
0.6182
0.624819
0.630259
0.634254
0.636142
0.634944
0.628898
0.615219
0.590003
0.548381
0.620489
0.627928
0.634217
0.639148
0.642084
0.642008
0.637016
0.623946
0.597978
0.552799
0.62143
0.629418
0.636278
0.641869
0.645614
0.646496
0.642564
0.630413
0.604412
0.556705
0.622145
0.630343
0.637452
0.643405
0.647731
0.649487
0.646759
0.635961
0.610697
0.560701
0.619362
0.627626
0.634934
0.641085
0.645616
0.647608
0.645441
0.635782
0.612127
0.560155
0.569356
0.569707
0.569084
0.567441
0.564733
0.560945
0.556181
0.550838
0.545775
0.541509
0.584231
0.585353
0.5853
0.583919
0.581025
0.576422
0.569951
0.561608
0.551684
0.541202
0.594593
0.59666
0.597461
0.596762
0.594277
0.589634
0.582415
0.572282
0.559187
0.544184
0.601397
0.604627
0.606565
0.606913
0.605266
0.601056
0.593552
0.581964
0.565726
0.545729
0.606594
0.61095
0.614019
0.615496
0.61485
0.611355
0.603972
0.591408
0.572401
0.547473
0.609852
0.615243
0.619348
0.621881
0.622223
0.619528
0.61247
0.599253
0.577795
0.548115
0.612639
0.618841
0.623762
0.627158
0.628377
0.626489
0.61994
0.606482
0.583131
0.549241
0.614025
0.620801
0.626312
0.63036
0.632315
0.631201
0.625309
0.612011
0.587411
0.549964
0.615056
0.622082
0.627872
0.632285
0.634759
0.634355
0.629321
0.616722
0.591698
0.551015
0.612641
0.619759
0.625774
0.630412
0.633128
0.632982
0.628366
0.616366
0.591857
0.548402
0.565043
0.565232
0.564769
0.563652
0.561896
0.559548
0.556751
0.5539
0.551903
0.551651
0.577607
0.578288
0.578076
0.576893
0.574674
0.571379
0.567029
0.561769
0.555957
0.550336
0.586892
0.58831
0.588666
0.587809
0.585578
0.581806
0.576372
0.569305
0.560925
0.552239
0.593471
0.595845
0.597047
0.596848
0.594978
0.591104
0.584887
0.576108
0.564903
0.552538
0.598784
0.602135
0.604251
0.604864
0.603585
0.599914
0.593262
0.58307
0.569109
0.552804
0.602308
0.606602
0.609606
0.611052
0.610437
0.607123
0.600254
0.588883
0.572255
0.55185
0.605392
0.610456
0.6142
0.616378
0.616412
0.613556
0.606706
0.594516
0.575564
0.551226
0.607079
0.612718
0.61703
0.619796
0.620422
0.618082
0.611471
0.598857
0.578056
0.550114
0.608365
0.614285
0.61889
0.622005
0.623054
0.621208
0.615061
0.602549
0.58063
0.549351
0.606226
0.612259
0.617104
0.620451
0.621747
0.620131
0.61423
0.601846
0.579656
0.545528
0.563228
0.563352
0.563066
0.562387
0.561344
0.55999
0.558441
0.557026
0.5566
0.558389
0.573351
0.573769
0.57356
0.572691
0.571153
0.56897
0.566215
0.563044
0.559711
0.556649
0.581149
0.582107
0.582236
0.581454
0.579688
0.57689
0.573078
0.568391
0.563165
0.558069
0.587079
0.588785
0.589503
0.589075
0.587346
0.584154
0.579394
0.573112
0.565643
0.557968
0.592154
0.594674
0.596089
0.59619
0.594718
0.591379
0.585896
0.578134
0.568305
0.557698
0.595674
0.599018
0.601157
0.601858
0.600758
0.597428
0.591388
0.582256
0.569988
0.556153
0.598861
0.60291
0.605683
0.606956
0.606273
0.603091
0.596716
0.586473
0.571921
0.554812
0.600699
0.605299
0.608589
0.61035
0.610086
0.607159
0.600679
0.589654
0.573126
0.552863
0.602167
0.607064
0.610644
0.612719
0.612771
0.61013
0.603774
0.592427
0.574497
0.551287
0.600219
0.605243
0.609061
0.611356
0.611625
0.60915
0.602879
0.591338
0.572709
0.54703
0.562909
0.563005
0.56285
0.562468
0.561884
0.561138
0.560315
0.559677
0.560021
0.562852
0.57085
0.571112
0.570961
0.570384
0.569392
0.568023
0.566348
0.564482
0.562588
0.560895
0.577072
0.577712
0.577743
0.577126
0.575837
0.573887
0.571336
0.568327
0.565109
0.562079
0.582122
0.583324
0.583741
0.583274
0.581845
0.579399
0.575946
0.571617
0.566729
0.561923
0.586707
0.588561
0.589483
0.589322
0.587924
0.585141
0.580887
0.575221
0.568466
0.561549
0.590005
0.592553
0.594036
0.59427
0.593015
0.590016
0.585053
0.578054
0.569267
0.559921
0.593127
0.596295
0.598298
0.598943
0.597905
0.594824
0.589321
0.581144
0.570351
0.558443
0.594971
0.598646
0.601094
0.602116
0.601331
0.598288
0.592447
0.583334
0.570717
0.55626
0.596545
0.600517
0.603235
0.604521
0.603949
0.60102
0.595064
0.585393
0.571377
0.554539
0.594716
0.598816
0.601756
0.603231
0.602826
0.599984
0.59398
0.583934
0.569069
0.550265
0.563383
0.563463
0.56339
0.563187
0.562873
0.562475
0.562053
0.561818
0.562518
0.565877
0.569558
0.569726
0.569634
0.569278
0.568673
0.56785
0.566862
0.565785
0.564716
0.56377
0.574316
0.57474
0.57474
0.574298
0.573413
0.572114
0.570464
0.568575
0.566611
0.564799
0.578421
0.579255
0.579495
0.579084
0.577991
0.576213
0.573804
0.570899
0.567739
0.564719
0.582369
0.583707
0.584296
0.584037
0.582845
0.580666
0.577508
0.573498
0.568932
0.564417
0.585294
0.587194
0.588201
0.588175
0.586973
0.584464
0.580581
0.575401
0.569236
0.562944
0.588222
0.590648
0.592061
0.592308
0.59117
0.588438
0.583941
0.57766
0.569852
0.561628
0.589945
0.592818
0.594598
0.595112
0.594092
0.591246
0.586291
0.579072
0.569717
0.559532
0.59156
0.594714
0.596729
0.597449
0.596552
0.593695
0.588486
0.580629
0.570033
0.558033
0.589785
0.593058
0.595268
0.596139
0.595351
0.592506
0.587156
0.578851
0.567431
0.553945
0.564204
0.564273
0.564244
0.564141
0.563977
0.563769
0.563559
0.563522
0.564363
0.567972
0.569039
0.569148
0.569101
0.568893
0.568538
0.568059
0.567489
0.566877
0.566278
0.565746
0.572541
0.572821
0.572817
0.572522
0.571944
0.571111
0.570072
0.568906
0.567714
0.566627
0.575758
0.576328
0.576469
0.576149
0.575361
0.574122
0.572492
0.570582
0.568558
0.566657
0.579014
0.579962
0.580336
0.580072
0.579131
0.577505
0.575242
0.572471
0.569424
0.566482
0.581484
0.582871
0.583543
0.5834
0.582362
0.580376
0.577457
0.573728
0.569472
0.565255
0.584135
0.585953
0.586929
0.586948
0.585876
0.583603
0.580085
0.57541
0.569871
0.564235
0.585635
0.587831
0.589096
0.58929
0.588236
0.585765
0.581758
0.576236
0.56946
0.562366
0.58724
0.58969
0.59115
0.591491
0.590487
0.587924
0.583606
0.577468
0.569667
0.561236
0.585467
0.588018
0.589641
0.590091
0.589145
0.586537
0.582028
0.575445
0.566934
0.557422
0.565114
0.565174
0.565166
0.565116
0.565032
0.564924
0.564823
0.564876
0.565743
0.569444
0.568976
0.569049
0.569028
0.568913
0.568711
0.568438
0.568115
0.567771
0.567438
0.567139
0.571454
0.571638
0.571638
0.571452
0.57109
0.570571
0.569932
0.569222
0.568504
0.567852
0.573913
0.574297
0.574383
0.574154
0.573611
0.572778
0.571704
0.570469
0.569184
0.567987
0.576492
0.577151
0.577387
0.577163
0.576462
0.575298
0.573725
0.57185
0.569838
0.567927
0.578484
0.579476
0.579917
0.579742
0.578909
0.577409
0.575287
0.572667
0.569771
0.566961
0.580819
0.582151
0.582813
0.582722
0.581801
0.580006
0.577355
0.573969
0.570106
0.566276
0.582023
0.583663
0.584542
0.584553
0.583589
0.581564
0.578456
0.574359
0.569549
0.564663
0.58359
0.58545
0.586481
0.586589
0.585623
0.583464
0.58004
0.575405
0.56979
0.563944
0.581776
0.583715
0.584877
0.585057
0.584108
0.58187
0.578243
0.57321
0.56703
0.560421
0.565979
0.566032
0.566034
0.56601
0.565966
0.565911
0.565864
0.565949
0.56678
0.570475
0.56916
0.569209
0.569202
0.56914
0.569028
0.568875
0.568694
0.568502
0.568319
0.56815
0.570823
0.570943
0.570946
0.570835
0.570615
0.5703
0.569914
0.569488
0.569059
0.568669
0.572685
0.57294
0.572995
0.57284
0.572481
0.571937
0.571244
0.570459
0.56965
0.5689
0.574644
0.575093
0.575243
0.575071
0.574573
0.573768
0.572703
0.571459
0.570147
0.568913
0.576181
0.576876
0.577162
0.576999
0.576367
0.575278
0.573782
0.571983
0.570039
0.568181
0.578198
0.579153
0.579594
0.579466
0.578727
0.577371
0.575439
0.573047
0.570396
0.567818
0.579059
0.580255
0.580853
0.580776
0.579964
0.578383
0.576058
0.573103
0.569753
0.566428
0.580588
0.581966
0.582677
0.582658
0.581811
0.580084
0.577473
0.574076
0.570118
0.566115
0.5787
0.580133
0.580946
0.580968
0.580112
0.578293
0.575492
0.571767
0.567384
0.562857
0.56674
0.566786
0.566792
0.566781
0.566758
0.566729
0.566707
0.566797
0.567556
0.571172
0.56946
0.569492
0.569493
0.56946
0.569398
0.569313
0.569212
0.569105
0.569005
0.568909
0.570474
0.570551
0.570556
0.570492
0.570362
0.570175
0.569946
0.569693
0.569439
0.569208
0.571907
0.572074
0.57211
0.57201
0.571779
0.571433
0.570996
0.570503
0.569999
0.569531
0.573321
0.573622
0.573718
0.573594
0.573254
0.572714
0.572011
0.5712
0.570356
0.569566
0.574458
0.574934
0.575118
0.574985
0.574528
0.573764
0.572738
0.571528
0.570244
0.569028
0.576181
0.576851
0.57714
0.577014
0.576453
0.575467
0.574101
0.572451
0.570663
0.568946
0.576676
0.577526
0.577925
0.577817
0.577174
0.575991
0.57431
0.572235
0.569946
0.567713
0.578188
0.579185
0.579664
0.579587
0.578896
0.577575
0.575653
0.573233
0.570498
0.567792
0.576199
0.577229
0.577782
0.577726
0.577011
0.5756
0.573517
0.570841
0.567803
0.564748
0.567376
0.567417
0.567422
0.567418
0.567405
0.567389
0.567379
0.567458
0.568123
0.5716
0.569804
0.569825
0.569828
0.569811
0.569777
0.569729
0.569672
0.569612
0.569559
0.569503
0.570282
0.570331
0.570336
0.5703
0.570225
0.570116
0.569982
0.569835
0.569686
0.56955
0.571445
0.571553
0.571577
0.571515
0.571371
0.571155
0.570884
0.57058
0.570268
0.56998
0.572395
0.572592
0.572653
0.57257
0.572345
0.571992
0.571538
0.57102
0.570484
0.569985
0.573201
0.57352
0.573637
0.573537
0.57322
0.572701
0.572015
0.571219
0.570384
0.5696
0.57467
0.575129
0.575315
0.57521
0.574804
0.574112
0.573174
0.572062
0.570876
0.569747
0.574791
0.575379
0.575638
0.575533
0.57505
0.574198
0.57302
0.5716
0.570068
0.568591
0.576334
0.577037
0.577353
0.577261
0.576728
0.575758
0.574391
0.572711
0.570859
0.569056
0.574214
0.574931
0.575299
0.575214
0.574652
0.573604
0.572109
0.570242
0.568183
0.566154
0.567879
0.567915
0.56792
0.567918
0.567911
0.567902
0.567895
0.567958
0.568514
0.571788
0.570159
0.570173
0.570176
0.570167
0.570148
0.570121
0.570088
0.570054
0.570025
0.569991
0.570163
0.570193
0.570197
0.570178
0.570135
0.570073
0.569995
0.56991
0.569824
0.569746
0.571201
0.57127
0.571286
0.571249
0.571161
0.57103
0.570865
0.570679
0.57049
0.570312
0.571762
0.571888
0.571927
0.571873
0.571729
0.571504
0.571217
0.570892
0.570557
0.570246
0.572313
0.572522
0.572596
0.572525
0.572312
0.57197
0.571523
0.57101
0.570477
0.569979
0.573569
0.573875
0.573995
0.573914
0.573632
0.573163
0.572538
0.571806
0.571035
0.570303
0.573315
0.573711
0.573876
0.573787
0.57344
0.572848
0.572047
0.571101
0.570097
0.56914
0.574961
0.575445
0.575649
0.575564
0.575173
0.574488
0.573546
0.572411
0.571183
0.569998
0.572665
0.573147
0.573386
0.573302
0.572883
0.572134
0.571097
0.569831
0.568468
0.567145
0.56823
0.568262
0.568266
0.568266
0.568262
0.568256
0.568251
0.568296
0.568733
0.571731
0.570522
0.570531
0.570534
0.570528
0.570517
0.570501
0.570482
0.570462
0.570446
0.570424
0.57006
0.570078
0.570082
0.570071
0.570047
0.570011
0.569967
0.569919
0.56987
0.569826
0.571103
0.571147
0.571158
0.571137
0.571085
0.571007
0.570908
0.570798
0.570684
0.570577
0.571347
0.571426
0.57145
0.571416
0.571326
0.571186
0.571009
0.570808
0.570603
0.570412
0.571717
0.571851
0.571897
0.571849
0.571711
0.571491
0.571207
0.570884
0.570549
0.570239
0.572793
0.572992
0.573067
0.57301
0.572822
0.572514
0.572109
0.571639
0.57115
0.570683
0.572173
0.572431
0.572534
0.572465
0.572225
0.571827
0.571298
0.570684
0.57004
0.569435
0.574009
0.574334
0.574463
0.574394
0.574121
0.573654
0.573026
0.572279
0.571484
0.570714
0.571446
0.57176
0.571911
0.571839
0.571541
0.571027
0.570331
0.569496
0.568617
0.567771
0.568351
0.568378
0.568381
0.568383
0.568381
0.568379
0.568376
0.568405
0.568719
0.571348
0.570914
0.57092
0.570921
0.570918
0.570912
0.570902
0.570891
0.57088
0.570871
0.570855
0.569952
0.569962
0.569964
0.569957
0.569943
0.569922
0.569896
0.569868
0.56984
0.569815
0.571102
0.57113
0.571138
0.571127
0.571098
0.571053
0.570996
0.570932
0.570866
0.570802
0.571104
0.571152
0.571167
0.571146
0.57109
0.571005
0.570897
0.570775
0.57065
0.570534
0.571361
0.571445
0.571473
0.571442
0.571355
0.571217
0.571041
0.57084
0.570633
0.570442
0.572273
0.572399
0.572446
0.572407
0.572286
0.572091
0.571836
0.571544
0.571241
0.57095
0.571324
0.571488
0.57155
0.5715
0.57134
0.571079
0.570737
0.570347
0.56994
0.569568
0.573443
0.573655
0.573735
0.573684
0.5735
0.573194
0.572787
0.572308
0.571806
0.571308
0.5704
0.570598
0.57069
0.570635
0.570432
0.57009
0.569636
0.5691
0.568548
0.568018
0.568039
0.568062
0.568065
0.568066
0.568066
0.568066
0.568064
0.56808
0.568273
0.570415
0.571403
0.571408
0.571409
0.571408
0.571406
0.571402
0.571398
0.571393
0.571389
0.571379
0.569869
0.569873
0.569872
0.569867
0.569856
0.569842
0.569824
0.569804
0.569784
0.569768
0.571158
0.571176
0.571182
0.571178
0.571163
0.571139
0.571109
0.571074
0.571038
0.571003
0.571003
0.571032
0.571041
0.571028
0.570994
0.570942
0.570876
0.570802
0.570726
0.570655
0.571207
0.571259
0.571276
0.571257
0.571203
0.571118
0.571009
0.570885
0.570758
0.57064
0.571966
0.572043
0.572072
0.572047
0.571972
0.57185
0.571694
0.571517
0.571335
0.571158
0.570813
0.570916
0.570953
0.570918
0.570813
0.570644
0.570424
0.570175
0.569914
0.569688
0.573286
0.57342
0.573469
0.573434
0.573314
0.573118
0.572862
0.572562
0.572255
0.571927
0.569272
0.569396
0.569451
0.569412
0.569277
0.569055
0.568764
0.568423
0.568081
0.567752
0.567021
0.567032
0.567031
0.567026
0.567019
0.567009
0.566997
0.56699
0.567062
0.568536
0.572135
0.572143
0.572145
0.572148
0.572152
0.572157
0.572163
0.572169
0.572175
0.572176
0.569914
0.569914
0.569911
0.569905
0.569894
0.56988
0.569862
0.569842
0.569821
0.569798
0.571228
0.571241
0.571246
0.571245
0.571239
0.571228
0.571213
0.571197
0.571181
0.571166
0.571011
0.571029
0.571034
0.571026
0.571005
0.570972
0.570931
0.570884
0.570835
0.570789
0.571204
0.571237
0.571248
0.571236
0.571202
0.571148
0.571079
0.571001
0.57092
0.570843
0.571827
0.571876
0.571894
0.571878
0.57183
0.571754
0.571657
0.571549
0.571441
0.571336
0.570772
0.57084
0.570864
0.57084
0.57077
0.570657
0.570511
0.570342
0.57016
0.570003
0.573646
0.573729
0.57376
0.573736
0.573657
0.573531
0.573369
0.573183
0.573002
0.572788
0.56775
0.56784
0.567875
0.56785
0.567759
0.567612
0.56742
0.567195
0.56697
0.566744
0.565411
0.565412
0.565401
0.565383
0.565356
0.565321
0.565278
0.565224
0.565165
0.565673
0.573168
0.573176
0.573183
0.573192
0.573205
0.573222
0.573245
0.573275
0.57331
0.573357
0.570151
0.570149
0.570145
0.570138
0.570127
0.570111
0.570091
0.570067
0.570038
0.570001
0.57126
0.571269
0.571274
0.571274
0.571272
0.571266
0.571259
0.571253
0.571249
0.571248
0.571065
0.571078
0.571081
0.571076
0.571061
0.571038
0.571008
0.570975
0.57094
0.570905
0.571263
0.571287
0.571295
0.571287
0.571263
0.571224
0.571175
0.571119
0.571061
0.571005
0.571781
0.571817
0.57183
0.571818
0.571784
0.571729
0.57166
0.571585
0.571512
0.571447
0.571185
0.571239
0.571257
0.571239
0.571187
0.571104
0.570994
0.570864
0.570715
0.570568
0.574497
0.574555
0.574577
0.574559
0.574502
0.57441
0.574296
0.574172
0.574066
0.573961
0.565917
0.566009
0.566041
0.566024
0.565957
0.565847
0.565701
0.56553
0.56535
0.565142
0.357245
0.262854
0.259868
0.358737
0.35065
0.254703
0.250216
0.355903
0.341339
0.244935
0.239498
0.335528
0.329566
0.232248
0.223677
0.300895
0.316232
0.218594
0.206605
0.269098
0.303413
0.208527
0.197224
0.260253
0.292254
0.202267
0.192978
0.256449
0.279664
0.194506
0.186465
0.247411
0.267042
0.186946
0.179501
0.236119
0.255013
0.18007
0.170999
0.219539
0.393814
0.357274
0.351142
0.374998
0.397525
0.355628
0.347697
0.37152
0.396401
0.350198
0.337599
0.358402
0.393068
0.342368
0.323612
0.339326
0.388689
0.333928
0.309795
0.320043
0.379883
0.321004
0.292064
0.297397
0.370945
0.309013
0.276376
0.276669
0.361933
0.298272
0.263737
0.262129
0.353545
0.288688
0.25232
0.24801
0.34546
0.278453
0.238412
0.22877
0.471671
0.458368
0.454105
0.460453
0.475798
0.458234
0.452584
0.460116
0.473947
0.453784
0.446387
0.451887
0.468959
0.445955
0.436225
0.439185
0.462797
0.437044
0.424873
0.425701
0.45456
0.426461
0.412654
0.412566
0.446492
0.416356
0.401095
0.399737
0.437836
0.406017
0.389362
0.386061
0.429877
0.39709
0.379044
0.373131
0.423135
0.390507
0.370131
0.359185
0.505297
0.500738
0.498668
0.499054
0.511204
0.503181
0.500122
0.501824
0.510338
0.50068
0.49637
0.497027
0.506306
0.494721
0.48889
0.488424
0.501255
0.487755
0.480441
0.478966
0.493843
0.478472
0.469765
0.467202
0.48612
0.468969
0.458916
0.455165
0.477574
0.458832
0.447465
0.442231
0.469035
0.449284
0.436728
0.429569
0.459676
0.440279
0.42637
0.415465
0.526848
0.525882
0.524691
0.523236
0.533437
0.529511
0.527588
0.527635
0.533218
0.528305
0.525509
0.52479
0.530164
0.52399
0.520151
0.518566
0.526294
0.518819
0.513929
0.511469
0.520339
0.511535
0.505573
0.502157
0.51408
0.503969
0.496933
0.492499
0.50684
0.495482
0.487356
0.481747
0.499669
0.487444
0.478333
0.471195
0.491796
0.479782
0.469701
0.459439
0.539364
0.540025
0.539346
0.537297
0.546439
0.544361
0.543182
0.542897
0.546636
0.543942
0.542164
0.54132
0.544356
0.540836
0.53833
0.536836
0.541382
0.53698
0.533711
0.531534
0.536471
0.531129
0.52705
0.524134
0.531282
0.524994
0.5201
0.516416
0.525123
0.517923
0.512215
0.507688
0.519119
0.511291
0.504891
0.499277
0.512056
0.504374
0.497423
0.489611
0.547204
0.548667
0.548276
0.546018
0.554554
0.553405
0.552692
0.55241
0.554973
0.55342
0.552301
0.551632
0.553323
0.551226
0.549604
0.548469
0.551082
0.548391
0.546225
0.544586
0.547098
0.543764
0.541014
0.538826
0.542915
0.538928
0.535589
0.532835
0.537804
0.533191
0.529273
0.525925
0.532984
0.527951
0.523569
0.519483
0.526785
0.52178
0.517063
0.511551
0.552275
0.554167
0.553942
0.551593
0.559703
0.559049
0.55862
0.558411
0.560277
0.559351
0.55865
0.558185
0.559134
0.557842
0.556797
0.556009
0.557499
0.555803
0.554378
0.55323
0.554305
0.552171
0.550335
0.548792
0.551002
0.548424
0.546174
0.54423
0.546811
0.543813
0.541165
0.538815
0.543082
0.539811
0.536866
0.534043
0.537617
0.534322
0.531172
0.52748
0.555721
0.55786
0.557732
0.555327
0.563058
0.562677
0.562419
0.562281
0.563728
0.563169
0.562732
0.562422
0.563001
0.562192
0.561521
0.560992
0.561866
0.56078
0.559844
0.559064
0.559356
0.557968
0.556745
0.555687
0.556838
0.555147
0.553637
0.552297
0.553446
0.551477
0.549698
0.548083
0.550696
0.548548
0.546577
0.544672
0.545863
0.543675
0.541578
0.539163
0.558176
0.560467
0.560394
0.557946
0.565303
0.565078
0.564923
0.564836
0.565982
0.565642
0.565369
0.565168
0.565585
0.565074
0.564644
0.564295
0.564853
0.564152
0.563539
0.563016
0.562928
0.562018
0.561205
0.560489
0.5611
0.559982
0.55897
0.558058
0.558381
0.557077
0.555883
0.554786
0.556451
0.555026
0.553707
0.552436
0.552177
0.550714
0.549318
0.547752
0.560005
0.562394
0.562353
0.559871
0.566851
0.566716
0.566623
0.56657
0.567461
0.567254
0.567085
0.566956
0.567314
0.566991
0.566715
0.566488
0.566881
0.566427
0.566026
0.56568
0.565443
0.564845
0.564305
0.563824
0.56421
0.563468
0.562791
0.562177
0.562035
0.561168
0.560367
0.559627
0.560782
0.55983
0.558947
0.558105
0.556989
0.556009
0.555077
0.554064
0.561426
0.563876
0.563852
0.561348
0.567953
0.567871
0.567815
0.567784
0.568433
0.568307
0.568203
0.568121
0.568476
0.568272
0.568096
0.56795
0.568241
0.567948
0.567687
0.56746
0.56719
0.566798
0.566441
0.566122
0.566453
0.56596
0.565509
0.565099
0.564691
0.564115
0.563579
0.563083
0.564008
0.563371
0.562781
0.562226
0.560611
0.559954
0.559333
0.558679
0.562571
0.565051
0.565037
0.562526
0.568768
0.568716
0.568683
0.568666
0.569066
0.56899
0.568926
0.568875
0.569265
0.569136
0.569025
0.568932
0.569137
0.568949
0.568781
0.568633
0.568385
0.568129
0.567895
0.567685
0.568047
0.567721
0.567423
0.567151
0.566571
0.566189
0.565833
0.565503
0.566383
0.565956
0.565565
0.565202
0.563288
0.562848
0.562436
0.562015
0.563527
0.566
0.565992
0.5635
0.569396
0.569363
0.569342
0.569334
0.569466
0.569421
0.569382
0.569351
0.569812
0.569732
0.569662
0.569604
0.569714
0.569595
0.569487
0.569393
0.569186
0.569021
0.568869
0.568733
0.569159
0.568946
0.568751
0.568574
0.567848
0.567598
0.567364
0.567146
0.568109
0.567825
0.567567
0.567333
0.565217
0.564925
0.564654
0.564385
0.564347
0.566771
0.566767
0.564332
0.569907
0.569885
0.569872
0.569869
0.569697
0.569671
0.569648
0.569628
0.570207
0.570157
0.570115
0.570079
0.570078
0.570003
0.569936
0.569876
0.569716
0.569611
0.569515
0.569427
0.569922
0.569785
0.569659
0.569545
0.568664
0.568503
0.568352
0.568209
0.569356
0.569167
0.569
0.568854
0.566556
0.566365
0.566188
0.566019
0.565058
0.567372
0.56737
0.56505
0.570355
0.57034
0.570332
0.570332
0.569798
0.569783
0.56977
0.569758
0.57051
0.57048
0.570454
0.570432
0.570309
0.570263
0.570221
0.570184
0.570074
0.570008
0.569947
0.569892
0.57044
0.570353
0.570273
0.570202
0.569137
0.569036
0.568939
0.568847
0.57027
0.570143
0.570036
0.569949
0.567412
0.567288
0.567175
0.567071
0.565622
0.567742
0.567741
0.565618
0.570799
0.570789
0.570783
0.570784
0.569801
0.569792
0.569785
0.569778
0.570761
0.570742
0.570727
0.570714
0.570471
0.570443
0.570418
0.570396
0.570339
0.570298
0.570261
0.570228
0.570799
0.570744
0.570695
0.570651
0.569386
0.569323
0.569263
0.569205
0.570988
0.570901
0.570834
0.570787
0.567809
0.56773
0.567659
0.567596
0.565864
0.567673
0.567673
0.565863
0.571333
0.571326
0.571322
0.571323
0.569759
0.569754
0.569749
0.569746
0.570978
0.570967
0.570958
0.57095
0.570615
0.570598
0.570583
0.57057
0.570573
0.570548
0.570525
0.570505
0.571069
0.571036
0.571006
0.570978
0.56957
0.56953
0.569492
0.569458
0.571679
0.571616
0.571574
0.571554
0.567636
0.567587
0.567543
0.567504
0.565452
0.566776
0.566776
0.565451
0.57214
0.572137
0.572135
0.572133
0.569787
0.56978
0.569777
0.569779
0.571153
0.571148
0.571142
0.571136
0.570761
0.570749
0.57074
0.570733
0.570796
0.570779
0.570765
0.570754
0.571288
0.571268
0.571249
0.571231
0.569891
0.569859
0.569835
0.56982
0.572587
0.572537
0.57251
0.572507
0.566672
0.566641
0.566613
0.566589
0.564394
0.564968
0.564968
0.564393
0.57336
0.573375
0.573373
0.573355
0.569975
0.569963
0.569961
0.56997
0.571248
0.571247
0.571243
0.571237
0.570881
0.570871
0.570865
0.570861
0.570966
0.570952
0.570942
0.570936
0.571427
0.571415
0.571401
0.571385
0.570404
0.570367
0.570349
0.570352
0.573877
0.573845
0.573825
0.573818
0.56505
0.565021
0.565
0.56499
0.524415
0.563612
0.579012
0.588292
0.596178
0.603774
0.610944
0.617372
0.623259
0.628765
0.518337
0.544002
0.564004
0.579547
0.592598
0.603238
0.612451
0.620651
0.628151
0.635128
0.501903
0.527003
0.556322
0.574558
0.589947
0.602298
0.612936
0.62232
0.63075
0.638324
0.477386
0.509177
0.543336
0.564654
0.582387
0.596591
0.608858
0.619695
0.629435
0.638082
0.454024
0.492875
0.531118
0.555811
0.575605
0.591542
0.605249
0.617338
0.628172
0.637661
0.42505
0.47622
0.518519
0.5466
0.56838
0.585972
0.600978
0.614186
0.625996
0.636249
0.395882
0.462705
0.508392
0.539767
0.56319
0.5822
0.598242
0.612319
0.624815
0.635521
0.366093
0.450361
0.498647
0.5333
0.55808
0.578366
0.595259
0.610031
0.623061
0.634185
0.337393
0.441211
0.490941
0.528737
0.554648
0.576196
0.593815
0.609118
0.622395
0.633749
0.302364
0.430815
0.479872
0.520281
0.547367
0.570133
0.588618
0.604692
0.618501
0.630259
0.458026
0.5032
0.531048
0.551249
0.566315
0.577857
0.586991
0.594361
0.600338
0.605168
0.454304
0.501712
0.533694
0.556258
0.572771
0.58535
0.59547
0.6039
0.611083
0.617276
0.449012
0.499494
0.534981
0.558176
0.575346
0.588677
0.599652
0.608973
0.617029
0.623992
0.43781
0.4911
0.528782
0.553016
0.571506
0.586116
0.598369
0.608939
0.618213
0.626261
0.425532
0.480999
0.520949
0.547008
0.567049
0.583055
0.596565
0.60828
0.618619
0.627551
0.408482
0.468203
0.511143
0.53961
0.561369
0.578835
0.593556
0.606343
0.61766
0.627405
0.389736
0.456674
0.50267
0.533819
0.557133
0.575919
0.591647
0.605288
0.61732
0.627591
0.36679
0.445705
0.494131
0.528109
0.552727
0.572696
0.589243
0.603558
0.616138
0.626871
0.343354
0.437613
0.487132
0.523927
0.549572
0.570662
0.587886
0.602712
0.615557
0.62659
0.315733
0.428976
0.476904
0.516073
0.542725
0.564927
0.582938
0.598473
0.611818
0.623314
0.491348
0.511889
0.528329
0.542279
0.554074
0.563899
0.571989
0.578553
0.58375
0.587693
0.484551
0.510104
0.531201
0.548368
0.562336
0.573714
0.583067
0.590804
0.597199
0.602459
0.479178
0.508048
0.532394
0.55127
0.566448
0.578778
0.589025
0.597669
0.605002
0.611189
0.469282
0.500643
0.527548
0.548035
0.5646
0.578162
0.589608
0.59944
0.607964
0.615262
0.45877
0.491655
0.521169
0.543495
0.561573
0.576459
0.589111
0.60006
0.609654
0.61789
0.44399
0.480156
0.512596
0.537159
0.556908
0.573202
0.587053
0.599074
0.60967
0.618776
0.427751
0.469435
0.504878
0.531927
0.553258
0.570866
0.585752
0.598649
0.610008
0.619721
0.408761
0.459153
0.497022
0.52668
0.549354
0.568125
0.583842
0.597425
0.60936
0.619581
0.389277
0.451752
0.490694
0.523009
0.546714
0.566521
0.582876
0.596938
0.609139
0.619681
0.367047
0.444441
0.481785
0.516259
0.540768
0.561473
0.578449
0.593076
0.60567
0.616596
0.516858
0.524423
0.533088
0.541981
0.550235
0.55748
0.563624
0.568676
0.572643
0.575533
0.50964
0.522511
0.535611
0.547628
0.558178
0.567219
0.57487
0.581263
0.586493
0.590671
0.505018
0.520357
0.536185
0.550191
0.56227
0.572562
0.581332
0.588787
0.595069
0.60028
0.496288
0.513639
0.531842
0.54767
0.561304
0.572966
0.583012
0.591695
0.599183
0.605524
0.486601
0.505589
0.526132
0.543851
0.559083
0.572135
0.583431
0.593262
0.601847
0.609166
0.473824
0.495155
0.518242
0.538135
0.55508
0.569579
0.582116
0.593054
0.602673
0.610911
0.460135
0.48517
0.510926
0.53321
0.551815
0.567682
0.581315
0.593176
0.603611
0.612523
0.444212
0.475364
0.503413
0.528196
0.548239
0.565305
0.579815
0.592398
0.60345
0.612915
0.427808
0.468101
0.497314
0.524688
0.545843
0.563936
0.579098
0.592174
0.603526
0.613329
0.409647
0.460867
0.489045
0.518458
0.540378
0.559287
0.575004
0.588579
0.600291
0.610469
0.536516
0.537642
0.541343
0.546219
0.551227
0.555892
0.560009
0.563474
0.566208
0.568163
0.530063
0.536015
0.543269
0.550744
0.557864
0.564336
0.570026
0.574881
0.578865
0.582005
0.526538
0.533835
0.543067
0.552401
0.561162
0.56907
0.576046
0.58208
0.58718
0.591377
0.519361
0.527803
0.538904
0.550033
0.560429
0.569809
0.578139
0.585445
0.591756
0.597072
0.511142
0.520625
0.533602
0.546557
0.558584
0.569413
0.579045
0.587539
0.594968
0.601281
0.500251
0.511229
0.526251
0.541233
0.554971
0.567278
0.578195
0.587836
0.59633
0.603593
0.488677
0.502091
0.519305
0.536504
0.551926
0.565646
0.577717
0.588333
0.597691
0.60568
0.475448
0.492937
0.51213
0.53164
0.548548
0.563501
0.576501
0.587885