/*--------------------------------*- C++ -*----------------------------------*\
| =========                 |                                                 |
| \\      /  F ield         | foam-extend: Open Source CFD                    |
|  \\    /   O peration     | Version:     4.0                                |
|   \\  /    A nd           | Web:         http://www.foam-extend.org         |
|    \\/     M anipulation  |                                                 |
\*---------------------------------------------------------------------------*/
FoamFile
{
    version     2.0;
    format      ascii;
    class       surfaceScalarField;
    location    "3000";
    object      phi;
}
// * * * * * * * * * * * * * * * * * * * * * * * * * * * * * * * * * * * * * //

dimensions      [1 0 -1 0 0 0 0];

internalField   nonuniform List<scalar> 
97302
(
-0.000109159
5.33189e-06
-0.00061471
0.000631515
-0.000133909
5.79796e-06
-0.000618302
0.000637254
-0.000162523
6.22112e-06
-0.000621115
0.000643508
-0.000196839
6.63524e-06
-0.000623149
0.000650829
-0.000239381
7.05909e-06
-0.000624256
0.00065974
-0.000293226
7.47633e-06
-0.000623702
0.00067007
-0.000361121
7.79436e-06
-0.000619433
0.000679534
-0.00044235
7.78829e-06
-0.000606795
0.000680235
-0.000532908
7.05864e-06
-0.000575101
0.000658601
4.58611e-06
-0.000491038
-0.000669236
0.000622779
-0.000137843
7.91678e-06
-0.000859742
0.000875227
-0.0001581
8.81091e-06
-0.00086552
0.000882764
-0.000181384
9.47947e-06
-0.000870274
0.0008903
-0.000209471
9.98747e-06
-0.000873841
0.000898576
-0.000245385
1.03791e-05
-0.000876511
0.000909105
-0.000293529
1.06555e-05
-0.00087813
0.000923095
-0.000359412
1.0728e-05
-0.00087687
0.000939818
-0.000446172
1.03272e-05
-0.000867451
0.000951672
-0.000549438
8.84878e-06
-0.000836515
0.000937991
4.59676e-06
-0.000726327
-0.000721815
0.000898694
-0.000168266
8.43868e-06
-0.00110358
0.0011182
-0.000185284
9.69502e-06
-0.00111156
0.0011277
-0.000204954
1.06179e-05
-0.00111852
0.00113705
-0.000228894
1.12818e-05
-0.00112432
0.00114697
-0.000260228
1.17312e-05
-0.00112925
0.00115923
-0.00030416
1.19826e-05
-0.00113379
0.0011764
-0.000367982
1.19592e-05
-0.00113686
0.00119945
-0.000457887
1.13576e-05
-0.00113287
0.00122174
-0.000569509
9.375e-06
-0.00110629
0.00121739
3.59176e-06
-0.000974925
-0.000767607
0.00117403
-0.000199694
8.52679e-06
-0.0013439
0.00135783
-0.000215525
1.00054e-05
-0.0013554
0.00137092
-0.000233884
1.10873e-05
-0.0013659
0.00138379
-0.000256175
1.18425e-05
-0.00137523
0.00139696
-0.000285328
1.22926e-05
-0.00138336
0.00141195
-0.000326784
1.24461e-05
-0.00139103
0.00143202
-0.000389034
1.22315e-05
-0.0013979
0.00145988
-0.000480726
1.13276e-05
-0.00139911
0.00149083
-0.00059759
8.70149e-06
-0.00137792
0.00149545
1.11009e-06
-0.00122758
-0.000811545
0.00144401
-0.000233301
8.44488e-06
-0.00158429
0.00159774
-0.000248478
9.97924e-06
-0.00159973
0.00161493
-0.000266124
1.10769e-05
-0.00161422
0.00163188
-0.000287475
1.18069e-05
-0.00162752
0.00164891
-0.000315264
1.21761e-05
-0.00163936
0.00166726
-0.000354966
1.21735e-05
-0.0016504
0.00169037
-0.000415919
1.1725e-05
-0.00166095
0.00172241
-0.000508794
1.05005e-05
-0.00166726
0.00176096
-0.000629459
7.19206e-06
-0.00165189
0.00177406
-2.36926e-06
-0.00148266
-0.000852992
0.00170967
-0.000269428
8.23499e-06
-0.00182311
0.0018362
-0.000284094
9.6658e-06
-0.00184268
0.00185766
-0.000301178
1.06445e-05
-0.00186117
0.00187869
-0.000321809
1.12426e-05
-0.00187844
0.00189963
-0.000348557
1.14581e-05
-0.00189405
0.00192152
-0.000386862
1.12685e-05
-0.0019085
0.00194771
-0.000446697
1.06122e-05
-0.00192253
0.00198348
-0.000540585
9.19737e-06
-0.00193352
0.00202872
-0.000665166
5.48529e-06
-0.00192343
0.00204972
-5.67766e-06
-0.00173226
-0.000898881
0.00196928
-0.00030743
8.00692e-06
-0.00206109
0.00207379
-0.000321633
9.13891e-06
-0.00208442
0.00209915
-0.000338172
9.85934e-06
-0.00210653
0.00212385
-0.000358076
1.02126e-05
-0.00212731
0.00214824
-0.000383748
1.01875e-05
-0.00214637
0.00217331
-0.000420498
9.76552e-06
-0.00216401
0.00220226
-0.000478727
8.95207e-06
-0.00218144
0.00224133
-0.00057266
7.58475e-06
-0.00219734
0.00229289
-0.000700062
4.0237e-06
-0.00219336
0.00232222
-7.87651e-06
-0.00198027
-0.000942651
0.00222505
-0.000348439
7.22821e-06
-0.00229925
0.00231188
-0.000361994
7.89548e-06
-0.00232594
0.00234074
-0.00037784
8.29974e-06
-0.00235103
0.00236843
-0.000396922
8.41159e-06
-0.00237475
0.00239563
-0.000421418
8.18918e-06
-0.00239666
0.00242316
-0.000456338
7.60421e-06
-0.00241695
0.00245403
-0.000512199
6.76644e-06
-0.00243725
0.00249529
-0.000604743
5.74049e-06
-0.00245795
0.00255234
-0.000733301
3.1274e-06
-0.00246158
0.00259103
-8.12616e-06
-0.00222915
-0.000982709
0.00247881
-0.000390221
5.05659e-06
-0.00253426
0.00254699
-0.000402693
5.0472e-06
-0.00256345
0.00257877
-0.000417624
4.98844e-06
-0.00259091
0.00260915
-0.000436071
4.77476e-06
-0.00261752
0.0026396
-0.000459985
4.37129e-06
-0.00264307
0.0026708
-0.000493693
3.73219e-06
-0.0026673
0.00270488
-0.000547096
3.04873e-06
-0.00269126
0.00274838
-0.00063696
2.61508e-06
-0.00271671
0.0028097
-0.000764504
1.67021e-06
-0.0027287
0.0028577
-7.24329e-06
-0.00248151
-0.00101449
0.00273061
-0.00043259
-0.00275431
0.00276792
-0.000443465
-0.00278615
0.00280207
-0.000456895
-0.00281617
0.00283459
-0.00047406
-0.00284525
0.00286719
-0.000496869
-0.00287306
0.00290024
-0.000529216
-0.00289959
0.00293567
-0.000579851
-0.00292624
0.00297992
-0.000665249
-0.0029571
0.00304511
-0.000788331
-0.00298302
0.00310777
-0.00273969
-0.00103719
0.00298131
1.2328e-05
5.38523e-06
-0.000599574
-1.01149e-05
5.84988e-06
-0.000601709
-3.49041e-05
6.23818e-06
-0.000602564
-6.26633e-05
6.55733e-06
-0.000601947
-9.43059e-05
6.80262e-06
-0.000599416
-0.000130716
6.94151e-06
-0.000594233
-0.000171781
6.90112e-06
-0.00058527
-0.000214224
6.53607e-06
-0.000570888
-0.000247647
5.58677e-06
-0.000547264
3.53373e-06
-0.000505124
-0.000237095
2.25631e-05
7.97563e-06
-0.000844399
2.61312e-06
8.92875e-06
-0.000848649
-1.96448e-05
9.63723e-06
-0.000851415
-4.47834e-05
1.01313e-05
-0.000852277
-7.41133e-05
1.04168e-05
-0.000850795
-0.000109741
1.04681e-05
-0.000846029
-0.000153793
1.02154e-05
-0.000836132
-0.00020617
9.47669e-06
-0.000818014
-0.000259402
7.89603e-06
-0.000785591
4.63567e-06
-0.000720941
-0.00026589
3.21704e-05
8.48956e-06
-0.00108821
1.43769e-05
9.8867e-06
-0.00109473
-5.77912e-06
1.09329e-05
-0.00109966
-2.90249e-05
1.16735e-05
-0.00110262
-5.67756e-05
1.21053e-05
-0.00110319
-9.18281e-05
1.22029e-05
-0.00110048
-0.000138167
1.18971e-05
-0.0010922
-0.000198833
1.09676e-05
-0.00107369
-0.000270199
8.91811e-06
-0.00103595
4.49637e-06
-0.00094798
-0.000297005
4.1484e-05
8.43278e-06
-0.00132865
2.42929e-05
1.01604e-05
-0.00133848
4.58644e-06
1.14748e-05
-0.00134673
-1.84075e-05
1.24206e-05
-0.00135298
-4.60994e-05
1.29743e-05
-0.00135654
-8.1477e-05
1.30881e-05
-0.00135653
-0.000129748
1.26792e-05
-0.00135041
-0.000197089
1.15092e-05
-0.00133231
-0.000284532
8.93404e-06
-0.00129049
3.21668e-06
-0.00117862
-0.000332211
4.8928e-05
8.14498e-06
-0.00156908
3.19256e-05
1.00588e-05
-0.00158263
1.23087e-05
1.15188e-05
-0.00159465
-1.07369e-05
1.25695e-05
-0.00160462
-3.86289e-05
1.31808e-05
-0.00161167
-7.44016e-05
1.32754e-05
-0.00161481
-0.000124118
1.27474e-05
-0.0016113
-0.000196827
1.13497e-05
-0.00159439
-0.000298338
8.2714e-06
-0.00154972
1.21526e-06
-0.00141361
-0.000365387
5.41353e-05
7.66983e-06
-0.00180789
3.72566e-05
9.62352e-06
-0.00182537
1.77114e-05
1.11089e-05
-0.00184122
-5.35632e-06
1.21751e-05
-0.00185497
-3.33753e-05
1.27893e-05
-0.00186564
-6.94089e-05
1.28575e-05
-0.00187205
-0.000120136
1.2259e-05
-0.00187132
-0.000197078
1.07634e-05
-0.001856
-0.000310493
7.41986e-06
-0.00180916
-7.05963e-07
-0.00164784
-0.000392989
5.70877e-05
7.07526e-06
-0.00204587
4.03824e-05
8.87609e-06
-0.00206697
2.10377e-05
1.0256e-05
-0.00208633
-1.8277e-06
1.12454e-05
-0.00210351
-2.96447e-05
1.1807e-05
-0.00211757
-6.54723e-05
1.18382e-05
-0.00212716
-0.000116457
1.1235e-05
-0.00212943
-0.000196351
9.84645e-06
-0.00211653
-0.000319843
6.67923e-06
-0.00206912
-2.08731e-06
-0.00188327
-0.000415454
5.74951e-05
5.89635e-06
-0.00228385
4.12756e-05
7.34425e-06
-0.00230819
2.24669e-05
8.53219e-06
-0.0023305
1.66289e-07
9.43223e-06
-0.00235063
-2.70177e-05
9.99314e-06
-0.00236766
-6.20694e-05
1.00888e-05
-0.00238015
-0.000112396
9.6599e-06
-0.00238535
-0.000193736
8.67637e-06
-0.00237544
-0.000325726
6.39117e-06
-0.0023293
-2.25303e-06
-0.00212087
-0.000433839
5.58595e-05
3.41221e-06
-0.00251853
4.06932e-05
4.24196e-06
-0.00254519
2.29446e-05
5.03825e-06
-0.00256967
1.52994e-06
5.68494e-06
-0.00259235
-2.50489e-05
6.17747e-06
-0.00261267
-5.95975e-05
6.379e-06
-0.00262904
-0.000109159
6.28703e-06
-0.00263832
-0.000190798
5.98878e-06
-0.00263239
-0.00032996
5.37366e-06
-0.00258852
-1.41585e-06
-0.00235919
-0.000453114
5.31586e-05
-0.00273903
3.92766e-05
-0.00276803
2.29799e-05
-0.00279484
3.10758e-06
-0.0028197
-2.18965e-05
-0.00284188
-5.50026e-05
-0.00286011
-0.000102727
-0.00287223
-0.00018269
-0.00287115
-0.000327133
-0.0028332
-0.00259062
-0.000477619
6.83478e-06
5.29879e-06
-0.000587487
-1.19279e-05
5.70804e-06
-0.000588654
-3.2001e-05
6.00909e-06
-0.0005885
-5.32743e-05
6.20393e-06
-0.000586877
-7.54589e-05
6.27241e-06
-0.000583504
-9.78455e-05
6.16868e-06
-0.000578015
-0.000118917
5.82213e-06
-0.000570021
-0.00013574
5.13986e-06
-0.000559205
-0.000141922
4.01047e-06
-0.000545093
2.34475e-06
-0.000526496
-0.000122895
1.61531e-05
7.99829e-06
-0.000830657
-2.08943e-06
8.87635e-06
-0.000833574
-2.21532e-05
9.49112e-06
-0.000834833
-4.4008e-05
9.8589e-06
-0.000834077
-6.77114e-05
9.9613e-06
-0.00083078
-9.31617e-05
9.73846e-06
-0.000824148
-0.0001195
9.09968e-06
-0.000813072
-0.000144145
7.91289e-06
-0.000796142
-0.000160328
6.01379e-06
-0.000771412
3.25531e-06
-0.000736805
-0.000145374
2.57215e-05
8.72736e-06
-0.00107355
8.43162e-06
1.00545e-05
-0.00107861
-1.09751e-05
1.10152e-05
-0.00108178
-3.27843e-05
1.16355e-05
-0.00108259
-5.74287e-05
1.18869e-05
-0.00108047
-8.553e-05
1.16978e-05
-0.00107433
-0.000117262
1.09475e-05
-0.00106232
-0.00015087
9.43622e-06
-0.00104161
-0.000179645
6.8697e-06
-0.00100803
2.92011e-06
-0.000954966
-0.000172323
3.51865e-05
8.77958e-06
-0.00131363
1.80274e-05
1.04606e-05
-0.00132173
-1.58661e-06
1.17121e-05
-0.00132781
-2.41378e-05
1.25643e-05
-0.00133136
-5.02593e-05
1.29614e-05
-0.00133149
-8.10428e-05
1.28069e-05
-0.00132686
-0.000117623
1.19419e-05
-0.00131482
-0.000159607
1.01011e-05
-0.00129099
-0.000201474
6.83827e-06
-0.00124859
1.59765e-06
-0.00117425
-0.000204524
4.31094e-05
8.54509e-06
-0.00155385
2.5879e-05
1.04459e-05
-0.00156538
5.95659e-06
1.18782e-05
-0.00157489
-1.72573e-05
1.28743e-05
-0.00158172
-4.4616e-05
1.33659e-05
-0.00158472
-7.75557e-05
1.32265e-05
-0.00158229
-0.000118118
1.22555e-05
-0.00157105
-0.000167575
1.01232e-05
-0.00154495
-0.00022232
6.19122e-06
-0.00149433
-4.08809e-07
-0.00139686
-0.000237061
4.89625e-05
8.0613e-06
-0.00179247
3.17042e-05
1.00369e-05
-0.0018077
1.16129e-05
1.15336e-05
-0.00182078
-1.20124e-05
1.25889e-05
-0.00183106
-4.02242e-05
1.31312e-05
-0.0018372
-7.47546e-05
1.30146e-05
-0.00183731
-0.000118498
1.201e-05
-0.00182733
-0.000174543
9.74529e-06
-0.00179957
-0.00024174
5.38558e-06
-0.00174116
-2.3561e-06
-0.00161898
-0.000268657
5.26225e-05
7.37329e-06
-0.00203032
3.54719e-05
9.22389e-06
-0.002049
1.54613e-05
1.06497e-05
-0.00206544
-8.19013e-06
1.16758e-05
-0.00207895
-3.66985e-05
1.22326e-05
-0.00208817
-7.20514e-05
1.21598e-05
-0.00209096
-0.000117948
1.12257e-05
-0.00208275
-0.000179418
9.06649e-06
-0.00205438
-0.000258299
4.70841e-06
-0.00198957
-3.8661e-06
-0.00184244
-0.000297623
5.36727e-05
6.06059e-06
-0.00226804
3.70014e-05
7.55925e-06
-0.00228985
1.75128e-05
8.79097e-06
-0.00230915
-5.65434e-06
9.7375e-06
-0.00232553
-3.38204e-05
1.03373e-05
-0.0023376
-6.91605e-05
1.0418e-05
-0.00234306
-0.000116061
9.78434e-06
-0.00233701
-0.0001815
8.12474e-06
-0.00230906
-0.000271032
4.55167e-06
-0.00223961
-4.24439e-06
-0.00206837
-0.000323152
5.23811e-05
3.55377e-06
-0.00250236
3.67333e-05
4.40622e-06
-0.00252638
1.83539e-05
5.22055e-06
-0.00254772
-3.80959e-06
5.88218e-06
-0.00256633
-3.13396e-05
6.40478e-06
-0.00258121
-6.65696e-05
6.63823e-06
-0.00259003
-0.000114085
6.48476e-06
-0.00258751
-0.000182225
5.72559e-06
-0.00256185
-0.00028079
3.91351e-06
-0.00248932
-3.2631e-06
-0.002294
-0.000346959
5.00195e-05
-0.00272299
3.55417e-05
-0.00274914
1.85693e-05
-0.00277264
-2.03112e-06
-0.00279321
-2.78337e-05
-0.00280967
-6.14545e-05
-0.00281985
-0.000107798
-0.0028194
-0.000176299
-0.00279692
-0.000280719
-0.00272487
-0.00250942
-0.000365184
3.9539e-06
4.93797e-06
-0.000579036
-1.02957e-05
5.27651e-06
-0.000579681
-2.50576e-05
5.48423e-06
-0.000579222
-3.9913e-05
5.56423e-06
-0.000577586
-5.42503e-05
5.49796e-06
-0.000574665
-6.71612e-05
5.25146e-06
-0.000570356
-7.72977e-05
4.78272e-06
-0.000564667
-8.26678e-05
4.04794e-06
-0.000557883
-8.01223e-05
3.01619e-06
-0.000550654
1.74794e-06
-0.000543122
-6.52438e-05
1.13574e-05
7.67622e-06
-0.0008194
-4.05962e-06
8.45073e-06
-0.000821332
-2.06573e-05
8.94335e-06
-0.000821695
-3.80752e-05
9.16728e-06
-0.000820262
-5.57714e-05
9.09971e-06
-0.000816686
-7.28185e-05
8.68318e-06
-0.000810533
-8.76181e-05
7.84642e-06
-0.000801336
-9.74833e-05
6.52225e-06
-0.000788751
-9.78261e-05
4.68387e-06
-0.000772737
2.47638e-06
-0.000754247
-8.11124e-05
2.00314e-05
8.67042e-06
-0.00106045
4.21648e-06
9.88347e-06
-0.00106423
-1.32588e-05
1.07124e-05
-0.00106607
-3.22725e-05
1.11685e-05
-0.00106557
-5.26069e-05
1.12168e-05
-0.00106225
-7.3716e-05
1.07751e-05
-0.00105532
-9.41954e-05
9.72977e-06
-0.00104372
-0.000110945
7.94468e-06
-0.00102628
-0.000117645
5.30324e-06
-0.00100195
1.93459e-06
-0.000971041
-0.000101029
2.90537e-05
8.9038e-06
-0.00129953
1.26966e-05
1.04866e-05
-0.00130597
-5.80432e-06
1.16182e-05
-0.00131022
-2.65813e-05
1.23149e-05
-0.00131173
-4.9645e-05
1.25052e-05
-0.00130971
-7.48142e-05
1.20746e-05
-0.00130299
-0.000101049
1.08558e-05
-0.00128972
-0.000125263
8.62972e-06
-0.00126746
-0.000140077
5.15193e-06
-0.00123363
5.14304e-07
-0.00118686
-0.000126043
3.70308e-05
8.78441e-06
-0.00153912
2.01849e-05
1.06164e-05
-0.00154866
8.14662e-07
1.19579e-05
-0.00155586
-2.13896e-05
1.28296e-05
-0.00156003
-4.66895e-05
1.31339e-05
-0.00156004
-7.52969e-05
1.27214e-05
-0.00155433
-0.000106696
1.13643e-05
-0.00154016
-0.000138219
8.74912e-06
-0.00151355
-0.000162095
4.45203e-06
-0.00146975
-1.54317e-06
-0.00140442
-0.000152478
4.32363e-05
8.34305e-06
-0.00177727
2.60886e-05
1.02841e-05
-0.00179022
6.16219e-06
1.17267e-05
-0.00180063
-1.70099e-05
1.26983e-05
-0.00180776
-4.39695e-05
1.30903e-05
-0.00181019
-7.53025e-05
1.2727e-05
-0.00180598
-0.000111129
1.13304e-05
-0.00179147
-0.000149544
8.50067e-06
-0.00176091
-0.00018302
3.60476e-06
-0.00170684
-3.57875e-06
-0.0016206
-0.000179357
4.74238e-05
7.61439e-06
-0.00201477
3.02176e-05
9.45899e-06
-0.00203097
1.01245e-05
1.08625e-05
-0.00204448
-1.34593e-05
1.18453e-05
-0.00205451
-4.13462e-05
1.23037e-05
-0.00205949
-7.44953e-05
1.20406e-05
-0.00205712
-0.000113757
1.07504e-05
-0.00204291
-0.00015832
7.977e-06
-0.00200929
-0.000201602
2.88646e-06
-0.00194557
-5.26152e-06
-0.00183719
-0.000205169
4.90508e-05
6.21322e-06
-0.0022521
3.22373e-05
7.71839e-06
-0.0022713
1.25405e-05
8.93252e-06
-0.00228752
-1.07791e-05
9.8439e-06
-0.00230021
-3.87581e-05
1.0371e-05
-0.00230769
-7.27009e-05
1.03158e-05
-0.0023074
-0.000114223
9.40101e-06
-0.00229413
-0.000163897
7.16126e-06
-0.00225857
-0.000216976
2.71871e-06
-0.00218637
-5.80577e-06
-0.00205547
-0.000229331
4.83228e-05
3.67913e-06
-0.00248601
3.24529e-05
4.53811e-06
-0.00250733
1.3813e-05
5.34116e-06
-0.00252549
-8.509e-06
5.97039e-06
-0.00254014
-3.59033e-05
6.43371e-06
-0.00254988
-7.00725e-05
6.57462e-06
-0.00255212
-0.000113234
6.24927e-06
-0.0025412
-0.000167168
5.08117e-06
-0.00250583
-0.000229423
2.44675e-06
-0.00242679
-4.60343e-06
-0.00227259
-0.000252036
4.64388e-05
-0.0027065
3.16425e-05
-0.00272981
1.43369e-05
-0.00275
-6.47911e-06
-0.00276643
-3.21737e-05
-0.00277754
-6.47266e-05
-0.00278072
-0.000107152
-0.00277073
-0.000162919
-0.00273607
-0.000231871
-0.00265347
-0.00247774
-0.000268159
2.51026e-06
4.39902e-06
-0.000573823
-7.61736e-06
4.66783e-06
-0.000574221
-1.78466e-05
4.80039e-06
-0.000573793
-2.77132e-05
4.80194e-06
-0.000572522
-3.6648e-05
4.66277e-06
-0.000570393
-4.39499e-05
4.36646e-06
-0.00056742
-4.87854e-05
3.8984e-06
-0.00056373
-5.01959e-05
3.24917e-06
-0.000559721
-4.6968e-05
2.42205e-06
-0.000556304
1.47914e-06
-0.000554132
-3.74376e-05
7.95899e-06
7.08147e-06
-0.000810902
-4.27236e-06
7.74032e-06
-0.000812173
-1.71545e-05
8.11242e-06
-0.000812125
-3.01891e-05
8.21245e-06
-0.000810638
-4.269e-05
8.02487e-06
-0.000807547
-5.36783e-05
7.51243e-06
-0.000802691
-6.17928e-05
6.63954e-06
-0.000795962
-6.52556e-05
5.39473e-06
-0.000787434
-6.18762e-05
3.82732e-06
-0.000777522
2.1367e-06
-0.000767277
-4.95037e-05
1.53612e-05
8.31789e-06
-0.00104941
1.65365e-06
9.38878e-06
-0.00105217
-1.32237e-05
1.0068e-05
-0.00105315
-2.88759e-05
1.03598e-05
-0.00105207
-4.4731e-05
1.02326e-05
-0.0010486
-5.98349e-05
9.61741e-06
-0.00104232
-7.25821e-05
8.43869e-06
-0.00103278
-8.04045e-05
6.63967e-06
-0.0010197
-7.94468e-05
4.2334e-06
-0.00100331
1.48803e-06
-0.000985102
-6.47374e-05
2.35301e-05
8.76053e-06
-0.0012869
8.62503e-06
1.02066e-05
-0.00129189
-8.00623e-06
1.11872e-05
-0.00129471
-2.61689e-05
1.17054e-05
-0.00129491
-4.54337e-05
1.16897e-05
-0.00129191
-6.49602e-05
1.10316e-05
-0.00128488
-8.30311e-05
9.5987e-06
-0.0012728
-9.64232e-05
7.26199e-06
-0.00125469
-9.96521e-05
3.95481e-06
-0.00123012
2.07783e-08
-0.00120089
-8.41518e-05
3.11873e-05
8.79549e-06
-0.00152541
1.53165e-05
1.05135e-05
-0.0015331
-2.74135e-06
1.17223e-05
-0.00153834
-2.29962e-05
1.2429e-05
-0.0015405
-4.5213e-05
1.25238e-05
-0.00153866
-6.87881e-05
1.18558e-05
-0.00153158
-9.2096e-05
1.02224e-05
-0.00151748
-0.000111522
7.39707e-06
-0.00149426
-0.000120165
3.17411e-06
-0.00146033
-2.0782e-06
-0.00141729
-0.000105191
3.74499e-05
8.43875e-06
-0.00176274
2.09396e-05
1.0298e-05
-0.00177349
1.88152e-06
1.1638e-05
-0.00178148
-1.99128e-05
1.24744e-05
-0.00178601
-4.44626e-05
1.26744e-05
-0.00178579
-7.14774e-05
1.20533e-05
-0.00177916
-9.9611e-05
1.03405e-05
-0.00176345
-0.000125169
7.20367e-06
-0.00173516
-0.000140203
2.25245e-06
-0.00169088
-4.19144e-06
-0.00163142
-0.000127269
4.19571e-05
7.71741e-06
-0.00199962
2.51508e-05
9.5125e-06
-0.00201338
5.60197e-06
1.08444e-05
-0.00202414
-1.70544e-05
1.17263e-05
-0.00203111
-4.31389e-05
1.2027e-05
-0.00203276
-7.27218e-05
1.15339e-05
-0.00202702
-0.000104921
9.92424e-06
-0.00201029
-0.00013632
6.76694e-06
-0.00197746
-0.000158439
1.4578e-06
-0.00192265
-5.99461e-06
-0.00184492
-0.000148901
4.40452e-05
6.26629e-06
-0.00223639
2.74744e-05
7.74849e-06
-0.00225296
8.10742e-06
8.90854e-06
-0.00226622
-1.46007e-05
9.73737e-06
-0.00227551
-4.12605e-05
1.01299e-05
-0.00227913
-7.23338e-05
9.87667e-06
-0.00227467
-0.000107559
8.66691e-06
-0.00225765
-0.00014418
6.00897e-06
-0.00222119
-0.000173955
1.19309e-06
-0.00215633
-6.67247e-06
-0.00205917
-0.000169583
4.38955e-05
3.73604e-06
-0.00246978
2.81322e-05
4.58929e-06
-0.00248841
9.67652e-06
5.36473e-06
-0.00250349
-1.21746e-05
5.94007e-06
-0.00251449
-3.84163e-05
6.30879e-06
-0.00251982
-7.00232e-05
6.3081e-06
-0.00251695
-0.000107474
5.76311e-06
-0.00250084
-0.000148844
4.25127e-06
-0.00246271
-0.000186528
1.20604e-06
-0.00238912
-5.30067e-06
-0.00227134
-0.000189154
4.24698e-05
-0.00268994
2.76694e-05
-0.00271042
1.04273e-05
-0.00272739
-1.00726e-05
-0.00273999
-3.48404e-05
-0.00274647
-6.51153e-05
-0.00274414
-0.00010216
-0.00272792
-0.00014572
-0.00268826
-0.000189445
-0.00260854
-0.0024708
-0.000201689
1.8191e-06
3.77722e-06
-0.000571073
-5.02124e-06
3.98632e-06
-0.000571367
-1.18098e-05
4.068e-06
-0.000571073
-1.81603e-05
4.02903e-06
-0.0005702
-2.36505e-05
3.86808e-06
-0.000568771
-2.78248e-05
3.58191e-06
-0.000566828
-3.02264e-05
3.17309e-06
-0.000564501
-3.04447e-05
2.64817e-06
-0.000562151
-2.80757e-05
2.01597e-06
-0.000560689
1.30685e-06
-0.000561169
-2.2345e-05
5.61889e-06
6.30811e-06
-0.000804973
-3.58714e-06
6.85327e-06
-0.000805834
-1.30982e-05
7.12333e-06
-0.000805669
-2.2418e-05
7.13601e-06
-0.000804425
-3.09353e-05
6.88658e-06
-0.000802048
-3.78848e-05
6.35973e-06
-0.000798519
-4.23421e-05
5.55009e-06
-0.000793882
-4.32991e-05
4.47933e-06
-0.000788308
-3.98552e-05
3.22233e-06
-0.000782172
1.95282e-06
-0.000776153
-3.16255e-05
1.16813e-05
7.71875e-06
-0.00104065
3.6614e-07
8.63477e-06
-0.00104264
-1.17075e-05
9.16756e-06
-0.00104312
-2.40327e-05
9.3207e-06
-0.00104193
-3.59371e-05
9.07226e-06
-0.00103888
-4.64675e-05
8.37617e-06
-0.0010338
-5.43046e-05
7.19733e-06
-0.00102659
-5.77348e-05
5.53904e-06
-0.00101733
-5.4766e-05
3.48341e-06
-0.00100654
1.29994e-06
-0.00099542
-4.37953e-05
1.87676e-05
8.36196e-06
-0.00127611
5.75884e-06
9.64569e-06
-0.00127989
-8.55062e-06
1.04631e-05
-0.00128169
-2.37517e-05
1.08099e-05
-0.0012812
-3.91907e-05
1.06249e-05
-0.00127802
-5.38219e-05
9.82142e-06
-0.00127169
-6.5979e-05
8.31588e-06
-0.00126177
-7.31647e-05
6.06462e-06
-0.00124803
-7.2023e-05
3.12112e-06
-0.0012309
-1.23007e-07
-0.00121232
-5.91749e-05
2.58172e-05
8.56737e-06
-0.00151314
1.14156e-05
1.01354e-05
-0.00151919
-4.77104e-06
1.11859e-05
-0.00152287
-2.24935e-05
1.17136e-05
-0.00152368
-4.12001e-05
1.16134e-05
-0.00152094
-5.98863e-05
1.07512e-05
-0.00151382
-7.66835e-05
8.97561e-06
-0.00150134
-8.83859e-05
6.16284e-06
-0.00148265
-9.0133e-05
2.28167e-06
-0.00145774
-2.18067e-06
-0.00142927
-7.61023e-05
3.18679e-05
8.32579e-06
-0.0017493
1.64791e-05
1.00624e-05
-0.00175803
-1.10788e-06
1.12642e-05
-0.00176397
-2.08192e-05
1.19346e-05
-0.00176652
-4.22724e-05
1.19353e-05
-0.00176466
-6.46307e-05
1.10917e-05
-0.00175714
-8.59989e-05
9.17768e-06
-0.00174229
-0.000102646
5.96874e-06
-0.00171832
-0.000108266
1.29776e-06
-0.00168428
-4.29292e-06
-0.00164345
-9.41309e-05
3.64792e-05
7.65616e-06
-0.00198529
2.0525e-05
9.36297e-06
-0.00199673
2.10641e-06
1.0585e-05
-0.00200504
-1.88844e-05
1.13263e-05
-0.00200951
-4.23234e-05
1.14426e-05
-0.00200883
-6.76423e-05
1.0726e-05
-0.00200133
-9.31218e-05
8.88217e-06
-0.00198452
-0.00011477
5.57095e-06
-0.00195541
-0.000125045
4.35343e-07
-0.00191151
-6.12792e-06
-0.00185632
-0.000111811
3.88771e-05
6.19945e-06
-0.00222127
2.29509e-05
7.63081e-06
-0.00223531
4.44774e-06
8.70797e-06
-0.00224584
-1.69399e-05
9.42161e-06
-0.00225222
-4.13796e-05
9.64913e-06
-0.0022529
-6.86501e-05
9.18466e-06
-0.00224585
-9.74206e-05
7.72605e-06
-0.00222773
-0.000123788
4.8383e-06
-0.00219409
-0.000139481
4.81268e-08
-0.00214025
-6.89235e-06
-0.00206922
-0.000128669
3.92337e-05
3.71575e-06
-0.00245403
2.39292e-05
4.54811e-06
-0.00247003
6.11463e-06
5.27977e-06
-0.00248224
-1.46615e-05
5.78355e-06
-0.00249008
-3.89313e-05
6.03804e-06
-0.00249194
-6.69729e-05
5.88028e-06
-0.0024856
-9.81237e-05
5.12895e-06
-0.00246709
-0.000128935
3.38561e-06
-0.00243044
-0.000150673
2.46368e-07
-0.00236758
-5.43208e-06
-0.00227949
-0.000143981
3.82179e-05
-0.00267371
2.37458e-05
-0.0026914
6.98162e-06
-0.00270535
-1.26674e-05
-0.00271455
-3.57974e-05
-0.0027173
-6.29453e-05
-0.00271111
-9.40471e-05
-0.00269169
-0.000126865
-0.00265206
-0.000153198
-0.00258196
-0.00247704
-0.000152387
1.44299e-06
3.15178e-06
-0.000569969
-3.01672e-06
3.31369e-06
-0.000570221
-7.40096e-06
3.36559e-06
-0.000570054
-1.14273e-05
3.31484e-06
-0.000569489
-1.48118e-05
3.16552e-06
-0.000568552
-1.72781e-05
2.92167e-06
-0.000567283
-1.85878e-05
2.59362e-06
-0.000565785
-1.85789e-05
2.19219e-06
-0.000564352
-1.71387e-05
1.72047e-06
-0.00056385
1.174e-06
-0.000565681
-1.38012e-05
3.99725e-06
5.45166e-06
-0.000801154
-2.64462e-06
5.89397e-06
-0.000801772
-9.40707e-06
6.08674e-06
-0.000801628
-1.58648e-05
6.04993e-06
-0.000800702
-2.15424e-05
5.78801e-06
-0.000798993
-2.59096e-05
5.30153e-06
-0.000796532
-2.84035e-05
4.60381e-06
-0.000793398
-2.85016e-05
3.73079e-06
-0.000789749
-2.58745e-05
2.75666e-06
-0.000785836
1.81256e-06
-0.000782035
-2.06307e-05
8.82912e-06
6.94752e-06
-0.00103407
-1.16942e-07
7.70958e-06
-0.00103551
-9.52382e-06
8.11283e-06
-0.00103574
-1.88905e-05
8.16412e-06
-0.00103468
-2.75979e-05
7.85295e-06
-0.00103224
-3.48628e-05
7.15612e-06
-0.00102839
-3.97389e-05
6.06918e-06
-0.00102317
-4.1188e-05
4.62903e-06
-0.00101678
-3.82656e-05
2.94019e-06
-0.00100965
1.2274e-06
-0.00100253
-3.05661e-05
1.47631e-05
7.75231e-06
-0.00126731
3.85657e-06
8.86184e-06
-0.00127013
-7.97981e-06
9.51977e-06
-0.00127126
-2.0246e-05
9.72087e-06
-0.00127049
-3.22406e-05
9.42035e-06
-0.00126759
-4.29737e-05
8.55963e-06
-0.00126236
-5.10955e-05
7.10003e-06
-0.00125468
-5.49042e-05
5.05785e-06
-0.00124465
-5.25532e-05
2.54796e-06
-0.00123286
-7.54886e-08
-0.00122071
-4.28622e-05
2.10203e-05
8.11998e-06
-0.00150256
8.41643e-06
9.51343e-06
-0.00150724
-5.57159e-06
1.03954e-05
-0.00150976
-2.05279e-05
1.07526e-05
-0.00150976
-3.57571e-05
1.04968e-05
-0.00150679
-5.01637e-05
9.52284e-06
-0.00150038
-6.20544e-05
7.73521e-06
-0.00149008
-6.90052e-05
5.09601e-06
-0.00147574
-6.79908e-05
1.68622e-06
-0.00145789
-2.01949e-06
-0.00143876
-5.65508e-05
2.66426e-05
8.00755e-06
-0.00173728
1.27563e-05
9.58895e-06
-0.00174422
-2.93041e-06
1.0631e-05
-0.00174852
-2.01362e-05
1.11268e-05
-0.00174969
-3.8245e-05
1.09492e-05
-0.001747
-5.61746e-05
9.94977e-06
-0.00173964
-7.20093e-05
7.96301e-06
-0.00172668
-8.26616e-05
4.86981e-06
-0.00170744
-8.37971e-05
6.71402e-07
-0.00168213
-4.05223e-06
-0.00165392
-7.12879e-05
3.11588e-05
7.42466e-06
-0.00197212
1.64477e-05
9.0096e-06
-0.00198144
-3.66927e-07
1.00947e-05
-0.00198769
-1.91643e-05
1.06751e-05
-0.00199026
-3.95033e-05
1.06096e-05
-0.00198815
-6.04471e-05
9.71318e-06
-0.00198015
-8.00287e-05
7.74794e-06
-0.00196472
-9.46436e-05
4.48433e-06
-0.00194041
-9.86167e-05
-2.24134e-07
-0.00190665
-5.82941e-06
-0.00186751
-8.56552e-05
3.37062e-05
6.00354e-06
-0.00220708
1.87963e-05
7.35733e-06
-0.00221874
1.62183e-06
8.3293e-06
-0.0022269
-1.7885e-05
8.90867e-06
-0.00223094
-3.9525e-05
8.96644e-06
-0.00222962
-6.26158e-05
8.31559e-06
-0.00222137
-8.53545e-05
6.69598e-06
-0.00220393
-0.000103881
3.76999e-06
-0.00217485
-0.000111427
-7.08757e-07
-0.00213221
-6.62722e-06
-0.00208068
-9.91642e-05
3.44657e-05
3.61273e-06
-0.00243909
1.99624e-05
4.40715e-06
-0.00245257
3.21017e-06
5.08011e-06
-0.00246224
-1.59846e-05
5.49984e-06
-0.00246747
-3.77278e-05
5.63483e-06
-0.00246686
-6.17372e-05
5.33061e-06
-0.00245861
-8.66919e-05
4.42349e-06
-0.00243987
-0.000108902
2.58365e-06
-0.00240705
-0.000120696
-4.11601e-07
-0.00235608
-5.17322e-06
-0.00229114
-0.000110502
3.37979e-05
-0.00265817
1.99814e-05
-0.00267317
4.09123e-06
-0.00268438
-1.42289e-05
-0.00269073
-3.51836e-05
-0.00269071
-5.87373e-05
-0.00268222
-8.39753e-05
-0.00266203
-0.000107903
-0.00262555
-0.000122889
-0.00256738
-0.0024891
-0.000116
1.18637e-06
2.57465e-06
-0.000569847
-1.65505e-06
2.70062e-06
-0.000570081
-4.44345e-06
2.73713e-06
-0.000570003
-6.98555e-06
2.69108e-06
-0.000569638
-9.09893e-06
2.56928e-06
-0.000569008
-1.06192e-05
2.37866e-06
-0.000568142
-1.14223e-05
2.13159e-06
-0.000567114
-1.14487e-05
1.83756e-06
-0.000566163
-1.06818e-05
1.49138e-06
-0.000566108
1.05829e-06
-0.000568629
-8.79179e-06
2.85249e-06
4.5919e-06
-0.000798914
-1.77637e-06
4.94594e-06
-0.000799389
-6.44602e-06
5.08441e-06
-0.000799305
-1.0824e-05
5.02775e-06
-0.000798661
-1.4565e-05
4.78647e-06
-0.00079747
-1.73184e-05
4.37003e-06
-0.00079577
-1.87524e-05
3.7999e-06
-0.000793633
-1.8607e-05
3.11398e-06
-0.000791171
-1.67879e-05
2.37569e-06
-0.000788539
1.67913e-06
-0.00078593
-1.35136e-05
6.63388e-06
6.08518e-06
-0.00102938
-1.87375e-07
6.7039e-06
-0.00103045
-7.27204e-06
7.00081e-06
-0.00103057
-1.41838e-05
6.98641e-06
-0.00102972
-2.04193e-05
6.66046e-06
-0.00102788
-2.53985e-05
6.01772e-06
-0.00102506
-2.84922e-05
5.0728e-06
-0.00102135
-2.9098e-05
3.87558e-06
-0.00101694
-2.67784e-05
2.5261e-06
-0.00101212
1.1967e-06
-0.00100734
-2.14933e-05
1.14575e-05
6.9935e-06
-0.00126044
2.63929e-06
7.92926e-06
-0.00126254
-6.81392e-06
8.44269e-06
-0.00126325
-1.64002e-05
8.53194e-06
-0.00126245
-2.5478e-05
8.16976e-06
-0.00126002
-3.32302e-05
7.32501e-06
-0.00125592
-3.86655e-05
5.99337e-06
-0.00125016
-4.06981e-05
4.22479e-06
-0.00124297
-3.83586e-05
2.15164e-06
-0.00123482
6.38313e-08
-0.00122663
-3.13058e-05
1.68342e-05
7.49356e-06
-0.00149378
6.17053e-06
8.70052e-06
-0.00149734
-5.5165e-06
9.41718e-06
-0.00149905
-1.77364e-05
9.62784e-06
-0.00149863
-2.9781e-05
9.26645e-06
-0.00149584
-4.06495e-05
8.26143e-06
-0.00149045
-4.89825e-05
6.56725e-06
-0.00148232
-5.3092e-05
4.20477e-06
-0.00147161
-5.12063e-05
1.309e-06
-0.00145894
-1.712e-06
-0.00144584
-4.23488e-05
2.18777e-05
7.50587e-06
-0.00172686
9.73583e-06
8.91009e-06
-0.00173229
-3.81565e-06
9.78506e-06
-0.00173534
-1.83581e-05
1.01167e-05
-0.00173564
-3.31829e-05
9.80016e-06
-0.00173271
-4.71925e-05
8.72272e-06
-0.00172609
-5.87182e-05
6.781e-06
-0.00171537
-6.54456e-05
3.93982e-06
-0.00170045
-6.46159e-05
3.02935e-07
-0.00168195
-3.6012e-06
-0.00166229
-5.43583e-05
2.61326e-05
7.03108e-06
-0.00196037
1.29556e-05
8.46777e-06
-0.00196782
-1.93405e-06
9.40153e-06
-0.00197242
-1.82386e-05
9.81962e-06
-0.00197366
-3.53432e-05
9.59757e-06
-0.00197084
-5.21732e-05
8.58554e-06
-0.00196319
-6.68714e-05
6.61426e-06
-0.00194986
-7.65494e-05
3.5575e-06
-0.00193035
-7.73037e-05
-5.83804e-07
-0.001905
-5.24912e-06
-0.0018772
-6.59604e-05
2.86793e-05
5.67809e-06
-0.00219411
1.50915e-05
6.9305e-06
-0.00220362
-4.00306e-07
7.78288e-06
-0.00220979
-1.76548e-05
8.22334e-06
-0.00221209
-3.62197e-05
8.12812e-06
-0.00220958
-5.51689e-05
7.34064e-06
-0.00220117
-7.26395e-05
5.66289e-06
-0.00218551
-8.53367e-05
2.86511e-06
-0.00216146
-8.83014e-05
-1.12181e-06
-0.00212871
-6.02729e-06
-0.00209149
-7.67092e-05
2.97265e-05
3.42632e-06
-0.00242525
1.63285e-05
4.16593e-06
-0.00243641
9.91009e-07
4.76823e-06
-0.00244389
-1.62476e-05
5.09849e-06
-0.00244711
-3.51655e-05
5.1219e-06
-0.00244494