/*--------------------------------*- C++ -*----------------------------------*\
| =========                 |                                                 |
| \\      /  F ield         | foam-extend: Open Source CFD                    |
|  \\    /   O peration     | Version:     4.0                                |
|   \\  /    A nd           | Web:         http://www.foam-extend.org         |
|    \\/     M anipulation  |                                                 |
\*---------------------------------------------------------------------------*/
FoamFile
{
    version     2.0;
    format      ascii;
    class       volVectorField;
    location    "3000";
    object      Urel;
}
// * * * * * * * * * * * * * * * * * * * * * * * * * * * * * * * * * * * * * //

dimensions      [0 1 -1 0 0 0 0];

internalField   nonuniform List<vector> 
34480
(
(212.107 -5.13161 -19.9644)
(213.718 -5.92845 -24.5789)
(215.133 -6.48803 -29.8693)
(216.365 -6.80725 -36.1194)
(217.388 -6.87955 -43.7272)
(217.969 -6.6896 -53.1765)
(217.243 -6.20764 -64.8185)
(212.898 -5.4997 -79.158)
(200.036 -4.8932 -98.7323)
(167.926 -4.34951 -119.474)
(214.235 -5.40335 -26.9675)
(216.15 -5.08434 -31.063)
(217.836 -4.73408 -35.5503)
(219.284 -4.32808 -40.7027)
(220.575 -3.87756 -46.9904)
(221.678 -3.41191 -55.1103)
(222.074 -2.9374 -65.8562)
(219.995 -2.47023 -80.074)
(210.884 -2.33352 -101.484)
(180.445 -2.76015 -130.006)
(215.43 -9.93796 -32.0143)
(217.613 -8.92304 -35.8845)
(219.616 -7.94534 -40.036)
(221.442 -6.98151 -44.7362)
(223.166 -6.03101 -50.4216)
(224.865 -5.13706 -57.9001)
(226.23 -4.32426 -68.2608)
(225.772 -3.58477 -82.6655)
(219.384 -3.21532 -105.554)
(190.571 -3.5431 -140.531)
(215.714 -13.6467 -37.5458)
(218.374 -12.1675 -41.4722)
(220.887 -10.7412 -45.6598)
(223.263 -9.33672 -50.3419)
(225.527 -7.96108 -55.909)
(227.769 -6.65993 -63.1597)
(229.811 -5.47045 -73.3336)
(230.446 -4.39155 -87.9297)
(225.991 -3.73792 -111.931)
(198.232 -3.93614 -151.7)
(215.91 -18.3348 -43.0102)
(218.995 -16.5799 -47.054)
(221.95 -14.8781 -51.4044)
(224.804 -13.1747 -56.2073)
(227.556 -11.5002 -61.8547)
(230.279 -9.90307 -69.0923)
(232.868 -8.43542 -79.2392)
(234.356 -7.10388 -94.1224)
(231.394 -6.24861 -119.185)
(204.232 -6.41433 -162.768)
(215.743 -22.049 -49.5293)
(219.155 -19.9994 -53.6708)
(222.435 -18.0042 -58.1356)
(225.641 -15.9778 -63.0242)
(228.769 -13.9571 -68.7395)
(231.873 -11.9809 -75.9743)
(234.887 -10.1065 -86.0809)
(237.045 -8.35825 -101.197)
(235.24 -7.14505 -127.235)
(208.282 -7.17679 -174.033)
(215.73 -27.0703 -55.8481)
(219.354 -24.8257 -60.1197)
(222.824 -22.6069 -64.7523)
(226.232 -20.3168 -69.7739)
(229.583 -18.01 -75.5998)
(232.93 -15.7134 -82.8661)
(236.256 -13.4696 -92.9321)
(239.005 -11.2755 -108.233)
(238.291 -9.5082 -135.151)
(211.651 -8.95255 -184.712)
(215.476 -30.8332 -63.4549)
(219.186 -28.3132 -67.767)
(222.714 -25.78 -72.4339)
(226.175 -23.143 -77.475)
(229.579 -20.4514 -83.2839)
(232.989 -17.7101 -90.4338)
(236.449 -14.9183 -100.241)
(239.672 -12.0373 -115.363)
(240.104 -9.43141 -142.704)
(214.22 -7.9594 -194.404)
(215.497 -36.7518 -70.3449)
(219.218 -33.9987 -74.6972)
(222.746 -31.1417 -79.4466)
(226.226 -28.1415 -84.5971)
(229.659 -25.0689 -90.5453)
(233.088 -21.918 -97.7743)
(236.581 -18.6347 -107.492)
(240.122 -15.0814 -122.394)
(241.632 -11.3662 -150.027)
(216.607 -8.24811 -203.159)
(214.42 -41.1588 -78.2963)
(218.152 -38.0946 -82.5004)
(221.7 -34.9131 -87.1267)
(225.184 -31.5639 -92.1857)
(228.559 -28.0597 -98.0524)
(231.836 -24.3643 -105.177)
(235.116 -20.3828 -114.655)
(238.698 -15.9207 -128.883)
(241.416 -11.0198 -155.986)
(218.283 -6.2358 -209.373)
(204.292 6.142 1.5605)
(205.22 4.59769 -1.86987)
(205.647 3.24363 -5.77712)
(205.459 2.10563 -10.2266)
(204.466 1.18214 -15.3698)
(202.342 0.483657 -21.332)
(198.579 0.00794113 -28.1626)
(192.523 -0.272216 -35.6723)
(182.726 -0.419342 -42.8908)
(164.057 -0.559841 -45.4033)
(208.278 9.63089 1.58829)
(209.656 8.68348 -1.42739)
(210.613 7.71606 -4.82992)
(210.995 6.78513 -8.67523)
(210.664 5.89252 -13.1617)
(209.335 5.02103 -18.5796)
(206.397 4.15049 -25.3174)
(200.929 3.27404 -33.6395)
(191.477 2.35876 -43.4764)
(171.618 1.28207 -50.4694)
(210.607 9.17349 3.66746)
(212.336 8.46411 0.905792)
(213.714 7.67673 -2.18066)
(214.64 6.838 -5.75962)
(214.978 5.97594 -9.99475)
(214.505 5.06921 -15.2715)
(212.631 4.09068 -22.1938)
(208.215 3.02144 -31.4299)
(199.593 1.82904 -43.7747)
(178.842 0.424569 -55.8127)
(211.63 9.51184 5.41664)
(213.849 8.86824 2.74347)
(215.771 8.12485 -0.26569)
(217.325 7.30195 -3.81386)
(218.348 6.42647 -8.06053)
(218.623 5.48115 -13.4049)
(217.604 4.43955 -20.5572)
(214.081 3.27304 -30.5176)
(206.24 1.91607 -44.9318)
(184.755 0.280356 -61.8755)
(212.308 8.86357 7.33339)
(214.963 8.11926 4.71275)
(217.362 7.26696 1.68079)
(219.45 6.34759 -1.90391)
(221.067 5.36338 -6.25745)
(221.991 4.29947 -11.7497)
(221.703 3.11863 -19.1586)
(218.992 1.78944 -29.7745)
(211.912 0.233069 -45.9999)
(189.78 -1.60924 -67.6745)
(212.488 9.22604 8.2334)
(215.494 8.40137 5.70229)
(218.262 7.45348 2.71544)
(220.759 6.45553 -0.831974)
(222.848 5.40142 -5.21116)
(224.298 4.2909 -10.7679)
(224.619 3.0862 -18.3215)
(222.631 1.7519 -29.4113)
(216.246 0.166036 -47.0615)
(193.41 -1.76348 -72.9481)
(212.718 8.24679 9.3847)
(215.969 7.24603 6.91886)
(218.979 6.14109 3.93152)
(221.746 5.02122 0.386947)
(224.161 3.85947 -4.03245)
(226.004 2.66647 -9.64798)
(226.831 1.40699 -17.3023)
(225.54 0.0625627 -28.7713)
(219.925 -1.45634 -47.6565)
(196.593 -3.27684 -77.5008)
(212.629 8.55069 9.26087)
(216.008 7.44527 6.95799)
(219.138 6.26285 4.1204)
(222.045 5.09415 0.713228)
(224.642 3.91374 -3.5867)
(226.734 2.74646 -9.08114)
(227.939 1.58631 -16.6053)
(227.299 0.444913 -28.11)
(222.614 -0.766528 -47.7911)
(199.275 -2.38975 -81.1482)
(212.673 6.69726 9.83858)
(216.083 5.4214 7.71164)
(219.255 4.15464 4.99962)
(222.247 2.94471 1.68627)
(224.999 1.74725 -2.59808)
(227.322 0.586553 -8.13159)
(228.855 -0.513874 -15.7035)
(228.781 -1.48027 -27.2281)
(225.074 -2.19525 -47.6308)
(201.922 -3.22078 -84.0151)
(211.706 6.48513 9.27339)
(215.127 5.09088 7.43976)
(218.343 3.7391 5.04428)
(221.38 2.44978 2.02382)
(224.164 1.23646 -1.96978)
(226.526 0.145019 -7.25183)
(228.178 -0.75631 -14.6348)
(228.48 -1.31582 -25.767)
(225.915 -1.36176 -46.3574)
(203.739 -1.22797 -84.6922)
(198.506 4.90343 0.455487)
(198.999 3.72681 -2.21869)
(198.967 2.70219 -5.15301)
(198.332 1.84198 -8.36226)
(196.96 1.16303 -11.8022)
(194.675 0.673334 -15.3721)
(191.256 0.357859 -18.8724)
(186.47 0.163116 -21.9777)
(179.962 0.00977084 -23.9479)
(171.056 -0.208833 -23.0072)
(203.363 8.23798 0.412987)
(204.29 7.46152 -2.14166)
(204.737 6.65365 -4.96478)
(204.574 5.86228 -8.06811)
(203.629 5.09827 -11.4891)
(201.64 4.3591 -15.2145)
(198.227 3.63395 -19.1712)
(192.882 2.90697 -23.1371)
(184.902 2.16282 -26.4406)
(173.288 1.36554 -27.0816)
(206.389 7.99833 2.32914)
(207.697 7.37325 -0.151661)
(208.573 6.66373 -2.91339)
(208.898 5.90415 -6.03164)
(208.507 5.11616 -9.57184)
(207.109 4.28858 -13.6385)
(204.195 3.40786 -18.3058)
(198.994 2.4602 -23.4948)
(190.414 1.43336 -28.674)
(176.488 0.301732 -31.7283)
(207.991 8.44904 3.94663)
(209.773 7.869 1.47302)
(211.168 7.18581 -1.30473)
(212.073 6.41908 -4.54098)
(212.29 5.59926 -8.29051)
(211.509 4.71105 -12.7328)
(209.134 3.74124 -18.0522)
(204.174 2.67375 -24.3473)
(195.18 1.48645 -31.3292)
(179.139 0.154732 -37.1169)
(209.103 7.86146 5.83538)
(211.314 7.18297 3.35994)
(213.177 6.39912 0.503971)
(214.6 5.53894 -2.86887)
(215.374 4.61647 -6.85711)
(215.176 3.61327 -11.6682)
(213.352 2.50577 -17.5867)
(208.734 1.27222 -24.9158)
(199.529 -0.111689 -33.6544)
(181.635 -1.63683 -42.4726)
(209.621 8.30847 6.75506)
(212.191 7.55737 4.33601)
(214.434 6.68791 1.4895)
(216.277 5.75455 -1.90576)
(217.518 4.76574 -6.0109)
(217.824 3.71431 -11.0469)
(216.509 2.57401 -17.3865)
(212.278 1.31648 -25.5499)
(203.004 -0.111172 -35.8339)
(183.512 -1.72512 -47.7098)
(210.105 7.3607 7.99171)
(212.935 6.44689 5.61586)
(215.448 5.4365 2.74397)
(217.591 4.39736 -0.688472)
(219.187 3.31858 -4.90262)
(219.904 2.20074 -10.1259)
(219.056 1.01681 -16.8078)
(215.281 -0.257485 -25.7044)
(206.138 -1.65692 -37.4525)
(185.361 -3.20635 -52.4992)
(210.207 7.72698 7.96373)
(213.191 6.71559 5.73838)
(215.862 5.6344 3.00659)
(218.193 4.55595 -0.30458)
(220.032 3.4714 -4.44079)
(221.065 2.39105 -9.63977)
(220.63 1.30632 -16.4026)
(217.369 0.210829 -25.7032)
(208.6 -0.932708 -38.586)
(186.943 -2.37349 -56.596)
(210.363 5.90717 8.62492)
(213.394 4.72085 6.5529)
(216.126 3.54758 3.9344)
(218.562 2.42411 0.721687)
(220.589 1.33011 -3.39241)
(221.91 0.278794 -8.66557)
(221.891 -0.709601 -15.6277)
(219.187 -1.60189 -25.3125)
(210.935 -2.29132 -39.2979)
(188.494 -3.29448 -59.8484)
(209.571 5.86757 8.11113)
(212.612 4.54722 6.28541)
(215.391 3.28895 3.95987)
(217.875 2.0854 1.02317)
(219.945 0.970562 -2.80698)
(221.329 -0.0152636 -7.81154)
(221.53 -0.804031 -14.6004)
(219.33 -1.28859 -24.1871)
(211.839 -1.30418 -38.8531)
(189.045 -1.19847 -60.8216)
(194.403 3.82627 -0.0960212)
(194.636 3.00831 -1.97591)
(194.426 2.29131 -3.9761)
(193.731 1.68773 -6.06947)
(192.493 1.21282 -8.16663)
(190.656 0.868779 -10.1443)
(188.194 0.640236 -11.8176)
(185.172 0.477057 -12.9432)
(181.725 0.299191 -13.1122)
(177.802 0.0197895 -11.7335)
(199.38 6.84121 -0.297188)
(199.959 6.26027 -2.2999)
(200.077 5.6366 -4.4408)
(199.645 5.00642 -6.72337)
(198.548 4.38945 -9.10106)
(196.639 3.78969 -11.4634)
(193.753 3.20094 -13.6255)
(189.75 2.61151 -15.2887)
(184.542 2.01667 -15.8845)
(178.271 1.42749 -14.6616)
(202.711 6.79128 1.32538)
(203.65 6.2742 -0.775271)
(204.137 5.66876 -3.08185)
(204.066 5.01341 -5.60402)
(203.297 4.32628 -8.34197)
(201.622 3.60528 -11.2511)
(198.752 2.84317 -14.1975)
(194.348 2.03062 -16.8715)
(188.081 1.16269 -18.5551)
(179.826 0.253082 -18.1477)
(204.686 7.36488 2.70959)
(206.057 6.8675 0.525217)
(206.999 6.26305 -1.90758)
(207.396 5.57742 -4.67202)
(207.07 4.83713 -7.76854)
(205.754 4.03552 -11.2182)
(203.039 3.16854 -14.9395)
(198.378 2.22726 -18.6539)
(191.167 1.20128 -21.554)
(180.892 0.103931 -22.3268)
(206.126 6.84229 4.49042)
(207.903 6.24226 2.23764)
(209.272 5.53851 -0.342064)
(210.125 4.75672 -3.35095)
(210.249 3.91535 -6.80113)
(209.337 2.99851 -10.7702)
(206.876 1.99623 -15.2418)
(202.114 0.895419 -20.0155)
(194.136 -0.316489 -24.2502)
(181.958 -1.60131 -26.6177)
(206.926 7.37365 5.36728)
(209.055 6.70506 3.12486)
(210.791 5.92296 0.506526)
(212.037 5.07027 -2.60164)
(212.566 4.16432 -6.26107)
(212.043 3.19494 -10.5851)
(209.868 2.14931 -15.6318)
(205.104 1.00914 -21.3135)
(196.504 -0.257553 -26.8023)
(182.557 -1.63578 -30.9313)
(207.632 6.45866 6.64278)
(210.028 5.63568 4.41003)
(212.04 4.72373 1.72929)
(213.588 3.77439 -1.4733)
(214.451 2.78927 -5.32028)
(214.276 1.7622 -9.95053)
(212.409 0.677833 -15.5033)
(207.761 -0.482433 -22.0422)
(198.743 -1.74538 -28.8219)
(183.242 -3.09551 -34.9915)
(207.909 6.90423 6.675)
(210.477 5.98955 4.57077)
(212.668 5.01022 2.00789)
(214.425 4.02414 -1.10683)
(215.545 3.03702 -4.93102)
(215.673 2.04958 -9.63366)
(214.131 1.05702 -15.4257)
(209.725 0.0492943 -22.5454)
(200.547 -1.00683 -30.4238)
(183.793 -2.29541 -38.6407)
(208.16 5.13113 7.44367)
(210.792 4.0429 5.46597)
(213.061 2.9662 2.98973)
(214.933 1.92999 -0.044307)
(216.24 0.933375 -3.85764)
(216.646 -0.0162473 -8.66125)
(215.475 -0.894234 -14.7456)
(211.453 -1.68549 -22.4626)
(202.349 -2.32847 -31.5362)
(184.417 -3.25678 -41.6448)
(207.487 5.2631 6.98287)
(210.137 4.03829 5.2172)
(212.467 2.88426 3.00778)
(214.403 1.77835 0.223481)
(215.782 0.770766 -3.33201)
(216.28 -0.105386 -7.88424)
(215.312 -0.777887 -13.812)
(211.668 -1.16513 -21.5964)
(202.975 -1.14091 -31.552)
(184.16 -1.05135 -42.6975)
(191.877 2.90996 -0.317714)
(191.99 2.37841 -1.54436)
(191.783 1.90335 -2.82108)
(191.243 1.49821 -4.10486)
(190.357 1.17344 -5.31848)
(189.124 0.92931 -6.36975)
(187.583 0.75513 -7.13788)
(185.869 0.610942 -7.50636)
(184.266 0.428863 -7.30408)
(182.949 0.12751 -6.34014)
(196.415 5.53582 -0.65966)
(196.769 5.13889 -2.12949)
(196.741 4.68881 -3.64623)
(196.282 4.21454 -5.20762)
(195.332 3.73948 -6.7454)
(193.834 3.27134 -8.14988)
(191.744 2.80997 -9.26257)
(189.074 2.34984 -9.87514)
(185.933 1.89392 -9.68243)
(182.653 1.46628 -8.45878)
(199.667 5.61463 0.643422)
(200.325 5.21072 -1.04254)
(200.571 4.71918 -2.85849)
(200.328 4.17743 -4.77978)
(199.502 3.60289 -6.7683)
(197.977 2.99924 -8.7262)
(195.626 2.36384 -10.4866)
(192.357 1.69254 -11.7754)
(188.185 0.987033 -12.1176)
(183.473 0.27474 -11.0367)
(201.774 6.29999 1.74576)
(202.805 5.89475 -0.0983378)
(203.415 5.38256 -2.12445)
(203.503 4.79235 -4.36206)
(202.937 4.14874 -6.77325)
(201.532 3.45235 -9.29362)
(199.059 2.70448 -11.7555)
(195.282 1.90241 -13.8371)
(190.068 1.04392 -14.8835)
(183.754 0.16049 -14.1809)
(203.394 5.8375 3.3634)
(204.792 5.32486 1.38969)
(205.768 4.71049 -0.849875)
(206.217 4.02195 -3.40418)
(205.964 3.27605 -6.24084)
(204.768 2.46456 -9.33632)
(202.296 1.58532 -12.542)
(198.145 0.631841 -15.5252)
(191.973 -0.402364 -17.4641)
(184.024 -1.46701 -17.4864)
(204.379 6.44839 4.14726)
(206.11 5.87025 2.1359)
(207.419 5.18284 -0.189376)
(208.205 4.42392 -2.9138)
(208.261 3.61455 -6.02594)
(207.305 2.74662 -9.54536)
(204.903 1.81623 -13.3598)
(200.481 0.81145 -17.1609)
(193.441 -0.290253 -19.9887)
(183.877 -1.45819 -20.8987)
(205.246 5.56645 5.41822)
(207.241 4.84029 3.3782)
(208.815 4.03072 0.949599)
(209.878 3.17987 -1.92836)
(210.211 2.29719 -5.29541)
(209.5 1.37565 -9.20268)
(207.227 0.408157 -13.5946)
(202.66 -0.619873 -18.2271)
(194.904 -1.73322 -22.0552)
(183.826 -2.89664 -24.1546)
(205.661 6.09941 5.47465)
(207.837 5.28846 3.53421)
(209.597 4.41527 1.19293)
(210.868 3.52884 -1.63968)
(211.434 2.64443 -5.0398)
(210.964 1.76035 -9.09694)
(208.883 0.874633 -13.8184)
(204.318 -0.0268599 -19.0629)
(196.064 -0.979329 -23.7816)
(183.655 -2.10559 -27.1463)
(206.006 4.37194 6.33838)
(208.26 3.3922 4.49328)
(210.109 2.41964 2.20253)
(211.497 1.48077 -0.584039)
(212.231 0.586882 -4.00422)
(211.987 -0.255371 -8.19326)
(210.167 -1.02271 -13.2542)
(205.778 -1.71371 -19.154)
(197.266 -2.29623 -24.949)
(183.594 -3.1054 -29.6308)
(205.431 4.67552 5.90435)
(207.714 3.56389 4.24376)
(209.632 2.52406 2.19109)
(211.093 1.52904 -0.378847)
(211.91 0.638041 -3.58417)
(211.76 -0.119943 -7.57611)
(210.089 -0.676368 -12.5313)
(205.896 -0.968864 -18.5396)
(197.465 -0.913993 -25.121)
(182.773 -0.833274 -30.4954)
(190.517 2.156 -0.357231)
(190.577 1.82876 -1.11092)
(190.426 1.52755 -1.88508)
(190.065 1.26499 -2.63763)
(189.499 1.04691 -3.31719)
(188.744 0.873374 -3.86662)
(187.848 0.739031 -4.21479)
(186.94 0.614286 -4.31965)
(186.312 0.444458 -4.10335)
(186.253 0.142342 -3.53159)
(194.354 4.38332 -0.792006)
(194.567 4.13913 -1.81212)
(194.495 3.83621 -2.82699)
(194.11 3.49754 -3.83428)
(193.395 3.14626 -4.77383)
(192.337 2.79208 -5.56591)
(190.949 2.44004 -6.10679)
(189.28 2.09051 -6.27875)
(187.448 1.75154 -5.93519)
(185.689 1.44616 -5.0434)
(197.275 4.51714 0.221262)
(197.725 4.21919 -1.06633)
(197.833 3.83851 -2.42393)
(197.549 3.40797 -3.81713)
(196.823 2.94422 -5.19579)
(195.604 2.45395 -6.46221)
(193.859 1.93837 -7.47915)
(191.605 1.39823 -8.06111)
(188.957 0.840798 -7.95009)
(186.236 0.293585 -6.9713)
(199.321 5.28915 1.03419)
(200.077 4.97694 -0.456326)
(200.454 4.56222 -2.06581)
(200.377 4.07315 -3.79399)
(199.758 3.53313 -5.58461)
(198.494 2.94746 -7.34542)
(196.482 2.32078 -8.91058)
(193.664 1.65574 -10.0259)
(190.108 0.958143 -10.2797)
(186.23 0.263299 -9.32746)
(200.986 4.87448 2.45863)
(202.059 4.45223 0.79334)
(202.731 3.93291 -1.07497)
(202.912 3.34438 -3.15274)
(202.475 2.70175 -5.3853)
(201.259 2.00328 -7.69688)
(199.081 1.2513 -9.90813)
(195.777 0.44506 -11.7142)
(191.311 -0.413921 -12.5292)
(186.168 -1.2739 -11.852)
(202.064 5.55449 3.11411)
(203.439 5.07056 1.37008)
(204.396 4.48226 -0.623727)
(204.841 3.8256 -2.91428)
(204.61 3.12083 -5.45245)
(203.493 2.36443 -8.19285)
(201.22 1.55751 -10.959)
(197.501 0.693564 -13.4196)
(192.147 -0.239487 -14.8158)
(185.678 -1.20345 -14.5097)
(203.028 4.70357 4.34334)
(204.654 4.07795 2.53366)
(205.851 3.37337 0.399642)
(206.531 2.62719 -2.09295)
(206.502 1.85236 -4.92785)
(205.519 1.04399 -8.08823)
(203.223 0.200115 -11.4232)
(199.192 -0.689856 -14.6063)
(193.033 -1.64324 -16.729)
(185.251 -2.61257 -17.0498)
(203.539 5.32678 4.38944)
(205.347 4.62477 2.64751)
(206.724 3.86162 0.567673)
(207.59 3.08175 -1.92176)
(207.748 2.30521 -4.83378)
(206.923 1.53128 -8.18839)
(204.686 0.759598 -11.8751)
(200.482 -0.0268199 -15.6103)
(193.678 -0.860252 -18.3867)
(184.675 -1.80717 -19.4003)
(203.96 3.64025 5.32524)
(205.858 2.77603 3.64484)
(207.328 1.9134 1.57474)
(208.307 1.08012 -0.912483)
(208.602 0.293611 -3.88541)
(207.933 -0.438201 -7.40204)
(205.832 -1.09571 -11.4357)
(201.623 -1.68824 -15.778)
(194.384 -2.19898 -19.4231)
(184.211 -2.85856 -21.2822)
(203.457 4.11677 4.89234)
(205.391 3.12987 3.37263)
(206.937 2.21109 1.51102)
(207.99 1.33582 -0.795319)
(208.368 0.566008 -3.60064)
(207.779 -0.0718436 -6.98276)
(205.765 -0.517639 -10.9719)
(201.596 -0.727357 -15.427)
(194.217 -0.654243 -19.645)
(183.073 -0.570723 -21.8916)
(189.943 1.55404 -0.31379)
(189.982 1.36011 -0.75562)
(189.89 1.17482 -1.20898)
(189.672 1.00941 -1.6378)
(189.339 0.866292 -2.01293)
(188.906 0.745963 -2.30196)
(188.412 0.647014 -2.46248)
(187.963 0.546545 -2.48991)
(187.832 0.399009 -2.3337)
(188.413 0.107573 -2.0252)
(193.029 3.41322 -0.792448)
(193.159 3.28331 -1.46856)
(193.09 3.09492 -2.11589)
(192.811 2.86576 -2.73521)
(192.32 2.61665 -3.28276)
(191.625 2.35777 -3.70778)
(190.751 2.09718 -3.95068)
(189.748 1.83939 -3.95268)
(188.699 1.59487 -3.64728)
(187.739 1.38122 -3.05665)
(195.486 3.53431 -0.0131945)
(195.789 3.32633 -0.9537)
(195.827 3.04402 -1.92437)
(195.574 2.71424 -2.89372)
(195.006 2.352 -3.81562)
(194.11 1.96498 -4.61348)
(192.895 1.55703 -5.19196)
(191.409 1.13223 -5.43984)
(189.761 0.70038 -5.22844)
(188.163 0.284482 -4.51104)
(197.336 4.36086 0.532079)
(197.877 4.13479 -0.624057)
(198.102 3.81398 -1.84795)
(197.958 3.4237 -3.12806)
(197.397 2.98583 -4.40646)
(196.369 2.50833 -5.59581)
(194.845 1.99802 -6.56447)
(192.845 1.46136 -7.13951)
(190.486 0.909182 -7.09088)
(188.081 0.373492 -6.27218)
(198.932 3.97724 1.75618)
(199.737 3.64203 0.400819)
(200.186 3.21721 -1.09969)
(200.21 2.72839 -2.72741)
(199.724 2.18978 -4.42087)
(198.638 1.60404 -6.09075)
(196.866 0.976294 -7.57613)
(194.376 0.310385 -8.64521)
(191.255 -0.385697 -8.93391)
(187.92 -1.06576 -8.18735)
(200.016 4.71102 2.26443)
(201.085 4.31966 0.801903)
(201.765 3.83066 -0.849171)
(201.978 3.27818 -2.70286)
(201.606 2.68022 -4.69732)
(200.512 2.03789 -6.75503)
(198.546 1.35515 -8.69729)
(195.6 0.630363 -10.2447)
(191.688 -0.139095 -10.8853)
(187.33 -0.916245 -10.2414)
(201.017 3.88678 3.42394)
(202.315 3.36121 1.86543)
(203.2 2.76122 0.0459328)
(203.596 2.12159 -2.03859)
(203.353 1.45544 -4.34393)
(202.294 0.761547 -6.81127)
(200.2 0.0411147 -9.26291)
(196.867 -0.711805 -11.3917)
(192.195 -1.50518 -12.5388)
(186.775 -2.28894 -12.1978)
(201.578 4.59836 3.43078)
(203.051 4.00637 1.90995)
(204.099 3.35427 0.114549)
(204.65 2.68416 -2.00127)
(204.538 2.01716 -4.40968)
(203.554 1.35492 -7.08191)
(201.413 0.698573 -9.8575)
(197.808 0.0316595 -12.432)
(192.479 -0.673398 -14.0227)
(186.036 -1.44501 -14.0109)
(202.054 2.94565 4.41526)
(203.622 2.19946 2.92253)
(204.765 1.44913 1.09662)
(205.416 0.725267 -1.06157)
(205.406 0.0468411 -3.57127)
(204.511 -0.576398 -6.42832)
(202.4 -1.12822 -9.53155)
(198.665 -1.62288 -12.6137)
(192.844 -2.0517 -14.8544)
(185.418 -2.56528 -15.3596)
(201.599 3.59699 3.96)
(203.208 2.74067 2.60704)
(204.425 1.94609 0.961519)
(205.147 1.1943 -1.04937)
(205.208 0.545007 -3.43326)
(204.37 0.0226606 -6.20739)
(202.288 -0.323353 -9.31222)
(198.488 -0.464651 -12.5014)
(192.414 -0.383175 -15.1191)
(184.175 -0.298673 -15.7967)
(189.84 1.08594 -0.241236)
(189.87 0.973395 -0.490285)
(189.821 0.861154 -0.750827)
(189.699 0.759399 -0.991663)
(189.513 0.667919 -1.19913)
(189.275 0.587616 -1.35557)
(189.014 0.519517 -1.43308)
(188.812 0.444556 -1.44488)
(188.923 0.322776 -1.34422)
(189.831 0.0469615 -1.19447)
(192.25 2.62934 -0.728259)
(192.331 2.57772 -1.15924)
(192.282 2.47232 -1.55458)
(192.098 2.32636 -1.91873)
(191.783 2.1577 -2.2236)
(191.349 1.97599 -2.43899)
(190.819 1.79024 -2.53273)
(190.231 1.60672 -2.47701)
(189.635 1.43651 -2.24269)
(189.103 1.29208 -1.85927)
(194.213 2.6881 -0.121734)
(194.415 2.54971 -0.78309)
(194.424 2.34791 -1.4522)
(194.226 2.10362 -2.10376)
(193.814 1.8294 -2.70192)
(193.194 1.5326 -3.19372)
(192.384 1.21821 -3.51923)
(191.432 0.891628 -3.61656)
(190.418 0.56251 -3.4231)
(189.466 0.248519 -2.93724)
(195.792 3.53672 0.194141)
(196.172 3.38412 -0.669284)
(196.303 3.14685 -1.56364)
(196.151 2.84657 -2.47606)
(195.692 2.50316 -3.35641)
(194.91 2.12577 -4.13546)
(193.811 1.72232 -4.72077)
(192.44 1.30126 -5.00452)
(190.899 0.875152 -4.86511)
(189.392 0.47027 -4.24628)
(197.238 3.1659 1.22803)
(197.829 2.90908 0.161256)
(198.121 2.57225 -1.00263)
(198.065 2.17741 -2.23527)
(197.612 1.73788 -3.47874)
(196.716 1.25904 -4.65194)
(195.353 0.747692 -5.63018)
(193.547 0.210632 -6.2544)
(191.409 -0.340851 -6.31295)
(189.234 -0.868894 -5.68715)
(198.259 3.93459 1.58547)
(199.071 3.6292 0.398007)
(199.542 3.235 -0.92332)
(199.611 2.78265 -2.37268)
(199.199 2.28871 -3.88674)
(198.228 1.7574 -5.38304)
(196.63 1.19443 -6.71024)
(194.391 0.601895 -7.65949)
(191.604 -0.0163223 -7.91165)
(188.665 -0.629533 -7.26153)
(199.243 3.13111 2.65732)
(200.256 2.7007 1.35353)
(200.895 2.20143 -0.152994)
(201.094 1.66568 -1.84039)
(200.748 1.10501 -3.65679)
(199.741 0.522193 -5.52456)
(197.957 -0.0795866 -7.27958)
(195.324 -0.701804 -8.6722)
(191.882 -1.34472 -9.26753)
(188.124 -1.96224 -8.74867)
(199.808 3.92498 2.60358)
(200.983 3.43964 1.3131)
(201.762 2.89598 -0.192415)
(202.08 2.33441 -1.93319)
(201.813 1.77466 -3.86096)
(200.814 1.22119 -5.91872)
(198.913 0.67668 -7.94184)
(195.97 0.127867 -9.66236)
(191.938 -0.447498 -10.5326)
(187.368 -1.05952 -10.1316)
(200.316 2.29699 3.61614)
(201.586 1.66676 2.32354)
(202.453 1.02746 0.752475)
(202.856 0.412358 -1.06901)
(202.656 -0.161086 -3.13045)
(201.691 -0.681524 -5.38626)
(199.746 -1.13541 -7.70592)
(196.608 -1.53726 -9.82732)
(192.106 -1.8809 -11.1573)
(186.761 -2.26556 -11.061)
(199.887 3.12528 3.11763)
(201.198 2.40006 1.94689)
(202.135 1.72884 0.531619)
(202.599 1.09919 -1.17043)
(202.453 0.565098 -3.13722)
(201.517 0.148815 -5.34295)
(199.556 -0.111578 -7.68512)
(196.295 -0.200204 -9.89517)
(191.506 -0.117997 -11.4578)
(185.525 -0.0387506 -11.3985)
(189.987 0.728552 -0.16539)
(190.013 0.663007 -0.300886)
(189.989 0.594656 -0.450944)
(189.925 0.533209 -0.58651)
(189.825 0.476336 -0.703883)
(189.699 0.425059 -0.793472)
(189.564 0.381656 -0.834269)
(189.49 0.329184 -0.848351)
(189.714 0.231408 -0.786064)
(190.786 -0.0284128 -0.728865)
(191.848 2.0182 -0.641718)
(191.901 2.01605 -0.907231)
(191.871 1.96714 -1.13816)
(191.758 1.88103 -1.3417)
(191.566 1.77274 -1.50173)
(191.306 1.65099 -1.60117)
(190.994 1.52461 -1.62323)
(190.654 1.40002 -1.55486)
(190.318 1.28772 -1.38333)
(190.02 1.19591 -1.13281)
(193.351 1.98505 -0.151942)
(193.485 1.89596 -0.602992)
(193.484 1.75572 -1.05184)
(193.343 1.57993 -1.47896)
(193.062 1.3783 -1.85903)
(192.65 1.15712 -2.15765)
(192.128 0.921308 -2.33918)
(191.531 0.676091 -2.37076)
(190.911 0.42947 -2.22224)
(190.341 0.194053 -1.90547)
(194.636 2.8289 -0.0211059)
(194.9 2.73436 -0.644275)
(194.975 2.56653 -1.27513)
(194.843 2.34354 -1.90346)
(194.494 2.08282 -2.48998)
(193.929 1.79358 -2.98476)
(193.165 1.48396 -3.32765)
(192.247 1.16287 -3.45546)
(191.252 0.84249 -3.30669)
(190.303 0.543197 -2.86218)
(195.884 2.45411 0.843693)
(196.31 2.26376 0.029232)
(196.496 2.0044 -0.846259)
(196.412 1.69396 -1.7526)
(196.029 1.34458 -2.64046)
(195.332 0.962968 -3.44487)
(194.326 0.556688 -4.07755)
(193.052 0.133858 -4.43693)
(191.609 -0.293642 -4.40526)
(190.188 -0.696692 -3.93197)
(196.793 3.23765 1.05881)
(197.397 3.00801 0.124229)
(197.717 2.69993 -0.89954)
(197.705 2.33969 -1.99734)
(197.317 1.94261 -3.11096)
(196.511 1.51479 -4.16695)
(195.27 1.06296 -5.04997)
(193.622 0.591508 -5.61629)
(191.672 0.10766 -5.67696)
(189.694 -0.366219 -5.1282)
(197.718 2.44868 2.03449)
(198.493 2.10491 0.974043)
(198.943 1.69943 -0.238087)
(199.017 1.26068 -1.56541)
(198.647 0.799315 -2.95581)
(197.764 0.320662 -4.33137)
(196.318 -0.17075 -5.55835)
(194.31 -0.672886 -6.45214)
(191.829 -1.18131 -6.74294)
(189.236 -1.65698 -6.2444)
(198.249 3.31568 1.90687)
(199.165 2.92958 0.843372)
(199.731 2.48829 -0.382157)
(199.89 2.02983 -1.77023)
(199.555 1.57145 -3.26638)
(198.634 1.12012 -4.80191)
(197.037 0.679748 -6.23218)
(194.725 0.241205 -7.34713)
(191.751 -0.212103 -7.78769)
(188.54 -0.684947 -7.29467)
(198.768 1.7017 2.93136)
(199.775 1.1812 1.84061)
(200.417 0.648069 0.522185)
(200.642 0.137043 -0.974176)
(200.346 -0.337733 -2.62457)
(199.418 -0.763828 -4.36129)
(197.735 -1.1301 -6.05531)
(195.209 -1.44919 -7.48188)
(191.828 -1.71372 -8.24129)
(188.033 -1.99241 -7.92706)
(198.345 2.70916 2.37163)
(199.39 2.11071 1.38836)
(200.094 1.55811 0.206108)
(200.367 1.04476 -1.19106)
(200.106 0.616802 -2.76595)
(199.183 0.294112 -4.46704)
(197.454 0.104097 -6.1819)
(194.782 0.0533451 -7.6658)
(191.13 0.130129 -8.55483)
(186.86 0.198038 -8.19699)
(190.243 0.45755 -0.0961005)
(190.265 0.417915 -0.167078)
(190.256 0.374824 -0.256349)
(190.223 0.338094 -0.334686)
(190.171 0.303666 -0.4047)
(190.105 0.272513 -0.460985)
(190.038 0.247463 -0.485696)
(190.027 0.212811 -0.505938)
(190.295 0.13522 -0.467607)
(191.445 -0.110484 -0.464476)
(191.688 1.55689 -0.556246)
(191.722 1.58359 -0.714619)
(191.707 1.57105 -0.842237)
(191.641 1.52598 -0.947739)
(191.529 1.46094 -1.02323)
(191.377 1.38364 -1.05939)
(191.198 1.30219 -1.04772)
(191.005 1.22253 -0.981897)
(190.816 1.15423 -0.856313)
(190.649 1.10218 -0.687881)
(192.795 1.41772 -0.137401)
(192.884 1.36078 -0.43774)
(192.882 1.26507 -0.733208)
(192.788 1.14157 -1.00902)
(192.605 0.997168 -1.24836)
(192.341 0.836729 -1.4296)
(192.013 0.664414 -1.53196)
(191.644 0.484434 -1.53826)
(191.268 0.302564 -1.43358)
(190.925 0.127105 -1.23231)
(193.803 2.23915 -0.148739)
(193.983 2.18747 -0.584426)
(194.027 2.07427 -1.01526)
(193.925 1.91449 -1.43467)
(193.675 1.72286 -1.81407)
(193.282 1.50789 -2.1193)
(192.767 1.27718 -2.31287)
(192.164 1.03909 -2.35905)
(191.526 0.804381 -2.22808)
(190.928 0.588595 -1.91503)
(194.834 1.8479 0.573286)
(195.135 1.71099 -0.0315116)
(195.253 1.51668 -0.672607)
(195.169 1.27894 -1.32273)
(194.868 1.00833 -1.94274)
(194.351 0.711823 -2.48418)
(193.632 0.396942 -2.88782)
(192.754 0.0718715 -3.09181)
(191.791 -0.25253 -3.03276)
(190.864 -0.554779 -2.69245)
(195.604 2.62735 0.662968)
(196.044 2.46132 -0.0505048)
(196.257 2.22805 -0.819631)
(196.21 1.94925 -1.62705)
(195.877 1.63878 -2.42321)
(195.244 1.30354 -3.14865)
(194.315 0.95067 -3.72089)
(193.132 0.585621 -4.04657)
(191.788 0.216701 -4.01823)
(190.461 -0.141559 -3.58762)
(196.443 1.84782 1.54159)
(197.022 1.57981 0.702263)
(197.333 1.25843 -0.246762)
(197.337 0.907364 -1.26406)
(196.991 0.536487 -2.30188)
(196.263 0.152388 -3.29154)
(195.138 -0.23967 -4.1321)
(193.649 -0.635388 -4.69552)
(191.893 -1.02833 -4.82309)
(190.116 -1.38667 -4.40917)
(196.906 2.77698 1.33446)
(197.605 2.47972 0.484092)
(198.007 2.13185 -0.483019)
(198.066 1.76752 -1.55714)
(197.725 1.40196 -2.68418)
(196.932 1.04319 -3.79702)
(195.65 0.696022 -4.77901)
(193.891 0.354831 -5.47802)
(191.743 0.00834724 -5.66881)
(189.509 -0.348294 -5.20693)
(197.421 1.16529 2.36002)
(198.202 0.744871 1.46298)
(198.667 0.309963 0.383938)
(198.773 -0.105233 -0.814366)
(198.448 -0.490046 -2.10424)
(197.623 -0.831939 -3.41181)
(196.237 -1.12203 -4.62607)
(194.276 -1.37076 -5.57053)
(191.796 -1.56847 -5.99012)
(189.134 -1.7658 -5.64326)
(196.989 2.35423 1.72415)
(197.802 1.87419 0.924259)
(198.318 1.43196 -0.0328842)
(198.459 1.02544 -1.14351)
(198.152 0.691989 -2.36638)
(197.313 0.449022 -3.63852)
(195.866 0.314744 -4.85731)
(193.761 0.28959 -5.82136)
(191.052 0.356945 -6.29474)
(188.046 0.410544 -5.85607)
(190.526 0.250252 -0.0352922)
(190.545 0.224315 -0.0706919)
(190.543 0.19512 -0.127925)
(190.527 0.173037 -0.176148)
(190.5 0.152641 -0.222023)
(190.466 0.13482 -0.262259)
(190.434 0.122623 -0.280408)
(190.451 0.101222 -0.306984)
(190.727 0.0399926 -0.283012)
(191.905 -0.193771 -0.312785)
(191.671 1.21935 -0.482986)
(191.693 1.26144 -0.57407)
(191.687 1.2711 -0.638557)
(191.65 1.25299 -0.685488)
(191.586 1.21769 -0.712272)
(191.5 1.17194 -0.714001)
(191.398 1.12298 -0.686533)
(191.29 1.07609 -0.626631)
(191.185 1.04002 -0.531815)
(191.091 1.01738 -0.412624)
(192.454 0.970123 -0.100287)
(192.512 0.932373 -0.296807)
(192.512 0.867334 -0.48923)
(192.453 0.782061 -0.666401)
(192.339 0.680924 -0.817488)
(192.174 0.567302 -0.929212)
(191.972 0.444285 -0.989456)
(191.748 0.314768 -0.989084)
(191.521 0.182264 -0.920119)
(191.316 0.0515122 -0.795991)
(193.226 1.76077 -0.216806)
(193.346 1.73869 -0.511912)
(193.373 1.66644 -0.796738)
(193.301 1.55623 -1.06797)
(193.129 1.42006 -1.30613)
(192.865 1.26529 -1.48866)
(192.526 1.0985 -1.59278)
(192.136 0.9269 -1.59863)
(191.731 0.759514 -1.49238)
(191.355 0.60827 -1.27364)
(194.043 1.34648 0.389344)
(194.252 1.25055 -0.0483918)
(194.327 1.10865 -0.506689)
(194.255 0.931158 -0.963229)
(194.032 0.726837 -1.38871)
(193.663 0.50219 -1.74882)
(193.164 0.264051 -2.00513)
(192.57 0.0198425 -2.12105)
(191.935 -0.221373 -2.06294)
(191.332 -0.444137 -1.82707)
(194.665 2.10532 0.375444)
(194.979 1.99033 -0.152815)
(195.119 1.81946 -0.713375)
(195.062 1.61009 -1.29062)
(194.797 1.37425 -1.84506)
(194.32 1.11884 -2.33159)
(193.647 0.850735 -2.69373)
(192.818 0.575498 -2.87308)
(191.904 0.301153 -2.81006)
(191.019 0.0360554 -2.4855)
(195.405 1.33286 1.16145)
(195.829 1.12863 0.514486)
(196.039 0.879936 -0.209478)
(196.009 0.605623 -0.970723)
(195.715 0.314549 -1.72862)
(195.142 0.0135555 -2.42754)
(194.297 -0.291996 -2.99516)
(193.222 -0.596737 -3.34633)