/*--------------------------------*- C++ -*----------------------------------*\
| =========                 |                                                 |
| \\      /  F ield         | foam-extend: Open Source CFD                    |
|  \\    /   O peration     | Version:     4.0                                |
|   \\  /    A nd           | Web:         http://www.foam-extend.org         |
|    \\/     M anipulation  |                                                 |
\*---------------------------------------------------------------------------*/
FoamFile
{
    version     2.0;
    format      ascii;
    class       surfaceScalarField;
    location    "3400";
    object      phi;
}
// * * * * * * * * * * * * * * * * * * * * * * * * * * * * * * * * * * * * * //

dimensions      [1 0 -1 0 0 0 0];

internalField   nonuniform List<scalar> 
97302
(
-0.000109786
9.51698e-07
-0.000869497
0.000878773
-0.0001196
1.14103e-06
-0.000870499
0.000879173
-0.000129523
1.20014e-06
-0.000871025
0.000879747
-0.000140125
1.13818e-06
-0.000871064
0.000880527
-0.000152232
9.46069e-07
-0.000870611
0.000881773
-0.000167325
6.13699e-07
-0.000869445
0.000883924
-0.000188496
1.14588e-07
-0.000866957
0.000888013
-0.000222747
-5.95571e-07
-0.000861331
0.000896178
-0.000271325
-1.63915e-06
-0.000851542
0.000901759
-4.39606e-06
-0.000824043
-0.000352996
0.00091011
-0.000150901
1.6032e-06
-0.00116596
0.00117606
-0.000161173
1.96547e-06
-0.00116691
0.00117636
-0.000171518
2.084e-06
-0.0011675
0.00117697
-0.000182473
1.99203e-06
-0.00116753
0.00117763
-0.000194834
1.67457e-06
-0.00116673
0.00117836
-0.000210314
1.12035e-06
-0.00116472
0.0011797
-0.000232766
2.71789e-07
-0.00116113
0.00118342
-0.000271568
-9.66283e-07
-0.00115433
0.00119351
-0.00032835
-2.89683e-06
-0.00114203
0.00120007
-7.4597e-06
-0.00110414
-0.00043277
0.00121163
-0.000191208
1.89668e-06
-0.00146133
0.00147218
-0.000201778
2.39287e-06
-0.00146234
0.00147248
-0.000212297
2.57439e-06
-0.00146296
0.00147299
-0.000223274
2.49796e-06
-0.00146276
0.00147323
-0.000235634
2.14546e-06
-0.00146141
0.0014733
-0.000251511
1.50633e-06
-0.00145874
0.00147423
-0.000275388
5.01319e-07
-0.00145486
0.00147851
-0.000318359
-9.67998e-07
-0.00144829
0.00149126
-0.000381693
-3.35339e-06
-0.00143513
0.00149892
-9.13501e-06
-0.00138641
-0.000500693
0.00150709
-0.000231437
2.08619e-06
-0.00175271
0.00176398
-0.000242301
2.7221e-06
-0.00175394
0.00176448
-0.000253115
2.98237e-06
-0.00175482
0.00176523
-0.000264406
2.9468e-06
-0.00175482
0.00176566
-0.000277164
2.58664e-06
-0.00175364
0.00176596
-0.000293713
1.89313e-06
-0.00175121
0.00176737
-0.000318864
7.63949e-07
-0.00174765
0.00177254
-0.00036497
-8.92481e-07
-0.00174142
0.00178745
-0.000432991
-3.67981e-06
-0.00172781
0.00179616
-1.06291e-05
-0.00166796
-0.000560755
0.00179722
-0.000271568
2.31889e-06
-0.00204524
0.00205669
-0.000282602
3.02411e-06
-0.00204685
0.00205758
-0.000293585
3.32215e-06
-0.00204823
0.00205887
-0.000305071
3.30284e-06
-0.0020487
0.00205983
-0.000318118
2.93519e-06
-0.00204805
0.00206075
-0.000335169
2.21009e-06
-0.00204624
0.00206298
-0.000361326
1.01095e-06
-0.00204333
0.00206924
-0.000409968
-7.46105e-07
-0.00203779
0.00208628
-0.000481932
-3.81475e-06
-0.00202453
0.00209663
-1.18636e-05
-0.00195288
-0.000615169
0.00208735
-0.000312271
2.40457e-06
-0.00233637
0.00234812
-0.000323408
3.13537e-06
-0.00233843
0.00234946
-0.000334459
3.42126e-06
-0.0023402
0.00235116
-0.000346003
3.37427e-06
-0.00234109
0.00235256
-0.00035915
2.97236e-06
-0.00234096
0.00235407
-0.000376428
2.21527e-06
-0.00233991
0.00235718
-0.000403211
9.85114e-07
-0.00233792
0.00236472
-0.000453747
-7.84309e-07
-0.00233348
0.00238406
-0.000529016
-3.91241e-06
-0.00232173
0.0023971
-1.28332e-05
-0.00223797
-0.000665773
0.0023757
-0.000352796
2.38387e-06
-0.00262733
0.0026392
-0.000363875
3.02241e-06
-0.00262998
0.00264118
-0.00037485
3.23745e-06
-0.00263232
0.00264348
-0.000386303
3.10452e-06
-0.00263367
0.0026454
-0.000399399
2.62851e-06
-0.00263412
0.00264756
-0.000416696
1.80201e-06
-0.00263388
0.00265159
-0.000443818
5.61184e-07
-0.00263302
0.00266057
-0.000495694
-1.10955e-06
-0.00263019
0.00268239
-0.000573748
-3.8612e-06
-0.0026211
0.0026991
-1.29896e-05
-0.002525
-0.00071251
0.00266392
-0.000394592
2.0249e-06
-0.00291886
0.00293116
-0.000405723
2.47421e-06
-0.00292211
0.00293379
-0.000416697
2.50284e-06
-0.00292456
0.00293627
-0.000428101
2.16405e-06
-0.00292586
0.0029382
-0.000441062
1.49397e-06
-0.0029262
0.00294029
-0.000458083
4.90686e-07
-0.00292612
0.00294446
-0.000484931
-8.17575e-07
-0.00292596
0.00295419
-0.000536998
-2.36001e-06
-0.00292457
0.00297789
-0.000616519
-4.14949e-06
-0.00291883
0.00299864
-1.21412e-05
-0.00281223
-0.00075568
0.00295055
-0.000435788
1.06841e-06
-0.00320674
0.00321918
-0.000446493
1.13587e-06
-0.00321085
0.00322289
-0.000457073
8.44935e-07
-0.00321391
0.00322615
-0.000468174
1.11344e-07
-0.00321582
0.00322898
-0.000480963
-9.48118e-07
-0.00321696
0.00323219
-0.000497828
-2.30819e-06
-0.00321788
0.00323755
-0.00052453
-3.78323e-06
-0.00321914
0.0032488
-0.000576323
-5.09815e-06
-0.00322004
0.00327457
-0.000655776
-5.50569e-06
-0.00321668
0.00329749
-1.01951e-05
-0.00309932
-0.000792426
0.00323402
-0.000477199
-0.00347532
0.00348833
-0.000488545
-0.00347892
0.0034914
-0.000499733
-0.00347963
0.00349166
-0.000511446
-0.00347707
0.00348889
-0.000524721
-0.00347191
0.00348424
-0.000541688
-0.00346522
0.00347987
-0.00056758
-0.00345815
0.00348026
-0.000616584
-0.00345221
0.00349612
-0.000689675
-0.0034486
0.00351618
-0.00333961
-0.000818674
0.00345842
1.43957e-05
8.89033e-07
-0.000861041
5.31243e-06
1.11367e-06
-0.00086253
-3.79162e-06
1.19439e-06
-0.000863115
-1.31001e-05
1.13672e-06
-0.000862892
-2.28124e-05
9.30712e-07
-0.00086183
-3.31465e-05
5.58038e-07
-0.000859669
-4.42496e-05
-1.54557e-08
-0.000855839
-5.55407e-05
-8.68559e-07
-0.000849171
-6.62354e-05
-2.19717e-06
-0.00083865
-3.96818e-06
-0.000822397
-6.39127e-05
1.54089e-05
1.51394e-06
-0.00115611
5.39048e-06
1.93017e-06
-0.00115771
-4.61748e-06
2.08386e-06
-0.00115839
-1.49324e-05
2.00463e-06
-0.00115808
-2.58193e-05
1.67059e-06
-0.00115658
-3.7641e-05
1.05946e-06
-0.0011534
-5.12338e-05
1.09494e-07
-0.00114766
-6.76413e-05
-1.2955e-06
-0.0011375
-8.82616e-05
-3.54258e-06
-0.00112007
-6.60866e-06
-0.00109112
-9.86423e-05
1.67379e-05
1.82487e-06
-0.00145028
6.00704e-06
2.38887e-06
-0.00145207
-4.63113e-06
2.61238e-06
-0.00145285
-1.55086e-05
2.55011e-06
-0.00145243
-2.69631e-05
2.16895e-06
-0.00145045
-3.97283e-05
1.44527e-06
-0.00144636
-5.55499e-05
2.87097e-07
-0.00143922
-7.71568e-05
-1.42752e-06
-0.00142655
-0.000108636
-4.2834e-06
-0.00140291
-8.39574e-06
-0.00135938
-0.000133882
1.79544e-05
2.03314e-06
-0.00174097
6.73995e-06
2.75445e-06
-0.0017431
-4.38353e-06
3.06543e-06
-0.00174415
-1.58116e-05
3.04932e-06
-0.00174389
-2.79997e-05
2.65871e-06
-0.00174194
-4.19399e-05
1.87203e-06
-0.0017377
-5.99425e-05
5.56638e-07
-0.00172991
-8.61301e-05
-1.40109e-06
-0.00171526
-0.000128053
-4.79434e-06
-0.00168538
-9.90566e-06
-0.00162551
-0.000168998
1.90694e-05
2.27941e-06
-0.0020331
7.5685e-06
3.07941e-06
-0.00203567
-3.83547e-06
3.43425e-06
-0.00203719
-1.5599e-05
3.4404e-06
-0.00203733
-2.83157e-05
3.04643e-06
-0.00203572
-4.31632e-05
2.23019e-06
-0.00203175
-6.29175e-05
8.19996e-07
-0.00202383
-9.29969e-05
-1.28809e-06
-0.00200782
-0.000144892
-5.07601e-06
-0.00197236
-1.10639e-05
-0.00189522
-0.000201392
1.97736e-05
2.39778e-06
-0.00232381
8.09551e-06
3.23243e-06
-0.00232691
-3.43916e-06
3.5828e-06
-0.00232882
-1.53454e-05
3.57161e-06
-0.00232932
-2.83369e-05
3.15445e-06
-0.00232808
-4.37547e-05
2.31911e-06
-0.00232458
-6.48033e-05
8.73972e-07
-0.00231692
-9.80695e-05
-1.27485e-06
-0.00230023
-0.000159356
-5.20857e-06
-0.00226032
-1.18828e-05
-0.00216571
-0.000230799
2.01859e-05
2.36884e-06
-0.0026145
8.53066e-06
3.10968e-06
-0.00261821
-2.95375e-06
3.3945e-06
-0.00262065
-1.4799e-05
3.31013e-06
-0.00262157
-2.78486e-05
2.85161e-06
-0.00262077
-4.35541e-05
1.98956e-06
-0.00261785
-6.54985e-05
5.48545e-07
-0.00261075
-0.000101308
-1.56519e-06
-0.00259409
-0.000171275
-5.24588e-06
-0.00255109
-1.22484e-05
-0.00243911
-0.000256801
1.99277e-05
2.03395e-06
-0.00290561
8.27069e-06
2.58928e-06
-0.00290993
-3.10721e-06
2.71806e-06
-0.0029125
-1.47855e-05
2.48055e-06
-0.00291335
-2.76628e-05
1.90765e-06
-0.00291238
-4.32647e-05
9.66343e-07
-0.0029095
-6.54741e-05
-4.35673e-07
-0.00290277
-0.000102751
-2.40742e-06
-0.00288645
-0.000180119
-5.22064e-06
-0.00284148
-1.1899e-05
-0.00271328
-0.000279418
1.93974e-05
1.07395e-06
-0.00319322
8.21034e-06
1.21884e-06
-0.00319829
-2.66297e-06
1.05881e-06
-0.00320138
-1.38331e-05
4.74226e-07
-0.00320265
-2.63531e-05
-4.03947e-07
-0.00320212
-4.18591e-05
-1.58505e-06
-0.00319983
-6.44382e-05
-3.01064e-06
-0.00319398
-0.00010304
-4.67522e-06
-0.00317917
-0.000186368
-6.14898e-06
-0.00313242
-1.00752e-05
-0.00298565
-0.00030186
1.8242e-05
-0.00346152
6.80348e-06
-0.00346626
-4.11901e-06
-0.00346765
-1.52138e-05
-0.0034655
-2.7421e-05
-0.00346011
-4.23451e-05
-0.00345188
-6.39064e-05
-0.0034396
-0.000101289
-0.00341951
-0.000186016
-0.00337002
-0.0032157
-0.000320006
1.20259e-05
7.77672e-07
-0.000854369
4.42316e-06
1.01771e-06
-0.000855945
-3.29477e-06
1.10572e-06
-0.000856503
-1.10379e-05
1.04126e-06
-0.00085619
-1.86828e-05
8.17765e-07
-0.000855003
-2.59847e-05
4.19437e-07
-0.000852786
-3.23915e-05
-1.75741e-07
-0.000849256
-3.65994e-05
-1.00568e-06
-0.000843958
-3.67275e-05
-2.15413e-06
-0.000836368
-3.43233e-06
-0.000826722
-2.89702e-05
1.38779e-05
1.36214e-06
-0.0011476
4.85238e-06
1.80228e-06
-0.00114947
-4.23422e-06
1.96534e-06
-0.00115016
-1.34727e-05
1.87467e-06
-0.00114968
-2.28693e-05
1.50878e-06
-0.00114788
-3.2273e-05
8.43108e-07
-0.00114442
-4.12831e-05
-1.7579e-07
-0.00113865
-4.87474e-05
-1.62041e-06
-0.00112942
-5.22014e-05
-3.70583e-06
-0.00111506
-6.12794e-06
-0.00109587
-4.47546e-05
1.59824e-05
1.70839e-06
-0.00144012
5.78019e-06
2.30347e-06
-0.00144237
-4.41651e-06
2.53703e-06
-0.00144323
-1.4803e-05
2.45679e-06
-0.00144262
-2.54748e-05
2.02477e-06
-0.0014403
-3.64948e-05
1.20574e-06
-0.00143571
-4.7977e-05
-9.51606e-08
-0.00142782
-5.94529e-05
-1.97573e-06
-0.00141472
-6.8512e-05
-4.84586e-06
-0.00139271
-8.36575e-06
-0.00136071
-6.49449e-05
1.76322e-05
1.96727e-06
-0.00172977
6.6408e-06
2.73075e-06
-0.00173253
-4.34198e-06
3.05388e-06
-0.00173368
-1.5627e-05
3.0152e-06
-0.00173316
-2.74601e-05
2.5606e-06
-0.00173064
-4.01709e-05
1.65243e-06
-0.00172543
-5.43203e-05
1.42682e-07
-0.001716
-7.01002e-05
-2.0893e-06
-0.00169937
-8.58011e-05
-5.70596e-06
-0.00166882
-1.03346e-05
-0.00162111
-8.8232e-05
1.90373e-05
2.25877e-06
-0.00202122
7.53705e-06
3.10772e-06
-0.00202455
-3.93402e-06
3.47872e-06
-0.00202615
-1.57947e-05
3.46351e-06
-0.00202591
-2.84701e-05
3.00317e-06
-0.00202349
-4.25425e-05
2.05579e-06
-0.00201808
-5.90247e-05
4.18225e-07
-0.00200763
-7.89061e-05
-2.05836e-06
-0.00198797
-0.000101936
-6.30173e-06
-0.00194873
-1.197e-05
-0.0018834
-0.000112116
1.99752e-05
2.42613e-06
-0.00231133
8.13822e-06
3.31413e-06
-0.00231527
-3.61589e-06
3.68527e-06
-0.00231727
-1.57999e-05
3.66015e-06
-0.00231733
-2.89967e-05
3.18235e-06
-0.00231506
-4.40384e-05
2.21851e-06
-0.0023097
-6.24246e-05
5.35345e-07
-0.00229865
-8.60491e-05
-2.03936e-06
-0.00227662
-0.000116871
-6.6382e-06
-0.00222916
-1.318e-05
-0.00214515
-0.000136227
2.05273e-05
2.42057e-06
-0.00260159
8.6097e-06
3.21467e-06
-0.00260619
-3.1868e-06
3.52619e-06
-0.00260869
-1.54208e-05
3.44125e-06
-0.00260911
-2.88415e-05
2.94664e-06
-0.00260711
-4.4491e-05
1.99619e-06
-0.00260197
-6.43533e-05
3.54334e-07
-0.00259071
-9.12585e-05
-2.20165e-06
-0.00256702
-0.000129976
-6.76611e-06
-0.00251225
-1.39491e-05
-0.00240905
-0.000159273
2.0351e-05
2.09694e-06
-0.00289221
8.40316e-06
2.70174e-06
-0.00289747
-3.30976e-06
2.87395e-06
-0.00290014
-1.54092e-05
2.67683e-06
-0.00290048
-2.87392e-05
2.12625e-06
-0.00289823
-4.45311e-05
1.17553e-06
-0.00289288
-6.52374e-05
-3.27248e-07
-0.00288138
-9.45838e-05
-2.64751e-06
-0.00285666
-0.000140685
-6.40222e-06
-0.00279575
-1.3738e-05
-0.0026736
-0.000180578
1.9738e-05
1.15076e-06
-0.0031795
8.24284e-06
1.32811e-06
-0.00318542
-2.96989e-06
1.24794e-06
-0.00318854
-1.45265e-05
7.72667e-07
-0.00318919
-2.74287e-05
2.58486e-08
-0.00318712
-4.31508e-05
-1.0135e-06
-0.00318191
-6.46507e-05
-2.33685e-06
-0.00317047
-9.64406e-05
-4.09056e-06
-0.00314594
-0.000148897
-6.37118e-06
-0.00308
-1.15129e-05
-0.00293619
-0.000200578
1.85759e-05
-0.00344765
6.99871e-06
-0.00345336
-4.10583e-06
-0.00345529
-1.54476e-05
-0.00345339
-2.79187e-05
-0.00344761
-4.30036e-05
-0.00343781
-6.37008e-05
-0.00342124
-9.54116e-05
-0.00339189
-0.00015068
-0.00332112
-0.00316254
-0.000215349
9.33367e-06
6.08762e-07
-0.000849538
3.46344e-06
8.52289e-07
-0.000850927
-2.58791e-06
9.44404e-07
-0.000851396
-8.54704e-06
8.78331e-07
-0.000851109
-1.41072e-05
6.5267e-07
-0.000850095
-1.88457e-05
2.58535e-07
-0.000848306
-2.21201e-05
-3.11012e-07
-0.000845671
-2.28923e-05
-1.05816e-06
-0.000842127
-1.95793e-05
-1.97936e-06
-0.000837701
-2.86302e-06
-0.000832856
-1.05823e-05
1.17248e-05
1.11605e-06
-0.00114077
4.1069e-06
1.56642e-06
-0.00114257
-3.63966e-06
1.73468e-06
-0.0011432
-1.13772e-05
1.63656e-06
-0.0011427
-1.88897e-05
1.25488e-06
-0.00114097
-2.57879e-05
5.71628e-07
-0.00113784
-3.13125e-05
-4.44691e-07
-0.00113299
-3.39459e-05
-1.81623e-06
-0.00112603
-3.08494e-05
-3.60303e-06
-0.00111654
-5.41806e-06
-0.00110602
-1.81518e-05
1.44341e-05
1.48724e-06
-0.00143135
5.25737e-06
2.09876e-06
-0.00143372
-3.98596e-06
2.33518e-06
-0.00143459
-1.32965e-05
2.23439e-06
-0.00143391
-2.25677e-05
1.7601e-06
-0.00143153
-3.15048e-05
8.77617e-07
-0.00142707
-3.94303e-05
-4.90497e-07
-0.00141985
-4.47344e-05
-2.39702e-06
-0.00140883
-4.3491e-05
-5.03602e-06
-0.00139252
-7.89318e-06
-0.00137302
-2.87078e-05
1.65211e-05
1.79869e-06
-0.00171967
6.22573e-06
2.59123e-06
-0.00172273
-4.13286e-06
2.91815e-06
-0.00172391
-1.4692e-05
2.84897e-06
-0.00172322
-2.54968e-05
2.33005e-06
-0.00172041
-3.64585e-05
1.31943e-06
-0.00171491
-4.71094e-05
-3.18929e-07
-0.00170552
-5.58656e-05
-2.67742e-06
-0.00169033
-5.78753e-05
-6.17822e-06
-0.00166566
-1.01734e-05
-0.00163382
-4.28842e-05
1.82718e-05
2.14121e-06
-0.00201014
7.19075e-06
3.02854e-06
-0.0020139
-3.92254e-06
3.40717e-06
-0.00201552
-1.53443e-05
3.35862e-06
-0.002015
-2.73116e-05
2.82238e-06
-0.00201201
-3.99859e-05
1.74722e-06
-0.00200584
-5.32041e-05
-6.76116e-08
-0.00199466
-6.55998e-05
-2.76796e-06
-0.00197548
-7.19267e-05
-7.0548e-06
-0.00194153
-1.21924e-05
-0.00189468
-5.86282e-05
1.95044e-05
2.36877e-06
-0.0022994
7.87314e-06
3.30124e-06
-0.00230392
-3.7328e-06
3.68482e-06
-0.00230594
-1.57157e-05
3.63239e-06
-0.00230562
-2.84893e-05
3.08107e-06
-0.00230255
-4.24905e-05
1.98316e-06
-0.00229593
-5.79591e-05
9.43939e-08
-0.00228335
-7.39575e-05
-2.78331e-06
-0.00226061
-8.5526e-05
-7.60713e-06
-0.00221704
-1.37667e-05
-0.0021533
-7.58003e-05
2.02609e-05
2.40726e-06
-0.00258903
8.39412e-06
3.24736e-06
-0.00259427
-3.40144e-06
3.57669e-06
-0.00259679
-1.56063e-05
3.4756e-06
-0.00259675
-2.88218e-05
2.92165e-06
-0.00259374
-4.37449e-05
1.85705e-06
-0.00258692
-6.10761e-05
2.20388e-08
-0.0025733
-8.04485e-05
-2.86678e-06
-0.00254757
-9.78695e-05
-7.85524e-06
-0.00249458
-1.48966e-05
-0.00241266
-9.31305e-05
2.0241e-05
2.11193e-06
-0.00287906
8.27144e-06
2.75942e-06
-0.00288501
-3.51527e-06
2.96178e-06
-0.00288774
-1.56848e-05
2.78384e-06
-0.00288762
-2.89512e-05
2.22358e-06
-0.00288426
-4.42605e-05
1.22631e-06
-0.00287694
-6.28401e-05
-4.01407e-07
-0.00286237
-8.50383e-05
-3.0207e-06
-0.00283431
-0.000108507
-7.33066e-06
-0.0027728
-1.48306e-05
-0.00267209
-0.00011009
1.96933e-05
1.1997e-06
-0.00316593
8.11848e-06
1.40485e-06
-0.00317249
-3.22942e-06
1.3896e-06
-0.00317562
-1.49166e-05
9.99309e-07
-0.00317571
-2.77959e-05
3.45873e-07
-0.00317236
-4.30467e-05
-6.07604e-07
-0.00316483
-6.25185e-05
-1.89516e-06
-0.00314951
-8.767e-05
-3.75202e-06
-0.00312006
-0.000117052
-6.49579e-06
-0.00305145
-1.22158e-05
-0.00292921
-0.000126645
1.8606e-05
-0.00343398
7.07061e-06
-0.00344042
-4.05819e-06
-0.00344278
-1.54504e-05
-0.00344099
-2.78757e-05
-0.00343484
-4.25532e-05
-0.00342374
-6.14333e-05
-0.00340425
-8.70674e-05
-0.00337
-0.000119682
-0.003295
-0.00315504
-0.000139403
6.84916e-06
4.23742e-07
-0.000846192
2.57469e-06
6.54324e-07
-0.000847307
-1.89889e-06
7.45013e-07
-0.000847667
-6.24117e-06
6.82677e-07
-0.00084745
-1.01075e-05
4.70847e-07
-0.0008467
-1.30929e-05
1.08622e-07
-0.000845429
-1.47038e-05
-3.95578e-07
-0.000843664
-1.43362e-05
-1.02046e-06
-0.000841475
-1.13196e-05
-1.72031e-06
-0.000838998
-2.32866e-06
-0.000836483
-5.36401e-06
9.38712e-06
8.21692e-07
-0.00113556
3.29718e-06
1.26134e-06
-0.00113709
-2.9688e-06
1.42802e-06
-0.00113762
-9.13088e-06
1.3289e-06
-0.00113718
-1.48465e-05
9.52549e-07
-0.00113573
-1.96462e-05
2.92304e-07
-0.00113322
-2.28143e-05
-6.56908e-07
-0.00112956
-2.32474e-05
-1.87322e-06
-0.00112474
-1.92824e-05
-3.31355e-06
-0.00111891
-4.63236e-06
-0.00111323
-9.7644e-06
1.24559e-05
1.18753e-06
-0.00142418
4.59113e-06
1.79565e-06
-0.00142639
-3.40659e-06
2.0286e-06
-0.00142719
-1.13544e-05
1.91226e-06
-0.00142654
-1.89771e-05
1.41563e-06
-0.00142437
-2.58026e-05
5.14157e-07
-0.00142047
-3.09546e-05
-8.38465e-07
-0.00141451
-3.28544e-05
-2.6445e-06
-0.00140616
-2.86145e-05
-4.92404e-06
-0.00139515
-7.14038e-06
-0.00138374
-1.53859e-05
1.48905e-05
1.53333e-06
-0.00171098
5.63891e-06
2.33882e-06
-0.00171402
-3.75176e-06
2.66405e-06
-0.00171515
-1.32152e-05
2.56651e-06
-0.00171441
-2.25873e-05
1.99753e-06
-0.00171162
-3.15025e-05
9.21623e-07
-0.0017064
-3.90682e-05
-7.63809e-07
-0.00169803
-4.33523e-05
-3.10092e-06
-0.00168559
-4.00334e-05
-6.26968e-06
-0.00166764
-9.53704e-06
-0.00164761
-2.38428e-05
1.69727e-05
1.91886e-06
-0.00200021
6.66643e-06
2.83246e-06
-0.00200409
-3.74494e-06
3.21388e-06
-0.00200566
-1.43387e-05
3.13071e-06
-0.00200497
-2.5121e-05
2.52513e-06
-0.00200176
-3.59145e-05
1.34644e-06
-0.00199547
-4.59411e-05
-5.76194e-07
-0.00198482
-5.30691e-05
-3.34565e-06
-0.00196811
-5.16608e-05
-7.37611e-06
-0.00194183
-1.17702e-05
-0.00191047
-3.36386e-05
1.85159e-05
2.20691e-06
-0.00228843
7.42998e-06
3.17583e-06
-0.00229317
-3.70341e-06
3.56776e-06
-0.00229516
-1.51055e-05
3.48417e-06
-0.00229457
-2.69534e-05
2.85977e-06
-0.00229103
-3.93134e-05
1.64053e-06
-0.00228387
-5.16591e-05
-3.99032e-07
-0.00227118
-6.18719e-05
-3.43165e-06
-0.00225031
-6.3368e-05
-8.12171e-06
-0.00221479
-1.35878e-05
-0.00216984
-4.50067e-05
1.95094e-05
2.30258e-06
-0.00257721
8.00642e-06
3.18491e-06
-0.00258278
-3.49322e-06
3.52926e-06
-0.00258525
-1.53157e-05
3.40761e-06
-0.00258485
-2.78318e-05
2.78978e-06
-0.00258115
-4.13656e-05
1.60923e-06
-0.00257336
-5.57438e-05
-3.89018e-07
-0.00255894
-6.90373e-05
-3.47942e-06
-0.00253423
-7.42164e-05
-8.48652e-06
-0.00248903
-1.49512e-05
-0.00242865
-5.68548e-05
1.96922e-05
2.04657e-06
-0.00286651
7.98125e-06
2.73755e-06
-0.00287286
-3.6188e-06
2.96579e-06
-0.00287557
-1.55464e-05
2.79867e-06
-0.00287509
-2.82981e-05
2.21745e-06
-0.00287094
-4.2452e-05
1.15889e-06
-0.00286234
-5.83086e-05
-5.88996e-07
-0.00284632
-7.4392e-05
-3.40836e-06
-0.0028183
-8.38712e-05
-7.91066e-06
-0.0027639
-1.50075e-05
-0.00268686
-6.90449e-05
1.92697e-05
1.19971e-06
-0.00315284
7.86642e-06
1.43344e-06
-0.00315978
-3.38703e-06
1.47506e-06
-0.00316288
-1.49379e-05
1.15382e-06
-0.00316252
-2.74304e-05
5.70634e-07
-0.00315822
-4.16494e-05
-3.27238e-07
-0.00314912
-5.8393e-05
-1.60666e-06
-0.00313174
-7.72893e-05
-3.53827e-06
-0.00310103
-9.15603e-05
-6.47536e-06
-0.00303862
-1.2078e-05
-0.00294222
-8.14822e-05
1.82914e-05
-0.00342081
7.0015e-06
-0.00342769
-3.96651e-06
-0.00343033
-1.51895e-05
-0.00342862
-2.72614e-05
-0.0034222
-4.10524e-05
-0.00341027
-5.75076e-05
-0.0033894
-7.70926e-05
-0.00335396
-9.41522e-05
-0.00328442
-0.00317041
-9.08524e-05
4.81642e-06
2.50768e-07
-0.000843933
1.84256e-06
4.55444e-07
-0.000844788
-1.31468e-06
5.39795e-07
-0.00084505
-4.3463e-06
4.85259e-07
-0.000844903
-6.94564e-06
2.99242e-07
-0.0008444
-8.79006e-06
-1.32553e-08
-0.000843572
-9.55037e-06
-4.33941e-07
-0.00084247
-8.91207e-06
-9.3084e-07
-0.000841182
-6.64592e-06
-1.44755e-06
-0.000839816
-1.86603e-06
-0.000838417
-2.84597e-06
7.16923e-06
5.20509e-07
-0.00113173
2.51915e-06
9.28728e-07
-0.00113291
-2.32273e-06
1.08673e-06
-0.00113333
-7.025e-06
9.93481e-07
-0.00113299
-1.1215e-05
6.43142e-07
-0.00113189
-1.44513e-05
4.02172e-08
-0.00113004
-1.61746e-05
-7.98754e-07
-0.00112747
-1.57043e-05
-1.82543e-06
-0.00112432
-1.22592e-05
-2.95141e-06
-0.00112085
-3.90762e-06
-0.00111779
-5.6521e-06
1.03344e-05
8.48258e-07
-0.00141854
3.86884e-06
1.42937e-06
-0.00142043
-2.77481e-06
1.65154e-06
-0.00142111
-9.29146e-06
1.52801e-06
-0.00142056
-1.53073e-05
1.03469e-06
-0.00141875
-2.03022e-05
1.61458e-07
-0.0014156
-2.34788e-05
-1.10379e-06
-0.00141103
-2.36622e-05
-2.72151e-06
-0.00140508
-1.91471e-05
-4.6124e-06
-0.00139801
-6.31288e-06
-0.00139139
-9.09063e-06
1.29532e-05
1.19969e-06
-0.00170381
4.94837e-06
1.99586e-06
-0.00170658
-3.26106e-06
2.31274e-06
-0.0017076
-1.14352e-05
2.19434e-06
-0.0017069
-1.92469e-05
1.60021e-06
-0.00170437
-2.61813e-05
5.08756e-07
-0.00169982
-3.12794e-05
-1.13848e-06
-0.0016929
-3.28877e-05
-3.33053e-06
-0.00168337
-2.80245e-05
-6.0737e-06
-0.00167104
-8.68522e-06
-0.00165872
-1.45454e-05
1.52829e-05
1.60954e-06
-0.00199166
6.01548e-06
2.53013e-06
-0.00199536
-3.42934e-06
2.90821e-06
-0.00199681
-1.2932e-05
2.79535e-06
-0.00199607
-2.22881e-05
2.14055e-06
-0.00199294
-3.10799e-05
9.02695e-07
-0.00198707
-3.82934e-05
-1.04142e-06
-0.00197771
-4.18769e-05
-3.73487e-06
-0.00196412
-3.73981e-05
-7.34513e-06
-0.00194504
-1.0985e-05
-0.0019247
-2.08734e-05
1.71002e-05
1.94803e-06
-0.00227867
6.84777e-06
2.9386e-06
-0.00228333
-3.53058e-06
3.33358e-06
-0.00228521
-1.40554e-05
3.22058e-06
-0.00228447
-2.46645e-05
2.53669e-06
-0.00228082
-3.51117e-05
1.23105e-06
-0.00227375
-4.44662e-05
-8.79487e-07
-0.00226198
-5.04417e-05
-3.91226e-06
-0.00224416
-4.72132e-05
-8.23803e-06
-0.00221713
-1.2908e-05
-0.00218662
-2.85173e-05
1.83247e-05
2.10604e-06
-0.00256643
7.47602e-06
3.02128e-06
-0.00257201
-3.44803e-06
3.37697e-06
-0.00257437
-1.45843e-05
3.23504e-06
-0.00257373
-2.60514e-05
2.56158e-06
-0.00256971
-3.78169e-05
1.28896e-06
-0.00256165
-4.91489e-05
-8.08258e-07
-0.00254768
-5.7687e-05
-3.95139e-06
-0.00252565
-5.64448e-05
-8.68919e-06
-0.00248982
-1.43507e-05
-0.00244717
-3.64853e-05
1.87297e-05
1.89534e-06
-0.00285486
7.55177e-06
2.62663e-06
-0.00286128
-3.59979e-06
2.87619e-06
-0.00286392
-1.49953e-05
2.71467e-06
-0.00286317
-2.68835e-05
2.11025e-06
-0.0028586
-3.9458e-05
9.98069e-07
-0.00284948
-5.23275e-05
-8.26884e-07
-0.00283343
-6.33402e-05
-3.71009e-06
-0.00280752
-6.48619e-05
-8.09808e-06
-0.00276297
-1.44352e-05
-0.00270666
-4.4976e-05
1.84647e-05
1.144e-06
-0.00314055
7.48916e-06
1.40473e-06
-0.00314759
-3.4272e-06
1.4947e-06
-0.00315058
-1.45709e-05
1.22794e-06
-0.00314989
-2.63524e-05
6.96183e-07
-0.00314503
-3.9157e-05
-1.64478e-07
-0.00313516
-5.29372e-05
-1.43833e-06
-0.00311735
-6.63028e-05
-3.37881e-06
-0.003088
-7.12608e-05
-6.28898e-06
-0.00303547
-1.12878e-05
-0.00296302
-5.36123e-05
1.76239e-05
-0.00340842
6.7911e-06
-0.00341546
-3.81542e-06
-0.00341823
-1.46391e-05
-0.00341657
-2.60689e-05
-0.00341007
-3.86066e-05
-0.0033979
-5.23918e-05
-0.00337706
-6.65667e-05
-0.00334316
-7.36968e-05
-0.00328358
-0.00319582
-5.95779e-05
3.29099e-06
1.0687e-07
-0.000842409
1.28804e-06
2.78619e-07
-0.000843064
-8.66489e-07
3.53466e-07
-0.000843249
-2.9202e-06
3.08783e-07
-0.000843158
-4.63259e-06
1.54601e-07
-0.000842842
-5.77056e-06
-1.01049e-07
-0.000842333
-6.12985e-06
-4.35574e-07
-0.000841675
-5.55921e-06
-8.15685e-07
-0.000840937
-4.01132e-06
-1.18936e-06
-0.000840175
-1.47566e-06
-0.000839307
-1.64567e-06
5.24902e-06
2.44406e-07
-0.00112897
1.83115e-06
6.05602e-07
-0.00112982
-1.76731e-06
7.49098e-07
-0.00113012
-5.22962e-06
6.67072e-07
-0.00112988
-8.21497e-06
3.58163e-07
-0.00112911
-1.03601e-05
-1.64823e-07
-0.00112783
-1.12714e-05
-8.71806e-07
-0.00112613
-1.05667e-05
-1.70312e-06
-0.00112414
-7.94656e-06
-2.56204e-06
-0.0011221
-3.25272e-06
-0.00112043
-3.53707e-06
8.28505e-06
5.07004e-07
-0.00141424
3.15586e-06
1.03855e-06
-0.00141573
-2.1683e-06
1.24254e-06
-0.00141628
-7.33239e-06
1.12059e-06
-0.00141585
-1.19358e-05
6.55281e-07
-0.00141444
-1.5492e-05
-1.4951e-07
-0.00141206
-1.7373e-05
-1.27785e-06
-0.00140874
-1.68205e-05
-2.66171e-06
-0.00140468
-1.29825e-05
-4.1779e-06
-0.00140023
-5.46961e-06
-0.00139638
-5.777e-06
1.09001e-05
8.32972e-07
-0.00169809
4.20948e-06
1.59445e-06
-0.00170045
-2.72865e-06
1.89513e-06
-0.00170132
-9.56161e-06
1.7657e-06
-0.00170071
-1.58696e-05
1.17538e-06
-0.00169858
-2.10948e-05
1.19352e-07
-0.00169486
-2.43881e-05
-1.41748e-06
-0.00168947
-2.4546e-05
-3.37921e-06
-0.0016825
-1.98145e-05
-5.66788e-06
-0.00167428
-7.72317e-06
-0.00166674
-9.54042e-06
1.33485e-05
1.24197e-06
-0.00198454
5.27995e-06
2.14428e-06
-0.00198784
-3.02421e-06
2.51104e-06
-0.00198912
-1.12884e-05
2.37716e-06
-0.00198842
-1.91567e-05
1.70134e-06
-0.0019856
-2.60807e-05
4.58361e-07
-0.00198049
-3.1047e-05
-1.42152e-06
-0.00197273
-3.24057e-05
-3.92099e-06
-0.00196222
-2.72132e-05
-7.02995e-06
-0.00194887
-9.98189e-06
-0.00193583
-1.38201e-05
1.53599e-05
1.6124e-06
-0.00227027
6.15673e-06
2.60251e-06
-0.00227458
-3.24373e-06
2.99311e-06
-0.00227629
-1.26809e-05
2.85649e-06
-0.00227551
-2.18964e-05
2.13642e-06
-0.00227204
-3.04299e-05
7.93841e-07
-0.00226555
-3.72139e-05
-1.29863e-06
-0.00225532
-4.02437e-05
-4.19106e-06
-0.00224086
-3.525e-05
-8.01269e-06
-0.00222114
-1.18945e-05
-0.0022008
-1.9155e-05
1.67724e-05
1.82937e-06
-0.00255692
6.82296e-06
2.76088e-06
-0.00256222
-3.28018e-06
3.12191e-06
-0.0025644
-1.34849e-05
2.96315e-06
-0.00256363
-2.36837e-05
2.2514e-06
-0.00255963
-3.35638e-05
9.26877e-07
-0.0025519
-4.21058e-05
-1.18838e-06
-0.00253924
-4.70695e-05
-4.23737e-06
-0.00252064
-4.28699e-05
-8.50867e-06
-0.00249353
-1.328e-05
-0.00246409
-2.45662e-05
1.73928e-05
1.66341e-06
-0.00284436
6.99496e-06
2.4255e-06
-0.00285055
-3.46363e-06
2.69012e-06
-0.00285303
-1.40728e-05
2.53153e-06
-0.00285213
-2.48457e-05
1.90915e-06
-0.00284748
-3.56491e-05
7.64263e-07
-0.00283851
-4.56548e-05
-1.08015e-06
-0.00282353
-5.26161e-05
-3.88973e-06
-0.00280091
-4.99889e-05
-7.91758e-06
-0.00276619
-1.32844e-05
-0.00272615
-3.04918e-05
1.72975e-05
1.03255e-06
-0.00312932
6.99059e-06
1.31498e-06
-0.00313617
-3.35205e-06
1.44412e-06
-0.00313899
-1.38373e-05
1.21941e-06
-0.00313809
-2.46464e-05
7.2612e-07
-0.00313304
-3.58165e-05
-1.04233e-07
-0.00312312
-4.67385e-05
-1.35909e-06
-0.00310615
-5.55503e-05
-3.23933e-06
-0.00307983
-5.51162e-05
-5.95533e-06
-0.00303786
-1.01072e-05
-0.00298517
-3.61375e-05
1.66148e-05
-0.00339708
6.44332e-06
-0.00340397
-3.60038e-06
-0.00340674
-1.38041e-05
-0.00340514
-2.4348e-05
-0.0033988
-3.53958e-05
-0.00338695
-4.65287e-05
-0.00336728
-5.61806e-05
-0.00333675
-5.73758e-05
-0.00328834
-0.00322362
-3.96874e-05
2.21187e-06
-1.62552e-09
-0.000841366
8.93557e-07
1.36203e-07
-0.000841882
-5.42976e-07
2.00434e-07
-0.000842013
-1.90623e-06
1.65833e-07
-0.000841961
-3.02093e-06
4.40306e-08
-0.000841771
-3.72703e-06
-1.56288e-07
-0.00084147
-3.90064e-06
-4.12458e-07
-0.000841089
-3.47112e-06
-6.94948e-07
-0.000840672
-2.44937e-06
-9.61286e-07
-0.000840235
-1.15655e-06
-0.00083963
-9.69411e-07
3.69414e-06
1.26874e-08
-0.00112699
1.2609e-06
3.18821e-07
-0.00112757
-1.32606e-06
4.44308e-07
-0.00112778
-3.79932e-06
3.76503e-07
-0.00112762
-5.87775e-06
1.17132e-07
-0.0011271
-7.28497e-06
-3.16568e-07
-0.00112626
-7.75929e-06
-8.88898e-07
-0.00112518
-7.09732e-06
-1.53972e-06
-0.00112395
-5.21296e-06
-2.18138e-06
-0.00112276
-2.67464e-06
-0.00112183
-2.29043e-06
6.44966e-06
1.93381e-07
-0.00141101
2.5023e-06
6.58115e-07
-0.00141212
-1.63127e-06
8.37885e-07
-0.00141254
-5.60409e-06
7.24678e-07
-0.00141223
-9.04156e-06
3.06349e-07
-0.00141119
-1.15315e-05
-4.02953e-07
-0.00140948
-1.26146e-05
-1.36877e-06
-0.00140718
-1.18349e-05
-2.51018e-06
-0.00140449
-8.8253e-06
-3.69452e-06
-0.00140172
-4.66013e-06
-0.00139947
-3.74681e-06
8.89274e-06
4.67271e-07
-0.00169366
3.47486e-06
1.17002e-06
-0.00169554
-2.20627e-06
1.44673e-06
-0.00169625
-7.74966e-06
1.31606e-06
-0.00169576
-1.27103e-05
7.56672e-07
-0.00169407
-1.65609e-05
-2.20647e-07
-0.00169119
-1.86212e-05
-1.597e-06
-0.00168718
-1.80877e-05
-3.28615e-06
-0.00168226
-1.40467e-05
-5.13997e-06
-0.00167688
-6.72595e-06
-0.00167227
-6.45175e-06
1.13192e-05
8.48659e-07
-0.00197877
4.50704e-06
1.70523e-06
-0.00198156
-2.57554e-06
2.05174e-06
-0.00198265
-9.55504e-06
1.90714e-06
-0.00198203
-1.59937e-05
1.24088e-06
-0.00197965
-2.13085e-05
4.5889e-08
-0.00197544
-2.46098e-05
-1.69887e-06
-0.00196933
-2.46919e-05
-3.92672e-06
-0.0019615
-1.98185e-05
-6.51751e-06
-0.00195236
-8.85846e-06
-0.00194406
-9.45599e-06
1.34189e-05
1.22759e-06
-0.00226326
5.39576e-06
2.19027e-06
-0.00226705
-2.8779e-06
2.56739e-06
-0.00226853
-1.11043e-05
2.41558e-06
-0.0022678
-1.88932e-05
1.68812e-06
-0.0022647
-2.56755e-05
3.63038e-07
-0.00225909
-3.04246e-05
-1.62931e-06
-0.00225064
-3.15584e-05
-4.27497e-06
-0.00223938
-2.63096e-05
-7.52992e-06
-0.00222538
-1.06712e-05
-0.00221196
-1.33376e-05
1.49473e-05
1.49244e-06
-0.00254878
6.07687e-06
2.41744e-06
-0.00255357
-3.01358e-06
2.77571e-06
-0.00255551
-1.21107e-05
2.60605e-06
-0.00255473
-2.0934e-05
1.87971e-06
-0.00255099
-2.89927e-05
5.51834e-07
-0.00254403
-3.5195e-05
-1.50033e-06
-0.00253317
-3.76503e-05
-4.33582e-06
-0.00251812
-3.24409e-05
-8.03358e-06
-0.00249823
-1.19119e-05
-0.00247821
-1.70763e-05
1.57522e-05
1.36367e-06
-0.00283514
6.33316e-06
2.14089e-06
-0.00284085
-3.22554e-06
2.41276e-06
-0.00284311
-1.28462e-05
2.25701e-06
-0.00284216
-2.23471e-05
1.62867e-06
-0.00283773
-3.13616e-05
4.81928e-07
-0.00282942
-3.88668e-05
-1.31981e-06
-0.00281621
-4.28115e-05
-3.94717e-06
-0.00279735
-3.83389e-05
-7.47134e-06
-0.00277122
-1.17999e-05
-0.00274329
-2.13095e-05
1.58175e-05