/*--------------------------------*- C++ -*----------------------------------*\
| =========                 |                                                 |
| \\      /  F ield         | foam-extend: Open Source CFD                    |
|  \\    /   O peration     | Version:     4.0                                |
|   \\  /    A nd           | Web:         http://www.foam-extend.org         |
|    \\/     M anipulation  |                                                 |
\*---------------------------------------------------------------------------*/
FoamFile
{
    version     2.0;
    format      ascii;
    class       volScalarField;
    location    "950";
    object      alphat;
}
// * * * * * * * * * * * * * * * * * * * * * * * * * * * * * * * * * * * * * //

dimensions      [1 -1 -1 0 0 0 0];

internalField   nonuniform List<scalar> 
34480
(
0.00189097
0.00188972
0.00188953
0.00189029
0.0018923
0.00189607
0.00190349
0.00192166
0.00196083
0.00203183
0.0159978
0.0152004
0.0149001
0.0146147
0.0129567
0.00823609
0.00340198
0.00135351
0.0009948
0.00146881
0.0443175
0.0426624
0.0409831
0.0375339
0.0287079
0.0147011
0.00513129
0.00183923
0.00125264
0.00182641
0.0484497
0.0463138
0.0443952
0.0403631
0.0297905
0.0142188
0.00481709
0.00178509
0.00129536
0.00198706
0.0477495
0.045375
0.0436429
0.0398157
0.0289604
0.0132699
0.00443796
0.00169288
0.00130391
0.00210168
0.0459874
0.0435605
0.0419353
0.0381654
0.0269577
0.011702
0.00388774
0.00156059
0.00130885
0.00222707
0.043853
0.041591
0.0401658
0.0365703
0.0253966
0.0106401
0.00352362
0.0014678
0.00131551
0.0023354
0.0364015
0.0347558
0.0337515
0.0310192
0.021525
0.00870859
0.00283541
0.00124518
0.00123861
0.00234277
0.012415
0.0121053
0.0120075
0.0117344
0.00994075
0.00513813
0.00168417
0.000739204
0.000836358
0.00178857
0.00179928
0.00179921
0.00180084
0.00180404
0.00180873
0.00181474
0.0018227
0.00183385
0.0018503
0.00181135
0.00189048
0.00188864
0.00188804
0.00188851
0.00189028
0.00189361
0.00189903
0.00190842
0.0019261
0.00196698
0.0150303
0.0144065
0.0142169
0.0143925
0.0147852
0.0148014
0.0129456
0.00764069
0.00250734
0.00206924
0.0408161
0.0395939
0.0389358
0.0383939
0.0367644
0.0320255
0.0230201
0.0113068
0.00330134
0.00283301
0.0448779
0.0432297
0.0424459
0.0418754
0.0400222
0.0344984
0.0242431
0.0114528
0.00331228
0.00319151
0.0446881
0.0427722
0.042056
0.0417066
0.0402187
0.0349262
0.0245096
0.0112999
0.00324293
0.00346372
0.0434575
0.0414415
0.0407466
0.0405354
0.0393214
0.03431
0.0240257
0.010866
0.00316662
0.00378987
0.0418433
0.0399137
0.0393096
0.0391857
0.0382151
0.0335754
0.0236179
0.0105732
0.00312785
0.0041025
0.0351434
0.033713
0.0332685
0.0332653
0.0327651
0.0294483
0.0211637
0.00940094
0.00285222
0.00417484
0.0123529
0.0120555
0.0119996
0.0120612
0.0121955
0.0120399
0.0106242
0.0054596
0.00170639
0.00280482
0.00179493
0.00179251
0.00179199
0.00179311
0.00179582
0.00179984
0.00180592
0.00181562
0.00183968
0.00188649
0.00188558
0.001884
0.00188347
0.0018839
0.00188543
0.00188811
0.00189204
0.001898
0.00190694
0.0019205
0.014128
0.0137223
0.0135911
0.0137355
0.0141599
0.0147753
0.0151587
0.0142232
0.0101173
0.00586683
0.0372954
0.0363362
0.0360052
0.0361481
0.0364515
0.0360074
0.0330433
0.0253645
0.0133569
0.00715098
0.0411557
0.0398711
0.0394571
0.0396846
0.0401719
0.039795
0.0362354
0.0266087
0.0125316
0.00724277
0.0413631
0.0398819
0.0394901
0.0398375
0.0406382
0.0407466
0.0374113
0.0266798
0.0113955
0.00719774
0.0406056
0.0390392
0.0386297
0.0390453
0.0400769
0.040679
0.0377556
0.0261607
0.0102711
0.00725464
0.0394873
0.0379645
0.0375986
0.038022
0.0391624
0.0401322
0.0377223
0.025522
0.00934445
0.00732667
0.0336291
0.0324998
0.0322105
0.0325412
0.0334931
0.0346539
0.0334737
0.0226307
0.00793294
0.00703149
0.0122464
0.0119995
0.0119599
0.0120235
0.0122217
0.0124558
0.0126138
0.0106421
0.00447203
0.00444672
0.00178782
0.00178495
0.00178406
0.00178489
0.0017875
0.00179177
0.0017987
0.00181038
0.00183688
0.00188991
0.00187708
0.00187598
0.00187561
0.00187595
0.00187706
0.00187886
0.00188116
0.00188422
0.00188817
0.00189287
0.0135258
0.013289
0.013202
0.0132924
0.0135702
0.0140042
0.0144689
0.0148891
0.0146219
0.0128873
0.0341248
0.0334494
0.0332605
0.0334608
0.0340166
0.034677
0.0346801
0.0324326
0.0256973
0.0174368
0.0377255
0.0368006
0.0365451
0.0368375
0.0376387
0.0386262
0.03865
0.0352933
0.0257636
0.0167656
0.0382542
0.0371892
0.0369394
0.0373017
0.0383123
0.0396766
0.0400309
0.0361296
0.0245699
0.0159013
0.0379185
0.036774
0.0364923
0.0368969
0.0380595
0.039792
0.0405998
0.0363242
0.0230512
0.0153278
0.0372453
0.0361037
0.0358432
0.0362434
0.0374542
0.0393897
0.0405869
0.0360365
0.0214227
0.0148149
0.0322188
0.0313638
0.0311493
0.0314466
0.0323627
0.0339947
0.0354597
0.031973
0.0184264
0.0136733
0.0121807
0.0119778
0.0119494
0.0119979
0.012148
0.0123385
0.0125474
0.0126661
0.00955003
0.00827914
0.00177914
0.00177612
0.0017751
0.00177585
0.00177848
0.00178306
0.00179055
0.00180312
0.00182903
0.00187599
0.00186578
0.00186512
0.0018649
0.00186513
0.00186585
0.00186692
0.00186809
0.0018695
0.00187108
0.00187255
0.0132297
0.0131043
0.0130489
0.0131036
0.0132707
0.0135108
0.0137373
0.0140327
0.0143264
0.0144537
0.0315847
0.0311906
0.0310899
0.0312135
0.0315893
0.0321905
0.0328658
0.0331377
0.0316815
0.0275155
0.0348527
0.0342632
0.0341039
0.0343
0.0348896
0.0358609
0.0369378
0.0371325
0.0340905
0.0275141
0.0355813
0.0348788
0.0347166
0.0349609
0.0357018
0.0369557
0.0383868
0.0385862
0.0341798
0.0263252
0.0355674
0.0347804
0.0345801
0.0348617
0.035723
0.0372549
0.0391084
0.0394445
0.03373
0.0253804
0.0352459
0.0344274
0.0342348
0.0345189
0.0354267
0.0370945
0.0392188
0.0396243
0.0326981
0.0243923
0.0309771
0.0303503
0.0301868
0.0304016
0.0310761
0.0323799
0.0342345
0.0350051
0.0287967
0.0222085
0.0121625
0.0119956
0.0119757
0.0120087
0.0121101
0.0122269
0.0122984
0.0126871
0.012537
0.0121538
0.00176903
0.00176599
0.0017649
0.0017656
0.0017682
0.00177287
0.00178041
0.00179265
0.00181517
0.0018515
0.0018522
0.00185188
0.00185177
0.00185191
0.00185233
0.00185287
0.00185338
0.00185395
0.00185452
0.00185491
0.013174
0.0131201
0.0130877
0.0131225
0.0132229
0.0133426
0.0134337
0.0135529
0.0136815
0.0137805
0.0298127
0.0296257
0.0295832
0.0296422
0.0298292
0.0301478
0.030597
0.0311477
0.0314815
0.0311282
0.0326778
0.032347
0.0322558
0.0323628
0.0327031
0.0333155
0.0342101
0.03523
0.035506
0.0339995
0.0334509
0.0330294
0.0329324
0.0330732
0.0335242
0.0343466
0.035568
0.0369253
0.0369021
0.0340931
0.0336278
0.033122
0.0329866
0.0331613
0.0337151
0.0347608
0.0363622
0.038155
0.0377947
0.03384
0.0335425
0.0329859
0.0328502
0.0330334
0.0336406
0.0348066
0.0366317
0.0386878
0.0378542
0.0330498
0.0299245
0.0294854
0.0293668
0.0295115
0.0299665
0.0308578
0.0323013
0.0341969
0.0336536
0.0298603
0.0121953
0.0120589
0.0120472
0.0120681
0.0121307
0.0121814
0.0121337
0.0123232
0.0127154
0.0135879
0.00175734
0.0017544
0.00175331
0.00175396
0.00175645
0.00176097
0.00176813
0.00177928
0.00179759
0.00182385
0.00183672
0.00183662
0.0018366
0.00183668
0.00183689
0.00183709
0.00183727
0.00183746
0.00183763
0.00183767
0.0132834
0.0132775
0.0132622
0.0132854
0.0133445
0.0133948
0.0134339
0.0134785
0.0135144
0.0135092
0.0287361
0.0286656
0.0286551
0.0286797
0.0287565
0.028883
0.0290706
0.0293353
0.0296278
0.0298585
0.0311888
0.0310197
0.0309715
0.0310237
0.0311968
0.0315128
0.0320018
0.032686
0.0333852
0.0338067
0.0318822
0.0316489
0.0315961
0.0316694
0.031916
0.0323704
0.0330906
0.0341244
0.0350991
0.0354293
0.0321308
0.0318242
0.0317375
0.0318381
0.0321662
0.0327903
0.0338089
0.0353159
0.036632
0.0367311
0.0321744
0.0318134
0.0317227
0.0318329
0.0322124
0.0329421
0.0341497
0.0359776
0.0374229
0.0370735
0.0290891
0.028795
0.0287133
0.0288053
0.0290931
0.0296475
0.0305576
0.0320967
0.0334742
0.0334723
0.0122878
0.0121757
0.0121712
0.012183
0.0122156
0.0122121
0.0120902
0.0120888
0.0122616
0.0129446
0.00174393
0.00174118
0.00174014
0.00174073
0.00174305
0.00174723
0.00175369
0.00176332
0.0017776
0.00179601
0.00181956
0.0018196
0.00181962
0.00181966
0.00181975
0.00181978
0.00181981
0.00181983
0.00181984
0.00181977
0.0135008
0.0135295
0.0135276
0.0135435
0.013575
0.0135931
0.013612
0.0136298
0.0136335
0.0135946
0.028165
0.0281497
0.028154
0.0281639
0.0281905
0.0282302
0.0282911
0.0283781
0.0284815
0.0285753
0.0302523
0.0301702
0.0301459
0.0301703
0.0302539
0.0304044
0.0306332
0.0309543
0.0313292
0.0316836
0.030806
0.0306846
0.0306587
0.0306944
0.030821
0.0310504
0.0314094
0.0319395
0.0325694
0.0331701
0.031046
0.0308687
0.0308158
0.0308709
0.0310557
0.0314016
0.0319606
0.0328271
0.0338715
0.0348422
0.0311379
0.030913
0.0308553
0.030918
0.0311445
0.0315724
0.0322718
0.033397
0.0347422
0.0359021
0.0284762
0.0282877
0.0282347
0.02829
0.0284612
0.0287796
0.0292822
0.03019
0.0314037
0.0326496
0.0124461
0.0123527
0.0123543
0.0123595
0.01237
0.0123248
0.012167
0.012056
0.0120258
0.0122796
0.00172867
0.0017262
0.00172525
0.00172578
0.00172785
0.00173155
0.00173712
0.00174506
0.00175584
0.00176853
0.00180082
0.00180094
0.00180099
0.001801
0.00180102
0.00180099
0.00180096
0.00180092
0.00180088
0.00180077
0.0137986
0.0138482
0.0138571
0.0138679
0.0138789
0.0138887
0.0138996
0.0139069
0.0138987
0.0138481
0.0279165
0.0279239
0.0279339
0.0279384
0.0279447
0.0279538
0.027969
0.0279905
0.0280161
0.0280362
0.0297052
0.0296656
0.0296533
0.0296649
0.0297056
0.0297775
0.0298825
0.0300217
0.0301811
0.0303308
0.0301139
0.0300531
0.0300415
0.0300583
0.0301216
0.0302337
0.0304024
0.0306395
0.0309236
0.0312107
0.0303063
0.0302073
0.0301761
0.0302054
0.0303066
0.0304919
0.0307811
0.0312116
0.0317537
0.0323305
0.0303984
0.0302622
0.0302269
0.0302611
0.0303926
0.0306347
0.0310166
0.0316116
0.0323748
0.0331897
0.0280729
0.0279571
0.0279248
0.0279563
0.0280512
0.0282181
0.028467
0.0289195
0.0295921
0.0304591
0.0126754
0.0125954
0.0126023
0.0126029
0.0125974
0.0125233
0.0123561
0.0121988
0.0120653
0.0121178
0.00171147
0.00170934
0.00170851
0.00170896
0.00171075
0.00171387
0.00171849
0.00172478
0.00173268
0.00174128
0.00178055
0.00178068
0.00178074
0.00178075
0.00178073
0.0017807
0.00178065
0.0017806
0.00178054
0.00178042
0.0141686
0.0142229
0.0142403
0.0142473
0.014253
0.0142597
0.0142665
0.0142689
0.0142552
0.0141985
0.0278598
0.0278731
0.0278847
0.0278874
0.027888
0.0278884
0.0278897
0.0278918
0.0278936
0.0278918
0.0294081
0.0293879
0.0293814
0.0293873
0.0294083
0.0294448
0.0294959
0.0295592
0.0296279
0.0296898
0.029695
0.0296646
0.0296597
0.0296677
0.0296998
0.0297553
0.0298354
0.02994
0.0300591
0.0301757
0.0298316
0.0297771
0.0297591
0.0297746
0.0298297
0.0299282
0.0300762
0.0302825
0.0305343
0.0307971
0.0299029
0.0298212
0.0298001
0.0298184
0.0298939
0.0300293
0.0302349
0.0305356
0.0309103
0.0312967
0.0278524
0.0277839
0.0277658
0.0277827
0.0278305
0.0279062
0.0280146
0.0282133
0.028521
0.0289439
0.01298
0.0129093
0.0129206
0.0129182
0.0129009
0.0128107
0.0126508
0.0124861
0.0123158
0.01231
0.00169226
0.0016905
0.0016898
0.00169018
0.00169166
0.0016942
0.00169787
0.00170267
0.00170831
0.00171403
0.0017587
0.00175882
0.00175888
0.00175888
0.00175887
0.00175883
0.00175879
0.00175874
0.00175869
0.00175858
0.0146067
0.0146646
0.0146835
0.0146904
0.0146949
0.0146998
0.0147041
0.0147035
0.0146864
0.0146252
0.0279108
0.0279251
0.0279354
0.027938
0.0279377
0.0279364
0.0279346
0.0279319
0.0279273
0.0279193
0.0292596
0.0292483
0.0292445
0.0292478
0.0292596
0.0292798
0.029307
0.0293387
0.0293714
0.0294001
0.0294565
0.0294403
0.0294381
0.0294421
0.0294594
0.0294887
0.0295293
0.0295782
0.02963
0.0296801
0.029545
0.0295149
0.0295043
0.0295128
0.0295432
0.0295963
0.0296732
0.0297734
0.0298896
0.0300101
0.0295924
0.0295428
0.0295301
0.0295402
0.0295841
0.0296606
0.0297729
0.0299264
0.0301062
0.0302806
0.0277806
0.0277415
0.0277325
0.0277408
0.0277612
0.0277862
0.0278235
0.027897
0.028018
0.0282152
0.0133648
0.0133002
0.0133155
0.0133109
0.0132845
0.0131907
0.0130481
0.0128971
0.0127262
0.0127222
0.00167101
0.00166961
0.00166904
0.00166935
0.00167052
0.00167251
0.00167532
0.00167886
0.0016828
0.00168654
0.0017352
0.00173532
0.00173537
0.00173537
0.00173536
0.00173533
0.0017353
0.00173526
0.00173521
0.00173511
0.0151173
0.0151787
0.0151988
0.0152057
0.0152094
0.0152129
0.0152154
0.0152129
0.0151934
0.0151281
0.0280209
0.0280345
0.0280434
0.0280459
0.0280458
0.0280447
0.0280428
0.0280395
0.0280336
0.0280235
0.029194
0.0291871
0.0291847
0.0291867
0.0291937
0.0292056
0.0292212
0.0292388
0.029256
0.0292708
0.0293292
0.0293195
0.029318
0.0293204
0.0293305
0.0293476
0.0293704
0.029396
0.0294208
0.0294448
0.0293827
0.0293656
0.0293593
0.029364
0.0293813
0.0294108
0.0294521
0.0295026
0.029558
0.0296173
0.0294121
0.029381
0.0293731
0.0293791
0.0294054
0.0294503
0.0295138
0.0295957
0.0296847
0.0297681
0.0278218
0.0278001
0.0277969
0.0278004
0.0278055
0.0278065
0.0278113
0.0278286
0.0278649
0.0279645
0.0138364
0.0137759
0.013795
0.0137888
0.0137547
0.0136695
0.0135494
0.0134216
0.0132677
0.0132878
0.00164769
0.00164662
0.00164619
0.00164642
0.00164731
0.00164881
0.0016509
0.00165342
0.00165609
0.00165851
0.00170998
0.00171008
0.00171013
0.00171013
0.00171012
0.0017101
0.00171007
0.00171004
0.00171001
0.00170991
0.0157117
0.0157767
0.0157979
0.0158047
0.0158077
0.0158101
0.0158114
0.0158075
0.0157861
0.0157168
0.0281632
0.0281757
0.0281831
0.0281855
0.0281857
0.0281851
0.0281838
0.028181
0.0281752
0.0281643
0.0291717
0.0291672
0.0291657
0.0291668
0.0291711
0.0291783
0.0291875
0.0291978
0.0292076
0.0292158
0.0292662
0.0292596
0.0292582
0.0292597
0.0292663
0.0292773
0.0292916
0.0293068
0.0293205
0.0293333
0.029297
0.0292868
0.0292828
0.0292856
0.0292958
0.0293128
0.0293359
0.0293626
0.0293904
0.029422
0.0293169
0.0292963
0.0292912
0.029295
0.0293116
0.0293394
0.0293774
0.029424
0.0294711
0.0295154
0.0279445
0.0279318
0.0279318
0.0279328
0.02793
0.0279231
0.0279155
0.0279111
0.027913
0.027972
0.0144078
0.0143476
0.0143709
0.0143633
0.0143252
0.0142579
0.0141618
0.0140601
0.0139298
0.0139795
0.00162229
0.0016215
0.00162119
0.00162136
0.00162201
0.0016231
0.00162459
0.00162633
0.0016281
0.00162964
0.00168292
0.00168302
0.00168306
0.00168306
0.00168305
0.00168304
0.00168302
0.001683
0.00168297
0.00168288
0.0164076
0.0164765
0.0164987
0.0165054
0.0165079
0.0165095
0.0165099
0.0165051
0.0164823
0.0164087
0.0283228
0.0283341
0.0283403
0.0283424
0.0283428
0.0283427
0.0283419
0.0283398
0.0283348
0.0283237
0.0291702
0.0291673
0.0291663
0.029167
0.0291695
0.0291736
0.0291791
0.0291851
0.0291909
0.0291958
0.0292381
0.0292331
0.0292316
0.0292326
0.0292372
0.0292448
0.0292545
0.0292647
0.0292733
0.0292808
0.0292552
0.0292487
0.0292461
0.0292478
0.0292539
0.0292642
0.0292776
0.0292926
0.0293074
0.0293255
0.0292727
0.0292583
0.0292548
0.0292576
0.0292686
0.0292868
0.0293108
0.0293393
0.0293667
0.0293937
0.0281227
0.0281119
0.0281137
0.0281134
0.0281089
0.0281014
0.0280913
0.0280808
0.0280714
0.0281133
0.0151067
0.0150375
0.0150608
0.0150516
0.0150229
0.0149729
0.0149002
0.0148235
0.0147173
0.0147951
0.00159481
0.00159425
0.00159402
0.00159415
0.00159461
0.00159537
0.0015964
0.00159756
0.0015987
0.00159967
0.00165396
0.00165405
0.00165408
0.00165408
0.00165408
0.00165407
0.00165405
0.00165404
0.00165402
0.00165393
0.017231
0.0173041
0.0173271
0.0173337
0.0173358
0.0173368
0.0173366
0.0173313
0.0173075
0.0172292
0.0284912
0.0285011
0.0285061
0.028508
0.0285085
0.0285087
0.0285084
0.028507
0.028503
0.0284924
0.0291776
0.0291758
0.0291752
0.0291755
0.0291769
0.0291791
0.029182
0.0291855
0.029189
0.0291923
0.0292273
0.0292233
0.0292218
0.0292225
0.0292257
0.0292312
0.0292381
0.0292452
0.0292513
0.0292562
0.0292364
0.029232
0.0292302
0.0292312
0.029235
0.0292414
0.0292495
0.0292584
0.0292669
0.0292779
0.029256
0.0292456
0.0292431
0.0292452
0.0292528
0.0292652
0.0292811
0.0292996
0.0293169
0.0293359
0.0283331
0.0283226
0.028324
0.0283238
0.0283205
0.0283147
0.0283062
0.0282964
0.0282852
0.0283193
0.0159593
0.0158823
0.0158995
0.0158937
0.0158745
0.0158403
0.0157894
0.0157346
0.0156506
0.0157519
0.00156523
0.00156485
0.0015647
0.00156478
0.00156509
0.00156561
0.00156629
0.00156704
0.00156775
0.00156835
0.00162304
0.00162311
0.00162314
0.00162314
0.00162314
0.00162313
0.00162312
0.00162311
0.00162309
0.00162301
0.0182186
0.0182968
0.0183203
0.0183265
0.0183283
0.0183289
0.0183284
0.0183229
0.0182987
0.0182151
0.0286618
0.0286704
0.0286743
0.0286758
0.0286764
0.0286767
0.0286769
0.0286762
0.0286733
0.0286639
0.0291876
0.0291866
0.0291863
0.0291864
0.029187
0.0291879
0.0291893
0.0291912
0.0291934
0.029196
0.0292239
0.0292208
0.0292194
0.0292197
0.029222
0.0292258
0.0292307
0.0292358
0.0292403
0.0292439
0.0292282
0.0292251
0.0292237
0.0292243
0.0292267
0.0292307
0.0292358
0.0292412
0.0292464
0.0292536
0.0292513
0.0292436
0.0292418
0.0292434
0.0292488
0.0292573
0.0292681
0.0292804
0.029292
0.0293067
0.0285566
0.0285464
0.0285472
0.0285472
0.0285454
0.0285419
0.0285365
0.0285295
0.02852
0.0285494
0.0170039
0.0169211
0.0169322
0.0169294
0.0169187
0.0168987
0.0168677
0.0168313
0.0167672
0.0168853
0.00153359
0.00153333
0.00153323
0.00153328
0.00153349
0.00153382
0.00153426
0.00153472
0.00153516
0.00153552
0.0015902
0.00159027
0.00159029
0.00159029
0.00159029
0.00159029
0.00159028
0.00159027
0.00159025
0.00159017
0.019425
0.0195086
0.019532
0.0195378
0.0195392
0.0195395
0.0195389
0.0195337
0.0195098
0.0194206
0.0288283
0.0288353
0.0288381
0.0288391
0.0288396
0.0288402
0.0288406
0.0288405
0.0288389
0.0288315
0.029197
0.0291963
0.0291962
0.0291962
0.0291964
0.0291967
0.0291972
0.029198
0.0291995
0.0292019
0.0292223
0.0292199
0.0292187
0.0292188
0.0292202
0.0292228
0.0292262
0.0292298
0.0292331
0.0292361
0.0292236
0.0292213
0.0292203
0.0292206
0.0292221
0.0292246
0.0292277
0.0292311
0.0292343
0.0292392
0.0292486
0.0292431
0.0292417
0.0292429
0.0292465
0.0292523
0.0292594
0.0292675
0.0292753
0.029287
0.0287752
0.0287657
0.028766
0.0287663
0.0287657
0.0287643
0.0287616
0.0287577
0.0287508
0.0287759
0.0182975
0.0182115
0.0182162
0.018216
0.0182129
0.0182059
0.0181933
0.0181722
0.0181268
0.0182534
0.00149995
0.00149979
0.00149972
0.00149975
0.00149988
0.00150009
0.00150036
0.00150063
0.0015009
0.00150111
0.00155567
0.00155572
0.00155574
0.00155574
0.00155574
0.00155573
0.00155573
0.00155572
0.0015557
0.00155563
0.0209327
0.0210217
0.0210441
0.0210491
0.0210501
0.0210503
0.0210496
0.021045
0.0210225
0.0209278
0.0289817
0.0289867
0.0289883
0.0289888
0.0289892
0.0289897
0.0289904
0.0289909
0.0289905
0.0289859
0.0292035
0.0292031
0.0292031
0.0292031
0.0292031
0.029203
0.0292031
0.0292034
0.0292044
0.0292067
0.0292198
0.0292179
0.029217
0.029217
0.0292178
0.0292194
0.0292215
0.0292239
0.0292264
0.0292289
0.0292192
0.0292176
0.0292169
0.029217
0.0292178
0.0292192
0.0292211
0.0292231
0.0292251
0.0292283
0.0292413
0.0292376
0.0292366
0.0292374
0.0292397
0.0292432
0.0292476
0.0292526
0.0292576
0.0292666
0.0289692
0.0289611
0.0289612
0.0289615
0.0289616
0.0289615
0.0289606
0.028959
0.0289547
0.0289751
0.0199235
0.0198377
0.019835
0.0198369
0.0198409
0.0198463
0.0198518
0.0198447
0.0198192
0.0199428
0.00146451
0.00146441
0.00146436
0.00146439
0.00146446
0.00146459
0.00146475
0.00146492
0.00146508
0.0014652
0.00151963
0.00151966
0.00151967
0.00151967
0.00151967
0.00151966
0.00151966
0.00151966
0.00151965
0.0015196
0.0228755
0.022967
0.0229866
0.0229906
0.0229913
0.0229913
0.0229905
0.0229867
0.0229671
0.0228694
0.0291096
0.029112
0.0291124
0.0291123
0.0291125
0.029113
0.0291138
0.0291148
0.0291153
0.029114
0.0292063
0.029206
0.029206
0.029206
0.0292059
0.0292058
0.0292058
0.0292058
0.0292064
0.0292085
0.0292159
0.0292146
0.0292139
0.0292138
0.0292143
0.0292152
0.0292164
0.0292179
0.0292195
0.0292215
0.0292145
0.0292135
0.029213
0.029213
0.0292135
0.0292142
0.0292152
0.0292163
0.0292174
0.0292193
0.0292277
0.0292255
0.0292249
0.0292253
0.0292265
0.0292285
0.0292309
0.0292335
0.0292364
0.0292424
0.0291174
0.0291112
0.0291112
0.0291114
0.0291116
0.0291118
0.0291116
0.0291112
0.0291091
0.0291242
0.0220282
0.0219494
0.0219472
0.0219489
0.021952
0.0219561
0.0219604
0.0219635
0.0219648
0.0220693
0.0014274
0.00142734
0.00142731
0.00142732
0.00142737
0.00142745
0.00142754
0.00142765
0.00142776
0.00142783
0.00148123
0.00148122
0.00148121
0.0014812
0.0014812
0.0014812
0.00148121
0.00148123
0.00148125
0.00148127
0.0254919
0.0255721
0.0255858
0.0255886
0.0255892
0.0255889
0.0255879
0.0255848
0.0255704
0.0254827
0.0291981
0.0291979
0.0291972
0.0291968
0.0291968
0.0291972
0.029198
0.0291991
0.0292004
0.0292016
0.029206
0.0292059
0.0292059
0.029206
0.029206
0.029206
0.0292059
0.0292059
0.0292061
0.0292071
0.0292121
0.0292114
0.029211
0.029211
0.0292113
0.0292118
0.0292125
0.0292132
0.0292141
0.0292152
0.0292112
0.0292107
0.0292104
0.0292105
0.0292107
0.0292112
0.0292117
0.0292123
0.0292129
0.0292136
0.029214
0.0292129
0.0292126
0.0292128
0.0292135
0.0292146
0.0292159
0.0292172
0.0292186
0.0292213
0.0292074
0.0292036
0.0292032
0.0292032
0.0292032
0.0292031
0.029203
0.0292031
0.0292032
0.0292126
0.0249319
0.0248728
0.0248716
0.0248728
0.0248748
0.0248775
0.0248804
0.0248823
0.0248828
0.0249605
0.00138786
0.00138781
0.00138779
0.0013878
0.00138784
0.0013879
0.00138797
0.00138805
0.00138813
0.00138818
0.00234455
0.00236522
0.0023549
0.00232105
0.00141176
0.00143415
0.00143115
0.00142609
0.00188533
0.00192651
0.001917
0.00189223
0.00226904
0.00232619
0.00230638
0.00226025
0.00261405
0.00268411
0.00265193
0.00258776
0.00295396
0.00303513
0.00299529
0.00292261
0.00323537
0.00332479
0.00328294
0.00321038
0.00340396
0.00349985
0.00346028
0.00339227
0.00303828
0.003127
0.00308833
0.00303289
0.00237079
0.00238729
0.00235254
0.00227155
0.00202908
0.00203468
0.00203571
0.00203265
0.00236803
0.00244536
0.002343
0.00214927
0.00331864
0.00342821
0.00329465
0.00305539
0.00407316
0.00423627
0.00407507
0.00377668
0.00484765
0.00507805
0.00488134
0.00450599
0.00582014
0.00614018
0.00589627
0.00541182
0.00678456
0.00719204
0.00688784
0.00629049
0.00748645
0.00797845
0.00761723
0.00692274
0.00591716
0.00634931
0.00599187
0.00539474
0.00217824
0.00221038
0.00220342
0.00216778
0.00193447
0.00193648
0.00193661
0.00193536
0.0040887
0.00406051
0.0040675
0.00415828
0.00501324
0.00498732
0.00500279
0.00510848
0.00550636
0.00551915
0.00553519
0.00558793
0.00601102
0.00605886
0.00605873
0.0060208
0.00674776
0.00683862
0.00679362
0.00661789
0.00750109
0.00761886
0.00749902
0.00716297
0.00804064
0.00819584
0.00800112
0.00750326
0.00611722
0.00625352
0.0060694
0.00558795
0.00204509
0.00206207
0.00206009
0.00204239
0.0018955
0.00189569
0.00189581
0.00189586
0.0102657
0.00998197
0.0101145
0.0106295
0.0119887
0.0116421
0.0119391
0.0128366
0.0114651
0.0112731
0.011641
0.012543
0.011099
0.0110291
0.0114228
0.0122614
0.0112046
0.01124
0.0116252
0.0123589
0.0113907
0.0114868
0.0118198
0.0124042
0.0113361
0.0115096
0.0117737
0.0121489
0.00799785
0.00818149
0.00829897
0.00834156
0.00195441
0.00196478
0.00196572
0.00195775
0.0018734
0.00187341
0.00187344
0.00187347
0.0145093
0.0144433
0.0144677
0.0145764
0.0238959
0.0235604
0.0237415
0.024369
0.0222906
0.0219865
0.0223342
0.0232663
0.0204071
0.0202181
0.0206949
0.0218106
0.0193383
0.0193017
0.0198701
0.0210764
0.0185088
0.0185806
0.0191711
0.0203691
0.0173088
0.0175213
0.0180743
0.0190907
0.0108501
0.0110872
0.0113263
0.0116403
0.00189169
0.00189813
0.00189957
0.00189617
0.00185526
0.00185521
0.00185519
0.0018552
0.0140999
0.0140217
0.014009
0.014063
0.0304456
0.030327
0.0303455
0.0304908
0.0318406
0.0315914
0.0316762
0.032054
0.0304665
0.0301715
0.0303883
0.0310497
0.0290454
0.0288241
0.0292115
0.0301436
0.0274503
0.0273236
0.0278376
0.0289657
0.0247546
0.0248254
0.0253821
0.0264573
0.0131407
0.0133751
0.013549
0.0137069
0.00184423
0.00184812
0.00184939
0.00184804
0.00183792
0.00183786
0.00183783
0.00183783
0.0137922
0.0136988
0.0136791
0.0137327
0.0299509
0.0299436
0.029951
0.0299747
0.033709
0.0337017
0.0337275
0.0337855
0.0348508
0.0347964
0.0348522
0.0350081
0.0353652
0.0352774
0.0354106
0.0357364
0.0347116
0.0346005
0.0348306
0.0353598
0.031079
0.0311184
0.0314289
0.0319851
0.013288
0.0135658
0.0136245
0.0135122
0.00180632
0.00180869
0.00180963
0.00180912
0.00182
0.00181993
0.0018199
0.0018199
0.0138676
0.0137689
0.0137475
0.0138024
0.0286526
0.0286393
0.0286377
0.0286491
0.0317914
0.0318099
0.031822
0.0318297
0.0333441
0.0333825
0.0334102
0.0334304
0.035075
0.0351443
0.0352012
0.0352497
0.0359277
0.0359921
0.0360738
0.0361758
0.0326078
0.0327708
0.0328939
0.0329824
0.0123711
0.0126285
0.0126669
0.012524
0.00177388
0.00177539
0.00177602
0.00177579
0.00180101
0.00180094
0.00180091
0.00180091
0.0141243
0.0140229
0.0140009
0.0140572
0.0280891
0.0280722
0.0280681
0.0280776
0.0303708
0.0303743
0.0303764
0.030378
0.0313086
0.0313261
0.0313358
0.0313394
0.0325858
0.032641
0.0326695
0.0326742
0.0335124
0.0335917
0.0336319
0.0336395
0.0307724
0.0309448
0.0310103
0.0309781
0.0119406
0.0121668
0.0122074
0.0120824
0.00174417
0.00174519
0.00174559
0.00174542
0.00178069
0.00178062
0.00178059
0.00178059
0.0144812
0.0143771
0.0143547
0.0144124
0.0279389
0.0279228
0.0279189
0.0279278
0.0297017
0.0297003
0.0296996
0.0297002
0.0302062
0.0302098
0.0302115
0.0302123
0.0309103
0.0309333
0.0309443
0.0309444
0.0314368
0.031472
0.0314885
0.0314886
0.0290474
0.029163
0.0292017
0.0291658
0.012019
0.0122398
0.0122809
0.0121561
0.00171564
0.00171639
0.00171664
0.00171646
0.00175886
0.0017588
0.00175876
0.00175877
0.014916
0.0148089
0.0147858
0.0148452
0.0279645
0.0279498
0.0279464
0.0279549
0.0294052
0.0294033
0.0294025
0.029403
0.0296901
0.0296903
0.0296902
0.0296902
0.0300613
0.0300713
0.0300756
0.0300747
0.0303239
0.0303369
0.0303428
0.030342
0.0281948
0.0282749
0.0282993
0.0282676
0.012387
0.0126188
0.0126612
0.0125276
0.00168745
0.00168803
0.00168819
0.001688
0.00173542
0.00173535
0.00173531
0.00173532
0.0154283
0.0153178
0.0152938
0.0153551
0.0280665
0.028053
0.02805
0.028058
0.0292743
0.029273
0.0292724
0.0292729
0.0294494
0.0294492
0.029449
0.0294489
0.0296456
0.0296511
0.0296533
0.0296523
0.0297797
0.0297855
0.0297878
0.0297868
0.0279022
0.0279658
0.0279836
0.027955
0.0129308
0.0131813
0.0132265
0.0130813
0.00165901
0.00165949
0.0016596
0.0016594
0.00171024
0.00171017
0.00171013
0.00171014
0.0160283
0.0159134
0.0158885
0.0159518
0.0282043
0.0281919
0.0281892
0.0281966
0.0292189
0.0292179
0.0292176
0.0292182
0.0293362
0.0293361
0.029336
0.0293359
0.0294404
0.0294441
0.0294455
0.0294447
0.0295182
0.0295218
0.0295231
0.0295222
0.0278998
0.0279544
0.0279692
0.0279434
0.013607
0.01388
0.013929
0.0137706
0.00162991
0.00163032
0.00163039
0.00163019
0.00168323
0.00168315
0.00168312
0.00168312
0.0167334
0.0166133
0.016587
0.016653
0.0283601
0.0283487
0.0283462
0.0283529
0.0291986
0.029198
0.0291979
0.0291984
0.0292828
0.0292829
0.0292829
0.0292828
0.0293386
0.0293414
0.0293424
0.0293417
0.0293948
0.0293976
0.0293986
0.0293979
0.028043
0.0280914
0.0281042
0.0280811
0.0144076
0.0147062
0.0147596
0.0145864
0.0015998
0.00160016
0.0016002
0.0016
0.0016543
0.00165421
0.00165418
0.00165419
0.0175695
0.0174429
0.017415
0.017484
0.0285246
0.0285142
0.0285119
0.0285178
0.0291949
0.0291945
0.0291945
0.0291949
0.0292577
0.0292578
0.0292578
0.0292579
0.0292878
0.0292899
0.0292906
0.02929
0.0293377
0.0293402
0.0293411
0.0293405
0.0282563
0.0282994
0.0283106
0.0282898
0.0153476
0.0156749
0.015733
0.0155432
0.0015684
0.00156872
0.00156875
0.00156856
0.0016234
0.0016233
0.00162327
0.00162328
0.0185739
0.018439
0.0184088
0.0184816
0.0286913
0.028682
0.0286799
0.0286851
0.0291983
0.0291982
0.0291983
0.0291986
0.0292452
0.0292453
0.0292454
0.0292455
0.0292613
0.0292629
0.0292634
0.0292628
0.0293101
0.0293124
0.0293132
0.0293125
0.0284971
0.0285353
0.0285449
0.0285262
0.0164609
0.0168201
0.0168831
0.0166746
0.00153552
0.0015358
0.00153583
0.00153565
0.00159057
0.00159047
0.00159043
0.00159046
0.019801
0.0196551
0.0196219
0.0196993
0.0288536
0.0288456
0.0288437
0.0288483
0.029204
0.029204
0.0292041
0.0292043
0.0292375
0.0292377
0.0292379
0.029238
0.0292452
0.0292465
0.0292468
0.0292463
0.0292919
0.029294
0.0292947
0.0292939
0.0287372
0.0287706
0.0287786
0.0287616
0.0178018
0.0181955
0.0182628
0.0180341
0.00150108
0.00150133
0.00150134
0.00150119
0.00155604
0.00155593
0.0015559
0.00155593
0.0213315
0.0211701
0.0211325
0.0212166
0.0290042
0.028998
0.0289965
0.029
0.0292085
0.0292087
0.0292088
0.0292088
0.0292307
0.029231
0.0292312
0.0292313
0.0292329
0.0292338
0.0292341
0.0292336
0.0292722
0.0292741
0.0292746
0.0292738
0.0289519
0.0289802
0.0289864
0.0289712
0.0194499
0.0198739
0.0199441
0.019697
0.00146518
0.00146538
0.00146539
0.00146527
0.00152004
0.00151993
0.0015199
0.00151994
0.0232914
0.0231073
0.023064
0.0231579
0.0291293
0.0291256
0.0291247
0.029127
0.0292099
0.0292101
0.0292101
0.02921
0.0292234
0.0292238
0.0292241
0.0292241
0.0292224
0.0292231
0.0292232
0.0292229
0.0292475
0.029249
0.0292493
0.0292485
0.0291163
0.0291384
0.0291426
0.0291298
0.0215434
0.021997
0.0220643
0.0217957
0.00142793
0.00142808
0.0014281
0.001428
0.00148174
0.00148165
0.00148163
0.00148169
0.025876
0.0256671
0.0256214
0.0257287
0.029212
0.0292106
0.0292104
0.0292116
0.0292077
0.0292078
0.0292077
0.0292074
0.0292167
0.0292171
0.0292173
0.0292173
0.0292152
0.0292155
0.0292156
0.0292154
0.0292241
0.0292248
0.029225
0.0292245
0.0292145
0.029227
0.0292289
0.0292212
0.0244996
0.0249259
0.0249757
0.0247151
0.00138855
0.00138868
0.00138868
0.00138859
0.00215683
0.00204077
0.00197663
0.00194424
0.00192518
0.00191283
0.00190467
0.0018995
0.00189619
0.00189394
0.00175234
0.00159776
0.00479273
0.00945291
0.0139598
0.0171412
0.0186487
0.018806
0.01819
0.0172676
0.00236644
0.00260154
0.0073677
0.0156075
0.0250208
0.0331508
0.0391473
0.0429582
0.0448312
0.0452028
0.00276826
0.00364908
0.00833625
0.0178991
0.029219
0.0385674
0.0450438
0.0487752
0.0502088
0.0499933
0.00307383
0.00395195
0.00875682
0.0193989
0.0321069
0.0419607
0.0481314
0.0509778
0.0512929
0.050092
0.00338457
0.00407329
0.0089648
0.0204489
0.034247
0.0442515
0.0498102
0.0515937
0.0508257
0.0488143
0.00362631
0.00408322
0.00898722
0.0211814
0.035837
0.0456471
0.0503054
0.050934
0.0492282
0.0467393
0.00370684