/*--------------------------------*- C++ -*----------------------------------*\
| =========                 |                                                 |
| \\      /  F ield         | foam-extend: Open Source CFD                    |
|  \\    /   O peration     | Version:     4.0                                |
|   \\  /    A nd           | Web:         http://www.foam-extend.org         |
|    \\/     M anipulation  |                                                 |
\*---------------------------------------------------------------------------*/
FoamFile
{
    version     2.0;
    format      ascii;
    class       volScalarField;
    location    "950";
    object      epsilon;
}
// * * * * * * * * * * * * * * * * * * * * * * * * * * * * * * * * * * * * * //

dimensions      [0 2 -3 0 0 0 0];

internalField   nonuniform List<scalar> 
34480
(
4926.72
4924.91
4924.84
4926.17
4929.01
4933.66
4946.14
5000.35
5191.41
5723.6
652.576
599.208
598.56
650.752
837.06
1578.59
5125.19
22986.4
104267
383849
617.242
522.382
509.375
569.348
810.905
1833.55
7062.63
35206.7
172789
699146
523.759
439.797
428.671
486.939
736.676
1888.97
8231.02
44412.3
231906
1.00798e+06
455.94
385.79
379.39
435.957
689.078
1934.73
9187.01
52542.4
288477
1.32821e+06
392.223
334.18
328.914
381.688
633.319
1964.91
10133.1
60989
349757
1.69178e+06
353.325
304.338
300.838
349.784
596.69
1972.03
10739.3
67144.3
399411
2.01507e+06
322.09
283.94
280.215
320.783
539.132
1829.71
10368.8
66973.2
412006
2.16141e+06
461.55
438.1
435.882
461.723
600.977
1417.25
6859.82
43744.2
275937
1.49642e+06
5702.75
5702.67
5707.74
5719.32
5735.84
5755.67
5779.76
5815.66
5882.16
5951.1
4851.5
4849.29
4848.92
4850.29
4853.97
4860.41
4871.23
4897.5
4960.79
5183.21
511.278
477.954
472.387
486.648
531.329
648.39
1004.9
2369.37
11921.2
104554
447.72
384.785
371.398
390.931
459.869
647.63
1233.78
3584.57
21491.8
198582
400.141
339.972
327.071
347.049
418.867
623.325
1299.52
4301.77
30311.2
295065
366.126
312.538
302.706
322.36
393.963
603.318
1328.74
4822.86
38743.2
396136
326.619
280.408
271.278
289.085
355.714
559.272
1302.79
5192.95
47353.4
507676
302.881
262.327
254.799
270.621
332.554
526.966
1265.94
5375.21
54208.7
606577
283.853
251.576
244.396
256.486
304.944
461.697
1083.84
4843.49
55013.3
651032
434.276
412.908
408.101
415.832
446.316
535.291
853.459
2990.73
36444.9
467249
5585.81
5581.27
5581.47
5587.77
5599.17
5613.48
5632.67
5665.43
5732.64
5905.15
4766.02
4763.96
4763.35
4764.08
4766.41
4770.01
4774.56
4785.47
4809.89
4865.69
399.994
386.053
383.367
388.252
403.686
439.62
528.767
763.704
1536.42
5846.47
309.586
278.257
271.57
280.817
311.303
381.131
553.134
1036.92
2889.2
15156.1
291.47
257.999
250.647
261.365
296.678
380.85
600.267
1285.06
4434
29093
281.704
249.416
243.417
254.634
292.083
383.389
632.97
1486.44
6159.36
47941
262.012
232.496
226.451
237.173
273.345
365.098
630.033
1631.8
8168.89
73238.5
251.149
223.889
218.745
228.603
263.256
352.882
622.679
1731.89
10183
101620
243.868
221.507
216.449
224.399
252.232
325.632
555.159
1602.23
11066
122937
404.12
388.161
384.626
390.472
411.181
464.491
610.69
1240.72
7700.55
92156.5
5476.65
5469.4
5466.85
5470.13
5478.65
5490.35
5506.65
5537.11
5608.94
5793.29
4669.85
4668.69
4668.42
4668.99
4670.52
4672.32
4673.1
4675.95
4683.55
4699.96
328.832
324.292
323.422
324.619
328.961
339.785
366.372
424.187
547.426
955.957
220.71
207.348
204.586
208.666
222.089
250.466
310.972
448.565
781.059
2116.96
215.695
199.147
195.408
200.999
219.008
258.562
347.512
568.032
1176.26
4179.14
218.554
200.913
197.612
203.956
224.72
271.463
381.92
678.223
1615.3
7191.87
211.514
194.024
190.274
196.854
218.333
268.774
394.918
764.268
2120.56
11633.7
209.214
191.926
188.58
194.961
216.683
268.71
404.365
830.67
2635.79
17146.7
210.775
195.909
192.431
197.937
216.308
261.332
383.011
798.767
2863.83
21869.3
377.062
365.346
362.656
366.982
382.13
419.332
511.32
785.377
2183.76
16549.6
5355.08
5347.89
5345.12
5347.92
5355.92
5368.01
5384.91
5415.43
5481.61
5623.75
4564.45
4564.1
4564.12
4564.47
4565.2
4565.47
4564.02
4562.88
4562.89
4564.73
285.932
284.857
284.7
284.548
284.757
286.874
294.366
308.833
332.38
380.469
169.001
163.924
162.95
164.384
169.41
179.632
199.517
239.139
311.488
491.68
167.514
159.898
158.064
160.587
168.831
186.026
220.784
295.474
445.445
898.711
174.803
165.749
164.003
167.163
177.661
200.019
247.452
357.528
602.325
1507.03
174.37
164.47
162.164
165.81
177.652
203.995
263.074
412.011
783.678
2443.43
176.777
166.2
164.026
167.784
180.581
209.592
277.274
458.987
965.578
3646.21
184.084
174.484
172.079
175.59
187.078
213.862
278.614
465.178
1057.53
4748.69
352.688
344.27
342.173
345.144
355.802
381.158
440.056
583.054
1008.84
3810.05
5225.81
5218.81
5215.92
5218.27
5225.64
5237.44
5253.86
5281.91
5337.04
5438.52
4450.76
4451.02
4451.26
4451.45
4451.61
4450.88
4448.81
4446.7
4444.93
4443.84
260.229
260.04
260.061
259.603
258.786
258.705
260.666
264.222
269.476
277.451
140.243
138.58
138.367
138.756
140.346
143.552
149.443
160.093
176.658
205.607
138.323
135.027
134.191
135.24
138.752
145.74
158.57
183.012
223.44
305.845
145.76
141.403
140.58
142.036
146.996
156.992
176.164
215.702
286.566
460.81
147.991
142.668
141.338
143.248
149.434
162.456
188.783
247.757
363.565
704.21
152.377
146.196
144.879
146.974
154.168
169.584
201.913
278.928
443.132
1015.26
162.906
156.996
155.43
157.583
164.486
179.818
213.293
298.173
499.083
1319.89
330.749
324.971
323.407
325.403
332.813
350.122
388.484
468.592
639.082
1286.96
5088.24
5081.66
5078.83
5080.84
5087.52
5098.54
5113.8
5138.41
5181.03
5247.65
4329.48
4330.13
4330.51
4330.59
4330.39
4329.17
4327.26
4325.22
4323.38
4322
244.242
243.967
243.931
243.505
242.721
242.474
242.854
243.675
245.044
247.241
124.552
124.148
124.202
124.241
124.599
125.403
126.9
129.501
133.243
138.365
121.227
119.863
119.503
119.912
121.34
124.079
128.719
136.604
147.973
164.915
127.204
125.231
124.896
125.516
127.739
132.001
139.473
153.21
174.434
211.627
129.995
127.257
126.528
127.479
130.576
136.781
148.188
170.902
208.922
286.652
134.756
131.281
130.53
131.634
135.523
143.44
158.482
190.311
247.142
381.808
146.698
143.23
142.26
143.526
147.513
156.021
173.057
211.255
286.013
489.196
311.348
307.568
306.42
307.731
312.853
324.831
350.29
397.078
479.43
665.318
4942.13
4936.18
4933.53
4935.24
4941.15
4950.95
4964.5
4985.24
5017.35
5060.73
4201.09
4201.97
4202.42
4202.43
4202.03
4200.83
4199.3
4197.67
4196.21
4195.08
233.383
232.757
232.597
232.282
231.811
231.718
231.734
231.928
232.467
233.723
116.001
116
116.118
116.068
116.052
116.125
116.35
116.838
117.621
118.634
111.438
110.894
110.747
110.9
111.466
112.531
114.228
116.848
120.281
124.385
115.682
114.851
114.75
114.993
115.946
117.701
120.574
125.332
131.928
140.855
118.114
116.768
116.389
116.844
118.345
121.234
126.164
134.93
147.99
167.893
122.46
120.575
120.174
120.726
122.767
126.752
133.74
146.888
167.491
202.425
134.655
132.73
132.162
132.879
135.104
139.717
148.392
165.655
195.277
251.69
294.294
291.968
291.124
291.982
295.56
304.101
321.328
349.66
393.93
461.424
4787.33
4782.15
4779.79
4781.22
4786.29
4794.61
4806.13
4822.91
4846.52
4875.13
4066.03
4066.9
4067.38
4067.36
4066.87
4065.96
4064.83
4063.63
4062.58
4061.74
224.906
224.03
223.752
223.545
223.4
223.34
223.313
223.401
223.779
224.86
111.285
111.377
111.484
111.429
111.338
111.231
111.142
111.12
111.223
111.459
105.96
105.746
105.688
105.743
105.969
106.389
107.031
107.948
109.084
110.311
108.72
108.404
108.4
108.485
108.876
109.576
110.669
112.33
114.467
116.954
110.516
109.889
109.702
109.912
110.618
111.94
114.081
117.538
122.284
128.229
114.158
113.167
112.969
113.231
114.281
116.266
119.549
125.112
133.008
143.307
125.936
124.942
124.629
125.024
126.226
128.682
133.12
141.064
153.458
171.518
279.248
277.933
277.297
277.871
280.446
286.768
298.619
316.341
341.626
370.792
4623.82
4619.5
4617.5
4618.67
4622.86
4629.6
4638.99
4652.04
4668.95
4687.72
3924.54
3925.22
3925.67
3925.63
3925.27
3924.63
3923.84
3923
3922.28
3921.67
217.276
216.399
216.036
215.91
215.853
215.822
215.819
215.911
216.267
217.297
108.589
108.683
108.76
108.719
108.634
108.517
108.391
108.286
108.255
108.335
102.976
102.887
102.863
102.884
102.978
103.154
103.412
103.759
104.176
104.633
104.638
104.534
104.56
104.585
104.74
105.014
105.427
106.008
106.713
107.519
105.821
105.547
105.461
105.555
105.878
106.471
107.4
108.788
110.588
112.682
108.738
108.228
108.138
108.259
108.794
109.782
111.35
113.783
116.97
120.474
119.75
119.288
119.131
119.344
119.975
121.267
123.532
127.245
132.617
139.306
265.765
265.128
264.62
265.028
266.971
271.796
280.043
291.418
306.45
320.219
4451.74
4448.3
4446.69
4447.62
4450.93
4456.16
4463.51
4473.28
4485.05
4497.17
3776.71
3777.25
3777.6
3777.58
3777.34
3776.91
3776.37
3775.81
3775.33
3774.87
209.793
208.929
208.592
208.484
208.448
208.439
208.459
208.564
208.914
209.906
106.935
107.005
107.055
107.028
106.967
106.88
106.783
106.695
106.659
106.706
101.397
101.355
101.343
101.352
101.396
101.477
101.593
101.739
101.913
102.121
102.325
102.298
102.323
102.328
102.391
102.502
102.664
102.873
103.106
103.404
103.028
102.919
102.881
102.923
103.068
103.329
103.729
104.29
104.982
105.822
105.32
105.057
105.02
105.076
105.353
105.854
106.621
107.729
109.069
110.41
115.41
115.234
115.165
115.28
115.604
116.28
117.418
119.159
121.493
124.258
253.363
253.163
252.726
253.043
254.599
258.309
264.074
271.5
280.714
287.29
4271.38
4268.78
4267.55
4268.26
4270.75
4274.65
4280.18
4287.22
4295.19
4302.86
3622.67
3623.1
3623.37
3623.36
3623.21
3622.93
3622.57
3622.21
3621.89
3621.54
202.107
201.265
200.955
200.86
200.836
200.839
200.87
200.979
201.318
202.267
105.805
105.849
105.879
105.862
105.822
105.767
105.705
105.648
105.629
105.666
100.59
100.565
100.559
100.563
100.586
100.627
100.685
100.755
100.839
100.948
101.064
101.056
101.072
101.072
101.103
101.157
101.231
101.318
101.4
101.526
101.437
101.399
101.384
101.402
101.466
101.58
101.751
101.977
102.24
102.613
103.238
103.096
103.082
103.11
103.261
103.529
103.922
104.456
105.047
105.613
112.35
112.314
112.292
112.357
112.523
112.871
113.425
114.227
115.201
116.431
241.574
241.644
241.238
241.508
242.835
245.605
249.617
254.496
260.276
263.185
4083.16
4081.3
4080.42
4080.94
4082.7
4085.54
4089.53
4094.42
4099.64
4104.41
3462.61
3462.95
3463.16
3463.17
3463.07
3462.89
3462.66
3462.42
3462.22
3461.94
194.032
193.221
192.936
192.852
192.834
192.842
192.875
192.979
193.302
194.204
104.932
104.956
104.97
104.96
104.936
104.905
104.87
104.839
104.835
104.866
100.191
100.175
100.172
100.174
100.186
100.208
100.238
100.275
100.32
100.382
100.407
100.399
100.404
100.405
100.424
100.46
100.507
100.556
100.594
100.656
100.575
100.564
100.557
100.566
100.595
100.645
100.719
100.81
100.907
101.088
102.009
101.924
101.918
101.936
102.026
102.181
102.399
102.68
102.963
103.233
110.124
110.154
110.155
110.194
110.282
110.451
110.705
111.057
111.412
111.995
229.943
230.207
229.806
230.055
231.189
233.133
235.889
239.084
242.761
243.721
3887.67
3886.4
3885.83
3886.18
3887.36
3889.38
3892.14
3895.4
3898.71
3901.63
3296.82
3297.1
3297.26
3297.26
3297.21
3297.09
3296.95
3296.8
3296.66
3296.44
185.458
184.682
184.422
184.348
184.334
184.341
184.371
184.465
184.768
185.621
104.183
104.193
104.197
104.191
104.178
104.163
104.146
104.132
104.14
104.167
100.005
99.9948
99.9936
99.9946
100
100.01
100.025
100.042
100.068
100.107
100.083
100.071
100.069
100.07
100.085
100.114
100.152
100.19
100.217
100.253
100.135
100.132
100.129
100.133
100.147
100.17
100.203
100.242
100.277
100.371
101.298
101.24
101.236
101.251
101.31
101.409
101.542
101.707
101.862
102.016
108.404
108.467
108.48
108.505
108.549
108.623
108.724
108.861
108.939
109.238
217.954
218.461
218.121
218.364
219.16
220.491
222.339
224.406
226.751
226.673
3685.64
3684.78
3684.42
3684.64
3685.45
3686.81
3688.65
3690.73
3692.74
3694.49
3125.68
3125.92
3126.04
3126.04
3126.01
3125.94
3125.85
3125.76
3125.67
3125.47
176.297
175.562
175.327
175.264
175.252
175.257
175.281
175.362
175.643
176.446
103.497
103.497
103.495
103.491
103.485
103.48
103.474
103.472
103.488
103.514
99.9266
99.9215
99.9222
99.9224
99.9236
99.9259
99.9302
99.9371
99.9517
99.9782
99.9367
99.9216
99.915
99.9159
99.9296
99.9542
99.986
100.019
100.043
100.069
99.9293
99.9267
99.9243
99.9263
99.9339
99.9467
99.9634
99.9817
99.9945
100.049
100.884
100.841
100.836
100.849
100.891
100.959
101.048
101.156
101.253
101.362
106.972
107.045
107.066
107.082
107.1
107.127
107.155
107.193
107.15
107.323
205.373
206.018
205.809
205.979
206.512
207.389
208.582
209.889
211.366
210.768
3477.83
3477.27
3477.04
3477.19
3477.72
3478.59
3479.75
3481.01
3482.17
3483.21
2949.73
2949.93
2950.01
2950.02
2950
2949.96
2949.91
2949.85
2949.79
2949.62
166.468
165.778
165.57
165.519
165.509
165.511
165.528
165.595
165.851
166.604
102.846
102.84
102.834
102.832
102.83
102.831
102.832
102.837
102.858
102.887
99.9047
99.903
99.9048
99.9045
99.9031
99.9009
99.8991
99.8997
99.9079
99.9293
99.8817
99.8661
99.8579
99.8585
99.8695
99.8895
99.9154
99.9427
99.965
99.9868
99.8478
99.8442
99.8417
99.8426
99.8474
99.8555
99.8656
99.8761
99.8818
99.9151
100.628
100.593
100.589
100.599
100.63
100.679
100.741
100.815
100.882
100.972
105.688
105.756
105.78
105.79
105.797
105.803
105.798
105.794
105.708
105.823
192.03
192.725
192.622
192.737
193.074
193.618
194.339
195.138
196.031
195.222
3265.11
3264.77
3264.63
3264.73
3265.05
3265.58
3266.27
3266.98
3267.6
3268.2
2769.7
2769.86
2769.92
2769.92
2769.92
2769.89
2769.86
2769.82
2769.78
2769.62
155.874
155.234
155.057
155.018
155.01
155.01
155.021
155.072
155.3
156.002
102.224
102.215
102.207
102.205
102.206
102.209
102.215
102.223
102.246
102.28
99.912
99.9118
99.9138
99.9131
99.9105
99.9064
99.9021
99.8998
99.9044
99.9245
99.8724
99.8584
99.8507
99.8508
99.8588
99.8735
99.8928
99.9138
99.9326
99.9519
99.8315
99.8272
99.8247
99.8249
99.828
99.8334
99.8399
99.8466
99.8502
99.8709
100.445
100.417
100.412
100.42
100.442
100.476
100.519
100.569
100.617
100.693
104.474
104.528
104.55
104.558
104.56
104.557
104.541
104.523
104.43
104.517
177.782
178.459
178.438
178.512
178.705
179.005
179.387
179.843
180.328
179.507
3048.57
3048.38
3048.3
3048.35
3048.53
3048.83
3049.2
3049.57
3049.87
3050.21
2586.55
2586.69
2586.73
2586.74
2586.74
2586.72
2586.7
2586.67
2586.64
2586.5
144.38
143.801
143.66
143.634
143.629
143.628
143.632
143.667
143.858
144.509
101.639
101.626
101.619
101.617
101.619
101.623
101.63
101.639
101.659
101.697
99.9312
99.9304
99.9316
99.9307
99.9281
99.9242
99.92
99.9175
99.9205
99.9408
99.8863
99.8752
99.8692
99.8689
99.8739
99.8835
99.8963
99.9107
99.925
99.9412
99.8499
99.846
99.8439
99.8437
99.8454
99.8485
99.8522
99.8559
99.8582
99.87
100.283
100.263
100.258
100.262
100.276
100.298
100.324
100.355
100.388
100.45
103.295
103.333
103.351
103.356
103.356
103.349
103.331
103.311
103.23
103.298
162.473
163.077
163.122
163.167
163.253
163.374
163.506
163.72
163.903
163.201
2829.5
2829.4
2829.35
2829.38
2829.47
2829.61
2829.8
2829.96
2830.08
2830.26
2401.45
2401.56
2401.59
2401.59
2401.59
2401.59
2401.57
2401.56
2401.53
2401.42
131.758
131.262
131.168
131.157
131.156
131.152
131.15
131.167
131.303
131.888
101.109
101.094
101.087
101.085
101.087
101.091
101.098
101.106
101.12
101.154
99.9489
99.9464
99.9463
99.9453
99.9435
99.9409
99.9384
99.9371
99.9398
99.959
99.914
99.9064
99.9024
99.902
99.9048
99.9101
99.9174
99.9261
99.9355
99.9473
99.888
99.8855
99.8841
99.8837
99.8843
99.8854
99.8866
99.8879
99.8889
99.8941
100.126
100.112
100.109
100.111
100.118
100.129
100.142
100.158
100.177
100.221
102.167
102.187
102.197
102.199
102.195
102.186
102.17
102.151
102.096
102.146
145.645
146.119
146.151
146.185
146.244
146.325
146.408
146.472
146.409
145.907
2609.31
2609.26
2609.25
2609.26
2609.29
2609.33
2609.39
2609.44
2609.48
2609.56
2214.88
2214.94
2214.94
2214.94
2214.94
2214.94
2214.94
2214.93
2214.93
2214.89
117.453
117.111
117.078
117.081
117.083
117.079
117.071
117.067
117.118
117.558
100.64
100.624
100.617
100.614
100.614
100.618
100.623
100.631
100.642
100.666
99.9655
99.9628
99.9621
99.9614
99.9605
99.9595
99.9586
99.9584
99.9605
99.9736
99.9539
99.9498
99.9478
99.9475
99.9488
99.9513
99.9548
99.959
99.964
99.9706
99.9391
99.938
99.9374
99.9371
99.9371
99.9371
99.937
99.9368
99.9367
99.938
100.013
100.007
100.005
100.005
100.008
100.012
100.017
100.023
100.031
100.053
101.12
101.123
101.126
101.124
101.119
101.11
101.097
101.084
101.065
101.102
125.874
126.155
126.171
126.191
126.223
126.266
126.31
126.336
126.289
125.959
2388.76
2388.74
2388.74
2388.75
2388.75
2388.75
2388.75
2388.74
2388.73
2388.78
7173.53
7281.54
7236.89
7031.34
659260
683171
688181
695937
1.49188e+06
1.57599e+06
1.5823e+06
1.56217e+06
2.51003e+06
2.68383e+06
2.67966e+06
2.59805e+06
3.73603e+06
4.02456e+06
3.99639e+06
3.83479e+06
5.27506e+06
5.70966e+06
5.65738e+06
5.44753e+06
6.83045e+06
7.41963e+06
7.35589e+06
7.16118e+06
7.84939e+06
8.56816e+06
8.51447e+06
8.38679e+06
5.60571e+06
6.15973e+06
6.09651e+06
6.06127e+06
7890.63
8136.82
7974.51
7557.35
5744.49
5795.83
5797.47
5758.15
308720
323835
344011
375593
687337
776417
819374
855593
1.17219e+06
1.39257e+06
1.45413e+06
1.47937e+06
1.75362e+06
2.16066e+06
2.23266e+06
2.24575e+06
2.4443e+06
3.08736e+06
3.18741e+06
3.22626e+06
3.11405e+06
4.0102e+06
4.1733e+06
4.2952e+06
3.55619e+06
4.67436e+06
4.91968e+06
5.15715e+06
2.79671e+06
3.79952e+06
3.99282e+06
4.30694e+06
7116.26
7346.45
7275.34
7054.93
4932.88
4943.4
4942.25
4932.47
21732
25963.8
24566.5
19934.4
61537.9
73140
68324.1
55417
128328
151890
139817
113107
227290
268521
244145
197630
370472
438583
398309
323885
542510
643730
587314
481853
699706
833972
764898
632917
582384
693031
626204
521818
6334.2
6420.82
6397.93
6302.63
4710.33
4712.21
4712.61
4711.8
1605.14
1716.9
1682.07
1547.02
4709.4
5164.21
4994.13
4418.34
11216.3
12442
11844.1
10143.2
22480.2
25080
23497.2
19576.5
41526
46584.2
43161
35240
67993.2
76415.1
70199
56644.2
96777.7
109181
99688
79808.7
83052.2
93194.2
83616
66756.1
5894.78
5936.15
5933
5895.15
4562.29
4563.05
4563.18
4562.64
425.977
437.913
439.538
432.639
712.726
756.929
759.83
729.835
1594.66
1729.89
1719
1601.13
3196.08
3508.12
3431.32
3094.89
6120.98
6778.88
6529.31
5712.27
10458
11611.3
11013.6
9391.51
15634.1
17438.4
16330.7
13611.7
13803.7
15296.5
14002.5
11486.5
5570.7
5592.56
5593.92
5578.36
4439.46
4440.1
4440.12
4439.5
277.008
279.513
279.986
278.715
227.511
231.965
233.382
232.327
386.269
402.504
405.977
399.286
673.807
715.277
718.166
692.457
1213.47
1310.58
1304.43
1226.02
2018.66
2199.42
2160.08
1977.21
3038.3
3341.67
3238.55
2883.31
2917.08
3164.08
3000.93
2642.76
5311.28
5321.97
5324.05
5318.53
4317.5
4318.13
4318.15
4317.53
242.764
244.493
244.772
243.698
140.767
141.282
141.479
141.447
176.4
178.736
179.626
179.366
243.646
250.126
251.989
250.284
369.371
386.169
389.306
382.137
549.137
581.335
583.056
563.466
794.6
852.342
848.247
803.151
981.267
1025.09
1004.65
956.796
5089.87
5094.71
5096.55
5095.33
4190.85
4191.48
4191.51
4190.92
228.872
230.492
230.761
229.736
118.589
118.612
118.591
118.558
126.211
126.515
126.641
126.664
146.39
147.441
147.852
147.816
183.863
187.173
188.257
187.642
234.16
240.469
241.96
240.047
314.753
327.063
328.66
322.898
541.674
547.14
544.358
540.549
4888.62
4890.61
4891.9
4892.12
4057.82
4058.43
4058.46
4057.92
220.132
221.727
222.012
221.025
111.16
111.154
111.122
111.079
110.592
110.596
110.586
110.593
118.002
118.142
118.195
118.219
132.021
132.779
133.065
132.996
150.137
151.453
151.903
151.785
187.544
190.482
191.224
190.436
399.614
396.623
395.804
398.418
4694.17
4694.85
4695.64
4696.15
3918.07
3918.65
3918.69
3918.19
212.742
214.303
214.594
213.647
108.058
108.07
108.052
108.01
104.657
104.63
104.609
104.608
107.727
107.718
107.707
107.714
113.858
114.071
114.145
114.112
122.107
122.365
122.47
122.502
144.717
145.463
145.695
145.557
335.188
330.12
329.329
332.744
4500.2
4500.3
4500.74
4501.21
3771.6
3772.14
3772.18
3771.72
205.53
207.045
207.337
206.429
106.471
106.498
106.49
106.452
102.111
102.093
102.079
102.077
103.453
103.434
103.42
103.419
106.331
106.418
106.441
106.411
110.844
110.874
110.89
110.914
126.836
127.013
127.059
127.006
297.719
292.219
291.323
294.658
4304.09
4303.96
4304.19
4304.55
3618.6
3619.09
3619.12
3618.71
198.077
199.539
199.826
198.959
105.464
105.498
105.497
105.461
100.941
100.932
100.925
100.923
101.547
101.536
101.527
101.525
102.905
102.958
102.969
102.942
105.755
105.743
105.74
105.753
118.087
118.104
118.089
118.046
271.73
266.28
265.341
268.483
4104.62
4104.45
4104.57
4104.8
3459.32
3459.76
3459.79
3459.42
190.208
191.612
191.892
191.066
104.689
104.726
104.728
104.696
100.381
100.379
100.375
100.373
100.67
100.666
100.662
100.66
101.283
101.322
101.33
101.308
103.309
103.295
103.29
103.297
113.268
113.24
113.205
113.162
251.231
245.984
245.051
248
3901.22
3901.11
3901.16
3901.27
3294.14
3294.52
3294.54
3294.21
181.829
183.171
183.443
182.66
104.012
104.05
104.054
104.023
100.11
100.111
100.11
100.108
100.265
100.264
100.263
100.262
100.51
100.54
100.546
100.528
102.084
102.077
102.074
102.076
110.304
110.266
110.226
110.181
233.456
228.467
227.567
230.334
3693.7
3693.69
3693.71
3693.71
3123.5
3123.82
3123.83
3123.55
172.869
174.147
174.41
173.671
103.383
103.419
103.423
103.395
99.9851
99.9886
99.9885
99.9851
100.078
100.079
100.079
100.078
100.147
100.17
100.174
100.16
101.437
101.438
101.437
101.435
108.249
108.216
108.176
108.127
216.95
212.251
211.402
213.986
3482.16
3482.27
3482.28
3482.19
2947.99
2948.24
2948.24
2947.99
163.256
164.468
164.723
164.031
102.782
102.817
102.821
102.795
99.9396
99.9441
99.9442
99.9401
99.9946
99.9961
99.9967
99.9966
99.9843
100
100.003
99.9924
101.057
101.064
101.064
101.058
106.637
106.615
106.579
106.524
200.865
196.49
195.707
198.101
3267
3267.21
3267.23
3267.06
2768.35
2768.53
2768.51
2768.31
152.904
154.052
154.301
153.658
102.21
102.244
102.248
102.223
99.9386
99.9434
99.9432
99.9385
99.9601
99.9618
99.9628
99.9632
99.9169
99.9275
99.9291
99.9215
100.783
100.796
100.797
100.787
105.221
105.218
105.187
105.125
184.649
180.652
179.952
182.134
3048.91
3049.21
3049.22
3049
2585.62
2585.72
2585.68
2585.53
141.711
142.804
143.049
142.452
101.664
101.695
101.7
101.677
99.9582
99.9627
99.962
99.957
99.9504
99.9522
99.9535
99.9543
99.8972
99.9034
99.9042
99.8998
100.537
100.551
100.553
100.541
103.871
103.887
103.865
103.799
167.876
164.375
163.783
165.693
2828.94
2829.29
2829.3
2829.06
2400.98
2400.98
2400.92
2400.84
129.497
130.549
130.789
130.228
101.149
101.177
101.182
101.164
99.9773
99.981
99.9798
99.9749
99.9564
99.9583
99.9597
99.9606
99.9072
99.91
99.9105
99.9087
100.291
100.305
100.306
100.296
102.538
102.563
102.55
102.492
149.891
146.96
146.518
148.142
2608.39
2608.77
2608.79
2608.54
2214.92
2214.78
2214.72
2214.75
115.834
116.813
117.017
116.482
100.667
100.685
100.689
100.68
99.9863
99.9884
99.987
99.9835
99.9778
99.9794
99.9805
99.9809
99.9427
99.9437
99.944
99.9435
100.091
100.1
100.101
100.095
101.272
101.278
101.272
101.249
128.498
126.487
126.251
127.398
2388.01
2388.4
2388.41
2388.14
6100.54
5439.13
5169.47
5073.26
5018.11
4979.3
4953.46
4938.83
4931.05
4926.64
794767
191108
33111
11627.2
5252.45
2812.98
1737.46
1206.49
925.047
762.678
1.41372e+06
243072
43777.3
14969.4
6705.22
3601.43
2181.51
1450.68
1043.45
800.542
1.9777e+06
234549
46177.8
14831.3
6401.89
3349.32
1977.98
1285.39
906.603
685.524
2.43208e+06
249200
48307.1
14364.4
6012.96
3057.85
1767.92
1131.3
788.497
593.401
2.90315e+06
273009
50487.7
13778.2
5552.92
2724.78
1538.26
968.858
670.966
505.44
3.28364e+06
291497
51323.5
12967.2
5073.24
2425.13
1353.64
850.142
589.905
448.039
3.37023e+06
284266
47097
10842.8
4094.67
1914.39
1077.3
692.835
499.564
393.799
2.32577e+06
180310
27041.1
5639.57
2249.76
1228.3
854.142
670.363
568.179
507.224
6009.85
5984.3
5839.09
5814.62
5771.56
5747.63
5728.74
5718.74
5712.02
5706.33
5437.32
5169.98
5040.22
4967.58
4921.91
4891.77
4872.22
4860.58
4854.55
4850.94
179347
44718.1
13582.9
5310.62
2628.74
1563.35
1063.27
802.006
656.41
572.384
372652
85715.3
23312.2
8239.42
3865.82
2175.82
1377.98
953.97
710.61
566.421
589097
124854
30386.4
9556.34
4187.66
2241.03
1361.8
910.489
659.323
514.956
821507
162974
35969.3
10290.4
4265.3
2193.42
1296.08
850.062
606.623
470.524
1.09999e+06
204883
41225.7
10720.1
4188.6
2062.3
1183.4
760.904
538.059
416.852
1.37757e+06
241774
44763.9
10694.8
3993.11
1908.72
1080
691.601
489.283
381.377
1.55336e+06
256092
43444.1
9415.58
3342.62
1561.18
889.128
582.376
427.538
345.147
1.17526e+06
177112
26534.6
5183.4
1946.11
1083.82
768.788
614.485
526.899
476.994
6243.2
5943.74
5784.47
5726
5675.61
5645.28
5623.38
5610.04
5600.63
5592.62
4898.41
4863.72
4836.14
4813.19
4795.25
4782.26
4773.63
4768.49
4765.83
4764.11
9209.79
4191.5
2307.46
1436.4
987.046
736.915
592.252
506.187
453.432
421.331
23912.8
9547.48
4642.13
2540.89
1538.36
1008.44
712.347
539.113
432.571
366.446
45119.4
15859.7
6892.3
3387.24
1885.38
1152.02
767.989
554.314
428.493
353.5
72930.9
22683.7
8922.12
4014.54
2098.14
1220.57
785.368
553.383
420.16
343.138
111072
30719
10915.4
4493.45
2207.7
1222.41
759.373
522.293
391.655
318.503
154662
38434.1
12419.4
4729.2
2219.56
1189.42
726.125
496.227
371.41
302.906
189940
42402.7
12363.4
4324.11
1946.43
1023.12
629.701
440.073
340.552
286.033
140496
27447.1
7216.34
2518.68
1296.71
838.682
641.301
536.553
473.666
437.18
6008.47
5826.84
5703.05
5629.78
5577.27
5544.61
5521.96
5506.55
5495.14
5485.46
4707.08
4698.8
4689.56
4681.24
4674.94
4670.66
4668.02
4666.72
4666.56
4666.49
1213.16
912.466
713.022
573.063
480.992
422.105
384.396
359.72
342.983
332.472
3027.01
1922.15
1271.67
861.126
612.667
461.459
368.018
308.811
269.653
243.891
6193.38
3467.87
2048.25
1246.2
809.405
562.876
419.53
333.228
279.006
245.049
10671.7
5310.62
2853.83
1596.57
970.871
639.767
457.819
353.499
289.7
250.898
17210.4
7594.23
3721.07
1917.54
1093.48
682.74
469.209
352.106
283.815
243.751
24999.3
9837.54
4440.01
2137.22
1163.81
701.717
472.224
350.815
281.071
240.895
31819.6
11113.1
4598.09
2066.51
1086.6
645.919
438.34
331.61
272.358
238.288
23306.5
7278.58
2926.96
1429.61
900.453
661.506
542.218
473.144
428.832
402.47
5780.02
5652.19
5554.22
5490.96
5447.41
5418.94
5398.53
5383.9
5372.84
5363.63
4561.74
4560.55
4559.27
4558.26
4557.67
4557.42
4557.47
4557.91
4558.9
4560.03
414.6
385.234
358.514
336.288
319.575
307.377
298.479
291.892
286.858
283.431
638.46
514.187
412.882
335.272
280.391
242.615
216.837
199.101
186.335
177.367
1283.81
924.304
664.594
485.068
369.157
294.719
246.742
215.362
194.171
180.2
2264.05
1472.82
966.669
648.516
460.214
347.324
278.874
236.491
208.552
190.546
3788.99
2221.74
1333.73
822.758
544.316
387.728
298.115
245.145
212.063
191.596
5657.36
3011.17
1675.5
966.635
608.347
417.343
313.153
253.96
217.441
195.16
7395.55
3557.04
1836.75
999.736
610.354
413.925
311.952
255.416
221.77
201.362
5603.18
2605.84
1421.49
897.699
663.226
538.614
467.083
421.991
391.041
372.195
5527.73
5452.21
5387.58
5341.73
5308.25
5284.34
5266.34
5252.83
5242.38
5233.79
4439.22
4439.38
4439.66
4440.11
4440.7
4441.35
4442.03
4442.89
4444.17
4445.77
278.938
276.058
272.431
268.848
265.723
263.1
260.93
259.118
257.55
256.18
226.465
211.663
195.598
181.16
169.611
160.851
154.377
149.583
145.772
142.896
372.873
321.808
273.08
233.223
203.64
182.411
167.353
156.637
148.828
143.452
611.246
486.105
380.283
301.631
248.026
212.192
188.333
172.328
160.822
152.961
1008.28
732.608
525.126
383.876
295.02
239.323
204.259
181.758
166.57
156.687
1511.91
1012.56
673.945
461.456
337.354
263.804
219.673
192.527
174.321
162.539
2029.42
1252.49
780.762
509.066
362.199
279.596
232.104
203.447
185.056
173.341
1797.59
1170.65
818.72
625.879
518.763
452.677
409.713
380.467
359.071
345.775
5296.51
5255.26
5215.89
5184.41
5159.32
5139.86
5124.51
5112.52
5103.02
5095.33
4317.36
4317.67
4318.12
4318.71
4319.4
4320.09
4320.77
4321.58
4322.78
4324.3
244.935
244.783
244.346
243.798
243.228
242.66
242.102
241.541
240.95
240.223
141.031
139.035
136.412
133.789
131.51
129.662
128.222
127.095
126.061
125.206
176.731
168.467
158.815
149.809
142.305
136.33
131.663
128.042
125.208
123.215
241.399
219.744
197.127
177.892
163.111
152.151
144.133
138.298
133.686
130.363
354.821
302.288
253.244
214.853
187.427
168.277
154.958
145.631
138.814
134.205
501.569
401.193
315.501
253.634
212.44
185.237
167.186
155.105
146.242
140.188
676.944
508.411
378.909
292.696
239.003
205.129
183.455
169.191
159.347
152.832
821.102
670.572
556.558
480.086
428.545
392.358
366.233
347.216
332.473
323.139
5085.96
5064.37
5040.9
5019.6
5001.17
4985.85
4973.22
4963.01
4954.71
4948.09
4190.76
4191.01
4191.35
4191.8
4192.31
4192.83
4193.32
4193.92
4194.9
4196.21
231.06
231.253
231.29
231.25
231.155
231.006
230.803
230.53
230.164
229.568
118.597
118.344
117.943
117.517
117.139
116.837
116.619
116.455
116.228
116.001
126.353
124.787
122.682
120.499
118.485
116.718
115.209
113.946
112.904
112.183
146.7
142.501
137.407
132.569
128.433
125.051
122.354
120.245
118.407
117.024
183.523
172.366
160.26
149.55
140.939
134.25
129.126
125.23
122.177
120.078
231.045
209.4
187.298
169.167
155.479
145.392
138.003
132.651
128.365
125.299
301.658
262.118
225.765
197.942
178.057
163.984
154.025
146.934
141.727
138.202
513.388
470.744
429.262
395.911
369.611
349.095
332.954
320.507
310.348
303.833
4887.58
4876.03
4861.87
4847.63
4834.4
4822.77
4812.77
4804.43
4797.47
4791.99
4057.74
4057.93
4058.15
4058.45
4058.79
4059.11
4059.41
4059.79
4060.53
4061.62
222.317
222.535
222.629
222.66
222.638
222.561
222.421
222.197
221.856
221.257
111.141
111.123
111.086
111.054
111.043
111.058
111.104
111.158
111.141
111.093
110.548
110.177
109.639
109.04
108.44
107.871
107.348
106.882
106.487
106.231
118.043
117.089
115.831
114.536
113.328
112.256
111.342
110.587
109.853
109.276
132.094
129.267
125.97
122.742
119.864
117.411
115.372
113.711
112.336
111.398
150.269
145.051
138.956
133.349
128.598
124.729
121.642
119.255
117.177
115.63
185.695
175.08
164.101
154.539
146.811
140.761
136.104
132.567