/*--------------------------------*- C++ -*----------------------------------*\
| =========                 |                                                 |
| \\      /  F ield         | foam-extend: Open Source CFD                    |
|  \\    /   O peration     | Version:     4.0                                |
|   \\  /    A nd           | Web:         http://www.foam-extend.org         |
|    \\/     M anipulation  |                                                 |
\*---------------------------------------------------------------------------*/
FoamFile
{
    version     2.0;
    format      ascii;
    class       volScalarField;
    location    "950";
    object      k;
}
// * * * * * * * * * * * * * * * * * * * * * * * * * * * * * * * * * * * * * //

dimensions      [0 2 -2 0 0 0 0];

internalField   nonuniform List<scalar> 
34480
(
8.76303
8.7609
8.76082
8.76239
8.76575
8.77125
8.78601
8.84993
9.07367
9.68317
9.27396
8.66456
8.57414
8.85268
9.44972
10.3382
11.9543
15.9216
28.9474
67.4496
15.021
13.5615
13.1254
13.278
13.8537
14.8972
17.2496
22.9926
41.8515
101.791
14.476
12.9722
12.5387
12.7408
13.4589
14.8809
18.0579
25.4693
49.3631
127.896
13.4161
12.0328
11.7022
11.9804
12.8422
14.5595
18.3277
27.0087
55.3102
151.474
12.2141
10.9745
10.6822
10.9766
11.8802
13.7819
18.0224
27.9573
61.0757
176.461
11.3273
10.24
10.0044
10.2923
11.1999
13.1747
17.6777
28.4787
65.5246
197.783
9.85156
9.03932
8.84826
9.07415
9.79647
11.4747
15.5733
26.1873
64.5812
205.479
6.89139
6.63049
6.58623
6.69976
7.03267
7.76049
9.7663
16.315
43.4759
149.72
9.23137
9.23135
9.23687
9.24938
9.26719
9.28853
9.31441
9.3529
9.42398
9.49734
8.67356
8.67093
8.67049
8.67212
8.67649
8.68417
8.69706
8.72824
8.80317
9.06398
7.93821
7.51768
7.42562
7.58266
8.02751
8.86629
10.31
12.1373
15.538
41.5816
12.2498
11.1904
10.9041
11.1084
11.7858
13.045
15.2459
18.1703
23.9286
66.9226
12.1509
10.9981
10.6912
10.9384
11.7448
13.2939
16.0715
20.0512
28.4732
86.5215
11.6051
10.4957
10.2446
10.5284
11.4271
13.1713
16.3566
21.1126
31.8777
104.456
10.8113
9.78769
9.54825
9.8318
10.7399
12.5744
16.0445
21.5
34.8502
123.758
10.222
9.29668
9.0951
9.35959
10.2451
12.085
15.697
21.6044
37.1079
140.936
9.06717
8.36536
8.19274
8.39331
9.08172
10.5909
13.7458
19.3376
35.7077
147.387
6.65319
6.41258
6.36213
6.43931
6.70753
7.29656
8.64838
11.5895
22.5098
102.499
9.10467
9.0998
9.10006
9.10692
9.1193
9.13484
9.15564
9.19108
9.26358
9.44833
8.57133
8.56884
8.56811
8.56899
8.57178
8.57613
8.58162
8.59464
8.62382
8.69027
6.79606
6.58285
6.52942
6.60494
6.83547
7.28124
8.07926
9.38984
11.2058
16.5987
9.72126
9.10134
8.95156
9.11972
9.63811
10.5909
12.2067
14.6135
17.6421
29.4422
9.91553
9.18687
9.00939
9.22563
9.88516
11.1384
13.3253
16.6703
21.1631
40.9899
9.77873
9.04017
8.88847
9.13042
9.87281
11.3176
13.9151
17.9661
23.7892
52.406
9.34661
8.63789
8.48182
8.72668
9.48825
11.04
13.953
18.6493
26.0122
64.9814
9.0298
8.36482
8.23013
8.46096
9.21204
10.7899
13.8783
18.996
27.7222
76.929
8.2103
7.69691
7.57639
7.7538
8.33742
9.62985
12.3423
17.2038
26.6246
82.8534
6.38188
6.19499
6.15813
6.22143
6.43499
6.90054
7.95274
10.3902
16.6927
57.0821
8.98559
8.97772
8.97496
8.97858
8.98789
9.00071
9.01851
9.05173
9.12982
9.32868
8.45558
8.45416
8.45383
8.45452
8.45638
8.4586
8.45958
8.463
8.47215
8.49189
6.02159
5.92946
5.9028
5.93333
6.03295
6.225
6.56465
7.15737
8.04629
9.96892
7.84076
7.5275
7.45707
7.55286
7.85335
8.41458
9.36626
10.8619
12.73
17.2236
8.15526
7.74347
7.64501
7.78377
8.20941
9.02913
10.4576
12.7524
15.6318
23.6883
8.27155
7.82401
7.73484
7.89587
8.39608
9.38336
11.1641
14.1041
17.8832
30.2212
8.10386
7.64809
7.54639
7.71781
8.25173
9.35403
11.4368
15.0155
19.8391
37.686
7.99318
7.5424
7.45111
7.61817
8.16141
9.3133
11.5805
15.6039
21.3287
44.9507
7.46117
7.10163
7.01593
7.14927
7.57889
8.53129
10.5331
14.4101
20.6093
48.7113
6.13988
5.99705
5.96939
6.01703
6.17609
6.51545
7.24501
8.99989
12.9647
32.9704
8.85207
8.8442
8.84118
8.84428
8.8531
8.86644
8.88504
8.91858
8.99107
9.14578
8.32781
8.32736
8.32737
8.32781
8.32871
8.3291
8.32736
8.32597
8.32597
8.3282
5.54816
5.51295
5.50028
5.5099
5.54552
5.61376
5.73055
5.928
6.20875
6.66749
6.59369
6.45571
6.42685
6.46727
6.60256
6.85922
7.29816
8.01423
8.93117
10.4439
6.89993
6.68707
6.63415
6.70539
6.93151
7.37133
8.14148
9.42952
11.0713
14.0994
7.12568
6.87355
6.82256
6.91158
7.19743
7.76389
8.79031
10.575
12.8844
17.8353
7.11747
6.83952
6.77323
6.87626
7.20197
7.87489
9.15021
11.4775
14.5905
22.2666
7.13867
6.84529
6.78288
6.88822
7.23649
7.9711
9.41373
12.1481
15.9456
26.6423
6.82873
6.58483
6.52323
6.61245
6.89774
7.52186
8.81478
11.4912
15.649
28.9685
5.92646
5.81876
5.79767
5.83057
5.94243
6.17501
6.64441
7.74951
10.0885
19.1864
8.709
8.70126
8.69807
8.7007
8.7089
8.72202
8.74025
8.77133
8.83225
8.94384
8.1889
8.18919
8.18946
8.1897
8.18992
8.1891
8.18656
8.18396
8.18179
8.18046
5.27825
5.26657
5.26063
5.26269
5.27349
5.29487
5.33087
5.38831
5.46478
5.56302
5.83078
5.77964
5.77159
5.78502
5.83484
5.92989
6.09147
6.35644
6.70727
7.19023
6.06557
5.96477
5.93868
5.9712
6.07794
6.28349
6.63605
7.22684
8.00601
9.15498
6.30261
6.17144
6.14539
6.18978
6.33737
6.62466
7.13381
8.03196
9.23811
11.2402
6.36897
6.20947
6.16899
6.22645
6.4098
6.78104
7.46747
8.74868
10.5232
13.8251
6.45849
6.27716
6.23729
6.29933
6.50802
6.93748
7.75576
9.35056
11.6251
16.391
6.30686
6.14953
6.10787
6.16471
6.34393
6.72533
7.4835
9.08545
11.6225
17.7373
5.74053
5.66181
5.64678
5.66874
5.7453
5.90016
6.19384
6.84032
8.08542
11.8075
8.55544
8.5481
8.54494
8.54721
8.55471
8.56708
8.58418
8.6117
8.65924
8.7333
8.0394
8.04017
8.04062
8.04072
8.0405
8.03904
8.03667
8.03415
8.03187
8.03017
5.13227
5.1289
5.12581
5.12562
5.12811
5.13413
5.1443
5.16006
5.18002
5.20116
5.39136
5.37721
5.37779
5.38063
5.39455
5.42205
5.46964
5.54769
5.6523
5.77996
5.54342
5.49889
5.48697
5.50058
5.54718
5.63523
5.7803
6.01337
6.31979
6.70893
5.74326
5.67995
5.66841
5.68861
5.75923
5.89273
6.11919
6.50605
7.03179
7.77298
5.82961
5.74295
5.71965
5.74974
5.84697
6.03811
6.37541
6.9884
7.85639
9.20061
5.94281
5.83581
5.81192
5.84616
5.96485
6.20128
6.62926
7.44493
8.63482
10.6601
5.89504
5.79864
5.77199
5.80641
5.91342
6.13448
6.55095
7.40505
8.77747
11.4491
5.58518
5.52905
5.51892
5.53298
5.58395
5.68444
5.86577
6.23292
6.87837
8.2985
8.39085
8.38413
8.38115
8.38309
8.3898
8.40091
8.41624
8.43966
8.47586
8.52465
7.87963
7.88068
7.88122
7.88123
7.88077
7.87928
7.87736
7.87532
7.8735
7.87211
5.05594
5.05494
5.05301
5.05242
5.05277
5.05449
5.05739
5.06194
5.06773
5.07362
5.14853
5.14794
5.15122
5.15082
5.15219
5.15627
5.16534
5.18241
5.20756
5.23733
5.23152
5.21288
5.20778
5.21318
5.23267
5.26887
5.32597
5.41194
5.52093
5.64351
5.38011
5.35193
5.34793
5.35636
5.3882
5.44657
5.54095
5.69234
5.89256
6.14019
5.45818
5.41358
5.40094
5.41592
5.46521
5.55925
5.7169
5.98581
6.36034
6.86387
5.56876
5.50829
5.49491
5.51274
5.57759
5.70266
5.91676
6.30024
6.85149
7.6461
5.58341
5.52769
5.51171
5.53161
5.59248
5.71495
5.93463
6.35778
7.0274
8.12018
5.46028
5.42105
5.41464
5.42334
5.45666
5.5208
5.63217
5.83909
6.17694
6.74
8.21469
8.20877
8.20609
8.20774
8.21355
8.22308
8.23625
8.25541
8.28233
8.31489
7.70975
7.71084
7.71141
7.71138
7.71079
7.70964
7.70821
7.7067
7.70537
7.70432
5.01633
5.01579
5.01439
5.01393
5.01405
5.01478
5.01595
5.01776
5.02009
5.02277
5.0186
5.02191
5.0254
5.02443
5.02247
5.02014
5.01854
5.01894
5.02258
5.02905
5.05278
5.04516
5.04306
5.04517
5.05328
5.06818
5.09078
5.12258
5.16127
5.20165
5.15403
5.14263
5.142
5.14519
5.15887
5.1833
5.22121
5.27785
5.34946
5.42984
5.21334
5.19163
5.18516
5.19232
5.21641
5.26123
5.33321
5.44714
5.59958
5.782
5.30899
5.27608
5.26911
5.2779
5.31229
5.37678
5.482
5.65637
5.89585
6.19047
5.35749
5.32748
5.3186
5.32963
5.36253
5.42738
5.53972
5.7414
6.04955
6.48062
5.36376
5.33665
5.33288
5.33815
5.3598
5.40054
5.46893
5.58588
5.76409
6.00874
8.02655
8.02156
8.01925
8.02062
8.02547
8.03329
8.04415
8.05923
8.07875
8.10038
7.52977
7.53064
7.5312
7.53115
7.53068
7.52987
7.52885
7.52779
7.52686
7.5261
4.99505
4.99465
4.99356
4.9933
4.99348
4.99408
4.99495
4.99614
4.99761
4.99941
4.9509
4.95461
4.9575
4.95673
4.95455
4.95143
4.94809
4.94523
4.94412
4.94544
4.95444
4.95122
4.95032
4.95118
4.95472
4.96118
4.97064
4.9831
4.99776
5.01311
5.01895
5.01484
5.01536
5.01645
5.02216
5.03218
5.0472
5.06806
5.0931
5.12073
5.05889
5.04894
5.04581
5.04913
5.06057
5.08143
5.11387
5.16171
5.22298
5.29249
5.13631
5.11885
5.11548
5.11964
5.13759
5.17046
5.22209
5.30138
5.40401
5.515
5.20071
5.18602
5.18159
5.18747
5.20424
5.23684
5.29222
5.38568
5.5229
5.69756
5.29201
5.27328
5.27126
5.27449
5.28871
5.31484
5.35708
5.42387
5.51781
5.63314
7.82615
7.82213
7.82024
7.82134
7.82523
7.83137
7.83997
7.85141
7.86518
7.87934
7.33942
7.3401
7.34055
7.34052
7.34021
7.33965
7.33896
7.33823
7.3376
7.33704
4.98265
4.98231
4.98153
4.98139
4.98164
4.98222
4.98302
4.98401
4.98516
4.9865
4.91633
4.91943
4.92159
4.92114
4.9195
4.91709
4.91435
4.91171
4.91013
4.91033
4.90261
4.90105
4.90061
4.90102
4.90273
4.90582
4.9102
4.91564
4.92186
4.92876
4.94156
4.94021
4.94086
4.9412
4.94366
4.94794
4.95413
4.96204
4.9708
4.98128
4.96581
4.96152
4.96009
4.96161
4.96695
4.97651
4.99101
5.01108
5.03564
5.0645
5.02653
5.01727
5.01574
5.01772
5.02716
5.04408
5.06977
5.10664
5.15112
5.19549
5.09661
5.09047
5.08865
5.0917
5.09963
5.11495
5.14076
5.18239
5.24082
5.31583
5.24057
5.22746
5.22652
5.22862
5.23825
5.25544
5.28192
5.32075
5.37015
5.42804
7.61332
7.61023
7.60877
7.60961
7.61258
7.61723
7.62379
7.63215
7.6416
7.6507
7.13841
7.13896
7.13932
7.13931
7.1391
7.13873
7.13827
7.13779
7.13737
7.13694
4.97448
4.97422
4.9737
4.97363
4.97389
4.97441
4.97512
4.97595
4.97689
4.97784
4.89888
4.90125
4.90276
4.90255
4.90151
4.89995
4.89814
4.89632
4.89515
4.89503
4.87656
4.87566
4.87541
4.87563
4.87655
4.87819
4.88045
4.88313
4.88615
4.8897
4.89911
4.89857
4.89898
4.8991
4.90034
4.90249
4.90546
4.90889
4.91219
4.91667
4.91235
4.91061
4.90996
4.91068
4.91316
4.91755
4.92404
4.9325
4.94229
4.95536
4.95981
4.95468
4.954
4.95503
4.96021
4.9693
4.98261
5.0006
5.02057
5.03974
5.0304
5.02865
5.02826
5.02982
5.03318
5.03966
5.05056
5.06779
5.09038
5.12481
5.20475
5.19535
5.19504
5.19657
5.20343
5.21514
5.23216
5.25537
5.28133
5.31232
7.388
7.38576
7.38469
7.38532
7.38746
7.39088
7.39569
7.40158
7.40788
7.41362
6.92653
6.92698
6.92726
6.92726
6.92713
6.92689
6.92659
6.92628
6.926
6.92566
4.96831
4.96817
4.96786
4.96784
4.96806
4.96849
4.96906
4.96972
4.97048
4.97109
4.8901
4.89183
4.89285
4.89279
4.8922
4.89129
4.89024
4.88914
4.88843
4.88817
4.86423
4.86365
4.86351
4.86363
4.86414
4.86504
4.86627
4.86769
4.86932
4.87131
4.87688
4.87644
4.87656
4.87664
4.87743
4.87882
4.88067
4.88263
4.8842
4.88641
4.88319
4.88249
4.88219
4.88254
4.88373
4.8858
4.88876
4.8924
4.89629
4.90272
4.92098
4.91785
4.91751
4.91816
4.92125
4.92653
4.93394
4.94347
4.95315
4.96246
4.98978
4.99004
4.99037
4.99117
4.99233
4.99455
4.99827
5.00432
5.011
5.02825
5.18019
5.17327
5.17329
5.17456
5.17971
5.18801
5.19936
5.21374
5.22739
5.24546
7.15028
7.14873
7.14802
7.14845
7.14991
7.15238
7.15577
7.15976
7.16382
7.16739
6.70361
6.70398
6.7042
6.7042
6.70412
6.70397
6.70378
6.70358
6.7034
6.70311
4.96314
4.96314
4.96299
4.96301
4.96318
4.96349
4.96391
4.9644
4.96503
4.96533
4.88561
4.88685
4.88751
4.88754
4.88724
4.88678
4.88625
4.88567
4.88536
4.88504
4.85894
4.85858
4.85852
4.85858
4.85884
4.85928
4.8599
4.86064
4.86157
4.86277
4.86585
4.86534
4.86523
4.86529
4.86591
4.867
4.86841
4.86986
4.87093
4.87222
4.86818
4.86785
4.86768
4.86786
4.86847
4.86951
4.87094
4.87259
4.87417
4.87762
4.89916
4.89701
4.89678
4.89728
4.89932
4.90269
4.90723
4.91285
4.91816
4.92357
4.96521
4.96621
4.96686
4.9673
4.96749
4.96783
4.96833
4.96955
4.96949
4.97933
5.1631
5.15794
5.15816
5.15933
5.16331
5.16948
5.17737
5.18669
5.19378
5.20558
6.90038
6.89931
6.89886
6.89914
6.90015
6.90185
6.90414
6.90674
6.90924
6.91143
6.46956
6.46988
6.47004
6.47005
6.47
6.46991
6.46979
6.46966
6.46954
6.46928
4.9585
4.95865
4.95864
4.95868
4.9588
4.959
4.95929
4.95963
4.96018
4.96021
4.8832
4.88408
4.88448
4.88453
4.88442
4.88426
4.88407
4.88385
4.88385
4.88358
4.85716
4.85697
4.85697
4.85699
4.85708
4.85723
4.85747
4.8578
4.85834
4.85914
4.86074
4.86018
4.85994
4.85999
4.86049
4.86139
4.86254
4.86373
4.86464
4.86554
4.86097
4.86074
4.86062
4.86071
4.86106
4.86165
4.86241
4.86325
4.86395
4.86596
4.88701
4.88539
4.88518
4.88561
4.88706
4.88939
4.89242
4.89608
4.89944
4.90328
4.94975
4.95085
4.9516
4.95187
4.95172
4.95137
4.95066
4.95002
4.94743
4.95399
5.15058
5.14669
5.14705
5.14815
5.15134
5.15612
5.16186
5.16818
5.17168
5.18036
6.63852
6.63782
6.63752
6.63771
6.63839
6.6395
6.64097
6.64258
6.64405
6.64537
6.22444
6.22471
6.22483
6.22484
6.22481
6.22476
6.22468
6.2246
6.22452
6.22428
4.95419
4.95451
4.95459
4.95467
4.95474
4.95485
4.95501
4.95523
4.95577
4.95561
4.88171
4.88232
4.88252
4.88258
4.88258
4.88259
4.88263
4.88265
4.88288
4.88279
4.85708
4.85701
4.85705
4.85705
4.85703
4.857
4.85701
4.8571
4.85741
4.85806
4.85864
4.85808
4.8578
4.85783
4.85822
4.85893
4.85985
4.86081
4.86161
4.86235
4.85788
4.85767
4.85755
4.8576
4.85782
4.85819
4.85865
4.85914
4.8595
4.86076
4.87987
4.87858
4.87838
4.87873
4.87979
4.88146
4.88357
4.88609
4.88843
4.89157
4.93855
4.93945
4.94018
4.94038
4.9402
4.93971
4.93874
4.93763
4.93437
4.93938
5.14039
5.13748
5.1379
5.13896
5.14159
5.1454
5.14974
5.15421
5.15565
5.16264
6.36503
6.36459
6.36441
6.36453
6.36495
6.36564
6.36653
6.36746
6.36826
6.36905
5.96853
5.96876
5.96885
5.96886
5.96885
5.96881
5.96877
5.96871
5.96865
5.96843
4.95008
4.95055
4.95069
4.95081
4.95085
4.95089
4.95095
4.95107
4.95165
4.95142
4.88051
4.88088
4.88094
4.88097
4.88103
4.88115
4.8813
4.88147
4.88186
4.88207
4.85777
4.85774
4.8578
4.85778
4.8577
4.8576
4.85749
4.85747
4.85766
4.85828
4.85798
4.85749
4.85723
4.85724
4.85752
4.85803
4.8587
4.85943
4.86009
4.86074
4.85688
4.85668
4.85657
4.85659
4.85672
4.85696
4.85725
4.85756
4.85778
4.85858
4.8748
4.87379
4.87359
4.87385
4.8746
4.87576
4.87721
4.87892
4.8806
4.88327
4.92833
4.92893
4.92956
4.92974
4.92961
4.92922
4.92836
4.92734
4.92427
4.92835
5.13055
5.12844
5.12887
5.12988
5.13206
5.13515
5.13852
5.14173
5.14192
5.14777
6.08044
6.08018
6.08008
6.08016
6.0804
6.08079
6.08129
6.08178
6.08217
6.08262
5.70246
5.70266
5.70272
5.70274
5.70273
5.70271
5.70268
5.70264
5.70259
5.70239
4.94586
4.94643
4.94663
4.94678
4.94681
4.94679
4.94677
4.94681
4.94742
4.94735
4.87918
4.87931
4.87928
4.87928
4.87935
4.87951
4.87971
4.87995
4.88036
4.88089
4.8586
4.85856
4.85859
4.85856
4.85848
4.85837
4.85825
4.8582
4.85833
4.85898
4.858
4.85761
4.8574
4.85739
4.85757
4.8579
4.85834
4.85883
4.85933
4.85988
4.85693
4.85677
4.85668
4.85668
4.85675
4.85688
4.85704
4.85721
4.85735
4.85782
4.87004
4.86928
4.86911
4.86927
4.86974
4.87046
4.87136
4.87243
4.87356
4.87574
4.91694
4.91725
4.91773
4.91788
4.91779
4.91749
4.91684
4.91602
4.91353
4.91678
5.1183
5.11689
5.11729
5.11821
5.11998
5.12242
5.125
5.12723
5.12664
5.13136
5.78558
5.78544
5.78539
5.78543
5.78555
5.78575
5.786
5.78622
5.78638
5.78662
5.4271
5.42726
5.4273
5.42731
5.4273
5.42729
5.42727
5.42725
5.42721
5.42705
4.9401
4.94064
4.94096
4.94116
4.94121
4.94114
4.94102
4.94094
4.94139
4.94181
4.87742
4.8773
4.8772
4.87716
4.87722
4.87736
4.87756
4.87781
4.87813
4.87881
4.85913
4.85904
4.85903
4.859
4.85894
4.85886
4.85879
4.85876
4.85887
4.85951
4.85837
4.8581
4.85797
4.85795
4.85804
4.85822
4.85847
4.85877
4.85909
4.85951
4.85756
4.85745
4.8574
4.85739
4.85741
4.85746
4.85752
4.85758
4.85764
4.85786
4.86496
4.86447
4.86435
4.86441
4.86465
4.86502
4.86547
4.86601
4.86667
4.86821
4.90322
4.90327
4.90357
4.90363
4.90351
4.90321
4.90268
4.90204
4.9004
4.90277
5.09657
5.09577
5.09611
5.09688
5.0982
5.09998
5.1018
5.10314
5.10211
5.10537
5.48145
5.48138
5.48137
5.48138
5.48142
5.48148
5.48156
5.48162
5.48168
5.4818
5.14226
5.14235
5.14236
5.14236
5.14236
5.14236
5.14236
5.14235
5.14235
5.14228
4.9251
4.92555
4.9261
4.9264
4.92647
4.92637
4.92613
4.92581
4.92558
4.92651
4.87414
4.8738
4.87361
4.87351
4.87352
4.87363
4.87381
4.87406
4.87438
4.87498
4.85938
4.85929
4.85926
4.85924
4.85921
4.85918
4.85915
4.85915
4.85923
4.85967
4.85908
4.85894
4.85887
4.85886
4.8589
4.85898
4.8591
4.85924
4.85941
4.85965
4.85859
4.85855
4.85852
4.85852
4.85851
4.85852
4.85852
4.85851
4.85852
4.85858
4.86094
4.86073
4.86066
4.86069
4.86078
4.86091
4.86108
4.86126
4.86154
4.86229
4.88662
4.88647
4.88654
4.88649
4.88631
4.886
4.88559
4.88517
4.88458
4.88613
5.04195
5.0416
5.04182
5.04231
5.04309
5.04413
5.04518
5.04579
5.04488
5.04622
5.16811
5.16807
5.16808
5.16808
5.16809
5.16809
5.16809
5.16808
5.16806
5.16813
11.2575
11.3702
11.3237
11.1081
82.8492
84.8426
85.2569
85.8896
142.807
148.127
148.523
147.257
201.998
211.22
211.006
206.701
263.309
276.701
275.415
267.951
331.378
349.344
347.214
338.589
393.676
416.008
413.624
406.315
431.924
457.912
455.994
451.452
345.075
367.453
364.92
363.535
11.464
11.7012
11.545
11.1387
9.70821
9.76601
9.76785
9.72356
76.3034
79.3758
80.0515
80.1216
133.879
144.482
145.441
143.217
192.465
213.646
214.019
208.089
255.303
289.569
288.463
278.523
328.401
378.412
376.647
363.964
398.334
464.539
463.661
450.834
445.043
525.747
526.96
515.94
350.062
421.872
420.099
415.311
10.7006
10.93
10.8593
10.639
8.77109
8.78357
8.78222
8.77065
26.6456
29.0138
28.2436
25.7256
49.4426
53.7325
52.006
47.3347
74.5269
81.1102
77.9183
70.432
103.224
112.528
107.277
96.2563
139.051
152.124
144.466
128.662
176.779
193.801
183.622
162.703
207.025
227.842
215.565
190.115
164.405
181.037
169.516
148.699
9.90173
9.99173
9.96799
9.86883
8.50533
8.50758
8.50808
8.50713
11.5221
11.7497
11.7064
11.5088
21.2702
21.945
21.8525
21.313
32.0082
33.4167
33.1277
31.8243
44.4561
46.7842
46.0772
43.5801
60.5127
64.1484
62.7824
58.5073
77.8542
82.8097
80.4932
74.1008
92.3454
98.7291
95.3913
86.7496
71.734
76.7639
73.212
65.6313
9.43841
9.48248
9.47913
9.43879
8.32617
8.32707
8.32724
8.32661
7.0665
7.14815
7.16727
7.13746
11.7102
11.9815
12.05
11.9649
16.8842
17.4618
17.5426
17.2805
22.8238
23.7942
23.8057
23.2108
30.6731
32.2358
32.0947
30.9195
39.1437
41.3038
40.8536
38.8911
46.1555
49.0126
48.1628
45.1993
34.2907
36.4613
35.2495
32.3743
9.08924
9.11299
9.11446
9.09755
8.17601
8.17678
8.17681
8.17607
5.62211
5.63169
5.63385
5.63184
7.47838
7.53621
7.56132
7.56219
9.95157
10.1178
10.1746
10.1503
12.8376
13.1607
13.2336
13.1351
16.7903
17.3788
17.4523
17.1874
21.0215
21.885
21.8887
21.3621
24.436
25.6534
25.532
24.597
17.4255
18.3005
17.934
16.9287
8.80482
8.81663
8.81892
8.8128
8.02552
8.0263
8.02632
8.02557
5.20732
5.20808
5.20728
5.20599
5.83834
5.84819
5.85293
5.85454
6.92702
6.9717
6.99154
6.99241
8.2686
8.37067
8.40818
8.39825
10.2412
10.4572
10.5187
10.4691
12.358
12.6925
12.7523
12.6309
14.0407
14.5476
14.5832
14.315
10.1936
10.5239
10.4393
10.1455
8.55838
8.5638
8.56585
8.56448
7.86775
7.86854
7.86857
7.86785
5.0708
5.07056
5.06956
5.06837
5.2432
5.24244
5.24181
5.2421
5.69384
5.70224
5.7061
5.70724
6.27481
6.3007
6.31193
6.31298
7.2044
7.27566
7.30231
7.29525
8.22233
8.339
8.3738
8.35221
9.06818
9.2656
9.30489
9.23512
7.32301
7.43466
7.42618
7.35813
8.33124
8.33351
8.33496
8.33521
7.70031
7.70108
7.70113
7.70045
5.01902
5.01906
5.01834
5.01722
5.02696
5.02533
5.02424
5.02409
5.21142
5.21178
5.2117
5.21194
5.46209
5.46674
5.46875
5.46954
5.88888
5.91054
5.91931
5.91813
6.36521
6.40022
6.41332
6.41143
6.80859
6.88034
6.90067
6.88271
6.18889
6.22309
6.22658
6.21493
8.10881
8.1096
8.1105
8.11108
7.52244
7.52319
7.52324
7.52259
4.99578
4.99605
4.99554
4.9945
4.94328
4.94216
4.9414
4.94122
5.01457
5.0138
5.01322
5.01321
5.12798
5.12805
5.12788
5.12806
5.32921
5.33608
5.33866
5.33786
5.56374
5.57254
5.57628
5.57691
5.81613
5.84241
5.85074
5.84427
5.69303
5.70108
5.70354
5.70374
7.88385
7.88397
7.88448
7.88502
7.33374
7.33445
7.3345
7.3339
4.98313
4.98351
4.98313
4.98217
4.90893
4.90828
4.90782
4.90766
4.92893
4.92834
4.92792
4.92788
4.98317
4.98271
4.98232
4.98228
5.08065
5.08352
5.08437
5.08354
5.2089
5.21063
5.21141
5.21186
5.36796
5.37916
5.38235
5.37815
5.45136
5.45084
5.45146
5.45352
7.6531
7.65296
7.65323
7.65364
7.13399
7.13465
7.1347
7.13415
4.97475
4.97517
4.97486
4.97396
4.89417
4.89381
4.89352
4.89339
4.88983
4.88951
4.88928
4.88925
4.9175
4.91721
4.91696
4.91688
4.96456
4.96627
4.96669
4.96594
5.04382
5.04397
5.04403
5.04421
5.15491
5.16106
5.1623
5.15868
5.32426
5.32124
5.32085
5.32275
7.41478
7.41459
7.41473
7.415
6.92306
6.92366
6.9237
6.92319
4.96827
4.96869
4.96843
4.96759
4.88759
4.8874
4.88722
4.88708
4.87155
4.87143
4.87132
4.87129
4.88699
4.88689
4.88677
4.8867
4.90885
4.91009
4.91038
4.90976
4.96433
4.96428
4.96424
4.96428
5.04993
5.05418
5.05469
5.05139
5.25384
5.25049
5.24971
5.25105
7.16777
7.16764
7.16771
7.16783
6.70086
6.7014
6.70143
6.70096
4.9628
4.9632
4.96296
4.96217
4.8846
4.88451
4.88439
4.88424
4.86311
4.8631
4.86306
4.86302
4.87265
4.87265
4.87261
4.87256
4.88196
4.88291
4.88313
4.88263
4.92519
4.92525
4.92525
4.9252
4.99712
5.00052
5.00073
4.99765
5.21299
5.21009
5.20922
5.20993
6.91128
6.91128
6.91131
6.9113
6.4674
6.46786
6.46787
6.46746
4.95798
4.95833
4.9581
4.95737
4.88325
4.88323
4.88314
4.88298
4.85954
4.8596
4.8596
4.85953
4.86587
4.86591
4.86591
4.86588
4.86909
4.8698
4.86995
4.86956
4.90521
4.90542
4.90547
4.90533
4.96964
4.97262
4.97268
4.96973
5.18775
5.18564
5.18482
5.18485
6.64485
6.64499
6.645
6.64488
6.22279
6.22316
6.22315
6.2228
4.95367
4.95396
4.95374
4.95306
4.88265
4.88268
4.88261
4.88244
4.85852
4.85862
4.85862
4.85853
4.86262
4.86267
4.86269
4.86269
4.863
4.86351
4.86361
4.8633
4.8939
4.89426
4.89434
4.89411
4.95367
4.95646
4.95644
4.95353
5.1704
5.16926
5.16857
5.16788
6.36826
6.36854
6.36855
6.36832
5.96736
5.96763
5.9676
5.9673
4.9498
4.95003
4.94983
4.94923
4.88225
4.88236
4.88231
4.8821
4.8588
4.85892
4.85892
4.85881
4.86102
4.86107
4.8611
4.86112
4.86012
4.86046
4.86052
4.86029
4.88588
4.88636
4.88644
4.88612
4.94147
4.94423
4.94419
4.94128
5.15595
5.15592
5.15541
5.15398
6.08163
6.08203
6.08204
6.08175
5.7018
5.70196
5.70189
5.70167
4.94626
4.94648
4.94632
4.94579
4.88154
4.88176
4.88174
4.8815
4.85957
4.85969
4.85967
4.85955
4.86019
4.86025
4.86029
4.86033
4.85878
4.85899
4.85903
4.85889
4.87835
4.87887
4.87895
4.87859
4.92827
4.93103
4.93102
4.92817
5.13963
5.14089
5.14066
5.13842
5.78552
5.78599
5.78601
5.78568
5.42704
5.42704
5.42696
5.42683
4.94184
4.94224
4.94214
4.94156
4.87981
4.88014
4.88017
4.87993
4.8601
4.86021
4.86018
4.86005
4.85983
4.85989
4.85994
4.85997
4.85837
4.85848
4.8585
4.85843
4.8704
4.87088
4.87094
4.87061
4.91123
4.91364
4.91366
4.91124
5.11271
5.11552
5.11562
5.11248
5.48081
5.48134
5.48137
5.48102
5.14294
5.14272
5.14263
5.14268
4.9282
4.92903
4.92895
4.92796
4.87567
4.87594
4.87602
4.87588
4.86009
4.86016
4.86012
4.86002
4.85991
4.85997
4.86001
4.86002
4.85879
4.85884
4.85885
4.85882
4.86355
4.86384
4.86388
4.86368
4.89009
4.89121
4.89121
4.89006
5.05006
5.05393
5.05427
5.05054
5.16763
5.16819
5.16821
5.16783
10.1061
9.36219
9.05042
8.93785
8.87302
8.82728
8.79678
8.77956
8.77033
8.7651
103.545
49.0435
35.6736
29.847
24.4511
19.8647
16.3033
13.6538
11.7646
10.412
160.42
70.639
50.9457
43.5675
37.0243
31.2878
26.4923
22.6483
19.6321
17.2719
205.47
82.3072
55.7741
46.4994
39.1367
32.5734
27.0805
22.7323
19.3785
16.8191
240.626
88.461
58.5795
47.7014
39.8052
32.4952
26.4877
21.8193
18.2793
15.6737
276.614
94.1506
60.6799
48.0019
39.5321
31.5142
25.1432
20.3189
16.7885
14.2827
305.638
97.5977
61.3686
47.4497
38.6959
30.2232
23.7227
18.9254
15.5034
13.1669
313.965
93.2516
56.3337
41.9265
33.6041
25.5402
19.7524
15.6906
12.9876
11.2081
223.62
55.8103
30.3779
20.9854
16.1704
12.1516
9.91197
8.58945
7.79246
7.27868
9.56146
9.53466
9.37982
9.35368
9.30749
9.28179
9.26147
9.25073
9.24353
9.23743
9.36019
9.05109
8.89912
8.81344
8.75936
8.7236
8.70037
8.68656
8.67936
8.67505
53.0929
28.7253
22.5996
19.4551
16.6575
14.1833
12.1533
10.5994
9.46785
8.67933
89.7507
46.2364
35.7912
30.9798
27.1309
23.4656
20.2639
17.625
15.5131
13.9015
121.7
58.4233
42.7598
35.5179
30.4334
25.6654
21.6212
18.3768
15.8519
13.9842
151.698
68.4414
47.6618
38.3402
32.205
26.5207
21.8554
18.2142
15.4351
13.4536
185.475
78.4501
51.8784
40.2384
33.0275
26.4725
21.3048
17.3944
14.5291
12.5627
216.124
85.9713
54.391
40.9646
33.0791
25.9496
20.5302
16.5498
13.7041
11.8232
232.21
86.261
51.6042
37.2126
29.3243
22.3808
17.4388
14.001
11.7188
10.2675
166.719
54.4265
28.8805
19.2533
14.5981
11.1653
9.23849
8.11014
7.42399
7.00156
9.80773
9.49159
9.32126
9.2584
9.20404
9.17126
9.14755
9.13311
9.12293
9.11425
8.7314
8.69021
8.65735
8.62993
8.60849
8.59295
8.58262
8.57648
8.57326
8.57118
19.9932
16.6353
14.5439
12.7069
11.1269
9.81996
8.80611
8.06046
7.52516
7.15372
35.9234
28.7467
24.9403
21.687
18.9075
16.5035
14.5175
12.9246
11.6592
10.7019
50.938
37.885
31.4783
26.283
22.1996
18.7935
16.0671
13.9361
12.2932
11.092
65.9084
45.5385
36.4831
29.4588
24.2613
20.0303
16.744
14.2469
12.3583
11.0252
82.8977
53.0975
40.9234
31.8907
25.5703
20.5313
16.7483
13.9602
11.9413
10.5715
98.68
58.8581
43.863
33.2119
26.1299
20.5467
16.4862
13.5838
11.5312
10.1859
107.94
59.4019
42.3044
30.7569
23.569
18.0777
14.3328
11.8036
10.1436
9.09151
75.5381
36.4028
23.7027
16.1596
12.1504
9.63783
8.26451
7.45862
6.95709
6.64403
9.56047
9.36677
9.23363
9.15441
9.09741
9.06189
9.03721
9.02041
9.00797
8.9974
8.50259
8.49265
8.48153
8.47149
8.46388
8.45873
8.45555
8.45398
8.45377
8.45365
10.9691
10.1718
9.31504
8.46118
7.74787
7.2021
6.80267
6.51598
6.30924
6.16483
19.8831
18.0616
16.1993
14.3168
12.6982
11.3716
10.3151
9.48638
8.83398
8.34302
28.447
24.6146
21.161
17.9575
15.3751
13.3116
11.6983
10.4569
9.50935
8.82315
37.1509
30.5768
25.3353
20.778
17.2977
14.5876
12.5282
10.9911
9.83854
9.02815
47.3137
36.8062
29.3625
23.2235
18.7574
15.361
12.8623
11.0557
9.76154
8.8868
56.8309
41.8307
32.3247
24.828
19.6176
15.7298
12.9597
11.0217
9.6618
8.76783
62.5129
42.9803
31.8403
23.5214
18.0969
14.2141
11.6231
9.91052
8.78965
8.07072
42.4879
26.009
17.8363
12.7049
9.97069
8.36123
7.4568
6.91083
6.5573
6.33132
9.3166
9.17868
9.07231
9.00331
8.95565
8.92443
8.90202
8.88594
8.87379
8.86364
8.32664
8.32521
8.32366
8.32243
8.3217
8.32141
8.32147
8.322
8.32321
8.32455
7.01525
6.78043
6.52401
6.28122
6.07989
5.92186
5.80114
5.71035
5.64236
5.59505
11.624
10.9492
10.1704
9.38767
8.6992
8.12788
7.67157
7.31445
7.03079
6.81597
16.4309
14.9545
13.366
11.8486
10.5643
9.51896
8.69677
8.06557
7.58452
7.2381
21.4959
18.888
16.305
13.9647
12.0767
10.5895
9.45791
8.61928
7.98866
7.54359
27.6903
23.3444
19.407
16.0033
13.3814
11.3793
9.90716
8.85101
8.09422
7.58078
33.6041
27.2179
21.9103
17.5203
14.2915
11.8961
10.1942
9.01486
8.18163
7.62646
37.2208
28.5852
22.0832
17.023
13.5471
11.1028
9.47684
8.40626
7.69571
7.23001
24.3692
17.197
12.7151
9.89919
8.32933
7.38575
6.82024
6.46336
6.22058
6.06216
9.04351
8.96092
8.88996
8.83944
8.80247
8.77602
8.75609
8.74111
8.72953
8.71999
8.17682
8.17702
8.17737
8.17792
8.17864
8.17944
8.18028
8.18133
8.1829
8.18486
5.61838
5.57692
5.52378
5.46963
5.42105
5.3798
5.34615
5.3198
5.3003
5.28807
7.51489
7.329
7.07813
6.8164
6.58053
6.38297
6.22454
6.09949
5.99627
5.91598
9.97795
9.47485
8.84972
8.22584
7.67893
7.22731
6.86855
6.59022
6.37495
6.21978
12.7213
11.7532
10.6355
9.57699
8.69067
7.9857
7.44649
7.04481
6.73566
6.51406
16.2931
14.5563
12.6969
11.0153
9.66631
8.62807
7.86011
7.3056
6.90118
6.62367
19.7972
17.1483
14.4897
12.1964
10.4383
9.12995
8.19484
7.54305
7.07013
6.74761
22.0195
18.2887
14.8835
12.1429
10.1857
8.81104
7.88536
7.26576
6.84191
6.55699
14.3032
11.4538
9.37009
8.01617
7.19473
6.66847
6.3276
6.10187
5.94014
5.83322
8.78954
8.74381
8.70008
8.66503
8.63705
8.61532
8.59815
8.58474
8.57412
8.56549
8.02642
8.02681
8.02736
8.0281
8.02894
8.0298
8.03065
8.03165
8.03313
8.03501
5.20379
5.19588
5.18506
5.17332
5.16192
5.15141
5.14239
5.13539
5.13113
5.13001
5.84669
5.80263
5.73889
5.67066
5.60801
5.55476
5.51163
5.47689
5.44544
5.41949
6.95431
6.79677
6.58671
6.37019
6.17422
6.00743
5.87037
5.76017
5.67207
5.6085
8.29552
7.95587
7.5336
7.12275
6.76925
6.4822
6.25725
6.08504
5.94574
5.84319
10.2093
9.52859
8.7413
8.0093
7.40454
6.93044
6.57121
6.30419
6.10214
5.96146
12.1594
11.0732
9.8738
8.81097
7.9704
7.3351
6.87029
6.53747
6.28419
6.10611
13.4676
11.8745
10.2735
8.95275
7.97552
7.27566
6.78842
6.45021
6.20912
6.04321
9.37743
8.3384
7.47377
6.8635
6.44938
6.16196
5.96101
5.82168
5.71649
5.64663
8.55502
8.53076
8.50437
8.4804
8.45961
8.44233
8.42807
8.41653
8.40716
8.39966
7.86866
7.86898
7.8694
7.86996
7.8706
7.87125
7.87186
7.87261
7.87383
7.87547
5.0682
5.06604
5.06316
5.06007
5.0569
5.05377
5.05106
5.04923
5.04906
5.05065
5.24149
5.23349
5.22085
5.20707
5.19444
5.18398
5.17607
5.16993
5.16261
5.15567
5.69944
5.656
5.59452
5.52817
5.46491
5.40801
5.35858
5.31676
5.28213
5.25758
6.28962
6.18584
6.04981
5.91252
5.78918
5.68445
5.59855
5.52987
5.47024
5.42494
7.21989
6.97776
6.68651
6.40626
6.16488
5.96738
5.81043
5.68805
5.59106
5.52303
8.21667
7.80995
7.33461
6.89995
6.54181
6.26028
6.04462
5.88324
5.75254
5.65761
8.95966
8.32758
7.65952
7.08827
6.64447
6.31204
6.06836
5.89101
5.75896
5.66669
7.15983
6.79689
6.45009
6.17608
5.96847
5.8127
5.69598
5.61164
5.54453
5.50016
8.33107
8.31792
8.3018
8.28557
8.27049
8.25721
8.2458
8.23626
8.22832
8.22204
7.70121
7.70143
7.70171
7.70208
7.70251
7.70292
7.70329
7.70377
7.70471
7.70608
5.0173
5.01592
5.01443
5.01301
5.01159
5.01017
5.00898
5.00839
5.00903
5.01085
5.0242
5.02298
5.02116
5.01951
5.0185
5.01835
5.01919
5.02042
5.02
5.01888
5.21019
5.1981
5.18028
5.16007
5.13961
5.12001
5.10192
5.0858
5.07216
5.06296
5.46421
5.4347
5.39457
5.35218
5.31185
5.27557
5.24422
5.21798
5.19307
5.17344
5.89423
5.81327
5.71449
5.6145
5.52302
5.44347
5.37643
5.32127
5.27559
5.24381
6.37558
6.23873
6.06978
5.90703
5.7642
5.64494
5.54809
5.47193
5.40583
5.3562
6.79183
6.55866
6.30407
6.07321
5.8816
5.72914
5.61088
5.5206
5.45067
5.40164
6.16372
6.03213
5.89046
5.76526
5.66084
5.57668
5.50957
5.45927
5.41701
5.38946
8.10885
8.10148
8.09159
8.08078