/*--------------------------------*- C++ -*----------------------------------*\
| =========                 |                                                 |
| \\      /  F ield         | foam-extend: Open Source CFD                    |
|  \\    /   O peration     | Version:     4.0                                |
|   \\  /    A nd           | Web:         http://www.foam-extend.org         |
|    \\/     M anipulation  |                                                 |
\*---------------------------------------------------------------------------*/
FoamFile
{
    version     2.0;
    format      ascii;
    class       volScalarField;
    location    "950";
    object      MaU;
}
// * * * * * * * * * * * * * * * * * * * * * * * * * * * * * * * * * * * * * //

dimensions      [0 0 0 0 0 0 0];

internalField   nonuniform List<scalar> 
34480
(
0.62137
0.622398
0.62297
0.623127
0.622871
0.622131
0.620766
0.618098
0.612088
0.606404
0.624844
0.625733
0.626246
0.626327
0.625814
0.624567
0.622611
0.619692
0.612699
0.607205
0.627162
0.627989
0.628413
0.628363
0.627669
0.626366
0.624644
0.622409
0.615423
0.610408
0.627254
0.628105
0.628601
0.62869
0.628233
0.627351
0.62615
0.624662
0.618108
0.613621
0.627786
0.628747
0.629391
0.629713
0.629593
0.629205
0.628566
0.62787
0.622134
0.618175
0.627424
0.628456
0.6292
0.629671
0.629804
0.629832
0.629737
0.629872
0.62534
0.622234
0.62766
0.628848
0.629716
0.630342
0.630697
0.631071
0.631469
0.632421
0.629344
0.627067
0.627127
0.628367
0.629205
0.629727
0.629972
0.630298
0.630839
0.632317
0.63075
0.629682
0.627017
0.6284
0.629347
0.629998
0.630408
0.63088
0.631652
0.633604
0.633296
0.632167
0.623284
0.624412
0.624559
0.623791
0.622261
0.620346
0.618507
0.618035
0.617362
0.618475
0.611662
0.613142
0.61374
0.613525
0.61242
0.610149
0.606085
0.598871
0.588221
0.574424
0.616307
0.617667
0.618235
0.618015
0.616814
0.614261
0.60976
0.601944
0.589295
0.573142
0.619467
0.620751
0.621268
0.621013
0.619738
0.617141
0.612718
0.605081
0.591613
0.574332
0.620345
0.621641
0.622226
0.622113
0.621057
0.61882
0.614817
0.607642
0.593834
0.576196
0.621527
0.622903
0.623612
0.623718
0.622976
0.621206
0.617742
0.611234
0.597561
0.580133
0.621678
0.623109
0.623913
0.624171
0.623678
0.622335
0.619426
0.613718
0.600622
0.584025
0.62234
0.623891
0.624806
0.625222
0.624956
0.62399
0.621617
0.616767
0.604614
0.589129
0.62211
0.6237
0.624595
0.624938
0.624622
0.623716
0.621628
0.617487
0.606522
0.592758
0.622226
0.623911
0.624894
0.625346
0.6252
0.624516
0.622804
0.619391
0.609674
0.596749
0.618675
0.620178
0.62061
0.620047
0.618529
0.616208
0.612815
0.608091
0.598833
0.589043
0.604176
0.605752
0.606334
0.606037
0.604824
0.602535
0.598872
0.593335
0.585285
0.575098
0.609093
0.610671
0.611262
0.610918
0.609519
0.606801
0.602251
0.595003
0.583584
0.56834
0.612494
0.614079
0.614669
0.614323
0.612864
0.609972
0.605026
0.596888
0.582866
0.56299
0.613843
0.615488
0.616157
0.615932
0.614613
0.611878
0.606949
0.598419
0.582295
0.558381
0.615479
0.617215
0.618001
0.617969
0.616893
0.61448
0.609808
0.601286
0.583707
0.556568
0.616029
0.617832
0.618716
0.618831
0.61797
0.615891
0.611573
0.603347
0.584914
0.555458
0.617037
0.618945
0.619932
0.620205
0.619555
0.617807
0.613901
0.606157
0.587436
0.556363
0.617091
0.619032
0.620015
0.620242
0.619569
0.617907
0.614267
0.60705
0.58855
0.556677
0.617445
0.619441
0.620491
0.620804
0.620254
0.618775
0.615486
0.608922
0.591061
0.557833
0.614125
0.615955
0.616597
0.616153
0.614594
0.611922
0.60748
0.600138
0.582823
0.550022
0.598714
0.600093
0.600575
0.600283
0.59921
0.597297
0.594446
0.590557
0.585604
0.580064
0.603359
0.60486
0.605396
0.605012
0.603637
0.601121
0.597211
0.591552
0.583679
0.574628
0.606583
0.608212
0.608788
0.608377
0.606855
0.603996
0.599369
0.592337
0.581713
0.568664
0.608113
0.609876
0.610542
0.610203
0.608699
0.605757
0.600756
0.592753
0.579516
0.562248
0.609999
0.61189
0.612667
0.612473
0.611105
0.608278
0.603187
0.594621
0.579174
0.557971
0.610825
0.612808
0.613682
0.61361
0.612384
0.609737
0.604714
0.595907
0.578697
0.554068
0.612094
0.614182
0.61515
0.615218
0.614157
0.611736
0.606902
0.598105
0.579641
0.552117
0.612391
0.614513
0.615487
0.615526
0.614449
0.612081
0.607378
0.598754
0.579611
0.549871
0.612949
0.615099
0.616125
0.616235
0.615259
0.61302
0.608497
0.600203
0.581033
0.548803
0.609868
0.611867
0.612608
0.61218
0.610499
0.607443
0.60215
0.593245
0.574265
0.540849
0.594914
0.595998
0.596365
0.596137
0.595334
0.593962
0.592036
0.589623
0.58687
0.584141
0.598999
0.60027
0.600721
0.600383
0.599225
0.597194
0.594214
0.590253
0.58535
0.580426
0.601751
0.603261
0.603791
0.603395
0.602002
0.599488
0.595634
0.590215
0.582927
0.575169
0.603197
0.604923
0.605559
0.605186
0.603692
0.600888
0.596383
0.589712
0.579924
0.568787
0.60511
0.607021
0.607771
0.607492
0.60602
0.603128
0.598232
0.590622
0.578479
0.563809
0.606054
0.6081
0.608953
0.608763
0.607348
0.604461
0.599351
0.591091
0.576831
0.558725
0.607462
0.609635
0.61058
0.610504
0.60919
0.606399
0.601235
0.592585
0.576566
0.555243
0.607926
0.610146
0.61111
0.611015
0.609678
0.606881
0.601677
0.592846
0.575569
0.551441
0.608639
0.610879
0.611883
0.611845
0.61058
0.607866
0.602712
0.593847
0.575943
0.548786
0.605777
0.607881
0.608691
0.608275
0.606524
0.603245
0.597565
0.588173
0.570044
0.540819
0.592303
0.593106
0.593367
0.59321
0.592664
0.59176
0.590546
0.589114
0.587597
0.586139
0.59579
0.596773
0.597124
0.596859
0.595974
0.594468
0.592361
0.589741
0.586792
0.584074
0.597956
0.599239
0.599691
0.59935
0.598183
0.596143
0.593171
0.589273
0.584539
0.57997
0.599153
0.600712
0.601284
0.600926
0.599569
0.597111
0.593366
0.5882
0.581406
0.574466
0.600921
0.60272
0.60341
0.603099
0.601665
0.598957
0.594628
0.588368
0.579462
0.569824
0.601846
0.603828
0.604629
0.604369
0.602906
0.600049
0.595289
0.588136
0.577173
0.56469
0.603283
0.605425
0.606319
0.606143
0.60471
0.601815
0.596791
0.588965
0.576139
0.560787
0.603829
0.606041
0.606967
0.606774
0.605298
0.602325
0.597101
0.588813
0.574494
0.556434
0.604643
0.606884
0.607844
0.607694
0.606257
0.603309
0.598017
0.589432
0.57414
0.553127
0.601968
0.604087
0.604923
0.604514
0.602744
0.599402
0.59372
0.584639
0.568847
0.545626
0.590492
0.591077
0.591255
0.591157
0.59081
0.590251
0.589524
0.588704
0.587872
0.58704
0.593461
0.59417
0.594427
0.594238
0.593608
0.592564
0.591156
0.589492
0.587741
0.586209
0.595049
0.596064
0.596425
0.596157
0.595247
0.593697
0.591531
0.588849
0.585855
0.583152
0.595925
0.597243
0.597729
0.597418
0.596273
0.594258
0.591324
0.58752
0.582968
0.578675
0.597437
0.599032
0.599639
0.599337
0.598044
0.595681
0.592084
0.587203
0.580934
0.574708
0.59824
0.600058
0.600781
0.600498
0.599104
0.596478
0.592325
0.58647
0.578414
0.57002
0.599617
0.601629
0.602448
0.602217
0.600788
0.598009
0.593445
0.586773
0.576992
0.566286
0.600162
0.602272
0.603135
0.602884
0.601383
0.598458
0.593573
0.586267
0.575006
0.562
0.601029
0.603186
0.604082
0.603861
0.602366
0.599407
0.594358
0.586598
0.574254
0.558737
0.5985
0.600551
0.601374
0.600977
0.599253
0.596007
0.59064
0.582402
0.569418
0.551971
0.589195
0.589629
0.589749
0.589691
0.589482
0.589151
0.588728
0.588266
0.587802
0.587272
0.591768
0.592253
0.592431
0.592304
0.591881
0.591192
0.59029
0.58926
0.588222
0.587321
0.59285
0.593607
0.59388
0.593682
0.593012
0.591896
0.590386
0.588601
0.586728
0.585101
0.59341
0.594461
0.594853
0.594603
0.593693
0.592129
0.589938
0.587238
0.584246
0.581588
0.594615
0.595955
0.596466
0.596199
0.595103
0.593155
0.590313
0.58666
0.582357
0.578367
0.595236
0.596822
0.59745
0.597175
0.595931
0.593655
0.590218
0.585632
0.579886
0.574318
0.596491
0.598298
0.599023
0.598774
0.597442
0.594935
0.59101
0.585581
0.57837
0.571042
0.596964
0.598893
0.599673
0.599398
0.597968
0.595261
0.590943
0.584817
0.576286
0.567147
0.597847
0.599846
0.600659
0.600402
0.598947
0.596153
0.591602
0.584955
0.575389
0.564299
0.595422
0.597332
0.598109
0.597733
0.596115
0.5931
0.588272
0.581169
0.570943
0.558354
0.588225
0.588561
0.588642
0.588611
0.588489
0.588298
0.588058
0.587799
0.587533
0.58716
0.590518
0.590836
0.590954
0.590872
0.590601
0.590163
0.589602
0.588977
0.588359
0.587805
0.591188
0.591725
0.591921
0.591782
0.591313
0.590542
0.589528
0.588371
0.587208
0.58621
0.591482
0.592281
0.592583
0.592392
0.591705
0.590546
0.588972
0.587113
0.585171
0.583517
0.592377
0.593451
0.593862
0.593641
0.592761
0.59123
0.589077
0.586433
0.58353
0.580984
0.592793
0.594115
0.594639
0.594395
0.593342
0.591467
0.588744
0.58528
0.581266
0.577611
0.593896
0.595452
0.596073
0.595833
0.594659
0.592511
0.589287
0.585037
0.579849
0.574906
0.594244
0.595937
0.596618
0.596347
0.595056
0.592676
0.589035
0.584109
0.577826
0.571528
0.59512
0.596903
0.597619
0.597357
0.596016
0.593511
0.589599
0.584151
0.576967
0.569241
0.592763
0.594472
0.595178
0.594834
0.593372
0.590687
0.586525
0.580661
0.572875
0.564073
0.587465
0.587739
0.587796
0.58778
0.58771
0.587602
0.587467
0.587322
0.587164
0.586875
0.589569
0.589771
0.589847
0.589796
0.589627
0.589358
0.589016
0.588641
0.58827
0.587912
0.589918
0.590283
0.590416
0.590323
0.590006
0.589494
0.588833
0.588099
0.587382
0.586758
0.590021
0.590602
0.590825
0.590687
0.590189
0.589363
0.588269
0.58702
0.585773
0.58474
0.59063
0.591454
0.591771
0.591599
0.590923
0.589769
0.588195
0.586335
0.584405
0.582787
0.590849
0.591906
0.592326
0.592122
0.591273
0.589794
0.587716
0.58518
0.582424
0.580045
0.591798
0.593086
0.593597
0.593385
0.5924
0.590641
0.588095
0.58488
0.58122
0.577926
0.591983
0.593411
0.593984
0.593737
0.592626
0.590627
0.587679
0.583861
0.579341
0.575073
0.592846
0.59438
0.594991
0.594744
0.593568
0.591422
0.588196
0.583898
0.578641
0.573371
0.590526
0.591997
0.592615
0.59231
0.591039
0.588742
0.585292
0.580632
0.574872
0.568875
0.586844
0.587079
0.587121
0.587114
0.587074
0.587014
0.586938
0.586857
0.586758
0.586517
0.588828
0.588953
0.589
0.58897
0.588867
0.588704
0.5885
0.588276
0.58805
0.587807
0.588926
0.589164
0.58925
0.589189
0.588983
0.588652
0.588233
0.587776
0.587338
0.586942
0.588918
0.589324
0.589483
0.589388
0.589041
0.588471
0.587732
0.58691
0.586117
0.585471
0.589281
0.589888
0.590124
0.589995
0.589496
0.588658
0.587543
0.586267
0.585002
0.58398
0.58933
0.590142
0.590466
0.590305
0.589648
0.588525
0.586993
0.585187
0.583324
0.581791
0.590142
0.591168
0.591576
0.591399
0.590609
0.589225
0.587285
0.584924
0.582388
0.580218
0.59014
0.591299
0.591765
0.591552
0.590637
0.589026
0.586726
0.583862
0.580677
0.577831
0.591003
0.592276
0.592779
0.592563
0.591576
0.589814
0.587252
0.583975
0.580215
0.576683
0.588695
0.589912
0.590432
0.590174
0.58911
0.587219
0.584461
0.580885
0.57673
0.572737
0.586323
0.586533
0.586564
0.586562
0.58654
0.586506
0.586463
0.586417
0.586352
0.586141
0.588235
0.588311
0.58834
0.588322
0.588261
0.588164
0.588042
0.587908
0.587769
0.587598
0.58813
0.588277
0.58833
0.58829
0.58816
0.587952
0.587691
0.587413
0.58715
0.586897
0.588087
0.588362
0.588472
0.588408
0.588174
0.587792
0.587304
0.586773
0.586275
0.585872
0.588243
0.588674
0.588843
0.588751
0.588395
0.587806
0.587038
0.586182
0.585366
0.584729
0.588161
0.588761
0.589003
0.588881
0.588393
0.58757
0.586473
0.585219
0.583979
0.583003
0.588865
0.589654
0.589968
0.589829
0.589219
0.588171
0.58674
0.585053
0.583325
0.581913
0.588664
0.589568
0.589934
0.589759
0.589036
0.587786
0.586052
0.583969
0.581768
0.579901
0.589554
0.590574
0.590975
0.590796
0.590001
0.58861
0.586647
0.584225
0.581592
0.57926
0.587238
0.588204
0.588626
0.588415
0.587557
0.586057
0.58393
0.581273
0.578346
0.575744
0.585879
0.586069
0.586093
0.586094
0.586081
0.586062
0.586038
0.586011
0.585967
0.585776
0.587758
0.587803
0.587821
0.58781
0.587774
0.587716
0.587644
0.587564
0.587476
0.587353
0.587467
0.587553
0.587583
0.587557
0.587476
0.587348
0.58719
0.587025
0.586871
0.586713
0.587461
0.587642
0.587716
0.587676
0.587522
0.587273
0.586957
0.586618
0.586309
0.586062
0.587445
0.58774
0.587856
0.587792
0.587547
0.587145
0.58663
0.586069
0.58555
0.585162
0.587271
0.5877
0.587874
0.587786
0.587435
0.586852
0.586089
0.585238
0.584425
0.583815
0.587902
0.588488
0.588722
0.588617
0.588165
0.587398
0.586375
0.5852
0.584043
0.583135
0.587493
0.588172
0.588448
0.588311
0.587761
0.586827
0.585562
0.584089
0.582598
0.581393
0.588453
0.589243
0.589551
0.58941
0.588796
0.587738
0.586284
0.584547
0.58274
0.58122
0.586106
0.586841
0.587172
0.587006
0.58634
0.585194
0.583606
0.581693
0.579678
0.578018
0.585496
0.58567
0.585688
0.58569
0.585683
0.585672
0.585659
0.585643
0.585611
0.585438
0.58738
0.587407
0.587419
0.587412
0.58739
0.587356
0.587312
0.587263
0.587207
0.587118
0.586896
0.586942
0.586956
0.586938
0.586889
0.586812
0.586719
0.586624
0.586539
0.586448
0.586993
0.587109
0.587158
0.587134
0.587036
0.586876
0.586675
0.586463
0.586273
0.586127
0.586829
0.587024
0.587101
0.587058
0.586894
0.586627
0.586291
0.58593
0.585608
0.585381
0.586603
0.586899
0.587021
0.586959
0.586716
0.586315
0.585798
0.585234
0.584709
0.584336
0.587191
0.587611
0.58778
0.587704
0.587381
0.586839
0.586129
0.585332
0.58457
0.583995
0.586564
0.587055
0.587256
0.587153
0.586751
0.586076
0.585181
0.584169
0.583178
0.582416
0.587652
0.588244
0.588472
0.588367
0.58791
0.587135
0.586093
0.584882
0.583667
0.582687
0.585245
0.58578
0.586029
0.585903
0.585406
0.584561
0.583416
0.582079
0.580722
0.579689
0.585159
0.585317
0.58533
0.585333
0.585328
0.585323
0.585315
0.585305
0.585282
0.585126
0.5871
0.587117
0.587125
0.587121
0.587107
0.587086
0.587059
0.587028
0.586991
0.586927
0.586388
0.586407
0.586411
0.586398
0.586368
0.586323
0.58627
0.586219
0.586178
0.586136
0.586649
0.586723
0.586755
0.586741
0.58668
0.58658
0.586454
0.586321
0.586207
0.586127
0.586357
0.586481
0.586531
0.586502
0.586395
0.586224
0.586009
0.585782
0.585586
0.585463
0.586113
0.586311
0.586394
0.586353
0.586189
0.585921
0.58558
0.585214
0.584879
0.584658
0.586677
0.586968
0.587086
0.587033
0.58681
0.586439
0.585961
0.585434
0.584944
0.584584
0.585822
0.586162
0.586303
0.58623
0.585945
0.585474
0.58486
0.584184
0.583536
0.583068
0.587106
0.587537
0.5877
0.587624
0.587298
0.58675
0.586028
0.585206
0.584407
0.583779
0.584588
0.584959
0.585142
0.58505
0.584692
0.584092
0.583291
0.582386
0.581491
0.580868
0.584833
0.584975
0.584983
0.584986
0.584984
0.584981
0.584977
0.584971
0.584955
0.584816
0.586927
0.58694
0.586946
0.586945
0.586936
0.586922
0.586904
0.586882
0.586856
0.586811
0.585924
0.585926
0.585924
0.585915
0.585896
0.58587
0.585842
0.585816
0.585802
0.585798
0.586408
0.586454
0.586476
0.586468
0.586431
0.586369
0.586291
0.586209
0.586142
0.586104
0.586008
0.586084
0.586115
0.586097
0.58603
0.585921
0.585787
0.585648
0.58553
0.585472
0.585773
0.585904
0.585959
0.585933
0.585826
0.585652
0.585432
0.585198
0.584987
0.584861
0.586318
0.586511
0.586589
0.586553
0.586404
0.586159
0.585848
0.585509
0.585202
0.584982
0.585222
0.585449
0.585546
0.585495
0.585302
0.584983
0.584573
0.584132
0.583715
0.583437
0.586783
0.587087
0.587199
0.587148
0.586923
0.586549
0.586065
0.585523
0.585011
0.584608
0.584051
0.584296
0.584426
0.584362
0.584114
0.583702
0.58316
0.582565
0.581986
0.581625
0.584427
0.584548
0.584552
0.584554
0.584553
0.584552
0.58455
0.584548
0.584538
0.58442
0.586892
0.586905
0.586912
0.586911
0.586906
0.586895
0.586881
0.586864
0.586843
0.586809
0.585506
0.5855
0.585496
0.58549
0.585479
0.585464
0.585448
0.585436
0.585437
0.585459
0.586257
0.586285
0.586297
0.586293
0.58627
0.586233
0.586186
0.586137
0.5861
0.58609
0.585775
0.585822
0.585843
0.585832
0.585791
0.585724
0.585641
0.585556
0.585485
0.585463
0.585576
0.585661
0.585698
0.585682
0.585615
0.585504
0.585365
0.585217
0.585085
0.585013
0.586085
0.586207
0.586256
0.586231
0.586135
0.585978
0.585781
0.585571
0.585386
0.585256
0.584762
0.584911
0.584978
0.584945
0.584817
0.584608
0.58434
0.584056
0.583788
0.583627
0.586676
0.586884
0.58696
0.586925
0.586775
0.58653
0.586215
0.585868
0.585549
0.585287
0.583499
0.583654
0.583745
0.583702
0.583536
0.583262
0.582905
0.582525
0.582154
0.581958
0.583721
0.583816
0.583818
0.58382
0.58382
0.58382
0.583821
0.583821
0.583819
0.583726
0.587067
0.587085
0.58709
0.58709
0.587085
0.587078
0.587067
0.587052
0.587034
0.587004
0.585186
0.585181
0.585181
0.585179
0.585173
0.585164
0.585154
0.585145
0.585145
0.585178
0.586183
0.586196
0.586201
0.586197
0.586183
0.586161
0.586135
0.586109
0.586092
0.586098
0.585662
0.585693
0.585708
0.585702
0.585678
0.585637
0.585586
0.585533
0.585489
0.58548
0.585516
0.585572
0.585597
0.585588
0.585546
0.585478
0.585391
0.585298
0.585214
0.585169
0.585966
0.586037
0.586065
0.586048
0.585987
0.585889
0.585769
0.585643
0.585537
0.585466
0.584522
0.584623
0.584671
0.584652
0.58457
0.584435
0.584261
0.584077
0.583896
0.583797
0.586841
0.586977
0.587025
0.587
0.586903
0.586746
0.586547
0.586333
0.586143
0.58597
0.582706
0.582802
0.582865
0.582837
0.582729
0.582551
0.58232
0.582081
0.581837
0.581741
0.582409
0.582475
0.582478
0.582481
0.582482
0.582482
0.582482
0.582481
0.58248
0.582414
0.587599
0.587611
0.587606
0.5876
0.587595
0.587591
0.587588
0.587585
0.58758
0.587556
0.585082
0.585092
0.585103
0.585109
0.585108
0.585101
0.58509
0.585075
0.585061
0.585076
0.586161
0.586162
0.58616
0.586154
0.586144
0.586133
0.586121
0.586111
0.586109
0.586125
0.585657
0.585679
0.58569
0.585688
0.585674
0.585649
0.585617
0.585583
0.585553
0.585544
0.585568
0.585606
0.585623
0.585618
0.585592
0.585548
0.585494
0.585435
0.585381
0.585346
0.585942
0.585981
0.585996
0.585983
0.585944
0.585882
0.585808
0.585734
0.585676
0.585643
0.584659
0.584738
0.584775
0.584765
0.584712
0.584623
0.584508
0.584382
0.58425
0.584164
0.587405
0.587482
0.587509
0.587489
0.587424
0.587322
0.587197
0.587069
0.586968
0.586869
0.581398
0.581463
0.581508
0.58149
0.581418
0.5813
0.581149
0.580993
0.580822
0.580774
0.580585
0.580625
0.580637
0.580645
0.580647
0.580645
0.580638
0.580626
0.580609
0.580555
0.588524
0.588492
0.588461
0.588441
0.588432
0.588434
0.588446
0.588471
0.588509
0.588538
0.585263
0.585297
0.585319
0.585331
0.585333
0.585328
0.585314
0.585292
0.58526
0.585232
0.586149
0.586139
0.586132
0.586125
0.586117
0.586111
0.586106
0.586107
0.586117
0.586141
0.585707
0.585724
0.585732
0.585731
0.585721
0.585704
0.585683
0.58566
0.585639
0.585627
0.585657
0.585683
0.585695
0.585691
0.585672
0.585642
0.585604
0.585565
0.585527
0.5855
0.585952
0.585975
0.585984
0.585974
0.585944
0.5859
0.585848
0.585799
0.585765
0.585754
0.585164
0.585236
0.585268
0.585262
0.585223
0.585158
0.585074
0.584979
0.584871
0.584773
0.588347
0.588376
0.588388
0.58837
0.58832
0.588245
0.588157
0.588074
0.588029
0.588027
0.579692
0.57975
0.579784
0.57977
0.579716
0.579628
0.579517
0.579402
0.579275
0.579233
0.437735
0.416977
0.423795
0.464651
0.389939
0.366666
0.377578
0.434718
0.346986
0.319804
0.336984
0.4158
0.309181
0.279746
0.303898
0.405135
0.277912
0.247805
0.279174
0.40294
0.251032
0.221441
0.261172
0.399678
0.229433
0.201708
0.250214
0.3972
0.209138
0.184942
0.242284
0.395252
0.191285
0.173192
0.238806
0.397047
0.171888
0.161956
0.234574
0.392698
0.49755
0.487346
0.487641
0.497311
0.467026
0.454362
0.455443
0.468063
0.436366
0.419584
0.421713
0.439217
0.407617
0.386589
0.390093
0.412739
0.383189
0.357664
0.362819
0.390803
0.361356
0.33094
0.336748
0.369957
0.343631
0.308234
0.313859
0.35216
0.327314
0.287126
0.29229
0.335579
0.313901
0.269697
0.274406
0.322092
0.298649
0.252039
0.254379
0.304596
0.564767
0.562545
0.562002
0.563118
0.546838
0.543105
0.54238
0.544659
0.526995
0.521049
0.5202
0.524511
0.505008
0.496684
0.495839
0.502647
0.484238
0.473459
0.472782
0.48249
0.463353
0.449985
0.449511
0.462207
0.444575
0.428544
0.428238
0.443875
0.426077
0.407503
0.407334
0.425731
0.409982
0.38974
0.38962
0.409934
0.391216
0.371473
0.37064
0.390462
0.577221
0.576135
0.575781
0.576127
0.567377
0.565933
0.565424
0.565781
0.555593
0.553062
0.552319
0.553215
0.541016
0.537171
0.536238
0.537962
0.526763
0.521465
0.520418
0.523273
0.511354
0.504478
0.503368
0.507612
0.496892
0.488371
0.487243
0.493075
0.481708
0.471622
0.470531
0.478027
0.467668
0.456653
0.455616
0.4644
0.449981
0.44003
0.438738
0.447041
0.584095
0.583501
0.583299
0.583489
0.578017
0.577503
0.577258
0.57727
0.570573
0.569586
0.569143
0.569222
0.560621
0.558931
0.558258
0.558538
0.550806
0.548242
0.547348
0.547996
0.539635
0.536058
0.534968
0.536162
0.52902
0.524345
0.523102
0.525027
0.517353
0.511607
0.510283
0.513081
0.506373
0.499994
0.498672
0.50224
0.491766
0.486549
0.485105
0.488098
0.586678
0.586197
0.586051
0.586242
0.582952
0.582702
0.582579
0.582583
0.577875
0.577406
0.577173
0.577171
0.570772
0.569956
0.569562
0.569577
0.563827
0.562536
0.561952
0.562034
0.555606
0.553717
0.552927
0.553152
0.547871
0.545293
0.544308
0.544782
0.539076
0.535795
0.53467
0.535511
0.530847
0.527139
0.525981
0.527212
0.519063
0.516496
0.515264
0.515807
0.587794
0.587357
0.587234
0.58743
0.58561
0.585475
0.585412
0.585421
0.582065
0.581819
0.581698
0.581701
0.576794
0.57637
0.576155
0.576146
0.571676
0.570998
0.570657
0.570641
0.5654
0.564383
0.563885
0.563879
0.55963
0.558203
0.557537
0.557581
0.552922
0.551058
0.55025
0.550411
0.546953
0.5448
0.543936
0.544268
0.537384
0.536366
0.535457
0.535006
0.588102
0.587679
0.587565
0.587764
0.586917
0.586825
0.586787
0.586805
0.584438
0.584289
0.584222
0.584237
0.580506
0.580262
0.580142
0.580148
0.576677
0.576293
0.576098
0.576089
0.571775
0.571199
0.570901
0.570874
0.567394
0.566579
0.566161
0.566124
0.562192
0.561117
0.560588
0.560572
0.55796
0.556703
0.55611
0.556141
0.55
0.549892
0.549285
0.548499
0.588019
0.587601
0.587491
0.587691
0.587493
0.587421
0.587396
0.587419
0.585753
0.585651
0.585611
0.585633
0.58283
0.582675
0.582606
0.582623
0.579967
0.579736
0.579624
0.57963
0.576123
0.575783
0.575607
0.575594
0.572804
0.572323
0.572069
0.572036
0.568723
0.56809
0.567759
0.567718
0.565732
0.56499
0.564605
0.564559
0.558973
0.559387
0.559015
0.558157
0.587743
0.587326
0.587217
0.587418
0.587647
0.587586
0.587567
0.587593
0.586411
0.586333
0.586308
0.586335
0.584261
0.584154
0.584113
0.584136
0.582128
0.58198
0.581915
0.581931
0.579124
0.578913
0.578808
0.57881
0.576656
0.576363
0.576209
0.576193
0.573427
0.573046
0.572843
0.572812
0.571347
0.570903
0.570659
0.57061
0.565512
0.566212
0.565999
0.565163
0.587383
0.586966
0.586858
0.587058
0.587573
0.587519
0.587505
0.587532
0.586664
0.586602
0.586586
0.586614
0.585116
0.585038
0.585012
0.585039
0.583531
0.583431
0.583393
0.583415
0.581194
0.581058
0.580995
0.581006
0.579419
0.579233
0.579139
0.579135
0.576833
0.576599
0.576474
0.576457
0.575464
0.575192
0.575039
0.575004
0.570345
0.571187
0.571074
0.570287
0.586999
0.586581
0.586473
0.586673
0.587389
0.58734
0.587329
0.587356
0.58667
0.58662
0.58661
0.586638
0.585601
0.585542
0.585526
0.585553
0.584415
0.584346
0.584324
0.584347
0.582607
0.582517
0.58248
0.582494
0.581395
0.581275
0.581217
0.58122
0.579283
0.579136
0.579059
0.579051
0.578493
0.578324
0.578229
0.578206
0.573929
0.574827
0.574774
0.574042
0.586622
0.586203
0.586095
0.586295
0.587168
0.587125
0.587116
0.587142
0.58653
0.58649
0.586484
0.586512
0.585856
0.585811
0.585801
0.585826
0.584945
0.584898
0.584886
0.584908
0.583553
0.583494
0.583471
0.583485
0.582797
0.58272
0.582684
0.582689
0.58101
0.580919
0.580872
0.580868
0.580719
0.580611
0.580552
0.580539
0.576579
0.577476
0.577457
0.576783
0.586265
0.585845
0.585737
0.585938
0.58696
0.586923
0.586916
0.586938
0.586306
0.586277
0.586275
0.5863
0.585975
0.585942
0.585937
0.585958
0.585239
0.585209
0.585204
0.585222
0.58417
0.584133
0.58412
0.58413
0.583779
0.58373
0.583709
0.583712
0.582186
0.582131
0.582102
0.582099
0.582348
0.582278
0.582241
0.582235
0.578517
0.579376
0.579375
0.578762
0.585927
0.585507
0.585401
0.585603
0.586798
0.586768
0.586762
0.58678
0.586037
0.586018
0.586019
0.586041
0.586025
0.586003
0.586001
0.586017
0.585382
0.585366
0.585365
0.585377
0.584564
0.584543
0.584536
0.584541
0.584456
0.584428
0.584415
0.584416
0.582939
0.582908
0.58289
0.582885
0.58354
0.583494
0.583472
0.58347
0.579905
0.580697
0.580704
0.580158
0.585581
0.585161
0.58506
0.585264
0.586713
0.58669
0.586685
0.586698
0.585745
0.585735
0.585739
0.585756
0.586051
0.58604
0.58604
0.586049
0.585441
0.585437
0.585438
0.585443
0.584819
0.58481
0.584806
0.584805
0.584918
0.584906
0.584899
0.584896
0.583374
0.583359
0.583348
0.58334
0.584429
0.584399
0.584385
0.584387
0.580844
0.581544
0.581554
0.581081
0.585133
0.584719
0.584627
0.584833
0.586742
0.586727
0.586722
0.586728
0.585452
0.585453
0.585458
0.585468
0.586082
0.586082
0.586084
0.586085
0.585471
0.585476
0.585478
0.585475
0.585007
0.585007
0.585004
0.584997
0.585239
0.585239
0.585237
0.585229
0.583601
0.583594
0.583586
0.583576
0.585145
0.585123
0.585116
0.58512
0.581347
0.581935
0.581943
0.58155
0.584363
0.583967
0.583888
0.584094
0.586966
0.586956
0.586952
0.586951
0.585208
0.585218
0.585223
0.585222
0.586132
0.586142
0.586145
0.586139
0.585512
0.585523
0.585524
0.585514
0.585181
0.585186
0.585184
0.585172
0.585482
0.585491
0.585491
0.585481
0.583771
0.583765
0.583758
0.583747
0.585852
0.585835
0.58583
0.585839
0.581292
0.581746
0.581749
0.581447
0.582929
0.58258
0.582524
0.582715
0.587542
0.587538
0.587535
0.58753
0.585116
0.585127
0.585127
0.585115
0.586189
0.586207
0.586211
0.586201
0.58558
0.585593
0.585592
0.585578
0.58536
0.585366
0.585363
0.585351
0.585679
0.585692
0.585694
0.585684
0.58409
0.584075
0.584065
0.58406
0.58679
0.586778
0.586778
0.586791
0.580454
0.580741
0.580738
0.580545
0.580853
0.580636
0.58061
0.580732
0.58857
0.588581
0.588587
0.58859
0.585229
0.585232
0.585225
0.585205
0.586215
0.586235
0.586241
0.586231
0.585648
0.585657
0.585656
0.585644
0.585502
0.585506
0.585504
0.585495
0.585801
0.585815
0.585818
0.58581
0.584615
0.584582
0.58457
0.584578
0.588094
0.588106
0.588112
0.588115
0.578955
0.579027
0.579023
0.578979
0.592885
0.601217
0.605233
0.608347
0.61148
0.614245
0.616492
0.618251
0.61963
0.620785
0.593514
0.596798
0.604297
0.609391
0.6139
0.617322
0.619821
0.621622
0.622904
0.623878
0.597456
0.593796
0.604851
0.6106
0.615923
0.619554
0.62216
0.624025
0.625321
0.62625
0.601062
0.590152
0.604808
0.610385
0.616257
0.619818
0.622399
0.624207
0.625457
0.626357
0.605744
0.588397
0.605739
0.611027
0.617307
0.620694
0.623226
0.624937
0.626088
0.626903
0.609024
0.585957
0.605661
0.610431
0.617123
0.620296
0.622823
0.624473
0.625624
0.626479
0.613215
0.584886
0.606634
0.610648
0.617703
0.620587
0.623114
0.6247
0.625822
0.626655
0.614944
0.58199
0.60577
0.608986
0.616516
0.619197
0.621877
0.623545
0.624865
0.625936
0.616775
0.580674
0.606387
0.608297
0.615994
0.618226
0.621128
0.622926
0.624424
0.625663
0.601347
0.564933
0.593286
0.595569
0.605143
0.608945
0.613525
0.616596
0.619134
0.621156
0.535819
0.557812
0.574114
0.585705
0.593644
0.599173
0.603173
0.606163
0.608473
0.610393
0.521881
0.552367
0.574435
0.588371
0.59723
0.603234
0.607495
0.610593
0.612864
0.614553
0.511721
0.549322
0.575612
0.590608
0.600065
0.606342
0.610752
0.61392
0.616188
0.617815
0.503539
0.54648
0.57595
0.591242
0.601081
0.607416
0.611822
0.614943
0.617157
0.618737
0.499273
0.545843
0.577354
0.59268
0.602781
0.609045
0.613376
0.616388
0.618491
0.619977
0.496249
0.544928
0.577895
0.592953
0.603262
0.60938
0.613638
0.616554
0.618612
0.6201
0.495983
0.545488
0.579505
0.594005
0.604445
0.610318
0.614487
0.617299
0.619296
0.620746
0.495293
0.544647
0.579552
0.593333
0.603942
0.609593
0.613782
0.616611
0.61873
0.620353
0.495905
0.545099
0.58087
0.593417
0.603844
0.609039
0.613321
0.616255
0.618523
0.620313
0.48689
0.535149
0.571677
0.58376
0.595214
0.601421
0.606878
0.610728
0.613747
0.616014
0.566976
0.573231
0.57929
0.584648
0.589218
0.593041
0.596207
0.598825
0.601015
0.602903
0.55351
0.564911
0.575109
0.583443
0.590117
0.595374
0.59948
0.602679
0.605163
0.607062
0.540525
0.557687
0.572051
0.582934
0.591243
0.597499
0.602218
0.605785
0.608464
0.610437
0.527585
0.550446
0.568761
0.581722
0.591281
0.598181
0.603239
0.606978
0.609743
0.611756
0.517863
0.545755
0.567461
0.581975
0.592427
0.599691
0.604904
0.608678
0.611433
0.613414
0.509169
0.54135
0.565964
0.581572
0.592671
0.600119
0.605398
0.609168
0.611921
0.613923
0.503268
0.538928
0.565966
0.58223
0.593758
0.601222
0.606493
0.610215
0.612938
0.614921
0.497681
0.535982
0.565066
0.581624
0.593453
0.600859
0.606155
0.609902
0.612718
0.614834
0.494101
0.534763
0.565585
0.581826
0.593557
0.600689
0.606041
0.609876
0.612808
0.615059
0.484069
0.525941
0.557976
0.574174
0.586606
0.594456
0.600613
0.605103
0.608561
0.611084
0.576837
0.579248
0.582146
0.585084
0.587853
0.590359
0.592575
0.594514
0.596226
0.597781
0.56781
0.572618
0.578063
0.583222
0.58777
0.59164
0.594873
0.597542
0.599719
0.601446
0.557359
0.56547
0.573896
0.581326
0.587551
0.592625
0.596708
0.599961
0.602517
0.604473
0.545237
0.557347
0.569075
0.578737
0.586475
0.592528
0.597245
0.600907
0.603727
0.605849
0.534722
0.55109
0.566064
0.577702
0.586695
0.593478
0.598622
0.602523
0.605481
0.607673
0.524243
0.544888
0.562951
0.576265
0.58628
0.593589
0.599024
0.60308
0.606138
0.608409
0.515827
0.540564
0.561446
0.576082
0.586877
0.594515
0.60012
0.604247
0.607351
0.609647
0.507553
0.536023
0.559425
0.575028
0.586404
0.594234
0.599971
0.604189
0.607398
0.609814
0.501174
0.533253
0.558852
0.574868
0.586453
0.594268
0.600115
0.604432
0.607738
0.610261
0.490334
0.525012
0.552064
0.568474
0.580698
0.589073
0.595486
0.600268
0.60394
0.606586
0.583363
0.584133
0.585295
0.586657
0.588088
0.589502
0.590845
0.592096
0.593274
0.594423
0.577753
0.579671
0.582231
0.58498
0.587668
0.590163
0.592402
0.594363
0.596038
0.597418
0.570256
0.573719
0.578061
0.582466
0.586566
0.5902
0.593324
0.595949
0.598107
0.599827
0.560604
0.566259
0.572833
0.579085
0.584627
0.589335
0.593242
0.596431
0.598993
0.600993
0.551633
0.559937
0.56897
0.57707
0.583954
0.589581
0.594111
0.597716
0.600559
0.602738
0.541958
0.553233
0.564832
0.574689
0.582776
0.589168
0.59419
0.598113
0.601177
0.603516
0.53361
0.548038
0.562179
0.573606
0.582712
0.589689
0.59507
0.599208
0.602415
0.604843
0.525012
0.542621
0.559187
0.571932
0.581859
0.589267
0.594924