/*--------------------------------*- C++ -*----------------------------------*\
| =========                 |                                                 |
| \\      /  F ield         | foam-extend: Open Source CFD                    |
|  \\    /   O peration     | Version:     4.0                                |
|   \\  /    A nd           | Web:         http://www.foam-extend.org         |
|    \\/     M anipulation  |                                                 |
\*---------------------------------------------------------------------------*/
FoamFile
{
    version     2.0;
    format      ascii;
    class       volScalarField;
    location    "950";
    object      p;
}
// * * * * * * * * * * * * * * * * * * * * * * * * * * * * * * * * * * * * * //

dimensions      [1 -1 -2 0 0 0 0];

internalField   nonuniform List<scalar> 
34480
(
108189
108086
108043
108055
108136
108312
108649
109323
110278
110609
108030
107928
107885
107892
107967
108138
108469
109128
110148
110099
107852
107747
107704
107703
107765
107906
108196
108786
109799
109195
107740
107634
107586
107573
107611
107708
107940
108429
109374
108190
107620
107503
107448
107418
107430
107482
107655
108040
108881
107155
107603
107487
107426
107386
107379
107393
107510
107788
108490
106240
107481
107353
107284
107233
107209
107193
107262
107443
107987
105280
107549
107426
107361
107323
107314
107310
107365
107475
107840
104669
107435
107307
107237
107195
107188
107194
107242
107296
107459
103918
107524
107409
107393
107453
107585
107771
108010
108241
108403
104381
108920
108794
108747
108769
108872
109071
109402
109925
110734
111795
108697
108564
108515
108538
108648
108869
109251
109897
111029
112620
108466
108328
108279
108298
108402
108616
109004
109701
111070
113039
108307
108164
108109
108116
108204
108392
108756
109442
110948
113166
108151
107997
107934
107923
107989
108141
108466
109107
110679
113039
108102
107947
107876
107854
107901
108019
108300
108871
110447
112835
107956
107789
107710
107674
107702
107790
108027
108524
110056
112415
108004
107841
107762
107734
107769
107857
108075
108508
109944
112182
107878
107712
107627
107591
107616
107699
107901
108286
109578
111736
107956
107801
107757
107797
107925
108131
108457
108947
110188
112143
109466
109351
109311
109338
109438
109622
109904
110302
110830
111439
109238
109105
109059
109092
109214
109441
109802
110341
111151
112153
108993
108848
108803
108836
108965
109209
109613
110256
111345
112765
108808
108655
108602
108628
108752
108994
109417
110117
111426
113224
108630
108463
108403
108414
108525
108750
109167
109885
111359
113481
108556
108386
108318
108320
108416
108621
109021
109726
111310
113678
108389
108208
108133
108122
108203
108384
108759
109435
111081
113643
108418
108240
108164
108158
108241
108420
108784
109428
111076
113745
108282
108101
108019
108004
108075
108240
108586
109207
110794
113576
108346
108174
108120
108159
108299
108547
108968
109655
111208
113989
109847
109758
109727
109749
109828
109965
110162
110413
110705
110986
109655
109538
109498
109529
109637
109829
110115
110504
111007
111525
109436
109298
109254
109288
109413
109639
109992
110502
111252
112086
109253
109099
109046
109077
109207
109452
109854
110463
111453
112631
109072
108900
108839
108860
108985
109232
109658
110332
111533
113051
108987
108808
108739
108752
108870
109109
109546
110255
111631
113456
108809
108618
108542
108544
108651
108878
109311
110035
111546
113652
108825
108635
108557
108562
108672
108898
109333
110061
111651
113981
108679
108486
108404
108403
108503
108719
109143
109873
111475
114031
108729
108543
108480
108518
108666
108939
109412
110190
111785
114481
110109
110047
110025
110041
110097
110190
110316
110467
110627
110765
109965
109872
109840
109866
109951
110098
110305
110568
110870
111145
109791
109670
109631
109662
109770
109961
110242
110617
111096
111567
109626
109483
109434
109465
109587
109811
110157
110641
111323
112041
109458
109292
109235
109261
109387
109627
110018
110591
111472
112460
109372
109196
109129
109150
109276
109523
109946
110584
111652
112910
109194
109002
108929
108941
109062
109308
109746
110432
111663
113192
109202
109009
108933
108948
109073
109324
109777
110496
111850
113620
109051
108854
108774
108784
108904
109151
109606
110351
111770
113797
109090
108899
108832
108868
109021
109306
109796
110584
112025
114248
110290
110250
110236
110247
110283
110341
110418
110504
110589
110657
110189
110122
110098
110117
110179
110283
110424
110592
110769
110917
110066
109969
109936
109962
110049
110197
110407
110670
110971
111238
109929
109805
109762
109791
109897
110085
110363
110729
111184
111615
109785
109635
109583
109609
109726
109942
110276
110735
111354
111980
109708
109544
109482
109506
109629
109864
110243
110781
111566
112402
109537
109354
109285
109303
109428
109672
110081
110685
111627
112688
109545
109358
109285
109306
109436
109691
110127
110783
111860
113136
109391
109199
109123
109140
109269
109526
109974
110672
111843
113362
109425
109236
109167
109203
109354
109638
110113
110851
112065
113771
110421
110396
110388
110394
110416
110451
110495
110544
110590
110624
110352
110306
110289
110302
110345
110414
110506
110610
110713
110794
110277
110203
110178
110197
110262
110372
110521
110698
110886
111042
110169
110068
110033
110056
110143
110292
110504
110769
111069
111333
110054
109926
109881
109905
110007
110189
110458
110809
111237
111635
109993
109847
109792
109816
109929
110137
110458
110890
111453
112005
109834
109667
109605
109626
109745
109971
110331
110835
111534
112258
109848
109674
109607
109631
109758
110000
110394
110959
111783
112681
109696
109514
109444
109466
109595
109844
110257
110872
111793
112894
109727
109547
109481
109515
109659
109928
110365
111017
111990
113241
110519
110505
110500
110504
110517
110537
110562
110589
110613
110631
110473
110443
110431
110440
110468
110512
110569
110632
110691
110736
110438
110384
110366
110380
110426
110503
110604
110720
110837
110928
110356
110278
110250
110268
110335
110448
110602
110787
110983
111146
110271
110167
110129
110150
110233
110379
110587
110846
111137
111392
110229
110105
110058
110080
110178
110353
110611
110944
111342
111706
110086
109939
109885
109906
110013
110211
110512
110915
111423
111915
110109
109955
109894
109919
110036
110254
110593
111056
111670
112295
109961
109796
109733
109757
109878
110107
110469
110983
111683
112460
109994
109830
109768
109799
109932
110176
110560
111108
111859
112747
110599
110590
110588
110590
110597
110609
110623
110637
110650
110660
110565
110546
110538
110544
110561
110589
110623
110661
110695
110720
110562
110525
110512
110521
110553
110605
110672
110746
110817
110870
110500
110442
110421
110435
110484
110565
110674
110800
110926
111027
110444
110362
110333
110349
110414
110526
110680
110865
111060
111222
110420
110319
110280
110299
110380
110520
110721
110968
111244
111483
110293
110170
110124
110143
110235
110400
110642
110952
111313
111646
110331
110198
110146
110169
110272
110458
110737
111103
111549
111978
110187
110042
109988
110010
110119
110318
110623
111035
111552
112088
110224
110080
110024
110053
110170
110382
110706
111149
111711
112326
110667
110662
110660
110661
110666
110672
110680
110688
110695
110700
110637
110626
110621
110624
110635
110652
110672
110694
110714
110728
110660
110635
110626
110632
110653
110687
110730
110776
110819
110850
110611
110570
110554
110564
110598
110655
110730
110813
110894
110956
110580
110518
110496
110508
110557
110640
110750
110878
111007
111110
110572
110493
110462
110478
110541
110650
110799
110977
111166
111322
110460
110361
110323
110340
110415
110547
110734
110964
111217
111439
110513
110404
110361
110381
110468
110620
110841
111120
111438
111726
110373
110251
110205
110226
110319
110485
110731
111050
111423
111786
110418
110296
110248
110273
110373
110551
110813
111158
111568
111985
110726
110723
110723
110723
110726
110729
110734
110738
110742
110744
110696
110690
110687
110689
110695
110705
110717
110730
110742
110750
110739
110723
110717
110721
110735
110756
110783
110811
110837
110855
110696
110668
110657
110663
110687
110725
110775
110829
110881
110919
110686
110641
110625
110634
110669
110728
110805
110892
110976
111041
110691
110632
110608
110620
110668
110749
110857
110982
111109
111210
110593
110515
110486
110499
110558
110659
110799
110966
111139
111286
110662
110576
110541
110558
110627
110748
110917
111122
111344
111535
110524
110424
110387
110404
110480
110614
110805
111044
111308
111550
110580
110479
110440
110460
110542
110686
110891
111151
111443
111720
110781
110779
110779
110779
110781
110783
110785
110787
110789
110790
110746
110742
110740
110741
110745
110751
110758
110766
110773
110778
110805
110795
110791
110794
110802
110816
110832
110849
110864
110874
110762
110743
110735
110740
110755
110781
110813
110848
110880
110905
110770
110738
110727
110733
110758
110798
110850
110908
110962
111003
110784
110741
110724
110732
110767
110825
110901
110987
111071
111136
110696
110637
110615
110625
110669
110745
110846
110963
111080
111176
110782
110716
110689
110703
110756
110848
110973
111119
111272
111396
110642
110564
110535
110549
110608
110712
110855
111029
111212
111371
110711
110632
110601
110617
110681
110793
110948
111138
111341
111523
110831
110830
110830
110830
110831
110832
110833
110835
110836
110836
110787
110785
110784
110785
110787
110790
110795
110800
110804
110807
110863
110856
110854
110856
110861
110869
110879
110889
110897
110903
110814
110801
110796
110799
110809
110825
110846
110868
110889
110904
110836
110814
110806
110811
110828
110855
110889
110926
110961
110986
110855
110825
110813
110819
110844
110884
110936
110994
111049
111090
110775
110732
110716
110723
110755
110809
110880
110961
111039
111101
110877
110829
110809
110820
110859
110926
111016
111118
111221
111300
110733
110673
110651
110661
110707
110784
110888
111010
111134
111238
110817
110757
110733
110745
110794
110878
110991
111126
111264
111381
110879
110878
110878
110878
110878
110879
110879
110880
110880
110881
110821
110820
110819
110820
110821
110823
110826
110829
110832
110835
110913
110910
110908
110909
110913
110917
110923
110929
110934
110936
110854
110846
110842
110844
110850
110861
110874
110888
110901
110911
110888
110874
110869
110872
110883
110900
110923
110946
110968
110983
110910
110889
110881
110885
110902
110929
110964
111002
111038
111063
110835
110805
110793
110799
110821
110859
110907
110961
111011
111052
110954
110920
110906
110913
110942
110989
111052
111121
111189
111238
110799
110755
110739
110747
110780
110835
110908
110992
111075
111142
110902
110859
110841
110850
110886
110946
111027
111119
111211
111286
110924
110923
110923
110923
110923
110924
110924
110924
110924
110924
110847
110847
110846
110846
110847
110848
110850
110852
110854
110857
110959
110957
110957
110957
110959
110962
110965
110968
110971
110971
110886
110880
110878
110878
110882
110889
110897
110906
110914
110921
110929
110920
110917
110919
110926
110937
110951
110966
110979
110988
110951
110937
110931
110934
110945
110963
110986
111010
111033
111049
110881
110860
110852
110856
110871
110896
110928
110963
110995
111021
111016
110993
110983
110989
111008
111041
111083
111128
111173
111202
110846
110814
110803
110808
110831
110869
110919
110975
111029
111073
110974
110943
110930
110937
110962
111004
111060
111121
111181
111227
110971
110970
110971
110971
110971
110971
110971
110971
110971
110970
110863
110863
110862
110862
110863
110864
110865
110867
110869
110872
111000
111000
111000
111000
111001
111003
111005
111006
111008
111007
110909
110905
110903
110904
110906
110910
110915
110921
110926
110931
110959
110954
110952
110953
110957
110964
110973
110982
110990
110996
110978
110969
110965
110967
110974
110986
111000
111016
111031
111040
110914
110901
110896
110899
110909
110925
110945
110968
110987
111004
111066
111051
111044
111047
111061
111082
111110
111139
111168
111185
110874
110852
110844
110848
110863
110889
110922
110958
110992
111021
111040
111019
111010
111014
111031
111060
111097
111136
111175
111203
111032
111031
111032
111032
111032
111032
111031
111031
111031
111030
110866
110865
110865
110864
110865
110866
110867
110869
110871
110874
111035
111035
111035
111035
111036
111037
111038
111039
111040
111038
110925
110922
110922
110922
110923
110926
110929
110932
110935
110938
110979
110975
110974
110974
110977
110981
110987
110992
110998
111001
110993
110987
110985
110986
110990
110997
111007
111016
111026
111032
110938
110930
110927
110929
110935
110946
110958
110972
110983
110993
111100
111090
111085
111087
111096
111110
111128
111147
111166
111176
110883
110868
110863
110865
110875
110892
110913
110936
110957
110976
111114
111101
111094
111097
111108
111127
111151
111176
111201
111217
111131
111131
111131
111131
111131
111131
111131
111130
111129
111128
110846
110845
110845
110845
110845
110846
110847
110848
110850
110854
111055
111055
111054
111054
111054
111055
111056
111057
111058
111057
110935
110934
110933
110934
110935
110936
110938
110939
110940
110942
110987
110984
110983
110983
110985
110988
110991
110995
110998
111001
110996
110992
110990
110991
110993
110998
111004
111010
111016
111021
110952
110947
110946
110947
110951
110958
110965
110973
110980
110985
111107
111099
111096
111097
111102
111111
111123
111136
111150
111156
110864
110855
110851
110853
110860
110870
110884
110898
110910
110923
111221
111213
111208
111210
111218
111230
111245
111261
111278
111287
111296
111295
111295
111295
111295
111295
111295
111295
111295
111295
110788
110788
110790
110790
110791
110791
110791
110791
110790
110793
111046
111044
111043
111042
111041
111042
111043
111045
111048
111049
110941
110941
110942
110942
110943
110944
110944
110945
110944
110944
110986
110984
110983
110983
110984
110986
110988
110990
110993
110995
110991
110988
110987
110987
110989
110992
110996
111000
111004
111007
110958
110956
110955
110956
110959
110963
110968
110973
110976
110979
111070
111064
111061
111061
111065
111071
111080
111089
111099
111106
110804
110800
110798
110800
110804
110812
110820
110829
110835
110841
111384
111378
111374
111376
111381
111389
111400
111411
111424
111428
111479
111477
111475
111474
111474
111474
111475
111477
111479
111483
110705
110711
110714
110717
110718
110717
110716
110713
110708
110700
111012
111009
111006
111005
111005
111006
111007
111009
111012
111016
110947
110948
110949
110950
110950
110951
110951
110951
110950
110948
110982
110981
110980
110981
110981
110983
110984
110986
110988
110989
110986
110984
110983
110983
110985
110987
110990
110993
110996
110998
110964
110962
110961
110962
110964
110968
110972
110976
110979
110979
111011
111005
111002
111002
111006
111011
111017
111025
111034
111042
110724
110723
110722
110723
110727
110733
110740
110747
110750
110746
111555
111550
111547
111548
111553
111560
111569
111578
111587
111591
122835
124049
123876
122610
126008
127413
127016
125407
128891
130477
129893
127917
131007
132709
131939
129685
132626
134406
133462
131005
133935
135774
134837
132261
134833
136704
135896
133251
135640
137516
136869
134183
135559
137406
136901
134220
135158
136993
136742
134214
113167
113358
113398
113280
115418
115790
115850
115564
117626
118179
118240
117736
119718
120438
120485
119737
121624
122479
122496
121491
123435
124400
124382
123165
124938
125987
125939
124562
126420
127528
127461
125975
127195
128334
128265
126725
127845
129018
128997
127504
111960
112049
112078
112052
113259
113427
113467
113402
114674
114941
114994
114866
116111
116483
116544
116334
117495
117970
118029
117714
118937
119512
119563
119133
120199
120865
120907
120357
121558
122301
122332
121669
122371
123161
123185
122427
123187
124015
124056
123242
111101
111124
111136
111136
111835
111889
111909
111903
112725
112829
112863
112839
113724
113893
113942
113888
114720
114960
115023
114925
115819
116137
116210
116056
116798
117194
117273
117051
117937
118404
118486
118189
118643
119160
119246
118885
119415
119975
120079
119677
110811
110821
110826
110827
111267
111291
111302
111302
111827
111877
111896
111893
112509
112593
112624
112614
113209
113335
113380
113357
114023
114200
114257
114213
114740
114970
115039
114965
115644
115926
116005
115895
116215
116538
116630
116487
116888
117247
117358
117192
110675
110679
110681
110682
110965
110974
110980
110981
111341
111361
111372
111374
111815
111854
111873
111875
112317
112381
112410
112410
112929
113024
113065
113060
113450
113581
113633
113618
114167
114334
114396
114366
114619
114816
114893
114849
115167
115391
115483
115427
110633
110635
110636
110636
110818
110822
110825
110826
111091
111101
111106
111108
111428
111448
111458
111461
111798
111831
111848
111852
112265
112317
112343
112348
112643
112716
112752
112756
113214
113312
113357
113356
113557
113676
113733
113727
113986
114123
114190
114178
110635
110636
110637
110637
110748
110751
110752
110753
110953
110957
110960
110961
111196
111206
111212
111214
111477
111494
111504
111508
111843
111872
111888
111893
112118
112160
112183
112190
112579
112636
112666
112672
112820
112891
112930
112934
113154
113237
113281
113284
110662
110663
110663
110663
110727
110728
110729
110729
110884
110886
110887
110888
111055
111061
111064
111066
111270
111280
111286
111289
111561
111578
111588
111591
111760
111784
111799
111804
112137
112171
112190
112196
112290
112334
112359
112364
112554
112604
112633
112638
110701
110701
110701
110701
110732
110733
110733
110733
110858
110859
110860
110860
110973
110976
110978
110979
111138
111144
111148
111149
111368
111378
111384
111387
111506
111521
111530
111534
111820
111840
111852
111857
111904
111931
111946
111951
112117
112148
112166
112171
110745
110745
110745
110745
110752
110753
110753
110753
110859
110860
110860
110860
110930
110932
110933
110933
111058
111061
111063
111064
111239
111245
111249
111250
111327
111336
111341
111344
111592
111604
111612
111615
111622
111638
111648
111651
111800
111818
111830
111833
110791
110791
110791
110791
110779
110780
110780
110780
110877
110877
110877
110877
110911
110913
110913
110914
111013
111015
111016
111017
111154
111158
111160
111161
111202
111207
111211
111213
111432
111439
111444
111446
111416
111426
111432
111435
111571
111583
111590
111592
110836
110836
110836
110836
110808
110808
110809
110809
110905
110905
110904
110904
110908
110909
110910
110910
110993
110994
110994
110995
111102
111104
111106
111107
111117
111120
111123
111124
111323
111327
111330
111332
111267
111274
111278
111279
111411
111418
111423
111425
110881
110881
110881
110881
110835
110835
110836
110836
110937
110937
110937
110937
110914
110914
110915
110915
110987
110988
110988
110989
111072
111073
111074
111074
111061
111063
111065
111066
111253
111256
111258
111258
111161
111165
111168
111169
111304
111308
111311
111312
110924
110924
110924
110924
110858
110858
110858
110858
110972
110972
110972
110972
110922
110923
110923
110923
110991
110991
110991
110992
111055
111056
111057
111057
111027
111028
111029
111029
111212
111214
111215
111216
111085
111088
111090
111090
111238
111241
111242
111243
110970
110970
110970
110970
110872
110873
110873
110873
111008
111008
111008
111007
110931
110932
110932
110932
110998
110998
110998
110998
111045
111046
111047
111047
111006
111006
111007
111007
111192
111194
111194
111195
111029
111031
111032
111033
111209
111210
111211
111212
111030
111030
111030
111029
110875
110875
110875
110876
111040
111040
111040
111039
110938
110938
110938
110938
111003
111003
111003
111003
111036
111037
111038
111038
110992
110992
110993
110993
111182
111183
111184
111184
110981
110983
110983
110984
111219
111220
111220
111221
111128
111128
111128
111127
110854
110854
110855
110855
111060
111061
111061
111060
110941
110941
110941
110941
111003
111003
111003
111003
111025
111025
111026
111026
110982
110982
110982
110982
111165
111166
111167
111167
110925
110926
110927
110927
111287
111287
111288
111289
111294
111294
111294
111294
110790
110790
110790
110791
111056
111057
111057
111058
110941
110941
110941
110941
110997
110997
110998
110998
111010
111011
111011
111011
110974
110974
110973
110974
111120
111123
111124
111123
110837
110836
110836
110836
111434
111434
111435
111436
111483
111484
111485
111485
110684
110681
110679
110679
111026
111028
111029
111029
110943
110942
110942
110942
110990
110990
110990
110990
110999
111000
111000
111000
110974
110973
110972
110973
111059
111063
111064
111063
110722
110716
110715
110718
111614
111616
111617
111614
116269
113769
111854
110573
109772
109255
108901
108651
108471
108334
117298
114136
111780
110389
109568
109045
108696
108455
108285
108160
117625
114139
111476
110163
109342
108824
108474
108232
108068
107961
117574
113998
111108
109960
109157
108673
108340
108111
107953
107848
117251
113733
110758
109736
108941
108494
108176
107962
107813
107721
116839
113563
110546
109658
108865
108458
108153
107953
107808
107709
116166
113269
110216
109468
108669
108304
108007
107818
107678
107587
115723
113265
110179
109575
108764
108435
108131
107940
107788
107671
114989
112918
109853
109427
108640
108357
108046
107851
107692
107567
115425
113607
110515
110113
109205
108819
108397
108114
107886
107691
112730
111993
111337
110788
110336
109968
109669
109429
109237
109087
114325
112971
111846
110997
110357
109876
109514
109238
109026
108867
115585
113648
112116
111048
110265
109702
109293
108992
108770
108621
116533
114099
112229
111031
110167
109573
109149
108843
108618
108465
117119
114326
112187
110913
109998
109396
108971
108670
108448
108303
117559
114539
112184
110880
109937
109344
108924
108630
108411
108261
117678
114540
112008
110710
109748
109173
108759
108474
108257
108113
117868
114720
112052
110796
109824
109270
108854
108566
108342
108176
117641
114512
111798
110648
109706
109182
108760
108467
108235
108061
118046
115020
112268
111139
110121
109525
109026
108669
108390
108164
111897
111585
111234
110897
110593
110326
110098
109905
109744
109614
113046
112411
111747
111171
110699
110319
110011
109763
109563
109408
114210
113168
112150
111333
110698
110211
109836
109545
109322
109163
115287
113812
112463
111454
110697
110139
109720
109403
109162
108990
116179
114275
112620
111459
110609
110005
109560
109231
108982
108811
117019
114717
112791
111517
110600
109969
109511
109178
108924
108745
117591
114932
112767
111416
110448
109807
109342
109009
108753
108577
118222
115277
112920
111533
110534
109890
109418
109077
108814
108620
118385
115222
112778
111428
110437
109802
109319
108969
108698
108495
118887
115637
113146
111789
110743
110055
109519
109124
108820
108582
111114
111019
110886
110734
110579
110428
110288
110162
110050
109957
111830
111604
111318
111026
110750
110500
110281
110091
109931
109802
112669
112238
111733
111258
110839
110484
110188
109944
109747
109600
113574
112891
112145
111488
110936
110488
110128
109840
109611
109440
114408
113437
112439
111613
110945
110423
110016
109698
109447
109267
115274
113998
112750
111775
111011
110434
109993
109655
109390
109195
115944
114357
112869
111769
110925
110309
109843
109492
109217
109020
116718
114841
113142
111949
111045
110401
109915
109550
109265
109051
117087
114962
113131
111902
110971
110312
109808
109431
109136
108914
117690
115387
113459
112181
111198
110497
109955
109546
109229
108982
110819
110779
110718
110643
110560
110476
110393
110315
110244
110183
111276
111182
111045
110889
110727
110570
110423
110291
110175
110078
111835
111644
111389
111118
110855
110613
110398
110211
110053
109931
112508
112186
111779
111374
110999
110670
110388
110150
109952
109799
113176
112687
112107
111560
111076
110667
110327
110047
109818
109648
113926
113243
112475
111789
111204
110727
110339
110027
109774
109583
114536
113636
112672
111856
111180
110645
110219
109882
109611
109412
115292
114170
113020
112092
111340
110758
110300
109941
109655
109437
115723
114396
113105
112100
111294
110678
110193
109819
109521
109295
116318
114812
113408
112333
111475
110822
110307
109907
109594
109349
110679
110662
110633
110596
110554
110508
110462
110417
110374
110337
110973
110931
110864
110781
110689
110595
110502
110416
110338
110270
111356
111270
111140
110988
110828
110671
110523
110388
110270
110177
111841
111688
111470
111228
110985
110756
110547
110363
110204
110076
112350
112106
111778
111433
111100
110797
110530
110300
110105
109956
112958
112601
112146
111690
111267
110895
110575
110306
110082
109906
113457
112964
112368
111798
111288
110852
110487
110186
109936
109747
114127
113485
112744
112068
111478
110988
110583
110253
109985
109775
114534
113743
112875
112109
111453
110919
110483
110134
109850
109632
115051
114122
113152
112317
111610
111040
110577
110207
109911
109677
110634
110626
110612
110593
110570
110546
110520
110494
110470
110448
110822
110800
110765
110720
110668
110612
110556
110502
110451
110407
111099
111055
110985
110897
110800
110699
110601
110508
110426
110359
111447
111369
111248
111103
110947
110791
110643
110507
110387
110287
111829
111703
111515
111298
111074
110857
110657
110478
110322
110199
112309
112120
111850
111553
111256
110978
110727
110508
110320
110168
112695
112425
112060
111674
111302
110964
110667
110412
110194
110026
113261
112898
112430
111955
111510
111117
110778
110492
110253
110062
113597
113131
112561
112004
111497
111058
110686
110378
110122
109921
114017
113460
112812
112194
111641
111169
110772
110445
110178
109963
110636
110632
110625
110615
110603
110589
110575
110561
110547
110535
110751
110739
110721
110696
110666
110634
110600
110567
110536
110508
110957
110933
110893
110842
110783
110721
110657
110596
110540
110495
111207
111165
111095
111007
110907
110804
110703
110607
110520
110446
111497
111428
111317
111180
111031
110881
110736
110603
110483
110387
111876
111772
111609
111416
111211
111010
110822
110651
110500
110376
112165
112013
111788
111530
111266
111013
110780
110575
110394
110252
112633
112425
112129
111803
111479
111176
110905
110668
110465
110299
112878
112605
112237
111846
111468
111124
110820
110561
110340
110163
113213
112883
112460
112020
111603
111230
110904
110627
110396
110207
110662
110660
110656
110651
110645
110637
110630
110622
110614
110607
110728
110722
110712
110698
110681
110662
110643
110623
110604
110587
110885
110872
110849
110819
110783
110745
110705
110665
110629
110600
111062
111037
110996
110942
110880
110813
110745
110679
110618
110566
111283
111242
111175
111089
110991
110889
110788
110692
110604
110532
111583
111522
111421
111296
111158
111016
110879
110751
110635
110538
111793
111704
111563
111391
111207
111023
110849
110689
110546
110431
112178
112056
111868
111648
111417
111192
110983
110794
110630
110491
112339
112177
111941
111673
111400
111140
110902
110693
110509
110360
112606
112411
112137
111833
111529
111244
110987
110762
110569
110408
110701
110700
110698
110695
110691
110687
110683
110679
110675
110671
110733
110730
110724
110716
110707
110696
110684
110673
110662
110651
110858
110850
110837
110819
110798
110774
110749
110724
110701
110684
110977
110963
110938
110905
110866
110823
110779
110735
110693
110657
111146
111122
111080
111026
110962
110894
110825
110758
110695
110644
111382
111345
111283
111202
111109
111012
110915
110822
110736
110662
111528
111474
111385
111272
111146
111016
110888
110768
110659
110569
111847
111774
111654
111507
111346
111184
111028
110884
110755
110644
111938
111841
111691
111510
111318
111127
110947
110783
110637
110516
112155
112038
111863
111657
111441
111231
111034
110858
110703
110572
110745
110744
110743
110742
110740
110738
110735
110733
110730
110729
110753
110751
110748
110743
110738
110732
110725
110718
110712
110705
110859
110854
110846
110835
110823
110808
110793
110777
110763
110753
110932
110924
110909
110888
110864
110837
110808
110780
110752
110728
111062
111048
111022
110987
110947
110902
110856
110810
110767
110731
111247
111224
111185
111133
111072
111006
110939
110874
110812
110758
111341
111307
111251
111177
111092
111001
110911
110824
110743
110676
111609
111564
111488
111391
111281
111167
111054
110948
110851
110765
111644
111585
111489
111369
111236
111100
110967
110844
110731
110637
111825
111755
111643
111506
111356
111205
111060
110926
110806
110703
110791
110790
110790
110789
110788
110787
110785
110784
110783
110782
110780
110779
110777
110775
110772
110768
110764
110760
110756
110752
110876
110873
110869
110862
110854
110846
110836
110827
110819
110813
110913
110908
110899
110886
110871
110854
110836
110818
110800
110783
111016
111007
110991
110969
110943
110914
110883
110853
110824
110800
111159
111145
111121
111087
111047
111004
110958
110913
110871
110832
111211
111190
111154
111105
111049
110987
110925
110863
110805
110757
111442
111415
111366
111303
111229
111150
111071
110995
110924
110859
111430
111394
111333
111253
111163
111068
110973
110884
110799
110729
111588
111545
111474
111384
111282
111177
111073
110975
110885
110807
110836
110836
110836
110835
110835
110834
110833
110833
110832
110832
110809
110808
110807
110806
110804
110802
110800
110798
110795
110791
110903
110902
110899
110895
110890
110885
110879
110873
110869
110867
110910
110907
110901
110893
110884
110874
110862
110851
110839
110828
110994
110988
110978
110964
110948
110929
110910
110890
110871
110856
111105
111096
111081
111059
111034
111005
110975
110945
110916
110889
111123
111109
111086
111055
111018
110977
110934
110892
110851
110818
111329
111312
111281
111240
111192
111139
111084
111031
110981
110934
111277
111254
111215
111163
111103
111038
110972
110908
110847
110796
111422
111396
111351
111293
111225
111153
111080
111011
110946
110888
110880
110880
110880
110880
110880
110879
110879
110879
110878
110878
110836
110836
110835
110835
110834
110832
110831
110830
110828
110825
110936
110935
110933
110930
110927
110924
110921
110917
110915
110915
110915
110913
110910
110905
110899
110893
110886
110879
110871
110864
110988
110984
110978
110969
110959
110947
110935
110922
110910
110901
111073
111068
111058
111045
111028
111010
110990
110970
110951
110933
111065
111057
111042