/*--------------------------------*- C++ -*----------------------------------*\
| =========                 |                                                 |
| \\      /  F ield         | foam-extend: Open Source CFD                    |
|  \\    /   O peration     | Version:     4.0                                |
|   \\  /    A nd           | Web:         http://www.foam-extend.org         |
|    \\/     M anipulation  |                                                 |
\*---------------------------------------------------------------------------*/
FoamFile
{
    version     2.0;
    format      ascii;
    class       surfaceScalarField;
    location    "950";
    object      phi;
}
// * * * * * * * * * * * * * * * * * * * * * * * * * * * * * * * * * * * * * //

dimensions      [1 0 -1 0 0 0 0];

internalField   nonuniform List<scalar> 
97302
(
-0.000109809
9.41826e-07
-0.000867575
0.000876814
-0.000119589
1.13204e-06
-0.000868608
0.000877256
-0.000129488
1.19326e-06
-0.000869166
0.000877871
-0.000140074
1.1344e-06
-0.000869241
0.000878694
-0.000152176
9.45701e-07
-0.000868827
0.000879983
-0.000167274
6.17411e-07
-0.000867699
0.000882179
-0.000188461
1.23541e-07
-0.000865251
0.000886315
-0.000222736
-5.78799e-07
-0.000859662
0.000894515
-0.00027131
-1.61052e-06
-0.000849907
0.00090009
-4.34975e-06
-0.000822446
-0.000352971
0.000908457
-0.000150972
1.56852e-06
-0.00116331
0.00117338
-0.0001612
1.93195e-06
-0.00116437
0.0011738
-0.000171511
2.05559e-06
-0.00116503
0.00117448
-0.00018244
1.97151e-06
-0.00116511
0.00117521
-0.000194777
1.66324e-06
-0.00116436
0.00117598
-0.000210235
1.11969e-06
-0.00116238
0.00117734
-0.00023266
2.83308e-07
-0.0011588
0.00118106
-0.000271426
-9.38628e-07
-0.00115198
0.0011911
-0.000328114
-2.84591e-06
-0.00113958
0.0011975
-7.37756e-06
-0.00110157
-0.000432422
0.00120891
-0.000191252
1.81073e-06
-0.00145786
0.0014687
-0.000201773
2.31258e-06
-0.00145902
0.00146916
-0.000212256
2.50634e-06
-0.00145975
0.00146978
-0.000223202
2.44656e-06
-0.00145961
0.00147008
-0.00023553
2.11259e-06
-0.00145831
0.00147019
-0.000251369
1.49312e-06
-0.00145568
0.00147115
-0.000275201
5.07647e-07
-0.00145182
0.00147543
-0.000318115
-9.39293e-07
-0.00144523
0.00148815
-0.000381324
-3.29515e-06
-0.00143198
0.00149564
-9.03994e-06
-0.0013832
-0.000500164
0.0015037
-0.000231378
1.957e-06
-0.00174824
0.00175947
-0.000242181
2.60565e-06
-0.00174966
0.00176017
-0.000252956
2.88668e-06
-0.00175067
0.00176107
-0.000264217
2.87616e-06
-0.00175079
0.00176162
-0.00027695
2.54229e-06
-0.0017497
0.001762
-0.000293469
1.87483e-06
-0.00174736
0.0017635
-0.000318585
7.69529e-07
-0.00174387
0.00176873
-0.000364645
-8.61483e-07
-0.00173771
0.0017837
-0.000432543
-3.61707e-06
-0.0017241
0.00179232
-1.05268e-05
-0.00166431
-0.000560134
0.00179339
-0.000271374
2.16593e-06
-0.00203956
0.00205093
-0.000282336
2.89091e-06
-0.00204141
0.00205209
-0.000293276
3.21649e-06
-0.00204299
0.0020536
-0.000304735
3.22765e-06
-0.00204364
0.00205475
-0.000317764
2.89053e-06
-0.00204315
0.00205583
-0.000334797
2.19401e-06
-0.0020415
0.00205821
-0.000360929
1.0197e-06
-0.00203872
0.0020646
-0.000409535
-7.1143e-07
-0.00203333
0.00208178
-0.000481376
-3.74778e-06
-0.00202019
0.00209216
-1.17551e-05
-0.00194872
-0.000614429
0.00208301
-0.000311922
2.26011e-06
-0.00232932
0.00234094
-0.000322981
3.01502e-06
-0.00233172
0.00234266
-0.000333992
3.33109e-06
-0.00233379
0.00234469
-0.000345517
3.31478e-06
-0.00233494
0.00234638
-0.000358657
2.94189e-06
-0.00233505
0.00234814
-0.000375929
2.21027e-06
-0.00233421
0.00235146
-0.000402698
1.00135e-06
-0.00233241
0.0023592
-0.000453201
-7.44936e-07
-0.00232819
0.00237873
-0.000528349
-3.84227e-06
-0.00231666
0.00239191
-1.27183e-05
-0.00223324
-0.000664945
0.0023708
-0.000352303
2.29006e-06
-0.00261887
0.00263056
-0.000363306
2.94948e-06
-0.00262198
0.00263305
-0.000374246
3.18965e-06
-0.00262471
0.0026358
-0.000385688
3.07989e-06
-0.00262643
0.0026381
-0.000398786
2.6239e-06
-0.00262718
0.0026406
-0.000416087
1.81348e-06
-0.0026272
0.0026449
-0.000443197
5.85436e-07
-0.00262658
0.0026541
-0.000495034
-1.06899e-06
-0.00262401
0.00267617
-0.000572951
-3.79517e-06
-0.00261524
0.00269311
-1.2881e-05
-0.00251966
-0.000711523
0.0026584
-0.000393988
2.00485e-06
-0.00290918
0.00292128
-0.000405048
2.46457e-06
-0.00291299
0.00292453
-0.000415993
2.50756e-06
-0.00291592
0.00292755
-0.000427394
2.17995e-06
-0.00291765
0.00292996
-0.000440366
1.51699e-06
-0.00291835
0.00293243
-0.000457397
5.17469e-07
-0.00291856
0.00293689
-0.000484235
-7.87956e-07
-0.00291864
0.00294685
-0.000536254
-2.32299e-06
-0.00291753
0.00297081
-0.000615622
-4.09515e-06
-0.00291219
0.00299185
-1.20569e-05
-0.00280629
-0.00075457
0.00294441
-0.000435164
1.07781e-06
-0.00319644
0.00320871
-0.000445796
1.15178e-06
-0.0032011
0.00321305
-0.000456348
8.69723e-07
-0.00320468
0.00321687
-0.00046745
1.42517e-07
-0.00320704
0.00322018
-0.000480252
-9.13944e-07
-0.00320851
0.00322375
-0.000497126
-2.27405e-06
-0.0032097
0.00322937
-0.000523815
-3.74865e-06
-0.00321117
0.00324082
-0.000575552
-5.06034e-06
-0.00321234
0.00326681
-0.000654851
-5.45717e-06
-0.00320942
0.00329008
-1.0133e-05
-0.003093
-0.000791303
0.00322753
-0.000476573
-0.00346437
0.00347726
-0.000487841
-0.00346859
0.00348101
-0.000499
-0.00346987
0.0034819
-0.000510713
-0.0034678
0.00347965
-0.000524001
-0.003463
0.00347537
-0.000540973
-0.00345656
0.00347126
-0.000566844
-0.00344969
0.00347181
-0.000615785
-0.003444
0.00348788
-0.000688737
-0.00344086
0.00350835
-0.00333305
-0.000817611
0.00345179
1.45178e-05
8.75395e-07
-0.000859148
5.46546e-06
1.10109e-06
-0.000860657
-3.61917e-06
1.18424e-06
-0.000861266
-1.29202e-05
1.12993e-06
-0.00086107
-2.26371e-05
9.27334e-07
-0.000860037
-3.299e-05
5.5828e-07
-0.000857904
-4.41296e-05
-1.11245e-08
-0.000854101
-5.54797e-05
-8.5864e-07
-0.000847453
-6.62679e-05
-2.17912e-06
-0.000836939
-3.93709e-06
-0.000820663
-6.41139e-05
1.55383e-05
1.47474e-06
-0.00115349
5.55933e-06
1.89207e-06
-0.00115518
-4.42283e-06
2.05083e-06
-0.00115592
-1.47238e-05
1.97919e-06
-0.00115566
-2.56064e-05
1.65331e-06
-0.0011542
-3.74335e-05
1.051e-06
-0.00115105
-5.1045e-05
1.11082e-07
-0.00114531
-6.74894e-05
-1.28013e-06
-0.00113511
-8.81838e-05
-3.50679e-06
-0.00111755
-6.54433e-06
-0.00108838
-9.87748e-05
1.68908e-05
1.73532e-06
-0.00144682
6.20732e-06
2.30429e-06
-0.00144875
-4.40051e-06
2.53908e-06
-0.00144963
-1.526e-05
2.49203e-06
-0.00144926
-2.67047e-05
2.12691e-06
-0.00144734
-3.94674e-05
1.41977e-06
-0.00144329
-5.52963e-05
2.78834e-07
-0.00143616
-7.69304e-05
-1.41429e-06
-0.00142346
-0.000108479
-4.24055e-06
-0.0013997
-8.31325e-06
-0.00135593
-0.000133978
1.81637e-05
1.90039e-06
-0.00173654
7.01041e-06
2.63272e-06
-0.00173884
-4.07786e-06
2.96284e-06
-0.00174001
-1.54883e-05
2.9698e-06
-0.00173985
-2.7671e-05
2.60237e-06
-0.00173799
-4.16158e-05
1.83842e-06
-0.00173383
-5.96343e-05
5.45333e-07
-0.00172612
-8.58612e-05
-1.38611e-06
-0.00171151
-0.000127865
-4.74504e-06
-0.00168159
-9.81021e-06
-0.00162159
-0.000169086
1.93352e-05
2.12222e-06
-0.00202751
7.90978e-06
2.93949e-06
-0.00203029
-3.45347e-06
3.32003e-06
-0.00203199
-1.51999e-05
3.3547e-06
-0.00203228
-2.79165e-05
2.98823e-06
-0.00203082
-4.27766e-05
2.19778e-06
-0.002027
-6.25548e-05
8.11839e-07
-0.00201921
-9.26817e-05
-1.26794e-06
-0.00200332
-0.00014466
-5.01917e-06
-0.00196793
-1.09567e-05
-0.00189081
-0.000201431
2.00962e-05
2.24834e-06
-0.00231691
8.50294e-06
3.10432e-06
-0.0023203
-2.9906e-06
3.48333e-06
-0.00232246
-1.48852e-05
3.50136e-06
-0.00232319
-2.78854e-05
3.11088e-06
-0.00232217
-4.33243e-05
2.29918e-06
-0.00231887
-6.44027e-05
8.75719e-07
-0.0023114
-9.77196e-05
-1.24643e-06
-0.0022949
-0.000159086
-5.14413e-06
-0.00225517
-1.1765e-05
-0.00216074
-0.000230779
2.05501e-05
2.26959e-06
-0.00260626
8.98295e-06
3.02894e-06
-0.00261034
-2.46329e-06
3.33828e-06
-0.00261312
-1.43037e-05
3.27687e-06
-0.00261436
-2.737e-05
2.83766e-06
-0.00261384
-4.31015e-05
1.99145e-06
-0.00261116
-6.50746e-05
5.64468e-07
-0.00260429
-0.000100926
-1.52944e-06
-0.00258788
-0.000170952
-5.17995e-06
-0.00254517
-1.21304e-05
-0.00243356
-0.000256692
2.03126e-05
2.00879e-06
-0.00289617
8.74103e-06
2.57284e-06
-0.00290096
-2.60538e-06
2.71618e-06
-0.00290395
-1.42877e-05
2.49087e-06
-0.00290519
-2.71899e-05
1.92647e-06
-0.00290454
-4.28212e-05
9.90501e-07
-0.00290193
-6.50551e-05
-4.07264e-07
-0.00289543
-0.000102357
-2.3694e-06
-0.00287939
-0.000179759
-5.16179e-06
-0.0028348
-1.17968e-05
-0.00270716
-0.00027922
1.97423e-05
1.07864e-06
-0.00318312
8.64396e-06
1.2291e-06
-0.00318866
-2.19771e-06
1.0782e-06
-0.0031922
-1.33744e-05
5.0083e-07
-0.00319387
-2.592e-05
-3.72833e-07
-0.00319367
-4.14538e-05
-1.55216e-06
-0.00319163
-6.40513e-05
-2.97608e-06
-0.003186
-0.000102659
-4.63649e-06
-0.00317146
-0.000185999
-6.0967e-06
-0.00312514
-9.99466e-06
-0.0029792
-0.000301609
1.85618e-05
-0.00345074
7.21331e-06
-0.00345601
-3.67877e-06
-0.0034579
-1.47835e-05
-0.00345619
-2.7018e-05
-0.00345114
-4.19669e-05
-0.00344316
-6.35373e-05
-0.0034311
-0.000100905
-0.00341127
-0.000185623
-0.00336223
-0.00320893
-0.00031974
1.21138e-05
7.59543e-07
-0.000852492
4.53557e-06
1.00082e-06
-0.000854079
-3.16807e-06
1.09147e-06
-0.000854654
-1.09085e-05
1.03052e-06
-0.00085436
-1.8563e-05
8.10464e-07
-0.000853193
-2.58872e-05
4.15448e-07
-0.000850995
-3.23305e-05
-1.7654e-07
-0.000847481
-3.65902e-05
-1.00268e-06
-0.00084219
-3.67887e-05
-2.14607e-06
-0.000834595
-3.41609e-06
-0.000824917
-2.91187e-05
1.39897e-05
1.31698e-06
-0.00114499
4.99688e-06
1.7583e-06
-0.00114694
-4.07069e-06
1.92646e-06
-0.00114769
-1.33032e-05
1.84325e-06
-0.00114724
-2.27058e-05
1.48504e-06
-0.00114548
-3.21278e-05
8.26959e-07
-0.00114204
-4.11698e-05
-1.84011e-07
-0.00113626
-4.86819e-05
-1.61843e-06
-0.00112698
-5.22093e-05
-3.68851e-06
-0.00111248
-6.08839e-06
-0.00109301
-4.49041e-05
1.61241e-05
1.61485e-06
-0.00143667
5.96407e-06
2.21452e-06
-0.00143904
-4.2088e-06
2.45864e-06
-0.00143998
-1.45861e-05
2.39256e-06
-0.00143944
-2.52603e-05
1.97499e-06
-0.00143716
-3.6295e-05
1.17018e-06
-0.0014326
-4.78063e-05
-1.16399e-07
-0.00142472
-5.93325e-05
-1.97963e-06
-0.00141158
-6.84788e-05
-4.82556e-06
-0.00138942
-8.31161e-06
-0.00135708
-6.5109e-05
1.78286e-05
1.83145e-06
-0.00172539
6.89261e-06
2.60469e-06
-0.00172829
-4.06081e-06
2.94549e-06
-0.00172954
-1.53358e-05
2.92825e-06
-0.00172911
-2.71743e-05
2.49481e-06
-0.00172667
-3.99063e-05
1.60692e-06
-0.00172154
-5.40951e-05
1.16837e-07
-0.00171217
-6.99424e-05
-2.0924e-06
-0.00169555
-8.5758e-05
-5.67919e-06
-0.00166492
-1.02667e-05
-0.00161696
-8.84371e-05
1.92871e-05
2.09867e-06
-0.00201572
7.85641e-06
2.96286e-06
-0.00201922
-3.57858e-06
3.35768e-06
-0.00202096
-1.54279e-05
3.36928e-06
-0.00202087
-2.81117e-05
2.93456e-06
-0.00201858
-4.22108e-05
2.011e-06
-0.0020133
-5.874e-05
3.95809e-07
-0.00200296
-7.87007e-05
-2.05464e-06
-0.0019834
-0.000101866
-6.26417e-06
-0.00194418
-1.18868e-05
-0.00187872
-0.00011233
2.02771e-05
2.27334e-06
-0.00230457
8.52016e-06
3.18015e-06
-0.00230876
-3.19545e-06
3.57805e-06
-0.00231096
-1.5371e-05
3.58082e-06
-0.00231123
-2.85818e-05
3.12848e-06
-0.00230916
-4.36558e-05
2.18732e-06
-0.00230397
-6.20926e-05
5.25206e-07
-0.00229309
-8.58022e-05
-2.02324e-06
-0.00227122
-0.000116772
-6.58669e-06
-0.00222388
-1.30788e-05
-0.00213988
-0.00013644
2.0867e-05
2.3166e-06
-0.00259354
9.0345e-06
3.12696e-06
-0.00259845
-2.72423e-06
3.46178e-06
-0.00260125
-1.49541e-05
3.39952e-06
-0.00260195
-2.8394e-05
2.92447e-06
-0.0026002
-4.40777e-05
1.99051e-06
-0.00259528
-6.39872e-05
3.63714e-07
-0.00258422
-9.09703e-05
-2.17115e-06
-0.00256075
-0.00012983
-6.70423e-06
-0.0025062
-1.38376e-05
-0.00240319
-0.000159442
2.07087e-05
2.06565e-06
-0.002883
8.84529e-06
2.67786e-06
-0.00288864
-2.8344e-06
2.86427e-06
-0.00289168
-1.49363e-05
2.68008e-06
-0.00289236
-2.82911e-05
2.13973e-06
-0.0028904
-4.41178e-05
1.19674e-06
-0.00288531
-6.48646e-05
-2.99196e-07
-0.00287402
-9.42738e-05
-2.60712e-06
-0.00284955
-0.000140499
-6.339e-06
-0.00278894
-1.36308e-05
-0.00266717
-0.000180693
2.00581e-05
1.15034e-06
-0.0031696
8.65133e-06
1.3326e-06
-0.00317591
-2.52674e-06
1.26137e-06
-0.00317942
-1.40868e-05
7.93755e-07
-0.00318042
-2.70131e-05
5.26698e-08
-0.00317865
-4.27668e-05
-9.82922e-07
-0.00317369
-6.42995e-05
-2.30224e-06
-0.00316247
-9.61318e-05
-4.04906e-06
-0.00313819
-0.000148691
-6.31386e-06
-0.00307261
-1.14232e-05
-0.00292944
-0.000200657
1.88725e-05
-0.00343704
7.38436e-06
-0.00344319
-3.68679e-06
-0.00344557
-1.50345e-05
-0.00344405
-2.75303e-05
-0.00343859
-4.26425e-05
-0.00342903
-6.3361e-05
-0.00341268
-9.50905e-05
-0.00338359
-0.000150427
-0.00331321
-0.00315541
-0.000215366
9.39685e-06
5.86513e-07
-0.000847664
3.54438e-06
8.3138e-07
-0.000849058
-2.49783e-06
9.26156e-07
-0.000849538
-8.45786e-06
8.63504e-07
-0.000849264
-1.40292e-05
6.4108e-07
-0.000848263
-1.87889e-05
2.49782e-07
-0.000846486
-2.20942e-05
-3.17448e-07
-0.000843858
-2.29056e-05
-1.06226e-06
-0.000840317
-1.96376e-05
-1.98051e-06
-0.000835882
-2.85918e-06
-0.00083101
-1.06856e-05
1.18229e-05
1.06566e-06
-0.00113817
4.22974e-06
1.51717e-06
-0.00114004
-3.50527e-06
1.69039e-06
-0.00114071
-1.12442e-05
1.59941e-06
-0.00114024
-1.87702e-05
1.22492e-06
-0.00113853
-2.56937e-05
5.48241e-07
-0.00113541
-3.12539e-05
-4.62001e-07
-0.00113055
-3.39319e-05
-1.82659e-06
-0.00112354
-3.08879e-05
-3.60289e-06
-0.0011139
-5.40231e-06
-0.00110308
-1.82716e-05
1.45669e-05
1.39147e-06
-0.00142791
5.42432e-06
2.00695e-06
-0.00143039
-3.80358e-06
2.25309e-06
-0.00143132
-1.31143e-05
2.16544e-06
-0.00143069
-2.23993e-05
1.70439e-06
-0.00142835
-3.13638e-05
8.34352e-07
-0.00142392
-3.93304e-05
-5.22228e-07
-0.00141669
-4.46903e-05
-2.41591e-06
-0.00140563
-4.35192e-05
-5.03749e-06
-0.00138915
-7.86905e-06
-0.00136927
-2.88655e-05
1.67054e-05
1.66235e-06
-0.00171532
6.45664e-06
2.46312e-06
-0.0017185
-3.8807e-06
2.80611e-06
-0.00171976
-1.44389e-05
2.75684e-06
-0.00171915
-2.52604e-05
2.25758e-06
-0.00171641
-3.62571e-05
1.26543e-06
-0.00171097
-4.69631e-05
-3.55872e-07
-0.00170163
-5.57977e-05
-2.69622e-06
-0.00168644
-5.79139e-05
-6.17451e-06
-0.00166167
-1.0137e-05
-0.00162949
-4.31073e-05
1.85054e-05
1.98116e-06
-0.00200471
7.48485e-06
2.88145e-06
-0.00200862
-3.59947e-06
3.28186e-06
-0.00201036
-1.50177e-05
3.25848e-06
-0.00200995
-2.70034e-05
2.74657e-06
-0.00200708
-3.97179e-05
1.69391e-06
-0.00200102
-5.30004e-05
-1.00416e-07
-0.00198993
-6.54914e-05
-2.77845e-06
-0.00197082
-7.19566e-05
-7.0383e-06
-0.00193685
-1.21384e-05
-0.00188978
-5.88943e-05
1.97846e-05
2.21532e-06
-0.00229278
8.22542e-06
3.16389e-06
-0.00229748
-3.34715e-06
3.57216e-06
-0.00229968
-1.5327e-05
3.54631e-06
-0.00229954
-2.81222e-05
3.01979e-06
-0.00229663
-4.21675e-05
1.94429e-06
-0.00229018
-5.77042e-05
7.60356e-08
-0.00227773
-7.3807e-05
-2.77776e-06
-0.00225512
-8.55377e-05
-7.57143e-06
-0.00221162
-1.3689e-05
-0.00214778
-7.60934e-05
2.05747e-05
2.30027e-06
-0.00258116
8.7868e-06
3.1543e-06
-0.00258666
-2.9738e-06
3.50548e-06
-0.00258942
-1.51775e-05
3.4267e-06
-0.00258963
-2.84171e-05
2.89289e-06
-0.00258683
-4.33844e-05
1.84605e-06
-0.00258022
-6.07803e-05
2.73364e-08
-0.00256678
-8.02534e-05
-2.84058e-06
-0.00254121
-9.78444e-05
-7.80031e-06
-0.00248838
-1.47985e-05
-0.0024065
-9.34166e-05
2.05697e-05
2.07486e-06
-0.00287007
8.68074e-06
2.72862e-06
-0.00287633
-3.07314e-06
2.94474e-06
-0.00287936
-1.52453e-05
2.78032e-06
-0.00287955
-2.85388e-05
2.23187e-06
-0.00287645
-4.38908e-05
1.24475e-06
-0.00286935
-6.25271e-05
-3.73289e-07
-0.00285498
-8.48136e-05
-2.97791e-06
-0.00282712
-0.000108447
-7.26469e-06
-0.00276584
-1.4724e-05
-0.00266534
-0.000110353
1.99876e-05
1.19418e-06
-0.00315621
8.49839e-06
1.40368e-06
-0.00316309
-2.81369e-06
1.39716e-06
-0.00316656
-1.45024e-05
1.01491e-06
-0.00316697
-2.74059e-05
3.68263e-07
-0.00316389
-4.26938e-05
-5.7969e-07
-0.00315658
-6.22134e-05
-1.86103e-06
-0.00314146
-8.74356e-05
-3.70849e-06
-0.00311224
-0.000116967
-6.43477e-06
-0.00304391
-1.21223e-05
-0.00292212
-0.000126891
1.88787e-05
-0.00342353
7.42937e-06
-0.00343034
-3.66452e-06
-0.00343307
-1.50597e-05
-0.00343164
-2.75084e-05
-0.00342577
-4.22169e-05
-0.0034149
-6.1131e-05
-0.00339563
-8.68123e-05
-0.00336162
-0.000119542
-0.00328692
-0.00314749
-0.000139581
6.89509e-06
3.97753e-07
-0.000844309
2.6324e-06
6.29731e-07
-0.000845425
-1.83625e-06
7.22989e-07
-0.000845792
-6.18158e-06
6.63816e-07
-0.000845582
-1.00588e-05
4.54837e-07
-0.00084484
-1.30621e-05
9.48453e-08
-0.000843577
-1.46966e-05
-4.07861e-07
-0.000841816
-1.43562e-05
-1.03155e-06
-0.000839626
-1.1367e-05
-1.7298e-06
-0.000837142
-2.33472e-06
-0.000834609
-5.43282e-06
9.47576e-06
7.66932e-07
-0.00113296
3.40226e-06
1.20758e-06
-0.00113454
-2.85945e-06
1.3789e-06
-0.00113511
-9.02889e-06
1.28638e-06
-0.00113469
-1.47628e-05
9.16505e-07
-0.00113326
-1.95899e-05
2.61758e-07
-0.00113075
-2.27919e-05
-6.83024e-07
-0.00112708
-2.32614e-05
-1.89497e-06
-0.00112221
-1.93301e-05
-3.32823e-06
-0.00111624
-4.63596e-06
-0.00111026
-9.85061e-06
1.2582e-05
1.09117e-06
-0.00142074
4.74178e-06
1.70241e-06
-0.00142305
-3.2494e-06
1.94405e-06
-0.00142389
-1.1206e-05
1.83966e-06
-0.00142329
-1.88515e-05
1.355e-06
-0.00142114
-2.57126e-05
4.64335e-07
-0.00141726
-3.09113e-05
-8.79177e-07
-0.0014113
-3.2865e-05
-2.67629e-06
-0.00140289
-2.86791e-05
-4.94399e-06
-0.00139172
-7.14212e-06
-0.00137992
-1.55212e-05
1.50633e-05
1.39873e-06
-0.00170666
5.84782e-06
2.2107e-06
-0.00170979
-3.53047e-06
2.55025e-06
-0.00171099
-1.30017e-05
2.47093e-06
-0.00171031
-2.24002e-05
1.92008e-06
-0.00170757
-3.13608e-05
8.60957e-07
-0.00170241
-3.89909e-05
-8.09826e-07
-0.00169407
-4.33557e-05
-3.13304e-06
-0.00168162
-4.01261e-05
-6.28611e-06
-0.00166356
-9.52946e-06
-0.00164318
-2.40542e-05
1.71896e-05
1.76144e-06
-0.00199485
6.93319e-06
2.68559e-06
-0.00199884
-3.45744e-06
3.08659e-06
-0.0020005
-1.40556e-05
3.02677e-06
-0.00199991
-2.48657e-05
2.44414e-06
-0.00199679
-3.57107e-05
1.28673e-06
-0.0019906
-4.58135e-05
-6.17215e-07
-0.00198002
-5.30437e-05
-3.36818e-06
-0.00196336
-5.17612e-05
-7.37887e-06
-0.00193704
-1.17445e-05
-0.00190542
-3.39113e-05
1.87735e-05
2.05518e-06
-0.00228192
7.74987e-06
3.03746e-06
-0.00228681
-3.35662e-06
3.45183e-06
-0.00228894
-1.47617e-05
3.39332e-06
-0.0022885
-2.66389e-05
2.79296e-06
-0.00228511
-3.90537e-05
1.59586e-06
-0.00227807
-5.14813e-05
-4.23721e-07
-0.0022655
-6.18092e-05
-3.43513e-06
-0.00224472
-6.34605e-05
-8.10153e-06
-0.00220924
-1.35346e-05
-0.00216412
-4.53216e-05
1.9796e-05
2.19411e-06
-0.00256951
8.36395e-06
3.0881e-06
-0.00257528
-3.10505e-06
3.45271e-06
-0.00257795
-1.49302e-05
3.35278e-06
-0.00257776
-2.7476e-05
2.75543e-06
-0.00257425
-4.1064e-05
1.59375e-06
-0.00256663
-5.5522e-05
-3.87015e-07
-0.00255236
-6.89311e-05
-3.45717e-06
-0.00252778
-7.42819e-05
-8.43959e-06
-0.00248269
-1.48689e-05
-0.00242227
-5.71841e-05
1.9991e-05
2.00412e-06
-0.00285771
8.35479e-06
2.70036e-06
-0.00286431
-3.21439e-06
2.94189e-06
-0.00286728
-1.5146e-05
2.7887e-06
-0.00286705
-2.79278e-05
2.22061e-06
-0.00286313
-4.21326e-05
1.17426e-06
-0.00285473
-5.80613e-05
-5.61514e-07
-0.00283888
-7.42512e-05
-3.3645e-06
-0.00281103
-8.39046e-05
-7.84386e-06
-0.00275679
-1.49048e-05
-0.00267984
-6.93688e-05
1.95375e-05
1.18917e-06
-0.00314329
8.21532e-06
1.42675e-06
-0.0031505
-3.00284e-06
1.47689e-06
-0.00315388
-1.45547e-05
1.16403e-06
-0.00315379
-2.70723e-05
5.8852e-07
-0.00314974
-4.1334e-05
-3.02345e-07
-0.00314084
-5.81384e-05
-1.57379e-06
-0.00312364
-7.71264e-05
-3.49438e-06
-0.00309312
-9.15646e-05
-6.41309e-06
-0.0030309
-1.19856e-05
-0.0029348
-8.17961e-05
1.85398e-05
-0.00341051
7.33139e-06
-0.0034177
-3.60176e-06
-0.00342066
-1.48261e-05
-0.00341925
-2.6921e-05
-0.00341309
-4.07474e-05
-0.00340138
-5.72482e-05
-0.0033807
-7.6902e-05
-0.00334546
-9.4098e-05
-0.00327613
-0.00316247
-9.11026e-05
4.85066e-06
2.21489e-07
-0.000842032
1.88384e-06
4.27583e-07
-0.000842886
-1.27164e-06
5.14331e-07
-0.000843151
-4.30755e-06
4.62598e-07
-0.000843009
-6.9168e-06
2.78947e-07
-0.00084251
-8.77564e-06
-3.19448e-08
-0.000841686
-9.55326e-06
-4.5189e-07
-0.000840586
-8.93317e-06
-9.485e-07
-0.000839297
-6.68345e-06
-1.46455e-06
-0.000837927
-1.8804e-06
-0.000836519
-2.89353e-06
7.25172e-06
4.62244e-07
-0.00112912
2.61018e-06
8.7131e-07
-0.00113034
-2.23403e-06
1.03348e-06
-0.00113078
-6.94859e-06
9.46101e-07
-0.00113046
-1.11596e-05
6.01326e-07
-0.00112937
-1.44235e-05
2.76929e-09
-0.00112752
-1.61773e-05
-8.33305e-07
-0.00112494
-1.57358e-05
-1.8576e-06
-0.00112174
-1.23115e-05
-2.97887e-06
-0.00111815
-3.92605e-06
-0.00111481
-5.72039e-06
1.04552e-05
7.52648e-07
-0.00141509
4.00424e-06
1.33595e-06
-0.00141706
-2.64138e-06
1.56562e-06
-0.00141778
-9.17421e-06
1.45265e-06
-0.00141726
-1.52189e-05
9.69823e-07
-0.00141547
-2.02539e-05
1.05733e-07
-0.00141233
-2.34786e-05
-1.15255e-06
-0.00140775
-2.37119e-05
-2.76434e-06
-0.00140175
-1.92376e-05
-4.64736e-06
-0.00139453
-6.33411e-06
-0.00138753
-9.21495e-06
1.31147e-05
1.06861e-06
-0.0016995
5.13502e-06
1.86947e-06
-0.00170234
-3.0708e-06
2.19879e-06
-0.00170341
-1.12604e-05
2.0967e-06
-0.00170276
-1.91056e-05
1.51893e-06
-0.00170028
-2.60916e-05
4.42414e-07
-0.00169576
-3.12579e-05
-1.19242e-06
-0.00168886
-3.29452e-05
-3.37402e-06
-0.00167932
-2.81572e-05
-6.10661e-06
-0.00166689
-8.7004e-06
-0.00165422
-1.47492e-05
1.54827e-05
1.45683e-06
-0.00198635
6.25379e-06
2.3856e-06
-0.00199013
-3.17881e-06
2.78095e-06
-0.00199165
-1.26933e-05
2.68937e-06
-0.00199099
-2.20844e-05
2.05581e-06
-0.00198794
-3.09348e-05
8.37684e-07
-0.00198214
-3.82307e-05
-1.08961e-06
-0.00197283
-4.19178e-05
-3.76789e-06
-0.00195928
-3.75516e-05
-7.36419e-06
-0.00194015
-1.0983e-05
-0.00191954
-2.11458e-05
1.73345e-05
1.80001e-06
-0.00227225
7.1337e-06
2.8013e-06
-0.00227702
-3.22491e-06
3.21639e-06
-0.00227902
-1.37587e-05
3.1267e-06
-0.0022784
-2.44033e-05
2.4657e-06
-0.00227487
-3.49127e-05
1.18148e-06
-0.00226791
-4.43574e-05
-9.09951e-07
-0.00225623
-5.04527e-05
-3.92406e-06
-0.00223847
-4.73685e-05
-8.23185e-06
-0.00221146
-1.28766e-05
-0.00218076
-2.88393e-05
1.85837e-05
1.99756e-06
-0.00255888
7.79657e-06
2.92233e-06
-0.00256461
-3.10223e-06
3.29659e-06
-0.00256713
-1.42452e-05
3.17548e-06
-0.00256667
-2.5747e-05
2.52239e-06
-0.00256281
-3.75741e-05
1.26913e-06
-0.00255489
-4.89961e-05
-8.1005e-07
-0.00254103
-5.76587e-05
-3.93385e-06
-0.00251911
-5.6582e-05
-8.65074e-06
-0.00248335
-1.42836e-05
-0.00244061
-3.68329e-05
1.89983e-05
1.84814e-06
-0.00284624
7.88772e-06
2.58384e-06
-0.00285286
-3.23628e-06
2.84614e-06
-0.00285571
-1.46379e-05
2.69872e-06
-0.00285517
-2.65591e-05
2.10832e-06
-0.00285079
-3.91907e-05
1.0098e-06
-0.00284184
-5.21434e-05
-8.01324e-07
-0.00282594
-6.3275e-05
-3.6674e-06
-0.00280016
-6.49697e-05
-8.03317e-06
-0.00275571
-1.43387e-05
-0.00269943
-4.53263e-05
1.87061e-05
1.12876e-06
-0.00313115
7.80526e-06
1.39291e-06
-0.0031384
-3.07795e-06
1.49117e-06
-0.00314164
-1.42231e-05
1.23298e-06
-0.00314118
-2.60312e-05
7.09571e-07
-0.00313653
-3.88831e-05
-1.42961e-07
-0.00312684
-5.27331e-05
-1.40767e-06
-0.00310919
-6.62031e-05
-3.33649e-06
-0.00307998
-7.1329e-05
-6.22854e-06
-0.00302758
-1.12011e-05
-0.00295532
-5.39466e-05
1.78481e-05
-0.00339826
7.09061e-06
-0.00340555
-3.48264e-06
-0.0034086
-1.43072e-05
-0.0034072
-2.57606e-05
-0.00340093
-3.83378e-05
-0.00338894
-5.21777e-05
-0.00336827
-6.64353e-05
-0.00333454
-7.37048e-05
-0.00327509
-0.00318753
-5.98505e-05
3.3175e-06
7.48542e-08
-0.000840482
1.31804e-06
2.4802e-07
-0.000841135
-8.37029e-07
3.25052e-07
-0.000841321
-2.89571e-06
2.82769e-07
-0.000841233
-4.61691e-06
1.30443e-07
-0.000840919
-5.76646e-06
-1.24202e-07
-0.000840413
-6.1384e-06
-4.58619e-07
-0.000839756
-5.57984e-06
-8.39165e-07
-0.000839017
-4.04171e-06
-1.2129e-06
-0.000838252
-1.49715e-06
-0.000837383
-1.68036e-06
5.32785e-06
1.83643e-07
-0.00112634
1.91133e-06
5.4551e-07
-0.00112722
-1.69525e-06
6.92631e-07
-0.00112754
-5.17389e-06
6.15626e-07
-0.00112732
-8.18226e-06
3.11266e-07
-0.00112655
-1.03545e-05
-2.08489e-07
-0.00112527
-1.12935e-05
-9.13944e-07
-0.00112355
-1.0612e-05
-1.74441e-06
-0.00112151
-8.00476e-06
-2.60026e-06
-0.00111937
-3.28282e-06
-0.00111743
-3.59886e-06
8.4015e-06
4.13341e-07
-0.00141078
3.27732e-06
9.46129e-07
-0.00141234
-2.05649e-06
1.15634e-06
-0.00141291
-7.2427e-06
1.04342e-06
-0.0014125
-1.18791e-05
5.86975e-07
-0.00141111
-1.54771e-05
-2.10385e-07
-0.00140873
-1.74049e-05
-1.33368e-06
-0.0014054
-1.68974e-05
-2.71383e-06
-0.00140129
-1.30901e-05
-4.22467e-06
-0.00139671
-5.50466e-06
-0.00139251
-5.89539e-06
1.10504e-05
7.06856e-07
-0.00169379
4.37428e-06
1.47129e-06
-0.00169619
-2.5683e-06
1.78249e-06
-0.0016971
-9.42287e-06
1.66729e-06
-0.00169653
-1.57689e-05
1.09131e-06
-0.00169443
-2.10481e-05
4.82446e-08
-0.00169074
-2.4409e-05
-1.47843e-06
-0.00168535
-2.46408e-05
-3.43241e-06
-0.00167837
-1.99721e-05
-5.71384e-06
-0.00167007
-7.75472e-06
-0.00166221
-9.73584e-06
1.35311e-05
1.09564e-06
-0.00197926
5.48966e-06
2.00392e-06
-0.00198262
-2.81046e-06
2.3856e-06
-0.00198395
-1.10927e-05
2.27072e-06
-0.00198331
-1.90008e-05
1.61407e-06
-0.00198056
-2.59865e-05
3.88849e-07
-0.0019755
-3.10356e-05
-1.47628e-06
-0.00196778
-3.24938e-05
-3.96344e-06
-0.00195729
-2.74006e-05
-7.06251e-06
-0.0019439
-9.99788e-06
-0.00193061
-1.4085e-05
1.55707e-05
1.46975e-06
-0.00226393
6.40822e-06
2.46816e-06
-0.00226832
-2.9798e-06
2.8765e-06
-0.00227012
-1.24312e-05
2.76116e-06
-0.00226944
-2.16864e-05
2.06239e-06
-0.00226606
-3.02855e-05
7.39897e-07
-0.00225966
-3.71618e-05
-1.33484e-06
-0.0022495
-4.03096e-05
-4.21109e-06
-0.00223508
-3.54474e-05
-8.01905e-06
-0.00221536
-1.1881e-05
-0.00219485
-1.9473e-05
1.70038e-05
1.72227e-06
-0.00254949
7.10579e-06
2.66142e-06
-0.0025549
-2.97811e-06
3.03924e-06
-0.00255721
-1.31936e-05
2.90009e-06
-0.00255659
-2.34306e-05
2.20807e-06
-0.00255271
-3.3376e-05
9.0264e-07
-0.00254511
-4.2012e-05
-1.19486e-06
-0.00253254
-4.71015e-05
-4.22589e-06
-0.002514
-4.30569e-05
-8.47942e-06
-0.00248693
-1.32268e-05
-0.0024574
-2.4916e-05
1.76315e-05
1.61233e-06
-0.00283589
7.29252e-06
2.37815e-06
-0.00284224
-3.14287e-06
2.65486e-06
-0.00284489
-1.37605e-05
2.51023e-06
-0.00284416
-2.45688e-05
1.90225e-06
-0.00283968
-3.54329e-05
7.71727e-07
-0.00283084
-4.55268e-05
-1.05803e-06
-0.00281598
-5.26112e-05
-3.85068e-06
-0.00279345
-5.01489e-05
-7.85764e-06
-0.00275879
-1.31965e-05
-0.00271876
-3.08471e-05
1.75128e-05
1.01317e-06
-0.00312007
7.27281e-06
1.29866e-06
-0.00312709
-3.04018e-06
1.43578e-06
-0.00313011
-1.35283e-05
1.21967e-06
-0.0031294
-2.43656e-05
7.35111e-07
-0.00312453
-3.55861e-05
-8.64541e-08
-0.00311476
-4.65824e-05
-1.33165e-06
-0.00309792
-5.55021e-05
-3.20043e-06
-0.00307171
-5.52237e-05
-5.89964e-06
-0.00302981
-1.00298e-05
-0.00297725
-3.64608e-05
1.68154e-05
-0.00338706
6.71152e-06
-0.00339415
-3.30189e-06
-0.00339715
-1.35071e-05
-0.00339577
-2.40755e-05
-0.00338962
-3.51661e-05
-0.00337794
-4.63593e-05
-0.00335841
-5.61004e-05
-0.003328
-5.74269e-05
-0.00327967
-0.00321503
-3.99539e-05
2.23333e-06
-3.56974e-08
-0.000839408
9.15895e-07
1.03513e-07
-0.000839921
-5.22828e-07
1.69704e-07
-0.000840052
-1.89151e-06
1.37103e-07
-0.000840002
-3.01417e-06
1.66828e-08
-0.000839813
-3.72974e-06
-1.83156e-07
-0.000839514
-3.91278e-06
-4.3977e-07
-0.000839133
-3.49132e-06
-7.23289e-07
-0.000838715
-2.47518e-06
-9.90284e-07
-0.000838278
-1.18403e-06
-0.000837678
-9.96418e-07
3.77096e-06
-4.93822e-08
-0.00112433
1.33269e-06
2.57198e-07
-0.00112494
-1.26737e-06
3.85725e-07
-0.00112516
-3.76031e-06
3.22066e-07
-0.00112501
-5.86331e-06
6.62365e-08
-0.00112449
-7.29749e-06
-3.65334e-07
-0.00112365
-7.79771e-06
-9.37266e-07
-0.00112255
-7.15581e-06
-1.58841e-06
-0.00112129
-5.28001e-06
-2.22814e-06
-0.00112001
-2.71379e-06
-0.00111882
-2.35335e-06
6.5621e-06
1.02821e-07
-0.00140754
2.61111e-06
5.67823e-07
-0.0014087
-1.53873e-06
7.52527e-07
-0.00140913
-5.53827e-06
6.46772e-07
-0.00140883
-9.01126e-06
2.35646e-07
-0.0014078
-1.15433e-05
-4.67955e-07
-0.00140609
-1.26713e-05
-1.43032e-06
-0.00140378
-1.19319e-05
-2.56962e-06
-0.00140105
-8.94541e-06
-3.75008e-06
-0.00139818
-4.70464e-06
-0.0013956
-3.86312e-06
9.03178e-06
3.47308e-07
-0.00168935
3.61874e-06
1.05142e-06
-0.00169126
-2.07379e-06
1.33672e-06
-0.00169199
-7.64345e-06
1.21815e-06
-0.00169153
-1.26446e-05
6.7096e-07
-0.00168987
-1.65491e-05
-2.95474e-07
-0.00168701
-1.86735e-05
-1.66381e-06
-0.001683
-1.82064e-05
-3.3473e-06
-0.00167806
-1.42165e-05
-5.19582e-06
-0.00167261
-6.76854e-06
-0.00166772
-6.63585e-06
1.14843e-05
7.10014e-07
-0.00197351
4.68876e-06
1.57055e-06
-0.00197634
-2.3971e-06
1.92967e-06
-0.00197746
-9.39946e-06
1.80165e-06
-0.00197689
-1.58804e-05
1.15224e-06
-0.00197456
-2.12565e-05
-2.72589e-08
-0.00197039
-2.46366e-05
-1.75953e-06
-0.00196431
-2.48095e-05
-3.97753e-06
-0.00195648
-2.00202e-05
-6.56102e-06
-0.00194732
-8.88735e-06
-0.00193881
-9.70331e-06
1.36063e-05
1.09165e-06
-0.00225698
5.61325e-06
2.06049e-06
-0.00226082
-2.65485e-06
2.453e-06
-0.00226238
-1.08997e-05
2.32022e-06
-0.00226172
-1.87305e-05
1.61208e-06
-0.00225869
-2.55784e-05
3.05271e-07
-0.00225314
-3.04163e-05
-1.67123e-06
-0.00224475
-3.16596e-05
-4.3032e-06
-0.00223351
-2.65258e-05
-7.54753e-06
-0.00221951
-1.06718e-05
-0.00220595
-1.36365e-05
1.51515e-05
1.38801e-06
-0.00254145
6.32226e-06
2.31902e-06
-0.00254633
-2.75511e-06
2.69224e-06
-0.00254838
-1.18665e-05
2.54067e-06
-0.0025477
-2.07299e-05
1.83292e-06
-0.00254407
-2.88544e-05
5.23153e-07
-0.0025372
-3.51486e-05
-1.51235e-06
-0.0025264
-3.77231e-05
-4.33177e-06
-0.0025114
-3.26524e-05
-8.0144e-06
-0.00249153
-1.18719e-05
-0.00247144
-1.7409e-05
1.59618e-05
1.30976e-06
-0.00282681
6.59246e-06
2.09016e-06
-0.00283264
-2.94803e-06
2.37335e-06
-0.00283503
-1.25796e-05
2.23111e-06
-0.00283422
-2.21172e-05
1.617e-06
-0.00282993
-3.11932e-05
4.84584e-07
-0.00282173
-3.87861e-05
-1.30257e-06
-0.0028086
-4.28494e-05
-3.9141e-06
-0.00278981
-3.85259e-05
-7.4192e-06
-0.00276371
-1.17232e-05
-0.00273578
-2.16482e-05
1.60073e-05
8.4818e-07
-0.00311023
6.63321e-06