/*--------------------------------*- C++ -*----------------------------------*\
| =========                 |                                                 |
| \\      /  F ield         | foam-extend: Open Source CFD                    |
|  \\    /   O peration     | Version:     4.0                                |
|   \\  /    A nd           | Web:         http://www.foam-extend.org         |
|    \\/     M anipulation  |                                                 |
\*---------------------------------------------------------------------------*/
FoamFile
{
    version     2.0;
    format      ascii;
    class       volScalarField;
    location    "950";
    object      rho;
}
// * * * * * * * * * * * * * * * * * * * * * * * * * * * * * * * * * * * * * //

dimensions      [1 -3 0 0 0 0 0];

internalField   nonuniform List<scalar> 
34480
(
1.34801
1.34728
1.34714
1.34757
1.34874
1.35101
1.35516
1.36318
1.37378
1.37809
1.34871
1.34802
1.34795
1.34838
1.3495
1.35163
1.35565
1.36369
1.37537
1.37697
1.34706
1.3464
1.3464
1.34676
1.34772
1.34956
1.3533
1.36095
1.37302
1.36932
1.34549
1.34492
1.34496
1.34531
1.34615
1.34769
1.35102
1.35795
1.36979
1.36053
1.34394
1.34336
1.34345
1.34374
1.34447
1.34572
1.34866
1.35483
1.36617
1.35182
1.34341
1.34295
1.34308
1.34339
1.34405
1.34507
1.34764
1.35303
1.36356
1.34444
1.34177
1.34127
1.34143
1.34171
1.34231
1.34319
1.34546
1.35018
1.35976
1.33669
1.34228
1.34196
1.34223
1.34273
1.34356
1.34465
1.34691
1.35116
1.35952
1.33257
1.34063
1.34035
1.34062
1.34116
1.34213
1.34348
1.34585
1.3498
1.35663
1.32665
1.33785
1.33779
1.33859
1.34005
1.34224
1.34516
1.34919
1.35465
1.36166
1.32786
1.3546
1.35349
1.35309
1.3533
1.35423
1.35601
1.35888
1.36318
1.36997
1.37885
1.35499
1.35374
1.35331
1.35353
1.35452
1.35647
1.35983
1.36545
1.37562
1.39029
1.35312
1.3518
1.35135
1.3515
1.35239
1.35423
1.35768
1.36399
1.37684
1.39572
1.35142
1.35004
1.34953
1.34957
1.35033
1.35197
1.35525
1.36155
1.37599
1.39774
1.34984
1.34834
1.34777
1.34766
1.34825
1.34958
1.35254
1.35848
1.37378
1.39725
1.34928
1.34779
1.34715
1.34695
1.34738
1.34842
1.351
1.35632
1.37181
1.3958
1.34767
1.34607
1.34536
1.34503
1.3453
1.34607
1.34827
1.35294
1.36817
1.39204
1.34819
1.34665
1.34594
1.34569
1.34603
1.34683
1.34888
1.35296
1.36737
1.39021
1.34658
1.34503
1.34427
1.34396
1.34423
1.34503
1.347
1.35072
1.36373
1.38602
1.34389
1.34242
1.342
1.34233
1.34345
1.3453
1.34832
1.35295
1.36551
1.38654
1.35913
1.3582
1.35787
1.35811
1.35899
1.36057
1.36296
1.36623
1.37034
1.37483
1.35949
1.35832
1.35794
1.35824
1.35933
1.36132
1.3644
1.36887
1.37545
1.38327
1.35753
1.35622
1.35584
1.35614
1.35729
1.35944
1.36294
1.36842
1.37765
1.38921
1.35565
1.35425
1.3538
1.35405
1.35518
1.35735
1.36108
1.36716
1.37847
1.39346
1.35394
1.3524
1.35189
1.35202
1.35306
1.35511
1.35885
1.36515
1.37806
1.39604
1.35319
1.35163
1.35106
1.35111
1.35204
1.35394
1.35757
1.36379
1.3778
1.39809
1.35142
1.34976
1.34913
1.34907
1.34987
1.35158
1.35503
1.36104
1.37572
1.39786
1.35179
1.35018
1.34954
1.34953
1.35036
1.35207
1.35546
1.36123
1.37599
1.39916
1.35014
1.3485
1.34781
1.34771
1.34842
1.35002
1.35329
1.35898
1.37318
1.39741
1.34742
1.34584
1.34536
1.34571
1.34698
1.34923
1.35311
1.3594
1.37339
1.39792
1.36225
1.36157
1.36133
1.36152
1.36217
1.36329
1.36487
1.36682
1.36895
1.37077
1.36293
1.36193
1.3616
1.36187
1.36279
1.3644
1.36676
1.36986
1.37371
1.37741
1.36123
1.36002
1.35964
1.35995
1.36102
1.36296
1.36593
1.3701
1.37617
1.38258
1.35943
1.35805
1.3576
1.35788
1.35903
1.36117
1.36463
1.36974
1.37799
1.38739
1.35776
1.3562
1.35568
1.35588
1.35702
1.35921
1.36294
1.36868
1.37888
1.39127
1.35695
1.35533
1.35475
1.35489
1.35597
1.35813
1.36201
1.36811
1.37993
1.39507
1.35513
1.35339
1.35275
1.3528
1.3538
1.35587
1.35976
1.36605
1.37916
1.39689
1.35541
1.3537
1.35304
1.35311
1.35414
1.35623
1.36018
1.36656
1.38044
1.40025
1.3537
1.35196
1.35125
1.35127
1.35221
1.35422
1.35808
1.3646
1.37861
1.40049
1.35096
1.34926
1.34871
1.34904
1.35036
1.35281
1.35708
1.36403
1.37805
1.40143
1.36441
1.36397
1.36381
1.36394
1.36439
1.36512
1.36611
1.36726
1.36842
1.36931
1.36544
1.36468
1.36442
1.36463
1.36534
1.36654
1.36822
1.37027
1.37253
1.37446
1.36416
1.36313
1.3628
1.36307
1.36399
1.36558
1.3679
1.3709
1.37464
1.37813
1.36256
1.36131
1.3609
1.36117
1.36223
1.36415
1.36707
1.37104
1.37654
1.38208
1.36105
1.35959
1.3591
1.35934
1.36045
1.36255
1.36591
1.37069
1.37794
1.38576
1.36028
1.35872
1.35815
1.35835
1.35948
1.36167
1.36534
1.37075
1.37966
1.3898
1.35849
1.35678
1.35616
1.35628
1.35739
1.35958
1.36344
1.36931
1.37971
1.39222
1.35873
1.35702
1.35637
1.35652
1.35766
1.35993
1.36396
1.37018
1.38171
1.39636
1.357
1.35524
1.35456
1.35467
1.35577
1.35801
1.36208
1.36861
1.38076
1.39769
1.35428
1.35255
1.35196
1.35229
1.35364
1.35618
1.36053
1.36746
1.37985
1.39867
1.36593
1.36568
1.36558
1.36566
1.36595
1.3664
1.36698
1.36762
1.36823
1.36863
1.36726
1.36672
1.36653
1.36668
1.36719
1.36802
1.36913
1.37042
1.37172
1.37274
1.36643
1.36561
1.36535
1.36556
1.36628
1.3675
1.36921
1.37128
1.37358
1.37551
1.36509
1.36403
1.36367
1.36392
1.36482
1.36641
1.36872
1.37168
1.37527
1.37853
1.36384
1.36253
1.36209
1.36232
1.36334
1.36519
1.36802
1.3718
1.37679
1.38164
1.36317
1.36173
1.36121
1.36143
1.36252
1.36455
1.3678
1.3723
1.37872
1.38533
1.36148
1.35986
1.35928
1.35945
1.36056
1.3627
1.36625
1.37136
1.37916
1.38769
1.36174
1.3601
1.35947
1.35967
1.36084
1.3631
1.36692
1.37252
1.38154
1.39192
1.36002
1.35831
1.35766
1.35783
1.35899
1.36128
1.36522
1.37127
1.38114
1.39365
1.35736
1.35567
1.35507
1.35538
1.35672
1.35922
1.36339
1.36979
1.38008
1.39429
1.36706
1.36693
1.36688
1.36693
1.3671
1.36737
1.3677
1.36806
1.36838
1.36855
1.36858
1.36822
1.36809
1.36819
1.36853
1.36907
1.36978
1.37056
1.37131
1.37186
1.36817
1.36755
1.36735
1.36751
1.36804
1.36893
1.37012
1.37151
1.37293
1.37404
1.36709
1.36624
1.36595
1.36615
1.36687
1.36811
1.36985
1.37198
1.37433
1.3763
1.36612
1.36502
1.36464
1.36485
1.36572
1.36726
1.36951
1.37238
1.37579
1.37885
1.36562
1.36435
1.36389
1.3641
1.36508
1.36687
1.36958
1.37315
1.37771
1.38202
1.36406
1.3626
1.36207
1.36226
1.36331
1.36526
1.36834
1.37256
1.37828
1.38403
1.36439
1.36288
1.3623
1.36252
1.36365
1.36576
1.36916
1.37394
1.38075
1.38798
1.3627
1.36111
1.36051
1.36071
1.36185
1.36404
1.36763
1.37289
1.38057
1.38956
1.36015
1.35855
1.35798
1.35828
1.35954
1.36189
1.36568
1.37127
1.37942
1.38972
1.36796
1.36791
1.36789
1.36792
1.36802
1.36817
1.36836
1.36855
1.36871
1.36878
1.36956
1.36933
1.36925
1.36932
1.36953
1.36987
1.37031
1.37077
1.3712
1.37148
1.3695
1.36906
1.36891
1.36902
1.3694
1.37001
1.37081
1.37171
1.37258
1.37322
1.36865
1.368
1.36777
1.36792
1.36847
1.3694
1.37065
1.37213
1.37365
1.37487
1.36796
1.36707
1.36677
1.36694
1.36764
1.36886
1.37057
1.37267
1.37498
1.37694
1.36763
1.36657
1.36617
1.36637
1.3672
1.36868
1.37084
1.37358
1.37677
1.37961
1.36623
1.36496
1.36451
1.36469
1.36562
1.36731
1.36986
1.3732
1.37732
1.38122
1.36666
1.36533
1.36482
1.36504
1.36606
1.36794
1.37083
1.37472
1.37975
1.38474
1.36503
1.3636
1.36306
1.36327
1.36433
1.36632
1.36943
1.37378
1.37957
1.38587
1.36264
1.36118
1.36065
1.36093
1.36208
1.36419
1.36749
1.37214
1.37838
1.38562
1.36873
1.36873
1.36872
1.36874
1.36879
1.36888
1.36898
1.36908
1.36917
1.36917
1.37032
1.37018
1.37013
1.37017
1.37031
1.37051
1.37077
1.37105
1.37129
1.37143
1.37053
1.37023
1.37013
1.3702
1.37046
1.37086
1.37138
1.37195
1.37248
1.37284
1.36985
1.36938
1.3692
1.36931
1.36971
1.37037
1.37125
1.37224
1.37322
1.37397
1.36943
1.36874
1.3685
1.36863
1.36917
1.3701
1.37136
1.37284
1.37438
1.37563
1.36925
1.3684
1.36808
1.36825
1.36892
1.3701
1.37175
1.37377
1.37598
1.37785
1.36801
1.36696
1.36658
1.36675
1.36753
1.36892
1.37094
1.3735
1.37642
1.37905
1.36858
1.36745
1.36701
1.36722
1.3681
1.36969
1.37204
1.37508
1.37872
1.38214
1.36701
1.36576
1.3653
1.36549
1.36643
1.36815
1.37073
1.37419
1.37843
1.38275
1.3648
1.36353
1.36305
1.3633
1.36431
1.36613
1.36888
1.37261
1.37723
1.38222
1.36942
1.36944
1.36944
1.36945
1.36948
1.36953
1.36959
1.36964
1.36968
1.36966
1.37094
1.37086
1.37082
1.37085
1.37093
1.37105
1.37121
1.37136
1.3715
1.37157
1.37136
1.37116
1.37109
1.37114
1.3713
1.37156
1.37189
1.37224
1.37256
1.37276
1.37078
1.37045
1.37032
1.3704
1.37068
1.37113
1.37173
1.37238
1.37301
1.37347
1.37058
1.37007
1.36988
1.36999
1.37039
1.37106
1.37196
1.37298
1.37399
1.37479
1.37055
1.36989
1.36964
1.36977
1.3703
1.37119
1.37242
1.37386
1.37536
1.37658
1.36945
1.36861
1.3683
1.36844
1.36907
1.37018
1.37172
1.37361
1.37564
1.3774
1.37016
1.36924
1.36888
1.36906
1.36979
1.37108
1.37293
1.37522
1.3778
1.38009
1.36863
1.36759
1.3672
1.36738
1.36818
1.36959
1.37166
1.37431
1.37735
1.38026
1.36665
1.36558
1.36518
1.36539
1.36624
1.36775
1.36996
1.37284
1.37618
1.37955
1.37006
1.3701
1.3701
1.37011
1.37012
1.37015
1.37018
1.37021
1.37023
1.37019
1.37145
1.37141
1.37138
1.3714
1.37145
1.37152
1.37161
1.3717
1.37178
1.37181
1.37204
1.37191
1.37186
1.3719
1.372
1.37216
1.37237
1.37258
1.37277
1.37287
1.37151
1.37128
1.37119
1.37124
1.37143
1.37173
1.37212
1.37255
1.37295
1.37323
1.37149
1.37112
1.37099
1.37106
1.37135
1.37182
1.37244
1.37313
1.37379
1.37429
1.37157
1.37108
1.37089
1.37099
1.37138
1.37204
1.37292
1.37393
1.37493
1.37572
1.37059
1.36994
1.3697
1.36981
1.3703
1.37114
1.37229
1.37364
1.37502
1.37619
1.37145
1.37073
1.37044
1.37059
1.37117
1.37218
1.37358
1.37525
1.37704
1.37855
1.36995
1.3691
1.36879
1.36894
1.36958
1.37071
1.3723
1.37427
1.3764
1.37834
1.36822
1.36735
1.36702
1.36719
1.36788
1.36909
1.37081
1.37295
1.37531
1.37755
1.37067
1.37071
1.37072
1.37072
1.37073
1.37075
1.37076
1.37078
1.37078
1.37074
1.37189
1.37186
1.37185
1.37186
1.37189
1.37193
1.37198
1.37204
1.37208
1.37209
1.37262
1.37254
1.37251
1.37253
1.37259
1.37269
1.37282
1.37294
1.37305
1.3731
1.37208
1.37192
1.37186
1.37189
1.37201
1.37222
1.37247
1.37274
1.37299
1.37317
1.37221
1.37195
1.37186
1.37191
1.37211
1.37244
1.37285
1.3733
1.37373
1.37404
1.37236
1.37201
1.37187
1.37194
1.37223
1.3727
1.37331
1.374
1.37466
1.37517
1.37148
1.37099
1.37082
1.3709
1.37127
1.37188
1.3727
1.37365
1.37458
1.37534
1.37249
1.37195
1.37173
1.37184
1.37228
1.37304
1.37407
1.37525
1.37648
1.37746
1.37098
1.37032
1.37008
1.3702
1.3707
1.37156
1.37274
1.37416
1.37563
1.3769
1.36955
1.36886
1.3686
1.36874
1.36928
1.3702
1.37149
1.37304
1.37467
1.37615
1.37126
1.3713
1.37131
1.37131
1.37132
1.37132
1.37133
1.37134
1.37134
1.37129
1.37226
1.37225
1.37224
1.37225
1.37226
1.37229
1.37232
1.37235
1.37238
1.37239
1.37313
1.37308
1.37306
1.37307
1.37311
1.37317
1.37324
1.37332
1.37338
1.3734
1.37253
1.37242
1.37238
1.3724
1.37248
1.37261
1.37277
1.37294
1.3731
1.37322
1.37279
1.37262
1.37255
1.37259
1.37272
1.37294
1.37321
1.3735
1.37377
1.37397
1.37298
1.37274
1.37264
1.37269
1.37288
1.37321
1.37363
1.37408
1.37452
1.37484
1.37217
1.37182
1.37169
1.37175
1.37201
1.37245
1.37302
1.37366
1.37428
1.37478
1.37332
1.37293
1.37277
1.37285
1.37318
1.37373
1.37445
1.37527
1.3761
1.37672
1.37178
1.37128
1.3711
1.37118
1.37156
1.37219
1.37304
1.37404
1.37503
1.37586
1.37066
1.37014
1.36994
1.37005
1.37045
1.37114
1.37207
1.37316
1.37427
1.37522
1.37183
1.37187
1.37188
1.37188
1.37188
1.37189
1.37189
1.37189
1.37189
1.37184
1.37257
1.37257
1.37256
1.37256
1.37257
1.37259
1.37261
1.37263
1.37265
1.37266
1.37358
1.37355
1.37354
1.37355
1.37357
1.37361
1.37365
1.37369
1.37373
1.37373
1.37289
1.37282
1.37279
1.3728
1.37285
1.37293
1.37303
1.37314
1.37324
1.37332
1.37325
1.37314
1.3731
1.37312
1.37321
1.37335
1.37352
1.3737
1.37387
1.374
1.37346
1.37329
1.37322
1.37326
1.37339
1.37361
1.37388
1.37418
1.37447
1.37467
1.37271
1.37246
1.37237
1.37241
1.37259
1.37289
1.37328
1.3737
1.3741
1.37443
1.37399
1.37372
1.3736
1.37366
1.3739
1.37428
1.37478
1.37533
1.37588
1.37626
1.37237
1.372
1.37187
1.37193
1.3722
1.37265
1.37324
1.37392
1.37457
1.37511
1.37162
1.37124
1.37109
1.37117
1.37146
1.37195
1.37261
1.37335
1.37408
1.37469
1.3724
1.37243
1.37244
1.37244
1.37244
1.37245
1.37245
1.37245
1.37244
1.37239
1.37281
1.37281
1.3728
1.3728
1.37281
1.37282
1.37284
1.37285
1.37287
1.37288
1.374
1.37398
1.37398
1.37398
1.374
1.37402
1.37404
1.37406
1.37408
1.37408
1.37317
1.37312
1.3731
1.37311
1.37314
1.37319
1.37325
1.37332
1.37338
1.37345
1.37362
1.37355
1.37352
1.37353
1.37359
1.37368
1.37378
1.3739
1.37401
1.37408
1.37381
1.3737
1.37365
1.37368
1.37376
1.37391
1.37409
1.37428
1.37446
1.37459
1.37311
1.37295
1.37289
1.37292
1.37304
1.37324
1.37349
1.37376
1.37401
1.37423
1.37453
1.37435
1.37427
1.37432
1.37447
1.37473
1.37507
1.37543
1.37579
1.37601
1.37278
1.37252
1.37243
1.37247
1.37266
1.37297
1.37337
1.37381
1.37423
1.37459
1.37247
1.3722
1.3721
1.37215
1.37235
1.37269
1.37314
1.37363
1.3741
1.37449
1.373
1.37303
1.37304
1.37304
1.37304
1.37304
1.37304
1.37304
1.37303
1.37298
1.37296
1.37296
1.37296
1.37295
1.37296
1.37297
1.37298
1.373
1.37301
1.37303
1.37437
1.37436
1.37436
1.37436
1.37437
1.37438
1.3744
1.37441
1.37442
1.37441
1.37338
1.37335
1.37334
1.37334
1.37336
1.37339
1.37343
1.37347
1.37351
1.37356
1.37389
1.37384
1.37383
1.37383
1.37387
1.37392
1.37399
1.37406
1.37413
1.37418
1.37405
1.37398
1.37395
1.37396
1.37402
1.37411
1.37422
1.37434
1.37446
1.37455
1.37343
1.37332
1.37328
1.3733
1.37338
1.37351
1.37367
1.37384
1.37399
1.37413
1.37497
1.37485
1.37479
1.37482
1.37493
1.3751
1.37532
1.37555
1.37579
1.37591
1.37304
1.37286
1.37279
1.37282
1.37295
1.37315
1.37341
1.3737
1.37397
1.3742
1.37329
1.37311
1.37304
1.37307
1.37321
1.37344
1.37373
1.37404
1.37435
1.37459
1.37375
1.37378
1.37379
1.37379
1.37379
1.37379
1.37378
1.37378
1.37377
1.37373
1.37299
1.37298
1.37298
1.37298
1.37298
1.37299
1.373
1.37301
1.37303
1.37306
1.37468
1.37467
1.37467
1.37467
1.37468
1.37468
1.37469
1.3747
1.37471
1.3747
1.37353
1.37351
1.37351
1.37351
1.37352
1.37354
1.37356
1.37359
1.37361
1.37365
1.37406
1.37403
1.37402
1.37402
1.37404
1.37407
1.37412
1.37416
1.37421
1.37424
1.37418
1.37413
1.37411
1.37412
1.37415
1.37421
1.37428
1.37436
1.37444
1.37449
1.37365
1.37359
1.37356
1.37358
1.37363
1.37371
1.37381
1.37391
1.37399
1.37408
1.37525
1.37518
1.37513
1.37515
1.37522
1.37533
1.37547
1.37562
1.37578
1.37585
1.37312
1.373
1.37296
1.37298
1.37306
1.37319
1.37336
1.37354
1.3737
1.37386
1.37423
1.37411
1.37406
1.37408
1.37417
1.37432
1.37451
1.37471
1.37491
1.37505
1.3749
1.37492
1.37493
1.37493
1.37493
1.37493
1.37492
1.37492
1.37491
1.37487
1.3728
1.37279
1.37279
1.37279
1.37279
1.37279
1.3728
1.37282
1.37283
1.37287
1.37483
1.37482
1.37481
1.37481
1.37481
1.37481
1.37482
1.37483
1.37485
1.37485
1.37363
1.37363
1.37363
1.37363
1.37364
1.37365
1.37366
1.37367
1.37368
1.3737
1.37413
1.3741
1.37409
1.37409
1.3741
1.37413
1.37415
1.37418
1.37421
1.37424
1.3742
1.37416
1.37415
1.37415
1.37417
1.37421
1.37425
1.3743
1.37436
1.3744
1.37378
1.37375
1.37374
1.37375
1.37378
1.37383
1.37389
1.37395
1.374
1.37404
1.37526
1.3752
1.37517
1.37518
1.37522
1.3753
1.37539
1.37549
1.37561
1.37566
1.37295
1.37287
1.37285
1.37286
1.37291
1.373
1.3731
1.37321
1.3733
1.37342
1.37551
1.37544
1.3754
1.37541
1.37547
1.37557
1.37569
1.37582
1.37596
1.37603
1.37668
1.3767
1.37669
1.37669
1.37669
1.37669
1.37669
1.37669
1.37669
1.37667
1.37225
1.37225
1.37226
1.37227
1.37228
1.37228
1.37228
1.37227
1.37227
1.37229
1.37469
1.37466
1.37465
1.37464
1.37463
1.37464
1.37465
1.37467
1.3747
1.37472
1.37371
1.37371
1.37372
1.37372
1.37373
1.37373
1.37374
1.37374
1.37373
1.37374
1.37411
1.3741
1.37409
1.37409
1.37409
1.37411
1.37413
1.37415
1.37417
1.37419
1.37415
1.37412
1.37411
1.37411
1.37413
1.37415
1.37418
1.37422
1.37425
1.37428
1.37385
1.37384
1.37383
1.37384
1.37386
1.37389
1.37393
1.37397
1.374
1.37402
1.37485
1.3748
1.37477
1.37478
1.37481
1.37486
1.37493
1.375
1.37509
1.37515
1.37238
1.37235
1.37234
1.37235
1.37239
1.37245
1.37252
1.37258
1.37263
1.37267
1.37733
1.37728
1.37725
1.37726
1.3773
1.37737
1.37746
1.37755
1.37765
1.3777
1.37854
1.37853
1.37851
1.37851
1.3785
1.37851
1.37852
1.37853
1.37855
1.37858
1.37149
1.37156
1.37159
1.37162
1.37162
1.37162
1.37161
1.37157
1.37152
1.37144
1.37432
1.37428
1.37426
1.37425
1.37425
1.37426
1.37427
1.37428
1.37431
1.37436
1.37378
1.37379
1.3738
1.3738
1.37381
1.37381
1.37382
1.37381
1.3738
1.37378
1.37408
1.37407
1.37407
1.37407
1.37407
1.37408
1.3741
1.37411
1.37413
1.37414
1.37411
1.3741
1.37409
1.37409
1.3741
1.37412
1.37415
1.37418
1.3742
1.37422
1.37392
1.37391
1.3739
1.37391
1.37393
1.37396
1.374
1.37403
1.37405
1.37405
1.37427
1.37422
1.37419
1.3742
1.37422
1.37427
1.37433
1.37439
1.37446
1.37454
1.37167
1.37167
1.37166
1.37168
1.37171
1.37176
1.37182
1.37188
1.3719
1.37186
1.37915
1.37911
1.37909
1.3791
1.37913
1.37919
1.37927
1.37935
1.37943
1.37947
1.47456
1.48017
1.47675
1.46962
1.5066
1.51235
1.50552
1.49484
1.53243
1.5375
1.52784
1.51463
1.55091
1.55485
1.54234
1.52713
1.56513
1.56767
1.55243
1.53572
1.57667
1.57775
1.56178
1.54305
1.58436
1.5838
1.56835
1.54729
1.59134
1.58902
1.57438
1.55103
1.58924
1.58505
1.57096
1.54556
1.58158
1.57637
1.56392
1.53738
1.37414
1.37384
1.3744
1.37547
1.39515
1.39652
1.39753
1.39722
1.41404
1.41674
1.418
1.41612
1.43214
1.43605
1.43744
1.43366
1.44915
1.4539
1.45525
1.4494
1.46567
1.47094
1.47198
1.46449
1.47948
1.48502
1.48566
1.47704
1.49353
1.49915
1.49947
1.49021
1.50048
1.50609
1.50625
1.49675
1.50417
1.51028
1.51045
1.50129
1.3782
1.37865
1.37885
1.37886
1.39056
1.39155
1.39184
1.3917
1.40222
1.4038
1.40423
1.40389
1.41358
1.41582
1.41635
1.41566
1.4247
1.4276
1.42816
1.42694
1.43656
1.44006
1.44061
1.4387
1.44687
1.4509
1.45138
1.44869
1.45854
1.46297
1.46337
1.45989
1.4645
1.46926
1.46959
1.46525
1.46805
1.47357
1.47391
1.46854
1.37136
1.37132
1.37136
1.37146
1.37908
1.37932
1.37942
1.37945
1.3866
1.38715
1.38735
1.38731
1.39464
1.3956
1.39594
1.39578
1.40274
1.4042
1.40467
1.40429
1.41182
1.41381
1.4144
1.41369
1.41974
1.42224
1.42291
1.42179
1.42945
1.43243
1.43316
1.43156
1.43427
1.43769
1.43849
1.43639
1.43695
1.44123
1.44217
1.43939
1.36987
1.36981
1.36982
1.36988
1.37525
1.37539
1.37545
1.37546
1.37998
1.38029
1.3804
1.38038
1.38543
1.38597
1.38616
1.38612
1.39117
1.39197
1.39226
1.39217
1.39792
1.39906
1.39945
1.39926
1.40365
1.40514
1.40564
1.40529
1.4114
1.41324
1.41384
1.41328
1.41526
1.41745
1.41822
1.41746
1.4173
1.42027
1.42124
1.42001
1.36902
1.36892
1.36891
1.36897
1.373
1.37303
1.37306
1.37308
1.37616
1.37627
1.37633
1.37636
1.37989
1.38013
1.38025
1.38028
1.38403
1.38444
1.38462
1.38465
1.38915
1.38976
1.39003
1.39004
1.39329
1.39415
1.3945
1.39446
1.39954
1.40064
1.40109
1.40097
1.40266
1.40403
1.40464
1.40445
1.40388
1.4059
1.40668
1.40615
1.36889
1.36878
1.36876
1.36882
1.37197
1.37199
1.372
1.37202
1.37433
1.37437
1.3744
1.37442
1.37692
1.37703
1.3771
1.37713
1.37996
1.38016
1.38028
1.38032
1.38386
1.3842
1.38438
1.38443
1.38681
1.3873
1.38755
1.38761
1.39187
1.39253
1.39285
1.39289
1.39428
1.39512
1.39557
1.39559
1.39468
1.39607
1.39663
1.39636
1.36908
1.36897
1.36894
1.369
1.37151
1.37151
1.37152
1.37153
1.37333
1.37334
1.37336
1.37337
1.37516
1.37521
1.37525
1.37528
1.37748
1.37758
1.37765
1.37769
1.38055
1.38073
1.38084
1.3809
1.38264
1.38292
1.38308
1.38315
1.38678
1.38717
1.38739
1.38746
1.38843
1.38895
1.38925
1.38931
1.38819
1.38918
1.38955
1.38935
1.36946
1.36934
1.36931
1.36937
1.37142
1.37141
1.37141
1.37143
1.37287
1.37287
1.37288
1.37289
1.37412
1.37414
1.37416
1.37418
1.37592
1.37597
1.37601
1.37604
1.37837
1.37847
1.37854
1.37858
1.37983
1.37999
1.38009
1.38015
1.38327
1.3835
1.38364
1.3837
1.3842
1.38452
1.38472
1.38477
1.38353
1.38428
1.38452
1.38434
1.36994
1.36981
1.36978
1.36984
1.37154
1.37152
1.37152
1.37153
1.37275
1.37274
1.37274
1.37275
1.37353
1.37354
1.37355
1.37357
1.37494
1.37496
1.37499
1.37501
1.37688
1.37694
1.37698
1.37701
1.37785
1.37794
1.37801
1.37805
1.38075
1.38089
1.38098
1.38103
1.38111
1.38131
1.38143
1.38147
1.38019
1.38078
1.38094
1.38075
1.37046
1.37033
1.3703
1.37036
1.37177
1.37175
1.37175
1.37176
1.37284
1.37283
1.37283
1.37284
1.37325
1.37325
1.37326
1.37327
1.37437
1.37437
1.37439
1.37441
1.3759
1.37593
1.37596
1.37598
1.37645
1.37651
1.37655
1.37658
1.37896
1.37904
1.3791
1.37913
1.37886
1.37898
1.37906
1.37909
1.37783
1.37831
1.37842
1.37823
1.371
1.37087
1.37084
1.3709
1.37205
1.37204
1.37203
1.37204
1.37307
1.37305
1.37305
1.37306
1.37317
1.37317
1.37317
1.37318
1.37408
1.37408
1.37409
1.3741
1.37528
1.3753
1.37532
1.37533
1.3755
1.37553
1.37556
1.37558
1.37771
1.37776
1.37779
1.37782
1.37722
1.3773
1.37735
1.37737
1.37621
1.37662
1.37669
1.3765
1.37155
1.37142
1.37139
1.37145
1.37234
1.37233
1.37233
1.37234
1.37336
1.37335
1.37335
1.37336
1.37321
1.37321
1.37321
1.37322
1.37398
1.37398
1.37398
1.374
1.37492
1.37493
1.37494
1.37495
1.37487
1.37489
1.37491
1.37492
1.37688
1.37691
1.37693
1.37695
1.37606
1.37611
1.37615
1.37616
1.37516
1.37552
1.37557
1.37539
1.37209
1.37196
1.37193
1.37199
1.37262
1.37261
1.37261
1.37262
1.3737
1.37369
1.37369
1.3737
1.37331
1.37331
1.37331
1.37332
1.374
1.374
1.374
1.37401
1.37472
1.37473
1.37474
1.37475
1.37448
1.37449
1.3745
1.37451
1.37637
1.37639
1.3764
1.37641
1.37524
1.37528
1.3753
1.37531
1.37457
1.37488
1.37491
1.37475
1.37263
1.37251
1.37247
1.37253
1.37285
1.37284
1.37284
1.37285
1.37406
1.37405
1.37405
1.37405
1.37344
1.37343
1.37344
1.37344
1.37409
1.37409
1.37409
1.3741
1.37464
1.37464
1.37465
1.37465
1.37425
1.37426
1.37427
1.37427
1.37609
1.37611
1.37612
1.37612
1.37467
1.37469
1.37471
1.37471
1.37433
1.3746
1.37463
1.37447
1.37321
1.37309
1.37306
1.37312
1.37301
1.37301
1.37301
1.37302
1.37441
1.3744
1.3744
1.3744
1.37355
1.37355
1.37356
1.37356
1.37419
1.37419
1.37419
1.3742
1.37459
1.3746
1.37461
1.37461
1.37413
1.37413
1.37414
1.37414
1.37598
1.37599
1.376
1.376
1.37425
1.37427
1.37428
1.37428
1.37442
1.37465
1.37467
1.37453
1.37394
1.37382
1.37379
1.37385
1.37305
1.37305
1.37305
1.37306
1.37472
1.37472
1.37471
1.37471
1.37364
1.37365
1.37365
1.37365
1.37426
1.37427
1.37427
1.37427
1.37454
1.37455
1.37456
1.37455
1.37407
1.37407
1.37407
1.37407
1.37592
1.37593
1.37594
1.37593
1.37388
1.37389
1.3739
1.3739
1.37489
1.37507
1.37508
1.37497
1.37505
1.37493
1.37491
1.37497
1.37286
1.37286
1.37287
1.37287
1.3749
1.3749
1.3749
1.3749
1.3737
1.3737
1.3737
1.3737
1.37427
1.37428
1.37428
1.37428
1.37445
1.37446
1.37446
1.37446
1.37401
1.37401
1.37401
1.37401
1.37576
1.37577
1.37578
1.37577
1.37341
1.37341
1.37342
1.37342
1.37591
1.37604
1.37604
1.37597
1.37682
1.37671
1.3767
1.37675
1.37225
1.37225
1.37225
1.37225
1.37481
1.37483
1.37484
1.37483
1.37372
1.37372
1.37372
1.37372
1.37422
1.37423
1.37424
1.37423
1.37432
1.37433
1.37434
1.37433
1.37397
1.37397
1.37397
1.37397
1.3753
1.37533
1.37534
1.37533
1.3726
1.37259
1.37259
1.3726
1.37767
1.37776
1.37777
1.37772
1.37868
1.37863
1.37863
1.37867
1.37125
1.37121
1.3712
1.3712
1.37448
1.3745
1.37451
1.37451
1.37375
1.37374
1.37374
1.37374
1.37416
1.37416
1.37416
1.37416
1.37423
1.37424
1.37424
1.37424
1.374
1.37399
1.37399
1.374
1.37471
1.37475
1.37476
1.37474
1.37157
1.3715
1.37149
1.37154
1.37966
1.37971
1.37971
1.37967
1.43146
1.4071
1.38609
1.37192
1.36341
1.35815
1.35468
1.35231
1.35066
1.34947
1.4433
1.41054
1.38554
1.37087
1.3627
1.3577
1.35447
1.35229
1.35082
1.34976
1.44444
1.4081
1.38077
1.36764
1.35987
1.35511
1.352
1.34991
1.34857
1.3478
1.44088
1.40378
1.37498
1.36419
1.35695
1.35272
1.3499
1.34804
1.34683
1.34613
1.43459
1.39834
1.36969
1.36069
1.35383
1.35014
1.34759
1.34597
1.34492
1.34442
1.42686
1.39391
1.36582
1.35864
1.35208
1.34897
1.34667
1.34529
1.34436
1.34385
1.41632
1.3884
1.36084
1.35548
1.3491
1.34656
1.34445
1.34328
1.34246
1.3421
1.40818
1.38602
1.35897
1.35545
1.3492
1.34719
1.34515
1.34405
1.34322
1.3427
1.39711
1.37992
1.35397
1.35254
1.34676
1.34535
1.34337
1.34237
1.34159
1.34107
1.39401
1.37999
1.35462
1.35376
1.34712
1.34504
1.34229
1.34069
1.33944
1.33841
1.37924
1.37652
1.37323
1.3699
1.3667
1.36381
1.36133
1.35926
1.35757
1.35629
1.3965
1.38864
1.38128
1.37498
1.36975
1.36562
1.36243
1.35995
1.35801
1.35655
1.40897
1.39605
1.38497
1.3763
1.3695
1.36445
1.36073
1.35796
1.3559
1.35455
1.41817
1.40073
1.38645
1.37629
1.36859
1.36317
1.35926
1.35642
1.35431
1.35289
1.42403
1.40329
1.38634
1.37524
1.36702
1.36147
1.35753
1.35472
1.3526
1.35126
1.42843
1.4056
1.38645
1.37492
1.3664
1.36092
1.35702
1.35427
1.35219
1.35077
1.4297
1.40574
1.38474
1.37313
1.36442
1.35909
1.35524
1.35256
1.35048
1.34912
1.43176
1.40769
1.38529
1.37399
1.36521
1.36007
1.3562
1.35349
1.35136
1.3498
1.42925
1.40524
1.38248
1.3721
1.36362
1.35872
1.3548
1.35205
1.34988
1.34826
1.42966
1.40624
1.3831
1.37277
1.36363
1.35811
1.35358
1.35032
1.34777
1.34566
1.37809
1.37608
1.37356
1.37099
1.36859
1.36644
1.36456
1.36297
1.36163
1.36059
1.38991
1.38544
1.38026
1.37565
1.37183
1.36871
1.36615
1.36405
1.36233
1.36099
1.40043
1.39263
1.38434
1.37751
1.37217
1.36804
1.36483
1.36232
1.36037
1.35901
1.40988
1.39841
1.38719
1.37863
1.37216
1.36735
1.3637
1.36092
1.35878
1.35727
1.41798
1.40269
1.38873
1.37875
1.37141
1.36614
1.36223
1.35931
1.35706
1.35555
1.42575
1.40682
1.39038
1.37933
1.37136
1.36583
1.36177
1.35879
1.3565
1.35489
1.43101
1.40873
1.39007
1.37827
1.36981
1.36415
1.36001
1.35701
1.35467
1.3531
1.4371
1.41209
1.39168
1.37954
1.37078
1.36507
1.36084
1.35777
1.35537
1.35361
1.4381
1.41103
1.39003
1.37824
1.36954
1.36386
1.35951
1.35635
1.35388
1.35205
1.43926
1.41125
1.38993
1.378
1.36879
1.36264
1.35786
1.35433
1.3516
1.34941
1.3714
1.37094
1.37015
1.36915
1.36806
1.36694
1.36587
1.36489
1.36403
1.36334
1.37915
1.37778
1.37587
1.3738
1.37176
1.36984
1.3681
1.36656
1.36524
1.36417
1.38644
1.38351
1.37977
1.37613
1.37283
1.36996
1.36754
1.36551
1.36384
1.36262
1.39402
1.38915
1.38341
1.37819
1.37369
1.36998
1.36696
1.3645
1.36252
1.36105
1.4012
1.39401
1.38612
1.37941
1.37386
1.36946
1.36598
1.36323
1.36102
1.35946
1.4088
1.39908
1.38903
1.38098
1.37455
1.36963
1.36582
1.36286
1.36052
1.3588
1.4146
1.40222
1.39004
1.38083
1.37366
1.36835
1.36429
1.3612
1.35873
1.357
1.42172
1.40684
1.3928
1.38274
1.375
1.36941
1.36514
1.3619
1.35934
1.35743
1.42441
1.40748
1.39243
1.38204
1.37403
1.36825
1.36378
1.36042
1.35777
1.35579
1.42655
1.40804
1.39214
1.38122
1.37273
1.36657
1.36179
1.35817
1.35535
1.35309
1.36975
1.36948
1.36907
1.36855
1.36796
1.36733
1.36671
1.36612
1.3656
1.36518
1.37528
1.37468
1.37376
1.37265
1.37146
1.37027
1.36913
1.36808
1.36715
1.36637
1.37997
1.37865
1.37679
1.37476
1.37274
1.37085
1.36913
1.36761
1.36631
1.36532
1.38542
1.38311
1.38005
1.3769
1.37394
1.37129
1.36897
1.36699
1.36532
1.36403
1.39101
1.38742
1.38294
1.3786
1.37468
1.37132
1.36848
1.36611
1.36413
1.36269
1.39741
1.39229
1.38624
1.38071
1.37591
1.37193
1.36865
1.36597
1.36378
1.36212
1.40248
1.39559
1.38788
1.3812
1.37558
1.37107
1.36743
1.36452
1.36213
1.3604
1.40928
1.40057
1.39127
1.38361
1.3773
1.37235
1.36839
1.36525
1.36273
1.3608
1.41252
1.40221
1.39181
1.38345
1.37662
1.3713
1.36708
1.36379
1.36115
1.35916
1.41466
1.40281
1.3914
1.38238
1.37507
1.36942
1.36493
1.36143
1.35867
1.35645
1.36886
1.36874
1.36854
1.36829
1.36799
1.36765
1.36731
1.36699
1.36669
1.36647
1.37305
1.3728
1.37235
1.37177
1.37111
1.37041
1.36971
1.36904
1.36843
1.3679
1.37626
1.37568
1.37477
1.37366
1.37246
1.37125
1.37008
1.369
1.36805
1.36732
1.38008
1.37901
1.37742
1.37559
1.37371
1.37189
1.37021
1.3687
1.36738
1.36632
1.38428
1.38253
1.38006
1.37738
1.37475
1.3723
1.3701
1.36819
1.36653
1.36528
1.38939
1.38677
1.38328
1.37968
1.37628
1.37323
1.37057
1.3683
1.36638
1.36487
1.39342
1.38973
1.38507
1.38051
1.37634
1.37273
1.36965
1.36708
1.36491
1.3633
1.3994
1.39453
1.38867
1.3832
1.37832
1.3742
1.37075
1.36791
1.36558
1.36375
1.40249
1.39648
1.38961
1.38332
1.37783
1.37329
1.36953
1.36651
1.36403
1.36212
1.40399
1.39683
1.38907
1.38215
1.37621
1.37135
1.36736
1.36415
1.36157
1.35946
1.36872
1.36865
1.36854
1.36841
1.36825
1.36807
1.36788
1.36771
1.36755
1.36745
1.37201
1.37188
1.37165
1.37133
1.37096
1.37055
1.37013
1.36972
1.36934
1.369
1.37438
1.3741
1.37361
1.37297
1.37223
1.37147
1.3707
1.36997
1.36931
1.3688
1.37706
1.37653
1.37565
1.37456
1.37336
1.37214
1.37096
1.36986
1.36887
1.36806
1.3802
1.3793
1.37791
1.37624
1.37449
1.37275
1.37112
1.36965
1.36834
1.36732
1.38421
1.38284
1.3808
1.37848
1.37612
1.37387
1.3718
1.36997
1.36838
1.3671
1.38724
1.38524
1.38243
1.37938
1.37638
1.37361
1.37113
1.36898
1.36712
1.36569
1.3923
1.38957
1.38592
1.38213
1.3785
1.37523
1.37237
1.36993
1.36788
1.36623
1.39481
1.3913
1.38682
1.3823
1.3781
1.37441
1.37125
1.36861
1.36639
1.36465
1.39553
1.39128
1.38615
1.3811
1.3765
1.37252
1.36914
1.36633
1.36402
1.3621
1.36891
1.36886
1.36881
1.36873
1.36865
1.36855
1.36845
1.36836
1.36828
1.36826
1.37154
1.37149
1.37137
1.3712
1.37099
1.37076
1.37051
1.37027
1.37004
1.36983
1.37337
1.37323
1.37295
1.37258
1.37214
1.37166
1.37117
1.3707
1.37026
1.36993
1.37526
1.37498
1.37447
1.37381
1.37305
1.37225
1.37144
1.37067
1.36997
1.36937
1.37766
1.37717
1.37634
1.3753
1.37413
1.37294
1.37177
1.37068
1.36969
1.36891
1.38082
1.38007
1.37884
1.37734
1.37572
1.3741
1.37256
1.37115
1.3699
1.36886
1.38303
1.38191
1.38019
1.37816
1.37604
1.37398
1.37206
1.37034
1.36882
1.36763
1.38724
1.38569
1.3834
1.38081
1.37818
1.37568
1.37342
1.37142
1.3697
1.36828
1.38899
1.38692
1.38404
1.38089
1.37778
1.37492
1.37237
1.37017
1.36827
1.36676
1.38908
1.38657
1.38324
1.37968
1.37625
1.37313
1.37038
1.36803
1.36605
1.36437
1.36928
1.36925
1.36922
1.36918
1.36914
1.36908
1.36903
1.36898
1.36895
1.36897
1.37144
1.37143
1.37137
1.37128
1.37117
1.37103
1.37089
1.37075
1.37061
1.37049
1.3729
1.37283
1.37267
1.37246
1.37219
1.3719
1.3716
1.37129
1.37101
1.37081
1.37419
1.37403
1.37374
1.37333
1.37285
1.37233
1.3718
1.37128
1.37079
1.37037
1.37604
1.37576
1.37525
1.37459
1.37383
1.37302
1.37221
1.37143
1.37071
1.37014
1.37855
1.37812
1.37735
1.37638
1.37528
1.37415
1.37304
1.37199
1.37104
1.37023
1.38011
1.37945
1.37837
1.37702
1.37555
1.37406
1.37263
1.37131
1.37011
1.36916
1.38361
1.3827
1.38124
1.37949
1.37763
1.37579
1.37406
1.3725
1.37111
1.36994
1.38463
1.3834
1.38155
1.37941
1.37718
1.37504
1.37305
1.37129
1.36974
1.36848
1.38429
1.3828
1.38065