/*--------------------------------*- C++ -*----------------------------------*\
| =========                 |                                                 |
| \\      /  F ield         | foam-extend: Open Source CFD                    |
|  \\    /   O peration     | Version:     4.0                                |
|   \\  /    A nd           | Web:         http://www.foam-extend.org         |
|    \\/     M anipulation  |                                                 |
\*---------------------------------------------------------------------------*/
FoamFile
{
    version     2.0;
    format      ascii;
    class       volScalarField;
    location    "950";
    object      T;
}
// * * * * * * * * * * * * * * * * * * * * * * * * * * * * * * * * * * * * * //

dimensions      [0 0 0 1 0 0 0];

internalField   nonuniform List<scalar> 
34480
(
278.965
278.853
278.77
278.712
278.677
278.664
278.674
278.754
279.02
278.979
278.412
278.29
278.194
278.124
278.088
278.088
278.11
278.152
278.367
277.92
278.292
278.157
278.049
277.972
277.932
277.916
277.894
277.837
277.961
277.178
278.328
278.172
278.04
277.935
277.859
277.792
277.703
277.539
277.538
276.402
278.338
278.157
277.996
277.857
277.739
277.615
277.455
277.178
277.019
275.523
278.405
278.2
278.015
277.849
277.695
277.519
277.293
276.9
276.553
274.669
278.43
278.2
277.99
277.798
277.612
277.391
277.102
276.596
276.038
273.764
278.499
278.246
278.023
277.821
277.627
277.39
277.068
276.479
275.712
273.016
278.547
278.275
278.034
277.813
277.595
277.332
276.968
276.297
275.321
272.269
279.357
279.072
278.862
278.713
278.601
278.475
278.262
277.73
276.715
273.232
279.484
279.391
279.353
279.366
279.436
279.58
279.836
280.289
280.952
281.817
278.834
278.747
278.711
278.726
278.803
278.967
279.255
279.75
280.541
281.56
278.623
278.541
278.509
278.526
278.61
278.779
279.064
279.55
280.397
281.508
278.566
278.483
278.446
278.455
278.525
278.671
278.931
279.39
280.263
281.418
278.489
278.401
278.356
278.351
278.401
278.517
278.744
279.164
280.035
281.2
278.479
278.387
278.336
278.321
278.354
278.444
278.636
279.006
279.846
280.986
278.436
278.336
278.278
278.252
278.271
278.337
278.494
278.811
279.598
280.694
278.451
278.349
278.292
278.271
278.293
278.354
278.493
278.764
279.478
280.482
278.46
278.352
278.288
278.26
278.27
278.316
278.43
278.655
279.29
280.211
279.218
279.122
279.095
279.132
279.23
279.378
279.594
279.893
280.479
281.125
279.948
279.848
279.812
279.831
279.907
280.05
280.279
280.622
281.118
281.74
279.291
279.191
279.154
279.176
279.265
279.437
279.724
280.178
280.886
281.817
279.068
278.966
278.929
278.951
279.045
279.229
279.543
280.056
280.926
282.14
278.981
278.876
278.833
278.848
278.933
279.108
279.423
279.962
280.964
282.425
278.877
278.765
278.715
278.718
278.787
278.943
279.242
279.783
280.88
282.543
278.841
278.726
278.669
278.662
278.718
278.852
279.13
279.654
280.807
282.621
278.777
278.654
278.591
278.574
278.616
278.73
278.982
279.478
280.654
282.579
278.774
278.649
278.586
278.572
278.616
278.723
278.959
279.421
280.586
282.568
278.766
278.638
278.571
278.551
278.586
278.683
278.896
279.318
280.445
282.505
279.493
279.377
279.336
279.365
279.465
279.635
279.915
280.377
281.45
283.427
280.279
280.193
280.163
280.181
280.248
280.367
280.544
280.784
281.088
281.426
279.652
279.558
279.524
279.548
279.634
279.792
280.037
280.39
280.877
281.431
279.441
279.337
279.301
279.327
279.424
279.604
279.896
280.335
280.992
281.788
279.344
279.232
279.189
279.211
279.307
279.493
279.809
280.311
281.128
282.178
279.224
279.104
279.054
279.067
279.154
279.334
279.657
280.196
281.151
282.439
279.172
279.045
278.99
278.994
279.073
279.242
279.561
280.117
281.182
282.676
279.091
278.958
278.896
278.892
278.96
279.115
279.424
279.98
281.126
282.798
279.073
278.937
278.875
278.873
278.942
279.094
279.394
279.94
281.129
282.936
279.052
278.915
278.849
278.842
278.905
279.049
279.338
279.864
281.058
283.011
279.747
279.62
279.573
279.601
279.708
279.901
280.234
280.79
281.954
283.938
280.504
280.437
280.414
280.428
280.478
280.563
280.682
280.83
280.999
281.165
279.924
279.845
279.817
279.838
279.91
280.037
280.223
280.469
280.772
281.074
279.744
279.649
279.615
279.64
279.728
279.886
280.127
280.464
280.914
281.389
279.653
279.544
279.504
279.527
279.621
279.798
280.08
280.496
281.099
281.777
279.532
279.411
279.364
279.382
279.475
279.658
279.966
280.441
281.189
282.079
279.473
279.343
279.289
279.301
279.391
279.574
279.896
280.413
281.291
282.386
279.384
279.246
279.186
279.191
279.275
279.452
279.778
280.321
281.308
282.597
279.355
279.215
279.153
279.159
279.244
279.422
279.751
280.305
281.37
282.825
279.324
279.182
279.119
279.121
279.202
279.374
279.701
280.258
281.363
282.996
279.987
279.855
279.804
279.83
279.941
280.148
280.503
281.086
282.191
283.92
280.654
280.604
280.588
280.598
280.631
280.687
280.761
280.849
280.942
281.031
280.124
280.063
280.041
280.057
280.112
280.206
280.337
280.499
280.682
280.849
279.981
279.9
279.872
279.893
279.966
280.094
280.279
280.521
280.813
281.093
279.906
279.808
279.772
279.794
279.879
280.033
280.267
280.587
281.006
281.43
279.795
279.682
279.638
279.658
279.748
279.918
280.189
280.578
281.126
281.712
279.737
279.612
279.562
279.578
279.67
279.85
280.148
280.593
281.266
282.023
279.647
279.512
279.455
279.466
279.557
279.739
280.055
280.542
281.33
282.258
279.613
279.474
279.415
279.427
279.521
279.708
280.036
280.553
281.432
282.52
279.576
279.434
279.374
279.383
279.474
279.66
279.994
280.529
281.469
282.731
280.208
280.075
280.022
280.048
280.16
280.369
280.723
281.284
282.244
283.62
280.752
280.716
280.705
280.711
280.733
280.767
280.811
280.861
280.912
280.963
280.268
280.224
280.208
280.22
280.259
280.324
280.411
280.514
280.622
280.717
280.162
280.098
280.076
280.092
280.149
280.246
280.38
280.546
280.731
280.897
280.107
280.024
279.994
280.013
280.085
280.21
280.393
280.628
280.908
281.171
280.012
279.913
279.875
279.894
279.974
280.122
280.346
280.648
281.034
281.414
279.962
279.848
279.803
279.821
279.908
280.073
280.331
280.694
281.188
281.698
279.876
279.75
279.699
279.713
279.803
279.977
280.262
280.676
281.276
281.924
279.843
279.711
279.656
279.672
279.766
279.95
280.255
280.708
281.398
282.183
279.802
279.666
279.61
279.624
279.718
279.904
280.22
280.702
281.459
282.393
280.405
280.276
280.225
280.25
280.358
280.561
280.894
281.401
282.189
283.228
280.818
280.791
280.784
280.787
280.8
280.82
280.846
280.874
280.902
280.935
280.373
280.342
280.331
280.339
280.365
280.408
280.464
280.528
280.592
280.648
280.298
280.251
280.234
280.246
280.288
280.357
280.451
280.561
280.677
280.777
280.263
280.197
280.173
280.189
280.245
280.342
280.478
280.645
280.829
280.992
280.188
280.104
280.073
280.089
280.158
280.279
280.455
280.681
280.945
281.19
280.149
280.05
280.011
280.028
280.106
280.248
280.461
280.744
281.097
281.436
280.071
279.958
279.913
279.929
280.012
280.168
280.412
280.748
281.19
281.635
280.043
279.922
279.873
279.89
279.98
280.149
280.417
280.796
281.318
281.871
280
279.875
279.824
279.84
279.931
280.106
280.39
280.802
281.388
282.058
280.575
280.456
280.407
280.431
280.532
280.72
281.018
281.454
282.076
282.829
280.862
280.842
280.837
280.839
280.846
280.858
280.872
280.888
280.904
280.927
280.449
280.43
280.422
280.427
280.444
280.471
280.506
280.545
280.583
280.617
280.401
280.368
280.355
280.364
280.393
280.441
280.504
280.575
280.647
280.708
280.382
280.333
280.314
280.326
280.368
280.44
280.538
280.652
280.772
280.874
280.327
280.26
280.235
280.248
280.303
280.398
280.531
280.694
280.873
281.029
280.301
280.219
280.186
280.201
280.267
280.383
280.552
280.766
281.012
281.235
280.233
280.136
280.097
280.112
280.185
280.319
280.519
280.781
281.099
281.4
280.212
280.106
280.064
280.081
280.161
280.309
280.535
280.839
281.223
281.606
280.169
280.058
280.013
280.029
280.113
280.269
280.513
280.849
281.29
281.758
280.717
280.611
280.567
280.588
280.679
280.846
281.103
281.462
281.936
282.465
280.893
280.876
280.872
280.873
280.877
280.884
280.892
280.901
280.91
280.928
280.507
280.495
280.49
280.493
280.504
280.52
280.542
280.565
280.588
280.61
280.479
280.457
280.449
280.454
280.474
280.506
280.546
280.592
280.636
280.675
280.473
280.437
280.423
280.431
280.462
280.513
280.581
280.658
280.735
280.798
280.435
280.384
280.364
280.375
280.417
280.488
280.586
280.7
280.819
280.918
280.421
280.356
280.33
280.342
280.395
280.487
280.615
280.771
280.941
281.086
280.363
280.283
280.251
280.264
280.325
280.434
280.592
280.79
281.015
281.216
280.352
280.263
280.228
280.243
280.312
280.436
280.618
280.853
281.13
281.39
280.309
280.214
280.176
280.191
280.265
280.398
280.598
280.863
281.186
281.506
280.831
280.74
280.701
280.72
280.799
280.941
281.154
281.439
281.79
282.152
280.913
280.899
280.896
280.897
280.899
280.903
280.907
280.912
280.918
280.933
280.553
280.545
280.542
280.544
280.55
280.56
280.573
280.587
280.601
280.616
280.541
280.526
280.521
280.524
280.537
280.558
280.583
280.612
280.639
280.663
280.541
280.516
280.506
280.512
280.533
280.568
280.614
280.665
280.714
280.753
280.518
280.481
280.466
280.474
280.505
280.557
280.626
280.704
280.782
280.845
280.515
280.465
280.445
280.455
280.496
280.565
280.66
280.771
280.885
280.979
280.465
280.402
280.376
280.387
280.436
280.522
280.642
280.787
280.943
281.076
280.466
280.394
280.365
280.378
280.435
280.535
280.677
280.853
281.048
281.222
280.422
280.343
280.312
280.326
280.387
280.496
280.655
280.857
281.088
281.303
280.917
280.842
280.81
280.826
280.892
281.009
281.178
281.397
281.65
281.892
280.927
280.914
280.912
280.912
280.913
280.915
280.918
280.921
280.925
280.938
280.589
280.584
280.582
280.583
280.587
280.593
280.6
280.609
280.617
280.628
280.59
280.581
280.577
280.58
280.588
280.601
280.617
280.634
280.65
280.666
280.592
280.575
280.568
280.572
280.587
280.61
280.64
280.673
280.704
280.729
280.582
280.556
280.545
280.551
280.573
280.609
280.657
280.709
280.76
280.799
280.587
280.55
280.535
280.543
280.573
280.624
280.692
280.769
280.845
280.905
280.544
280.495
280.476
280.484
280.522
280.587
280.675
280.779
280.885
280.972
280.557
280.501
280.479
280.489
280.534
280.611
280.718
280.846
280.981
281.095
280.511
280.448
280.423
280.434
280.483
280.57
280.691
280.84
281.002
281.145
280.979
280.92
280.894
280.907
280.96
281.052
281.183
281.345
281.524
281.682
280.934
280.923
280.921
280.921
280.922
280.923
280.924
280.926
280.929
280.94
280.617
280.614
280.613
280.614
280.616
280.62
280.624
280.629
280.635
280.642
280.631
280.625
280.623
280.625
280.63
280.638
280.648
280.658
280.667
280.677
280.631
280.619
280.615
280.617
280.627
280.642
280.662
280.683
280.702
280.717
280.632
280.613
280.606
280.61
280.625
280.65
280.682
280.716
280.748
280.772
280.642
280.616
280.605
280.611
280.632
280.668
280.715
280.768
280.818
280.855
280.603
280.567
280.553
280.559
280.587
280.635
280.698
280.77
280.841
280.897
280.629
280.587
280.57
280.579
280.613
280.67
280.748
280.839
280.93
281.004
280.578
280.529
280.51
280.519
280.557
280.622
280.712
280.819
280.93
281.023
281.019
280.974
280.954
280.964
281.005
281.075
281.173
281.29
281.413
281.514
280.937
280.926
280.925
280.925
280.925
280.926
280.927
280.928
280.93
280.94
280.64
280.638
280.637
280.638
280.639
280.641
280.644
280.647
280.65
280.656
280.666
280.663
280.662
280.663
280.666
280.671
280.677
280.682
280.688
280.693
280.659
280.652
280.649
280.651
280.657
280.667
280.679
280.692
280.704
280.713
280.67
280.658
280.653
280.655
280.666
280.682
280.703
280.725
280.745
280.759
280.683
280.665
280.658
280.662
280.677
280.701
280.733
280.768
280.8
280.823
280.647
280.621
280.611
280.616
280.636
280.669
280.713
280.762
280.809
280.844
280.686
280.656
280.644
280.65
280.675
280.716
280.771
280.834
280.894
280.941
280.626
280.59
280.575
280.582
280.61
280.658
280.722
280.797
280.872
280.932
281.041
281.008
280.992
281
281.031
281.083
281.153
281.235
281.318
281.381
280.935
280.925
280.925
280.924
280.925
280.925
280.926
280.926
280.928
280.937
280.656
280.655
280.655
280.655
280.656
280.657
280.659
280.661
280.663
280.667
280.697
280.696
280.696
280.696
280.698
280.701
280.704
280.707
280.71
280.713
280.681
280.676
280.674
280.675
280.679
280.685
280.693
280.701
280.708
280.713
280.699
280.691
280.688
280.69
280.696
280.707
280.72
280.734
280.746
280.754
280.714
280.701
280.696
280.699
280.709
280.725
280.746
280.769
280.79
280.803
280.679
280.661
280.654
280.657
280.671
280.694
280.723
280.755
280.786
280.808
280.732
280.711
280.702
280.707
280.724
280.753
280.791
280.833
280.872
280.901
280.658
280.632
280.622
280.627
280.647
280.681
280.725
280.776
280.825
280.863
281.047
281.025
281.014
281.019
281.041
281.078
281.127
281.183
281.237
281.275
280.932
280.923
280.922
280.922
280.922
280.922
280.923
280.923
280.924
280.932
280.666
280.665
280.665
280.665
280.666
280.667
280.668
280.669
280.671
280.674
280.725
280.725
280.725
280.726
280.727
280.729
280.731
280.732
280.733
280.733
280.695
280.693
280.691
280.692
280.694
280.698
280.703
280.708
280.712
280.714
280.72
280.715
280.714
280.715
280.719
280.725
280.734
280.742
280.75
280.753
280.735
280.727
280.723
280.725
280.731
280.742
280.756
280.77
280.783
280.791
280.701
280.689
280.684
280.687
280.696
280.711
280.73
280.751
280.77
280.783
280.769
280.755
280.749
280.752
280.764
280.783
280.809
280.836
280.861
280.878
280.677
280.659
280.652
280.655
280.669
280.692
280.722
280.755
280.787
280.811
281.045
281.03
281.022
281.026
281.041
281.067
281.1
281.136
281.172
281.194
280.932
280.924
280.924
280.924
280.924
280.924
280.924
280.924
280.924
280.932
280.668
280.667
280.666
280.666
280.667
280.667
280.668
280.669
280.671
280.673
280.751
280.751
280.752
280.752
280.753
280.754
280.755
280.755
280.755
280.754
280.705
280.703
280.702
280.703
280.704
280.706
280.709
280.712
280.715
280.715
280.734
280.732
280.73
280.731
280.734
280.738
280.743
280.748
280.752
280.754
280.747
280.741
280.739
280.74
280.744
280.751
280.76
280.769
280.777
280.781
280.715
280.708
280.705
280.706
280.712
280.722
280.734
280.747
280.758
280.766
280.797
280.788
280.784
280.786
280.794
280.806
280.823
280.84
280.857
280.867
280.683
280.67
280.665
280.667
280.677
280.692
280.711
280.732
280.752
280.768
281.042
281.032
281.027
281.029
281.039
281.056
281.078
281.101
281.124
281.136
280.948
280.942
280.942
280.942
280.942
280.942
280.942
280.942
280.942
280.948
280.656
280.655
280.655
280.655
280.655
280.656
280.656
280.657
280.658
280.66
280.771
280.771
280.771
280.771
280.772
280.772
280.773
280.773
280.773
280.771
280.709
280.709
280.708
280.709
280.709
280.711
280.712
280.714
280.715
280.715
280.741
280.74
280.739
280.739
280.74
280.743
280.746
280.749
280.752
280.753
280.75
280.747
280.745
280.746
280.749
280.753
280.758
280.764
280.769
280.772
280.723
280.718
280.717
280.718
280.721
280.728
280.735
280.743
280.749
280.754
280.812
280.805
280.803
280.804
280.809
280.817
280.828
280.839
280.85
280.856
280.671
280.663
280.66
280.662
280.668
280.677
280.689
280.703
280.714
280.725
281.051
281.045
281.041
281.043
281.049
281.06
281.074
281.089
281.104
281.11
281
280.996
280.996
280.996
280.996
280.996
280.996
280.996
280.996
281
280.623
280.622
280.622
280.623
280.623
280.623
280.624
280.624
280.624
280.626
280.777
280.777
280.776
280.776
280.776
280.776
280.777
280.778
280.778
280.778
280.711
280.711
280.711
280.711
280.712
280.712
280.713
280.714
280.714
280.713
280.742
280.74
280.74
280.74
280.741
280.742
280.744
280.746
280.748
280.749
280.747
280.745
280.744
280.744
280.746
280.748
280.752
280.755
280.759
280.761
280.724
280.722
280.721
280.722
280.724
280.728
280.733
280.737
280.741
280.743
280.803
280.798
280.796
280.797
280.8
280.805
280.813
280.82
280.828
280.834
280.636
280.631
280.629
280.63
280.634
280.641
280.648
280.656
280.663
280.669
281.089
281.085
281.083
281.084
281.088
281.095
281.105
281.114
281.125
281.127
281.082
281.079
281.079
281.078
281.078
281.078
281.079
281.079
281.08
281.084
280.565
280.567
280.569
280.57
280.571
280.571
280.57
280.569
280.566
280.565
280.766
280.764
280.763
280.762
280.762
280.762
280.763
280.764
280.766
280.768
280.712
280.712
280.713
280.713
280.713
280.714
280.714
280.714
280.714
280.712
280.739
280.738
280.737
280.737
280.738
280.739
280.74
280.742
280.743
280.744
280.742
280.74
280.739
280.74
280.741
280.743
280.745
280.748
280.75
280.751
280.724
280.722
280.722
280.722
280.724
280.727
280.73
280.733
280.735
280.736
280.772
280.768
280.766
280.766
280.769
280.773
280.778
280.784
280.79
280.796
280.577
280.575
280.574
280.575
280.578
280.583
280.588
280.594
280.596
280.596
281.15
281.146
281.144
281.145
281.148
281.154
281.16
281.167
281.175
281.178
289.548
291.3
291.568
289.99
290.711
292.835
293.248
291.601
292.35
294.97
295.508
293.55
293.609
296.67
297.341
295.172
294.536
298.007
298.819
296.508
295.267
299.117
300.09
297.928
295.804
300.014
301.179
299.336
296.27
300.804
302.174
300.704
296.482
301.318
302.902
301.851
297.038
302.064
303.913
303.443
286.254
286.799
286.781
286.261
287.55
288.192
288.134
287.486
289.138
289.941
289.834
288.981
290.56
291.509
291.343
290.298
291.721
292.811
292.58
291.351
292.729
293.958
293.707
292.322
293.526
294.885
294.646
293.126
294.214
295.68
295.463
293.832
294.647
296.177
295.987
294.289
295.425
296.929
296.848
295.204
282.365
282.498
282.53
282.463
283.102
283.321
283.363
283.228
284.257
284.596
284.642
284.395
285.506
285.966
286.009
285.631
286.654
287.229
287.259
286.739
287.775
288.463
288.479
287.822
288.756
289.552
289.556
288.774
289.685
290.574
290.568
289.682
290.434
291.363
291.356
290.419
291.667
292.526
292.557
291.697
281.599
281.665
281.686
281.665
281.869
281.957
281.987
281.965
282.572
282.722
282.766
282.712
283.435
283.658
283.711
283.611
284.263
284.565
284.623
284.46
285.142
285.524
285.584
285.347
285.95
286.413
286.471
286.153
286.777
287.312
287.365
286.966
287.521
288.088
288.137
287.684
288.853
289.346
289.408
288.998
281.168
281.204
281.216
281.205
281.221
281.253
281.268
281.267
281.668
281.728
281.755
281.75
282.269
282.37
282.41
282.393
282.855
283.006
283.058
283.02
283.513
283.721
283.783
283.713
284.13
284.397
284.467
284.356
284.796
285.119
285.191
285.034
285.421
285.772
285.842
285.646
286.662
286.941
287.017
286.857
280.997
281.027
281.036
281.024
280.918
280.933
280.94
280.94
281.221
281.25
281.264
281.264
281.654
281.703
281.727
281.726
282.074
282.151
282.186
282.181
282.566
282.678
282.725
282.711
283.025
283.176
283.234
283.206
283.541
283.731
283.796
283.747
284.03
284.242
284.307
284.237
285.141
285.284
285.353
285.323
280.916
280.943
280.95
280.938
280.753
280.762
280.766
280.765
280.964
280.979
280.986
280.986
281.286
281.312
281.325
281.326
281.598
281.639
281.659
281.66
281.977
282.038
282.068
282.068
282.323
282.409
282.448
282.445
282.723
282.834
282.881
282.871
283.091
283.216
283.266
283.247
284.078
284.136
284.188
284.215
280.883
280.909
280.916
280.904
280.672
280.678
280.68
280.679
280.818
280.827
280.831
280.83
281.059
281.074
281.081
281.081
281.293
281.316
281.328
281.328
281.591
281.626
281.644
281.645
281.856
281.905
281.93
281.932
282.169
282.233
282.265
282.266
282.437
282.511
282.546
282.545
283.322
283.328
283.364
283.41
280.873
280.899
280.906
280.893
280.636
280.641
280.642
280.641
280.737
280.743
280.745
280.744
280.916
280.925
280.93
280.929
281.091
281.105
281.112
281.112
281.326
281.347
281.357
281.358
281.528
281.557
281.572
281.574
281.775
281.814
281.834
281.836
281.97
282.014
282.037
282.04
282.769
282.744
282.766
282.817
280.874
280.9
280.907
280.894
280.626
280.63
280.631
280.629
280.696
280.701
280.702
280.701
280.828
280.834
280.837
280.836
280.959
280.968
280.972
280.971
281.143
281.156
281.162
281.162
281.293
281.311
281.321
281.321
281.49
281.513
281.526
281.528
281.63
281.656
281.671
281.674
282.354
282.312
282.325
282.375
280.879
280.905
280.912
280.899
280.63
280.633
280.634
280.632
280.68
280.684
280.685
280.683
280.775
280.78
280.782
280.78
280.873
280.879
280.881
280.88
281.016
281.024
281.028
281.027
281.125
281.136
281.142
281.142
281.283
281.297
281.305
281.306
281.378
281.394
281.404
281.406
282.037
281.986
281.993
282.041
280.884
280.91
280.917
280.904
280.641
280.644
280.644
280.643
280.68
280.683
280.684
280.682
280.745
280.749
280.75
280.748
280.818
280.823
280.824
280.823
280.929
280.935
280.937
280.936
281.004
281.011
281.015
281.014
281.133
281.142
281.147
281.148
281.192
281.202
281.208
281.209
281.793
281.738
281.741
281.785
280.888
280.914
280.92
280.908
280.653
280.656
280.657
280.655
280.688
280.691
280.691
280.69
280.73
280.733
280.733
280.732
280.786
280.789
280.789
280.788
280.871
280.875
280.876
280.875
280.918
280.922
280.925
280.924
281.028
281.033
281.036
281.036
281.054
281.061
281.064
281.065
281.602
281.547
281.548
281.589
280.889
280.915
280.921
280.909
280.666
280.668
280.668
280.667
280.702
280.704
280.704
280.703
280.722
280.724
280.725
280.723
280.768
280.77
280.77
280.769
280.833
280.836
280.836
280.836
280.857
280.86
280.862
280.861
280.955
280.959
280.961
280.961
280.953
280.957
280.959
280.96
281.452
281.4
281.4
281.437
280.887
280.913
280.92
280.907
280.675
280.677
280.677
280.676
280.719
280.72
280.72
280.718
280.719
280.721
280.721
280.72
280.759
280.76
280.76
280.759
280.809
280.81
280.811
280.81
280.816
280.817
280.818
280.818
280.909
280.911
280.912
280.912
280.879
280.881
280.882
280.883
281.334
281.286
281.285
281.319
280.885
280.911
280.917
280.905
280.679
280.681
280.681
280.68
280.737
280.737
280.737
280.736
280.718
280.718
280.718
280.718
280.755
280.755
280.755
280.755
280.793
280.794
280.794
280.794
280.787
280.788
280.788
280.789
280.882
280.883
280.884
280.884
280.822
280.824
280.825
280.825
281.242
281.199
281.198
281.227
280.888
280.913
280.919
280.906
280.677
280.678
280.678
280.678
280.755
280.755
280.754
280.754
280.716
280.716
280.716
280.716
280.753
280.753
280.753
280.753
280.782
280.782
280.782
280.782
280.768
280.768
280.768
280.768
280.868
280.869
280.869
280.87
280.777
280.778
280.779
280.779
281.173
281.137
281.137
281.161
280.908
280.933
280.938
280.925
280.663
280.663
280.664
280.664
280.77
280.769
280.769
280.769
280.713
280.712
280.712
280.712
280.751
280.75
280.75
280.751
280.771
280.771
280.771
280.772
280.753
280.752
280.752
280.753
280.858
280.858
280.859
280.859
280.732
280.733
280.734
280.733
281.137
281.11
281.109
281.128
280.968
280.99
280.993
280.981
280.626
280.627
280.627
280.627
280.775
280.774
280.774
280.775
280.709
280.708
280.708
280.708
280.746
280.746
280.746
280.747
280.76
280.76
280.76
280.761
280.74
280.74
280.739
280.74
280.838
280.839
280.84
280.84
280.674
280.674
280.674
280.673
281.147
281.129
281.13
281.141
281.065
281.079
281.08
281.073
280.563
280.562
280.561
280.561
280.768
280.768
280.768
280.77
280.707
280.706
280.706
280.706
280.742
280.742
280.742
280.743
280.751
280.751
280.751
280.752
280.733
280.732
280.732
280.732
280.806
280.808
280.809
280.808
280.592
280.591
280.591
280.591
281.195
281.19
281.19
281.193
282.323
281.034
280.492
280.145
279.851
279.61
279.418
279.267
279.144
279.04
282.485
281.253
280.418
279.892
279.475
279.166
278.937
278.765
278.634
278.528
283.048
281.749
280.62
279.98
279.48
279.132
278.877
278.684
278.538
278.422
283.626
282.267
280.873
280.172
279.608
279.238
278.964
278.758
278.601
278.474
284.086
282.706
281.068
280.319
279.698
279.31
279.019
278.802
278.635
278.501
284.621
283.182
281.325
280.542
279.864
279.46
279.15
278.919
278.739
278.588
285.088
283.568
281.514
280.71
279.978
279.564
279.233
278.99
278.796
278.634
285.642
284.046
281.807
280.989
280.2
279.769
279.411
279.144
278.923
278.73
286.081
284.427
282.009
281.213
280.389
279.952
279.558
279.262
279.014
278.798
287.803
286.147
283.573
282.722
281.772
281.21
280.693
280.296
279.965
279.674
284.094
282.793
281.81
281.102
280.611
280.267
280.017
279.83
279.685
279.564
284.553
282.775
281.449
280.593
280.04
279.663
279.393
279.197
279.052
278.945
285.14
282.957
281.377
280.45
279.857
279.46
279.18
278.978
278.833
278.729
285.615
283.132
281.36
280.413
279.794
279.392
279.111
278.912
278.77
278.669
285.87
283.177
281.278
280.325
279.688
279.289
279.012
278.819
278.685
278.589
286.059
283.238
281.248
280.309
279.657
279.267
278.995
278.808
278.676
278.581
286.096
283.212
281.152
280.245
279.583
279.208
278.941
278.76
278.632
278.539
286.146
283.263
281.15
280.286
279.614
279.254
278.986
278.804
278.669
278.565
286.097
283.245
281.084
280.298
279.64
279.308
279.034
278.845
278.699
278.584
287
284.298
282.14
281.405
280.697
280.31
279.967
279.724
279.533
279.389
282.23
281.852
281.484
281.156
280.876
280.64
280.444
280.281
280.144
280.026
282.704
282.023
281.406
280.896
280.483
280.155
279.898
279.697
279.54
279.42
283.468
282.455
281.591
280.925
280.41
280.018
279.721
279.495
279.325
279.199
284.223
282.89
281.795
281.003
280.41
279.977
279.657
279.42
279.244
279.115
284.785
283.171
281.877
280.99
280.34
279.883
279.553
279.312
279.136
279.009
285.283
283.434
281.971
281.017
280.326
279.857
279.522
279.281
279.105
278.977
285.623
283.58
281.974
280.978
280.259
279.788
279.453
279.215
279.04
278.913
285.938
283.752
282.029
281.015
280.278
279.81
279.474
279.235
279.054
278.919
286.135
283.831
282.008
281.015
280.285
279.836
279.496
279.251
279.064
278.92
287.117
284.808
282.947
281.975
281.216
280.73
280.346
280.065
279.847
279.687
281.622
281.475
281.299
281.119
280.949
280.795
280.659
280.539
280.433
280.336
281.843
281.553
281.221
280.905
280.624
280.385
280.183
280.017
279.88
279.772
282.466
281.981
281.471
281.017
280.633
280.318
280.063
279.859
279.698
279.574
283.186
282.471
281.767
281.178
280.701
280.325
280.03
279.8
279.622
279.487
283.802
282.845
281.951
281.244
280.689
280.267
279.945
279.699
279.511
279.372
284.408
283.214
282.141
281.333
280.716
280.261
279.92
279.664
279.47
279.326
284.89
283.47
282.234
281.346
280.681
280.204
279.851
279.59
279.393
279.247
285.356
283.735
282.356
281.411
280.71
280.222
279.861
279.594
279.391
279.237
285.716
283.905
282.402
281.434
280.721
280.234
279.867
279.594
279.384
279.224
286.756
284.842
283.28
282.303
281.562
281.048
280.65
280.352
280.121
279.955
281.213
281.166
281.095
281.011
280.924
280.837
280.754
280.677
280.605
280.534
281.237
281.12
280.963
280.794
280.629
280.474
280.335
280.213
280.109
280.023
281.687
281.477
281.213
280.943
280.69
280.465
280.271
280.107
279.972
279.865
282.269
281.93
281.532
281.151
280.811
280.519
280.277
280.077
279.917
279.791
282.805
282.311
281.768
281.276
280.853
280.505
280.223
279.998
279.819
279.682
283.376
282.712
282.02
281.422
280.927
280.532
280.219
279.973
279.781
279.633
283.862
283.021
282.181
281.49
280.932
280.5
280.164
279.905
279.703
279.55
284.357
283.34
282.361
281.592
280.985
280.527
280.174
279.903
279.692
279.53
284.765
283.569
282.464
281.645
281.008
280.536
280.171
279.892
279.674
279.506
285.797
284.478
283.303
282.451
281.783
281.288
280.9
280.602
280.37
280.202
281.039
281.02
280.988
280.947
280.901
280.853
280.805
280.757
280.71
280.66
280.926
280.871
280.792
280.7
280.604
280.508
280.417
280.334
280.261
280.198
281.239
281.138
280.997
280.839
280.68
280.53
280.392
280.271
280.167
280.081
281.681
281.514
281.29
281.053
280.823
280.613
280.428
280.269
280.136
280.028
282.104
281.849
281.528
281.203
280.9
280.634
280.406
280.215
280.059
279.934
282.587
282.227
281.796
281.381
281.009
280.691
280.425
280.208
280.031
279.892
283.015
282.535
281.989
281.486
281.049
280.686
280.39
280.152
279.96
279.811
283.47
282.862
282.2
281.618
281.125
280.728
280.407
280.152
279.947
279.788
283.855
283.107
282.337
281.693
281.162
280.74
280.403
280.136
279.924
279.758
284.833
283.981
283.141
282.455
281.89
281.445
281.088
280.806
280.583
280.42
280.955
280.948
280.933
280.913
280.889
280.863
280.836
280.808
280.777
280.741
280.757
280.728
280.686
280.636
280.58
280.523
280.466
280.412
280.363
280.32
280.972
280.919
280.842
280.751
280.654
280.557
280.464
280.379
280.303
280.239
281.304
281.216
281.09
280.945
280.796
280.651
280.518
280.398
280.295
280.208
281.627
281.491
281.303
281.095
280.888
280.694
280.52
280.368
280.239
280.134
282.017
281.821
281.559
281.281
281.014
280.772
280.56
280.378
280.226
280.103
282.368
282.098
281.753
281.403
281.077
280.79
280.544
280.337
280.166
280.03
282.756
282.401
281.97
281.551
281.171
280.845
280.571
280.344
280.157
280.009
283.081
282.631
282.117
281.639
281.218
280.864
280.569
280.328
280.132
279.976
283.982
283.458
282.883
282.362
281.909
281.531
281.218
280.964
280.758
280.607
280.921
280.919
280.912
280.902
280.889
280.875
280.859
280.843
280.823
280.797
280.672
280.654
280.631
280.602
280.57
280.535
280.501
280.467
280.435
280.407
280.82
280.789
280.745
280.692
280.632
280.571
280.51
280.453
280.4
280.354
281.066
281.017
280.944
280.856
280.76
280.664
280.571
280.485
280.408
280.342
281.309
281.233
281.121
280.99
280.852
280.716
280.589
280.473
280.372
280.288
281.619
281.508
281.349
281.168
280.982
280.805
280.642
280.498
280.373
280.27
281.895
281.741
281.526
281.289
281.054
280.836
280.64
280.47
280.325
280.207
282.213
282.006
281.73
281.438
281.157
280.902
280.678
280.486
280.324
280.193
282.471
282.206
281.87
281.528
281.209
280.925
280.679
280.472
280.299
280.159
283.29
282.976
282.594
282.214
281.865
281.559
281.297
281.078
280.896
280.761
280.911
280.911
280.908
280.902
280.896
280.888
280.879
280.869
280.856
280.835
280.634
280.622
280.608
280.591
280.572
280.551
280.53
280.509
280.49
280.472
280.735
280.716
280.69
280.658
280.621
280.583
280.544
280.507
280.472
280.44
280.918
280.888
280.844
280.791
280.73
280.667
280.604
280.544
280.489
280.441
281.098
281.054
280.987
280.904
280.813
280.72
280.63
280.545
280.47
280.405
281.341
281.277
281.18
281.063
280.936
280.81
280.69
280.58
280.483
280.4
281.553
281.463
281.329
281.172
281.007
280.847
280.697
280.563
280.445
280.348
281.809
281.687
281.512
281.314
281.111
280.919
280.743
280.587
280.453
280.342
282.005
281.849
281.633
281.396
281.161
280.942
280.746
280.575
280.429
280.309
282.745
282.56
282.31
282.043