/*--------------------------------*- C++ -*----------------------------------*\
| =========                 |                                                 |
| \\      /  F ield         | foam-extend: Open Source CFD                    |
|  \\    /   O peration     | Version:     4.0                                |
|   \\  /    A nd           | Web:         http://www.foam-extend.org         |
|    \\/     M anipulation  |                                                 |
\*---------------------------------------------------------------------------*/
FoamFile
{
    version     2.0;
    format      ascii;
    class       volVectorField;
    location    "950";
    object      U;
}
// * * * * * * * * * * * * * * * * * * * * * * * * * * * * * * * * * * * * * //

dimensions      [0 1 -1 0 0 0 0];

internalField   nonuniform List<vector> 
34480
(
(208.246 2.1724 3.28517)
(208.577 1.20959 1.55843)
(208.746 0.425527 -0.231577)
(208.767 -0.197694 -2.12873)
(208.634 -0.692557 -4.27396)
(208.31 -1.05461 -6.84457)
(207.716 -1.25691 -10.2423)
(206.574 -1.17559 -14.8118)
(203.929 -0.574439 -22.7205)
(197.025 2.00067 -49.9664)
(209.197 3.07767 2.89926)
(209.477 2.26031 1.09104)
(209.62 1.53798 -0.725808)
(209.61 0.90651 -2.61825)
(209.39 0.337041 -4.70664)
(208.902 -0.180689 -7.19985)
(208.11 -0.656089 -10.5587)
(206.833 -1.02447 -15.5258)
(203.707 -1.11392 -24.316)
(195.57 0.683302 -54.9835)
(209.927 2.69228 3.33003)
(210.184 1.81721 1.45824)
(210.295 1.04637 -0.441349)
(210.238 0.398106 -2.38151)
(209.956 -0.173719 -4.49269)
(209.444 -0.692118 -7.03313)
(208.709 -1.17398 -10.5327)
(207.586 -1.53756 -16.0225)
(204.304 -1.60288 -25.6859)
(195.131 0.407108 -59.3312)
(209.965 3.22344 3.29934)
(210.223 2.39936 1.37333)
(210.35 1.66245 -0.560345)
(210.33 1.04634 -2.53)
(210.113 0.505712 -4.6745)
(209.719 0.0164358 -7.28183)
(209.126 -0.441508 -10.8848)
(208.177 -0.774301 -16.7356)
(204.883 -0.793387 -27.026)
(194.922 1.36436 -62.6199)
(210.145 2.68958 3.81886)
(210.435 1.7945 1.85639)
(210.602 1.00831 -0.156561)
(210.648 0.367558 -2.20204)
(210.528 -0.189778 -4.445)
(210.274 -0.685569 -7.18602)
(209.836 -1.1316 -10.9545)
(209.076 -1.42137 -17.1903)
(205.891 -1.35728 -28.1507)
(195.298 0.963002 -65.3041)
(210.043 3.38888 3.60384)
(210.348 2.51143 1.64533)
(210.541 1.74104 -0.328471)
(210.627 1.11909 -2.34366)
(210.579 0.594978 -4.55832)
(210.445 0.14345 -7.2979)
(210.162 -0.246309 -11.0753)
(209.62 -0.467277 -17.5031)
(206.688 -0.299302 -28.9494)
(195.705 2.11915 -67.2881)
(210.134 2.57372 4.12034)
(210.483 1.60108 2.16217)
(210.71 0.755013 0.147275)
(210.84 0.068869 -1.89989)
(210.854 -0.512653 -4.16665)
(210.819 -1.00576 -6.98025)
(210.676 -1.39405 -10.8567)
(210.351 -1.55245 -17.5304)
(207.752 -1.18783 -29.551)
(196.482 1.52127 -68.9175)
(209.979 3.37764 3.6415)
(210.336 2.38861 1.71751)
(210.547 1.55704 -0.216069)
(210.638 0.892226 -2.19721)
(210.614 0.363354 -4.37603)
(210.56 -0.063894 -7.085)
(210.458 -0.36323 -10.8231)
(210.286 -0.402858 -17.4139)
(208.094 0.263507 -29.6171)
(196.865 3.3345 -69.5222)
(209.967 2.07736 4.17257)
(210.364 0.969225 2.30368)
(210.604 0.0127029 0.396793)
(210.732 -0.805984 -1.56017)
(210.754 -1.51628 -3.757)
(210.74 -2.12257 -6.50307)
(210.702 -2.54219 -10.3322)
(210.662 -2.59761 -17.0367)
(208.796 -1.54429 -29.6042)
(197.46 2.47282 -69.4848)
(209.022 2.81859 3.58574)
(209.33 1.60848 1.67505)
(209.312 0.65378 -0.226568)
(208.988 -0.137443 -2.19393)
(208.399 -0.750255 -4.3581)
(207.636 -1.19797 -7.00237)
(206.786 -1.38697 -10.5984)
(206.024 -1.10008 -16.752)
(204.128 0.422291 -28.4619)
(194.042 5.28607 -66.4449)
(205.189 1.91167 3.01673)
(205.673 1.11335 1.56867)
(205.868 0.432306 0.0206589)
(205.795 -0.110492 -1.57523)
(205.43 -0.539393 -3.28281)
(204.682 -0.854371 -5.11466)
(203.349 -1.05917 -7.12504)
(200.999 -1.16461 -9.2898)
(197.55 -1.24764 -11.2288)
(192.989 -1.14285 -14.4001)
(206.498 2.86008 2.81852)
(206.946 2.15954 1.19326)
(207.132 1.51743 -0.45494)
(207.056 0.944767 -2.1475)
(206.658 0.419441 -3.9521)
(205.816 -0.0640713 -5.92639)
(204.334 -0.520171 -8.16385)
(201.758 -0.981931 -10.9167)
(197.589 -1.56349 -13.9701)
(191.901 -1.78734 -20.5702)
(207.475 2.55075 3.3421)
(207.904 1.74945 1.59062)
(208.076 1.02681 -0.206325)
(207.989 0.409555 -2.03718)
(207.566 -0.141857 -3.97543)
(206.706 -0.639679 -6.10451)
(205.236 -1.11274 -8.61299)
(202.672 -1.57634 -12.0345)
(198.137 -2.13495 -16.285)
(191.529 -2.02957 -26.6943)
(207.74 3.13913 3.35571)
(208.175 2.37235 1.52085)
(208.369 1.66937 -0.335321)
(208.327 1.06989 -2.22778)
(207.97 0.53408 -4.24142)
(207.217 0.0504696 -6.50224)
(205.867 -0.41368 -9.23522)
(203.407 -0.849201 -13.2001)
(198.658 -1.34553 -18.4265)
(191.255 -0.896092 -32.4334)
(208.105 2.62968 3.90191)
(208.568 1.78065 2.01394)
(208.804 1.02131 0.0615518)
(208.831 0.394977 -1.92602)
(208.57 -0.154504 -4.06525)
(207.958 -0.638018 -6.50974)
(206.764 -1.0897 -9.50001)
(204.474 -1.47919 -13.9986)
(199.66 -1.88256 -20.1785)
(191.566 -1.03567 -37.6732)
(208.145 3.36229 3.70578)
(208.627 2.52246 1.80786)
(208.892 1.77242 -0.114533)
(208.967 1.15854 -2.08307)
(208.785 0.633833 -4.2082)
(208.304 0.184419 -6.68941)
(207.279 -0.219955 -9.76589)
(205.214 -0.539282 -14.5947)
(200.496 -0.812839 -21.4943)
(191.889 0.39845 -42.1923)
(208.352 2.55544 4.23116)
(208.873 1.61678 2.3266)
(209.175 0.793681 0.353856)
(209.3 0.124978 -1.65444)
(209.189 -0.438754 -3.84406)
(208.825 -0.908188 -6.43061)
(207.962 -1.29818 -9.66548)
(206.143 -1.55434 -14.8484)
(201.637 -1.63652 -22.5111)
(192.618 0.0353431 -46.2254)
(208.278 3.3877 3.7592)
(208.81 2.43236 1.88704)
(209.105 1.62365 0.00294035)
(209.207 0.975163 -1.93236)
(209.081 0.462106 -4.03186)
(208.738 0.0536127 -6.5413)
(207.966 -0.251657 -9.70554)
(206.366 -0.407568 -14.9379)
(202.19 -0.194926 -22.9945)
(193.053 1.85928 -49.1976)
(208.327 2.08435 4.29275)
(208.888 1.01379 2.47151)
(209.209 0.104055 0.605632)
(209.346 -0.654197 -1.29651)
(209.274 -1.2889 -3.40211)
(209.001 -1.81139 -5.95808)
(208.346 -2.17182 -9.26749)
(206.968 -2.30709 -14.7319)
(203.127 -1.72758 -23.4297)
(193.751 1.02513 -51.4802)
(207.421 2.88827 3.68158)
(207.927 1.72537 1.85602)
(208.075 0.828992 0.042158)
(207.894 0.0962813 -1.82774)
(207.393 -0.451395 -3.85591)
(206.608 -0.838906 -6.28637)
(205.429 -1.00137 -9.40621)
(203.653 -0.823909 -14.5043)
(199.957 0.228914 -22.9759)
(191.407 4.04801 -51.3226)
(202.857 1.4232 2.34702)
(203.364 0.832265 1.23486)
(203.551 0.302977 0.00887614)
(203.455 -0.130123 -1.2389)
(203.062 -0.480348 -2.52978)
(202.325 -0.744627 -3.80931)
(201.149 -0.93255 -5.02992)
(199.381 -1.06917 -6.04254)
(196.832 -1.23941 -6.49615)
(193.614 -1.42471 -6.52912)
(204.26 2.40165 2.33314)
(204.769 1.86224 0.974238)
(204.96 1.33819 -0.417202)
(204.847 0.850054 -1.83214)
(204.393 0.386727 -3.29762)
(203.514 -0.0568684 -4.81609)
(202.049 -0.493493 -6.3513)
(199.722 -0.95323 -7.84103)
(196.087 -1.54568 -8.78879)
(191.215 -2.11578 -9.81642)
(205.312 2.18466 2.9808)
(205.829 1.50541 1.43707)
(206.022 0.87038 -0.164225)
(205.908 0.310816 -1.79276)
(205.431 -0.20634 -3.49438)
(204.49 -0.690855 -5.28576)
(202.884 -1.16695 -7.17669)
(200.247 -1.66356 -9.26118)
(195.741 -2.32238 -10.9816)
(189.276 -2.8849 -13.5861)
(205.724 2.85897 3.04207)
(206.262 2.18871 1.37647)
(206.481 1.55278 -0.320354)
(206.404 0.993043 -2.05206)
(205.969 0.474698 -3.88233)
(205.07 -0.0117937 -5.86939)
(203.456 -0.497839 -8.05897)
(200.66 -0.998889 -10.7034)
(195.432 -1.67393 -13.1777)
(187.493 -2.14143 -17.5651)
(206.23 2.38861 3.62639)
(206.802 1.62069 1.87556)
(207.059 0.917654 0.0533206)
(207.043 0.323448 -1.80483)
(206.682 -0.213343 -3.79983)
(205.876 -0.700822 -6.02231)
(204.327 -1.17371 -8.54623)
(201.495 -1.63664 -11.7878)
(195.734 -2.27533 -15.1041)
(186.492 -2.55009 -21.58)
(206.394 3.16908 3.45385)
(206.988 2.3964 1.67233)
(207.276 1.6933 -0.140384)
(207.307 1.10552 -2.00265)
(207.012 0.58812 -4.01408)
(206.308 0.129286 -6.31613)
(204.862 -0.305437 -9.00012)
(202.094 -0.713132 -12.6656)
(195.996 -1.26573 -16.6864)
(185.679 -1.31286 -25.3438)
(206.708 2.37702 4.00165)
(207.337 1.49975 2.19555)
(207.66 0.722892 0.315445)
(207.741 0.0844865 -1.60516)
(207.511 -0.463291 -3.70444)
(206.908 -0.927922 -6.14714)
(205.582 -1.33032 -9.05574)
(202.936 -1.65958 -13.1791)
(196.671 -2.05261 -17.9941)
(185.44 -1.76839 -28.9647)
(206.722 3.24451 3.53428)
(207.361 2.34933 1.75714)
(207.682 1.58549 -0.0367725)
(207.748 0.967783 -1.88835)
(207.512 0.470985 -3.90612)
(206.937 0.0697877 -6.29558)
(205.694 -0.247215 -9.19578)
(203.201 -0.478422 -13.5009)
(196.955 -0.607731 -18.8356)
(185.074 -0.0445019 -31.8798)
(206.845 1.92679 4.07372)
(207.5 0.917526 2.33586)
(207.841 0.0668162 0.543229)
(207.934 -0.631023 -1.28912)
(207.738 -1.20555 -3.31749)
(207.222 -1.66605 -5.75064)
(206.087 -1.97558 -8.81737)
(203.784 -2.11212 -13.4649)
(197.67 -1.84511 -19.603)
(185.019 -0.773772 -34.2704)
(206.002 2.78959 3.43036)
(206.606 1.70386 1.72156)
(206.819 0.878585 0.0151191)
(206.675 0.211946 -1.75522)
(206.163 -0.273843 -3.68197)
(205.274 -0.600728 -5.9774)
(203.78 -0.715939 -8.86614)
(201.237 -0.539547 -13.256)
(195.259 0.224676 -19.5027)
(182.554 2.31276 -34.6923)
(201.151 0.941617 1.71244)
(201.59 0.542832 0.92579)
(201.744 0.162083 0.0240206)
(201.651 -0.1604 -0.879348)
(201.308 -0.430722 -1.78376)
(200.698 -0.643145 -2.60744)
(199.793 -0.809836 -3.28548)
(198.562 -0.953964 -3.68272)
(197.004 -1.13075 -3.58298)
(195.269 -1.36414 -2.76392)
(202.478 1.89189 1.81106)
(202.957 1.51845 0.743571)
(203.128 1.12288 -0.360879)
(203.005 0.731857 -1.47012)
(202.565 0.345564 -2.57641)
(201.761 -0.0386832 -3.64905)
(200.516 -0.431114 -4.61191)
(198.72 -0.853073 -5.33701)
(196.239 -1.37127 -5.40065)
(193.4 -1.93066 -4.62867)
(203.477 1.73307 2.53442)
(204.001 1.19606 1.2437)
(204.187 0.668493 -0.112017)
(204.055 0.185906 -1.48011)
(203.564 -0.27615 -2.87704)
(202.645 -0.725998 -4.28285)
(201.161 -1.18274 -5.63097)
(198.914 -1.67162 -6.83072)
(195.548 -2.29612 -7.2944)
(191.43 -2.98011 -6.93407)
(203.946 2.49055 2.63099)
(204.515 1.94096 1.18392)
(204.731 1.3932 -0.301682)
(204.62 0.892699 -1.80989)
(204.132 0.412988 -3.37631)
(203.18 -0.0551296 -5.01518)
(201.566 -0.54037 -6.68059)
(198.991 -1.06352 -8.35889)
(194.776 -1.76189 -9.28764)
(189.29 -2.51431 -9.55691)
(204.53 2.06525 3.25466)
(205.145 1.40278 1.68743)
(205.397 0.775911 0.043729)
(205.332 0.23051 -1.62509)
(204.883 -0.276861 -3.39353)
(203.959 -0.75386 -5.30534)
(202.302 -1.2329 -7.34062)
(199.518 -1.73228 -9.58452)
(194.565 -2.43936 -11.1317)
(187.758 -3.16473 -12.3883)
(204.78 2.89902 3.10979)
(205.425 2.21705 1.48749)
(205.709 1.57932 -0.172022)
(205.682 1.0331 -1.87306)
(205.277 0.539142 -3.69228)
(204.405 0.0853917 -5.72152)
(202.76 -0.365075 -7.96283)
(199.875 -0.828704 -10.6361)
(194.326 -1.50215 -12.7299)
(186.327 -2.14798 -15.1581)
(205.176 2.13151 3.68598)
(205.857 1.33711 2.01652)
(206.172 0.622291 0.267896)
(206.188 0.02611 -1.51572)
(205.834 -0.49503 -3.45161)
(205.029 -0.948195 -5.65578)
(203.432 -1.35873 -8.16929)
(200.522 -1.73829 -11.3301)
(194.522 -2.28833 -14.1072)
(185.448 -2.74889 -17.9712)
(205.265 3.04667 3.22994)
(205.956 2.23098 1.582)
(206.272 1.52526 -0.0887549)
(206.28 0.948185 -1.81525)
(205.921 0.475965 -3.6877)
(205.133 0.0871907 -5.86494)
(203.576 -0.238895 -8.41459)
(200.704 -0.527683 -11.8169)
(194.451 -0.868716 -15.0896)
(184.502 -1.17056 -20.3385)
(205.45 1.72656 3.79949)
(206.15 0.795183 2.17623)
(206.481 0.00985477 0.485498)
(206.512 -0.628044 -1.24426)
(206.185 -1.14786 -3.14842)
(205.439 -1.55583 -5.38182)
(203.936 -1.83014 -8.09343)
(201.153 -1.98109 -11.8505)
(194.829 -1.93115 -15.9622)
(183.919 -1.87276 -22.3996)
(204.672 2.66405 3.13487)
(205.326 1.6677 1.56447)
(205.568 0.916554 -0.0168602)
(205.429 0.314524 -1.66566)
(204.882 -0.114816 -3.45746)
(203.88 -0.390571 -5.55899)
(202.136 -0.472615 -8.11848)
(199.162 -0.309788 -11.6856)
(192.857 0.235295 -16.028)
(181.461 1.21457 -22.8732)
(199.96 0.541789 1.20347)
(200.303 0.287532 0.677728)
(200.42 0.0275975 0.0478245)
(200.348 -0.200937 -0.571026)
(200.092 -0.401979 -1.17662)
(199.657 -0.567593 -1.68899)
(199.048 -0.707378 -2.0613)
(198.287 -0.836205 -2.20373)
(197.422 -0.980534 -2.02381)
(196.566 -1.14602 -1.43744)
(201.12 1.41696 1.33107)
(201.523 1.1837 0.533626)
(201.667 0.905374 -0.298142)
(201.559 0.608235 -1.12379)
(201.191 0.300524 -1.91692)
(200.546 -0.0165064 -2.63415)
(199.603 -0.346986 -3.20103)
(198.353 -0.699952 -3.50922)
(196.812 -1.10238 -3.33025)
(195.27 -1.51394 -2.52591)
(201.973 1.26723 2.07965)
(202.456 0.866854 1.04954)
(202.626 0.448376 -0.049725)
(202.499 0.048661 -1.1491)
(202.054 -0.347971 -2.24038)
(201.251 -0.746269 -3.28201)
(200.025 -1.15936 -4.18914)
(198.306 -1.60389 -4.83205)
(196.008 -2.13325 -4.81693)
(193.574 -2.69413 -3.93939)
(202.418 2.08394 2.18843)
(202.971 1.66093 0.981642)
(203.175 1.20985 -0.26986)
(203.055 0.778673 -1.53131)
(202.576 0.350966 -2.80926)
(201.677 -0.0797968 -4.08403)
(200.237 -0.537503 -5.27327)
(198.111 -1.04015 -6.26246)
(195.018 -1.67425 -6.4717)
(191.519 -2.36853 -5.62814)
(203.012 1.69575 2.84066)
(203.627 1.15061 1.48527)
(203.869 0.611062 0.0482428)
(203.778 0.125117 -1.40138)
(203.302 -0.340408 -2.90624)
(202.368 -0.791297 -4.46745)
(200.793 -1.2558 -6.01638)
(198.351 -1.75556 -7.47916)
(194.494 -2.42985 -8.09004)
(189.863 -3.18685 -7.56038)
(203.299 2.57824 2.72001)
(203.959 2.00186 1.287)
(204.234 1.44168 -0.19002)
(204.171 0.94743 -1.69761)
(203.711 0.488512 -3.28161)
(202.775 0.0540978 -4.98322)
(201.124 -0.392634 -6.7489)
(198.459 -0.876289 -8.58724)
(193.916 -1.55965 -9.56096)
(188.176 -2.34238 -9.4889)
(203.739 1.83847 3.32349)
(204.441 1.14287 1.82059)
(204.747 0.501771 0.232243)
(204.719 -0.0433212 -1.3823)
(204.289 -0.529034 -3.10999)
(203.378 -0.961695 -5.01274)
(201.699 -1.36922 -7.07207)
(198.888 -1.77569 -9.37315)
(193.755 -2.37099 -10.8746)
(186.944 -3.08011 -11.531)
(203.88 2.80739 2.88072)
(204.597 2.0869 1.38902)
(204.908 1.45034 -0.132762)
(204.874 0.922197 -1.70509)
(204.438 0.482566 -3.39095)
(203.524 0.113594 -5.29345)
(201.83 -0.21228 -7.41665)
(198.948 -0.535997 -9.96371)
(193.395 -0.980249 -11.8583)
(185.636 -1.63559 -13.2727)
(204.112 1.48842 3.487)
(204.836 0.649653 2.00374)
(205.159 -0.0631228 0.439551)
(205.143 -0.639246 -1.15991)
(204.73 -1.10592 -2.90404)
(203.842 -1.46691 -4.88916)
(202.16 -1.71322 -7.18415)
(199.256 -1.8767 -10.0461)
(193.46 -1.9654 -12.6713)
(184.667 -2.36879 -14.8436)
(203.393 2.51403 2.80191)
(204.075 1.61761 1.3871)
(204.337 0.944534 -0.0529121)
(204.203 0.407275 -1.56021)
(203.637 0.0316036 -3.18889)
(202.573 -0.198821 -5.05544)
(200.725 -0.256356 -7.23186)
(197.652 -0.113078 -9.9694)
(191.754 0.266658 -12.7926)
(182.256 0.652448 -15.1474)
(199.138 0.241206 0.833743)
(199.392 0.0840735 0.498225)
(199.474 -0.0879946 0.0730366)
(199.425 -0.244363 -0.333867)
(199.251 -0.389728 -0.728005)
(198.966 -0.514941 -1.04122)
(198.582 -0.626326 -1.24814)
(198.131 -0.731146 -1.29451)
(197.654 -0.840199 -1.14721)
(197.196 -0.951499 -0.783866)
(200.118 1.02175 0.930615)
(200.429 0.892949 0.35843)
(200.54 0.710488 -0.239966)
(200.456 0.495604 -0.827264)
(200.176 0.260849 -1.37207)
(199.7 0.0103911 -1.83333)
(199.035 -0.254144 -2.15329)
(198.21 -0.532827 -2.25913)
(197.284 -0.829373 -2.04293)
(196.433 -1.11316 -1.43886)
(200.791 0.837884 1.66359)
(201.199 0.552023 0.872682)
(201.343 0.232285 0.0136331)
(201.234 -0.0872957 -0.838136)
(200.863 -0.415712 -1.6601)
(200.215 -0.753619 -2.40348)
(199.273 -1.10768 -2.99151)
(198.041 -1.48583 -3.31586)
(196.551 -1.9085 -3.15298)
(195.118 -2.33245 -2.36044)
(201.16 1.6816 1.75676)
(201.656 1.37523 0.786755)
(201.839 1.01903 -0.230325)
(201.724 0.660416 -1.24781)
(201.292 0.291991 -2.25071)
(200.509 -0.0886714 -3.19933)
(199.319 -0.498026 -4.00653)
(197.682 -0.947769 -4.54558)
(195.542 -1.48295 -4.44964)
(193.368 -2.04747 -3.46196)
(201.709 1.31324 2.41867)
(202.285 0.883995 1.28366)
(202.507 0.435043 0.0644707)
(202.406 0.014565 -1.15674)
(201.946 -0.40033 -2.39498)
(201.079 -0.812168 -3.62039)
(199.696 -1.24265 -4.74569)
(197.702 -1.71077 -5.64376)
(194.887 -2.30504 -5.78673)
(191.86 -2.96189 -4.7949)
(201.992 2.23129 2.31201)
(202.627 1.76481 1.0836)
(202.884 1.28838 -0.194086)
(202.8 0.853146 -1.49171)
(202.329 0.437916 -2.82607)
(201.411 0.0347532 -4.19647)
(199.887 -0.388684 -5.51929)
(197.602 -0.857662 -6.70418)
(194.131 -1.48731 -7.05666)
(190.207 -2.22175 -6.12854)
(202.44 1.51599 2.93578)
(203.128 0.927127 1.61847)
(203.416 0.367119 0.210303)
(203.358 -0.120238 -1.2147)
(202.895 -0.563319 -2.71257)
(201.96 -0.966633 -4.29701)
(200.343 -1.35725 -5.9087)
(197.829 -1.76413 -7.4919)
(193.75 -2.33728 -8.23086)
(188.905 -3.05998 -7.59198)
(202.607 2.53931 2.50376)
(203.317 1.92361 1.18714)
(203.615 1.3641 -0.166295)
(203.551 0.891431 -1.5634)
(203.074 0.490984 -3.03853)
(202.115 0.148905 -4.64286)
(200.432 -0.164379 -6.32951)
(197.763 -0.495417 -8.12383)
(193.201 -0.963652 -9.13599)
(187.486 -1.6984 -8.82495)
(202.87 1.22056 3.14823)
(203.59 0.484433 1.82379)
(203.898 -0.150369 0.405999)
(203.848 -0.663169 -1.04101)
(203.383 -1.07767 -2.59946)
(202.43 -1.39521 -4.3125)
(200.723 -1.61631 -6.1863)
(197.95 -1.7824 -8.259)
(193.054 -1.94248 -9.82818)
(186.374 -2.48979 -9.94193)
(202.2 2.34577 2.44126)
(202.883 1.55672 1.19455)
(203.151 0.964743 -0.0908203)
(203.02 0.492409 -1.44011)
(202.451 0.168009 -2.88442)
(201.374 -0.0222992 -4.4927)
(199.542 -0.061864 -6.27344)
(196.61 0.060486 -8.27384)
(191.535 0.319576 -9.97384)
(184.136 0.42316 -10.1016)
(198.565 0.0310514 0.584775)
(198.749 -0.0666298 0.378362)
(198.806 -0.180095 0.0953705)
(198.775 -0.285121 -0.165634)
(198.665 -0.388485 -0.420229)
(198.488 -0.48072 -0.613031)
(198.259 -0.565724 -0.735049)
(198.001 -0.645641 -0.753722)
(197.739 -0.723585 -0.661304)
(197.477 -0.795109 -0.456746)
(199.39 0.721616 0.618674)
(199.614 0.663323 0.22047)
(199.694 0.552935 -0.193345)
(199.635 0.404798 -0.594903)
(199.436 0.232983 -0.955744)
(199.106 0.0431263 -1.24368)
(198.663 -0.15914 -1.4194)
(198.14 -0.369103 -1.43981)
(197.59 -0.58046 -1.25897)
(197.11 -0.768564 -0.859056)
(199.883 0.473919 1.31006)
(200.204 0.274602 0.721548)
(200.319 0.0370213 0.0705495)
(200.234 -0.210819 -0.57017)
(199.946 -0.473879 -1.17322)
(199.455 -0.749629 -1.69289)
(198.77 -1.03951 -2.06918)
(197.924 -1.344 -2.22797)
(196.981 -1.6652 -2.05487)
(196.133 -1.96916 -1.48801)
(200.153 1.31468 1.36344)
(200.571 1.10574 0.609257)
(200.726 0.835274 -0.189833)
(200.627 0.546914 -0.98354)
(200.264 0.239951 -1.74503)
(199.625 -0.0841183 -2.42786)
(198.696 -0.433632 -2.95601)
(197.495 -0.813096 -3.22597)
(196.063 -1.23964 -3.02986)
(194.717 -1.66906 -2.21656)
(200.624 0.946039 2.01437)
(201.132 0.621362 1.09202)
(201.326 0.259491 0.0869892)
(201.23 -0.0939751 -0.912681)
(200.817 -0.453116 -1.90253)
(200.064 -0.816808 -2.8363)
(198.92 -1.19927 -3.6278)
(197.373 -1.61333 -4.15191)
(195.396 -2.10769 -4.08305)
(193.442 -2.63205 -3.14857)
(200.87 1.88145 1.90831)
(201.45 1.52001 0.885999)
(201.681 1.12771 -0.187798)
(201.59 0.755043 -1.27269)
(201.144 0.389466 -2.36297)
(200.306 0.0266802 -3.43041)
(198.984 -0.358093 -4.38262)
(197.125 -0.785431 -5.09926)
(194.583 -1.32688 -5.12097)
(191.951 -1.94537 -4.06546)
(201.3 1.18285 2.54162)
(201.943 0.700686 1.41753)
(202.206 0.22445 0.199742)
(202.131 -0.201139 -1.02642)
(201.672 -0.59619 -2.29043)
(200.782 -0.962625 -3.57088)
(199.323 -1.32369 -4.78818)
(197.195 -1.7068 -5.82243)
(194.098 -2.21823 -6.11149)
(190.733 -2.85364 -5.10863)
(201.467 2.25662 2.11477)
(202.141 1.74855 0.982939)
(202.417 1.27011 -0.190416)
(202.336 0.85719 -1.40005)
(201.855 0.500806 -2.65458)
(200.918 0.191154 -3.9646)
(199.356 -0.099325 -5.2525)
(197.024 -0.413376 -6.44441)
(193.456 -0.849789 -6.89106)
(189.366 -1.52311 -5.95662)
(201.745 0.933512 2.79624)
(202.435 0.304386 1.64162)
(202.722 -0.249589 0.383742)
(202.65 -0.698507 -0.896103)
(202.17 -1.06189 -2.25488)
(201.221 -1.33873 -3.69319)
(199.603 -1.5358 -5.1758)
(197.121 -1.69508 -6.61587)
(193.195 -1.87542 -7.46528)
(188.3 -2.397 -6.727)
(201.112 2.16738 2.06427)
(201.769 1.48922 0.992159)
(202.033 0.979792 -0.129526)
(201.906 0.57202 -1.30953)
(201.354 0.296539 -2.55705)
(200.314 0.141644 -3.90138)
(198.595 0.115092 -5.30489)
(195.957 0.216921 -6.69812)
(191.817 0.389703 -7.61194)
(186.305 0.381067 -6.8006)
(198.152 -0.109716 0.425816)
(198.289 -0.173228 0.303271)
(198.327 -0.249983 0.11363)
(198.309 -0.320431 -0.0523537)
(198.243 -0.393617 -0.21898)
(198.138 -0.46037 -0.341011)
(198.005 -0.523255 -0.419758)
(197.859 -0.581799 -0.434222)
(197.713 -0.63593 -0.385994)
(197.546 -0.681186 -0.277695)
(198.859 0.511866 0.386563)
(199.012 0.497711 0.115565)
(199.068 0.438185 -0.160648)
(199.028 0.341061 -0.425418)
(198.895 0.220335 -0.656334)
(198.678 0.0819973 -0.830927)
(198.394 -0.0666113 -0.924562)
(198.07 -0.218843 -0.913343)
(197.744 -0.365598 -0.779727)
(197.461 -0.488018 -0.522378)
(199.195 0.185594 1.02601)
(199.434 0.0464646 0.598735)
(199.521 -0.127089 0.117289)
(199.458 -0.314532 -0.353827)
(199.246 -0.519021 -0.788497)
(198.893 -0.73647 -1.14909)
(198.416 -0.964827 -1.3926)
(197.853 -1.19998 -1.47322)
(197.264 -1.43559 -1.33529)
(196.752 -1.64603 -0.96151)
(199.368 1.00209 1.02389)
(199.701 0.868174 0.454952)
(199.825 0.670191 -0.153097)
(199.745 0.445724 -0.753078)
(199.457 0.19816 -1.31447)
(198.963 -0.0681854 -1.79337)
(198.271 -0.354944 -2.13025)
(197.42 -0.660928 -2.25134)
(196.479 -0.986828 -2.04713)
(195.645 -1.29897 -1.4463)
(199.744 0.615743 1.64652)
(200.169 0.378543 0.917332)
(200.332 0.0952662 0.111114)
(200.247 -0.193637 -0.685528)
(199.898 -0.495601 -1.45705)
(199.28 -0.806384 -2.15294)
(198.379 -1.13364 -2.69886)
(197.224 -1.4831 -2.9937)
(195.868 -1.87654 -2.85016)
(194.615 -2.27359 -2.11321)
(199.934 1.54916 1.5282)
(200.438 1.28096 0.701732)
(200.638 0.96815 -0.174792)
(200.55 0.658103 -1.05586)
(200.155 0.345242 -1.92117)
(199.432 0.0287396 -2.72898)
(198.341 -0.30768 -3.39279)
(196.891 -0.677766 -3.79961)
(195.081 -1.11892 -3.66491)
(193.336 -1.60599 -2.74509)
(200.326 0.857469 2.15882)
(200.902 0.475063 1.22469)
(201.133 0.0807478 0.19764)
(201.053 -0.281938 -0.831013)
(200.628 -0.62575 -1.87069)
(199.829 -0.949838 -2.87936)
(198.58 -1.27219 -3.77411)
(196.857 -1.61447 -4.42149)
(194.579 -2.04517 -4.46262)
(192.278 -2.55974 -3.49087)
(200.471 1.97435 1.72995)
(201.085 1.57025 0.783199)
(201.334 1.17287 -0.20673)
(201.246 0.821406 -1.22586)
(200.79 0.512049 -2.26245)
(199.927 0.238737 -3.30004)
(198.553 -0.0216193 -4.24921)
(196.609 -0.303283 -4.99828)
(193.916 -0.677513 -5.10094)
(191.048 -1.22846 -4.06144)
(200.754 0.639106 2.44545)
(201.39 0.11556 1.46316)
(201.65 -0.35772 0.371466)
(201.567 -0.743601 -0.734764)
(201.103 -1.05732 -1.89129)
(200.211 -1.29578 -3.06891)
(198.761 -1.46912 -4.21018)
(196.646 -1.61489 -5.17607)
(193.617 -1.78617 -5.56993)
(190.13 -2.21365 -4.5969)
(200.144 1.98837 1.68358)
(200.753 1.42032 0.785996)
(201.001 0.992804 -0.168316)
(200.881 0.64826 -1.17401)
(200.365 0.419054 -2.22165)
(199.404 0.295252 -3.31121)
(197.864 0.278058 -4.37675)
(195.603 0.361064 -5.29945)
(192.359 0.472725 -5.69567)
(188.395 0.431043 -4.60956)
(197.842 -0.202745 0.328918)
(197.948 -0.247466 0.2592)
(197.973 -0.302361 0.12825)
(197.963 -0.350484 0.0215951)
(197.925 -0.402861 -0.0914215)
(197.865 -0.450908 -0.172774)
(197.789 -0.496639 -0.229534)
(197.707 -0.538571 -0.246704)
(197.623 -0.575602 -0.228817)
(197.506 -0.604027 -0.177487)
(198.467 0.378331 0.218057)
(198.567 0.390233 0.0364873)
(198.604 0.364924 -0.14159)
(198.578 0.305009 -0.309759)
(198.493 0.223718 -0.451971)
(198.355 0.126772 -0.55383)
(198.179 0.0214128 -0.600822)
(197.982 -0.0855151 -0.580029)
(197.788 -0.185273 -0.486252)
(197.614 -0.263568 -0.321516)
(198.674 -0.0298303 0.807412)
(198.843 -0.129925 0.502666)
(198.905 -0.256109 0.152742)
(198.862 -0.395234 -0.18843)
(198.713 -0.55006 -0.498857)
(198.47 -0.716463 -0.750109)
(198.15 -0.89049 -0.913101)
(197.785 -1.06611 -0.961562)
(197.419 -1.23443 -0.868645)
(197.105 -1.37651 -0.637354)
(198.765 0.751328 0.743079)
(199.017 0.671287 0.325739)
(199.113 0.531292 -0.122986)
(199.052 0.36195 -0.563088)
(198.835 0.168568 -0.96573)
(198.469 -0.0429183 -1.29419)
(197.973 -0.269947 -1.50524)
(197.388 -0.507801 -1.55043)
(196.777 -0.749349 -1.3754)
(196.258 -0.969124 -0.9531)
(199.044 0.335787 1.326)
(199.384 0.167216 0.763711)
(199.515 -0.0488096 0.133167)
(199.445 -0.278687 -0.486187)
(199.166 -0.525376 -1.07433)
(198.681 -0.782658 -1.58447)
(198 -1.05324 -1.9578)
(197.165 -1.33703 -2.12155)
(196.25 -1.64009 -1.97279)
(195.45 -1.92909 -1.43738)
(199.172 1.24959 1.1859)
(199.591 1.05898 0.536491)
(199.757 0.817293 -0.158312)
(199.679 0.566767 -0.853345)
(199.346 0.306763 -1.52099)
(198.752 0.039179 -2.1165)
(197.891 -0.244459 -2.56692)
(196.797 -0.551744 -2.78215)
(195.534 -0.896878 -2.59262)
(194.388 -1.26176 -1.87085)
(199.517 0.55566 1.80222)
(200.011 0.261213 1.04573)
(200.208 -0.0568397 0.200917)
(200.132 -0.358319 -0.64073)
(199.759 -0.650076 -1.47535)
(199.076 -0.928793 -2.25249)
(198.053 -1.20729 -2.89678)
(196.708 -1.5 -3.28884)
(195.072 -1.8474 -3.21224)
(193.52 -2.2402 -2.40653)
(199.623 1.70644 1.36414)
(200.161 1.39738 0.594203)
(200.377 1.07732 -0.217118)
(200.29 0.786392 -1.05141)
(199.88 0.524982 -1.88297)
(199.125 0.290177 -2.68057)
(197.971 0.0645159 -3.35654)
(196.413 -0.177275 -3.80035)
(194.434 -0.481358 -3.71522)
(192.459 -0.900239 -2.78518)
(199.903 0.348991 2.10984)
(200.469 -0.0755439 1.29436)
(200.697 -0.471288 0.367649)
(200.613 -0.796624 -0.566777)
(200.187 -1.06285 -1.52859)
(199.39 -1.26517 -2.47109)
(198.148 -1.41489 -3.32946)
(196.422 -1.54287 -3.95839)
(194.153 -1.69155 -4.08857)
(191.726 -2.0153 -3.16817)
(199.304 1.81863 1.31174)
(199.848 1.35583 0.582119)
(200.073 1.00726 -0.206951)
(199.963 0.723373 -1.03998)
(199.499 0.537312 -1.89341)
(198.645 0.440591 -2.74851)
(197.323 0.430087 -3.52642)
(195.463 0.496655 -4.10277)
(193.001 0.565619 -4.18249)
(190.233 0.524104 -3.13188)
(197.597 -0.266227 0.273003)
(197.683 -0.300829 0.235856)
(197.701 -0.343277 0.140538)
(197.696 -0.377479 0.0696578)
(197.674 -0.41605 -0.0114843)
(197.64 -0.450942 -0.0699752)
(197.597 -0.484129 -0.115615)
(197.552 -0.513919 -0.136663)
(197.502 -0.539075 -0.138302)
(197.41 -0.556739 -0.12044)
(198.169 0.304259 0.0958594)
(198.232 0.331034 -0.0243552)
(198.256 0.32801 -0.134513)
(198.24 0.294328 -0.236296)
(198.187 0.242397 -0.319134)
(198.102 0.177115 -0.374388)
(197.995 0.104864 -0.394039)
(197.877 0.0317608 -0.37092)
(197.76 -0.0349516 -0.304995)
(197.648 -0.0843226 -0.196644)
(198.275 -0.182506 0.644787)
(198.39 -0.258639 0.429606)
(198.432 -0.351177 0.177622)
(198.403 -0.453279 -0.0678702)
(198.303 -0.568062 -0.289587)
(198.141 -0.692121 -0.467322)
(197.933 -0.820956 -0.582156)
(197.701 -0.948407 -0.6199)
(197.475 -1.06596 -0.566872)
(197.279 -1.15994 -0.433435)
(198.307 0.561274 0.518615)
(198.49 0.517533 0.220629)
(198.561 0.421817 -0.100728)
(198.517 0.297923 -0.414132)
(198.36 0.151574 -0.695226)
(198.1 -0.0107492 -0.915644)
(197.755 -0.184565 -1.04569)
(197.362 -0.36362 -1.05522)
(196.97 -0.538349 -0.919142)
(196.646 -0.689905 -0.629921)
(198.497 0.111976 1.05662)
(198.758 -0.00563196 0.632497)
(198.858 -0.166672 0.150612)
(198.804 -0.345021 -0.320329)
(198.59 -0.540962 -0.760183)
(198.225 -0.747624 -1.12977)
(197.728 -0.964319 -1.38545)
(197.141 -1.1873 -1.47897)
(196.533 -1.41503 -1.35567)
(196.024 -1.61967 -0.98704)
(198.564 0.991778 0.889995)
(198.898 0.861988 0.393823)
(199.031 0.680915 -0.140883)
(198.967 0.484354 -0.673398)
(198.698 0.274695 -1.17438)
(198.231 0.0556985 -1.60267)
(197.575 -0.175179 -1.90098)
(196.776 -0.420954 -2.00475)
(195.909 -0.682416 -1.81521)
(195.162 -0.946314 -1.28002)
(198.861 0.289281 1.48233)
(199.269 0.0684538 0.884733)
(199.432 -0.181699 0.206654)
(199.364 -0.42611 -0.465445)
(199.052 -0.667328 -1.1203)
(198.494 -0.900238 -1.70769)
(197.688 -1.13344 -2.16493)
(196.672 -1.37447 -2.39749)
(195.519 -1.646 -2.28203)
(194.484 -1.93348 -1.66479)
(198.917 1.46431 1.02932)
(199.369 1.23773 0.421158)
(199.551 0.988253 -0.223466)
(199.472 0.754546 -0.885933)
(199.121 0.539984 -1.53275)
(198.488 0.344022 -2.12747)
(197.556 0.155086 -2.59218)
(196.351 -0.0446407 -2.83633)
(194.929 -0.282764 -2.66603)
(193.59 -0.587711 -1.91305)
(199.192 0.0732866 1.80155)
(199.678 -0.262759 1.14056)
(199.872 -0.586814 0.370757)
(199.794 -0.855749 -0.401081)
(199.42 -1.07754 -1.18374)
(198.74 -1.24621 -1.92328)
(197.718 -1.37285 -2.55752)
(196.36 -1.48084 -2.95859)
(194.702 -1.6022 -2.95511)
(193.046 -1.83612 -2.19523)
(198.596 1.66757 0.959852)
(199.063 1.30171 0.385983)
(199.259 1.0269 -0.245598)
(199.162 0.799788 -0.913842)
(198.759 0.653191 -1.58605)
(198.031 0.579824 -2.23414)
(196.937 0.57409 -2.77783)
(195.463 0.626779 -3.11096)
(193.645 0.666198 -3.01545)
(191.76 0.63643 -2.12103)
(197.395 -0.313976 0.244124)
(197.469 -0.343163 0.226637)
(197.482 -0.378911 0.152167)
(197.48 -0.404765 0.102013)
(197.468 -0.434452 0.039305)
(197.449 -0.460467 -0.00687916)
(197.425 -0.484878 -0.0472152)
(197.399 -0.506122 -0.071916)
(197.368 -0.523157 -0.086123)
(197.292 -0.533857 -0.0883042)
(197.936 0.274354 0.00508331)
(197.975 0.309807 -0.0735279)
(197.99 0.321044 -0.137371)
(197.98 0.305505 -0.194039)
(197.948 0.274736 -0.237268)
(197.897 0.232778 -0.262158)
(197.832 0.184867 -0.264691)
(197.762 0.136066 -0.240564)
(197.691 0.0919543 -0.191982)
(197.615 0.061174 -0.116455)
(197.964 -0.285392 0.527085)
(198.039 -0.347504 0.375261)
(198.066 -0.416805 0.193726)
(198.047 -0.491583 0.0163658)
(197.982 -0.575452 -0.143692)
(197.877 -0.665936 -0.272818)
(197.745 -0.758921 -0.358899)
(197.601 -0.84903 -0.394768)
(197.463 -0.929223 -0.372246)
(197.338 -0.989774 -0.303953)
(197.961 0.425163 0.343741)
(198.089 0.404489 0.136877)
(198.139 0.341254 -0.0862787)
(198.109 0.253403 -0.302689)
(198 0.146185 -0.49341)
(197.82 0.0257164 -0.637643)
(197.588 -0.103106 -0.715904)
(197.329 -0.233911 -0.709947)
(197.08 -0.357448 -0.609715)
(196.877 -0.460154 -0.413874)
(198.074 -0.0560084 0.836762)
(198.266 -0.137403 0.522765)