/*--------------------------------*- C++ -*----------------------------------*\
| =========                 |                                                 |
| \\      /  F ield         | foam-extend: Open Source CFD                    |
|  \\    /   O peration     | Version:     4.0                                |
|   \\  /    A nd           | Web:         http://www.foam-extend.org         |
|    \\/     M anipulation  |                                                 |
\*---------------------------------------------------------------------------*/
FoamFile
{
    version     2.0;
    format      ascii;
    class       volScalarField;
    location    "4600";
    object      divFlux;
}
// * * * * * * * * * * * * * * * * * * * * * * * * * * * * * * * * * * * * * //

dimensions      [1 -3 -1 0 0 0 0];

internalField   nonuniform List<scalar> 
34480
(
2.2493e-05
8.28466e-06
8.3734e-06
7.7225e-06
7.15953e-06
6.71291e-06
6.37366e-06
0.000298728
0.00018231
5.68808e-06
6.34519e-06
3.61932e-06
3.43656e-06
3.18444e-06
3.00752e-06
2.92579e-06
2.91972e-06
2.9243e-06
0.0034634
2.82499e-06
1.73995e-06
1.19304e-06
1.11006e-06
1.06342e-06
1.04679e-06
1.08276e-06
1.14264e-06
1.18305e-06
0.00334103
1.16748e-06
6.19739e-07
4.49335e-07
4.2169e-07
4.11954e-07
4.10312e-07
4.32229e-07
4.59759e-07
4.76024e-07
0.000801479
4.72626e-07
2.42458e-07
1.86026e-07
1.71888e-07
1.72019e-07
1.70251e-07
1.79088e-07
1.91067e-07
1.97088e-07
1.99118e-07
1.96172e-07
9.68362e-08
8.40212e-08
7.41127e-08
7.60601e-08
7.417e-08
7.86947e-08
8.3162e-08
8.49948e-08
8.6083e-08
8.46512e-08
3.73936e-08
4.05755e-08
3.21753e-08
3.64518e-08
3.36008e-08
3.69609e-08
3.73682e-08
3.8641e-08
3.88446e-08
3.84882e-08
1.68787e-08
2.29097e-08
1.46622e-08
1.78695e-08
1.6999e-08
1.77779e-08
1.83735e-08
1.88776e-08
1.91525e-08
1.92899e-08
2.58619e-08
6.58132e-09
1.4079e-08
9.20552e-09
9.62206e-09
1.00802e-08
9.49709e-09
1.07051e-08
1.07051e-08
1.13299e-08
7.14495e-09
9.81297e-09
6.83471e-09
7.7511e-09
7.36927e-09
6.98744e-09
6.98744e-09
6.72017e-09
6.79653e-09
7.40746e-09
3.06388e-05
1.0631e-05
1.06296e-05
9.95138e-06
9.34426e-06
8.88608e-06
8.58255e-06
8.42545e-06
8.40937e-06
0.00106517
9.91726e-06
5.19774e-06
4.99994e-06
4.69432e-06
4.48091e-06
4.38955e-06
4.39317e-06
4.47735e-06
4.62611e-06
0.00345607
3.11282e-06
1.96956e-06
1.83462e-06
1.77546e-06
1.77286e-06
1.83794e-06
1.93174e-06
2.04155e-06
2.15613e-06
0.00431089
1.37025e-06
8.39304e-07
7.89361e-07
7.77363e-07
7.88403e-07
8.28016e-07
8.76397e-07
9.31132e-07
9.85832e-07
0.001498
8.22301e-07
3.76725e-07
3.49342e-07
3.6997e-07
3.58895e-07
3.87982e-07
4.05628e-07
4.31916e-07
4.57656e-07
4.6951e-07
4.70134e-07
2.03233e-07
1.34175e-07
1.99452e-07
1.6479e-07
1.89283e-07
1.93968e-07
2.06906e-07
2.19366e-07
2.23079e-07
3.73177e-07
1.58076e-07
8.80302e-09
1.39476e-07
7.05661e-08
9.32836e-08
9.82057e-08
1.02607e-07
1.09138e-07
1.11008e-07
3.22672e-08
1.89378e-07
5.57146e-08
9.37095e-08
3.32669e-08
5.13699e-08
5.25199e-08
5.55868e-08
5.92074e-08
6.04533e-08
4.80382e-08
2.45504e-08
1.56828e-08
3.94587e-08
3.26435e-08
3.0746e-08
3.30307e-08
3.5509e-08
3.60123e-08
3.7295e-08
2.85936e-07
3.71644e-08
1.67186e-08
2.7048e-08
2.56991e-08
2.2753e-08
2.72965e-08
2.52022e-08
2.97457e-08
2.99587e-08
2.84705e-05
8.03913e-06
8.2754e-06
7.78333e-06
7.33577e-06
7.01278e-06
6.83805e-06
6.81677e-06
3.1391e-05
0.000873573
8.66637e-06
3.73573e-06
3.66955e-06
3.43647e-06
3.2462e-06
3.11973e-06
3.07954e-06
3.14819e-06
8.10486e-05
0.00135309
2.3853e-06
1.37294e-06
1.28888e-06
1.22172e-06
1.17202e-06
1.15131e-06
1.16945e-06
1.2456e-06
0.00012026
0.00127416
9.0833e-07
5.52954e-07
5.09858e-07
4.90488e-07
4.73296e-07
4.66366e-07
4.76662e-07
5.1329e-07
5.75492e-07
7.21043e-07
3.91602e-07
2.36909e-07
2.06023e-07
2.11171e-07
2.00027e-07
1.97481e-07
2.01724e-07
2.17733e-07
2.47375e-07
3.14168e-07
1.57088e-07
1.15428e-07
8.44923e-08
9.69162e-08
8.70167e-08
8.73632e-08
8.92936e-08
9.62728e-08
1.10281e-07
1.42971e-07
8.08075e-08
6.29169e-08
2.79826e-08
5.08615e-08
3.81461e-08
4.0346e-08
4.061e-08
4.43938e-08
5.16975e-08
6.77759e-08
1.24227e-08
5.39721e-08
8.43438e-09
2.82334e-08
1.92447e-08
2.05514e-08
2.06702e-08
2.18581e-08
2.68871e-08
3.43488e-08
4.03399e-08
1.36793e-09
2.0915e-08
1.32113e-08
1.21314e-08
1.32833e-08
1.27074e-08
1.34993e-08
1.62352e-08
2.21727e-08
3.45715e-08
7.91961e-09
6.1047e-09
1.15164e-08
8.48058e-09
9.07455e-09
7.78762e-09
9.63553e-09
1.04275e-08
1.58392e-08
2.80465e-05
7.26541e-06
7.54592e-06
7.11065e-06
6.71271e-06
6.43607e-06
6.29033e-06
6.28505e-06
1.62478e-05
0.00037362
8.63122e-06
3.47719e-06
3.44084e-06
3.22526e-06
3.04948e-06
2.92e-06
2.85793e-06
2.87836e-06
3.48378e-05
0.00114406
2.3794e-06
1.32069e-06
1.25609e-06
1.18261e-06
1.12526e-06
1.08687e-06
1.08042e-06
1.11845e-06
0.00012174
0.00228966
8.81245e-07
5.54937e-07
5.10548e-07
4.85823e-07
4.6257e-07
4.48306e-07
4.46066e-07
4.65699e-07
0.000113105
0.00210562
3.50723e-07
2.54001e-07
2.10826e-07
2.09459e-07
1.98731e-07
1.92e-07
1.90159e-07
2.01518e-07
4.51303e-05
0.00156995
1.28517e-07
1.27047e-07
8.68297e-08
9.62167e-08
8.86703e-08
8.56793e-08
8.48511e-08
8.95906e-08
1.075e-05
0.000987026
5.07555e-08
7.26009e-08
3.01447e-08
4.86324e-08
4.04111e-08
4.00839e-08
3.97158e-08
4.21699e-08
4.81825e-08
0.000414896
1.18131e-08
5.2788e-08
1.1154e-08
2.58787e-08
2.0136e-08
2.0136e-08
2.08354e-08
2.0725e-08
2.5216e-08
0.000156092
5.16065e-08
2.34257e-09
2.04138e-08
1.37877e-08
1.23152e-08
1.26833e-08
1.32522e-08
1.2516e-08
1.57956e-08
2.07903e-08
2.08729e-08
1.35897e-08
4.6935e-09
1.14116e-08
7.51573e-09
8.58941e-09
8.28264e-09
9.60173e-09
9.69376e-09
1.51657e-08
2.71858e-05
6.41824e-06
6.7748e-06
6.39854e-06
6.04585e-06
5.80585e-06
5.67983e-06
5.66312e-06
2.07319e-05
0.000143107
8.42635e-06
3.17404e-06
3.16314e-06
2.96897e-06
2.80907e-06
2.69571e-06
2.63125e-06
2.62248e-06
3.76047e-06
0.000579078
2.43007e-06
1.24727e-06
1.202e-06
1.13061e-06
1.07103e-06
1.02914e-06
1.00793e-06
1.01381e-06
7.64409e-05
0.00133461
8.67916e-07
5.28779e-07
4.97894e-07
4.70346e-07
4.47075e-07
4.29908e-07
4.2158e-07
4.26485e-07
7.88546e-05
0.00142029
3.24505e-07
2.51528e-07
2.11293e-07
2.04938e-07
1.94574e-07
1.87632e-07
1.83183e-07
1.86409e-07
5.29764e-05
0.00127955
1.13161e-07
1.30127e-07
8.88476e-08
9.36814e-08
8.8377e-08
8.37571e-08
8.31582e-08
8.49977e-08
4.01354e-05
0.00101552
3.17773e-08
7.77969e-08
3.25104e-08
4.74918e-08
4.03814e-08
3.95068e-08
3.88224e-08
3.96209e-08
5.86032e-06
0.000666451
1.62445e-08
5.32829e-08
1.29015e-08
2.51186e-08
2.08751e-08
1.99854e-08
1.99169e-08
2.15253e-08
8.62375e-06
0.000499092
5.8195e-08
4.35546e-10
1.75774e-08
1.44664e-08
1.28486e-08
1.28486e-08
1.32842e-08
1.29731e-08
1.44041e-08
0.000305705
1.23581e-08
1.69396e-08
3.53622e-09
1.2776e-08
7.04393e-09
9.72461e-09
8.01354e-09
9.52498e-09
1.0352e-08
0.000402802
2.61612e-05
5.48804e-06
5.97577e-06
5.66469e-06
5.33871e-06
5.12455e-06
5.01124e-06
4.99207e-06
5.06015e-06
2.43507e-05
8.06416e-06
2.85184e-06
2.86882e-06
2.68916e-06
2.54468e-06
2.44061e-06
2.3816e-06
2.36195e-06
1.57532e-05
0.000222752
2.40679e-06
1.14907e-06
1.11688e-06
1.05462e-06
1.00193e-06
9.60323e-07
9.34904e-07
9.26251e-07
3.49915e-05
0.000718378
8.87733e-07
4.93825e-07
4.75904e-07
4.48226e-07
4.26248e-07
4.08804e-07
3.97324e-07
3.93984e-07
4.15568e-05
0.00084787
3.12831e-07
2.35693e-07
2.07015e-07
1.97062e-07
1.87427e-07
1.80383e-07
1.75111e-07
1.73929e-07
3.68857e-05
0.000863294
1.03696e-07
1.24272e-07
9.03504e-08
8.99925e-08
8.55784e-08
8.19993e-08
7.97326e-08
7.94145e-08
3.52101e-05
0.000779494
1.77695e-08
7.97105e-08
3.40758e-08
4.48924e-08
4.05446e-08
3.89539e-08
3.75046e-08
3.82116e-08
1.93369e-05
0.00059404
2.02697e-08
5.23969e-08
1.4507e-08
2.32239e-08
2.04879e-08
2.0297e-08
1.96608e-08
1.93426e-08
2.61556e-05
0.000524143
5.79001e-08
3.06567e-09
1.46921e-08
1.56175e-08
1.27833e-08
1.20602e-08
1.37087e-08
1.21181e-08
9.55302e-06
0.000446901
5.89461e-09
2.06258e-08
2.25346e-09
1.20891e-08
7.39664e-09
9.04034e-09
8.245e-09
9.49103e-09
2.60748e-05
0.000523502
2.53423e-05
4.37764e-06
5.1489e-06
4.96716e-06
4.657e-06
4.44586e-06
4.33542e-06
4.3074e-06
4.35356e-06
2.09376e-06
7.53436e-06
2.4742e-06
2.54101e-06
2.38918e-06
2.25883e-06
2.16862e-06
2.11191e-06
2.09036e-06
1.0596e-05
7.12448e-05
2.32109e-06
1.04332e-06
1.01611e-06
9.58732e-07
9.11974e-07
8.76247e-07
8.51611e-07
8.37622e-07
1.34421e-05
0.00037808
8.89079e-07
4.53089e-07
4.39829e-07
4.18313e-07
3.97438e-07
3.81246e-07
3.69736e-07
3.63205e-07
1.64365e-05
0.000490316
3.21277e-07
2.13954e-07
1.9642e-07
1.86618e-07
1.77492e-07
1.70183e-07
1.65409e-07
1.62409e-07
1.75524e-05
0.00054268
1.0356e-07
1.12644e-07
8.86879e-08
8.63219e-08
8.18487e-08
7.84846e-08
7.62295e-08
7.49356e-08
2.0211e-05
0.00053649
9.53562e-09
7.53176e-08
3.58514e-08
4.15364e-08
3.9039e-08
3.75602e-08
3.65415e-08
3.57857e-08
1.59423e-05
0.000441558
2.42603e-08
5.01887e-08
1.62367e-08
2.17376e-08
2.06729e-08
1.91646e-08
1.90759e-08
1.91646e-08
2.56671e-05
0.000433121
5.28291e-08
7.60883e-09
1.15611e-08
1.48144e-08
1.16149e-08
1.20182e-08
1.23408e-08
1.23677e-08
1.94547e-05
0.000409089
1.54036e-09
2.31178e-08
9.36541e-10
1.16082e-08
7.66485e-09
7.61556e-09
7.66485e-09
8.13312e-09
3.31537e-05
0.000468944
2.58387e-05
2.85916e-06
4.15708e-06
4.27977e-06
4.03139e-06
3.81451e-06
3.69342e-06
3.65399e-06
3.68483e-06
3.93639e-06
7.03303e-06
2.07978e-06
2.20398e-06
2.08081e-06
1.96448e-06
1.88182e-06
1.83199e-06
1.80711e-06
3.01474e-06
1.46018e-05
2.16092e-06
9.35921e-07
9.13129e-07
8.58361e-07
8.15855e-07
7.82065e-07
7.58915e-07
7.44536e-07
4.83211e-06
0.000180748
8.50199e-07
4.06864e-07
3.98662e-07
3.78614e-07
3.60766e-07
3.47386e-07
3.35953e-07
3.27636e-07
5.27501e-06
0.000266946
3.29436e-07
1.91279e-07
1.81303e-07
1.72976e-07
1.63903e-07
1.5754e-07
1.52906e-07
1.49174e-07
5.80521e-06
0.000321753
1.12609e-07
9.80846e-08
8.45782e-08
8.07634e-08
7.633e-08
7.35119e-08
7.12093e-08
7.01095e-08
8.01201e-06
0.000350041
7.69138e-09
6.73907e-08
3.64142e-08
3.88886e-08
3.69641e-08
3.54366e-08
3.44285e-08
3.37564e-08
8.85983e-06
0.000302743
2.57906e-08
4.51725e-08
1.7926e-08
1.98231e-08
1.89983e-08
1.90258e-08
1.77886e-08
1.77611e-08
1.91602e-05
0.000325793
4.34881e-08
1.28722e-08
9.5479e-09
1.44968e-08
1.17724e-08
1.09226e-08
1.23223e-08
1.10726e-08
1.82241e-05
0.000311985
1.03815e-08
2.79293e-08
3.89497e-10
1.12496e-08
7.37754e-09
7.95033e-09
7.62957e-09
7.92742e-09
3.05509e-05
0.000366818
3.01331e-05
6.36704e-07
2.71576e-06
3.4297e-06
3.40141e-06
3.23485e-06
3.10537e-06
3.0379e-06
3.03138e-06
3.19282e-06
6.52116e-06
1.6503e-06
1.86002e-06
1.78267e-06
1.68209e-06
1.60819e-06
1.561e-06
1.53691e-06
1.53027e-06
5.04864e-07
1.92248e-06
7.98627e-07
7.91752e-07
7.46333e-07
7.1078e-07
6.81054e-07
6.59968e-07
6.46626e-07
1.5261e-06
7.97048e-05
7.95426e-07
3.65115e-07
3.5602e-07
3.37596e-07
3.21025e-07
3.07607e-07
2.98277e-07
2.9144e-07
1.55978e-06
0.000135609
3.22358e-07
1.69604e-07
1.62923e-07
1.54963e-07
1.49047e-07
1.42986e-07
1.37509e-07
1.34406e-07
1.0123e-06
0.00017693
1.24111e-07
8.41861e-08
7.70614e-08
7.34192e-08
7.01923e-08
6.75086e-08
6.51763e-08
1.22848e-05
1.45059e-06
0.000214849
1.18496e-08
5.73665e-08
3.58967e-08
3.57263e-08
3.43347e-08
3.28295e-08
3.15232e-08
3.1722e-08
3.57868e-06
0.000190143
2.16216e-08
3.67032e-08
1.96807e-08
1.87861e-08
1.70992e-08
1.72014e-08
1.70481e-08
1.01721e-05
1.24227e-05
0.000227348
3.06683e-08
1.79612e-08
7.04044e-09
1.32676e-08
1.13623e-08
1.02702e-08
1.05258e-08
1.11067e-08
1.36437e-05
0.000214265
2.29345e-08
3.1012e-08
6.60283e-10
9.07356e-09
7.39091e-09
6.79452e-09
7.22051e-09
4.82473e-06
2.44282e-05
0.000264537
4.38686e-05
1.90711e-06
9.11764e-07
2.35858e-06
2.7025e-06
2.71185e-06
2.66933e-06
2.63922e-06
2.63223e-06
2.70678e-06
6.08915e-06
1.16161e-06
1.48927e-06
1.47677e-06
1.40703e-06
1.34783e-06
1.30747e-06
1.28528e-06
1.27376e-06
1.20203e-06
1.73922e-06
6.7305e-07
6.7621e-07
6.36458e-07
6.0488e-07
5.80668e-07
5.61826e-07
5.4852e-07
5.18937e-08
3.1613e-05
6.9907e-07
3.12257e-07
3.07961e-07
2.91922e-07
2.78893e-07
2.67567e-07
2.58043e-07
2.50638e-07
4.29953e-07
6.42516e-05
2.99464e-07
1.50101e-07
1.43991e-07
1.37236e-07
1.30583e-07
1.24914e-07
1.2169e-07
1.18159e-07
4.07363e-07
9.10238e-05
1.30221e-07
7.18172e-08
6.80452e-08
6.58176e-08
6.27584e-08
6.04417e-08
5.8125e-08
1.76037e-05
1.33293e-06
0.000125595
2.1083e-08
4.76537e-08
3.37404e-08
3.17868e-08
3.09947e-08
3.00971e-08
2.86714e-08
2.79058e-08
8.26139e-07
0.000108982
1.11503e-08
2.72537e-08
1.9175e-08
1.73692e-08
1.62762e-08
1.59198e-08
1.51832e-08
1.90076e-05
7.39925e-06
0.000150142
1.77682e-08
2.20112e-08
5.16259e-09
1.22044e-08
1.00228e-08
1.01092e-08
9.91476e-09
9.48275e-09
8.82997e-06
0.000136416
3.63315e-08
3.35226e-08
3.36612e-10
7.74208e-09
7.10846e-09
6.45503e-09
6.55404e-09
1.01646e-05
1.79323e-05
0.000180355
6.40836e-05
4.65083e-06
1.25693e-06
7.78506e-07
1.38498e-06
1.50521e-06
1.55591e-06
1.66586e-06
1.87246e-06
2.26346e-06
5.91659e-06
6.37984e-07
1.10392e-06
1.15834e-06
1.10978e-06
1.0646e-06
1.03782e-06
1.02473e-06
1.01689e-06
9.32643e-07
1.49618e-06
5.33558e-07
5.57459e-07
5.2565e-07
4.98746e-07
4.78071e-07
4.62984e-07
4.53221e-07
4.4496e-07
1.07813e-05
6.1997e-07
2.61423e-07
2.59711e-07
2.46568e-07
2.34897e-07
2.24994e-07
2.17631e-07
2.11575e-07
1.87388e-08
2.73544e-05
2.58437e-07
1.29347e-07
1.23666e-07
1.17482e-07
1.11802e-07
1.08015e-07
1.03471e-07
1.00978e-07
5.65224e-07
4.39687e-05
1.25168e-07
6.22356e-08
5.94469e-08
5.72104e-08
5.4891e-08
5.1909e-08
5.10254e-08
1.68751e-05
2.25454e-06
7.13316e-05
2.90671e-08
3.80175e-08
3.04091e-08
2.81266e-08
2.70712e-08
2.62858e-08
2.55986e-08
2.45924e-08
2.0258e-07
5.66599e-05
6.4982e-09
1.68539e-08
1.74061e-08
1.63016e-08
1.39823e-08
1.39602e-08
9.18326e-07
2.11563e-05
4.07316e-06
9.62199e-05
3.44167e-09
2.45388e-08
3.8756e-09
1.07031e-08
9.25727e-09
8.65485e-09
8.4942e-09
8.73517e-09
4.88915e-06
7.99547e-05
4.76434e-08
3.22499e-08
1.988e-09
5.70631e-09
6.25853e-09
5.46701e-09
5.81675e-09
1.12144e-05
1.23909e-05
0.000117786
9.52623e-05
5.65749e-06
1.18256e-06
1.72491e-06
2.5048e-06
2.29417e-06
1.72871e-06
1.08187e-06
4.25581e-07
2.46224e-07
5.92348e-06
1.01364e-07
7.96411e-07
9.55324e-07
9.19542e-07
8.53369e-07
7.99235e-07
7.74901e-07
7.88043e-07
7.97344e-07
1.30867e-06
4.06792e-07
4.54925e-07
4.32378e-07
4.07202e-07
3.85969e-07
3.69952e-07
3.57816e-07
3.472e-07
3.34405e-06
5.33857e-07
2.11182e-07
2.14211e-07
2.02865e-07
1.93385e-07
1.8524e-07
1.7771e-07
1.72765e-07
1.67614e-07
8.92371e-06
2.18625e-07
1.06223e-07
1.03524e-07
9.7745e-08
9.39901e-08
8.95898e-08
8.64802e-08
8.38694e-08
3.71003e-07
1.97365e-05
1.10826e-07
5.24917e-08
5.00532e-08
4.76404e-08
4.59463e-08
4.48169e-08
1.21978e-06
1.43119e-05
2.35823e-06
3.9828e-05
3.17592e-08
3.08704e-08
2.67407e-08
2.39799e-08
2.30901e-08
2.22915e-08
2.16983e-08
2.09454e-08
2.45229e-07
2.53893e-05
2.78787e-08
7.65943e-09
1.49698e-08
1.38198e-08
1.23619e-08
1.17869e-08
1.6439e-05
2.02881e-05
1.99689e-06
6.09905e-05
1.02058e-08
2.76471e-08
3.15487e-09
8.75523e-09
8.10186e-09
7.61649e-09
7.61649e-09
7.29914e-09
2.07803e-06
4.1582e-05
5.38574e-08
2.79614e-08
4.58607e-09
5.03099e-09
5.57858e-09
5.08233e-09
4.89409e-09
1.015e-05
8.18648e-06
7.43582e-05
0.000103347
1.43695e-05
8.18347e-06
1.93505e-06
2.13369e-06
4.75099e-06
6.41522e-06
7.41174e-06
8.02229e-06
8.51955e-06
5.7684e-06
8.97361e-07
2.09868e-07
6.89927e-07
8.52405e-07
9.04711e-07
8.88962e-07
8.16397e-07
6.79595e-07
4.14698e-07
1.0835e-06
2.32799e-07
3.21758e-07
3.27542e-07
3.20841e-07
3.15458e-07
3.10533e-07
3.06199e-07
3.23438e-07
2.19015e-06
4.46244e-07
1.61436e-07
1.67322e-07
1.6002e-07
1.52479e-07
1.47293e-07
1.43523e-07
1.39037e-07
1.34805e-07
6.30258e-08
1.82153e-07
8.55493e-08
8.31767e-08
7.88406e-08
7.55136e-08
7.25138e-08
6.94594e-08
6.74141e-08
1.85143e-07
8.271e-06
9.22646e-08
4.26417e-08
4.07805e-08
3.94442e-08
3.79409e-08
3.60558e-08
8.90276e-06
1.17128e-05
2.16623e-06
2.21878e-05
2.79048e-08
2.44349e-08
2.24198e-08
1.9917e-08
1.9111e-08
1.84322e-08
1.82413e-08
1.74353e-08
1.66081e-08
8.04504e-06
2.97078e-06
1.85171e-09
1.03466e-08
1.26565e-08
1.07093e-08
1.57315e-05
2.42271e-05
1.84339e-05
7.49883e-07
3.89806e-05
2.63592e-08
2.95891e-08
2.68992e-09
6.97643e-09
7.04585e-09
6.28226e-09
6.00459e-09
6.66406e-09
2.89609e-07
1.694e-05
4.99869e-08
1.99011e-08
5.69511e-09
4.00885e-09
4.502e-09
4.1202e-09
1.96768e-06
8.32715e-06
5.23761e-06
4.57295e-05
0.000207524
2.60578e-05
2.60948e-05
2.63014e-05
2.69237e-05
2.64981e-05
2.47491e-05
2.20148e-05
1.87268e-05
1.51228e-05
1.31302e-05
1.30366e-06
3.76514e-07
1.23294e-07
1.11847e-07
6.2623e-08
7.06754e-08
2.66952e-07
4.79422e-07
6.45511e-07
5.88464e-05
6.69513e-06
9.41315e-06
7.13709e-06
5.84256e-06
4.87952e-06
3.69848e-06
1.46061e-06
1.78501e-06
4.01348e-06
3.65633e-07
1.19996e-07
1.31102e-07
1.24004e-07
1.15323e-07
1.08727e-07
1.03344e-07
9.94543e-08
9.58903e-08
8.15733e-08
1.4679e-07
6.58649e-08
6.42677e-08
6.17578e-08
5.84113e-08
5.60282e-08
5.3493e-08
5.17691e-08
1.16164e-07
3.56277e-06
9.77491e-06
3.34965e-08
3.25648e-08
3.06127e-08
2.9925e-08
7.38711e-06
1.19338e-05
9.61468e-06
1.92368e-06
1.25943e-05
1.96716e-08
1.86338e-08
1.86535e-08
1.61296e-08
1.51042e-08
1.48873e-08
1.39606e-08
1.34676e-08
1.35268e-08
1.23975e-08
5.0228e-05
4.56741e-05
4.10992e-05
3.65119e-05
3.47321e-05
3.23322e-05
2.75786e-05
1.65838e-05
4.43663e-09
2.57322e-05
4.58176e-08
3.07498e-08
3.5493e-09
4.88835e-09
5.88861e-09
5.56595e-09
5.17875e-09
4.87222e-09
5.01742e-09
2.04219e-06
3.4506e-08
1.07218e-08
5.75282e-09
3.97817e-09
3.56409e-09
3.26831e-09
5.08726e-06
6.3822e-06
3.25931e-06
2.74789e-05
0.000642447
8.22084e-05
0.000100719
0.000102745
9.37312e-05
7.95345e-05
6.39991e-05
4.89708e-05
3.49054e-05
2.13694e-05
6.63095e-06
4.45403e-06
1.55918e-06
2.35691e-07
5.98044e-08
2.5221e-08
8.70258e-09
1.18062e-07
5.58017e-07
1.391e-06
0.000201059
0.000127602
6.97016e-05
3.98526e-05
2.24836e-05
1.2669e-05
6.54282e-06
1.59738e-06
3.76129e-06
7.07913e-06
3.01914e-07
7.22465e-08
9.11502e-08
9.32674e-08
8.97204e-08
8.5596e-08
8.05229e-08
7.63572e-08
6.97581e-08
5.89957e-08
1.13258e-07
4.82442e-08
4.78907e-08
4.57931e-08
4.36013e-08
4.12916e-08
3.97125e-08
1.71365e-07
1.52675e-07
2.10621e-06
3.93796e-05
3.00223e-05
1.96706e-05
1.5743e-05
1.50387e-05
1.43075e-05
1.23486e-05
7.94698e-06
1.71255e-06
7.40319e-06
1.1595e-08
1.241e-08
1.42064e-08
1.31066e-08
1.15118e-08
1.14018e-08
1.08702e-08
1.03753e-08
1.00453e-08
8.72527e-09
0.000219174
4.34917e-05
7.99327e-05
7.01317e-05
5.46506e-05
4.07514e-05
2.86849e-05
1.51831e-05
4.7309e-07
1.80531e-05
6.70843e-08
2.86761e-08
4.4544e-09
3.7345e-09
3.82448e-09
3.92947e-09
3.97446e-09
3.97446e-09
3.79449e-09
4.06742e-09
1.00201e-08
2.17221e-09
4.97683e-09
2.90086e-09
2.65339e-09
3.18957e-09
5.26863e-06
4.37844e-06
1.91026e-06
1.57257e-05
0.00216475
0.000358729
0.000332427
0.000257697
0.000190101
0.000135962
9.36356e-05
5.98996e-05
3.12311e-05
4.23973e-06
6.50843e-05
4.62339e-06
5.31516e-06
5.73509e-06
5.24122e-06
4.07463e-06
2.41794e-06
2.41921e-07
2.71757e-06
6.65139e-06
0.000341729
0.000241225
0.000117209
6.11195e-05
3.08183e-05
1.50509e-05
6.26281e-06
1.5113e-07
6.44802e-06
1.0891e-05
2.20321e-07
2.98686e-08
5.50467e-08
6.34693e-08
6.64216e-08
6.73418e-08
6.84026e-08
6.96168e-08
6.73418e-08
4.32523e-08
1.83563e-05
3.30839e-08
3.27114e-08
2.0948e-07
1.59662e-06
2.41694e-06
2.46909e-06
1.63266e-06
2.33822e-07
1.84852e-06
3.98255e-05
4.50313e-05
3.52088e-05
2.63152e-05
1.99981e-05
1.51539e-05
1.09247e-05
6.34001e-06
1.4918e-06
4.40849e-06
4.11441e-09
7.7707e-09
9.79858e-09
9.54297e-09
8.67388e-09
7.99224e-09
7.73662e-09
7.51509e-09
7.07202e-09
6.82823e-09
0.000486682
1.65098e-05
8.40173e-05
8.30505e-05
6.35254e-05
4.44282e-05
2.87603e-05
1.43095e-05
8.35034e-07
1.37436e-05
8.38533e-08
2.42184e-08
5.43763e-09
2.71882e-09
3.0395e-09
2.96978e-09
3.0395e-09
3.0395e-09
2.80247e-09
2.59199e-09
1.55429e-08
2.69674e-09
2.87567e-09
2.47947e-09
2.23663e-09
3.63485e-08
2.9122e-06
2.1795e-06
9.13646e-07
7.57783e-06
0.00874764
0.000371983
0.000330561
0.000241968
0.000167646
0.000111423
6.88286e-05
3.47642e-05
4.51503e-06
2.57752e-05
5.33317e-05
3.99923e-05
2.96826e-05
2.11094e-05
1.39921e-05
7.90666e-06
2.30929e-06
3.45784e-06
1.01944e-05
1.80195e-05
0.000489064
0.000364511
0.000158725
7.44716e-05
3.26099e-05
1.26922e-05
2.67022e-06
3.88732e-06
1.16519e-05
1.77141e-05
2.39069e-07
1.604e-09
1.45072e-08
2.3549e-08
2.84323e-08
3.1973e-08
3.57275e-08
4.24168e-08
5.34546e-08
8.54755e-08
5.8943e-05
3.53663e-05
2.04356e-05
1.31787e-05
8.94021e-06
6.1591e-06
4.03119e-06
2.09664e-06
2.75561e-07
1.63441e-06
2.92329e-05
3.71534e-05
3.07072e-05
2.28646e-05
1.65958e-05
1.17783e-05
7.92422e-06
4.42286e-06
1.15826e-06
2.40923e-06
1.38246e-09
3.58028e-09
5.75062e-09
6.71698e-09
5.76646e-09
5.44962e-09
5.30705e-09
5.00605e-09
4.62584e-09
4.19069e-09
0.000834334
0.000119406
6.16298e-05
7.95936e-05
6.31569e-05
4.36503e-05
2.73239e-05
1.33446e-05
1.1264e-06
1.09795e-05
8.87926e-08
1.6876e-08
4.57544e-09
2.68305e-09
2.16458e-09
1.9572e-09
2.02201e-09
1.84054e-09
1.9572e-09
2.02729e-09
3.27029e-08
4.57436e-09
1.4733e-09
1.41389e-09
1.30696e-09
1.46142e-09
9.8616e-10
2.60762e-07
2.45293e-07
2.14929e-06
0.0093205
0.000193173
0.000158668
0.000114686
7.75069e-05
4.75783e-05
2.27359e-05
3.40541e-07
2.2371e-05
4.7583e-05
7.33209e-05
4.42789e-05
3.09253e-05
1.98514e-05
1.12395e-05
4.24088e-06
2.03939e-06
8.43894e-06
1.57406e-05
2.3292e-05
0.000555364
0.000460169
0.000178674
7.51914e-05
2.8269e-05
8.40928e-06
6.3224e-08
4.52169e-06
1.0583e-05
1.69951e-05
1.27177e-07
1.43259e-08
1.31551e-08
5.34598e-09
5.93139e-09
1.83575e-08
3.46936e-08
5.20239e-08
7.28666e-08
1.16281e-07
5.05888e-05
3.42708e-05
1.93668e-05
1.20503e-05
7.73574e-06
4.98842e-06
3.06342e-06
1.53618e-06
2.28413e-07
1.04801e-06
1.6537e-05
1.99974e-05
1.69668e-05
1.26788e-05
9.08498e-06
6.29947e-06
4.12367e-06
2.28655e-06
6.74555e-07
1.00369e-06
1.17425e-09
1.75254e-09
2.62145e-09
3.34308e-09
3.79962e-09
3.43144e-09
2.90126e-09
2.75399e-09
2.72454e-09
2.48017e-09
0.00106775
0.000215523
2.05445e-05
5.77036e-05
4.97663e-05
3.4943e-05
2.1735e-05
1.06694e-05
1.18161e-06
7.88174e-06
7.68128e-08
8.97691e-09
4.12094e-09
1.51824e-09
1.16881e-09
1.3857e-09
8.07319e-10
1.09651e-09
1.30135e-09
8.49228e-10
1.26924e-06
7.89261e-07
2.20908e-11
7.40043e-10
8.17361e-10
4.95652e-07
8.04614e-07
3.81034e-07
2.01049e-07
1.24732e-06
0.00369398
0.000846927
0.000617623
0.000420917
0.00028707
0.000190178
0.00011585
5.67357e-05
2.87338e-06
5.46053e-05
2.07709e-05
1.14726e-05
7.86972e-06
4.4109e-06
1.20639e-06
1.8689e-06
5.0259e-06
8.49162e-06
1.24343e-05
1.5617e-05
0.000287227
0.00037267
0.000124896
4.6012e-05
1.30213e-05
3.5779e-07
4.39799e-06
6.9892e-06
1.0876e-05
1.55644e-05
9.41745e-08
2.17891e-08
3.16466e-08
4.2839e-08
5.27375e-08
6.30263e-08
7.20315e-08
8.04309e-08
8.98776e-08
1.05254e-07
2.06522e-05
1.52872e-05
8.38185e-06
5.06004e-06
3.14352e-06
1.96317e-06
1.17374e-06
5.85411e-07
9.67969e-08
3.88293e-07
6.2278e-06
5.83838e-06
4.94976e-06
3.69631e-06
2.63102e-06
1.80238e-06
1.16514e-06
6.49485e-07
2.15987e-07
2.32809e-07
1.82407e-09
1.506e-10
1.28695e-09
1.56077e-09
1.75244e-09
1.6703e-09
1.43755e-09
1.83459e-09
1.15004e-09
1.11528e-09
0.000713952
0.00017824
8.1736e-06
2.39365e-05
2.35922e-05
1.71036e-05
1.07143e-05
5.33069e-06
7.27581e-07
3.63313e-06
5.64118e-08
1.62424e-09
1.2994e-09
7.16908e-10
5.26479e-10
9.18538e-10
7.05706e-10
6.60899e-10
2.12832e-10
6.95259e-10
9.1254e-05
0.000129192
8.54031e-05
5.05402e-05
2.88924e-05
1.62704e-05
8.70953e-06
3.49659e-06
8.30852e-07
5.54498e-06
0.000685397
0.000667783
0.000495565
0.000372343
0.000279734
0.000208278
0.000151935
0.000106827
6.96351e-05
4.04307e-05
3.28127e-06
5.59515e-06
3.42411e-06
1.59175e-06
1.19746e-07
1.13414e-06
2.30242e-06
3.4893e-06
4.7374e-06
5.42722e-06
9.73918e-05
8.42846e-05
2.01924e-05
5.9178e-06
6.29867e-07
8.46661e-07
1.05902e-06
1.05418e-06
1.43004e-06
2.69311e-06
6.91898e-09
2.85416e-09
5.50786e-09
9.39296e-09
1.21708e-08
1.50249e-08
1.77645e-08
2.02464e-08
2.43415e-08
3.23408e-08
1.70473e-06
1.79006e-06
9.41505e-07
5.52057e-07
3.33155e-07
2.02341e-07
1.1931e-07
6.13651e-08
1.42203e-08
3.91428e-08
7.90379e-07
4.53339e-07
3.70335e-07
2.72381e-07
1.91324e-07
1.27965e-07
8.1272e-08
4.55473e-08
1.72968e-08
1.50488e-08
1.22826e-09
3.43645e-10
0
5.72741e-10
7.63655e-11
6.49107e-10
5.09103e-10
1.40003e-10
7.12745e-10
3.30917e-10
5.29772e-05
2.82555e-05
2.45453e-06
2.70838e-06
2.99341e-06
2.23131e-06
1.41072e-06
7.10703e-07
1.1141e-07
4.72305e-07
2.00993e-08
4.16539e-10
1.56202e-10
1.66616e-10
1.24962e-10
2.81164e-10
8.33078e-11
2.0827e-11
4.26953e-10
1.04135e-10
0.000264519
0.000160043
9.49194e-05
5.42146e-05
3.05192e-05
1.69654e-05
8.92047e-06
3.59048e-06
7.64066e-07
5.35014e-06
0.526007
0.418964
0.530149
0.919617
0.68612
0.623861
0.739196
1.11566
0.84957
0.791481
0.937833
1.44122
0.616641
0.593184
0.702751
1.09974
0.4505
0.449064
0.533221
0.863284
0.298414
0.294926
0.365824
0.622512
0.198639
0.189616
0.25327
0.455011
0.128209
0.118234
0.16941
0.315548
0.0885363
0.0808798
0.122105
0.230981
0.0666979
0.061566
0.0993573
0.188056
0.0358329
0.00179548
1.65223e-05
0.0190167
0.0785125
0.00652051
1.23001e-05
0.0409458
0.136614
0.0152014
6.62437e-06
0.0704181
0.124981
0.0170204
3.4066e-06
0.0603777
0.110288
0.01699
1.75276e-06
0.048918
0.0853362
0.0142368
9.01961e-07
0.0375743
0.0644177
0.0110626
4.75233e-07
0.0305244
0.0464405
0.00833731
2.73165e-07
0.0231949
0.0357255
0.00714241
0.00104052
0.0184319
0.0301018
0.00824475
0.00382108
0.0155015
0.0171083
0.0134516
0.0141295
0.0196826
0.0387154
0.0266644
0.0261758
0.0408104
0.074943
0.048687
0.049256
0.079668
0.0710514
0.0430724
0.0446855
0.0749946
0.0650963
0.0370615
0.039567
0.0699571
0.0519878
0.0280393
0.0306785
0.0566915
0.0404139
0.020655
0.0232331
0.0452032
0.0299341
0.014539
0.0166896
0.0336763
0.0234825
0.010455
0.0123938
0.025987
0.0200758
0.0085053
0.0105698
0.0215281
0.00192335
0.00138991
0.0013386
0.00195056
0.00609431
0.00417412
0.0038631
0.006315
0.0162348
0.0110083
0.0104769
0.016594
0.0190437
0.0125546
0.0123942
0.0189692
0.0207148
0.013169
0.0136026
0.0207294
0.0189495
0.0116301
0.0124462
0.0190386
0.0164223
0.00967215
0.0106895
0.0167375
0.0133862
0.00760403
0.00860516
0.0136691
0.011189
0.00583622
0.00691444
0.0112361
0.00994074
0.00508188
0.0064817
0.0100758
0.000610342
0.000570522
0.000600348
0.000818104
0.00226712
0.00210381
0.00236511
0.00340762
0.0060921
0.00574207
0.006403
0.00889215
0.00729279
0.00654782
0.00705821
0.00959967
0.00837952
0.00713419
0.00763214
0.0103483
0.00813583
0.00655908
0.00704048
0.00951442
0.00745555
0.00568259
0.00617906
0.00841262
0.00648691
0.00469304
0.00517434
0.00704987
0.00583528
0.00387403
0.00445898
0.00604635
0.00558727
0.00369075
0.00456179
0.00582677
0.000111781
0.00010477
0.000104672
0.000164003
0.000766278
0.000721783
0.000845808
0.00123457
0.00245417
0.0024884
0.00298601
0.00410871
0.00301921
0.00305287
0.00354268
0.00471734
0.00358389
0.00355004
0.00403781
0.00531273
0.00361434
0.00344899
0.00386837
0.0050356
0.00342473
0.00313029
0.00349273
0.004519
0.00315375
0.00273748
0.00304625
0.00389826
0.00305461
0.00244038
0.0027936
0.00347071
0.00302871
0.00238191
0.00289298
0.00336881
9.51038e-06
9.66202e-06
5.07616e-06
2.38765e-05
0.000270584
0.000251497
0.00030093
0.000459795
0.00117324
0.00119787
0.0014802
0.00206819
0.00149173
0.00157096
0.00189601
0.00252744
0.00179906
0.0019134
0.00227565
0.00297664
0.00184287
0.00193171
0.00226038
0.0029152
0.00174883
0.00179572
0.0020786
0.00264662
0.00166983
0.00164272
0.00187399
0.00235163
0.00169598
0.0015557
0.00178895
0.00213902
0.00169428
0.00153259
0.00182982
0.00205686
1.39165e-05
5.00022e-06
4.83936e-06
4.96986e-06
7.48098e-05
6.3092e-05
7.53321e-05
0.000129222
0.000536101
0.000529016
0.000659667
0.000947071
0.000755188
0.000795447
0.000972227
0.00130429
0.000954739
0.00103524
0.00125498
0.00164668
0.00102083
0.00110784
0.00132605
0.00171296
0.000971386
0.00105442
0.00125081
0.0015857
0.000959551
0.00101067
0.00117668
0.0014688
0.000961899
0.000966176
0.00111387
0.00131137
0.000976164
0.000979394
0.00115431
0.00128497
1.10305e-05
3.90907e-06
3.78879e-06
3.95528e-06
1.15267e-05
5.96866e-06
5.81324e-06
1.99375e-05
0.000232542
0.000210033
0.000261821
0.000400808
0.000376863
0.000390867
0.000479381
0.000649233
0.000503476
0.00054816
0.000670036
0.000883504
0.000577609
0.000635112
0.000767699
0.000995739
0.000554183
0.000618835
0.000742767
0.000939255
0.000574652
0.000627567
0.000738745
0.000921656
0.000548154
0.000583985
0.000672935
0.00078931
0.000579532
0.000624145
0.000727979
0.000809929
8.71059e-06
2.66764e-06
2.57213e-06
2.65838e-06
2.69934e-06
1.07227e-06
1.04092e-06
1.1465e-06
8.75211e-05
6.04587e-05
7.35791e-05
0.000138236
0.000181497
0.000181882
0.000222555
0.000305759
0.00025618
0.000276681
0.000339735
0.00045177
0.000321504
0.000353881
0.000429881
0.000561569
0.000307233
0.00034914
0.000421543
0.000531429
0.000343653
0.000382293
0.000452693
0.000566702
0.000313655
0.000346279
0.000398807
0.000468332
0.000350053
0.000393714
0.000455714
0.000507934
1.00651e-05
3.85438e-06
3.69377e-06
3.79926e-06
2.12983e-06
7.27862e-07
7.05597e-07
7.80944e-07
2.2097e-05
3.35663e-07
3.24714e-07
2.16908e-05
8.31837e-05
7.85132e-05
9.50956e-05
0.0001333
0.000125157
0.000132396
0.000163063
0.000220069
0.000176879
0.000192987
0.000235217
0.000310965
0.000163253
0.000187859
0.000227766
0.000285683
0.000204639
0.000228867
0.000272231
0.000343533
0.000177297
0.000199564
0.000229808
0.000270387
0.000212106
0.000244346
0.000281772
0.000314366
7.82328e-06
2.64679e-06
2.10365e-06
1.70313e-06
1.67434e-06
6.18205e-07
6.17872e-07
6.75731e-07
6.32621e-07
2.26665e-07
2.20588e-07
2.49274e-07
3.47512e-05
2.94628e-05
3.46803e-05
4.97635e-05
5.73628e-05
5.8346e-05
7.19921e-05
9.96743e-05
9.62033e-05
0.00010313
0.000125999
0.000169587
8.11952e-05
9.47344e-05
0.000115281
0.000142944
0.000121879
0.000135533
0.00016191
0.000207168
9.56314e-05
0.000108669
0.000125102
0.000147206
0.000127278
0.000148355
0.000171188
0.000190687
3.86457e-05
9.50248e-06
7.88831e-06
7.0678e-06
1.28517e-06
4.48789e-07
4.61912e-07
5.42305e-07
5.46633e-07
2.05161e-07
1.93439e-07