/*--------------------------------*- C++ -*----------------------------------*\
| =========                 |                                                 |
| \\      /  F ield         | foam-extend: Open Source CFD                    |
|  \\    /   O peration     | Version:     4.0                                |
|   \\  /    A nd           | Web:         http://www.foam-extend.org         |
|    \\/     M anipulation  |                                                 |
\*---------------------------------------------------------------------------*/
FoamFile
{
    version     2.0;
    format      ascii;
    class       volScalarField;
    location    "800";
    object      divFlux;
}
// * * * * * * * * * * * * * * * * * * * * * * * * * * * * * * * * * * * * * //

dimensions      [1 -3 -1 0 0 0 0];

internalField   nonuniform List<scalar> 
34480
(
0.000589674
0.000470616
3.86846e-05
4.58557e-05
6.78759e-05
6.48282e-05
5.89418e-05
0.0408377
1.85329
5.17871e-05
6.81946e-05
3.61731e-05
2.94658e-05
2.87605e-05
2.7954e-05
2.65877e-05
2.60968e-05
2.60454e-05
1.09882
2.52321e-05
1.59592e-05
1.40638e-05
9.75896e-06
1.04018e-05
9.62091e-06
9.74338e-06
1.00804e-05
1.03942e-05
0.431836
1.01352e-05
6.58897e-06
4.57624e-06
4.00121e-06
3.84508e-06
3.6859e-06
3.76967e-06
3.96478e-06
4.07234e-06
0.0704023
3.98143e-06
2.34871e-06
1.88232e-06
1.54588e-06
1.55013e-06
1.49901e-06
1.50981e-06
1.61179e-06
1.63863e-06
1.64498e-06
1.61585e-06
1.08941e-06
7.08882e-07
7.03842e-07
6.60657e-07
6.34254e-07
6.47255e-07
7.05789e-07
6.795e-07
6.84884e-07
6.90554e-07
3.89782e-07
3.76329e-07
2.95993e-07
3.076e-07
2.87694e-07
2.94313e-07
3.11419e-07
2.88356e-07
3.17935e-07
3.07193e-07
2.19978e-07
1.66507e-07
1.57664e-07
1.52487e-07
1.29394e-07
1.46576e-07
1.49738e-07
1.34846e-07
1.52028e-07
1.40986e-07
1.93889e-07
9.94279e-08
9.23884e-08
8.10169e-08
7.85593e-08
8.64735e-08
6.96037e-08
7.01452e-08
8.23498e-08
7.96839e-08
1.39835e-07
1.50058e-08
8.28184e-08
5.65868e-08
5.11649e-08
5.20049e-08
4.28792e-08
5.45632e-08
5.20431e-08
4.86067e-08
0.00193302
0.000795085
0.00014397
5.43087e-05
7.62513e-05
8.23004e-05
7.92815e-05
7.64456e-05
7.57476e-05
0.183163
8.41857e-05
5.61163e-05
4.31254e-05
3.9255e-05
4.00321e-05
3.93685e-05
3.89545e-05
3.9598e-05
4.09789e-05
0.293085
1.30384e-05
2.0908e-05
1.3603e-05
1.57054e-05
1.51921e-05
1.59056e-05
1.66784e-05
1.76127e-05
1.86323e-05
0.16309
8.48652e-06
7.46113e-06
6.79547e-06
6.74261e-06
6.64486e-06
7.05427e-06
7.38357e-06
7.84672e-06
8.30533e-06
0.0244553
2.75538e-06
3.72739e-06
3.09394e-06
3.07209e-06
3.02463e-06
3.21625e-06
3.33709e-06
3.55135e-06
3.7709e-06
3.83491e-06
2.82032e-06
1.27003e-06
1.64434e-06
1.43722e-06
1.446e-06
1.57219e-06
1.53215e-06
1.66276e-06
1.78644e-06
1.76076e-06
6.59419e-07
8.52662e-07
7.64869e-07
7.42956e-07
7.00834e-07
7.63402e-07
7.20475e-07
8.44427e-07
8.46368e-07
8.58785e-07
7.06127e-07
3.69855e-07
4.37751e-07
3.35225e-07
3.92728e-07
4.10235e-07
3.37099e-07
4.48315e-07
4.30297e-07
4.60141e-07
1.94129e-07
3.29958e-07
2.84149e-07
2.32686e-07
2.62503e-07
2.2378e-07
1.92182e-07
2.74159e-07
2.97973e-07
2.94149e-07
1.4425e-05
2.15042e-06
6.21749e-07
8.1002e-08
2.3509e-07
1.55686e-07
2.16881e-07
1.78403e-07
1.92531e-07
2.33839e-07
0.00279993
0.000935234
0.000214815
4.48095e-05
4.90148e-05
5.98195e-05
6.201e-05
6.16013e-05
0.0357867
0.181988
7.44241e-05
4.55426e-05
3.37039e-05
2.61743e-05
2.74259e-05
2.73204e-05
2.67765e-05
2.7321e-05
0.0246718
0.118176
6.4679e-06
1.39893e-05
6.4352e-06
9.11206e-06
8.77869e-06
9.04657e-06
9.42564e-06
1.02682e-05
0.0102749
0.0396967
3.24151e-06
2.49709e-06
2.68554e-06
3.20695e-06
3.2998e-06
3.49941e-06
3.74221e-06
4.13146e-06
4.68643e-06
5.97575e-06
6.17387e-07
1.3043e-06
1.04228e-06
1.29135e-06
1.42434e-06
1.43905e-06
1.55688e-06
1.72845e-06
1.95657e-06
2.53214e-06
7.50333e-07
2.15166e-07
4.79582e-07
5.39028e-07
6.05256e-07
5.80012e-07
7.07766e-07
7.66173e-07
8.31312e-07
1.10335e-06
1.2429e-07
1.94162e-07
1.09775e-07
2.29537e-07
2.69707e-07
2.61347e-07
3.37507e-07
3.14057e-07
3.86609e-07
5.08455e-07
1.51388e-08
1.33049e-08
5.06063e-08
1.35386e-07
1.0541e-07
1.23506e-07
1.90823e-07
1.50789e-07
1.98267e-07
2.29713e-07
6.626e-07
1.50761e-07
3.12825e-08
7.17805e-08
5.38174e-08
1.1487e-07
1.22934e-07
6.87926e-08
9.69072e-08
1.17629e-07
1.85993e-06
6.06312e-07
1.17111e-07
5.46123e-08
4.63297e-08
7.02535e-08
4.88706e-08
6.88346e-08
8.53338e-08
7.68945e-08
0.00390574
0.00101763
0.000313708
7.40131e-05
4.38115e-05
4.90719e-05
5.40614e-05
5.61946e-05
0.0016503
0.0992015
7.7118e-05
4.36866e-05
3.9069e-05
2.55838e-05
2.5133e-05
2.54859e-05
2.50243e-05
2.50592e-05
0.0264304
0.128108
1.50315e-05
2.12542e-05
9.99111e-06
1.12725e-05
9.94705e-06
9.47376e-06
9.23923e-06
9.47155e-06
0.0146408
0.0814786
8.316e-06
5.01302e-06
4.17997e-06
4.09488e-06
3.70921e-06
3.61405e-06
3.60853e-06
3.79716e-06
0.00260498
0.0102651
2.28215e-06
2.12004e-06
1.6154e-06
1.54636e-06
1.52979e-06
1.47794e-06
1.49298e-06
1.59894e-06
0.00660155
0.0585952
1.65775e-06
6.75173e-07
7.55975e-07
6.58424e-07
6.841e-07
6.1448e-07
6.55801e-07
7.22845e-07
0.00648453
0.0965875
4.77731e-07
4.62928e-07
2.9838e-07
2.86518e-07
3.13677e-07
2.73143e-07
3.24966e-07
3.17849e-07
3.66072e-07
0.0730334
3.88829e-07
2.00734e-07
1.40768e-07
1.64291e-07
1.57922e-07
1.21994e-07
1.78206e-07
1.55382e-07
1.93667e-07
0.0416008
2.726e-07
2.30609e-07
9.02557e-08
1.03675e-07
8.17221e-08
8.68757e-08
1.29778e-07
9.73169e-08
9.47066e-08
1.53016e-07
1.27446e-06
2.77959e-07
1.03502e-07
8.00042e-08
5.22727e-08
7.60469e-08
5.76104e-08
6.5893e-08
8.05257e-08
1.05684e-07
0.00491489
0.000975251
0.000381314
0.000119001
5.43781e-05
4.35133e-05
4.45042e-05
4.72587e-05
0.00529962
0.0497511
8.91775e-05
2.88278e-05
4.32253e-05
2.58561e-05
2.24044e-05
2.2741e-05
2.26406e-05
2.26157e-05
0.0238328
0.0757439
4.56992e-06
2.12334e-05
8.80601e-06
1.07255e-05
9.62558e-06
9.20623e-06
8.89506e-06
8.81621e-06
0.0110101
0.0407281
1.08623e-05
6.33585e-06
5.06244e-06
4.84756e-06
4.19453e-06
3.91634e-06
3.72438e-06
3.68414e-06
0.0029357
0.011924
3.90074e-06
2.94109e-06
2.28668e-06
2.00308e-06
1.82068e-06
1.6638e-06
1.57864e-06
1.57756e-06
0.0151507
0.0740193
2.42011e-06
1.12999e-06
1.09676e-06
8.98614e-07
8.26278e-07
7.19122e-07
6.95723e-07
7.08171e-07
0.0266688
0.129951
9.73723e-07
7.19488e-07
5.1644e-07
4.24955e-07
3.87007e-07
3.24268e-07
3.35637e-07
3.19857e-07
0.0100701
0.145715
6.78683e-07
3.68429e-07
2.72677e-07
2.27813e-07
2.00846e-07
1.51293e-07
1.77918e-07
1.5735e-07
0.0170443
0.163783
4.09895e-08
2.94709e-07
1.6445e-07
1.35362e-07
1.1542e-07
8.57715e-08
1.20802e-07
1.12962e-07
9.85268e-08
0.122069
8.99328e-07
7.43462e-08
1.10222e-07
9.84153e-08
6.09713e-08
7.48595e-08
6.09998e-08
6.97263e-08
8.13331e-08
0.172969
0.00531534
0.000782004
0.000358696
0.000143587
7.37358e-05
5.00497e-05
4.2018e-05
4.05881e-05
4.20679e-05
0.0132655
0.000136169
3.87369e-06
4.34863e-05
2.7423e-05
2.05858e-05
2.00085e-05
1.98699e-05
1.97702e-05
0.00997941
0.0299377
1.05163e-05
1.96609e-05
5.12917e-06
8.01863e-06
7.42321e-06
7.41614e-06
7.45464e-06
7.51445e-06
0.00428589
0.0119354
4.45727e-06
3.48787e-06
2.86147e-06
3.49411e-06
3.21719e-06
3.21759e-06
3.2001e-06
3.20113e-06
0.00882586
0.0251839
1.61473e-06
1.70448e-06
1.53932e-06
1.50083e-06
1.48537e-06
1.43993e-06
1.40611e-06
1.40911e-06
0.0219935
0.0735812
1.18811e-06
5.41864e-07
7.28132e-07
6.93614e-07
6.92421e-07
6.41321e-07
6.3464e-07
6.40048e-07
0.0391353
0.127842
2.69469e-07
3.76566e-07
3.37718e-07
3.409e-07
3.30861e-07
2.95159e-07
3.05092e-07
2.92826e-07
0.032282
0.15578
2.31743e-07
1.65239e-07
1.80096e-07
1.8226e-07
1.70807e-07
1.40552e-07
1.59163e-07
1.42747e-07
0.0506497
0.196663
1.10981e-07
1.46284e-07
1.1262e-07
1.03741e-07
1.03683e-07
7.73647e-08
9.81013e-08
1.05014e-07
0.0206146
0.195947
4.64185e-07
6.12675e-08
5.99155e-08
7.44967e-08
5.10077e-08
6.10289e-08
5.25984e-08
6.38922e-08
0.0468389
0.24211
0.00460137
0.000545331
0.000245418
0.000104564
6.73871e-05
5.35069e-05
4.46108e-05
3.92097e-05
3.73629e-05
0.00249358
0.000255382
5.76268e-05
3.56399e-05
2.83556e-05
1.95877e-05
1.80684e-05
1.77509e-05
1.7432e-05
0.00276243
0.00866735
1.42857e-05
2.58564e-05
6.03791e-06
8.70489e-06
7.5153e-06
7.05455e-06
6.91137e-06
6.78334e-06
0.000756839
0.00215667
5.30446e-06
3.95117e-06
2.46599e-06
3.26037e-06
2.8601e-06
2.83156e-06
2.84142e-06
2.82239e-06
0.0117257
0.0283731
1.2614e-06
1.28448e-06
1.24718e-06
1.20974e-06
1.22305e-06
1.22571e-06
1.22352e-06
1.23095e-06
0.0235593
0.0636475
8.53899e-07
3.00482e-07
4.9527e-07
5.13421e-07
5.50464e-07
5.35418e-07
5.48468e-07
5.58449e-07
0.0426103
0.109284
7.45058e-08
1.48926e-07
1.63287e-07
2.2707e-07
2.49711e-07
2.42843e-07
2.60227e-07
2.54641e-07
0.0404704
0.135796
6.5647e-08
1.02329e-08
5.87063e-08
1.09989e-07
1.22647e-07
1.13716e-07
1.35838e-07
1.24097e-07
0.0639201
0.181985
2.05665e-07
1.87935e-08
4.20233e-08
6.04943e-08
7.81317e-08
6.53876e-08
8.19764e-08
9.25159e-08
0.04261
0.192202
2.34129e-07
5.7055e-08
2.26002e-08
5.34814e-08
4.45843e-08
5.20766e-08
4.87001e-08
5.9076e-08
0.0644858
0.228495
0.00317813
0.000516349
0.000187036
4.05111e-05
2.42575e-05
3.26857e-05
3.69629e-05
3.62006e-05
3.38548e-05
3.36126e-05
0.000480436
0.00013114
1.77664e-05
2.655e-05
1.76512e-05
1.56531e-05
1.56649e-05
1.55409e-05
0.000241609
0.00105849
3.62337e-05
3.02801e-05
4.28463e-06
8.18536e-06
7.20017e-06
6.55323e-06
6.40059e-06
6.21817e-06
0.00246422
0.00618983
8.07809e-06
5.93791e-06
2.93271e-06
3.85302e-06
3.16059e-06
2.909e-06
2.82372e-06
0.000509695
0.0107649
0.0241607
3.39996e-06
1.99437e-06
1.8276e-06
1.5712e-06
1.40671e-06
1.3201e-06
1.26181e-06
1.21749e-06
0.0198785
0.0485926
2.17508e-06
8.89188e-07
8.54237e-07
7.20376e-07
6.68687e-07
6.03217e-07
5.8215e-07
0.00125173
0.0381374
0.085047
8.22036e-07
5.30938e-07
3.75231e-07
3.44866e-07
3.16455e-07
2.84165e-07
2.80163e-07
2.58626e-07
0.0373743
0.106
5.39171e-07
2.48243e-07
1.90478e-07
1.8168e-07
1.63204e-07
1.40412e-07
1.48715e-07
1.27599e-07
0.0625174
0.149665
2.41722e-07
1.76511e-07
1.28472e-07
1.08601e-07
1.05452e-07
8.66309e-08
9.18548e-08
8.96052e-08
0.0450272
0.154353
3.75568e-07
8.8668e-08
8.6583e-08
8.84159e-08
7.1553e-08
6.67874e-08
5.93182e-08
6.04638e-08
0.0650275
0.18546
0.00328232
0.000808817
0.000342941
6.51775e-05
4.28903e-06
2.24238e-06
1.14384e-05
2.09863e-05
2.54584e-05
2.89173e-05
0.000843897
0.000221034
9.14957e-06
2.30417e-05
1.49764e-05
1.17788e-05
1.20797e-05
1.27066e-05
1.27494e-05
0.000626369
7.19608e-05
3.76189e-05
6.60581e-07
6.0432e-06
5.81091e-06
5.12557e-06
5.13801e-06
5.2035e-06
0.00232827
0.00566534
2.13754e-06
5.60667e-06
1.08991e-06
3.01634e-06
2.56573e-06
2.35197e-06
2.36126e-06
0.000964923
0.00806665
0.0173696
2.13196e-06
1.07645e-06
1.32894e-06
1.28268e-06
1.16047e-06
1.12618e-06
1.11223e-06
0.000203538
0.0143072
0.0330792
1.32179e-06
5.20452e-07
6.5499e-07
5.92497e-07
5.77066e-07
5.43392e-07
5.36459e-07
0.00621943
0.0300695
0.0604822
5.24533e-07
4.26046e-07
3.25001e-07
3.12875e-07
2.95608e-07
2.72747e-07
2.71497e-07
2.47074e-07
0.0282553
0.0740292
4.79564e-07
2.52066e-07
1.99005e-07
1.87171e-07
1.66161e-07
1.45305e-07
1.50212e-07
0.00959201
0.0530483
0.111866
2.30697e-07
1.69691e-07
1.35023e-07
1.16086e-07
1.0714e-07
9.12701e-08
9.65446e-08
8.63906e-08
0.0381243
0.110256
2.22071e-07
7.17578e-08
7.00539e-08
7.52722e-08
6.53893e-08
6.01709e-08
5.72955e-08
0.0079492
0.0564907
0.137041
0.00687433
0.0011992
0.000678973
0.000254842
7.07596e-05
1.10427e-05
8.98774e-07
7.51596e-07
1.98409e-06
4.29327e-06
0.00140499
0.000325187
4.57437e-05
2.06819e-05
1.61061e-05
9.81733e-06
8.39498e-06
8.9222e-06
9.76542e-06
0.000355618
0.00012574
5.5037e-05
9.90234e-07
4.96098e-06
5.66473e-06
4.50984e-06
4.20178e-06
4.31167e-06
0.0017044
0.00399912
1.45174e-06
8.25229e-06
1.28625e-07
2.54744e-06
2.2929e-06
1.945e-06
1.93209e-06
0.000668754
0.00517543
0.0111565
2.37751e-06
6.20226e-07
9.53931e-07
1.07172e-06
9.19749e-07
8.83565e-07
8.98907e-07
0.000616598
0.00924582
0.0207283
8.93565e-07
2.21362e-07
4.44061e-07
4.13528e-07
4.12102e-07
4.10053e-07
4.25913e-07
0.00744551
0.0221646
0.0404437
3.76581e-08
1.73296e-07
1.52598e-07
1.81084e-07
1.95156e-07
1.97849e-07
2.12871e-07
2.0004e-07
0.0183434
0.0467547
8.02278e-08
1.17616e-08
4.5312e-08
8.36145e-08
9.46158e-08
9.59939e-08
1.14076e-07
0.0142319
0.0417529
0.078215
1.446e-07
1.87711e-08
1.44509e-08
3.8363e-08
5.12371e-08
5.23603e-08
7.21034e-08
6.84313e-08
0.0278151
0.0724113
6.94139e-09
2.83942e-08
8.1777e-09
1.53456e-08
2.57607e-08
2.85526e-08
3.67105e-08
0.0121038
0.0445519
0.0946869
0.0129059
0.00111197
0.000790721
0.000433504
0.000222781
0.000120139
7.68255e-05
6.52031e-05
7.47691e-05
0.000106848
0.00224058
0.00044492
0.000104069
1.17844e-05
2.15494e-05
1.50779e-05
1.11807e-05
9.81467e-06
8.87616e-06
4.85567e-06
0.000229278
8.36754e-05
3.06438e-06
2.2001e-06
5.45785e-06
4.49278e-06
3.79833e-06
3.71432e-06
0.00121959
0.00253373
9.51953e-06
1.37654e-05
1.24444e-06
2.05663e-06
2.31923e-06
1.8376e-06
1.69978e-06
3.54068e-05
0.00269148
0.00641394
3.80799e-06
7.2619e-07
8.25937e-07
1.15421e-06
9.48625e-07
8.28777e-07
8.13693e-07
0.000357054
0.00539216
0.012135
1.67529e-06
3.99975e-07
5.87511e-07
5.07576e-07
4.36505e-07
4.02543e-07
4.00362e-07
0.00692796
0.0157151
0.0261297
4.76477e-07
3.55288e-07
2.62122e-07
2.31713e-07
2.10851e-07
1.97868e-07
2.0123e-07
1.87118e-07
0.00993501
0.0268369
3.35125e-07
1.64099e-07
1.19832e-07
1.16099e-07
1.05939e-07
9.6617e-08
0.00215685
0.014772
0.0316121
0.0527718
2.53925e-07
1.25124e-07
8.80947e-08
7.54237e-08
6.64877e-08
5.55035e-08
6.70901e-08
6.14273e-08
0.0173519
0.0435147
2.49807e-07
1.09524e-07
7.63909e-08
6.74081e-08
6.00267e-08
4.82275e-08
4.59266e-08
0.0119913
0.0326426
0.0620206
0.0143054
0.000182898
0.000142876
3.34937e-05
7.07351e-05
0.000145713
0.000202943
0.000257069
0.000321466
0.000412518
0.00342875
0.000546149
0.000186615
2.60442e-05
5.07781e-06
2.33969e-06
3.34291e-06
5.30444e-06
1.90367e-06
9.45127e-06
0.000411877
0.000136087
9.36175e-07
2.76485e-06
3.46064e-06
3.3738e-06
2.1524e-06
0.000293506
0.00103861
0.00159351
2.87876e-05
2.33703e-05
2.48717e-06
7.01703e-07
1.96638e-06
1.58297e-06
1.27647e-06
1.17089e-06
0.000778321
0.00308479
3.99474e-06
6.76822e-07
1.59466e-07
9.11299e-07
8.44561e-07
6.97328e-07
6.53882e-07
6.17923e-06
0.00279342
0.00658953
1.27143e-06
6.81751e-08
4.02171e-07
4.30945e-07
3.69573e-07
3.37667e-07
0.00147434
0.00578225
0.0108602
0.0164848
2.19898e-07
2.53033e-07
2.21615e-07
2.05438e-07
1.852e-07
1.71875e-07
1.71236e-07
1.60649e-07
0.00356826
0.0134133
3.15571e-07
1.86763e-07
1.44502e-07
1.32818e-07
1.14932e-07
9.85869e-08
0.00563449
0.0135329
0.023523
0.0350486
1.77411e-07
1.22219e-07
1.04111e-07
9.69049e-08
8.2904e-08
6.57669e-08
6.58042e-08
5.30354e-08
0.00840444
0.0230793
5.69077e-08
5.16789e-08
4.92661e-08
5.6419e-08
5.69323e-08
4.50565e-08
3.93581e-08
0.010024
0.0225207
0.0388275
0.00019983
0.000865125
0.00108967
0.0012044
0.00125284
0.0012955
0.00133608
0.00136546
0.00138487
0.00140653
0.00425976
0.000620349
0.000261288
4.83585e-05
2.91487e-05
5.21212e-05
5.45052e-05
4.53886e-05
2.59381e-05
6.91067e-06
0.000668501
0.000218072
9.20351e-06
9.15099e-06
1.28944e-06
7.7512e-05
0.000399365
0.000675744
0.00112185
0.00113862
6.54212e-05
4.03779e-05
2.32628e-06
1.39021e-06
1.2244e-06
1.55639e-06
1.41724e-06
1.40383e-06
1.33006e-06
0.000897863
4.53448e-06
1.71262e-06
5.25268e-07
4.88261e-07
6.9094e-07
5.85673e-07
5.3094e-07
5.5603e-07
0.0012831
0.00329488
1.5789e-06
9.62123e-08
1.98295e-07
3.29966e-07
2.89019e-07
2.53703e-07
0.00215103
0.00456975
0.00740447
0.0102289
7.93749e-08
1.33755e-07
1.42346e-07
1.45909e-07
1.31274e-07
1.23723e-07
1.27074e-07
1.38549e-07
1.12884e-07
0.00491397
0.00139473
3.71296e-08
4.54527e-08
6.58024e-08
0.000494266
0.00317537
0.0072123
0.0117719
0.017531
0.0232868
8.69134e-08
1.99922e-08
1.23216e-09
2.4834e-08
3.42054e-08
3.47954e-08
4.97028e-08
5.5985e-08
0.00161207
0.00954751
2.52031e-08
2.5453e-10
1.28219e-08
1.60672e-09
9.49715e-09
1.25515e-08
0.00123965
0.00759835
0.0147664
0.0233484
0.0214809
0.00545588
0.00547394
0.00545407
0.00542609
0.00529174
0.00498454
0.00452288
0.0039523
0.00330106
0.00601596
0.000372387
0.000234275
0.000135002
0.000104823
9.35501e-05
7.63225e-05
4.92277e-05
1.91972e-05
8.39723e-06
0.000669388
0.000823861
0.000606478
0.000590637
0.000666191
0.000782356
0.000940969
0.00102969
0.00130722
0.000980041
0.000133371
6.90223e-05
3.31644e-06
2.44742e-06
5.88149e-08
6.63216e-07
3.38204e-07
5.30177e-08
2.56585e-08
3.80438e-07
3.25071e-06
4.49352e-06
7.55976e-07
4.52536e-08
5.24688e-07
4.79713e-07
3.6355e-07
3.42938e-07
0.000598791
0.00155578
0.000645815
2.76402e-08
5.07772e-08
2.75581e-07
0.000206856
0.00106479
0.00225577
0.00350906
0.00503192
0.00629562
1.80715e-07
1.12197e-07
1.27972e-07
1.46409e-07
1.2813e-07
1.18527e-07
1.21662e-07
1.43707e-07
1.9535e-07
4.69794e-06
0.00436922
0.0031718
0.00253482
0.00283861
0.00377878
0.00533854
0.00768112
0.0100735
0.0133163
0.0157672
2.22208e-07
9.59763e-08
5.44979e-08
4.67701e-08
3.90262e-08
3.60093e-08
5.37235e-08
7.78587e-08
9.95095e-08
0.00122722
1.22075e-07
9.18973e-08
6.22459e-08
5.44522e-08
4.95571e-08
4.51648e-08
0.00184531
0.0053235
0.00920098
0.013457
0.127702
0.0174934
0.0200386
0.0198801
0.0184046
0.0160878
0.0134015
0.010632
0.00788446
0.00510782
0.000770001
0.000891328
0.000479275
0.000198965
8.14711e-05
4.97101e-05
4.10473e-05
1.51967e-05
6.58492e-05
0.000226828
0.00140068
0.00148328
0.00118812
0.00115101
0.00118967
0.00124784
0.00132002
0.0013167
0.00149625
0.000994648
0.000246906
0.000105649
1.32088e-05
2.88315e-06
8.01118e-07
1.16652e-06
1.55188e-06
1.1776e-06
6.39041e-07
8.20068e-07
1.90486e-06
9.34556e-06
3.60241e-07
5.60877e-07
2.02475e-07
4.13316e-07
3.05586e-07
0.000123624
0.000426851
0.000788275
0.00123318
0.000823253
0.000669377
0.000736627
0.00100131
0.00142838
0.0020209
0.00260833
0.00338623
0.00384365
2.22691e-07
6.47446e-08
6.12984e-08
1.05897e-07
1.00251e-07
8.14807e-08
3.77249e-08
2.7093e-08
2.12088e-08
1.33891e-07
0.00595772
0.00523307
0.00477896
0.0049489
0.00545101
0.00627447
0.00752688
0.00863601
0.0104306
0.0110933
1.90788e-08
5.9557e-08
5.08281e-08
5.37378e-08
3.95197e-08
1.66927e-08
9.6437e-09
7.52898e-09
7.85894e-09
3.01243e-08
4.71247e-08
9.9949e-09
5.10056e-09
1.6649e-08
1.21671e-08
4.94933e-09
0.00158529
0.00326988
0.00523061
0.00717654
0.445338
0.0651719
0.0644285
0.0539845
0.0426576
0.0323649
0.0235368
0.0160215
0.00937998
0.00303828
0.0136158
0.00157275
0.00121788
0.00109519
0.000973087
0.000772766
0.000477893
6.58233e-05
0.000524823
0.00133074
0.0025629
0.00182522
0.00145636
0.00134973
0.00134063
0.00135758
0.00138199
0.00135855
0.00149222
0.00103204
0.000422335
0.000150017
3.31161e-05
8.2726e-07
1.7171e-06
6.39728e-07
2.66016e-06
3.96452e-06
4.45199e-06
1.45992e-06
2.94891e-05
1.64385e-05
1.62676e-06
8.27361e-07
9.68899e-07
9.02182e-05
0.000204348
0.000303987
0.000418354
0.000485905
0.00119528
0.00101567
0.000938428
0.000967048
0.00108054
0.00126224
0.00151491
0.0017506
0.00211078
0.0022118
2.2111e-07
6.813e-08
1.20991e-08
4.14778e-08
6.26769e-08
8.39611e-08
6.12965e-08
6.62555e-08
2.367e-08
1.5163e-08
0.00655514
0.0059752
0.00562268
0.00568595
0.00591635
0.00629834
0.00689482
0.00732904
0.00829664
0.00811052
1.91684e-08
9.481e-10
1.7986e-09
1.33571e-08
1.85856e-08
2.92796e-08
1.25066e-08
4.61502e-09
1.06522e-08
7.44448e-11
3.69747e-08
2.71847e-08
1.78931e-09
7.66846e-10
6.0453e-09
3.87002e-08
0.000705345
0.00136965
0.00228576
0.00304351
1.64033
0.113504
0.102503
0.0760835
0.0534063
0.0360492
0.0229086
0.0125623
0.00366288
0.00493306
0.0177819
0.0071478
0.00581332
0.00453158
0.00326358
0.00203136
0.000796086
0.000540023
0.00213702
0.00402062
0.00488466
0.00123333
0.000939614
0.000801925
0.000756903
0.000727574
0.000682998
0.000592178
0.000526398
0.000234665
0.000613936
0.000186291
5.75619e-05
8.2565e-06
4.01343e-06
5.50346e-06
4.44287e-06
2.65018e-06
1.51869e-07
9.79754e-06
0.000116106
0.000168291
0.000153589
0.000158434
0.000174146
0.000197429
0.000225879
0.000243871
0.000274512
0.000253663
0.000685761
0.000625236
0.00059672
0.000606003
0.000641673
0.000696904
0.000772458
0.000837451
0.000960229
0.000956098
2.48298e-07
2.16686e-07
1.14062e-08
9.56853e-09
3.15888e-08
6.67896e-08
7.10827e-08
7.69759e-08
1.13317e-07
2.29143e-08
0.00586999
0.00518165
0.0048732
0.0048605
0.00493846
0.00507747
0.00530096
0.00542934
0.00588484
0.00549284
7.019e-08
4.57414e-08
2.05052e-08
3.27928e-08
4.25658e-08
5.4646e-08
6.05176e-08
5.52034e-08
7.1509e-08
4.31106e-08
1.24474e-09
4.8809e-08
3.448e-08
4.84525e-08
4.22504e-08
3.59533e-08
3.90306e-08
4.27972e-05
0.000440635
0.000613942
2.97614
0.0657023
0.0554294
0.0391365
0.0257529
0.0155761
0.00764393
0.000922364
0.00555343
0.0125057
0.0249751
0.0142581
0.0101625
0.00676317
0.00407022
0.00186682
9.07941e-05
0.00204535
0.00424548
0.00657538
0.00753154
0.000492759
0.000578921
0.000676821
0.000689334
0.000660305
0.00060222
0.00050613
0.000443501
0.000179943
0.000803806
0.00018968
8.2299e-05
2.85773e-05
5.78304e-06
5.07871e-06
1.19855e-05
1.79095e-05
2.40405e-05
3.67112e-05
0.000104289
3.69453e-06
1.06853e-05
1.38787e-05
1.49218e-05
1.63482e-05
1.91421e-05
2.26809e-05
2.97057e-05
2.58551e-05
3.88162e-05
4.08875e-05
4.00669e-05
4.26127e-05
4.55368e-05
4.73779e-05
4.75189e-05
4.38867e-05
3.87687e-05
3.29311e-05
3.68388e-08
4.33805e-07
1.41278e-07
2.19436e-09
2.45061e-08
2.49774e-08
2.20614e-08
3.31215e-08
2.47565e-08
5.12399e-08
0.00276541
0.0019565
0.00170316
0.00166411
0.00167368
0.00169225
0.0017141
0.00170372
0.00175419
0.00160347
1.53751e-08
2.5774e-08
8.19369e-10
3.5269e-08
2.97624e-08
2.73404e-08
2.16651e-08
2.43762e-08
3.73777e-08
3.44434e-09
5.64234e-08
1.06036e-09
2.71054e-08
6.13462e-08
7.00832e-08
7.565e-08
3.45235e-05
4.76325e-05
0.000177323
0.000151468
1.38885
0.0177083
0.010148
0.00554537
0.00193366
0.00117271
0.00411192
0.00731072
0.010693
0.0146266
0.000949787
0.0062615
0.00412099
0.00227933
0.000816997
0.000399212
0.00152443
0.00269438
0.00401085
0.00512758
0.00938356
0.00361201
0.00338379
0.00334613
0.00336503
0.00343227
0.00354556
0.0036977
0.00400636
0.00342919
0.000756147
0.000100442
5.12763e-05
2.92542e-05
2.23011e-05
2.19135e-05
2.41014e-05
2.69382e-05
2.9759e-05
3.4921e-05
0.0002275
0.000125997
0.000120167
0.000118985
0.000120127
0.000124911
0.000133817
0.000142345
0.000172811
0.00013687
0.000183614
0.000154497
0.00014791
0.000146815
0.000150628
0.000158702
0.000172145
0.000187085
0.00023428
0.000227324
6.05891e-07
3.09812e-07
1.79078e-07
8.79369e-08
5.84603e-08
4.4345e-08
4.16615e-08
4.72748e-08
1.25683e-08
3.01388e-08
0.0023608
0.00284237
0.00294508
0.0029518
0.00295124
0.00296858
0.00302079
0.00310058
0.00336522
0.00324648
1.61815e-08
1.15825e-08
4.70359e-08
3.16448e-08
2.5551e-08
2.14736e-08
2.06671e-08
3.10399e-08
1.77771e-08
1.2691e-08
0.00169674
0.00173292
0.00165491
0.00162294
0.00160403
0.00160064
0.00161953
0.00161834
0.00176937
0.00166351
0.316266
0.0290421
0.0251147
0.0218339
0.019369
0.0174466
0.0157956
0.0142121
0.0123094
0.0111466
0.00300119
0.00215892
0.00163116
0.00127119
0.00108859
0.00104649
0.0011089
0.00124476
0.00141058
0.00135707
0.00447599
0.00302077
0.00292256
0.00284716
0.00280998
0.00279682
0.00281269
0.00286929
0.00304181
0.00315808
0.000209115
2.49269e-05
8.76584e-06
1.1593e-06
2.20841e-06
3.58942e-06
4.00125e-06
4.04685e-06
4.48597e-06
5.22958e-06
8.31758e-05
2.00255e-05
9.95749e-06
4.09187e-06
1.8325e-06
3.30795e-06
9.6535e-06
2.04394e-05
5.23064e-05
0.000109361
2.42298e-06
6.93919e-07
3.0341e-07
1.22151e-07
4.4817e-08
1.11541e-08
5.45536e-09
4.68216e-09
1.54074e-05
6.77891e-05
2.80714e-07
7.452e-08
2.74152e-08
3.28372e-09
5.15467e-09
9.54569e-09
1.45094e-08
1.0373e-08
2.94007e-09
4.72703e-08
0.00351251
0.0034875
0.00345983
0.00344221
0.00343447
0.00343769
0.00346144
0.00350857
0.00373103
0.00382324
1.53149e-10
1.57764e-08
1.41832e-08
1.36312e-08
1.31106e-08
1.30377e-08
1.50162e-08
1.82548e-08
1.44747e-09
4.31951e-08
0.0178143
0.0177082
0.017569
0.0175046
0.0174564
0.0174248
0.0174196
0.0174134
0.0176636
0.0169368
38.9572
26.1636
29.376
46.1762
31.1484
25.0371
27.2524
38.533
17.8387
14.716
16.1013
23.6583
4.81455
3.96898
4.40201
7.20523
5.64731
5.335
5.80071
8.18488
12.5852
11.4064
13.7754
21.9675
16.428
14.3687
19.0387
32.6083
17.5514
14.9175
21.5229
38.7448
15.8143
13.436
20.9081
39.0217
12.6372
10.9345
18.6757
35.9148
3.46018
0.125802
0.000147065
1.15924
4.10277
0.276529
0.000108867
1.45686
3.19102
0.29971
5.69927e-05
1.13975
1.1851
0.138404
2.82935e-05
0.41541
1.36551
0.189053
1.41201e-05
0.424067
3.82418
0.574774
7.07338e-06
1.28551
5.79695
0.903236
3.87286e-06
2.15037
7.03128
1.16028
8.71224e-06
2.85289
7.29745
1.36495
0.213799
3.21326
6.84341
1.78444
0.830508
3.17509
2.01231
1.32996
1.19782
1.47285
2.19161
1.28602
1.08558
1.4985
1.68389
0.938181
0.819903
1.17319
0.510978
0.266422
0.240315
0.360128
1.05754
0.530798
0.502358
0.794559
2.65998
1.26966
1.24119
2.06183
4.02793
1.83018
1.84992
3.2468
4.97341
2.17065
2.26635
4.1681
5.2892
2.14905
2.35668
4.56858
5.11641
2.01751
2.36311
4.53302
0.262413
0.152786
0.122669
0.15795
0.367478
0.202263
0.151188
0.213779
0.321988
0.179078
0.139898
0.190837
0.0488826
0.0265203
0.0210553
0.0265774
0.467775
0.254065
0.226094
0.304452
1.13497
0.60037
0.557912
0.756329
1.8219
0.930987
0.899751
1.25125
2.42416
1.21024
1.21461
1.73123
2.71994
1.26864
1.35945
2.01164
2.75323
1.28427
1.51504
2.18555
0.0939266
0.0688577
0.0596861
0.0705521
0.137174
0.0986594
0.0873823
0.105087
0.0903561
0.0667978
0.0586379
0.0673319
0.0351285
0.0263703
0.0242807
0.029394
0.265003
0.187996
0.168538
0.197511
0.581883
0.395884
0.360038
0.422557
0.9301
0.603691
0.560934
0.665611
1.28189
0.802467
0.768639
0.923991
1.51187
0.887072
0.908483
1.10616
1.64182
0.979121
1.10539
1.29501
0.0204036
0.0133789
0.0105575
0.0139988
0.0413825
0.0293746
0.0265533
0.0317997
0.0164177
0.0123405
0.0110619
0.0120312
0.0458082
0.0373568
0.0352867
0.0398305
0.154259
0.124309
0.115587
0.12859
0.308775
0.243486
0.22636
0.25106
0.480649
0.367271
0.343272
0.380416
0.67742
0.501565
0.476398
0.529952
0.83315
0.582814
0.58663
0.64799
0.928443
0.654341
0.719497
0.763026
0.00439335
0.00211934
0.00119902
0.00247375
0.0112614
0.00775481
0.00703346
0.00860354
0.00403475
0.00342072
0.00353074
0.00426295
0.0408864
0.0341742
0.0329292
0.0365004
0.0998871
0.0850597
0.081265
0.0884834
0.184395
0.157144
0.149713
0.162043
0.272927
0.23069
0.219778
0.23617
0.385599
0.319489
0.306794
0.330462
0.480876
0.383412
0.384847
0.40628
0.535079
0.431214
0.463629
0.47226
0.000173017
3.31728e-05
3.0778e-05
3.02172e-05
0.00128088
0.00080965
0.00071784
0.000918167
0.00802193
0.00623631
0.00611204
0.00713553
0.0307468
0.0256136
0.0248114
0.027401
0.0649485
0.0560137
0.0540915
0.0585727
0.116233
0.101632
0.0980535
0.105377
0.165128
0.14604
0.140961
0.149384
0.234149
0.205871
0.199738
0.212206
0.280402
0.243637
0.243745
0.25208
0.31435
0.279913
0.295664
0.296912
0.000124891
5.32685e-05
4.93867e-05
4.76889e-05
0.000984156
0.000515017
0.000435729
0.000609547
0.00673967
0.00495648
0.00481633
0.00572574
0.0209641
0.0172844
0.0167551
0.0184991
0.0408412
0.0353236
0.0342525
0.0370395
0.0735411
0.0648953
0.0629193
0.0675662
0.101106
0.0914923
0.0888201
0.0934098
0.146139
0.132507
0.129223
0.136561
0.163025
0.149649
0.148884
0.152725
0.188564
0.179606
0.186902
0.186915
0.00015474
9.00487e-05
8.77818e-05
9.27705e-05
0.000883744
0.000267804
0.000162516
0.000350682
0.00435731
0.00292639
0.00282542
0.00354105
0.0132659
0.0107437
0.0103985
0.0114917
0.0245126
0.0210915
0.0204868
0.0221762
0.0455324
0.0401549
0.0389887
0.0419822
0.0599617
0.0550483
0.0535424
0.0559248
0.0905582
0.0833463
0.0814332
0.0860555
0.0945999
0.0896711
0.0887337
0.0907327
0.11409
0.113127
0.116401
0.116274
0.000764133
0.0003044
0.000266941
0.000246485
0.000282655
5.39775e-06
5.53942e-06
7.79576e-06
0.00232493
0.00128085
0.00122164
0.00177618
0.00783278
0.00619588
0.005977
0.00660248
0.0140352
0.0119325
0.0116066
0.0126198
0.0277707
0.0242678
0.023561
0.0255365
0.0341279
0.0316588
0.030803
0.0318795
0.0557325
0.0514226
0.0502707
0.053359
0.0538852
0.0519126
0.0511115
0.0521108
0.0686194
0.0694904
0.0710123
0.0708164
0.00249508
0.000782922
0.000659379
0.000590453
2.07069e-06
6.91949e-07
8.55786e-07
5.8614e-07
0.000942647
0.000218351
0.000190744
0.000638919
0.00420079
0.00323274
0.00310118
0.00339197
0.007485
0.00624437
0.00608908
0.00668257
0.0166136
0.0142768
0.0138452
0.0151747
0.0181841
0.0170861
0.0166198
0.0169236
0.0341492
0.0312472
0.0305486
0.0327376
0.0290462
0.0281793
0.0275918
0.0279717
0.0404366
0.0413255
0.0421345
0.0418481
0.00651131
0.00148116
0.00113574
0.00088749
0.000101303
5.42761e-05
6.25799e-05
8.48747e-05
0.000179876
6.77097e-06
4.94088e-06
5.72656e-05
0.00190799
0.00142935
0.00135957
0.00142399
0.00359419
0.00291218
0.00285923
0.00320199
0.00969893
0.00813854
0.00787595
0.0087805
0.00849343
0.00822773
0.00800265
0.00785489
0.020808
0.0186757
0.0182539
0.0198953
0.0138786
0.0135528
0.0131595
0.0131379
0.0230186
0.0235664
0.0241032
0.0237473
0.0109745
0.0013876
0.000675254
5.79452e-07
0.000449403
0.000274287
0.000315007
0.000409233
2.09815e-05
6.36923e-07
4.95125e-06
1.06608e-05
0.000547257
0.000409962
0.000383733
0.000307311
0.00148546
0.00114005
0.00114036
0.00133988
0.00553323
0.00450284
0.00434284
0.00495682
0.00286704
0.00310544
0.00302933
0.00264088
0.0126942
0.0110263
0.0107707
0.0120605
0.00487489
0.00491837
0.00467368
0.0043924
0.0123774
0.0126151
0.0130539
0.0126787
0.00780815
0.001866
0.00297687
0.0044971
0.00180461
0.00103344
0.00117081
0.00149706
4.6698e-07
4.48997e-05
6.25926e-05
8.92758e-05
1.08717e-06
7.16053e-07
1.22265e-06
1.76871e-06
0.000521335
0.000352675
0.000370331
0.000489459
0.00310759
0.00244382
0.00234452
0.0027482
2.75029e-07
0.000446856
0.000457947
4.35091e-07
0.00793389
0.00656818
0.00640764
0.00744627
9.67744e-08
0.000250555
0.000112333
4.35574e-07
0.00584876
0.00585906
0.00626045
0.00592637
0.0182957
0.0112256
0.0126731
0.0157947
0.00524045
0.00269508
0.00307543
0.00396897
0.000187752
0.000182245
0.000224674
0.00030605
1.89024e-06
7.37877e-06
9.73716e-06
1.29995e-05
0.00019428
0.000103175
0.000115677
0.000186065
0.00168414
0.00128551
0.00122349