/*--------------------------------*- C++ -*----------------------------------*\
| =========                 |                                                 |
| \\      /  F ield         | foam-extend: Open Source CFD                    |
|  \\    /   O peration     | Version:     4.0                                |
|   \\  /    A nd           | Web:         http://www.foam-extend.org         |
|    \\/     M anipulation  |                                                 |
\*---------------------------------------------------------------------------*/
FoamFile
{
    version     2.0;
    format      ascii;
    class       volScalarField;
    location    "800";
    object      k;
}
// * * * * * * * * * * * * * * * * * * * * * * * * * * * * * * * * * * * * * //

dimensions      [0 2 -2 0 0 0 0];

internalField   nonuniform List<scalar> 
34480
(
8.75857
8.75604
8.75577
8.75751
8.76159
8.76867
8.78448
8.84541
9.06375
9.6641
9.06346
8.4759
8.38961
8.66944
9.26904
10.1791
11.8474
15.8769
28.9379
67.3044
14.4938
13.0849
12.6747
12.8523
13.4531
14.5483
17.0045
22.9192
42.0127
102.097
13.9747
12.5148
12.1027
12.3242
13.0559
14.5092
17.7599
25.3495
49.6118
128.576
12.9995
11.6476
11.3277
11.6135
12.4745
14.201
18.0077
26.8426
55.5695
152.358
11.8881
10.6678
10.3803
10.675
11.5711
13.469
17.7203
27.772
61.3027
177.348
11.0673
9.98952
9.75422
10.0394
10.9378
12.9039
17.402
28.2828
65.6592
198.427
9.66365
8.85692
8.66752
8.89218
9.61051
11.2842
15.3753
26.0226
64.5824
205.598
6.82501
6.56537
6.52168
6.63429
6.96539
7.69572
9.69456
16.231
43.3258
149.095
9.23053
9.2306
9.23611
9.24839
9.26608
9.28757
9.31231
9.34901
9.41781
9.48675
8.67097
8.66772
8.66693
8.66864
8.6736
8.68291
8.69756
8.72767
8.80079
9.05456
7.78866
7.37906
7.28714
7.44418
7.88918
8.74149
10.2191
12.0869
15.5294
41.4582
11.8596
10.828
10.5524
10.7711
11.4649
12.7578
15.0173
18.047
23.9658
67.0655
11.7724
10.6432
10.3436
10.6004
11.4118
12.9733
15.7804
19.8596
28.5349
87.0448
11.287
10.1925
9.94179
10.2262
11.1154
12.8492
16.0333
20.8646
31.931
105.297
10.5631
9.54621
9.30412
9.58217
10.4722
12.2815
15.7284
21.232
34.8888
124.78
10.0239
9.09897
8.89219
9.14827
10.0119
11.82
15.3983
21.3336
37.105
141.881
8.92593
8.22323
8.04828
8.24254
8.91413
10.3974
13.525
19.1258
35.6653
147.938
6.60127
6.36004
6.30917
6.38454
6.64758
7.2327
8.57241
11.509
22.4468
102.373
9.10235
9.09756
9.09785
9.10452
9.11665
9.13268
9.15263
9.18662
9.25745
9.43958
8.57007
8.56686
8.56573
8.56669
8.57013
8.57619
8.58358
8.59627
8.62486
8.68891
6.69899
6.48809
6.43262
6.50852
6.74059
7.19711
8.02126
9.36337
11.205
16.5717
9.45695
8.84631
8.69731
8.87247
9.40114
10.3793
12.0464
14.535
17.6545
29.4451
9.65093
8.92912
8.75038
8.97028
9.63102
10.8932
13.1098
16.5354
21.1801
41.1376
9.55095
8.81449
8.65777
8.89772
9.63042
11.0659
13.6667
17.7782
23.7899
52.7535
9.16782
8.45706
8.29516
8.53379
9.27869
10.8076
13.7023
18.4345
25.9991
65.5306
8.88584
8.21561
8.07397
8.29643
9.02738
10.5756
13.6328
18.7672
27.6828
77.5638
8.10941
7.5914
7.46702
7.63794
8.2059
9.47359
12.1584
17.0209
26.5792
83.3775
6.34259
6.15396
6.11613
6.17763
6.38679
6.84919
7.89215
10.3233
16.6596
57.2369
8.98228
8.97447
8.97176
8.97524
8.98427
8.99778
9.01497
9.04701
9.12389
9.32186
8.45528
8.45304
8.45226
8.45304
8.45558
8.4596
8.46244
8.4658
8.47478
8.49333
5.96172
5.86753
5.83796
5.86924
5.97177
6.17309
6.53149
7.15158
8.06149
9.97651
7.67219
7.35759
7.28325
7.38296
7.69167
8.27308
9.26695
10.8307
12.7612
17.238
7.98022
7.56525
7.46171
7.60234
8.02991
8.85857
10.3158
12.6824
15.6683
23.7577
8.11583
7.66273
7.56675
7.72641
8.22119
9.20463
10.9948
13.9927
17.9042
30.3793
7.98018
7.51755
7.40955
7.5768
8.09997
9.18781
11.2621
14.8783
19.8424
37.9556
7.89149
7.43289
7.33512
7.49638
8.02578
9.15712
11.4042
15.4459
21.3029
45.2909
7.39114
7.02556
6.9362
7.06488
7.48351
8.41853
10.4013
14.2806
20.5797
49.0434
6.10987
5.96496
5.93638
5.98267
6.13858
6.47588
7.19989
8.9519
12.9453
33.1316
8.84803
8.84017
8.83717
8.84017
8.84877
8.86278
8.88099
8.91361
8.98527
9.1399
8.32818
8.32685
8.32638
8.32691
8.32852
8.33078
8.33052
8.32917
8.32918
8.33073
5.51213
5.4735
5.45797
5.46836
5.50706
5.58269
5.71271
5.93156
6.23192
6.69074
6.49021
6.34635
6.31219
6.35531
6.49802
6.77108
7.24242
8.01188
8.97762
10.482
6.78891
6.56822
6.50916
6.58204
6.81179
7.26141
8.0571
9.40419
11.1269
14.1651
7.02326
6.76198
6.70414
6.79306
7.07785
7.64598
8.68564
10.5212
12.9314
17.9399
7.0352
6.74834
6.67634
6.77741
7.09808
7.76492
9.04051
11.4044
14.6246
22.4239
7.06887
6.7669
6.69908
6.80119
7.14165
7.86509
9.29858
12.054
15.9525
26.8338
6.78197
6.53178
6.46717
6.55357
6.83229
7.44638
8.72938
11.4128
15.6483
29.1674
5.90335
5.79358
5.77173
5.80376
5.91353
6.14478
6.61114
7.71668
10.0795
19.2939
8.70438
8.69662
8.69343
8.69598
8.70403
8.71777
8.7358
8.7662
8.82659
8.93837
8.18968
8.18904
8.18882
8.18914
8.19008
8.19119
8.18957
8.18703
8.1849
8.18308
5.25664
5.24159
5.23323
5.23583
5.24906
5.27548
5.32056
5.39328
5.48538
5.58561
5.7683
5.71025
5.69705
5.71232
5.76823
5.87566
6.06006
6.36274
6.75007
7.22903
5.99722
5.88738
5.85542
5.88932
6.00018
6.21483
6.58756
7.22175
8.05997
9.2125
6.23731
6.09609
6.06386
6.10879
6.25769
6.54928
7.07155
8.00918
9.28942
11.317
6.31644
6.14774
6.10238
6.15921
6.34098
6.71122
7.40239
8.71439
10.5692
13.928
6.41202
6.22232
6.17809
6.23855
6.44338
6.86785
7.68411
9.29896
11.6507
16.5072
6.27737
6.11409
6.07002
6.12529
6.30086
6.67712
7.4314
9.04289
11.6406
17.8588
5.72249
5.64185
5.62623
5.64768
5.72285
5.87678
6.1688
6.8169
8.08066
11.8688
8.55042
8.54303
8.53985
8.54207
8.5495
8.5624
8.57945
8.60649
8.6537
8.72798
8.04039
8.0402
8.04013
8.04032
8.04082
8.04123
8.03926
8.03678
8.03455
8.03248
5.11915
5.11299
5.108
5.10809
5.11218
5.12116
5.13752
5.16375
5.19553
5.21966
5.35369
5.33326
5.32947
5.33344
5.3518
5.38784
5.45038
5.55291
5.68247
5.80864
5.50218
5.44928
5.43236
5.44698
5.49715
5.59238
5.75176
6.01361
6.35955
6.75059
5.70247
5.62984
5.61312
5.634
5.7066
5.84464
6.08167
6.49575
7.07151
7.82546
5.79735
5.70231
5.67504
5.70513
5.80238
5.99463
6.33747
6.97289
7.89636
9.26802
5.91257
5.79806
5.77076
5.80435
5.92133
6.15598
6.58497
7.41655
8.66147
10.7322
5.87778
5.77612
5.74763
5.78125
5.88632
6.10491
6.52038
7.38329
8.79991
11.5247
5.57061
5.51282
5.50227
5.51605
5.5661
5.6658
5.84605
6.2147
6.87372
8.3306
8.38559
8.3788
8.37579
8.3777
8.3844
8.39603
8.41135
8.43444
8.47044
8.51942
7.88064
7.88071
7.88074
7.88084
7.88108
7.88111
7.87933
7.87734
7.87555
7.87389
5.04772
5.04456
5.04123
5.04072
5.04195
5.0453
5.05228
5.06393
5.07876
5.08848
5.12569
5.11995
5.11979
5.11998
5.12428
5.13378
5.15221
5.18461
5.22633
5.25656
5.20706
5.18148
5.17244
5.17846
5.20056
5.24175
5.30825
5.41228
5.54635
5.67042
5.3549
5.31888
5.31079
5.31977
5.35338
5.41538
5.51719
5.68603
5.91791
6.17269
5.43918
5.38752
5.37182
5.387
5.4368
5.53234
5.69453
5.97829
6.38847
6.90616
5.5493
5.48253
5.46656
5.48418
5.54833
5.67292
5.88867
6.28322
6.87094
7.69003
5.57444
5.51435
5.497
5.51652
5.57635
5.6976
5.91721
6.34692
7.04652
8.1676
5.44786
5.40731
5.40065
5.40921
5.44187
5.5052
5.61574
5.82361
6.17082
6.75593
8.20935
8.20336
8.20063
8.20227
8.20813
8.21819
8.23131
8.25024
8.27704
8.30978
7.71055
7.71075
7.71082
7.71087
7.71097
7.7108
7.70946
7.708
7.70671
7.70547
5.01089
5.00871
5.00631
5.00578
5.00626
5.00792
5.0117
5.0184
5.02787
5.03504
5.00458
5.00387
5.0048
5.00405
5.00385
5.00473
5.00875
5.01865
5.0335
5.04208
5.03854
5.02555
5.02052
5.02294
5.03273
5.05076
5.07917
5.12204
5.17665
5.21892
5.13843
5.12087
5.11716
5.12071
5.13566
5.16251
5.20519
5.27263
5.36402
5.44931
5.20268
5.1754
5.16667
5.17403
5.19861
5.24459
5.31966
5.44291
5.61769
5.80836
5.29641
5.25847
5.24961
5.25837
5.29245
5.3568
5.46331
5.64479
5.90766
6.21715
5.35387
5.32043
5.31058
5.32144
5.35372
5.41782
5.53015
5.73612
6.06383
6.51146
5.35252
5.32445
5.32058
5.3258
5.34691
5.38676
5.45443
5.57177
5.75617
6.0153
8.02128
8.01621
8.01384
8.01522
8.02017
8.0285
8.03924
8.05418
8.07362
8.0954
7.53006
7.53032
7.53041
7.53044
7.53048
7.53027
7.52935
7.52833
7.52745
7.52655
4.99123
4.98945
4.98767
4.98726
4.98758
4.9887
4.99121
4.99587
5.00321
5.00995
4.94207
4.94273
4.94377
4.94302
4.94178
4.94046
4.94036
4.94335
4.95002
4.95463
4.94632
4.93914
4.93618
4.93716
4.94166
4.94988
4.9627
4.98183
5.00683
5.02466
5.00911
5.00041
4.99873
5
5.00647
5.01789
5.0357
5.06309
5.10065
5.13252
5.05326
5.03914
5.03443
5.03789
5.04962
5.07113
5.10538
5.15886
5.2342
5.30953
5.12791
5.10665
5.10194
5.10612
5.12385
5.15656
5.20887
5.29246
5.41005
5.53157
5.20036
5.18312
5.17805
5.18385
5.20017
5.23215
5.2873
5.38327
5.53306
5.71874
5.28127
5.26193
5.25992
5.26315
5.27689
5.30212
5.34367
5.41038
5.50822
5.63361
7.82108
7.81697
7.81502
7.81614
7.82016
7.82671
7.8352
7.84654
7.86026
7.87452
7.33907
7.33936
7.33945
7.33947
7.33948
7.33933
7.33874
7.33806
7.33747
7.33681
4.97973
4.97825
4.97694
4.97664
4.97691
4.97776
4.9796
4.98315
4.98931
4.99586
4.91048
4.91131
4.91216
4.91163
4.91046
4.90897
4.90802
4.90898
4.91296
4.91711
4.89806
4.89373
4.8919
4.89231
4.89449
4.89847
4.90465
4.91402
4.9271
4.9369
4.93505
4.93045
4.92962
4.93002
4.93285
4.93779
4.94545
4.95717
4.97395
4.98846
4.96305
4.95582
4.95333
4.95492
4.96034
4.97012
4.98549
5.00881
5.04231
5.07594
5.02053
5.00854
5.00611
5.00809
5.01731
5.03394
5.0598
5.09908
5.15312
5.2058
5.09812
5.09021
5.088
5.09098
5.09853
5.11323
5.13858
5.18148
5.24788
5.33098
5.22989
5.21649
5.21567
5.21778
5.22696
5.24335
5.26911
5.30756
5.35923
5.42427
7.60856
7.60538
7.60385
7.60473
7.60786
7.61275
7.61923
7.62753
7.63693
7.64609
7.13744
7.13773
7.13782
7.13784
7.13784
7.13776
7.1374
7.13697
7.13659
7.13609
4.97201
4.97082
4.96987
4.96967
4.9699
4.97054
4.97192
4.97471
4.98002
4.98632
4.89466
4.89536
4.896
4.89568
4.89483
4.89369
4.89282
4.89322
4.8961
4.90024
4.87403
4.87127
4.87014
4.87031
4.87141
4.8734
4.87653
4.88148
4.88912
4.89576
4.89446
4.89175
4.89122
4.89134
4.89268
4.89503
4.89864
4.9042
4.91265
4.92099
4.9111
4.9074
4.9061
4.90682
4.90925
4.91356
4.92029
4.9305
4.94599
4.96322
4.95508
4.94812
4.94688
4.94789
4.95281
4.9615
4.97463
4.9938
5.01981
5.04584
5.03286
5.02996
5.02937
5.03086
5.03385
5.03973
5.05003
5.06771
5.09524
5.13589
5.19393
5.1845
5.18439
5.18593
5.19235
5.20341
5.21973
5.24235
5.26948
5.30552
7.38365
7.38132
7.38018
7.38085
7.38316
7.38666
7.39142
7.39726
7.40352
7.40929
6.92503
6.92532
6.9254
6.92542
6.92541
6.92538
6.92519
6.92492
6.92468
6.92428
4.96604
4.96513
4.96448
4.96435
4.96454
4.96499
4.966
4.9682
4.97283
4.9788
4.8867
4.88725
4.88771
4.88755
4.887
4.88625
4.88568
4.88594
4.88823
4.89221
4.86279
4.86104
4.86037
4.86043
4.86097
4.86193
4.8635
4.86618
4.87097
4.87603
4.87326
4.87146
4.87104
4.87107
4.87183
4.87317
4.87518
4.87823
4.8831
4.8889
4.88265
4.88073
4.88006
4.88038
4.88143
4.88326
4.88612
4.89058
4.89806
4.90816
4.91688
4.91261
4.91196
4.91257
4.91539
4.92023
4.92727
4.93723
4.9506
4.96554
4.99262
4.9922
4.99246
4.99318
4.994
4.99565
4.99871
5.00474
5.01437
5.03651
5.16918
5.16243
5.16271
5.16399
5.16875
5.17655
5.18723
5.20094
5.21502
5.23655
7.14637
7.14477
7.14398
7.14446
7.14607
7.14851
7.15185
7.15581
7.15983
7.16339
6.70174
6.702
6.70209
6.7021
6.7021
6.70207
6.70199
6.70184
6.70168
6.70134
4.96092
4.96029
4.95987
4.9598
4.95994
4.96026
4.96095
4.96266
4.96671
4.97228
4.88257
4.88303
4.88335
4.88329
4.88298
4.88256
4.88225
4.88251
4.88441
4.8881
4.85806
4.85701
4.85666
4.85667
4.85688
4.85726
4.85795
4.85935
4.86243
4.86651
4.8628
4.86152
4.86113
4.86115
4.86167
4.86259
4.86393
4.86586
4.86898
4.87348
4.86789
4.86686
4.86651
4.86665
4.86708
4.86783
4.869
4.87095
4.87474
4.88136
4.89536
4.89258
4.89221
4.89267
4.89445
4.8974
4.90149
4.90711
4.91455
4.92442
4.96813
4.96876
4.96941
4.96977
4.96966
4.9695
4.96939
4.97034
4.97196
4.98564
5.15208
5.14717
5.14765
5.14883
5.15258
5.1583
5.16559
5.17422
5.18127
5.19525
6.89688
6.89585
6.89535
6.89568
6.89672
6.89839
6.90064
6.90321
6.90568
6.90783
6.4675
6.46776
6.46784
6.46786
6.46785
6.46783
6.46778
6.4677
6.4676
6.46729
4.95628
4.95592
4.95568
4.95568
4.95577
4.95596
4.95642
4.9577
4.96122
4.96634
4.88031
4.88071
4.88092
4.88091
4.88076
4.88059
4.88051
4.88081
4.88241
4.88574
4.85654
4.85598
4.85584
4.85583
4.85585
4.85589
4.85607
4.85671
4.85868
4.86205
4.85807
4.85713
4.85678
4.8568
4.85718
4.85789
4.85887
4.86021
4.86235
4.86597
4.86073
4.86014
4.85994
4.85999
4.86017
4.86047
4.86094
4.86179
4.8638
4.86848
4.88341
4.88151
4.88127
4.88165
4.88289
4.88485
4.88746
4.8909
4.89534
4.9025
4.9526
4.95352
4.95429
4.95449
4.9541
4.95334
4.95209
4.95113
4.94941
4.95901
5.13973
5.13619
5.13676
5.13791
5.14093
5.14533
5.15055
5.15622
5.15939
5.16918
6.63547
6.63481
6.63452
6.63473
6.63541
6.6365
6.63794
6.63953
6.64096
6.64222
6.22237
6.22263
6.22271
6.22273
6.22273
6.2227
6.22266
6.22261
6.22253
6.22225
4.95198
4.95188
4.95179
4.95185
4.95192
4.952
4.95226
4.95316
4.95618
4.96078
4.87892
4.87927
4.87937
4.87938
4.87934
4.87933
4.87942
4.87978
4.88117
4.88416
4.85657
4.85633
4.85633
4.8563
4.85622
4.85608
4.85598
4.85618
4.85739
4.86016
4.85629
4.85559
4.85529
4.8553
4.85559
4.85613
4.85686
4.85781
4.85929
4.86222
4.85761
4.85723
4.85709
4.8571
4.85717
4.85731
4.8575
4.85788
4.85898
4.86241
4.87651
4.87516
4.87498
4.8753
4.87619
4.87757
4.87933
4.88155
4.88431
4.88966
4.94126
4.94208
4.94282
4.94296
4.94259
4.9418
4.94041
4.93899
4.93617
4.94362
5.12993
5.12742
5.12806
5.12916
5.13166
5.13518
5.13909
5.14297
5.1439
5.15113
6.36247
6.36207
6.3619
6.36204
6.36246
6.36313
6.364
6.36491
6.36568
6.36639
5.96666
5.9669
5.96698
5.967
5.967
5.96697
5.96692
5.96687
5.9668
5.96653
4.94794
4.94808
4.94812
4.94826
4.94831
4.94831
4.94838
4.94894
4.95143
4.95544
4.87786
4.8781
4.87809
4.87808
4.87811
4.87821
4.87842
4.87883
4.88007
4.88281
4.85729
4.85723
4.85728
4.85725
4.85713
4.85693
4.85672
4.85669
4.85735
4.85955
4.85596
4.85545
4.85521
4.8552
4.85541
4.85579
4.8563
4.85695
4.85796
4.86027
4.85658
4.85631
4.8562
4.85618
4.85621
4.85627
4.85635
4.85652
4.85712
4.8596
4.87182
4.87086
4.87071
4.87095
4.87158
4.87253
4.87371
4.87514
4.87684
4.88072
4.93086
4.93139
4.93202
4.93215
4.9319
4.93129
4.93014
4.92889
4.92603
4.93216
5.12077
5.11907
5.11971
5.12077
5.12286
5.12573
5.12874
5.13144
5.13105
5.13642
6.07839
6.07817
6.07807
6.07816
6.07841
6.07879
6.07927
6.07975
6.08011
6.08049
5.70081
5.70114
5.70122
5.70125
5.70124
5.70122
5.70117
5.70111
5.70104
5.70079
4.94387
4.94427
4.94447
4.94468
4.94473
4.94466
4.94456
4.94477
4.94658
4.94991
4.87675
4.87679
4.87668
4.87663
4.87668
4.87685
4.87712
4.87757
4.87868
4.88131
4.85817
4.85815
4.85821
4.85818
4.85806
4.85788
4.85768
4.85756
4.85785
4.85943
4.85634
4.85599
4.85581
4.85579
4.85592
4.85616
4.85649
4.8569
4.85755
4.85924
4.85664
4.85645
4.85636
4.85633
4.85634
4.85635
4.85637
4.85643
4.85672
4.85838
4.86761
4.86695
4.86683
4.86698
4.86737
4.86797
4.86868
4.86951
4.87049
4.87308
4.91923
4.91945
4.91992
4.92002
4.91985
4.91942
4.91859
4.91764
4.91527
4.92032
5.10955
5.10854
5.10911
5.11009
5.11181
5.11409
5.1164
5.11819
5.11702
5.12074
5.78405
5.78394
5.78389
5.78394
5.78406
5.78425
5.78449
5.78471
5.78486
5.78503
5.42609
5.4262
5.42625
5.42627
5.42627
5.42625
5.42622
5.42618
5.42612
5.42591
4.93841
4.93902
4.93948
4.93979
4.93985
4.93972
4.93944
4.93924
4.94004
4.94244
4.87529
4.87506
4.87486
4.87478
4.87482
4.87498
4.87526
4.8757
4.87667
4.87922
4.85879
4.85875
4.85877
4.85874
4.85866
4.85855
4.85842
4.85833
4.8584
4.85931
4.85715
4.85693
4.85682
4.8568
4.85686
4.857
4.85718
4.85742
4.85779
4.85886
4.85735
4.85723
4.85717
4.85714
4.85713
4.85711
4.8571
4.85709
4.8572
4.85812
4.86329
4.8629
4.86281
4.86288
4.86308
4.86337
4.86372
4.8641
4.86458
4.86602
4.90517
4.90512
4.90539
4.90542
4.90525
4.90488
4.90427
4.90359
4.90205
4.90592
5.08935
5.08888
5.08937
5.09019
5.09148
5.09316
5.09479
5.09579
5.09425
5.09626
5.48046
5.48041
5.4804
5.48042
5.48046
5.48052
5.48059
5.48064
5.48068
5.48074
5.14174
5.14183
5.14185
5.14185
5.14185
5.14185
5.14184
5.14183
5.14182
5.14171
4.92401
4.92478
4.92555
4.92596
4.92606
4.9259
4.92549
4.9249
4.92426
4.92492
4.87256
4.87209
4.87182
4.87169
4.8717
4.87183
4.87207
4.87246
4.87323
4.87537
4.85924
4.85919
4.85917
4.85914
4.85911
4.85906
4.85902
4.859
4.85901
4.85929
4.85842
4.8583
4.85824
4.85823
4.85826
4.85832
4.85841
4.85853
4.8587
4.8592
4.85855
4.8585
4.85846
4.85844
4.85842
4.8584
4.85838
4.85836
4.85838
4.85873
4.86016
4.86001
4.85996
4.85998
4.86006
4.86016
4.86028
4.8604
4.86056
4.86108
4.8881
4.88784
4.88788
4.88781
4.88761
4.88729
4.88686
4.88646
4.88597
4.88849
5.03717
5.03704
5.03736
5.03788
5.03866
5.03964
5.04057
5.04098
5.0397
5.03996
5.16764
5.16762
5.16763
5.16763
5.16763
5.16763
5.16763
5.16762
5.16759
5.16764
11.2329
11.3456
11.2996
11.0832
82.9743
84.9618
85.3835
86.0095
143.433
148.729
149.12
147.778
202.737
211.903
211.677
207.225
263.9
277.187
275.889
268.194
331.515
349.281
347.176
338.466
393.089
415.099
412.699
405.227
430.334
455.843
453.841
449.037
342.463
364.335
361.778
360.137
11.4391
11.6738
11.521
11.1266
9.69581
9.75396
9.75647
9.71229
76.3908
79.462
80.1913
80.2616
134.553
145.15
146.146
143.811
193.508
214.622
214.976
208.804
256.493
290.583
289.381
279.056
329.37
378.938
377.221
364.211
398.599
464.088
463.228
449.921
444.022
523.657
524.858
513.242
347.675
418.223
416.616
411.32
10.6824
10.9082
10.8396
10.6209
8.76827
8.78063
8.77948
8.76823
26.6469
29.0267
28.2652
25.7392
49.6096
53.9444
52.2134
47.4777
74.898
81.523
78.2927
70.6881
103.816
113.132
107.794
96.5921
139.809
152.849
145.124
129.082
177.454
194.356
184.096
162.911
207.201
227.777
215.448
189.771
163.864
180.199
168.764
147.885
9.89192
9.98098
9.95796
9.85992
8.50568
8.50775
8.50827
8.50752
11.5619
11.8007
11.7602
11.5542
21.3667
22.0693
21.9785
21.4139
32.1753
33.6142
33.318
31.9738
44.7194
47.0699
46.3372
43.7754
60.8877
64.5282
63.1145
58.7495
78.2585
83.1859
80.7983
74.2931
92.6054
98.9156
95.5
86.7493
71.7174
76.6461
73.0675
65.4546
9.43139
9.47506
9.47196
9.43218
8.32761
8.32828
8.32843
8.32801
7.11032
7.19955
7.22142
7.18784
11.791
12.0783
12.1509
12.0559
16.9934
17.5897
17.6729
17.3964
22.9685
23.9556
23.9635
23.3476
30.8648
32.4379
32.2836
31.0779
39.3486
41.5043
41.0277
39.0257
46.3054
49.135
48.25
45.2474
34.33
36.4554
35.2249
32.3433
9.08338
9.10691
9.10852
9.09199
8.17759
8.17812
8.17813
8.17759
5.65386
5.66699
5.67058
5.66706
7.53444
7.59905
7.62642
7.62387
10.0225
10.1964
10.255
10.2259
12.9199
13.2492
13.322
13.2173
16.8874
17.4781
17.5477
17.2751
21.1153
21.9733
21.9672
21.4316
24.5015
25.7007
25.5647
24.6237
17.4476
18.2974
17.9222
16.9231
8.7994
8.8111
8.81348
8.80762
8.0269
8.02745
8.02745
8.02688
5.23029
5.23277
5.23259
5.23043
5.87199
5.88409
5.8895
5.8898
6.96778
7.01405
7.03413
7.03342
8.31192
8.41405
8.45076
8.43919
10.2868
10.4995
10.5584
10.5078
12.3938
12.7199
12.7746
12.6535
14.0596
14.5503
14.5785
14.3146
10.1983
10.5128
10.4236
10.1371
8.55317
8.55853
8.56063
8.55942
7.86872
7.8693
7.86931
7.86874
5.08849
5.08924
5.08845
5.08651
5.26389
5.26386
5.26311
5.26242
5.71617
5.72408
5.72721
5.72732
6.2958
6.3196
6.32928
6.3295
7.22385
7.29005
7.31396
7.30708
8.23168
8.33947
8.37014
8.35053
9.06743
9.2507
9.2848
9.22052
7.31981
7.42103
7.4095
7.34639
8.32616
8.32838
8.32986
8.33021
7.70075
7.70133
7.70136
7.7008
5.0336
5.03434
5.03363
5.03177
5.04107
5.03976
5.03832
5.03723
5.22451
5.22396
5.22288
5.22213
5.47222
5.47461
5.47493
5.47492
5.89699
5.91394
5.92011
5.91899
6.36527
6.39279
6.40235
6.40192
6.80332
6.86388
6.88004
6.86621
6.1827
6.20997
6.21109
6.20223
8.10384
8.10458
8.10549
8.10613
7.52227
7.52285
7.52288
7.52234
5.00839
5.0092
5.00859
5.00682
4.95384
4.95298
4.95185
4.95078
5.02307
5.02146
5.01991
5.01896
5.13309
5.13126
5.12961
5.12904
5.33288
5.33593
5.33634
5.33546
5.56156
5.56464
5.56552
5.56701
5.81174
5.82966
5.83468
5.83097
5.68543
5.68887
5.68943
5.69105
7.87901
7.87907
7.87958
7.88017
7.33296
7.33352
7.33354
7.33302
4.99435
4.99513
4.99458
4.99288
4.91736
4.91698
4.91619
4.91526
4.93496
4.93367
4.93242
4.93156
4.98584
4.98391
4.98233
4.98165
5.08254
5.08247
5.08161
5.0807
5.20651
5.20404
5.20262
5.20357
5.36525
5.37032
5.37097
5.36863
5.44286
5.43935
5.43848
5.44113
7.64843
7.64823
7.64849
7.64894
7.13264
7.13316
7.13318
7.13269
4.9848
4.98549
4.98493
4.98331
4.90112
4.90102
4.90048
4.89969
4.8944
4.89349
4.89256
4.89187
4.91889
4.91749
4.91632
4.91574
4.9657
4.96516
4.96429
4.96353
5.04164
5.03877
5.03718
5.03764
5.15363
5.15531
5.15465
5.15235
5.31503
5.31014
5.30863
5.31062
7.41036
7.41009
7.41022
7.41052
6.92121
6.92169
6.9217
6.92124
4.9772
4.97773
4.97714
4.97561
4.89333
4.89335
4.89298
4.89234
4.87512
4.87446
4.87377
4.87324
4.88765
4.8867
4.88588
4.88545
4.90962
4.90917
4.9085
4.90794
4.9623
4.96014
4.95889
4.95908
5.04974
5.05075
5.04988
5.04756
5.2439
5.23944
5.23783
5.239
7.16365
7.16344
7.16349
7.16366
6.69865
6.69907
6.69907
6.69864
4.97055
4.97088
4.97023
4.96879
4.8892
4.88927
4.889
4.88849
4.86586
4.86534
4.86481
4.86444
4.87284
4.87218
4.87161
4.87132
4.88251
4.88217
4.8817
4.88133
4.92315
4.92178
4.92091
4.92093
4.99776
4.99885
4.99807
4.99573
5.2023
5.19877
5.1973
5.19774
6.90753
6.90744
6.90746
6.9075
6.46497
6.46533
6.46531
6.46494
4.96443
4.96452
4.96381
4.96248
4.88673
4.88679
4.88659
4.8862
4.86155
4.86111
4.86071
4.86048
4.86571
4.86522
4.86482
4.86464
4.86947
4.86921
4.86887
4.86864
4.90298
4.90225
4.9017
4.90159
4.97097
4.97232
4.97169
4.9693
5.1763
5.17379
5.17255
5.17235
6.64153
6.64159
6.64159
6.64151
6.22033
6.2206
6.22057
6.22025
4.9587
4.95855
4.95778
4.95659
4.88505
4.8851
4.88494
4.88462
4.85982
4.85944
4.85914
4.85904
4.86219
4.86181
4.86152
4.86143
4.86325
4.86302
4.86277
4.86265
4.89138
4.89112
4.8908
4.89061
4.95565
4.95732
4.95682
4.95432
5.15824
5.15673
5.15574
5.15498
6.36542
6.36562
6.36562
6.36544
5.96506
5.96524
5.96518
5.96493
4.9533
4.95294
4.95217
4.95116
4.88372
4.88376
4.88361
4.88332
4.85942
4.85912
4.85893
4.85894
4.8604
4.86009
4.85987
4.85985
4.86028
4.86006
4.85988
4.85984
4.88306
4.88312
4.88298
4.88275
4.94413
4.94615
4.94577
4.9431
5.14328
5.14277
5.14206
5.14079
6.07932
6.07964
6.07965
6.0794
5.69984
5.69992
5.69984
5.69967
4.94809
4.94768
4.94699
4.9462
4.88238
4.88243
4.88224
4.88188
4.85954
4.85935
4.85927
4.85935
4.85947
4.85922
4.85905
4.85907
4.85887
4.85867
4.85852
4.85854
4.87542
4.87566
4.87564
4.87542
4.93156
4.9339
4.93362
4.93082
5.12697
5.12755
5.12717
5.12538
5.78375
5.78415
5.78417
5.78389
5.42559
5.42553
5.42544
5.42537
4.94178
4.94166
4.94124
4.94065
4.88041
4.88044
4.88016
4.87966
4.85954
4.85947
4.85948
4.8596
4.85908
4.85889
4.85877
4.8588
4.85835
4.85817
4.85807
4.85811
4.8678
4.86806
4.86809
4.86793
4.91478
4.91703
4.91682
4.91429
5.10107
5.10303
5.10305
5.10057
5.47966
5.48014
5.48016
5.47985
5.14215
5.14188
5.14179
5.14189
4.92589
4.92657
4.92662
4.92601
4.87614
4.876
4.87562
4.87515
4.85935
4.85933
4.85938
4.85949
4.85925
4.85912
4.85904
4.85907
4.85868
4.85853
4.85845
4.85851
4.86185
4.86197
4.86201
4.86196
4.89295
4.89399
4.89382
4.89256
5.04152
5.0446
5.04489
5.04184
5.16709
5.16762
5.16764
5.16728
10.0901
9.35135
9.04364
8.93243
8.86794
8.82278
8.7931
8.77673
8.76719
8.76131
103.817
49.2346
35.8346
29.7983
24.2634
19.6114
16.0238
13.3703
11.4902
10.1616
161.093
71.1452
51.1378
43.39
36.6002
30.7413
25.8914
22.0269
19.016
16.6845
206.172
83.0158
55.8994
46.1878
38.5797
31.9333
26.4339
22.1066
18.7866
16.2642
240.68
88.6879
58.5315
47.2635
39.1963
31.8589
25.887
21.2685
17.7829
15.2173
276.25
94.0888
60.4403
47.4867
38.9464
30.9534
24.64
19.8742
16.4014
13.9313
304.331
97.2289
60.9869
46.9187
38.1854
29.7686
23.3278
18.5811
15.2072
12.8961
311.519
92.61
55.8752
41.4493
33.2061
25.2094
19.471
15.4476
12.7784
11.0155
220.693
55.2461
30.1
20.7566
15.9986
12.0287
9.81866
8.51326
7.72857
7.21469
9.56671
9.53747
9.38277
9.3561
9.30957
9.28353
9.26285
9.25179
9.24416
9.23683
9.35159
9.0461
8.89629
8.81138
8.75762
8.72213
8.6993
8.686
8.67846
8.67335
53.159
28.7832
22.6612
19.438
16.5705
14.0499
11.9942
10.4275
9.29188
8.50984
90.0325
46.4285
35.9295
30.9296
26.9175
23.1469
19.8842
17.21
15.0855
13.4804
122.08
58.7227
42.9274
35.4133
30.132
25.2689
21.1923
17.9429
15.4298
13.5775
151.936
68.7243
47.7656
38.167
31.8593
26.1156
21.449
17.8263
15.0778
13.1167
185.578
78.6489
51.8907
40.0118
32.6902
26.1151
20.9648
17.0814
14.252
12.3052
215.657
85.9822
54.2988
40.7117
32.7851
25.6645
20.2675
16.3098
13.4941
11.6264
230.913
86.0179
51.4177
36.9686
29.0961
22.1774
17.2552
13.8343
11.5732
10.1301
165.048
54.0802
28.7326
19.129
14.5
11.0898
9.17743
8.057
7.37947
6.9548
9.8026
9.49083
9.32145
9.25865
9.20413
9.17113
9.14718
9.13254
9.12225
9.1123
8.72974
8.68969
8.65763
8.63053
8.60916
8.59369
8.58351
8.57752
8.57389
8.5709
19.9888
16.6234
14.5426
12.6969
11.0933
9.76162
8.72834
7.96815
7.42392
7.05045
35.9721
28.7989
24.9795
21.6665
18.811
16.341
14.3063
12.6782
11.3926
10.4289
51.0733
38.0431
31.5606
26.238
22.046
18.5724
15.8118
13.6648
12.0192
10.819
66.1023
45.7503
36.5645
29.3814
24.0761
19.7944
16.4935
13.9975
12.1211
10.794
83.1214
53.319
40.9827
31.7939
25.3903
20.3208
16.5355
13.7561
11.7559
10.3939
98.7793
59.0095
43.8722
33.1036
25.9751
20.3782
16.3198
13.4251
11.3893
10.0492
107.745
59.4168
42.2536
30.6504
23.4517
17.9584
14.2166
11.6939
10.0464
8.99759
75.1872
36.324
23.6427
16.1023
12.1021
9.59518
8.22608
7.4225
6.92564
6.61013
9.5559
9.36448
9.23203
9.1531
9.09612
9.06048
9.03565
9.01872
9.00622
8.99447
8.50343
8.49421
8.48352
8.47358
8.46593
8.46074
8.45757
8.45603
8.45544
8.45437
10.9893
10.1845
9.33855
8.48126
7.7518
7.18711
6.77121
6.47083
6.25452
6.1051
19.9279
18.109
16.2552
14.3468
12.6819
11.3085
10.2131
9.35356
8.68001
8.17734
28.535
24.7269
21.2468
17.9732
15.3199
13.205
11.5602
10.2999
9.34316
8.6506
37.2803
30.7433
25.4327
20.7734
17.2156
14.462
12.3837
10.8401
9.68976
8.87752
47.4807
37.0109
29.464
23.2104
18.6735
15.2435
12.7344
10.9282
9.64288
8.76944
56.9631
42.0197
32.4065
24.8075
19.5432
15.6314
12.8548
10.9187
9.56839
8.67562
62.5261
43.1041
31.8878
23.4985
18.0414
14.1434
11.5489
9.83888
8.72603
8.00833
42.4352
26.0387
17.8386
12.6882
9.94789
8.33571
7.43091
6.88498
6.53412
6.30634
9.31213
9.17561
9.06971
9.00091
8.95329
8.92201
8.89951
8.88337
8.8712
8.85999
8.32854
8.32768
8.32634
8.3251
8.32428
8.32391
8.32394
8.32446
8.32557
8.32593
7.05163
6.81256
6.55876
6.30941
6.09479
5.9227
5.78988
5.68883
5.61303
5.56108
11.6859
11.0131
10.2401
9.43948
8.71813
8.11273
7.62749
7.24698
6.94611
6.71967
16.5167
15.0544
13.4535
11.8915
10.558
9.47453
8.62727
7.97978
7.48889
7.13427
21.6064
19.0225
16.3995
13.9913
12.0477
10.5265
9.37819
8.53189
7.8998
7.45
27.8284
23.5136
19.5094
16.0232
13.3459
11.3152
9.83232
8.77425
8.02166
7.5069
33.7341
27.3924
22.005
17.5322
14.2552
11.8371
10.1281
8.94902
8.12207
7.56653
37.303
28.7354
22.1605
17.0319
13.5203
11.0599
9.42961
8.36042
7.65567
7.19049
24.4095
17.2589
12.7364
9.89669
8.31688
7.36861
6.80133
6.44381
6.20279
6.04344
9.03914
8.95727
8.88655
8.83617
8.79923
8.77276
8.75279
8.73779
8.72622
8.71577
8.17885
8.17952
8.18001
8.18055
8.1812
8.18193
8.18274
8.18377
8.18532
8.18662
5.6476
5.60477
5.55145
5.49165
5.43408
5.38375
5.34229
5.30923
5.28427
5.26859
7.56517
7.38304
7.13476
6.86027
6.60259
6.38283
6.20569
6.06538
5.95034
5.86097
10.0418
9.54938
8.91777
8.26588
7.68696
7.21002
6.83429
6.54461
6.32176
6.15943
12.7959
11.8454
10.7059
9.60501
8.68229
7.95436
7.40325
6.99573
6.68462
6.45819
16.3821
14.6706
12.7726
11.0378
9.65113
8.59296
7.81715
7.26098
6.85892
6.57952
19.883
17.2701
14.5612
12.2108
10.4179
9.09321
8.15313
7.50177
7.03346
6.71022
22.0883
18.4057
14.9483
12.1563
10.1713
8.78469
7.85593
7.23749
6.81822
6.53376
14.3445
11.5013
9.38705
8.01532
7.18563
6.65525
6.3126
6.08625
5.92591
5.81884
8.78501
8.73965
8.69606
8.6611
8.63316
8.61142
8.59424
8.58083
8.57024
8.56086
8.0282
8.02896
8.02962
8.03034
8.03114
8.03196
8.03278
8.03375
8.03524
8.03693
5.22507
5.21634
5.20431
5.18823
5.17092
5.15473
5.14092
5.12984
5.12215
5.11853
5.87793
5.83742
5.77442
5.69791
5.62223
5.55613
5.5023
5.45878
5.42019
5.38804
6.99211
6.8424
6.62853
6.39542
6.18066
5.99914
5.8523
5.73556
5.6428
5.57416
8.33662
8.00949
7.57554
7.14017
6.76531
6.46477
6.23287
6.05733
5.91691
5.8107
10.256
9.59447
8.78649
8.02323
7.39606
6.91013
6.54633
6.27866
6.07849
5.93641
12.2023
11.1433
9.91536
8.81785
7.95601
7.311
6.84348
6.5115
6.26197
6.08349
13.5058
11.9468
10.3142
8.96118
7.96651
7.25933
6.77031
6.43331
6.19606
6.03091
9.39941
8.36401
7.48132
6.86006
6.44044
6.15013
5.94789
5.80824
5.70437
5.63495
8.55032
8.52625
8.49993
8.47602
8.45527
8.43799
8.42373
8.4122
8.40287
8.39479
7.86998
7.87058
7.87107
7.87162
7.87223
7.87285
7.87344
7.87417
7.8754
7.87708
5.08407
5.08085
5.07623
5.06971
5.06254
5.05583
5.05024
5.04605
5.04383
5.04372
5.25962
5.25364
5.24071
5.22167
5.20155
5.18403
5.17043
5.15969
5.14847
5.13761
5.71845
5.67992
5.61612
5.54048
5.46699
5.40229
5.34787
5.30292
5.26603
5.23837
6.30777
6.2122
6.07018
5.91968
5.78486
5.67299
5.58361
5.5136
5.45388
5.40631
7.23955
7.01074
6.70915
6.41207
6.15853
5.95469
5.79551
5.67338
5.57828
5.50964
8.232
7.84404
7.35392
6.90017
6.53029
6.24351
6.02662
5.86637
5.73892
5.64413
8.97486
8.36614
7.68127
7.09198
6.63834
6.30178
6.05725
5.88119
5.75248
5.66135
7.16674
6.80669
6.44986
6.16946
5.95854
5.801
5.68356
5.59924
5.53347
5.48987
8.32627
8.31319
8.29711
8.28092
8.26586
8.25259
8.24119
8.23167
8.22377
8.2171
7.70192
7.70235
7.70268
7.70305
7.70345
7.70384
7.7042
7.70466
7.70562
7.70707
5.02983
5.02699
5.02347
5.01921
5.01493
5.01118
5.00827
5.00635
5.00581
5.00652
5.03544
5.03478
5.03195
5.02672
5.02127
5.01728
5.01524
5.01429
5.01197
5.00846
5.21946
5.2099
5.19032
5.16475
5.13874
5.11515
5.0948
5.07757
5.06324
5.05242
5.47073
5.44611
5.40272
5.35319
5.30678
5.26688
5.23407
5.20773
5.18347
5.16271
5.90077
5.8285
5.7246
5.61566
5.5177
5.43487
5.36696
5.31263
5.2689
5.23721
6.37804
6.2533
6.07677
5.90369
5.75448
5.63241
5.53517
5.4603
5.39706
5.34804
6.79599
6.57821
6.31504
6.07434
5.87728
5.72256
5.60404
5.5151
5.44808
5.40047
6.16211
6.03228
5.88481
5.75593
5.64966
5.56457
5.4972
5.44719
5.40627
5.37964
8.10403
8.09668