/*--------------------------------*- C++ -*----------------------------------*\
| =========                 |                                                 |
| \\      /  F ield         | foam-extend: Open Source CFD                    |
|  \\    /   O peration     | Version:     4.0                                |
|   \\  /    A nd           | Web:         http://www.foam-extend.org         |
|    \\/     M anipulation  |                                                 |
\*---------------------------------------------------------------------------*/
FoamFile
{
    version     2.0;
    format      ascii;
    class       volScalarField;
    location    "800";
    object      MaU;
}
// * * * * * * * * * * * * * * * * * * * * * * * * * * * * * * * * * * * * * //

dimensions      [0 0 0 0 0 0 0];

internalField   nonuniform List<scalar> 
34480
(
0.618047
0.619075
0.619658
0.619834
0.619608
0.618912
0.617616
0.615047
0.609166
0.603567
0.621007
0.621932
0.622495
0.62264
0.622213
0.621075
0.619245
0.616463
0.609652
0.604431
0.622907
0.623783
0.6243
0.624374
0.623833
0.62271
0.621161
0.619091
0.612312
0.607708
0.623026
0.623918
0.624503
0.624708
0.624396
0.623684
0.62265
0.62133
0.614984
0.610992
0.623717
0.624695
0.625397
0.625801
0.625794
0.62555
0.625073
0.62456
0.619044
0.615645
0.623608
0.624616
0.625371
0.625879
0.62609
0.626243
0.626311
0.626654
0.622369
0.619872
0.624063
0.625178
0.62601
0.626636
0.627044
0.627539
0.628123
0.629323
0.626533
0.624896
0.623653
0.624786
0.625558
0.626067
0.626367
0.626833
0.627598
0.629376
0.628153
0.627742
0.623402
0.62469
0.625584
0.626252
0.626764
0.62743
0.62849
0.630817
0.630936
0.630485
0.619619
0.620657
0.620765
0.620041
0.618657
0.61699
0.615487
0.615432
0.615222
0.61702
0.608181
0.609666
0.610279
0.610085
0.609011
0.606784
0.602783
0.595656
0.585132
0.571506
0.612403
0.613789
0.614401
0.614239
0.613111
0.61065
0.606258
0.598565
0.586084
0.570217
0.615268
0.616583
0.617176
0.617023
0.615873
0.613424
0.609157
0.601677
0.588411
0.571508
0.616217
0.617541
0.6182
0.618184
0.617251
0.615161
0.611317
0.604308
0.590702
0.573491
0.617601
0.618987
0.619746
0.61992
0.619277
0.617639
0.614329
0.608001
0.594535
0.57757
0.618035
0.619443
0.620257
0.620548
0.620126
0.6189
0.616144
0.610631
0.597756
0.581644
0.618944
0.620432
0.621316
0.621734
0.621521
0.620669
0.618467
0.613839
0.601933
0.586949
0.618863
0.620361
0.621199
0.621532
0.621271
0.620496
0.618608
0.614726
0.604051
0.590798
0.618884
0.620486
0.62142
0.621887
0.621833
0.621323
0.619863
0.616771
0.607418
0.595023
0.615306
0.616726
0.617118
0.61659
0.615196
0.613086
0.609981
0.605613
0.596754
0.587528
0.60059
0.602173
0.602767
0.602489
0.601302
0.599049
0.595432
0.589952
0.581966
0.571852
0.605174
0.606766
0.607395
0.6071
0.605761
0.603115
0.598649
0.591482
0.580155
0.56506
0.608392
0.609994
0.610644
0.610381
0.609022
0.606245
0.601419
0.593399
0.57951
0.559855
0.609849
0.611513
0.612242
0.612097
0.610879
0.608264
0.603465
0.595068
0.579086
0.555415
0.611714
0.613459
0.614286
0.614312
0.61332
0.611018
0.606477
0.598104
0.580671
0.553789
0.612563
0.614349
0.615243
0.615387
0.614589
0.612611
0.608427
0.60036
0.582081
0.55289
0.613833
0.615692
0.616655
0.616933
0.616332
0.614684
0.610926
0.603365
0.584813
0.554008
0.614052
0.615921
0.616858
0.617081
0.616459
0.614911
0.611444
0.604438
0.58614
0.554541
0.614352
0.616282
0.617292
0.617619
0.61715
0.615823
0.612748
0.606445
0.588851
0.555914
0.611028
0.612787
0.613396
0.612983
0.611528
0.609033
0.604832
0.597779
0.580765
0.548304
0.59508
0.596466
0.596961
0.596684
0.595631
0.593745
0.590924
0.58707
0.582151
0.576638
0.599468
0.600978
0.601546
0.601201
0.599872
0.59741
0.593556
0.587941
0.5801
0.571112
0.602607
0.604245
0.604869
0.604521
0.603077
0.600303
0.595761
0.588802
0.578243
0.565307
0.604276
0.606053
0.606768
0.606493
0.605069
0.60222
0.597318
0.589407
0.576245
0.559089
0.60641
0.608309
0.609121
0.608975
0.607675
0.604939
0.599952
0.591493
0.576128
0.555029
0.60754
0.609513
0.610397
0.61035
0.609178
0.606615
0.601699
0.59301
0.575886
0.551355
0.609075
0.611128
0.612079
0.612153
0.611135
0.6088
0.604086
0.595428
0.57706
0.54963
0.609546
0.611614
0.612554
0.612592
0.611561
0.609289
0.604727
0.596265
0.577243
0.547601
0.610085
0.612184
0.613178
0.613302
0.612394
0.610283
0.605933
0.59784
0.578852
0.546741
0.607019
0.608962
0.609675
0.609272
0.607677
0.604766
0.599667
0.590986
0.572216
0.538971
0.591281
0.592374
0.592751
0.592535
0.591746
0.590391
0.588484
0.58609
0.583349
0.580618
0.595171
0.59645
0.596927
0.596619
0.595495
0.593499
0.590553
0.586608
0.581694
0.57678
0.59792
0.599436
0.600003
0.599655
0.598319
0.595864
0.592065
0.586681
0.579405
0.571693
0.599532
0.60127
0.601946
0.601622
0.600188
0.597454
0.593017
0.5864
0.576636
0.565531
0.601704
0.603625
0.604405
0.604164
0.602745
0.599921
0.595103
0.587563
0.57545
0.560793
0.602951
0.604994
0.605857
0.605688
0.604316
0.601495
0.596466
0.588286
0.574061
0.555952
0.604623
0.606774
0.607707
0.607637
0.60636
0.603637
0.598566
0.590013
0.574037
0.552702
0.605265
0.607447
0.608385
0.608291
0.606993
0.604274
0.599178
0.590465
0.57325
0.549111
0.605988
0.608191
0.60917
0.609144
0.607935
0.605322
0.600303
0.591585
0.573792
0.546647
0.60316
0.605218
0.606005
0.60561
0.603927
0.600764
0.595232
0.586006
0.568011
0.538846
0.588721
0.589535
0.589804
0.589655
0.589118
0.588224
0.587021
0.585598
0.584081
0.582605
0.59206
0.593051
0.593424
0.593182
0.59232
0.590837
0.588747
0.586122
0.583135
0.580398
0.594286
0.595575
0.596057
0.595752
0.594624
0.592623
0.589682
0.585791
0.581033
0.576468
0.595669
0.597242
0.597846
0.597525
0.596212
0.593802
0.5901
0.58496
0.578154
0.5712
0.597703
0.599515
0.60023
0.599948
0.598553
0.595895
0.591619
0.585399
0.57649
0.566815
0.598923
0.600909
0.601719
0.601477
0.600046
0.597238
0.592535
0.585432
0.574471
0.561932
0.600617
0.602747
0.603634
0.603464
0.60206
0.599217
0.594261
0.586499
0.573682
0.55826
0.601339
0.603529
0.604436
0.604245
0.602799
0.599886
0.594742
0.586534
0.572239
0.554108
0.602189
0.604404
0.605344
0.605204
0.60381
0.600941
0.595748
0.587265
0.572034
0.550973
0.599562
0.601645
0.602462
0.602069
0.600352
0.597098
0.591527
0.582561
0.566849
0.543626
0.587008
0.587604
0.587789
0.587696
0.587356
0.586802
0.58608
0.585263
0.584426
0.583564
0.589862
0.590582
0.590858
0.590685
0.590071
0.58904
0.587638
0.585956
0.584154
0.582582
0.591554
0.592577
0.592964
0.592722
0.591837
0.590312
0.58816
0.585469
0.582429
0.579702
0.59263
0.593964
0.594478
0.594194
0.593079
0.591095
0.588187
0.58439
0.579804
0.575465
0.594407
0.596019
0.596648
0.596367
0.595102
0.592773
0.589211
0.584349
0.578056
0.571762
0.595495
0.597322
0.598055
0.597784
0.596414
0.593822
0.589707
0.583881
0.575806
0.567328
0.597116
0.599126
0.599941
0.599715
0.598307
0.595566
0.59105
0.584417
0.574625
0.563822
0.597834
0.599932
0.600782
0.600532
0.599055
0.596174
0.591345
0.584091
0.57283
0.559726
0.598755
0.600895
0.601776
0.601561
0.600098
0.597197
0.592219
0.584526
0.572211
0.556616
0.596285
0.598309
0.599117
0.598731
0.597046
0.593865
0.588578
0.580416
0.567475
0.55
0.585852
0.586297
0.586422
0.586369
0.586163
0.585834
0.585414
0.584951
0.584478
0.583911
0.588329
0.588828
0.589025
0.58891
0.588497
0.587815
0.58691
0.585857
0.584758
0.583801
0.589542
0.590312
0.590607
0.590428
0.589775
0.588672
0.587167
0.585362
0.58343
0.581757
0.590309
0.591382
0.591797
0.591566
0.590676
0.589131
0.586954
0.584249
0.58121
0.578484
0.591774
0.593135
0.593664
0.593412
0.592335
0.590409
0.587589
0.583942
0.579603
0.575524
0.592663
0.594265
0.594901
0.594635
0.593407
0.591155
0.587743
0.58317
0.577396
0.571725
0.594148
0.59596
0.596684
0.596438
0.595121
0.59264
0.588747
0.583341
0.576109
0.568669
0.594787
0.596713
0.597483
0.597209
0.595796
0.593119
0.58884
0.582745
0.574203
0.564952
0.595736
0.597724
0.598526
0.598273
0.596841
0.594088
0.589586
0.582981
0.573425
0.562247
0.59338
0.595268
0.596034
0.595665
0.594075
0.591105
0.586331
0.579277
0.569072
0.556448
0.585057
0.585404
0.58549
0.585462
0.585341
0.585151
0.584911
0.584651
0.584376
0.583958
0.587261
0.587599
0.587735
0.587664
0.587399
0.586964
0.586397
0.585745
0.585061
0.584435
0.588077
0.588632
0.588849
0.588725
0.588266
0.587502
0.586486
0.585304
0.584075
0.58301
0.58858
0.589404
0.589727
0.58955
0.588874
0.587727
0.58616
0.584288
0.582292
0.580553
0.589723
0.590821
0.591248
0.591038
0.590169
0.588653
0.586513
0.583866
0.580921
0.578271
0.590389
0.59173
0.592262
0.592023
0.590982
0.589122
0.586414
0.582955
0.578908
0.575137
0.591704
0.59327
0.593891
0.593653
0.592489
0.590359
0.587156
0.582918
0.577706
0.572641
0.592207
0.593903
0.594578
0.594307
0.593027
0.590668
0.587052
0.582145
0.575846
0.569429
0.593156
0.594935
0.595643
0.595382
0.594057
0.59158
0.5877
0.582277
0.575094
0.567278
0.590873
0.592567
0.593263
0.592923
0.59148
0.588826
0.584699
0.578865
0.571089
0.562254
0.584498
0.584783
0.584844
0.584831
0.584761
0.584654
0.584518
0.584371
0.584203
0.583865
0.586513
0.58674
0.586835
0.586794
0.586629
0.586359
0.58601
0.585606
0.585165
0.584719
0.58701
0.587399
0.587553
0.587471
0.587161
0.586652
0.585986
0.585224
0.584437
0.583726
0.587317
0.587927
0.58817
0.588041
0.587551
0.586731
0.58564
0.584375
0.583071
0.581934
0.58816
0.589011
0.589342
0.589177
0.588508
0.587363
0.585796
0.58393
0.581956
0.580219
0.588607
0.589686
0.590114
0.589913
0.589071
0.5876
0.585533
0.582997
0.580206
0.577701
0.589749
0.59105
0.591563
0.591351
0.590372
0.588625
0.586093
0.582883
0.579198
0.575776
0.590076
0.591512
0.592081
0.591833
0.590729
0.588743
0.585812
0.582004
0.577467
0.573077
0.591016
0.592549
0.593153
0.592907
0.59174
0.589613
0.586407
0.582124
0.576865
0.571508
0.588771
0.590231
0.59084
0.590538
0.589279
0.587002
0.583574
0.578932
0.573175
0.567154
0.584094
0.58434
0.584385
0.58438
0.584341
0.58428
0.584203
0.584119
0.584011
0.583719
0.585981
0.586138
0.586206
0.586184
0.586084
0.58592
0.585707
0.585454
0.585155
0.584806
0.586223
0.586491
0.586598
0.586547
0.586345
0.586015
0.585589
0.585105
0.584593
0.584089
0.586411
0.58685
0.587027
0.586939
0.586596
0.58603
0.58529
0.584452
0.5836
0.582833
0.586988
0.587625
0.587873
0.587749
0.587254
0.586421
0.58531
0.584027
0.582716
0.581564
0.587243
0.588078
0.58841
0.58825
0.587597
0.58648
0.584953
0.583146
0.581249
0.579581
0.588227
0.589268
0.589678
0.5895
0.588714
0.587338
0.585407
0.583049
0.580488
0.578186
0.588353
0.589523
0.589986
0.589772
0.588861
0.587257
0.584969
0.582111
0.578909
0.575941
0.589292
0.590567
0.591064
0.590848
0.589866
0.588115
0.585567
0.582299
0.578535
0.574923
0.587059
0.588267
0.58878
0.588522
0.587465
0.585586
0.582843
0.579277
0.575124
0.571115
0.583795
0.584015
0.584049
0.584049
0.584026
0.583992
0.583949
0.5839
0.583826
0.583562
0.5856
0.585714
0.585765
0.585755
0.585696
0.585597
0.585467
0.585305
0.58509
0.584793
0.585627
0.585812
0.585886
0.585854
0.585726
0.585518
0.585251
0.584946
0.584608
0.584227
0.585769
0.586081
0.586207
0.586149
0.585917
0.585537
0.585048
0.584501
0.583943
0.583404
0.586119
0.586581
0.58676
0.586671
0.586318
0.585732
0.584967
0.584104
0.583242
0.582464
0.586219
0.586843
0.587091
0.58697
0.586483
0.585664
0.584572
0.583316
0.582042
0.580926
0.587074
0.587879
0.588194
0.588054
0.587447
0.586404
0.584979
0.583294
0.581543
0.579997
0.586986
0.587902
0.588265
0.588089
0.587368
0.586123
0.584397
0.582318
0.580102
0.578114
0.587949
0.588971
0.589367
0.589187
0.588395
0.587011
0.585056
0.582641
0.580005
0.577599
0.585702
0.586662
0.587078
0.586866
0.586012
0.58452
0.582401
0.579751
0.576826
0.574214
0.583566
0.583767
0.583793
0.583795
0.583782
0.583763
0.583738
0.583709
0.583656
0.583415
0.585328
0.585417
0.585457
0.585454
0.58542
0.585361
0.585281
0.585173
0.585008
0.58474
0.585156
0.585285
0.585336
0.585317
0.585238
0.58511
0.584946
0.584755
0.584526
0.58422
0.585322
0.585541
0.58563
0.585594
0.585442
0.585194
0.584877
0.584524
0.584156
0.583757
0.585477
0.585804
0.585929
0.585867
0.585623
0.585224
0.584711
0.584143
0.583581
0.583043
0.585462
0.585914
0.586093
0.586005
0.585655
0.585074
0.584315
0.583463
0.582619
0.581864
0.586222
0.586824
0.587059
0.586953
0.586502
0.585739
0.584721
0.583549
0.58237
0.581329
0.585911
0.586602
0.586876
0.586738
0.586189
0.585258
0.583998
0.58253
0.581025
0.579704
0.586938
0.587731
0.588034
0.587892
0.587279
0.586226
0.584778
0.583045
0.581237
0.57965
0.584656
0.585385
0.585711
0.585543
0.584879
0.583738
0.582156
0.580248
0.578235
0.576571
0.583382
0.583567
0.583586
0.583589
0.583582
0.583571
0.583557
0.583539
0.5835
0.583278
0.58514
0.585216
0.58525
0.585251
0.585231
0.585195
0.585145
0.58507
0.584937
0.584684
0.584762
0.584855
0.584889
0.584878
0.58483
0.584753
0.584655
0.584537
0.584378
0.584121
0.585015
0.58517
0.585233
0.585212
0.585115
0.584956
0.584755
0.58453
0.584284
0.583975
0.585002
0.585227
0.585312
0.585269
0.585106
0.584842
0.584507
0.584143
0.58378
0.583397
0.58491
0.585229
0.585355
0.585292
0.585049
0.58465
0.584137
0.583573
0.58302
0.582502
0.585608
0.586043
0.586212
0.586135
0.585813
0.585274
0.584569
0.583774
0.582995
0.58229
0.585065
0.585566
0.585766
0.585662
0.585259
0.584587
0.583697
0.582689
0.581687
0.580816
0.586212
0.586806
0.587031
0.586924
0.586468
0.585696
0.584658
0.583451
0.582237
0.581197
0.583862
0.584392
0.584637
0.58451
0.584013
0.583171
0.58203
0.580698
0.579343
0.57831
0.583216
0.583385
0.583399
0.583402
0.583398
0.583392
0.583384
0.583373
0.583344
0.583143
0.585027
0.585096
0.585126
0.585129
0.585117
0.585095
0.585062
0.585007
0.584895
0.584652
0.58441
0.584478
0.5845
0.584493
0.584465
0.58442
0.584363
0.584292
0.58418
0.583958
0.584811
0.584922
0.584966
0.584954
0.584894
0.584795
0.58467
0.584528
0.584362
0.584112
0.584649
0.584801
0.584856
0.584828
0.584722
0.584552
0.58434
0.584111
0.583879
0.5836
0.584518
0.584736
0.584822
0.58478
0.584616
0.58435
0.584013
0.583647
0.58329
0.58293
0.585174
0.585478
0.585595
0.585541
0.585319
0.584951
0.584477
0.583954
0.583449
0.58297
0.584389
0.584738
0.584879
0.584803
0.584519
0.58405
0.58344
0.582768
0.582113
0.581545
0.585724
0.586157
0.586317
0.58624
0.585913
0.585368
0.584649
0.583832
0.583034
0.582356
0.583255
0.583622
0.583801
0.583708
0.58335
0.582752
0.581954
0.581053
0.580162
0.57954
0.583026
0.583176
0.583185
0.583188
0.583186
0.583183
0.583178
0.583172
0.583151
0.582974
0.584991
0.585056
0.585082
0.585086
0.585079
0.585065
0.585042
0.585
0.584904
0.58467
0.584074
0.584124
0.584138
0.584132
0.584115
0.58409
0.584059
0.584018
0.58394
0.583749
0.584682
0.584762
0.584792
0.584786
0.584749
0.584689
0.584612
0.584524
0.584413
0.584206
0.584392
0.584493
0.584528
0.58451
0.584443
0.584337
0.584205
0.584065
0.583919
0.583711
0.584253
0.5844
0.584457
0.584429
0.584323
0.584151
0.583934
0.583702
0.583475
0.58322
0.584874
0.585078
0.585156
0.585119
0.58497
0.584727
0.58442
0.584085
0.583768
0.583443
0.583838
0.584073
0.584169
0.584116
0.583922
0.583606
0.583199
0.582762
0.582341
0.581978
0.585441
0.585747
0.585857
0.585804
0.585579
0.585207
0.584725
0.584188
0.583677
0.583234
0.582751
0.582993
0.58312
0.583054
0.582806
0.582395
0.581856
0.581265
0.580689
0.580331
0.582707
0.582836
0.582841
0.582843
0.582842
0.582841
0.582839
0.582836
0.582823
0.582676
0.585053
0.585116
0.585139
0.585143
0.585138
0.585128
0.585111
0.585078
0.584996
0.584773
0.583748
0.583785
0.583793
0.583789
0.583779
0.583765
0.583749
0.583727
0.583674
0.583513
0.584606
0.584663
0.584681
0.584677
0.584655
0.58462
0.584575
0.584523
0.584451
0.584283
0.584221
0.584287
0.584309
0.584298
0.584257
0.584192
0.584112
0.584028
0.583937
0.583781
0.584103
0.5842
0.584238
0.584221
0.584154
0.584045
0.583909
0.583764
0.583619
0.583439
0.584678
0.584808
0.584856
0.58483
0.584734
0.584579
0.584385
0.584179
0.583988
0.583772
0.583408
0.583562
0.583628
0.583594
0.583466
0.583258
0.582993
0.582712
0.582441
0.582214
0.585357
0.585567
0.58564
0.585604
0.585454
0.58521
0.584897
0.584554
0.584236
0.583943
0.582215
0.582368
0.582457
0.582412
0.582246
0.581973
0.581618
0.58124
0.580871
0.580679
0.582044
0.582139
0.582141
0.582142
0.582142
0.582143
0.582144
0.582143
0.582139
0.582027
0.585278
0.585338
0.585355
0.585358
0.585355
0.585347
0.585335
0.58531
0.585243
0.585038
0.583475
0.583504
0.583513
0.583513
0.583508
0.583499
0.583488
0.583473
0.583435
0.583305
0.584565
0.584601
0.58461
0.584606
0.584592
0.584571
0.584546
0.584518
0.584477
0.584351
0.584131
0.584176
0.584192
0.584186
0.584161
0.584121
0.584072
0.584019
0.583961
0.583847
0.584058
0.584124
0.584149
0.584139
0.584097
0.584029
0.583943
0.583852
0.58376
0.583633
0.584569
0.584646
0.584674
0.584656
0.584594
0.584497
0.584378
0.584254
0.584144
0.584011
0.583174
0.583279
0.583327
0.583307
0.583225
0.58309
0.582917
0.582734
0.58255
0.582405
0.585525
0.585662
0.585709
0.585684
0.585586
0.585428
0.585231
0.585018
0.584828
0.584634
0.581421
0.581516
0.581578
0.58155
0.581441
0.581263
0.581032
0.580793
0.58055
0.580456
0.580703
0.580775
0.580778
0.580781
0.580782
0.580782
0.580782
0.58078
0.580779
0.580701
0.585807
0.58585
0.585853
0.58585
0.585845
0.58584
0.585835
0.585825
0.585787
0.585622
0.583366
0.5834
0.583418
0.583425
0.583424
0.583416
0.583402
0.583381
0.583343
0.583234
0.584528
0.584546
0.584547
0.584542
0.584532
0.584519
0.584505
0.584491
0.584473
0.584395
0.584105
0.584138
0.584152
0.58415
0.584135
0.584109
0.584075
0.584037
0.583996
0.583916
0.584088
0.584134
0.584153
0.584148
0.584121
0.584076
0.584019
0.583957
0.583894
0.583807
0.584523
0.584568
0.584584
0.584571
0.584531
0.584468
0.584391
0.584314
0.58425
0.584178
0.583289
0.583372
0.58341
0.583401
0.583347
0.583257
0.583139
0.583011
0.582873
0.582759
0.586066
0.586146
0.586173
0.586153
0.586088
0.585984
0.585858
0.585727
0.585622
0.585511
0.580089
0.580155
0.580201
0.580182
0.58011
0.579991
0.579838
0.57968
0.579507
0.579458
0.578813
0.578856
0.578869
0.578877
0.578879
0.578876
0.578867
0.578853
0.578834
0.578774
0.586677
0.586667
0.586644
0.586627
0.586618
0.586616
0.586623
0.586638
0.586654
0.586597
0.583488
0.58354
0.583569
0.583583
0.583585
0.583576
0.583556
0.583523
0.58347
0.583371
0.584454
0.584458
0.584456
0.584451
0.584444
0.584433
0.584422
0.584412
0.584403
0.584373
0.584092
0.584121
0.584134
0.584135
0.584124
0.584104
0.584075
0.584042
0.584005
0.58395
0.584116
0.584152
0.584168
0.584166
0.584147
0.584113
0.584069
0.584019
0.583967
0.583906
0.584476
0.584507
0.584519
0.58451
0.58448
0.584433
0.584376
0.584317
0.58427
0.584232
0.583741
0.583819
0.583854
0.583849
0.58381
0.583742
0.583652
0.58355
0.583431
0.583312
0.586959
0.586993
0.587007
0.586989
0.586939
0.586862
0.58677
0.586682
0.586627
0.586612
0.578335
0.578395
0.578431
0.578418
0.578363
0.578273
0.57816
0.57804
0.577908
0.577861
0.435195
0.414553
0.421385
0.462129
0.387759
0.364601
0.375478
0.432483
0.345141
0.318033
0.335105
0.413759
0.307593
0.278181
0.302143
0.403194
0.276526
0.246376
0.277456
0.401019
0.249899
0.220143
0.259698
0.396697
0.22843
0.200441
0.248689
0.394085
0.208268
0.183703
0.240709
0.392005
0.190536
0.171958
0.237166
0.393638
0.171229
0.160665
0.232808
0.389033
0.49484
0.484656
0.484944
0.494566
0.46448
0.451849
0.452905
0.465437
0.434087
0.41733
0.419396
0.436768
0.405566
0.384534
0.38793
0.410406
0.381328
0.355764
0.360755
0.388535
0.359706
0.329186
0.334585
0.367519
0.342154
0.306603
0.311748
0.349744
0.326018
0.285626
0.290233
0.333187
0.312782
0.268313
0.272357
0.31969
0.297712
0.250737
0.252251
0.302126
0.561462
0.559226
0.558683
0.559799
0.543573
0.539833
0.539092
0.541339
0.523989
0.518052
0.517176
0.521416
0.502249
0.493929
0.493037
0.499744
0.4817
0.470908
0.470162
0.479744
0.461019
0.447605
0.447017
0.459542
0.442427
0.426314
0.425859
0.441304
0.424109
0.40542
0.405063
0.423247
0.408162
0.387758
0.387399
0.407485
0.389526
0.369525
0.368392
0.387992
0.573745
0.572642
0.572286
0.572633
0.563823
0.562361
0.561837
0.562182
0.552301
0.549771
0.549008
0.549861
0.537987
0.53415
0.533187
0.53484
0.523973
0.518679
0.51759
0.520354
0.50877
0.501883
0.500715
0.504852
0.494491
0.48594
0.484736
0.490451
0.479473
0.469332
0.468146
0.475516
0.465538
0.454428
0.453265
0.461922
0.447963
0.437844
0.436384
0.444569
0.580533
0.579927
0.579722
0.579908
0.574351
0.57383
0.573575
0.573575
0.567156
0.566176
0.565719
0.565764
0.557482
0.555807
0.555113
0.555337
0.547927
0.545381
0.544459
0.545035
0.536982
0.533418
0.532294
0.533404
0.526557
0.521885
0.5206
0.522435
0.515048
0.50929
0.507914
0.510616
0.504135
0.497709
0.496314
0.499792
0.48963
0.484306
0.482758
0.485675
0.583118
0.582632
0.582483
0.582665
0.579307
0.579064
0.578935
0.578918
0.574468
0.574018
0.573776
0.573738
0.567642
0.56685
0.566443
0.566407
0.560969
0.559705
0.559102
0.559121
0.552987
0.551124
0.550311
0.550466
0.545448
0.54289
0.54188
0.54228
0.536805
0.533534
0.532378
0.533141
0.528602
0.524873
0.52367
0.524837
0.516927
0.514289
0.512991
0.513486
0.5843
0.583863
0.583737
0.583921
0.582055
0.581938
0.581869
0.581851
0.578737
0.578519
0.578391
0.578355
0.573736
0.573342
0.573118
0.57306
0.568889
0.568243
0.567889
0.567817
0.562857
0.561872
0.561358
0.561291
0.557288
0.555888
0.555205
0.555185
0.550722
0.548879
0.548051
0.548148
0.544748
0.542587
0.541694
0.541981
0.53531
0.534246
0.533295
0.532816
0.584724
0.584303
0.584187
0.584373
0.583495
0.583426
0.583384
0.58337
0.581229
0.581111
0.581039
0.581015
0.577553
0.57734
0.577213
0.577173
0.573984
0.573632
0.573427
0.573367
0.569319
0.568774
0.568465
0.568384
0.565133
0.564346
0.563916
0.563825
0.560067
0.559014
0.558471
0.558403
0.55582
0.554557
0.553946
0.553951
0.54802
0.547882
0.547249
0.546448
0.584795
0.58438
0.584267
0.584456
0.584228
0.584181
0.584152
0.584141
0.582684
0.582611
0.582567
0.582552
0.580001
0.579875
0.579799
0.579775
0.57738
0.577177
0.577056
0.577018
0.573758
0.573442
0.573256
0.5732
0.57062
0.570161
0.569897
0.569821
0.566665
0.566049
0.565707
0.565627
0.56367
0.562923
0.562526
0.562467
0.557101
0.557495
0.557107
0.556243
0.584698
0.584282
0.584171
0.584363
0.584551
0.584512
0.584489
0.584483
0.583491
0.583438
0.583407
0.583401
0.581565
0.581481
0.581432
0.58142
0.579654
0.579525
0.57945
0.579431
0.576849
0.576654
0.57654
0.576507
0.574546
0.574265
0.574101
0.574054
0.571434
0.571062
0.570849
0.570792
0.569371
0.568917
0.568666
0.568616
0.563752
0.564438
0.564216
0.563379
0.584533
0.584113
0.584002
0.584199
0.584647
0.584609
0.584589
0.584588
0.583893
0.583847
0.583824
0.583825
0.582553
0.582488
0.582454
0.582451
0.581167
0.581077
0.581028
0.581022
0.579007
0.578877
0.578804
0.57879
0.577379
0.577195
0.577091
0.577068
0.574902
0.574665
0.574532
0.574502
0.573573
0.573286
0.573129
0.573102
0.568692
0.569523
0.569405
0.568621
0.584347
0.583922
0.583811
0.584014
0.584625
0.584584
0.584565
0.58457
0.58404
0.583996
0.583977
0.583985
0.583162
0.583106
0.58308
0.583085
0.582154
0.582083
0.58205
0.582054
0.580503
0.580406
0.580358
0.580358
0.579421
0.57929
0.579223
0.579218
0.57741
0.57725
0.577165
0.577156
0.576685
0.576494
0.576396
0.576391
0.572375
0.573263
0.573208
0.572481
0.584164
0.583731
0.583621
0.583831
0.584552
0.584506
0.584487
0.584497
0.584028
0.583982
0.583966
0.583981
0.583529
0.583475
0.583453
0.583465
0.582776
0.582715
0.582691
0.582704
0.581522
0.581444
0.58141
0.581421
0.580882
0.580781
0.580736
0.580745
0.579191
0.579075
0.57902
0.579028
0.578987
0.578852
0.57879
0.578802
0.57511
0.576
0.575979
0.575312
0.583988
0.583548
0.583438
0.583655
0.584472
0.584419
0.5844
0.584416
0.583917
0.583868
0.583854
0.583874
0.583744
0.583689
0.58367
0.583688
0.583148
0.583091
0.583073
0.583093
0.582202
0.582133
0.582108
0.582128
0.581916
0.581832
0.581801
0.581822
0.580416
0.580325
0.580289
0.580309
0.580684
0.58058
0.580541
0.580566
0.57712
0.577971
0.57797
0.577364
0.583809
0.583363
0.583256
0.58348
0.584414
0.584355
0.584336
0.584356
0.58374
0.583688
0.583675
0.583701
0.583871
0.583813
0.583797
0.58382
0.583354
0.583298
0.583284
0.58331
0.582648
0.582583
0.582564
0.582592
0.582638
0.582564
0.582543
0.582573
0.581213
0.581136
0.581112
0.581142
0.581934
0.581849
0.581825
0.58186
0.578562
0.579347
0.579354
0.578814
0.583594
0.583144
0.583041
0.583273
0.584408
0.584343
0.584323
0.584347
0.583518
0.583464
0.583452
0.583482
0.583954
0.583894
0.583879
0.583908
0.583462
0.583405
0.583393
0.583426
0.582945
0.582881
0.582867
0.582902
0.583141
0.583073
0.583058
0.583096
0.581689
0.58162
0.581603
0.58164
0.582873
0.582799
0.582783
0.582826
0.579537
0.580232
0.580241
0.579774
0.583243
0.582796
0.582702
0.58294
0.584489
0.584419
0.584398
0.584425
0.583274
0.583217
0.583207
0.583241
0.584025
0.583963
0.58395
0.583985
0.583527
0.583468
0.583458
0.583497
0.583168
0.583104
0.583093
0.583133
0.583499
0.583437
0.583428
0.583471
0.581953
0.581889
0.581876
0.581917
0.583628
0.583561
0.583551
0.583599
0.580057
0.58064
0.580648
0.580261
0.582532
0.582102
0.582023
0.58226
0.584738
0.584665
0.584644
0.584674
0.583058
0.583001
0.58299
0.583026
0.584098
0.584038
0.584029
0.584069
0.583594
0.583535
0.583527
0.583569
0.583374
0.583311
0.583301
0.583346
0.583777
0.583722
0.583717
0.583763
0.58216
0.582096
0.582085
0.582127
0.584362
0.584302
0.584296
0.584345
0.58
0.580449
0.580453
0.580154
0.581113
0.580736
0.58068
0.580897
0.585322
0.58525
0.585232
0.585267
0.58298
0.58292
0.582908
0.582942
0.584172
0.584119
0.584113
0.584156
0.583684
0.583628
0.583621
0.583662
0.583579
0.583521
0.583513
0.583557
0.584002
0.583958
0.583956
0.583998
0.582506
0.58244
0.582428
0.582469
0.585313
0.585263
0.585261
0.585308
0.579132
0.579416
0.579414
0.579222
0.579011
0.578774
0.578747
0.578886
0.58637
0.586316
0.586313
0.586358
0.583116
0.583056
0.58304
0.583067
0.584219
0.58418
0.584179
0.584216
0.58377
0.583724
0.583718
0.583751
0.583735
0.58369
0.583684
0.583717
0.584134
0.584104
0.584104
0.584133
0.583035
0.582964
0.58295
0.58299
0.586599
0.586583
0.586588
0.586613
0.577577
0.577647
0.577642
0.5776
0.589834
0.598111
0.602087
0.605141
0.608224
0.61095
0.613164
0.614894
0.61625
0.617401
0.590276
0.593436
0.600762
0.605696
0.610095
0.613435
0.615881
0.617653
0.618926
0.619931
0.593994
0.590185
0.601076
0.606659
0.611854
0.61538
0.617911
0.619722
0.620987
0.621923
0.597318
0.5863
0.600868
0.606345
0.612135
0.61563
0.618167
0.619945
0.621183
0.622093
0.601639
0.584297
0.601621
0.606924
0.613203
0.616589
0.619123
0.620835
0.621997
0.622831
0.604618
0.581638
0.601472
0.606356
0.61315
0.616393
0.618969
0.620647
0.621822
0.622694
0.608509
0.58037
0.602387
0.606626
0.61389
0.616911
0.619526
0.621154
0.622297
0.62313
0.609985
0.577342
0.601497
0.605022
0.612831
0.61569
0.618473
0.620184
0.621516
0.622565
0.611599
0.575878
0.60196
0.604147
0.612094
0.614484
0.617501
0.619366
0.620899
0.622132
0.59605
0.560132
0.588808
0.591324
0.601131
0.605103
0.609823
0.612981
0.615563
0.617579
0.532848
0.554675
0.570861
0.582367
0.590244
0.595731
0.5997
0.602665
0.604958
0.606872
0.518773
0.54902
0.570888
0.584653
0.593406
0.59934
0.603556
0.606626
0.60888
0.610579
0.508579
0.545899
0.571963
0.586762
0.596086
0.602266
0.606606
0.609723
0.611957
0.613577
0.500323
0.542983
0.572253
0.587389
0.597127
0.60339
0.607744
0.61083
0.613023
0.6146
0.495967
0.542245
0.573597
0.588853
0.598916
0.605156
0.609471
0.612471
0.614571
0.616063
0.492887
0.54126
0.574152
0.589221
0.599571
0.605723
0.610004
0.612931
0.614998
0.616492
0.492527
0.541738
0.575773
0.590375
0.600943
0.606908
0.611133
0.613968
0.615972
0.617416
0.491755
0.540832
0.575833
0.589783
0.600579
0.606357
0.610618
0.613472
0.615591
0.617194
0.492278
0.54118
0.577045
0.589732
0.600321
0.605625
0.609987
0.612965
0.615252
0.617033
0.483196
0.531178
0.567795
0.57999
0.591601
0.59793
0.60349
0.607403
0.610451
0.612712
0.563679
0.569854
0.575854
0.581166
0.585698
0.589488
0.592629
0.595225
0.597402
0.599286
0.550125
0.56135
0.571414
0.579657
0.58627
0.591485
0.595562
0.598739
0.601205
0.603103
0.537238
0.554169
0.568362
0.57912
0.587337
0.593523
0.598188
0.601714
0.604361
0.606321
0.524364
0.546985
0.565147
0.577998
0.587476
0.594312
0.599323
0.603026
0.605768
0.607769
0.514693
0.542342
0.563928
0.578373
0.588777
0.596008
0.601195
0.60495
0.607694
0.60967
0.506031
0.53799
0.56254
0.578133
0.589237
0.596691
0.601973
0.605741
0.608493
0.610491
0.500157
0.535609
0.562641
0.578948
0.590539
0.598051
0.603351
0.607081
0.609802
0.611774
0.494593
0.532687
0.561807
0.578451
0.590384
0.597865
0.603203
0.606961
0.609771
0.611867
0.491007
0.531424
0.56226
0.578557
0.590375
0.597573
0.602974
0.606836
0.609776
0.612015
0.480987
0.522571
0.554605
0.570846
0.58337
0.5913
0.597525
0.602056
0.605529
0.608043
0.573371
0.575736
0.5786
0.58151
0.584254
0.586739
0.588937
0.590862
0.592564
0.59412
0.56422
0.56892
0.574288
0.579406
0.583928
0.58778
0.590998
0.593653
0.595814
0.597535
0.553919
0.561872
0.570189
0.577546
0.583719
0.588752
0.592802
0.596028
0.598561
0.600501
0.541942
0.553889
0.565519
0.575112
0.582796
0.588805
0.593487
0.597121
0.599921
0.602029
0.531557
0.547771
0.562671
0.574263
0.583221
0.589974
0.595094
0.598977
0.601923
0.604108
0.521192
0.541707
0.559732
0.573036
0.583049
0.590355
0.595785
0.599834
0.602888
0.605155
0.512876
0.537501
0.558383
0.573047
0.583879
0.591543
0.597161
0.601289
0.604388
0.606674
0.504682
0.533043
0.556466
0.572124
0.583564
0.591439
0.5972
0.601421
0.604624
0.607024
0.498337
0.530271
0.555861
0.571904
0.58354
0.591397
0.597275
0.601609
0.604918
0.607432
0.487551
0.522028
0.549053
0.565483
0.577764
0.586195
0.592655
0.597465
0.601144
0.603782
0.579798
0.580547
0.581697
0.583045
0.584463
0.585864
0.587196
0.588439
0.589612
0.590765
0.574061
0.575909
0.578436
0.581178
0.583865
0.586358
0.588594
0.590548
0.592213
0.593585
0.566732
0.570088
0.574373
0.578748
0.582829
0.586446
0.589555
0.592165
0.594308
0.596012
0.557273
0.56282
0.569344
0.575564
0.581079
0.58576
0.589643
0.592814
0.595362
0.59735
0.548487
0.556697
0.565699
0.573778
0.580641
0.586246
0.590757
0.594348
0.597182
0.599355
0.538979
0.550186
0.56178
0.571639
0.579724
0.58611
0.591124
0.59504
0.598101
0.600438
0.530775
0.545159
0.559321
0.570774
0.579901
0.586892
0.592278
0.596414
0.599617
0.602039
0.52229
0.539863
0.556461
0.569246
0.579212
0.586646
0.592316
0.59664
0.599993
0.602544