/*--------------------------------*- C++ -*----------------------------------*\
| =========                 |                                                 |
| \\      /  F ield         | foam-extend: Open Source CFD                    |
|  \\    /   O peration     | Version:     4.0                                |
|   \\  /    A nd           | Web:         http://www.foam-extend.org         |
|    \\/     M anipulation  |                                                 |
\*---------------------------------------------------------------------------*/
FoamFile
{
    version     2.0;
    format      ascii;
    class       volScalarField;
    location    "800";
    object      p;
}
// * * * * * * * * * * * * * * * * * * * * * * * * * * * * * * * * * * * * * //

dimensions      [1 -1 -2 0 0 0 0];

internalField   nonuniform List<scalar> 
34480
(
108320
108220
108179
108190
108269
108443
108775
109441
110382
110694
108226
108125
108081
108085
108156
108319
108640
109288
110291
110214
108154
108047
107998
107989
108040
108168
108446
109022
110017
109377
108130
108020
107963
107941
107967
108051
108270
108745
109671
108442
108089
107967
107902
107862
107863
107903
108062
108430
109251
107470
108133
108011
107941
107894
107877
107879
107981
108239
108916
106602
108061
107928
107852
107794
107761
107733
107784
107939
108451
105671
108166
108038
107968
107924
107906
107886
107919
107996
108322
105071
108085
107951
107873
107823
107803
107789
107808
107824
107941
104316
108186
108064
108040
108091
108207
108368
108574
108763
108878
104768
109105
108981
108935
108956
109057
109253
109580
110097
110898
111949
108939
108806
108755
108776
108881
109095
109467
110103
111221
112793
108795
108656
108602
108613
108708
108909
109285
109968
111321
113264
108706
108561
108498
108497
108574
108750
109101
109773
111261
113446
108610
108452
108381
108362
108418
108559
108872
109497
111050
113373
108607
108448
108370
108341
108379
108487
108755
109309
110864
113212
108498
108328
108243
108201
108222
108298
108519
108996
110504
112820
108574
108408
108325
108291
108318
108393
108592
108998
110406
112601
108476
108304
108214
108170
108183
108248
108425
108780
110039
112155
108564
108403
108353
108385
108498
108683
108981
109437
110644
112553
109693
109580
109539
109565
109664
109845
110123
110517
111040
111643
109513
109380
109333
109363
109481
109702
110056
110586
111387
112378
109338
109193
109142
109170
109291
109526
109919
110551
111627
113032
109208
109053
108994
109012
109128
109360
109772
110461
111757
113536
109074
108905
108838
108843
108945
109161
109567
110273
111734
113835
109033
108861
108787
108783
108872
109068
109457
110149
111720
114066
108893
108710
108630
108614
108688
108859
109222
109883
111514
114054
108943
108763
108684
108672
108748
108915
109264
109890
111520
114168
108829
108644
108558
108536
108596
108746
109072
109670
111236
113999
108902
108725
108666
108698
108826
109055
109454
110116
111645
114405
110106
110019
109987
110009
110086
110221
110415
110664
110954
111232
109954
109837
109796
109825
109929
110117
110398
110781
111279
111791
109790
109651
109603
109632
109751
109970
110316
110817
111560
112387
109647
109491
109433
109459
109582
109819
110213
110813
111796
112966
109497
109323
109258
109273
109392
109631
110049
110714
111908
113416
109435
109254
109180
109189
109300
109533
109961
110662
112031
113846
109275
109082
109003
109001
109102
109321
109745
110459
111962
114060
109306
109114
109033
109035
109137
109355
109778
110494
112075
114398
109178
108981
108895
108888
108979
109184
109592
110306
111895
114446
109235
109045
108978
109009
109147
109406
109862
110621
112202
114893
110392
110330
110308
110324
110378
110470
110595
110744
110903
111040
110278
110185
110152
110176
110259
110403
110607
110867
111166
111440
110145
110023
109981
110009
110113
110298
110575
110945
111420
111888
110008
109864
109811
109839
109956
110173
110514
110993
111671
112386
109861
109694
109633
109654
109776
110010
110395
110963
111840
112825
109790
109612
109542
109559
109680
109922
110338
110972
112036
113293
109623
109430
109353
109362
109479
109719
110150
110830
112058
113586
109641
109447
109368
109379
109499
109743
110188
110899
112250
114021
109503
109303
109220
109225
109338
109576
110019
110754
112167
114196
109548
109354
109283
109314
109458
109733
110210
110985
112419
114645
110586
110547
110532
110542
110578
110635
110711
110797
110881
110948
110509
110441
110416
110434
110494
110596
110735
110902
111079
111226
110414
110316
110281
110304
110388
110533
110740
111001
111300
111566
110295
110171
110125
110151
110253
110437
110712
111074
111527
111959
110163
110013
109958
109981
110095
110306
110636
111092
111709
112335
110095
109929
109865
109886
110006
110237
110611
111146
111931
112768
109929
109745
109674
109690
109811
110050
110455
111055
111997
113060
109943
109755
109680
109698
109825
110075
110505
111156
112232
113512
109800
109605
109526
109540
109663
109913
110353
111045
112213
113737
109837
109646
109574
109606
109751
110026
110492
111223
112434
114146
110721
110697
110688
110694
110716
110750
110794
110842
110888
110922
110670
110623
110606
110618
110659
110728
110818
110922
111025
111107
110613
110538
110512
110529
110592
110700
110847
111024
111211
111367
110516
110415
110377
110398
110482
110629
110839
111102
111402
111666
110407
110278
110231
110253
110352
110531
110798
111147
111574
111973
110349
110202
110145
110167
110278
110483
110801
111231
111794
112347
110192
110024
109960
109979
110095
110318
110675
111177
111877
112603
110208
110034
109965
109987
110111
110350
110740
111302
112126
113029
110063
109880
109807
109826
109951
110195
110604
111214
112135
113242
110097
109916
109847
109878
110017
110281
110711
111359
112331
113589
110816
110802
110797
110800
110813
110833
110858
110885
110909
110927
110781
110751
110739
110747
110774
110818
110875
110937
110997
111043
110758
110703
110684
110696
110742
110817
110918
111033
111150
111242
110681
110602
110572
110589
110654
110766
110919
111103
111299
111463
110597
110492
110453
110472
110554
110698
110904
111162
111452
111708
110554
110429
110381
110402
110497
110671
110928
111259
111657
112023
110409
110263
110207
110227
110332
110528
110827
111229
111737
112232
110434
110279
110217
110240
110355
110570
110907
111369
111984
112612
110290
110124
110059
110080
110199
110424
110784
111295
111996
112779
110325
110159
110095
110124
110254
110494
110874
111420
112172
113066
110886
110877
110874
110876
110884
110895
110909
110923
110937
110946
110858
110839
110831
110836
110853
110881
110915
110953
110987
111013
110861
110824
110810
110819
110850
110901
110967
111041
111112
111166
110800
110742
110720
110732
110780
110861
110969
111094
111221
111322
110741
110659
110629
110644
110708
110819
110972
111156
111351
111515
110714
110613
110573
110592
110671
110810
111010
111256
111532
111773
110585
110461
110414
110433
110523
110687
110928
111237
111599
111933
110621
110488
110435
110457
110559
110744
111021
111386
111833
112264
110480
110334
110278
110299
110406
110604
110906
111318
111837
112376
110519
110373
110316
110343
110458
110668
110989
111432
111995
112615
110937
110932
110931
110932
110936
110942
110950
110958
110965
110970
110911
110900
110895
110898
110908
110925
110946
110968
110988
111003
110936
110911
110901
110907
110928
110961
111003
111050
111093
111124
110884
110843
110827
110836
110870
110927
111001
111084
111165
111227
110849
110788
110765
110776
110825
110906
111016
111144
111273
111376
110837
110758
110727
110742
110804
110912
111061
111239
111427
111583
110721
110622
110584
110600
110674
110805
110992
111222
111475
111698
110773
110663
110620
110639
110724
110876
111096
111375
111693
111984
110634
110511
110464
110483
110575
110741
110985
111304
111679
112044
110680
110556
110508
110531
110629
110806
111067
111412
111824
112244
110978
110975
110974
110975
110977
110980
110985
110989
110993
110996
110948
110942
110939
110940
110947
110957
110969
110982
110993
111002
110990
110974
110968
110971
110985
111006
111032
111061
111086
111104
110943
110915
110904
110910
110933
110971
111021
111075
111126
111165
110928
110883
110867
110876
110910
110969
111045
111132
111215
111281
110928
110869
110845
110857
110904
110984
111092
111217
111343
111444
110825
110748
110718
110731
110789
110890
111030
111196
111369
111517
110893
110806
110771
110788
110856
110976
111145
111350
111572
111764
110755
110655
110617
110633
110709
110842
111033
111271
111536
111780
110811
110710
110670
110690
110770
110913
111118
111378
111671
111951
111010
111008
111009
111009
111010
111012
111014
111016
111018
111020
110974
110970
110968
110970
110973
110979
110986
110994
111001
111006
111031
111021
111017
111020
111028
111041
111057
111074
111089
111099
110983
110964
110957
110961
110976
111001
111034
111068
111100
111124
110985
110954
110943
110949
110973
111013
111065
111122
111176
111217
110994
110952
110934
110943
110978
111035
111111
111197
111280
111344
110902
110844
110821
110832
110876
110951
111051
111169
111285
111381
110986
110920
110893
110907
110960
111051
111176
111322
111474
111599
110846
110768
110738
110752
110811
110914
111057
111231
111414
111575
110915
110836
110804
110820
110884
110995
111150
111340
111543
111727
111038
111037
111037
111037
111038
111039
111040
111041
111042
111043
110992
110990
110989
110989
110991
110995
110999
111004
111008
111011
111063
111057
111055
111057
111062
111070
111080
111089
111098
111103
111010
110998
110993
110995
111006
111022
111042
111064
111084
111099
111027
111006
110998
111003
111019
111046
111080
111117
111151
111176
111042
111012
111000
111006
111031
111071
111123
111180
111234
111275
110958
110915
110899
110907
110939
110992
111063
111143
111220
111283
111058
111010
110990
111001
111040
111107
111196
111298
111400
111480
110913
110853
110831
110842
110887
110963
111068
111190
111314
111419
110997
110937
110913
110925
110974
111057
111171
111305
111444
111562
111064
111063
111064
111063
111064
111064
111065
111066
111066
111066
111003
111003
111002
111002
111003
111006
111008
111011
111014
111016
111092
111088
111087
111089
111092
111096
111102
111107
111111
111113
111029
111021
111017
111019
111025
111036
111048
111062
111074
111084
111058
111044
111039
111042
111053
111071
111093
111116
111136
111151
111076
111056
111047
111052
111068
111095
111130
111167
111202
111227
110998
110968
110957
110962
110984
111022
111070
111123
111173
111213
111115
111081
111067
111075
111103
111150
111212
111281
111348
111398
110960
110916
110900
110907
110940
110995
111068
111152
111234
111302
111063
111019
111001
111010
111046
111106
111187
111279
111371
111446
111091
111090
111090
111090
111090
111091
111091
111091
111091
111091
111010
111010
111009
111009
111010
111012
111013
111015
111017
111019
111118
111117
111117
111118
111119
111122
111125
111127
111129
111129
111041
111036
111034
111035
111039
111045
111053
111061
111068
111075
111081
111073
111069
111071
111078
111089
111103
111117
111130
111138
111099
111086
111080
111083
111094
111112
111134
111158
111180
111195
111026
111006
110999
111003
111018
111043
111074
111109
111140
111165
111160
111138
111128
111133
111153
111185
111227
111272
111316
111345
110989
110958
110947
110952
110975
111013
111063
111119
111172
111216
111118
111087
111074
111081
111106
111148
111203
111264
111324
111371
111123
111122
111123
111123
111123
111123
111123
111123
111123
111122
111012
111011
111011
111011
111012
111013
111014
111015
111017
111019
111145
111145
111145
111146
111147
111148
111150
111151
111151
111150
111050
111047
111046
111047
111049
111053
111057
111062
111066
111070
111098
111093
111091
111092
111096
111103
111111
111120
111127
111132
111114
111105
111101
111103
111110
111122
111136
111151
111165
111174
111047
111034
111030
111032
111042
111058
111079
111100
111119
111134
111197
111182
111176
111179
111192
111214
111241
111270
111299
111315
111005
110983
110975
110979
110994
111020
111053
111089
111122
111151
111170
111150
111141
111146
111163
111191
111228
111267
111306
111333
111175
111174
111175
111175
111175
111175
111175
111175
111174
111173
111006
111005
111005
111005
111005
111006
111007
111008
111010
111013
111171
111172
111172
111172
111173
111174
111174
111175
111175
111172
111058
111056
111056
111056
111058
111060
111062
111065
111067
111069
111109
111106
111104
111105
111108
111112
111117
111122
111126
111129
111120
111115
111112
111113
111118
111125
111134
111143
111152
111157
111062
111055
111052
111054
111060
111070
111083
111096
111106
111115
111222
111212
111208
111210
111219
111233
111250
111269
111288
111296
111004
110990
110985
110987
110997
111014
111035
111058
111078
111097
111235
111222
111216
111219
111230
111249
111273
111298
111323
111338
111272
111272
111272
111272
111272
111272
111272
111271
111270
111269
110985
110984
110984
110984
110984
110985
110985
110986
110988
110991
111189
111190
111189
111189
111189
111190
111191
111191
111192
111190
111066
111065
111065
111066
111067
111068
111069
111071
111071
111072
111114
111112
111111
111111
111113
111115
111119
111122
111125
111127
111120
111116
111114
111115
111118
111122
111128
111134
111140
111143
111072
111068
111067
111068
111072
111078
111086
111094
111100
111104
111224
111217
111214
111215
111220
111230
111241
111254
111267
111273
110981
110971
110968
110970
110977
110988
111001
111015
111027
111039
111337
111329
111324
111326
111334
111346
111361
111377
111394
111403
111441
111440
111440
111440
111440
111440
111440
111440
111440
111439
110934
110934
110935
110936
110936
110936
110936
110936
110936
110938
111187
111185
111183
111182
111182
111183
111184
111186
111189
111190
111077
111077
111078
111078
111079
111080
111081
111081
111081
111081
111117
111115
111114
111114
111115
111117
111119
111122
111125
111127
111117
111114
111113
111113
111115
111118
111122
111127
111131
111134
111080
111078
111077
111078
111081
111085
111090
111096
111099
111102
111189
111182
111179
111180
111183
111190
111198
111208
111219
111226
110921
110916
110915
110916
110921
110928
110937
110946
110952
110958
111499
111492
111489
111490
111495
111504
111515
111526
111539
111544
111634
111631
111629
111629
111628
111629
111630
111632
111634
111638
110864
110869
110872
110874
110875
110875
110874
110872
110868
110863
111166
111161
111158
111157
111157
111158
111159
111163
111168
111174
111095
111095
111095
111096
111096
111097
111098
111099
111100
111100
111123
111121
111120
111120
111121
111122
111125
111128
111131
111134
111121
111118
111117
111117
111119
111121
111125
111129
111133
111138
111093
111091
111090
111090
111093
111097
111101
111106
111110
111113
111136
111129
111126
111127
111130
111135
111142
111151
111160
111171
110846
110844
110843
110845
110849
110855
110862
110869
110873
110871
111674
111669
111666
111667
111671
111678
111687
111697
111707
111712
122834
124043
123871
122614
126028
127431
127037
125439
128979
130565
129985
128023
131171
132876
132111
129873
132866
134652
133715
131278
134235
136084
135185
132639
135180
137064
136298
133688
136013
137907
137305
134661
135939
137807
137351
134716
135537
137392
137193
134715
113313
113502
113542
113425
115576
115946
116006
115723
117833
118385
118448
117950
119981
120702
120753
120013
121944
122803
122826
121832
123805
124776
124768
123572
125345
126404
126370
125020
126850
127970
127922
126467
127629
128784
128737
127233
128275
129466
129468
128013
112161
112250
112278
112252
113477
113644
113684
113620
114935
115202
115256
115131
116419
116792
116855
116649
117849
118327
118390
118081
119331
119912
119971
119549
120624
121299
121350
120812
122003
122756
122800
122151
122818
123621
123661
122920
123632
124474
124532
123737
111347
111370
111381
111382
112100
112154
112174
112168
113026
113130
113165
113142
114060
114230
114281
114230
115090
115333
115398
115305
116220
116542
116620
116471
117222
117624
117709
117494
118376
118850
118941
118653
119082
119609
119706
119356
119854
120424
120539
120150
111086
111095
111101
111101
111563
111587
111598
111598
112151
112201
112221
112218
112857
112942
112975
112967
113580
113708
113755
113735
114415
114595
114656
114615
115148
115382
115456
115387
116062
116350
116435
116331
116633
116963
117062
116926
117306
117673
117792
117634
110967
110971
110973
110974
111276
111286
111291
111293
111673
111694
111706
111708
112162
112203
112223
112226
112678
112743
112774
112776
113302
113400
113443
113440
113833
113966
114022
114010
114556
114727
114794
114768
115008
115211
115292
115253
115558
115787
115885
115834
110931
110933
110934
110934
111132
111136
111139
111140
111419
111430
111436
111438
111765
111785
111797
111800
112139
112174
112193
112198
112612
112666
112694
112700
112994
113070
113109
113114
113569
113670
113719
113720
113914
114036
114097
114093
114345
114486
114556
114548
110931
110932
110933
110933
111056
111058
111060
111061
111269
111274
111277
111279
111515
111526
111532
111535
111795
111814
111825
111829
112162
112192
112209
112216
112438
112481
112506
112514
112900
112959
112991
113000
113144
113218
113258
113265
113480
113565
113612
113617
110948
110949
110949
110949
111021
111022
111023
111023
111181
111184
111186
111187
111352
111358
111362
111364
111564
111574
111581
111584
111852
111869
111879
111884
112048
112074
112089
112096
112426
112460
112481
112489
112582
112627
112653
112660
112847
112899
112930
112936
110972
110972
110972
110972
111007
111008
111008
111009
111133
111134
111135
111136
111245
111248
111251
111252
111405
111411
111415
111417
111630
111641
111647
111650
111765
111780
111790
111794
112078
112099
112112
112117
112165
112192
112209
112214
112379
112411
112430
112435
110996
110996
110996
110996
111005
111005
111005
111006
111109
111110
111111
111111
111175
111177
111179
111180
111298
111301
111304
111305
111473
111479
111483
111485
111557
111566
111572
111576
111821
111834
111842
111846
111853
111870
111880
111884
112032
112051
112063
112067
111020
111020
111020
111020
111008
111008
111008
111008
111101
111102
111102
111102
111131
111132
111133
111134
111227
111229
111230
111231
111362
111366
111369
111370
111406
111411
111415
111418
111634
111642
111647
111650
111620
111631
111637
111640
111776
111788
111796
111798
111043
111043
111043
111043
111012
111012
111012
111013
111104
111104
111104
111104
111103
111103
111104
111105
111181
111182
111183
111184
111286
111288
111290
111291
111297
111301
111303
111305
111501
111506
111510
111511
111448
111454
111459
111460
111592
111600
111604
111606
111066
111066
111066
111066
111017
111017
111017
111017
111114
111114
111114
111113
111085
111086
111086
111087
111154
111155
111155
111156
111234
111236
111237
111237
111221
111223
111225
111226
111411
111414
111416
111417
111321
111325
111328
111329
111464
111469
111472
111473
111091
111091
111091
111091
111019
111019
111020
111020
111130
111129
111129
111129
111075
111076
111076
111076
111139
111140
111140
111140
111200
111201
111202
111202
111169
111170
111171
111172
111354
111355
111357
111357
111228
111231
111232
111233
111381
111384
111386
111387
111122
111122
111122
111122
111019
111019
111019
111020
111150
111150
111149
111149
111070
111070
111070
111070
111132
111132
111132
111133
111177
111178
111178
111178
111135
111135
111136
111136
111321
111322
111322
111323
111158
111160
111161
111162
111339
111340
111341
111342
111173
111173
111173
111172
111012
111013
111013
111013
111173
111173
111172
111172
111068
111068
111068
111068
111129
111129
111129
111129
111160
111160
111161
111161
111114
111113
111113
111114
111302
111303
111303
111303
111102
111103
111104
111104
111340
111340
111341
111342
111268
111268
111268
111268
110991
110991
110991
110992
111192
111192
111192
111192
111070
111069
111069
111069
111127
111127
111128
111128
111146
111146
111147
111147
111101
111100
111100
111100
111281
111282
111282
111282
111041
111042
111042
111043
111403
111403
111403
111405
111439
111439
111439
111439
110935
110935
110935
110935
111196
111197
111197
111197
111078
111077
111077
111077
111128
111129
111129
111129
111137
111137
111138
111138
111097
111096
111096
111096
111239
111242
111242
111242
110954
110953
110953
110954
111550
111550
111550
111551
111639
111640
111641
111641
110848
110845
110844
110844
111186
111188
111189
111190
111098
111097
111097
111097
111138
111138
111139
111139
111141
111142
111142
111142
111110
111109
111109
111109
111190
111194
111195
111194
110848
110843
110842
110845
111734
111737
111737
111735
116338
113851
111948
110678
109884
109371
109021
108775
108598
108464
117419
114266
111925
110548
109736
109220
108878
108642
108477
108354
117841
114366
111719
110423
109614
109106
108766
108531
108372
108266
117895
114332
111458
110327
109534
109060
108734
108509
108354
108244
117681
114178
111225
110213
109425
108982
108666
108451
108300
108200
117357
114114
111114
110232
109439
109030
108719
108513
108362
108251
116776
113915
110873
110126
109319
108944
108635
108434
108283
108178
116406
113985
110903
110293
109467
109121
108800
108593
108428
108298
115721
113687
110621
110188
109383
109082
108752
108539
108365
108227
116179
114393
111300
110892
109964
109560
109116
108815
108570
108363
112880
112148
111497
110952
110504
110140
109845
109608
109418
109269
114498
113156
112042
111203
110572
110099
109743
109472
109263
109107
115822
113904
112388
111334
110564
110013
109612
109318
109101
108952
116844
114435
112584
111401
110550
109965
109548
109247
109025
108870
117506
114746
112628
111367
110462
109866
109444
109144
108921
108771
118020
115038
112702
111408
110469
109876
109454
109157
108934
108775
118203
115109
112593
111302
110337
109757
109335
109042
108818
108664
118443
115344
112688
111434
110454
109889
109462
109162
108929
108754
118247
115171
112468
111320
110368
109833
109398
109092
108850
108666
118664
115693
112953
111826
110798
110189
109676
109305
109014
108780
112100
111790
111444
111110
110808
110544
110318
110127
109968
109839
113270
112643
111986
111419
110955
110580
110277
110033
109836
109683
114484
113455
112450
111645
111020
110542
110174
109889
109669
109511
115616
114159
112825
111829
111083
110532
110119
109807
109568
109394
116565
114684
113046
111896
111055
110455
110014
109686
109436
109262
117460
115185
113274
112009
111096
110466
110007
109671
109415
109230
118078
115451
113301
111954
110986
110340
109871
109531
109270
109088
118745
115835
113492
112107
111102
110451
109970
109622
109352
109152
118927
115804
113374
112026
111031
110389
109896
109538
109258
109049
119438
116231
113754
112401
111350
110654
110107
109702
109389
109144
111360
111267
111135
110985
110831
110682
110543
110418
110308
110216
112097
111876
111595
111307
111036
110790
110574
110387
110229
110101
112977
112553
112056
111589
111177
110828
110537
110297
110103
109956
113923
113250
112512
111865
111320
110878
110522
110237
110010
109837
114797
113838
112850
112032
111370
110853
110447
110131
109880
109697
115701
114440
113202
112233
111472
110896
110454
110114
109847
109649
116404
114834
113356
112259
111415
110796
110326
109972
109693
109492
117203
115347
113656
112464
111557
110908
110416
110045
109755
109536
117584
115483
113663
112436
111503
110839
110329
109945
109644
109418
118192
115918
114001
112727
111741
111035
110485
110068
109745
109493
111094
111055
110994
110920
110839
110755
110673
110596
110526
110465
111573
111481
111347
111193
111034
110879
110734
110603
110488
110392
112163
111976
111726
111459
111200
110963
110751
110566
110410
110287
112864
112547
112147
111746
111376
111051
110771
110535
110339
110184
113559
113077
112503
111960
111480
111074
110735
110456
110227
110054
114334
113659
112897
112214
111631
111154
110765
110452
110199
110004
114966
114075
113116
112302
111626
111089
110660
110321
110047
109844
115739
114628
113483
112555
111801
111216
110753
110390
110102
109879
116177
114865
113581
112578
111770
111151
110662
110283
109981
109751
116777
115288
113892
112821
111961
111303
110783
110378
110060
109811
110971
110954
110926
110890
110848
110802
110756
110712
110670
110632
111285
111243
111178
111096
111005
110912
110821
110735
110658
110590
111691
111607
111480
111330
111173
111018
110871
110738
110621
110527
112193
112043
111829
111590
111350
111123
110916
110732
110574
110445
112718
112478
112153
111810
111480
111179
110913
110683
110489
110337
113341
112988
112536
112082
111660
111288
110968
110699
110474
110295
113854
113365
112771
112203
111692
111255
110888
110585
110334
110143
114535
113899
113161
112484
111893
111400
110992
110660
110389
110176
114947
114164
113301
112536
111879
111343
110903
110551
110265
110043
115468
114550
113585
112751
112044
111470
111004
110630
110330
110093
110933
110925
110911
110892
110870
110845
110820
110795
110770
110749
111136
111115
111081
111036
110984
110929
110874
110820
110770
110725
111430
111387
111318
111232
111136
111036
110939
110847
110764
110697
111787
111711
111592
111448
111294
111139
110992
110857
110737
110636
112176
112052
111866
111651
111428
111213
111013
110835
110678
110553
112664
112476
112209
111912
111616
111338
111088
110868
110679
110526
113057
112789
112425
112040
111668
111329
111030
110774
110556
110386
113630
113269
112802
112328
111882
111487
111146
110858
110618
110424
113969
113508
112942
112386
111877
111437
111063
110753
110494
110291
114393
113842
113198
112581
112027
111552
111153
110823
110553
110336
110932
110928
110921
110911
110899
110886
110872
110858
110844
110832
111059
111048
111029
111004
110975
110943
110910
110877
110846
110817
111275
111252
111213
111162
111104
111042
110979
110918
110862
110816
111529
111487
111419
111331
111233
111131
111030
110934
110847
110772
111820
111751
111642
111506
111358
111209
111065
110931
110812
110714
112200
112097
111936
111743
111539
111339
111150
110979
110828
110702
112492
112341
112117
111860
111595
111342
111109
110902
110721
110577
112963
112757
112463
112137
111812
111508
111235
110997
110793
110625
113213
112942
112576
112185
111807
111462
111156
110895
110673
110494
113550
113224
112803
112364
111946
111570
111243
110964
110730
110540
110949
110947
110943
110938
110931
110924
110916
110909
110901
110894
111022
111016
111006
110992
110976
110957
110938
110918
110899
110881
111184
111171
111149
111119
111084
111046
111006
110967
110930
110900
111360
111337
111296
111243
111181
111114
111047
110981
110921
110867
111579
111539
111473
111387
111290
111188
111088
110992
110904
110831
111877
111817
111717
111592
111454
111313
111176
111048
110932
110833
112086
111998
111858
111687
111503
111319
111143
110983
110840
110723
112472
112352
112165
111944
111713
111488
111277
111088
110923
110783
112637
112477
112242
111974
111701
111440
111201
110990
110805
110655
112906
112713
112441
112137
111832
111546
111287
111060
110866
110705
110972
110971
110969
110966
110962
110958
110954
110950
110946
110942
111008
111005
110999
110992
110982
110971
110960
110948
110937
110926
111134
111127
111114
111096
111075
111051
111027
111002
110979
110960
111250
111236
111212
111179
111141
111098
111054
111010
110969
110931
111414
111391
111350
111296
111233
111165
111096
111029
110967
110914
111646
111610
111548
111468
111376
111278
111181
111089
111003
110928
111790
111737
111648
111535
111409
111279
111151
111031
110922
110831
112109
112036
111917
111770
111609
111447
111290
111146
111017
110905
112203
112107
111957
111776
111583
111392
111211
111047
110900
110778
112421
112306
112131
111925
111709
111497
111300
111122
110966
110835
110996
110996
110994
110993
110991
110989
110987
110984
110982
110980
111006
111004
111001
110996
110991
110985
110978
110971
110965
110957
111110
111105
111098
111087
111074
111060
111045
111030
111016
111005
111179
111171
111156
111136
111112
111085
111057
111028
111001
110975
111303
111289
111264
111230
111189
111145
111099
111053
111010
110974
111483
111461
111422
111370
111310
111244
111177
111112
111050
110995
111573
111540
111484
111411
111326
111235
111145
111058
110976
110909
111841
111797
111721
111624
111514
111400
111287
111180
111082
110996
111878
111819
111724
111604
111470
111334
111201
111077
110963
110869
112060
111990
111879
111741
111591
111440
111294
111159
111039
110935
111020
111020
111019
111018
111017
111016
111015
111014
111012
111011
111008
111007
111006
111003
111000
110997
110993
110989
110985
110980
111101
111099
111094
111088
111080
111072
111062
111053
111045
111039
111133
111128
111120
111108
111093
111076
111058
111040
111022
111005
111230
111221
111206
111184
111158
111130
111099
111069
111040
111016
111368
111355
111331
111298
111258
111215
111169
111124
111082
111043
111416
111396
111360
111312
111256
111195
111132
111070
111012
110963
111646
111619
111571
111508
111434
111356
111276
111199
111129
111064
111636
111600
111539
111460
111369
111274
111179
111089
111004
110933
111795
111752
111681
111591
111489
111383
111278
111180
111090
111011
111043
111043
111042
111042
111041
111041
111040
111040
111039
111038
111013
111013
111012
111010
111009
111007
111004
111002
111000
110996
111103
111102
111099
111095
111091
111086
111080
111075
111070
111068
111105
111102
111097
111089
111080
111070
111059
111047
111036
111025
111183
111178
111168
111155
111139
111120
111101
111081
111062
111047
111290
111282
111266
111245
111220
111192
111162
111132
111103
111076
111304
111291
111269
111238
111201
111160
111117
111075
111035
111001
111509
111492
111462
111421
111373
111320
111265
111212
111162
111115
111458
111435
111396
111345
111284
111219
111153
111089
111028
110977
111604
111578
111533
111475
111407
111335
111262
111192
111127
111069
111066
111066
111066
111065
111065
111065
111064
111064
111063
111064
111017
111017
111017
111016
111015
111014
111013
111012
111010
111007
111113
111112
111110
111108
111105
111102
111099
111096
111093
111093
111087
111085
111082
111078
111073
111066
111060
111053
111046
111038
111155
111152
111146
111138
111128
111116
111104
111091
111080
111070
111237
111232
111222
111209
111193
111175
111155
111136
111117
111099
111226
111218
111203