/*--------------------------------*- C++ -*----------------------------------*\
| =========                 |                                                 |
| \\      /  F ield         | foam-extend: Open Source CFD                    |
|  \\    /   O peration     | Version:     4.0                                |
|   \\  /    A nd           | Web:         http://www.foam-extend.org         |
|    \\/     M anipulation  |                                                 |
\*---------------------------------------------------------------------------*/
FoamFile
{
    version     2.0;
    format      ascii;
    class       volScalarField;
    location    "800";
    object      rho;
}
// * * * * * * * * * * * * * * * * * * * * * * * * * * * * * * * * * * * * * //

dimensions      [1 -3 0 0 0 0 0];

internalField   nonuniform List<scalar> 
34480
(
1.34863
1.34792
1.3478
1.34823
1.3494
1.35164
1.35575
1.3637
1.37419
1.37835
1.34995
1.34929
1.34921
1.34963
1.3507
1.35278
1.35673
1.36467
1.37621
1.37759
1.3495
1.34883
1.34877
1.34907
1.34994
1.35168
1.3553
1.36284
1.37475
1.37077
1.34904
1.34843
1.34838
1.34864
1.34938
1.35081
1.35403
1.36082
1.37248
1.36283
1.34853
1.34788
1.34786
1.34806
1.34867
1.34981
1.35263
1.35865
1.36977
1.3549
1.34884
1.34831
1.34832
1.34854
1.34909
1.35
1.35243
1.35763
1.3679
1.34815
1.3479
1.34732
1.34737
1.34756
1.34806
1.3488
1.35089
1.35537
1.36463
1.34083
1.34892
1.34851
1.34868
1.3491
1.34981
1.35074
1.35278
1.35672
1.36469
1.33694
1.34764
1.34725
1.34741
1.34784
1.34865
1.3498
1.35189
1.35549
1.36189
1.33105
1.34499
1.3448
1.34549
1.34683
1.34884
1.35152
1.35523
1.36032
1.36688
1.3322
1.35584
1.35475
1.35436
1.35457
1.35549
1.35725
1.36008
1.36433
1.37107
1.3799
1.35678
1.35556
1.35511
1.35532
1.35627
1.35817
1.36145
1.36697
1.37703
1.39156
1.35592
1.35459
1.3541
1.35419
1.355
1.35675
1.36008
1.36627
1.37898
1.39765
1.35512
1.35371
1.35313
1.3531
1.35377
1.3553
1.35847
1.36464
1.37891
1.40038
1.35435
1.35281
1.35215
1.35197
1.35246
1.35369
1.35654
1.36234
1.37745
1.40059
1.35445
1.3529
1.35218
1.3519
1.35224
1.35319
1.35565
1.36081
1.3761
1.3997
1.35337
1.35171
1.35093
1.35053
1.35071
1.35138
1.35344
1.35791
1.3729
1.39636
1.35429
1.35269
1.35191
1.35159
1.35184
1.35251
1.35439
1.35822
1.37235
1.39477
1.353
1.35136
1.35051
1.35011
1.35026
1.3509
1.35264
1.35607
1.36877
1.39065
1.35042
1.34886
1.34835
1.34858
1.34956
1.35121
1.35397
1.35829
1.37052
1.39113
1.36087
1.35994
1.35962
1.35986
1.36073
1.36229
1.36465
1.36788
1.37195
1.3764
1.36171
1.36054
1.36015
1.36044
1.36149
1.36343
1.36645
1.37084
1.37734
1.38507
1.36057
1.35925
1.35883
1.35908
1.36017
1.36223
1.36563
1.37102
1.38014
1.39159
1.3594
1.35798
1.35747
1.35766
1.35871
1.36079
1.36442
1.3704
1.3816
1.39643
1.35831
1.35674
1.35616
1.35623
1.35719
1.35916
1.3628
1.36899
1.38178
1.39958
1.35806
1.35647
1.35583
1.35582
1.35668
1.35849
1.36203
1.36813
1.38201
1.4021
1.35671
1.355
1.35431
1.35419
1.35492
1.35654
1.35988
1.36575
1.38029
1.40222
1.3574
1.35574
1.35504
1.35496
1.35571
1.35731
1.36057
1.36617
1.38076
1.40373
1.356
1.35429
1.35353
1.35336
1.35396
1.35541
1.3585
1.36398
1.37799
1.40203
1.35339
1.35173
1.35118
1.35144
1.35259
1.35467
1.35835
1.3644
1.37818
1.40252
1.36438
1.3637
1.36347
1.36365
1.36429
1.3654
1.36695
1.36888
1.37099
1.37279
1.36545
1.36446
1.36412
1.36437
1.36526
1.36684
1.36916
1.3722
1.376
1.37965
1.36441
1.36318
1.36278
1.36304
1.36407
1.36594
1.36884
1.37294
1.37894
1.3853
1.36315
1.36175
1.36126
1.36149
1.36258
1.36465
1.36804
1.37307
1.38126
1.39057
1.36194
1.36037
1.3598
1.35995
1.36102
1.36314
1.36681
1.37247
1.38259
1.39489
1.36151
1.35987
1.35923
1.35932
1.36035
1.36245
1.36625
1.37227
1.38403
1.39908
1.36
1.35823
1.35754
1.35754
1.35848
1.36047
1.36429
1.37049
1.38353
1.40117
1.36052
1.35878
1.35806
1.35809
1.35905
1.36105
1.3649
1.37117
1.38497
1.4047
1.35902
1.35723
1.35646
1.35641
1.35727
1.35915
1.36288
1.36926
1.38316
1.40499
1.35638
1.35462
1.354
1.35426
1.35548
1.3578
1.3619
1.36869
1.38258
1.40593
1.36682
1.36638
1.36622
1.36635
1.36679
1.36751
1.36849
1.36963
1.37077
1.37166
1.36816
1.3674
1.36714
1.36734
1.36803
1.3692
1.37085
1.37287
1.3751
1.37701
1.36739
1.36634
1.366
1.36623
1.36711
1.36867
1.37094
1.37389
1.37758
1.38106
1.36619
1.36493
1.36448
1.36472
1.36574
1.3676
1.37047
1.3744
1.37985
1.38536
1.36502
1.36354
1.36302
1.36321
1.36428
1.36633
1.36964
1.37437
1.38158
1.38937
1.36452
1.36294
1.36233
1.36249
1.36358
1.36572
1.36934
1.3747
1.38358
1.39369
1.36295
1.36122
1.36056
1.36064
1.3617
1.36384
1.36765
1.37346
1.38383
1.39632
1.36338
1.36164
1.36094
1.36106
1.36215
1.36434
1.3683
1.37445
1.38596
1.4006
1.36181
1.36001
1.35928
1.35933
1.36036
1.36251
1.36648
1.37292
1.38502
1.40196
1.35918
1.35739
1.35675
1.35702
1.35829
1.36073
1.36497
1.37178
1.38411
1.40296
1.36852
1.36827
1.36817
1.36825
1.36853
1.36897
1.36955
1.37019
1.37078
1.37118
1.37008
1.36955
1.36935
1.3695
1.36998
1.3708
1.3719
1.37317
1.37445
1.37546
1.36963
1.3688
1.36852
1.36871
1.36941
1.3706
1.37228
1.37433
1.3766
1.37852
1.36858
1.36752
1.36713
1.36735
1.36822
1.36977
1.37205
1.37499
1.37854
1.38179
1.36756
1.36625
1.36578
1.36598
1.36696
1.36878
1.37157
1.37533
1.38029
1.38513
1.36708
1.36563
1.36508
1.36527
1.36632
1.36832
1.37154
1.37601
1.38242
1.38901
1.36554
1.36391
1.3633
1.36344
1.36451
1.36662
1.37013
1.3752
1.383
1.39153
1.36593
1.36427
1.36361
1.36378
1.36491
1.36712
1.37089
1.37645
1.38546
1.39586
1.36434
1.3626
1.36191
1.36204
1.36314
1.36537
1.36924
1.37523
1.38509
1.39764
1.36176
1.36002
1.35938
1.35965
1.36092
1.36335
1.36743
1.37377
1.38404
1.39831
1.36974
1.36961
1.36956
1.36961
1.36977
1.37003
1.37037
1.37072
1.37103
1.3712
1.37142
1.37106
1.37093
1.37103
1.37135
1.37189
1.37259
1.37336
1.3741
1.37464
1.37127
1.37065
1.37044
1.37058
1.3711
1.37197
1.37314
1.37452
1.37592
1.37703
1.37039
1.36955
1.36923
1.36941
1.37011
1.37133
1.37305
1.37516
1.37749
1.37946
1.36958
1.36847
1.36808
1.36826
1.36911
1.37062
1.37285
1.37571
1.3791
1.38215
1.36919
1.36792
1.36744
1.36763
1.36859
1.37034
1.37303
1.3766
1.38114
1.38544
1.36773
1.36626
1.36572
1.36588
1.3669
1.36883
1.37188
1.37609
1.3818
1.38756
1.36815
1.36663
1.36603
1.36623
1.36732
1.3694
1.37277
1.37753
1.38434
1.39158
1.36657
1.36495
1.36431
1.36448
1.36559
1.36773
1.37128
1.37651
1.38419
1.39322
1.36408
1.36245
1.36184
1.3621
1.36332
1.36562
1.36935
1.37491
1.38306
1.39342
1.37064
1.37059
1.37057
1.37059
1.37069
1.37084
1.37102
1.37122
1.37138
1.37143
1.37234
1.37212
1.37203
1.37209
1.3723
1.37264
1.37307
1.37353
1.37394
1.37422
1.37245
1.37201
1.37186
1.37196
1.37233
1.37293
1.37372
1.37461
1.37546
1.3761
1.37173
1.37109
1.37084
1.37098
1.37152
1.37243
1.37367
1.37514
1.37665
1.37785
1.37114
1.37025
1.36993
1.37009
1.37077
1.37197
1.37368
1.37577
1.37806
1.38
1.37087
1.36981
1.3694
1.36958
1.3704
1.37186
1.37401
1.37674
1.37992
1.38275
1.36953
1.36826
1.36779
1.36796
1.36887
1.37054
1.37307
1.37642
1.38053
1.38442
1.37003
1.36869
1.36816
1.36836
1.36936
1.37121
1.37408
1.37797
1.383
1.388
1.36847
1.36701
1.36645
1.36664
1.36767
1.36963
1.37272
1.37706
1.38285
1.38918
1.36612
1.36464
1.36408
1.36433
1.36545
1.36753
1.3708
1.37544
1.38168
1.38898
1.37133
1.37133
1.37132
1.37134
1.37139
1.37147
1.37158
1.37168
1.37176
1.37176
1.37298
1.37284
1.37279
1.37283
1.37296
1.37317
1.37342
1.37369
1.37391
1.37404
1.3733
1.373
1.37289
1.37296
1.37321
1.37361
1.37412
1.37468
1.37519
1.37554
1.37269
1.37222
1.37204
1.37214
1.37253
1.37319
1.37405
1.37504
1.376
1.37674
1.37231
1.37162
1.37138
1.3715
1.37204
1.37295
1.3742
1.37568
1.3772
1.37843
1.37217
1.37133
1.371
1.37115
1.37181
1.37298
1.37463
1.37664
1.37884
1.38068
1.37096
1.36991
1.36952
1.36967
1.37044
1.37183
1.37384
1.37639
1.3793
1.38192
1.37157
1.37043
1.36998
1.37017
1.37104
1.37262
1.37496
1.378
1.38164
1.38505
1.37005
1.36878
1.3683
1.36848
1.36941
1.3711
1.37367
1.37713
1.38139
1.38572
1.36788
1.36659
1.3661
1.36632
1.36731
1.36911
1.37184
1.37557
1.38021
1.38524
1.37189
1.37191
1.37191
1.37192
1.37195
1.37199
1.37205
1.37211
1.37214
1.37211
1.37341
1.37334
1.37331
1.37333
1.37341
1.37354
1.37369
1.37384
1.37395
1.374
1.3739
1.3737
1.37363
1.37368
1.37384
1.3741
1.37442
1.37477
1.37506
1.37524
1.37335
1.37303
1.3729
1.37297
1.37325
1.3737
1.37429
1.37494
1.37554
1.37598
1.37317
1.37267
1.37248
1.37258
1.37297
1.37364
1.37453
1.37555
1.37654
1.37731
1.37315
1.3725
1.37224
1.37237
1.37289
1.37378
1.375
1.37644
1.37793
1.37911
1.37207
1.37123
1.37091
1.37105
1.37167
1.37277
1.37431
1.3762
1.37821
1.37995
1.3728
1.37188
1.37151
1.37168
1.3724
1.37368
1.37552
1.37782
1.38039
1.38267
1.37131
1.37025
1.36986
1.37002
1.3708
1.37221
1.37427
1.37692
1.37998
1.38289
1.36936
1.36827
1.36786
1.36806
1.36889
1.37039
1.37259
1.37547
1.37883
1.38223
1.37235
1.37238
1.37239
1.37239
1.37241
1.37244
1.37247
1.3725
1.37251
1.37246
1.37371
1.37368
1.37366
1.37368
1.37372
1.3738
1.37388
1.37397
1.37402
1.37403
1.37433
1.37421
1.37417
1.3742
1.3743
1.37446
1.37466
1.37487
1.37503
1.3751
1.37381
1.37359
1.3735
1.37355
1.37374
1.37404
1.37443
1.37485
1.37522
1.37547
1.37379
1.37344
1.3733
1.37337
1.37366
1.37413
1.37474
1.37542
1.37607
1.37653
1.37387
1.37339
1.3732
1.37329
1.37368
1.37434
1.37521
1.37622
1.37721
1.37796
1.3729
1.37225
1.37201
1.37211
1.3726
1.37343
1.37458
1.37593
1.3773
1.37843
1.37376
1.37305
1.37275
1.37289
1.37347
1.37447
1.37587
1.37754
1.37933
1.38082
1.37229
1.37144
1.37112
1.37126
1.3719
1.37302
1.3746
1.37658
1.37872
1.38065
1.3706
1.36971
1.36937
1.36954
1.37022
1.37142
1.37313
1.37528
1.37766
1.37992
1.37276
1.3728
1.3728
1.37281
1.37282
1.37283
1.37285
1.37286
1.37286
1.3728
1.37392
1.37391
1.3739
1.37391
1.37394
1.37398
1.37403
1.37408
1.3741
1.37407
1.37466
1.37459
1.37456
1.37458
1.37465
1.37475
1.37487
1.37498
1.37507
1.37508
1.37411
1.37397
1.37391
1.37395
1.37407
1.37427
1.37452
1.37478
1.37501
1.37515
1.37424
1.374
1.37391
1.37396
1.37415
1.37447
1.37489
1.37533
1.37574
1.37601
1.37438
1.37404
1.3739
1.37397
1.37426
1.37472
1.37533
1.37601
1.37666
1.37712
1.3735
1.37302
1.37284
1.37292
1.37328
1.3739
1.37472
1.37566
1.37658
1.3773
1.37451
1.37397
1.37375
1.37386
1.3743
1.37505
1.37608
1.37727
1.37848
1.37943
1.37303
1.37236
1.37212
1.37223
1.37273
1.37358
1.37477
1.37619
1.37766
1.37892
1.37161
1.37092
1.37065
1.37079
1.37132
1.37225
1.37353
1.37508
1.37673
1.37821
1.37313
1.37317
1.37318
1.37318
1.37319
1.37319
1.3732
1.37321
1.3732
1.37314
1.37406
1.37406
1.37406
1.37407
1.37408
1.37411
1.37414
1.37416
1.37416
1.37413
1.37492
1.37488
1.37487
1.37489
1.37493
1.37499
1.37505
1.37512
1.37515
1.37512
1.37431
1.37423
1.37419
1.37421
1.37429
1.37441
1.37457
1.37474
1.37487
1.37494
1.37456
1.37441
1.37435
1.37438
1.37451
1.37473
1.37499
1.37528
1.37553
1.37567
1.37475
1.37451
1.37442
1.37447
1.37466
1.37498
1.3754
1.37585
1.37627
1.37654
1.37393
1.37359
1.37346
1.37352
1.37378
1.37422
1.37478
1.37542
1.37602
1.37648
1.37508
1.37469
1.37453
1.37461
1.37494
1.37549
1.37621
1.37703
1.37784
1.37843
1.37355
1.37305
1.37287
1.37296
1.37333
1.37396
1.37481
1.37581
1.3768
1.37762
1.37246
1.37194
1.37174
1.37184
1.37224
1.37293
1.37386
1.37495
1.37606
1.37702
1.3735
1.37353
1.37355
1.37355
1.37355
1.37355
1.37355
1.37356
1.37355
1.37349
1.37415
1.37416
1.37416
1.37417
1.37418
1.37419
1.37421
1.37423
1.37422
1.37417
1.37515
1.37514
1.37514
1.37515
1.37517
1.3752
1.37524
1.37527
1.37528
1.37522
1.37445
1.3744
1.37437
1.37439
1.37443
1.37451
1.37461
1.37471
1.37479
1.37481
1.3748
1.3747
1.37467
1.37469
1.37478
1.37491
1.37508
1.37526
1.37541
1.37548
1.375
1.37484
1.37478
1.37481
1.37495
1.37516
1.37544
1.37573
1.37599
1.37615
1.37424
1.374
1.37391
1.37396
1.37414
1.37444
1.37482
1.37524
1.37562
1.37591
1.37552
1.37526
1.37515
1.37521
1.37544
1.37582
1.37632
1.37687
1.3774
1.37775
1.37392
1.37355
1.37342
1.37348
1.37375
1.3742
1.37479
1.37547
1.37612
1.37664
1.37319
1.37281
1.37266
1.37274
1.37303
1.37352
1.37417
1.37491
1.37564
1.37626
1.37388
1.37392
1.37393
1.37393
1.37393
1.37393
1.37393
1.37393
1.37392
1.37386
1.3742
1.37422
1.37422
1.37423
1.37423
1.37424
1.37425
1.37426
1.37425
1.3742
1.37538
1.37538
1.37538
1.37539
1.3754
1.37542
1.37544
1.37545
1.37544
1.37537
1.37454
1.37451
1.3745
1.37451
1.37454
1.37458
1.37464
1.3747
1.37474
1.37474
1.37498
1.37492
1.3749
1.37492
1.37497
1.37506
1.37516
1.37527
1.37535
1.37538
1.37517
1.37507
1.37503
1.37505
1.37514
1.37528
1.37545
1.37564
1.3758
1.37588
1.37446
1.37431
1.37425
1.37428
1.3744
1.3746
1.37485
1.37512
1.37535
1.37552
1.37588
1.37571
1.37563
1.37567
1.37583
1.37609
1.37643
1.37678
1.37713
1.37732
1.37414
1.37388
1.37379
1.37384
1.37402
1.37433
1.37473
1.37518
1.37559
1.37593
1.37385
1.37358
1.37348
1.37353
1.37373
1.37407
1.37452
1.375
1.37548
1.37587
1.37435
1.37438
1.37439
1.37439
1.37439
1.37439
1.37439
1.37438
1.37437
1.37432
1.37422
1.37423
1.37424
1.37424
1.37424
1.37425
1.37426
1.37426
1.37425
1.37421
1.37561
1.37562
1.37562
1.37563
1.37564
1.37565
1.37566
1.37566
1.37564
1.37556
1.37462
1.3746
1.3746
1.3746
1.37462
1.37465
1.37468
1.37471
1.37473
1.37472
1.37511
1.37508
1.37507
1.37508
1.37511
1.37516
1.37523
1.37529
1.37534
1.37533
1.37527
1.37521
1.37518
1.37519
1.37525
1.37534
1.37545
1.37556
1.37566
1.3757
1.37463
1.37454
1.3745
1.37452
1.3746
1.37473
1.37488
1.37505
1.37519
1.37528
1.37617
1.37606
1.37601
1.37604
1.37614
1.37631
1.37653
1.37676
1.37698
1.37707
1.37425
1.37407
1.37401
1.37404
1.37417
1.37437
1.37463
1.37492
1.37518
1.37539
1.37452
1.37434
1.37427
1.3743
1.37444
1.37467
1.37496
1.37527
1.37558
1.37581
1.37501
1.37504
1.37505
1.37505
1.37505
1.37505
1.37505
1.37504
1.37503
1.37498
1.37417
1.37418
1.37418
1.37418
1.37418
1.37419
1.3742
1.3742
1.3742
1.37416
1.37583
1.37585
1.37585
1.37585
1.37586
1.37586
1.37587
1.37587
1.37585
1.37577
1.37469
1.37468
1.37468
1.37469
1.3747
1.37471
1.37473
1.37475
1.37475
1.37473
1.3752
1.37518
1.37517
1.37518
1.3752
1.37523
1.37527
1.3753
1.37533
1.37531
1.3753
1.37526
1.37525
1.37526
1.37529
1.37534
1.37541
1.37548
1.37555
1.37556
1.37476
1.37471
1.37469
1.3747
1.37475
1.37483
1.37493
1.37502
1.3751
1.37515
1.37635
1.37628
1.37625
1.37626
1.37633
1.37644
1.37658
1.37673
1.37688
1.37692
1.37423
1.37411
1.37407
1.37409
1.37417
1.3743
1.37447
1.37465
1.3748
1.37495
1.37535
1.37523
1.37518
1.3752
1.37529
1.37544
1.37563
1.37582
1.37602
1.37616
1.37615
1.37616
1.37617
1.37617
1.37617
1.37617
1.37616
1.37616
1.37614
1.3761
1.37398
1.37398
1.37399
1.37399
1.37399
1.37399
1.374
1.37401
1.374
1.37398
1.37597
1.37598
1.37598
1.37598
1.37598
1.37598
1.37599
1.37599
1.37599
1.37593
1.37477
1.37477
1.37478
1.37478
1.37479
1.3748
1.37481
1.37482
1.37481
1.37478
1.37524
1.37522
1.37522
1.37522
1.37523
1.37525
1.37528
1.3753
1.37532
1.37531
1.37528
1.37526
1.37524
1.37525
1.37527
1.37531
1.37535
1.3754
1.37544
1.37545
1.37485
1.37482
1.37481
1.37482
1.37486
1.37491
1.37497
1.37502
1.37506
1.37508
1.37631
1.37626
1.37623
1.37624
1.37628
1.37635
1.37645
1.37655
1.37666
1.37668
1.37399
1.37392
1.3739
1.37391
1.37397
1.37405
1.37415
1.37426
1.37435
1.37445
1.37656
1.37648
1.37645
1.37646
1.37652
1.37662
1.37674
1.37687
1.37701
1.37708
1.37795
1.37798
1.37798
1.37798
1.37797
1.37797
1.37797
1.37797
1.37797
1.37794
1.37351
1.37352
1.37353
1.37354
1.37355
1.37355
1.37355
1.37354
1.37353
1.37351
1.37591
1.37589
1.37588
1.37587
1.37587
1.37587
1.37588
1.3759
1.37593
1.37591
1.3749
1.37491
1.37491
1.37492
1.37492
1.37493
1.37494
1.37494
1.37494
1.37491
1.37526
1.37525
1.37524
1.37524
1.37525
1.37527
1.37529
1.37531
1.37533
1.37533
1.37526
1.37524
1.37523
1.37523
1.37525
1.37527
1.3753
1.37534
1.37538
1.37539
1.37493
1.37492
1.37491
1.37492
1.37494
1.37498
1.37502
1.37506
1.37509
1.3751
1.37591
1.37585
1.37583
1.37583
1.37586
1.37591
1.37598
1.37606
1.37615
1.37621
1.37342
1.37339
1.37338
1.37339
1.37343
1.37349
1.37356
1.37363
1.37367
1.37372
1.37836
1.3783
1.37827
1.37828
1.37833
1.3784
1.37848
1.37858
1.37868
1.37873
1.37992
1.37991
1.37989
1.37988
1.37988
1.37989
1.3799
1.37991
1.37994
1.37997
1.37291
1.37296
1.37299
1.37301
1.37302
1.37302
1.37301
1.37299
1.37295
1.37287
1.37569
1.37564
1.37562
1.3756
1.3756
1.37561
1.37563
1.37566
1.3757
1.37576
1.3751
1.3751
1.3751
1.3751
1.37511
1.37512
1.37513
1.37513
1.37514
1.37514
1.37534
1.37532
1.37531
1.37531
1.37532
1.37533
1.37535
1.37538
1.37541
1.37544
1.37532
1.37529
1.37528
1.37528
1.3753
1.37532
1.37535
1.37539
1.37542
1.37546
1.37508
1.37506
1.37505
1.37506
1.37508
1.37511
1.37515
1.37519
1.37523
1.37525
1.37539
1.37533
1.3753
1.37531
1.37533
1.37538
1.37544
1.37551
1.3756
1.37569
1.37277
1.37276
1.37275
1.37276
1.3728
1.37285
1.37291
1.37297
1.373
1.37297
1.38022
1.38017
1.38015
1.38016
1.38019
1.38025
1.38033
1.38041
1.3805
1.38054
1.47422
1.47983
1.47645
1.46939
1.5066
1.51239
1.50561
1.49503
1.53323
1.53838
1.52876
1.51567
1.55254
1.55658
1.54412
1.52903
1.56756
1.57023
1.55505
1.53847
1.57975
1.58098
1.5654
1.54667
1.58792
1.58753
1.57249
1.55144
1.59518
1.59307
1.57883
1.55553
1.59319
1.58921
1.57554
1.55024
1.5855
1.58049
1.56846
1.54206
1.37524
1.37492
1.37548
1.37654
1.39645
1.39781
1.39881
1.39851
1.416
1.41871
1.41997
1.41811
1.43481
1.43875
1.44015
1.43642
1.45251
1.45732
1.45872
1.45294
1.46963
1.475
1.47609
1.46876
1.4839
1.48957
1.4903
1.4819
1.49822
1.50401
1.50447
1.49547
1.50525
1.51107
1.51139
1.50219
1.5089
1.51524
1.51556
1.50671
1.37973
1.38017
1.38036
1.38037
1.39231
1.39329
1.39357
1.39343
1.40458
1.40616
1.40659
1.40626
1.41657
1.41883
1.41938
1.41871
1.4283
1.43123
1.43183
1.43064
1.44068
1.44426
1.44486
1.443
1.45139
1.45552
1.45608
1.45348
1.46332
1.46787
1.46838
1.46501
1.46935
1.47425
1.47471
1.47051
1.47287
1.47855
1.47901
1.4738
1.37337
1.37332
1.37336
1.37347
1.38131
1.38154
1.38164
1.38167
1.38935
1.3899
1.3901
1.39007
1.39789
1.39887
1.39923
1.39908
1.40648
1.40796
1.40847
1.4081
1.41598
1.41801
1.41865
1.41798
1.42421
1.42679
1.42752
1.42646
1.43413
1.4372
1.43801
1.43649
1.43899
1.44251
1.44341
1.44141
1.44168
1.44605
1.44709
1.44441
1.3722
1.37214
1.37215
1.37221
1.37781
1.37795
1.37801
1.37802
1.38295
1.38328
1.3834
1.38338
1.3888
1.38935
1.38956
1.38952
1.39489
1.39573
1.39604
1.39595
1.40196
1.40314
1.40357
1.40339
1.40793
1.40947
1.41002
1.4097
1.41584
1.41775
1.41841
1.4179
1.41972
1.42199
1.42282
1.42212
1.42177
1.42482
1.42585
1.4247
1.37156
1.37147
1.37145
1.37151
1.37575
1.37579
1.37582
1.37584
1.37925
1.37937
1.37944
1.37946
1.38325
1.38351
1.38364
1.38367
1.38763
1.38806
1.38827
1.3883
1.39296
1.39362
1.39391
1.39392
1.39728
1.39818
1.39857
1.39855
1.40364
1.40481
1.4053
1.4052
1.40678
1.4082
1.40886
1.40871
1.40804
1.41011
1.41094
1.41045
1.37154
1.37143
1.3714
1.37146
1.37479
1.37481
1.37483
1.37483
1.37739
1.37745
1.37749
1.3775
1.38016
1.3803
1.38037
1.3804
1.38334
1.38358
1.3837
1.38375
1.38739
1.38776
1.38795
1.38801
1.39045
1.39098
1.39125
1.39131
1.3956
1.3963
1.39666
1.3967
1.39802
1.3989
1.39938
1.39943
1.39848
1.39991
1.4005
1.40026
1.37173
1.37162
1.37159
1.37165
1.37429
1.3743
1.3743
1.37431
1.37628
1.37631
1.37633
1.37634
1.37822
1.37829
1.37833
1.37835
1.38062
1.38074
1.38082
1.38085
1.38376
1.38396
1.38409
1.38414
1.38592
1.38621
1.38639
1.38647
1.39011
1.39053
1.39077
1.39085
1.39179
1.39233
1.39265
1.39274
1.39162
1.39263
1.39303
1.39285
1.37204
1.37192
1.37189
1.37195
1.37408
1.37408
1.37408
1.37408
1.37563
1.37565
1.37566
1.37566
1.37694
1.37698
1.377
1.37702
1.37877
1.37884
1.37888
1.37891
1.38125
1.38137
1.38144
1.38148
1.38274
1.38292
1.38303
1.38309
1.38622
1.38647
1.38662
1.38669
1.38719
1.38752
1.38773
1.3878
1.3866
1.38735
1.38761
1.38744
1.37237
1.37225
1.37222
1.37228
1.37401
1.374
1.374
1.37401
1.37528
1.37528
1.37528
1.37529
1.37608
1.3761
1.37612
1.37613
1.37749
1.37753
1.37755
1.37757
1.37944
1.37951
1.37955
1.37958
1.38041
1.38052
1.38059
1.38063
1.38334
1.38349
1.38359
1.38364
1.38374
1.38394
1.38408
1.38413
1.3829
1.38349
1.38366
1.38348
1.37271
1.37259
1.37256
1.37262
1.37401
1.374
1.374
1.374
1.3751
1.3751
1.3751
1.3751
1.37552
1.37553
1.37553
1.37554
1.37662
1.37663
1.37665
1.37666
1.37814
1.37818
1.37821
1.37823
1.37869
1.37875
1.3788
1.37883
1.38121
1.3813
1.38136
1.3814
1.38115
1.38127
1.38136
1.3814
1.3802
1.38069
1.3808
1.38062
1.37304
1.37292
1.37288
1.37294
1.37404
1.37403
1.37403
1.37403
1.37505
1.37504
1.37504
1.37504
1.37515
1.37515
1.37515
1.37516
1.37604
1.37604
1.37605
1.37606
1.37722
1.37724
1.37726
1.37727
1.37743
1.37746
1.37749
1.37752
1.37965
1.3797
1.37974
1.37977
1.37921
1.37929
1.37934
1.37937
1.37828
1.37869
1.37877
1.37859
1.37337
1.37324
1.37321
1.37327
1.37408
1.37407
1.37406
1.37407
1.37508
1.37507
1.37506
1.37507
1.37491
1.37491
1.37491
1.37492
1.37566
1.37566
1.37566
1.37567
1.37658
1.37659
1.3766
1.37661
1.37653
1.37654
1.37656
1.37658
1.37855
1.37857
1.37859
1.37861
1.37777
1.37782
1.37785
1.37788
1.37696
1.37732
1.37737
1.3772
1.3737
1.37357
1.37354
1.3736
1.37411
1.3741
1.3741
1.3741
1.37517
1.37515
1.37515
1.37515
1.37477
1.37476
1.37476
1.37477
1.37544
1.37543
1.37543
1.37544
1.37615
1.37614
1.37615
1.37616
1.3759
1.3759
1.37591
1.37592
1.3778
1.3778
1.37782
1.37783
1.37672
1.37674
1.37677
1.37679
1.37613
1.37644
1.37648
1.37631
1.37406
1.37393
1.37389
1.37396
1.37414
1.37412
1.37411
1.37412
1.37531
1.37529
1.37529
1.37529
1.37468
1.37467
1.37466
1.37468
1.37532
1.3753
1.3753
1.37531
1.37586
1.37585
1.37585
1.37586
1.37547
1.37546
1.37547
1.37548
1.37732
1.37732
1.37733
1.37735
1.37595
1.37596
1.37598
1.37599
1.37571
1.37597
1.376
1.37585
1.3745
1.37437
1.37433
1.3744
1.37413
1.37411
1.37411
1.37412
1.3755
1.37548
1.37547
1.37547
1.37464
1.37462
1.37462
1.37463
1.37526
1.37525
1.37524
1.37525
1.37566
1.37565
1.37565
1.37566
1.3752
1.37518
1.37518
1.3752
1.37706
1.37705
1.37706
1.37707
1.37538
1.37538
1.37539
1.37541
1.37564
1.37587
1.37588
1.37575
1.37514
1.37501
1.37498
1.37505
1.37408
1.37406
1.37406
1.37407
1.37571
1.37569
1.37568
1.37569
1.37463
1.37461
1.37461
1.37462
1.37524
1.37522
1.37522
1.37523
1.37552
1.3755
1.3755
1.37552
1.37504
1.37502
1.37502
1.37504
1.3769
1.3769
1.3769
1.37691
1.37491
1.37491
1.37492
1.37493
1.376
1.37617
1.37619
1.37608
1.37624
1.37611
1.37609
1.37615
1.37388
1.37386
1.37386
1.37388
1.37588
1.37587
1.37586
1.37587
1.37468
1.37466
1.37465
1.37466
1.37524
1.37522
1.37522
1.37524
1.3754
1.37539
1.37539
1.3754
1.37497
1.37494
1.37494
1.37496
1.37671
1.3767
1.3767
1.37672
1.37439
1.37438
1.37439
1.3744
1.37695
1.37708
1.37709
1.37701
1.37806
1.37795
1.37793
1.378
1.37338
1.37335
1.37335
1.37336
1.37591
1.3759
1.3759
1.37591
1.3748
1.37478
1.37477
1.37479
1.37528
1.37527
1.37527
1.37528
1.37535
1.37534
1.37534
1.37536
1.37499
1.37496
1.37496
1.37498
1.3763
1.37631
1.37631
1.37632
1.37361
1.37358
1.37358
1.3736
1.37871
1.37879
1.3788
1.37875
1.38006
1.38
1.38
1.38004
1.37262
1.37257
1.37255
1.37257
1.37582
1.37583
1.37584
1.37585
1.37506
1.37504
1.37504
1.37505
1.37542
1.37542
1.37542
1.37543
1.37545
1.37545
1.37545
1.37546
1.37518
1.37517
1.37517
1.37518
1.37585
1.37588
1.37589
1.37588
1.37269
1.37261
1.3726
1.37265
1.38074
1.38079
1.3808
1.38075
1.43151
1.40723
1.38632
1.37225
1.36381
1.3586
1.35517
1.35282
1.3512
1.35003
1.44391
1.41118
1.38627
1.37173
1.36363
1.3587
1.35553
1.35341
1.35197
1.35096
1.44613
1.40986
1.38266
1.36968
1.36201
1.35736
1.35433
1.35231
1.35101
1.35024
1.44373
1.40678
1.37814
1.36752
1.36039
1.35626
1.35351
1.35169
1.3505
1.34975
1.43867
1.40261
1.37424
1.36536
1.35859
1.35496
1.35243
1.3508
1.34973
1.34913
1.4319
1.3994
1.37158
1.36451
1.35799
1.35487
1.35253
1.35109
1.35008
1.34944
1.42239
1.39499
1.36766
1.36238
1.35598
1.35337
1.35115
1.34986
1.34892
1.3484
1.41507
1.39346
1.36658
1.3631
1.35676
1.35462
1.35241
1.35115
1.35017
1.34949
1.40456
1.38792
1.36209
1.36065
1.35474
1.35318
1.35102
1.34984
1.34889
1.34822
1.40171
1.38817
1.3629
1.36203
1.35525
1.35301
1.35006
1.34828
1.34686
1.34569
1.38026
1.37754
1.37425
1.37094
1.36776
1.3649
1.36245
1.36041
1.35874
1.35748
1.39776
1.38995
1.38264
1.37641
1.37125
1.3672
1.36407
1.36164
1.35974
1.35831
1.41101
1.39821
1.38724
1.37869
1.372
1.36705
1.36342
1.36072
1.35871
1.35736
1.42107
1.40384
1.38972
1.3797
1.37213
1.3668
1.36298
1.36018
1.3581
1.35665
1.42783
1.4074
1.39065
1.37971
1.37159
1.36612
1.36221
1.35941
1.35728
1.35587
1.4331
1.41066
1.39171
1.38033
1.37188
1.36642
1.3625
1.35971
1.35758
1.35606
1.4351
1.41163
1.39084
1.37936
1.37067
1.3653
1.36137
1.3586
1.35643
1.35496
1.43774
1.41423
1.39204
1.38082
1.37201
1.36678
1.36279
1.35995
1.3577
1.35602
1.43558
1.41217
1.38961
1.3793
1.37076
1.36576
1.36171
1.35883
1.35653
1.35479
1.4361
1.41332
1.39037
1.38012
1.37092
1.36529
1.36062
1.35721
1.35453
1.35231
1.37963
1.37763
1.37512
1.37258
1.3702
1.36807
1.36622
1.36463
1.36332
1.36229
1.39168
1.38725
1.38213
1.37758
1.37383
1.37077
1.36826
1.3662
1.36451
1.36318
1.40286
1.39514
1.38694
1.38022
1.37498
1.37094
1.3678
1.36535
1.36343
1.36207
1.413
1.40166
1.39058
1.38215
1.37579
1.37105
1.36747
1.36473
1.36261
1.36107
1.42181
1.40672
1.39292
1.38307
1.37583
1.37061
1.36673
1.36382
1.36156
1.36
1.43023
1.41157
1.39531
1.38439
1.37646
1.37095
1.36688
1.36387
1.36154
1.35986
1.43605
1.41412
1.39565
1.38395
1.3755
1.36981
1.36562
1.36255
1.36015
1.35849
1.44258
1.41797
1.39776
1.38569
1.3769
1.37112
1.36681
1.36364
1.36116
1.35932
1.44381
1.41719
1.39638
1.38466
1.37594
1.37019
1.36574
1.36248
1.35992
1.35801
1.44506
1.41754
1.39642
1.38456
1.37532
1.36911
1.36422
1.36058
1.35776
1.35548
1.37342
1.37296
1.37218
1.37119
1.3701
1.369
1.36794
1.36697
1.36612
1.36544
1.38139
1.38005
1.37817
1.37615
1.37415
1.37227
1.37056
1.36905
1.36775
1.36668
1.38922
1.38634
1.38266
1.37909
1.37586
1.37306
1.37068
1.36869
1.36705
1.36582
1.39735
1.39254
1.38689
1.38176
1.37734
1.37368
1.3707
1.36828
1.36632
1.36482
1.40506
1.39798
1.3902
1.38356
1.37808
1.37372
1.37026
1.36752
1.36532
1.36372
1.41315
1.40358
1.39364
1.38567
1.37927
1.37436
1.37055
1.36757
1.36521
1.36344
1.41937
1.40719
1.39513
1.38598
1.37881
1.37348
1.36939
1.36625
1.36375
1.36195
1.42681
1.41217
1.39825
1.38824
1.38048
1.37485
1.37052
1.36721
1.36459
1.36261
1.42965
1.413
1.39809
1.38776
1.37973
1.37391
1.36938
1.36594
1.36323
1.36119
1.43187
1.41366
1.39792
1.38706
1.37856
1.37236
1.36751
1.3638
1.36091
1.35859
1.37208
1.37182
1.37142
1.3709
1.37031
1.3697
1.36908
1.3685
1.36798
1.36757
1.37785
1.37725
1.37636
1.37528
1.37411
1.37295
1.37183
1.3708
1.36988
1.3691
1.38298
1.38167
1.37985
1.37787
1.37589
1.37404
1.37236
1.37086
1.36957
1.36857
1.38883
1.38655
1.38354
1.38045
1.37754
1.37492
1.37264
1.37068
1.36902
1.3677
1.3948
1.39126
1.38684
1.38256
1.37869
1.37535
1.37252
1.37016
1.36819
1.36671
1.40155
1.39651
1.39053
1.38505
1.38027
1.37629
1.37301
1.37032
1.36811
1.36641
1.40692
1.40014
1.3925
1.38586
1.38025
1.37572
1.37205
1.36911
1.36669
1.36492
1.41396
1.40538
1.39617
1.38853
1.38221
1.37722
1.37322
1.37004
1.36748
1.3655
1.4173
1.40716
1.39686
1.38854
1.3817
1.37636
1.37209
1.36875
1.36607
1.36402
1.41952
1.40786
1.39656
1.38758
1.38027
1.37458
1.37005
1.36649
1.36368
1.3614
1.37141
1.37129
1.3711
1.37084
1.37054
1.37022
1.36988
1.36956
1.36926
1.36905
1.3758
1.37554
1.37511
1.37455
1.37391
1.37322
1.37253
1.37188
1.37127
1.37074
1.37935
1.37878
1.37789
1.37681
1.37564
1.37445
1.37331
1.37224
1.3713
1.37055
1.38345
1.3824
1.38084
1.37904
1.37719
1.3754
1.37374
1.37224
1.37093
1.36985
1.3879
1.38618
1.38375
1.38111
1.3785
1.37607
1.37388
1.37197
1.37032
1.36904
1.39326
1.39068
1.38723
1.38366
1.38027
1.37723
1.37456
1.37228
1.37035
1.36882
1.3975
1.39386
1.38925
1.38471
1.38055
1.37692
1.37382
1.37123
1.36905
1.3674
1.40365
1.39885
1.39304
1.38759
1.38271
1.37856
1.37508
1.37221
1.36985
1.36798
1.40681
1.40091
1.39411
1.38785
1.38236
1.37779
1.37401
1.37094
1.36843
1.36648
1.40839
1.40135
1.39366
1.38678
1.38084
1.37595
1.37192
1.36867
1.36605
1.36391
1.37136
1.37129
1.3712
1.37106
1.37091
1.37073
1.37054
1.37037
1.37021
1.37012
1.37481
1.37468
1.37446
1.37416
1.3738
1.3734
1.37299
1.37258
1.3722
1.37186
1.37744
1.37715
1.37668
1.37606
1.37535
1.3746
1.37384
1.37312
1.37247
1.37194
1.3803
1.37978
1.37892
1.37786
1.37668
1.37547
1.3743
1.37321
1.37223
1.3714
1.3836
1.38272
1.38135
1.37971
1.37797
1.37625
1.37462
1.37315
1.37184
1.37081
1.38776
1.38641
1.3844
1.3821
1.37975
1.3775
1.37544
1.3736
1.372
1.3707
1.39093
1.38896
1.38619
1.38315
1.38016
1.37737
1.37488
1.37272
1.37085
1.3694
1.3961
1.39342
1.38981
1.38603
1.38239
1.37911
1.37623
1.37377
1.3717
1.37003
1.39869
1.39525
1.39082
1.38632
1.38211
1.37841
1.37522
1.37256
1.37031
1.36855
1.39949
1.39532
1.39023
1.3852
1.38059
1.3766
1.37319
1.37035
1.36801
1.36607
1.37155
1.37151
1.37146
1.37139
1.37131
1.37122
1.37112
1.37102
1.37095
1.37092
1.3743
1.37424
1.37413
1.37397
1.37378
1.37355
1.37331
1.37307
1.37284
1.37262
1.37631
1.37616
1.3759
1.37554
1.37511
1.37465
1.37417
1.37369
1.37326
1.37291
1.37831
1.37803
1.37754
1.3769
1.37615
1.37536
1.37456
1.3738
1.37309
1.37248
1.38079
1.38031
1.37951
1.37848
1.37733
1.37614
1.37497
1.37389
1.3729
1.3721
1.38404
1.3833
1.3821
1.38062
1.37901
1.37739
1.37585
1.37443
1.37318
1.37212
1.38633
1.38524
1.38354
1.38153
1.37941
1.37734
1.37542
1.37369
1.37216
1.37095
1.39061
1.3891
1.38684
1.38426
1.38163
1.37913
1.37685
1.37484
1.37311
1.37167
1.39244
1.39043
1.38758
1.38444
1.38133
1.37846
1.37589
1.37367
1.37175
1.37022
1.39262
1.39015
1.38685
1.3833
1.37986
1.37673
1.37397
1.37159
1.36959
1.36788
1.37185
1.37183
1.37181
1.37177
1.37172
1.37167
1.37162
1.37157
1.37154
1.37156
1.37408
1.37406
1.37401
1.37393
1.37382
1.3737
1.37356
1.37342
1.37329
1.37315
1.37564
1.37557
1.37543
1.37522
1.37497
1.37469
1.37439
1.37409
1.37381
1.37359
1.37699
1.37684
1.37656
1.37617
1.3757
1.37519
1.37466
1.37414
1.37366
1.37323
1.37888
1.37861
1.37812
1.37747
1.37672
1.37592
1.37511
1.37433
1.37362
1.37303
1.38143
1.38101
1.38027
1.37931
1.37822
1.37709
1.37598
1.37493
1.37398
1.37316
1.38303
1.3824
1.38134
1.38001
1.37854
1.37705
1.37561
1.37428
1.37308
1.37212
1.38659
1.38571
1.38428
1.38254
1.38068
1.37883
1.37709
1.37551
1.37413
1.37294
1.38767
1.38649
1.38467
1.38253
1.3803
1.37815
1.37615
1.37438
1.3728
1.37153
1.38742
1.38595
1.38383
1.38139
1.37891
1.37654
1.37438
1.37247
1.37082