/*--------------------------------*- C++ -*----------------------------------*\
| =========                 |                                                 |
| \\      /  F ield         | foam-extend: Open Source CFD                    |
|  \\    /   O peration     | Version:     4.0                                |
|   \\  /    A nd           | Web:         http://www.foam-extend.org         |
|    \\/     M anipulation  |                                                 |
\*---------------------------------------------------------------------------*/
FoamFile
{
    version     2.0;
    format      ascii;
    class       volScalarField;
    location    "800";
    object      T;
}
// * * * * * * * * * * * * * * * * * * * * * * * * * * * * * * * * * * * * * //

dimensions      [0 0 0 1 0 0 0];

internalField   nonuniform List<scalar> 
34480
(
279.177
279.065
278.982
278.924
278.887
278.871
278.877
278.948
279.2
279.142
278.66
278.537
278.438
278.365
278.324
278.316
278.329
278.361
278.559
278.084
278.568
278.431
278.318
278.233
278.184
278.157
278.122
278.054
278.163
277.347
278.601
278.444
278.308
278.196
278.112
278.034
277.934
277.759
277.745
276.577
278.6
278.419
278.256
278.114
277.99
277.856
277.688
277.4
277.229
275.701
278.649
278.447
278.263
278.096
277.939
277.757
277.522
277.118
276.758
274.845
278.659
278.434
278.229
278.039
277.853
277.626
277.327
276.808
276.235
273.931
278.718
278.473
278.257
278.059
277.865
277.623
277.288
276.682
275.896
273.17
278.774
278.51
278.276
278.059
277.838
277.566
277.186
276.492
275.491
272.405
279.585
279.307
279.104
278.956
278.839
278.701
278.468
277.91
276.867
273.349
279.703
279.61
279.571
279.584
279.652
279.792
280.044
280.489
281.141
281.991
279.082
278.995
278.956
278.967
279.039
279.197
279.477
279.962
280.739
281.735
278.891
278.807
278.77
278.781
278.857
279.016
279.29
279.764
280.595
281.679
278.83
278.745
278.704
278.706
278.768
278.904
279.153
279.6
280.458
281.583
278.741
278.652
278.604
278.594
278.638
278.746
278.961
279.368
280.224
281.36
278.712
278.622
278.571
278.553
278.582
278.664
278.845
279.202
280.026
281.137
278.654
278.559
278.503
278.477
278.492
278.55
278.696
278.998
279.767
280.835
278.66
278.564
278.511
278.49
278.508
278.56
278.686
278.94
279.635
280.609
278.674
278.572
278.512
278.482
278.486
278.521
278.619
278.822
279.433
280.324
279.432
279.342
279.317
279.351
279.441
279.576
279.772
280.048
280.608
281.223
280.171
280.073
280.035
280.053
280.127
280.268
280.493
280.831
281.321
281.935
279.539
279.439
279.399
279.418
279.502
279.669
279.95
280.397
281.096
282.014
279.328
279.226
279.185
279.201
279.288
279.465
279.77
280.273
281.131
282.327
279.235
279.129
279.082
279.092
279.17
279.337
279.642
280.171
281.16
282.602
279.116
279.005
278.952
278.951
279.015
279.163
279.453
279.982
281.066
282.709
279.062
278.948
278.891
278.882
278.934
279.061
279.329
279.842
280.982
282.775
278.981
278.862
278.8
278.783
278.822
278.929
279.171
279.653
280.816
282.721
278.968
278.848
278.788
278.774
278.814
278.915
279.138
279.586
280.735
282.698
278.964
278.84
278.776
278.755
278.785
278.871
279.07
279.474
280.582
282.621
279.688
279.577
279.538
279.565
279.658
279.816
280.081
280.523
281.575
283.53
280.504
280.419
280.388
280.405
280.471
280.588
280.762
280.998
281.299
281.634
279.896
279.802
279.766
279.788
279.871
280.025
280.265
280.613
281.096
281.643
279.691
279.588
279.548
279.57
279.662
279.836
280.121
280.554
281.204
281.99
279.586
279.473
279.428
279.446
279.536
279.716
280.024
280.518
281.328
282.367
279.451
279.331
279.279
279.289
279.371
279.545
279.86
280.39
281.337
282.614
279.38
279.254
279.198
279.201
279.276
279.439
279.751
280.297
281.354
282.838
279.283
279.152
279.091
279.087
279.152
279.301
279.601
280.147
281.284
282.947
279.253
279.122
279.062
279.06
279.126
279.271
279.561
280.095
281.274
283.071
279.234
279.1
279.037
279.029
279.087
279.222
279.499
280.011
281.191
283.133
279.925
279.803
279.758
279.783
279.885
280.069
280.388
280.928
282.078
284.048
280.728
280.661
280.638
280.651
280.7
280.784
280.901
281.047
281.214
281.38
280.164
280.084
280.054
280.073
280.143
280.267
280.45
280.694
280.996
281.296
279.984
279.889
279.853
279.875
279.959
280.112
280.349
280.682
281.13
281.6
279.882
279.773
279.731
279.751
279.841
280.013
280.29
280.7
281.3
281.973
279.746
279.625
279.576
279.592
279.681
279.859
280.161
280.63
281.374
282.26
279.668
279.539
279.485
279.496
279.582
279.76
280.076
280.586
281.46
282.552
279.563
279.427
279.368
279.372
279.453
279.626
279.945
280.48
281.462
282.748
279.523
279.385
279.326
279.332
279.414
279.586
279.907
280.453
281.511
282.964
279.492
279.353
279.291
279.292
279.369
279.535
279.852
280.398
281.494
283.123
280.151
280.021
279.972
279.997
280.103
280.302
280.647
281.218
282.313
284.035
280.874
280.824
280.808
280.817
280.85
280.905
280.979
281.065
281.158
281.247
280.356
280.295
280.271
280.286
280.34
280.432
280.561
280.723
280.906
281.074
280.209
280.129
280.099
280.118
280.188
280.313
280.495
280.736
281.028
281.307
280.123
280.025
279.987
280.007
280.089
280.239
280.469
280.787
281.205
281.628
279.996
279.883
279.838
279.856
279.943
280.109
280.376
280.761
281.307
281.894
279.92
279.796
279.745
279.76
279.85
280.026
280.319
280.759
281.431
282.189
279.814
279.68
279.624
279.635
279.724
279.902
280.212
280.694
281.48
282.41
279.77
279.632
279.575
279.587
279.678
279.861
280.183
280.693
281.569
282.659
279.73
279.591
279.531
279.54
279.628
279.809
280.135
280.663
281.597
282.859
280.357
280.227
280.176
280.2
280.308
280.512
280.858
281.41
282.364
283.738
280.966
280.93
280.919
280.924
280.945
280.979
281.023
281.073
281.124
281.176
280.491
280.447
280.43
280.44
280.478
280.542
280.629
280.732
280.843
280.94
280.379
280.315
280.291
280.306
280.361
280.456
280.589
280.755
280.941
281.109
280.312
280.229
280.197
280.214
280.284
280.407
280.587
280.821
281.102
281.367
280.201
280.101
280.062
280.079
280.158
280.303
280.524
280.824
281.21
281.592
280.134
280.02
279.974
279.991
280.076
280.238
280.493
280.853
281.347
281.861
280.033
279.907
279.856
279.87
279.958
280.13
280.411
280.821
281.42
282.073
279.989
279.857
279.804
279.82
279.912
280.092
280.393
280.842
281.53
282.319
279.944
279.81
279.755
279.769
279.86
280.042
280.353
280.83
281.583
282.52
280.542
280.415
280.365
280.389
280.495
280.693
281.02
281.521
282.306
283.344
281.023
280.996
280.988
280.992
281.004
281.024
281.05
281.078
281.106
281.141
280.586
280.555
280.542
280.55
280.575
280.617
280.673
280.738
280.805
280.864
280.503
280.455
280.437
280.448
280.488
280.557
280.65
280.761
280.88
280.982
280.455
280.389
280.363
280.377
280.432
280.528
280.662
280.829
281.016
281.182
280.364
280.28
280.247
280.263
280.33
280.449
280.623
280.848
281.114
281.363
280.309
280.21
280.17
280.187
280.263
280.403
280.614
280.896
281.249
281.594
280.217
280.104
280.059
280.075
280.157
280.311
280.552
280.886
281.328
281.779
280.178
280.058
280.01
280.027
280.115
280.282
280.548
280.923
281.445
282.004
280.132
280.008
279.958
279.973
280.063
280.235
280.515
280.923
281.507
282.181
280.701
280.583
280.536
280.559
280.658
280.842
281.137
281.569
282.188
282.942
281.056
281.035
281.03
281.032
281.039
281.051
281.065
281.081
281.098
281.123
280.651
280.63
280.621
280.626
280.642
280.669
280.704
280.744
280.786
280.825
280.593
280.559
280.546
280.553
280.582
280.629
280.691
280.764
280.84
280.905
280.562
280.511
280.491
280.502
280.544
280.615
280.711
280.826
280.949
281.056
280.491
280.423
280.397
280.41
280.464
280.557
280.69
280.852
281.033
281.195
280.45
280.367
280.334
280.349
280.413
280.529
280.696
280.909
281.156
281.386
280.369
280.272
280.233
280.248
280.32
280.452
280.65
280.911
281.23
281.538
280.338
280.233
280.191
280.208
280.287
280.434
280.657
280.959
281.344
281.733
280.291
280.181
280.137
280.153
280.235
280.389
280.63
280.964
281.404
281.877
280.833
280.728
280.685
280.706
280.796
280.96
281.214
281.571
282.043
282.574
281.074
281.057
281.054
281.054
281.059
281.065
281.073
281.082
281.092
281.113
280.696
280.682
280.676
280.679
280.689
280.705
280.727
280.752
280.779
280.807
280.659
280.635
280.626
280.631
280.65
280.681
280.722
280.769
280.817
280.861
280.64
280.602
280.587
280.595
280.625
280.676
280.743
280.821
280.901
280.971
280.588
280.535
280.515
280.525
280.566
280.637
280.734
280.848
280.969
281.076
280.56
280.494
280.467
280.48
280.532
280.622
280.75
280.906
281.077
281.23
280.49
280.409
280.377
280.391
280.451
280.559
280.716
280.913
281.138
281.347
280.47
280.381
280.346
280.361
280.43
280.553
280.734
280.968
281.245
281.512
280.423
280.328
280.29
280.306
280.378
280.51
280.708
280.972
281.294
281.62
280.938
280.848
280.81
280.829
280.907
281.048
281.258
281.542
281.892
282.255
281.081
281.067
281.064
281.065
281.067
281.071
281.075
281.08
281.087
281.104
280.728
280.719
280.714
280.716
280.722
280.732
280.745
280.761
280.779
280.801
280.707
280.691
280.684
280.687
280.7
280.72
280.746
280.776
280.808
280.839
280.696
280.668
280.658
280.663
280.684
280.719
280.765
280.816
280.868
280.916
280.66
280.621
280.605
280.613
280.644
280.695
280.763
280.842
280.923
280.993
280.644
280.593
280.572
280.582
280.623
280.691
280.785
280.896
281.013
281.115
280.584
280.519
280.494
280.505
280.554
280.639
280.758
280.903
281.059
281.2
280.577
280.504
280.476
280.489
280.545
280.644
280.785
280.961
281.157
281.337
280.529
280.45
280.419
280.432
280.493
280.602
280.759
280.96
281.191
281.411
281.018
280.943
280.911
280.927
280.993
281.108
281.277
281.495
281.748
281.99
281.081
281.068
281.066
281.066
281.068
281.07
281.072
281.075
281.08
281.096
280.751
280.744
280.741
280.741
280.745
280.751
280.759
280.769
280.782
280.801
280.744
280.733
280.728
280.73
280.738
280.751
280.767
280.786
280.807
280.83
280.735
280.716
280.708
280.712
280.726
280.749
280.779
280.813
280.847
280.881
280.714
280.685
280.674
280.68
280.701
280.737
280.784
280.837
280.89
280.938
280.707
280.669
280.654
280.661
280.691
280.742
280.809
280.886
280.964
281.032
280.655
280.605
280.586
280.594
280.632
280.696
280.784
280.887
280.995
281.089
280.661
280.604
280.582
280.593
280.637
280.714
280.82
280.948
281.083
281.205
280.61
280.547
280.523
280.534
280.583
280.668
280.789
280.938
281.099
281.246
281.073
281.014
280.989
281.002
281.054
281.146
281.276
281.438
281.616
281.775
281.075
281.064
281.062
281.062
281.063
281.064
281.065
281.067
281.07
281.085
280.767
280.762
280.759
280.759
280.761
280.765
280.77
280.777
280.787
280.803
280.773
280.765
280.762
280.763
280.768
280.776
280.786
280.798
280.812
280.831
280.763
280.749
280.744
280.746
280.755
280.771
280.79
280.812
280.834
280.859
280.753
280.733
280.725
280.729
280.744
280.769
280.8
280.835
280.87
280.903
280.754
280.726
280.715
280.721
280.742
280.778
280.825
280.877
280.929
280.975
280.707
280.67
280.656
280.662
280.69
280.737
280.8
280.872
280.944
281.008
280.727
280.684
280.667
280.676
280.71
280.767
280.845
280.935
281.027
281.108
280.672
280.623
280.604
280.613
280.651
280.716
280.805
280.911
281.022
281.12
281.108
281.063
281.043
281.053
281.094
281.164
281.261
281.378
281.501
281.602
281.065
281.055
281.054
281.054
281.054
281.055
281.056
281.057
281.059
281.072
280.778
280.773
280.771
280.771
280.772
280.775
280.778
280.782
280.79
280.806
280.797
280.791
280.789
280.79
280.793
280.798
280.804
280.811
280.821
280.837
280.781
280.772
280.768
280.769
280.775
280.785
280.797
280.811
280.826
280.845
280.782
280.768
280.763
280.766
280.776
280.792
280.813
280.835
280.857
280.881
280.788
280.768
280.761
280.765
280.779
280.804
280.836
280.87
280.904
280.936
280.745
280.718
280.708
280.713
280.733
280.766
280.809
280.858
280.906
280.949
280.779
280.748
280.736
280.742
280.767
280.808
280.863
280.925
280.986
281.04
280.715
280.679
280.665
280.671
280.699
280.747
280.811
280.885
280.96
281.023
281.125
281.093
281.078
281.085
281.116
281.167
281.237
281.319
281.402
281.464
281.053
281.044
281.043
281.043
281.043
281.043
281.044
281.045
281.046
281.059
280.784
280.78
280.778
280.778
280.779
280.78
280.782
280.785
280.792
280.807
280.819
280.815
280.813
280.814
280.815
280.818
280.822
280.826
280.833
280.847
280.794
280.787
280.785
280.785
280.789
280.795
280.803
280.811
280.822
280.837
280.804
280.795
280.791
280.793
280.8
280.81
280.823
280.837
280.851
280.868
280.812
280.799
280.793
280.796
280.806
280.822
280.843
280.866
280.888
280.91
280.772
280.753
280.746
280.749
280.763
280.786
280.815
280.847
280.878
280.907
280.82
280.799
280.79
280.795
280.812
280.841
280.879
280.92
280.96
280.995
280.744
280.717
280.708
280.712
280.732
280.766
280.81
280.861
280.91
280.951
281.129
281.107
281.096
281.101
281.123
281.16
281.209
281.264
281.318
281.356
281.041
281.033
281.032
281.032
281.032
281.033
281.033
281.033
281.035
281.045
280.786
280.782
280.78
280.78
280.78
280.781
280.783
280.785
280.791
280.805
280.839
280.836
280.836
280.836
280.837
280.838
280.84
280.843
280.848
280.859
280.802
280.797
280.795
280.796
280.798
280.802
280.806
280.812
280.819
280.831
280.82
280.814
280.812
280.813
280.817
280.823
280.831
280.84
280.849
280.862
280.828
280.819
280.816
280.818
280.824
280.835
280.848
280.862
280.876
280.892
280.79
280.778
280.773
280.775
280.784
280.799
280.818
280.839
280.858
280.878
280.854
280.84
280.834
280.837
280.849
280.868
280.893
280.92
280.946
280.968
280.76
280.741
280.735
280.738
280.752
280.775
280.804
280.837
280.869
280.896
281.125
281.11
281.102
281.106
281.121
281.146
281.179
281.216
281.251
281.273
281.037
281.029
281.029
281.029
281.029
281.029
281.029
281.029
281.03
281.039
280.781
280.777
280.776
280.776
280.776
280.777
280.778
280.78
280.785
280.798
280.859
280.857
280.857
280.857
280.858
280.858
280.859
280.861
280.864
280.874
280.807
280.803
280.802
280.802
280.804
280.806
280.809
280.812
280.816
280.827
280.83
280.826
280.825
280.826
280.828
280.832
280.837
280.842
280.848
280.857
280.838
280.832
280.829
280.83
280.835
280.841
280.85
280.858
280.867
280.878
280.802
280.794
280.791
280.793
280.799
280.808
280.82
280.833
280.845
280.858
280.88
280.871
280.867
280.869
280.877
280.89
280.906
280.923
280.94
280.954
280.764
280.751
280.747
280.749
280.758
280.773
280.793
280.814
280.833
280.851
281.12
281.111
281.105
281.108
281.118
281.135
281.157
281.18
281.202
281.214
281.047
281.045
281.045
281.045
281.045
281.045
281.045
281.045
281.045
281.052
280.767
280.763
280.762
280.762
280.762
280.762
280.763
280.765
280.769
280.781
280.876
280.874
280.874
280.874
280.874
280.875
280.875
280.876
280.879
280.887
280.809
280.807
280.806
280.807
280.808
280.809
280.81
280.812
280.815
280.822
280.836
280.833
280.832
280.833
280.834
280.836
280.84
280.843
280.846
280.853
280.84
280.836
280.835
280.835
280.838
280.842
280.847
280.853
280.859
280.866
280.809
280.804
280.803
280.804
280.807
280.813
280.821
280.828
280.835
280.843
280.895
280.888
280.885
280.887
280.892
280.9
280.911
280.922
280.933
280.942
280.753
280.744
280.741
280.743
280.749
280.759
280.771
280.784
280.796
280.807
281.129
281.124
281.12
281.122
281.128
281.139
281.153
281.168
281.183
281.188
281.107
281.1
281.1
281.1
281.1
281.1
281.1
281.1
281.1
281.105
280.734
280.731
280.731
280.731
280.731
280.732
280.732
280.732
280.735
280.745
280.883
280.881
280.88
280.879
280.879
280.88
280.881
280.882
280.884
280.891
280.811
280.81
280.81
280.811
280.811
280.812
280.813
280.814
280.815
280.82
280.838
280.835
280.835
280.835
280.836
280.837
280.839
280.842
280.844
280.849
280.839
280.836
280.835
280.835
280.837
280.839
280.843
280.847
280.85
280.856
280.812
280.809
280.808
280.809
280.811
280.815
280.82
280.825
280.829
280.833
280.888
280.883
280.88
280.881
280.884
280.89
280.897
280.905
280.913
280.92
280.718
280.713
280.712
280.713
280.717
280.723
280.731
280.739
280.746
280.753
281.169
281.165
281.162
281.164
281.168
281.175
281.185
281.194
281.205
281.208
281.191
281.188
281.187
281.186
281.186
281.186
281.187
281.188
281.189
281.193
280.679
280.68
280.682
280.683
280.683
280.683
280.683
280.682
280.681
280.684
280.875
280.872
280.87
280.87
280.869
280.87
280.871
280.873
280.876
280.883
280.816
280.816
280.816
280.816
280.817
280.817
280.818
280.819
280.819
280.821
280.838
280.837
280.836
280.836
280.836
280.838
280.839
280.841
280.844
280.847
280.837
280.835
280.834
280.834
280.835
280.837
280.84
280.843
280.846
280.85
280.815
280.813
280.812
280.813
280.814
280.817
280.821
280.824
280.827
280.83
280.86
280.855
280.853
280.853
280.856
280.86
280.865
280.872
280.879
280.886
280.662
280.66
280.66
280.661
280.664
280.668
280.674
280.68
280.683
280.684
281.232
281.229
281.227
281.227
281.231
281.236
281.243
281.25
281.258
281.261
289.613
291.354
291.617
290.045
290.757
292.869
293.278
291.637
292.397
295.003
295.538
293.592
293.668
296.714
297.385
295.233
294.611
298.067
298.881
296.596
295.352
299.187
300.168
298.08
295.899
300.097
301.276
299.515
296.368
300.893
302.283
300.9
296.576
301.404
303.013
302.053
297.134
302.155
304.034
303.651
286.393
286.937
286.921
286.404
287.675
288.316
288.26
287.618
289.245
290.046
289.942
289.099
290.656
291.601
291.44
290.407
291.811
292.895
292.67
291.457
292.813
294.035
293.8
292.435
293.606
294.958
294.735
293.238
294.29
295.746
295.546
293.942
294.715
296.236
296.066
294.399
295.489
296.985
296.928
295.315
282.558
282.692
282.725
282.657
283.29
283.509
283.552
283.419
284.426
284.764
284.811
284.569
285.659
286.117
286.161
285.791
286.793
287.366
287.399
286.888
287.904
288.589
288.61
287.966
288.875
289.668
289.678
288.912
289.795
290.681
290.683
289.814
290.536
291.462
291.466
290.547
291.762
292.62
292.665
291.824
281.808
281.875
281.897
281.876
282.082
282.17
282.202
282.181
282.766
282.916
282.961
282.91
283.611
283.833
283.888
283.792
284.423
284.723
284.784
284.626
285.289
285.67
285.732
285.502
286.086
286.548
286.609
286.299
286.904
287.437
287.495
287.104
287.641
288.208
288.263
287.819
288.965
289.46
289.53
289.13
281.385
281.422
281.434
281.423
281.444
281.476
281.491
281.491
281.874
281.933
281.961
281.958
282.456
282.556
282.597
282.583
283.025
283.174
283.228
283.194
283.668
283.874
283.938
283.874
284.273
284.539
284.61
284.505
284.929
285.251
285.326
285.174
285.55
285.901
285.975
285.784
286.782
287.064
287.146
286.991
281.215
281.245
281.254
281.243
281.141
281.156
281.164
281.164
281.429
281.456
281.471
281.473
281.843
281.891
281.915
281.917
282.245
282.321
282.357
282.355
282.722
282.832
282.88
282.871
283.168
283.318
283.377
283.353
283.675
283.863
283.929
283.885
284.162
284.373
284.441
284.375
285.264
285.41
285.482
285.455
281.13
281.157
281.164
281.153
280.972
280.979
280.983
280.984
281.167
281.181
281.189
281.191
281.472
281.496
281.51
281.513
281.766
281.805
281.827
281.831
282.13
282.189
282.22
282.224
282.464
282.547
282.587
282.588
282.854
282.963
283.011
283.006
283.221
283.347
283.398
283.382
284.199
284.259
284.314
284.342
281.09
281.116
281.123
281.112
280.883
280.887
280.89
280.891
281.015
281.022
281.026
281.028
281.239
281.252
281.26
281.262
281.457
281.478
281.49
281.494
281.739
281.772
281.791
281.796
281.992
282.039
282.065
282.07
282.297
282.359
282.392
282.396
282.565
282.639
282.675
282.675
283.439
283.446
283.483
283.531
281.071
281.096
281.103
281.092
280.837
280.84
280.842
280.843
280.925
280.93
280.932
280.933
281.089
281.097
281.102
281.103
281.249
281.262
281.269
281.271
281.47
281.489
281.5
281.504
281.66
281.688
281.704
281.708
281.9
281.937
281.957
281.962
282.094
282.139
282.162
282.166
282.88
282.856
282.879
282.931
281.061
281.086
281.093
281.081
280.817
280.819
280.821
280.821
280.876
280.879
280.881
280.881
280.993
280.999
281.002
281.002
281.11
281.118
281.123
281.124
281.282
281.293
281.3
281.302
281.422
281.439
281.449
281.452
281.611
281.634
281.647
281.65
281.749
281.776
281.791
281.795
282.459
282.418
282.431
282.481
281.054
281.08
281.086
281.074
280.81
280.813
280.814
280.814
280.851
280.854
280.855
280.855
280.933
280.937
280.939
280.939
281.018
281.023
281.026
281.027
281.15
281.158
281.162
281.163
281.249
281.26
281.267
281.268
281.401
281.415
281.423
281.425
281.493
281.51
281.52
281.522
282.136
282.086
282.093
282.141
281.047
281.073
281.08
281.067
280.811
280.813
280.815
280.814
280.842
280.844
280.846
280.845
280.895
280.899
280.9
280.9
280.957
280.961
280.964
280.963
281.058
281.064
281.067
281.067
281.124
281.132
281.137
281.137
281.248
281.257
281.263
281.263
281.302
281.314
281.319
281.32
281.886
281.832
281.835
281.88
281.038
281.065
281.072
281.059
280.815
280.818
280.819
280.818
280.842
280.845
280.846
280.845
280.873
280.876
280.877
280.877
280.919
280.923
280.924
280.923
280.996
281.001
281.003
281.002
281.035
281.041
281.044
281.043
281.139
281.146
281.149
281.149
281.16
281.168
281.172
281.172
281.691
281.636
281.638
281.678
281.028
281.055
281.062
281.049
280.819
280.822
280.823
280.822
280.849
280.852
280.853
280.852
280.86
280.863
280.864
280.863
280.896
280.9
280.901
280.9
280.954
280.958
280.96
280.959
280.972
280.977
280.979
280.977
281.064
281.069
281.072
281.07
281.055
281.061
281.064
281.062
281.537
281.485
281.485
281.522
281.017
281.045
281.051
281.037
280.822
280.825
280.827
280.825
280.86
280.863
280.864
280.862
280.852
280.855
280.856
280.855
280.883
280.887
280.888
280.886
280.927
280.931
280.932
280.93
280.927
280.932
280.933
280.931
281.015
281.02
281.021
281.019
280.977
280.982
280.984
280.982
281.416
281.368
281.367
281.4
281.007
281.035
281.041
281.027
280.821
280.825
280.827
280.825
280.874
280.877
280.878
280.876
280.847
280.85
280.851
280.849
280.877
280.88
280.881
280.879
280.909
280.912
280.913
280.911
280.897
280.901
280.902
280.899
280.986
280.99
280.991
280.989
280.918
280.923
280.923
280.921
281.321
281.278
281.278
281.307
281.003
281.031
281.037
281.022
280.816
280.82
280.821
280.82
280.889
280.892
280.893
280.891
280.842
280.846
280.847
280.845
280.873
280.876
280.877
280.875
280.895
280.899
280.9
280.897
280.875
280.878
280.879
280.876
280.97
280.974
280.974
280.972
280.871
280.875
280.875
280.872
281.252
281.216
281.216
281.24
281.021
281.047
281.052
281.037
280.8
280.804
280.806
280.804
280.902
280.905
280.906
280.904
280.838
280.841
280.842
280.84
280.869
280.872
280.873
280.87
280.882
280.886
280.887
280.884
280.858
280.861
280.861
280.858
280.957
280.961
280.961
280.959
280.824
280.828
280.828
280.825
281.216
281.189
281.188
281.207
281.079
281.103
281.106
281.093
280.763
280.768
280.769
280.767
280.906
280.91
280.911
280.909
280.833
280.837
280.837
280.834
280.863
280.867
280.867
280.865
280.87
280.873
280.874
280.871
280.844
280.847
280.847
280.844
280.936
280.94
280.94
280.938
280.765
280.768
280.768
280.765
281.228
281.21
281.21
281.222
281.178
281.193
281.194
281.186
280.698
280.702
280.702
280.699
280.898
280.902
280.903
280.901
280.83
280.833
280.833
280.831
280.858
280.861
280.861
280.859
280.86
280.863
280.863
280.861
280.836
280.838
280.838
280.836
280.903
280.908
280.908
280.906
280.685
280.686
280.685
280.684
281.279
281.274
281.275
281.277
282.481
281.212
280.682
280.343
280.054
279.817
279.628
279.479
279.359
279.255
282.656
281.446
280.633
280.12
279.712
279.411
279.187
279.018
278.889
278.782
283.237
281.958
280.849
280.223
279.733
279.394
279.145
278.958
278.816
278.701
283.837
282.491
281.112
280.42
279.864
279.501
279.232
279.03
278.875
278.748
284.319
282.948
281.319
280.572
279.955
279.569
279.279
279.064
278.898
278.762
284.877
283.438
281.583
280.797
280.115
279.709
279.396
279.164
278.982
278.829
285.362
283.837
281.779
280.965
280.223
279.8
279.464
279.216
279.02
278.858
285.928
284.324
282.077
281.243
280.439
279.996
279.629
279.357
279.134
278.941
286.374
284.713
282.29
281.48
280.642
280.194
279.791
279.489
279.237
279.02
288.091
286.428
283.853
282.991
282.029
281.456
280.93
280.524
280.189
279.896
284.261
282.976
282.006
281.305
280.821
280.481
280.234
280.049
279.906
279.786
284.726
282.971
281.664
280.822
280.279
279.907
279.642
279.448
279.305
279.198
285.314
283.158
281.598
280.688
280.106
279.717
279.442
279.244
279.102
278.999
285.792
283.337
281.585
280.651
280.041
279.646
279.369
279.173
279.033
278.933
286.053
283.388
281.507
280.562
279.93
279.534
279.26
279.069
278.935
278.839
286.246
283.454
281.477
280.541
279.889
279.498
279.226
279.039
278.907
278.811
286.289
283.433
281.381
280.47
279.802
279.423
279.154
278.973
278.845
278.752
286.345
283.489
281.378
280.506
279.825
279.458
279.186
279.004
278.869
278.767
286.302
283.477
281.318
280.527
279.86
279.524
279.245
279.055
278.908
278.794
287.206
284.529
282.375
281.635
280.92
280.527
280.179
279.933
279.741
279.597
282.425
282.054
281.692
281.369
281.092
280.859
280.665
280.505
280.37
280.253
282.902
282.235
281.63
281.127
280.72
280.397
280.143
279.944
279.789
279.669
283.657
282.663
281.814
281.158
280.651
280.266
279.973
279.751
279.584
279.459
284.406
283.093
282.012
281.23
280.645
280.218
279.903
279.669
279.495
279.367
284.964
283.372
282.09
281.21
280.566
280.113
279.786
279.548
279.373
279.247
285.461
283.631
282.177
281.227
280.539
280.071
279.737
279.498
279.322
279.195
285.798
283.774
282.174
281.179
280.459
279.986
279.65
279.413
279.239
279.113
286.112
283.945
282.225
281.209
280.468
279.997
279.659
279.42
279.241
279.107
286.309
284.026
282.208
281.215
280.482
280.03
279.689
279.443
279.256
279.113
287.287
285.002
283.147
282.176
281.414
280.925
280.538
280.255
280.037
279.878
281.831
281.688
281.515
281.338
281.17
281.018
280.883
280.765
280.66
280.564
282.059
281.776
281.451
281.139
280.861
280.623
280.424
280.259
280.124
280.017
282.67
282.196
281.696
281.248
280.869
280.558
280.306
280.104
279.946
279.824
283.378
282.676
281.981
281.399
280.927
280.556
280.264
280.036
279.86
279.728
283.985
283.041
282.155
281.453
280.903
280.484
280.165
279.921
279.735
279.597
284.583
283.401
282.334
281.53
280.915
280.461
280.122
279.867
279.674
279.531
285.058
283.649
282.417
281.531
280.865
280.388
280.036
279.776
279.58
279.435
285.518
283.909
282.533
281.587
280.885
280.395
280.034
279.768
279.566
279.413
285.876
284.079
282.581
281.614
280.9
280.412
280.044
279.771
279.562
279.403
286.91
285.013
283.457
282.482
281.74
281.224
280.825
280.526
280.296
280.13
281.43
281.384
281.315
281.233
281.146
281.061
280.979
280.903
280.831
280.76
281.462
281.349
281.195
281.028
280.863
280.709
280.571
280.45
280.347
280.262
281.899
281.697
281.437
281.17
280.92
280.697
280.505
280.343
280.209
280.103
282.468
282.137
281.744
281.366
281.028
280.74
280.5
280.303
280.144
280.019
282.991
282.505
281.966
281.476
281.056
280.711
280.431
280.208
280.03
279.894
283.55
282.893
282.203
281.608
281.114
280.72
280.409
280.165
279.973
279.826
284.027
283.191
282.352
281.661
281.104
280.672
280.338
280.079
279.878
279.726
284.514
283.502
282.524
281.755
281.147
280.688
280.336
280.066
279.855
279.695
284.918
283.729
282.627
281.809
281.172
280.7
280.335
280.056
279.838
279.671
285.942
284.634
283.463
282.612
281.944
281.448
281.06
280.761
280.53
280.362
281.257
281.24
281.208
281.167
281.121
281.074
281.026
280.98
280.933
280.883
281.152
281.1
281.022
280.93
280.833
280.738
280.647
280.564
280.491
280.429
281.453
281.357
281.218
281.061
280.903
280.753
280.616
280.496
280.393
280.307
281.88
281.718
281.497
281.26
281.032
280.824
280.64
280.483
280.351
280.244
282.289
282.038
281.718
281.394
281.094
280.829
280.603
280.414
280.258
280.134
282.758
282.401
281.971
281.557
281.185
280.869
280.605
280.388
280.212
280.073
283.175
282.697
282.15
281.647
281.21
280.849
280.554
280.316
280.125
279.976
283.622
283.015
282.352
281.77
281.277
280.879
280.559
280.305
280.101
279.942
284.003
283.256
282.487
281.845
281.313
280.892
280.555
280.288
280.076
279.911
284.971
284.124
283.287
282.602
282.037
281.591
281.234
280.952
280.729
280.567
281.17
281.164
281.148
281.128
281.104
281.078
281.052
281.024
280.994
280.958
280.979
280.953
280.911
280.859
280.803
280.745
280.688
280.634
280.585
280.542
281.183
281.134
281.057
280.965
280.868
280.77
280.678
280.593
280.518
280.454
281.5
281.415
281.289
281.144
280.996
280.852
280.719
280.601
280.498
280.412
281.807
281.674
281.486
281.278
281.072
280.879
280.706
280.555
280.427
280.321
282.183
281.988
281.726
281.448
281.182
280.94
280.729
280.548
280.396
280.273
282.522
282.252
281.906
281.555
281.23
280.943
280.697
280.492
280.321
280.185
282.902
282.546
282.113
281.693
281.314
280.988
280.714
280.487
280.301
280.153
283.222
282.772
282.257
281.78
281.358
281.004
280.71
280.469
280.273
280.118
284.112
283.591
283.018
282.497
282.043
281.665
281.353
281.098
280.893
280.742
281.13
281.127
281.119
281.109
281.096
281.082
281.067
281.05
281.031
281.004
280.888
280.872
280.848
280.817
280.783
280.748
280.713
280.679
280.647
280.619
281.024
280.996
280.951
280.896
280.836
280.774
280.713
280.655
280.603
280.558
281.256
281.208
281.135
281.046
280.95
280.854
280.762
280.676
280.599
280.533
281.483
281.409
281.296
281.164
281.026
280.891
280.764
280.649
280.548
280.464
281.779
281.668
281.508
281.326
281.14
280.964
280.802
280.658
280.533
280.43
282.043
281.888
281.671
281.433
281.198
280.981
280.786
280.616
280.471
280.353
282.353
282.144
281.866
281.573
281.291
281.036
280.813
280.621
280.459
280.328
282.606
282.337
282.001
281.659
281.339
281.056
280.81
280.603
280.431
280.291
283.412
283.099
282.718
282.339
281.989
281.683
281.421
281.201
281.02
280.886
281.11
281.109
281.105
281.099
281.092
281.084
281.076
281.066
281.053
281.032
280.841
280.83
280.814
280.795
280.775
280.753
280.732
280.71
280.69
280.672
280.931
280.913
280.885
280.852
280.814
280.775
280.736
280.698
280.663
280.631
281.099
281.071
281.026
280.971
280.91
280.846
280.784
280.724
280.669
280.62
281.266
281.221
281.152
281.069
280.978
280.885
280.795
280.711
280.635
280.569
281.495
281.43
281.33
281.212
281.086
280.96
280.84
280.731
280.633
280.549
281.695
281.603
281.467
281.308
281.143
280.983
280.834
280.7
280.582
280.484
281.942
281.818
281.64
281.44
281.238
281.045
280.87
280.714
280.58
280.468
282.133
281.973
281.755
281.518
281.283
281.065
280.868
280.698
280.552
280.431
282.859
282.674
282.425
282.158
281.898