/*--------------------------------*- C++ -*----------------------------------*\
| =========                 |                                                 |
| \\      /  F ield         | foam-extend: Open Source CFD                    |
|  \\    /   O peration     | Version:     4.0                                |
|   \\  /    A nd           | Web:         http://www.foam-extend.org         |
|    \\/     M anipulation  |                                                 |
\*---------------------------------------------------------------------------*/
FoamFile
{
    version     2.0;
    format      ascii;
    class       volVectorField;
    location    "800";
    object      Urel;
}
// * * * * * * * * * * * * * * * * * * * * * * * * * * * * * * * * * * * * * //

dimensions      [0 1 -1 0 0 0 0];

internalField   nonuniform List<vector> 
34480
(
(207.21 -9.77396 -19.0719)
(207.542 -9.25565 -21.5078)
(207.715 -8.51538 -23.9082)
(207.742 -7.58042 -26.3204)
(207.62 -6.48722 -28.8803)
(207.311 -5.2388 -31.7654)
(206.739 -3.81491 -35.3754)
(205.628 -2.09906 -40.0517)
(203.023 0.135752 -47.9552)
(196.148 4.32997 -75.043)
(208.003 -12.7112 -26.7912)
(208.295 -11.5539 -29.5445)
(208.455 -10.249 -32.1715)
(208.466 -8.80957 -34.7476)
(208.274 -7.26835 -37.3869)
(207.821 -5.64612 -40.3007)
(207.07 -3.96146 -43.9462)
(205.836 -2.16265 -49.059)
(202.766 -0.0957801 -57.8481)
(194.713 3.83251 -88.355)
(208.604 -16.9086 -33.7733)
(208.877 -15.3175 -36.8181)
(209.018 -13.5633 -39.7182)
(209.001 -11.6365 -42.4998)
(208.769 -9.58815 -45.2901)
(208.313 -7.45184 -48.3504)
(207.635 -5.25246 -52.2044)
(206.565 -2.92093 -57.873)
(203.35 -0.300234 -67.5292)
(194.303 4.36732 -101.002)
(208.648 -20.2383 -41.2282)
(208.92 -18.1203 -44.5633)
(209.076 -15.8407 -47.6943)
(209.093 -13.3782 -50.6703)
(208.924 -10.7843 -53.6248)
(208.585 -8.09443 -56.8479)
(208.047 -5.33648 -60.8652)
(207.154 -2.43236 -66.921)
(203.93 0.776545 -77.1926)
(194.125 6.13127 -112.592)
(208.88 -24.6905 -48.12)
(209.175 -22.1685 -51.7308)
(209.362 -19.4446 -55.1446)
(209.435 -16.498 -58.366)
(209.352 -13.4006 -61.5527)
(209.146 -10.188 -65.006)
(208.761 -6.88371 -69.2495)
(208.064 -3.39931 -75.7192)
(204.955 0.43619 -86.6566)
(194.54 6.49598 -123.594)
(208.855 -27.9689 -55.7242)
(209.152 -24.9529 -59.5709)
(209.35 -21.7165 -63.1531)
(209.449 -18.238 -66.517)
(209.428 -14.5823 -69.8125)
(209.336 -10.7902 -73.3655)
(209.108 -6.88688 -77.685)
(208.637 -2.78674 -84.3825)
(205.791 1.6969 -95.8108)
(195.002 8.39785 -133.914)
(209.015 -32.7992 -62.578)
(209.342 -29.3952 -66.6651)
(209.559 -25.7324 -70.4983)
(209.69 -21.8002 -74.0687)
(209.724 -17.6731 -77.5559)
(209.73 -13.3868 -81.2868)
(209.649 -8.94478 -85.7761)
(209.408 -4.24529 -92.7602)
(206.908 0.978732 -104.777)
(195.839 8.5163 -143.891)
(208.897 -36.0527 -70.3944)
(209.222 -32.1754 -74.6909)
(209.414 -27.9914 -78.6569)
(209.502 -23.5164 -82.3398)
(209.498 -18.8049 -85.8834)
(209.491 -13.9141 -89.6195)
(209.464 -8.83916 -94.0482)
(209.391 -3.47647 -100.996)
(207.315 2.59056 -113.216)
(196.288 11.0285 -152.855)
(208.843 -41.3831 -77.191)
(209.211 -37.1382 -81.6772)
(209.436 -32.5767 -85.8301)
(209.571 -27.7394 -89.6656)
(209.629 -22.6837 -93.3713)
(209.68 -17.4416 -97.2562)
(209.736 -11.9575 -101.856)
(209.819 -6.07713 -108.969)
(208.091 0.916459 -121.581)
(196.958 10.8497 -161.183)
(207.878 -44.6356 -85.1216)
(208.159 -40.013 -89.8918)
(208.131 -34.9551 -94.2496)
(207.823 -29.5856 -98.2708)
(207.282 -23.9193 -102.087)
(206.6 -17.9977 -105.982)
(205.858 -11.7552 -110.432)
(205.23 -4.99989 -117.048)
(203.483 3.00351 -128.824)
(193.597 14.3395 -166.519)
(204.1 1.93626 3.00804)
(204.587 1.14817 1.57207)
(204.787 0.477659 0.0395245)
(204.721 -0.0578848 -1.54517)
(204.365 -0.480164 -3.24189)
(203.631 -0.790228 -5.06638)
(202.317 -0.991419 -7.07316)
(199.992 -1.09426 -9.23935)
(196.578 -1.17622 -11.1879)
(192.064 -1.07498 -14.3798)
(205.28 2.96252 2.79881)
(205.737 2.2852 1.18767)
(205.937 1.66117 -0.43762)
(205.88 1.10068 -2.11293)
(205.504 0.587215 -3.90107)
(204.691 0.113904 -5.86418)
(203.243 -0.334369 -8.09535)
(200.703 -0.794893 -10.8462)
(196.583 -1.38795 -13.9053)
(190.975 -1.64132 -20.5381)
(206.166 2.76178 3.26342)
(206.605 1.99355 1.53586)
(206.801 1.29185 -0.222883)
(206.747 0.684653 -2.02052)
(206.363 0.139339 -3.92836)
(205.549 -0.356811 -6.0351)
(204.128 -0.83269 -8.53041)
(201.613 -1.30463 -11.9458)
(197.138 -1.8851 -16.1928)
(190.636 -1.82295 -26.6495)
(206.452 3.42077 3.22177)
(206.896 2.68126 1.41396)
(207.114 1.99445 -0.394017)
(207.102 1.4003 -2.2434)
(206.784 0.866242 -4.21648)
(206.078 0.381176 -6.44504)
(204.778 -0.0859124 -9.15463)
(202.37 -0.527702 -13.1032)
(197.683 -1.04454 -18.3118)
(190.401 -0.636933 -32.3711)
(206.882 2.93421 3.73135)
(207.349 2.10504 1.87031)
(207.6 1.35782 -0.0302095)
(207.648 0.735257 -1.96954)
(207.42 0.186677 -4.06132)
(206.85 -0.299042 -6.46501)
(205.705 -0.755557 -9.42194)
(203.472 -1.15294 -13.8964)
(198.722 -1.5737 -20.0503)
(190.758 -0.762457 -37.6018)
(207.009 3.63627 3.52359)
(207.484 2.80874 1.65156)
(207.753 2.06851 -0.219577)
(207.838 1.45989 -2.13806)
(207.679 0.938982 -4.21249)
(207.236 0.491938 -6.64864)
(206.26 0.0894399 -9.68759)
(204.257 -0.230271 -14.4896)
(199.608 -0.517041 -21.3624)
(191.136 0.663399 -42.1252)
(207.296 2.76532 4.05624)
(207.798 1.83717 2.17577)
(208.089 1.02593 0.251437)
(208.215 0.367893 -1.70683)
(208.122 -0.186266 -3.84465)
(207.794 -0.648678 -6.38382)
(206.986 -1.03562 -9.57933)
(205.238 -1.29354 -14.7368)
(200.81 -1.38464 -22.3803)
(191.928 0.263485 -46.1697)
(207.268 3.49386 3.62294)
(207.772 2.55229 1.77043)
(208.049 1.76124 -0.0720276)
(208.148 1.13139 -1.96105)
(208.04 0.635866 -4.01197)
(207.738 0.24191 -6.47684)
(207.031 -0.0513177 -9.60576)
(205.513 -0.201795 -14.8184)
(201.427 0.00611832 -22.8695)
(192.428 2.03924 -49.1597)
(207.288 2.11269 4.20448)
(207.824 1.05674 2.39708)
(208.13 0.166769 0.565862)
(208.271 -0.569717 -1.293)
(208.229 -1.18465 -3.35313)
(208.012 -1.69259 -5.86737)
(207.437 -2.04579 -9.14512)
(206.161 -2.17921 -14.5978)
(202.433 -1.60428 -23.3103)
(193.197 1.13922 -51.4606)
(206.371 2.87125 3.62674)
(206.851 1.71814 1.81192)
(206.987 0.837937 0.0291809)
(206.816 0.121745 -1.79895)
(206.354 -0.413254 -3.78329)
(205.637 -0.793338 -6.17598)
(204.549 -0.955176 -9.27173)
(202.885 -0.782144 -14.3697)
(199.312 0.264075 -22.8701)
(190.911 4.08645 -51.3361)
(201.734 1.45954 2.3348)
(202.243 0.876094 1.23173)
(202.434 0.354658 0.0173867)
(202.344 -0.0731863 -1.22245)
(201.96 -0.418667 -2.5059)
(201.233 -0.679629 -3.78112)
(200.07 -0.8651 -5.00051)
(198.318 -0.999739 -6.01611)
(195.786 -1.16944 -6.47788)
(192.587 -1.35949 -6.5263)
(203.034 2.5163 2.30058)
(203.549 1.99688 0.952359)
(203.751 1.48786 -0.419845)
(203.654 1.00953 -1.8205)
(203.219 0.555839 -3.27276)
(202.362 0.121159 -4.78229)
(200.921 -0.307637 -6.31297)
(198.618 -0.765522 -7.80281)
(195.008 -1.36803 -8.75927)
(190.177 -1.96803 -9.81355)
(204.031 2.39403 2.89197)
(204.553 1.74422 1.36799)
(204.765 1.12826 -0.19979)
(204.678 0.578605 -1.79912)
(204.233 0.0687125 -3.47412)
(203.327 -0.411457 -5.24514)
(201.759 -0.887265 -7.12354)
(199.156 -1.38913 -9.20361)
(194.687 -2.06732 -10.929)
(188.283 -2.67359 -13.5738)
(204.476 3.12894 2.90439)
(205.02 2.48394 1.26268)
(205.258 1.86404 -0.390915)
(205.207 1.31127 -2.084)
(204.803 0.797726 -3.87796)
(203.942 0.313965 -5.83555)
(202.368 -0.171256 -8.0043)
(199.613 -0.676886 -10.6364)
(194.426 -1.37074 -13.1067)
(186.552 -1.88013 -17.5404)
(205.056 2.67807 3.45815)
(205.63 1.92988 1.73186)
(205.9 1.23976 -0.0434858)
(205.903 0.651284 -1.85803)
(205.568 0.118398 -3.81028)
(204.798 -0.367716 -5.99583)
(203.29 -0.842917 -8.49115)
(200.503 -1.31212 -11.7152)
(194.784 -1.96731 -15.0224)
(185.611 -2.2764 -21.5505)
(205.312 3.4295 3.27926)
(205.9 2.66988 1.52139)
(206.192 1.97735 -0.245147)
(206.232 1.39623 -2.06237)
(205.957 0.884844 -4.02847)
(205.286 0.430938 -6.29061)
(203.882 -0.00036178 -8.94351)
(201.162 -0.409022 -12.5905)
(195.11 -0.974781 -16.6021)
(184.861 -1.04982 -25.3206)
(205.711 2.57857 3.83753)
(206.324 1.71246 2.05306)
(206.639 0.94727 0.216195)
(206.721 0.319426 -1.65971)
(206.508 -0.218345 -3.71306)
(205.937 -0.675264 -6.11439)
(204.658 -1.07473 -8.99109)
(202.068 -1.40599 -13.0985)
(195.853 -1.80806 -17.9105)
(184.688 -1.54357 -28.9517)
(205.776 3.35084 3.40866)
(206.392 2.46855 1.64868)
(206.698 1.72029 -0.108586)
(206.763 1.11888 -1.91936)
(206.543 0.637681 -3.89467)
(206.005 0.249927 -6.24606)
(204.817 -0.0560962 -9.11873)
(202.389 -0.282926 -13.4134)
(196.202 -0.416064 -18.7557)
(184.386 0.131892 -31.8805)
(205.882 1.96092 3.99371)
(206.517 0.964377 2.26742)
(206.845 0.130215 0.504451)
(206.943 -0.549598 -1.29081)
(206.773 -1.10798 -3.28046)
(206.305 -1.55684 -5.67895)
(205.238 -1.86053 -8.72149)
(203.016 -1.99493 -13.3646)
(196.981 -1.73032 -19.5259)
(184.398 -0.664483 -34.283)
(205.035 2.77824 3.38291)
(205.617 1.70049 1.68259)
(205.82 0.888539 0.00195929)
(205.685 0.235567 -1.73354)
(205.206 -0.239927 -3.62402)
(204.373 -0.560878 -5.88901)
(202.955 -0.67566 -8.76035)
(200.502 -0.502631 -13.1553)
(194.613 0.257231 -19.4373)
(181.989 2.34973 -34.7356)
(200.011 0.987147 1.6967)
(200.453 0.593578 0.916591)
(200.611 0.218579 0.0236007)
(200.522 -0.100189 -0.87404)
(200.185 -0.367229 -1.77324)
(199.583 -0.577542 -2.59424)
(198.686 -0.742647 -3.27202)
(197.466 -0.885584 -3.67202)
(195.916 -1.06234 -3.5785)
(194.187 -1.30105 -2.76993)
(201.259 2.01573 1.76821)
(201.742 1.65927 0.708406)
(201.923 1.27605 -0.380015)
(201.812 0.892788 -1.47728)
(201.386 0.514029 -2.57281)
(200.599 0.136985 -3.63805)
(199.37 -0.24875 -4.5973)
(197.586 -0.668863 -5.32275)
(195.112 -1.19567 -5.39337)
(192.289 -1.78357 -4.642)
(202.232 1.93845 2.43939)
(202.76 1.42723 1.16444)
(202.962 0.916549 -0.162459)
(202.849 0.443105 -1.50514)
(202.383 -0.011847 -2.87906)
(201.49 -0.456526 -4.26694)
(200.032 -0.91102 -5.60343)
(197.806 -1.40187 -6.79814)
(194.457 -2.04211 -7.26639)
(190.369 -2.76819 -6.93544)
(202.745 2.74667 2.49348)
(203.319 2.22007 1.06706)
(203.55 1.68756 -0.380573)
(203.459 1.19469 -1.85473)
(202.997 0.721117 -3.38935)
(202.074 0.25799 -5.00216)
(200.49 -0.223371 -6.64899)
(197.942 -0.748491 -8.31557)
(193.748 -1.46231 -9.24302)
(188.291 -2.25616 -9.54449)
(203.409 2.33719 3.09207)
(204.026 1.69395 1.54685)
(204.289 1.08016 -0.0552608)
(204.239 0.541479 -1.68542)
(203.812 0.0393555 -3.41618)
(202.917 -0.434365 -5.2953)
(201.292 -0.913482 -7.30589)
(198.54 -1.416 -9.53468)
(193.609 -2.13681 -11.0775)
(186.827 -2.89619 -12.3702)
(203.753 3.14359 2.94508)
(204.395 2.47512 1.34422)
(204.682 1.84825 -0.274418)
(204.663 1.30925 -1.93576)
(204.275 0.822059 -3.71536)
(203.429 0.374485 -5.7099)
(201.818 -0.0708011 -7.9251)
(198.969 -0.534383 -10.5833)
(193.443 -1.21942 -12.6732)
(185.466 -1.89257 -15.1445)
(204.234 2.32262 3.53402)
(204.904 1.53987 1.88392)
(205.214 0.836313 0.173273)
(205.232 0.250051 -1.57128)
(204.892 -0.261743 -3.46735)
(204.114 -0.707502 -5.63594)
(202.554 -1.11497 -8.12313)
(199.686 -1.49516 -11.2723)
(193.713 -2.05347 -14.051)
(184.657 -2.5328 -17.9668)
(204.377 3.15165 3.11531)
(205.052 2.3481 1.4824)
(205.357 1.656 -0.156609)
(205.364 1.09283 -1.84794)
(205.02 0.633786 -3.68417)
(204.262 0.2567 -5.8295)
(202.748 -0.0593051 -8.35734)
(199.927 -0.344065 -11.7536)
(193.707 -0.688487 -15.0369)
(183.776 -1.00355 -20.347)
(204.557 1.76521 3.7273)
(205.241 0.844988 2.11374)
(205.563 0.0734144 0.448037)
(205.598 -0.549753 -1.25059)
(205.293 -1.05664 -3.12245)
(204.586 -1.45566 -5.32782)
(203.137 -1.72578 -8.02143)
(200.417 -1.8746 -11.7779)
(194.144 -1.82613 -15.9129)
(183.257 -1.77306 -22.4192)
(203.782 2.65764 3.09397)
(204.418 1.66783 1.53028)
(204.651 0.927495 -0.0300239)
(204.52 0.336614 -1.65034)
(204 -0.0843959 -3.41279)
(203.044 -0.355471 -5.49039)
(201.359 -0.437252 -8.03797)
(198.455 -0.277089 -11.6132)
(192.21 0.264833 -15.9903)
(180.85 1.247 -22.9213)
(198.818 0.593754 1.1846)
(199.165 0.343032 0.66357)
(199.285 0.0872555 0.0404229)
(199.216 -0.138701 -0.574098)
(198.965 -0.337522 -1.17578)
(198.535 -0.501842 -1.68603)
(197.931 -0.640588 -2.05799)
(197.175 -0.768837 -2.20184)
(196.313 -0.913596 -2.02544)
(195.455 -1.08484 -1.44369)
(199.919 1.54599 1.28034)
(200.325 1.32716 0.488393)
(200.477 1.05898 -0.329838)
(200.379 0.768024 -1.14504)
(200.021 0.466223 -1.92887)
(199.387 0.155008 -2.6393)
(198.454 -0.170212 -3.20244)
(197.207 -0.521943 -3.50974)
(195.662 -0.9322 -3.33438)
(194.121 -1.37129 -2.54364)
(200.773 1.46549 1.98178)
(201.258 1.08767 0.964056)
(201.44 0.684015 -0.110623)
(201.328 0.29252 -1.18786)
(200.9 -0.0976522 -2.25901)
(200.116 -0.490936 -3.28443)
(198.906 -0.900943 -4.18031)
(197.196 -1.34547 -4.81677)
(194.9 -1.88726 -4.80264)
(192.477 -2.4874 -3.9446)
(201.269 2.32406 2.05436)
(201.826 1.92182 0.865018)
(202.043 1.48495 -0.353572)
(201.939 1.06152 -1.58529)
(201.478 0.640379 -2.83546)
(200.6 0.215519 -4.08712)
(199.181 -0.236857 -5.25919)
(197.072 -0.739362 -6.2361)
(193.984 -1.38524 -6.44218)
(190.491 -2.11914 -5.61732)
(201.946 1.9483 2.68642)
(202.565 1.42156 1.35031)
(202.816 0.894846 -0.0503589)
(202.737 0.41603 -1.46615)
(202.278 -0.0437893 -2.93811)
(201.365 -0.490714 -4.47052)
(199.813 -0.954081 -5.99758)
(197.392 -1.45424 -7.4458)
(193.543 -2.1387 -8.05183)
(188.912 -2.9287 -7.54139)
(202.328 2.80541 2.56686)
(202.987 2.24251 1.15289)
(203.265 1.6931 -0.288449)
(203.208 1.20618 -1.76157)
(202.762 0.754079 -3.3114)
(201.846 0.326076 -4.98309)
(200.22 -0.114533 -6.72636)
(197.58 -0.597114 -8.55064)
(193.045 -1.2894 -9.52025)
(187.298 -2.099 -9.47143)
(202.852 2.01758 3.18444)
(203.547 1.33377 1.6986)
(203.849 0.703352 0.143145)
(203.823 0.167316 -1.4378)
(203.405 -0.310098 -3.13149)
(202.515 -0.73631 -5.00394)
(200.865 -1.14128 -7.04116)
(198.083 -1.54682 -9.33202)
(192.96 -2.1486 -10.8343)
(186.139 -2.87636 -11.5211)
(203.048 2.90963 2.777)
(203.754 2.20041 1.29834)
(204.056 1.57567 -0.196305)
(204.023 1.0592 -1.73884)
(203.598 0.630437 -3.39434)
(202.709 0.271175 -5.27042)
(201.048 -0.0459614 -7.37617)
(198.202 -0.366202 -9.91851)
(192.664 -0.813292 -11.8215)
(184.894 -1.48143 -13.275)
(203.284 1.5303 3.42216)
(203.997 0.701298 1.94697)
(204.312 -0.00015484 0.403617)
(204.3 -0.5644 -1.17015)
(203.904 -1.0209 -2.8878)
(203.048 -1.37516 -4.85051)
(201.408 -1.61881 -7.13212)
(198.548 -1.78078 -9.99489)
(192.782 -1.87097 -12.6394)
(183.983 -2.28068 -14.8582)
(202.574 2.51187 2.76679)
(203.242 1.62078 1.35726)
(203.497 0.956338 -0.0659304)
(203.369 0.428035 -1.55041)
(202.824 0.0590281 -3.1558)
(201.796 -0.1677 -5.00394)
(199.994 -0.225078 -7.17253)
(196.971 -0.0839709 -9.91887)
(191.11 0.293102 -12.7721)
(181.62 0.67967 -15.1882)
(198.011 0.296937 0.812457)
(198.269 0.142156 0.480428)
(198.354 -0.0269226 0.0606262)
(198.307 -0.181507 -0.342752)
(198.137 -0.325384 -0.733642)
(197.854 -0.449821 -1.04476)
(197.473 -0.56044 -1.25088)
(197.024 -0.664986 -1.29731)
(196.547 -0.774574 -1.15132)
(196.083 -0.891359 -0.788798)
(198.947 1.15181 0.874406)
(199.261 1.0354 0.30636)
(199.379 0.861344 -0.280307)
(199.302 0.651489 -0.858063)
(199.029 0.421495 -1.39423)
(198.56 0.175893 -1.8486)
(197.9 -0.0846059 -2.16393)
(197.073 -0.362662 -2.26681)
(196.134 -0.666621 -2.05063)
(195.276 -0.9771 -1.45276)
(199.64 1.0259 1.56564)
(200.05 0.759892 0.78453)
(200.203 0.453192 -0.0534569)
(200.106 0.140977 -0.885717)
(199.747 -0.181697 -1.68969)
(199.111 -0.515127 -2.4179)
(198.178 -0.865922 -2.99448)
(196.948 -1.24336 -3.31031)
(195.449 -1.67619 -3.14417)
(194.015 -2.13641 -2.36175)
(200.066 1.90392 1.62857)
(200.568 1.61632 0.673165)
(200.76 1.27321 -0.315578)
(200.658 0.922162 -1.30713)
(200.239 0.560275 -2.28568)
(199.47 0.185713 -3.21349)
(198.294 -0.218183 -4.00414)
(196.665 -0.666706 -4.52952)
(194.519 -1.21086 -4.42702)
(192.338 -1.8121 -3.44671)
(200.701 1.54506 2.27468)
(201.281 1.13322 1.15628)
(201.51 0.696578 -0.0314498)
(201.419 0.283265 -1.22326)
(200.972 -0.125923 -2.43285)
(200.12 -0.533767 -3.63278)
(198.753 -0.96252 -4.73801)
(196.771 -1.42967 -5.62083)
(193.953 -2.03117 -5.75651)
(190.912 -2.71879 -4.77012)
(201.076 2.44007 2.17144)
(201.712 1.98671 0.959646)
(201.972 1.52067 -0.28724)
(201.893 1.09257 -1.55524)
(201.433 0.683899 -2.86031)
(200.53 0.286904 -4.20491)
(199.023 -0.130473 -5.50779)
(196.753 -0.597942 -6.67808)
(193.28 -1.23405 -7.02444)
(189.336 -1.99395 -6.10304)
(201.606 1.682 2.80989)
(202.291 1.10474 1.50737)
(202.576 0.554697 0.127378)
(202.52 0.075462 -1.26908)
(202.066 -0.360433 -2.73816)
(201.147 -0.758427 -4.29683)
(199.551 -1.14716 -5.88945)
(197.055 -1.55249 -7.46201)
(192.977 -2.13041 -8.19934)
(188.106 -2.8712 -7.57208)
(201.828 2.63758 2.41059)
(202.531 2.03217 1.10518)
(202.822 1.48283 -0.225304)
(202.759 1.01985 -1.59753)
(202.292 0.628288 -3.04746)
(201.351 0.294112 -4.63)
(199.693 -0.012085 -6.30229)
(197.048 -0.340609 -8.09134)
(192.49 -0.811528 -9.10832)
(186.748 -1.55912 -8.81649)
(202.103 1.2644 3.09024)
(202.815 0.536785 1.77248)
(203.117 -0.0887699 0.371818)
(203.07 -0.59211 -1.05431)
(202.619 -0.998718 -2.59134)
(201.69 -1.31132 -4.28654)
(200.013 -1.53089 -6.15013)
(197.271 -1.69634 -8.22341)
(192.389 -1.85874 -9.80671)
(185.689 -2.41353 -9.94752)
(201.446 2.34715 2.41119)
(202.118 1.56241 1.16859)
(202.381 0.977222 -0.103541)
(202.254 0.511977 -1.4349)
(201.701 0.192858 -2.86105)
(200.652 0.00547586 -4.45544)
(198.854 -0.0339874 -6.2311)
(195.955 0.0865897 -8.23944)
(190.901 0.343214 -9.96323)
(183.496 0.445854 -10.1312)
(197.469 0.0880701 0.561941)
(197.657 -0.00803406 0.358298)
(197.715 -0.119348 0.0797809)
(197.686 -0.223122 -0.178127)
(197.578 -0.325474 -0.429773)
(197.403 -0.417212 -0.620312)
(197.175 -0.501558 -0.740966)
(196.918 -0.581275 -0.758613)
(196.654 -0.659609 -0.665895)
(196.382 -0.735934 -0.459776)
(198.259 0.848796 0.559336)
(198.486 0.801295 0.164637)
(198.573 0.697964 -0.238722)
(198.519 0.554054 -0.631223)
(198.325 0.386228 -0.98363)
(197.999 0.200578 -1.26426)
(197.557 0.00139895 -1.43426)
(197.028 -0.208294 -1.44965)
(196.462 -0.42663 -1.26582)
(195.968 -0.640297 -0.866249)
(198.786 0.648887 1.21435)
(199.11 0.467233 0.633892)
(199.233 0.241192 0.00111258)
(199.156 -1.08941e-05 -0.62215)
(198.876 -0.257971 -1.20877)
(198.392 -0.529853 -1.71387)
(197.711 -0.816435 -2.07832)
(196.862 -1.12014 -2.22664)
(195.904 -1.45016 -2.04674)
(195.047 -1.78754 -1.48188)
(199.119 1.51783 1.24294)
(199.542 1.32589 0.50103)
(199.705 1.0674 -0.273712)
(199.615 0.786274 -1.04474)
(199.261 0.485604 -1.78469)
(198.631 0.167523 -2.4485)
(197.71 -0.177093 -2.96037)
(196.511 -0.555112 -3.21531)
(195.067 -0.988941 -3.00941)
(193.707 -1.45185 -2.19454)
(199.674 1.15633 1.8819)
(200.188 0.847962 0.973734)
(200.388 0.497683 -0.0042682)
(200.298 0.151167 -0.978474)
(199.894 -0.202521 -1.94333)
(199.152 -0.562524 -2.85439)
(198.019 -0.942959 -3.62714)
(196.477 -1.35574 -4.13503)
(194.491 -1.8556 -4.05605)
(192.515 -2.40789 -3.11698)
(200.009 2.07134 1.78081)
(200.592 1.72236 0.772839)
(200.825 1.33986 -0.274603)
(200.738 0.973963 -1.33421)
(200.3 0.61453 -2.39943)
(199.473 0.25749 -3.44451)
(198.162 -0.12202 -4.37849)
(196.312 -0.54787 -5.07961)
(193.763 -1.0942 -5.09254)
(191.102 -1.73605 -4.03198)
(200.517 1.33505 2.42877)
(201.16 0.86404 1.31736)
(201.421 0.396966 0.123474)
(201.347 -0.0214456 -1.07865)
(200.895 -0.410375 -2.31837)
(200.016 -0.772589 -3.57685)
(198.572 -1.13222 -4.77728)
(196.455 -1.51404 -5.79985)
(193.354 -2.02926 -6.08428)
(189.956 -2.68166 -5.07935)
(200.737 2.34986 2.03166)
(201.408 1.85105 0.909396)
(201.68 1.38129 -0.244718)
(201.599 0.976352 -1.43379)
(201.125 0.627189 -2.66753)
(200.201 0.323936 -3.95955)
(198.657 0.0388756 -5.23515)
(196.34 -0.27369 -6.42055)
(192.77 -0.713152 -6.86823)
(188.646 -1.39932 -5.93797)
(201.033 0.978104 2.74462)
(201.718 0.35635 1.59548)
(202 -0.190118 0.351556)
(201.93 -0.631587 -0.911525)
(201.46 -0.988923 -2.25313)
(200.529 -1.26229 -3.67719)
(198.933 -1.45856 -5.15163)
(196.47 -1.61793 -6.5912)
(192.551 -1.80144 -7.44958)
(187.628 -2.33131 -6.72418)
(200.417 2.1716 2.03856)
(201.066 1.49689 0.969641)
(201.325 0.992718 -0.141788)
(201.201 0.590478 -1.30796)
(200.661 0.319151 -2.54153)
(199.641 0.166621 -3.8755)
(197.946 0.140105 -5.27559)
(195.33 0.240501 -6.67505)
(191.201 0.41099 -7.60617)
(185.676 0.400437 -6.81938)
(197.1 -0.0535849 0.402384)
(197.24 -0.115992 0.282245)
(197.28 -0.19119 0.0964428)
(197.263 -0.26073 -0.066679)
(197.198 -0.333198 -0.230483)
(197.094 -0.399547 -0.350106)
(196.961 -0.46181 -0.427012)
(196.816 -0.520091 -0.439729)
(196.666 -0.574352 -0.390189)
(196.488 -0.623541 -0.278987)
(197.778 0.632792 0.32632)
(197.936 0.628181 0.0587179)
(197.997 0.574673 -0.207956)
(197.961 0.481226 -0.463955)
(197.831 0.363981 -0.686482)
(197.616 0.229271 -0.853362)
(197.331 0.0831355 -0.940336)
(197 -0.0689574 -0.92252)
(196.655 -0.222133 -0.783874)
(196.354 -0.368616 -0.523113)
(198.156 0.345295 0.93461)
(198.399 0.222054 0.514264)
(198.493 0.0587796 0.0487394)
(198.436 -0.122645 -0.406582)
(198.23 -0.322588 -0.826068)
(197.881 -0.536587 -1.17261)
(197.405 -0.761755 -1.40396)
(196.836 -0.99621 -1.47276)
(196.227 -1.23972 -1.32571)
(195.701 -1.48083 -0.948401)
(198.394 1.18523 0.91243)
(198.733 1.06677 0.353951)
(198.865 0.879665 -0.233177)
(198.791 0.662001 -0.813247)
(198.509 0.42036 -1.35548)
(198.021 0.159685 -1.81677)
(197.333 -0.122959 -2.1377)
(196.48 -0.427651 -2.24302)
(195.524 -0.759913 -2.02696)
(194.668 -1.10244 -1.41885)
(198.852 0.804222 1.52635)
(199.284 0.582185 0.809246)
(199.453 0.309652 0.0261229)
(199.372 0.0273076 -0.748498)
(199.03 -0.269611 -1.49815)
(198.418 -0.577184 -2.17373)
(197.524 -0.90223 -2.70206)
(196.37 -1.25055 -2.98021)
(195.002 -1.64868 -2.82457)
(193.721 -2.07095 -2.07706)
(199.126 1.72009 1.41389)
(199.635 1.46352 0.599703)
(199.838 1.15976 -0.25443)
(199.753 0.855981 -1.114)
(199.362 0.548763 -1.9579)
(198.646 0.237555 -2.74622)
(197.564 -0.0946189 -3.39313)
(196.117 -0.463548 -3.784)
(194.297 -0.908796 -3.63841)
(192.519 -1.41703 -2.70669)
(199.592 0.995525 2.05864)
(200.169 0.623623 1.13528)
(200.4 0.237614 0.128358)
(200.321 -0.118809 -0.880167)
(199.9 -0.457485 -1.89936)
(199.109 -0.778353 -2.88923)
(197.87 -1.09957 -3.76884)
(196.153 -1.44106 -4.40379)
(193.868 -1.87518 -4.43772)
(191.531 -2.40548 -3.45569)
(199.788 2.06173 1.65632)
(200.401 1.66583 0.717707)
(200.647 1.27579 -0.256202)
(200.559 0.930858 -1.25846)
(200.108 0.627369 -2.27796)
(199.255 0.359279 -3.30061)
(197.893 0.102898 -4.23888)
(195.957 -0.178149 -4.98033)
(193.259 -0.555863 -5.08074)
(190.354 -1.11944 -4.03599)
(200.092 0.683341 2.39974)
(200.726 0.166152 1.42193)
(200.982 -0.301063 0.341516)
(200.901 -0.681138 -0.751385)
(200.443 -0.99029 -1.8942)
(199.564 -1.22644 -3.06035)
(198.128 -1.39937 -4.1947)
(196.026 -1.54571 -5.15883)
(192.998 -1.72058 -5.5573)
(189.481 -2.15641 -4.58828)
(199.502 1.99474 1.66163)
(200.105 1.42945 0.766505)
(200.349 1.00593 -0.179959)
(200.232 0.665654 -1.17515)
(199.724 0.439703 -2.21222)
(198.776 0.317838 -3.29406)
(197.253 0.300623 -4.35705)
(195.006 0.382487 -5.28401)
(191.767 0.492085 -5.69179)
(187.789 0.448152 -4.61962)
(196.844 -0.149292 0.305826)
(196.954 -0.193207 0.238356)
(196.981 -0.246962 0.110761)
(196.972 -0.294396 0.00680313)
(196.934 -0.346232 -0.103482)
(196.874 -0.393855 -0.182387)
(196.798 -0.438968 -0.237011)
(196.716 -0.480517 -0.252063)
(196.629 -0.517392 -0.232321)
(196.498 -0.548844 -0.177447)
(197.443 0.490319 0.158989)
(197.549 0.510803 -0.0190497)
(197.592 0.490699 -0.188312)
(197.57 0.434074 -0.347967)
(197.486 0.355926 -0.48188)
(197.349 0.262018 -0.575803)
(197.171 0.158764 -0.615539)
(196.966 0.0519762 -0.587207)
(196.751 -0.0535532 -0.487229)
(196.554 -0.154153 -0.316837)
(197.696 0.113171 0.722066)
(197.872 0.0274729 0.423554)
(197.94 -0.0895231 0.0876247)
(197.901 -0.223184 -0.239217)
(197.756 -0.373976 -0.535602)
(197.515 -0.537124 -0.773478)
(197.194 -0.708202 -0.9243)
(196.821 -0.883245 -0.960303)
(196.434 -1.05868 -0.857085)
(196.099 -1.22866 -0.61891)
(197.853 0.914236 0.641639)
(198.113 0.848256 0.233366)
(198.215 0.718064 -0.197398)
(198.159 0.555015 -0.620021)
(197.945 0.367109 -1.00562)
(197.583 0.160699 -1.31777)
(197.089 -0.0629266 -1.51344)
(196.499 -0.299748 -1.54286)
(195.872 -0.547073 -1.35511)
(195.325 -0.79435 -0.92243)
(198.211 0.502727 1.21854)
(198.559 0.348134 0.666529)
(198.694 0.141909 0.0556224)
(198.627 -0.0819234 -0.54473)
(198.352 -0.324074 -1.11377)
(197.871 -0.578607 -1.60573)
(197.194 -0.846929 -1.96273)
(196.358 -1.12985 -2.11003)
(195.43 -1.43721 -1.94837)
(194.597 -1.74905 -1.3996)
(198.416 1.40195 1.08461)
(198.841 1.22199 0.445673)
(199.01 0.988484 -0.230233)
(198.934 0.743646 -0.907071)
(198.604 0.488735 -1.55644)
(198.014 0.226 -2.13493)
(197.158 -0.0544368 -2.56972)
(196.066 -0.360946 -2.76927)
(194.792 -0.709795 -2.56791)
(193.609 -1.09389 -1.83126)
(198.829 0.679614 1.71418)
(199.327 0.394873 0.966778)
(199.524 0.0842435 0.138789)
(199.448 -0.211844 -0.686081)
(199.078 -0.499355 -1.50345)
(198.401 -0.775747 -2.26446)
(197.384 -1.05324 -2.89511)
(196.042 -1.34557 -3.27466)
(194.398 -1.69624 -3.18939)
(192.806 -2.10353 -2.36968)
(198.983 1.78741 1.29939)
(199.522 1.48545 0.536358)
(199.736 1.17156 -0.261697)
(199.65 0.885938 -1.08222)
(199.243 0.629305 -1.89973)
(198.494 0.398837 -2.68488)
(197.347 0.17594 -3.35101)
(195.794 -0.0658124 -3.78659)
(193.809 -0.37352 -3.69701)
(191.796 -0.804369 -2.75703)
(199.287 0.391941 2.0696)
(199.852 -0.0271532 1.25778)
(200.077 -0.418014 0.340144)
(199.994 -0.738866 -0.58375)
(199.572 -1.00169 -1.53461)
(198.784 -1.20259 -2.46778)
(197.551 -1.35205 -3.32003)
(195.832 -1.48082 -3.94616)
(193.562 -1.63305 -4.07764)
(191.105 -1.96449 -3.15634)
(198.71 1.82655 1.29301)
(199.25 1.36592 0.565295)
(199.471 1.02036 -0.217823)
(199.363 0.739726 -1.04298)
(198.904 0.556212 -1.88846)
(198.059 0.461078 -2.73777)
(196.748 0.450521 -3.51351)
(194.896 0.516194 -4.09232)
(192.436 0.583383 -4.17901)
(189.656 0.539673 -3.13568)
(196.662 -0.216859 0.25112)
(196.753 -0.25086 0.216143)
(196.772 -0.292472 0.123757)
(196.768 -0.326124 0.0554042)
(196.746 -0.364219 -0.0231718)
(196.712 -0.398662 -0.079284)
(196.669 -0.431227 -0.122699)
(196.622 -0.460507 -0.141554)
(196.569 -0.485255 -0.141138)
(196.463 -0.505084 -0.119574)
(197.208 0.405388 0.0398316)
(197.279 0.440011 -0.0767103)
(197.309 0.441545 -0.178722)
(197.296 0.410856 -0.272341)
(197.244 0.361696 -0.34712)
(197.159 0.298962 -0.394504)
(197.049 0.228589 -0.406702)
(196.922 0.155676 -0.375696)
(196.784 0.0838745 -0.303064)
(196.643 0.0141178 -0.187813)
(197.361 -0.0566774 0.566868)
(197.484 -0.119842 0.357493)
(197.533 -0.204178 0.117789)
(197.507 -0.301344 -0.114787)
(197.409 -0.412503 -0.323672)
(197.248 -0.533434 -0.488972)
(197.038 -0.659675 -0.591985)
(196.798 -0.78669 -0.617343)
(196.55 -0.910616 -0.553692)
(196.326 -1.02969 -0.411501)
(197.457 0.704302 0.427838)
(197.649 0.673387 0.13782)
(197.726 0.586404 -0.168179)
(197.685 0.468226 -0.46632)
(197.531 0.326827 -0.732309)
(197.272 0.168778 -0.937809)
(196.928 -0.00222224 -1.05343)
(196.53 -0.180526 -1.04783)
(196.12 -0.360569 -0.899079)
(195.763 -0.536862 -0.598041)
(197.721 0.258206 0.961969)
(197.99 0.153349 0.546553)
(198.095 0.00109736 0.0812547)
(198.043 -0.171811 -0.373374)
(197.831 -0.363784 -0.796637)
(197.469 -0.567994 -1.15015)
(196.974 -0.782574 -1.39089)
(196.385 -1.00497 -1.46884)
(195.763 -1.23674 -1.33282)
(195.216 -1.46207 -0.949847)
(197.86 1.12639 0.801331)
(198.201 1.00614 0.314062)
(198.336 0.832316 -0.204818)
(198.272 0.640806 -0.722018)
(198.006 0.43567 -1.20748)
(197.541 0.220958 -1.62093)
(196.888 -0.00759847 -1.90498)
(196.089 -0.252916 -1.99401)
(195.211 -0.517838 -1.79273)
(194.424 -0.79916 -1.2419)
(198.218 0.399548 1.4058)
(198.63 0.187511 0.8158)
(198.793 -0.0561107 0.151683)
(198.726 -0.295948 -0.506495)
(198.415 -0.533717 -1.14684)
(197.861 -0.765056 -1.72044)
(197.059 -0.997239 -2.16551)
(196.045 -1.23818 -2.38611)
(194.883 -1.51279 -2.26163)
(193.807 -1.8135 -1.62938)
(198.318 1.53858 0.972833)
(198.773 1.31802 0.370531)
(198.953 1.07366 -0.263162)
(198.874 0.844236 -0.91444)
(198.524 0.633579 -1.54972)
(197.895 0.441314 -2.13406)
(196.968 0.254119 -2.58985)
(195.766 0.0541284 -2.82576)
(194.338 -0.187429 -2.64992)
(192.96 -0.503246 -1.88531)
(198.617 0.114238 1.76639)
(199.104 -0.217199 1.10837)
(199.295 -0.53734 0.345855)
(199.217 -0.802844 -0.417692)
(198.847 -1.02215 -1.19158)
(198.172 -1.19002 -1.92347)
(197.156 -1.3164 -2.55217)
(195.801 -1.42521 -2.94979)
(194.142 -1.54976 -2.94541)
(192.458 -1.7903 -2.18222)
(198.043 1.67653 0.943909)
(198.507 1.31236 0.371524)
(198.701 1.03977 -0.255571)
(198.605 0.815113 -0.917984)
(198.205 0.670513 -1.58424)
(197.482 0.59841 -2.22793)
(196.396 0.592636 -2.76959)
(194.926 0.64464 -3.10374)
(193.109 0.682614 -3.01186)
(191.215 0.650904 -2.1208)
(196.529 -0.269752 0.224213)
(196.607 -0.298449 0.2088)
(196.621 -0.333597 0.136843)
(196.619 -0.358989 0.0889845)
(196.607 -0.388241 0.0285901)
(196.588 -0.413807 -0.0154096)
(196.564 -0.437599 -0.0536244)
(196.537 -0.458237 -0.0762809)
(196.503 -0.474678 -0.0884759)
(196.411 -0.486778 -0.0871251)
(197.04 0.363511 -0.0463563)
(197.089 0.40613 -0.121206)
(197.111 0.42141 -0.177653)
(197.104 0.408572 -0.226675)
(197.072 0.380216 -0.262321)
(197.021 0.340435 -0.279716)
(196.954 0.294206 -0.274984)
(196.874 0.245642 -0.24312)
(196.781 0.197115 -0.187809)
(196.671 0.147961 -0.104804)
(197.114 -0.176351 0.457578)
(197.199 -0.226879 0.311199)
(197.232 -0.288963 0.140363)
(197.216 -0.359314 -0.0255441)
(197.152 -0.439886 -0.174143)
(197.048 -0.527496 -0.291979)
(196.914 -0.618266 -0.366996)
(196.761 -0.70809 -0.391127)
(196.6 -0.793964 -0.358285)
(196.441 -0.87683 -0.280331)
(197.173 0.549238 0.264003)
(197.311 0.540271 0.0641107)
(197.367 0.484731 -0.146024)
(197.339 0.401946 -0.349256)
(197.231 0.299031 -0.526713)
(197.052 0.182006 -0.657622)
(196.82 0.0554929 -0.722731)
(196.556 -0.0748351 -0.702851)
(196.288 -0.203266 -0.590642)
(196.047 -0.328044 -0.38252)
(197.354 0.0709202 0.754651)
(197.555 0.000948324 0.448044)