/*--------------------------------*- C++ -*----------------------------------*\
| =========                 |                                                 |
| \\      /  F ield         | foam-extend: Open Source CFD                    |
|  \\    /   O peration     | Version:     4.0                                |
|   \\  /    A nd           | Web:         http://www.foam-extend.org         |
|    \\/     M anipulation  |                                                 |
\*---------------------------------------------------------------------------*/
FoamFile
{
    version     2.0;
    format      ascii;
    class       volScalarField;
    location    "50";
    object      alphat;
}
// * * * * * * * * * * * * * * * * * * * * * * * * * * * * * * * * * * * * * //

dimensions      [1 -1 -1 0 0 0 0];

internalField   nonuniform List<scalar> 
34480
(
0.00218944
0.00215753
0.0021247
0.00210855
0.00211408
0.00215019
0.00223053
0.00236504
0.0025166
0.00257279
0.0269578
0.0257066
0.0235687
0.0201058
0.0142883
0.00823787
0.00515098
0.004591
0.00534651
0.00541503
0.0547269
0.0532879
0.0485173
0.0396539
0.026232
0.0132158
0.00659644
0.00489118
0.00551215
0.00578958
0.0661092
0.0646033
0.0586591
0.0479227
0.0317725
0.0156955
0.00720994
0.00483108
0.00542708
0.00595975
0.0702071
0.0683227
0.0618675
0.0506085
0.0336169
0.016534
0.00735767
0.0046352
0.00522564
0.00596441
0.0709142
0.0684878
0.0616564
0.0501195
0.0328664
0.0159314
0.0070077
0.00431049
0.00497504
0.00590323
0.0663379
0.063628
0.0571952
0.0463626
0.0299991
0.014343
0.00632732
0.003906
0.00470944
0.0058326
0.0494833
0.0474356
0.0432453
0.0355382
0.0227273
0.0106656
0.00483101
0.00319567
0.00424526
0.00560938
0.015292
0.0150078
0.0146605
0.0133742
0.00945138
0.0046489
0.00230791
0.00189769
0.00307729
0.00459317
0.00196214
0.00196944
0.001983
0.00199871
0.00201387
0.00202619
0.00204035
0.00207452
0.00215884
0.00212995
0.00219001
0.00215825
0.00212321
0.00210319
0.00210262
0.0021281
0.00219328
0.0023194
0.00249813
0.00261772
0.0260889
0.0250888
0.0236125
0.0223418
0.0210834
0.0190684
0.0159094
0.0127382
0.0110528
0.0123471
0.0526931
0.0522405
0.0501224
0.0464239
0.040288
0.0317409
0.0225131
0.0150487
0.0115801
0.013138
0.0642451
0.0640813
0.0613243
0.0563926
0.0483817
0.0373724
0.025628
0.0156321
0.0112804
0.0134753
0.068164
0.0677492
0.0646072
0.0594328
0.0511742
0.0396699
0.0271394
0.0155995
0.0106781
0.0134098
0.0686736
0.067787
0.0643597
0.0591754
0.0510816
0.03978
0.0273225
0.0149856
0.0098873
0.0131273
0.0640248
0.0628359
0.0597764
0.0554062
0.048375
0.0381499
0.0264969
0.0139403
0.0090043
0.0127571
0.0473463
0.0463846
0.0448684
0.0429935
0.0391061
0.0321189
0.0230085
0.0117163
0.0076787
0.0119228
0.0148127
0.0145942
0.0146588
0.0150434
0.0153046
0.0148296
0.0127217
0.00689852
0.00502422
0.00902602
0.00195824
0.00196437
0.0019753
0.00198743
0.00199779
0.00200331
0.0020056
0.00201656
0.00209537
0.00222643
0.00218072
0.00214776
0.00211381
0.00209532
0.00209516
0.00211833
0.00217818
0.00229786
0.00247542
0.00258931
0.025131
0.0241561
0.0227003
0.0217373
0.0214742
0.0215483
0.0213229
0.0210435
0.0206606
0.0188895
0.0502252
0.0498068
0.0484534
0.0466938
0.0438294
0.0392835
0.0330797
0.0269848
0.0228323
0.0206265
0.0617423
0.0615599
0.0598803
0.057457
0.0534864
0.0472316
0.0384492
0.0284088
0.0219671
0.0211414
0.065394
0.0649403
0.0629565
0.0604789
0.0566648
0.0504626
0.0410102
0.0282786
0.0202147
0.0208469
0.0656359
0.0647396
0.0625268
0.0601483
0.0567686
0.0511601
0.041802
0.0271113
0.0180429
0.0199154
0.060987
0.0598725
0.058006
0.0563511
0.0540237
0.0496669
0.0411386
0.0251803
0.0157361
0.0186677
0.0449451
0.0440549
0.0432908
0.0433126
0.0432329
0.0417761
0.036174
0.0212317
0.012848
0.0167925
0.0143991
0.0141455
0.0142199
0.0146884
0.0153899
0.0163064
0.0169638
0.0118224
0.00803785
0.0124577
0.00195135
0.00195635
0.0019653
0.00197482
0.0019824
0.00198571
0.0019867
0.00199665
0.00206889
0.0022384
0.00216759
0.00213385
0.0021012
0.00208426
0.00208412
0.00210441
0.00215784
0.00226922
0.00244456
0.00256508
0.0243503
0.0233499
0.0218205
0.0208459
0.0207042
0.0212908
0.0224464
0.0247821
0.0277405
0.0275635
0.0476818
0.0470468
0.0457328
0.0445266
0.0428308
0.0400695
0.036673
0.0349657
0.0351177
0.0328914
0.0588885
0.0581987
0.0566232
0.0550953
0.0527947
0.0488577
0.0431577
0.0379567
0.0354464
0.0336473
0.0622422
0.0611533
0.0593009
0.0578312
0.0559074
0.0523118
0.0460059
0.0381511
0.0333669
0.0330509
0.0622504
0.0607159
0.0586903
0.0573703
0.0559716
0.0531094
0.0468485
0.0368674
0.0302376
0.0315551
0.0577488
0.0561418
0.0545035
0.0538075
0.0533104
0.0516127
0.0460544
0.0345347
0.0265817
0.0294279
0.0427121
0.0415695
0.0408877
0.0413285
0.0422884
0.0428052
0.0400014
0.0294248
0.0217763
0.0262658
0.0140817
0.013788
0.0138345
0.0142184
0.0148146
0.0156801
0.0168944
0.0154836
0.0132179
0.0194539
0.00194198
0.00194586
0.00195294
0.00196015
0.00196545
0.00196714
0.00196699
0.00197545
0.00204088
0.00222768
0.00215132
0.00211722
0.00208597
0.00207047
0.0020702
0.00208771
0.00213505
0.00223821
0.0024107
0.00253225
0.0238083
0.0227614
0.0211593
0.0201418
0.0199889
0.0206718
0.0222019
0.0253344
0.0295506
0.0305834
0.0453438
0.0444934
0.0430137
0.0418701
0.0405739
0.0386391
0.0368985
0.0381575
0.042342
0.0427646
0.0558727
0.0546353
0.0528158
0.0515188
0.0499517
0.0472581
0.0438409
0.0429738
0.0460342
0.046529
0.0588432
0.0570562
0.0549659
0.0538015
0.052752
0.0506325
0.0468572
0.0440669
0.045443
0.0469667
0.0586603
0.0564207
0.0542243
0.0532453
0.0527417
0.0514246
0.0477941
0.0432826
0.0427648
0.0457702
0.0544749
0.0523125
0.0505765
0.050148
0.0503692
0.0500551
0.047053
0.0411132
0.0386846
0.0433499
0.0407377
0.0393167
0.0385373
0.0389352
0.0400308
0.0412276
0.0405299
0.0352855
0.0321779
0.0389058
0.0138446
0.0135247
0.0135511
0.0138476
0.0143
0.0149577
0.0161262
0.0171242
0.0183264
0.0274674
0.0019307
0.00193352
0.00193892
0.00194419
0.00194773
0.00194833
0.00194741
0.0019537
0.00200946
0.00219217
0.00213227
0.00209819
0.00206835
0.00205416
0.0020537
0.00206871
0.00211078
0.00220707
0.00237578
0.00249961
0.0235052
0.0223926
0.020724
0.0196655
0.0194985
0.0201798
0.0217343
0.0249015
0.0292119
0.0303601
0.0434488
0.0424226
0.0407662
0.0395531
0.0383836
0.036828
0.0357936
0.0381946
0.0440386
0.0460868
0.0529902
0.0513219
0.049195
0.0478676
0.0466415
0.0446757
0.0425655
0.0440619
0.0506608
0.0539989
0.055438
0.0531152
0.0507245
0.0495769
0.0489626
0.0477702
0.045675
0.0461117
0.0524511
0.0573864
0.0550601
0.0523003
0.049886
0.0489614
0.0488785
0.048543
0.0468281
0.0461827
0.0515134
0.0581775
0.051309
0.0487433
0.0468633
0.0464417
0.0469077
0.047387
0.0463202
0.0445781
0.0481807
0.0566073
0.0390446
0.0374171
0.0365338
0.0367764
0.0377129
0.0390427
0.0396977
0.0383998
0.0405926
0.0510404
0.0136834
0.0133466
0.0133655
0.0135928
0.0139259
0.0143942
0.0153221
0.0171708
0.0211944
0.0331571
0.00191747
0.0019193
0.00192326
0.00192697
0.0019292
0.00192914
0.00192792
0.00193224
0.00197722
0.00214353
0.00211085
0.00207714
0.00204864
0.00203559
0.00203494
0.00204777
0.00208539
0.00217624
0.00234207
0.00246812
0.0233956
0.0222013
0.0204652
0.0193681
0.0191884
0.0198514
0.0213588
0.0244403
0.0286809
0.0297804
0.0420711
0.0408876
0.0390937
0.0378127
0.0366969
0.0353231
0.0344933
0.037093
0.0432519
0.045608
0.0504926
0.0485169
0.0461361
0.0447035
0.0436432
0.0421287
0.0406261
0.0429456
0.0508687
0.0553816
0.0522957
0.0496345
0.0470091
0.0457712
0.0453468
0.0447354
0.0435675
0.0454122
0.0542479
0.0613522
0.0516766
0.0486304
0.0460747
0.0450994
0.0451572
0.0453904
0.0448631
0.0461956
0.055124
0.0649002
0.0483889
0.0456117
0.0436482
0.0431539
0.0436123
0.0444507
0.0446169
0.0452761
0.053122
0.0652843
0.0376282
0.0358767
0.0349352
0.035032
0.0357324
0.0369054
0.038178
0.0391445
0.0451834
0.0591897
0.0136032
0.0132481
0.0132679
0.0134432
0.0136855
0.0140056
0.0146691
0.0164961
0.0216824
0.0351163
0.00190233
0.00190323
0.00190597
0.00190846
0.00190978
0.00190938
0.00190816
0.00191111
0.00194657
0.0020946
0.00208751
0.00205446
0.00202714
0.00201504
0.00201422
0.0020252
0.0020592
0.00214573
0.00231013
0.00243773
0.0234301
0.0221407
0.0203298
0.0191929
0.0189948
0.0196363
0.0210957
0.0241392
0.0283915
0.0295052
0.0411532
0.039813
0.0379143
0.0365972
0.0355354
0.0342702
0.0334458
0.0359678
0.0421267
0.0445104
0.0484821
0.0462829
0.0437343
0.0422206
0.0412727
0.0400776
0.038827
0.0412337
0.049434
0.054187
0.0495918
0.0467449
0.0439982
0.04268
0.042324
0.0420638
0.0413638
0.0435209
0.0531188
0.0609275
0.0486866
0.0455429
0.0429636
0.0419443
0.0419897
0.0424681
0.0425703
0.044549
0.0548794
0.0660881
0.0458154
0.042983
0.0410274
0.0404745
0.04081
0.0416818
0.0424587
0.044127
0.0539256
0.068232
0.0364715
0.0346625
0.0337127
0.0337081
0.0341903
0.035092
0.0364477
0.0383821
0.0462234
0.0622273
0.0136147
0.0132311
0.0132513
0.0133874
0.0135631
0.0137759
0.0142234
0.0157414
0.0209453
0.0344856
0.00188528
0.00188534
0.00188706
0.00188865
0.00188935
0.00188883
0.00188778
0.00188993
0.00191818
0.00205201
0.00206275
0.00203048
0.0020041
0.00199274
0.00199177
0.00200126
0.00203242
0.00211597
0.00228045
0.00240875
0.0235665
0.0221722
0.0202783
0.0190976
0.0188754
0.0194917
0.0209093
0.0239718
0.0283237
0.0294942
0.0405872
0.0390829
0.0370929
0.0357615
0.0347634
0.033581
0.0326914
0.0351184
0.0413386
0.0438052
0.0469228
0.0445481
0.0419053
0.0403632
0.0395272
0.0385902
0.0374452
0.0397205
0.0479851
0.0528532
0.047363
0.0444281
0.0416694
0.0403386
0.0400228
0.0399816
0.0395322
0.041567
0.0512685
0.0592782
0.0461631
0.0430453
0.0405534
0.0395533
0.0395501
0.0400806
0.0404801
0.0424632
0.053011
0.064633
0.0436289
0.0408461
0.0389812
0.0384213
0.0386256
0.0393653
0.0403385
0.0422394
0.0524508
0.067487
0.0355551
0.0337353
0.0328131
0.0327497
0.0330662
0.033704
0.0348877
0.0370486
0.0452679
0.0618425
0.0137291
0.0133036
0.0133128
0.0134182
0.013546
0.0136847
0.0139796
0.0151824
0.0200251
0.0332083
0.00186632
0.00186564
0.00186656
0.0018675
0.00186781
0.00186728
0.00186647
0.0018682
0.00189149
0.00201649
0.002037
0.00200547
0.00197971
0.00196887
0.00196775
0.00197608
0.0020052
0.00208722
0.00225338
0.00238179
0.0237744
0.0222696
0.0202874
0.0190605
0.0188124
0.0193983
0.0207745
0.0238943
0.0284112
0.0296633
0.0402678
0.0385912
0.0365092
0.0351704
0.0342403
0.0331305
0.0321517
0.0345271
0.0409326
0.0435613
0.0457133
0.0431904
0.0405004
0.0389706
0.0382497
0.0375355
0.0364449
0.0385738
0.0469937
0.0520983
0.0455502
0.0425847
0.0398914
0.0386119
0.0383424
0.0384486
0.0381623
0.0399857
0.0497338
0.0580308
0.0440884
0.0410652
0.0387347
0.0378127
0.0377807
0.0382878
0.0388274
0.0406275
0.0510623
0.0629794
0.0418168
0.039144
0.0374233
0.0369019
0.0370144
0.0375922
0.0385677
0.0404087
0.0504282
0.0657748
0.0348583
0.0330583
0.0321827
0.0320899
0.0322935
0.0327277
0.0336891
0.0357818
0.0437923
0.0604779
0.0139509
0.0134692
0.0134528
0.0135332
0.0136268
0.0137166
0.0139119
0.014872
0.0193462
0.0322978
0.00184545
0.00184413
0.00184448
0.00184497
0.00184505
0.00184459
0.00184401
0.00184552
0.00186558
0.00198627
0.00201049
0.00197952
0.00195404
0.0019435
0.00194225
0.00194974
0.00197752
0.00205939
0.00222881
0.00235713
0.024034
0.0224173
0.0203466
0.0190755
0.0188029
0.0193527
0.02068
0.0238776
0.028609
0.029966
0.0401083
0.0382547
0.0360767
0.0347299
0.0338683
0.032831
0.0317586
0.0341221
0.0408162
0.0436668
0.044743
0.0420914
0.0393818
0.0378864
0.0372741
0.0367565
0.0357129
0.0377312
0.0464403
0.0519114
0.0440602
0.0410988
0.0385148
0.0373229
0.0371027
0.0373111
0.037157
0.0387979
0.0487091
0.057506
0.0423987
0.039502
0.0373665
0.036551
0.0365129
0.0369774
0.0375926
0.0392147
0.0495713
0.0620239
0.0403352
0.0378022
0.0362486
0.0357891
0.0358496
0.0362941
0.0372117
0.0389456
0.0486872
0.064518
0.0343595
0.0325965
0.0317756
0.0316701
0.0318011
0.0320965
0.032871
0.0348311
0.0425236
0.059461
0.0142656
0.0137267
0.0136753
0.0137344
0.0138034
0.0138622
0.0139961
0.0147852
0.0189643
0.0318752
0.00182264
0.00182087
0.00182085
0.00182107
0.00182103
0.00182064
0.00182027
0.00182165
0.00183964
0.00195943
0.00198317
0.00195249
0.00192703
0.00191664
0.00191529
0.00192223
0.00194926
0.00203186
0.00220578
0.00233426
0.0243336
0.0226071
0.0204542
0.0191459
0.018846
0.0193539
0.0206226
0.0239062
0.0288985
0.0303922
0.040038
0.0380109
0.0357392
0.0343842
0.0335912
0.0326348
0.0314773
0.0338477
0.0409058
0.0440368
0.0439147
0.0411563
0.0384481
0.0369996
0.0364832
0.0361409
0.0351632
0.0371041
0.0462005
0.0521534
0.042803
0.0398706
0.0374194
0.0363296
0.0361532
0.0364287
0.0363996
0.0379077
0.0480826
0.0575723
0.041019
0.0382601
0.0363254
0.0356202
0.0355864
0.0360047
0.0366675
0.0381656
0.0485282
0.0617779
0.0391295
0.0367479
0.0353642
0.0349716
0.0350057
0.0353522
0.0362018
0.0378578
0.0473695
0.063963
0.034027
0.0323175
0.0315555
0.0314463
0.0315315
0.031738
0.0323747
0.0342104
0.0416082
0.0590317
0.0146605
0.0140719
0.0139883
0.0140289
0.0140798
0.0141197
0.0142177
0.0148887
0.0188264
0.0317778
0.00179795
0.00179597
0.00179573
0.00179578
0.00179569
0.00179539
0.00179516
0.00179646
0.00181304
0.00193313
0.00195457
0.00192394
0.00189849
0.00188823
0.00188681
0.00189334
0.00191984
0.00200331
0.00218199
0.00231182
0.0246687
0.0228364
0.020614
0.0192821
0.0189592
0.0194186
0.0206096
0.023969
0.0292706
0.0309546
0.0399972
0.037811
0.0354611
0.0341037
0.0333816
0.0325239
0.031298
0.0336657
0.0411404
0.0446322
0.0431496
0.0403141
0.0376344
0.0362457
0.0358122
0.0356266
0.0347511
0.0366234
0.0461516
0.0527159
0.0417036
0.0388252
0.036525
0.0355422
0.0354004
0.0357135
0.035812
0.0372238
0.0476825
0.0580405
0.0398771
0.0372624
0.0355237
0.0349204
0.0348922
0.0352631
0.0359564
0.0373815
0.0477552
0.0620054
0.0381421
0.0359202
0.034701
0.0343704
0.0343909
0.0346658
0.0354479
0.0370596
0.0463411
0.0638886
0.0338269
0.0321943
0.0314961
0.0313876
0.0314434
0.0315949
0.032132
0.0338562
0.040958
0.0589928
0.0151231
0.0145126
0.0144057
0.0144298
0.0144669
0.014496
0.0145745
0.0151617
0.0188708
0.0318262
0.00177152
0.0017695
0.00176917
0.00176913
0.00176902
0.0017688
0.00176867
0.0017699
0.00178527
0.00190326
0.00192383
0.00189327
0.00186818
0.0018582
0.00185676
0.00186288
0.00188859
0.00197183
0.00215381
0.0022871
0.0250422
0.0231067
0.0208365
0.0195019
0.0191641
0.0195677
0.0206489
0.0240483
0.0297146
0.0316833
0.0399326
0.0376138
0.0352195
0.0338755
0.0332292
0.0324932
0.0312263
0.0335407
0.0414633
0.0454467
0.0423839
0.0395135
0.0369047
0.0355964
0.0352351
0.0351874
0.0344599
0.0362311
0.0461663
0.0535219
0.0407012
0.0379124
0.0357869
0.0349148
0.0347987
0.0351245
0.0353539
0.0366768
0.047323
0.0587373
0.0389086
0.0364535
0.0349078
0.0343947
0.0343698
0.0346925
0.0354007
0.0367836
0.0470401
0.0624375
0.0373194
0.0352738
0.0342134
0.0339355
0.0339471
0.0341684
0.0348824
0.0364661
0.0454023
0.0639653
0.0337304
0.0322067
0.0315786
0.0314723
0.0315082
0.0316258
0.0320884
0.0337015
0.0404308
0.0590425
0.0156696
0.0150671
0.0149496
0.0149595
0.0149854
0.0150087
0.0150781
0.015601
0.0190516
0.031858
0.00174342
0.00174153
0.00174118
0.0017411
0.001741
0.00174084
0.00174079
0.00174192
0.00175593
0.00186752
0.00188969
0.00185974
0.00183584
0.0018265
0.00182512
0.00183069
0.00185481
0.00193513
0.0021164
0.00225545
0.0254609
0.0234247
0.0211428
0.0198376
0.019497
0.0198356
0.0207561
0.0241115
0.0301975
0.0326173
0.0397937
0.0373812
0.0349989
0.0336972
0.0331343
0.0325457
0.0312759
0.0334226
0.0417839
0.0464782
0.0415639
0.0387189
0.0362455
0.0350478
0.0347513
0.0348187
0.0342857
0.0358647
0.046071
0.0544808
0.0397464
0.0371026
0.035187
0.0344304
0.0343333
0.0346509
0.0350074
0.0362119
0.0467808
0.0594605
0.0380569
0.0357979
0.0344493
0.0340151
0.0339902
0.0342656
0.0349704
0.0363163
0.0461508
0.0627624
0.0366149
0.0347773
0.0338712
0.0336356
0.0336394
0.0338196
0.0344627
0.0360116
0.044346
0.0638091
0.0337166
0.0323397
0.0317864
0.0316821
0.0317031
0.0318001
0.0322036
0.0336918
0.0398852
0.058834
0.0163361
0.0157733
0.0156549
0.0156525
0.0156692
0.0156897
0.0157561
0.0162226
0.0193466
0.0317149
0.0017136
0.00171201
0.00171168
0.00171159
0.00171151
0.00171139
0.00171139
0.00171241
0.00172463
0.00182418
0.00185073
0.00182267
0.00180126
0.00179306
0.00179182
0.00179662
0.00181791
0.00189102
0.00206408
0.0022099
0.0259295
0.0238031
0.0215745
0.0203467
0.0200199
0.020283
0.0209696
0.0241026
0.0306233
0.0337795
0.0395231
0.0370743
0.034788
0.0335718
0.0331017
0.0326847
0.0314666
0.0332347
0.0419209
0.0476845
0.0406377
0.0379065
0.0356568
0.0346081
0.0343718
0.0345241
0.0342225
0.0354538
0.0455877
0.0554056
0.038797
0.0363801
0.0347188
0.0340822
0.0339997
0.034293
0.0347588
0.035789
0.0457688
0.0598803
0.0372748
0.0352713
0.0341291
0.0337642
0.0337372
0.0339688
0.0346475
0.0359392
0.0448369
0.0625404
0.0359897
0.0344035
0.033648
0.0334453
0.0334418
0.033591
0.0341591
0.0356423
0.0429801
0.0629224
0.0337664
0.032573
0.0320964
0.0319932
0.0320027
0.0320875
0.0324412
0.0337791
0.0391981
0.057936
0.0171853
0.0166873
0.0165743
0.0165619
0.016571
0.0165906
0.0166566
0.0170655
0.019763
0.0312319
0.00168183
0.00168064
0.00168036
0.00168028
0.00168021
0.00168014
0.00168019
0.00168106
0.00169096
0.00177245
0.00180588
0.00178162
0.00176425
0.00175775
0.00175675
0.00176051
0.00177754
0.00183797
0.00199125
0.00214118
0.0264374
0.0242707
0.022209
0.0211248
0.0208327
0.0210117
0.0213763
0.0239441
0.0307563
0.0350984
0.0390408
0.0366497
0.0345728
0.0334987
0.03313
0.0328977
0.0318191
0.0328833
0.0415096
0.0488588
0.0395469
0.0370611
0.0351401
0.0342781
0.0340982
0.0342999
0.0342485
0.0349526
0.0442902
0.0558477
0.0378137
0.0357295
0.0343667
0.033852
0.0337826
0.0340412
0.0345802
0.0353964
0.0439487
0.0593876
0.0365199
0.0348448
0.0339187
0.0336155
0.033587
0.033781
0.0344068
0.0356177
0.0428747
0.06108
0.0354055
0.0341158
0.0335069
0.0333309
0.0333218
0.0334491
0.0339387
0.0353029
0.04118
0.0606158
0.0338493
0.0328681
0.0324679
0.0323662
0.0323674
0.0324459
0.0327555
0.0339106
0.0382921
0.0557882
0.018306
0.0178915
0.0177899
0.0177707
0.0177744
0.0177937
0.0178591
0.0182025
0.0203599
0.0302661
0.00164763
0.00164685
0.00164662
0.00164654
0.0016465
0.00164649
0.00164658
0.0016473
0.00165448
0.00171316
0.00175499
0.00173693
0.00172491
0.0017205
0.00171982
0.00172237
0.00173401
0.00177665
0.00189523
0.00203868
0.0269607
0.0249053
0.0231848
0.0223232
0.0220888
0.0221857
0.0221721
0.0236151
0.0301057
0.0361822
0.0382257
0.0360569
0.0343244
0.033453
0.0331902
0.0331345
0.0323391
0.0323483
0.0399223
0.0493159
0.0382295
0.0361671
0.0346756
0.0340257
0.0338987
0.0341142
0.0342989
0.0344201
0.0416668
0.0547893
0.0367578
0.0351216
0.0340889
0.0336933
0.033638
0.0338585
0.0344147
0.0350568
0.0410747
0.0568773
0.0357487
0.0344721
0.0337667
0.0335205
0.0334939
0.0336585
0.0342037
0.0353016
0.0402161
0.0573317
0.0348203
0.0338629
0.0333959
0.0332447
0.0332338
0.0333474
0.0337565
0.0349285
0.038996
0.0560091
0.0339105
0.0331611
0.0328368
0.0327392
0.0327361
0.0328126
0.0330818
0.0340188
0.0371751
0.0517447
0.0198443
0.0195266
0.0194435
0.0194222
0.0194228
0.0194418
0.0195035
0.0197704
0.0212959
0.0288237
0.00161059
0.00161013
0.00160994
0.00160986
0.00160984
0.00160988
0.00161004
0.00161063
0.00161508
0.00164979
0.00170106
0.00169064
0.00168426
0.00168192
0.00168157
0.00168295
0.00168914
0.00171206
0.00178276
0.00189618
0.0275527
0.0259385
0.0247647
0.0241945
0.0240386
0.0240771
0.0237704
0.0234911
0.0279657
0.035718
0.0369496
0.0352551
0.0339914
0.0333671
0.0332049
0.0332866
0.0329437
0.0319205
0.0364513
0.0472048
0.0366737
0.0352209
0.0342163
0.0337769
0.0336971
0.0338966
0.0342429
0.0340697
0.0375634
0.0502536
0.0356229
0.0345187
0.033819
0.033534
0.0334947
0.0336771
0.0341768
0.0347567
0.0374148
0.05069
0.034939
0.0340955
0.0336046
0.0334132
0.0333924
0.0335335
0.0339725
0.0348907
0.037263
0.050107
0.0342231
0.0336045
0.033272
0.0331468
0.0331377
0.0332413
0.0335685
0.0344623
0.0367641
0.0484514
0.0338794
0.0333678
0.0331198
0.0330312
0.0330273
0.0331028
0.0333323
0.0340219
0.0359534
0.0454479
0.0220983
0.0218829
0.0218252
0.0218068
0.0218064
0.0218234
0.0218754
0.0220568
0.022933
0.0273921
0.00157137
0.00157109
0.0015709
0.00157081
0.0015708
0.00157088
0.0015711
0.0015716
0.00157387
0.00158885
0.00164862
0.00164497
0.00164282
0.00164199
0.00164187
0.00164241
0.00164449
0.00165172
0.00167542
0.00172892
0.0287627
0.0280254
0.0275138
0.0272519
0.0271808
0.0272008
0.0269164
0.0252914
0.0247065
0.0305879
0.0352852
0.0342355
0.0334809
0.0331084
0.033025
0.0331571
0.0332645
0.0322817
0.0316756
0.0389404
0.0350372
0.034203
0.0336454
0.0333901
0.0333458
0.0334919
0.0338298
0.0338743
0.0333638
0.0399418
0.0344681
0.0338298
0.0334282
0.0332505
0.0332265
0.0333534
0.0336986
0.0341997
0.0342543
0.0398973
0.0340998
0.0336134
0.0333213
0.0331945
0.0331813
0.0332831
0.0335706
0.0341693
0.0348102
0.0396291
0.0336502
0.0332978
0.0330939
0.0330068
0.0330007
0.0330782
0.0332961
0.033825
0.0348193
0.0390297
0.0336734
0.0333665
0.0332036
0.0331373
0.0331345
0.0331955
0.0333613
0.0337739
0.0346614
0.0379327
0.0257767
0.0256556
0.0256269
0.0256159
0.0256153
0.0256259
0.0256573
0.0257473
0.0260728
0.0275433
0.00153132
0.00153106
0.00153088
0.00153077
0.00153076
0.00153084
0.00153105
0.00153144
0.00153237
0.00153624
0.00269455
0.00268583
0.00266639
0.00264023
0.00200133
0.00193921
0.00188926
0.00187292
0.00224546
0.00218077
0.00212475
0.00210179
0.00247268
0.00240513
0.00234315
0.00231067
0.00266756
0.00259292
0.00251937
0.00246774
0.0028437
0.00275723
0.00266648
0.00258772
0.00297859
0.00287698
0.00276645
0.00265805
0.00300617
0.00289206
0.00276762
0.0026397
0.00265852
0.00255147
0.00244225
0.0023362
0.00245642
0.00244481
0.00242765
0.00239193
0.00256041
0.00252327
0.00249671
0.00248344
0.0096384
0.00892463
0.00840019
0.00814378
0.00970562
0.00897889
0.00835666
0.00791547
0.00994883
0.00928771
0.00863701
0.00809735
0.0102837
0.00970127
0.0090142
0.00836264
0.0108143
0.010306
0.00956131
0.00877553
0.0113836
0.0109217
0.0100945
0.00915272
0.011497
0.0110718
0.010189
0.00914628
0.00923342
0.0088557
0.00811052
0.00728462
0.00239945
0.00239262
0.00236441
0.00231554
0.00247062
0.00242879
0.00240106
0.0023874
0.0153749
0.0144178
0.0137565
0.0135351
0.0150208
0.0137454
0.012839
0.0124408
0.0142881
0.0129646
0.0120288
0.0116017
0.0135857
0.0123339
0.0113962
0.0109136
0.0131343
0.0120089
0.0110515
0.0104519
0.012886
0.0118557
0.0108259
0.0100423
0.012336
0.0113859
0.0103126
0.00941773
0.00948769
0.00867415
0.00785288
0.0073257
0.00229736
0.00228318
0.00225956
0.00223102
0.00243455
0.00239056
0.00236137
0.00234741
0.0243835
0.0232578
0.0225212
0.0224028
0.0268118
0.0248925
0.0237362
0.0237465
0.0252311
0.0229512
0.0217131
0.0219313
0.0229897
0.0206539
0.019455
0.0198151
0.02078
0.0185958
0.0174694
0.0178733
0.0187918
0.0168037
0.0156975
0.0160361
0.0167146
0.0149605
0.013909
0.014224
0.0128608
0.0115533
0.0108831
0.0114591
0.00223227
0.00220975
0.00218619
0.00216662
0.00240713
0.00236507
0.00233665
0.00232243
0.0281866
0.0273459
0.0267216
0.026412
0.0382543
0.036694
0.0356407
0.035374
0.0393094
0.0369975
0.0356484
0.0356169
0.0371947
0.0344124
0.032987
0.0332596
0.0339873
0.0310652
0.0297144
0.0302645
0.0304209
0.0275945
0.0263569
0.0270885
0.0264015
0.0239154
0.0228768
0.0237649
0.0196076
0.0179787
0.0173634
0.0181433
0.00218437
0.00216042
0.00213687
0.0021186
0.00238021
0.00234009
0.00231272
0.00229861
0.0280962
0.0273282
0.0267545
0.0264287
0.0425436
0.0413177
0.0403566
0.0398253
0.0481396
0.046084
0.0446166
0.0440556
0.0489267
0.0460699
0.0442564
0.0438823
0.0471734
0.0437334
0.0417812
0.0417251
0.0436321
0.0399365
0.0380168
0.0382797
0.0380297
0.0346177
0.0329662
0.0334813
0.0259706
0.0238931
0.0227374
0.0227438
0.00213517
0.00211327
0.00209204
0.00207618
0.00235254
0.00231402
0.00228767
0.00227371
0.0275163
0.0267752
0.0262595
0.0259993
0.0423822
0.0413336
0.0405173
0.040002
0.0503677
0.0486449
0.0473002
0.0465226
0.0541781
0.0516511
0.0497998
0.0489332
0.055384
0.052056
0.0498134
0.0490668
0.0536798
0.0497535
0.0473033
0.0467986
0.0473899
0.0435465
0.041257
0.0409448
0.0291213
0.026875
0.0251948
0.0243813
0.0020883
0.00206996
0.00205251
0.00204017
0.00232286
0.0022853
0.00225973
0.00224585
0.0271959
0.0264619
0.025988
0.0257901
0.0412986
0.0403175
0.0396278
0.0392423
0.0494528
0.0479191
0.0467632
0.0460637
0.0544208
0.0522
0.0505237
0.0495546
0.057675
0.05469
0.0525084
0.0514042
0.0580472
0.0543615
0.0517875
0.0507064
0.0518126
0.048031
0.0454409
0.0444142
0.0292194
0.0270912
0.0253228
0.0242887
0.00204634
0.00203091
0.00201724
0.00200891
0.00229066
0.00225323
0.00222811
0.00221428
0.0270849
0.0263387
0.0258882
0.0257391
0.0405098
0.0395555
0.0389612
0.0387023
0.0481348
0.0466928
0.0457083
0.0451823
0.0529651
0.0509202
0.0494694
0.0486527
0.0566872
0.0539647
0.0520091
0.0509317
0.058089
0.0547092
0.0522983
0.0510612
0.0522385
0.0486929
0.0461613
0.0448955
0.0283893
0.0265402
0.0250311
0.0241864
0.00200916
0.00199522
0.00198459
0.0019803
0.00225595
0.00221771
0.00219266
0.0021789
0.0270914
0.0263145
0.0258739
0.0257655
0.0401039
0.0391458
0.0386131
0.0384514
0.0472722
0.0458662
0.0450058
0.0446354
0.051708
0.0497522
0.0484939
0.0478832
0.0551601
0.0525914
0.0508854
0.050025
0.0566935
0.0535339
0.051401
0.0503407
0.0512739
0.0479671
0.0457085
0.0446199
0.0278358
0.0262743
0.0250945
0.0245185
0.0019752
0.00196144
0.00195304
0.00195267
0.00221911
0.00217897
0.00215357
0.00214
0.0271667
0.026343
0.0259039
0.0258338
0.0399497
0.0389554
0.0384552
0.0383676
0.0468517
0.0454289
0.0446416
0.0443883
0.0510416
0.049107
0.0479782
0.0475381
0.0541876
0.0516949
0.0501877
0.0495547
0.0555782
0.0525628
0.0506982
0.0499097
0.0505211
0.0474155
0.0454685
0.0446864
0.0276861
0.0263501
0.0254453
0.0251047
0.00194313
0.00192862
0.00192181
0.00192516
0.00218047
0.00213737
0.00211123
0.00209804
0.027296
0.0264098
0.0259673
0.0259361
0.0399514
0.0388877
0.0383974
0.0383704
0.0467141
0.0452191
0.0444603
0.0442955
0.050818
0.0488341
0.0477705
0.0474573
0.0537966
0.0513023
0.0499186
0.0494656
0.0550625
0.0521156
0.0504472
0.0498981
0.0502837
0.0473153
0.0456205
0.0451183
0.0277727
0.0265909
0.0258925
0.0257491
0.00191211
0.00189631
0.0018906
0.0018974
0.00214018
0.00209329
0.00206614
0.00205365
0.0274844
0.0265186
0.0260686
0.0260792
0.0400649
0.0388986
0.0384004
0.0384278
0.0467482
0.0451252
0.0443587
0.044266
0.0508458
0.0487427
0.0476902
0.047474
0.0537451
0.0511714
0.0498414
0.0495264
0.0549248
0.051968
0.0504173
0.0500589
0.0503609
0.0474577
0.0459386
0.0456674
0.027941
0.026857
0.0263116
0.0263405
0.00188155
0.00186425
0.0018593
0.00186917
0.00209793
0.00204701
0.00201879
0.00200747
0.0277528
0.0266867
0.0262242
0.0262798
0.0402791
0.0389744
0.0384531
0.0385335
0.0468913
0.0450854
0.0442808
0.0442532
0.0509835
0.0486971
0.0476129
0.0474789
0.0538049
0.051084
0.0497549
0.0495569
0.0548788
0.0518471
0.050356
0.0501627
0.0504935
0.0475968
0.0461965
0.0461304
0.0280927
0.0270623
0.0266298
0.0268189
0.00184908
0.00183159
0.00182754
0.00183968
0.00205289
0.00199851
0.00196956
0.00195997
0.0281359
0.0269428
0.0264603
0.0265637
0.0405938
0.0391097
0.0385507
0.0386873
0.0470935
0.045051
0.0441828
0.0442221
0.0511051
0.0485829
0.0474371
0.0473875
0.0537697
0.0508559
0.0494983
0.0494231
0.05466
0.0515183
0.0500601
0.0500409
0.0504549
0.0475341
0.0462264
0.0463764
0.0281972
0.0272066
0.0268647
0.0272054
0.00181189
0.00179536
0.00179211
0.00180515
0.0020033
0.00194724
0.00191843
0.00191115
0.0286743
0.027321
0.0268073
0.0269633
0.0409963
0.039284
0.0386726
0.0388769
0.0472694
0.0449433
0.0439942
0.0441186
0.0510415
0.0482546
0.0470384
0.0471027
0.0534009
0.0502884
0.0489066
0.0489968
0.0539951
0.0507588
0.0493486
0.049554
0.0500432
0.0471185
0.0459159
0.0463273
0.0282392
0.027319
0.0270608
0.0275264
0.00176869
0.0017545
0.00175196
0.00176422
0.00194613
0.00189176
0.00186462
0.00186013
0.0293839
0.027835
0.0272807
0.0275059
0.0414078
0.0394152
0.0387417
0.0390478
0.0472214
0.0445936
0.04357
0.0438331
0.0505057
0.0474809
0.0462266
0.04648
0.0523685
0.0491272
0.0477773
0.0481209
0.0525625
0.0493327
0.0480379
0.0485498
0.0490365
0.0462133
0.0451703
0.0458903
0.0281704
0.0273974
0.027221
0.0277416
0.001718
0.00170748
0.00170552
0.00171523
0.00187717
0.00182967
0.00180644
0.00180488
0.0301687
0.0284162
0.0278318
0.0281795
0.0415633
0.0392763
0.0385587
0.0390528
0.0465118
0.0436642
0.0426331
0.043148
0.0490035
0.0459008
0.0447152
0.0452786
0.0501968
0.047046
0.0458548
0.0465477
0.0499517
0.046976
0.0459148
0.0467711
0.0471198
0.0446354
0.0438318
0.0448117
0.0278894
0.0273789
0.0272696
0.0277025
0.00165977
0.00165366
0.00165216
0.00165795
0.00179262
0.0017585
0.00174196
0.00174285
0.0305684
0.0287587
0.0282438
0.0288377
0.0407167
0.0383357
0.0376917
0.0385158
0.0442321
0.041536
0.040691
0.04157
0.0456878
0.0429626
0.0420571
0.0429641
0.0461568
0.0435814
0.0427327
0.0436891
0.0455719
0.0433076
0.0425993
0.0435836
0.0437107
0.0419571
0.0414445
0.0423708
0.0273407
0.0272023
0.027127
0.027284
0.00159785
0.00159567
0.0015946
0.00159651
0.0016937
0.00167833
0.00167083
0.00167247
0.0291478
0.0280131
0.0279651
0.0288892
0.0369462
0.0353585
0.0351562
0.0362418
0.0387308
0.037134
0.0368172
0.0377983
0.0393285
0.0378447
0.0374714
0.0383107
0.0394234
0.0381293
0.0377562
0.0384621
0.0389955
0.0379374
0.0375982
0.0381754
0.0382534
0.037548
0.0372991
0.0377168
0.0274025
0.0276386
0.027611
0.0274618
0.00154032
0.00154022
0.0015397
0.00153962
0.00257373
0.00242942
0.0023281
0.00225586
0.00220833
0.00218182
0.00217181
0.00217368
0.00218213
0.00219034
0.00626751
0.00856097
0.0121535
0.0161899
0.0201353
0.0233268
0.0253365
0.026368
0.0268923
0.0271252
0.00688459
0.00933731
0.0145378
0.0213406
0.0289786
0.0363706
0.0426606
0.0475087
0.051015
0.0533501
0.00761037
0.0102337
0.0164954
0.0246835
0.0333208
0.0413209
0.04846
0.0546386
0.0596862
0.0634443
0.00806826
0.0106874
0.0176514
0.0266138
0.0354286
0.0433059
0.0505549
0.0572176
0.062929
0.0672586
0.0083532
0.0107998
0.0181071
0.0274255
0.0361474
0.0438329
0.0510468
0.0578594
0.0637894
0.0682171
0.00837621
0.0103191
0.0173532
0.026398
0.0346377
0.0418409
0.0485868
0.0549252
0.0603828
0.0643115
0.00798376
0.00918365
0.0151907
0.0227971
0.0292103
0.0343702
0.0388618