/*--------------------------------*- C++ -*----------------------------------*\
| =========                 |                                                 |
| \\      /  F ield         | foam-extend: Open Source CFD                    |
|  \\    /   O peration     | Version:     4.0                                |
|   \\  /    A nd           | Web:         http://www.foam-extend.org         |
|    \\/     M anipulation  |                                                 |
\*---------------------------------------------------------------------------*/
FoamFile
{
    version     2.0;
    format      ascii;
    class       volScalarField;
    location    "50";
    object      divFlux;
}
// * * * * * * * * * * * * * * * * * * * * * * * * * * * * * * * * * * * * * //

dimensions      [1 -3 -1 0 0 0 0];

internalField   nonuniform List<scalar> 
34480
(
0.0659636
0.00790819
0.0175599
0.0179072
0.0141753
0.0151325
0.0169912
11.856
60.5136
0.0134913
0.0138413
0.000611247
0.00593947
0.00180575
0.00499156
0.00167091
0.00525359
3.35828
45.6954
0.00915176
0.0523601
0.00968208
0.0141729
0.00905725
0.0146457
0.00415785
0.000157866
0.00257392
28.9269
0.00573967
0.0590815
0.0159664
0.014722
0.00898805
0.0139212
0.00439647
0.00135707
0.00510642
14.3259
0.00534022
0.0389162
0.0140119
0.0101103
0.00664941
0.00898138
0.00307901
0.000614173
0.00347423
2.23765
0.00418229
0.0198596
0.01071
0.00548133
0.00403359
0.0044098
0.00222596
0.000186546
0.0340585
9.34823
0.00241896
0.00471612
0.00681909
0.00224781
0.00156183
0.00140853
0.0276853
0.308402
1.62704
20.677
0.00102173
0.0042088
0.00320823
0.000378395
0.0548545
0.253972
0.941581
3.20439
6.60406
31.8342
0.000367198
0.00758721
0.00121656
0.00162129
0.107076
0.12145
2.55126
6.33702
10.9365
36.2851
0.000149984
0.00723114
0.000640468
0.0016243
0.316525
0.543998
3.99938
8.64663
14.5087
40.0335
0.000334756
0.0697351
0.0284501
0.0350538
0.0285977
0.0279226
0.0296599
0.028907
0.0247956
0.0276333
11.4185
0.0465151
0.00615199
0.0256431
0.0179193
0.0188743
0.0211149
0.0192283
0.0162655
2.71786
7.41957
0.0816143
0.00745076
0.0165928
0.00807346
0.0121953
0.0143318
0.0106696
0.0116326
3.17161
4.90552
0.0632355
0.00623253
0.0088063
0.00129448
0.00787421
0.0102718
0.00294564
0.00726129
1.74658
1.50777
0.0180423
0.00207315
0.00394501
0.000661862
0.00525837
0.00838605
0.00151785
0.000589454
0.350736
0.200276
0.00457385
0.00675036
0.00271715
0.000315928
0.00184077
0.00641717
0.00455168
0.0114357
2.79227
0.0070933
0.00652941
0.010247
0.00383516
0.00173343
0.00129875
0.00255219
0.00355667
0.0144079
4.61897
0.00191325
0.000198698
0.0125801
0.00233354
0.0110251
0.407124
0.718056
0.00526697
0.00220986
6.51048
0.00742834
0.000320199
0.0162995
0.0124726
0.0545674
0.656046
1.066
0.0106678
0.00527005
3.85638
0.00993239
0.013719
0.0111544
0.053668
0.167727
1.3546
2.44533
1.49199
0.0022161
5.24178
0.0152401
0.0981805
0.038115
0.0281018
0.0243627
0.0255522
0.0259089
0.0231551
0.0192364
0.0195106
0.281235
0.051218
0.0354477
0.0294361
0.0202334
0.0203558
0.0203969
0.0170321
0.0143749
0.322542
0.0102258
0.0181107
0.0299308
0.0317319
0.0197609
0.0167523
0.0156987
0.0125798
0.0100521
0.513627
0.0135569
0.0367857
0.0236143
0.0297024
0.0201874
0.0157602
0.0134731
0.00936689
0.00857741
0.231546
0.0148573
0.0537317
0.0160614
0.0218328
0.016453
0.0134513
0.0108234
0.00603867
0.00776488
0.415493
0.0125844
0.0454779
0.0113219
0.013675
0.0109683
0.0192307
0.0368304
0.19329
0.0051038
1.36363
0.00691484
0.0316267
0.00646405
0.00665518
0.0915901
0.398393
0.679604
1.19688
0.000752585
1.81416
0.00230021
0.0125196
0.000955753
0.17368
0.549471
1.44599
2.41394
3.56267
1.11396
2.66675
0.00172699
0.00270625
0.00349462
0.120861
0.634261
1.80949
2.95344
3.927
0.506538
0.00122817
0.00349462
0.00642255
0.00765019
0.213451
1.02874
2.72416
4.39675
5.29675
2.01845
0.0036671
0.00123235
0.0734538
0.0195943
0.0190775
0.0223944
0.0239876
0.0235339
0.022021
0.0227833
0.02258
0.672877
0.0178464
0.0130853
0.00341269
0.00599074
0.0100818
0.0101344
0.00748177
0.00726608
0.000690157
0.374893
0.000667363
0.00903446
0.0005389
0.000775034
0.00275562
0.00323641
0.00153679
0.00216158
0.093252
0.0122731
0.0240235
0.00542605
0.000680419
0.00209044
8.97349e-05
8.51861e-05
0.00123747
0.00110845
0.0671142
0.0149484
0.0278004
0.00218003
0.00151353
0.00306061
0.00170531
0.00236736
0.00304961
0.00181803
0.615417
0.0163243
0.0032253
0.00563019
0.113037
0.127995
0.210263
0.136368
0.177943
0.00229219
1.50682
0.016278
0.0113015
0.0101503
0.274109
0.436145
0.746072
0.770864
0.896322
0.000892206
1.93846
0.014073
0.0756679
0.156161
0.647396
1.12063
1.88865
2.30493
2.66954
0.34645
2.82034
0.0111349
0.0116939
0.011596
0.468115
1.08741
2.01881
2.42065
2.4056
0.00078936
0.430669
0.00964444
0.0110251
0.123528
0.673608
1.57106
2.88391
3.73725
3.76227
0.475428
0.00392682
0.00561993
0.0688607
0.00822003
0.0154785
0.0179791
0.0178398
0.0170742
0.0163961
0.0184104
0.0231115
0.379172
0.0386556
0.000638965
4.27275e-05
0.0052163
0.00741809
0.00659609
0.00545848
0.00673744
0.0858818
0.279985
0.0159265
0.00123976
0.00446338
0.00167849
0.00104264
0.000553109
0.000298287
0.00375866
0.0400606
0.0513822
0.10945
0.0201735
0.047964
0.000414447
0.00222212
0.0024488
0.00168834
0.0035576
0.256586
0.274364
0.227082
0.0932145
0.219828
0.162795
0.140861
0.0552957
0.0291378
0.0040625
0.67774
0.0803503
0.339976
0.237555
0.50417
0.522049
0.609544
0.525635
0.532218
0.00463711
1.35232
0.00109809
0.274864
0.237127
0.673867
0.835959
1.10278
1.05093
1.04032
0.00407238
1.57898
0.00378016
0.441727
0.550413
1.14185
1.59074
2.20227
2.38031
2.43347
0.557524
2.35997
0.00297246
0.0290927
0.249812
0.87734
1.47486
2.20186
2.33878
2.04805
0.00420663
0.490835
0.00334959
0.173509
0.484295
1.17163
2.02692
3.02961
3.48002
3.24985
0.658164
0.00118056
0.00245589
0.12109
0.0385757
0.042538
0.036386
0.0372987
0.0355425
0.0342959
0.0384628
0.0427321
0.0654589
0.200829
0.125114
0.115369
0.096438
0.087971
0.0880642
0.0987905
0.138953
0.236598
0.390811
0.3711
0.243703
0.247906
0.204966
0.176077
0.160765
0.166952
0.181931
0.387303
0.692137
0.533561
0.35645
0.404605
0.331057
0.28432
0.24408
0.246472
0.165897
0.591555
1.05466
0.707811
0.499958
0.652156
0.579862
0.559635
0.493709
0.493453
0.205916
0.932004
1.27709
0.841473
0.694928
0.975765
0.975304
1.04355
0.971471
0.979935
0.380021
1.44079
1.23148
0.694863
0.62049
1.05539
1.16964
1.35821
1.27374
1.22806
0.196137
1.47172
0.456282
0.886736
0.986545
1.55484
1.9071
2.33398
2.36611
2.30199
0.890834
2.16235
0.155064
0.352144
0.582424
1.20277
1.68082
2.17908
2.14512
1.80187
0.0020463
0.771324
0.00667101
0.538786
0.880019
1.54939
2.24735
2.93437
3.09872
2.7478
0.854567
0.19088
0.00472316
0.438971
0.364101
0.373646
0.34333
0.360373
0.360464
0.363765
0.403946
0.441282
0.580812
0.657646
0.547717
0.519967
0.481727
0.472673
0.48318
0.503821
0.593199
0.725815
0.993863
0.897633
0.722964
0.729627
0.673606
0.64689
0.643735
0.662392
0.739671
0.918088
1.37036
1.02238
0.812521
0.864753
0.78352
0.74377
0.722314
0.745164
0.775605
1.05833
1.76078
1.18087
0.945663
1.09249
1.01307
0.998273
0.958747
0.98261
0.880886
1.31632
2.11956
1.31086
1.14167
1.39147
1.36771
1.41488
1.35775
1.37803
1.0562
1.68417
2.31784
1.06484
0.952671
1.32779
1.38305
1.50076
1.40591
1.36448
0.737197
1.51573
1.87793
1.28403
1.35732
1.83619
2.07705
2.35009
2.30214
2.20771
1.28201
2.10498
1.96001
0.663469
0.864093
1.39849
1.73224
2.04451
1.92427
1.61798
0.295826
0.995091
0.941169
0.89849
1.22026
1.78801
2.29958
2.73188
2.72786
2.37524
1.09681
0.672495
1.30387
0.958654
0.859938
0.884385
0.834926
0.863921
0.86065
0.857812
0.907991
0.949116
1.07337
1.13751
1.02749
0.995
0.953183
0.951094
0.967731
0.98278
1.08914
1.19621
1.43968
1.39769
1.22654
1.23613
1.18286
1.16684
1.17674
1.19593
1.31039
1.4243
1.83879
1.43282
1.22947
1.2783
1.20156
1.17499
1.17196
1.20206
1.31404
1.46649
2.15843
1.54819
1.31652
1.44188
1.36298
1.35376
1.33621
1.36924
1.41365
1.64671
2.5182
1.66368
1.49298
1.69029
1.64819
1.67714
1.63491
1.66057
1.56526
1.92106
2.79207
1.31457
1.17812
1.4696
1.47454
1.53961
1.44977
1.42274
1.12934
1.5965
2.47468
1.58251
1.62602
1.99024
2.13332
2.29474
2.213
2.12988
1.60522
2.13263
2.75272
0.90274
1.04946
1.46535
1.66688
1.84409
1.69171
1.45693
0.658825
1.14616
1.95577
1.19736
1.46519
1.8971
2.23592
2.48264
2.39308
2.09946
1.29768
1.06345
2.07841
1.42461
1.329
1.3838
1.31931
1.36034
1.35488
1.34771
1.39378
1.42783
1.47458
1.49516
1.40374
1.38046
1.34307
1.34781
1.36332
1.36569
1.4705
1.52668
1.71968
1.77662
1.62589
1.64216
1.59881
1.59301
1.60845
1.62013
1.74536
1.77662
2.08703
1.70626
1.52216
1.56413
1.49706
1.48202
1.49076
1.51897
1.66949
1.7042
2.27274
1.76995
1.55841
1.65686
1.58372
1.57849
1.57565
1.60762
1.73766
1.81379
2.56351
1.87285
1.714
1.85505
1.80319
1.81884
1.79149
1.8163
1.86563
2.03113
2.83865
1.4349
1.28742
1.4937
1.46402
1.49374
1.42068
1.40597
1.33622
1.59153
2.54193
1.77362
1.78978
2.04067
2.11059
2.19666
2.11327
2.05444
1.80551
2.12251
2.92404
1.04526
1.12966
1.4261
1.5243
1.61011
1.46187
1.29897
0.870762
1.17641
2.17887
1.40264
1.60015
1.89638
2.09631
2.21764
2.09802
1.88309
1.41576
1.29997
2.24342
1.78742
1.65139
1.74451
1.66268
1.71351
1.70917
1.70511
1.74538
1.78148
1.78316
1.68651
1.60388
1.59559
1.5651
1.57337
1.58238
1.56948
1.65434
1.64071
1.81436
1.98315
1.85803
1.88417
1.85347
1.85533
1.87058
1.87198
1.98173
1.92226
2.15936
1.79957
1.64631
1.68388
1.62954
1.62346
1.63776
1.65845
1.80534
1.73277
2.19581
1.82949
1.6485
1.72221
1.6598
1.65834
1.66435
1.69009
1.84278
1.78784
2.39495
1.929
1.79191
1.88384
1.83162
1.83958
1.82551
1.8461
1.95624
1.97368
2.63268
1.42611
1.27945
1.41245
1.36497
1.37342
1.32124
1.31431
1.36025
1.45493
2.30195
1.84811
1.84429
1.99924
2.02294
2.06227
1.99368
1.95809
1.86797
2.02151
2.74927
1.0695
1.09669
1.29049
1.31869
1.34743
1.22286
1.11643
0.916714
1.08056
2.00551
1.48414
1.60983
1.79043
1.89128
1.93506
1.82045
1.67828
1.42267
1.37466
2.09756
1.96302
1.76567
1.90464
1.80415
1.85806
1.8524
1.84646
1.86593
1.90263
1.87715
1.66384
1.60332
1.61339
1.59179
1.60249
1.60427
1.57895
1.63955
1.57084
1.73696
1.994
1.90708
1.94439
1.92754
1.93479
1.94599
1.93565
2.01534
1.89669
2.07876
1.72532
1.60341
1.63886
1.59827
1.59845
1.61227
1.61989
1.73784
1.60306
1.98639
1.73265
1.59178
1.64699
1.59916
1.60172
1.61047
1.62378
1.75585
1.62444
2.113
1.83615
1.73091
1.78585
1.74122
1.74591
1.74033
1.75179
1.86447
1.7936
2.30873
1.28991
1.15853
1.23632
1.18586
1.18352
1.14901
1.14337
1.22933
1.22168
1.93065
1.80032
1.78922
1.87196
1.87239
1.88574
1.83593
1.81644
1.80236
1.84886
2.43263
0.962727
0.948018
1.06245
1.0499
1.04618
0.950818
0.88372
0.808566
0.883916
1.65487
1.42819
1.49438
1.58869
1.62706
1.62854
1.53596
1.45099
1.32066
1.31981
1.81328
1.9918
1.67058
1.86047
1.7462
1.79972
1.79755
1.79134
1.79028
1.83512
1.78301
1.46522
1.41974
1.44905
1.43488
1.44523
1.4395
1.40791
1.4526
1.34339
1.49039
1.85579
1.79958
1.84528
1.84012
1.84947
1.85417
1.83474
1.8911
1.73952
1.84036
1.5014
1.41822
1.45338
1.4257
1.42951
1.4379
1.43297
1.52636
1.36868
1.65028
1.51088
1.41554
1.45723
1.42425
1.42941
1.43547
1.43539
1.54172
1.38233
1.73428
1.62159
1.55366
1.58217
1.5485
1.55203
1.54901
1.5512
1.64958
1.54295
1.90526
1.05221
0.945664
0.984569
0.940161
0.933349
0.910085
0.903542
0.997293
0.938854
1.49847
1.64701
1.64119
1.6734
1.66556
1.66622
1.63226
1.62356
1.64293
1.63397
2.05606
0.7409
0.702202
0.75921
0.727507
0.708239
0.63991
0.599255
0.587944
0.618477
1.21765
1.2528
1.27959
1.31604
1.32022
1.30285
1.23527
1.19077
1.13342
1.1631
1.46435
1.72686
1.39367
1.62979
1.5108
1.55943
1.56593
1.55932
1.54164
1.59296
1.52866
1.14604
1.10053
1.14849
1.1409
1.14857
1.1367
1.10595
1.13818
0.976277
1.12902
1.59471
1.5707
1.62182
1.62638
1.63647
1.63695
1.61796
1.66101
1.47239
1.51318
1.19352
1.13504
1.16748
1.1498
1.15526
1.15818
1.15012
1.22914
1.0459
1.24736
1.21188
1.15897
1.18851
1.16807
1.17424
1.17574
1.17204
1.25971
1.07781
1.31321
1.32956
1.29556
1.30482
1.28172
1.28486
1.28092
1.28204
1.36546
1.2341
1.4709
0.759735
0.677775
0.688996
0.654445
0.646481
0.62866
0.625449
0.713759
0.622456
1.05578
1.42892
1.4341
1.4325
1.42464
1.42012
1.39627
1.39709
1.4267
1.38436
1.66196
0.449244
0.400107
0.418626
0.383015
0.35878
0.310304
0.28692
0.302344
0.301166
0.749256
1.00891
1.01348
1.01496
1.00475
0.981297
0.932089
0.913279
0.893059
0.927741
1.09713
1.43948
1.02844
1.29247
1.18153
1.22165
1.23942
1.22504
1.1883
1.2398
1.16806
0.743887
0.700657
0.764401
0.764984
0.77117
0.757994
0.733768
0.754133
0.546883
0.730469
1.27621
1.27602
1.32614
1.33681
1.3459
1.34457
1.333
1.3601
1.14458
1.16555
0.840153
0.80641
0.833431
0.822781
0.827835
0.827698
0.825842
0.885725
0.68947
0.857147
0.891649
0.874729
0.891964
0.880136
0.8846
0.881535
0.883443
0.944943
0.754792
0.927897
1.01379
1.00925
1.00524
0.990059
0.990677
0.983526
0.990784
1.04737
0.90572
1.07795
0.46883
0.411038
0.404027
0.379558
0.370077
0.352967
0.356553
0.421238
0.315538
0.671143
1.20129
1.22253
1.20211
1.19775
1.1905
1.17109
1.17955
1.19589
1.13634
1.31506
0.15471
0.110895
0.108183
0.0777431
0.0531771
0.0161985
0.00189017
0.0133349
0.00248223
0.326005
0.782712
0.781051
0.767314
0.755035
0.731257
0.694727
0.692214
0.678608
0.709412
0.797357
1.24679
0.705114
0.963849
0.873833
0.90418
0.93366
0.905163
0.85875
0.923344
0.819965
0.335815
0.303076
0.372478
0.380373
0.383813
0.37118
0.355416
0.36624
0.14094
0.324104
0.942275
0.976407
1.01843
1.03066
1.03551
1.0331
1.03143
1.044
0.837473
0.817238
0.51845
0.505472
0.522554
0.514287
0.515077
0.512525
0.518502
0.554743
0.387153
0.50562
0.614706
0.632762
0.639571
0.631701
0.63076
0.622653
0.62894
0.653461
0.494187
0.605158
0.744631
0.76862
0.757851
0.74715
0.742924
0.731353
0.74088
0.756562
0.639622
0.755336
0.253865
0.22606
0.210454
0.194458
0.183386
0.165047
0.169429
0.192801
0.102295
0.383533
1.03988
1.08635
1.06075
1.06105
1.05352
1.03546
1.04187
1.02497
0.97014
1.05905
4.94024e-05
0.000551907
5.30759e-05
0.000417995
0.000733336
0.00135598
0.00137451
0.00273684
0.00384984
0.0194548
0.685496
0.694194
0.680833
0.67547
0.659014
0.634501
0.634964
0.606399
0.638576
0.663531
0.861522
0.494397
0.705887
0.644852
0.664984
0.699016
0.651915
0.618758
0.715096
0.554529
0.02262
0.000916027
0.0565105
0.0709112
0.0697718
0.0564764
0.0471682
0.0488011
0.00361283
0.00304788
0.659561
0.73096
0.759618
0.770645
0.767803
0.760378
0.763315
0.761206
0.577596
0.499365
0.284168
0.294068
0.302189
0.296333
0.290957
0.281436
0.285276
0.290516
0.161907
0.211708
0.438682
0.487795
0.492152
0.489772
0.483478
0.466069
0.463062
0.440531
0.317963
0.353821
0.582176
0.628223
0.620582
0.617131
0.610005
0.590421
0.587262
0.552917
0.463138
0.509568
0.169492
0.178727
0.167738
0.163437
0.153773
0.130625
0.121238
0.0930276
0.0169224
0.203254
1.0024
1.07568
1.05899
1.06796
1.06315
1.04218
1.03328
0.975554
0.925082
0.904591
0.00233916
0.00010112
6.03105e-05
0.00032038
0.00047272
0.00104856
0.00129282
0.000466266
0.00332792
0.000303419
0.750246
0.774825
0.772737
0.780553
0.773816
0.755357
0.745228
0.701535
0.718846
0.687328
0.515705
0.297295
0.439
0.413949
0.427814
0.449377
0.37479
0.370823
0.489898
0.296323
0.0235992
0.00111176
0.00064637
3.07352e-05
6.37198e-05
0.000104249
0.000982398
0.00201628
0.000540956
0.00053808
0.42862
0.523669
0.54557
0.561191
0.5527
0.533249
0.520031
0.475849
0.316148
0.199796
0.106708
0.133986
0.146244
0.151396
0.143298
0.122509
0.105308
0.0523556
0.000102822
0.000305848
0.307616
0.368632
0.385078
0.395307
0.388727
0.361735
0.335031
0.250576
0.150383
0.138963
0.44284
0.496211
0.505868
0.515662
0.51081
0.484759
0.458867
0.368418
0.288641
0.291885
0.130135
0.165282
0.173383
0.183707
0.179194
0.152861
0.124038
0.0428349
0.000327848
0.0678182
0.983986
1.06305
1.06551
1.08341
1.0835
1.06182
1.03706
0.943482
0.888251
0.777908
0.000319318
9.35328e-05
0.000582859
0.00074365
0.0012372
0.00123169
0.00112013
0.0016923
0.00114478
3.08468e-05
0.749942
0.78243
0.790524
0.80443
0.803728
0.790531
0.774225
0.725625
0.714314
0.647444
0.423291
0.0991652
0.0810001
0.0553549
0.0230156
0.00896207
0.0245239
0.0146616
0.0204443
0.000585498
0.0397148
0.00621945
0.00596751
0.00592113
0.00424884
0.00302907
0.00306326
0.00235192
0.00072704
0.00118923
0.116035
0.187866
0.216774
0.245757
0.243443
0.218182
0.179616
0.0830094
0.00121423
0.00227206
0.00356109
0.00157944
0.000699854
0.000657637
0.000294545
0.000252453
0.000503882
1.65404e-05
0.00161672
0.00196599
0.00556669
0.0467074
0.0779903
0.100909
0.101813
0.0813966
0.0456419
0.000187799
0.0016181
0.00157344
0.0825572
0.120363
0.145914
0.165693
0.167764
0.151028
0.121915
0.0175552
0.00172573
0.00112973
0.0010324
0.000297692
0.000479944
0.000248355
0.000897116
0.000910076
8.7338e-05
0.000411193
0.00170746
0.000899628
0.621977
0.679166
0.693987
0.71266
0.717174
0.706487
0.686483
0.600981
0.563912
0.431598
0.00363585
6.56479e-05
0.00057188
0.000376062
0.00120421
0.000998151
0.000717685
0.00104238
0.00177295
0.000209353
0.367291
0.394493
0.398608
0.408155
0.409479
0.403823
0.396749
0.360656
0.350588
0.272513
3.95166
0.0583386
0.0762757
0.0782355
0.081036
0.0675433
0.015451
0.0842167
0.0562131
0.00445447
0.0902702
0.0234113
0.0170314
0.0121244
0.00897115
0.00549045
0.00221085
0.000181247
0.00362558
0.00465456
0.00393012
0.00162972
0.00164987
0.00081684
0.000399202
0.000325759
0.000223991
0.00113619
7.83604e-05
0.00129895
0.0141165
0.00146314
0.000124169
6.15891e-05
0.000677434
0.000259225
2.31458e-05
0.000965601
0.000750271
0.000267395
0.00600306
0.000830565
5.77149e-05
9.20025e-05
0.000648766
0.000165566
1.64433e-05
0.00110459
0.000599121
0.000360596
0.00115536
0.000860751
5.5507e-05
0.00013556
0.000569736
0.000108945
2.06377e-05
0.00103793
0.00043823
0.00015523
0.00213768
0.000373244
2.88202e-05
0.00017301
0.000705399
0.000212914
2.32556e-06
0.000948262
0.000445071
0.00029133
0.00775102
0.033569
0.0359734
0.0377883
0.0390336
0.0419692
0.0470633
0.0347425
0.0521698
4.20962e-05
0.00123922
4.5437e-05
4.93657e-05
0.000402613
0.00026384
1.51887e-05
0.000375395
0.000300502
0.000269387
0.00016312
0.0819865
0.0905398
0.0880232
0.0881559
0.0881634
0.0891408
0.0932587
0.0868619
0.101185
0.0546972
0.911566
0.0864409
0.0701945
0.057037
0.0486139
0.0433533
0.041404
0.0459267
0.0303774
0.0527815
0.00767205
0.00523913
0.00441972
0.00255283
0.00112829
0.000383707
0.000436857
0.00157965
0.00238941
0.00368305
0.0122353
0.000288947
0.000958805
0.000588207
0.000507856
0.000735405
0.000780978
0.000938093
0.000917244
0.0002281
0.00635334
0.000604182
0.00105936
0.000564554
0.000484194
0.000594439
0.000419626
0.000655185
0.000563379
0.000119195
0.00334193
0.00045807
0.000990027
0.000584684
0.000633257
0.00076475
0.000430215
0.000797111
0.000652299
1.35319e-05
0.000826809
0.000636406
0.00106913
0.000661476
0.000697588
0.000833858
0.000464137
0.000890902
0.000702063
0.000109245
0.00162786
0.00090238
0.00114416
0.000669207
0.000729334
0.000936183
0.000605147
0.000925419
0.000725047
0.000159522
0.00415291
0.000790095
0.00121562
0.000676357
0.000873585
0.00108744
0.000555186
0.000959979
0.000928844
0.0097136
0.00265177
0.000953824
0.00103764
0.000871087
0.0009272
0.000857493
0.000741677
0.00120221
0.000583454
0.000482929
0.218107
0.210001
0.208294
0.207532
0.206264
0.203543
0.201467
0.198025
0.20123
0.195694
684.609
304.731
565.94
1050.82
526.649
224.837
493.154
930.926
328.74
135.298
319.376
654.385
124.298
49.3338
132.733
316.67
43.4446
13.9709
24.0877
6.25104
171.119
58.0065
151.54
296.495
256.256
85.6452
247.005
530.791
301.8
102.211
314.416
702.255
314.234
114.256
367.679
826.493
305.116
142.066
420.298
891.508
63.5366
0.0356095
0.0383115
0.0513437
79.0422
0.0148278
0.0166666
0.0206617
67.4487
0.0340125
0.0273931
0.00425433
30.6208
0.0403689
0.0365029
0.00492917
17.1311
0.0323218
0.0389397
0.0140964
66.6302
0.00891966
0.0303475
0.0324255
108.86
0.00672563
0.0277332
0.0500739
138.728
0.00519506
0.0258678
0.0429607
150.318
0.00913846
0.00466005
0.0251637
144.722
0.0159739
0.0280036
0.0383637
31.368
15.2638
10.3138
12.813
28.8366
13.0535
6.37455
9.60347
26.6348
11.74
6.43474
10.0828
10.6563
4.58589
3.1557
5.07852
15.292
5.80188
4.25208
5.85641
47.1556
17.5113
15.6884
22.1152
78.8409
28.3508
29.1142
40.8966
105.922
37.9479
43.5021
60.3417
123.275
43.7102
55.8826
75.848
132.204
51.7773
70.0057
90.0093
3.4755
0.591416
0.00494087
0.0052212
4.1122
1.1329
0.0125009
0.0333781
3.80475
1.13055
0.00439834
0.0620213
0.359954
0.001101
0.0359228
0.050313
8.93747
2.24156
0.0615628
0.219508
21.5052
5.04629
0.0653117
1.75558
35.7126
7.29374
0.722107
4.47133
49.263
8.97482
2.92241
8.88617
55.684
6.63687
3.71202
11.2539
54.7093
4.38683
11.589
19.0665
0.838268
0.372622
0.0172649
0.0511452
0.6374
0.275966
0.111314
0.0129696
0.158275
0.0798606
0.0574304
0.0717292
2.52541
1.13927
0.419369
0.274808
6.78178
2.95229
0.960277
0.735936
13.0177
5.31794
1.68865
1.58527
20.3694
7.50585
2.3892
2.60443
28.2696
9.55221
3.78312
4.58948
32.3843
8.71686
4.0886
5.37391
34.3846
8.40607
11.3313
12.3017
0.0911394
0.0527136
0.0261064
0.0122218
0.5492
0.305212
0.197558
0.0490046
1.31171
0.734165
0.418705
0.074729
2.80681
1.51557
0.751939
0.173065
5.0583
2.61446
1.14186
0.374733
8.05413
3.93461
1.54279
0.738603
11.3711
5.10145
1.74396
1.02883
15.3282
6.39885
2.35561
1.99337
17.3201
5.74192
2.03248
2.14812
18.1355
5.17758
6.47999
6.74754
0.609507
0.423821
0.308215
0.216865
1.07345
0.755482
0.654678
0.441702
1.80892
1.19849
0.907173
0.487584
2.90403
1.81236
1.18615
0.512381
4.31982
2.56894
1.48144
0.576129
5.97796
3.4127
1.78266
0.749849
7.54382
4.08569
1.88544
0.773909
9.6126
4.95701
2.26346
1.31862
10.4595
4.42846
1.73038
1.19763
10.376
4.17617
4.5876
4.47342
0.993259
0.81901
0.736538
0.666438
1.2879
1.12609
1.12462
0.959724
1.93173
1.52789
1.37849
1.06377
2.68549
1.92578
1.52725
1.00373
3.59052
2.36967
1.6459
0.923582
4.57197
2.84466
1.76506
0.90763
5.29121
3.13414
1.70382
0.715246
6.42611
3.6626
1.90615
1.02704
6.60174
3.22041
1.38045
0.772023
6.1838
3.31607
3.37976
3.18475
1.11155
1.12919
1.12877
1.11991
1.43492
1.42272
1.49701
1.37163
1.98321
1.78492
1.73235
1.47882
2.45187
2.02523
1.79422
1.36301
3.0005
2.2624
1.80936
1.22051
3.59138
2.49509
1.80422
1.10824
3.85605
2.52497
1.61876
0.804785
4.5318
2.84822
1.74034
1.03277
4.36883
2.48592
1.29137
0.67498
3.97054
2.69659
2.66559
2.44748
1.27377
1.36415
1.443
1.49544
1.49543
1.54948
1.65453
1.53815
1.98297
1.84707
1.82574
1.58945
2.25015
1.97283
1.81583
1.41437
2.56031
2.08805
1.77569
1.23898
2.90267
2.19384
1.72587
1.11389
2.89521
2.08894
1.49557
0.782158
3.35352
2.32515
1.60992
0.987044
3.03665
1.99759
1.20666
0.572899
2.74093
2.23253
2.17981
1.95052
1.22556
1.42197
1.57051
1.67379
1.39469
1.51887
1.64645
1.55792
1.80946
1.73719
1.7637
1.61582
1.92597
1.75323
1.68022
1.4044
2.10093
1.78495
1.59771
1.22223
2.3134
1.83228
1.53525
1.11244
2.17298
1.67515
1.29442
0.762276
2.55464
1.88427
1.41359
0.950932
2.16025
1.56353
1.02432
0.508172
2.0304
1.84087
1.76557
1.57993
0.999759
1.34366
1.54455
1.68447
1.20327
1.40192
1.53697
1.47872
1.50572
1.55353
1.62754
1.57461
1.49625
1.49382
1.50855
1.36908
1.57211
1.46732
1.40717
1.21226
1.71997
1.4842
1.34591
1.12698
1.52098
1.29745
1.10018
0.77113
1.88381
1.4962
1.22755
0.976437
1.43926
1.15647
0.82289
0.483162
1.51081
1.43596
1.37794
1.25719
0.770958
1.17307
1.39259
1.53712
0.995136
1.19286
1.29693
1.23558
1.21535
1.30151
1.37673
1.35351
1.11381
1.20765
1.25222
1.15316
1.1163
1.16195
1.16607
1.03442
1.21521
1.16889
1.12275
0.97529
0.970899
0.972901
0.896872
0.649703
1.32878
1.1812
1.05324
0.893448
0.814662
0.783115
0.611172
0.343112
1.06154
1.07127
1.0537
0.94431
0.48639
0.909334
1.11628
1.22398
0.736081
0.899353
0.963704
0.895175
0.886846
0.970965
1.04291
1.04386
0.734753
0.859622
0.919188
0.843912
0.70552
0.815109
0.85769
0.762575
0.77302
0.822949
0.834681
0.72839
0.508547
0.641374
0.642897
0.444518
0.878818
0.866428
0.825439
0.710553
0.276564
0.418822
0.362407
0.133761
0.7212
0.75561
0.748212
0.65642
0.213652
0.634988
0.808652
0.85397
0.422469
0.595424
0.642393
0.58688
0.503438
0.645504
0.734521
0.775777
0.32192
0.530276
0.623882
0.594268
0.279856
0.488257
0.581721
0.547972
0.330808
0.499256
0.575686
0.54152
0.0780646
0.33768
0.413026
0.294917
0.468186
0.574571
0.611076
0.5812
0.00128468
0.112414
0.135922
0.00387543
0.562749
0.568154
0.564882
0.514441
0.105426
0.449149
0.557671
0.531972
0.106916
0.315465
0.367593
0.33004
0.167407
0.367858
0.47217
0.531302
0.00596845
0.257158
0.377506
0.366182
0.00594273
0.227585
0.358063
0.353151
0.00627721
0.246524
0.368256
0.36725
0.00472221
0.115169
0.240701
0.164083
0.160125
0.37026
0.456852
0.471732
0.00223416
0.00191034
0.000839465
0.00985868
0.550432
0.525694
0.548238
0.522143
0.212542
0.349091
0.348477
0.263381
0.00884348
0.0389721
0.129376
0.110194
0.00871023
0.0889107
0.211694
0.264714
0.00817089
0.00266958
0.130269
0.115386
0.00586918
0.00251866
0.128343
0.120056
0.00487151
0.019388
0.154547
0.145803
0.00328047
0.00245607
0.0737537
0.00128647
0.0199762
0.223214
0.311311
0.319212
0.00451532
0.00351136
0.005534
0.0014796
0.498677
0.43733
0.475069
0.458235
0.179383
0.171078
0.100242
0.0158541
0.00774473
0.00431043
0.0054801
0.00716907
0.00111705
0.00170503
0.00239182
0.0029539
0.000647334
0.00164616
0.00260285
0.00370674
0.000669756
0.00134036
0.00237256
0.00388588
0.000279437
0.000932633
0.00203141
0.00423107
0.000897889
0.000672897
0.00167316
0.00462429
0.0127818
0.0868726
0.124245
0.129148
0.00368431
0.00320727
0.00267876
0.00549037
0.164434
0.0737209
0.0976378
0.0986199
0.0343035
0.00824449
0.00821619
0.0102398
0.00402696
0.00274581
0.00386397
0.00619706
0.00147497
0.000936291
0.000811437
0.000194185
0.000692998
0.000735001
0.000570849
0.000489773
0.00051548
0.000956514
0.000991738
0.000224397
0.000224282
0.00107281
0.00129716
8.31045e-05
1.92578e-06
0.000928159
0.00152536
2.48377e-05
0.000352187
0.00143736
0.00209453
4.15633e-05
0.00282981
0.000575832
0.000535814
0.0022235
0.00231108
0.00597207
0.0053943
0.000308417
0.173823
0.196626
0.185355
0.121504
0.000477138
0.0014982
0.0017977
0.00242039
0.00145888
1.70891e-05
0.000119911
0.000474213
0.00130702
0.000243572
0.000158777
0.000192868
0.00150049
0.000283964
0.000180305
0.000352727
0.00139406
0.000320213
0.000254211
0.000438315
0.00177812
0.000443758
0.000365968
0.000570729
0.00169648
0.000331464
0.000163108
0.00104401
0.000239969
0.000837702
0.000249165
0.000860611
0.206677
0.212638
0.213786
0.194177
0.000184052
79.3943
6.25617
2.35142
0.0379123
0.0311095
0.0186598
0.0217793
0.069819
0.11946
0.00758951
38.5906
1.99165
0.0303374
0.0325332
0.0241503
0.00643235
0.0113486
0.0909961
0.00962186
0.012535
26.4418
0.0279783
0.0357738
0.0421975
0.044821
0.0299823
0.0229406
0.105438
0.0323291
0.0216758
13.6545
0.0345515
0.0390611
0.0451691
0.0603765
0.0544296
0.0333523
0.094442
0.0463958
0.0242663
3.41675
0.0358247
0.0378874
0.04094
0.0607646
0.0619165
0.0359696
0.0724793
0.0290933
0.0208745
3.72389
0.0310248
0.0328065
0.0330359
0.0497301
0.053601
0.0305374
0.0462813
0.0154552
0.0183812
7.37457
0.024415
0.027638
0.0290623
0.0399231
0.0416269
0.0272016
0.0364534
0.00121299
0.857664
8.72722
0.0159232
0.0195603
0.0254094
0.0300888
0.0274527
0.0227944
0.0307076
0.0141612
0.00409882
6.41056
0.00652445
0.010275
0.0188978
0.0200013
0.0163237
0.0189658
0.0250693
0.0150945
0.000430729
5.34663
0.00126212
0.00609859
0.0123152
0.0105536
0.00792076
0.0126633
0.0157664
0.0148178
0.0465841
0.0556099
0.0467885
0.0372232
0.025578
0.017033
0.0299351
0.0804809
0.140324
0.124241
0.0254019
0.026314
0.0251124
0.0208797
0.010208
0.00158038
0.013949
0.0760738
0.0820996
0.0185573
0.0162665
0.0147316
0.016103
0.00727074
0.00372046
0.0218754
0.0176747
0.0481878
0.0374987
0.0729268
0.00720796
0.015707
0.0164568
0.00517621
0.00239836
0.0135766
0.0251125
0.0324881
0.0281258
0.0698572
0.00524812
0.0201689
0.0184434
0.00453012
0.00797415
0.00215203
0.0226923
0.0215083
0.0235125
0.0158408
0.00343556
0.0257861
0.0215974
0.00642035
0.0118058
0.00765611
0.0140024
0.0145299
0.0222858
0.00378894
0.00536471
0.0279752
0.0244052
0.0123657
0.0156883
0.0131417
0.00254866
0.0155722
0.0146456
0.0104922
0.0116541
0.0213156
0.0183651
0.0137701
0.0137211
0.0102281
0.00391508
0.0158196
0.00608189
0.0102209
0.00234768
0.0136314
0.0105287
0.0114903
0.011623
0.00793614
0.00903061
0.0164002
0.00137222
0.00176557
0.00390596
0.00973055
0.00857039
0.0117142
0.00718053
0.00407654
0.0120224
0.00995461
0.000352468
0.00422357
5.08309
3.93662
1.29232
0.0545243
0.0566583
0.0676124
0.0933614
0.0997917
0.0380891
0.155236
3.78998
2.88032
0.200269
0.00115997
0.00473775
0.0081225
0.0464607
0.057253
0.127257
0.0771065
3.13345
2.03743
0.0216812
0.0310381
0.037874
0.0283003
0.0121615
0.0289966
0.119854
0.0376853
1.59107
1.00334
0.0453042
0.0577928
0.0639616
0.0580332
0.0224328
0.000354897
0.0870079
0.0444018
1.33761
0.625624
0.0610982
0.0754532
0.0782513
0.0727909
0.0449122
0.0248468
0.0743334
0.0585651
5.12648
2.63003
0.0598838
0.0736503
0.0725486
0.0651682
0.0442752
0.0292343
0.0563423
0.0488336
8.55076
4.26472
0.0579902
0.0707218
0.0694666
0.0629067
0.0490908
0.0422218
0.0542451
0.0292875
12.0934
6.12257
0.054372
0.0632231
0.0627183
0.0572496
0.0480375
0.0482239
0.0502575
0.00913063
12.1479
5.24126
0.0339818
0.0434924
0.0461974
0.0436555
0.038792
0.044256
0.0422679
2.73002e-05
17.2236
6.76446
1.57252
0.0237525
0.0274451
0.0270856
0.0230104
0.0316247
0.0252059
0.0132761
0.0132491
0.00534339
0.00265624
0.00278095
0.00857962
0.0194463
0.0207374
0.0151678
0.0662849
0.249451
0.00971769
0.0202165
0.0197356
0.0189416
0.0237515
0.0353346
0.0250206
0.0587546
0.0598599
0.0879304
0.00126716
0.0147984
0.0114387
0.0124391
0.0204958
0.0378942
0.0321089
0.0658379
0.0604812
0.0451231
0.00127585
0.00757601
0.000377792
0.00142885
0.00989008
0.0266071
0.0255162
0.054948
0.0551857
0.0150008
0.0876402
0.227476
0.00979683
0.00768024
0.00300321
0.0180334
0.0180359
0.0382532
0.0304207
0.000156345
0.911612
0.763004
0.116439
0.0366539
0.00025962
0.0125255
0.0117561
0.0244165
0.011977
0.00323643
1.81824
1.0574
0.0952931
0.0171359
0.00586959
0.00355883
0.000414478
0.0222555
0.000294759
0.00614556
3.47536
1.95818
0.681368
0.0771218
0.0031514
0.00271162
0.00251019
0.0170123
0.00906742
0.00882795
2.92067
1.45971