/*--------------------------------*- C++ -*----------------------------------*\
| =========                 |                                                 |
| \\      /  F ield         | foam-extend: Open Source CFD                    |
|  \\    /   O peration     | Version:     4.0                                |
|   \\  /    A nd           | Web:         http://www.foam-extend.org         |
|    \\/     M anipulation  |                                                 |
\*---------------------------------------------------------------------------*/
FoamFile
{
    version     2.0;
    format      ascii;
    class       volScalarField;
    location    "50";
    object      epsilon;
}
// * * * * * * * * * * * * * * * * * * * * * * * * * * * * * * * * * * * * * //

dimensions      [0 2 -3 0 0 0 0];

internalField   nonuniform List<scalar> 
34480
(
5215.13
5026.81
4835.46
4742.16
4780.46
5016.91
5545.93
6449.3
7594.73
8378.69
2365.91
1960.45
1687.01
1814.03
2856.28
7403.01
27353
110349
399892
1.08631e+06
1768.77
1592.38
1537.98
1845.38
3045.62
7769.27
28745.3
120835
467984
1.38425e+06
1696.14
1581.12
1598.09
1982.35
3294.77
8334.66
30924.6
133404
540786
1.70363e+06
1677.45
1582.7
1626.31
2040.33
3421.32
8767.04
32995.7
145317
609528
2.01618e+06
1623.34
1526.74
1571.11
1983.29
3395.19
9014.04
34898.9
157066
677654
2.33229e+06
1463.62
1366.98
1411.51
1806.89
3200.85
8910.48
35663.1
164060
726383
2.58698e+06
1166.63
1067.77
1096.49
1420.52
2633.41
7850.63
32940.9
155737
707976
2.59991e+06
936.807
865.008
881.965
1060.27
1786.18
5136.55
21852.9
105798
494432
1.86089e+06
5032.99
5005.49
5001.05
5008.96
5024.19
5058.42
5169.6
5530.99
6525.18
7831.28
5135.49
4954.23
4750.46
4634.44
4633.2
4801.61
5228.61
6048.04
7289.16
8326.11
2142.78
1737.28
1378.14
1260.23
1425.05
2180.04
5119.19
18631
90001.3
413293
1446.51
1253.16
1104.8
1145.95
1441.7
2288.65
5193.81
18948.8
106659
562945
1340.83
1198.65
1115.46
1220.66
1586.02
2526.07
5525.56
19908.9
125985
729949
1306.87
1184.94
1129.96
1261.23
1656.34
2656.11
5757.78
20606.3
143332
887714
1264.76
1144.33
1094.44
1224.36
1613.42
2618.6
5746.35
20880.6
159471
1.03851e+06
1147.6
1030.36
987.54
1109.26
1470.35
2419.27
5413.45
20258.1
170644
1.16073e+06
934.771
822.428
783.934
874.489
1142.7
1865.17
4239.62
16989.3
164129
1.18178e+06
834.277
753.72
737.065
778.735
886.321
1168.63
2206.19
9423.71
111667
890154
4917.27
4887.52
4877.65
4878.37
4882.53
4891.41
4932.26
5108.73
5859.76
7487.95
5017.97
4831.61
4635.53
4526.24
4526.08
4678.93
5066.43
5830.25
7052.27
8050.48
1887
1503.15
1153.82
1010.2
1070.86
1469.66
2884.6
8020.08
25572.7
71815.7
1167.99
983.724
822.368
800.022
930.342
1322.74
2583.17
7534.35
29539.4
108781
1049.2
906.328
800.156
827.104
999.811
1425.16
2684.38
7868.51
36362.5
164087
1006.66
882.689
804.209
855.235
1049.32
1502.42
2793.28
8217.19
43469.1
228027
971.367
852.127
782.799
837.5
1029.5
1482.1
2779.85
8402.64
50681.5
298515
888.414
775.548
718.215
773.716
953.161
1377.59
2620.17
8247.89
56681
366911
744.791
641.235
598.204
643.704
777.996
1095.44
2073.96
6995.68
56282.3
401785
742.482
669.642
654.84
682.821
745.464
879.431
1325.25
4148.83
38499.8
311215
4819.92
4792.26
4781.52
4779.48
4779.7
4783.33
4814.72
4964.2
5582.03
7026.82
4893.08
4702.61
4515.5
4413.81
4413.81
4549.36
4894.58
5591.99
6768.8
7821.83
1679.6
1316.13
986.96
843.927
871.372
1149.83
2093.97
5055.82
12346.5
22921
957.572
785.302
627.122
580.403
645.359
883.476
1631.65
4148.56
11881.3
28861.4
832.202
692.818
580.888
571.176
660.869
904.96
1618.63
4136.29
13748.6
43140.1
783.686
660.258
574.313
585.553
690.352
947.185
1664.32
4241.18
15985.8
61757.6
750.041
633.144
559.484
577.812
683.794
940.377
1658.89
4300.27
18313.3
83783.5
690.351
582.38
523.902
548.527
651.129
894.487
1587.89
4218.88
20246
106534
599.251
504.232
464.523
490.052
571.096
757.455
1313.57
3609.93
19862.4
119614
667.004
600.939
588.235
608.687
652.326
739.033
1004.44
2298.32
13404.8
93317.6
4712.44
4687.19
4676.67
4673.21
4671.28
4671.68
4694.25
4821.66
5343.48
6690.37
4760.52
4567.68
4390.15
4296.66
4296.4
4415.47
4720.78
5350.49
6460.31
7508.75
1520.94
1174.29
865.574
730.214
743.458
958.626
1681.04
3831.54
8492.19
13000.1
805.266
643.882
493.986
438.355
470.251
628.669
1135.19
2729.98
6704.61
12055
675.612
541.705
431.541
403.524
447.535
595.202
1040.98
2523.53
6991.59
15818.1
622.381
502.011
415.935
405.175
457.907
605.257
1028.75
2467.86
7605.89
21441.2
587.699
475.116
403.258
400.969
455.543
599.708
1009.98
2427.93
8289.03
28440.1
542.905
441.154
385.949
392.54
448.315
585.82
976.727
2350.13
8828.36
35970.3
489.108
403.019
367.988
381.205
428.998
537.243
852.528
2032.37
8447.52
40566.2
604.011
544.359
533.274
547.918
577.61
632.366
786.317
1436.75
5720.5
32209.3
4601.07
4578.51
4568.72
4564.53
4561.28
4559.44
4573.78
4673.38
5105.68
6349.29
4619.93
4426.78
4259.49
4174.46
4173.78
4277.59
4546.68
5114.68
6155.95
7190.33
1404.31
1069.39
777.996
651.861
659.109
837.781
1440.1
3213.19
6967.14
10210.4
698.721
545.699
405.355
348.838
364.967
480.42
860.094
2034.86
4750.25
7542.43
565.501
437.965
333.946
299.301
319.862
415.147
719.894
1729.51
4464.2
8406.94
507.843
393.243
312.261
291.951
316.37
402.706
668.037
1583.31
4477.77
10208.1
470.829
365.598
299.944
288.196
313.811
393.472
634.259
1484.69
4566.17
12570.8
434.918
341.89
292.844
290.319
318.588
393.565
614.123
1400.9
4622.66
15198.4
406.141
329.876
300.123
306.329
333.674
394.414
570.167
1225.36
4292.76
16816.4
551.029
497.448
487.618
498.076
518.04
551.879
639.002
987.235
2960.88
13564.2
4485.73
4465.99
4457.36
4453.01
4449.23
4446.24
4454.56
4527.12
4868.93
5960.33
4471.25
4280.17
4123.86
4047.24
4046.04
4135.44
4370.95
4882.65
5856.53
6881.01
1317.11
989.985
712.341
594.564
598.857
753.946
1283.42
2850.03
6181.35
9040.15
624.835
477.525
346.005
291.964
300.876
391.981
699.516
1655.26
3839.16
5902.05
489.064
367.58
271.453
236.558
246.152
312.956
539.633
1305.83
3330.04
5836.98
427.135
319.712
246.609
224.339
234.995
288.345
467.112
1113.08
3094.36
6350.82
387.348
291.404
234.28
220.133
231.22
275.911
423.97
983.252
2939.65
7112.19
356.342
273.585
232.046
226.208
239.82
280.098
406.767
893.411
2809.29
8019.83
343.684
277.315
252.776
255.456
270.962
304.293
401.682
787.707
2522.61
8554.95
505.999
458.04
449.145
456.617
469.912
490.342
538.583
732.882
1798.41
7032.11
4366.2
4349.18
4341.94
4337.85
4334.1
4330.77
4335.2
4385.88
4646.67
5572.61
4315.19
4128.75
3984.11
3915.77
3913.95
3989.57
4193.37
4651.61
5562.77
6576.66
1248.39
926.511
659.781
548.918
551.159
688.781
1168.87
2608.82
5700.86
8397.23
572.888
429.031
304.849
254.16
259.573
335.47
598.317
1428.05
3345.17
5151.93
435.834
319.368
231.07
198.589
203.323
253.874
434.525
1064.37
2750.5
4762.27
369.937
269.782
205.165
184.501
189.068
224.558
354.244
850.525
2403.21
4788.56
327.551
241.263
192.972
179.844
184.374
210.632
307.691
706.605
2138.37
4927.81
299.126
226.703
192.546
186.37
192.787
214.651
290.378
613.469
1926.42
5162.2
296.588
239.256
219.301
220.355
229.243
247.392
302.016
542.643
1667.94
5265.88
466.95
424.141
416.053
421.404
430.208
442.26
468.495
581.216
1239.22
4425.92
4242.26
4227.64
4221.85
4218.26
4214.89
4211.72
4213.87
4248.6
4444.43
5226.51
4153.19
3973.91
3841.41
3781.13
3778.69
3841.32
4015.3
4423.34
5275.26
6273.61
1189.49
871.798
614.399
509.347
509.637
632.707
1075.04
2427.17
5360.77
7963.58
534.951
392.946
274.688
227.24
230.615
295.732
528.032
1278.64
3043.86
4741.4
397.998
285.421
204.087
174.714
177.223
217.543
368.742
916.294
2423.03
4242.09
328.673
235.172
178.408
160.488
162.506
187.807
287.935
695.275
2023.22
4066.52
284.305
206.971
166.608
155.619
157.43
173.886
241.932
547.303
1704.68
3936.18
257.275
194.215
166.47
161.099
164.164
176.432
224.334
453.989
1453.51
3873.72
260.931
211.263
195.024
195.352
200.56
210.462
242.1
401.531
1212.79
3780.47
432.12
394.013
386.878
390.735
396.561
403.495
417.559
485.828
936.871
3229.25
4113.66
4101.02
4096.48
4093.53
4090.7
4087.96
4088.87
4112.49
4259.22
4928.6
3987.19
3817.25
3696.96
3644.36
3641.37
3692.16
3838.78
4200.57
4996.48
5972.9
1134.01
820.737
572.439
472.728
471.02
580.961
990.871
2272.86
5084.53
7622.52
505.392
364.386
251.128
206.613
208.505
265.084
474.206
1169.85
2839.39
4486.31
370.028
260.497
185.166
158.798
160.13
193.215
323.676
817.219
2220.74
3964.06
298.088
210.445
160.465
145.313
146.257
165.206
246.028
596.352
1795.15
3697.93
252.621
183.066
149.301
140.485
141.235
152.223
202.742
449.894
1448.72
3436.35
226.462
171.358
148.811
144.486
146.025
153.249
185.443
358.841
1177.46
3224.24
233.707
190.245
176.887
176.875
180.015
185.479
204.689
317.043
948.673
3023.84
400.156
366.441
360.464
363.273
367.155
371.052
378.503
421.816
754.604
2589.6
3980.11
3968.98
3965.39
3963.08
3960.85
3958.65
3958.92
3974.92
4085.42
4668.13
3819.34
3660.25
3551.78
3506.24
3502.86
3543.25
3665.66
3985.87
4729.56
5678.56
1077.37
769.731
531.533
437.342
433.746
531.266
910.422
2127.67
4830.71
7319.13
480.18
340.105
231.564
189.802
190.473
239.743
429.416
1081.68
2682.74
4307.54
348.063
241.194
171.159
147.497
148.066
175.52
289.915
743.879
2081.6
3802.19
274.586
192.13
147.898
135.161
135.605
150.205
217.249
527.293
1643.39
3491.45
229.016
166.026
137.57
130.584
130.934
138.65
177.738
385.531
1282.24
3156.28
203.543
155.004
136.546
133.159
134.004
138.502
161.332
298.431
1000.87
2855.93
212.566
174.088
162.945
162.752
164.708
167.802
180.142
263.703
781.553
2585.62
370.386
340.677
335.92
337.985
340.607
342.768
346.699
375.525
633.193
2189.18
3841.32
3831.24
3828.3
3826.59
3824.93
3823.25
3823.2
3834.08
3918.32
4433.68
3651.48
3503.98
3406.44
3367.19
3363.6
3395.28
3496.97
3780.7
4476.55
5394.55
1016.04
716.271
490.171
402.22
397.182
482.688
830.244
1979.38
4575.05
7030.07
456.375
317.922
214.457
175.505
175.163
217.871
389.734
1002.6
2545.74
4164.86
329.343
225.273
160.223
139.02
139.025
161.814
262.626
683.28
1970.79
3695.36
255.624
177.985
138.723
128.001
128.167
139.561
195.922
473.922
1527.44
3358.74
210.96
153.575
129.392
123.836
124.028
129.642
160.671
339.07
1159.98
2975.55
186.174
143.107
127.87
125.224
125.741
128.712
145.585
257.195
875.263
2614.71
195.703
161.379
151.977
151.668
152.929
154.776
163.195
227.902
665.581
2292.83
342.231
316.329
312.589
314.1
315.896
317.106
319.226
339.337
544.8
1898.64
3697.04
3687.63
3685.21
3684.01
3682.84
3681.6
3681.41
3688.89
3754.48
4217.6
3484.67
3348.79
3261.05
3227.22
3223.57
3248.23
3332.73
3585.02
4237.12
5121.25
947.483
658.673
447.448
366.821
360.839
434.506
748.074
1820.77
4302.41
6738.99
431.822
296.349
198.896
163.042
161.914
198.514
352.971
925.228
2410.24
4034.7
311.803
211.209
151.276
132.424
132.007
150.779
239.187
627.376
1865.7
3607.46
239.29
166.538
131.8
122.768
122.749
131.664
179.111
428.135
1422.4
3250.06
196.524
144.231
123.593
119.123
119.232
123.418
148.349
302.28
1056.05
2830.91
172.577
134.331
121.692
119.592
119.936
122.02
134.851
226.828
774.356
2424.4
181.773
151.204
143.233
142.83
143.663
144.87
150.969
202.342
576.824
2064.38
315.359
293.014
290.03
291.088
292.316
293.027
294.272
308.935
475.124
1659.04
3547.1
3538.33
3536.34
3535.54
3534.75
3533.86
3533.63
3538.88
3591.37
4013.57
3318.82
3194.1
3115.16
3085.97
3082.42
3101.55
3171.89
3396.58
4006.71
4854.89
869.965
595.957
402.952
330.987
324.661
386.648
663.041
1646.7
4000.1
6433.95
404.955
274.363
184.345
152.073
150.419
181.218
317.668
844.156
2262.18
3902.21
293.787
197.925
143.687
127.218
126.519
141.738
218.041
570.53
1749.03
3512.12
224.076
156.832
126.494
118.916
118.764
125.704
165.226
384.906
1310.96
3130.86
184.222
137.032
119.498
115.84
115.881
119.06
139.091
270.469
953.995
2681.97
161.423
127.804
117.339
115.615
115.84
117.395
127.321
202.768
682.804
2241.01
169.849
143.003
136.257
135.757
136.302
137.192
141.869
183.031
501.975
1857.29
289.246
270.479
267.98
268.627
269.436
269.896
270.775
281.877
416.189
1440.19
3391.72
3383.66
3382.06
3381.55
3381.04
3380.41
3380.2
3384.01
3427.01
3811.96
3152.49
3038.46
2967.92
2942.89
2939.57
2954.33
3012.61
3211.05
3776.17
4586.57
782.308
527.774
356.824
295.001
288.956
339.426
575.049
1452.63
3653.87
6102.21
374.58
251.267
170.529
142.45
140.543
165.737
282.795
754.785
2088.9
3752.29
273.864
184.696
137.112
123.154
122.307
134.321
198.215
508.467
1605.11
3384.23
208.834
148.276
122.454
116.166
115.913
121.256
153.376
341.028
1179.75
2971.13
172.945
131.376
116.706
113.653
113.619
116.077
131.975
240.935
842.797
2497.85
151.782
122.952
114.363
112.874
112.996
114.232
121.972
182.479
591.428
2034.86
159.373
136.429
130.744
130.133
130.466
131.212
134.984
167.732
433.389
1645.98
263.568
248.445
246.272
246.544
247.03
247.372
248.151
256.788
363.343
1225.31
3231.12
3223.99
3222.74
3222.42
3222.1
3221.66
3221.49
3224.36
3259.83
3603.68
2982.66
2879.85
2818.35
2797.41
2794.46
2805.61
2852.74
3022.96
3532.38
4299.58
683.587
454.382
309.862
259.607
254.372
293.485
484.294
1234.52
3244.1
5720.18
339.597
226.643
157.37
134.127
132.223
151.917
247.715
652.897
1874.47
3565.89
250.855
171.151
131.386
120.07
119.188
128.298
179.198
438.347
1418.91
3192.71
192.777
140.55
119.452
114.318
113.993
118.043
143.076
294.928
1018.97
2739.79
161.987
126.875
114.923
112.319
112.209
114.156
126.466
212.392
715.996
2251.2
143.064
119.349
112.402
111.046
111.074
112.125
118.169
164.645
495.611
1784.22
150.048
131.19
126.421
125.69
125.859
126.554
129.732
155.158
367.011
1414.16
238.121
226.658
224.758
224.72
224.961
225.253
226.055
232.849
313.978
1005.75
3065.42
3059.49
3058.51
3058.29
3058.09
3057.8
3057.72
3059.94
3088.52
3381.39
2805.06
2716.13
2665.48
2648.97
2646.54
2654.53
2690.43
2827.3
3260.66
3967.72
572.779
377.05
263.437
225.737
221.649
249.76
392.317
988.81
2741.46
5237.1
298.87
200.475
144.954
127.031
125.331
139.696
212.428
535.912
1599.11
3305.69
224.073
157.294
126.377
117.733
116.906
123.432
160.963
359.947
1178.19
2892.64
175.624
133.49
117.214
113.105
112.741
115.769
134.103
247.021
824.829
2401.65
151.017
123.186
113.814
111.556
111.387
112.985
122.183
184.829
572.943
1917.79
134.921
116.576
111.081
109.808
109.766
110.72
115.43
148.789
395.337
1474.51
141.657
126.923
122.945
122.112
122.165
122.858
125.624
144.527
301.675
1152.42
212.769
204.801
203.191
202.945
203.024
203.3
204.146
209.421
266.88
779.986
2894.37
2889.88
2889.11
2888.94
2888.81
2888.65
2888.68
2890.42
2911.99
3141.14
2616.35
2546.07
2508.84
2497.21
2495.42
2500.57
2524.85
2621.96
2950.72
3558.08
450.174
298.432
219.006
193.882
191.045
209.02
302.602
720.334
2111.58
4542.11
251.762
173.388
133.374
120.853
119.486
128.944
177.965
406.268
1244.57
2894.75
193.782
143.468
121.82
115.684
114.98
119.345
144.027
277.532
881.851
2419.5
157.64
126.921
115.301
112.092
111.737
114
126.354
200.13
604.833
1920.95
139.948
119.876
112.906
110.957
110.766
112.139
118.735
159.386
421.238
1481.99
127.116
114.162
109.974
108.791
108.718
109.627
113.294
135.018
295.88
1102.96
133.847
123.11
119.853
118.971
118.96
119.676
122.13
135.311
239.05
860.1
187.167
182.332
181.071
180.743
180.74
181.01
181.856
185.764
221.857
555.139
2717.66
2714.69
2714.11
2713.95
2713.87
2713.83
2713.96
2715.3
2729.69
2885
2416.66
2371.04
2348.96
2342.3
2341.23
2343.95
2357.1
2411.52
2610.15
3047.9
320.813
223.023
177.487
163.507
161.814
171.343
220.71
451.932
1351.18
3429.66
199.892
146.974
122.558
114.881
113.902
119.294
146.555
276.099
816.141
2206.12
162.124
130.254
117.162
113.143
112.609
115.357
129.158
200.978
557.169
1712.44
139.739
120.518
113.031
110.623
110.327
112.043
119.573
159.068
384.948
1289.87
128.899
116.312
111.517
109.901
109.733
110.945
115.488
137.793
279.079
961.113
119.631
111.643
108.647
107.609
107.539
108.409
111.249
123.691
208.214
696.368
126.049
118.999
116.462
115.614
115.583
116.312
118.479
126.931
183.621
555.519
160.698
158.401
157.541
157.235
157.211
157.462
158.223
160.871
179.494
350.632
2535.88
2534.28
2533.88
2533.73
2533.69
2533.72
2533.93
2534.89
2542.64
2624.88
2214.61
2195.66
2187.36
2184.88
2184.45
2185.41
2189.85
2208.12
2279.45
2475.1
201.78
157.057
138.565
132.721
131.892
135.477
152.5
230.723
584.008
1752.7
151.06
123.439
111.785
107.827
107.209
109.657
120.387
168.173
390.022
1183.51
133.699
117.573
111.017
108.67
108.312
109.859
115.869
141.943
275.727
850.592
123.115
113.102
108.977
107.404
107.202
108.359
112.245
127.435
209.525
624.48
117.874
111.182
108.351
107.229
107.115
108.019
110.763
120.21
171.196
466.516
112.46
108.231
106.385
105.638
105.59
106.261
108.172
114.051
144.727
345.553
117.302
113.279
111.589
110.939
110.916
111.515
113.146
117.81
140.342
297.318
132.525
131.789
131.339
131.142
131.122
131.29
131.795
133.232
140.071
198.515
2351.23
2350.63
2350.42
2350.34
2350.32
2350.37
2350.53
2351.03
2353.75
2380.49
8967.4
8807.31
8630.32
8433.57
1.66131e+06
1.4968e+06
1.38848e+06
1.35037e+06
2.34732e+06
2.12331e+06
1.947e+06
1.84784e+06
3.15992e+06
2.85485e+06
2.58409e+06
2.39602e+06
4.05793e+06
3.64314e+06
3.2406e+06
2.91971e+06
5.05402e+06
4.49858e+06
3.9275e+06
3.43393e+06
5.96265e+06
5.25545e+06
4.50642e+06
3.83118e+06
6.24889e+06
5.44047e+06
4.57996e+06
3.79644e+06
4.40489e+06
3.75561e+06
3.08669e+06
2.50135e+06
9142.11
8705.67
8129.09
7555.25
7776.21
7450.28
7222.96
7096.77
509395
419169
341174
297578
832434
709038
587920
516652
1.24624e+06
1.08783e+06
908036
799135
1.71412e+06
1.52856e+06
1.28012e+06
1.12556e+06
2.22639e+06
2.02294e+06
1.69866e+06
1.48933e+06
2.70639e+06
2.49881e+06
2.10678e+06
1.84691e+06
2.95875e+06
2.76829e+06
2.34213e+06
2.06008e+06
2.3848e+06
2.24152e+06
1.88675e+06
1.68172e+06
8915.8
8621.54
8106.26
7511.6
6891.95
6539.39
6329.18
6244.91
70737.4
63195.3
52463.8
41745.6
127145
116215
95243.6
71569.3
222107
204350
165524
120232
353481
326221
262800
186854
526433
487919
393466
276364
725361
675053
547042
382289
882788
824217
672361
470435
753139
694122
567087
402048
7349.77
7140.76
6856.33
6565.88
6616.85
6256.3
6039.32
5953.68
17550.7
14674.9
11825.8
9749.05
24497
20630.8
16152.6
12496.3
41110.8
34484.9
26194.7
19347.3
66594.4
55268.9
40765
28900.9
103095
84731.1
61163.2
41922.8
148543
120716
85620.3
57012.9
187709
150193
104921
68586.5
159978
121190
82807
55232.1
6676.56
6483.97
6283.32
6109.38
6392.23
6056.25
5849.85
5763.83
9274.19
7717.47
6337.13
5425.63
8846
7320.97
5832.34
4736.83
12319.2
10152.4
7880.36
6165.04
18106.3
14777.1
11104.4
8344.71
26685.8
21535.4
15686.7
11344
37679.1
29863.8
21065.3
14690.3
47509.3
36682
25099.4
17088.6
41929.3
30425.4
20271.1
14207.6
6312.45
6138.82
5965.26
5815.11
6177.16
5868.59
5676.4
5593.52
7196.44
6005.71
4997.19
4367.54
5257.87
4320.1
3479.87
2906.08
5974.16
4867.42
3833.27
3110.63
7525.33
6058.57
4631.59
3635.83
9885.55
7867.09
5829.52
4422.89
12929.7
10106.7
7229.97
5305.84
15662.3
11906.2
8220.87
5924.63
14309
10275.6
6962.04
5295.95
5983.08
5835.32
5683.54
5549.22
5964.97
5683.24
5505.87
5426.71
6352.73
5313.36
4459.54
3949.48
4036.18
3310.76
2694.25
2297.65
3982.12
3227.97
2575.06
2149.49
4368.83
3487.61
2706.53
2199.07
5049.41
3973.39
2989.88
2355.94
5979.21
4621.96
3358.4
2567.78
6855.16
5175.77
3640.7
2756.66
6640.76
4860.71
3448.65
2836.16
5659.51
5546.99
5423.79
5309.87
5746.5
5489.92
5326.97
5251.36
5864.02
4895.79
4120.96
3677.43
3485.34
2854.82
2340.58
2027.65
3184.51
2575.3
2078.08
1776.75
3181.22
2528.23
1991.48
1671.46
3307.92
2582.52
1974.93
1617.55
3564.1
2729.28
2018.63
1613.55
3878.48
2919.55
2108.53
1688.06
4067.06
3076.25
2322.53
2052.55
5357.04
5276.71
5182.45
5091.36
5515.9
5282.4
5133.4
5061.26
5495.47
4561.14
3831.72
3431.73
3169.78
2586.44
2127.73
1863.23
2799.5
2258.85
1839.1
1603.04
2655.39
2107.74
1685.24
1456.77
2573.53
2005.41
1564.02
1332.75
2579.26
1971.35
1494.42
1255.59
2692.58
2039.05
1527.81
1301.31
3030.12
2378.9
1910.65
1788.34
5079.7
5022.1
4951.65
4882.8
5271.99
5058.84
4923.06
4854.44
5170.05
4250.47
3550.17
3182.87
2951.53
2390.65
1964.22
1731.16
2580.59
2072.37
1694.93
1498.57
2388.77
1893.55
1532.28
1357.3
2223.47
1735.09
1380.21
1219.21
2124.35
1630.88
1271.61
1121.1
2148.91
1648.18
1285.98
1160.37
2522.44
2045.5
1728.03
1687.92
4819.21
4774.67
4722.22
4674.63
5015.22
4819.4
4695.98
4631.1
4856.45
3942.41
3264.53
2925.5
2776.35
2224.45
1818.11
1607.84
2434.32
1938.98
1585.62
1416.3
2232.08
1762.64
1436.99
1297.9
2033.07
1588.08
1284.05
1169.1
1884.86
1456.07
1165.31
1070.71
1859.42
1445.95
1170.09
1106.86
2214.16
1839.05
1613.25
1627.21
4568.08
4528.81
4489.67
4462.45
4747.86
4565.89
4453.57
4392.84
4540.52
3629.19
2973.1
2661.9
2619.56
2069.9
1677.92
1486.52
2319.5
1826.48
1487.73
1339.3
2121.84
1664.02
1360.71
1248.85
1910.04
1489.67
1218.47
1137.79
1735.57
1346.65
1100.48
1046.21
1674.95
1316.47
1096.44
1076.55
1983.35
1673.22
1508
1560.18
4323.5
4283.64
4254.14
4246.19
4472.52
4300.57
4197.85
4141.9
4217.92
3310.95
2679.28
2397.27
2468.61
1918.78
1539.58
1366.13
2214.59
1719.29
1391.27
1261.54
2026.22
1573.59
1286.43
1198.02
1810.66
1405.72
1158.27
1105.94
1620.07
1258.38
1044.31
1021.97
1531.4
1210.68
1029.91
1042.36
1780.62
1514.91
1391.76
1471.32
4085.52
4041.15
4018.42
4028.18
4191.52
4025.98
3931.41
3881.23
3888.19
2990.38
2387.73
2137.25
2315.65
1766.73
1401.66
1247.24
2106.14
1608.51
1291.21
1180.64
1926.05
1477.82
1205.44
1139.63
1710.4
1318.19
1090.89
1064.2
1509.05
1169.25
981.157
985.951
1398.24
1106.26
955.408
993.276
1584.96
1352.37
1259.83
1358.57
3855.11
3804.17
3786.07
3811.57
3905.66
3744.36
3657.05
3614.05
3552.05
2670.81
2102.8
1886.6
2156.22
1611.48
1263.56
1130.5
1983.51
1487.6
1184.01
1094.88
1807.22
1367.47
1111.99
1069.84
1593.02
1215.88
1008.95
1006.99
1385.28
1067.23
903.017
932.019
1260.19
993.249
867.368
925.963
1386.69
1181.82
1112.7
1223.54
3627.56
3571.68
3557.3
3595.49
3613.6
3457.22
3377.4
3343.37
3207.64
2353.45
1826.69
1648.14
1985.17
1450.17
1123.72
1015.43
1835.62
1349.94
1065.73
1001.8
1657.27
1234.86
1001.3
984.921
1446.36
1091.2
907.613
930.202
1238.37
946.044
806.266
857.102
1110.17
868.632
765.517
840.883
1180.99
1003.2
952.837
1068.18
3396.69
3339.52
3328.13
3373.88
3311.69
3164.96
3094.41
3071.06
2844.54
2033.27
1556.15
1420.18
1792.15
1276.78
978.009
899.141
1647.59
1186.93
930.788
896.86
1463.68
1072.95
868.756
880.179
1261.13
939.388
783.993
830.02
1062.55
803.754
690.401
759.329
945.337
733.448
652.347
739.054
963.439
816.443
781.237
890.756
3157.87
3104.89
3095.83
3142.15
2994.33
2867.11
2809.28
2797.43
2426.23
1689.07
1276.89
1191.41
1553.78
1078.17
817.35
773.578
1396.79
986.339
770.914
770.692
1212.38
875.131
709.768
747.502
1029.09
757.844
636.332
699.924
853.641
640.703
555.877
633.882
761.43
588.247
528.559
615.855
728.196
619.292
595.566
684.84
2907.02
2864.58
2857.37
2896.16
2658.12
2564.81
2524.37
2522.68
1869.18
1272.49
955.821
927.844
1221
828.308
623.999
617.014
1050.45
731.777
573.853
601.499
886.474
634.756
518.162
568.562
740.507
544.114
461.004
523.873
605.223
456.11
400.021
466.797
547.437
427.694
387.582
455.28
476.312
412.368
396.415
449.998
2646.02
2619.23
2613.75
2638.23
2312.57
2267.37
2248.58
2252.31
1049.01
709.161
535.848
546.055
729.857
492.148
369.12
377.26
595.495
416.887
327.446
350.648
493.908
357.523
291.163
320.16
411.029
307.627
259.52
290.711
336.362
260.514
227.294
257.607
315.06
254.3
228.753
258.137
249.834
222.964
212.353
230.646
2390.53
2379.81
2376.64
2385.7
7655.4
6549.24
5882.19
5454.98
5192.6
5055.33
5014.3
5044.7
5117.33
5190.53
558646
115220
31846.3
11459.7
5289.07
3174.3
2443.49
2271.45
2329.07
2405.6
636597
109706
27305.7
9328.59
4277.82
2582.66
1973.8
1788.49
1778.12
1800.93
693109
109174
25818.6
8799.37
4181.95
2602.31
1996.84
1778.65
1732.59
1734.03
735797
108977
24895.6
8611.91
4257.66
2716.84
2084.85
1825.49
1745.1
1727.4
772602
110182
24555.6
8662.67
4413.71
2852.65
2170.25
1858.54
1737.2
1694.42
791210
109005
23394.4
8233.61
4216.66
2723.38
2053.06
1732.81
1597.97
1544.83
744898
98936.9
20108.2
6894.54
3485.32
2239.29
1681.38
1412.1
1296.42
1248.33
514873
64477
12406.7
4267.29
2273.25
1578.37
1272.2
1119.62
1046.1
1005.88
6748.79
5860.38
5431.8
5219.53
5116.29
5067.75
5046.4
5039.48
5041.76
5044.31
6856.79
6291.43
5777.61
5376.27
5108.44
4957.66
4901.8
4920.43
4990.3
5075.43
171386
56729
21208
8780.89
4311.93
2631.03
2018.24
1878.9
1963.93
2098.98
244546
63157.4
19719.4
7300.1
3396.26
2016.99
1511.67
1365.67
1380.14
1436.89
335434
73358.4
20338.7
7168.16
3349.37
2017.9
1507.52
1332.17
1312.97
1346.13
426990
82158.1
20789.5
7151.12
3404.24
2089.78
1559.64
1352.69
1305.19
1323.37
517109
90355
21299.5
7248.68
3518.33
2188.53
1623.9
1378.12
1298.23
1298.51
591250
95422.2
20914.4
6936.49
3360.07
2088.28
1537.65
1286.33
1194.92
1189.02
611603
92134.3
18664.8
5931.76
2822.76
1743.42
1277.88
1061.46
980.116
978.357
464067
64572.7
12223.4
3903.82
1994.33
1363.01
1094.33
962.422
902.917
891.732
6646.17
5801.08
5326.39
5091.55
4982.49
4934.86
4916.07
4911.6
4916.8
4925.42
6194.69
5890.73
5499.82
5168.74
4945.88
4825.04
4787.95
4816.39
4888.73
4969.91
25530.6
13168.1
7291.68
4134.23
2549.39
1819.86
1547.25
1537.78
1673.45
1825
34902.3
14239.6
6750.2
3404.78
1931.2
1295.26
1049.6
1004.45
1061.82
1137.1
50058.3
17641
7582.46
3597.56
1988.14
1311.58
1035.42
956.527
981.504
1034.67
67163.1
20929.7
8325.29
3801.26
2085.72
1371.53
1065.78
958.105
959.696
1001.35
86400.3
24147.4
9012.03
4019.71
2206.82
1450.36
1111.03
972.072
948.689
978.169
104008
26227.5
9142.5
3948.76
2142.1
1397.7
1058.82
911.068
876.176
900.909
111493
25825.5
8376.17
3480.35
1855.47
1204.68
909.435
776.273
740.508
763.749
83465.9
18721.3
5843.36
2520.33
1484.29
1091.3
913.864
826.099
790.899
790.832
6218.66
5568.34
5157.23
4957.03
4868.19
4831.09
4817.35
4815.13
4820.5
4828.14
5916.3
5650.1
5292.57
4995.56
4801.48
4701.24
4676.61
4710.49
4782.53
4858.26
7382.24
5416.36
3770.99
2514.53
1753.44
1377.65
1256.05
1307.49
1462.69
1616.32
8030.92
4911.49
2988.76
1795.2
1152.8
849.273
740.884
752.595
832.531
917.156
11209.5
6100.07
3374.71
1901.39
1177.76
842.171
707.758
690.555
742.371
807.684
15229.5
7454.13
3810.14
2052.89
1248.21
878.545
719.119
678.642
711.715
767.956
20118.8
8887.17
4257.34
2227.78
1342.46
935.143
748.218
683.134
696.749
743.984
24905.8
9904.45
4436.28
2240.43
1327.85
914.679
721.296
645.627
647.774
689.962
27809.8
10065.1
4213.35
2053.38
1201.12
827.048
651.627
577.812
572.313
608.487
23070.2
8008.28
3252.89
1693.2
1124.98
889.728
777.959
722.493
703.931
710.61
5924.49
5332.93
4975.49
4813.91
4745.9
4718.55
4709.09
4708.5
4713.88
4720.73
5716.36
5452.11
5116.97
4843.64
4669.43
4582.48
4564.74
4600.13
4669.43
4738.59
4472.83
3594.91
2670.81
1883.79
1390.38
1150.51
1090.12
1162.36
1317.82
1463.7
3463.9
2471.48
1685.31
1106.66
767.709
604.978
558.096
593.084
678.855
763.298
4190.88
2771.92
1764.69
1103.63
741.456
566.305
503.162
515.96
578.676
647.328
5298.95
3261.23
1946.27
1171.26
770.983
576.671
496.962
492.596
540.82
602.442
6747.39
3865.43
2177.6
1275.67
829.467
610.697
511.666
488.861
521.886
576.397
8229.68
4370.52
2302.63
1303.39
833.211
606.038
499.525
466.536
488.776
537.8
9309.84
4610.68
2268.45
1245.47
792.207
580.161
479.392
442.384
454.038
494.836
8537.8
4074.47
1976.52
1196.31
883.016
744.294
675.564
641.617
633.641
643.887
5637.34
5103.14
4801.19
4674.8
4624.15
4604.38
4597.98
4598.32
4603.32
4609.22
5540.15
5278.34
4958.88
4702.82
4541.92
4463.01
4448.32
4482.62
4547.67
4609.85
3732.11
3053.85
2278.88
1624.65
1222.32
1033.27
994.626
1070.02
1218.71
1355.01
2268.85
1707.57
1202.84
815.557
586.494
479.191
455.794
496.466
579.538
659.504
2307.19
1656.43
1119.74
737.2
518.989
413.853
382.179
406.107
470.157
537.324
2567.54
1763.53
1147.09
737.863
512.587
401.674
361.065
372.892
425.649
487.329
2977.31
1957.29
1230.89
779.726
537.736
415.511
363.332
361.915
402.584
458.274
3436.87
2152.8
1289.17
795.47
542.429
415.636
357.993
348.044
378.951
428.851
3860.69
2313.14
1306.47
789.686
542.221
422.135
365.729
350.007
369.781
410.661
3994.76
2319.24
1311.59
896.177
720.215
638.837
597.414
577.367
575.793
587.73
5372.18
4893.04
4638.72
4539.34
4501.58
4487.33
4483.07
4483.92
4488.4
4493.44
5367.53
5108.47
4802.04
4560.73
4410.38
4337.14
4323.67
4355.61
4415.78
4471.19
3443.47
2826.08
2094.06
1490.89
1128.1
961.772
931.512
1005.13
1146.73
1275.05
1871.31
1435.15
1009.72
686.671
498.885
413.202
397.577
437.164
514.997
589.695
1693.21
1255.22
855.398
569.426
407.393
331.319
311.969
338.051
399.214
462.898
1675.37
1206.25
802.59
528.678
376.5
303.21
280.092
297.394
349.088
408.003
1730.82
1214.4
797.719
526.148
376.258
301.406
272.643
280.517
322.107
375.492
1837.84
1253.96
802.816
523.884
375.194
300.763
269.295
270.552
303.391
350.785
2028.26
1342.6
825.271
534.968
391.802
322.267
291.111
286.833
309.243
347.702
2443.46
1531.75
957.833
712.429
609.34
561.371
536.871
525.6
527.709
540.162
5139.5
4700.17
4485.31
4405.38
4376.88
4366.6
4363.85
4364.96
4368.9
4373.22
5185.87
4930.5
4637.47
4410.6
4270.2
4201.91
4188.98
4218.08
4273.29
4322.61
3247.97
2667.78
1965
1395.96
1059.45
907.325
881.582
953.052
1089.35
1212.15
1701.39
1316.43
918.785
620.968
451.069
374.604
361.216
398.124
471.137
541.56
1467.59
1104.08
744.099
490.126
349.753
285.338
270.149
295.02
352.263
412.275
1360.95
999.755
656.932
428.225
305.102
247.94
231.88
249.705
298.03
353.092
1290.85
928.869
604.938
398.308
288.121
235.587
217.791
228.645
267.874
317.297
1272.13
895.748
575.184
380.98
280.398
232.322
214.175
220.036
251.325
294.61
1384.26
942.012
587.791
394.492
302.235
259.493
242.063
243.358
265.43
300.367
1897.57
1176.09
760.662
596.266
531.877
503.102
488.844
482.959
487.008
499.262
4931.79
4520.31
4336.09
4270.88
4249.11
4241.72
4240.04
4241.28
4244.71
4248.5
4989.76
4739.77
4461.6
4249.8
4119.63
4056.29
4043.78
4070
4120.53
4164.87
3058.87
2513.42
1844.46
1309.66
997.071
857.077
835.089
905.151
1038.04
1157.58
1596.9
1241.5
860.108
577.372
418.358
347.175
334.647
369.282
438.901
506.598
1373.01
1041
691.684
448.023
316.475
257.046
243.131
266.113
319.889
376.917
1252.86
928.268
595.693
378.267
265.891
215.514
202.076
218.624
263.102
314.288
1145.31
828.87
521.803
333.481
239.311
197.042
184.166
195.144
230.83
275.877
1084.13
763.071
471.602
305.707
226.327
191.256
179.642
186.785
215.096
253.877
1171.07
783.124
471.768