/*--------------------------------*- C++ -*----------------------------------*\
| =========                 |                                                 |
| \\      /  F ield         | foam-extend: Open Source CFD                    |
|  \\    /   O peration     | Version:     4.0                                |
|   \\  /    A nd           | Web:         http://www.foam-extend.org         |
|    \\/     M anipulation  |                                                 |
\*---------------------------------------------------------------------------*/
FoamFile
{
    version     2.0;
    format      ascii;
    class       volScalarField;
    location    "50";
    object      i;
}
// * * * * * * * * * * * * * * * * * * * * * * * * * * * * * * * * * * * * * //

dimensions      [0 2 -2 0 0 0 0];

internalField   nonuniform List<scalar> 
34480
(
302657
302569
302522
302499
302505
302549
302673
302957
303540
304645
304116
303610
303281
303112
303103
303292
303742
304525
305660
307107
304589
304092
303745
303524
303428
303499
303829
304532
305671
307177
304281
303850
303547
303344
303237
303262
303518
304151
305296
306884
303861
303498
303247
303075
302977
302984
303184
303741
304858
306489
303497
303197
302995
302855
302771
302766
302919
303396
304452
306079
303132
302903
302756
302654
302593
302585
302699
303092
304054
305633
302690
302559
302487
302441
302414
302415
302495
302791
303597
305025
302265
302243
302240
302237
302235
302237
302272
302427
302925
303991
302496
302503
302513
302519
302520
302516
302513
302540
302697
303220
302614
302531
302486
302462
302460
302482
302545
302686
302976
303514
303961
303449
303115
302940
302919
303070
303438
304069
304996
306107
304358
303848
303504
303298
303215
303270
303532
304088
305021
306215
304024
303594
303307
303129
303042
303059
303248
303726
304652
305953
303600
303253
303028
302886
302811
302812
302948
303345
304228
305595
303248
302975
302803
302694
302633
302624
302718
303033
303845
305231
302917
302717
302599
302526
302483
302471
302532
302770
303480
304837
302549
302440
302387
302356
302339
302333
302368
302524
303085
304299
302229
302211
302209
302207
302205
302198
302204
302266
302558
303378
302471
302477
302485
302490
302491
302484
302473
302466
302510
302718
302559
302489
302452
302432
302433
302452
302505
302619
302841
303258
303733
303251
302945
302792
302786
302945
303307
303910
304751
305725
304078
303582
303261
303084
303029
303110
303384
303923
304770
305790
303743
303334
303074
302927
302870
302911
303112
303571
304399
305485
303336
303020
302826
302716
302669
302691
302834
303206
303980
305101
303014
302776
302637
302557
302520
302529
302627
302915
303608
304724
302729
302564
302474
302423
302400
302401
302464
302674
303261
304328
302438
302354
302316
302297
302290
302291
302326
302456
302899
303819
302204
302190
302190
302189
302189
302186
302192
302236
302447
303017
302456
302461
302468
302472
302473
302468
302460
302450
302470
302585
302508
302450
302421
302405
302407
302424
302469
302566
302753
303107
303506
303063
302789
302659
302664
302822
303172
303758
304568
305520
303788
303321
303030
302878
302846
302944
303228
303767
304581
305564
303456
303080
302851
302731
302697
302757
302969
303425
304207
305221
303077
302798
302637
302552
302526
302563
302714
303078
303791
304806
302792
302593
302484
302427
302407
302427
302530
302806
303428
304407
302557
302427
302361
302327
302315
302325
302390
302586
303098
304002
302341
302280
302254
302242
302239
302243
302277
302394
302765
303513
302181
302172
302172
302171
302171
302167
302172
302209
302371
302798
302440
302445
302450
302453
302453
302448
302441
302432
302445
302505
302464
302416
302393
302381
302383
302398
302436
302520
302681
302992
303299
302897
302656
302547
302559
302708
303038
303599
304387
305342
303517
303089
302830
302702
302684
302789
303070
303600
304398
305383
303194
302858
302662
302565
302546
302614
302826
303272
304026
305019
302848
302612
302481
302418
302405
302448
302597
302947
303619
304584
302605
302446
302363
302323
302314
302339
302438
302698
303269
304172
302420
302322
302275
302252
302247
302260
302322
302502
302958
303764
302269
302226
302209
302201
302199
302204
302235
302338
302654
303293
302164
302158
302158
302157
302157
302154
302158
302186
302312
302649
302426
302430
302434
302435
302435
302431
302425
302418
302425
302462
302425
302386
302368
302358
302361
302373
302406
302478
302618
302891
303114
302754
302545
302454
302470
302608
302913
303443
304205
305158
303275
302891
302665
302558
302551
302654
302921
303428
304205
305192
302965
302674
302511
302434
302425
302494
302693
303116
303838
304818
302659
302466
302364
302318
302312
302355
302492
302816
303446
304377
302459
302337
302276
302249
302245
302270
302359
302594
303116
303965
302319
302248
302215
302201
302199
302211
302265
302424
302828
303564
302219
302189
302178
302173
302171
302175
302201
302288
302556
303116
302152
302147
302148
302147
302146
302144
302146
302167
302264
302535
302411
302414
302417
302418
302418
302414
302410
302404
302407
302432
302389
302358
302345
302338
302340
302351
302378
302440
302562
302802
302948
302631
302452
302378
302396
302522
302800
303297
304031
304975
303062
302725
302532
302445
302445
302542
302787
303261
304007
304987
302771
302528
302396
302337
302334
302398
302577
302964
303644
304600
302508
302357
302280
302247
302246
302284
302403
302691
303269
304159
302349
302260
302217
302199
302198
302219
302294
302497
302963
303758
302247
302198
302177
302167
302166
302177
302220
302353
302704
303375
302184
302164
302157
302154
302153
302156
302175
302244
302467
302960
302143
302139
302139
302139
302138
302136
302138
302152
302225
302442
302397
302399
302401
302402
302401
302398
302395
302390
302392
302411
302358
302334
302324
302319
302321
302330
302352
302404
302510
302721
302800
302525
302375
302315
302334
302447
302699
303162
303865
304794
302875
302586
302426
302357
302362
302450
302670
303107
303815
304776
302611
302414
302310
302266
302268
302324
302479
302824
303452
304371
302392
302278
302222
302199
302200
302233
302331
302578
303095
303931
302270
302207
302179
302167
302167
302184
302243
302411
302816
303543
302198
302165
302152
302146
302146
302153
302186
302292
302587
303186
302161
302148
302143
302141
302140
302142
302156
302208
302387
302812
302135
302132
302133
302132
302131
302130
302131
302140
302193
302366
302382
302384
302385
302385
302384
302382
302380
302377
302377
302392
302329
302311
302305
302301
302303
302310
302328
302372
302463
302647
302667
302435
302311
302264
302283
302382
302608
303035
303705
304611
302714
302472
302343
302289
302297
302375
302570
302966
303631
304563
302481
302326
302247
302215
302219
302267
302399
302700
303271
304141
302304
302221
302182
302167
302169
302195
302274
302480
302933
303702
302214
302172
302153
302146
302147
302160
302205
302338
302680
303330
302165
302144
302135
302132
302132
302138
302161
302242
302482
303002
302145
302136
302134
302132
302132
302133
302142
302180
302319
302674
302129
302127
302127
302127
302126
302125
302126
302132
302169
302303
302366
302368
302368
302368
302368
302366
302365
302362
302362
302372
302303
302290
302287
302284
302286
302291
302305
302341
302420
302578
302550
302358
302258
302223
302240
302326
302525
302916
303546
304422
302574
302378
302277
302237
302246
302313
302482
302837
303455
304347
302377
302259
302201
302179
302184
302224
302332
302591
303103
303913
302239
302181
302155
302146
302148
302168
302230
302398
302787
303481
302176
302148
302137
302133
302133
302143
302176
302280
302560
303129
302143
302130
302125
302123
302123
302127
302143
302203
302392
302832
302133
302128
302126
302125
302125
302126
302132
302159
302263
302551
302124
302122
302122
302122
302122
302121
302122
302126
302152
302253
302350
302351
302352
302351
302351
302350
302349
302347
302347
302353
302279
302271
302269
302267
302269
302273
302284
302313
302379
302515
302447
302294
302216
302190
302206
302277
302450
302801
303387
304223
302456
302302
302225
302197
302206
302263
302406
302718
303282
304126
302295
302209
302168
302153
302158
302190
302277
302494
302945
303689
302193
302154
302137
302131
302133
302148
302195
302329
302657
303272
302150
302133
302126
302123
302124
302131
302154
302233
302459
302944
302129
302120
302118
302116
302117
302119
302130
302173
302318
302680
302125
302122
302121
302120
302120
302120
302124
302143
302219
302447
302120
302119
302119
302118
302118
302118
302118
302121
302139
302215
302333
302334
302334
302334
302334
302333
302332
302331
302331
302335
302257
302252
302253
302251
302252
302255
302264
302287
302342
302457
302359
302240
302182
302164
302177
302236
302381
302690
303225
304013
302357
302242
302186
302166
302175
302221
302339
302607
303112
303895
302232
302172
302144
302135
302140
302164
302232
302410
302798
303465
302160
302135
302124
302121
302123
302134
302168
302272
302542
303073
302133
302122
302118
302117
302118
302122
302138
302196
302373
302777
302119
302114
302113
302112
302112
302114
302121
302151
302260
302549
302120
302118
302117
302117
302116
302117
302119
302131
302186
302362
302116
302115
302116
302115
302115
302115
302115
302117
302129
302185
302316
302316
302316
302316
302316
302316
302315
302314
302314
302316
302236
302235
302237
302235
302236
302239
302245
302263
302309
302404
302285
302198
302157
302144
302155
302201
302320
302584
303061
303789
302278
302196
302157
302144
302152
302188
302281
302504
302945
303654
302186
302146
302128
302123
302126
302144
302195
302336
302660
303241
302138
302123
302116
302114
302116
302123
302147
302225
302440
302884
302121
302115
302113
302112
302113
302116
302127
302167
302302
302626
302113
302110
302109
302109
302109
302110
302115
302135
302213
302437
302116
302115
302114
302114
302114
302114
302115
302123
302161
302292
302114
302113
302113
302113
302113
302113
302113
302114
302122
302163
302297
302298
302298
302298
302298
302298
302297
302297
302296
302297
302217
302219
302221
302220
302221
302222
302227
302241
302277
302354
302226
302166
302137
302129
302138
302173
302265
302483
302896
303551
302216
302161
302136
302129
302135
302161
302232
302410
302781
303404
302153
302128
302117
302114
302117
302129
302166
302272
302532
303020
302124
302115
302111
302110
302111
302116
302132
302187
302351
302708
302114
302111
302110
302110
302110
302112
302118
302146
302243
302492
302109
302108
302107
302107
302107
302108
302110
302123
302178
302343
302113
302113
302112
302112
302112
302112
302113
302118
302143
302236
302112
302112
302112
302112
302112
302111
302112
302112
302117
302146
302279
302279
302279
302279
302279
302279
302279
302278
302278
302278
302202
302203
302205
302205
302205
302207
302210
302220
302248
302308
302181
302142
302124
302119
302125
302150
302218
302389
302731
303299
302171
302137
302122
302118
302122
302141
302192
302326
302623
303147
302131
302117
302111
302109
302111
302119
302144
302219
302416
302806
302115
302110
302108
302108
302108
302111
302121
302158
302276
302547
302110
302109
302108
302108
302108
302109
302113
302130
302197
302377
302107
302106
302106
302106
302106
302106
302108
302116
302151
302267
302112
302112
302112
302112
302112
302112
302112
302114
302130
302194
302111
302111
302111
302111
302111
302111
302111
302111
302114
302134
302259
302260
302260
302260
302260
302260
302259
302259
302258
302258
302188
302188
302190
302189
302190
302191
302192
302199
302220
302264
302150
302126
302115
302113
302117
302133
302180
302304
302571
303039
302141
302122
302114
302112
302114
302126
302160
302254
302476
302891
302118
302111
302108
302107
302108
302112
302128
302177
302315
302606
302110
302108
302107
302107
302107
302108
302114
302137
302215
302405
302108
302107
302107
302107
302107
302108
302110
302120
302162
302283
302106
302106
302106
302106
302106
302106
302107
302111
302133
302208
302111
302111
302111
302111
302111
302111
302111
302112
302122
302162
302110
302110
302110
302110
302110
302110
302110
302110
302112
302126
302237
302238
302238
302239
302238
302238
302238
302238
302237
302237
302172
302172
302173
302173
302173
302174
302175
302179
302193
302222
302129
302116
302110
302109
302111
302121
302150
302232
302423
302778
302122
302113
302109
302108
302109
302116
302136
302195
302346
302645
302111
302107
302106
302106
302106
302108
302117
302145
302233
302429
302107
302106
302106
302106
302106
302107
302110
302122
302168
302289
302107
302107
302106
302106
302107
302107
302108
302113
302136
302210
302106
302106
302106
302106
302106
302106
302106
302108
302120
302165
302110
302110
302110
302110
302110
302110
302110
302110
302116
302140
302109
302109
302109
302109
302109
302109
302109
302109
302110
302119
302213
302214
302214
302214
302214
302214
302214
302213
302213
302213
302158
302155
302155
302155
302156
302156
302156
302159
302167
302183
302117
302110
302107
302107
302108
302113
302128
302174
302292
302530
302112
302108
302106
302106
302106
302109
302119
302151
302238
302426
302107
302106
302105
302105
302105
302106
302110
302124
302171
302285
302106
302105
302105
302105
302105
302105
302107
302112
302136
302203
302106
302105
302105
302105
302105
302105
302106
302108
302120
302160
302105
302105
302105
302105
302105
302105
302105
302106
302112
302137
302107
302107
302107
302108
302108
302108
302108
302108
302111
302125
302107
302107
302107
302107
302107
302107
302107
302107
302108
302114
302186
302186
302187
302187
302187
302187
302187
302186
302186
302185
302145
302137
302137
302137
302137
302137
302137
302138
302142
302149
302109
302107
302105
302105
302106
302107
302113
302133
302190
302317
302107
302105
302105
302104
302105
302106
302109
302122
302161
302255
302106
302105
302104
302104
302104
302105
302106
302111
302131
302184
302105
302105
302104
302104
302104
302104
302105
302107
302116
302147
302105
302105
302104
302104
302104
302104
302105
302106
302110
302129
302105
302105
302104
302104
302104
302104
302105
302105
302107
302119
302105
302105
302105
302105
302105
302105
302105
302105
302107
302114
302105
302105
302105
302105
302105
302105
302105
302105
302106
302109
302157
302157
302158
302158
302158
302158
302158
302157
302157
302157
302115
302117
302117
302117
302117
302117
302117
302117
302119
302120
302105
302104
302104
302104
302104
302104
302105
302110
302126
302168
302105
302104
302103
302103
302103
302104
302104
302107
302118
302147
302104
302104
302103
302103
302103
302103
302104
302105
302110
302126
302104
302103
302103
302103
302103
302103
302103
302104
302106
302116
302104
302103
302103
302103
302103
302103
302103
302103
302105
302111
302103
302103
302103
302103
302103
302103
302103
302103
302104
302109
302104
302103
302103
302103
302103
302103
302103
302103
302104
302107
302103
302103
302103
302103
302103
302103
302103
302103
302103
302105
302126
302127
302127
302127
302127
302127
302127
302127
302126
302126
305966
306039
305710
304984
308390
308415
308034
307258
308588
308576
308219
307466
308447
308394
308089
307379
308181
308087
307838
307157
307843
307712
307512
306854
307410
307249
307087
306439
306750
306575
306449
305817
305632
305508
305473
304904
304915
304959
305075
304574
304111
304156
304082
303932
306794
306889
306877
306799
306957
307015
306970
306866
306816
306814
306715
306554
306588
306509
306353
306132
306335
306172
305964
305691
306012
305768
305519
305204
305466
305150
304879
304552
304344
303978
303763
303523
303283
302950
302960
302955
303788
303866
303828
303703
306434
306591
306642
306602
306530
306676
306707
306647
306307
306427
306413
306299
306005
306079
306013
305844
305692
305707
305595
305383
305331
305284
305136
304896
304792
304681
304517
304278
303774
303595
303475
303328
303017
302811
302854
302888
303559
303642
303627
303527
306222
306391
306463
306441
306280
306448
306511
306478
305991
306151
306180
306098
305621
305755
305738
305601
305246
305338
305273
305091
304837
304876
304767
304556
304279
304255
304118
303904
303318
303218
303101
302964
302720
302572
302579
302585
303391
303474
303470
303388
306063
306241
306321
306301
306114
306294
306370
306344
305789
305968
306021
305952
305379
305546
305564
305446
304967
305109
305088
304929
304531
304637
304579
304391
303970
304026
303937
303745
303069
303049
302962
302837
302606
302521
302518
302513
303240
303318
303320
303252
305896
306081
306164
306142
305943
306131
306211
306183
305596
305783
305844
305777
305163
305341
305374
305266
304732
304892
304896
304753
304285
304419
304393
304227
303729
303821
303769
303601
302881
302898
302840
302732
302519
302472
302468
302462
303106
303175
303181
303124
305724
305914
305998
305972
305754
305948
306029
305996
305384
305575
305638
305569
304937
305119
305158
305052
304501
304667
304681
304549
304058
304200
304192
304043
303519
303624
303595
303448
302731
302763
302724
302634
302461
302437
302433
302427
302983
303044
303051
303003
305549
305741
305823
305792
305552
305748
305829
305789
305152
305344
305406
305333
304691
304872
304912
304808
304256
304419
304439
304314
303826
303967
303968
303833
303318
303423
303407
303279
302602
302638
302613
302539
302418
302407
302403
302399
302870
302923
302930
302890
305367
305559
305638
305600
305340
305537
305615
305568
304908
305099
305158
305081
304432
304608
304647
304545
304000
304156
304177
304060
303589
303722
303728
303606
303121
303219
303211
303101
302494
302527
302512
302454
302385
302380
302378
302374
302766
302811
302817
302785
305173
305363
305439
305393
305117
305312
305385
305331
304658
304843
304898
304817
304171
304339
304375
304276
303744
303890
303911
303802
303355
303477
303485
303377
302935
303022
303019
302927
302404
302433
302424
302380
302358
302356
302354
302352
302670
302707
302713
302686
304964
305151
305221
305167
304879
305070
305137
305075
304400
304577
304626
304543
303912
304069
304101
304005
303497
303630
303649
303550
303135
303243
303251
303158
302767
302842
302841
302765
302330
302355
302349
302316
302335
302333
302332
302331
302582
302612
302617
302595
304735
304917
304981
304919
304623
304807
304867
304797
304132
304298
304341
304256
303653
303796
303824
303732
303260
303378
303394
303305
302932
303025
303032
302953
302619
302681
302681
302620
302271
302290
302286
302263
302313
302311
302311
302311
302502
302525
302528
302511
304484
304658
304714
304646
304345
304518
304570
304495
303852
304004
304040
303956
303396
303522
303544
303459
303035
303136
303148
303070
302747
302824
302829
302763
302490
302539
302539
302492
302223
302236
302234
302218
302292
302290
302290
302291
302428
302445
302447
302434
304206
304370
304418
304344
304042
304202
304246
304167
303561
303696
303725
303644
303140
303247
303264
303188
302822
302904
302913
302847
302581
302640
302644
302592
302380
302415
302416
302381
302185
302194
302193
302183
302272
302270
302270
302271
302361
302372
302373
302363
303900
304049
304088
304012
303716
303858
303892
303814
303263
303377
303399
303324
302891
302977
302989
302924
302626
302687
302693
302641
302436
302478
302480
302441
302289
302313
302312
302288
302158
302162
302162
302156
302252
302249
302249
302251
302299
302306
302306
302299
303564
303694
303724
303650
303369
303489
303514
303440
302966
303056
303070
303006
302658
302721
302728
302677
302452
302495
302497
302460
302315
302342
302342
302317
302218
302232
302231
302216
302138
302140
302139
302137
302231
302228
302228
302230
302242
302246
302246
302242
303203
303309
303329
303262
303013
303105
303121
303058
302682
302746
302754
302704
302453
302493
302496
302460
302311
302335
302336
302312
302224
302237
302237
302222
302167
302173
302172
302165
302125
302125
302124
302124
302207
302206
302205
302207
302192
302192
302192
302191
302832
302907
302919
302865
302669
302729
302737
302691
302434
302471
302474
302442
302289
302309
302310
302289
302207
302218
302217
302205
302162
302166
302165
302159
302135
302136
302135
302133
302116
302116
302115
302116
302182
302181
302181
302182
302148
302147
302147
302149
302484
302525
302529
302496
302375
302405
302407
302381
302248
302263
302262
302247
302179
302185
302184
302176
302144
302146
302145
302142
302127
302127
302126
302125
302118
302117
302116
302116
302111
302110
302110
302110
302155
302154
302154
302155
302115
302114
302114
302117
302220
302232
302232
302220
302179
302186
302185
302177
302140
302142
302141
302138
302122
302122
302121
302120
302114
302113
302113
302112
302110
302109
302109
302109
302109
302108
302107
302108
302107
302106
302106
302106
302126
302126
302126
302126
303994
303420
303242
303129
303050
302988
302932
302879
302820
302751
306748
306415
306220
306056
305898
305730
305534
305297
305004
304639
306739
306433
306266
306151
306053
305949
305817
305641
305401
305080
306274
305918
305714
305595
305509
305429
305331
305192
304993
304713
305694
305287
305047
304924
304850
304795
304730
304632
304474
304234
305114
304677
304423
304306
304250
304221
304190
304129
304010
303812
304509
304066
303814
303707
303669
303663
303657
303626
303541
303384
303799
303392
303161
303065
303032
303027
303026
303008
302953
302848
302900
302628
302477
302408
302374
302357
302346
302336
302320
302297
302619
302534
302501
302484
302480
302478
302479
302481
302485
302488
303586
303316
303152
303043
302965
302904
302852
302806
302757
302706
306561
306314
306110
305922
305741
305555
305351
305118
304842
304508
306580
306331
306146
305998
305871
305745
305602
305423
305190
304883
306147
305811
305575
305409
305285
305179
305067
304928
304739
304478
305598
305178
304895
304712
304593
304507
304427
304330
304189
303979
305049
304574
304267
304084
303979
303917
303871
303813
303716
303554
304477
303979
303670
303499
303411
303372
303352
303325
303265
303148
303801
303338
303059
302910
302838
302807
302795
302783
302751
302683
302920
302613
302444
302356
302312
302290
302278
302272
302265
302253
302637
302522
302489
302466
302458
302455
302455
302457
302460
302462
303422
303187
303042
302944
302872
302816
302768
302726
302683
302639
306418
306180
305964
305752
305541
305328
305106
304862
304585
304259
306438
306203
306006
305832
305673
305518
305352
305156
304912
304602
305988
305668
305419
305222
305064
304928
304794
304640
304446
304188
305425
305025
304730
304516
304362
304246
304145
304036
303893
303693
304872
304422
304108
303896
303758
303667
303600
303531
303436
303289
304310
303841
303531
303337
303222
303157
303117
303081
303024
302926
303664
303232
302961
302801
302711
302664
302639
302620
302593
302542
302834
302559
302403
302317
302273
302250
302239
302234
302228
302220
302610
302507
302478
302454
302447
302443
302442
302444
302446
302448
303286
303076
302942
302851
302785
302734
302691
302653
302616
302578
306275
306029
305785
305543
305307
305074
304839
304590
304316
304002
306299
306055
305831
305625
305437
305256
305069
304858
304606
304296
305832
305505
305228
304999
304812
304652
304499
304333
304133
303879
305252
304851
304534
304292
304111
303974
303856
303737
303593
303403
304686
304248
303922
303690
303530
303421
303339
303261
303165
303032
304124
303682
303373
303167
303036
302956
302904
302860
302804
302719
303495
303102
302847
302686
302591
302537
302506
302485
302459
302419
302710
302482
302350
302274
302235
302216
302207
302202
302198
302192
302541
302472
302458
302440
302434
302431
302430
302431
302432
302434
303169
302977
302853
302770
302709
302662
302623
302589
302557
302524
306126
305854
305582
305314
305058
304814
304573
304326
304060
303760
306158
305884
305626
305387
305172
304972
304771
304552
304299
303998
305681
305322
305011
304750
304538
304360
304195
304023
303825
303584
305094
304667
304320
304051
303851
303700
303573
303450
303310
303136
304528
304075
303728
303477
303304
303185
303095
303014
302923
302806
303973
303532
303214
302999
302862
302775
302718
302671
302618
302547
303365
302989
302736
302578
302485
302431
302399
302378
302355
302325
302622
302420
302302
302237
302206
302190
302182
302179
302175
302172
302501
302450
302440
302427
302422
302418
302417
302418
302419
302421
303057
302884
302772
302695
302639
302597
302562
302532
302504
302476
305954
305656
305360
305074
304805
304555
304314
304073
303818
303537
305982
305676
305387
305122
304888
304676
304468
304249
304003
303718
305494
305103
304762
304477
304249
304062
303893
303723
303534
303312
304908
304455
304086
303799
303588
303431
303303
303184
303055
302902
304351
303884
303525
303265
303087
302965
302875
302798
302716
302618
303816
303373
303054
302838
302702
302616
302559
302515
302470
302414
303235
302872
302631
302481
302394
302345
302316
302297
302279
302257
302537
302361
302260
302207
302183
302171
302164
302162
302159
302157
302460
302429
302421
302413
302409
302406
302405
302405
302406
302407
302953
302798
302697
302627
302576
302538
302506
302480
302456
302433
305768
305446
305131
304830
304553
304301
304063
303830
303590
303330
305777
305441
305126
304843
304597
304379
304171
303958
303725
303462
305272
304855
304493
304194
303958
303768
303602
303441
303268
303071
304688
304218
303837
303545
303333
303178
303055
302946
302833
302705
304150
303676
303316
303059
302884
302767
302684
302615
302547
302469
303642
303205
302896
302689
302561
302481
302430
302392
302355
302314
303099
302754
302531
302396
302320
302277
302253
302238
302225
302210
302459
302308
302225
302183
302165
302156
302151
302150
302147
302146
302426
302409
302403
302397
302395
302393
302392
302392
302392
302393
302856
302717
302627
302564
302518
302484
302456
302434
302413
302395
305571
305227
304894
304583
304301
304050
303819
303598
303375
303139
305552
305190
304856
304559
304307
304087
303884
303681
303466
303228
305024
304591
304217
303913
303677
303491
303333
303185
303032
302862
304443
303969
303589
303302
303097
302950
302838
302742
302647
302544
303925
303460
303112
302868
302705
302599
302525
302468
302414
302357
303452
303034
302745
302557
302442
302373
302329
302299
302272
302243
302956
302640
302441
302324
302261
302226
302208
302196
302187
302177
302389
302263
302196
302164
302151
302144
302141
302140
302138
302138
302398
302389
302385
302382
302380
302379
302378
302378
302378
302379
302764
302642
302561
302505
302464
302434
302410
302391
302375
302361
305362
304997
304650
304330
304048
303802
303581
303375
303172
302963
305312
304929
304579
304275
304020
303804
303610
303421
303227
303018
304763
304322
303945
303643
303413
303236
303090
302958
302826
302685
304185
303722
303353
303080
302888
302754
302655
302574
302498
302418
303690
303249
302924
302700
302555
302463
302401
302355
302315
302274
303254
302870
302609
302445
302346
302289
302255
302232
302213
302194
302813
302534
302363
302267
302216
302189
302175
302167
302161
302155
302329
302226
302174
302150
302140
302135
302133
302132
302131
302131
302374
302369
302367
302365
302364
302364
302363
302363
302363
302364
302678
302570
302500
302450
302414
302388
302368
302352
302339
302330
305138
304755
304396
304074
303795
303557
303350
303162
302982
302801
305058
304657
304298
303991
303739
303531
303349
303178
303007
302828
304495
304054
303683
303390
303170
303005
302874
302760
302650
302536
303927
303485
303137
302883
302709
302590
302506
302440
302381
302322
303457
303052
302757
302559
302434
302357
302307
302272
302243
302215
303061
302720
302493
302354
302274
302228
302202
302186
302173
302161
302678
302441
302299
302222
302182
302162
302152
302147
302143
302140
302280
302197
302156
302138
302131
302128
302127
302126
302125
302125
302353
302350
302349
302348
302348
302347
302347
302347
302347
302348
302597
302504
302442
302399
302368
302346
302329
302317
302307
302302
304896
304499
304135
303814
303544
303319
303129
302961
302806
302654
304787
304375
304012
303709
303466
303270
303104
302954
302809
302661
304220
303788
303430
303152
302949
302801
302686
302591
302503
302415
303673
303259
302940
302711
302558
302457
302388
302336
302292
302250
303235
302873
302613
302443
302339
302277
302239
302213
302193
302175
302881
302588
302397
302283
302219
302185
302166
302155
302147
302140
302558
302362
302247
302187
302158
302143
302137
302133
302131
302129
302239
302173
302142
302129
302124
302122
302121
302121
302121
302121
302333
302331
302331
302331
302331
302331
302330
302330
302331
302331
302521
302441
302389
302352
302327
302308
302295
302286
302279
302277
304635
304229
303866
303554
303298
303091
302920
302776
302646
302523
304499
304083
303725
303433
303204
303026
302879
302752
302633
302516
303939
303525
303188
302934
302752
302623
302527
302450
302383
302318
303423
303046
302761
302563
302433
302351
302296
302257
302226
302198
303025
302710
302489
302349
302266
302218
302190
302172
302159
302148
302717
302473
302317
302227
302180
302155
302141
302134
302129
302125
302452
302296
302206
302161
302140
302130
302126
302123
302122
302121
302205
302154
302131
302122
302119
302117
302117
302117
302117
302117
302313
302313
302313
302313
302313
302313
302313
302313
302313
302314
302451
302384
302340
302310
302289
302275
302264
302258
302254
302256
304353
303947
303593
303298
303061
302876
302729
302609
302505
302409
304192
303784
303440
303167
302960
302802
302678
302575
302482
302394
303651
303266
302961
302736
302580
302473
302396
302337
302289
302244
303178
302846
302602
302436
302332
302268
302227
302200
302179
302161
302828
302564
302384
302273
302211
302176
302156
302144
302136
302130
302569
302374
302253
302185
302151
302134
302125
302121
302118
302116
302361
302241
302174
302142
302127
302121
302118
302117
302117
302116
302177
302140
302123
302117
302115
302114
302114
302114
302114
302114
302294
302294
302294
302295
302295
302295
302295
302295
302295
302296
302386
302332
302297
302272
302256
302245
302237
302233
302231
302237
304049
303654
303320
303049
302839
302680
302559
302464
302385
302315
303869
303480
303162
302917
302737
302606
302506
302426
302358
302296
303361
303016
302751
302562
302435
302351
302293
302251
302218
302189
302942
302662
302463
302332
302253
302206
302178
302160
302147
302137
302647
302436
302297
302214
302170
302146
302133
302126
302122
302118
302440
302292
302202