/*--------------------------------*- C++ -*----------------------------------*\
| =========                 |                                                 |
| \\      /  F ield         | foam-extend: Open Source CFD                    |
|  \\    /   O peration     | Version:     4.0                                |
|   \\  /    A nd           | Web:         http://www.foam-extend.org         |
|    \\/     M anipulation  |                                                 |
\*---------------------------------------------------------------------------*/
FoamFile
{
    version     2.0;
    format      ascii;
    class       volScalarField;
    location    "50";
    object      k;
}
// * * * * * * * * * * * * * * * * * * * * * * * * * * * * * * * * * * * * * //

dimensions      [0 2 -2 0 0 0 0];

internalField   nonuniform List<scalar> 
34480
(
9.11082
8.87963
8.64332
8.52807
8.57474
8.85985
9.48808
10.5337
11.7994
12.5925
21.5908
19.1798
17.0302
16.3113
17.2604
21.1142
32.1269
60.9963
125.573
209.941
26.603
24.8937
23.3361
23.111
24.1569
27.4034
37.2755
65.8972
137.984
245.918
28.6099
27.2926
26.1342
26.3086
27.6241
30.8977
40.3734
68.7393
147.07
277.598
29.2997
28.0579
27.044
27.3885
28.9047
32.4619
42.0436
70.1434
153.005
302.853
28.9612
27.5745
26.5061
26.828
28.4099
32.2312
42.0908
70.1633
157.173
324.809
26.6021
25.1415
24.1745
24.5884
26.2948
30.3268
40.3255
68.1138
158.14
340.881
20.5051
19.1695
18.5005
19.0464
20.7009
24.4677
33.7557
59.8619
147.976
335.581
10.2154
9.70322
9.65554
10.0832
10.9761
13.0397
18.9621
37.9476
105.159
257.086
8.48311
8.45569
8.45399
8.46696
8.48908
8.53229
8.6591
9.05455
10.0923
11.3247
9.01847
8.79356
8.54141
8.39754
8.39602
8.59937
9.10995
10.0747
11.4761
12.5576
20.16
17.7885
15.3642
14.2907
14.766
17.3782
24.3455
41.6062
85.2745
193.412
23.5423
21.8039
20.0455
19.6479
20.536
22.9793
29.1786
45.6202
95.0418
232.99
25.0088
23.6015
22.2628
22.3324
23.585
26.1749
32.0849
47.6274
101.895
268.819
25.4142
24.1093
22.9754
23.2756
24.7527
27.6114
33.654
48.3438
105.65
295.914
25.0875
23.686
22.5463
22.8519
24.3656
27.4013
33.6706
47.6262
107.142
317.006
23.0772
21.6338
20.6245
21.0201
22.5963
25.7422
32.1238
45.1866
105.722
330.932
17.905
16.5947
15.9018
16.4123
17.8705
20.6875
26.4278
37.8668
95.6607
323.123
9.4632
8.911
8.81049
9.15429
9.83463
11.1115
14.1564
21.617
63.7978
244.099
8.3549
8.32578
8.31891
8.32434
8.33393
8.34826
8.39678
8.59599
9.42433
11.0896
8.87828
8.64562
8.40169
8.26616
8.26596
8.45059
8.91631
9.8231
11.2135
12.26
18.5285
16.2016
13.7548
12.5931
12.8889
15.1314
21.1024
34.9913
61.9836
99.463
20.6118
18.8244
16.9692
16.4292
17.1678
19.3873
24.8782
38.4141
70.0385
127.934
21.6483
20.0784
18.5988
18.5215
19.6503
22.0545
27.3264
40.2581
76.1813
159.04
21.8116
20.3404
19.1051
19.3061
20.6999
23.3814
28.7579
41.0082
79.8419
186.137
21.4621
19.9472
18.7722
19.0344
20.4971
23.3515
28.9263
40.5615
81.3949
208.192
19.7898
18.2998
17.3113
17.6935
19.2175
22.1536
27.8263
38.6988
80.3702
223.634
15.5523
14.2667
13.6369
14.1306
15.506
18.0849
23.1753
32.6851
72.3175
221.994
8.7914
8.26196
8.17575
8.47067
9.04882
10.1147
12.6761
18.7714
47.2978
168.269
8.24751
8.2205
8.2127
8.21483
8.21949
8.22709
8.26403
8.43288
9.12859
10.6951
8.72829
8.48933
8.25505
8.12885
8.12866
8.29245
8.70946
9.5464
10.9032
12.0162
17.1799
14.8815
12.4527
11.2535
11.3972
13.2806
18.4133
30.0934
49.8211
67.7811
18.1565
16.3213
14.3743
13.6435
14.1116
15.9744
20.7801
32.3852
54.9892
83.0771
18.8034
17.0457
15.3896
15.0518
15.8504
17.8476
22.4447
33.6789
59.3977
102.68
18.7525
17.0514
15.6528
15.6055
16.6604
18.8812
23.4821
34.1681
62.0985
121.694
18.3458
16.6349
15.3635
15.4307
16.5777
18.9402
23.6379
33.799
63.2376
138.456
16.9582
15.3434
14.3245
14.5538
15.7771
18.1967
22.9149
32.3896
62.336
150.8
13.5869
12.2814
11.6757
12.0448
13.1444
15.2303
19.4017
27.6325
55.8544
150.906
8.23304
7.72277
7.64202
7.87089
8.31049
9.10007
11.0209
15.9893
35.7435
114.658
8.12836
8.10366
8.09588
8.09598
8.09755
8.10073
8.12685
8.26925
8.86257
10.3688
8.56868
8.32569
8.10181
7.98533
7.98458
8.12854
8.49955
9.26511
10.5685
11.6885
16.1479
13.8634
11.4713
10.2783
10.3323
11.9346
16.3878
26.4548
42.5975
53.717
16.2197
14.3571
12.3596
11.4857
11.7112
13.2171
17.3644
27.4086
45.3062
61.1599
16.4875
14.5908
12.7999
12.2234
12.6762
14.2217
18.1223
27.9582
48.2197
73.0413
16.2359
14.3512
12.8167
12.5135
13.1726
14.8394
18.6177
27.9853
49.9405
85.3875
15.7531
13.8831
12.5323
12.38
13.1318
14.8796
18.6223
27.4993
50.5532
97.0399
14.5969
12.8851
11.8415
11.886
12.7272
14.5048
18.1665
26.3668
49.6202
106.208
11.9811
10.6748
10.089
10.3142
11.0901
12.5957
15.7404
22.7033
44.2485
106.79
7.76403
7.27768
7.20199
7.37293
7.68864
8.22841
9.53335
13.2966
27.4762
79.9004
8.0037
7.98145
7.97406
7.97277
7.97218
7.97216
7.98847
8.09864
8.59239
10.0045
8.39921
8.15473
7.94191
7.83522
7.8337
7.95945
8.28913
8.99068
10.2366
11.3588
15.4078
13.1141
10.7565
9.58982
9.60236
11.0161
14.997
24.0017
38.3379
47.4089
14.7807
12.8983
10.8933
9.95262
10.0288
11.2727
14.8763
23.6574
38.8677
50.1971
14.6828
12.7096
10.8625
10.143
10.3508
11.5426
14.8414
23.4218
40.3989
57.3394
14.2298
12.2512
10.6654
10.1945
10.5464
11.7542
14.8073
22.919
41.1496
65.0991
13.656
11.7227
10.3662
10.0648
10.4931
11.7104
14.6067
22.2068
41.167
72.7066
12.6759
10.9481
9.92989
9.8394
10.3574
11.5717
14.2958
21.1963
40.0612
78.8535
10.6858
9.42117
8.87341
8.99014
9.49925
10.5093
12.7464
18.3928
35.4211
78.7096
7.37037
6.91086
6.8414
6.96856
7.19107
7.54693
8.38273
11.0398
21.2534
56.9315
7.87314
7.85333
7.84666
7.8446
7.84279
7.84093
7.85017
7.9298
8.32234
9.58116
8.21992
7.97674
7.77558
7.67838
7.67603
7.78485
8.07688
8.72137
9.91186
11.0398
14.8836
12.5613
10.2262
9.08742
9.07808
10.3628
14.0316
22.3889
35.7743
44.1763
13.7512
11.8433
9.85401
8.90108
8.90172
9.97004
13.1668
21.0215
34.6214
44.1691
13.3272
11.32
9.48359
8.71384
8.78289
9.73095
12.5517
20.0884
34.9582
48.3841
12.6744
10.6786
9.1251
8.58742
8.74822
9.62575
12.093
19.0687
34.7864
53.0919
11.9997
10.0928
8.80627
8.44453
8.6599
9.48497
11.6913
18.0752
34.17
57.7627
11.1427
9.47516
8.53325
8.37581
8.66922
9.45946
11.4233
17.0622
32.7957
61.5143
9.65013
8.45998
7.96651
8.01729
8.33811
8.98094
10.498
14.8938
28.6511
60.455
7.0419
6.60816
6.54479
6.63974
6.79494
7.02278
7.53529
9.32662
16.7554
42.1839
7.7362
7.71857
7.71279
7.71044
7.70809
7.70542
7.71017
7.76561
8.0682
9.1596
8.03166
7.79259
7.60354
7.51543
7.51218
7.60515
7.86241
8.45391
9.59539
10.7276
14.5028
12.1372
9.81075
8.69359
8.6665
9.85256
13.3098
21.2908
34.1867
42.3872
13.0245
11.0791
9.1104
8.17173
8.13764
9.08629
11.9924
19.2292
31.8985
40.7764
12.3305
10.3081
8.52111
7.76106
7.76444
8.55036
11.0131
17.7739
31.3254
43.2406
11.4892
9.52224
8.0548
7.52275
7.58352
8.23975
10.2643
16.3215
30.3426
45.9548
10.7135
8.89006
7.72086
7.3642
7.4604
8.01973
9.70587
15.0518
29.0868
48.5335
9.9364
8.37592
7.5397
7.36685
7.52342
8.02355
9.42017
13.9632
27.3712
50.4696
8.82779
7.72673
7.29312
7.30883
7.50753
7.90206
8.89987
12.2463
23.5721
48.647
6.76889
6.35712
6.29861
6.36987
6.47764
6.61995
6.92512
8.11734
13.6749
33.1749
7.59234
7.57648
7.57157
7.56927
7.56685
7.56404
7.56622
7.60436
7.8357
8.7842
7.83594
7.60354
7.4267
7.34721
7.34306
7.42139
7.64672
8.18994
9.28769
10.4191
14.2037
11.7871
9.4598
8.35756
8.31138
9.41249
12.7135
20.4732
33.125
41.288
12.5041
10.5098
8.55767
7.64163
7.58999
8.44871
11.143
17.9866
30.1541
38.824
11.5974
9.56504
7.8428
7.12122
7.09755
7.77043
9.96768
16.1928
28.9796
40.3238
10.5884
8.67173
7.3136
6.82467
6.84058
7.35041
9.05127
14.4285
27.3636
41.7912
9.72371
8.0092
6.97387
6.65612
6.69453
7.08307
8.39722
12.9395
25.5363
42.9164
8.99658
7.56127
6.8376
6.67756
6.7587
7.07392
8.07549
11.7584
23.4594
43.5008
8.17881
7.16649
6.78943
6.78793
6.91094
7.14809
7.80115
10.3554
19.9013
41.1107
6.54129
6.14698
6.09172
6.14538
6.22031
6.30724
6.48618
7.2926
11.632
27.8226
7.44096
7.42636
7.42218
7.42013
7.41795
7.41537
7.4162
7.44254
7.6209
8.46142
7.63463
7.41093
7.24595
7.17441
7.16944
7.23464
7.43131
7.93172
8.99078
10.1154
13.9386
11.4697
9.13957
8.04946
7.98262
9.004
12.1743
19.7921
32.3295
40.5342
12.1133
10.0634
8.12326
7.23097
7.16732
7.9504
10.4789
17.0693
28.9973
37.6822
11.0445
9.00354
7.34911
6.67553
6.6412
7.22717
9.21919
15.0793
27.4717
38.7236
9.89528
8.03652
6.7911
6.35784
6.35621
6.76508
8.22591
13.1143
25.4016
39.4539
8.96317
7.36198
6.45636
6.18775
6.20172
6.48178
7.53358
11.4825
23.1184
39.606
8.26838
6.95719
6.33859
6.20199
6.24455
6.44724
7.18419
10.2313
20.7158
39.2031
7.66835
6.73614
6.40799
6.39828
6.47539
6.61748
7.05381
9.0487
17.3225
36.381
6.34861
5.96836
5.91508
5.95545
6.00793
6.06019
6.16492
6.7297
10.2673
24.5876
7.28138
7.26758
7.26395
7.26224
7.26044
7.25829
7.25846
7.27689
7.41688
8.17871
7.42949
7.21573
7.06181
6.99738
6.99177
7.04561
7.21738
7.68087
8.70643
9.8193
13.6712
11.1539
8.82755
7.75223
7.66505
8.60756
11.6527
19.1578
31.6451
39.9499
11.793
9.6876
7.76045
6.89272
6.81872
7.53272
9.91843
16.329
28.1657
36.9936
10.6057
8.55941
6.97303
6.3486
6.30924
6.82189
8.64385
14.2394
26.4586
37.882
9.3477
7.54948
6.41125
6.03319
6.02531
6.35942
7.63318
12.156
24.0693
38.1879
8.37513
6.88131
6.09166
5.86981
5.87471
6.0839
6.94589
10.4506
21.4444
37.6932
7.70397
6.50704
5.98007
5.86787
5.89159
6.02696
6.58687
9.16639
18.7795
36.5655
7.26541
6.4029
6.11565
6.10183
6.15126
6.23794
6.54122
8.14768
15.5038
33.3796
6.1802
5.81337
5.76142
5.79152
5.82871
5.86007
5.92246
6.33555
9.31823
22.4749
7.11286
7.09959
7.09636
7.09504
7.09366
7.09197
7.09187
7.10504
7.21763
7.92255
7.22153
7.01814
6.87423
6.81601
6.80998
6.85445
7.00529
7.43724
8.4341
9.53236
13.3713
10.8154
8.50782
7.45547
7.35045
8.21271
11.1225
18.5052
30.9767
39.4606
11.4967
9.34474
7.44002
6.60098
6.51805
7.16584
9.41527
15.6702
27.4878
36.5554
10.2293
8.18678
6.67197
6.09625
6.05367
6.50069
8.17038
13.5442
25.6975
37.4588
8.89687
7.16276
6.12531
5.79736
5.78707
6.06202
7.18043
11.4004
23.0719
37.502
7.91252
6.51849
5.82955
5.64737
5.64916
5.80966
6.52735
9.67611
20.1954
36.5501
7.26227
6.16908
5.72024
5.62928
5.64381
5.73852
6.17631
8.39605
17.3346
34.8598
6.94221
6.14263
5.89006
5.87394
5.9065
5.96181
6.18322
7.51192
14.1623
31.3405
6.02639
5.6758
5.62522
5.64704
5.67364
5.69292
5.73202
6.04792
8.61812
20.9142
6.93487
6.92203
6.91918
6.91821
6.91722
6.91594
6.91576
6.92546
7.01861
7.68078
7.0104
6.81729
6.68249
6.62968
6.62345
6.66031
6.79362
7.19813
8.16884
9.25142
13.0135
10.4343
8.16855
7.15237
7.0342
7.81278
10.5644
17.7873
30.2568
39.02
11.1873
9.00657
7.14371
6.34222
6.25295
6.83476
8.94258
15.0254
26.8429
36.2464
9.87469
7.85248
6.41972
5.89417
5.8496
6.23581
7.75812
12.9045
25.0084
37.2342
8.50369
6.8428
5.90362
5.6204
5.6088
5.83476
6.81541
10.746
22.1879
37.0641
7.53585
6.23904
5.63865
5.48849
5.4889
5.61422
6.21582
9.04871
19.1292
35.7396
6.90834
5.91357
5.5319
5.45783
5.46744
5.53695
5.88637
7.80692
16.1381
33.5696
6.67548
5.9386
5.7168
5.699
5.72087
5.75892
5.92891
7.04627
13.0897
29.7481
5.87962
5.55146
5.50273
5.5175
5.53644
5.54902
5.57607
5.82745
8.0634
19.5793
6.747
6.73477
6.7323
6.73163
6.73095
6.73002
6.72985
6.73727
6.81624
7.43991
6.79401
6.61108
6.48522
6.43743
6.43125
6.46187
6.57984
6.95777
7.89957
8.96726
12.5756
9.99329
7.80108
6.83935
6.71475
7.40526
9.96444
16.9579
29.4169
38.5984
10.8341
8.65092
6.86004
6.11009
6.0185
6.53289
8.48104
14.3365
26.1251
35.991
9.5076
7.53195
6.20088
5.73003
5.68518
6.01364
7.38222
12.2494
24.2344
37.0402
8.13576
6.56701
5.72931
5.48679
5.4742
5.6584
6.50895
10.1215
21.235
36.6171
7.21239
6.01943
5.50027
5.37546
5.37454
5.47346
5.97645
8.49678
18.0569
34.9284
6.6135
5.71996
5.39753
5.33597
5.3422
5.39562
5.67778
7.32695
15.0096
32.3135
6.44781
5.78023
5.58683
5.56728
5.58179
5.61065
5.74727
6.69058
12.1397
28.2455
5.73563
5.43837
5.39206
5.4005
5.41351
5.42255
5.44409
5.65024
7.58794
18.2637
6.54909
6.53781
6.53573
6.53528
6.53483
6.53417
6.53405
6.53992
6.60763
7.187
6.56833
6.39637
6.28071
6.23817
6.23229
6.25752
6.36057
6.70777
7.6086
8.66225
12.0346
9.47689
7.40121
6.5179
6.39513
6.99163
9.31133
15.9599
28.3603
38.16
10.4095
8.25951
6.58242
5.90269
5.81385
6.25753
8.01434
13.5416
25.2158
35.707
9.09695
7.20768
6.0075
5.59836
5.55543
5.82778
7.02591
11.5132
23.2055
36.7008
7.76686
6.32116
5.59354
5.38897
5.37557
5.52364
6.24468
9.47284
20.0402
35.9067
6.91581
5.84456
5.40343
5.29854
5.29589
5.37469
5.78992
7.97352
16.8207
33.8126
6.3561
5.57421
5.30525
5.25228
5.25552
5.29849
5.52711
6.91148
13.8136
30.7694
6.24818
5.66079
5.49389
5.47213
5.48107
5.50529
5.61938
6.40762
11.2097
26.5569
5.59386
5.33627
5.29294
5.2956
5.30379
5.3111
5.33083
5.50268
7.14888
16.8184
6.34091
6.33104
6.32932
6.32901
6.32872
6.32826
6.32822
6.33298
6.39034
6.91035
6.32753
6.16957
6.06718
6.03078
6.02552
6.04567
6.13237
6.43867
7.27272
8.3071
11.3604
8.87022
6.972
6.1968
6.08449
6.57877
8.59451
14.7187
26.9227
37.6106
9.88365
7.81691
6.30828
5.72066
5.63999
6.00754
7.52817
12.5657
23.9355
35.2668
8.61393
6.86933
5.83639
5.49647
5.45752
5.67501
6.67825
10.6344
21.713
35.9594
7.3768
6.09762
5.49091
5.32201
5.30806
5.42495
6.01339
8.76256
18.4305
34.6136
6.62772
5.70445
5.34015
5.25095
5.24636
5.30996
5.64478
7.45147
15.2888
32.0551
6.12125
5.46534
5.24515
5.1977
5.19818
5.23448
5.41917
6.53476
12.4548
28.6225
6.07028
5.57403
5.43151
5.40714
5.41168
5.4339
5.53209
6.17388
10.2312
24.4373
5.45661
5.24566
5.20596
5.20367
5.20801
5.21456
5.23431
5.37737
6.72038
15.1286
6.12193
6.11391
6.11254
6.11231
6.11212
6.11183
6.11188
6.11572
6.16226
6.6016
6.06509
5.92748
5.84311
5.81419
5.80988
5.82492
5.89257
6.14266
6.86703
7.85871
10.5052
8.16316
6.52569
5.89095
5.79681
6.18012
7.8137
13.1343
24.8087
36.6859
9.21897
7.3127
6.03831
5.5638
5.49591
5.7822
7.01331
11.3281
22.0033
34.3725
8.0345
6.51453
5.68517
5.41936
5.38608
5.55089
6.33465
9.57203
19.5071
34.3678
6.95423
5.89195
5.41428
5.27845
5.26456
5.35529
5.80952
7.97865
16.254
32.2789
6.33729
5.58975
5.30073
5.22436
5.21822
5.27076
5.53183
6.92321
13.3787
29.2453
5.89893
5.38168
5.20608
5.16255
5.16091
5.19324
5.34133
6.18539
10.8925
25.5453
5.90835
5.51039
5.39018
5.36353
5.36485
5.38663
5.47289
5.97309
9.17193
21.6543
5.32677
5.16639
5.13148
5.12569
5.12729
5.1336
5.15373
5.26989
6.29218
13.1214
5.8911
5.88524
5.8842
5.88401
5.88389
5.88374
5.88389
5.8869
5.92161
6.25848
5.77671
5.66885
5.60763
5.58742
5.58432
5.59425
5.6404
5.81825
6.37543
7.26342
9.40673
7.35855
6.08103
5.61391
5.5433
5.8111
6.99056
11.1343
21.5399
34.6795
8.37373
6.74698
5.77273
5.4246
5.37256
5.57659
6.47281
9.78354
19.0349
32.3054
7.34786
6.14796
5.54659
5.35405
5.32771
5.44518
5.99822
8.34238
16.3691
31.1259
6.49792
5.69825
5.35041
5.24469
5.23204
5.30205
5.62768
7.14898
13.4571
28.2482
6.03833
5.48718
5.27041
5.20562
5.19906
5.24398
5.43948
6.40282
11.1125
24.9071
5.68092
5.30871
5.17435
5.13483
5.13224
5.1624
5.28002
5.86334
9.17259
21.2392
5.75154
5.45446
5.35552
5.32795
5.32746
5.34964
5.42619
5.79172
8.04791
18.0206
5.20539
5.09643
5.0681
5.06083
5.06092
5.06711
5.08686
5.17612
5.87086
10.8076
5.64708
5.64341
5.64268
5.64252
5.64245
5.64243
5.64268
5.64489
5.66737
5.88859
5.46556
5.39689
5.36149
5.35015
5.34835
5.35365
5.37851
5.47708
5.81493
6.48169
8.02564
6.49099
5.65749
5.36707
5.32193
5.48076
6.1808
8.79341
16.5968
29.9137
7.33339
6.14117
5.50621
5.28173
5.24634
5.37559
5.92739
8.00885
14.7189
27.5635
6.58126
5.78035
5.40334
5.27569
5.25694
5.33626
5.67497
7.06109
12.347
25.0552
6.02229
5.50515
5.27722
5.19875
5.18871
5.24291
5.45591
6.34554
10.2424
21.8356
5.72957
5.37649
5.22668
5.17401
5.16841
5.20763
5.34742
5.91889
8.70489
18.7408
5.46475
5.23128
5.13528
5.1012
5.09883
5.12721
5.21902
5.57531
7.4708
15.6899
5.58125
5.382
5.3048
5.27858
5.27757
5.30002
5.36726
5.61195
6.93805
13.5711
5.09299
5.032
5.01197
5.00517
5.00476
5.01057
5.02834
5.09074
5.48252
8.37535
5.3896
5.38777
5.38731
5.38719
5.38717
5.38723
5.38755
5.38899
5.40056
5.51284
5.14684
5.11932
5.10645
5.10234
5.10166
5.10351
5.11177
5.14409
5.26362
5.57135
6.4944
5.65603
5.26434
5.12781
5.10514
5.17573
5.462
6.51157
10.2384
19.7408
6.22016
5.5393
5.21359
5.09226
5.0713
5.13884
5.39242
6.27736
9.4675
18.2872
5.83364
5.40594
5.21075
5.13614
5.12432
5.17175
5.33735
5.91003
8.17244
15.7041
5.55416
5.27496
5.14776
5.09723
5.09064
5.12748
5.24481
5.62858
7.22066
13.4505
5.40778
5.21543
5.12685
5.09085
5.08715
5.11611
5.20233
5.46654
6.58229
11.5901
5.24961
5.1238
5.06493
5.04078
5.03919
5.06087
5.12235
5.30023
6.05578
9.90357
5.36505
5.24902
5.19755
5.17749
5.17678
5.19531
5.24566
5.38471
5.95207
9.05962
4.99413
4.96912
4.95825
4.9537
4.9533
4.95736
4.96955
5.00466
5.16273
6.31529
5.1203
5.11969
5.11949
5.11943
5.11944
5.11951
5.11974
5.12044
5.12424
5.15891
13.1239
12.9625
12.7714
12.5646
154.204
143.781
136.505
134.074
193.545
180.985
170.796
165.569
234.846
219.59
205.791
196.878
275.552
256.722
238.071
223.732
316.678
293.389
268.785
247.631
351.369
323.313
292.574
264.404
360.545
329.085
294.234
261.525
284.042
256.28
226.35
199.16
12.3966
12.0414
11.547
11.0423
12.0272
11.6888
11.4451
11.3071
189.388
165.315
144.711
133.065
242.446
215.156
189.014
172.457
299.594
270.291
238.119
216.321
356.316
326.534
287.991
260.162
415.489
386.207
340.775
305.792
469.185
441.009
389.14
347.077
491.869
466.181
411.118
365.473
394.754
374.132
328.24
293.848
12.2515
12.0037
11.5613
11.0243
11.0905
10.7127
10.4774
10.3743
88.9999
81.4625
72.509
64.1572
117.78
107.702
94.2366
80.4129
151.547
138.422
119.991
100.427
186.051
170.209
146.816
121.135
222.831
204.973
176.511
143.845
258.704
239.147
205.609
165.525
278.647
258.345
221.91
177.371
225.184
206.38
177.335
144.222
10.9061
10.6951
10.4163
10.133
10.7818
10.3915
10.1468
10.0418
55.8321
49.8742
44.0645
39.9024
69.1137
61.1255
52.8245
46.4713
86.7469
75.7854
64.2532
55.491
105.235
90.8732
75.7491
64.3558
124.31
106.601
87.7792
73.4882
141.743
120.802
98.3122
81.0577
150.007
126.89
102.223
83.5474
121.245
99.945
80.137
67.1326
10.2898
10.0762
9.85851
9.6757
10.5284
10.1609
9.92604
9.82031
43.607
39.1932
35.1136
32.3012
49.5906
44.1959
38.8844
34.9118
59.2757
52.2179
45.1675
39.9313
69.8311
60.6944
51.5218
44.8428
80.9568
69.5422
58.0548
49.8158
90.9423
77.1175
63.3021
53.5788
94.9949
79.4402
64.2635
54.0287
76.7884
62.6174
50.2142
42.9575
9.91969
9.72096
9.52536
9.36212
10.2865
9.94432
9.72299
9.62013
38.3402
34.5546
31.1925
28.9823
40.3153
36.025
31.9602
29.0137
45.6885
40.364
35.2529
31.5552
51.6585
44.9944
38.5667
34.0227
58.0962
49.9188
42.0092
36.5619
63.8684
54.0393
44.6006
38.3317
65.5475
54.5366
44.225
37.8258
51.7045
42.0262
33.7412
29.4221
9.56442
9.39276
9.21998
9.07352
10.0473
9.72924
9.52186
9.42239
35.6478
32.1709
29.1924
27.3345
35.2586
31.5471
28.1813
25.8579
38.1645
33.7817
29.7585
26.9627
41.4366
36.1642
31.289
27.9547
45.0169
38.7317
32.8735
28.9579
48.213
40.8259
33.9395
29.5129
48.4556
40.3736
32.9629
28.5675
37.3398
30.6935
25.0312
22.3233
9.21101
9.07664
8.93542
8.8126
9.80001
9.50358
9.30934
9.21289
34.058
30.7081
27.9244
26.2765
32.3538
28.9425
25.9858
24.0671
33.8317
29.961
26.5922
24.4021
35.4556
30.9704
27.0476
24.5377
37.2042
32.0257
27.4477
24.5743
38.7352
32.8176
27.5526
24.3707
38.1411
31.8738
26.3504
23.3041
29.2969
24.5398
20.6149
18.9745
8.88011
8.77892
8.66967
8.57391
9.53799
9.25986
9.07771
8.98408
32.9187
29.5855
26.8881
25.3704
30.5742
27.3016
24.5799
22.923
31.3119
27.7138
24.7459
22.9673
31.9747
27.9448
24.6335
22.7098
32.5523
28.0502
24.3233
22.2157
32.9845
27.9982
23.8382
21.5865
31.9322
26.8395
22.6235
20.5865
24.9457
21.3769
18.6057
17.6895
8.57604
8.49724
8.41422
8.3453
9.25919
8.9953
8.82392
8.73316
31.9537
28.566
25.8914
24.4615
29.3739
26.1291
23.5265
22.0381
29.8112
26.3261
23.5877
22.0848
29.9833
26.1973
23.2699
21.7591
29.8651
25.7723
22.6139
21.0698
29.5911
25.2059
21.8126
20.2647
28.2806
23.9652
20.6669
19.3922
22.5545
19.7383
17.7306
17.3172
8.28933
8.22211
8.15887
8.1159
8.96363
8.70942
8.54731
8.4598
31.0359
27.5474
24.8615
23.5004
28.4546
25.1617
22.6048
21.2305
28.8448
25.3606
22.7373
21.4245
28.8146
25.127
22.4284
21.2135
28.3226
24.4601
21.6744
20.5467
27.6147
23.6137
20.7495
19.7301
26.1298
22.3313
19.6738
18.9656
21.0905
18.7569
17.2641
17.2185
8.0111
7.94689
7.89821
7.88028
8.65271
8.40324
8.2487
8.16518
30.1047
26.4853
23.774
22.4788
27.6603
24.2687
21.7154
20.4293
28.1344
24.5738
21.9944
20.826
28.0506
24.3615
21.7911
20.8037
27.3701
23.6141
21.0692
20.263
26.3916
22.6257
20.1255
19.5119
24.7572
21.2986
19.0878
18.8056
20.0073
17.9864
16.8501
17.088
7.73711
7.6697
7.63156
7.63742
8.3277
8.07827
7.9296
7.85129
29.1378
25.3692
22.6301
21.4072
26.9079
23.3853
20.8159
19.6121
27.5184
23.8322
21.2583
20.218
27.4354
23.6821
21.1824
20.391
26.6517
22.923
20.5377
20.0006
25.4816
21.8531
19.6102
19.3262
23.7054
20.4679
18.5749
18.6278
19.0285
17.2124
16.33
16.796
7.46611
7.39149
7.36076
7.38864
7.98892
7.73605
7.59205
7.5208
28.1307
24.2022
21.4414
20.3038
26.1453
22.4741
19.8863
18.7752
26.8918
23.0537
20.4723
19.5661
26.7989
22.9511
20.4982
19.8986
25.9317
22.1903
19.924
19.6353
24.5962
21.0516
19.0061
19.0119
22.6942
19.6049
17.9503
18.2857
18.0137
16.3359
15.641
16.2964
7.19426
7.11293
7.08805
7.13499
7.6344
7.37741
7.23811
7.17641
27.0857
22.9933
20.2216
19.1881
25.3378
21.5095
18.9122
17.9171
26.164
22.1705
19.5896
18.8424
26.0008
22.0603
19.6587
19.2683
25.029
21.2732
19.1195
19.0822
23.5301
20.0574
18.1879
18.4701
21.5474
18.5735
17.117
17.7106
16.891
15.3212
14.7729
15.5856
6.91195
6.82736
6.80738
6.8683
7.25863
7.00164
6.86911
6.81995
25.9912
21.7406
18.9751
18.0732
24.4369
20.4535
17.8659
17.0247
25.2226
21.099
18.5493
18.0059
24.8902
20.8978
18.5804
18.4364
23.7753
20.0467
18.0306
18.2663
22.1202
18.7515
17.0694
17.6318
20.15
17.3002
16.0328
16.8748
15.6078
14.1525
13.7275
14.6556
6.61123
6.5292
6.51328
6.58052
6.85167
6.60562
6.48466
6.45088
24.777
20.3963
17.6668
16.9438
23.3337
19.2223
16.6805
16.0536
23.8849
19.7074
17.2513
16.9813
23.2712
19.3248
17.1584
17.3141
21.9898
18.3876
16.5661
17.1025
20.2217
17.0438
15.5879
16.4303
18.412
15.7487
14.6841
15.7497
14.0861
12.7913
12.4722
13.4411
6.28524
6.21329
6.20062
6.26439
6.39929
6.18359
6.08197
6.06513
23.1783
18.7758
16.1574
15.7013
21.7592
17.6256
15.2062
14.8847
21.8207
17.772
15.5256
15.6132
20.8591
17.1571
15.2507
15.7453
19.4474
16.1614
14.6206
15.4452
17.6702
14.8499
13.675
14.7346
16.2007
13.8631
13.0222
14.2091
12.1891
11.1402
10.9029
11.781
5.92961
5.87536
5.86525
5.91516
5.88911
5.73063
5.65848
5.65696
20.4577
16.3773
14.0669
14.0015
19.0698
15.2451
13.1207
13.186
18.4349
14.9147
13.0729
13.5246
17.2077
14.1243
12.6262
13.3646
15.808
13.1708
12.0047
12.9362
14.2031
12.0232
11.1673
12.1988
13.2263
11.4567
10.8395
11.8756
9.7608
9.06109
8.87181
9.47751
5.55084
5.51887
5.51117
5.54014
5.33115
5.25525
5.22171
5.22812
14.9239
12.032
10.4498
10.7194
14.001
11.2497
9.71445
9.96912
12.9501
10.6117
9.36429
9.81629
11.8848
9.92086
8.90845
9.44332
10.8572
9.23882
8.44391
9.01805
9.77153
8.48338
7.88835
8.4603
9.36831
8.33973
7.88332
8.41948
7.06819
6.70674
6.54184
6.79833
5.17595
5.16397
5.15957
5.16925
11.8621
10.6855
9.93793
9.43486
9.11681
8.94732
8.89451
8.9279
9.01066
9.09189
158.796
84.6462
53.1691
36.8644
27.9509
23.3144
21.3194
20.9657
21.4305
21.8587
177.471
86.2265
53.848
38.1927
30.165
26.269
24.8741
24.9834
25.8012
26.5313
194.379
89.9298
55.7133
39.8517
31.952
28.0824
26.6451
26.7006
27.5308
28.3703
205.912
91.6987
56.5314
40.8981
33.2173
29.3552
27.7929
27.6679
28.3585
29.1393
214.463
92.5993
56.8234
41.6175
34.1509
30.2578
28.4934
28.0748
28.4893
29.0643
217.22
90.0003
54.2901
39.8097
32.6841
28.8968
27.0514
26.4269
26.5984
26.957
205.548
80.8218
47.0611
33.8362
27.2767
23.7407
21.8868
21.0682
20.9529
21.0458
151.511
55.2511
29.7167
19.7795
14.9779
12.5423
11.2891
10.681
10.4802
10.4547
10.2991
9.38427
8.91785
8.68327
8.56998
8.51779
8.49565
8.48927
8.49278
8.4965
11.0278
10.404
9.82133
9.34767
9.02157
8.83419
8.76263
8.78212
8.86258
8.95878
104.495
65.9452
46.02
33.05
25.234
20.9064
18.9438
18.5929
19.1814
19.9444
123.313
69.1728
47.0475
33.9888
26.6604
22.8555
21.3649
21.388
22.2269
23.1457
146.488
75.3458
49.9128
35.8888
28.3103
24.3618
22.7427
22.6657
23.483
24.48
166.73
79.6378
51.5706
37.0188
29.3576
25.311
23.5326
23.2703
23.9553
24.9256
184.779
82.7858
52.5088
37.7404
30.0933
25.9776
24.0193
23.5028
23.9569
24.7955
196.845
82.6863
50.8292
36.2085
28.7475
24.7132
22.701
22.0172
22.2714
22.9744
195.154
77.0304
45.1452
31.2391
24.2176
20.4195
18.4183
17.5507
17.521
17.9959
151.725
55.9824
29.8403
19.0002
13.889
11.3967
10.163
9.58115
9.42123
9.56291
10.2205
9.33348
8.80879
8.5453
8.42381
8.37155
8.35144
8.34721
8.35369
8.36417
10.2967
9.9464
9.4958
9.10029
8.82597
8.67389
8.6249
8.65658
8.74063
8.83258
51.9476
41.0436
32.6529
25.5373
20.5352
17.6144
16.3884
16.446
17.2763
18.1672
59.5867
44.486
34.5859
26.8115
21.732
18.9553
17.9383
18.1878
19.1531
20.1256
70.3538
50.3961
38.091
29.0021
23.3687
20.2955
19.0675
19.1668
20.078
21.0961
80.2614
55.0504
40.4895
30.3868
24.3843
21.0831
19.6344
19.5227
20.2984
21.2963
89.6238
58.6801
42.1432
31.3543
25.1274
21.6511
19.9821
19.614
20.1803
21.0876
96.1919
59.674
41.5111
30.3749
24.1213
20.6326
18.8748
18.3369
18.7226
19.539
96.8419
56.6801
37.5208
26.5291
20.5329
17.2185
15.4632
14.7506
14.8616
15.47
78.47
42.2694
24.8735
16.2023
12.0578
10.0897
9.14659
8.73529
8.68077
8.86806
9.79188
9.08636
8.62511
8.39887
8.29953
8.25841
8.24334
8.24116
8.24759
8.25688
9.97995
9.66852
9.25035
8.89112
8.64956
8.52189
8.48811
8.52692
8.61143
8.69756
35.2262
30.7407
25.6999
20.812
17.2317
15.1925
14.487
14.8356
15.8173
16.7744
39.0456
32.7189
26.6892
21.3411
17.6584
15.6682
15.0669
15.5289
16.6046
17.6325
45.5673
37.2119
29.5267
23.1735
19.01
16.7396
15.9262
16.2297
17.2378
18.2869
51.7362
41.0507
31.6658
24.4374
19.8911
17.3693
16.3202
16.4067
17.2786
18.303
57.6681
44.3253
33.3626
25.4553
20.6172
17.8709
16.5768
16.4026
17.0741
18.0217
61.8758
45.6996
33.2816
24.9088
19.9438
17.1226
15.7093
15.3575
15.8546
16.725
62.75
44.0226
30.4467
22.0002
17.1945
14.504
13.0878
12.5744
12.8114
13.4853
51.9739
32.6832
19.9374
13.4912
10.4332
9.01008
8.34707
8.08647
8.11053
8.32116
9.48115
8.82651
8.42373
8.2409
8.16466
8.13408
8.12347
8.1229
8.12925
8.13769
9.74784
9.43683
9.03954
8.70535
8.48634
8.37446
8.34927
8.39057
8.47273
8.55196
29.1334
25.7532
21.7496
17.8869
15.1363
13.6552
13.2687
13.7687
14.8031
15.7582
30.123
25.6624
21.2361
17.2814
14.5819
13.1877
12.8989
13.5037
14.6396
15.6862
33.8449
28.3793
23.0431
18.4989
15.4785
13.867
13.3961
13.8593
14.9369
16.0016
37.4612
30.9061
24.5657
19.4439
16.1203
14.2826
13.5923
13.8522
14.8042
15.8442
41.0762
33.3126
25.971
20.3468
16.7512
14.6866
13.7537
13.7609
14.5218
15.4895
43.6488
34.5389
26.1241
20.0862
16.3362
14.1702
13.106
12.9345
13.5239
14.4145
44.019
33.508
24.1105
17.9398
14.3009
12.2407
11.1745
10.8564
11.1977
11.8994
35.9451
24.4955
15.6918
11.2328
9.1294
8.16047
7.72203
7.57456
7.65
7.86739
9.1719
8.56937
8.22883
8.08576
8.02877
8.00644
7.99912
7.99952
8.00544
8.01287
9.54098
9.23048
8.84789
8.53145
8.32732
8.22492
8.20369
8.24437
8.32251
8.39464
26.5258
23.5407
19.8532
16.4002
14.0271
12.8104
12.5641
13.1099
14.138
15.062
25.4424
21.7707
18.0198
14.7606
12.6093
11.5592
11.438
12.0962
13.235
14.2676
27.2082
22.9722
18.7703
15.2429
12.9388
11.7588
11.5062
12.0554
13.1587
14.2232
28.9808
24.2127
19.5256
15.7054
13.2241
11.8826
11.4531
11.8289
12.8262
13.8747
30.8712
25.5689
20.407
16.3113
13.646
12.1233
11.4841
11.6314
12.4513
13.4316
32.2124
26.29
20.521
16.1538
13.3736
11.7641
11.0054
10.9841
11.6362
12.5336
32.1217
25.4714
19.0397
14.5891
11.9189
10.4109
9.65804
9.50594
9.91909
10.6266
25.9384
18.5548
12.5935
9.55733
8.15042
7.51305
7.23774
7.16867
7.27377
7.48808
8.88472
8.33507
8.04568
7.933
7.89034
7.8741
7.86912
7.87008
7.87543
7.88197
9.33646
9.02669
8.65595
8.35456
8.16206
8.0663
8.04685
8.08549
8.15904
8.22469
25.3125
22.5103
18.9139
15.6243
13.4218
12.3271
12.1376
12.6882
13.6951
14.5868
23.0731
19.813
16.3133
13.3554
11.4641
10.5771
10.5188
11.1705
12.2774
13.2779
23.675
20.0198
16.2616
13.2133
11.2845
10.3381
10.1917
10.7614
11.8513
12.8979
24.2431
20.2802
16.3028
13.1675
11.1797
10.1453
9.87246
10.3019
11.3049
12.3461
24.8802
20.6896
16.5682
13.3707
11.3154
10.1729
9.74225
9.97771
10.8197
11.7969
25.2812
20.8356
16.464
13.1651
11.0761
9.89031
9.36988
9.45692
10.137
11.0239
24.8757
20.0424
15.3195
12.0256
10.0741
8.99866
8.49505
8.46626
8.91571
9.60818
20.4237
14.8696
10.5597
8.40236
7.44853
7.03344
6.86852
6.85022
6.9693
7.17395
8.63314
8.11993
7.87105
7.78019
7.74784
7.73602
7.73274
7.734
7.73878
7.74458
9.11968
8.81172
8.45317
8.16649
7.98489
7.89489
7.87645
7.9126
7.9817
8.04209
24.5401
21.8579
18.3156
15.1223
13.0225
11.9969
11.8359
12.3846
13.3777
14.2491
21.8329
18.8295
15.4224
12.5819
10.8036
9.98275
9.93473
10.5568
11.6256
12.5951
21.8958
18.5696
14.9344
12.0474
10.2751
9.42743
9.31227
9.86215
10.9171
11.9366
21.8246
18.2605
14.4811
11.5993
9.84373
8.96489
8.76355
9.19675
10.1729
11.1891
21.6803
17.9816
14.2018
11.404
9.68684
8.77613
8.47189
8.74603
9.57443
10.5278
21.4631
17.6354
13.806
11.0656
9.40623
8.50817
8.15211
8.30261
8.9767
9.83337
20.9376
16.8188
12.8397
10.2176
8.73729
7.96422
7.63649
7.68578
8.14008
8.80039
17.898
12.8735
9.29712
7.63972
6.96184
6.68728
6.59249
6.60423
6.72627
6.91684
8.40943
7.91808
7.69978
7.62489
7.60001
7.59143
7.58937
7.59078
7.59503
7.60027
8.88429
8.58021
8.2354
7.96407
7.79361
7.70936
7.69184
7.72558
7.79085
7.84772
23.8429
21.2628
17.7895
14.6913
12.6792
11.7081
11.5698
12.1224
13.1161
13.9831
21.0676
18.2311
14.8699
12.0863
10.3655
9.57319
9.52028
10.1154
11.159
12.1118
21.0263
17.8893
14.2449
11.3737
9.6467
8.82858
8.70973
9.22642
10.244
11.2386
20.7591
17.3852
13.5542
10.6856
9.0012
8.18179
7.99947
8.40757
9.33889
10.3199
20.2577
16.7353
12.9087
10.1857
8.61163
7.81995
7.57922
7.85508
8.64406
9.557
19.7293
16.059
12.2531
9.69778
8.26146
7.53625
7.27982
7.45558
8.09743
8.90818
19.2216
15.1945
11.352
9.02727
7.82006
7.23879
7.02252
7.1121
7.54867
8.16614
17.0371
11.8856
8.53383
7.14592
6.63122
6.44244
6.38948
6.41658
6.53408