/*--------------------------------*- C++ -*----------------------------------*\
| =========                 |                                                 |
| \\      /  F ield         | foam-extend: Open Source CFD                    |
|  \\    /   O peration     | Version:     4.0                                |
|   \\  /    A nd           | Web:         http://www.foam-extend.org         |
|    \\/     M anipulation  |                                                 |
\*---------------------------------------------------------------------------*/
FoamFile
{
    version     2.0;
    format      ascii;
    class       volScalarField;
    location    "50";
    object      MaU;
}
// * * * * * * * * * * * * * * * * * * * * * * * * * * * * * * * * * * * * * //

dimensions      [0 0 0 0 0 0 0];

internalField   nonuniform List<scalar> 
34480
(
0.37399
0.378738
0.382275
0.38549
0.388634
0.391809
0.394987
0.396979
0.394209
0.387703
0.350285
0.357573
0.363548
0.368638
0.373113
0.377017
0.380053
0.381114
0.377119
0.378334
0.343158
0.350535
0.356965
0.363014
0.36895
0.374915
0.380571
0.384892
0.383913
0.391599
0.341805
0.349416
0.356162
0.362872
0.369702
0.376917
0.384372
0.391426
0.393505
0.407249
0.342279
0.350163
0.357128
0.364277
0.371622
0.379581
0.38834
0.397804
0.403268
0.423041
0.342404
0.350395
0.357391
0.364754
0.372401
0.380929
0.390909
0.402778
0.412126
0.437956
0.34312
0.350924
0.357632
0.364901
0.372662
0.381732
0.393018
0.407357
0.420873
0.452348
0.346716
0.353713
0.359524
0.366144
0.373643
0.383019
0.39534
0.411657
0.429
0.465302
0.357724
0.362257
0.366006
0.371363
0.378565
0.388594
0.402252
0.420245
0.440555
0.479875
0.364477
0.366763
0.368848
0.372784
0.378916
0.388125
0.401264
0.419619
0.44358
0.489015
0.368736
0.373379
0.376489
0.378924
0.380825
0.382003
0.381936
0.379172
0.372563
0.358923
0.346143
0.353322
0.358965
0.363345
0.366664
0.368746
0.368757
0.364544
0.354641
0.344407
0.340112
0.347326
0.35333
0.358564
0.363274
0.367375
0.370019
0.368827
0.361465
0.356625
0.339368
0.346797
0.353085
0.358986
0.364669
0.370141
0.374676
0.376115
0.371368
0.371655
0.340231
0.347906
0.354407
0.360815
0.367163
0.373572
0.379543
0.383384
0.381612
0.387342
0.340629
0.348409
0.354983
0.361729
0.368568
0.375761
0.383062
0.389304
0.391001
0.402512
0.34162
0.349235
0.355602
0.362412
0.369559
0.377475
0.38613
0.394813
0.400283
0.417447
0.345424
0.352248
0.357828
0.364171
0.371264
0.37968
0.389457
0.400174
0.409188
0.431467
0.356275
0.360726
0.364418
0.369635
0.376482
0.385575
0.396851
0.409694
0.421734
0.447458
0.362833
0.365166
0.367429
0.371486
0.377501
0.386022
0.397158
0.411038
0.427247
0.46077
0.364937
0.369132
0.371709
0.373517
0.374651
0.374919
0.373941
0.370778
0.363255
0.347681
0.343176
0.350034
0.355207
0.358881
0.361291
0.362218
0.360731
0.354842
0.342246
0.325282
0.337977
0.344918
0.350456
0.354947
0.358686
0.361491
0.362253
0.358464
0.346572
0.329981
0.337822
0.345013
0.350841
0.355995
0.360723
0.364902
0.36744
0.365668
0.35475
0.33877
0.339134
0.346566
0.352616
0.358315
0.363789
0.369
0.372985
0.37323
0.363836
0.34933
0.3399
0.347436
0.3536
0.359732
0.36583
0.371962
0.377311
0.379664
0.372393
0.360241
0.341242
0.348627
0.354669
0.360998
0.367555
0.374538
0.381243
0.385767
0.381055
0.371705
0.345256
0.351871
0.357264
0.363308
0.369987
0.377606
0.385469
0.3919
0.389815
0.383199
0.355704
0.360131
0.363954
0.369131
0.375669
0.383925
0.39323
0.40191
0.402534
0.397502
0.361869
0.364395
0.367081
0.371394
0.377334
0.385174
0.394518
0.404657
0.40979
0.410582
0.362058
0.365741
0.367802
0.369103
0.369735
0.369565
0.368369
0.365614
0.3597
0.346615
0.340698
0.347193
0.351907
0.35496
0.356621
0.356734
0.354538
0.348411
0.336541
0.320628
0.336209
0.34284
0.347915
0.351712
0.35455
0.356251
0.355792
0.351021
0.339107
0.322244
0.336635
0.343574
0.348945
0.353364
0.357124
0.360043
0.361029
0.357633
0.345754
0.327734
0.338425
0.345613
0.351201
0.356163
0.360675
0.364586
0.36683
0.364927
0.353535
0.334985
0.339602
0.346886
0.352608
0.358048
0.363244
0.368094
0.371571
0.371315
0.360932
0.342628
0.341312
0.348443
0.354097
0.35982
0.36556
0.371294
0.376007
0.377503
0.368566
0.351035
0.345466
0.351839
0.356956
0.362531
0.368509
0.374942
0.380774
0.383923
0.37672
0.360172
0.355435
0.359788
0.363578
0.368484
0.374404
0.38143
0.388597
0.393943
0.389109
0.373257
0.361325
0.363943
0.366812
0.371078
0.376609
0.383429
0.390793
0.39758
0.397227
0.38691
0.360129
0.363326
0.364939
0.365871
0.366226
0.365936
0.364891
0.36277
0.358264
0.347118
0.338908
0.345023
0.349309
0.351855
0.352988
0.352644
0.350228
0.344413
0.333742
0.319536
0.334925
0.341223
0.345859
0.34906
0.351185
0.352112
0.350983
0.346031
0.335061
0.319732
0.335859
0.342521
0.34745
0.351206
0.354133
0.356057
0.356008
0.351922
0.340535
0.323506
0.338092
0.345014
0.350145
0.354411
0.358043
0.360839
0.361798
0.358739
0.347224
0.328793
0.339661
0.346663
0.351931
0.356683
0.361005
0.364686
0.366684
0.364831
0.35357
0.334264
0.341697
0.348537
0.353775
0.358859
0.363763
0.368304
0.371373
0.37086
0.360211
0.340438
0.345907
0.352005
0.356801
0.361848
0.367071
0.372328
0.376427
0.377296
0.367664
0.347743
0.355386
0.359632
0.363323
0.36788
0.373124
0.37894
0.384214
0.387056
0.37941
0.359737
0.361081
0.363749
0.366714
0.370821
0.375841
0.381612
0.387208
0.39135
0.38779
0.37343
0.358923
0.361746
0.363015
0.363687
0.363895
0.363608
0.36278
0.361181
0.357602
0.347423
0.337669
0.343464
0.347395
0.349554
0.35034
0.349773
0.347375
0.341971
0.332239
0.319107
0.334089
0.34008
0.344322
0.34703
0.348616
0.349036
0.347595
0.342796
0.332822
0.318784
0.335488
0.34187
0.346374
0.349544
0.351779
0.35296
0.352281
0.348012
0.337524
0.321812
0.338138
0.344769
0.349443
0.353058
0.355908
0.357801
0.357874
0.354279
0.343429
0.326135
0.340067
0.34675
0.351541
0.355615
0.359113
0.361784
0.362682
0.359931
0.348963
0.330425
0.342373
0.348877
0.353657
0.35808
0.362155
0.365612
0.367394
0.365624
0.354798
0.335294
0.346549
0.352332
0.356753
0.36122
0.365657
0.369803
0.372491
0.371847
0.361616
0.34151
0.35553
0.359623
0.363134
0.367265
0.371789
0.376455
0.380139
0.381169
0.372651
0.35278
0.361111
0.363763
0.366713
0.370551
0.374982
0.379722
0.383796
0.385958
0.381059
0.366611
0.358313
0.360889
0.361915
0.362413
0.362542
0.362296
0.36166
0.360433
0.357428
0.347721
0.336895
0.342459
0.346122
0.348005
0.348578
0.347934
0.345653
0.340622
0.331523
0.319008
0.333662
0.339401
0.343315
0.345633
0.346835
0.346953
0.345414
0.340879
0.331687
0.318535
0.335501
0.341616
0.345727
0.348393
0.35008
0.350745
0.349729
0.34553
0.335891
0.321245
0.33854
0.344862
0.349081
0.352104
0.354291
0.3555
0.355017
0.35126
0.341239
0.325093
0.340785
0.34711
0.351406
0.354833
0.357591
0.359444
0.359585
0.35641
0.346162
0.328755
0.343292
0.349413
0.353702
0.357467
0.360762
0.363296
0.364135
0.361668
0.351369
0.332904
0.347349
0.352778
0.356776
0.360641
0.36431
0.367469
0.369071
0.367514
0.357641
0.338537
0.355851
0.359743
0.363
0.366654
0.370457
0.37409
0.376513
0.376332
0.368036
0.349433
0.361406
0.363968
0.3668
0.370282
0.374089
0.37787
0.3807
0.381486
0.376359
0.363614
0.35819
0.360627
0.361494
0.361879
0.361965
0.361762
0.361267
0.360285
0.357609
0.348088
0.336489
0.341917
0.345398
0.347093
0.347544
0.346894
0.344749
0.339994
0.331264
0.319018
0.333582
0.339147
0.342803
0.344826
0.345763
0.345717
0.344196
0.339924
0.331261
0.318599
0.335853
0.341734
0.345493
0.347737
0.349007
0.349335
0.348179
0.344164
0.335177
0.32122
0.339252
0.34526
0.349039
0.351535
0.353183
0.353903
0.353118
0.349422
0.340147
0.324857
0.341763
0.347701
0.351497
0.354324
0.356448
0.357675
0.357347
0.354069
0.344615
0.328199
0.344403
0.350105
0.353884
0.357018
0.359614
0.361404
0.361607
0.358848
0.349344
0.331977
0.348269
0.353314
0.356857
0.360124
0.36308
0.365409
0.366229
0.364213
0.35515
0.337329
0.356328
0.359976
0.362916
0.366067
0.369185
0.371932
0.373414
0.372523
0.365025
0.348135
0.361932
0.364333
0.366957
0.370026
0.37321
0.376139
0.378002
0.377915
0.373188
0.362712
0.358462
0.360836
0.361608
0.361921
0.361982
0.361813
0.361415
0.360588
0.358095
0.348616
0.336372
0.341745
0.345114
0.346687
0.34707
0.346445
0.344419
0.339843
0.331299
0.319103
0.333789
0.339255
0.342721
0.344526
0.345284
0.345157
0.3437
0.339649
0.331305
0.318842
0.336487
0.342176
0.345632
0.347531
0.348492
0.348611
0.347435
0.34364
0.335103
0.321509
0.340212
0.345918
0.349285
0.351325
0.352549
0.35294
0.352033
0.348522
0.339842
0.325094
0.342937
0.34848
0.351792
0.354078
0.355677
0.356452
0.355879
0.352706
0.343983
0.3283
0.345652
0.35092
0.35419
0.35674
0.358736
0.359955
0.359776
0.357009
0.348349
0.331914
0.349275
0.353924
0.356998
0.359693
0.362015
0.36368
0.363983
0.361836
0.353738
0.337144
0.356937
0.360308
0.362888
0.365534
0.368026
0.370045
0.370871
0.369652
0.363192
0.348027
0.36264
0.364816
0.367163
0.369789
0.372381
0.374586
0.375739
0.375172
0.37114
0.362901
0.359036
0.361387
0.362104
0.362373
0.36242
0.362277
0.361945
0.361215
0.358818
0.349324
0.336477
0.341855
0.345161
0.346657
0.347004
0.346415
0.344485
0.340016
0.331537
0.319254
0.334223
0.339655
0.342988
0.344631
0.345268
0.345104
0.343723
0.339834
0.331653
0.319185
0.337342
0.342886
0.346088
0.347709
0.348443
0.348442
0.347308
0.34372
0.335465
0.321979
0.341354
0.346782
0.349778
0.351434
0.352331
0.352514
0.351599
0.348326
0.340092
0.325616
0.344241
0.349405
0.352264
0.35408
0.35526
0.355724
0.355063
0.352116
0.344016
0.328808
0.346987
0.351832
0.354615
0.356642
0.358141
0.358943
0.358573
0.355981
0.348114
0.33239
0.350337
0.354596
0.35721
0.359376
0.361156
0.362312
0.36231
0.360253
0.353115
0.337562
0.357651
0.360723
0.362925
0.365085
0.367027
0.368471
0.368871
0.367592
0.362194
0.348576
0.36346
0.365363
0.367386
0.369567
0.371622
0.373235
0.373898
0.373135
0.369885
0.363588
0.359801
0.362136
0.362821
0.363064
0.363105
0.36298
0.362693
0.362025
0.359683
0.35019
0.336748
0.342175
0.345447
0.346893
0.347223
0.346674
0.344823
0.340416
0.331934
0.319482
0.334834
0.340279
0.343517
0.34504
0.345591
0.345412
0.344101
0.340325
0.332204
0.3196
0.338366
0.343803
0.346795
0.348196
0.348764
0.348696
0.34763
0.344219
0.336121
0.32257
0.342614
0.347798
0.35047
0.351809
0.352462
0.352521
0.351661
0.348634
0.340719
0.326317
0.345614
0.350433
0.352886
0.354304
0.355158
0.355423
0.354771
0.352104
0.344517
0.329575
0.348364
0.352816
0.355152
0.356725
0.357826
0.35834
0.35791
0.355588
0.348426
0.333207
0.351428
0.355318
0.357499
0.359194
0.360526
0.361308
0.361155
0.359315
0.353053
0.338334
0.358437
0.361204
0.363027
0.364739
0.366215
0.367222
0.367371
0.366195
0.361769
0.349456
0.364297
0.3659
0.367582
0.369337
0.370922
0.372073
0.372422
0.371648
0.369146
0.36442
0.360621
0.362917
0.36358
0.363807
0.363846
0.363737
0.363481
0.362858
0.360564
0.351144
0.337146
0.342645
0.345898
0.34731
0.347635
0.347127
0.345349
0.340988
0.332467
0.319785
0.335581
0.341065
0.344231
0.34566
0.346147
0.345963
0.344715
0.341022
0.332899
0.320079
0.339515
0.344873
0.34769
0.348915
0.349362
0.34926
0.348269
0.345008
0.336986
0.323264
0.34394
0.348913
0.351306
0.352389
0.352863
0.352855
0.352078
0.349283
0.341602
0.327149
0.347009
0.351521
0.353622
0.354714
0.355321
0.355464
0.354877
0.352498
0.345333
0.330518
0.349749
0.353844
0.355785
0.356977
0.357767
0.358091
0.35768
0.355664
0.349113
0.334247
0.352526
0.356074
0.35786
0.359151
0.360121
0.360643
0.36044
0.358873
0.353372
0.339309
0.359252
0.361716
0.363181
0.364496
0.365589
0.366278
0.366299
0.36531
0.361717
0.350483
0.365039
0.366335
0.367681
0.369048
0.370239
0.371044
0.371208
0.370533
0.368683
0.365172
0.361334
0.363544
0.364179
0.364395
0.364434
0.364338
0.364109
0.363524
0.361299
0.352092
0.337648
0.34323
0.346466
0.347848
0.348173
0.34771
0.34601
0.341699
0.33313
0.320181
0.336433
0.341967
0.345067
0.346414
0.346849
0.346667
0.345479
0.34186
0.333711
0.320629
0.340757
0.34605
0.348711
0.349792
0.35015
0.350034
0.349119
0.345993
0.338019
0.324069
0.34529
0.350073
0.352224
0.353102
0.353445
0.353407
0.352723
0.350146
0.342665
0.328103
0.348386
0.352623
0.354422
0.355252
0.355677
0.355753
0.355255
0.353153
0.346362
0.331609
0.35111
0.354877
0.356476
0.35736
0.357914
0.35812
0.357771
0.356059
0.35005
0.335459
0.3536
0.356825
0.358265
0.359219
0.35991
0.360256
0.360066
0.358779
0.353935
0.340419
0.360041
0.362206
0.363348
0.364327
0.365115
0.365582
0.365556
0.364782
0.361885
0.351565
0.365553
0.366557
0.367592
0.368623
0.369495
0.37005
0.370121
0.369591
0.368276
0.365682
0.361746
0.363804
0.364399
0.364603
0.364642
0.364559
0.364356
0.363814
0.361706
0.352909
0.338252
0.343914
0.347119
0.348467
0.348791
0.348376
0.346769
0.342539
0.333937
0.320697
0.33738
0.342951
0.345973
0.347241
0.347631
0.347454
0.346333
0.342804
0.334644
0.321274
0.342074
0.347287
0.349793
0.350751
0.351041
0.350924
0.350088
0.34711
0.339208
0.325021
0.346629
0.351216
0.353147
0.35386
0.35411
0.354064
0.353477
0.351119
0.343865
0.329208
0.349711
0.353678
0.355213
0.355839
0.356134
0.356178
0.355775
0.353941
0.347535
0.332865
0.35241
0.355859
0.357166
0.357806
0.358189
0.358325
0.358056
0.356632
0.351146
0.336848
0.354608
0.357515
0.358657
0.359342
0.359823
0.360057
0.359909
0.358888
0.354635
0.34165
0.360732
0.362605
0.363469
0.364173
0.364729
0.365047
0.36502
0.364454
0.362137
0.352659
0.3657
0.366446
0.367213
0.367964
0.368588
0.368969
0.369002
0.368625
0.367724
0.365822
0.361653
0.363482
0.364016
0.364201
0.36424
0.364172
0.363997
0.363512
0.361591
0.35346
0.338982
0.344699
0.347836
0.349129
0.349445
0.349084
0.3476
0.343514
0.334932
0.321389
0.338429
0.343996
0.346905
0.348082
0.34843
0.348265
0.347227
0.343839
0.335731
0.322079
0.343456
0.348535
0.35086
0.3517
0.351938
0.351831
0.351086
0.348303
0.340571
0.326193
0.347928
0.352268
0.353977
0.354554
0.35474
0.354702
0.354215
0.352105
0.345189
0.330531
0.350948
0.35461
0.355908
0.356377
0.356584
0.356617
0.356308
0.354745
0.34881
0.334352
0.35361
0.356718
0.357774
0.358232
0.358495
0.358594
0.358403
0.357252
0.352333
0.338467
0.355501
0.358074
0.358966
0.359447
0.359776
0.35994
0.359843
0.359062
0.355382
0.343037
0.361261
0.362846
0.363486
0.363979
0.364363
0.364583
0.364573
0.364187
0.362363
0.353763
0.365375
0.365908
0.36646
0.366992
0.367429
0.367691
0.367713
0.367467
0.366869
0.365494
0.360867
0.36239
0.36284
0.363
0.363037
0.362986
0.362844
0.362434
0.360787
0.353632
0.339897
0.345593
0.348587
0.349786
0.350083
0.349783
0.348471
0.344645
0.336206
0.322387
0.339617
0.345085
0.347809
0.34887
0.349175
0.349032
0.348111
0.344965
0.337058
0.323175
0.344905
0.349731
0.351817
0.352534
0.35273
0.352644
0.352011
0.349516
0.342159
0.327732
0.349159
0.353148
0.354618
0.35508
0.355223
0.3552
0.354816
0.35301
0.34664
0.33221
0.352074
0.355355
0.35643
0.356784
0.356933
0.356963
0.356738
0.355459
0.350163
0.336197
0.354688
0.357406
0.358248
0.358576
0.358758
0.358833
0.358707
0.357812
0.353565
0.340432
0.35626
0.358468
0.35916
0.359497
0.359721
0.359836
0.359777
0.359198
0.356117
0.344668
0.361628
0.362936
0.363411
0.363755
0.364017
0.364166
0.364166
0.36391
0.362504
0.354925
0.364571
0.364952
0.36535
0.365723
0.366023
0.366198
0.366209
0.36605
0.36565
0.364676
0.359258
0.36042
0.360767
0.360894
0.360928
0.360896
0.360791
0.360474
0.359189
0.35336
0.341099
0.346604
0.349325
0.350369
0.35063
0.350404
0.34933
0.345961
0.337935
0.323954
0.341013
0.346192
0.348615
0.34952
0.349777
0.349667
0.348908
0.346166
0.338757
0.324825
0.34643
0.350804
0.352572
0.353156
0.353315
0.353252
0.35275
0.350668
0.344032
0.329887
0.350326
0.353815
0.355022
0.355388
0.355501
0.355486
0.355192
0.353743
0.348224
0.334464
0.353116
0.355917
0.356787
0.357063
0.357172
0.357188
0.357013
0.356014
0.351573
0.338599
0.355693
0.357964
0.358634
0.358882
0.359008
0.359051
0.358946
0.358264
0.35481
0.342917
0.35696
0.358784
0.359332
0.359583
0.359735
0.359799
0.359735
0.35929
0.356828
0.3467
0.361981
0.363041
0.363417
0.363671
0.363847
0.363932
0.363906
0.3637
0.362621
0.356283
0.363456
0.363759
0.364071
0.364344
0.364546
0.364645
0.364621
0.364479
0.364163
0.363477
0.356682
0.357443
0.357672
0.357759
0.357785
0.357769
0.357703
0.357488
0.356637
0.35249
0.342694
0.347685
0.349948
0.350771
0.350978
0.350825
0.350046
0.347392
0.340295
0.326539
0.342653
0.347226
0.349202
0.349912
0.350112
0.350027
0.349449
0.347292
0.340882
0.3274
0.347981
0.351643
0.353025
0.353477
0.353596
0.35353
0.353131
0.351543
0.346094
0.332934
0.351415
0.354245
0.355195
0.355496
0.35558
0.355533
0.355259
0.354144
0.349789
0.337493
0.354109
0.356349
0.357057
0.357299
0.357376
0.357337
0.357122
0.356313
0.352889
0.341698
0.356703
0.358498
0.359059
0.359282
0.359367
0.35934
0.359166
0.35857
0.355945
0.34602
0.357771
0.359221
0.359701
0.359927
0.36003
0.360016
0.359863
0.359415
0.357504
0.349258
0.362578
0.363442
0.363793
0.364013
0.364131
0.364138
0.364023
0.363746
0.362848
0.357977
0.362196
0.362505
0.362801
0.363029
0.363164
0.363185
0.36308
0.362864
0.362501
0.361961
0.35248
0.352862
0.352982
0.35303
0.353039
0.35302
0.352964
0.352821
0.352405
0.35019
0.344461
0.348427
0.350053
0.350626
0.350762
0.350639
0.350111
0.348346
0.342992
0.330582
0.344087
0.347631
0.349068
0.349597
0.349734
0.349611
0.34912
0.347579
0.342805
0.331006
0.34895
0.351646
0.352664
0.353036
0.353113
0.35297
0.352532
0.351323
0.347457
0.336651
0.351887
0.353963
0.354737
0.35504
0.355096
0.354941
0.354527
0.353537
0.350456
0.340891
0.354556
0.356224
0.356867
0.357143
0.357194
0.357034
0.356629
0.35577
0.353277
0.344941
0.357251
0.358605
0.359156
0.359416
0.359473
0.359328
0.358953
0.358211
0.356212
0.349097
0.358413
0.359551
0.360054
0.360314
0.360386
0.360263
0.359919
0.359267
0.357665
0.351848
0.363222
0.363954
0.364346
0.364583
0.364665
0.36458
0.364312
0.363829
0.3629
0.359604
0.360231
0.360622
0.36096
0.361187
0.361281
0.361222
0.360999
0.360621
0.360077
0.359498
0.346293
0.346495
0.346614
0.346676
0.346671
0.346601
0.346465
0.346254
0.346014
0.345319
0.344838
0.347366
0.348396
0.348825
0.348915
0.348728
0.34823
0.347126
0.344143
0.335578
0.343306
0.345669
0.346736
0.34723
0.347335
0.347087
0.346449
0.345184
0.342242
0.334329
0.347359
0.349202
0.350086
0.350511
0.350576
0.350286
0.349607
0.348382
0.345849
0.339139
0.349999
0.351552
0.352356
0.352757
0.352809
0.352503
0.351801
0.350582
0.348284
0.34255
0.352773
0.354123
0.35486
0.355237
0.355283
0.354985
0.354297
0.353112
0.350995
0.346052
0.355665
0.356823
0.357484
0.357831
0.357881
0.357615
0.356987
0.355897
0.353998
0.349776
0.357405
0.358438
0.359047
0.359375
0.359436
0.359214
0.358661
0.357682
0.355979
0.352385
0.362725
0.363439
0.363909
0.364182
0.364248
0.364091
0.363677
0.362951
0.361793
0.359632
0.356647
0.357161
0.357559
0.357803
0.357875
0.357758
0.357434
0.35689
0.356116
0.355275
0.257774
0.23905
0.240374
0.259634
0.224425
0.199348
0.200439
0.2254
0.204458
0.17435
0.178442
0.213474
0.189272
0.154363
0.161641
0.206086
0.177748
0.13861
0.148929
0.201042
0.168411
0.125506
0.138491
0.196405
0.161155
0.115406
0.130936
0.193102
0.154158
0.106792
0.125432
0.191122
0.14954
0.102961
0.125733
0.194867
0.144639
0.100639
0.128205
0.200004
0.289624
0.278123
0.27568
0.281572
0.268642
0.25213
0.244387
0.246148
0.255378
0.233414
0.223134
0.22598
0.244106
0.216237
0.203032
0.207032
0.235163
0.201159
0.184543
0.189338
0.228001
0.187651
0.167053
0.172003
0.223167
0.176512
0.151565
0.156135
0.219542
0.166782
0.137425
0.141562
0.219286
0.160919
0.12776
0.132058
0.223539
0.16077
0.124069
0.125996
0.326532
0.322191
0.321025
0.322483
0.300379
0.294114
0.290459
0.289529
0.293918
0.285
0.280083
0.279252
0.287832
0.275743
0.269706
0.269583
0.281763
0.266355
0.259315
0.260231
0.275242
0.256393
0.248296
0.250294
0.269384
0.247017
0.237759
0.240808
0.264258
0.238482
0.228144
0.23234
0.263528
0.235364
0.224714
0.230295
0.271004
0.243479
0.232235
0.235476
0.331711
0.328374
0.327625
0.32906
0.306805
0.303094
0.300678
0.299714
0.303397
0.298283
0.294922
0.293524
0.300732
0.293628
0.289314
0.287938
0.297774
0.288424
0.283262
0.282252
0.293634
0.281908
0.275985
0.275573
0.289236
0.275109
0.26852
0.268918
0.285045
0.268653
0.261623
0.263165
0.285023
0.267241
0.260465
0.263614
0.294513
0.278556
0.271582
0.273246
0.334915
0.332041
0.331447
0.332854
0.310284
0.307708
0.306032
0.305396
0.308223
0.304944
0.302674
0.301571
0.307534
0.303071
0.300114
0.298799
0.306824
0.300908
0.297256
0.295922
0.30498
0.297439
0.29312
0.291929
0.302723
0.293483
0.288597
0.287766
0.3007
0.289844
0.284648
0.284555
0.302976
0.29119
0.286365
0.287594
0.316638
0.307096
0.302221
0.302009
0.335908
0.333139
0.332575
0.334014
0.311586
0.309437
0.308092
0.307703
0.310118
0.307583
0.305889
0.305187
0.310361
0.307065
0.304923
0.30407
0.310818
0.306543
0.303905
0.303
0.310303
0.304887
0.301729
0.300855
0.309496
0.302839
0.299207
0.298514
0.309231
0.301359
0.297469
0.297294
0.313538
0.305017
0.301557
0.302547
0.330497
0.324415
0.321052
0.320481
0.336374
0.333611
0.333037
0.334507
0.312223
0.310235
0.30904
0.308801
0.311159
0.308962
0.307582
0.307165
0.311913
0.309193
0.307537
0.307074
0.313023
0.309611
0.307628
0.307173
0.31329
0.309056
0.306705
0.306296
0.313408
0.308257
0.305549
0.305285
0.314403
0.308334
0.30544
0.305604
0.320335
0.313823
0.311385
0.312633
0.339804
0.335753
0.333446
0.33303
0.336603
0.33378
0.333184
0.334708
0.312408
0.31043
0.309289
0.309157
0.311669
0.309583
0.308356
0.308134
0.312756
0.31028
0.308894
0.308719
0.314265
0.31127
0.309683
0.309598
0.315019
0.311409
0.309582
0.309606
0.315749
0.311443
0.309373
0.309573
0.317635
0.312628
0.31045
0.311061
0.324788
0.319487
0.317778
0.319427
0.345987
0.343175
0.341643
0.341582
0.336802
0.33387
0.333247
0.334855
0.312351
0.310305
0.309173
0.309133
0.311894
0.309792
0.30863
0.308554
0.313235
0.310818
0.309569
0.309605
0.315037
0.312205
0.31084
0.311033
0.316143
0.312831
0.311323
0.311686
0.317323
0.313466
0.311809
0.312396
0.319843
0.315441
0.313743
0.314748
0.327893
0.323294
0.322069
0.324068
0.350288
0.34824
0.347246
0.347524
0.337049
0.333966
0.333316
0.335041
0.312141
0.309978
0.308831
0.308881
0.311927
0.309734
0.308591
0.308638
0.313483
0.311012
0.309821
0.310026
0.315527
0.312702
0.311449
0.311859
0.316925
0.313707
0.312379
0.313009
0.318475
0.314817
0.31341
0.314304
0.321446
0.317353
0.31596
0.317283
0.330169
0.32595
0.325028
0.327296
0.35342
0.351842
0.35121
0.351741
0.33734
0.334087
0.333425
0.335306
0.311846
0.309531
0.308358
0.308501
0.311838
0.30951
0.308359
0.308522
0.313593
0.310999
0.309824
0.310179
0.315851
0.312937
0.311734
0.312332
0.317509
0.31426
0.313027
0.313879
0.319384
0.315766
0.314505
0.315652
0.322671
0.318703
0.317498
0.319076
0.331934
0.327901
0.327164
0.329632
0.355798
0.354516
0.354118
0.354807
0.337661
0.334237
0.333578
0.335653
0.311499
0.309013
0.307808
0.308052
0.311674
0.309182
0.308011
0.30829
0.313628
0.31087
0.309689
0.31019
0.316083
0.313024
0.311837
0.312612
0.317983
0.314624
0.313439
0.314497
0.320151
0.316477
0.3153
0.316674
0.323656
0.319698
0.318609
0.320411
0.333369
0.32941
0.328784
0.331408
0.35764
0.356556
0.356307
0.357072
0.337992
0.334408
0.333773
0.336075
0.311136
0.308465
0.30723
0.307582
0.311472
0.308797
0.3076
0.308003
0.313643
0.310693
0.309494
0.31015
0.316283
0.313041
0.311855
0.312813
0.318412
0.314897
0.313737
0.315003
0.320855
0.317066
0.315943
0.317541
0.324492
0.320476
0.319465
0.321479
0.33458
0.330626
0.330068
0.332827
0.359035
0.358104
0.357949
0.358721
0.338307
0.334581
0.333993
0.336554
0.310798
0.307931
0.306667
0.307139
0.311267
0.308395
0.307176
0.307714
0.313691
0.310529
0.309312
0.310138
0.316507
0.313059
0.311871
0.313031
0.318863
0.315161
0.31402
0.315512
0.32157
0.31763
0.316552
0.318385
0.325261
0.321143
0.320194
0.322425
0.335639
0.331648
0.331135
0.334029
0.35999
0.359199
0.359103
0.359827
0.338569
0.334736
0.334224
0.33707
0.310537
0.307464
0.306177
0.306786
0.311112
0.308029
0.306791
0.307488
0.313844
0.310452
0.309223
0.310247
0.316834
0.313161
0.311979
0.313371
0.319424
0.315515
0.3144
0.316145
0.322396
0.318283
0.317252
0.319346
0.326057
0.321811
0.32092
0.323388
0.336626
0.332572
0.332098
0.335146
0.360489
0.359837
0.359775
0.360407
0.33879
0.334915
0.334519
0.337656
0.310453
0.307155
0.305853
0.306632
0.311099
0.30778
0.306534
0.307427
0.314221
0.310575
0.309349
0.310617
0.317392
0.313474
0.312314
0.313984
0.320239
0.316107
0.315033
0.317074
0.323486
0.319188
0.318216
0.320607
0.327034
0.322644
0.321818
0.324555
0.337714
0.333586
0.333152
0.336378
0.360549
0.360043
0.359998
0.360502
0.339165
0.335356
0.335106
0.338477
0.310737
0.307176
0.305873
0.306882
0.3114
0.307801
0.30656
0.30772
0.315024
0.31109
0.309887
0.311475
0.318393
0.314207
0.313093
0.315112
0.321541
0.317173
0.316163
0.318562
0.325098
0.320609
0.319717
0.322456
0.328475
0.32394
0.323193
0.326244
0.339277
0.3351
0.334712
0.338118
0.360276
0.359919
0.359877
0.360229
0.340006
0.336462
0.33636
0.339751
0.311733
0.307846
0.306566
0.307921
0.312306
0.308359
0.307151
0.3087
0.316549
0.312291
0.31115
0.313172
0.320145
0.315684
0.314656
0.317117
0.32367
0.319081
0.318174
0.321003
0.327615
0.322972
0.322196
0.32533
0.330865
0.326235
0.325593
0.328976
0.341928
0.337805
0.337467
0.340965
0.359714
0.359497
0.359446
0.359632
0.341026
0.338111
0.33811
0.341051
0.314016
0.309768
0.308573
0.310444
0.314198
0.30989
0.308773
0.310862
0.319081
0.314569
0.313563
0.316118
0.32294
0.318333
0.317462
0.320397
0.326933
0.322305
0.321564
0.324784
0.331384
0.326813
0.3262
0.329618
0.33475
0.330277
0.329769
0.333298
0.346152
0.342395
0.342104
0.345367
0.358135
0.358021
0.35795
0.357979
0.340523
0.338631
0.338634
0.340495
0.318649
0.314368
0.313385
0.315722
0.317579
0.313303
0.312368
0.314815
0.322754
0.318506
0.317708
0.320432
0.326733
0.322571
0.321895
0.324784
0.331006
0.326974
0.326405
0.329371
0.335731
0.331883
0.331411
0.334375
0.33933
0.335652
0.335245
0.33815
0.350582
0.347709
0.347442
0.349805
0.354367
0.354215
0.354116
0.354094
0.33203
0.337524
0.345612
0.35054
0.3545
0.357599
0.360246
0.362765
0.365489
0.369003
0.297927
0.302057
0.312717
0.31995
0.325261
0.329298
0.332827
0.336322
0.339973
0.344117
0.293612
0.298414
0.310526
0.317535
0.322273
0.325578
0.328369
0.331136
0.334069
0.337543
0.289086
0.296613
0.310401
0.317622
0.322363
0.325551
0.328169
0.330687
0.333302
0.33645
0.285545
0.296322
0.31143
0.318888
0.323723
0.326902
0.329449
0.331811
0.334171
0.337045
0.281179
0.295705
0.311819
0.319577
0.324541
0.327767
0.330289
0.33254
0.334681
0.337284
0.277849
0.296247
0.313148
0.321248
0.326317
0.329558
0.332003
0.334096
0.335949
0.338199
0.275997
0.298357
0.316086
0.324866
0.330324
0.333847
0.336425
0.338515
0.34018
0.342117
0.281335
0.306908
0.325801
0.335999
0.34255
0.346922
0.349981
0.352109
0.353234
0.354328
0.285892
0.312672
0.331809
0.343053
0.350389
0.3555
0.359027
0.36127
0.362065
0.362395
0.305034
0.322894
0.335133
0.342796
0.348012
0.351805
0.354801
0.357421
0.360096
0.363426
0.267128
0.28725
0.302309
0.312315
0.319155
0.324108
0.328149
0.331917
0.335749
0.339854
0.258804
0.283235
0.300185
0.310189
0.316546
0.320887
0.324328
0.327519
0.330777
0.334352
0.252997
0.281919
0.300708
0.310916
0.317202
0.321383
0.324625
0.327563
0.330519
0.333812
0.249164
0.282085
0.30234
0.312733
0.319045
0.323172
0.326302
0.329054
0.331746
0.334772
0.245515
0.281958
0.303324
0.313907
0.320289
0.32441
0.327469
0.330073
0.332524
0.335272
0.24313
0.282816
0.305108
0.315946
0.322412
0.326521
0.329478
0.331896
0.334049
0.33645
0.24234
0.285313
0.308564
0.319983
0.326809
0.331159
0.334208
0.33657
0.338502
0.340577
0.248377
0.294463
0.31882
0.331472
0.33922
0.344245
0.347634
0.349967
0.351383
0.35268
0.254738
0.302648
0.3264
0.339489
0.347563
0.353031
0.356729
0.359153
0.360283
0.360788
0.327619
0.335877
0.341464
0.345205
0.348058
0.350435
0.35255
0.354608
0.356947
0.360032
0.292463
0.299345
0.306838
0.313216
0.31828
0.322353
0.325923
0.329446
0.333198
0.337212
0.284139
0.29334
0.302385
0.309393
0.314612
0.31859
0.321952
0.325208
0.328639
0.332335
0.277859
0.290469
0.301566
0.309419
0.314979
0.319043
0.322349
0.325448
0.328681
0.332221
0.27294
0.289149
0.3022
0.310813
0.316705
0.320881
0.324161
0.327124
0.330157
0.333528
0.268102
0.287754
0.302495
0.311746
0.317931
0.322219
0.325489
0.328328
0.331155
0.334322
0.264398
0.287416
0.303712
0.31358
0.320042
0.324424
0.327654
0.330332
0.332899
0.335795
0.262528
0.289061
0.306967
0.317672
0.324609
0.329269
0.332595
0.335187
0.337504
0.340106
0.26745
0.297626
0.317333
0.329354
0.337082
0.342211
0.345691
0.348114
0.349865
0.351735
0.275245
0.306688
0.325782
0.337856
0.345615
0.350972
0.354624
0.35708
0.358523
0.359517
0.333276
0.340222
0.344396
0.34681
0.348567
0.350072
0.351491
0.352992
0.354897
0.357636
0.300563
0.304828
0.31016
0.314942
0.318801
0.321976
0.324887
0.327947
0.331398
0.335168
0.294323
0.299317
0.305396
0.310594
0.31466
0.317918
0.320837
0.323842
0.327172
0.330801
0.289769
0.296809
0.304377
0.310344
0.314816
0.318276
0.321254
0.324212
0.327461
0.331069
0.285874
0.295465
0.304662
0.311443
0.316366
0.320065
0.323123
0.326028
0.329164
0.332708
0.281569
0.293842
0.304575
0.312118
0.31748
0.321419
0.324563
0.327409
0.330399
0.333815
0.277913
0.293072
0.305351
0.313682
0.319487
0.323654
0.326856
0.329603
0.332385
0.335592
0.275957
0.294426
0.308392
0.317707
0.324102
0.328617
0.331949
0.334613
0.337134
0.340043
0.28076
0.302922
0.318743
0.329333
0.336425
0.341292
0.344685
0.347124
0.349051
0.351189
0.290863
0.312827
0.327598
0.337995
0.344997
0.349997
0.353507
0.355962
0.357584
0.358779
0.336786
0.343323
0.346783
0.34843
0.34946
0.350326
0.351194
0.352225
0.353741
0.356161
0.305953
0.30937
0.313547
0.317197
0.320051
0.322403
0.324671
0.327251
0.330365
0.333853
0.30152
0.304834
0.309133
0.312897
0.315852
0.318299
0.320647
0.323271
0.326373
0.329837
0.298886
0.303246
0.308404
0.312684
0.31597
0.318634
0.321097
0.32375
0.326862
0.330424
0.296635
0.302524
0.308772
0.313706
0.317433
0.320389
0.323003
0.325677
0.328755
0.332354
0.293663
0.301267
0.308636
0.314255
0.318462
0.321741
0.324521
0.327205
0.330202
0.333748
0.290999
0.300605
0.309235
0.315626
0.320356
0.323965
0.326894
0.329548
0.332393
0.335787
0.290017
0.302117
0.312233
0.319573
0.324934
0.328934
0.332028
0.334614
0.337201
0.340298