/*--------------------------------*- C++ -*----------------------------------*\
| =========                 |                                                 |
| \\      /  F ield         | foam-extend: Open Source CFD                    |
|  \\    /   O peration     | Version:     4.0                                |
|   \\  /    A nd           | Web:         http://www.foam-extend.org         |
|    \\/     M anipulation  |                                                 |
\*---------------------------------------------------------------------------*/
FoamFile
{
    version     2.0;
    format      ascii;
    class       volScalarField;
    location    "50";
    object      p;
}
// * * * * * * * * * * * * * * * * * * * * * * * * * * * * * * * * * * * * * //

dimensions      [1 -1 -2 0 0 0 0];

internalField   nonuniform List<scalar> 
34480
(
128618
128478
128357
128240
128134
128043
127991
128076
128129
127229
129003
128822
128656
128472
128275
128075
127895
127817
127713
125912
129327
129129
128948
128715
128451
128170
127900
127682
127442
124597
129461
129279
129139
128919
128654
128341
128012
127654
127228
123230
129500
129380
129339
129197
128996
128699
128329
127817
127130
121911
129447
129445
129560
129563
129486
129247
128843
128145
127100
120626
129271
129429
129740
129936
130023
129862
129403
128469
126973
119290
129129
129466
129982
130405
130689
130632
130122
128949
126970
118198
128706
129198
129887
130515
130967
131001
130456
129095
126669
117074
128623
129202
130000
130767
131337
131456
130954
129630
127112
117067
129320
129194
129093
129008
128947
128920
128949
129086
129386
129822
129615
129453
129312
129171
129037
128922
128855
128907
129198
129483
129867
129693
129540
129357
129158
128961
128805
128758
129025
129153
129931
129773
129653
129477
129267
129027
128804
128642
128823
128646
129917
129812
129775
129658
129491
129246
128968
128662
128675
128038
129833
129829
129919
129915
129838
129618
129287
128800
128553
127320
129641
129769
130019
130163
130206
130028
129626
128914
128325
126434
129498
129775
130189
130508
130694
130578
130112
129177
128213
125681
129117
129526
130075
130542
130836
130766
130252
129152
127844
124862
129055
129536
130170
130744
131120
131101
130596
129492
128078
124964
129877
129773
129693
129635
129606
129613
129672
129807
130037
130357
130121
129978
129858
129752
129668
129616
129617
129714
129994
130323
130308
130152
130021
129882
129747
129632
129565
129597
129899
130239
130307
130165
130060
129923
129774
129620
129499
129451
129731
130017
130245
130147
130108
130014
129890
129723
129553
129393
129583
129719
130134
130118
130181
130169
130106
129944
129722
129415
129437
129322
129925
130017
130206
130306
130324
130177
129887
129394
129180
128750
129777
129994
130315
130546
130663
130546
130188
129510
129028
128273
129426
129755
130187
130532
130718
130611
130189
129373
128642
127677
129369
129761
130263
130691
130937
130858
130419
129576
128744
127772
130276
130200
130142
130103
130090
130105
130158
130255
130397
130565
130477
130359
130263
130185
130133
130115
130146
130246
130453
130684
130613
130478
130368
130262
130171
130108
130093
130161
130416
130701
130562
130435
130341
130233
130126
130031
129977
129997
130276
130590
130465
130371
130326
130246
130150
130036
129940
129885
130139
130434
130335
130306
130339
130315
130254
130131
129987
129822
129992
130212
130115
130172
130301
130357
130346
130219
130011
129704
129734
129842
129969
130127
130360
130512
130566
130443
130169
129717
129575
129562
129647
129899
130223
130461
130561
130431
130088
129515
129205
129137
129598
129903
130283
130585
130728
130615
130247
129631
129224
129251
130543
130490
130451
130425
130419
130434
130472
130536
130620
130712
130702
130609
130535
130479
130448
130448
130487
130575
130721
130883
130794
130680
130590
130510
130450
130420
130435
130514
130706
130930
130703
130590
130508
130422
130347
130293
130281
130337
130566
130840
130579
130490
130440
130370
130297
130224
130180
130188
130425
130718
130438
130397
130403
130369
130312
130223
130137
130069
130276
130558
130213
130237
130316
130335
130306
130200
130058
129888
130024
130278
130075
130181
130338
130426
130435
130318
130115
129835
129873
130098
129786
129968
130198
130350
130389
130257
129988
129607
129538
129781
129748
129974
130247
130447
130515
130390
130095
129669
129515
129897
130689
130654
130628
130612
130609
130620
130645
130685
130733
130783
130806
130736
130681
130641
130623
130629
130664
130732
130830
130937
130861
130769
130697
130638
130599
130588
130614
130688
130825
130988
130739
130643
130573
130506
130454
130426
130437
130505
130678
130894
130599
130516
130466
130406
130350
130305
130294
130336
130529
130780
130454
130405
130392
130352
130301
130237
130192
130185
130376
130641
130231
130229
130267
130261
130222
130137
130045
129967
130132
130403
130107
130169
130265
130304
130285
130182
130037
129878
129994
130273
129849
129972
130124
130210
130209
130086
129885
129647
129701
130026
129823
129981
130165
130285
130302
130180
129954
129677
129665
130119
130729
130707
130691
130680
130678
130685
130701
130725
130754
130782
130805
130753
130713
130686
130674
130681
130708
130757
130821
130891
130829
130757
130702
130660
130635
130633
130658
130719
130814
130927
130686
130607
130549
130497
130462
130449
130470
130535
130660
130820
130538
130465
130417
130366
130324
130298
130305
130359
130506
130704
130395
130344
130318
130276
130232
130188
130170
130194
130352
130575
130180
130160
130169
130146
130103
130038
129984
129962
130116
130361
130074
130101
130151
130157
130123
130036
129938
129859
129994
130260
129846
129919
130010
130048
130023
129917
129774
129637
129740
130057
129831
129932
130046
130107
130092
129982
129816
129649
129707
130118
130678
130664
130653
130646
130645
130649
130659
130674
130690
130707
130713
130676
130648
130628
130621
130626
130645
130677
130718
130764
130715
130661
130620
130590
130574
130575
130596
130640
130702
130778
130558
130496
130451
130412
130388
130383
130404
130457
130543
130655
130411
130349
130307
130265
130234
130219
130232
130284
130391
130535
130275
130226
130195
130155
130118
130087
130084
130121
130242
130415
130072
130042
130032
130000
129959
129910
129880
129890
130018
130218
129987
129990
130006
129992
129951
129881
129818
129789
129914
130139
129784
129819
129865
129871
129833
129747
129650
129581
129693
129963
129782
129838
129898
129919
129886
129793
129676
129584
129669
130000
130549
130540
130533
130528
130527
130530
130535
130544
130554
130564
130548
130522
130502
130488
130483
130486
130497
130518
130543
130573
130535
130496
130467
130446
130435
130436
130450
130480
130518
130567
130372
130326
130292
130263
130247
130245
130262
130301
130357
130431
130231
130183
130147
130114
130091
130082
130096
130138
130210
130311
130107
130064
130033
129997
129966
129945
129948
129985
130073
130198
129919
129885
129865
129831
129794
129758
129743
129765
129864
130018
129855
129843
129839
129813
129772
129718
129679
129677
129781
129958
129674
129683
129697
129683
129642
129574
129510
129483
129584
129798
129683
129706
129730
129724
129683
129608
129530
129486
129573
129823
130358
130351
130347
130344
130343
130344
130347
130352
130358
130365
130325
130307
130294
130284
130280
130281
130287
130299
130314
130333
130306
130279
130259
130245
130237
130237
130245
130263
130284
130315
130144
130112
130087
130067
130055
130054
130065
130091
130124
130172
130015
129978
129951
129925
129908
129902
129912
129943
129988
130054
129905
129869
129841
129811
129786
129771
129775
129806
129864
129950
129733
129700
129676
129644
129612
129585
129578
129603
129673
129785
129690
129671
129655
129625
129587
129546
129523
129533
129612
129744
129526
129518
129513
129488
129448
129396
129357
129352
129434
129594
129545
129547
129546
129526
129485
129426
129375
129360
129437
129617
130121
130116
130114
130111
130110
130110
130112
130115
130119
130123
130062
130051
130042
130036
130033
130032
130034
130040
130047
130059
130044
130027
130015
130005
130000
129998
130001
130009
130019
130036
129889
129867
129851
129837
129829
129827
129833
129847
129863
129892
129774
129749
129729
129711
129697
129692
129698
129716
129741
129782
129680
129652
129630
129605
129586
129574
129577
129598
129633
129689
129526
129497
129474
129445
129419
129399
129395
129415
129461
129538
129503
129481
129460
129431
129399
129368
129354
129367
129423
129515
129351
129334
129318
129290
129254
129215
129191
129197
129258
129373
129380
129369
129355
129328
129290
129245
129214
129214
129275
129400
129856
129853
129851
129849
129848
129848
129848
129850
129852
129854
129777
129770
129766
129762
129759
129757
129757
129758
129759
129766
129766
129757
129750
129744
129740
129737
129736
129738
129738
129747
129620
129608
129598
129589
129583
129580
129581
129586
129590
129606
129524
129508
129495
129482
129472
129466
129467
129476
129485
129508
129445
129426
129409
129390
129375
129365
129364
129376
129394
129428
129308
129285
129265
129241
129220
129204
129201
129214
129241
129291
129304
129284
129263
129237
129210
129187
129178
129188
129224
129286
129159
129140
129120
129092
129062
129033
129018
129026
129069
129147
129199
129183
129163
129135
129102
129069
129050
129056
129102
129185
129583
129580
129579
129577
129577
129576
129576
129576
129577
129578
129487
129484
129483
129481
129479
129476
129473
129471
129468
129470
129489
129485
129482
129479
129476
129472
129469
129465
129459
129461
129354
129349
129344
129339
129334
129329
129327
129325
129321
129327
129277
129269
129261
129252
129244
129238
129235
129236
129233
129244
129213
129201
129189
129175
129163
129154
129151
129154
129158
129176
129092
129075
129059
129040
129023
129010
129006
129012
129024
129055
129105
129089
129070
129049
129027
129010
129002
129008
129028
129067
128965
128946
128926
128902
128877
128856
128846
128852
128879
128929
129017
129000
128979
128953
128927
128903
128891
128897
128929
128983
129320
129318
129317
129316
129316
129315
129314
129313
129313
129314
129209
129210
129211
129210
129209
129205
129201
129196
129190
129189
129227
129228
129228
129227
129224
129220
129214
129207
129196
129193
129104
129104
129103
129100
129095
129090
129085
129078
129068
129066
129046
129044
129040
129034
129028
129021
129015
129009
128999
129000
128995
128989
128981
128971
128961
128953
128947
128944
128939
128945
128888
128878
128865
128851
128838
128827
128821
128821
128821
128837
128917
128907
128891
128874
128858
128844
128837
128838
128846
128866
128778
128762
128745
128725
128706
128690
128682
128685
128699
128728
128846
128831
128812
128791
128770
128752
128745
128749
128770
128802
129088
129086
129086
129086
129085
129084
129083
129081
129080
129080
128961
128964
128967
128968
128967
128963
128957
128950
128941
128937
128997
129001
129003
129004
129001
128996
128988
128978
128964
128956
128883
128886
128888
128887
128883
128877
128869
128859
128844
128837
128842
128845
128844
128840
128835
128827
128819
128809
128793
128787
128801
128800
128795
128788
128780
128772
128764
128756
128745
128743
128706
128701
128692
128682
128672
128662
128655
128649
128642
128647
128749
128744
128732
128720
128707
128696
128689
128685
128685
128691
128606
128595
128581
128566
128551
128539
128533
128532
128536
128549
128696
128684
128668
128652
128636
128624
128618
128620
128633
128650
128901
128900
128901
128900
128900
128898
128897
128895
128893
128892
128757
128763
128767
128769
128768
128764
128757
128747
128734
128728
128811
128817
128821
128821
128819
128812
128803
128791
128774
128762
128701
128707
128710
128710
128706
128700
128690
128677
128659
128648
128673
128678
128679
128678
128673
128666
128656
128642
128624
128613
128635
128637
128634
128630
128624
128616
128608
128597
128583
128575
128548
128545
128540
128533
128526
128518
128511
128502
128491
128488
128601
128598
128590
128581
128572
128564
128558
128552
128548
128544
128448
128439
128428
128417
128407
128398
128393
128391
128391
128393
128564
128554
128541
128529
128518
128510
128507
128508
128516
128524
128769
128768
128769
128769
128768
128766
128764
128762
128760
128758
128609
128616
128621
128624
128623
128618
128610
128598
128583
128573
128677
128684
128688
128689
128686
128680
128670
128655
128637
128622
128563
128569
128572
128572
128570
128564
128555
128541
128524
128509
128539
128542
128543
128543
128540
128534
128526
128514
128498
128484
128493
128492
128490
128487
128484
128480
128474
128465
128455
128445
128403
128400
128395
128390
128386
128382
128379
128372
128365
128359
128458
128453
128445
128438
128432
128429
128428
128425
128424
128417
128283
128273
128263
128254
128247
128244
128244
128244
128247
128246
128433
128423
128411
128401
128393
128390
128392
128396
128406
128411
128706
128707
128708
128709
128708
128707
128704
128702
128699
128695
128527
128532
128536
128538
128538
128535
128528
128518
128505
128493
128606
128609
128610
128611
128609
128606
128601
128591
128579
128565
128477
128476
128476
128476
128476
128475
128473
128468
128462
128452
128440
128435
128432
128430
128429
128431
128433
128432
128433
128427
128370
128361
128354
128350
128349
128353
128358
128364
128372
128373
128265
128255
128245
128239
128238
128241
128249
128257
128269
128273
128300
128287
128274
128266
128263
128267
128276
128288
128306
128311
128090
128074
128061
128051
128047
128050
128059
128072
128088
128097
128300
128285
128270
128259
128255
128257
128266
128279
128298
128310
128792
128793
128794
128794
128795
128795
128796
128797
128794
128787
128559
128553
128547
128545
128545
128549
128555
128562
128569
128570
128665
128651
128639
128632
128632
128639
128652
128670
128690
128699
128517
128499
128484
128476
128477
128488
128508
128534
128566
128585
128447
128423
128404
128394
128395
128408
128432
128467
128511
128542
128338
128311
128289
128277
128278
128292
128320
128359
128412
128453
128204
128177
128154
128142
128141
128155
128182
128222
128276
128320
128181
128151
128128
128114
128112
128123
128150
128190
128246
128292
127920
127895
127873
127860
127857
127866
127887
127919
127963
128001
128254
128229
128209
128196
128193
128199
128216
128243
128279
128310
129087
129073
129064
129059
129059
129064
129075
129091
129108
129139
128898
128841
128802
128782
128778
128792
128825
128880
128960
129053
129076
128999
128947
128920
128915
128934
128977
129051
129161
129289
128898
128822
128772
128746
128743
128764
128811
128889
129008
129153
128767
128691
128642
128616
128614
128635
128683
128764
128888
129049
128611
128538
128492
128468
128466
128486
128533
128611
128736
128904
128442
128376
128334
128312
128310
128328
128370
128442
128559
128724
128326
128265
128226
128206
128203
128218
128254
128319
128426
128585
127982
127939
127909
127893
127889
127900
127927
127974
128049
128161
128445
128412
128388
128373
128369
128377
128398
128432
128482
128540
134192
135124
135426
134977
135092
136248
136690
136237
136116
137477
138079
137594
136979
138542
139372
138933
137668
139403
140479
140131
138154
140041
141366
141146
138384
140399
141961
141886
138631
140759
142542
142617
138644
140895
142901
143133
139209
141584
143724
144055
130684
130826
130902
130924
131415
131678
131745
131702
132209
132588
132685
132591
132957
133446
133572
133424
133648
134234
134388
134183
134231
134901
135086
134834
134612
135360
135583
135297
135038
135860
136135
135834
135219
136138
136510
136227
135860
136970
137481
137199
130713
130784
130821
130832
131195
131355
131406
131402
131689
131923
131995
131980
132169
132484
132584
132551
132660
133054
133182
133123
133112
133585
133745
133657
133429
133980
134177
134062
133834
134465
134708
134572
134026
134743
135057
134916
134575
135405
135810
135670
130661
130684
130700
130712
130986
131048
131072
131084
131273
131372
131404
131419
131515
131656
131698
131712
131787
131973
132028
132035
132058
132293
132365
132364
132235
132522
132620
132611
132526
132870
133005
132992
132606
133018
133215
133211
132960
133474
133783
133811
130757
130769
130777
130783
131040
131078
131096
131100
131221
131281
131301
131303
131303
131383
131401
131401
131407
131509
131528
131524
131524
131654
131678
131672
131569
131733
131771
131764
131741
131945
132008
132006
131722
131972
132083
132102
131963
132286
132496
132562
130806
130812
130817
130820
131023
131048
131062
131066
131141
131176
131189
131188
131127
131168
131172
131166
131122
131170
131169
131159
131131
131194
131192
131181
131077
131161
131167
131159
131157
131270
131294
131295
131075
131220
131284
131313
131243
131444
131587
131660
130796
130800
130803
130805
130947
130967
130980
130985
131019
131043
131053
131052
130946
130968
130967
130959
130879
130900
130890
130875
130824
130850
130836
130819
130708
130746
130735
130721
130728
130785
130787
130783
130613
130693
130729
130753
130731
130855
130949
131009
130716
130719
130721
130723
130802
130818
130831
130837
130836
130853
130862
130864
130725
130737
130736
130729
130623
130630
130618
130605
130536
130542
130524
130507
130388
130399
130382
130367
130376
130400
130392
130386
130251
130293
130311
130328
130337
130412
130473
130517
130570
130573
130575
130576
130600
130613
130625
130632
130605
130619
130627
130630
130472
130479
130479
130475
130355
130356
130346
130336
130255
130253
130237
130223
130096
130094
130077
130064
130074
130080
130069
130063
129947
129968
129976
129985
130011
130057
130095
130126
130369
130371
130373
130375
130351
130362
130372
130379
130339
130349
130357
130360
130195
130199
130200
130199
130075
130075
130068
130061
129976
129971
129959
129950
129817
129812
129798
129789
129798
129797
129788
129783
129672
129682
129685
129689
129724
129753
129777
129798
130126
130127
130129
130131
130070
130078
130087
130093
130051
130058
130064
130068
129904
129907
129908
129909
129791
129790
129786
129782
129699
129695
129687
129681
129549
129543
129534
129528
129540
129537
129530
129526
129414
129419
129419
129420
129464
129482
129497
129511
129856
129858
129860
129861
129771
129777
129783
129789
129754
129758
129763
129766
129610
129611
129613
129615
129509
129508
129506
129505
129429
129426
129421
129419
129291
129286
129280
129277
129296
129293
129288
129286
129169
129171
129170
129172
129224
129236
129246
129256
129580
129581
129583
129584
129472
129475
129479
129483
129462
129464
129468
129471
129324
129325
129327
129329
129239
129237
129237
129239
129172
129169
129168
129168
129046
129042
129040
129040
129067
129064
129062
129062
128938
128939
128940
128942
129007
129014
129021
129028
129314
129316
129317
129318
129187
129188
129190
129192
129190
129191
129193
129196
129059
129059
129061
129065
128990
128989
128990
128994
128935
128933
128934
128938
128822
128819
128820
128823
128859
128857
128857
128860
128728
128728
128730
128733
128817
128822
128826
128831
129080
129081
129082
129083
128933
128932
128932
128933
128951
128950
128953
128956
128826
128825
128828
128833
128773
128771
128775
128781
128727
128726
128730
128736
128625
128623
128626
128633
128677
128676
128679
128684
128541
128542
128546
128551
128658
128661
128664
128668
128891
128892
128893
128893
128722
128720
128719
128720
128754
128754
128757
128762
128632
128631
128636
128643
128593
128592
128598
128607
128552
128552
128559
128568
128457
128456
128463
128473
128523
128523
128529
128537
128379
128381
128386
128392
128529
128530
128533
128536
128758
128758
128759
128759
128564
128563
128564
128566
128610
128611
128617
128625
128487
128487
128495
128506
128457
128457
128467
128479
128416
128416
128427
128440
128322
128322
128332
128346
128394
128396
128404
128415
128234
128236
128242
128249
128415
128416
128418
128421
128695
128696
128696
128696
128480
128481
128486
128493
128547
128549
128559
128571
128422
128422
128434
128448
128396
128397
128409
128424
128343
128345
128357
128372
128241
128242
128253
128267
128300
128304
128313
128323
128100
128104
128110
128115
128317
128319
128321
128324
128785
128784
128783
128783
128557
128561
128572
128583
128683
128686
128698
128712
128560
128562
128574
128588
128524
128526
128537
128551
128442
128446
128455
128468
128311
128314
128322
128332
128311
128317
128324
128331
128020
128026
128030
128034
128325
128328
128332
128337
129173
129182
129183
129176
129086
129103
129122
129138
129344
129363
129384
129402
129215
129234
129252
129269
129135
129156
129173
129187
129009
129032
129048
129057
128839
128864
128877
128883
128731
128760
128772
128773
128265
128286
128294
128292
128590
128602
128608
128610
132520
131398
130498
129941
129561
129296
129100
128950
128833
128736
133262
131743
130711
130118
129747
129511
129348
129228
129152
129101
133759
131977
130808
130194
129821
129602
129464
129374
129346
129368
134207
132206
130915
130268
129869
129636
129493
129405
129387
129451
134544
132350
130949
130256
129816
129557
129398
129309
129303
129417
134782
132414
130916
130163
129673
129379
129201
129110
129118
129280
134842
132302
130722
129907
129370
129044
128851
128766
128797
129012
134992
132273
130628
129752
129176
128823
128620
128540
128589
128813
134934
132022
130346
129442
128853
128479
128254
128158
128203
128386
135468
132411
130695
129687
129011
128554
128271
128139
128170
128323
130822
130653
130434
130229
130047
129887
129748
129628
129522
129431
131375
131090
130753
130486
130280
130119
129989
129879
129789
129720
132022
131543
131024
130659
130399
130220
130094
130000
129942
129926
132589
131904
131205
130744
130424
130211
130070
129974
129924
129941
133059
132154
131281
130724
130342
130093
129934
129838
129799
129858
133423
132302
131268
130621
130177
129892
129716
129622
129599
129698
133611
132275
131100
130369
129872
129556
129367
129282
129282
129424
133890
132328
131031
130225
129684
129341
129143
129064
129083
129232
134017
132174
130798
129947
129385
129020
128803
128710
128729
128851
134756
132567
131110
130149
129504
129070
128808
128687
128699
128803
130807
130737
130636
130524
130412
130307
130210
130122
130041
129970
131307
131168
130992
130829
130690
130572
130469
130376
130296
130228
131795
131539
131237
130991
130804
130665
130560
130475
130414
130383
132241
131832
131383
131042
130793
130616
130491
130402
130346
130342
132645
132054
131445
131004
130688
130470
130324
130232
130186
130218
132986
132201
131434
130893
130512
130256
130092
130003
129972
130039
133185
132201
131285
130652
130212
129922
129746
129663
129652
129757
133485
132294
131242
130525
130036
129717
129528
129449
129454
129566
133624
132203
131060
130289
129767
129419
129208
129113
129115
129206
134257
132575
131337
130457
129859
129452
129203
129083
129079
129157
130727
130724
130699
130659
130610
130556
130500
130446
130393
130344
131098
131081
131032
130970
130902
130832
130763
130693
130628
130569
131421
131355
131243
131129
131026
130936
130857
130786
130729
130692
131686
131540
131336
131148
130989
130863
130764
130685
130630
130612
131951
131692
131371
131095
130872
130705
130584
130501
130452
130463
132200
131804
131356
130987
130701
130494
130355
130273
130237
130277
132351
131802
131225
130765
130418
130176
130022
129944
129924
129995
132621
131908
131209
130662
130262
129988
129819
129741
129733
129810
132736
131861
131076
130464
130022
129714
129520
129427
129414
129477
133286
132212
131321
130606
130095
129737
129512
129398
129379
129431
130791
130794
130786
130769
130745
130717
130686
130653
130620
130588
131105
131107
131090
131059
131020
130975
130927
130877
130827
130778
131303
131289
131245
131189
131130
131071
131013
130956
130906
130867
131395
131349
131256
131156
131059
130973
130898
130833
130783
130757
131501
131399
131235
131073
130928
130808
130714
130644
130597
130595
131622
131441
131192
130959
130762
130608
130497
130426
130389
130409
131681
131402
131059
130751
130500
130312
130185
130115
130089
130134
131882
131491
131053
130670
130367
130148
130005
129933
129915
129964
131957
131461
130951
130503
130154
129899
129731
129645
129622
129662
132417
131767
131165
130628
130219
129921
129726
129622
129594
129626
130825
130829
130828
130821
130809
130795
130777
130758
130738
130718
131073
131079
131074
131058
131036
131009
130977
130941
130904
130866
131192
131197
131182
131155
131122
131084
131043
130999
130958
130924
131169
131165
131128
131077
131021
130965
130912
130861
130818
130792
131158
131131
131056
130967
130879
130798
130730
130674
130633
130624
131173
131109
130983
130846
130720
130614
130532
130474
130439
130446
131144
131027
130839
130647
130478
130343
130246
130187
130159
130185
131271
131088
130833
130583
130371
130206
130093
130030
130007
130036
131304
131057
130744
130439
130182
129983
129847
129771
129744
129766
131666
131312
130927
130551
130244
130009
129850
129759
129726
129741
130808
130811
130811
130808
130802
130794
130784
130773
130761
130748
130990
130995
130993
130984
130971
130953
130932
130907
130880
130850
131055
131062
131058
131044
131025
131001
130972
130940
130908
130880
130960
130968
130955
130930
130899
130864
130827
130789
130755
130731
130874
130875
130846
130800
130749
130698
130651
130609
130576
130565
130817
130805
130750
130676
130601
130532
130474
130431
130401
130400
130722
130686
130594
130484
130378
130287
130217
130170
130145
130157
130788
130720
130585
130434
130295
130179
130095
130044
130020
130033
130782
130677
130498
130302
130126
129981
129876
129814
129785
129795
131057
130884
130653
130405
130188
130014
129889
129813
129780
129782
130725
130727
130727
130726
130723
130718
130712
130706
130698
130690
130843
130846
130846
130841
130833
130822
130808
130790
130770
130747
130867
130874
130873
130867
130856
130841
130822
130799
130775
130753
130731
130741
130739
130728
130711
130690
130666
130639
130614
130594
130605
130616
130608
130588
130560
130530
130499
130469
130445
130435
130509
130519
130501
130465
130424
130382
130345
130314
130291
130286
130373
130376
130339
130282
130221
130163
130116
130081
130060
130065
130400
130390
130328
130243
130159
130083
130024
129985
129964
129968
130361
130329
130237
130120
130006
129907
129831
129783
129756
129758
130568
130497
130368
130214
130069
129947
129854
129794
129763
129758
130578
130580
130580
130579
130578
130575
130571
130567
130562
130557
130638
130640
130641
130638
130634
130626
130617
130605
130590
130573
130634
130639
130641
130638
130632
130623
130611
130594
130578
130562
130478
130486
130488
130485
130476
130465
130450
130432
130414
130399
130337
130349
130350
130343
130330
130313
130295
130275
130258
130250
130225
130241
130241
130227
130207
130185
130162
130141
130125
130119
130071
130088
130080
130055
130023
129990
129960
129936
129920
129920
130076
130090
130069
130028
129981
129935
129897
129869
129852
129850
130011
130013
129972
129908
129841
129778
129726
129691
129668
129664
130168
130148
130084
129995
129905
129824
129759
129713
129686
129676
130377
130378
130378
130378
130377
130375
130373
130370
130367
130363
130385
130387
130388
130387
130385
130380
130374
130366
130355
130343
130365
130369
130371
130370
130368
130363
130355
130344
130333
130323
130202
130210
130213
130213
130210
130204
130195
130184
130172
130162
130063
130073
130078
130078
130073
130065
130055
130043
130032
130027
129952
129967
129974
129973
129966
129955
129943
129931
129920
129915
129795
129814
129819
129812
129799
129782
129766
129751
129739
129738
129793
129813
129813
129798
129775
129751
129728
129711
129698
129693
129707
129722
129710
129680
129644
129608
129575
129550
129532
129526
129830
129834
129807
129761
129709
129659
129616
129583
129561
129550
130133
130134
130134
130134
130133
130132
130131
130129
130127
130124
130099
130101
130102
130102
130101
130099
130095
130090
130083
130074
130072
130076
130078
130079
130078
130076
130072
130065
130059
130054
129913
129919
129923
129925
129924
129922
129918
129912
129905
129899
129785
129794
129800
129803
129803
129800
129796
129789
129784
129782
129684
129698
129707
129711
129712
129709
129704
129698
129691
129688
129534
129551
129561
129564
129562
129556
129548
129540
129533
129531
129534
129554
129563
129563
129556
129545
129534
129523
129515
129510
129433
129451
129455
129445
129430
129411
129392
129376
129363
129357
129535
129548
129542
129522
129495
129467
129440
129418
129401
129390
129863
129864
129864
129865
129864
129864
129863
129861
129860
129858
129794
129796
129797
129798
129798
129797
129796
129793
129789
129784
129771
129774
129777
129778
129779
129778
129777
129774
129771
129770
129620
129625
129629
129632
129634
129634
129633
129630
129627
129625
129509
129516
129523
129528
129531
129531
129531
129529
129526
129527
129423
129434
129444
129452
129456
129458
129457
129455
129452
129450
129285
129299
129311
129319
129323
129323
129321
129318
129314
129313
129293
129310
129324
129330
129332
129330
129327
129322
129317
129312
129182
129199
129210
129212
129208
129201
129192
129183
129174
129167
129273
129289
129292
129287
129276
129262
129247
129233
129221
129211
129586
129586
129587
129587
129587
129587
129586
129585
129584
129584
129488
129489
129491
129492
129493
129493
129493
129493
129491
129489
129475
129478
129481
129483
129485
129486
129486
129485
129485
129488
129335
129340
129344
129348
129351
129353
129354
129354
129354
129354
129245
129251
129258
129264
129268
129271
129273
129273
129274
129276
129175
129184
129194
129203
129209
129214
129216
129217
129217
129216
129049
129061
129074
129084
129091
129095
129097
129097
129096
129095
129069
129085
129099
129109
129116
129119
129120
129119
129117
129112
128951
128966
128980
128988
128991
128991
128988
128983
128977
128972
129041
129055
129064
129067
129064
129059
129052
129044
129036
129028
129320
129320
129321
129321
129321
129321
129321
129320
129320
129320
129196
129197
129199
129200
129202
129204
129205
129206
129207
129208
129201
129203
129206
129209
129211
129213
129215
129215
129218
129223
129071
129076
129080
129085
129089
129092
129095
129097
129098
129100
129001
129008
129015
129021
129027
129031
129035
129037
129039
129042
128946
128955
128965
128974
128982
128988
128992
128995
128996
128995
128834
128845
128858