/*--------------------------------*- C++ -*----------------------------------*\
| =========                 |                                                 |
| \\      /  F ield         | foam-extend: Open Source CFD                    |
|  \\    /   O peration     | Version:     4.0                                |
|   \\  /    A nd           | Web:         http://www.foam-extend.org         |
|    \\/     M anipulation  |                                                 |
\*---------------------------------------------------------------------------*/
FoamFile
{
    version     2.0;
    format      ascii;
    class       volScalarField;
    location    "50";
    object      rho;
}
// * * * * * * * * * * * * * * * * * * * * * * * * * * * * * * * * * * * * * //

dimensions      [1 -3 0 0 0 0 0];

internalField   nonuniform List<scalar> 
34480
(
1.52841
1.52833
1.52803
1.52762
1.52724
1.52693
1.5268
1.52739
1.52533
1.51048
1.5202
1.52219
1.52325
1.52317
1.52208
1.51996
1.51675
1.51295
1.50652
1.48292
1.51974
1.52143
1.52247
1.52227
1.52118
1.51922
1.5163
1.51228
1.5054
1.47244
1.52211
1.52365
1.52502
1.52505
1.52426
1.52253
1.51986
1.51551
1.50765
1.46396
1.52427
1.5262
1.52856
1.52949
1.52958
1.52842
1.526
1.52114
1.51174
1.45677
1.52499
1.52799
1.53197
1.53453
1.53616
1.53596
1.53381
1.52808
1.51637
1.45002
1.52445
1.52892
1.53492
1.53956
1.54308
1.544
1.54183
1.5347
1.51989
1.44281
1.52555
1.5315
1.53934
1.54623
1.55184
1.55405
1.5518
1.54316
1.5251
1.43892
1.52531
1.53202
1.54101
1.54968
1.55699
1.56043
1.55851
1.54914
1.52876
1.43692
1.52477
1.53197
1.54176
1.55167
1.56003
1.5643
1.56305
1.55505
1.5367
1.44512
1.53645
1.53641
1.53613
1.53578
1.53551
1.53534
1.53535
1.53563
1.53625
1.5357
1.52831
1.53048
1.53169
1.53185
1.53109
1.52942
1.52678
1.5233
1.51999
1.5157
1.52805
1.53004
1.53122
1.53121
1.53029
1.52857
1.52599
1.52238
1.51928
1.51383
1.53033
1.53216
1.5335
1.53358
1.53277
1.53102
1.52843
1.52443
1.52089
1.5124
1.53247
1.53457
1.53664
1.53736
1.53714
1.53563
1.53299
1.52822
1.52354
1.51051
1.53335
1.53629
1.53962
1.54157
1.54247
1.54151
1.53876
1.53279
1.52616
1.50733
1.53296
1.53706
1.54197
1.54553
1.54783
1.54755
1.54444
1.53677
1.52746
1.50232
1.5339
1.53918
1.54555
1.55088
1.55476
1.55532
1.55186
1.54244
1.53025
1.49946
1.53329
1.5392
1.54654
1.55326
1.55831
1.55961
1.55612
1.54576
1.53158
1.49826
1.53273
1.53893
1.54692
1.55462
1.56046
1.56224
1.55891
1.54913
1.53602
1.50624
1.54251
1.54256
1.54237
1.54218
1.54209
1.54213
1.54235
1.54266
1.5426
1.54094
1.53481
1.53699
1.53823
1.53853
1.53808
1.53685
1.53471
1.53156
1.528
1.52361
1.53421
1.53631
1.53754
1.53774
1.53722
1.53605
1.53403
1.53088
1.52769
1.52322
1.53587
1.53773
1.53903
1.53925
1.53879
1.53767
1.53577
1.53248
1.52928
1.5239
1.53746
1.53944
1.54123
1.5419
1.54186
1.5409
1.53904
1.53531
1.53159
1.52448
1.53794
1.54052
1.54327
1.54486
1.54562
1.54502
1.54309
1.53849
1.53362
1.524
1.53719
1.54064
1.54463
1.54744
1.54922
1.54902
1.54677
1.54087
1.53426
1.52172
1.53774
1.54212
1.54728
1.55144
1.55436
1.55468
1.55204
1.5448
1.5363
1.52118
1.53696
1.54189
1.54787
1.55311
1.55681
1.55745
1.55457
1.54666
1.537
1.52141
1.53633
1.54151
1.54804
1.55407
1.55833
1.55923
1.55624
1.54866
1.53985
1.52785
1.54688
1.54708
1.547
1.54691
1.54688
1.54694
1.54707
1.54711
1.54656
1.54394
1.53965
1.54186
1.54311
1.5435
1.54321
1.54222
1.54033
1.53725
1.53317
1.52795
1.53892
1.54105
1.54228
1.5426
1.54229
1.5414
1.53969
1.53675
1.53319
1.52825
1.54009
1.54192
1.54309
1.54336
1.54307
1.54227
1.54076
1.53795
1.53479
1.52974
1.54122
1.54302
1.54449
1.54502
1.54499
1.5443
1.54289
1.53996
1.5369
1.53142
1.54138
1.54356
1.54571
1.54688
1.54739
1.5469
1.54544
1.54201
1.53858
1.53237
1.54033
1.54314
1.54622
1.54828
1.54947
1.54918
1.54743
1.54311
1.53887
1.5318
1.54055
1.54408
1.54807
1.55115
1.55312
1.55309
1.55098
1.54571
1.54049
1.5329
1.53964
1.54363
1.5483
1.55222
1.55475
1.55482
1.55236
1.5466
1.54093
1.53434
1.53902
1.54319
1.5483
1.55283
1.55578
1.55603
1.55339
1.5477
1.54269
1.54029
1.54985
1.55017
1.55018
1.55014
1.55014
1.55017
1.5502
1.55006
1.54926
1.54638
1.54299
1.54521
1.54646
1.54689
1.54671
1.54587
1.54413
1.5411
1.53666
1.53097
1.54216
1.54428
1.5455
1.54588
1.54571
1.54502
1.54351
1.54072
1.53669
1.53136
1.54292
1.54467
1.54572
1.54599
1.54582
1.54524
1.54401
1.54153
1.53803
1.53285
1.54367
1.54525
1.54641
1.54681
1.54678
1.5463
1.54523
1.54288
1.53982
1.53465
1.54356
1.54534
1.54695
1.54777
1.54808
1.54769
1.5466
1.54406
1.54117
1.53593
1.54227
1.54447
1.54676
1.5482
1.54895
1.54862
1.5473
1.54424
1.5412
1.53595
1.54227
1.54503
1.54801
1.55019
1.55145
1.55122
1.54956
1.5459
1.54258
1.53772
1.54137
1.54449
1.54802
1.55084
1.55248
1.55224
1.55023
1.5462
1.54297
1.53978
1.54081
1.54407
1.54794
1.55122
1.55317
1.55302
1.55083
1.54676
1.54406
1.54513
1.55153
1.55193
1.55199
1.55199
1.55199
1.55199
1.55195
1.5517
1.55078
1.5478
1.54492
1.54712
1.54835
1.5488
1.54867
1.54792
1.54627
1.54325
1.53856
1.53244
1.54402
1.54611
1.54729
1.5477
1.54761
1.54704
1.54568
1.54297
1.53862
1.53281
1.54444
1.54609
1.54703
1.5473
1.5472
1.54677
1.54574
1.54349
1.53969
1.53417
1.54489
1.54626
1.54716
1.54745
1.54743
1.54709
1.54627
1.54434
1.54114
1.53589
1.54458
1.54601
1.54717
1.54771
1.54788
1.54758
1.54678
1.5449
1.54216
1.53719
1.54313
1.54483
1.54646
1.54741
1.54784
1.54752
1.54656
1.54443
1.54197
1.53739
1.54304
1.54514
1.54728
1.54875
1.5495
1.54917
1.54792
1.54544
1.54319
1.53939
1.54222
1.54458
1.54715
1.54909
1.55009
1.5497
1.54813
1.54542
1.54363
1.54178
1.54179
1.54422
1.54704
1.54933
1.55053
1.55017
1.54843
1.54566
1.54438
1.5464
1.55206
1.55251
1.55261
1.55263
1.55262
1.5526
1.55251
1.55221
1.55127
1.54831
1.54559
1.54774
1.54895
1.54939
1.54929
1.54859
1.54701
1.54401
1.53919
1.5328
1.54464
1.54668
1.54782
1.54824
1.5482
1.5477
1.54644
1.54379
1.53926
1.53307
1.5448
1.54636
1.5472
1.54745
1.5474
1.54706
1.54618
1.54409
1.54013
1.53429
1.54502
1.54623
1.54694
1.54714
1.54712
1.54687
1.54623
1.5446
1.54131
1.53589
1.5446
1.54576
1.54658
1.5469
1.54697
1.54674
1.54617
1.54475
1.54207
1.53713
1.54309
1.54438
1.5455
1.54608
1.5463
1.54602
1.54533
1.54386
1.54169
1.53737
1.54299
1.54456
1.54604
1.54698
1.54737
1.54702
1.54611
1.54447
1.54278
1.53942
1.54229
1.54402
1.54581
1.54707
1.54762
1.54718
1.54602
1.54428
1.54328
1.54191
1.54203
1.54377
1.54573
1.54724
1.54791
1.54747
1.54616
1.54436
1.54389
1.54584
1.55158
1.55207
1.55218
1.55221
1.5522
1.55216
1.55205
1.55174
1.55082
1.54791
1.54518
1.54726
1.54841
1.54884
1.54875
1.5481
1.54658
1.54363
1.53877
1.53222
1.54423
1.5462
1.54728
1.5477
1.54768
1.54723
1.54603
1.54345
1.53883
1.5324
1.54418
1.54566
1.54643
1.54666
1.54663
1.54636
1.54557
1.5436
1.53958
1.5335
1.54425
1.54534
1.54592
1.54606
1.54604
1.54585
1.54534
1.54391
1.54061
1.53502
1.54378
1.54475
1.54533
1.54552
1.54553
1.54535
1.54493
1.54381
1.5412
1.53622
1.54229
1.54329
1.54404
1.54437
1.54444
1.5442
1.54372
1.5427
1.54069
1.53646
1.54227
1.54344
1.54442
1.54496
1.54512
1.5448
1.54415
1.5431
1.54171
1.5385
1.5417
1.54292
1.5441
1.54487
1.54511
1.5447
1.54387
1.5428
1.54221
1.54091
1.54163
1.54281
1.5441
1.54502
1.54534
1.54491
1.54395
1.54285
1.54279
1.54434
1.55026
1.55075
1.55087
1.55091
1.5509
1.55085
1.55074
1.55044
1.54955
1.54671
1.54387
1.54585
1.54695
1.54736
1.54728
1.54668
1.54524
1.54236
1.53753
1.53092
1.54297
1.54485
1.54588
1.54627
1.54627
1.54585
1.54472
1.54222
1.53761
1.53105
1.54278
1.54419
1.5449
1.54512
1.5451
1.54486
1.54414
1.54228
1.53829
1.53209
1.54277
1.54379
1.54428
1.54439
1.54437
1.54421
1.54378
1.54249
1.53924
1.53358
1.54232
1.54317
1.5436
1.54369
1.54367
1.54352
1.5432
1.54228
1.53975
1.53476
1.5409
1.54171
1.5422
1.54237
1.54236
1.54216
1.54182
1.54108
1.53919
1.53501
1.541
1.54189
1.5425
1.54279
1.54281
1.54252
1.54208
1.54139
1.54017
1.53702
1.54056
1.5414
1.54213
1.54254
1.5426
1.54224
1.54167
1.54105
1.54064
1.53925
1.54069
1.54143
1.54222
1.54274
1.54283
1.54244
1.54177
1.54114
1.54127
1.54237
1.54824
1.54874
1.54887
1.5489
1.54889
1.54885
1.54874
1.54846
1.54761
1.54484
1.54186
1.54373
1.54476
1.54515
1.54508
1.54453
1.54318
1.54042
1.53567
1.52909
1.54105
1.54284
1.54381
1.54418
1.54418
1.5438
1.54275
1.54034
1.53581
1.52924
1.54078
1.54213
1.5428
1.54301
1.543
1.54278
1.54213
1.54037
1.53647
1.53027
1.54076
1.54175
1.54219
1.54229
1.54226
1.54212
1.54173
1.54055
1.5374
1.53177
1.54038
1.54117
1.5415
1.54155
1.54151
1.54138
1.54112
1.54032
1.5379
1.53296
1.53909
1.53978
1.54011
1.54017
1.54012
1.53995
1.5397
1.53913
1.53734
1.53322
1.53933
1.54002
1.5404
1.54052
1.54046
1.54022
1.53991
1.53945
1.53833
1.5352
1.53898
1.53955
1.53997
1.54015
1.5401
1.5398
1.53942
1.53907
1.53873
1.5372
1.53931
1.53974
1.54018
1.54042
1.54039
1.54005
1.5396
1.53926
1.53945
1.54017
1.54572
1.54621
1.54634
1.54637
1.54636
1.54632
1.54622
1.54596
1.54515
1.54247
1.53933
1.54108
1.54206
1.54242
1.54237
1.54188
1.54064
1.53801
1.53341
1.52691
1.53868
1.54037
1.54128
1.54163
1.54163
1.54129
1.54032
1.53805
1.53366
1.52716
1.53838
1.53968
1.54031
1.54052
1.54051
1.54031
1.53971
1.53807
1.53432
1.52823
1.53841
1.53938
1.5398
1.53989
1.53986
1.53973
1.53938
1.53828
1.53526
1.52976
1.53813
1.5389
1.53918
1.53921
1.53915
1.53904
1.53881
1.53809
1.53578
1.53097
1.53699
1.53762
1.53785
1.53786
1.53778
1.53764
1.53744
1.53696
1.53527
1.53124
1.53737
1.53796
1.53818
1.5382
1.5381
1.53791
1.53769
1.53735
1.53629
1.53318
1.53708
1.53748
1.5377
1.53773
1.53763
1.53739
1.53713
1.53693
1.53661
1.53496
1.53762
1.53783
1.53803
1.5381
1.538
1.53773
1.53744
1.53727
1.53745
1.53787
1.54286
1.54334
1.54347
1.5435
1.54349
1.54345
1.54336
1.54312
1.54236
1.53979
1.53648
1.53813
1.53904
1.53939
1.53935
1.53893
1.53781
1.53536
1.53094
1.52458
1.53605
1.53763
1.53849
1.53882
1.53882
1.53852
1.53765
1.53555
1.53135
1.52501
1.53575
1.53701
1.53762
1.53782
1.53782
1.53764
1.53709
1.53557
1.53202
1.52612
1.53588
1.53686
1.53726
1.53735
1.53732
1.5372
1.53687
1.53586
1.533
1.5277
1.53572
1.5365
1.53675
1.53677
1.53671
1.5366
1.53639
1.53574
1.53355
1.52891
1.53474
1.53536
1.53553
1.53551
1.53543
1.5353
1.53513
1.53471
1.53309
1.52919
1.53527
1.5358
1.53593
1.5359
1.53579
1.53563
1.53546
1.53519
1.53417
1.5311
1.53501
1.5353
1.53539
1.53535
1.53523
1.53503
1.53486
1.53473
1.5344
1.53265
1.53572
1.53581
1.53586
1.53583
1.53571
1.5355
1.53531
1.53523
1.53537
1.53558
1.53987
1.54032
1.54045
1.54048
1.54048
1.54044
1.54035
1.54014
1.53943
1.53699
1.53352
1.53507
1.53594
1.53626
1.53625
1.53589
1.5349
1.53264
1.52846
1.52231
1.53334
1.53483
1.53564
1.53595
1.53596
1.5357
1.53493
1.53301
1.52907
1.52296
1.53309
1.53431
1.5349
1.53509
1.53509
1.53493
1.53444
1.53306
1.52973
1.52411
1.53335
1.53432
1.53471
1.5348
1.53477
1.53466
1.53435
1.53342
1.53076
1.52572
1.53331
1.53409
1.53434
1.53435
1.5343
1.53419
1.53399
1.53338
1.53133
1.52691
1.53249
1.5331
1.53325
1.53322
1.53314
1.53302
1.53287
1.53248
1.53095
1.52719
1.53315
1.53366
1.53374
1.53369
1.53359
1.53345
1.53332
1.53307
1.53209
1.52908
1.53287
1.53312
1.53313
1.53306
1.53294
1.53278
1.53266
1.53256
1.53221
1.5304
1.53376
1.53377
1.53374
1.53367
1.53354
1.53338
1.53326
1.53322
1.53332
1.53338
1.53694
1.53735
1.53747
1.5375
1.5375
1.53746
1.53739
1.53719
1.53655
1.53428
1.53066
1.53213
1.53294
1.53326
1.53326
1.53296
1.53211
1.53007
1.52617
1.52029
1.53075
1.53216
1.53292
1.53321
1.53322
1.533
1.53234
1.53062
1.52697
1.52118
1.53056
1.53175
1.53232
1.5325
1.5325
1.53235
1.53192
1.53069
1.52763
1.52234
1.53096
1.53193
1.53231
1.5324
1.53237
1.53226
1.53198
1.53113
1.52868
1.52394
1.53104
1.53182
1.53206
1.53207
1.53202
1.53191
1.53173
1.53116
1.52927
1.5251
1.53037
1.53098
1.53111
1.53108
1.531
1.5309
1.53076
1.53038
1.52896
1.52537
1.53115
1.53165
1.53171
1.53166
1.53156
1.53145
1.53133
1.5311
1.53016
1.52723
1.53081
1.53103
1.53101
1.53093
1.53082
1.5307
1.5306
1.5305
1.53014
1.52833
1.53185
1.53183
1.53177
1.53169
1.53158
1.53145
1.53137
1.53134
1.53139
1.53136
1.53423
1.5346
1.53471
1.53475
1.53475
1.53472
1.53465
1.53447
1.5339
1.53185
1.52809
1.52949
1.53027
1.53057
1.53059
1.53035
1.52963
1.52783
1.52426
1.51872
1.52846
1.52981
1.53052
1.53078
1.5308
1.53061
1.53005
1.52855
1.52524
1.51984
1.52833
1.52949
1.53003
1.53019
1.53019
1.53006
1.52968
1.5286
1.52584
1.52093
1.52885
1.52981
1.53017
1.53026
1.53023
1.53012
1.52986
1.52911
1.52689
1.5225
1.52902
1.52978
1.53
1.53002
1.52997
1.52987
1.5297
1.52918
1.52747
1.52358
1.52846
1.52906
1.52919
1.52917
1.5291
1.529
1.52887
1.52852
1.52721
1.52383
1.52936
1.52983
1.52989
1.52984
1.52976
1.52967
1.52957
1.52934
1.52847
1.52566
1.52889
1.52909
1.52907
1.529
1.52891
1.52881
1.52873
1.52863
1.52828
1.5265
1.53009
1.53006
1.53
1.52992
1.52983
1.52974
1.52968
1.52965
1.52968
1.52958
1.53192
1.53223
1.53233
1.53236
1.53236
1.53233
1.53227
1.53212
1.53165
1.52988
1.52602
1.52737
1.5281
1.52838
1.52841
1.52822
1.52762
1.52609
1.52288
1.51775
1.52664
1.52793
1.52858
1.52882
1.52883
1.52867
1.5282
1.52692
1.52399
1.51905
1.52654
1.52764
1.52813
1.52828
1.52828
1.52816
1.52784
1.52691
1.52448
1.52001
1.52713
1.52803
1.52836
1.52844
1.52841
1.52831
1.52809
1.52743
1.5255
1.52148
1.5273
1.52801
1.52821
1.52823
1.52819
1.52811
1.52795
1.52749
1.52601
1.52244
1.52681
1.52737
1.52748
1.52747
1.52742
1.52734
1.52723
1.52691
1.52577
1.52264
1.52776
1.52819
1.52824
1.5282
1.52815
1.52808
1.528
1.52779
1.52704
1.5244
1.52709
1.52727
1.52724
1.52718
1.52712
1.52705
1.52699
1.5269
1.52659
1.52492
1.52846
1.52842
1.52836
1.52829
1.52822
1.52817
1.52814
1.52812
1.52813
1.52802
1.53008
1.53032
1.5304
1.53043
1.53042
1.5304
1.53034
1.53023
1.52986
1.52844
1.52461
1.52588
1.52654
1.5268
1.52683
1.52668
1.52621
1.52496
1.52218
1.51753
1.52543
1.52662
1.52719
1.5274
1.52741
1.52728
1.5269
1.52587
1.52338
1.51894
1.52525
1.52624
1.52666
1.52679
1.52679
1.5267
1.52644
1.52569
1.52368
1.51968
1.52578
1.52656
1.52683
1.5269
1.52689
1.52682
1.52665
1.52613
1.52456
1.52099
1.52583
1.52642
1.52658
1.5266
1.52658
1.52653
1.52643
1.52608
1.5249
1.52175
1.52531
1.52576
1.52584
1.52584
1.52581
1.52578
1.52571
1.52548
1.5246
1.52183
1.52621
1.52654
1.52656
1.52653
1.5265
1.52647
1.52644
1.52631
1.52576
1.52343
1.52521
1.52532
1.52528
1.52523
1.52519
1.52517
1.52516
1.52512
1.52491
1.5235
1.52679
1.52673
1.52665
1.52659
1.52655
1.52653
1.52655
1.52657
1.52662
1.52653
1.52886
1.52905
1.52911
1.52913
1.52913
1.52911
1.52906
1.52897
1.52872
1.52771
1.52403
1.52514
1.52568
1.52588
1.52591
1.52581
1.5255
1.52459
1.52239
1.51833
1.52498
1.52598
1.52641
1.52656
1.52659
1.52652
1.52628
1.52556
1.52366
1.51987
1.52457
1.52533
1.52562
1.52571
1.52573
1.52571
1.52558
1.52512
1.52368
1.52032
1.52485
1.52539
1.52555
1.52559
1.5256
1.52561
1.52557
1.5253
1.52427
1.52136
1.52459
1.52496
1.52502
1.52503
1.52503
1.52506
1.52509
1.52496
1.52428
1.52178
1.52389
1.52415
1.52416
1.52413
1.52413
1.52417
1.52422
1.52419
1.52374
1.5216
1.52452
1.52467
1.52462
1.52457
1.52456
1.5246
1.52468
1.52473
1.52452
1.52277
1.52305
1.52305
1.52297
1.5229
1.52288
1.52291
1.52299
1.52309
1.52308
1.52212
1.52507
1.52495
1.52484
1.52476
1.52474
1.52476
1.52485
1.52497
1.52512
1.52514
1.52905
1.52919
1.52922
1.52923
1.52924
1.52925
1.52924
1.52921
1.52907
1.52849
1.5248
1.52556
1.52584
1.52593
1.52596
1.52597
1.5259
1.52552
1.52422
1.52109
1.526
1.52657
1.52673
1.52676
1.52679
1.52684
1.52687
1.5267
1.52576
1.52302
1.52525
1.5256
1.52564
1.52562
1.52565
1.52575
1.52589
1.52592
1.5254
1.52315
1.52503
1.52519
1.52513
1.52507
1.52509
1.52521
1.52542
1.52561
1.52544
1.52369
1.52431
1.52434
1.52421
1.52413
1.52415
1.52428
1.52452
1.52481
1.52488
1.52354
1.52328
1.52325
1.5231
1.52301
1.52301
1.52314
1.52338
1.5237
1.52391
1.52287
1.52325
1.52315
1.52297
1.52286
1.52285
1.52297
1.5232
1.52354
1.52386
1.52314
1.52118
1.52104
1.52087
1.52077
1.52075
1.52083
1.52102
1.5213
1.52162
1.52135
1.52424
1.52404
1.52387
1.52376
1.52374
1.5238
1.52396
1.5242
1.52451
1.52475
1.53142
1.53128
1.53119
1.53115
1.53115
1.5312
1.5313
1.53144
1.53159
1.5318
1.52893
1.52878
1.52853
1.52838
1.52836
1.52848
1.52876
1.52915
1.52941
1.52856
1.53072
1.5303
1.52991
1.52968
1.52965
1.52982
1.5302
1.5308
1.53144
1.53121
1.52945
1.52894
1.52853
1.52831
1.52829
1.52847
1.52889
1.52955
1.53041
1.53067
1.52844
1.52787
1.52745
1.52724
1.52722
1.52741
1.52783
1.52853
1.52952
1.53019
1.52717
1.5266
1.52621
1.526
1.52599
1.52616
1.52657
1.52725
1.52828
1.52921
1.52578
1.52525
1.52489
1.5247
1.52468
1.52484
1.5252
1.52583
1.52681
1.52786
1.52477
1.52427
1.52394
1.52377
1.52374
1.52387
1.52419
1.52474
1.52566
1.52676
1.52182
1.52146
1.52121
1.52107
1.52104
1.52114
1.52137
1.52178
1.52242
1.52327
1.52591
1.52562
1.52542
1.5253
1.52527
1.52534
1.52551
1.52581
1.52624
1.52675
1.55878
1.56423
1.56758
1.56715
1.55359
1.56007
1.56421
1.56329
1.56341
1.5707
1.57571
1.57417
1.57412
1.58217
1.5886
1.58706
1.58405
1.59256
1.60052
1.59934
1.59236
1.6011
1.61065
1.61012
1.59838
1.60715
1.61823
1.61852
1.60566
1.61431
1.62682
1.62803
1.61275
1.62106
1.63486
1.63696
1.6237
1.63098
1.64455
1.64679
1.52934
1.52882
1.52968
1.53167
1.52094
1.52093
1.52061
1.52075
1.52722
1.52807
1.52799
1.52781
1.53486
1.53661
1.53687
1.53647
1.54268
1.54529
1.54588
1.54519
1.54966
1.55306
1.55398
1.55299
1.55504
1.55914
1.56045
1.5592
1.56225
1.56703
1.56881
1.56738
1.57007
1.57569
1.57811
1.57643
1.58362
1.59069
1.59325
1.59016
1.53816
1.53775
1.53815
1.53919
1.5256
1.52555
1.52525
1.52524
1.5297
1.53013
1.52998
1.52996
1.53533
1.53632
1.53655
1.53673
1.5415
1.54313
1.54383
1.54414
1.54723
1.54958
1.55076
1.55112
1.55176
1.55487
1.55653
1.55687
1.5584
1.5623
1.56449
1.56473
1.56574
1.57067
1.57343
1.57334
1.57731
1.5837
1.58654
1.58519
1.53974
1.53892
1.53904
1.53997
1.52538
1.52458
1.52406
1.52414
1.52781
1.5272
1.52666
1.52675
1.53159
1.53116
1.53075
1.53108
1.53608
1.53592
1.53575
1.53635
1.54039
1.54061
1.54079
1.54162
1.54374
1.54447
1.54507
1.54611
1.54924
1.55061
1.55175
1.55293
1.55509
1.55742
1.55923
1.56039
1.56401
1.56801
1.57041
1.57099
1.54237
1.5415
1.5415
1.54227
1.52744
1.52653
1.52602
1.52606
1.52892
1.52812
1.52755
1.52751
1.53138
1.53059
1.53
1.53011
1.53451
1.53379
1.53325
1.53356
1.53761
1.53705
1.53666
1.53718
1.53992
1.53963
1.53951
1.54024
1.54442
1.54457
1.54485
1.54579
1.5492
1.55011
1.55101
1.55209
1.55699
1.55942
1.561
1.56176
1.54391
1.54303
1.54296
1.54364
1.52832
1.52729
1.52679
1.52688
1.52919
1.5282
1.52763
1.52763
1.53081
1.52974
1.52909
1.5292
1.53301
1.53189
1.53122
1.53148
1.53519
1.53411
1.5335
1.53393
1.53666
1.53574
1.53528
1.5359
1.54037
1.53976
1.5396
1.54044
1.54452
1.54454
1.54495
1.54603
1.55166
1.55307
1.55413
1.5549
1.54457
1.5437
1.5436
1.54421
1.52841
1.52733
1.52684
1.52699
1.52891
1.52781
1.52726
1.52735
1.53005
1.52884
1.52821
1.52838
1.53171
1.53041
1.52973
1.53
1.53331
1.53199
1.53132
1.53171
1.53421
1.53297
1.53239
1.53293
1.53735
1.53635
1.53599
1.53672
1.54114
1.54068
1.54083
1.54181
1.5478
1.54856
1.54923
1.54988
1.5443
1.54345
1.54332
1.54389
1.52764
1.5265
1.52602
1.52623
1.52788
1.52671
1.52619
1.52636
1.52878
1.5275
1.52692
1.52718
1.53019
1.5288
1.52817
1.52852
1.5315
1.53007
1.52942
1.52986
1.53207
1.53068
1.53008
1.53062
1.53485
1.53365
1.53324
1.53392
1.53839
1.53768
1.53769
1.53857
1.54463
1.545
1.54542
1.54595
1.5432
1.54236
1.54222
1.54277
1.52617
1.52499
1.52452
1.52478
1.52629
1.52507
1.52456
1.52482
1.52713
1.52582
1.52529
1.52563
1.52849
1.52709
1.52652
1.52695
1.5297
1.52826
1.52769
1.52818
1.53012
1.5287
1.52816
1.52873
1.53271
1.53145
1.53104
1.53171
1.53596
1.53513
1.53507
1.53586
1.54183
1.54198
1.54224
1.54267
1.5414
1.54057
1.54043
1.54096
1.52419
1.52296
1.5225
1.52282
1.5243
1.52303
1.52254
1.52286
1.52519
1.52386
1.52337
1.5238
1.52662
1.52523
1.52474
1.52524
1.52786
1.52646
1.52597
1.52652
1.52825
1.52687
1.52641
1.52701
1.53071
1.52947
1.52911
1.52977
1.53361
1.53275
1.53265
1.53337
1.53924
1.53925
1.53942
1.53978
1.53906
1.53824
1.5381
1.53863
1.52189
1.52062
1.52016
1.52053
1.52209
1.52079
1.52031
1.5207
1.52309
1.52176
1.52131
1.5218
1.52464
1.52329
1.52286
1.52341
1.52596
1.52463
1.52421
1.5248
1.52637
1.52507
1.52468
1.52529
1.52875
1.52757
1.52726
1.5279
1.53128
1.53042
1.5303
1.53097
1.53677
1.53672
1.53683
1.53714
1.53639
1.53557
1.53543
1.53598
1.51948
1.51817
1.51771
1.51813
1.51986
1.51853
1.51807
1.51851
1.52099
1.51966
1.51925
1.51979
1.52266
1.52136
1.52098
1.52157
1.52406
1.52279
1.52244
1.52305
1.52449
1.52327
1.52294
1.52357
1.5268
1.52569
1.52542
1.52605
1.52897
1.52811
1.528
1.52865
1.53443
1.53434
1.53442
1.53469
1.53359
1.53277
1.53264
1.53321
1.51715
1.51583
1.51537
1.51582
1.5178
1.51646
1.51602
1.51651
1.51904
1.51773
1.51736
1.51793
1.52082
1.51956
1.51922
1.51985
1.52224
1.52104
1.52074
1.52138
1.52267
1.52152
1.52125
1.52189
1.52491
1.52386
1.52364
1.52426
1.52672
1.52588
1.52579
1.52644
1.53226
1.53215
1.5322
1.53245
1.53089
1.53007
1.52996
1.53055
1.51513
1.5138
1.51336
1.51384
1.51607
1.51475
1.51434
1.51487
1.51739
1.51612
1.51578
1.51638
1.51921
1.51801
1.51773
1.51837
1.52061
1.51948
1.51923
1.51988
1.521
1.51992
1.5197
1.52035
1.52316
1.52217
1.52198
1.52262
1.52463
1.5238
1.52373
1.52439
1.5303
1.5302
1.53024
1.53044
1.52851
1.52769
1.52759
1.52823
1.51363
1.51231
1.51188
1.51239
1.51486
1.51358
1.51321
1.51377
1.51616
1.51495
1.51465
1.51527
1.51796
1.51682
1.51659
1.51724
1.51924
1.51818
1.51799
1.51865
1.51956
1.51854
1.51837
1.51904
1.52162
1.52067
1.52054
1.52119
1.52276
1.52194
1.52189
1.52258
1.52863
1.52854
1.52856
1.52873
1.52663
1.52582
1.52575
1.52642
1.51281
1.51153
1.51114
1.51166
1.51428
1.51307
1.51276
1.51335
1.51544
1.5143
1.51406
1.5147
1.51711
1.51605
1.51587
1.51654
1.5182
1.51721
1.51707
1.51776
1.51839
1.51742
1.51732
1.51802
1.52035
1.51943
1.51934
1.52003
1.52116
1.52034
1.52032
1.52105
1.52721
1.52713
1.52715
1.52729
1.52541
1.52463
1.52459
1.52528
1.5128
1.51161
1.51128
1.51183
1.51442
1.51331
1.51308
1.5137
1.51529
1.51425
1.51408
1.51475
1.51673
1.51574
1.51563
1.51633
1.51755
1.51661
1.51653
1.51726
1.51757
1.51664
1.51659
1.51734
1.51936
1.51847
1.51843
1.51918
1.51982
1.51901
1.519
1.51977
1.52592
1.52586
1.52588
1.52598
1.5251
1.52438
1.52436
1.52505
1.51385
1.51277
1.51255
1.51314
1.51556
1.51455
1.51441
1.51507
1.51606
1.51508
1.51499
1.5157
1.51716
1.51623
1.51618
1.51692
1.51762
1.51671
1.51669
1.51746
1.51741
1.5165
1.51648
1.51728
1.51887
1.51801
1.51799
1.51879
1.51881
1.51803
1.51803
1.51879
1.52476
1.52474
1.52476
1.52483
1.52658
1.52599
1.52598
1.52657
1.51693
1.51598
1.51587
1.5165
1.51899
1.51808
1.51801
1.51869
1.51911
1.5182
1.51815
1.51888
1.51976
1.51888
1.51885
1.51961
1.51974
1.51888
1.51885
1.51964
1.51915
1.51828
1.51826
1.51907
1.51986
1.51905
1.51904
1.51982
1.51875
1.51805
1.51805
1.51876
1.52465
1.52467
1.5247
1.52476
1.53125
1.53098
1.53099
1.53127
1.52538
1.52471
1.52475
1.52543
1.52842
1.52781
1.52788
1.5286
1.52809
1.52749
1.52756
1.52829
1.52801
1.52745
1.52753
1.52825
1.52739
1.52689
1.52696
1.52766
1.52635
1.52588
1.52595
1.5266
1.5258
1.52541
1.52548
1.52606
1.52259
1.52225
1.52229
1.52275
1.52715
1.52726
1.52732
1.52733
1.55584
1.54832
1.54066
1.536
1.53292
1.53088
1.52949
1.52859
1.52816
1.52817
1.54281
1.52965
1.52124
1.51692
1.51462
1.51361
1.51345
1.51397
1.51532
1.51741
1.54612
1.53083
1.52114
1.51642
1.51373
1.51248
1.51215
1.51257
1.51404
1.5166
1.55119
1.53498
1.52453
1.51958
1.51655
1.51502
1.51443
1.51463
1.51596
1.51872
1.55573
1.53901
1.52785
1.5225
1.51899
1.51705
1.5161
1.51605
1.51727
1.52034
1.55906
1.54193
1.53003
1.5241
1.51996
1.51751
1.51617
1.5159
1.51703
1.52038
1.56062
1.54297
1.53041
1.52385
1.51915
1.51624
1.5146
1.51422
1.51541
1.51909
1.56399
1.54552
1.53244
1.52538
1.52038
1.51727
1.51559
1.51527
1.51654
1.52003
1.56704
1.54702
1.53376
1.52669
1.52195
1.519
1.5174
1.51703
1.5181
1.52065
1.57304
1.55142
1.53769
1.52968
1.52427
1.52068
1.51866
1.51799
1.51884
1.52082
1.53637
1.53914
1.53981
1.53951
1.53883
1.53805
1.5373
1.53667
1.53624
1.53614
1.52139
1.52265
1.5224
1.52207
1.52185
1.52185
1.52213
1.52274
1.52383
1.52552
1.52746
1.52715
1.525
1.52331
1.5221
1.52146
1.52136
1.52177
1.52289
1.52495
1.53529
1.53371
1.53006
1.52737
1.52543
1.52428
1.52381
1.52395
1.52489
1.52705
1.54291
1.53983
1.53465
1.53098
1.52829
1.5266
1.52574
1.52563
1.52642
1.52877
1.54938
1.54459
1.53785
1.53314
1.52968
1.52744
1.52619
1.52589
1.5266
1.52912
1.55411
1.54745
1.53923
1.53353
1.52936
1.52663
1.52509
1.52469
1.52543
1.52817
1.56071
1.55178
1.54216
1.53558
1.53089
1.52786
1.52619
1.52578
1.52656
1.52909
1.56764
1.5553
1.54449
1.53737
1.5325
1.52931
1.52749
1.52691
1.52747
1.52925
1.57877
1.5619
1.54943
1.54082
1.53489
1.5309
1.52857
1.52764
1.52802
1.52934
1.54133
1.54337
1.54405
1.544
1.54364
1.54318
1.54272
1.54233
1.54209
1.54214
1.52556
1.52636
1.52674
1.52709
1.52747
1.52794
1.52854
1.52937
1.53055
1.5322
1.52969
1.52949
1.52857
1.52786
1.52745
1.52736
1.5276
1.52822
1.5294
1.53133
1.53605
1.53507
1.53307
1.53152
1.53044
1.52983
1.52967
1.52999
1.53096
1.53291
1.54277
1.54067
1.53738
1.53488
1.53306
1.53189
1.53133
1.53137
1.53215
1.53421
1.54874
1.54519
1.54044
1.53689
1.53428
1.53255
1.5316
1.53145
1.53213
1.53429
1.55332
1.54809
1.54184
1.53723
1.53387
1.53163
1.53038
1.53011
1.53078
1.5331
1.55982
1.55258
1.54485
1.53924
1.53526
1.53265
1.53121
1.53088
1.53154
1.53365
1.56653
1.55649
1.54751
1.54119
1.53679
1.53383
1.5321
1.5315
1.53191
1.53343
1.57643
1.56282
1.55205
1.5442
1.53874
1.53506
1.53288
1.53197
1.53222
1.53334
1.54222
1.54466
1.54592
1.54641
1.54653
1.54647
1.54633
1.5462
1.54617
1.54637
1.52528
1.52709
1.52873
1.53011
1.53123
1.53219
1.53312
1.53416
1.53546
1.53711
1.52781
1.52915
1.53007
1.53073
1.53123
1.5317
1.53229
1.5331
1.53435
1.53618
1.53242
1.53362
1.53399
1.53405
1.53398
1.53396
1.53414
1.53463
1.53563
1.5374
1.53775
1.53843
1.53795
1.5372
1.53643
1.53586
1.53563
1.53582
1.5366
1.5384
1.54277
1.5425
1.54085
1.5391
1.53757
1.53644
1.53583
1.53582
1.53647
1.5383
1.54677
1.54522
1.54225
1.53944
1.53713
1.53548
1.53455
1.5344
1.535
1.53692
1.55281
1.54966
1.54531
1.54145
1.53844
1.53636
1.53519
1.53491
1.53545
1.53715
1.55899
1.55384
1.54824
1.54348
1.53986
1.5373
1.53576
1.53518
1.53544
1.53667
1.56811
1.55989
1.55232
1.54605
1.54148
1.53829
1.53637
1.53553
1.53565
1.53652
1.54427
1.54664
1.54789
1.54847
1.54871
1.5488
1.54881
1.54882
1.54892
1.54922
1.52709
1.52911
1.53104
1.53272
1.5341
1.53526
1.53634
1.53751
1.53888
1.54052
1.52843
1.53024
1.53181
1.53306
1.534
1.53478
1.53557
1.53651
1.53781
1.53957
1.53141
1.53346
1.5349
1.53583
1.5364
1.53679
1.53722
1.53784
1.53886
1.54049
1.53519
1.53721
1.5382
1.53858
1.5386
1.53853
1.53857
1.53889
1.53966
1.54124
1.53893
1.54047
1.54067
1.54026
1.53962
1.53905
1.53874
1.53884
1.53946
1.541
1.54195
1.54265
1.54183
1.5405
1.53914
1.53806
1.53744
1.53737
1.5379
1.53948
1.54723
1.54674
1.54476
1.54245
1.54039
1.53885
1.53795
1.53772
1.53814
1.53951
1.55299
1.55095
1.54777
1.54447
1.54169
1.53961
1.53831
1.53778
1.53794
1.53892
1.56141
1.55647
1.55139
1.54673
1.54311
1.5405
1.53888
1.53813
1.53816
1.53881
1.5455
1.54781
1.54905
1.54965
1.54995
1.5501
1.55019
1.55027
1.55045
1.55082
1.52802
1.53021
1.53235
1.53421
1.53574
1.53704
1.53823
1.53948
1.54089
1.54252
1.5287
1.53085
1.53281
1.53439
1.5356
1.53658
1.5375
1.53853
1.53986
1.54155
1.53069
1.53327
1.53532
1.53676
1.53772
1.53839
1.539
1.53971
1.54073
1.54223
1.53336
1.53617
1.53805
1.53915
1.5397
1.53999
1.54024
1.54065
1.54141
1.54279
1.53606
1.53871
1.54007
1.54058
1.5406
1.54046
1.5404
1.54059
1.54117
1.54246
1.53817
1.54032
1.54091
1.54066
1.54007
1.53948
1.53912
1.53913
1.53959
1.54088
1.54266
1.54399
1.54361
1.5425
1.54125
1.54022
1.53956
1.53939
1.53973
1.54082
1.54801
1.54806
1.54651
1.5444
1.54242
1.54085
1.53981
1.53937
1.53946
1.54024
1.55561
1.55294
1.5497
1.54646
1.54376
1.54175
1.54044
1.53981
1.53977
1.54023
1.54594
1.54818
1.54938
1.54996
1.55027
1.55044
1.55056
1.55068
1.55089
1.5513
1.5282
1.53051
1.53278
1.53474
1.53637
1.53774
1.53899
1.54027
1.5417
1.54329
1.52854
1.53088
1.53305
1.53481
1.53616
1.53725
1.53826
1.53934
1.54067
1.54229
1.52997
1.53282
1.53519
1.53691
1.53808
1.53891
1.53962
1.54038
1.5414
1.54278
1.53197
1.53516
1.53751
1.53901
1.53988
1.54039
1.54078
1.54124
1.54197
1.54319
1.53395
1.53715
1.53917
1.54023
1.54068
1.54084
1.54095
1.5412
1.54174
1.54283
1.53534
1.53826
1.5397
1.54015
1.5401
1.53987
1.53971
1.53978
1.54019
1.54125
1.53917
1.5415
1.54214
1.54185
1.54122
1.54059
1.54016
1.54005
1.54032
1.5412
1.54408
1.54528
1.54478
1.54357
1.54226
1.54114
1.54038
1.54003
1.54008
1.5407
1.55088
1.54961
1.54764
1.54551
1.54361
1.54213
1.54113
1.54062
1.54055
1.54086
1.54553
1.54771
1.54886
1.54941
1.5497
1.54988
1.55
1.55013
1.55035
1.55079
1.52755
1.52999
1.53236
1.53441
1.53609
1.5375
1.53877
1.54005
1.54146
1.54299
1.5277
1.5302
1.53251
1.53438
1.53583
1.53699
1.53803
1.53913
1.54044
1.542
1.52891
1.53191
1.53445
1.53631
1.5376
1.53851
1.53927
1.54005
1.54104
1.54232
1.5306
1.53395
1.53652
1.53822
1.53925
1.53988
1.54035
1.54084
1.54154
1.54263
1.53218
1.53561
1.53795
1.5393
1.53999
1.54033
1.54055
1.54084
1.54134
1.54228
1.5331
1.53636
1.53826
1.53911
1.53939
1.5394
1.53939
1.53951
1.53987
1.54076
1.53643
1.53922
1.54044
1.54067
1.54046
1.54013
1.53988
1.53983
1.54008
1.5408
1.54084
1.5426
1.54277
1.54218
1.54138
1.54065
1.54012
1.53987
1.5399
1.5404
1.54699
1.54651
1.5454
1.54406
1.5428
1.54178
1.54106
1.54067
1.54058
1.54078
1.54434
1.54646
1.54756
1.54808
1.54835
1.54852
1.54864
1.54876
1.54899
1.54943
1.52623
1.52879
1.53125
1.53335
1.53506
1.53647
1.53773
1.53899
1.54034
1.54181
1.5263
1.52893
1.53135
1.53329
1.53478
1.53596
1.53702
1.5381
1.53937
1.54086
1.52748
1.53057
1.53317
1.5351
1.53643
1.53738
1.53815
1.53892
1.53986
1.54105
1.5291
1.53248
1.53512
1.53688
1.53798
1.53866
1.53916
1.53965
1.54031
1.5413
1.53052
1.53397
1.53642
1.53788
1.53868
1.53911
1.53939
1.53969
1.54017
1.54099
1.53119
1.5345
1.53658
1.53763
1.53808
1.53825
1.53833
1.53847
1.53882
1.53958
1.53415
1.53706
1.53856
1.53908
1.53913
1.53901
1.5389
1.53891
1.53914
1.53975
1.53801
1.54001
1.54057
1.54039
1.53996
1.53952
1.53918
1.53902
1.53906
1.53947
1.54369
1.54364
1.54306
1.54228
1.54149
1.54082