/*--------------------------------*- C++ -*----------------------------------*\
| =========                 |                                                 |
| \\      /  F ield         | foam-extend: Open Source CFD                    |
|  \\    /   O peration     | Version:     4.0                                |
|   \\  /    A nd           | Web:         http://www.foam-extend.org         |
|    \\/     M anipulation  |                                                 |
\*---------------------------------------------------------------------------*/
FoamFile
{
    version     2.0;
    format      ascii;
    class       volScalarField;
    location    "50";
    object      T;
}
// * * * * * * * * * * * * * * * * * * * * * * * * * * * * * * * * * * * * * //

dimensions      [0 0 0 1 0 0 0];

internalField   nonuniform List<scalar> 
34480
(
292.497
292.194
291.976
291.789
291.621
291.474
291.378
291.46
291.974
292.773
294.958
294.16
293.576
293.171
292.932
292.883
293.089
293.647
294.66
295.128
295.788
295.009
294.393
293.9
293.508
293.243
293.189
293.466
294.255
294.124
295.633
294.92
294.335
293.828
293.377
292.995
292.757
292.776
293.321
292.582
295.304
294.656
294.109
293.609
293.132
292.68
292.301
292.067
292.303
290.88
295.043
294.46
293.956
293.472
292.987
292.484
291.979
291.485
291.34
289.152
294.747
294.243
293.8
293.356
292.882
292.345
291.721
290.963
290.375
287.379
294.212
293.834
293.503
293.144
292.72
292.177
291.457
290.449
289.376
285.52
293.293
293.125
292.97
292.737
292.373
291.803
290.949
289.656
287.999
283.198
293.208
293.144
293.08
292.927
292.628
292.092
291.21
289.75
287.514
281.572
292.555
292.279
292.103
291.975
291.892
291.862
291.926
292.181
292.743
293.834
294.784
293.999
293.446
293.096
292.937
292.996
293.351
294.138
295.445
296.936
295.408
294.628
294.053
293.64
293.365
293.247
293.388
293.977
295.187
296.544
295.114
294.403
293.872
293.459
293.139
292.926
292.916
293.317
294.414
295.659
294.668
294.028
293.548
293.148
292.812
292.543
292.418
292.634
293.564
294.63
294.311
293.738
293.307
292.925
292.581
292.268
292.044
292.074
292.781
293.596
293.951
293.455
293.084
292.734
292.394
292.047
291.73
291.576
292.013
292.524
293.443
293.066
292.788
292.496
292.183
291.819
291.426
291.098
291.226
291.338
292.698
292.498
292.344
292.124
291.832
291.433
290.94
290.416
290.135
289.67
292.663
292.572
292.486
292.32
292.065
291.689
291.185
290.546
289.827
288.37
292.661
292.418
292.274
292.178
292.13
292.138
292.23
292.475
293.004
294.042
294.681
293.94
293.435
293.137
293.032
293.148
293.559
294.384
295.706
297.309
295.22
294.466
293.934
293.58
293.374
293.337
293.571
294.249
295.552
297.193
294.901
294.221
293.737
293.385
293.136
293.003
293.091
293.609
294.862
296.555
294.455
293.855
293.425
293.086
292.815
292.618
292.589
292.938
294.081
295.762
294.112
293.584
293.202
292.874
292.587
292.337
292.204
292.381
293.361
294.951
293.783
293.331
293
292.693
292.398
292.105
291.877
291.883
292.655
294.087
293.343
292.998
292.742
292.476
292.189
291.867
291.561
291.403
291.922
293.1
292.697
292.503
292.345
292.128
291.851
291.493
291.09
290.742
290.917
291.693
292.688
292.589
292.483
292.306
292.054
291.71
291.291
290.823
290.608
290.682
292.732
292.522
292.408
292.338
292.313
292.337
292.431
292.64
293.065
293.938
294.559
293.872
293.418
293.168
293.105
293.254
293.683
294.497
295.752
297.284
295.007
294.295
293.811
293.512
293.366
293.392
293.685
294.401
295.664
297.267
294.669
294.032
293.597
293.303
293.117
293.055
293.22
293.801
295.038
296.725
294.231
293.678
293.298
293.016
292.806
292.679
292.732
293.163
294.323
296.043
293.908
293.429
293.093
292.817
292.585
292.402
292.354
292.632
293.668
295.357
293.614
293.206
292.914
292.648
292.399
292.168
292.031
292.156
293.03
294.628
293.241
292.927
292.695
292.454
292.202
291.934
291.717
291.694
292.363
293.781
292.686
292.499
292.343
292.138
291.887
291.583
291.276
291.075
291.445
292.542
292.696
292.592
292.478
292.301
292.066
291.767
291.438
291.127
291.155
291.67
292.768
292.59
292.5
292.45
292.437
292.464
292.544
292.713
293.055
293.806
294.428
293.797
293.393
293.185
293.151
293.31
293.727
294.502
295.684
297.151
294.794
294.133
293.699
293.447
293.345
293.409
293.727
294.439
295.644
297.184
294.444
293.858
293.472
293.228
293.092
293.08
293.287
293.885
295.07
296.689
294.022
293.521
293.19
292.957
292.796
292.723
292.828
293.293
294.41
296.066
293.725
293.295
293.004
292.773
292.587
292.458
292.471
292.8
293.816
295.456
293.466
293.1
292.844
292.615
292.408
292.232
292.162
292.358
293.243
294.819
293.153
292.868
292.657
292.442
292.224
292.008
291.863
291.926
292.639
294.073
292.672
292.492
292.34
292.15
291.928
291.678
291.453
291.356
291.81
292.964
292.692
292.585
292.466
292.295
292.081
291.829
291.58
291.391
291.554
292.21
292.779
292.626
292.556
292.519
292.513
292.537
292.603
292.738
293.021
293.696
294.296
293.72
293.362
293.188
293.171
293.328
293.719
294.447
295.566
296.989
294.591
293.986
293.6
293.389
293.319
293.402
293.718
294.4
295.543
297.034
294.236
293.706
293.369
293.168
293.07
293.089
293.309
293.891
295.005
296.557
293.836
293.389
293.105
292.914
292.794
292.758
292.888
293.348
294.393
295.966
293.567
293.185
292.935
292.744
292.598
292.512
292.561
292.902
293.853
295.402
293.341
293.014
292.791
292.597
292.428
292.297
292.274
292.502
293.339
294.825
293.079
292.819
292.629
292.441
292.256
292.087
291.998
292.109
292.796
294.149
292.654
292.482
292.338
292.165
291.975
291.774
291.619
291.594
292.052
293.136
292.677
292.57
292.45
292.29
292.102
291.895
291.714
291.614
291.831
292.469
292.77
292.635
292.579
292.552
292.549
292.569
292.622
292.732
292.973
293.598
294.165
293.64
293.322
293.175
293.17
293.317
293.678
294.358
295.424
296.814
294.4
293.851
293.511
293.335
293.287
293.376
293.675
294.314
295.395
296.844
294.047
293.574
293.283
293.12
293.05
293.085
293.3
293.842
294.88
296.366
293.674
293.28
293.038
292.884
292.795
292.783
292.918
293.349
294.307
295.793
293.432
293.096
292.884
292.728
292.614
292.559
292.626
292.952
293.816
295.264
293.235
292.944
292.752
292.59
292.454
292.36
292.367
292.597
293.357
294.734
293.014
292.777
292.608
292.447
292.294
292.165
292.117
292.249
292.873
294.113
292.632
292.469
292.335
292.183
292.023
291.867
291.766
291.787
292.208
293.181
292.65
292.547
292.431
292.285
292.123
291.959
291.834
291.796
292.018
292.573
292.745
292.622
292.577
292.555
292.554
292.571
292.613
292.704
292.916
293.505
294.037
293.559
293.276
293.151
293.152
293.286
293.616
294.252
295.273
296.638
294.222
293.727
293.428
293.282
293.249
293.336
293.61
294.202
295.225
296.636
293.878
293.458
293.209
293.077
293.028
293.07
293.267
293.761
294.722
296.144
293.533
293.187
292.983
292.861
292.796
292.798
292.925
293.313
294.182
295.58
293.317
293.022
292.842
292.717
292.631
292.597
292.668
292.964
293.734
295.077
293.143
292.885
292.72
292.587
292.481
292.415
292.438
292.654
293.325
294.586
292.954
292.739
292.592
292.456
292.333
292.238
292.217
292.352
292.897
294.016
292.605
292.453
292.332
292.201
292.07
291.953
291.891
291.938
292.304
293.158
292.614
292.517
292.409
292.28
292.145
292.018
291.936
291.937
292.139
292.591
292.706
292.591
292.553
292.536
292.536
292.55
292.583
292.66
292.851
293.412
293.913
293.478
293.225
293.117
293.121
293.241
293.541
294.135
295.116
296.456
294.057
293.612
293.35
293.227
293.205
293.285
293.532
294.076
295.044
296.419
293.727
293.355
293.142
293.036
293.002
293.044
293.218
293.661
294.548
295.909
293.411
293.106
292.935
292.838
292.791
292.801
292.914
293.254
294.036
295.348
293.217
292.956
292.806
292.707
292.643
292.624
292.691
292.949
293.628
294.866
293.062
292.832
292.692
292.585
292.504
292.459
292.49
292.681
293.262
294.41
292.899
292.704
292.576
292.465
292.369
292.301
292.297
292.423
292.888
293.889
292.574
292.434
292.328
292.218
292.114
292.028
291.994
292.051
292.357
293.102
292.57
292.481
292.384
292.274
292.164
292.068
292.018
292.04
292.211
292.565
292.657
292.548
292.515
292.501
292.501
292.512
292.54
292.604
292.779
293.317
293.795
293.399
293.172
293.079
293.082
293.188
293.458
294.012
294.952
296.267
293.905
293.505
293.276
293.172
293.156
293.228
293.446
293.944
294.859
296.197
293.593
293.262
293.08
292.994
292.97
293.008
293.159
293.551
294.371
295.671
293.304
293.033
292.889
292.813
292.779
292.792
292.888
293.182
293.885
295.114
293.129
292.897
292.771
292.694
292.647
292.637
292.696
292.915
293.51
294.651
292.988
292.781
292.665
292.58
292.519
292.49
292.521
292.685
293.185
294.226
292.845
292.668
292.561
292.471
292.398
292.351
292.357
292.467
292.859
293.754
292.54
292.413
292.322
292.232
292.151
292.09
292.074
292.131
292.381
293.032
292.52
292.442
292.358
292.267
292.18
292.11
292.081
292.112
292.249
292.518
292.603
292.498
292.469
292.457
292.456
292.465
292.488
292.544
292.704
293.221
293.685
293.324
293.12
293.037
293.039
293.131
293.371
293.885
294.783
296.065
293.767
293.407
293.205
293.117
293.105
293.167
293.357
293.808
294.67
295.966
293.474
293.178
293.02
292.95
292.932
292.966
293.093
293.438
294.193
295.43
293.209
292.966
292.843
292.784
292.76
292.772
292.852
293.103
293.734
294.884
293.049
292.841
292.735
292.676
292.642
292.638
292.687
292.87
293.392
294.442
292.919
292.733
292.636
292.571
292.526
292.508
292.536
292.672
293.101
294.047
292.794
292.633
292.544
292.474
292.419
292.387
292.397
292.491
292.819
293.623
292.504
292.389
292.314
292.243
292.182
292.139
292.133
292.185
292.386
292.959
292.469
292.403
292.333
292.26
292.192
292.143
292.128
292.16
292.265
292.466
292.547
292.448
292.421
292.41
292.41
292.417
292.436
292.484
292.633
293.127
293.583
293.254
293.069
292.995
292.996
293.073
293.284
293.755
294.605
295.849
293.642
293.318
293.139
293.063
293.053
293.104
293.268
293.674
294.479
295.723
293.368
293.1
292.961
292.904
292.89
292.918
293.024
293.325
294.016
295.186
293.125
292.904
292.798
292.751
292.734
292.744
292.809
293.022
293.587
294.659
292.977
292.787
292.698
292.653
292.629
292.627
292.667
292.819
293.277
294.244
292.855
292.685
292.605
292.556
292.524
292.512
292.536
292.647
293.016
293.88
292.744
292.598
292.525
292.472
292.432
292.411
292.421
292.497
292.774
293.502
292.467
292.365
292.305
292.25
292.205
292.176
292.175
292.218
292.378
292.89
292.421
292.368
292.312
292.255
292.204
292.17
292.162
292.19
292.268
292.416
292.498
292.406
292.381
292.371
292.37
292.376
292.392
292.433
292.57
293.037
293.492
293.19
293.022
292.955
292.953
293.016
293.198
293.624
294.42
295.616
293.532
293.237
293.078
293.012
293.002
293.044
293.182
293.541
294.285
295.469
293.275
293.028
292.905
292.857
292.846
292.868
292.954
293.214
293.841
294.939
293.051
292.845
292.753
292.716
292.703
292.712
292.763
292.942
293.447
294.44
292.912
292.736
292.661
292.627
292.61
292.61
292.64
292.765
293.167
294.056
292.794
292.64
292.574
292.538
292.515
292.508
292.526
292.615
292.934
293.725
292.697
292.565
292.506
292.467
292.438
292.424
292.433
292.493
292.727
293.391
292.432
292.343
292.296
292.255
292.222
292.203
292.204
292.237
292.365
292.825
292.382
292.341
292.298
292.255
292.218
292.194
292.191
292.213
292.268
292.377
292.463
292.379
292.356
292.347
292.346
292.351
292.364
292.4
292.523
292.956
293.412
293.131
292.977
292.916
292.911
292.962
293.115
293.493
294.228
295.365
293.436
293.165
293.022
292.964
292.954
292.987
293.1
293.413
294.09
295.201
293.191
292.962
292.852
292.81
292.801
292.818
292.887
293.108
293.671
294.688
292.983
292.792
292.711
292.681
292.672
292.678
292.718
292.866
293.313
294.227
292.852
292.689
292.626
292.6
292.588
292.588
292.611
292.712
293.063
293.878
292.738
292.597
292.544
292.518
292.502
292.497
292.511
292.581
292.856
293.58
292.653
292.535
292.488
292.46
292.44
292.431
292.437
292.484
292.681
293.289
292.402
292.325
292.289
292.26
292.237
292.224
292.225
292.249
292.35
292.764
292.358
292.328
292.296
292.264
292.238
292.222
292.22
292.236
292.273
292.352
292.452
292.378
292.357
292.349
292.348
292.352
292.362
292.392
292.499
292.888
293.34
293.078
292.936
292.88
292.873
292.911
293.037
293.364
294.03
295.095
293.352
293.101
292.971
292.92
292.911
292.935
293.026
293.29
293.895
294.922
293.116
292.901
292.802
292.767
292.759
292.771
292.825
293.009
293.506
294.436
292.923
292.745
292.674
292.65
292.644
292.648
292.677
292.798
293.188
294.02
292.798
292.649
292.596
292.577
292.568
292.568
292.584
292.665
292.968
293.709
292.688
292.561
292.518
292.499
292.489
292.485
292.494
292.549
292.782
293.443
292.616
292.511
292.475
292.455
292.441
292.435
292.439
292.473
292.639
293.193
292.379
292.314
292.287
292.267
292.251
292.242
292.243
292.259
292.338
292.708
292.353
292.331
292.308
292.286
292.268
292.257
292.255
292.265
292.29
292.347
292.47
292.408
292.391
292.384
292.383
292.386
292.393
292.417
292.505
292.839
293.273
293.027
292.898
292.847
292.839
292.867
292.965
293.237
293.826
294.805
293.276
293.043
292.927
292.883
292.873
292.89
292.959
293.176
293.701
294.631
293.047
292.847
292.761
292.731
292.724
292.732
292.772
292.92
293.346
294.183
292.87
292.707
292.647
292.628
292.623
292.625
292.646
292.741
293.071
293.818
292.751
292.618
292.574
292.559
292.553
292.553
292.564
292.625
292.879
293.546
292.644
292.533
292.498
292.485
292.478
292.475
292.481
292.521
292.715
293.309
292.584
292.494
292.466
292.452
292.443
292.438
292.441
292.466
292.601
293.099
292.363
292.309
292.29
292.276
292.265
292.259
292.259
292.269
292.33
292.653
292.365
292.35
292.334
292.318
292.306
292.298
292.298
292.304
292.32
292.36
292.521
292.474
292.46
292.455
292.454
292.455
292.461
292.478
292.544
292.81
293.206
292.977
292.863
292.82
292.812
292.83
292.901
293.115
293.615
294.492
293.203
292.99
292.89
292.853
292.844
292.855
292.904
293.071
293.508
294.33
292.979
292.801
292.729
292.705
292.699
292.704
292.732
292.844
293.192
293.93
292.82
292.679
292.63
292.615
292.61
292.612
292.626
292.697
292.963
293.619
292.708
292.594
292.559
292.547
292.543
292.542
292.55
292.596
292.799
293.383
292.603
292.51
292.483
292.472
292.467
292.466
292.47
292.5
292.652
293.17
292.555
292.48
292.458
292.448
292.442
292.439
292.441
292.46
292.566
292.997
292.348
292.304
292.288
292.278
292.271
292.267
292.268
292.277
292.323
292.591
292.388
292.376
292.363
292.352
292.344
292.34
292.34
292.346
292.359
292.387
292.613
292.579
292.57
292.566
292.565
292.566
292.569
292.581
292.623
292.807
293.132
292.929
292.835
292.802
292.795
292.805
292.851
293.002
293.396
294.154
293.129
292.944
292.864
292.835
292.828
292.834
292.867
292.983
293.321
294.021
292.914
292.766
292.71
292.691
292.687
292.69
292.71
292.788
293.051
293.674
292.775
292.661
292.622
292.61
292.606
292.609
292.621
292.672
292.87
293.418
292.666
292.575
292.546
292.537
292.534
292.535
292.544
292.579
292.73
293.213
292.561
292.488
292.465
292.455
292.452
292.453
292.46
292.486
292.599
293.02
292.519
292.46
292.44
292.431
292.427
292.428
292.434
292.452
292.533
292.88
292.322
292.286
292.272
292.262
292.258
292.257
292.262
292.273
292.311
292.517
292.414
292.401
292.389
292.38
292.375
292.374
292.378
292.386
292.401
292.423
292.771
292.748
292.743
292.741
292.74
292.741
292.744
292.75
292.771
292.866
293.055
292.896
292.829
292.806
292.801
292.808
292.835
292.924
293.191
293.795
293.068
292.926
292.868
292.847
292.841
292.847
292.871
292.944
293.171
293.718
292.874
292.765
292.724
292.709
292.706
292.712
292.731
292.784
292.958
293.433
292.755
292.671
292.64
292.628
292.625
292.632
292.649
292.691
292.824
293.232
292.648
292.58
292.553
292.542
292.54
292.547
292.563
292.599
292.705
293.055
292.538
292.483
292.46
292.449
292.447
292.453
292.468
292.499
292.583
292.881
292.491
292.444
292.423
292.413
292.41
292.415
292.429
292.456
292.523
292.766
292.293
292.263
292.247
292.237
292.234
292.237
292.248
292.268
292.307
292.446
292.467
292.451
292.437
292.428
292.424
292.427
292.436
292.451
292.473
292.497
292.988
292.982
292.978
292.975
292.976
292.978
292.984
292.992
293.003
293.032
293.037
292.935
292.894
292.877
292.873
292.881
292.902
292.951
293.084
293.459
293.096
293.002
292.96
292.94
292.936
292.946
292.972
293.025
293.151
293.486
292.936
292.862
292.826
292.809
292.806
292.818
292.845
292.896
293.001
293.28
292.83
292.767
292.735
292.719
292.717
292.729
292.757
292.807
292.901
293.137
292.718
292.664
292.634
292.618
292.616
292.629
292.656
292.705
292.791
292.994
292.601
292.554
292.527
292.513
292.511
292.522
292.547
292.592
292.669
292.844
292.531
292.488
292.463
292.45
292.447
292.456
292.479
292.519
292.589
292.738
292.312
292.282
292.263
292.251
292.249
292.255
292.272
292.302
292.35
292.441
292.584
292.563
292.547
292.537
292.534
292.539
292.552
292.574
292.605
292.639
299.228
300.258
300.285
299.372
302.243
303.562
303.741
302.912
302.62
304.227
304.588
303.815
302.468
304.36
304.946
304.281
302.081
304.256
305.079
304.548
301.567
304.015
305.074
304.701
300.93
303.646
304.924
304.707
300.103
303.076
304.553
304.488
298.809
302.104
303.82
303.921
298.005
301.736
303.768
304.053
297.014
297.441
297.447
297.108
300.327
300.93
301.147
301.019
300.898
301.595
301.831
301.652
301.095
301.859
302.092
301.836
301.126
301.935
302.165
301.84
301.075
301.917
302.151
301.78
300.888
301.763
302.007
301.612
300.446
301.353
301.62
301.228
299.35
300.31
300.67
300.366
298.195
299.297
299.93
299.897
295.378
295.616
295.624
295.448
298.91
299.282
299.458
299.451
299.23
299.677
299.871
299.839
299.22
299.739
299.92
299.812
299.129
299.699
299.853
299.66
299.037
299.643
299.775
299.508
298.871
299.507
299.627
299.305
298.505
299.16
299.284
298.936
297.53
298.182
298.353
298.058
296.555
297.183
297.539
297.484
294.958
295.167
295.18
295.029
298.474
298.772
298.928
298.94
298.653
298.998
299.177
299.192
298.466
298.869
299.046
299.012
298.208
298.661
298.818
298.718
297.986
298.472
298.602
298.438
297.737
298.242
298.347
298.127
297.333
297.841
297.926
297.669
296.395
296.871
296.965
296.734
295.49
295.877
296.108
296.061
294.672
294.863
294.882
294.748
298.194
298.461
298.599
298.602
298.318
298.612
298.767
298.78
298.027
298.361
298.517
298.495
297.652
298.025
298.171
298.102
297.317
297.721
297.85
297.735
296.972
297.397
297.506
297.351
296.495
296.924
297.012
296.827
295.537
295.924
296.002
295.838
294.596
294.857
295.027
295.029
294.487
294.669
294.693
294.571
297.984
298.242
298.372
298.364
298.083
298.358
298.497
298.494
297.736
298.037
298.173
298.139
297.297
297.625
297.752
297.678
296.897
297.247
297.363
297.254
296.49
296.858
296.96
296.822
295.958
296.327
296.412
296.255
294.976
295.299
295.364
295.224
293.994
294.178
294.299
294.315
294.339
294.513
294.54
294.428
297.793
298.05
298.176
298.159
297.862
298.13
298.259
298.241
297.473
297.759
297.879
297.829
296.997
297.298
297.408
297.321
296.563
296.878
296.977
296.862
296.127
296.452
296.541
296.405
295.567
295.888
295.963
295.814
294.581
294.851
294.902
294.768
293.579
293.713
293.798
293.808
294.21
294.379
294.408
294.303
297.616
297.875
297.997
297.971
297.646
297.913
298.036
298.005
297.217
297.494
297.605
297.54
296.712
296.998
297.094
296.996
296.262
296.552
296.637
296.515
295.816
296.11
296.186
296.047
295.252
295.537
295.6
295.453
294.291
294.522
294.561
294.428
293.295
293.395
293.451
293.449
294.093
294.257
294.288
294.188
297.441
297.702
297.821
297.785
297.431
297.699
297.817
297.774
296.962
297.235
297.338
297.262
296.432
296.707
296.794
296.688
295.971
296.244
296.319
296.192
295.527
295.798
295.864
295.724
294.979
295.236
295.29
295.146
294.068
294.273
294.304
294.173
293.091
293.168
293.205
293.191
293.982
294.145
294.176
294.078
297.259
297.523
297.639
297.592
297.213
297.482
297.595
297.54
296.709
296.979
297.076
296.99
296.16
296.427
296.508
296.396
295.693
295.953
296.021
295.893
295.257
295.51
295.569
295.432
294.739
294.975
295.022
294.884
293.895
294.083
294.108
293.98
292.939
293
293.024
293.001
293.878
294.04
294.071
293.973
297.066
297.333
297.443
297.385
296.985
297.255
297.362
297.295
296.454
296.72
296.811
296.717
295.896
296.155
296.23
296.115
295.431
295.68
295.743
295.615
295.01
295.248
295.302
295.169
294.53
294.75
294.793
294.661
293.756
293.933
293.955
293.83
292.82
292.87
292.885
292.856
293.78
293.942
293.972
293.871
296.856
297.123
297.229
297.16
296.741
297.01
297.111
297.033
296.191
296.453
296.538
296.437
295.636
295.887
295.957
295.839
295.183
295.421
295.48
295.355
294.784
295.01
295.06
294.932
294.349
294.556
294.597
294.471
293.643
293.812
293.833
293.71
292.724
292.766
292.776
292.745
293.689
293.85
293.878
293.773
296.625
296.891
296.99
296.91
296.477
296.743
296.836
296.749
295.918
296.173
296.252
296.146
295.377
295.619
295.684
295.566
294.948
295.175
295.229
295.108
294.578
294.792
294.838
294.716
294.192
294.389
294.427
294.306
293.55
293.714
293.734
293.613
292.647
292.683
292.689
292.658
293.606
293.766
293.791
293.679
296.367
296.629
296.721
296.632
296.19
296.449
296.535
296.439
295.633
295.879
295.951
295.842
295.12
295.351
295.41
295.294
294.724
294.939
294.99
294.872
294.39
294.592
294.636
294.518
294.056
294.244
294.28
294.163
293.473
293.635
293.653
293.532
292.588
292.618
292.622
292.594
293.53
293.689
293.71
293.591
296.077
296.333
296.417
296.321
295.878
296.127
296.205
296.103
295.338
295.572
295.637
295.527
294.866
295.084
295.138
295.025
294.512
294.716
294.762
294.648
294.218
294.411
294.45
294.336
293.938
294.12
294.152
294.037
293.408
293.568
293.586
293.463
292.548
292.572
292.575
292.55
293.461
293.618
293.634
293.506
295.753
295.998
296.074
295.974
295.54
295.776
295.845
295.741
295.034
295.254
295.312
295.203
294.619
294.823
294.872
294.762
294.314
294.507
294.548
294.437
294.06
294.245
294.281
294.168
293.833
294.01
294.04
293.924
293.347
293.508
293.524
293.397
292.525
292.543
292.545
292.526
293.392
293.543
293.552
293.418
295.391
295.622
295.688
295.587
295.182
295.401
295.461
295.358
294.729
294.933
294.984
294.879
294.382
294.574
294.618
294.51
294.128
294.312
294.35
294.239
293.911
294.091
294.123
294.008
293.729
293.905
293.932
293.811
293.274
293.435
293.45
293.318
292.514
292.526
292.528
292.515
293.31
293.448
293.452
293.32
294.994
295.206
295.263
295.163
294.814
295.015
295.066
294.965
294.432
294.623
294.666
294.562
294.158
294.342
294.379
294.27
293.948
294.128
294.161
294.045
293.756
293.934
293.962
293.839
293.607
293.783
293.806
293.677
293.162
293.322
293.334
293.199
292.512
292.52
292.522
292.515
293.227
293.34
293.341
293.227
294.573
294.766
294.813
294.713
294.46
294.644
294.686
294.586
294.157
294.337
294.373
294.266
293.947
294.124
294.155
294.039
293.765
293.94
293.966
293.843
293.579
293.752
293.774
293.644
293.441
293.611
293.63
293.496
292.99
293.137
293.149
293.021
292.551
292.555
292.557
292.557
293.216
293.288
293.288
293.218
294.146
294.314
294.349
294.253
294.146
294.308
294.341
294.245
293.917
294.076
294.104
294.001
293.751
293.906
293.93
293.822
293.581
293.733
293.754
293.642
293.397
293.543
293.561
293.448
293.256
293.397
293.413
293.301
292.809
292.924
292.934
292.84
292.676
292.682
292.685
292.687
296.057
294.978
294.413
294.047
293.776
293.567
293.388
293.219
293.036
292.812
300.232
299.362
298.659
298.15
297.753
297.409
297.066
296.688
296.249
295.724
300.705
299.663
298.898
298.423
298.097
297.839
297.588
297.299
296.945
296.494
300.727
299.371
298.479
297.973
297.652
297.419
297.206
296.965
296.664
296.27
300.601
298.913
297.91
297.372
297.053
296.84
296.661
296.466
296.216
295.878
300.492
298.49
297.409
296.85
296.535
296.343
296.196
296.042
295.839
295.557
300.324
298.036
296.896
296.314
296.001
295.822
295.7
295.578
295.419
295.194
300.011
297.481
296.287
295.663
295.318
295.114
294.976
294.856
294.723
294.557
299.298
296.627
295.395
294.703
294.276
293.992
293.788
293.639
293.533
293.461
299.337
296.658
295.427
294.685
294.19
293.839
293.583
293.408
293.314
293.284
295.969
295.055
294.432
294.027
293.744
293.533
293.362
293.21
293.053
292.866
300.147
299.247
298.526
297.983
297.554
297.187
296.836
296.465
296.049
295.564
300.425
299.398
298.636
298.135
297.778
297.494
297.225
296.93
296.579
296.143
300.176
298.933
298.061
297.534
297.183
296.924
296.694
296.447
296.151
295.771
299.752
298.31
297.34
296.789
296.441
296.203
296.008
295.81
295.569
295.248
299.32
297.723
296.692
296.135
295.798
295.583
295.423
295.268
295.08
294.816
298.828
297.114
296.047
295.49
295.166
294.974
294.842
294.724
294.583
294.376
298.187
296.404
295.329
294.769
294.444
294.249
294.121
294.017
293.911
293.765
297.148
295.388
294.358
293.798
293.457
293.239
293.094
292.995
292.931
292.867
296.683
295.015
294.12
293.596
293.271
293.049
292.899
292.801
292.758
292.739
294.981
294.436
294.078
293.836
293.652
293.503
293.371
293.247
293.111
292.941
299.17
298.699
298.222
297.784
297.392
297.033
296.682
296.311
295.898
295.426
299.473
298.93
298.422
298.001
297.656
297.359
297.071
296.758
296.391
295.948
299.241
298.506
297.879
297.406
297.05
296.767
296.513
296.248
295.936
295.55
298.85
297.923
297.184
296.668
296.302
296.035
295.814
295.596
295.343
295.019
298.462
297.381
296.567
296.03
295.67
295.422
295.234
295.06
294.86
294.596
298.028
296.826
295.962
295.419
295.07
294.843
294.683
294.546
294.393
294.186
297.453
296.175
295.29
294.747
294.403
294.181
294.03
293.913
293.797
293.646
296.487
295.226
294.373
293.841
293.502
293.281
293.133
293.031
292.956
292.873
296.022
294.858
294.132
293.648
293.337
293.12
292.972
292.873
292.816
292.778
294.633
294.16
293.865
293.682
293.548
293.438
293.339
293.242
293.129
292.98
298.749
298.357
297.927
297.518
297.145
296.8
296.462
296.104
295.706
295.255
298.99
298.578
298.144
297.756
297.424
297.129
296.838
296.52
296.149
295.71
298.691
298.129
297.593
297.156
296.81
296.527
296.267
295.995
295.678
295.294
298.255
297.537
296.906
296.427
296.071
295.801
295.573
295.347
295.088
294.768
297.846
297.005
296.313
295.815
295.464
295.212
295.015
294.832
294.626
294.365
297.416
296.478
295.75
295.249
294.91
294.677
294.506
294.359
294.199
293.993
296.864
295.866
295.128
294.634
294.305
294.083
293.926
293.803
293.681
293.53
295.941
294.966
294.269
293.8
293.491
293.284
293.141
293.04
292.959
292.868
295.439
294.604
294.045
293.629
293.349
293.147
293.005
292.906
292.842
292.795
294.384
293.942
293.685
293.538
293.438
293.358
293.285
293.211
293.118
292.988
298.412
298.023
297.606
297.211
296.856
296.531
296.212
295.874
295.496
295.072
298.601
298.216
297.809
297.44
297.123
296.838
296.555
296.244
295.881
295.457
298.228
297.725
297.237
296.827
296.501
296.23
295.978
295.711
295.402
295.032
297.734
297.112
296.55
296.11
295.779
295.522
295.302
295.082
294.829
294.523
297.284
296.578
295.979
295.531
295.209
294.971
294.78
294.6
294.398
294.148
296.833
296.072
295.456
295.015
294.708
294.49
294.324
294.178
294.018
293.819
296.272
295.489
294.883
294.461
294.171
293.968
293.819
293.699
293.578
293.428
295.342
294.619
294.079
293.701
293.442
293.262
293.132
293.037
292.954
292.858
294.773
294.257
293.871
293.55
293.318
293.141
293.012
292.918
292.85
292.798
294.229
293.799
293.559
293.43
293.348
293.286
293.23
293.172
293.094
292.978
298.157
297.745
297.317
296.922
296.575
296.262
295.96
295.641
295.285
294.887
298.294
297.887
297.473
297.106
296.796
296.522
296.251
295.953
295.607
295.205
297.857
297.346
296.866
296.47
296.159
295.904
295.667
295.415
295.123
294.776
297.311
296.706
296.175
295.762
295.456
295.22
295.017
294.812
294.576
294.292
296.824
296.166
295.622
295.216
294.926
294.713
294.539
294.373
294.184
293.952
296.351
295.671
295.135
294.75
294.482
294.289
294.139
294.004
293.854
293.666
295.773
295.108
294.606
294.255
294.014
293.841
293.71
293.6
293.485
293.341
294.824
294.262
293.854
293.567
293.365
293.217
293.106
293.02
292.94
292.843
294.195
293.906
293.658
293.429
293.249
293.105
292.993
292.907
292.84
292.787
294.106
293.686
293.458
293.342
293.271
293.22
293.175
293.128
293.061
292.956
297.933
297.494
297.05
296.65
296.306
296.002
295.713
295.412
295.077
294.706
298.014
297.575
297.144
296.774
296.468
296.203
295.945
295.664
295.338
294.963
297.521
296.985
296.499
296.11
295.813
295.574
295.355
295.124
294.853
294.535
296.936
296.323
295.803
295.413
295.13
294.918
294.737
294.553
294.339
294.081
296.425
295.781
295.268
294.899
294.642
294.456
294.304
294.158
293.989
293.778
295.94
295.298
294.814
294.478
294.251
294.088
293.96
293.842
293.706
293.534
295.354
294.755
294.329
294.041
293.848
293.709
293.6
293.505
293.4
293.263
294.401
293.937
293.629
293.418
293.27
293.156
293.065
292.991
292.916
292.821
293.727
293.58
293.433
293.283
293.153
293.041
292.949
292.875
292.813
292.761
293.997
293.588
293.37
293.263
293.2
293.157
293.12
293.081
293.022
292.922
297.725
297.258
296.797
296.39
296.047
295.751
295.474
295.19
294.875
294.53
297.751
297.28
296.831
296.454
296.15
295.893
295.649
295.385
295.081
294.734
297.206
296.647
296.152
295.768
295.482
295.259
295.059
294.849
294.603
294.314
296.592
295.969
295.456
295.083
294.823
294.634
294.475
294.315
294.126
293.895
296.068
295.429
294.938
294.6
294.374
294.216
294.088
293.964
293.816
293.627
295.582
294.961
294.515
294.222
294.031
293.899
293.794
293.694
293.575
293.418
295.002
294.444
294.072
293.838
293.687
293.579
293.493
293.414
293.32
293.191
294.071
293.664
293.423
293.272
293.167
293.083
293.013
292.951
292.884
292.792
293.366
293.296
293.218
293.126
293.039
292.958
292.886
292.824
292.77
292.722
293.894
293.494
293.285
293.186
293.13
293.093
293.062
293.029
292.975
292.88
297.516
297.024
296.548
296.136
295.795
295.507
295.243
294.976
294.682
294.363
297.493
296.993
296.528
296.146
295.845
295.597
295.366
295.121
294.84
294.521
296.907
296.33
295.83
295.45
295.175
294.967
294.786
294.597
294.377
294.116
296.273
295.647
295.143
294.787
294.547
294.379
294.242
294.104
293.938
293.733
295.743
295.115
294.645
294.334
294.135
294.002
293.897
293.794
293.666
293.497
295.265
294.666
294.25
293.992
293.833
293.727
293.644
293.563
293.459
293.316
294.708
294.18
293.848
293.655
293.538
293.457
293.392
293.328
293.245
293.125
293.821
293.443
293.244
293.135
293.064
293.006
292.954
292.905
292.846
292.758
293.092
293.059
293.022
292.972