/*--------------------------------*- C++ -*----------------------------------*\
| =========                 |                                                 |
| \\      /  F ield         | foam-extend: Open Source CFD                    |
|  \\    /   O peration     | Version:     4.0                                |
|   \\  /    A nd           | Web:         http://www.foam-extend.org         |
|    \\/     M anipulation  |                                                 |
\*---------------------------------------------------------------------------*/
FoamFile
{
    version     2.0;
    format      ascii;
    class       volVectorField;
    location    "50";
    object      U;
}
// * * * * * * * * * * * * * * * * * * * * * * * * * * * * * * * * * * * * * //

dimensions      [0 1 -1 0 0 0 0];

internalField   nonuniform List<vector> 
34480
(
(128.269 2.02711 4.56675)
(129.854 1.61742 4.09794)
(131.044 1.25336 3.35588)
(132.128 0.967471 2.3661)
(133.187 0.73995 0.954398)
(134.241 0.610464 -1.06503)
(135.251 0.635839 -4.058)
(135.765 0.965072 -8.18477)
(134.323 1.796 -15.1323)
(127.635 4.13316 -37.6476)
(120.592 1.93926 5.52096)
(122.957 1.7871 5.17649)
(124.917 1.7067 4.54292)
(126.61 1.72255 3.66188)
(128.126 1.76222 2.36895)
(129.477 1.81595 0.466115)
(130.541 1.90818 -2.48693)
(130.863 2.1553 -7.01029)
(129.053 2.66059 -14.7214)
(123.571 4.6293 -41.5119)
(118.243 1.9311 6.61614)
(120.641 1.89001 6.50559)
(122.758 1.86351 6.0026)
(124.773 1.90367 5.22326)
(126.778 1.89888 3.97245)
(128.818 1.86629 2.03976)
(130.761 1.85476 -1.0672)
(132.166 2.00742 -6.19324)
(131.318 2.42932 -14.7602)
(126.873 4.52689 -45.2695)
(117.7 2.3949 7.22805)
(120.18 2.55209 7.26662)
(122.413 2.61182 6.81771)
(124.655 2.69472 6.09491)
(126.964 2.67587 4.85541)
(129.422 2.61617 2.89556)
(131.962 2.57342 -0.291984)
(134.258 2.69331 -5.89423)
(134.35 3.06409 -15.3083)
(130.825 5.20775 -49.013)
(117.752 2.36251 7.95238)
(120.33 2.59558 8.10726)
(122.648 2.63442 7.65704)
(125.048 2.6738 6.94262)
(127.539 2.5857 5.68089)
(130.25 2.47082 3.68672)
(133.224 2.39958 0.439753)
(136.301 2.52583 -5.58043)
(137.425 2.93169 -15.8691)
(134.896 5.1986 -52.3739)
(117.712 2.8741 8.236)
(120.331 3.18912 8.45614)
(122.67 3.21778 8.02327)
(125.147 3.22079 7.35702)
(127.742 3.09502 6.14833)
(130.643 2.97131 4.21882)
(134.018 2.91819 1.01852)
(137.872 3.06229 -5.29629)
(140.174 3.4528 -16.4231)
(138.704 5.69722 -55.3801)
(117.883 2.91794 8.45549)
(120.452 3.15963 8.71582)
(122.705 3.05595 8.31218)
(125.158 2.91216 7.71863)
(127.796 2.65227 6.60146)
(130.88 2.4125 4.77054)
(134.689 2.26193 1.61709)
(139.343 2.32026 -4.98923)
(142.898 2.71893 -17.0099)
(142.413 5.04277 -58.1135)
(119.057 3.71249 7.53469)
(121.366 3.88197 7.8782)
(123.32 3.69859 7.66284)
(125.552 3.45262 7.29845)
(128.096 3.11226 6.43514)
(131.274 2.76947 4.84474)
(135.417 2.47967 1.85902)
(140.696 2.37843 -4.82964)
(145.388 2.72628 -17.4703)
(145.796 4.99692 -60.1379)
(122.754 3.07167 6.22762)
(124.253 3.0226 6.73363)
(125.508 2.75177 6.89881)
(127.303 2.41574 6.96463)
(129.732 1.9604 6.47942)
(133.116 1.3958 5.07053)
(137.683 0.788551 2.04014)
(143.459 0.310402 -4.81026)
(148.97 0.61756 -17.927)
(149.89 3.10413 -61.564)
(125.106 3.23531 5.13884)
(125.866 3.0438 5.54979)
(126.562 2.74664 5.85152)
(127.878 2.38251 6.10263)
(129.94 1.89145 5.86085)
(133.038 1.2733 4.64445)
(137.412 0.651788 1.71142)
(143.267 0.285771 -4.86433)
(149.909 0.997416 -17.6594)
(153.029 4.58597 -60.6718)
(126.512 1.57821 3.66775)
(128.06 1.23469 3.29505)
(129.106 0.921364 2.64966)
(129.929 0.672497 1.80355)
(130.574 0.469023 0.644671)
(130.97 0.342726 -0.901771)
(130.932 0.323885 -2.93351)
(129.958 0.448094 -5.48376)
(127.657 0.750959 -8.3118)
(122.769 1.48315 -13.1045)
(119.175 1.48214 4.54908)
(121.502 1.33108 4.23587)
(123.348 1.24962 3.66375)
(124.801 1.25425 2.8521)
(125.928 1.28736 1.69722)
(126.667 1.32852 0.11596)
(126.73 1.37857 -2.07983)
(125.36 1.47315 -5.15515)
(121.997 1.58347 -8.96466)
(117.648 2.28148 -18.4379)
(117.175 1.34339 5.62266)
(119.513 1.2893 5.51925)
(121.485 1.27293 5.05926)
(123.228 1.33298 4.32565)
(124.825 1.3678 3.18252)
(126.24 1.36991 1.52958)
(127.186 1.35346 -0.902598)
(126.819 1.39957 -4.68235)
(124.25 1.50414 -9.68191)
(120.949 2.58344 -23.5582)
(116.825 1.739 6.2027)
(119.24 1.89813 6.26596)
(121.316 2.00075 5.88194)
(123.289 2.13869 5.21964)
(125.218 2.18876 4.08945)
(127.097 2.18244 2.37621)
(128.676 2.14105 -0.19029)
(129.179 2.1704 -4.51856)
(127.426 2.26246 -10.5682)
(124.939 3.66589 -28.729)
(116.995 1.64937 6.92121)
(119.497 1.91606 7.12798)
(121.658 2.03606 6.76643)
(123.811 2.16647 6.12813)
(125.973 2.1767 4.97568)
(128.175 2.13263 3.19271)
(130.237 2.06199 0.527702)
(131.535 2.09949 -4.2657)
(130.714 2.24146 -11.2961)
(129.065 4.03146 -33.6181)
(117.036 2.17645 7.20145)
(119.577 2.56628 7.50115)
(121.769 2.70768 7.17994)
(124.04 2.82046 6.60566)
(126.372 2.79449 5.50502)
(128.84 2.73036 3.74977)
(131.346 2.66321 1.10388)
(133.438 2.72754 -4.00771)
(133.71 2.88166 -11.9036)
(132.953 4.88692 -38.1878)
(117.288 2.25043 7.45174)
(119.783 2.60182 7.80928)
(121.917 2.63421 7.52677)
(124.216 2.61866 7.02818)
(126.657 2.47084 6.00542)
(129.37 2.29739 4.30704)
(132.331 2.13794 1.69134)
(135.232 2.1227 -3.70882)
(136.689 2.29344 -12.4866)
(136.773 4.54519 -42.4757)
(118.528 3.13656 6.58589)
(120.768 3.4375 7.0199)
(122.637 3.39843 6.92846)
(124.774 3.2814 6.66896)
(127.189 3.04879 5.9012)
(130.063 2.77246 4.41859)
(133.392 2.49098 1.95704)
(136.959 2.33056 -3.54041)
(139.521 2.46281 -12.9404)
(140.366 4.71648 -46.0435)
(122.177 2.58466 5.50212)
(123.639 2.61724 6.0274)
(124.868 2.45532 6.24283)
(126.61 2.24134 6.37628)
(128.92 1.9241 5.99905)
(132.008 1.49804 4.74681)
(135.827 1.01673 2.25968)
(140.075 0.564387 -3.49415)
(143.541 0.721754 -13.4133)
(144.816 3.09785 -48.7683)
(124.456 2.88368 4.51745)
(125.226 2.75126 4.93273)
(125.976 2.53953 5.27123)
(127.325 2.26295 5.58095)
(129.346 1.87481 5.46963)
(132.229 1.3637 4.49984)
(135.992 0.839394 2.19283)
(140.57 0.456979 -3.334)
(145.37 0.962877 -13.2295)
(149.036 4.46484 -49.2673)
(125.259 1.12349 2.71193)
(126.655 0.87716 2.42653)
(127.519 0.639494 1.88193)
(128.128 0.446883 1.1692)
(128.512 0.284625 0.218189)
(128.602 0.178802 -0.959442)
(128.269 0.145006 -2.35142)
(127.2 0.189904 -3.85977)
(124.68 0.295617 -5.21324)
(119.468 0.556684 -6.58772)
(118.17 1.0764 3.55249)
(120.391 0.97266 3.27307)
(122.08 0.915425 2.75949)
(123.295 0.916738 2.02097)
(124.113 0.932273 0.995107)
(124.459 0.943734 -0.361185)
(124.018 0.948321 -2.08808)
(122.11 0.952112 -4.20087)
(117.943 0.890019 -6.26577)
(112.109 0.994861 -10.0403)
(116.448 0.876117 4.65211)
(118.696 0.836131 4.53618)
(120.511 0.830537 4.09122)
(122.005 0.892629 3.37863)
(123.272 0.938579 2.30116)
(124.248 0.949423 0.791598)
(124.555 0.919479 -1.29688)
(123.331 0.883388 -4.15669)
(119.352 0.792937 -7.24879)
(113.352 1.09302 -13.5651)
(116.303 1.25664 5.22976)
(118.643 1.42158 5.26647)
(120.566 1.54805 4.89303)
(122.289 1.70857 4.23852)
(123.895 1.79472 3.14821)
(125.332 1.8152 1.52801)
(126.231 1.76215 -0.808532)
(125.663 1.6857 -4.31636)
(121.952 1.52646 -8.4343)
(115.741 1.97932 -17.5513)
(116.633 1.15121 5.96363)
(119.062 1.43214 6.13985)
(121.072 1.59696 5.79412)
(122.988 1.77224 5.16008)
(124.854 1.84014 4.02932)
(126.646 1.83779 2.29089)
(128.029 1.75962 -0.251091)
(128.117 1.68094 -4.35079)
(124.848 1.53147 -9.49617)
(118.595 2.245 -21.6121)
(116.807 1.72333 6.24617)
(119.276 2.14523 6.52214)
(121.331 2.35053 6.23053)
(123.396 2.52157 5.66474)
(125.475 2.55713 4.57243)
(127.579 2.52868 2.81347)
(129.418 2.43966 0.190788)
(130.193 2.36929 -4.35811)
(127.562 2.20545 -10.4311)
(121.455 3.06173 -25.6157)
(117.186 1.82573 6.54044)
(119.613 2.21947 6.88125)
(121.636 2.3279 6.63475)
(123.773 2.38357 6.14011)
(126.011 2.3077 5.10336)
(128.406 2.17783 3.34679)
(130.7 2.00432 0.663007)
(132.186 1.87328 -4.29177)
(130.326 1.73234 -11.2924)
(124.441 2.78934 -29.5325)
(118.501 2.79282 5.77093)
(120.678 3.1374 6.18233)
(122.483 3.17222 6.12304)
(124.518 3.12333 5.85693)
(126.79 2.95787 5.05463)
(129.392 2.72714 3.46764)
(132.068 2.44698 0.866003)
(134.175 2.20226 -4.29284)
(133.111 2.04574 -11.99)
(127.442 3.08979 -32.9224)
(122.007 2.29036 5.00888)
(123.467 2.33677 5.47125)
(124.742 2.21615 5.64313)
(126.474 2.04399 5.67913)
(128.683 1.78137 5.19031)
(131.487 1.42809 3.79969)
(134.636 1.03406 1.163)
(137.465 0.657331 -4.31701)
(137.206 0.671134 -12.6542)
(131.537 1.82852 -35.4711)
(124.148 2.69613 4.14649)
(124.983 2.57972 4.5265)
(125.877 2.39715 4.82254)
(127.316 2.13752 5.01513)
(129.316 1.77428 4.75377)
(131.97 1.31308 3.62834)
(135.124 0.873072 1.2195)
(138.435 0.598573 -3.9932)
(139.634 1.0085 -12.5351)
(135.819 3.1459 -35.7776)
(124.304 0.735335 1.8771)
(125.527 0.5814 1.69322)
(126.216 0.420344 1.2831)
(126.652 0.287144 0.74696)
(126.865 0.168736 0.0432488)
(126.81 0.0853249 -0.771462)
(126.412 0.0414237 -1.65522)
(125.497 0.0362434 -2.48536)
(123.543 0.0531348 -3.05245)
(119.223 0.102645 -3.08288)
(117.319 0.703469 2.63132)
(119.422 0.65296 2.40936)
(120.958 0.628217 1.98572)
(121.965 0.638138 1.36982)
(122.529 0.645772 0.532314)
(122.599 0.633499 -0.532123)
(121.921 0.598184 -1.79329)
(119.952 0.541953 -3.16078)
(116.075 0.415575 -4.23941)
(110.817 0.268428 -5.36579)
(115.831 0.468652 3.74532)
(117.979 0.449393 3.62907)
(119.64 0.455931 3.21728)
(120.9 0.514813 2.56063)
(121.862 0.557515 1.59842)
(122.463 0.562731 0.293499)
(122.358 0.518915 -1.40064)
(120.823 0.439712 -3.46727)
(116.901 0.275738 -5.30458)
(111.237 0.186148 -7.69984)
(115.889 0.859264 4.31945)
(118.152 1.02947 4.32462)
(119.924 1.16847 3.96092)
(121.4 1.33076 3.32997)
(122.676 1.42536 2.31484)
(123.685 1.44966 0.848514)
(124.057 1.38371 -1.17385)
(122.957 1.24256 -3.88865)
(119.005 0.953499 -6.54312)
(112.808 0.854169 -10.5125)
(116.39 0.761833 5.06775)
(118.747 1.04328 5.19069)
(120.605 1.22833 4.84432)
(122.275 1.41501 4.21496)
(123.813 1.50325 3.13)
(125.159 1.51364 1.49845)
(125.948 1.42502 -0.814916)
(125.322 1.2702 -4.16677)
(121.475 0.944675 -7.70997)
(114.873 0.966955 -13.5496)
(116.713 1.39012 5.34695)
(119.109 1.81635 5.56261)
(121.018 2.05151 5.27289)
(122.851 2.24238 4.70418)
(124.622 2.303 3.63569)
(126.286 2.28557 1.93885)
(127.485 2.17527 -0.5392)
(127.385 2.00606 -4.40552)
(123.81 1.61885 -8.7817)
(116.983 1.67275 -16.6571)
(117.226 1.51045 5.68176)
(119.578 1.9059 5.96334)
(121.473 2.04991 5.71928)
(123.406 2.13554 5.20932)
(125.365 2.0961 4.16851)
(127.33 1.98997 2.42436)
(128.943 1.80827 -0.195457)
(129.407 1.59775 -4.53807)
(126.236 1.22663 -9.77022)
(119.286 1.4037 -19.7936)
(118.593 2.5284 5.00878)
(120.698 2.87714 5.36211)
(122.41 2.94815 5.29893)
(124.289 2.93075 4.9979)
(126.321 2.80212 4.16287)
(128.517 2.60517 2.54726)
(130.499 2.33788 -0.0485809)
(131.496 2.04265 -4.66348)
(128.829 1.65763 -10.5758)
(121.803 1.78024 -22.5989)
(121.936 2.00417 4.53576)
(123.376 2.05563 4.92993)
(124.642 1.96051 5.04295)
(126.288 1.80992 4.97106)
(128.29 1.57651 4.37484)
(130.676 1.27498 2.91263)
(133.097 0.956521 0.282965)
(134.803 0.65878 -4.67681)
(132.834 0.563375 -11.2971)
(125.696 0.799088 -24.8127)
(123.979 2.49711 3.7665)
(124.847 2.39702 4.10759)
(125.803 2.23886 4.35213)
(127.231 1.99434 4.43401)
(129.095 1.6551 4.05066)
(131.405 1.2398 2.83824)
(133.886 0.868589 0.456221)
(136.076 0.677129 -4.22496)
(135.564 1.00531 -11.1821)
(130.205 2.11845 -25.0659)
(123.659 0.455491 1.22674)
(124.72 0.367993 1.123)
(125.257 0.26782 0.838678)
(125.568 0.184083 0.469643)
(125.688 0.102927 -0.0133534)
(125.593 0.0398155 -0.543048)
(125.248 -0.00523052 -1.0817)
(124.552 -0.0317548 -1.5272)
(123.072 -0.0398577 -1.78145)
(119.397 -0.0338212 -1.66443)
(116.692 0.400469 1.84992)
(118.674 0.390779 1.68935)
(120.07 0.394522 1.36771)
(120.906 0.417174 0.894595)
(121.292 0.42573 0.261993)
(121.205 0.402954 -0.508659)
(120.454 0.346403 -1.36669)
(118.598 0.263715 -2.20982)
(115.139 0.13754 -2.81476)
(110.498 -0.0416566 -3.22073)
(115.371 0.122267 2.93288)
(117.412 0.123701 2.83291)
(118.928 0.142697 2.47519)
(119.988 0.199238 1.90555)
(120.708 0.235921 1.09461)
(121.045 0.232513 0.0342565)
(120.715 0.177327 -1.26105)
(119.133 0.0817274 -2.69442)
(115.557 -0.0722551 -3.84483)
(110.512 -0.237482 -4.85057)
(115.607 0.52529 3.48343)
(117.785 0.704863 3.47148)
(119.411 0.852413 3.13136)
(120.665 1.00818 2.54909)
(121.658 1.09826 1.64605)
(122.327 1.11518 0.385042)
(122.348 1.03651 -1.26184)
(121.031 0.862961 -3.26716)
(117.287 0.548338 -5.01717)
(111.622 0.268661 -6.82411)
(116.269 0.443113 4.23403)
(118.547 0.72468 4.31173)
(120.255 0.917797 3.96929)
(121.69 1.09859 3.3612)
(122.927 1.18633 2.35562)
(123.891 1.19237 0.891035)
(124.242 1.09122 -1.09612)
(123.24 0.893035 -3.70661)
(119.409 0.505955 -6.15434)
(113.179 0.244676 -9.03246)
(116.735 1.12624 4.50156)
(119.047 1.54747 4.6578)
(120.807 1.79306 4.36572)
(122.408 1.98201 3.80229)
(123.88 2.04664 2.78682)
(125.142 2.02561 1.21818)
(125.834 1.89608 -0.990816)
(125.208 1.66384 -4.11492)
(121.409 1.16822 -7.23156)
(114.746 0.841217 -11.3471)
(117.368 1.24743 4.8719)
(119.634 1.62843 5.09101)
(121.39 1.78507 4.83937)
(123.107 1.87745 4.3165)
(124.779 1.85401 3.29766)
(126.334 1.7594 1.63683)
(127.382 1.57473 -0.777033)
(127.178 1.31977 -4.39859)
(123.517 0.827751 -8.2335)
(116.506 0.553085 -13.7261)
(118.761 2.2887 4.29003)
(120.781 2.62699 4.58372)
(122.387 2.71498 4.50458)
(124.087 2.71149 4.16733)
(125.861 2.60475 3.32176)
(127.653 2.43296 1.7504)
(129.042 2.18522 -0.688134)
(129.278 1.874 -4.61462)
(125.894 1.3568 -9.04208)
(118.615 0.976 -15.8875)
(121.937 1.70231 4.06728)
(123.346 1.75892 4.3996)
(124.58 1.68332 4.45322)
(126.111 1.54945 4.28798)
(127.886 1.33977 3.61731)
(129.86 1.0799 2.15559)
(131.636 0.821211 -0.324227)
(132.51 0.591864 -4.59613)
(129.709 0.443012 -9.71146)
(122.304 0.196785 -17.6571)
(123.909 2.28576 3.37053)
(124.796 2.20359 3.67236)
(125.786 2.0674 3.8627)
(127.163 1.83958 3.8494)
(128.856 1.52792 3.37957)
(130.81 1.1601 2.14698)
(132.692 0.849208 -0.098565)
(134.005 0.71556 -4.10837)
(132.541 0.976804 -9.54475)
(126.877 1.49129 -17.6771)
(123.251 0.277063 0.750401)
(124.188 0.232218 0.704137)
(124.61 0.17477 0.521538)
(124.834 0.127523 0.288402)
(124.904 0.0752422 -0.0224507)
(124.81 0.0301457 -0.348595)
(124.539 -0.00871479 -0.665334)
(124.017 -0.0378805 -0.896817)
(122.847 -0.0473393 -1.00879)
(119.488 -0.050497 -0.891206)
(116.249 0.177128 1.22366)
(118.129 0.194996 1.12027)
(119.41 0.220099 0.897339)
(120.119 0.255159 0.562819)
(120.387 0.2697 0.119698)
(120.223 0.247513 -0.398358)
(119.476 0.187708 -0.942776)
(117.758 0.103237 -1.42686)
(114.619 -0.00177154 -1.7509)
(110.35 -0.168398 -1.8911)
(115.059 -0.157407 2.23763)
(117.003 -0.139463 2.16491)
(118.39 -0.109366 1.87482)
(119.285 -0.0532953 1.40982)
(119.822 -0.0206359 0.763347)
(119.986 -0.0297649 -0.0509886)
(119.551 -0.0904656 -0.991249)
(118.025 -0.18839 -1.94568)
(114.798 -0.309688 -2.67042)
(110.218 -0.456285 -3.10521)
(115.46 0.254444 2.73859)
(117.551 0.44489 2.72517)
(119.038 0.599304 2.42492)
(120.095 0.74654 1.91452)
(120.852 0.827548 1.14889)
(121.267 0.834175 0.118688)
(121.075 0.745906 -1.15324)
(119.704 0.559424 -2.57313)
(116.285 0.26408 -3.73309)
(111.127 -0.042059 -4.55815)
(116.274 0.185677 3.47284)
(118.463 0.467829 3.52123)
(120.021 0.662958 3.19652)
(121.236 0.830418 2.63187)
(122.206 0.908026 1.73617)
(122.86 0.902449 0.478164)
(122.909 0.789946 -1.14129)
(121.737 0.569664 -3.09351)
(118.161 0.182692 -4.79037)
(112.431 -0.166058 -6.20816)
(116.873 0.913921 3.71775)
(119.087 1.3251 3.82841)
(120.689 1.57 3.54281)
(122.061 1.74613 3.00308)
(123.25 1.8044 2.07238)
(124.165 1.77377 0.683195)
(124.482 1.63031 -1.18344)
(123.566 1.36311 -3.60345)
(119.909 0.836186 -5.81567)
(113.697 0.355332 -7.95018)
(117.607 1.01638 4.1164)
(119.768 1.37568 4.28383)
(121.371 1.53262 4.02859)
(122.865 1.62018 3.50791)
(124.253 1.60229 2.54343)
(125.434 1.51338 1.02623)
(126.042 1.3314 -1.08385)
(125.428 1.05772 -3.98337)
(121.764 0.526929 -6.77465)
(115.129 0.0512087 -9.74879)
(118.993 2.06126 3.61417)
(120.914 2.38355 3.85667)
(122.394 2.47899 3.76243)
(123.899 2.48193 3.40244)
(125.405 2.39082 2.57799)
(126.815 2.24024 1.11554)
(127.722 2.01706 -1.05402)
(127.463 1.71197 -4.25802)
(123.948 1.14532 -7.52906)
(116.996 0.52303 -11.3701)
(122.002 1.39027 3.60144)
(123.362 1.4541 3.88003)
(124.538 1.39541 3.88047)
(125.927 1.27747 3.64463)
(127.458 1.09081 2.93866)
(129.04 0.867405 1.54074)
(130.277 0.656008 -0.689038)
(130.559 0.477794 -4.21504)
(127.552 0.316601 -8.08689)
(120.555 -0.12348 -12.6646)
(123.931 2.07063 2.9588)
(124.813 2.00844 3.22358)
(125.799 1.89322 3.36236)
(127.087 1.68458 3.27437)
(128.582 1.40376 2.75578)
(130.185 1.08392 1.56232)
(131.552 0.826913 -0.466938)
(132.218 0.732769 -3.77459)
(130.402 0.9346 -7.88477)
(125.201 1.13081 -12.4855)
(123.042 0.177756 0.4213)
(123.897 0.157038 0.413248)
(124.238 0.126164 0.304209)
(124.404 0.103067 0.170234)
(124.448 0.0714091 -0.0184177)
(124.367 0.0413024 -0.208942)
(124.16 0.0119341 -0.388778)
(123.761 -0.011086 -0.5037)
(122.78 -0.0144707 -0.551759)
(119.573 -0.0189841 -0.468699)
(115.96 0.0320181 0.750134)
(117.771 0.0663839 0.693287)
(118.967 0.105483 0.554384)
(119.585 0.150137 0.338036)
(119.781 0.17208 0.0508154)
(119.59 0.15673 -0.273181)
(118.878 0.105119 -0.594866)
(117.281 0.0333852 -0.850478)
(114.353 -0.0443455 -1.01303)
(110.294 -0.18832 -1.06546)
(114.883 -0.366712 1.67231)
(116.751 -0.339223 1.62894)
(118.032 -0.301898 1.40845)
(118.798 -0.246211 1.04924)
(119.204 -0.215415 0.558663)
(119.264 -0.225936 -0.037958)
(118.794 -0.284675 -0.691971)
(117.356 -0.374467 -1.30343)
(114.394 -0.46039 -1.75153)
(110.123 -0.565017 -1.95105)
(115.441 0.0511832 2.09992)
(117.451 0.248813 2.09408)
(118.809 0.406555 1.84381)
(119.698 0.544295 1.41831)
(120.269 0.615195 0.798094)
(120.507 0.612715 -0.00550406)
(120.199 0.5203 -0.944798)
(118.854 0.334424 -1.90959)
(115.727 0.0737579 -2.6638)
(110.947 -0.199118 -3.03945)
(116.398 -0.0109542 2.79599)
(118.492 0.267634 2.82811)
(119.899 0.459252 2.53436)
(120.915 0.610087 2.03177)
(121.658 0.674066 1.26462)
(122.077 0.655859 0.227675)
(121.936 0.536101 -1.03714)
(120.715 0.309495 -2.44369)
(117.431 -0.0485145 -3.60569)
(112.126 -0.391628 -4.30405)
(117.115 0.746811 3.00467)
(119.216 1.14099 3.08427)
(120.653 1.37705 2.81755)
(121.807 1.53527 2.32117)
(122.742 1.58313 1.50013)
(123.376 1.5426 0.318535)
(123.435 1.39257 -1.18915)
(122.385 1.11334 -2.99395)
(118.994 0.602255 -4.5443)
(113.232 0.0906733 -5.64341)
(117.925 0.810421 3.42125)
(119.964 1.14283 3.54974)
(121.403 1.29295 3.30045)
(122.675 1.37072 2.80134)
(123.794 1.35373 1.9205)
(124.658 1.2686 0.587159)
(124.945 1.09454 -1.17778)
(124.108 0.821705 -3.41719)
(120.657 0.30759 -5.42728)
(114.485 -0.223133 -7.01898)
(119.275 1.84588 2.98208)
(121.082 2.14932 3.18293)
(122.421 2.24723 3.08038)
(123.723 2.25402 2.71704)
(124.966 2.17618 1.94502)
(126.038 2.04478 0.638747)
(126.576 1.8485 -1.20471)
(126.025 1.56461 -3.72049)
(122.678 1.0111 -6.09737)
(116.227 0.312098 -8.2156)
(122.123 1.07932 3.14098)
(123.419 1.15185 3.37346)
(124.51 1.10865 3.33099)
(125.739 1.00691 3.05008)
(127.026 0.843421 2.34653)
(128.256 0.65262 1.06127)
(129.066 0.478275 -0.866625)
(128.96 0.33642 -3.66886)
(126.091 0.186732 -6.5314)
(119.733 -0.274027 -9.08628)
(124.039 1.86341 2.53525)
(124.893 1.82235 2.76648)
(125.839 1.7279 2.86064)
(127.009 1.54118 2.72114)
(128.293 1.2937 2.19007)
(129.57 1.0208 1.08366)
(130.516 0.810995 -0.680322)
(130.737 0.743981 -3.31963)
(128.914 0.892862 -6.33756)
(124.502 0.944336 -8.86526)
(122.995 0.127895 0.208311)
(123.805 0.118181 0.225101)
(124.094 0.101414 0.164321)
(124.221 0.0924034 0.0965508)
(124.251 0.0741394 -0.0116269)
(124.184 0.0553266 -0.116665)
(124.023 0.0352983 -0.214338)
(123.705 0.020464 -0.265916)
(122.831 0.0234677 -0.283218)
(119.681 0.0179728 -0.229123)
(115.797 -0.0474664 0.411489)
(117.57 -0.00339788 0.389362)
(118.71 0.0440534 0.315037)
(119.267 0.0948292 0.189757)
(119.422 0.123285 0.0195276)
(119.226 0.116699 -0.166613)
(118.555 0.0776467 -0.339565)
(117.046 0.023095 -0.455981)
(114.238 -0.0306751 -0.527584)
(110.268 -0.15659 -0.544936)
(114.826 -0.509877 1.23571)
(116.644 -0.479573 1.21795)
(117.843 -0.439936 1.05984)
(118.511 -0.386302 0.794936)
(118.829 -0.356801 0.437473)
(118.831 -0.365603 0.01607)
(118.363 -0.416701 -0.424092)
(117.009 -0.491485 -0.802114)
(114.222 -0.545023 -1.07151)
(110.117 -0.610438 -1.16165)
(115.537 -0.0840583 1.57402)
(117.476 0.113696 1.57794)
(118.721 0.269047 1.37963)
(119.468 0.395488 1.04058)
(119.898 0.456213 0.558304)
(120.02 0.447038 -0.044246)
(119.661 0.356494 -0.711955)
(118.376 0.181619 -1.34077)
(115.466 -0.0418095 -1.8112)
(110.921 -0.269249 -1.96031)
(116.628 -0.147437 2.2116)
(118.623 0.119319 2.23471)
(119.885 0.300866 1.98016)
(120.723 0.433079 1.55034)
(121.282 0.482904 0.916589)
(121.533 0.454385 0.0922202)
(121.287 0.3334 -0.861489)
(120.086 0.113372 -1.8395)
(117.056 -0.204596 -2.61106)
(112.048 -0.50893 -2.92835)
(117.443 0.622038 2.36996)
(119.421 0.990163 2.42906)
(120.691 1.21034 2.19179)
(121.641 1.34841 1.75413)
(122.36 1.38527 1.05641)
(122.78 1.33771 0.088771)
(122.679 1.18902 -1.08423)
(121.598 0.916306 -2.38167)
(118.483 0.446733 -3.43605)
(113.075 -0.0384215 -3.96624)
(118.307 0.629348 2.79166)
(120.209 0.930159 2.89125)
(121.477 1.06895 2.65805)
(122.534 1.1355 2.19847)
(123.415 1.11799 1.42196)
(124.024 1.03699 0.29199)
(124.095 0.875219 -1.13177)
(123.168 0.617788 -2.80464)
(120.002 0.152138 -4.22043)
(114.24 -0.357872 -5.02979)
(119.596 1.64872 2.39571)
(121.277 1.93131 2.56291)
(122.463 2.02886 2.4611)
(123.563 2.03906 2.11422)
(124.562 1.97387 1.41991)
(125.351 1.86065 0.29765)
(125.625 1.69135 -1.20812)
(124.932 1.43791 -3.11319)
(121.885 0.935663 -4.79462)
(115.932 0.253745 -5.90695)
(122.294 0.784461 2.69181)
(123.51 0.865654 2.8846)
(124.495 0.836642 2.8116)
(125.555 0.751304 2.51063)
(126.609 0.610928 1.8418)
(127.538 0.449571 0.702038)
(128.032 0.304811 -0.909055)
(127.703 0.188778 -3.06643)
(125.143 0.0593035 -5.12724)
(119.451 -0.341598 -6.47024)
(124.223 1.67775 2.10676)
(125.023 1.65738 2.30848)
(125.901 1.58359 2.36788)
(126.931 1.42111 2.20016)
(128.004 1.20843 1.68858)
(128.992 0.980313 0.703862)
(129.614 0.811244 -0.773848)
(129.556 0.762573 -2.81663)
(127.913 0.865337 -4.96952)
(124.352 0.858632 -6.31105)
(123.08 0.0981816 0.0866305)
(123.871 0.0896738 0.119409)
(124.128 0.0776347 0.0861457)
(124.232 0.0749063 0.0580216)
(124.253 0.0639531 -0.00182965)
(124.197 0.0524664 -0.0571398)
(124.068 0.039709 -0.108606)
(123.8 0.0320243 -0.128407)
(122.985 0.0401801 -0.132217)
(119.843 0.0360606 -0.100252)
(115.733 -0.0777774 0.184525)
(117.495 -0.0279747 0.186086)
(118.602 0.0238469 0.156543)
(119.121 0.0773954 0.0950466)
(119.253 0.110222 0.00556549)
(119.063 0.111538 -0.0891672)
(118.427 0.0847568 -0.167864)
(116.972 0.0458153 -0.202337)
(114.221 0.00922528 -0.22337)
(110.265 -0.104909 -0.223067)
(114.868 -0.596311 0.916196)
(116.66 -0.568441 0.917472)
(117.801 -0.531186 0.809235)
(118.398 -0.482162 0.620186)
(118.655 -0.454834 0.366877)
(118.628 -0.461059 0.0760187)
(118.177 -0.502195 -0.214267)
(116.891 -0.559326 -0.44188)
(114.206 -0.585023 -0.602559)
(110.165 -0.617776 -0.642179)
(115.73 -0.15591 1.15713)
(117.613 0.0343338 1.16868)
(118.759 0.180834 1.01777)
(119.392 0.293498 0.757717)
(119.716 0.343958 0.395565)
(119.766 0.330454 -0.0419064)
(119.397 0.246544 -0.502077)
(118.18 0.0896757 -0.896144)
(115.415 -0.0979578 -1.17677)
(110.988 -0.282124 -1.21134)
(116.942 -0.227011 1.72096)
(118.841 0.018667 1.73778)
(119.966 0.183435 1.52499)
(120.651 0.295529 1.1702)
(121.065 0.332013 0.663196)
(121.203 0.296746 0.027448)
(120.913 0.180722 -0.671354)
(119.772 -0.0224879 -1.33049)
(116.937 -0.296874 -1.82491)
(112.108 -0.55402 -1.9372)
(117.837 0.537955 1.81762)
(119.686 0.871299 1.8626)
(120.794 1.06967 1.66129)
(121.562 1.18692 1.29103)
(122.103 1.2138 0.718976)
(122.367 1.16319 -0.0465673)
(122.182 1.02309 -0.929502)
(121.138 0.770691 -1.83037)
(118.267 0.355004 -2.51866)
(113.106 -0.0804171 -2.72866)
(118.732 0.477323 2.23128)
(120.492 0.742914 2.30867)
(121.589 0.867427 2.09971)
(122.448 0.922973 1.69287)
(123.124 0.905174 1.03113)
(123.538 0.829764 0.104806)
(123.48 0.683834 -1.00821)
(122.555 0.451589 -2.22055)
(119.679 0.0485822 -3.18818)
(114.24 -0.405925 -3.54643)
(119.942 1.48002 1.8582)
(121.493 1.74017 1.99784)
(122.522 1.83539 1.90565)
(123.428 1.84908 1.59204)
(124.212 1.79643 0.992283)
(124.773 1.70094 0.0634164)
(124.874 1.55787 -1.12326)
(124.146 1.33896 -2.51747)
(121.437 0.904061 -3.66584)
(115.918 0.284464 -4.18865)
(122.507 0.522437 2.26219)
(123.631 0.610135 2.42025)
(124.496 0.593485 2.32917)
(125.386 0.523942 2.02995)
(126.227 0.405961 1.4204)
(126.909 0.271318 0.443753)
(127.183 0.151216 -0.862388)
(126.756 0.0548574 -2.47927)
(124.568 -0.0530905 -3.92773)
(119.49 -0.369966 -4.57295)
(124.465 1.52747 1.68246)
(125.191 1.52551 1.85873)
(125.975 1.4717 1.89455)
(126.857 1.33482 1.71972)
(127.729 1.15713 1.25305)
(128.472 0.970791 0.410898)
(128.855 0.836569 -0.783057)
(128.648 0.800299 -2.31834)
(127.265 0.864744 -3.80916)
(124.491 0.837962 -4.49145)
(123.267 0.0623527 0.039118)
(124.051 0.0471026 0.0817772)
(124.29 0.0325772 0.0595282)
(124.379 0.0300926 0.0504401)
(124.396 0.0214228 0.0147853)
(124.349 0.0134799 -0.0163459)
(124.241 0.00529917 -0.0462988)
(124.004 0.00293491 -0.0547982)
(123.218 0.0156229 -0.0562919)
(120.068 0.0190552 -0.0415217)
(115.746 -0.0759758 0.0451282)
(117.517 -0.0233799 0.0612873)
(118.607 0.0297936 0.0591533)
(119.102 0.0831081 0.0376875)
(119.222 0.117691 -0.000998218)
(119.042 0.12467 -0.0396304)
(118.433 0.107733 -0.0619646)
(117.007 0.080788 -0.0498447)
(114.271 0.0552774 -0.0418157)
(110.283 -0.050549 -0.026693)
(114.989 -0.637568 0.696518)
(116.778 -0.615776 0.709432)
(117.878 -0.584779 0.63668)
(118.423 -0.543043 0.502871)
(118.639 -0.519616 0.324575)
(118.598 -0.524187 0.124362)
(118.167 -0.556041 -0.066709)
(116.929 -0.596738 -0.202016)
(114.291 -0.600254 -0.299168)
(110.244 -0.606811 -0.312141)
(116.001 -0.172174 0.837214)
(117.841 0.00452546 0.852563)
(118.905 0.136576 0.740692)
(119.445 0.23311 0.546782)
(119.693 0.273062 0.282042)
(119.701 0.256825 -0.028135)
(119.342 0.18204 -0.337948)
(118.187 0.0461531 -0.575798)
(115.509 -0.109567 -0.736005)
(111.109 -0.257277 -0.711199)
(117.318 -0.254625 1.31891)
(119.129 -0.0370809 1.32971)
(120.13 0.105605 1.15661)
(120.686 0.196776 0.872225)
(120.989 0.221217 0.477319)
(121.055 0.182669 -0.00137229)
(120.76 0.0763261 -0.502415)
(119.693 -0.103593 -0.936192)
(117 -0.335124 -1.24426)
(112.253 -0.547383 -1.24719)
(118.274 0.493963 1.34785)
(119.999 0.786593 1.38208)
(120.955 0.959012 1.21876)
(121.565 1.05563 0.917562)
(121.963 1.07411 0.46407)
(122.121 1.02428 -0.123108)
(121.905 0.898278 -0.768538)
(120.935 0.675078 -1.375)
(118.268 0.317134 -1.80534)
(113.258 -0.0633068 -1.8364)
(119.184 0.361526 1.74232)
(120.804 0.590294 1.80144)
(121.738 0.698583 1.62151)
(122.42 0.743793 1.27444)
(122.926 0.726443 0.728219)
(123.198 0.658414 -0.00884019)
(123.075 0.531053 -0.855214)
(122.211 0.329809 -1.71148)
(119.602 -0.0078333 -2.35362)
(114.397 -0.396952 -2.45345)
(120.303 1.35197 1.37378)
(121.725 1.58835 1.49021)
(122.6 1.67932 1.41459)
(123.327 1.69618 1.14587)
(123.927 1.65573 0.648543)
(124.316 1.57768 -0.0928185)
(124.314 1.46019 -0.996388)
(123.622 1.2769 -1.98458)
(121.242 0.911081 -2.7389)
(116.074 0.365971 -2.92401)
(122.752 0.309138 1.86178)
(123.778 0.398987 1.98853)
(124.516 0.391725 1.89021)
(125.242 0.336223 1.6094)
(125.897 0.239082 1.07468)
(126.383 0.128598 0.264176)
(126.515 0.0302671 -0.765078)
(126.076 -0.0489254 -1.94898)
(124.257 -0.135498 -2.94779)
(119.709 -0.37183 -3.21531)
(124.742 1.42464 1.27278)
(125.377 1.4371 1.4274)
(126.053 1.40154 1.45041)
(126.785 1.2903 1.28565)
(127.476 1.14649 0.881418)
(128.018 0.99826 0.189586)
(128.238 0.893763 -0.740597)
(127.972 0.866399 -1.86081)
(126.868 0.900996 -2.85993)
(124.756 0.869736 -3.18593)
(123.518 -0.00154782 0.0549369)
(124.297 -0.0300077 0.102315)
(124.526 -0.052603 0.0778755)
(124.607 -0.0595481 0.0717113)
(124.621 -0.0700278 0.0419494)
(124.58 -0.0777534 0.0162018)
(124.486 -0.0839866 -0.0103256)
(124.269 -0.0827543 -0.0221928)
(123.499 -0.0651824 -0.030403)
(120.346 -0.0451592 -0.0309459)
(115.818 -0.0571078 -0.0283764)
(117.612 -0.00525718 -0.00457392)
(118.695 0.046293 0.00668649)
(119.175 0.0966417 0.00635706)
(119.289 0.130346 -0.00452118)
(119.119 0.140316 -0.0126764)
(118.532 0.130256 -0.00459341)
(117.119 0.111976 0.0318938)
(114.375 0.0941748 0.0570222)
(110.324 -0.00231431 0.0870383)
(115.172 -0.64461 0.557615)
(116.974 -0.631267 0.575158)
(118.046 -0.609434 0.523891)
(118.553 -0.577313 0.425658)
(118.74 -0.559773 0.296338)
(118.691 -0.564618 0.154108)
(118.279 -0.589718 0.0243539)
(117.071 -0.617528 -0.0577809)
(114.445 -0.604814 -0.118769)
(110.344 -0.590352 -0.114081)
(116.331 -0.141206 0.598014)
(118.14 0.018667 0.613277)
(119.137 0.132544 0.530626)
(119.604 0.211348 0.387803)
(119.796 0.240544 0.196851)
(119.78 0.222217 -0.0206449)
(119.439 0.156865 -0.226637)
(118.337 0.041286 -0.365168)
(115.701 -0.0885059 -0.451666)
(111.27 -0.208346 -0.392741)
(117.735 -0.234931 0.996564)
(119.467 -0.0484759 1.00066)
(120.361 0.0692385 0.86187)
(120.81 0.139551 0.638294)
(121.031 0.153306 0.336251)
(121.054 0.114053 -0.0188479)
(120.774 0.0199419 -0.373704)
(119.785 -0.134441 -0.655662)
(117.19 -0.327616 -0.844906)
(112.455 -0.50304 -0.7891)
(118.733 0.490833 0.958575)
(120.344 0.740815 0.983412)
(121.165 0.885075 0.855778)
(121.641 0.961722 0.618945)
(121.928 0.973255 0.269891)
(122.019 0.927127 -0.168894)
(121.805 0.818575 -0.629423)
(120.925 0.628876 -1.02794)
(118.423 0.326667 -1.28694)
(113.49 -0.00352424 -1.22083)
(119.649 0.290806 1.32606)
(121.138 0.483354 1.36865)
(121.922 0.574084 1.21856)
(122.45 0.609332 0.931772)
(122.821 0.592935 0.493588)
(122.995 0.533764 -0.0780248)
(122.852 0.426723 -0.706986)
(122.079 0.259283 -1.30068)