/*--------------------------------*- C++ -*----------------------------------*\
| =========                 |                                                 |
| \\      /  F ield         | OpenFOAM: The Open Source CFD Toolbox           |
|  \\    /   O peration     | Version:  5.x                                   |
|   \\  /    A nd           | Web:      www.OpenFOAM.org                      |
|    \\/     M anipulation  |                                                 |
\*---------------------------------------------------------------------------*/
FoamFile
{
    version     2.0;
    format      ascii;
    class       volScalarField;
    location    "0";
    object      thicknessFraction;
}
// * * * * * * * * * * * * * * * * * * * * * * * * * * * * * * * * * * * * * //

dimensions      [0 0 0 0 0 0 0];

internalField   uniform 0;

boundaryField
{
    allBoundary
    {
        type            fixedValue;
        value           nonuniform 0();
    }
    inlet
    {
        type            fixedValue;
        value           uniform 0;
    }
    outlet
    {
        type            fixedValue;
        value           uniform 0;
    }
    walls
    {
        type            fixedValue;
        value           nonuniform List<scalar> 
3298
(
0
0
0
0
0
0
0
0
0
0
0
0.45778
0.669707
0.882102
0.931058
0.936242
0.936986
0.936986
0.936986
0.936986
0.936986
0.936986
0.936986
0.936986
0.936846
0.934836
0.919457
0.802846
0.56392
0.374966
0.374966
0.56392
0.802841
0.919455
0.934836
0.936846
0.936986
0.936986
0.936986
0.936986
0.936986
0.936986
0.936986
0.936986
0.936242
0.931058
0.882107
0.669708
0.45778
0.303035
0.241821
0.241105
0.240249
0.0888798
0.514967
0.489288
0.488932
0.486574
0.444087
0.593581
0.825234
0.809272
0.656611
0.627319
0.868037
0.979311
0.96804
0.893375
0.891512
0.948681
0.999059
0.997884
0.989827
0.983681
0.954609
0.999838
0.999954
0.999645
0.99249
0.954798
0.999846
1
0.99999
0.992853
0.9548
0.999846
1
0.999993
0.992857
0.9548
0.999846
1
0.999993
0.992856
0.9548
0.999846
1
0.999993
0.992856
0.9548
0.999846
1
0.999993
0.992856
0.9548
0.999846
1
0.999993
0.992856
0.9548
0.999846
1
0.999993
0.992856
0.9548
0.999846
1
0.999993
0.992856
0.954776
0.999842
0.999959
0.999992
0.99281
0.953599
0.999469
0.997912
0.999836
0.990822
0.928795
0.989969
0.964431
0.994091
0.959361
0.730114
0.908822
0.76122
0.927294
0.742076
0.546556
0.643905
0.599881
0.651751
0.571863
0.394929
0.335198
0.334396
0.333715
0.223997
0.322017
0.40739
0.243882
0.337276
0.268624
0.252344
0.361647
0.345779
0.394929
0.241107
0.334486
0.241205
0.241121
0.334581
0.334499
0.335198
0.240984
0.334197
0.241104
0.241086
0.334483
0.334379
0.334485
0.197056
0.29781
0.237718
0.226111
0.331454
0.321401
0.333623
0.228516
0.223993
0.515676
0.543294
0.490335
0.645817
0.498891
0.573915
0.62311
0.546556
0.488932
0.653107
0.488978
0.654389
0.654408
0.652124
0.48489
0.574491
0.488932
0.633125
0.599819
0.646722
0.469774
0.588562
0.487594
0.624143
0.616902
0.597188
0.435146
0.554439
0.571483
0.557617
0.653936
0.812487
0.921296
0.684373
0.826537
0.885934
0.730133
0.826142
0.930857
0.829762
0.934943
0.934495
0.931462
0.578306
0.673973
0.771161
0.873156
0.761165
0.913121
0.637192
0.739986
0.74768
0.727694
0.848907
0.829404
0.754677
0.662794
0.80928
0.741707
0.785776
0.845601
0.974016
0.992971
0.921226
0.965237
0.983481
0.928798
0.978472
0.994819
0.980978
0.98064
0.995786
0.995652
0.995183
0.861691
0.951786
0.945989
0.897382
0.982021
0.9644
0.990674
0.892433
0.963009
0.932114
0.92349
0.976682
0.973636
0.962874
0.909092
0.957001
0.959145
0.86242
0.865005
0.998031
0.999027
0.980299
0.992649
0.984198
0.994827
0.953599
0.999053
0.999872
0.999293
0.999269
0.999902
0.999909
0.99975
0.986575
0.997074
0.99536
0.990223
0.999087
0.997911
0.999636
0.988923
0.996386
0.993878
0.992805
0.998761
0.998255
0.997837
0.974223
0.979367
0.990815
0.865537
0.865629
0.999169
0.999183
0.984972
0.985088
0.995265
0.954776
0.999988
0.999999
0.999979
0.999986
0.999998
0.999846
0.99951
0.999938
0.999866
0.999986
0.999958
0.999996
0.998064
0.998359
0.999781
0.999935
0.999591
0.999951
0.980717
0.981043
0.99281
0.865642
0.865643
0.999184
0.999184
0.9851
0.985101
0.995269
0.9548
1
1
0.999986
0.999986
0.999999
0.999846
0.999994
0.999999
0.999999
1
1
1
0.998398
0.998401
0.999951
0.999612
0.999952
0.999613
0.999993
0.981095
0.981096
0.992856
0.865643
0.865643
0.999184
0.999184
0.985101
0.985101
0.995269
0.9548
1
1
0.999986
0.999999
0.999986
0.999999
0.999846
1
1
1
1
1
1
1
0.998401
0.998401
0.999952
0.999613
0.999952
0.999613
0.999993
0.981096
0.981096
0.992856
0.865643
0.865643
0.999184
0.999184
0.985101
0.995269
0.985101
0.995269
0.9548
1
1
0.999986
0.999999
0.999986
0.999999
0.999846
1
1
1
1
1
1
1
0.998401
0.998401
0.999952
0.999613
0.999952
0.999613
0.999993
0.981096
0.981096
0.992856
0.865643
0.865643
0.999184
0.999184
0.985101
0.985101
0.995269
0.9548
1
1
0.999986
0.999986
0.999999
0.999846
1
1
1
1
1
1
0.998401
0.998401
0.999952
0.999952
0.999613
0.999993
0.981096
0.981096
0.992856
0.865643
0.865643
0.999184
0.999184
0.985101
0.985101
0.995269
0.9548
1
1
0.999986
0.999986
0.999999
0.999846
1
1
1
1
1
1
0.998401
0.998401
0.999952
0.999613
0.999952
0.999613
0.999993
0.981096
0.981096
0.992856
0.865643
0.865643
0.999184
0.999184
0.985101
0.985101
0.995269
0.9548
1
1
0.999986
0.999999
0.999986
0.999999
0.999846
1
1
1
1
1
1
1
0.998401
0.998401
0.999952
0.999613
0.999952
0.999613
0.999993
0.981096
0.981096
0.992856
0.865643
0.865643
0.999184
0.999184
0.985101
0.995269
0.985101
0.995269
0.9548
1
1
0.999986
0.999999
0.999986
0.999999
0.999846
1
1
1
1
1
1
1
0.998401
0.998401
0.999952
0.999613
0.999952
0.999613
0.999993
0.981096
0.981096
0.992857
0.865643
0.865642
0.999184
0.999184
0.985101
0.9851
0.995269
0.954798
1
0.999994
0.999986
0.999985
0.999995
0.999846
1
1
1
0.999999
1
0.999996
0.998401
0.998398
0.999952
0.999952
0.999612
0.999993
0.981096
0.981095
0.992853
0.865629
0.865537
0.999183
0.999164
0.985088
0.984972
0.995214
0.954609
0.999938
0.999511
0.999972
0.999852
0.999658
0.9998
0.999999
0.999987
0.999986
0.999866
0.999954
0.999659
0.99836
0.998069
0.999948
0.999595
0.999907
0.999449
0.999978
0.981043
0.980717
0.99249
0.865005
0.86242
0.998982
0.997763
0.984198
0.980295
0.992598
0.94868
0.997081
0.986625
0.999073
0.99791
0.995336
0.990226
0.997621
0.999865
0.999002
0.999087
0.999636
0.99536
0.997877
0.990229
0.996431
0.989192
0.999592
0.998537
0.997837
0.994246
0.998868
0.979368
0.974226
0.983731
0.845601
0.785775
0.991899
0.971148
0.965214
0.983252
0.92115
0.953795
0.868027
0.952001
0.862229
0.981941
0.964422
0.945706
0.897421
0.966018
0.994586
0.977793
0.98202
0.990637
0.945983
0.967919
0.897462
0.964071
0.895176
0.990531
0.978856
0.967375
0.936767
0.976473
0.957021
0.909144
0.892045
0.653936
0.557617
0.916381
0.807765
0.826394
0.684239
0.766539
0.593569
0.674339
0.578642
0.872465
0.770187
0.662756
0.803645
0.929642
0.824961
0.873137
0.771141
0.809047
0.662938
0.744063
0.64108
0.911297
0.807166
0.749142
0.822647
0.809324
0.662832
0.627658
0.543294
0.515676
0.643986
0.490335
0.573868
0.498891
0.494607
0.514967
0.574877
0.484989
0.632623
0.488978
0.486967
0.489288
0.652651
0.488886
0.63312
0.488932
0.488925
0.48696
0.590474
0.469971
0.645895
0.62525
0.487594
0.483081
0.48859
0.554476
0.435153
0.444139
0.40739
0.322017
0.337276
0.243882
0.361647
0.268624
0.252344
0.303035
0.334308
0.241107
0.334581
0.33441
0.241205
0.241121
0.241821
0.334378
0.240984
0.334483
0.334468
0.241104
0.241086
0.241105
0.297815
0.197057
0.331454
0.321401
0.237718
0.226111
0.240249
0.228517
0.0888801
0.285103
0.545745
0.688346
0.69404
0.694352
0.694373
0.694377
0.694377
0.694377
0.694377
0.694377
0.694377
0.694377
0.694377
0.694358
0.693467
0.673739
0.452917
0.368999
0.75653
0.941901
0.972286
0.975331
0.975467
0.975471
0.975471
0.975471
0.975471
0.975471
0.975471
0.975471
0.975471
0.975459
0.974614
0.955665
0.811487
0.478462
0.163757
0.319688
0.597363
0.853749
0.970651
0.996708
0.998772
0.99882
0.99882
0.99882
0.99882
0.99882
0.99882
0.99882
0.99882
0.998815
0.998346
0.986357
0.891041
0.631825
0.317549
0.257068
0.488258
0.629461
0.887492
0.989178
0.999621
0.999976
0.99998
0.99998
0.99998
0.99998
0.99998
0.99998
0.99998
0.999938
0.997711
0.960242
0.741572
0.567175
0.334799
0.245144
0.467916
0.546115
0.835334
0.982442
0.999377
0.999993
1
1
1
1
1
1
1
0.999925
0.996183
0.938606
0.65742
0.527188
0.333514
0.244421
0.467026
0.545752
0.830727
0.981606
0.999351
0.999993
1
1
1
1
1
1
1
0.999923
0.996003
0.936055
0.654696
0.526499
0.333474
0.244409
0.467018
0.545748
0.830559
0.981582
0.999351
0.999993
1
1
1
1
1
1
1
0.999923
0.996
0.935968
0.654595
0.526493
0.333478
0.244409
0.467019
0.545749
0.83058
0.981585
0.999351
0.999993
1
1
1
1
1
1
1
0.999923
0.996
0.935978
0.654608
0.526494
0.333478
0.244412
0.467073
0.54579
0.831609
0.981763
0.999355
0.999993
1
1
1
1
1
1
1
0.999923
0.996035
0.93655
0.655213
0.526577
0.333492
0.244621
0.469938
0.548197
0.848758
0.984695
0.999465
0.999994
1
1
1
1
1
1
1
0.999935
0.996708
0.94545
0.665818
0.531236
0.33421
0.245691
0.489629
0.742697
0.935794
0.994469
0.999843
0.999999
1
1
1
1
1
1
1
0.999984
0.998921
0.978509
0.85175
0.617984
0.338131
0.245814
0.490543
0.822874
0.977268
0.998968
0.999987
1
1
1
1
1
1
1
1
0.999999
0.999859
0.994433
0.928311
0.651493
0.338451
0.245816
0.490546
0.831847
0.981769
0.999357
0.999994
1
1
1
1
1
1
1
1
1
0.999924
0.996039
0.936609
0.655396
0.338454
0.245815
0.490546
0.832209
0.981913
0.999364
0.999994
1
1
1
1
1
1
1
1
1
0.999924
0.99608
0.936917
0.65556
0.338454
0.245812
0.490544
0.832208
0.981913
0.999364
0.999994
1
1
1
1
1
1
1
1
1
0.999924
0.996079
0.936916
0.655559
0.338451
0.245815
0.49054
0.832155
0.981894
0.999363
0.999994
1
1
1
1
1
1
1
1
1
0.999924
0.996074
0.936875
0.655534
0.338447
0.246632
0.490888
0.832023
0.981804
0.999356
0.999993
1
1
1
1
1
1
1
1
1
0.999923
0.996041
0.936723
0.655489
0.339204
0.26025
0.49817
0.836139
0.982422
0.999364
0.999993
1
1
1
1
1
1
1
1
1
0.999922
0.996148
0.938847
0.658001
0.353295
0.336359
0.600539
0.887915
0.989348
0.999648
0.999997
1
1
1
1
1
1
1
1
1
0.999959
0.997771
0.960932
0.741296
0.445668
0.240807
0.368917
0.741849
0.333423
0.673796
0.91733
0.259322
0.499326
0.846162
0.982727
0.246389
0.490576
0.83155
0.981622
0.999236
0.245799
0.490312
0.831491
0.981613
0.999343
0.999306
0.245871
0.490357
0.832014
0.981793
0.999352
0.998723
0.99028
0.245892
0.490368
0.830163
0.980945
0.999295
0.998042
0.982814
0.876669
0.24588
0.49034
0.799968
0.965078
0.997693
0.998091
0.982064
0.85916
0.619071
0.245262
0.480202
0.626381
0.887394
0.98927
0.997771
0.973386
0.825737
0.572729
0.307482
0.244521
0.467264
0.546104
0.835454
0.982101
0.99401
0.943486
0.66572
0.391892
0.164397
0.244486
0.466807
0.545746
0.830452
0.974898
0.957413
0.879104
0.627487
0.286948
0.244486
0.466802
0.545742
0.828393
0.943758
0.757261
0.639714
0.421469
0.178477
0.244486
0.466802
0.545742
0.826642
0.920598
0.65811
0.499078
0.272295
0.244484
0.4668
0.545742
0.821453
0.898575
0.664215
0.397537
0.169392
0.244492
0.466785
0.545738
0.793845
0.734419
0.564502
0.27721
0.245302
0.467235
0.54575
0.775538
0.664974
0.407938
0.172298
0.256705
0.475747
0.546447
0.745831
0.63839
0.294104
0.300218
0.506652
0.549043
0.606879
0.55744
0.217949
0.117737
0.214739
0.44763
0.244674
0.489747
0.792666
0.245447
0.490057
0.827984
0.975038
0.245557
0.490166
0.830575
0.981336
0.999112
0.245778
0.490304
0.83147
0.98161
0.999342
0.999305
0.245871
0.490357
0.832014
0.981793
0.999352
0.998723
0.99028
0.245892
0.490368
0.830163
0.980945
0.999295
0.998042
0.982814
0.876669
0.24588
0.49034
0.799968
0.965078
0.997693
0.998091
0.982064
0.85916
0.619071
0.245262
0.480202
0.626381
0.887394
0.98927
0.997771
0.973386
0.825737
0.57273
0.307482
0.244521
0.467264
0.546104
0.835454
0.982101
0.99401
0.943486
0.66572
0.391892
0.164397
0.244486
0.466807
0.545746
0.830448
0.97486
0.957385
0.879103
0.627487
0.286948
0.244486
0.466802
0.545742
0.828084
0.94186
0.756264
0.63971
0.421468
0.178477
0.244486
0.466802
0.545742
0.820512
0.890385
0.643829
0.498505
0.27225
0.244484
0.4668
0.545742
0.789893
0.726012
0.568054
0.38733
0.168994
0.244492
0.466785
0.545738
0.743191
0.630384
0.491391
0.266451
0.245302
0.467235
0.54575
0.620767
0.564493
0.389201
0.168594
0.256705
0.475747
0.546447
0.564784
0.519125
0.282924
0.300218
0.506652
0.549043
0.565796
0.510494
0.208632
0.323648
0.476253
0.40606
0.723037
0.855378
0.654734
0.905281
0.920088
0.693001
0.923848
0.924682
0.694298
0.924852
0.924891
0.694367
0.924903
0.924907
0.694376
0.924908
0.924909
0.694377
0.924909
0.924909
0.694377
0.924909
0.924909
0.694377
0.924909
0.924909
0.694377
0.924909
0.924909
0.694377
0.924909
0.924909
0.694377
0.924909
0.924909
0.694377
0.924908
0.924905
0.694375
0.92488
0.924674
0.694229
0.9234
0.917303
0.689919
0.894237
0.82541
0.609465
0.670596
0.397011
0.17368
0.192002
0.121972
0.0437068
0.360229
0.497782
0.519051
0.712809
0.842229
0.884713
0.922215
0.964033
0.964345
0.983514
0.99105
0.974723
0.993319
0.993827
0.975448
0.993908
0.993918
0.97547
0.993918
0.993919
0.975471
0.993919
0.993919
0.975471
0.993919
0.993919
0.975471
0.993919
0.993919
0.975471
0.993919
0.993919
0.975471
0.993919
0.993919
0.975471
0.993919
0.993919
0.975471
0.993918
0.993918
0.97547
0.993915
0.993871
0.975353
0.993503
0.991318
0.970766
0.981903
0.952058
0.910825
0.882059
0.760359
0.650085
0.603341
0.442187
0.326938
0.273143
0.182226
0.075482
0.279365
0.376734
0.434158
0.512052
0.62879
0.72679
0.758696
0.859328
0.928302
0.93772
0.97861
0.989986
0.994269
0.998724
0.998445
0.999661
0.999805
0.998816
0.999821
0.999822
0.99882
0.999822
0.999822
0.99882
0.999822
0.999822
0.99882
0.999822
0.999822
0.99882
0.999822
0.999822
0.99882
0.999822
0.999822
0.99882
0.999822
0.999822
0.99882
0.999822
0.999821
0.998819
0.999805
0.999659
0.998763
0.998701
0.994077
0.996
0.977497
0.933229
0.957073
0.846823
0.736554
0.78014
0.614805
0.48657
0.480139
0.332182
0.23963
0.224821
0.247902
0.337661
0.3492
0.472061
0.531553
0.570878
0.548202
0.665723
0.744314
0.848559
0.945296
0.960487
0.984628
0.996688
0.997715
0.999459
0.999933
0.999938
0.999993
0.999998
0.99998
0.999998
0.999998
0.99998
0.999998
0.999998
0.99998
0.999998
0.999998
0.99998
0.999998
0.999998
0.99998
0.999998
0.999998
0.99998
0.999998
0.999998
0.99998
0.999998
0.999993
0.999976
0.999933
0.999459
0.999621
0.996688
0.984624
0.989141
0.945263
0.848426
0.886437
0.665619
0.548194
0.624935
0.531183
0.469713
0.479493
0.333853
0.244258
0.243646
0.244523
0.333597
0.334309
0.467132
0.526586
0.527294
0.54579
0.655197
0.657429
0.831578
0.936528
0.938609
0.981754
0.996032
0.996183
0.999354
0.999923
0.999925
0.999993
1
1
1
1
1
1
1
1
1
1
1
1
1
1
1
1
1
1
1
1
1
0.999993
0.999993
0.999923
0.999354
0.999377
0.996032
0.981754
0.982442
0.936528
0.831577
0.835322
0.655196
0.545789
0.546105
0.52657
0.467056
0.467418
0.33347
0.24439
0.244356
0.24441
0.333478
0.333488
0.467018
0.526493
0.5265
0.545748
0.654607
0.654696
0.830578
0.935977
0.936055
0.981584
0.996
0.996003
0.999351
0.999922
0.999923
0.999993
1
1
1
1
1
1
1
1
1
1
1
1
1
1
1
1
1
1
1
1
1
0.999993
0.999993
0.999922
0.999351
0.999351
0.996
0.981584
0.981606
0.935977
0.830578
0.830727
0.654607
0.545748
0.545752
0.526493
0.467018
0.467019
0.333477
0.244408
0.244404
0.244409
0.333478
0.333478
0.467018
0.526493
0.526493
0.545748
0.654596
0.654595
0.830559
0.935968
0.935968
0.981582
0.996
0.996
0.999351
0.999923
0.999923
0.999993
1
1
1
1
1
1
1
1
1
1
1
1
1
1
1
1
1
1
1
1
1
0.999993
0.999993
0.999923
0.999351
0.999351
0.996
0.981582
0.981582
0.935968
0.830559
0.830559
0.654596
0.545748
0.545748
0.526493
0.467018
0.467018
0.333478
0.244409
0.244409
0.244409
0.333479
0.333478
0.467023
0.526501
0.526494
0.545752
0.654701
0.654608
0.830735
0.936061
0.935978
0.981608
0.996004
0.996
0.999351
0.999923
0.999923
0.999993
1
1
1
1
1
1
1
1
1
1
1
1
1
1
1
1
1
1
1
1
1
0.999993
0.999993
0.999923
0.999351
0.999351
0.996004
0.981608
0.981585
0.936061
0.830735
0.83058
0.654701
0.545752
0.545749
0.526501
0.467023
0.467019
0.333479
0.244409
0.244409
0.244443
0.3336
0.333492
0.467479
0.52721
0.526577
0.54611
0.657479
0.655213
0.835428
0.938675
0.93655
0.98247
0.996191
0.996035
0.999378
0.999925
0.999923
0.999994
1
1
1
1
1
1
1
1
1
1
1
1
1
1
1
1
1
1
1
1
1
0.999994
0.999993
0.999925
0.999378
0.999355
0.996191
0.98247
0.981763
0.938675
0.835428
0.831609
0.657479
0.54611
0.54579
0.52721
0.467479
0.467073
0.3336
0.244443
0.244412
0.245183
0.336301
0.33421
0.480402
0.568048
0.531236
0.626364
0.742931
0.665818
0.88737
0.960659
0.94545
0.989289
0.997763
0.996708
0.999647
0.999959
0.999935
0.999997
1
1
1
1
1
1
1
1
1
1
1
1
1
1
1
1
1
1
1
1
1
0.999997
0.999994
0.999959
0.999647
0.999465
0.997763
0.989289
0.984695
0.960659
0.88737
0.848758
0.742931
0.626364
0.548197
0.568048
0.480402
0.469938
0.336301
0.245183
0.244621
0.2458
0.338416
0.338131
0.490516
0.64179
0.617984
0.799889
0.906433
0.85175
0.965066
0.989774
0.978509
0.997697
0.999611
0.998921
0.999952
0.999996
0.999984
1
1
1
1
1
1
1
1
1
1
1
1
1
1
1
1
1
1
1
1
1
1
1
0.999999
0.999996
0.999952
0.999843
0.999611
0.997697
0.994469
0.989774
0.965066
0.935794
0.906433
0.799889
0.742697
0.64179
0.490516
0.489629
0.338416
0.2458
0.245691
0.245816
0.338454
0.338451
0.490546
0.654623
0.651493
0.830103
0.935042
0.928311
0.980955
0.99577
0.994433
0.9993
0.999916
0.999859
0.999993
1
0.999999
1
1
1
1
1
1
1
1
1
1
1
1
1
1
1
1
1
1
1
1
1
1
1
1
1
0.999993
0.999987
0.999916
0.9993
0.998968
0.99577
0.980955
0.977268
0.935042
0.830103
0.822874
0.654623
0.490546
0.490543
0.338454
0.245816
0.245814
0.245816
0.338454
0.338454
0.490546
0.65554
0.655396
0.832166
0.936882
0.936609
0.981899
0.996076
0.996039
0.999364
0.999924
0.999924
0.999994
1
1
1
1
1
1
1
1
1
1
1
1
1
1
1
1
1
1
1
1
1
1
1
1
1
1
1
0.999994
0.999994
0.999924
0.999364
0.999357
0.996076
0.981899
0.981769
0.936882
0.832166
0.831847
0.65554
0.490546
0.490546
0.338454
0.245816
0.245816
0.245815
0.338453
0.338454
0.490545
0.655562
0.65556
0.832212
0.936919
0.936917
0.981914
0.99608
0.99608
0.999364
0.999924
0.999924
0.999994
1
1
1
1
1
1
1
1
1
1
1
1
1
1
1
1
1
1
1
1
1
1
1
1
1
1
1
0.999994
0.999994
0.999924
0.999364
0.999364
0.99608
0.981914
0.981913
0.936919
0.832212
0.832209
0.655562
0.490545
0.490546
0.338453
0.245815
0.245815
0.245808
0.338446
0.338451
0.490542
0.655552
0.655559
0.832194
0.936905
0.936916
0.981908
0.996078
0.996079
0.999364
0.999924
0.999924
0.999994
1
1
1
1
1
1
1
1
1
1
1
1
1
1
1
1
1
1
1
1
1
1
1
1
1
1
1
0.999994
0.999994
0.999924
0.999364
0.999364
0.996078
0.981908
0.981913
0.936905
0.832194
0.832208
0.655552
0.490542
0.490544
0.338446
0.245808
0.245812
0.245927
0.338541
0.338447
0.490577
0.655497
0.655534
0.832075
0.936805
0.936875
0.981859
0.996062
0.996074
0.999361
0.999924
0.999924
0.999994
1
1
1
1
1
1
1
1
1
1
1
1
1
1
1
1
1
1
1
1
1
1
1
1
1
1
1
0.999994
0.999994
0.999924
0.999361
0.999363
0.996062
0.981859
0.981894
0.936805
0.832075
0.832155
0.655497
0.490577
0.49054
0.338541
0.245927
0.245815
0.249737
0.342307
0.339204
0.492439
0.655846
0.655489
0.832572
0.936949
0.936723
0.981831
0.996031
0.996041
0.99935
0.999922
0.999923
0.999993
1
1
1
1
1
1
1
1
1
1
1
1
1
1
1
1
1
1
1
1
1
1
1
1
1
1
1
0.999993
0.999993
0.999922
0.99935
0.999356
0.996031
0.981831
0.981804
0.936949
0.832572
0.832023
0.655846
0.492439
0.490888
0.342307
0.249737
0.246632
0.287381
0.38335
0.353295
0.514659
0.666593
0.658001
0.849869
0.94583
0.938847
0.984726
0.996688
0.996148
0.999456
0.999933
0.999922
0.999994
1
1
1
1
1
1
1
1
1
1
1
1
1
1
1
1
1
1
1
1
1
1
1
1
1
1
1
0.999994
0.999993
0.999933
0.999456
0.999364
0.996688
0.984726
0.982422
0.94583
0.849869
0.836139
0.666593
0.514659
0.49817
0.38335
0.287381
0.26025
0.385651
0.506916
0.445668
0.701728
0.834654
0.741296
0.9275
0.974985
0.960932
0.99334
0.99866
0.997771
0.999802
0.999979
0.999959
0.999999
1
1
1
1
1
1
1
1
1
1
1
1
1
1
1
1
1
1
1
1
1
1
1
1
1
1
1
0.999999
0.999997
0.999979
0.999802
0.999648
0.99866
0.99334
0.989348
0.974985
0.9275
0.887915
0.834654
0.701728
0.600539
0.506916
0.385651
0.336359
0.384113
0.442291
0.296369
0.655039
0.517907
0.51653
0.372883
0.848567
0.8694
0.743928
0.926263
0.461195
0.394168
0.287056
0.821601
0.726354
0.564842
0.959331
0.95414
0.878165
0.981312
0.353987
0.341793
0.249206
0.664197
0.657055
0.492191
0.943612
0.938158
0.834663
0.994038
0.99563
0.982064
0.998695
0.338771
0.338225
0.245829
0.655261
0.655061
0.490311
0.936346
0.936116
0.831193
0.995938
0.995964
0.981535
0.999801
0.999844
0.999333
0.99959
0.338211
0.33826
0.245841
0.655216
0.655385
0.49034
0.936323
0.936565
0.83182
0.995981
0.996009
0.981719
0.999763
0.999676
0.999347
0.998086
0.997274
0.999051
0.993001
0.338293
0.338308
0.245886
0.655482
0.655405
0.490365
0.936716
0.936561
0.831836
0.996033
0.996016
0.981724
0.999572
0.999442
0.99935
0.996554
0.995534
0.998313
0.973428
0.956793
0.986595
0.908545
0.338314
0.338314
0.245894
0.654666
0.651546
0.490367
0.935056
0.928351
0.822959
0.99576
0.994431
0.977274
0.999354
0.999279
0.998963
0.994727
0.994243
0.997937
0.942396
0.934422
0.980667
0.799267
0.708896
0.84998
0.615528
0.33828
0.337996
0.245771
0.641838
0.618006
0.489444
0.906475
0.851782
0.74275
0.989774
0.978512
0.93581
0.999097
0.998523
0.994463
0.994545
0.994689
0.998256
0.941531
0.947308
0.982397
0.710355
0.765629
0.875358
0.561011
0.501628
0.655911
0.393598
0.336165
0.334075
0.244698
0.568034
0.531198
0.469729
0.742954
0.665838
0.548195
0.960667
0.945456
0.848789
0.99737
0.996104
0.984618
0.992405
0.987938
0.996561
0.923291
0.880658
0.957947
0.693489
0.573976
0.727564
0.414868
0.31296
0.466159
0.212582
0.333465
0.333356
0.24449
0.527164
0.526529
0.466857
0.657499
0.655227
0.545784
0.938624
0.936161
0.831578
0.994647
0.990406
0.979993
0.981984
0.968395
0.985363
0.848145
0.828126
0.925348
0.507934
0.488902
0.66147
0.266571
0.2227
0.319816
0.333343
0.333342
0.244486
0.526453
0.526446
0.466803
0.654683
0.654493
0.545742
0.934365
0.93094
0.829594
0.976632
0.943528
0.962839
0.928069
0.833699
0.888711
0.780984
0.682658
0.782099
0.441187
0.343204
0.531806
0.174577
0.236943
0.333342
0.333342
0.244486
0.526445
0.526445
0.466802
0.654305
0.654139
0.545742
0.925558
0.920817
0.827309
0.889108
0.846664
0.927748
0.659693
0.547178
0.666563
0.568523
0.476499
0.540101
0.284038
0.226804
0.321978
0.333342
0.333342
0.244485
0.526445
0.526445
0.466802
0.654027
0.653783
0.545742
0.918265
0.915231
0.825506
0.833058
0.827865
0.915284
0.539326
0.527426
0.656089
0.395932
0.311179
0.453093
0.172166
0.221023
0.33334
0.333335
0.244482
0.526444
0.52644
0.466794
0.652858
0.650438
0.545741
0.905033
0.877192
0.810856
0.815493
0.762982
0.846482
0.523064
0.494003
0.642889
0.270241
0.224558
0.321667
0.333337
0.333433
0.24461
0.526432
0.52643
0.466824
0.646613
0.643498
0.545734
0.829119
0.793138
0.780493
0.640225
0.544731
0.656143
0.41657
0.322182
0.479041
0.172588
0.225746
0.334085
0.33692
0.248144
0.526552
0.527302
0.469255
0.64186
0.638541
0.545894
0.786724
0.779107
0.767741
0.530844
0.501453
0.661835
0.276129
0.228592
0.328821
0.345635
0.364234
0.275123
0.529912
0.535537
0.489552
0.629197
0.60834
0.547658
0.756645
0.713438
0.697139
0.449929
0.39628
0.612771
0.176115
0.266294
0.388497
0.40352
0.319433
0.542313
0.545554
0.514629
0.572077
0.549993
0.549722
0.629541
0.56269
0.55
0.389576
0.415012
0.495196
0.157102
0.221581
0.110661
0.348705
0.23842
0.330476
0.30092
0.484346
0.619724
0.561152
0.738061
0.2455
0.337844
0.337084
0.490094
0.651037
0.641756
0.819057
0.916349
0.878918
0.95809
0.245453
0.337813
0.33778
0.490087
0.654439
0.653788
0.830009
0.935048
0.931317
0.98036
0.994502
0.98924
0.997963
0.245681
0.338086
0.337945
0.490246
0.654965
0.654707
0.83103
0.936023
0.935733
0.9815
0.995948
0.995777
0.999322
0.999834
0.999718
0.999583
0.245839
0.338258
0.338193
0.490339
0.655383
0.655203
0.831818
0.936565
0.936312
0.981719
0.996009
0.99598
0.999347
0.999676
0.999762
0.999051
0.997274
0.998086
0.993001
0.245886
0.338308
0.338293
0.490365
0.655405
0.655482
0.831836
0.936561
0.936716
0.981724
0.996016
0.996033
0.99935
0.999442
0.999572
0.998313
0.995534
0.996554
0.986595
0.956793
0.973428
0.908545
0.245894
0.338314
0.338314
0.490367
0.651546
0.654666
0.822959
0.928351
0.935056
0.977274
0.994431
0.99576
0.998963
0.999279
0.999354
0.997937
0.994243
0.994727
0.980667
0.934422
0.942396
0.84998
0.708896
0.799267
0.615528
0.245771
0.337996
0.33828
0.489444
0.618006
0.641838
0.74275
0.851782
0.906475
0.93581
0.978512
0.989774
0.994463
0.998523
0.999097
0.998256
0.994689
0.994545
0.982397
0.947308
0.941531
0.875358
0.765628
0.710355
0.655911
0.501628
0.561011
0.393598
0.244698
0.334075
0.336165
0.469729
0.531198
0.568034
0.548195
0.665838
0.742954
0.848789
0.945456
0.960667
0.984618
0.996104
0.99737
0.996561
0.987938
0.992405
0.957947
0.880658
0.923291
0.727564
0.573976
0.693489
0.466159
0.31296
0.414868
0.212582
0.24449
0.333356
0.333465
0.466857
0.526529
0.527164
0.545784
0.655227
0.657499
0.831578
0.93616
0.938624
0.97999
0.990402
0.994647
0.98536
0.968395
0.981984
0.925348
0.828126
0.848145
0.66147
0.488902
0.507934
0.319816
0.2227
0.266571
0.244486
0.333342
0.333343
0.466803
0.526446
0.526453
0.545742
0.654486
0.654683
0.829553
0.930794
0.934349
0.962526
0.943152
0.976583
0.888515
0.833674
0.928064
0.782097
0.682658
0.780984
0.531806
0.343204
0.441187
0.236943
0.174577
0.244486
0.333342
0.333342
0.466802
0.526445
0.526445
0.545742
0.653809
0.654249
0.825681
0.916187
0.924596
0.919079
0.837081
0.88694
0.662317
0.547124
0.659672
0.540022
0.47647
0.568521
0.321974
0.226804
0.284038
0.244485
0.333342
0.333342
0.466802
0.526445
0.526445
0.545742
0.650047
0.652698
0.808968
0.871639
0.901753
0.833927
0.739803
0.800276
0.618594
0.525486
0.538933
0.450344
0.310241
0.395718
0.220765
0.172165
0.244482
0.333335
0.33334
0.466794
0.52644
0.526444
0.545741
0.639688
0.645492
0.768841
0.77683
0.821842
0.647677
0.546094
0.624759
0.521148
0.448509
0.496204
0.308025
0.219139
0.266987
0.24461
0.333433
0.333337
0.466824
0.52643
0.526432
0.545734
0.614277
0.630894
0.696998
0.690131
0.742681
0.60741
0.52539
0.537581
0.448991
0.308166
0.386521
0.21913
0.168508
0.248144
0.33692
0.334085
0.469255
0.527302
0.526552
0.545894
0.570413
0.589146
0.570413
0.548128
0.603088
0.528838
0.459014
0.498824
0.314281
0.221955
0.267402
0.275123
0.364234
0.345635
0.489552
0.535537
0.529912
0.547658
0.564038
0.564784
0.572626
0.566419
0.548058
0.520975
0.365532
0.415205
0.254777
0.172216
0.319433
0.40352
0.388497
0.514629
0.545554
0.542313
0.549722
0.549993
0.557202
0.55
0.551398
0.570981
0.477156
0.401517
0.367012
0.494607
0.488939
0.486945
0.482929
0.767667
0.829563
0.662885
0.954453
0.995214
0.999991
0.999659
0.999411
0.995269
0.999999
0.999996
0.995269
0.995269
0.999999
1
0.999613
0.995269
0.999999
1
0.995269
0.995269
0.999998
1
0.999613
0.995265
0.999957
0.999996
0.99482
0.884771
0.761106
0.912892
0.851906
0.622673
0.59978
0.646637
0.345779
)
;
    }
}


// ************************************************************************* //
