/*--------------------------------*- C++ -*----------------------------------*\
| =========                 |                                                 |
| \\      /  F ield         | OpenFOAM: The Open Source CFD Toolbox           |
|  \\    /   O peration     | Version:  5.x                                   |
|   \\  /    A nd           | Web:      www.OpenFOAM.org                      |
|    \\/     M anipulation  |                                                 |
\*---------------------------------------------------------------------------*/
FoamFile
{
    version     2.0;
    format      ascii;
    class       volScalarField;
    location    "0";
    object      thickness;
}
// * * * * * * * * * * * * * * * * * * * * * * * * * * * * * * * * * * * * * //

dimensions      [0 0 0 0 0 0 0];

internalField   uniform 0;

boundaryField
{
    allBoundary
    {
        type            fixedValue;
        value           nonuniform 0();
    }
    inlet
    {
        type            fixedValue;
        value           uniform 0;
    }
    outlet
    {
        type            fixedValue;
        value           uniform 0;
    }
    walls
    {
        type            fixedValue;
        value           nonuniform List<scalar> 
3298
(
0
0
0
0
0
0
0
0
0
0
0
0.00022889
0.000334854
0.000441051
0.000465529
0.000468121
0.000468493
0.000468493
0.000468493
0.000468493
0.000468493
0.000468493
0.000468493
0.000468493
0.000468423
0.000467418
0.000459729
0.000401423
0.00028196
9.37416e-05
9.37415e-05
0.00028196
0.000401421
0.000459728
0.000467418
0.000468423
0.000468493
0.000468493
0.000468493
0.000468493
0.000468493
0.000468493
0.000468493
0.000468493
0.000468121
0.000465529
0.000441054
0.000334854
0.00022889
7.57588e-05
6.04553e-05
6.02764e-05
6.00622e-05
2.22199e-05
0.000257484
0.000244644
0.000244466
0.000243287
0.000222044
0.00029679
0.000412617
0.000404636
0.000328306
0.00031366
0.000434018
0.000489655
0.00048402
0.000446687
0.000445756
0.00047434
0.00049953
0.000498942
0.000494913
0.00049184
0.000477305
0.000499919
0.000499977
0.000499822
0.000496245
0.000477399
0.000499923
0.0005
0.000499995
0.000496427
0.0004774
0.000499923
0.0005
0.000499997
0.000496428
0.0004774
0.000499923
0.0005
0.000499997
0.000496428
0.0004774
0.000499923
0.0005
0.000499997
0.000496428
0.0004774
0.000499923
0.0005
0.000499997
0.000496428
0.0004774
0.000499923
0.0005
0.000499997
0.000496428
0.0004774
0.000499923
0.0005
0.000499997
0.000496428
0.0004774
0.000499923
0.0005
0.000499997
0.000496428
0.000477388
0.000499921
0.000499979
0.000499996
0.000496405
0.000476799
0.000499734
0.000498956
0.000499918
0.000495411
0.000464398
0.000494985
0.000482215
0.000497046
0.00047968
0.000365057
0.000454411
0.00038061
0.000463647
0.000371038
0.000273278
0.000321953
0.00029994
0.000325875
0.000285931
0.000197465
0.000167599
0.000167198
0.000166857
0.000111999
8.05042e-05
0.000203695
6.09705e-05
0.000168638
6.71561e-05
6.3086e-05
0.000180823
0.00017289
0.000197465
6.02767e-05
0.000167243
6.03013e-05
6.02803e-05
0.000167291
0.00016725
0.000167599
6.02461e-05
0.000167099
6.0276e-05
6.02715e-05
0.000167242
0.000167189
0.000167242
4.92641e-05
0.000148905
5.94295e-05
5.65279e-05
0.000165727
0.0001607
0.000166811
8.56934e-05
0.000111996
0.000257838
0.000271647
0.000245168
0.000322909
0.000249445
0.000286957
0.000311555
0.000273278
0.000244466
0.000326554
0.000244489
0.000327195
0.000327204
0.000326062
0.000242445
0.000287246
0.000244466
0.000316562
0.00029991
0.000323361
0.000234887
0.000294281
0.000243797
0.000312071
0.000308451
0.000298594
0.000217573
0.00027722
0.000285742
0.000278809
0.000326968
0.000406243
0.000460648
0.000342186
0.000413269
0.000442967
0.000365066
0.000413071
0.000465429
0.000414881
0.000467471
0.000467247
0.000465731
0.000289153
0.000336986
0.000385581
0.000436578
0.000380583
0.00045656
0.000318596
0.000369993
0.00037384
0.000363847
0.000424453
0.000414702
0.000377338
0.000331397
0.00040464
0.000370854
0.000392888
0.000422801
0.000487008
0.000496486
0.000460613
0.000482618
0.000491741
0.000464399
0.000489236
0.00049741
0.000490489
0.00049032
0.000497893
0.000497826
0.000497592
0.000430846
0.000475893
0.000472994
0.000448691
0.000491011
0.0004822
0.000495337
0.000446217
0.000481505
0.000466057
0.000461745
0.000488341
0.000486818
0.000481437
0.000454546
0.000478501
0.000479573
0.00043121
0.000432503
0.000499015
0.000499514
0.00049015
0.000496324
0.000492099
0.000497413
0.000476799
0.000499527
0.000499936
0.000499647
0.000499634
0.000499951
0.000499955
0.000499875
0.000493288
0.000498537
0.00049768
0.000495111
0.000499544
0.000498956
0.000499818
0.000494462
0.000498193
0.000496939
0.000496403
0.000499381
0.000499127
0.000498918
0.000487111
0.000489684
0.000495408
0.000432769
0.000432815
0.000499584
0.000499591
0.000492486
0.000492544
0.000497632
0.000477388
0.000499994
0.0005
0.000499989
0.000499993
0.000499999
0.000499923
0.000499755
0.000499969
0.000499933
0.000499993
0.000499979
0.000499998
0.000499032
0.00049918
0.00049989
0.000499967
0.000499796
0.000499976
0.000490358
0.000490521
0.000496405
0.000432821
0.000432822
0.000499592
0.000499592
0.00049255
0.000492551
0.000497635
0.0004774
0.0005
0.0005
0.000499993
0.000499993
0.000499999
0.000499923
0.000499997
0.0005
0.000499999
0.0005
0.0005
0.0005
0.000499199
0.0004992
0.000499976
0.000499806
0.000499976
0.000499807
0.000499997
0.000490548
0.000490548
0.000496428
0.000432822
0.000432822
0.000499592
0.000499592
0.000492551
0.000492551
0.000497635
0.0004774
0.0005
0.0005
0.000499993
0.000499999
0.000499993
0.000499999
0.000499923
0.0005
0.0005
0.0005
0.0005
0.0005
0.0005
0.0005
0.000499201
0.000499201
0.000499976
0.000499807
0.000499976
0.000499807
0.000499997
0.000490548
0.000490548
0.000496428
0.000432822
0.000432822
0.000499592
0.000499592
0.000492551
0.000497635
0.000492551
0.000497635
0.0004774
0.0005
0.0005
0.000499993
0.000499999
0.000499993
0.000499999
0.000499923
0.0005
0.0005
0.0005
0.0005
0.0005
0.0005
0.0005
0.000499201
0.000499201
0.000499976
0.000499807
0.000499976
0.000499807
0.000499997
0.000490548
0.000490548
0.000496428
0.000432822
0.000432822
0.000499592
0.000499592
0.000492551
0.000492551
0.000497635
0.0004774
0.0005
0.0005
0.000499993
0.000499993
0.000499999
0.000499923
0.0005
0.0005
0.0005
0.0005
0.0005
0.0005
0.000499201
0.000499201
0.000499976
0.000499976
0.000499807
0.000499997
0.000490548
0.000490548
0.000496428
0.000432822
0.000432822
0.000499592
0.000499592
0.000492551
0.000492551
0.000497635
0.0004774
0.0005
0.0005
0.000499993
0.000499993
0.000499999
0.000499923
0.0005
0.0005
0.0005
0.0005
0.0005
0.0005
0.000499201
0.000499201
0.000499976
0.000499807
0.000499976
0.000499807
0.000499997
0.000490548
0.000490548
0.000496428
0.000432822
0.000432822
0.000499592
0.000499592
0.000492551
0.000492551
0.000497635
0.0004774
0.0005
0.0005
0.000499993
0.000499999
0.000499993
0.000499999
0.000499923
0.0005
0.0005
0.0005
0.0005
0.0005
0.0005
0.0005
0.000499201
0.000499201
0.000499976
0.000499807
0.000499976
0.000499807
0.000499997
0.000490548
0.000490548
0.000496428
0.000432822
0.000432822
0.000499592
0.000499592
0.000492551
0.000497635
0.000492551
0.000497635
0.0004774
0.0005
0.0005
0.000499993
0.000499999
0.000499993
0.000499999
0.000499923
0.0005
0.0005
0.0005
0.0005
0.0005
0.0005
0.0005
0.000499201
0.000499201
0.000499976
0.000499807
0.000499976
0.000499807
0.000499997
0.000490548
0.000490548
0.000496428
0.000432822
0.000432821
0.000499592
0.000499592
0.000492551
0.00049255
0.000497635
0.000477399
0.0005
0.000499997
0.000499993
0.000499993
0.000499997
0.000499923
0.0005
0.0005
0.0005
0.000499999
0.0005
0.000499998
0.0004992
0.000499199
0.000499976
0.000499976
0.000499806
0.000499997
0.000490548
0.000490548
0.000496427
0.000432815
0.000432769
0.000499591
0.000499582
0.000492544
0.000492486
0.000497607
0.000477305
0.000499969
0.000499755
0.000499986
0.000499926
0.000499829
0.0004999
0.000499999
0.000499993
0.000499993
0.000499933
0.000499977
0.00049983
0.00049918
0.000499035
0.000499974
0.000499797
0.000499954
0.000499725
0.000499989
0.000490521
0.000490358
0.000496245
0.000432503
0.00043121
0.000499491
0.000498881
0.000492099
0.000490148
0.000496299
0.00047434
0.000498541
0.000493313
0.000499536
0.000498955
0.000497668
0.000495113
0.000498811
0.000499933
0.000499501
0.000499544
0.000499818
0.00049768
0.000498939
0.000495114
0.000498216
0.000494596
0.000499796
0.000499268
0.000498919
0.000497123
0.000499434
0.000489684
0.000487113
0.000491865
0.000422801
0.000392888
0.00049595
0.000485574
0.000482607
0.000491626
0.000460575
0.000476897
0.000434013
0.000476001
0.000431115
0.00049097
0.000482211
0.000472853
0.000448711
0.000483009
0.000497293
0.000488897
0.00049101
0.000495319
0.000472992
0.00048396
0.000448731
0.000482036
0.000447588
0.000495265
0.000489428
0.000483688
0.000468383
0.000488237
0.000478511
0.000454572
0.000446023
0.000326968
0.000278809
0.000458191
0.000403882
0.000413197
0.00034212
0.00038327
0.000296785
0.000337169
0.000289321
0.000436233
0.000385093
0.000331378
0.000401822
0.000464821
0.00041248
0.000436569
0.000385571
0.000404524
0.000331469
0.000372031
0.00032054
0.000455648
0.000403583
0.000374571
0.000411324
0.000404662
0.000331416
0.000313829
0.000271647
0.000257838
0.000321993
0.000245168
0.000286934
0.000249445
0.000247304
0.000257484
0.000287438
0.000242494
0.000316312
0.000244489
0.000243483
0.000244644
0.000326326
0.000244443
0.00031656
0.000244466
0.000244463
0.00024348
0.000295237
0.000234986
0.000322948
0.000312625
0.000243797
0.00024154
0.000244295
0.000277238
0.000217576
0.000222069
0.000203695
8.05042e-05
0.000168638
6.09705e-05
0.000180823
6.71561e-05
6.3086e-05
7.57588e-05
0.000167154
6.02767e-05
0.000167291
0.000167205
6.03013e-05
6.02803e-05
6.04553e-05
0.000167189
6.02461e-05
0.000167242
0.000167234
6.0276e-05
6.02715e-05
6.02764e-05
0.000148907
4.92642e-05
0.000165727
0.000160701
5.94295e-05
5.65279e-05
6.00622e-05
8.56937e-05
2.222e-05
3.56379e-05
0.000272872
0.000344173
0.00034702
0.000347176
0.000347187
0.000347188
0.000347188
0.000347188
0.000347188
0.000347188
0.000347188
0.000347188
0.000347188
0.000347179
0.000346733
0.000336869
0.000226458
9.22499e-05
0.000378265
0.000470951
0.000486143
0.000487665
0.000487733
0.000487736
0.000487736
0.000487736
0.000487736
0.000487736
0.000487736
0.000487736
0.000487736
0.000487729
0.000487307
0.000477833
0.000405743
0.000239231
8.18783e-05
7.9922e-05
0.000298681
0.000426875
0.000485325
0.000498354
0.000499386
0.00049941
0.00049941
0.00049941
0.00049941
0.00049941
0.00049941
0.00049941
0.00049941
0.000499408
0.000499173
0.000493179
0.00044552
0.000315913
0.000158775
6.42669e-05
0.000244129
0.000314731
0.000443746
0.000494589
0.000499811
0.000499988
0.00049999
0.00049999
0.00049999
0.00049999
0.00049999
0.00049999
0.00049999
0.000499969
0.000498856
0.000480121
0.000370786
0.000283588
0.0001674
6.1286e-05
0.000233958
0.000273057
0.000417667
0.000491221
0.000499688
0.000499997
0.0005
0.0005
0.0005
0.0005
0.0005
0.0005
0.0005
0.000499962
0.000498092
0.000469303
0.00032871
0.000263594
0.000166757
6.11051e-05
0.000233513
0.000272876
0.000415363
0.000490803
0.000499675
0.000499997
0.0005
0.0005
0.0005
0.0005
0.0005
0.0005
0.0005
0.000499961
0.000498002
0.000468027
0.000327348
0.000263249
0.000166737
6.11024e-05
0.000233509
0.000272874
0.000415279
0.000490791
0.000499675
0.000499997
0.0005
0.0005
0.0005
0.0005
0.0005
0.0005
0.0005
0.000499961
0.000498
0.000467984
0.000327298
0.000263247
0.000166739
6.11023e-05
0.000233509
0.000272874
0.00041529
0.000490792
0.000499675
0.000499997
0.0005
0.0005
0.0005
0.0005
0.0005
0.0005
0.0005
0.000499961
0.000498
0.000467989
0.000327304
0.000263247
0.000166739
6.11031e-05
0.000233536
0.000272895
0.000415805
0.000490881
0.000499677
0.000499997
0.0005
0.0005
0.0005
0.0005
0.0005
0.0005
0.0005
0.000499961
0.000498017
0.000468275
0.000327606
0.000263289
0.000166746
6.11552e-05
0.000234969
0.000274099
0.000424379
0.000492348
0.000499732
0.000499997
0.0005
0.0005
0.0005
0.0005
0.0005
0.0005
0.0005
0.000499968
0.000498354
0.000472725
0.000332909
0.000265618
0.000167105
6.14228e-05
0.000244815
0.000371349
0.000467897
0.000497235
0.000499922
0.000499999
0.0005
0.0005
0.0005
0.0005
0.0005
0.0005
0.0005
0.000499992
0.00049946
0.000489255
0.000425875
0.000308992
0.000169066
6.14536e-05
0.000245272
0.000411437
0.000488634
0.000499484
0.000499993
0.0005
0.0005
0.0005
0.0005
0.0005
0.0005
0.0005
0.0005
0.0005
0.00049993
0.000497217
0.000464156
0.000325746
0.000169225
6.14539e-05
0.000245273
0.000415924
0.000490884
0.000499679
0.000499997
0.0005
0.0005
0.0005
0.0005
0.0005
0.0005
0.0005
0.0005
0.0005
0.000499962
0.000498019
0.000468305
0.000327698
0.000169227
6.14539e-05
0.000245273
0.000416104
0.000490957
0.000499682
0.000499997
0.0005
0.0005
0.0005
0.0005
0.0005
0.0005
0.0005
0.0005
0.0005
0.000499962
0.00049804
0.000468458
0.00032778
0.000169227
6.14531e-05
0.000245272
0.000416104
0.000490956
0.000499682
0.000499997
0.0005
0.0005
0.0005
0.0005
0.0005
0.0005
0.0005
0.0005
0.0005
0.000499962
0.00049804
0.000468458
0.00032778
0.000169225
6.14537e-05
0.00024527
0.000416077
0.000490947
0.000499682
0.000499997
0.0005
0.0005
0.0005
0.0005
0.0005
0.0005
0.0005
0.0005
0.0005
0.000499962
0.000498037
0.000468437
0.000327767
0.000169223
6.1658e-05
0.000245444
0.000416011
0.000490902
0.000499678
0.000499997
0.0005
0.0005
0.0005
0.0005
0.0005
0.0005
0.0005
0.0005
0.0005
0.000499961
0.000498021
0.000468361
0.000327744
0.000169602
6.50625e-05
0.000249085
0.000418069
0.000491211
0.000499682
0.000499997
0.0005
0.0005
0.0005
0.0005
0.0005
0.0005
0.0005
0.0005
0.0005
0.000499961
0.000498074
0.000469424
0.000329
0.000176648
8.40898e-05
0.00030027
0.000443958
0.000494674
0.000499824
0.000499998
0.0005
0.0005
0.0005
0.0005
0.0005
0.0005
0.0005
0.0005
0.0005
0.000499979
0.000498885
0.000480466
0.000370648
0.000222834
3.01009e-05
9.22293e-05
0.000370924
8.33559e-05
0.000336898
0.000458665
6.48304e-05
0.000249663
0.000423081
0.000491364
6.15972e-05
0.000245288
0.000415775
0.000490811
0.000499618
6.14497e-05
0.000245156
0.000415745
0.000490807
0.000499671
0.000499653
6.14678e-05
0.000245179
0.000416007
0.000490897
0.000499676
0.000499361
0.00049514
6.14731e-05
0.000245184
0.000415081
0.000490472
0.000499647
0.000499021
0.000491407
0.000438334
6.14701e-05
0.00024517
0.000399984
0.000482539
0.000498846
0.000499046
0.000491032
0.00042958
0.000309535
6.13155e-05
0.000240101
0.000313191
0.000443697
0.000494635
0.000498886
0.000486693
0.000412869
0.000286365
7.68705e-05
6.11302e-05
0.000233632
0.000273052
0.000417727
0.00049105
0.000497005
0.000471743
0.00033286
0.000195946
2.73995e-05
6.11216e-05
0.000233404
0.000272873
0.000415226
0.000487449
0.000478706
0.000439552
0.000313744
0.000107605
6.11215e-05
0.000233401
0.000272871
0.000414197
0.000471879
0.000378631
0.000319857
0.000210734
2.97462e-05
6.11215e-05
0.000233401
0.000272871
0.000413321
0.000460299
0.000329055
0.000249539
0.000102111
6.1121e-05
0.0002334
0.000272871
0.000410727
0.000449288
0.000332107
0.000198769
2.82319e-05
6.11229e-05
0.000233393
0.000272869
0.000396923
0.000367209
0.000282251
0.000103954
6.13255e-05
0.000233617
0.000272875
0.000387769
0.000332487
0.000203969
2.87164e-05
6.41763e-05
0.000237874
0.000273224
0.000372915
0.000319195
0.000110289
7.50546e-05
0.000253326
0.000274521
0.000303439
0.00027872
3.63248e-05
1.96228e-05
5.36848e-05
0.000223815
6.11684e-05
0.000244874
0.000396333
6.13617e-05
0.000245029
0.000413992
0.000487519
6.13894e-05
0.000245083
0.000415287
0.000490668
0.000499556
6.14446e-05
0.000245152
0.000415735
0.000490805
0.000499671
0.000499653
6.14678e-05
0.000245178
0.000416007
0.000490897
0.000499676
0.000499361
0.00049514
6.14731e-05
0.000245184
0.000415081
0.000490472
0.000499647
0.000499021
0.000491407
0.000438334
6.14701e-05
0.00024517
0.000399984
0.000482539
0.000498846
0.000499046
0.000491032
0.00042958
0.000309535
6.13155e-05
0.000240101
0.000313191
0.000443697
0.000494635
0.000498886
0.000486693
0.000412869
0.000286365
7.68705e-05
6.11302e-05
0.000233632
0.000273052
0.000417727
0.00049105
0.000497005
0.000471743
0.00033286
0.000195946
2.73995e-05
6.11216e-05
0.000233404
0.000272873
0.000415224
0.00048743
0.000478693
0.000439552
0.000313744
0.000107605
6.11215e-05
0.000233401
0.000272871
0.000414042
0.00047093
0.000378132
0.000319855
0.000210734
2.97462e-05
6.11215e-05
0.000233401
0.000272871
0.000410256
0.000445193
0.000321915
0.000249252
0.000102094
6.1121e-05
0.0002334
0.000272871
0.000394947
0.000363006
0.000284027
0.000193665
2.81657e-05
6.11229e-05
0.000233393
0.000272869
0.000371595
0.000315192
0.000245695
9.99191e-05
6.13255e-05
0.000233617
0.000272875
0.000310384
0.000282246
0.000194601
2.8099e-05
6.41763e-05
0.000237874
0.000273224
0.000282392
0.000259562
0.000106096
7.50546e-05
0.000253326
0.000274521
0.000282898
0.000255247
3.4772e-05
8.09119e-05
0.000238127
0.000152273
0.000361519
0.000427689
0.000327367
0.00045264
0.000460044
0.0003465
0.000461924
0.000462341
0.000347149
0.000462426
0.000462445
0.000347184
0.000462451
0.000462453
0.000347188
0.000462454
0.000462454
0.000347188
0.000462454
0.000462454
0.000347188
0.000462454
0.000462454
0.000347188
0.000462454
0.000462454
0.000347188
0.000462454
0.000462454
0.000347188
0.000462454
0.000462454
0.000347188
0.000462454
0.000462454
0.000347188
0.000462454
0.000462453
0.000347187
0.00046244
0.000462337
0.000347115
0.0004617
0.000458651
0.00034496
0.000447118
0.000412705
0.000304733
0.000335298
0.000198506
8.68398e-05
9.60011e-05
6.0986e-05
2.18534e-05
9.00572e-05
0.000248891
0.000259526
0.000356404
0.000421115
0.000442357
0.000461107
0.000482016
0.000482172
0.000491757
0.000495525
0.000487362
0.000496659
0.000496913
0.000487724
0.000496954
0.000496959
0.000487735
0.000496959
0.000496959
0.000487736
0.000496959
0.000496959
0.000487736
0.000496959
0.000496959
0.000487736
0.000496959
0.000496959
0.000487736
0.000496959
0.000496959
0.000487736
0.000496959
0.000496959
0.000487736
0.000496959
0.000496959
0.000487736
0.000496959
0.000496959
0.000487735
0.000496957
0.000496936
0.000487676
0.000496752
0.000495659
0.000485383
0.000490952
0.000476029
0.000455413
0.00044103
0.000380179
0.000325043
0.000301671
0.000221094
0.000163469
0.000136572
4.55566e-05
1.88705e-05
6.98412e-05
0.000188367
0.000217079
0.000256026
0.000314395
0.000363395
0.000379348
0.000429664
0.000464151
0.00046886
0.000489305
0.000494993
0.000497135
0.000499362
0.000499222
0.000499831
0.000499903
0.000499408
0.00049991
0.000499911
0.00049941
0.000499911
0.000499911
0.00049941
0.000499911
0.000499911
0.00049941
0.000499911
0.000499911
0.00049941
0.000499911
0.000499911
0.00049941
0.000499911
0.000499911
0.00049941
0.000499911
0.000499911
0.00049941
0.000499911
0.00049991
0.00049941
0.000499903
0.00049983
0.000499381
0.000499351
0.000497039
0.000498
0.000488749
0.000466614
0.000478537
0.000423412
0.000368277
0.00039007
0.000307403
0.000243285
0.000240069
0.000166091
5.99076e-05
5.62053e-05
6.19754e-05
0.000168831
0.0001746
0.000236031
0.000265776
0.000285439
0.000274101
0.000332862
0.000372157
0.00042428
0.000472648
0.000480243
0.000492314
0.000498344
0.000498857
0.00049973
0.000499967
0.000499969
0.000499996
0.000499999
0.00049999
0.000499999
0.000499999
0.00049999
0.000499999
0.000499999
0.00049999
0.000499999
0.000499999
0.00049999
0.000499999
0.000499999
0.00049999
0.000499999
0.000499999
0.00049999
0.000499999
0.000499999
0.00049999
0.000499999
0.000499996
0.000499988
0.000499967
0.00049973
0.00049981
0.000498344
0.000492312
0.000494571
0.000472632
0.000424213
0.000443219
0.000332809
0.000274097
0.000312468
0.000265592
0.000234857
0.000239747
0.000166927
6.10646e-05
6.09114e-05
6.11308e-05
0.000166798
0.000167155
0.000233566
0.000263293
0.000263647
0.000272895
0.000327598
0.000328715
0.000415789
0.000468264
0.000469304
0.000490877
0.000498016
0.000498092
0.000499677
0.000499961
0.000499962
0.000499997
0.0005
0.0005
0.0005
0.0005
0.0005
0.0005
0.0005
0.0005
0.0005
0.0005
0.0005
0.0005
0.0005
0.0005
0.0005
0.0005
0.0005
0.0005
0.0005
0.0005
0.0005
0.000499997
0.000499997
0.000499961
0.000499677
0.000499688
0.000498016
0.000490877
0.000491221
0.000468264
0.000415789
0.000417661
0.000327598
0.000272894
0.000273053
0.000263285
0.000233528
0.000233709
0.000166735
6.10975e-05
6.1089e-05
6.11024e-05
0.000166739
0.000166744
0.000233509
0.000263247
0.00026325
0.000272874
0.000327304
0.000327348
0.000415289
0.000467988
0.000468027
0.000490792
0.000498
0.000498002
0.000499675
0.000499961
0.000499961
0.000499997
0.0005
0.0005
0.0005
0.0005
0.0005
0.0005
0.0005
0.0005
0.0005
0.0005
0.0005
0.0005
0.0005
0.0005
0.0005
0.0005
0.0005
0.0005
0.0005
0.0005
0.0005
0.000499997
0.000499997
0.000499961
0.000499675
0.000499675
0.000498
0.000490792
0.000490803
0.000467988
0.000415289
0.000415363
0.000327304
0.000272874
0.000272876
0.000263247
0.000233509
0.000233509
0.000166739
6.11021e-05
6.1101e-05
6.11023e-05
0.000166739
0.000166739
0.000233509
0.000263247
0.000263247
0.000272874
0.000327298
0.000327298
0.00041528
0.000467984
0.000467984
0.000490791
0.000498
0.000498
0.000499675
0.000499961
0.000499961
0.000499997
0.0005
0.0005
0.0005
0.0005
0.0005
0.0005
0.0005
0.0005
0.0005
0.0005
0.0005
0.0005
0.0005
0.0005
0.0005
0.0005
0.0005
0.0005
0.0005
0.0005
0.0005
0.000499997
0.000499997
0.000499961
0.000499675
0.000499675
0.000498
0.000490791
0.000490791
0.000467984
0.00041528
0.000415279
0.000327298
0.000272874
0.000272874
0.000263247
0.000233509
0.000233509
0.000166739
6.11024e-05
6.11024e-05
6.11023e-05
0.000166739
0.000166739
0.000233512
0.00026325
0.000263247
0.000272876
0.00032735
0.000327304
0.000415368
0.00046803
0.000467989
0.000490804
0.000498002
0.000498
0.000499675
0.000499961
0.000499961
0.000499997
0.0005
0.0005
0.0005
0.0005
0.0005
0.0005
0.0005
0.0005
0.0005
0.0005
0.0005
0.0005
0.0005
0.0005
0.0005
0.0005
0.0005
0.0005
0.0005
0.0005
0.0005
0.000499997
0.000499997
0.000499961
0.000499675
0.000499675
0.000498002
0.000490804
0.000490792
0.00046803
0.000415368
0.00041529
0.00032735
0.000272876
0.000272874
0.00026325
0.000233512
0.000233509
0.000166739
6.11023e-05
6.11023e-05
6.11108e-05
0.0001668
0.000166746
0.000233739
0.000263605
0.000263289
0.000273055
0.000328739
0.000327606
0.000417714
0.000469338
0.000468275
0.000491235
0.000498096
0.000498017
0.000499689
0.000499963
0.000499961
0.000499997
0.0005
0.0005
0.0005
0.0005
0.0005
0.0005
0.0005
0.0005
0.0005
0.0005
0.0005
0.0005
0.0005
0.0005
0.0005
0.0005
0.0005
0.0005
0.0005
0.0005
0.0005
0.000499997
0.000499997
0.000499963
0.000499689
0.000499677
0.000498096
0.000491235
0.000490881
0.000469338
0.000417714
0.000415805
0.000328739
0.000273055
0.000272895
0.000263605
0.000233739
0.000233536
0.0001668
6.11108e-05
6.11031e-05
6.12957e-05
0.00016815
0.000167105
0.000240201
0.000284024
0.000265618
0.000313182
0.000371466
0.000332909
0.000443685
0.000480329
0.000472725
0.000494645
0.000498881
0.000498354
0.000499823
0.000499979
0.000499968
0.000499998
0.0005
0.0005
0.0005
0.0005
0.0005
0.0005
0.0005
0.0005
0.0005
0.0005
0.0005
0.0005
0.0005
0.0005
0.0005
0.0005
0.0005
0.0005
0.0005
0.0005
0.0005
0.000499998
0.000499997
0.000499979
0.000499823
0.000499732
0.000498881
0.000494645
0.000492348
0.000480329
0.000443685
0.000424379
0.000371466
0.000313182
0.000274099
0.000284024
0.000240201
0.000234969
0.00016815
6.12957e-05
6.11552e-05
6.14501e-05
0.000169208
0.000169066
0.000245258
0.000320895
0.000308992
0.000399944
0.000453217
0.000425875
0.000482533
0.000494887
0.000489255
0.000498849
0.000499805
0.00049946
0.000499976
0.000499998
0.000499992
0.0005
0.0005
0.0005
0.0005
0.0005
0.0005
0.0005
0.0005
0.0005
0.0005
0.0005
0.0005
0.0005
0.0005
0.0005
0.0005
0.0005
0.0005
0.0005
0.0005
0.0005
0.0005
0.0005
0.000499999
0.000499998
0.000499976
0.000499922
0.000499805
0.000498849
0.000497235
0.000494887
0.000482533
0.000467897
0.000453217
0.000399944
0.000371349
0.000320895
0.000245258
0.000244815
0.000169208
6.14501e-05
6.14228e-05
6.14539e-05
0.000169227
0.000169225
0.000245273
0.000327312
0.000325746
0.000415051
0.000467521
0.000464156
0.000490477
0.000497885
0.000497217
0.00049965
0.000499958
0.00049993
0.000499996
0.0005
0.0005
0.0005
0.0005
0.0005
0.0005
0.0005
0.0005
0.0005
0.0005
0.0005
0.0005
0.0005
0.0005
0.0005
0.0005
0.0005
0.0005
0.0005
0.0005
0.0005
0.0005
0.0005
0.0005
0.0005
0.0005
0.0005
0.000499996
0.000499993
0.000499958
0.00049965
0.000499484
0.000497885
0.000490477
0.000488634
0.000467521
0.000415051
0.000411437
0.000327312
0.000245273
0.000245272
0.000169227
6.14539e-05
6.14536e-05
6.14539e-05
0.000169227
0.000169227
0.000245273
0.00032777
0.000327698
0.000416083
0.000468441
0.000468305
0.000490949
0.000498038
0.000498019
0.000499682
0.000499962
0.000499962
0.000499997
0.0005
0.0005
0.0005
0.0005
0.0005
0.0005
0.0005
0.0005
0.0005
0.0005
0.0005
0.0005
0.0005
0.0005
0.0005
0.0005
0.0005
0.0005
0.0005
0.0005
0.0005
0.0005
0.0005
0.0005
0.0005
0.0005
0.0005
0.000499997
0.000499997
0.000499962
0.000499682
0.000499679
0.000498038
0.000490949
0.000490884
0.000468441
0.000416083
0.000415924
0.00032777
0.000245273
0.000245273
0.000169227
6.14539e-05
6.14539e-05
6.14537e-05
0.000169226
0.000169227
0.000245273
0.000327781
0.00032778
0.000416106
0.00046846
0.000468458
0.000490957
0.00049804
0.00049804
0.000499682
0.000499962
0.000499962
0.000499997
0.0005
0.0005
0.0005
0.0005
0.0005
0.0005
0.0005
0.0005
0.0005
0.0005
0.0005
0.0005
0.0005
0.0005
0.0005
0.0005
0.0005
0.0005
0.0005
0.0005
0.0005
0.0005
0.0005
0.0005
0.0005
0.0005
0.0005
0.000499997
0.000499997
0.000499962
0.000499682
0.000499682
0.00049804
0.000490957
0.000490957
0.00046846
0.000416106
0.000416104
0.000327781
0.000245273
0.000245273
0.000169226
6.14537e-05
6.14539e-05
6.14521e-05
0.000169223
0.000169225
0.000245271
0.000327776
0.00032778
0.000416097
0.000468453
0.000468458
0.000490954
0.000498039
0.00049804
0.000499682
0.000499962
0.000499962
0.000499997
0.0005
0.0005
0.0005
0.0005
0.0005
0.0005
0.0005
0.0005
0.0005
0.0005
0.0005
0.0005
0.0005
0.0005
0.0005
0.0005
0.0005
0.0005
0.0005
0.0005
0.0005
0.0005
0.0005
0.0005
0.0005
0.0005
0.0005
0.000499997
0.000499997
0.000499962
0.000499682
0.000499682
0.000498039
0.000490954
0.000490956
0.000468453
0.000416097
0.000416104
0.000327776
0.000245271
0.000245272
0.000169223
6.14521e-05
6.14531e-05
6.14818e-05
0.000169271
0.000169223
0.000245289
0.000327748
0.000327767
0.000416037
0.000468403
0.000468437
0.00049093
0.000498031
0.000498037
0.00049968
0.000499962
0.000499962
0.000499997
0.0005
0.0005
0.0005
0.0005
0.0005
0.0005
0.0005
0.0005
0.0005
0.0005
0.0005
0.0005
0.0005
0.0005
0.0005
0.0005
0.0005
0.0005
0.0005
0.0005
0.0005
0.0005
0.0005
0.0005
0.0005
0.0005
0.0005
0.000499997
0.000499997
0.000499962
0.00049968
0.000499682
0.000498031
0.00049093
0.000490947
0.000468403
0.000416037
0.000416077
0.000327748
0.000245289
0.00024527
0.000169271
6.14818e-05
6.14537e-05
6.24343e-05
0.000171154
0.000169602
0.000246219
0.000327923
0.000327744
0.000416286
0.000468474
0.000468361
0.000490915
0.000498015
0.000498021
0.000499675
0.000499961
0.000499961
0.000499997
0.0005
0.0005
0.0005
0.0005
0.0005
0.0005
0.0005
0.0005
0.0005
0.0005
0.0005
0.0005
0.0005
0.0005
0.0005
0.0005
0.0005
0.0005
0.0005
0.0005
0.0005
0.0005
0.0005
0.0005
0.0005
0.0005
0.0005
0.000499997
0.000499997
0.000499961
0.000499675
0.000499678
0.000498015
0.000490915
0.000490902
0.000468474
0.000416286
0.000416011
0.000327923
0.000246219
0.000245444
0.000171154
6.24343e-05
6.1658e-05
7.18453e-05
0.000191675
0.000176648
0.00025733
0.000333297
0.000329
0.000424935
0.000472915
0.000469424
0.000492363
0.000498344
0.000498074
0.000499728
0.000499967
0.000499961
0.000499997
0.0005
0.0005
0.0005
0.0005
0.0005
0.0005
0.0005
0.0005
0.0005
0.0005
0.0005
0.0005
0.0005
0.0005
0.0005
0.0005
0.0005
0.0005
0.0005
0.0005
0.0005
0.0005
0.0005
0.0005
0.0005
0.0005
0.0005
0.000499997
0.000499997
0.000499967
0.000499728
0.000499682
0.000498344
0.000492363
0.000491211
0.000472915
0.000424935
0.000418069
0.000333297
0.00025733
0.000249085
0.000191675
7.18453e-05
6.50625e-05
9.64128e-05
0.000253458
0.000222834
0.000350864
0.000417327
0.000370648
0.00046375
0.000487493
0.000480466
0.00049667
0.00049933
0.000498885
0.000499901
0.00049999
0.000499979
0.000499999
0.0005
0.0005
0.0005
0.0005
0.0005
0.0005
0.0005
0.0005
0.0005
0.0005
0.0005
0.0005
0.0005
0.0005
0.0005
0.0005
0.0005
0.0005
0.0005
0.0005
0.0005
0.0005
0.0005
0.0005
0.0005
0.0005
0.0005
0.000499999
0.000499998
0.00049999
0.000499901
0.000499824
0.00049933
0.00049667
0.000494674
0.000487493
0.00046375
0.000443958
0.000417327
0.000350864
0.00030027
0.000253458
9.64128e-05
8.40898e-05
0.000128038
0.000221145
7.40924e-05
0.00032752
0.000258953
0.000258265
9.32207e-05
0.000424283
0.0004347
0.000371964
0.000463131
0.000230597
0.000197084
7.17639e-05
0.0004108
0.000363177
0.000282421
0.000479666
0.00047707
0.000439083
0.000490656
0.000176994
0.000170897
6.23014e-05
0.000332099
0.000328527
0.000246095
0.000471806
0.000469079
0.000417332
0.000497019
0.000497815
0.000491032
0.000499347
0.000169385
0.000169113
6.14573e-05
0.00032763
0.00032753
0.000245155
0.000468173
0.000468058
0.000415596
0.000497969
0.000497982
0.000490768
0.0004999
0.000499922
0.000499667
0.000499795
0.000169106
0.00016913
6.14602e-05
0.000327608
0.000327692
0.00024517
0.000468161
0.000468283
0.00041591
0.00049799
0.000498004
0.00049086
0.000499881
0.000499838
0.000499674
0.000499043
0.000498637
0.000499525
0.0004965
0.000169146
0.000169154
6.14715e-05
0.000327741
0.000327703
0.000245183
0.000468358
0.00046828
0.000415918
0.000498017
0.000498008
0.000490862
0.000499786
0.000499721
0.000499675
0.000498277
0.000497767
0.000499156
0.000486714
0.000478397
0.000493298
0.000454272
0.000169157
0.000169157
6.14734e-05
0.000327333
0.000325773
0.000245183
0.000467528
0.000464175
0.000411479
0.00049788
0.000497215
0.000488637
0.000499677
0.00049964
0.000499482
0.000497363
0.000497121
0.000498968
0.000471198
0.000467211
0.000490334
0.000399633
0.000354448
0.00042499
0.000307764
0.00016914
0.000168998
6.14429e-05
0.000320919
0.000309003
0.000244722
0.000453238
0.000425891
0.000371375
0.000494887
0.000489256
0.000467905