/*--------------------------------*- C++ -*----------------------------------*\
| =========                 |                                                 |
| \\      /  F ield         | foam-extend: Open Source CFD                    |
|  \\    /   O peration     | Version:     4.0                                |
|   \\  /    A nd           | Web:         http://www.foam-extend.org         |
|    \\/     M anipulation  |                                                 |
\*---------------------------------------------------------------------------*/
FoamFile
{
    version     2.0;
    format      ascii;
    class       volScalarField;
    location    "3400";
    object      divFlux;
}
// * * * * * * * * * * * * * * * * * * * * * * * * * * * * * * * * * * * * * //

dimensions      [1 -3 -1 0 0 0 0];

internalField   nonuniform List<scalar> 
34480
(
0.060732
0.0193568
0.0197976
0.0182827
0.0166062
0.0150073
0.0135141
0.0121614
0.010994
0.01001
0.0154576
0.00781892
0.00787924
0.00762499
0.00738576
0.00709426
0.00669343
0.00620557
0.00569275
0.00520686
0.00352816
0.00232578
0.00237584
0.00241614
0.00249067
0.0025522
0.00253992
0.00243628
0.00226924
0.0020751
0.000943975
0.000709089
0.000729739
0.00075593
0.000797174
0.000839623
0.000858312
0.000838962
0.00078589
0.000711701
0.000238179
0.000197194
0.00020687
0.000218603
0.000234612
0.000251402
0.000260723
0.000256457
0.000238186
0.000209903
3.68879e-05
3.636e-05
4.2065e-05
4.78745e-05
5.40045e-05
5.95427e-05
6.21949e-05
6.02156e-05
5.32567e-05
4.35103e-05
1.82399e-05
1.14742e-05
7.52572e-06
4.13492e-06
1.62024e-06
2.0035e-07
1.88476e-07
1.65124e-06
4.45327e-06
7.81256e-06
3.24389e-05
2.48816e-05
2.1555e-05
1.89981e-05
1.76123e-05
1.74082e-05
1.80914e-05
1.92493e-05
2.04749e-05
2.1718e-05
4.21378e-05
3.33482e-05
2.93051e-05
2.60768e-05
2.39877e-05
2.30197e-05
2.29074e-05
2.33523e-05
2.38747e-05
2.45104e-05
4.39035e-05
3.55014e-05
3.14508e-05
2.80556e-05
2.54861e-05
2.37821e-05
2.29577e-05
2.29404e-05
2.33671e-05
2.41965e-05
0.07858
0.0224133
0.0228839
0.0214084
0.0197534
0.018288
0.017047
0.0160804
0.0154818
0.0163333
0.0217732
0.0100272
0.0101197
0.00981824
0.00951404
0.00926997
0.00905301
0.00883551
0.00864671
0.00924144
0.00534451
0.00328527
0.00336175
0.00342009
0.00352628
0.00363523
0.00371769
0.00374712
0.00371629
0.00397299
0.0015625
0.00111254
0.00114296
0.00117896
0.00124164
0.00130937
0.0013645
0.00139173
0.00137887
0.00145451
0.000423318
0.000337081
0.00035145
0.000368525
0.000392504
0.000419207
0.000439803
0.000447729
0.000436083
0.000445383
6.21462e-05
6.20889e-05
7.18806e-05
8.11965e-05
8.99859e-05
9.76412e-05
0.000101475
9.93593e-05
8.94177e-05
8.0587e-05
4.98074e-05
3.16417e-05
2.35837e-05
1.73071e-05
1.39319e-05
1.35921e-05
1.61187e-05
2.1695e-05
2.9262e-05
4.02418e-05
8.6784e-05
6.49643e-05
5.705e-05
5.14382e-05
4.94102e-05
5.11164e-05
5.54057e-05
6.17194e-05
6.73688e-05
7.70078e-05
0.000123778
9.58641e-05
8.46952e-05
7.60467e-05
7.08444e-05
6.95304e-05
7.14206e-05
7.60762e-05
8.01118e-05
8.86741e-05
0.000138002
0.000109156
9.73636e-05
8.76131e-05
8.06037e-05
7.70487e-05
7.67328e-05
7.94355e-05
8.29038e-05
9.19168e-05
0.079151
0.0193108
0.0200896
0.019043
0.0178867
0.0169193
0.0161956
0.0157811
0.0158536
0.0230261
0.0211899
0.00827337
0.00844118
0.00813293
0.0078627
0.00773059
0.00771961
0.0078161
0.00809806
0.00685913
0.00490597
0.00258555
0.00263846
0.00263867
0.00267166
0.00275495
0.00288778
0.00304983
0.00325455
0.000384791
0.00136617
0.000843549
0.000859714
0.000869227
0.000895013
0.000936494
0.000998209
0.00107215
0.00115632
0.00134167
0.000358624
0.000250473
0.000258058
0.000264154
0.000275115
0.00029029
0.000311085
0.000335185
0.000359255
0.000408962
5.88277e-05
5.02279e-05
5.60309e-05
6.10298e-05
6.59611e-05
7.08547e-05
7.57032e-05
7.95727e-05
8.02092e-05
8.06006e-05
2.68734e-05
1.38939e-05
8.8129e-06
4.40891e-06
1.51284e-06
2.18682e-07
7.95404e-07
3.93333e-06
1.08652e-05
2.5293e-05
5.02955e-05
3.36782e-05
2.88796e-05
2.46957e-05
2.22782e-05
2.19341e-05
2.3978e-05
2.91051e-05
3.79724e-05
5.59518e-05
6.48079e-05
4.52171e-05
3.99772e-05
3.53203e-05
3.22184e-05
3.10671e-05
3.23139e-05
3.68467e-05
4.56241e-05
6.53701e-05
6.18279e-05
4.33876e-05
3.89637e-05
3.50392e-05
3.24372e-05
3.13985e-05
3.20915e-05
3.54494e-05
4.364e-05
6.65268e-05
0.0800295
0.01752
0.0184129
0.0176804
0.0168193
0.0161117
0.0156167
0.0141025
0.00531654
0.0118934
0.021818
0.00781973
0.00800279
0.00769176
0.00739842
0.00722043
0.00717352
0.00726661
0.00645952
0.00553523
0.00508843
0.00250233
0.00254936
0.00252006
0.00251297
0.00255296
0.00264768
0.00279524
0.00299673
0.00165997
0.00143729
0.000838764
0.000853087
0.000853974
0.000864495
0.000889995
0.000936181
0.00100244
0.00108693
0.000213212
0.000383842
0.000255923
0.000263142
0.000267066
0.000274237
0.000284554
0.000300727
0.000322546
0.000348111
0.000443724
6.59609e-05
5.35875e-05
5.93837e-05
6.40211e-05
6.83171e-05
7.23179e-05
7.63954e-05
8.01854e-05
8.22415e-05
0.000198219
2.61853e-05
1.29033e-05
7.76353e-06
3.30041e-06
2.57053e-07
1.29824e-06
1.05933e-06
1.59718e-06
7.66377e-06
1.91372e-05
5.13768e-05
3.38232e-05
2.90261e-05
2.47623e-05
2.21037e-05
2.12763e-05
2.27928e-05
2.74519e-05
3.59956e-05
5.11141e-05
6.51626e-05
4.51185e-05
4.01515e-05
3.5688e-05
3.26431e-05
3.13044e-05
3.22915e-05
3.66099e-05
4.54586e-05
6.29143e-05
6.15022e-05
4.29825e-05
3.88395e-05
3.51787e-05
3.27947e-05
3.18394e-05
3.26808e-05
3.62756e-05
4.47004e-05
6.5434e-05
0.079159
0.0155668
0.0165341
0.0160443
0.0153898
0.0148373
0.0125438
0.00890462
0.00427613
0.00406561
0.0219746
0.00722842
0.00744585
0.00717454
0.00689016
0.00667935
0.0065618
0.00655174
0.0040827
0.00243145
0.0052174
0.00238604
0.00243234
0.0023848
0.00234908
0.00234784
0.00238812
0.00247443
0.00249619
0.000520114
0.00149828
0.000822607
0.000836693
0.0008306
0.00082975
0.000839911
0.000865414
0.000908233
0.000966555
0.000466652
0.0004065
0.000257684
0.000264912
0.000267473
0.000271105
0.000276961
0.000286958
0.000301798
0.000320549
0.000564238
7.22603e-05
5.59859e-05
6.18489e-05
6.61782e-05
6.98815e-05
7.29825e-05
7.59158e-05
7.8655e-05
8.0496e-05
0.000424471
2.57416e-05
1.18965e-05
6.77711e-06
2.35263e-06
7.42417e-07
2.47344e-06
2.60186e-06
7.07399e-07
3.82481e-06
0.000229582
5.23898e-05
3.35519e-05
2.88907e-05
2.47089e-05
2.19535e-05
2.07624e-05
2.16002e-05
2.51235e-05
3.19649e-05
0.000108608
6.52548e-05
4.43206e-05
3.9699e-05
3.55305e-05
3.26559e-05
3.12522e-05
3.18766e-05
3.54008e-05
4.29052e-05
1.34097e-05
6.10577e-05
4.19166e-05
3.80766e-05
3.4691e-05
3.24912e-05
3.16055e-05
3.24573e-05
3.58797e-05
4.34515e-05
6.0997e-05
0.0766105
0.0135311
0.0145104
0.0141969
0.0135476
0.011946
0.0100704
0.00817671
0.00595144
0.00230308
0.0215514
0.00650996
0.00675711
0.00654169
0.00629425
0.00609048
0.00594437
0.00545222
0.00366954
0.000235059
0.00527693
0.00223656
0.00228471
0.0022283
0.00217547
0.00214564
0.00214336
0.00217195
0.00211537
0.000459437
0.00154413
0.000794948
0.000809302
0.00079812
0.000788902
0.000787034
0.000795301
0.000815256
0.000874946
0.000688589
0.000425572
0.000255689
0.000263189
0.000264272
0.000265233
0.000267426
0.000272133
0.00028
0.000290145
0.000587834
7.79696e-05
5.75636e-05
6.34671e-05
6.75188e-05
7.06098e-05
7.29385e-05
7.48507e-05
7.64461e-05
7.73634e-05
0.000445609
2.51007e-05
1.07398e-05
5.70462e-06
1.38163e-06
1.70851e-06
3.54831e-06
3.98965e-06
2.81884e-06
2.42107e-07
0.000289357
5.299e-05
3.28251e-05
2.83667e-05
2.4334e-05
2.15445e-05
2.00921e-05
2.0332e-05
2.2695e-05
2.7548e-05
0.000209003
6.49397e-05
4.30062e-05
3.8734e-05
3.48612e-05
3.21581e-05
3.07503e-05
3.10798e-05
3.37642e-05
3.95499e-05
0.000129022
6.03899e-05
4.04248e-05
3.68841e-05
3.37547e-05
3.17015e-05
3.08517e-05
3.16134e-05
3.46296e-05
4.09554e-05
9.51323e-05
0.0722081
0.0110922
0.0119482
0.0115108
0.0106275
0.00976942
0.00870164
0.00776772
0.00659218
0.00495753
0.0205858
0.00571089
0.00597318
0.00581197
0.00560926
0.00543374
0.00527774
0.00477993
0.00367456
0.00182121
0.00524284
0.00205563
0.00210818
0.0020525
0.00199453
0.00195096
0.00192469
0.00191732
0.00187134
0.000911288
0.00156736
0.000754872
0.000770355
0.000756874
0.000743049
0.000733682
0.000730471
0.000734228
0.000864129
0.00073679
0.00043902
0.000249421
0.000257257
0.000257397
0.000256632
0.000256298
0.00025724
0.000259868
0.00026312
0.000534839
8.28976e-05
5.82135e-05
6.41128e-05
6.78704e-05
7.04856e-05
7.22362e-05
7.33866e-05
7.40663e-05
7.40196e-05
0.000393515
2.39819e-05
9.35182e-06
4.47627e-06
3.11747e-07
2.72156e-06
4.60935e-06
5.28266e-06
4.67145e-06
2.70369e-06
0.000260319
5.28664e-05
3.15429e-05
2.73371e-05
2.34995e-05
2.07399e-05
1.91295e-05
1.89207e-05
2.03456e-05
2.35352e-05
0.000202509
6.39948e-05
4.1145e-05
3.72186e-05
3.36279e-05
3.10843e-05
2.97016e-05
2.98105e-05
3.17991e-05
3.6075e-05
0.000143925
5.9305e-05
3.85039e-05
3.52566e-05
3.23604e-05
3.04259e-05
2.95847e-05
3.01846e-05
3.26858e-05
3.77357e-05
0.000118469
0.0662207
0.00843739
0.00935275
0.00925566
0.00874701
0.00828721
0.00764543
0.00719739
0.00648785
0.00578833
0.0192083
0.00488979
0.00515165
0.00503498
0.00487185
0.00472608
0.00457037
0.00423386
0.00359812
0.00261439
0.00508532
0.00184544
0.00190248
0.0018543
0.00180029
0.00175548
0.00172199
0.00173716
0.00167178
0.00109962
0.00155785
0.000701287
0.000718393
0.00070527
0.00069051
0.000678367
0.000669866
0.000665368
0.000795392
0.000697673
0.000444303
0.00023831
0.000246505
0.000246308
0.000244819
0.000243255
0.000242157
0.000241747
0.000282514
0.000452839
8.66446e-05
5.77571e-05
6.35588e-05
6.70498e-05
6.93574e-05
7.07613e-05
7.1461e-05
7.1572e-05
7.52575e-05
0.00032172
2.22412e-05
7.72699e-06
3.0959e-06
8.50317e-07
3.76652e-06
5.64553e-06
6.47101e-06
6.25037e-06
5.00035e-06
0.000207403
5.17958e-05
2.96531e-05
2.57443e-05
2.21527e-05
1.94836e-05
1.78221e-05
1.73183e-05
1.80732e-05
2.00749e-05
0.000165513
6.22348e-05
3.87068e-05
3.51221e-05
3.18037e-05
2.94152e-05
2.80689e-05
2.80061e-05
2.94482e-05
3.25831e-05
0.000114406
5.76331e-05
3.61227e-05
3.31654e-05
3.04907e-05
2.86622e-05
2.78119e-05
2.82131e-05
3.01732e-05
3.40755e-05
9.4096e-05
0.0605078
0.00673112
0.00756782
0.00762047
0.00730306
0.00704579
0.00662202
0.00640961
0.00591549
0.00564475
0.0175703
0.00409646
0.00434579
0.00426402
0.00413353
0.00402582
0.00388722
0.00366189
0.00329505
0.00275853
0.00480277
0.00161418
0.00167306
0.00163415
0.00158762
0.00154749
0.00151567
0.00154327
0.00147519
0.00114009
0.00150948
0.000634905
0.00065311
0.000641653
0.000628024
0.000616095
0.000606563
0.000599607
0.000696511
0.00062813
0.000439447
0.000222207
0.000230552
0.000230349
0.000228774
0.000226931
0.000225166
0.000223598
0.000271928
0.00036958
8.87731e-05
5.60471e-05
6.16114e-05
6.48222e-05
6.69103e-05
6.81439e-05
6.86682e-05
6.85691e-05
0.00010494
0.000252462
1.98516e-05
5.93015e-06
1.62873e-06
2.03004e-06
4.76296e-06
6.57654e-06
7.48319e-06
7.52091e-06
6.72718e-06
0.0001551
4.96586e-05
2.71785e-05
2.36073e-05
2.02934e-05
1.77854e-05
1.61608e-05
1.5496e-05
1.58185e-05
1.39553e-05
0.000125927
5.95438e-05
3.57029e-05
3.246e-05
2.94199e-05
2.71852e-05
2.58856e-05
2.5676e-05
2.66805e-05
2.89704e-05
7.60102e-05
5.52494e-05
3.32783e-05
3.0613e-05
2.81578e-05
2.64339e-05
2.55748e-05
2.5773e-05
2.7224e-05
3.01526e-05
6.28074e-05
0.0548071
0.00547008
0.0061762
0.00628666
0.00606995
0.00591714
0.00560994
0.00551469
0.00513409
0.0050614
0.015798
0.00336349
0.00359189
0.00353711
0.00344949
0.00336058
0.00324143
0.00308819
0.00286939
0.00255874
0.00442281
0.001376
0.00143315
0.00140247
0.00136328
0.00132866
0.00130057
0.0013244
0.00126754
0.00107151
0.00142437
0.000559321
0.00057749
0.000567828
0.000555798
0.000545
0.000536014
0.000528957
0.000588478
0.000545714
0.000423961
0.000201761
0.000209865
0.000209671
0.000208171
0.000206383
0.000204555
0.000202757
0.000236844
0.000294279
8.89587e-05
5.3056e-05
5.82175e-05
6.10792e-05
6.29314e-05
6.4033e-05
6.4493e-05
6.43766e-05
0.000104324
0.000191173
1.69007e-05
4.07873e-06
1.86028e-07
3.11659e-06
5.60204e-06
7.28831e-06
8.20655e-06
8.39904e-06
7.89304e-06
0.000108205
4.64503e-05
2.4217e-05
2.1015e-05
1.80126e-05
1.57176e-05
1.41897e-05
1.34613e-05
1.35228e-05
1.54045e-06
8.9999e-05
5.5883e-05
3.21984e-05
2.93069e-05
2.65431e-05
2.4486e-05
2.32449e-05
2.29111e-05
2.35549e-05
2.51916e-05
4.29904e-05
5.20834e-05
3.00125e-05
2.76397e-05
2.54076e-05
2.38048e-05
2.29516e-05
2.29687e-05
2.39769e-05
2.564e-05
3.62311e-05
0.0492084
0.0044446
0.00501211
0.00513928
0.00498115
0.00488532
0.00464533
0.00461125
0.00429577
0.00431094
0.0139788
0.00275577
0.00291956
0.00289887
0.00282869
0.00274281
0.00264797
0.00254249
0.00240768
0.00221452
0.00397854
0.00114439
0.00119682
0.00117289
0.00114016
0.00111054
0.00111382
0.001104
0.00105811
0.000937404
0.00130958
0.00047946
0.000496489
0.000488357
0.000477792
0.000468137
0.000459929
0.000453265
0.000484647
0.00045797
0.000398632
0.000178191
0.000185666
0.000185386
0.000183906
0.000182167
0.000180365
0.000178554
0.000197421
0.000230702
8.70241e-05
4.88885e-05
5.34997e-05
5.59344e-05
5.74906e-05
5.84109e-05
5.8787e-05
5.86681e-05
9.22039e-05
0.000141572
1.35722e-05
2.31477e-06
1.10668e-06
3.9978e-06
6.18041e-06
7.68485e-06
8.54637e-06
8.80994e-06
8.48048e-06
7.00602e-05
4.22716e-05
2.09219e-05
1.81158e-05
1.54541e-05
1.34078e-05
1.20152e-05
1.12838e-05
1.11906e-05
7.06692e-06
6.09512e-05
5.12881e-05
2.8308e-05
2.57737e-05
2.33061e-05
2.14482e-05
2.02817e-05
1.98593e-05
2.02121e-05
2.13299e-05
1.94127e-05
4.81252e-05
2.64068e-05
2.43325e-05
2.23351e-05
2.08772e-05
2.005e-05
1.99253e-05
2.0574e-05
1.87932e-05
1.72882e-05
0.0435295
0.00353708
0.00397355
0.00410139
0.00398674
0.00393149
0.00374367
0.00375642
0.00349308
0.00355978
0.0121578
0.00220904
0.0023378
0.00231572
0.00225546
0.00218534
0.00211434
0.00204208
0.00195723
0.00182809
0.00349554
0.000928566
0.000974095
0.000955529
0.000930433
0.000928383
0.000918534
0.00089637
0.000859148
0.000778959
0.00117268
0.000399722
0.000414776
0.000407922
0.000398703
0.000390141
0.000382742
0.000376598
0.000389199
0.00037181
0.000364808
0.000152853
0.000159408
0.000158986
0.000157482
0.000155756
0.000153975
0.000152181
0.000160829
0.0001786
8.28935e-05
4.37346e-05
4.76936e-05
4.96615e-05
5.088e-05
5.15748e-05
5.18225e-05
5.16632e-05
7.78403e-05
0.000103987
1.01161e-05
7.78437e-07
2.13429e-06
4.5782e-06
6.42334e-06
7.70602e-06
8.46259e-06
8.73236e-06
8.50806e-06
4.21887e-05
3.73156e-05
1.74786e-05
1.50841e-05
1.27868e-05
1.10131e-05
9.78286e-06
9.09118e-06
8.90917e-06
8.88708e-06
4.01222e-05
4.587e-05
2.41822e-05
2.20132e-05
1.98594e-05
1.82211e-05
1.71555e-05
1.66852e-05
1.68207e-05
1.75358e-05
4.21713e-06
4.3427e-05
2.25855e-05
2.08114e-05
1.90664e-05
1.77733e-05
1.69978e-05
1.67784e-05
1.7155e-05
1.47919e-05
5.40641e-06
0.038493
0.00281833
0.00313005
0.00322856
0.00311882
0.00305911
0.0028763
0.00288921
0.00262602
0.00268692
0.0103564
0.00167822
0.0017905
0.00177944
0.00173938
0.00169087
0.00164373
0.00159856
0.00154857
0.00146171
0.0030218
0.000769883
0.000807143
0.000793597
0.000774487
0.000754818
0.000733615
0.000708762
0.000678111
0.000620327
0.00102006
0.000323351
0.000335869
0.000330117
0.000322215
0.000314781
0.000308278
0.000302788
0.000303357
0.000291748
0.000323969
0.000126974
0.000132433
0.000131872
0.000130369
0.000128684
0.000126963
0.000125237
0.000128602
0.000136209
7.65677e-05
3.7833e-05
4.10902e-05
4.2595e-05
4.34774e-05
4.39409e-05
4.40482e-05
4.62784e-05
6.40931e-05
7.60516e-05
6.81406e-06
4.19471e-07
2.81005e-06
4.7979e-06
6.29423e-06
7.33629e-06
7.9591e-06
8.1975e-06
8.0329e-06
2.32333e-05
3.18384e-05
1.40735e-05
1.20954e-05
1.0175e-05
8.68699e-06
7.64037e-06
7.01952e-06
2.18972e-06
9.62589e-06
2.64638e-05
3.98126e-05
1.99921e-05
1.81893e-05
1.63638e-05
1.49621e-05
1.40217e-05
1.35479e-05
1.35384e-05
1.39572e-05
4.62214e-06
3.8105e-05
1.8694e-05
1.72179e-05
1.57377e-05
1.46271e-05
1.39303e-05
1.3664e-05
1.38475e-05
1.18525e-05
1.0191e-06
0.0317751
0.00215057
0.0024203
0.0025843
0.00258101
0.00261362
0.00252519
0.00261803
0.00241496
0.00252354
0.00857302
0.00124195
0.00134456
0.00133369
0.00129453
0.00125141
0.00121193
0.00117786
0.00114463
0.0010774
0.00248381
0.000609231
0.000645793
0.000634313
0.000613095
0.000590275
0.000567191
0.000543561
0.000518096
0.000473931
0.000857168
0.000252634
0.000262286
0.000257479
0.000250887
0.00024464
0.00023913
0.000234425
0.000228887
0.000220041
0.000277664
0.000101612
0.000105901
0.000105245
0.000103808
0.000102234
0.00010064
9.90565e-05
0.000100794
0.000101818
6.81506e-05
3.14555e-05
3.40107e-05
3.50922e-05
3.56763e-05
3.5936e-05
3.59252e-05
4.51212e-05
5.16681e-05
5.52068e-05
3.93424e-06
1.21132e-06
3.093e-06
4.6412e-06
5.79949e-06
6.60371e-06
7.08531e-06
7.27143e-06
7.14077e-06
1.09756e-05
2.61356e-05
1.08763e-05
9.3036e-06
7.7584e-06
6.55881e-06
5.70494e-06
1.15113e-06
5.21804e-06
1.01787e-05
1.80502e-05
3.33579e-05
1.59123e-05
1.4468e-05
1.29752e-05
1.18204e-05
1.10259e-05
1.05866e-05
1.04932e-05
1.07108e-05
8.97675e-06
3.23327e-05
1.48913e-05
1.37027e-05
1.24938e-05
1.1577e-05
1.09801e-05
1.07081e-05
1.07678e-05
9.32769e-06
3.76532e-06
0.0260595
0.00104016
0.000971179
0.000902391
0.000747117
0.000667315
0.000529798
0.000614171
0.000418484
0.000567988
0.00681059
0.00092303
0.00101024
0.00101924
0.00100781
0.000991518
0.000975212
0.000960307
0.000944938
0.000916475
0.00191628
0.000440896
0.000486493
0.000483246
0.000466529
0.000445771
0.000423887
0.000401872
0.000379143
0.000342055
0.000689479
0.000189418
0.000196108
0.000192079
0.000186741
0.000181688
0.000177214
0.000173364
0.000168819
0.000157894
0.000227686
7.77138e-05
8.08486e-05
8.01613e-05
7.88678e-05
7.74774e-05
7.60866e-05
7.47128e-05
7.69972e-05
7.40435e-05
5.79046e-05
2.4914e-05
2.68081e-05
2.7533e-05
2.78764e-05
2.99232e-05
3.68419e-05
3.98242e-05
4.05452e-05
3.94578e-05
1.69024e-06
1.58593e-06
2.99648e-06
4.14304e-06
4.9936e-06
5.57881e-06
5.92556e-06
6.05624e-06
5.94411e-06
5.25694e-06
0.000185575
6.27352e-05
1.7925e-05
9.09049e-06
8.07405e-06
8.77012e-06
9.82358e-06
9.94606e-06
1.08278e-05
1.32207e-05
2.67921e-05
1.21062e-05
1.09996e-05
9.83424e-06
8.92516e-06
8.28743e-06
7.91169e-06
7.78545e-06
7.87421e-06
8.14822e-06
2.63326e-05
1.13293e-05
1.04103e-05
9.46703e-06
8.74654e-06
8.26379e-06
8.01813e-06
8.01222e-06
7.12545e-06
4.4463e-06
0.0386705
0.00396501
0.0044701
0.00462126
0.00451101
0.00431605
0.00398125
0.00375469
0.00327051
0.00310098
0.00481891
0.000490408
0.000493068
0.000450726
0.000407883
0.000375806
0.000356211
0.000347441
0.000345568
0.000340955
0.001319
0.000275981
0.000343152
0.000353417
0.000345773
0.000330658
0.00031264
0.000294083
0.000275253
0.000245084
0.000521138
0.000134379
0.000138373
0.000135117
0.000131062
0.000127249
0.000123839
0.000120846
0.00011726
0.000107197
0.000176135
5.60683e-05
5.81429e-05
5.74909e-05
5.64128e-05
5.59405e-05
5.74022e-05
5.75005e-05
5.6519e-05
5.16845e-05
0.000114264
5.64761e-05
4.12218e-05
3.62977e-05
3.49586e-05
3.44708e-05
3.37826e-05
3.21885e-05
3.03648e-05
2.72816e-05
1.96287e-07
1.58923e-06
2.58555e-06
3.38542e-06
3.97123e-06
4.36899e-06
4.59922e-06
4.67911e-06
4.58132e-06
3.99965e-06
0.000619619
0.000270825
0.000117632
5.90959e-05
3.4381e-05
2.28406e-05
1.70179e-05
1.31678e-05
1.16072e-05
1.07281e-05
2.04163e-05
8.71106e-06
7.90857e-06
7.05095e-06
6.3771e-06
5.8967e-06
5.59992e-06
5.47546e-06
5.49445e-06
5.57923e-06
2.03598e-05
8.13864e-06
7.46363e-06
6.76952e-06
6.23743e-06
5.87421e-06
5.67499e-06
5.6711e-06
5.29654e-06
4.29104e-06
0.0787479
0.00752097
0.00790147
0.00719292
0.00623224
0.0052463
0.00431535
0.00346694
0.00282153
0.00202506
0.00458499
0.00102506
0.00109939
0.00110368
0.00107039
0.00101278
0.000940352
0.000859938
0.000774144
0.000693035
0.000809971
0.000110137
0.000207423
0.000227435
0.000225546
0.000213922
0.000198578
0.000182667
0.0001669
0.00014404
0.00036414
8.92576e-05
9.09369e-05
8.81675e-05
8.50971e-05
8.23493e-05
7.99711e-05
7.79075e-05
7.53678e-05
6.80064e-05
0.000139914
5.15901e-05
5.1118e-05
4.89006e-05
4.67657e-05
4.48009e-05
4.28624e-05
4.07869e-05
3.85308e-05
3.36304e-05
0.000128345
7.27356e-05
5.05731e-05
3.93477e-05
3.29772e-05
2.88218e-05
2.57294e-05
2.29948e-05
2.07154e-05
1.75375e-05
5.55781e-07
1.31909e-06
1.9682e-06
2.48563e-06
2.8579e-06
3.10602e-06
3.24439e-06
3.28448e-06
3.2026e-06
2.74129e-06
0.00106297
0.000466228
0.000202155
9.72694e-05
5.244e-05
3.16224e-05
2.11373e-05
1.49724e-05
1.20127e-05
9.38495e-06
1.45147e-05
5.82719e-06
5.282e-06
4.69839e-06
4.23779e-06
3.90517e-06
3.69333e-06
3.5923e-06
3.58024e-06
3.56585e-06
1.4686e-05
5.41152e-06
4.95357e-06
4.48247e-06
4.12079e-06
3.87202e-06
3.72881e-06
3.68811e-06
3.71929e-06
3.74056e-06
0.32031
0.0130134
0.0129251
0.0110987
0.00913032
0.0073743
0.00588833
0.00464848
0.00350307
0.00274806
0.00148615
0.00130732
0.00123484
0.00110529
0.00094206
0.000765168
0.000587489
0.000415249
0.000249462
0.000103663
0.000180807
2.88772e-05
0.000136894
0.000182781
0.000191807
0.000181509
0.000162076
0.000138934
0.00011358
8.05622e-05
0.000218442
5.24032e-05
5.25771e-05
5.07101e-05
4.88897e-05
4.73775e-05
4.61678e-05
4.52496e-05
4.4168e-05
4.00585e-05
9.47872e-05
3.71821e-05
3.63446e-05
3.37508e-05
3.11511e-05
2.88089e-05
2.67198e-05
2.48019e-05
2.28971e-05
1.93035e-05
8.56083e-05
5.03796e-05
3.47397e-05
2.62266e-05
2.10814e-05
1.76773e-05
1.52407e-05
1.33152e-05
1.17931e-05
9.68654e-06
7.06573e-07
9.02358e-07
1.27828e-06
1.57572e-06
1.78693e-06
1.92431e-06
1.99595e-06
2.00992e-06
1.94657e-06
1.61838e-06
0.00130809
0.000566196
0.00023765
0.00010944
5.58634e-05
3.17737e-05
2.00334e-05
1.36198e-05
1.0433e-05
7.5592e-06
9.32067e-06
3.50599e-06
3.16941e-06
2.81331e-06
2.53303e-06
2.33087e-06
2.19844e-06
2.13103e-06
2.1116e-06
2.06109e-06
9.57568e-06
3.2051e-06
2.9268e-06
2.64567e-06
2.43074e-06
2.28142e-06
2.1944e-06
2.25446e-06
2.142e-06
2.23392e-06
0.486598
0.00556099
0.00511513
0.00433561
0.00354237
0.00281752
0.00217256
0.00157616
0.00124693
0.000691158
0.00426974
0.0023359
0.00200867
0.00164179
0.00130612
0.00101556
0.00076697
0.000551775
0.000358776
0.000190599
0.000109318
0.00018285
2.12221e-05
2.74118e-05
5.06776e-05
6.10754e-05
6.6124e-05
6.98289e-05
7.37454e-05
7.52173e-05
0.000111587
2.60634e-05
2.56875e-05
2.41561e-05
2.24823e-05
2.08413e-05
1.92225e-05
1.75666e-05
1.55757e-05
1.21022e-05
4.78554e-05
1.69671e-05
1.66418e-05
1.5515e-05
1.43547e-05
1.33056e-05
1.23845e-05
1.15719e-05
1.07376e-05
8.99223e-06
3.15847e-05
1.85737e-05
1.31636e-05
1.014e-05
8.25053e-06
6.99003e-06
6.09624e-06
5.4115e-06
4.85815e-06
3.983e-06
4.72558e-07
4.66341e-07
6.38659e-07
7.76698e-07
8.7427e-07
9.34233e-07
9.63538e-07
9.64166e-07
9.22981e-07
7.269e-07
0.000858876
0.000387125
0.000157033
6.98577e-05
3.41741e-05
1.85815e-05
1.12221e-05
7.4122e-06
5.52034e-06
3.9444e-06
4.99629e-06
1.74409e-06
1.56887e-06
1.39228e-06
1.25445e-06
1.15526e-06
1.09089e-06
1.05695e-06
1.04389e-06
9.94927e-07
9.28781e-05
8.84174e-05
5.96839e-05
3.48547e-05
1.93439e-05
1.03676e-05
5.3273e-06
2.49321e-06
7.20405e-07
4.86564e-07
0.0927884
0.00350925
0.00299046
0.00238556
0.00184032
0.00137816
0.000992715
0.000660898
0.000360459
9.02723e-05
3.56602e-05
0.000377349
0.000320602
0.000251877
0.000184152
0.000120833
6.19272e-05
6.12904e-06
4.83122e-05
9.94572e-05
0.000138956
3.55106e-05
1.45067e-05
2.22174e-05
2.24613e-05
1.86339e-05
1.29328e-05
6.28686e-06
1.1121e-06
8.71533e-06
3.32314e-05
7.93961e-06
8.01236e-06
7.95169e-06
7.92353e-06
7.95339e-06
8.04348e-06
8.1863e-06
8.24883e-06
7.46699e-06
1.33321e-05
4.10539e-06
4.03409e-06
3.8344e-06
3.62095e-06
3.41683e-06
3.22461e-06
3.04198e-06
2.81869e-06
2.27184e-06
4.6171e-06
2.46261e-06
2.03502e-06
1.78857e-06
1.61675e-06
1.49185e-06
1.395e-06
1.31167e-06
1.2224e-06
9.98475e-07
1.16579e-07
1.32044e-07
1.89096e-07
2.32537e-07
2.62438e-07
2.80981e-07
2.88209e-07
2.8648e-07
2.6912e-07
1.95107e-07
7.39077e-05
5.71399e-05
2.3251e-05
1.04437e-05
5.02289e-06
2.63938e-06
1.52267e-06
9.58961e-07
6.81423e-07
5.13554e-07
1.62816e-06
6.00801e-07
5.35338e-07
4.76678e-07
4.32399e-07
4.01216e-07
3.80322e-07
3.70847e-07
3.65181e-07
3.36026e-07
0.000205389
0.000119477
7.08873e-05
3.97537e-05
2.13518e-05
1.09717e-05
5.24873e-06
2.06833e-06
1.49494e-07
1.24347e-06
1.24334
1.25818
1.45141
1.87951
0.943249
0.997244
1.19347
1.76206
0.52141
0.505112
0.704627
1.16233
0.219018
0.185972
0.32999
0.584598
0.0627536
0.0483026
0.107265
0.196719
0.00182101
0.000407858
0.00255043
0.00508114
0.0246729
0.0138934
0.0349013
0.077345
0.0309776
0.0169482
0.0453414
0.107089
0.0317008
0.0165614
0.0481643
0.120436
0.0288432
0.0142236
0.0471905
0.124503
0.108753
0.0267864
0.0188785
0.0655182
0.121747
0.03449
0.018049
0.0470609
0.0834796
0.0242194
0.00974002
0.028354
0.0427163
0.0117495
0.000858706
0.0217327
0.0144482
0.00319474
0.00136502
0.0101359
0.00120784
0.0001059
0.000116752
0.000211022
0.00848536
0.000363183
0.000198617
9.00297e-05
0.0115639
0.000251042
0.000319098
0.000319612
0.0132833
0.000340263
0.000387038
0.000385533
0.0135909
0.000420551
0.000498483
0.000492679
0.110087
0.105558
0.102328
0.131721
0.0927544
0.0840984
0.0807004
0.114494
0.0570364
0.0494304
0.0497961
0.0716303
0.0269163
0.0224747
0.0251694
0.0368898
0.00841665
0.00717881
0.00927336
0.0143259
0.00124626
5.7317e-05
0.000741766
0.00169144
0.00609459
0.00331991
0.00352275
0.00496567
0.008433
0.00479038
0.00518933
0.00756848
0.0101453
0.00555933
0.0058923
0.00865535
0.0120155
0.00625404
0.00655234
0.00858713
0.0223468
0.0289958
0.0311226
0.0344175
0.0214289
0.0232543
0.0254901
0.0328088
0.0149087
0.0149628
0.0172461
0.0234547
0.0074738
0.00736326
0.0088795
0.0130764
0.00226744
0.00248722
0.00318313
0.00526412
0.000817829
5.28667e-05
0.000281772
0.000780218
0.00251474
0.00125514
0.000940625
0.00136655
0.00343186
0.00175901
0.00126956
0.00217718
0.00403797
0.00183694
0.00107436
0.00230617
0.00415566
0.00138087
0.000406085
0.0018025
0.00538432
0.0105258
0.0117611
0.0133947
0.00667574
0.010156
0.0125871
0.0165737
0.00480271
0.00686689
0.00878046
0.011978
0.0022862
0.00352749
0.00463596
0.00666503
0.000503234
0.00121085
0.00172013
0.00272222
0.000613948
7.88635e-05
0.000196413
0.000516808
0.00130782
0.000786868
0.000551169
0.000651736
0.00175284
0.00115496
0.000834595
0.00116706
0.00211062
0.0013176
0.000815122
0.00132032
0.00224978
0.00125185
0.000599046
0.00123513
0.00382391
0.000499327
0.000328895
0.0013238
0.000161166
0.0031789
0.00483337
0.00696118
0.000875959
0.00268014
0.0039298
0.00570259
0.000336582
0.00146567
0.0022289
0.00332282
0.000122722
0.00049486
0.000862542
0.00140635
0.000455056
8.88058e-05
0.000108612
0.000307785
0.000694001
0.000438193
0.000284804
0.000296044
0.000876073
0.00063833
0.000444309
0.000572342
0.00102936
0.000735078
0.000422225
0.000648931
0.000985243
0.000659048
0.000282675
0.000640012
0.00684448
0.00457829
0.00406746
0.0034578
0.00268889
0.000207895
0.000711353
0.0018006
0.000576555
0.000845789
0.00159092
0.00254071
0.000338677
0.000544841
0.00103497
0.00160097
0.000310882
0.000170025
0.000424241
0.00070984
0.000353464
8.71955e-05
5.56698e-05
0.000175273
0.000418899
0.00026711
0.000166332
0.000146499
0.000492218
0.00038558
0.000272581
0.000308029
0.000551806
0.000448011
0.000264066
0.00035341
0.000458311
0.000386424
0.000192197
0.000377875
0.00752182
0.00587327
0.00557939
0.00522752
0.00390536
0.00193536
0.00146575
0.000953064
0.00123903
0.000110156
0.000301657
0.000789239
0.000612106
7.10394e-05
0.000360942
0.000636858
0.000363281
3.88444e-06
0.000166212
0.000310941
0.000279546
8.20081e-05
1.60962e-05
8.49921e-05
0.000266273
0.000164614
9.76319e-05
7.39939e-05
0.000286529
0.000230315
0.000162202
0.00016342
0.000291901
0.000261282
0.00015295
0.00018627
0.000191482
0.00020795
0.000114863
0.000217163
0.0070911
0.00583295
0.00566885
0.00546688
0.00404833
0.00247405
0.00223794
0.00202985
0.00148306
0.000567773
0.000350778
0.0001154
0.000712772
0.000168743
6.27325e-06
0.000114115
0.000367296
7.98496e-05
1.83256e-05
8.82467e-05
0.000226178
7.58614e-05
1.03012e-05
2.85913e-05
0.000176514
0.000104995
5.97174e-05
4.01941e-05
0.000171442
0.000139816
9.68045e-05
8.78804e-05
0.000144973
0.000145318
8.09827e-05
9.24148e-05
5.98393e-05
0.000103094
6.03593e-05
0.000119913
0.00621807
0.00523398
0.00514406
0.00502786
0.00368305
0.00241788
0.00229948
0.00224751
0.00145894
0.000717419
0.000606787
0.000502599
0.000707256
0.000271391
0.000185435
0.000147212
0.000344569
0.00011747
6.17662e-05
3.31031e-05
0.000183961
6.85917e-05
2.66907e-05
6.27823e-06
0.000117791
6.73697e-05
3.71707e-05
2.33962e-05
0.00010041
8.342e-05
5.53051e-05
4.53564e-05
6.03608e-05
7.29377e-05
3.40616e-05
3.70104e-05
6.07011e-06
4.15707e-05
2.23932e-05
5.90886e-05
0.00520796
0.00442614
0.00437441
0.00430541
0.0031298
0.00211933
0.00206181
0.00208893
0.00128787
0.000691996
0.000635279
0.000592623
0.00063416
0.000286878
0.000243173
0.000243938
0.000302609
0.000123937
9.39669e-05
8.65929e-05
0.000147699
5.95028e-05
3.38839e-05
2.46252e-05
7.76219e-05
4.2641e-05
2.33982e-05
1.47384e-05
5.55208e-05
4.76341e-05
2.94107e-05
2.11845e-05
1.48223e-05
3.10706e-05
7.30539e-06
6.91051e-06
3.62836e-05
7.66481e-06
9.21886e-07
2.24429e-05
0.0042674
0.00365178
0.00362734
0.00359442
0.00253818
0.00174335
0.00171769
0.00178393
0.00106142
0.000591065
0.000561399
0.000545542
0.000530072
0.000257324
0.00023601
0.000252505
0.000251226
0.000112119
9.66426e-05
9.86143e-05
0.000116007
4.91804e-05
3.40383e-05
3.08446e-05
5.03549e-05
2.65673e-05
1.50591e-05
1.0256e-05
2.83986e-05
2.5774e-05
1.43903e-05
8.43197e-06
7.63662e-06
8.42454e-06
6.06938e-06
7.62188e-06
4.6492e-05
9.05477e-06
1.29794e-05
2.02032e-06
0.00316033
0.00268443
0.00266604
0.00265878
0.00200347
0.00139222
0.0013851
0.00147057
0.00082955
0.000468119
0.000452019
0.000446557
0.000419027
0.00021014
0.000200624
0.000221666
0.000198444
9.2228e-05
8.45605e-05
8.95749e-05
8.86523e-05
3.87575e-05
3.00344e-05
2.96756e-05
3.21079e-05
1.6365e-05
1.00056e-05
7.80613e-06
1.31984e-05
1.33115e-05
6.5426e-06
2.68614e-06
1.69038e-05
2.76269e-06
1.14439e-05
1.31796e-05
4.55779e-05
1.54068e-05
1.72657e-05
7.75306e-06
0.00303113
0.00257708
0.00254577
0.0025244
0.00141039
0.0010021
0.00100573
0.00102982
0.000616716
0.00034948
0.00034011
0.000337163