/*--------------------------------*- C++ -*----------------------------------*\
| =========                 |                                                 |
| \\      /  F ield         | foam-extend: Open Source CFD                    |
|  \\    /   O peration     | Version:     4.0                                |
|   \\  /    A nd           | Web:         http://www.foam-extend.org         |
|    \\/     M anipulation  |                                                 |
\*---------------------------------------------------------------------------*/
FoamFile
{
    version     2.0;
    format      ascii;
    class       surfaceScalarField;
    location    "3400";
    object      phi;
}
// * * * * * * * * * * * * * * * * * * * * * * * * * * * * * * * * * * * * * //

dimensions      [1 0 -1 0 0 0 0];

internalField   nonuniform List<scalar> 
97302
(
-0.000109159
5.3319e-06
-0.00061471
0.000631516
-0.000133909
5.79797e-06
-0.000618302
0.000637254
-0.000162523
6.22113e-06
-0.000621115
0.000643509
-0.000196839
6.63525e-06
-0.000623149
0.00065083
-0.000239382
7.05909e-06
-0.000624257
0.00065974
-0.000293226
7.47633e-06
-0.000623702
0.00067007
-0.000361121
7.79436e-06
-0.000619434
0.000679535
-0.00044235
7.78828e-06
-0.000606795
0.000680235
-0.000532908
7.05863e-06
-0.000575102
0.000658601
4.5861e-06
-0.000491038
-0.000669236
0.00062278
-0.000137843
7.9168e-06
-0.000859743
0.000875228
-0.0001581
8.81093e-06
-0.000865521
0.000882765
-0.000181384
9.47949e-06
-0.000870275
0.0008903
-0.000209471
9.98749e-06
-0.000873842
0.000898577
-0.000245386
1.03791e-05
-0.000876511
0.000909106
-0.00029353
1.06555e-05
-0.000878131
0.000923096
-0.000359412
1.0728e-05
-0.000876871
0.000939819
-0.000446172
1.03272e-05
-0.000867452
0.000951673
-0.000549438
8.84878e-06
-0.000836515
0.000937991
4.59676e-06
-0.000726328
-0.000721815
0.000898694
-0.000168266
8.43871e-06
-0.00110358
0.0011182
-0.000185284
9.69505e-06
-0.00111156
0.0011277
-0.000204954
1.06179e-05
-0.00111852
0.00113706
-0.000228894
1.12818e-05
-0.00112432
0.00114697
-0.000260228
1.17312e-05
-0.00112925
0.00115923
-0.00030416
1.19826e-05
-0.00113379
0.0011764
-0.000367982
1.19592e-05
-0.00113686
0.00119945
-0.000457888
1.13576e-05
-0.00113287
0.00122174
-0.000569509
9.37501e-06
-0.00110629
0.00121739
3.59177e-06
-0.000974926
-0.000767607
0.00117403
-0.000199694
8.52682e-06
-0.00134391
0.00135783
-0.000215525
1.00054e-05
-0.0013554
0.00137092
-0.000233884
1.10873e-05
-0.0013659
0.00138379
-0.000256175
1.18426e-05
-0.00137523
0.00139696
-0.000285328
1.22926e-05
-0.00138336
0.00141195
-0.000326784
1.24461e-05
-0.00139103
0.00143202
-0.000389034
1.22315e-05
-0.0013979
0.00145988
-0.000480726
1.13276e-05
-0.00139911
0.00149083
-0.00059759
8.7015e-06
-0.00137792
0.00149546
1.1101e-06
-0.00122758
-0.000811545
0.00144401
-0.000233301
8.44492e-06
-0.00158429
0.00159775
-0.000248478
9.97928e-06
-0.00159973
0.00161493
-0.000266124
1.1077e-05
-0.00161422
0.00163188
-0.000287475
1.18069e-05
-0.00162752
0.00164891
-0.000315264
1.21761e-05
-0.00163936
0.00166726
-0.000354966
1.21735e-05
-0.0016504
0.00169037
-0.00041592
1.1725e-05
-0.00166095
0.00172241
-0.000508794
1.05005e-05
-0.00166726
0.00176096
-0.000629459
7.19208e-06
-0.00165189
0.00177407
-2.36923e-06
-0.00148266
-0.000852992
0.00170967
-0.000269428
8.23502e-06
-0.00182312
0.0018362
-0.000284094
9.66584e-06
-0.00184268
0.00185766
-0.000301178
1.06445e-05
-0.00186118
0.00187869
-0.000321809
1.12426e-05
-0.00187844
0.00189963
-0.000348557
1.14581e-05
-0.00189405
0.00192152
-0.000386862
1.12686e-05
-0.0019085
0.00194771
-0.000446697
1.06123e-05
-0.00192253
0.00198348
-0.000540585
9.1974e-06
-0.00193353
0.00202872
-0.000665167
5.48532e-06
-0.00192343
0.00204972
-5.67764e-06
-0.00173226
-0.000898881
0.00196928
-0.000307429
8.00695e-06
-0.00206109
0.0020738
-0.000321633
9.13894e-06
-0.00208442
0.00209915
-0.000338172
9.85937e-06
-0.00210653
0.00212386
-0.000358076
1.02126e-05
-0.00212731
0.00214825
-0.000383748
1.01876e-05
-0.00214637
0.00217332
-0.000420498
9.76556e-06
-0.00216401
0.00220226
-0.000478727
8.95211e-06
-0.00218144
0.00224133
-0.00057266
7.58479e-06
-0.00219734
0.00229289
-0.000700062
4.02373e-06
-0.00219336
0.00232222
-7.87648e-06
-0.00198027
-0.000942651
0.00222506
-0.000348439
7.22822e-06
-0.00229925
0.00231188
-0.000361994
7.8955e-06
-0.00232594
0.00234074
-0.000377839
8.29977e-06
-0.00235103
0.00236844
-0.000396922
8.41162e-06
-0.00237475
0.00239563
-0.000421418
8.18921e-06
-0.00239667
0.00242316
-0.000456338
7.60425e-06
-0.00241695
0.00245403
-0.000512199
6.76649e-06
-0.00243725
0.0024953
-0.000604743
5.74054e-06
-0.00245795
0.00255234
-0.000733301
3.12744e-06
-0.00246158
0.00259104
-8.12612e-06
-0.00222915
-0.000982709
0.00247881
-0.000390221
5.0566e-06
-0.00253426
0.002547
-0.000402693
5.04721e-06
-0.00256346
0.00257878
-0.000417624
4.98845e-06
-0.00259091
0.00260916
-0.00043607
4.77478e-06
-0.00261752
0.0026396
-0.000459984
4.37131e-06
-0.00264307
0.0026708
-0.000493692
3.73222e-06
-0.00266731
0.00270489
-0.000547096
3.04877e-06
-0.00269126
0.00274838
-0.000636959
2.61513e-06
-0.00271672
0.00280971
-0.000764505
1.67025e-06
-0.0027287
0.0028577
-7.24325e-06
-0.00248151
-0.00101449
0.00273061
-0.00043259
-0.00275431
0.00276792
-0.000443464
-0.00278615
0.00280208
-0.000456895
-0.00281617
0.00283459
-0.00047406
-0.00284526
0.00286719
-0.000496868
-0.00287307
0.00290025
-0.000529216
-0.00289959
0.00293567
-0.00057985
-0.00292624
0.00297993
-0.000665249
-0.0029571
0.00304512
-0.000788331
-0.00298302
0.00310777
-0.0027397
-0.00103719
0.00298131
1.23278e-05
5.38523e-06
-0.000599575
-1.0115e-05
5.84988e-06
-0.000601709
-3.49043e-05
6.23818e-06
-0.000602564
-6.26635e-05
6.55733e-06
-0.000601947
-9.43061e-05
6.80262e-06
-0.000599417
-0.000130716
6.94151e-06
-0.000594234
-0.000171781
6.90111e-06
-0.00058527
-0.000214224
6.53607e-06
-0.000570889
-0.000247647
5.58676e-06
-0.000547265
3.53372e-06
-0.000505124
-0.000237095
2.25629e-05
7.97564e-06
-0.0008444
2.61296e-06
8.92877e-06
-0.00084865
-1.9645e-05
9.63724e-06
-0.000851416
-4.47836e-05
1.01313e-05
-0.000852277
-7.41135e-05
1.04169e-05
-0.000850796
-0.000109741
1.04681e-05
-0.00084603
-0.000153793
1.02154e-05
-0.000836133
-0.00020617
9.47669e-06
-0.000818015
-0.000259402
7.89603e-06
-0.000785592
4.63566e-06
-0.000720942
-0.00026589
3.21702e-05
8.48958e-06
-0.00108821
1.43768e-05
9.88672e-06
-0.00109473
-5.77931e-06
1.09329e-05
-0.00109966
-2.90251e-05
1.16735e-05
-0.00110262
-5.67758e-05
1.21053e-05
-0.00110319
-9.18283e-05
1.22029e-05
-0.00110048
-0.000138167
1.18971e-05
-0.0010922
-0.000198833
1.09677e-05
-0.00107369
-0.000270199
8.91811e-06
-0.00103595
4.49637e-06
-0.000947981
-0.000297005
4.14838e-05
8.43281e-06
-0.00132865
2.42927e-05
1.01604e-05
-0.00133848
4.58624e-06
1.14749e-05
-0.00134673
-1.84078e-05
1.24206e-05
-0.00135298
-4.60996e-05
1.29743e-05
-0.00135654
-8.14772e-05
1.30882e-05
-0.00135654
-0.000129749
1.26792e-05
-0.00135041
-0.000197089
1.15092e-05
-0.00133231
-0.000284532
8.93405e-06
-0.00129049
3.21669e-06
-0.00117862
-0.000332211
4.89279e-05
8.14502e-06
-0.00156908
3.19254e-05
1.00589e-05
-0.00158263
1.23085e-05
1.15188e-05
-0.00159465
-1.07371e-05
1.25695e-05
-0.00160463
-3.86292e-05
1.31808e-05
-0.00161167
-7.44019e-05
1.32754e-05
-0.00161481
-0.000124118
1.27474e-05
-0.0016113
-0.000196827
1.13497e-05
-0.00159439
-0.000298338
8.27142e-06
-0.00154972
1.21528e-06
-0.00141361
-0.000365387
5.41351e-05
7.66986e-06
-0.0018079
3.72564e-05
9.62355e-06
-0.00182537
1.77112e-05
1.11089e-05
-0.00184122
-5.35652e-06
1.21751e-05
-0.00185498
-3.33755e-05
1.27893e-05
-0.00186564
-6.94091e-05
1.28575e-05
-0.00187205
-0.000120136
1.2259e-05
-0.00187132
-0.000197079
1.07634e-05
-0.001856
-0.000310493
7.41988e-06
-0.00180916
-7.05947e-07
-0.00164784
-0.000392989
5.70876e-05
7.07529e-06
-0.00204587
4.03823e-05
8.87612e-06
-0.00206697
2.10375e-05
1.02561e-05
-0.00208633
-1.82788e-06
1.12454e-05
-0.00210352
-2.96449e-05
1.18071e-05
-0.00211757
-6.54725e-05
1.18383e-05
-0.00212717
-0.000116457
1.1235e-05
-0.00212944
-0.000196351
9.84648e-06
-0.00211653
-0.000319843
6.67926e-06
-0.00206913
-2.08729e-06
-0.00188328
-0.000415454
5.7495e-05
5.89637e-06
-0.00228385
4.12755e-05
7.34427e-06
-0.00230819
2.24668e-05
8.53221e-06
-0.0023305
1.66136e-07
9.43226e-06
-0.00235063
-2.70179e-05
9.99317e-06
-0.00236767
-6.20696e-05
1.00889e-05
-0.00238015
-0.000112396
9.65994e-06
-0.00238535
-0.000193736
8.6764e-06
-0.00237544
-0.000325726
6.3912e-06
-0.0023293
-2.253e-06
-0.00212087
-0.000433839
5.58594e-05
3.41222e-06
-0.00251853
4.06931e-05
4.24197e-06
-0.00254519
2.29445e-05
5.03826e-06
-0.00256967
1.52982e-06
5.68496e-06
-0.00259236
-2.5049e-05
6.17749e-06
-0.00261268
-5.95976e-05
6.37902e-06
-0.00262905
-0.000109159
6.28706e-06
-0.00263833
-0.000190799
5.98881e-06
-0.00263239
-0.000329961
5.37368e-06
-0.00258852
-1.41582e-06
-0.00235919
-0.000453114
5.31585e-05
-0.00273903
3.92765e-05
-0.00276803
2.29798e-05
-0.00279484
3.10749e-06
-0.0028197
-2.18966e-05
-0.00284188
-5.50027e-05
-0.00286011
-0.000102728
-0.00287223
-0.00018269
-0.00287115
-0.000327133
-0.0028332
-0.00259063
-0.000477619
6.83466e-06
5.29879e-06
-0.000587488
-1.1928e-05
5.70804e-06
-0.000588655
-3.20011e-05
6.00909e-06
-0.0005885
-5.32745e-05
6.20393e-06
-0.000586878
-7.5459e-05
6.27241e-06
-0.000583505
-9.78457e-05
6.16868e-06
-0.000578016
-0.000118917
5.82213e-06
-0.000570021
-0.00013574
5.13985e-06
-0.000559205
-0.000141922
4.01046e-06
-0.000545093
2.34474e-06
-0.000526496
-0.000122895
1.6153e-05
7.9983e-06
-0.000830657
-2.08957e-06
8.87636e-06
-0.000833575
-2.21534e-05
9.49112e-06
-0.000834834
-4.40081e-05
9.85891e-06
-0.000834078
-6.77115e-05
9.9613e-06
-0.000830781
-9.31618e-05
9.73847e-06
-0.000824149
-0.0001195
9.09968e-06
-0.000813072
-0.000144145
7.91289e-06
-0.000796143
-0.000160328
6.01379e-06
-0.000771413
3.25531e-06
-0.000736806
-0.000145374
2.57213e-05
8.72738e-06
-0.00107355
8.43147e-06
1.00545e-05
-0.00107862
-1.09753e-05
1.10153e-05
-0.00108178
-3.27845e-05
1.16355e-05
-0.00108259
-5.74289e-05
1.1887e-05
-0.00108047
-8.55302e-05
1.16978e-05
-0.00107433
-0.000117262
1.09475e-05
-0.00106232
-0.000150871
9.43622e-06
-0.00104161
-0.000179645
6.8697e-06
-0.00100803
2.92012e-06
-0.000954967
-0.000172323
3.51864e-05
8.77961e-06
-0.00131363
1.80272e-05
1.04606e-05
-0.00132173
-1.58679e-06
1.17122e-05
-0.00132782
-2.4138e-05
1.25643e-05
-0.00133136
-5.02595e-05
1.29614e-05
-0.00133149
-8.10429e-05
1.28069e-05
-0.00132686
-0.000117623
1.19419e-05
-0.00131483
-0.000159607
1.01011e-05
-0.00129099
-0.000201474
6.83828e-06
-0.00124859
1.59766e-06
-0.00117425
-0.000204524
4.31093e-05
8.54512e-06
-0.00155385
2.58788e-05
1.04459e-05
-0.00156538
5.95641e-06
1.18782e-05
-0.00157489
-1.72575e-05
1.28743e-05
-0.00158172
-4.46162e-05
1.33659e-05
-0.00158472
-7.75559e-05
1.32265e-05
-0.00158229
-0.000118119
1.22555e-05
-0.00157105
-0.000167575
1.01232e-05
-0.00154496
-0.00022232
6.19124e-06
-0.00149433
-4.08795e-07
-0.00139686
-0.000237061
4.89623e-05
8.06134e-06
-0.00179247
3.17041e-05
1.0037e-05
-0.0018077
1.16127e-05
1.15336e-05
-0.00182079
-1.20125e-05
1.25889e-05
-0.00183107
-4.02244e-05
1.31312e-05
-0.0018372
-7.47548e-05
1.30146e-05
-0.00183731
-0.000118499
1.201e-05
-0.00182733
-0.000174544
9.74531e-06
-0.00179957
-0.00024174
5.38559e-06
-0.00174116
-2.35609e-06
-0.00161898
-0.000268657
5.26224e-05
7.37332e-06
-0.00203032
3.54718e-05
9.22392e-06
-0.00204901
1.54611e-05
1.06497e-05
-0.00206544
-8.19031e-06
1.16758e-05
-0.00207895
-3.66987e-05
1.22327e-05
-0.00208817
-7.20516e-05
1.21598e-05
-0.00209096
-0.000117948
1.12257e-05
-0.00208275
-0.000179418
9.06651e-06
-0.00205438
-0.000258299
4.70843e-06
-0.00198957
-3.86608e-06
-0.00184244
-0.000297622
5.36726e-05
6.06061e-06
-0.00226804
3.70013e-05
7.55927e-06
-0.00228985
1.75127e-05
8.79099e-06
-0.00230915
-5.65448e-06
9.73752e-06
-0.00232553
-3.38205e-05
1.03373e-05
-0.00233761
-6.91607e-05
1.0418e-05
-0.00234307
-0.000116061
9.78437e-06
-0.00233701
-0.0001815
8.12477e-06
-0.00230906
-0.000271032
4.55169e-06
-0.00223961
-4.24437e-06
-0.00206837
-0.000323152
5.2381e-05
3.55378e-06
-0.00250237
3.67332e-05
4.40623e-06
-0.00252639
1.83538e-05
5.22056e-06
-0.00254772
-3.80971e-06
5.8822e-06
-0.00256634
-3.13398e-05
6.4048e-06
-0.00258121
-6.65697e-05
6.63825e-06
-0.00259004
-0.000114085
6.48478e-06
-0.00258751
-0.000182225
5.72562e-06
-0.00256185
-0.00028079
3.91353e-06
-0.00248932
-3.26308e-06
-0.002294
-0.000346959
5.00194e-05
-0.00272299
3.55416e-05
-0.00274915
1.85692e-05
-0.00277265
-2.03121e-06
-0.00279322
-2.78338e-05
-0.00280968
-6.14546e-05
-0.00281985
-0.000107798
-0.0028194
-0.000176299
-0.00279693
-0.000280719
-0.00272487
-0.00250943
-0.000365183
3.95381e-06
4.93796e-06
-0.000579037
-1.02958e-05
5.27651e-06
-0.000579682
-2.50578e-05
5.48423e-06
-0.000579223
-3.99131e-05
5.56423e-06
-0.000577587
-5.42504e-05
5.49795e-06
-0.000574666
-6.71613e-05
5.25146e-06
-0.000570356
-7.72978e-05
4.78272e-06
-0.000564667
-8.26678e-05
4.04793e-06
-0.000557883
-8.01223e-05
3.01619e-06
-0.000550655
1.74794e-06
-0.000543123
-6.52438e-05
1.13573e-05
7.67623e-06
-0.000819401
-4.05973e-06
8.45074e-06
-0.000821333
-2.06574e-05
8.94336e-06
-0.000821696
-3.80753e-05
9.16729e-06
-0.000820263
-5.57715e-05
9.09971e-06
-0.000816687
-7.28186e-05
8.68318e-06
-0.000810534
-8.76182e-05
7.84642e-06
-0.000801337
-9.74834e-05
6.52225e-06
-0.000788752
-9.78261e-05
4.68386e-06
-0.000772738
2.47638e-06
-0.000754248
-8.11124e-05
2.00313e-05
8.67044e-06
-0.00106045
4.21636e-06
9.88349e-06
-0.00106423
-1.32589e-05
1.07124e-05
-0.00106607
-3.22727e-05
1.11685e-05
-0.00106558
-5.2607e-05
1.12168e-05
-0.00106225
-7.37161e-05
1.07751e-05
-0.00105532
-9.41955e-05
9.72978e-06
-0.00104372
-0.000110945
7.94468e-06
-0.00102628
-0.000117645
5.30324e-06
-0.00100195
1.93459e-06
-0.000971042
-0.000101029
2.90536e-05
8.90383e-06
-0.00129953
1.26965e-05
1.04866e-05
-0.00130598
-5.80446e-06
1.16182e-05
-0.00131022
-2.65815e-05
1.23149e-05
-0.00131173
-4.96451e-05
1.25052e-05
-0.00130972
-7.48144e-05
1.20746e-05
-0.00130299
-0.000101049
1.08558e-05
-0.00128972
-0.000125263
8.62973e-06
-0.00126746
-0.000140077
5.15193e-06
-0.00123363
5.14313e-07
-0.00118686
-0.000126043
3.70307e-05
8.78445e-06
-0.00153912
2.01847e-05
1.06164e-05
-0.00154867
8.14505e-07
1.19579e-05
-0.00155586
-2.13898e-05
1.28297e-05
-0.00156003
-4.66896e-05
1.31339e-05
-0.00156005
-7.5297e-05
1.27214e-05
-0.00155433
-0.000106696
1.13643e-05
-0.00154016
-0.000138219
8.74913e-06
-0.00151355
-0.000162095
4.45204e-06
-0.00146975
-1.54315e-06
-0.00140442
-0.000152478
4.32361e-05
8.34309e-06
-0.00177727
2.60884e-05
1.02841e-05
-0.00179022
6.16203e-06
1.17268e-05
-0.00180063
-1.70101e-05
1.26983e-05
-0.00180776
-4.39697e-05
1.30903e-05
-0.00181019
-7.53026e-05
1.2727e-05
-0.00180598
-0.000111129
1.13304e-05
-0.00179147
-0.000149544
8.50069e-06
-0.00176091
-0.00018302
3.60478e-06
-0.00170684
-3.57873e-06
-0.00162061
-0.000179357
4.74237e-05
7.61441e-06
-0.00201477
3.02175e-05
9.45901e-06
-0.00203097
1.01243e-05
1.08626e-05
-0.00204448
-1.34594e-05
1.18453e-05
-0.00205451
-4.13464e-05
1.23037e-05
-0.00205949
-7.44954e-05
1.20407e-05
-0.00205712
-0.000113757
1.07505e-05
-0.00204291
-0.00015832
7.97702e-06
-0.0020093
-0.000201602
2.88648e-06
-0.00194557
-5.26151e-06
-0.00183719
-0.000205169
4.90507e-05
6.21324e-06
-0.0022521
3.22372e-05
7.71841e-06
-0.0022713
1.25404e-05
8.93253e-06
-0.00228752
-1.07792e-05
9.84392e-06
-0.00230021
-3.87583e-05
1.03711e-05
-0.00230769
-7.2701e-05
1.03158e-05
-0.0023074
-0.000114223
9.40103e-06
-0.00229414
-0.000163897
7.16128e-06
-0.00225857
-0.000216976
2.71873e-06
-0.00218637
-5.80576e-06
-0.00205547
-0.000229331
4.83227e-05
3.67914e-06
-0.00248601
3.24528e-05
4.53811e-06
-0.00250734
1.38128e-05
5.34117e-06
-0.00252549
-8.50911e-06
5.9704e-06
-0.00254014
-3.59034e-05
6.43372e-06
-0.00254988
-7.00726e-05
6.57464e-06
-0.00255213
-0.000113234
6.24929e-06
-0.0025412
-0.000167168
5.08119e-06
-0.00250584
-0.000229423
2.44676e-06
-0.00242679
-4.60342e-06
-0.00227259
-0.000252036
4.64387e-05
-0.0027065
3.16424e-05
-0.00272981
1.43369e-05
-0.00275
-6.4792e-06
-0.00276643
-3.21738e-05
-0.00277755
-6.47267e-05
-0.00278072
-0.000107152
-0.00277073
-0.00016292
-0.00273608
-0.000231871
-0.00265347
-0.00247774
-0.000268158
2.51018e-06
4.39902e-06
-0.000573824
-7.61745e-06
4.66783e-06
-0.000574222
-1.78467e-05
4.80039e-06
-0.000573794
-2.77133e-05
4.80194e-06
-0.000572522
-3.66481e-05
4.66277e-06
-0.000570394
-4.395e-05
4.36646e-06
-0.000567421
-4.87855e-05
3.8984e-06
-0.00056373
-5.01959e-05
3.24916e-06
-0.000559722
-4.6968e-05
2.42204e-06
-0.000556305
1.47913e-06
-0.000554132
-3.74376e-05
7.95891e-06
7.08147e-06
-0.000810903
-4.27244e-06
7.74032e-06
-0.000812174
-1.71546e-05
8.11242e-06
-0.000812126
-3.01892e-05
8.21245e-06
-0.000810639
-4.26901e-05
8.02486e-06
-0.000807548
-5.36784e-05
7.51243e-06
-0.000802692
-6.17928e-05
6.63953e-06
-0.000795963
-6.52557e-05
5.39473e-06
-0.000787435
-6.18762e-05
3.82732e-06
-0.000777523
2.1367e-06
-0.000767278
-4.95036e-05
1.53611e-05
8.31791e-06
-0.00104941
1.65355e-06
9.38879e-06
-0.00105217
-1.32238e-05
1.0068e-05
-0.00105315
-2.8876e-05
1.03598e-05
-0.00105207
-4.47311e-05
1.02326e-05
-0.0010486
-5.98349e-05
9.61741e-06
-0.00104232
-7.25821e-05
8.43869e-06
-0.00103278
-8.04045e-05
6.63967e-06
-0.0010197
-7.94468e-05
4.2334e-06
-0.00100331
1.48803e-06
-0.000985103
-6.47373e-05
2.353e-05
8.76056e-06
-0.0012869
8.62492e-06
1.02066e-05
-0.00129189
-8.00634e-06
1.11872e-05
-0.00129471
-2.6169e-05
1.17054e-05
-0.00129491
-4.54338e-05
1.16897e-05
-0.00129191
-6.49603e-05
1.10316e-05
-0.00128488
-8.30311e-05
9.59871e-06
-0.00127281
-9.64232e-05
7.262e-06
-0.00125469
-9.96521e-05
3.95482e-06
-0.00123012
2.07882e-08
-0.00120089
-8.41517e-05
3.11872e-05
8.79552e-06
-0.00152541
1.53164e-05
1.05135e-05
-0.0015331
-2.74148e-06
1.17223e-05
-0.00153834
-2.29963e-05
1.2429e-05
-0.0015405
-4.52131e-05
1.25238e-05
-0.00153866
-6.87882e-05
1.18558e-05
-0.00153158
-9.20961e-05
1.02224e-05
-0.00151748
-0.000111522
7.39708e-06
-0.00149426
-0.000120165
3.17412e-06
-0.00146033
-2.07818e-06
-0.0014173
-0.000105191
3.74498e-05
8.43878e-06
-0.00176274
2.09395e-05
1.0298e-05
-0.00177349
1.88139e-06
1.16381e-05
-0.00178149
-1.99129e-05
1.24744e-05
-0.00178601
-4.44628e-05
1.26744e-05
-0.00178579
-7.14775e-05
1.20534e-05
-0.00177916
-9.96111e-05
1.03405e-05
-0.00176345
-0.000125169
7.20368e-06
-0.00173516
-0.000140203
2.25247e-06
-0.00169088
-4.19143e-06
-0.00163143
-0.000127269
4.1957e-05
7.71743e-06
-0.00199962
2.51507e-05
9.51252e-06
-0.00201338
5.60184e-06
1.08445e-05
-0.00202414
-1.70545e-05
1.17263e-05
-0.00203111
-4.3139e-05
1.2027e-05
-0.00203276
-7.27219e-05
1.15339e-05
-0.00202702
-0.000104922
9.92426e-06
-0.0020103
-0.00013632
6.76695e-06
-0.00197746
-0.000158439
1.45781e-06
-0.00192265
-5.9946e-06
-0.00184493
-0.0001489
4.40451e-05
6.26631e-06
-0.00223639
2.74743e-05
7.7485e-06
-0.00225297
8.1073e-06
8.90856e-06
-0.00226622
-1.46009e-05
9.73738e-06
-0.00227551
-4.12606e-05
1.01299e-05
-0.00227914
-7.23339e-05
9.87669e-06
-0.00227467
-0.000107559
8.66693e-06
-0.00225765
-0.00014418
6.00898e-06
-0.00222119
-0.000173955
1.1931e-06
-0.00215633
-6.67246e-06
-0.00205917
-0.000169582
4.38954e-05
3.73605e-06
-0.00246978
2.81321e-05
4.5893e-06
-0.00248842
9.67642e-06
5.36473e-06
-0.00250349
-1.21747e-05
5.94008e-06
-0.00251449
-3.84164e-05
6.3088e-06
-0.00251982
-7.00233e-05
6.30811e-06
-0.00251695
-0.000107474
5.76313e-06
-0.00250084
-0.000148844
4.25128e-06
-0.00246271
-0.000186528
1.20605e-06
-0.00238912
-5.30067e-06
-0.00227134
-0.000189153
4.24697e-05
-0.00268995
2.76693e-05
-0.00271042
1.04272e-05
-0.00272739
-1.00727e-05
-0.00273999
-3.48405e-05
-0.00274647
-6.51154e-05
-0.00274414
-0.00010216
-0.00272792
-0.00014572
-0.00268827
-0.000189445
-0.00260854
-0.0024708
-0.000201689
1.81903e-06
3.77721e-06
-0.000571074
-5.02131e-06
3.98632e-06
-0.000571368
-1.18099e-05
4.06799e-06
-0.000571073
-1.81603e-05
4.02903e-06
-0.000570201
-2.36506e-05
3.86807e-06
-0.000568771
-2.78249e-05
3.5819e-06
-0.000566829
-3.02264e-05
3.17308e-06
-0.000564502
-3.04447e-05
2.64816e-06
-0.000562152
-2.80757e-05
2.01596e-06
-0.00056069
1.30684e-06
-0.00056117
-2.2345e-05
5.61883e-06
6.30811e-06
-0.000804974
-3.5872e-06
6.85327e-06
-0.000805835
-1.30983e-05
7.12333e-06
-0.00080567
-2.24181e-05
7.13601e-06
-0.000804426
-3.09354e-05
6.88658e-06
-0.000802049
-3.78848e-05
6.35972e-06
-0.00079852
-4.23421e-05
5.55009e-06
-0.000793883
-4.32991e-05
4.47932e-06
-0.000788309
-3.98552e-05
3.22233e-06
-0.000782173
1.95281e-06
-0.000776154
-3.16255e-05
1.16812e-05
7.71876e-06
-0.00104065
3.66068e-07
8.63478e-06
-0.00104264
-1.17076e-05
9.16756e-06
-0.00104312
-2.40327e-05
9.3207e-06
-0.00104193
-3.59372e-05
9.07226e-06
-0.00103889
-4.64675e-05
8.37618e-06
-0.0010338
-5.43046e-05
7.19733e-06
-0.00102659
-5.77348e-05
5.53904e-06
-0.00101733
-5.47659e-05
3.48341e-06
-0.00100654
1.29994e-06
-0.000995421
-4.37953e-05
1.87675e-05
8.36198e-06
-0.00127611
5.75875e-06
9.64571e-06
-0.00127989
-8.5507e-06
1.04631e-05
-0.00128169
-2.37518e-05
1.08099e-05
-0.0012812
-3.91908e-05
1.06249e-05
-0.00127802
-5.38219e-05
9.82143e-06
-0.00127169
-6.5979e-05
8.31588e-06
-0.00126177
-7.31647e-05
6.06463e-06
-0.00124803
-7.20229e-05
3.12112e-06
-0.0012309
-1.22997e-07
-0.00121232
-5.91748e-05
2.58171e-05
8.56739e-06
-0.00151314
1.14155e-05
1.01354e-05
-0.00151919
-4.77114e-06
1.11859e-05
-0.00152288
-2.24936e-05
1.17136e-05
-0.00152368
-4.12002e-05
1.16134e-05
-0.00152095
-5.98864e-05
1.07512e-05
-0.00151383
-7.66835e-05
8.97562e-06
-0.00150134
-8.83858e-05
6.16285e-06
-0.00148266
-9.0133e-05
2.28168e-06
-0.00145774
-2.18065e-06
-0.00142927
-7.61022e-05
3.18678e-05
8.32581e-06
-0.0017493
1.6479e-05
1.00624e-05
-0.00175803
-1.10799e-06
1.12642e-05
-0.00176398
-2.08193e-05
1.19346e-05
-0.00176652
-4.22724e-05
1.19353e-05
-0.00176466
-6.46307e-05
1.10917e-05
-0.00175715
-8.5999e-05
9.17769e-06
-0.00174229
-0.000102646
5.96875e-06
-0.00171832
-0.000108266
1.29777e-06
-0.00168428
-4.29291e-06
-0.00164345
-9.41307e-05
3.64791e-05
7.65618e-06
-0.00198529
2.05249e-05
9.36299e-06
-0.00199673
2.1063e-06
1.0585e-05
-0.00200504
-1.88845e-05
1.13263e-05
-0.00200951
-4.23235e-05
1.14426e-05
-0.00200883
-6.76423e-05
1.0726e-05
-0.00200134
-9.31218e-05
8.88219e-06
-0.00198452
-0.00011477
5.57096e-06
-0.00195542
-0.000125045
4.35355e-07
-0.00191152
-6.12791e-06
-0.00185633
-0.000111811
3.8877e-05
6.19946e-06
-0.00222127
2.29508e-05
7.63083e-06
-0.00223531
4.44764e-06
8.70798e-06
-0.00224584
-1.694e-05
9.42162e-06
-0.00225222
-4.13797e-05
9.64914e-06
-0.0022529
-6.86502e-05
9.18467e-06
-0.00224586
-9.74206e-05
7.72606e-06
-0.00222773
-0.000123788
4.83831e-06
-0.00219409
-0.000139481
4.81332e-08
-0.00214025
-6.89234e-06
-0.00206922
-0.000128669
3.92336e-05
3.71576e-06
-0.00245403
2.39291e-05
4.54811e-06
-0.00247003
6.11454e-06
5.27978e-06
-0.00248225
-1.46616e-05
5.78356e-06
-0.00249008
-3.89314e-05
6.03804e-06
-0.00249194
-6.6973e-05
5.88029e-06
-0.00248561
-9.81237e-05
5.12896e-06
-0.0024671
-0.000128935
3.38561e-06
-0.00243045
-0.000150673
2.4637e-07
-0.00236758
-5.43207e-06
-0.00227949
-0.00014398
3.82178e-05
-0.00267371
2.37457e-05
-0.0026914
6.98153e-06
-0.00270535
-1.26675e-05
-0.00271456
-3.57974e-05
-0.0027173
-6.29453e-05
-0.00271111
-9.40471e-05
-0.00269169
-0.000126865
-0.00265206
-0.000153198
-0.00258196
-0.00247704
-0.000152387
1.44293e-06
3.15177e-06
-0.00056997
-3.01678e-06
3.31368e-06
-0.000570222
-7.40102e-06
3.36558e-06
-0.000570055
-1.14273e-05
3.31483e-06
-0.000569489
-1.48119e-05
3.16552e-06
-0.000568553
-1.72781e-05
2.92166e-06
-0.000567284
-1.85878e-05
2.59361e-06
-0.000565786
-1.8579e-05
2.19218e-06
-0.000564353
-1.71387e-05
1.72047e-06
-0.000563851
1.17399e-06
-0.000565681
-1.38012e-05
3.9972e-06
5.45165e-06
-0.000801155
-2.64467e-06
5.89397e-06
-0.000801773
-9.40711e-06
6.08673e-06
-0.000801629
-1.58649e-05
6.04993e-06
-0.000800703
-2.15424e-05
5.78801e-06
-0.000798994
-2.59096e-05
5.30152e-06
-0.000796533
-2.84035e-05
4.6038e-06
-0.000793399
-2.85016e-05
3.73079e-06
-0.00078975
-2.58745e-05
2.75665e-06
-0.000785837
1.81256e-06
-0.000782036
-2.06306e-05
8.82906e-06
6.94753e-06
-0.00103407
-1.16996e-07
7.70958e-06
-0.00103551
-9.52387e-06
8.11283e-06
-0.00103574
-1.88905e-05
8.16412e-06
-0.00103468
-2.75979e-05
7.85295e-06
-0.00103224
-3.48628e-05
7.15612e-06
-0.00102839
-3.97389e-05
6.06918e-06
-0.00102318
-4.1188e-05
4.62903e-06
-0.00101678
-3.82656e-05
2.94019e-06
-0.00100965
1.2274e-06
-0.00100254
-3.05661e-05
1.4763e-05
7.75233e-06
-0.00126731
3.8565e-06
8.86185e-06
-0.00127014
-7.97987e-06
9.51978e-06
-0.00127126
-2.02461e-05
9.72088e-06
-0.00127049
-3.22406e-05
9.42035e-06
-0.00126759
-4.29737e-05
8.55964e-06
-0.00126236
-5.10955e-05
7.10003e-06
-0.00125468
-5.49041e-05
5.05785e-06
-0.00124465
-5.25532e-05
2.54797e-06
-0.00123286
-7.5479e-08
-0.00122071
-4.28621e-05
2.10202e-05
8.12e-06
-0.00150257
8.41635e-06
9.51345e-06
-0.00150724
-5.57167e-06
1.03954e-05
-0.00150976
-2.05279e-05
1.07526e-05
-0.00150976
-3.57571e-05
1.04969e-05
-0.00150679
-5.01637e-05
9.52285e-06
-0.00150038
-6.20544e-05
7.73522e-06
-0.00149008
-6.90052e-05
5.09602e-06
-0.00147574
-6.79907e-05
1.68623e-06
-0.00145789
-2.01947e-06
-0.00143876
-5.65507e-05
2.66425e-05
8.00758e-06
-0.00173728
1.27562e-05
9.58897e-06
-0.00174422
-2.93049e-06
1.06311e-05
-0.00174853
-2.01363e-05
1.11268e-05
-0.00174969
-3.82451e-05
1.09492e-05
-0.00174701
-5.61746e-05
9.94978e-06
-0.00173964
-7.20093e-05
7.96302e-06
-0.00172668
-8.26615e-05
4.86982e-06
-0.00170744
-8.3797e-05
6.71414e-07
-0.00168213
-4.05221e-06
-0.00165393
-7.12877e-05
3.11587e-05
7.42468e-06
-0.00197212
1.64476e-05
9.00961e-06
-0.00198144
-3.67019e-07
1.00947e-05
-0.00198769
-1.91643e-05
1.06751e-05
-0.00199026
-3.95034e-05
1.06096e-05
-0.00198815
-6.04471e-05
9.71319e-06
-0.00198016
-8.00286e-05
7.74794e-06
-0.00196473
-9.46436e-05
4.48433e-06
-0.00194042
-9.86166e-05
-2.24124e-07
-0.00190665
-5.82939e-06
-0.00186751
-8.56551e-05
3.37061e-05
6.00356e-06
-0.00220708
1.87962e-05
7.35734e-06
-0.00221875
1.62174e-06
8.3293e-06
-0.0022269
-1.7885e-05
8.90868e-06
-0.00223095
-3.95251e-05
8.96644e-06
-0.00222962
-6.26159e-05
8.31559e-06
-0.00222137
-8.53544e-05
6.69599e-06
-0.00220394
-0.00010388
3.76999e-06
-0.00217485
-0.000111427
-7.08753e-07
-0.00213222
-6.62721e-06
-0.00208068
-9.9164e-05
3.44656e-05
3.61274e-06
-0.00243909
1.99623e-05
4.40716e-06
-0.00245257
3.21009e-06
5.08011e-06
-0.00246225
-1.59846e-05
5.49985e-06
-0.00246748
-3.77279e-05
5.63483e-06
-0.00246686
-6.17373e-05
5.33062e-06
-0.00245861
-8.66919e-05
4.42349e-06
-0.00243987
-0.000108902
2.58365e-06
-0.00240705
-0.000120696
-4.11601e-07
-0.00235609
-5.17322e-06
-0.00229114
-0.000110502
3.37978e-05
-0.00265817
1.99814e-05
-0.00267318
4.09116e-06
-0.00268438
-1.42289e-05
-0.00269074
-3.51837e-05
-0.00269071
-5.87373e-05
-0.00268223
-8.39753e-05
-0.00266203
-0.000107903
-0.00262555
-0.000122889
-0.00256739
-0.0024891
-0.000116
1.1863e-06
2.57464e-06
-0.000569848
-1.65511e-06
2.70061e-06
-0.000570081
-4.44351e-06
2.73712e-06
-0.000570004
-6.9856e-06
2.69107e-06
-0.000569638
-9.09897e-06
2.56927e-06
-0.000569008
-1.06192e-05
2.37866e-06
-0.000568143
-1.14223e-05
2.13159e-06
-0.000567114
-1.14487e-05
1.83755e-06
-0.000566164
-1.06818e-05
1.49137e-06
-0.000566109
1.05829e-06
-0.00056863
-8.79178e-06
2.85245e-06
4.59189e-06
-0.000798915
-1.77641e-06
4.94594e-06
-0.00079939
-6.44606e-06
5.0844e-06
-0.000799306
-1.0824e-05
5.02774e-06
-0.000798662
-1.4565e-05
4.78646e-06
-0.000797471
-1.73184e-05
4.37002e-06
-0.000795771
-1.87524e-05
3.79989e-06
-0.000793634
-1.8607e-05
3.11397e-06
-0.000791172
-1.67879e-05
2.37568e-06
-0.00078854
1.67912e-06
-0.000785931
-1.35136e-05
6.63384e-06
6.08518e-06
-0.00102939
-1.87415e-07
6.70391e-06
-0.00103045
-7.27208e-06
7.00081e-06
-0.00103057
-1.41839e-05
6.98641e-06
-0.00102972
-2.04193e-05
6.66046e-06
-0.00102788
-2.53985e-05
6.01772e-06
-0.00102506
-2.84922e-05
5.0728e-06
-0.00102136
-2.9098e-05
3.87558e-06
-0.00101694
-2.67784e-05
2.5261e-06
-0.00101212
1.1967e-06
-0.00100734
-2.14933e-05
1.14575e-05
6.99351e-06
-0.00126044
2.63924e-06
7.92927e-06
-0.00126254
-6.81396e-06
8.4427e-06
-0.00126325
-1.64002e-05
8.53194e-06
-0.00126245
-2.5478e-05
8.16976e-06
-0.00126003
-3.32302e-05
7.32501e-06
-0.00125592
-3.86655e-05
5.99337e-06
-0.00125016
-4.0698e-05
4.22479e-06
-0.00124297
-3.83585e-05
2.15165e-06
-0.00123482
6.38394e-08
-0.00122663
-3.13058e-05
1.68342e-05
7.49358e-06
-0.00149378
6.17046e-06
8.70053e-06
-0.00149735
-5.51656e-06
9.41719e-06
-0.00149905
-1.77364e-05
9.62785e-06
-0.00149863
-2.9781e-05
9.26646e-06
-0.00149584
-4.06495e-05
8.26144e-06
-0.00149045
-4.89825e-05
6.56726e-06
-0.00148233
-5.3092e-05
4.20478e-06
-0.00147161
-5.12062e-05
1.30901e-06
-0.00145894
-1.71199e-06
-0.00144585
-4.23487e-05
2.18776e-05
7.50589e-06
-0.00172686
9.73575e-06
8.9101e-06
-0.00173229
-3.81572e-06
9.78507e-06
-0.00173534
-1.83581e-05
1.01167e-05
-0.00173564
-3.31829e-05
9.80017e-06
-0.00173272
-4.71925e-05
8.72273e-06
-0.0017261
-5.87181e-05
6.781e-06
-0.00171537
-6.54456e-05
3.93983e-06
-0.00170045
-6.46158e-05
3.02945e-07
-0.00168195
-3.60119e-06
-0.00166229
-5.43582e-05
2.61325e-05
7.03109e-06
-0.00196037
1.29555e-05
8.46778e-06
-0.00196782
-1.93413e-06
9.40154e-06
-0.00197242
-1.82387e-05
9.81963e-06
-0.00197366
-3.53432e-05
9.59758e-06
-0.00197084
-5.21732e-05
8.58555e-06
-0.00196319
-6.68714e-05
6.61427e-06
-0.00194986
-7.65493e-05
3.55751e-06
-0.00193035
-7.73036e-05
-5.83797e-07
-0.00190501
-5.24911e-06
-0.00187721
-6.59603e-05
2.86792e-05
5.6781e-06
-0.00219411
1.50914e-05
6.9305e-06
-0.00220362
-4.00379e-07
7.78289e-06
-0.00220979
-1.76549e-05
8.22334e-06
-0.00221209
-3.62198e-05
8.12812e-06
-0.00220959
-5.51689e-05
7.34064e-06
-0.00220117
-7.26395e-05
5.66289e-06
-0.00218551
-8.53366e-05
2.86511e-06
-0.00216146
-8.83013e-05
-1.12181e-06
-0.00212871
-6.02728e-06
-0.0020915
-7.67091e-05
2.97264e-05
3.42633e-06
-0.00242525
1.63285e-05
4.16593e-06
-0.00243641
9.9094e-07
4.76823e-06
-0.00244389
-1.62477e-05
5.09849e-06
-0.00244711
-3.51655e-05
5.1219e-06
-0.00244494