/*--------------------------------*- C++ -*----------------------------------*\
| =========                 |                                                 |
| \\      /  F ield         | foam-extend: Open Source CFD                    |
|  \\    /   O peration     | Version:     4.0                                |
|   \\  /    A nd           | Web:         http://www.foam-extend.org         |
|    \\/     M anipulation  |                                                 |
\*---------------------------------------------------------------------------*/
FoamFile
{
    version     2.0;
    format      ascii;
    class       volVectorField;
    location    "3400";
    object      Urel;
}
// * * * * * * * * * * * * * * * * * * * * * * * * * * * * * * * * * * * * * //

dimensions      [0 1 -1 0 0 0 0];

internalField   nonuniform List<vector> 
34480
(
(212.108 -5.13161 -19.9645)
(213.718 -5.92845 -24.5789)
(215.134 -6.48804 -29.8693)
(216.365 -6.80726 -36.1194)
(217.388 -6.87957 -43.7273)
(217.969 -6.68961 -53.1766)
(217.244 -6.20766 -64.8186)
(212.898 -5.49972 -79.158)
(200.036 -4.89321 -98.7324)
(167.926 -4.34953 -119.474)
(214.236 -5.40334 -26.9675)
(216.15 -5.08433 -31.0631)
(217.837 -4.73408 -35.5503)
(219.285 -4.32809 -40.7027)
(220.575 -3.87756 -46.9905)
(221.678 -3.41191 -55.1104)
(222.075 -2.93741 -65.8563)
(219.995 -2.47024 -80.074)
(210.885 -2.33353 -101.484)
(180.445 -2.76017 -130.006)
(215.43 -9.93794 -32.0144)
(217.613 -8.92303 -35.8846)
(219.616 -7.94534 -40.0361)
(221.442 -6.9815 -44.7362)
(223.166 -6.03101 -50.4216)
(224.866 -5.13706 -57.9002)
(226.23 -4.32427 -68.2609)
(225.772 -3.58478 -82.6656)
(219.385 -3.21533 -105.554)
(190.571 -3.5431 -140.531)
(215.715 -13.6467 -37.5458)
(218.375 -12.1675 -41.4722)
(220.888 -10.7412 -45.6599)
(223.264 -9.33672 -50.3419)
(225.528 -7.96108 -55.9091)
(227.77 -6.65992 -63.1597)
(229.811 -5.47045 -73.3336)
(230.446 -4.39155 -87.9298)
(225.991 -3.73792 -111.931)
(198.232 -3.93613 -151.7)
(215.91 -18.3348 -43.0103)
(218.996 -16.5799 -47.0541)
(221.95 -14.8781 -51.4045)
(224.804 -13.1746 -56.2074)
(227.556 -11.5002 -61.8548)
(230.279 -9.90307 -69.0924)
(232.869 -8.43541 -79.2393)
(234.357 -7.10387 -94.1225)
(231.394 -6.2486 -119.185)
(204.232 -6.41432 -162.768)
(215.744 -22.049 -49.5294)
(219.155 -19.9994 -53.6708)
(222.435 -18.0042 -58.1357)
(225.642 -15.9778 -63.0243)
(228.769 -13.9571 -68.7395)
(231.873 -11.9809 -75.9744)
(234.888 -10.1065 -86.081)
(237.045 -8.35825 -101.198)
(235.24 -7.14504 -127.235)
(208.282 -7.17678 -174.034)
(215.73 -27.0703 -55.8481)
(219.354 -24.8257 -60.1197)
(222.824 -22.6069 -64.7523)
(226.233 -20.3168 -69.7739)
(229.583 -18.01 -75.5999)
(232.931 -15.7134 -82.8662)
(236.256 -13.4696 -92.9322)
(239.006 -11.2755 -108.233)
(238.291 -9.5082 -135.152)
(211.651 -8.95254 -184.712)
(215.476 -30.8332 -63.4549)
(219.187 -28.3132 -67.767)
(222.714 -25.78 -72.4339)
(226.176 -23.143 -77.475)
(229.58 -20.4514 -83.2839)
(232.989 -17.7101 -90.4338)
(236.449 -14.9183 -100.241)
(239.672 -12.0373 -115.363)
(240.104 -9.4314 -142.704)
(214.22 -7.95939 -194.405)
(215.497 -36.7518 -70.345)
(219.218 -33.9987 -74.6972)
(222.747 -31.1417 -79.4466)
(226.226 -28.1415 -84.5971)
(229.659 -25.0689 -90.5453)
(233.089 -21.918 -97.7744)
(236.581 -18.6347 -107.492)
(240.123 -15.0814 -122.394)
(241.632 -11.3662 -150.027)
(216.607 -8.24809 -203.159)
(214.42 -41.1588 -78.2964)
(218.152 -38.0946 -82.5004)
(221.7 -34.9131 -87.1267)
(225.185 -31.5639 -92.1857)
(228.559 -28.0597 -98.0524)
(231.836 -24.3643 -105.177)
(235.117 -20.3828 -114.655)
(238.699 -15.9207 -128.883)
(241.417 -11.0198 -155.986)
(218.284 -6.23579 -209.373)
(204.292 6.142 1.56048)
(205.221 4.59768 -1.8699)
(205.648 3.24362 -5.77715)
(205.459 2.10562 -10.2266)
(204.466 1.18213 -15.3699)
(202.342 0.483646 -21.3321)
(198.58 0.00793058 -28.1627)
(192.523 -0.272226 -35.6723)
(182.726 -0.419352 -42.8908)
(164.057 -0.55985 -45.4033)
(208.278 9.6309 1.58827)
(209.657 8.68348 -1.42742)
(210.613 7.71606 -4.82995)
(210.995 6.78513 -8.67527)
(210.664 5.89251 -13.1618)
(209.336 5.02103 -18.5796)
(206.398 4.15049 -25.3174)
(200.929 3.27404 -33.6396)
(191.477 2.35875 -43.4764)
(171.619 1.28206 -50.4694)
(210.608 9.1735 3.66743)
(212.337 8.46412 0.905757)
(213.714 7.67673 -2.1807)
(214.64 6.838 -5.75966)
(214.979 5.97594 -9.9948)
(214.505 5.06921 -15.2715)
(212.632 4.09068 -22.1939)
(208.216 3.02144 -31.43)
(199.593 1.82904 -43.7748)
(178.842 0.424568 -55.8127)
(211.63 9.51186 5.41661)
(213.849 8.86825 2.74344)
(215.772 8.12486 -0.26573)
(217.326 7.30196 -3.8139)
(218.348 6.42648 -8.06058)
(218.624 5.48115 -13.4049)
(217.604 4.43955 -20.5573)
(214.081 3.27304 -30.5177)
(206.241 1.91607 -44.9319)
(184.755 0.28036 -61.8756)
(212.308 8.86358 7.33336)
(214.963 8.11927 4.71272)
(217.362 7.26697 1.68075)
(219.45 6.3476 -1.90396)
(221.068 5.36338 -6.2575)
(221.991 4.29947 -11.7497)
(221.703 3.11864 -19.1587)
(218.993 1.78944 -29.7745)
(211.912 0.233074 -45.9999)
(189.78 -1.60923 -67.6745)
(212.488 9.22605 8.23338)
(215.495 8.40138 5.70226)
(218.262 7.45349 2.7154)
(220.759 6.45553 -0.832017)
(222.848 5.40143 -5.21121)
(224.298 4.2909 -10.7679)
(224.619 3.0862 -18.3215)
(222.631 1.7519 -29.4114)
(216.246 0.166042 -47.0616)
(193.41 -1.76348 -72.9481)
(212.719 8.2468 9.38468)
(215.97 7.24603 6.91884)
(218.979 6.1411 3.93149)
(221.746 5.02123 0.38691)
(224.161 3.85948 -4.0325)
(226.004 2.66648 -9.64802)
(226.831 1.40699 -17.3024)
(225.54 0.0625698 -28.7714)
(219.925 -1.45634 -47.6565)
(196.593 -3.27684 -77.5008)
(212.63 8.55069 9.26086)
(216.008 7.44527 6.95797)
(219.138 6.26285 4.12038)
(222.045 5.09415 0.713198)
(224.643 3.91375 -3.58673)
(226.734 2.74646 -9.08118)
(227.94 1.58631 -16.6054)
(227.299 0.444923 -28.1101)
(222.614 -0.76652 -47.7912)
(199.275 -2.38974 -81.1483)
(212.673 6.69726 9.83857)
(216.083 5.4214 7.71163)
(219.255 4.15464 4.9996)
(222.248 2.94471 1.68624)
(224.999 1.74726 -2.59811)
(227.322 0.586558 -8.13163)
(228.856 -0.513867 -15.7035)
(228.781 -1.48026 -27.2281)
(225.074 -2.19524 -47.6309)
(201.922 -3.22077 -84.0151)
(211.706 6.48513 9.27338)
(215.128 5.09088 7.43975)
(218.343 3.73909 5.04426)
(221.38 2.44978 2.02381)
(224.164 1.23646 -1.9698)
(226.526 0.14502 -7.25186)
(228.178 -0.756307 -14.6349)
(228.481 -1.31582 -25.767)
(225.915 -1.36176 -46.3575)
(203.739 -1.22796 -84.6922)
(198.507 4.90343 0.455476)
(199 3.72681 -2.21871)
(198.968 2.70218 -5.15303)
(198.332 1.84198 -8.36229)
(196.96 1.16302 -11.8023)
(194.675 0.673325 -15.3722)
(191.256 0.35785 -18.8724)
(186.47 0.163108 -21.9778)
(179.963 0.00976368 -23.948)
(171.056 -0.208839 -23.0072)
(203.364 8.23799 0.412969)
(204.291 7.46152 -2.14169)
(204.737 6.65365 -4.96481)
(204.574 5.86227 -8.06814)
(203.629 5.09827 -11.4891)
(201.64 4.35909 -15.2146)
(198.228 3.63394 -19.1713)
(192.883 2.90696 -23.1371)
(184.902 2.16282 -26.4407)
(173.288 1.36553 -27.0816)
(206.389 7.99834 2.32912)
(207.697 7.37325 -0.151689)
(208.574 6.66373 -2.91343)
(208.898 5.90415 -6.03168)
(208.508 5.11616 -9.57187)
(207.11 4.28858 -13.6386)
(204.195 3.40786 -18.3059)
(198.994 2.4602 -23.4949)
(190.415 1.43336 -28.674)
(176.488 0.301732 -31.7283)
(207.991 8.44905 3.94661)
(209.774 7.86901 1.47299)
(211.169 7.18582 -1.30477)
(212.073 6.41908 -4.54101)
(212.29 5.59926 -8.29055)
(211.509 4.71106 -12.7329)
(209.134 3.74124 -18.0523)
(204.175 2.67375 -24.3473)
(195.18 1.48646 -31.3292)
(179.139 0.154736 -37.1169)
(209.103 7.86147 5.83535)
(211.314 7.18298 3.35991)
(213.177 6.39912 0.503938)
(214.601 5.53894 -2.86891)
(215.374 4.61647 -6.85715)
(215.176 3.61327 -11.6682)
(213.352 2.50577 -17.5868)
(208.735 1.27222 -24.9158)
(199.529 -0.111684 -33.6544)
(181.636 -1.63682 -42.4727)
(209.622 8.30848 6.75504)
(212.191 7.55738 4.33599)
(214.435 6.68792 1.48947)
(216.277 5.75456 -1.9058)
(217.518 4.76574 -6.01094)
(217.825 3.71432 -11.047)
(216.509 2.57401 -17.3866)
(212.279 1.31649 -25.5499)
(203.005 -0.111166 -35.8339)
(183.512 -1.72511 -47.7098)
(210.105 7.36071 7.99169)
(212.936 6.4469 5.61584)
(215.448 5.43651 2.74394)
(217.591 4.39737 -0.688504)
(219.187 3.31859 -4.90266)
(219.905 2.20074 -10.1259)
(219.057 1.01681 -16.8079)
(215.281 -0.257479 -25.7044)
(206.138 -1.65692 -37.4526)
(185.361 -3.20634 -52.4992)
(210.207 7.72698 7.96372)
(213.192 6.71559 5.73837)
(215.862 5.63441 3.00657)
(218.194 4.55595 -0.304608)
(220.033 3.4714 -4.44082)
(221.065 2.39106 -9.6398)
(220.631 1.30633 -16.4026)
(217.369 0.210835 -25.7032)
(208.601 -0.932702 -38.586)
(186.943 -2.37348 -56.596)
(210.363 5.90717 8.62491)
(213.394 4.72085 6.55288)
(216.126 3.54758 3.93438)
(218.562 2.42411 0.721667)
(220.589 1.33011 -3.39244)
(221.911 0.278797 -8.6656)
(221.891 -0.709596 -15.6277)
(219.188 -1.60188 -25.3125)
(210.935 -2.29132 -39.2979)
(188.494 -3.29447 -59.8484)
(209.572 5.86757 8.11112)
(212.612 4.54722 6.2854)
(215.391 3.28895 3.95986)
(217.876 2.0854 1.02316)
(219.946 0.970561 -2.807)
(221.33 -0.0152634 -7.81156)
(221.53 -0.80403 -14.6004)
(219.33 -1.28859 -24.1871)
(211.839 -1.30418 -38.8532)
(189.045 -1.19847 -60.8216)
(194.404 3.82626 -0.0960282)
(194.636 3.0083 -1.97593)
(194.426 2.2913 -3.97612)
(193.731 1.68772 -6.06949)
(192.493 1.21282 -8.16665)
(190.656 0.868772 -10.1444)
(188.194 0.640229 -11.8176)
(185.172 0.477051 -12.9432)
(181.725 0.299186 -13.1122)
(177.802 0.0197844 -11.7335)
(199.38 6.84121 -0.297201)
(199.959 6.26027 -2.29991)
(200.077 5.6366 -4.44082)
(199.646 5.00641 -6.72339)
(198.548 4.38945 -9.10108)
(196.639 3.78968 -11.4634)
(193.753 3.20094 -13.6255)
(189.75 2.61151 -15.2887)
(184.542 2.01667 -15.8845)
(178.272 1.42748 -14.6616)
(202.712 6.79129 1.32537)
(203.65 6.27421 -0.775292)
(204.138 5.66877 -3.08187)
(204.066 5.01342 -5.60405)
(203.298 4.32629 -8.342)
(201.623 3.60528 -11.2512)
(198.752 2.84317 -14.1975)
(194.348 2.03062 -16.8715)
(188.081 1.16269 -18.5552)
(179.826 0.253084 -18.1477)
(204.686 7.36489 2.70957)
(206.058 6.86751 0.525193)
(206.999 6.26305 -1.9076)
(207.396 5.57742 -4.67205)
(207.07 4.83714 -7.76857)
(205.754 4.03552 -11.2182)
(203.04 3.16855 -14.9395)
(198.378 2.22726 -18.6539)
(191.167 1.20129 -21.5541)
(180.893 0.103935 -22.3268)
(206.126 6.8423 4.4904)
(207.903 6.24227 2.23762)
(209.272 5.53852 -0.342092)
(210.126 4.75673 -3.35098)
(210.25 3.91535 -6.80116)
(209.338 2.99851 -10.7703)
(206.877 1.99624 -15.2419)
(202.114 0.895423 -20.0155)
(194.137 -0.316484 -24.2502)
(181.958 -1.6013 -26.6177)
(206.926 7.37365 5.36726)
(209.055 6.70507 3.12483)
(210.791 5.92297 0.506499)
(212.037 5.07028 -2.60167)
(212.567 4.16433 -6.2611)
(212.043 3.19495 -10.5851)
(209.868 2.14932 -15.6318)
(205.104 1.00915 -21.3135)
(196.505 -0.257547 -26.8023)
(182.557 -1.63577 -30.9313)
(207.632 6.45867 6.64276)
(210.029 5.63568 4.41001)
(212.04 4.72373 1.72926)
(213.588 3.7744 -1.47333)
(214.452 2.78927 -5.32031)
(214.276 1.7622 -9.95056)
(212.409 0.677838 -15.5033)
(207.761 -0.482428 -22.0422)
(198.743 -1.74538 -28.8219)
(183.242 -3.09551 -34.9914)
(207.909 6.90424 6.67498)
(210.477 5.98955 4.57075)
(212.669 5.01022 2.00787)
(214.425 4.02414 -1.10685)
(215.546 3.03702 -4.93105)
(215.673 2.04959 -9.63369)
(214.131 1.05702 -15.4258)
(209.725 0.0492996 -22.5454)
(200.548 -1.00682 -30.4239)
(183.794 -2.29541 -38.6407)
(208.161 5.13113 7.44366)
(210.792 4.04289 5.46595)
(213.061 2.9662 2.98972)
(214.933 1.92999 -0.0443256)
(216.24 0.933375 -3.85767)
(216.646 -0.016246 -8.66128)
(215.475 -0.894232 -14.7456)
(211.453 -1.68549 -22.4626)
(202.349 -2.32847 -31.5362)
(184.418 -3.25678 -41.6448)
(207.487 5.2631 6.98286)
(210.138 4.03828 5.21718)
(212.467 2.88426 3.00777)
(214.403 1.77835 0.223466)
(215.783 0.770765 -3.33202)
(216.281 -0.105386 -7.88426)
(215.312 -0.777887 -13.812)
(211.668 -1.16513 -21.5964)
(202.975 -1.1409 -31.552)
(184.16 -1.05134 -42.6975)
(191.878 2.90996 -0.317718)
(191.99 2.37841 -1.54437)
(191.783 1.90335 -2.82109)
(191.243 1.49821 -4.10488)
(190.357 1.17344 -5.31849)
(189.124 0.929304 -6.36976)
(187.583 0.755125 -7.1379)
(185.869 0.610937 -7.50637)
(184.266 0.428858 -7.30409)
(182.95 0.127506 -6.34014)
(196.415 5.53582 -0.65967)
(196.769 5.13888 -2.1295)
(196.741 4.6888 -3.64625)
(196.282 4.21454 -5.20764)
(195.332 3.73948 -6.74541)
(193.834 3.27133 -8.14989)
(191.744 2.80997 -9.26258)
(189.074 2.34984 -9.87514)
(185.933 1.89392 -9.68244)
(182.653 1.46628 -8.45878)
(199.668 5.61463 0.643408)
(200.326 5.21072 -1.04256)
(200.572 4.71918 -2.8585)
(200.328 4.17743 -4.77979)
(199.502 3.60289 -6.76832)
(197.977 2.99924 -8.72622)
(195.626 2.36384 -10.4867)
(192.357 1.69254 -11.7754)
(188.185 0.987034 -12.1176)
(183.474 0.274742 -11.0367)
(201.774 6.3 1.74574)
(202.806 5.89475 -0.0983568)
(203.415 5.38257 -2.12447)
(203.503 4.79235 -4.36208)
(202.937 4.14874 -6.77327)
(201.532 3.45236 -9.29364)
(199.059 2.70449 -11.7555)
(195.283 1.90241 -13.8371)
(190.068 1.04392 -14.8835)
(183.754 0.160494 -14.1809)
(203.394 5.8375 3.36338)
(204.793 5.32486 1.38967)
(205.768 4.71049 -0.849897)
(206.218 4.02196 -3.40421)
(205.964 3.27605 -6.24086)
(204.768 2.46456 -9.33634)
(202.296 1.58533 -12.542)
(198.146 0.631845 -15.5252)
(191.973 -0.402359 -17.4641)
(184.024 -1.467 -17.4864)
(204.38 6.44839 4.14724)
(206.111 5.87025 2.13588)
(207.419 5.18284 -0.189398)
(208.205 4.42392 -2.91383)
(208.261 3.61456 -6.02596)
(207.305 2.74663 -9.54538)
(204.903 1.81623 -13.3599)
(200.482 0.811456 -17.1609)
(193.442 -0.290247 -19.9887)
(183.877 -1.45818 -20.8987)
(205.246 5.56645 5.4182)
(207.241 4.8403 3.37818)
(208.815 4.03072 0.949579)
(209.879 3.17987 -1.92838)
(210.212 2.29719 -5.29543)
(209.5 1.37566 -9.2027)
(207.228 0.408161 -13.5946)
(202.661 -0.619869 -18.2271)
(194.904 -1.73321 -22.0552)
(183.827 -2.89664 -24.1546)
(205.662 6.09942 5.47464)
(207.838 5.28846 3.5342)
(209.598 4.41527 1.19291)
(210.868 3.52884 -1.6397)
(211.434 2.64443 -5.03982)
(210.964 1.76035 -9.09696)
(208.884 0.874636 -13.8184)
(204.319 -0.0268558 -19.0629)
(196.064 -0.979325 -23.7816)
(183.655 -2.10559 -27.1463)
(206.006 4.37194 6.33837)
(208.261 3.3922 4.49327)
(210.11 2.41963 2.20252)
(211.497 1.48077 -0.584055)
(212.231 0.586881 -4.00424)
(211.987 -0.255371 -8.19328)
(210.168 -1.02271 -13.2542)
(205.778 -1.71371 -19.154)
(197.266 -2.29623 -24.949)
(183.595 -3.1054 -29.6308)
(205.431 4.67552 5.90434)
(207.714 3.56389 4.24375)
(209.633 2.52406 2.19108)
(211.093 1.52904 -0.378861)
(211.91 0.63804 -3.58419)
(211.76 -0.119944 -7.57612)
(210.09 -0.676368 -12.5313)
(205.896 -0.968864 -18.5396)
(197.465 -0.913993 -25.121)
(182.773 -0.833273 -30.4953)
(190.517 2.15599 -0.357234)
(190.577 1.82875 -1.11093)
(190.427 1.52754 -1.88508)
(190.066 1.26498 -2.63764)
(189.499 1.04691 -3.3172)
(188.744 0.873369 -3.86663)
(187.849 0.739027 -4.21479)
(186.941 0.614282 -4.31966)
(186.313 0.444454 -4.10335)
(186.253 0.142339 -3.5316)
(194.354 4.38332 -0.792012)
(194.568 4.13913 -1.81213)
(194.495 3.83621 -2.827)
(194.111 3.49754 -3.83429)
(193.395 3.14625 -4.77384)
(192.338 2.79207 -5.56592)
(190.949 2.44003 -6.1068)
(189.28 2.09051 -6.27875)
(187.449 1.75154 -5.93519)
(185.689 1.44616 -5.04339)
(197.275 4.51714 0.221252)
(197.725 4.21919 -1.06634)
(197.833 3.83851 -2.42394)
(197.549 3.40797 -3.81714)
(196.823 2.94422 -5.19581)
(195.604 2.45395 -6.46222)
(193.859 1.93837 -7.47916)
(191.606 1.39823 -8.06111)
(188.957 0.840799 -7.95009)
(186.237 0.293587 -6.9713)
(199.322 5.28916 1.03418)
(200.077 4.97694 -0.45634)
(200.454 4.56222 -2.06583)
(200.377 4.07316 -3.79401)
(199.759 3.53314 -5.58462)
(198.495 2.94747 -7.34543)
(196.482 2.32078 -8.91059)
(193.665 1.65574 -10.0259)
(190.108 0.958146 -10.2797)
(186.23 0.263304 -9.32746)
(200.987 4.87448 2.45862)
(202.06 4.45224 0.793324)
(202.731 3.93291 -1.07499)
(202.913 3.34438 -3.15275)
(202.475 2.70175 -5.38532)
(201.259 2.00328 -7.69689)
(199.081 1.2513 -9.90814)
(195.777 0.445063 -11.7142)
(191.311 -0.413917 -12.5292)
(186.169 -1.27389 -11.852)
(202.064 5.5545 3.1141)
(203.439 5.07056 1.37006)
(204.396 4.48227 -0.623745)
(204.841 3.8256 -2.9143)
(204.61 3.12084 -5.45246)
(203.494 2.36443 -8.19287)
(201.22 1.55751 -10.959)
(197.501 0.693569 -13.4196)
(192.147 -0.239481 -14.8158)
(185.679 -1.20344 -14.5097)
(203.028 4.70357 4.34333)
(204.655 4.07796 2.53365)
(205.851 3.37337 0.399625)
(206.531 2.6272 -2.09297)
(206.503 1.85236 -4.92787)
(205.519 1.044 -8.08824)
(203.223 0.200118 -11.4232)
(199.192 -0.689853 -14.6063)
(193.034 -1.64323 -16.729)
(185.251 -2.61256 -17.0497)
(203.539 5.32679 4.38943)
(205.348 4.62477 2.6475)
(206.724 3.86162 0.567658)
(207.59 3.08175 -1.92178)
(207.749 2.30521 -4.8338)
(206.923 1.53128 -8.18841)
(204.686 0.759601 -11.8751)
(200.482 -0.0268167 -15.6103)
(193.679 -0.860249 -18.3867)
(184.675 -1.80716 -19.4003)
(203.96 3.64025 5.32524)
(205.858 2.77603 3.64483)
(207.329 1.91339 1.57472)
(208.308 1.08012 -0.912496)
(208.602 0.293609 -3.88542)
(207.933 -0.438202 -7.40205)
(205.833 -1.09571 -11.4357)
(201.624 -1.68824 -15.778)
(194.384 -2.19898 -19.4231)
(184.212 -2.85856 -21.2822)
(203.457 4.11677 4.89234)
(205.392 3.12987 3.37262)
(206.937 2.21109 1.51101)
(207.991 1.33582 -0.79533)
(208.368 0.566006 -3.60065)
(207.78 -0.0718444 -6.98277)
(205.765 -0.517639 -10.9719)
(201.596 -0.727356 -15.427)
(194.217 -0.654243 -19.645)
(183.073 -0.570722 -21.8916)
(189.943 1.55403 -0.313793)
(189.982 1.36011 -0.755625)
(189.89 1.17482 -1.20899)
(189.673 1.00941 -1.63781)
(189.339 0.866287 -2.01293)
(188.906 0.745958 -2.30197)
(188.413 0.64701 -2.46248)
(187.964 0.546541 -2.48991)
(187.832 0.399005 -2.33371)
(188.413 0.10757 -2.0252)
(193.029 3.41322 -0.792452)
(193.159 3.28331 -1.46857)
(193.091 3.09492 -2.1159)
(192.812 2.86575 -2.73521)
(192.32 2.61665 -3.28277)
(191.625 2.35777 -3.70778)
(190.751 2.09718 -3.95069)
(189.749 1.83939 -3.95268)
(188.7 1.59486 -3.64728)
(187.739 1.38122 -3.05665)
(195.486 3.53431 -0.0132011)
(195.789 3.32633 -0.953707)
(195.827 3.04402 -1.92438)
(195.574 2.71424 -2.89373)
(195.006 2.352 -3.81563)
(194.111 1.96498 -4.61348)
(192.895 1.55703 -5.19196)
(191.409 1.13223 -5.43984)
(189.761 0.70038 -5.22844)
(188.164 0.284483 -4.51104)
(197.336 4.36086 0.532069)
(197.878 4.13479 -0.624067)
(198.102 3.81398 -1.84796)
(197.959 3.4237 -3.12807)
(197.398 2.98583 -4.40647)
(196.369 2.50833 -5.59582)
(194.845 1.99802 -6.56448)
(192.845 1.46136 -7.13952)
(190.486 0.909185 -7.09088)
(188.082 0.373496 -6.27218)
(198.933 3.97725 1.75616)
(199.738 3.64203 0.400807)
(200.186 3.21721 -1.0997)
(200.21 2.7284 -2.72742)
(199.725 2.18978 -4.42088)
(198.638 1.60404 -6.09076)
(196.866 0.976297 -7.57613)
(194.377 0.310388 -8.64521)
(191.255 -0.385693 -8.93391)
(187.921 -1.06576 -8.18734)
(200.017 4.71102 2.26442)
(201.085 4.31967 0.80189)
(201.765 3.83066 -0.849185)
(201.978 3.27818 -2.70287)
(201.606 2.68023 -4.69733)
(200.512 2.03789 -6.75504)
(198.547 1.35515 -8.6973)
(195.6 0.630368 -10.2447)
(191.689 -0.13909 -10.8853)
(187.33 -0.916239 -10.2414)
(201.017 3.88678 3.42392)
(202.316 3.36122 1.86542)
(203.201 2.76122 0.0459197)
(203.596 2.1216 -2.03861)
(203.353 1.45545 -4.34394)
(202.294 0.761549 -6.81128)
(200.2 0.0411168 -9.26292)
(196.867 -0.711802 -11.3917)
(192.195 -1.50518 -12.5388)
(186.776 -2.28893 -12.1978)
(201.578 4.59836 3.43077)
(203.051 4.00637 1.90994)
(204.1 3.35427 0.114537)
(204.65 2.68416 -2.00128)
(204.538 2.01716 -4.40969)
(203.554 1.35492 -7.08192)
(201.414 0.698575 -9.85751)
(197.808 0.0316621 -12.432)
(192.48 -0.673395 -14.0227)
(186.037 -1.445 -14.0109)
(202.054 2.94565 4.41525)
(203.622 2.19945 2.92252)
(204.765 1.44913 1.09661)
(205.416 0.725265 -1.06158)
(205.406 0.0468394 -3.57128)
(204.511 -0.576399 -6.42833)
(202.4 -1.12822 -9.53155)
(198.666 -1.62288 -12.6137)
(192.845 -2.0517 -14.8544)
(185.418 -2.56528 -15.3596)
(201.599 3.59698 3.96)
(203.208 2.74067 2.60704)
(204.425 1.94609 0.96151)
(205.147 1.1943 -1.04938)
(205.208 0.545006 -3.43327)
(204.37 0.0226599 -6.2074)
(202.289 -0.323353 -9.31223)
(198.488 -0.46465 -12.5014)
(192.414 -0.383174 -15.1191)
(184.175 -0.298672 -15.7966)
(189.841 1.08594 -0.24124)
(189.871 0.973389 -0.490289)
(189.821 0.861149 -0.75083)
(189.699 0.759394 -0.991668)
(189.513 0.667914 -1.19913)
(189.276 0.587612 -1.35557)
(189.014 0.519513 -1.43308)
(188.812 0.444552 -1.44488)
(188.924 0.322773 -1.34422)
(189.831 0.0469588 -1.19447)
(192.25 2.62934 -0.728262)
(192.332 2.57772 -1.15924)
(192.283 2.47232 -1.55459)
(192.098 2.32636 -1.91874)
(191.783 2.1577 -2.2236)
(191.349 1.97599 -2.43899)
(190.82 1.79024 -2.53273)
(190.231 1.60671 -2.47701)
(189.635 1.43651 -2.24269)
(189.103 1.29208 -1.85927)
(194.213 2.6881 -0.121738)
(194.416 2.54971 -0.783095)
(194.424 2.34791 -1.45221)
(194.226 2.10362 -2.10377)
(193.815 1.8294 -2.70193)
(193.194 1.5326 -3.19372)
(192.384 1.21821 -3.51923)
(191.432 0.891628 -3.61656)
(190.418 0.562509 -3.4231)
(189.467 0.24852 -2.93724)
(195.792 3.53672 0.194134)
(196.173 3.38413 -0.669291)
(196.303 3.14685 -1.56365)
(196.151 2.84657 -2.47607)
(195.692 2.50316 -3.35641)
(194.911 2.12577 -4.13546)
(193.812 1.72232 -4.72077)
(192.44 1.30126 -5.00452)
(190.899 0.875154 -4.86511)
(189.392 0.470273 -4.24627)
(197.239 3.16591 1.22802)
(197.829 2.90908 0.161247)
(198.121 2.57225 -1.00264)
(198.066 2.17741 -2.23528)
(197.612 1.73788 -3.47875)
(196.716 1.25904 -4.65194)
(195.353 0.747694 -5.63019)
(193.547 0.210634 -6.2544)
(191.409 -0.340848 -6.31295)
(189.235 -0.86889 -5.68715)
(198.259 3.93459 1.58546)
(199.072 3.6292 0.397996)
(199.543 3.235 -0.923331)
(199.611 2.78266 -2.37269)
(199.2 2.28872 -3.88675)
(198.228 1.7574 -5.38305)
(196.63 1.19443 -6.71025)
(194.391 0.601899 -7.65949)
(191.604 -0.0163181 -7.91164)
(188.666 -0.629528 -7.26152)
(199.243 3.13111 2.65731)
(200.257 2.7007 1.35352)
(200.895 2.20143 -0.153004)
(201.094 1.66568 -1.84039)
(200.748 1.10501 -3.6568)
(199.742 0.522194 -5.52457)
(197.957 -0.0795851 -7.27958)
(195.324 -0.701802 -8.6722)
(191.883 -1.34472 -9.26752)
(188.125 -1.96224 -8.74866)
(199.809 3.92498 2.60357)
(200.983 3.43964 1.31309)
(201.763 2.89598 -0.192425)
(202.081 2.33441 -1.9332)
(201.813 1.77466 -3.86097)
(200.814 1.22119 -5.91873)
(198.914 0.676682 -7.94184)
(195.97 0.127869 -9.66236)
(191.938 -0.447496 -10.5326)
(187.369 -1.05952 -10.1316)
(200.316 2.29699 3.61613)
(201.587 1.66675 2.32353)
(202.453 1.02746 0.752468)
(202.856 0.412356 -1.06902)
(202.657 -0.161088 -3.13046)
(201.692 -0.681526 -5.38626)
(199.746 -1.13541 -7.70592)
(196.608 -1.53726 -9.82732)
(192.106 -1.8809 -11.1573)
(186.762 -2.26556 -11.0609)
(199.887 3.12528 3.11762)
(201.199 2.40006 1.94689)
(202.135 1.72884 0.531612)
(202.599 1.09919 -1.17044)
(202.453 0.565097 -3.13723)
(201.517 0.148815 -5.34295)
(199.556 -0.111578 -7.68512)
(196.295 -0.200204 -9.89517)
(191.506 -0.117996 -11.4578)
(185.526 -0.0387501 -11.3985)
(189.988 0.728545 -0.165396)
(190.013 0.663002 -0.300889)
(189.99 0.594652 -0.450946)
(189.925 0.533205 -0.586513)
(189.825 0.476333 -0.703885)
(189.699 0.425056 -0.793474)
(189.565 0.381653 -0.834271)
(189.49 0.329181 -0.848352)
(189.714 0.231406 -0.786065)
(190.787 -0.0284152 -0.728865)
(191.849 2.0182 -0.641719)
(191.901 2.01605 -0.907233)
(191.871 1.96714 -1.13817)
(191.758 1.88103 -1.3417)
(191.566 1.77273 -1.50173)
(191.306 1.65099 -1.60117)
(190.994 1.5246 -1.62323)
(190.655 1.40002 -1.55486)
(190.318 1.28772 -1.38333)
(190.02 1.19591 -1.1328)
(193.351 1.98505 -0.151944)
(193.485 1.89596 -0.602995)
(193.485 1.75572 -1.05184)
(193.344 1.57993 -1.47896)
(193.063 1.3783 -1.85903)
(192.65 1.15712 -2.15765)
(192.128 0.921307 -2.33918)
(191.531 0.67609 -2.37076)
(190.912 0.429469 -2.22224)
(190.342 0.194053 -1.90547)
(194.637 2.8289 -0.0211106)
(194.9 2.73436 -0.64428)
(194.975 2.56653 -1.27513)
(194.843 2.34354 -1.90346)
(194.494 2.08283 -2.48999)
(193.929 1.79358 -2.98476)
(193.165 1.48396 -3.32765)
(192.247 1.16287 -3.45546)
(191.252 0.842491 -3.30668)
(190.304 0.543199 -2.86217)
(195.885 2.45411 0.843686)
(196.31 2.26376 0.0292258)
(196.497 2.0044 -0.846264)
(196.412 1.69396 -1.7526)
(196.03 1.34458 -2.64047)
(195.333 0.962969 -3.44487)
(194.326 0.556689 -4.07755)
(193.052 0.13386 -4.43693)
(191.609 -0.293641 -4.40526)
(190.189 -0.696689 -3.93196)
(196.793 3.23765 1.0588)
(197.398 3.00801 0.124221)
(197.717 2.69993 -0.899547)
(197.706 2.33969 -1.99735)
(197.317 1.94261 -3.11096)
(196.512 1.51479 -4.16695)
(195.271 1.06296 -5.04997)
(193.623 0.591511 -5.61628)
(191.672 0.107664 -5.67696)
(189.694 -0.366215 -5.12819)
(197.718 2.44868 2.03448)
(198.493 2.10491 0.974035)
(198.943 1.69943 -0.238094)
(199.018 1.26068 -1.56542)
(198.647 0.799315 -2.95582)
(197.765 0.320662 -4.33137)
(196.319 -0.170749 -5.55835)
(194.31 -0.672884 -6.45214)
(191.83 -1.18131 -6.74294)
(189.237 -1.65698 -6.24439)
(198.249 3.31568 1.90686)
(199.165 2.92958 0.843365)
(199.731 2.48829 -0.382164)
(199.89 2.02983 -1.77024)
(199.555 1.57145 -3.26638)
(198.634 1.12012 -4.80191)
(197.038 0.679749 -6.23218)
(194.725 0.241207 -7.34712)
(191.751 -0.212102 -7.78769)
(188.54 -0.684945 -7.29466)
(198.768 1.7017 2.93136)
(199.775 1.1812 1.8406)
(200.418 0.648066 0.522179)
(200.643 0.137041 -0.974181)
(200.347 -0.337735 -2.62458)
(199.419 -0.763829 -4.36129)
(197.736 -1.1301 -6.05531)
(195.21 -1.44919 -7.48188)
(191.828 -1.71372 -8.24128)
(188.033 -1.99241 -7.92705)
(198.345 2.70916 2.37162)
(199.391 2.11071 1.38836)
(200.095 1.55811 0.206102)
(200.368 1.04476 -1.19107)
(200.107 0.616801 -2.76595)
(199.183 0.294111 -4.46705)
(197.454 0.104097 -6.1819)
(194.783 0.0533453 -7.6658)
(191.131 0.130129 -8.55483)
(186.86 0.198038 -8.19698)
(190.244 0.457541 -0.0961086)
(190.265 0.41791 -0.167081)
(190.256 0.37482 -0.25635)
(190.223 0.33809 -0.334689)
(190.171 0.303663 -0.404701)
(190.105 0.27251 -0.460987)
(190.039 0.24746 -0.485696)
(190.027 0.212809 -0.505938)
(190.295 0.135218 -0.467607)
(191.445 -0.110486 -0.464476)
(191.689 1.55689 -0.556247)
(191.723 1.58359 -0.71462)
(191.707 1.57105 -0.842238)
(191.641 1.52598 -0.947739)
(191.529 1.46094 -1.02323)
(191.378 1.38364 -1.05939)
(191.198 1.30218 -1.04772)
(191.005 1.22253 -0.981896)
(190.816 1.15422 -0.856312)
(190.649 1.10218 -0.68788)
(192.795 1.41772 -0.137402)
(192.884 1.36078 -0.437741)
(192.882 1.26507 -0.733209)
(192.789 1.14157 -1.00902)
(192.606 0.997166 -1.24836)
(192.342 0.836727 -1.4296)
(192.013 0.664412 -1.53196)
(191.644 0.484432 -1.53826)
(191.269 0.302563 -1.43357)
(190.926 0.127105 -1.23231)
(193.804 2.23915 -0.148742)
(193.983 2.18747 -0.584429)
(194.028 2.07427 -1.01526)
(193.926 1.91449 -1.43467)
(193.675 1.72285 -1.81408)
(193.283 1.50789 -2.1193)
(192.767 1.27718 -2.31287)
(192.164 1.03909 -2.35905)
(191.526 0.804382 -2.22808)
(190.929 0.588596 -1.91503)
(194.835 1.8479 0.573282)
(195.136 1.71099 -0.0315156)
(195.254 1.51668 -0.672611)
(195.169 1.27894 -1.32273)
(194.869 1.00833 -1.94274)
(194.351 0.711823 -2.48419)
(193.632 0.396943 -2.88782)
(192.754 0.0718722 -3.09181)
(191.791 -0.252529 -3.03276)
(190.864 -0.554777 -2.69244)
(195.604 2.62735 0.662963)
(196.045 2.46132 -0.0505102)
(196.257 2.22805 -0.819636)
(196.21 1.94926 -1.62706)
(195.878 1.63878 -2.42321)
(195.244 1.30355 -3.14865)
(194.315 0.950671 -3.72089)
(193.133 0.585623 -4.04657)
(191.788 0.216704 -4.01823)
(190.462 -0.141557 -3.58762)
(196.443 1.84781 1.54158)
(197.023 1.57981 0.702258)
(197.333 1.25843 -0.246767)
(197.337 0.907364 -1.26407)
(196.992 0.536487 -2.30188)
(196.263 0.152388 -3.29154)
(195.138 -0.239669 -4.13209)
(193.649 -0.635388 -4.69552)
(191.894 -1.02833 -4.82308)
(190.117 -1.38667 -4.40917)
(196.906 2.77698 1.33445)
(197.605 2.47972 0.484086)
(198.007 2.13185 -0.483024)
(198.066 1.76752 -1.55714)
(197.725 1.40196 -2.68418)
(196.932 1.04319 -3.79702)
(195.65 0.696022 -4.77901)
(193.891 0.354831 -5.47802)
(191.744 0.00834832 -5.6688)
(189.509 -0.348293 -5.20693)
(197.421 1.16528 2.36002)
(198.203 0.744868 1.46298)
(198.667 0.309961 0.383934)
(198.773 -0.105236 -0.81437)
(198.448 -0.490048 -2.10425)
(197.623 -0.831941 -3.41181)
(196.238 -1.12203 -4.62607)
(194.276 -1.37076 -5.57052)
(191.797 -1.56847 -5.99011)
(189.134 -1.7658 -5.64325)
(196.989 2.35422 1.72414)
(197.803 1.87418 0.924254)
(198.319 1.43196 -0.032889)
(198.46 1.02544 -1.14352)
(198.153 0.691988 -2.36638)
(197.313 0.449022 -3.63853)
(195.867 0.314744 -4.85731)
(193.762 0.28959 -5.82136)
(191.052 0.356946 -6.29474)
(188.046 0.410545 -5.85606)
(190.527 0.250242 -0.0353024)
(190.546 0.22431 -0.0706949)
(190.543 0.195117 -0.127927)
(190.527 0.173034 -0.176151)
(190.501 0.152639 -0.222023)
(190.467 0.134817 -0.26226)
(190.434 0.12262 -0.280408)
(190.451 0.10122 -0.306983)
(190.727 0.0399908 -0.283011)
(191.905 -0.193772 -0.312783)
(191.671 1.21935 -0.482987)
(191.694 1.26144 -0.574071)
(191.687 1.2711 -0.638557)
(191.65 1.25299 -0.685488)
(191.587 1.21769 -0.712272)
(191.501 1.17194 -0.714001)
(191.399 1.12298 -0.686533)
(191.29 1.07608 -0.62663)
(191.185 1.04002 -0.531814)
(191.091 1.01738 -0.412623)
(192.455 0.97012 -0.100288)
(192.513 0.93237 -0.296808)
(192.513 0.867331 -0.48923)
(192.454 0.782058 -0.6664)
(192.339 0.680921 -0.817488)
(192.175 0.5673 -0.929211)
(191.973 0.444283 -0.989454)
(191.749 0.314766 -0.989082)
(191.522 0.182263 -0.920117)
(191.316 0.0515116 -0.79599)
(193.226 1.76077 -0.216808)
(193.347 1.73869 -0.511913)
(193.374 1.66644 -0.796739)
(193.301 1.55623 -1.06798)
(193.129 1.42005 -1.30613)
(192.865 1.26529 -1.48866)
(192.526 1.0985 -1.59278)
(192.137 0.9269 -1.59863)
(191.732 0.759514 -1.49238)
(191.355 0.608271 -1.27364)
(194.043 1.34648 0.389342)
(194.252 1.25055 -0.0483942)
(194.327 1.10865 -0.506691)
(194.256 0.931158 -0.96323)
(194.033 0.726836 -1.38871)
(193.663 0.50219 -1.74882)
(193.164 0.264051 -2.00513)
(192.57 0.0198425 -2.12104)
(191.935 -0.221373 -2.06293)
(191.332 -0.444136 -1.82706)
(194.665 2.10532 0.37544)
(194.98 1.99034 -0.152819)
(195.119 1.81946 -0.713378)
(195.063 1.61009 -1.29063)
(194.797 1.37425 -1.84507)
(194.321 1.11884 -2.33159)
(193.647 0.850736 -2.69372)
(192.818 0.5755 -2.87307)
(191.904 0.301154 -2.81006)
(191.019 0.0360574 -2.48549)
(195.405 1.33286 1.16145)
(195.829 1.12863 0.514482)
(196.039 0.879935 -0.209481)
(196.01 0.605622 -0.970725)
(195.715 0.314548 -1.72862)
(195.142 0.0135548 -2.42754)
(194.298 -0.291997 -2.99516)
(193.222 -0.596737 -3.34633)
(191.999 -0.894163 -3.39213)