/*--------------------------------*- C++ -*----------------------------------*\
| =========                 |                                                 |
| \\      /  F ield         | foam-extend: Open Source CFD                    |
|  \\    /   O peration     | Version:     4.0                                |
|   \\  /    A nd           | Web:         http://www.foam-extend.org         |
|    \\/     M anipulation  |                                                 |
\*---------------------------------------------------------------------------*/
FoamFile
{
    version     2.0;
    format      ascii;
    class       volScalarField;
    location    "3100";
    object      divFlux;
}
// * * * * * * * * * * * * * * * * * * * * * * * * * * * * * * * * * * * * * //

dimensions      [1 -3 -1 0 0 0 0];

internalField   nonuniform List<scalar> 
34480
(
1.75443e-05
6.41913e-06
6.80539e-06
6.3113e-06
5.84376e-06
5.47751e-06
5.20278e-06
0.000299257
0.00023489
4.6457e-06
5.37545e-06
2.85036e-06
2.80099e-06
2.59887e-06
2.45271e-06
2.38959e-06
2.38948e-06
2.39383e-06
0.00343014
2.30935e-06
1.93808e-06
8.59616e-07
9.20739e-07
8.77944e-07
8.58791e-07
8.83167e-07
9.38471e-07
9.7476e-07
0.00332669
9.55287e-07
6.88244e-07
3.1348e-07
3.6014e-07
3.41927e-07
3.38376e-07
3.56551e-07
3.82744e-07
3.91488e-07
0.000798824
3.92519e-07
2.85798e-07
1.14221e-07
1.57749e-07
1.40207e-07
1.41582e-07
1.47538e-07
1.60695e-07
1.62397e-07
1.64099e-07
1.6076e-07
1.19352e-07
5.30358e-08
7.01035e-08
5.97369e-08
6.08824e-08
6.65525e-08
7.09054e-08
6.68962e-08
7.1249e-08
7.23372e-08
6.64825e-08
1.88368e-08
3.50772e-08
2.57606e-08
2.87134e-08
2.99862e-08
3.11571e-08
3.09535e-08
3.28372e-08
3.21244e-08
3.13748e-08
1.03093e-08
1.79612e-08
1.21421e-08
1.31501e-08
1.47996e-08
1.51204e-08
1.41582e-08
1.58993e-08
1.50746e-08
2.37531e-08
5.04012e-09
1.15381e-08
7.58101e-09
8.53905e-09
8.33078e-09
6.74793e-09
8.74732e-09
9.70536e-09
9.33048e-09
1.27721e-08
5.61287e-09
6.6438e-09
5.26922e-09
5.46013e-09
5.11649e-09
5.57468e-09
5.72741e-09
6.14742e-09
5.49832e-09
2.54023e-05
8.66806e-06
8.67647e-06
8.11915e-06
7.62654e-06
7.25216e-06
7.00766e-06
6.88201e-06
6.86831e-06
0.00106073
8.1454e-06
4.21682e-06
4.09021e-06
3.84044e-06
3.66825e-06
3.59275e-06
3.59456e-06
3.66218e-06
3.78597e-06
0.00344718
2.39754e-06
1.52534e-06
1.4988e-06
1.45821e-06
1.45203e-06
1.50766e-06
1.58143e-06
1.67655e-06
1.76689e-06
0.00430539
8.85299e-07
6.16815e-07
6.40845e-07
6.60191e-07
6.38077e-07
6.89014e-07
7.17517e-07
7.64159e-07
8.14599e-07
0.00149697
3.07341e-07
2.64577e-07
2.24112e-07
3.72891e-07
2.66768e-07
3.29322e-07
3.34008e-07
3.54758e-07
3.76055e-07
3.86567e-07
8.3213e-08
1.43333e-07
5.13805e-08
2.1649e-07
1.15114e-07
1.62235e-07
1.55739e-07
1.71819e-07
1.84544e-07
1.79046e-07
4.27964e-08
1.67636e-07
1.21917e-07
1.82828e-07
3.55434e-08
7.97004e-08
8.02684e-08
8.48592e-08
8.94974e-08
9.23725e-08
8.55978e-08
1.08831e-07
6.19761e-08
8.62554e-08
2.55997e-08
4.40009e-08
4.04229e-08
4.52362e-08
4.93679e-08
5.11569e-08
6.23645e-08
7.83365e-08
5.03011e-08
5.90138e-08
1.89355e-08
2.4744e-08
2.80354e-08
3.14818e-08
3.13656e-08
2.86792e-08
1.0641e-08
4.4867e-08
7.59615e-09
2.43148e-08
2.12976e-08
2.30724e-08
1.92389e-08
2.10846e-08
2.30369e-08
2.6063e-08
2.32286e-05
6.53496e-06
6.75114e-06
6.36007e-06
5.99306e-06
5.73033e-06
5.58811e-06
5.57468e-06
3.17454e-05
0.00086865
7.22165e-06
3.06321e-06
3.01064e-06
2.81809e-06
2.65817e-06
2.55328e-06
2.52056e-06
2.57605e-06
8.04265e-05
0.00134932
2.12774e-06
1.09128e-06
1.0617e-06
1.00955e-06
9.654e-07
9.44889e-07
9.63856e-07
1.02377e-06
0.000119951
0.00127268
8.56247e-07
4.20168e-07
4.18617e-07
4.02778e-07
3.83012e-07
3.7793e-07
3.89678e-07
4.20069e-07
4.70194e-07
5.89801e-07
3.68691e-07
1.60542e-07
1.68009e-07
1.77173e-07
1.57996e-07
1.57657e-07
1.65407e-07
1.80284e-07
2.01526e-07
2.60566e-07
1.5491e-07
6.77127e-08
8.37004e-08
8.1572e-08
6.85541e-08
7.093e-08
7.72162e-08
8.0285e-08
8.79077e-08
1.18305e-07
7.6009e-08
3.48023e-08
3.58142e-08
4.48338e-08
3.23384e-08
3.32624e-08
3.44503e-08
3.60342e-08
4.27219e-08
5.73457e-08
3.4975e-08
1.22754e-08
2.74019e-08
1.96406e-08
1.44929e-08
1.72648e-08
2.07098e-08
1.87299e-08
2.02742e-08
2.77063e-08
2.86152e-08
4.89576e-09
1.72072e-08
1.10515e-08
9.71952e-09
1.29594e-08
9.89951e-09
7.63162e-09
1.28874e-08
2.1122e-08
1.70633e-08
3.00285e-09
1.22754e-08
5.74172e-09
6.43468e-09
5.37874e-09
7.85361e-09
8.61258e-09
8.74457e-09
1.20918e-08
2.30037e-05
5.91617e-06
6.15489e-06
5.81877e-06
5.49664e-06
5.26699e-06
5.14613e-06
5.13834e-06
1.53732e-05
0.000371397
7.0158e-06
2.82116e-06
2.80869e-06
2.64087e-06
2.49763e-06
2.39433e-06
2.34399e-06
2.36134e-06
3.42725e-05
0.00114004
2.06025e-06
1.06912e-06
1.03147e-06
9.70468e-07
9.24711e-07
8.93716e-07
8.88525e-07
9.2033e-07
0.000121335
0.0022868
8.19843e-07
4.4622e-07
4.26955e-07
4.04991e-07
3.8499e-07
3.7097e-07
3.68179e-07
3.85695e-07
0.000113038
0.00210509
3.88862e-07
1.82849e-07
1.75014e-07
1.73594e-07
1.63812e-07
1.58343e-07
1.55871e-07
1.6518e-07
4.53447e-05
0.00157175
1.79996e-07
6.71354e-08
8.01576e-08
7.74427e-08
7.24731e-08
6.96202e-08
6.87459e-08
7.54181e-08
1.0894e-05
0.000990105
1.02419e-07
2.33959e-08
3.77116e-08
3.83251e-08
3.35805e-08
3.31715e-08
3.23125e-08
3.54211e-08
3.90205e-08
0.000417276
5.7917e-08
3.57074e-09
2.5805e-08
1.84427e-08
1.82954e-08
1.52769e-08
1.69702e-08
1.85531e-08
2.16453e-08
0.000157489
4.57067e-08
2.67722e-09
1.85732e-08
1.04077e-08
1.01734e-08
1.10101e-08
1.11774e-08
1.14786e-08
1.11105e-08
1.63854e-08
2.53431e-08
5.52176e-10
1.27001e-08
6.47273e-09
8.06791e-09
5.98191e-09
7.48506e-09
7.66911e-09
8.65076e-09
1.25179e-08
2.23061e-05
5.25146e-06
5.50701e-06
5.22619e-06
4.94957e-06
4.75454e-06
4.64996e-06
4.63986e-06
1.99583e-05
0.000142522
6.95873e-06
2.59985e-06
2.59074e-06
2.4358e-06
2.30409e-06
2.21049e-06
2.15869e-06
2.15039e-06
4.15633e-06
0.000576886
2.0225e-06
1.0108e-06
9.8729e-07
9.27368e-07
8.77987e-07
8.43526e-07
8.2751e-07
8.34046e-07
7.62235e-05
0.00133334
7.50001e-07
4.23463e-07
4.09289e-07
3.87958e-07
3.69107e-07
3.55077e-07
3.47976e-07
3.51626e-07
7.90379e-05
0.00142078
3.51384e-07
1.9076e-07
1.78685e-07
1.72623e-07
1.62943e-07
1.5517e-07
1.53068e-07
1.5473e-07
5.35193e-05
0.00128222
1.79638e-07
7.687e-08
7.995e-08
7.71267e-08
7.23785e-08
7.02824e-08
6.86997e-08
7.04535e-08
4.09982e-05
0.00102008
1.10175e-07
2.42592e-08
3.72254e-08
3.64269e-08
3.36511e-08
3.20161e-08
3.1788e-08
3.30047e-08
6.07017e-06
0.000671519
7.01268e-08
1.33464e-09
2.40577e-08
1.74872e-08
1.7453e-08
1.64605e-08
1.65974e-08
1.6221e-08
9.02866e-06
0.000504729
5.72549e-08
5.69321e-09
1.81374e-08
1.0702e-08
1.05464e-08
1.13553e-08
9.8309e-09
1.08264e-08
1.16353e-08
0.000309919
3.24712e-08
2.76624e-09
1.17494e-08
6.55912e-09
7.55725e-09
5.56099e-09
7.75687e-09
7.07244e-09
8.52686e-09
0.000408738
2.13922e-05
4.60527e-06
4.85973e-06
4.62282e-06
4.37937e-06
4.20333e-06
4.10511e-06
4.08727e-06
4.14795e-06
2.49124e-05
6.63909e-06
2.34259e-06
2.34895e-06
2.21001e-06
2.09206e-06
2.00536e-06
1.95367e-06
1.93868e-06
1.56431e-05
0.000222191
1.9939e-06
9.27968e-07
9.1677e-07
8.67173e-07
8.23079e-07
7.89961e-07
7.69823e-07
7.61902e-07
3.50593e-05
0.000718235
7.48346e-07
4.01778e-07
3.89557e-07
3.66677e-07
3.48888e-07
3.34201e-07
3.26725e-07
3.23676e-07
4.20157e-05
0.000849049
2.9919e-07
1.81837e-07
1.69975e-07
1.62885e-07
1.55295e-07
1.49205e-07
1.44661e-07
1.43615e-07
3.7754e-05
0.000866248
1.54694e-07
8.22379e-08
7.86589e-08
7.56764e-08
7.15406e-08
6.78026e-08
6.7564e-08
6.6371e-08
3.66504e-05
0.000784426
1.00199e-07
3.14247e-08
3.59493e-08
3.66916e-08
3.3793e-08
3.18489e-08
3.146e-08
3.146e-08
2.04379e-05
0.000599939
7.03787e-08
5.44011e-09
2.12832e-08
1.79746e-08
1.64476e-08
1.55886e-08
1.66385e-08
1.62249e-08
2.79102e-05
0.000531495
6.01707e-08
4.85879e-09
1.60224e-08
1.08455e-08
1.05274e-08
1.08744e-08
1.04406e-08
1.01803e-08
1.0179e-05
0.0004542
3.64544e-08
2.22695e-09
1.04189e-08
7.052e-09
7.63524e-09
6.15061e-09
7.71478e-09
7.60873e-09
2.76915e-05
0.000532454
2.01129e-05
3.96539e-06
4.21549e-06
4.02229e-06
3.81759e-06
3.66377e-06
3.57246e-06
3.54417e-06
3.58057e-06
1.32965e-06
6.15905e-06
2.04563e-06
2.06918e-06
1.95439e-06
1.85417e-06
1.78145e-06
1.73557e-06
1.71686e-06
1.02754e-05
7.14249e-05
1.97017e-06
8.55397e-07
8.39781e-07
7.91633e-07
7.51973e-07
7.20949e-07
7.00661e-07
6.90132e-07
1.36871e-05
0.000378466
7.33899e-07
3.69983e-07
3.64191e-07
3.44351e-07
3.2742e-07
3.14209e-07
3.04524e-07
2.98929e-07
1.70329e-05
0.000491713
2.87457e-07
1.67901e-07
1.6093e-07
1.53198e-07
1.45213e-07
1.39171e-07
1.35242e-07
1.33848e-07
1.85494e-05
0.000545453
1.27327e-07
7.90761e-08
7.46029e-08
7.0943e-08
6.732e-08
6.48062e-08
6.29577e-08
6.21814e-08
2.19295e-05
0.000541065
7.8232e-08
3.64101e-08
3.51614e-08
3.41098e-08
3.28282e-08
3.14152e-08
3.03965e-08
2.9575e-08
1.7499e-05
0.000447124
6.18191e-08
1.03808e-08
1.98448e-08
1.78929e-08
1.6976e-08
1.65324e-08
1.5586e-08
1.66803e-08
2.81465e-05
0.000440485
5.67237e-08
1.66695e-09
1.35238e-08
1.06739e-08
9.92106e-09
1.05126e-08
9.78663e-09
1.01361e-08
2.10489e-05
0.000416805
3.59636e-08
9.36541e-10
9.02037e-09
7.17193e-09
7.02406e-09
5.96429e-09
7.41839e-09
6.23539e-09
3.5629e-05
0.000478042
1.85717e-05
3.3343e-06
3.56938e-06
3.41795e-06
3.24449e-06
3.11305e-06
3.03182e-06
3.0016e-06
3.01842e-06
3.21997e-06
5.72948e-06
1.7847e-06
1.80487e-06
1.70535e-06
1.61568e-06
1.55028e-06
1.50766e-06
1.49038e-06
2.69956e-06
1.49442e-05
1.79087e-06
7.52454e-07
7.4701e-07
7.07529e-07
6.71539e-07
6.44513e-07
6.25432e-07
6.13472e-07
5.09298e-06
0.000181235
7.1158e-07
3.34853e-07
3.30958e-07
3.14439e-07
2.98561e-07
2.87037e-07
2.77987e-07
2.71526e-07
5.82125e-06
0.000268173
2.8668e-07
1.53691e-07
1.50745e-07
1.41947e-07
1.36174e-07
1.30046e-07
1.25844e-07
1.23134e-07
6.68486e-06
0.000324006
1.18921e-07
7.22403e-08
6.96628e-08
6.56418e-08
6.29268e-08
6.0143e-08
5.87683e-08
5.73592e-08
9.66436e-06
0.000353862
5.87315e-08
3.61393e-08
3.31455e-08
3.21679e-08
3.07321e-08
2.90825e-08
2.83799e-08
2.81966e-08
1.04175e-05
0.000307412
4.62704e-08
1.54241e-08
1.75961e-08
1.62489e-08
1.5754e-08
1.50942e-08
1.48192e-08
1.51217e-08
2.17993e-05
0.00033231
4.85241e-08
2.47445e-09
1.20473e-08
1.01478e-08
1.00978e-08
9.67287e-09
9.82283e-09
9.69786e-09
2.00664e-05
0.000318627
3.10825e-08
2.33698e-09
6.73601e-09
7.58374e-09
6.66728e-09
5.97993e-09
6.39234e-09
6.07158e-09
3.32534e-05
0.00037474
1.69675e-05
2.76399e-06
2.98009e-06
2.86109e-06
2.71949e-06
2.60597e-06
2.53563e-06
2.50516e-06
2.51127e-06
2.65075e-06
5.116e-06
1.50691e-06
1.53541e-06
1.45452e-06
1.38072e-06
1.32298e-06
1.2864e-06
1.26452e-06
1.26247e-06
2.21277e-07
1.63983e-06
6.49335e-07
6.48491e-07
6.13859e-07
5.85207e-07
5.61002e-07
5.43545e-07
5.34369e-07
1.72032e-06
8.00981e-05
6.57423e-07
2.97553e-07
2.93634e-07
2.78149e-07
2.65093e-07
2.53485e-07
2.46648e-07
2.3947e-07
1.96291e-06
0.000136506
2.75857e-07
1.37509e-07
1.35501e-07
1.29768e-07
1.22977e-07
1.1823e-07
1.14104e-07
1.11439e-07
1.65876e-06
0.000178539
1.18296e-07
6.57194e-08
6.39303e-08
6.08951e-08
5.82433e-08
5.50165e-08
5.45053e-08
1.21086e-05
2.83351e-06
0.00021774
5.02052e-08
3.24604e-08
3.12676e-08
2.90808e-08
2.80869e-08
2.72633e-08
2.63261e-08
2.51333e-08
4.83083e-06
0.000193619
3.25804e-08
1.62046e-08
1.66902e-08
1.5719e-08
1.50033e-08
1.3981e-08
1.37254e-08
9.86616e-06
1.48327e-05
0.000232564
3.86053e-08
4.71686e-09
1.05026e-08
1.04793e-08
8.94577e-09
9.15489e-09
8.94577e-09
8.55076e-09
1.53204e-05
0.000219331
2.3283e-08
6.00644e-09
5.04797e-09
6.53893e-09
5.96385e-09
5.23966e-09
6.34724e-09
4.59789e-06
2.69521e-05
0.000270802
1.52235e-05
2.24685e-06
2.43426e-06
2.34486e-06
2.23101e-06
2.14186e-06
2.07858e-06
2.05345e-06
2.05628e-06
2.15425e-06
4.50044e-06
1.24047e-06
1.27115e-06
1.20658e-06
1.14596e-06
1.099e-06
1.06719e-06
1.04907e-06
1.03428e-06
9.7922e-07
1.48792e-06
5.57881e-07
5.5617e-07
5.26184e-07
4.99738e-07
4.77997e-07
4.62719e-07
4.53785e-07
1.70912e-07
3.18638e-05
5.8043e-07
2.53786e-07
2.5333e-07
2.40717e-07
2.2953e-07
2.20263e-07
2.13709e-07
2.07234e-07
6.77363e-07
6.48326e-05
2.53265e-07
1.21079e-07
1.19144e-07
1.12525e-07
1.08248e-07
1.03563e-07
9.93544e-08
9.72159e-08
1.26611e-08
9.20655e-05
1.12431e-07
5.82735e-08
5.73231e-08
5.48282e-08
5.21254e-08
4.99572e-08
4.86207e-08
1.73242e-05
2.54063e-07
0.000127642
4.79955e-08
2.94635e-08
2.8249e-08
2.69026e-08
2.54241e-08
2.44473e-08
2.37081e-08
2.32592e-08
1.67717e-06
0.000111309
2.44863e-08
1.50169e-08
1.56584e-08
1.36625e-08
1.30922e-08
1.27358e-08
1.19992e-08
1.84006e-05
9.43553e-06
0.000154039
2.98582e-08
6.71784e-09
8.72672e-09
9.15873e-09
8.2515e-09
8.44591e-09
8.44591e-09
8.2515e-09
1.01357e-05
0.000139963
1.37289e-08
8.3163e-09
5.10859e-09
5.92042e-09
5.564e-09
5.5046e-09
5.30659e-09
9.67121e-06
2.00663e-05
0.000184981
1.32433e-05
1.7765e-06
1.93092e-06
1.86909e-06
1.78276e-06
1.7095e-06
1.66081e-06
1.63955e-06
1.64842e-06
1.72855e-06
3.90178e-06
1.01747e-06
1.04116e-06
9.88977e-07
9.39498e-07
9.01477e-07
8.737e-07
8.59867e-07
8.46917e-07
7.82468e-07
1.25541e-06
4.50438e-07
4.55651e-07
4.33584e-07
4.13063e-07
3.95414e-07
3.81785e-07
3.73237e-07
3.67405e-07
1.09284e-05
5.27203e-07
2.15993e-07
2.1452e-07
2.04286e-07
1.93996e-07
1.87038e-07
1.80669e-07
1.75128e-07
1.26606e-07
2.76805e-05
2.20541e-07
1.03124e-07
1.01862e-07
9.71913e-08
9.28367e-08
8.87975e-08
8.53264e-08
8.26126e-08
3.26979e-07
4.45964e-05
1.01558e-07
5.07769e-08
4.93964e-08
4.7436e-08
4.4951e-08
4.32391e-08
4.16377e-08
1.65747e-05
1.44067e-06
7.27325e-05
4.70868e-08
2.57213e-08
2.49605e-08
2.31934e-08
2.26289e-08
2.22362e-08
2.09845e-08
2.07636e-08
2.70246e-07
5.80692e-05
2.18953e-08
1.28779e-08
1.3916e-08
1.26349e-08
1.19501e-08
1.13537e-08
9.03592e-07
2.04365e-05
5.73093e-06
9.90313e-05
2.43542e-08
6.5062e-09
7.49016e-09
8.21307e-09
7.73113e-09
7.22911e-09
6.84757e-09
7.32951e-09
5.75393e-06
8.22258e-05
5.63052e-09
9.82958e-09
4.41779e-09
4.85957e-09
5.15409e-09
4.67549e-09
4.82275e-09
1.06526e-05
1.407e-05
0.00012103
1.13811e-05
1.35955e-06
1.47184e-06
1.41677e-06
1.34629e-06
1.28449e-06
1.23557e-06
1.20261e-06
1.18341e-06
1.19327e-06
3.23416e-06
7.96693e-07
8.16638e-07
7.77468e-07
7.3722e-07
7.06957e-07
6.84985e-07
6.76001e-07
6.72536e-07
6.26219e-07
1.09617e-06
3.6564e-07
3.71061e-07
3.51759e-07
3.34325e-07
3.19376e-07
3.08389e-07
2.99888e-07
2.90237e-07
3.42516e-06
4.41252e-07
1.74271e-07
1.75914e-07
1.67084e-07
1.59263e-07
1.52727e-07
1.47747e-07
1.43999e-07
1.39841e-07
9.06684e-06
1.9286e-07
8.57175e-08
8.51308e-08
8.09066e-08
7.80024e-08
7.44821e-08
7.11379e-08
6.90551e-08
2.56214e-07
2.00845e-05
8.79505e-08
4.22501e-08
4.16854e-08
3.98629e-08
3.78864e-08
3.63977e-08
1.20238e-06
1.40279e-05
1.75191e-06
4.07717e-05
4.10696e-08
2.18124e-08
2.12191e-08
2.03978e-08
1.92341e-08
1.8755e-08
1.82302e-08
1.71807e-08
9.05807e-08
2.61301e-05
2.13639e-08
1.04727e-08
1.16021e-08
1.13351e-08
1.03905e-08
9.85664e-09
1.61747e-05
1.9552e-05
3.3328e-06
6.29989e-05
2.11567e-08
7.84051e-09
5.41368e-09
7.01912e-09
6.66443e-09
6.86978e-09
6.45908e-09
6.25374e-09
2.51729e-06
4.28681e-05
1.97686e-09
9.46306e-09
4.97965e-09
4.3465e-09
4.12404e-09
4.19249e-09
4.36362e-09
9.62514e-06
9.43638e-06
7.65412e-05
1.03916e-05
1.37799e-06
1.45492e-06
1.41474e-06
1.37403e-06
1.34471e-06
1.33105e-06
1.33293e-06
1.35975e-06
1.42322e-06
2.55131e-06
6.06433e-07
6.30105e-07
6.05193e-07
5.81879e-07
5.59353e-07
5.4253e-07
5.26805e-07
5.15113e-07
4.59629e-07
8.83566e-07
2.75389e-07
2.8585e-07
2.73613e-07
2.61129e-07
2.50667e-07
2.42306e-07
2.3677e-07
4.19631e-07
2.27636e-06
3.74492e-07
1.37319e-07
1.39212e-07
1.33024e-07
1.25976e-07
1.20647e-07
1.17497e-07
1.12311e-07
1.08843e-07
9.00218e-08
1.6165e-07
6.8914e-08
6.88594e-08
6.53687e-08
6.26689e-08
6.01872e-08
5.78692e-08
5.5933e-08
1.38046e-07
8.45054e-06
7.39613e-08
3.47195e-08
3.42184e-08
3.30491e-08
3.10447e-08
2.95891e-08
8.80448e-06
1.14525e-05
1.71011e-06
2.28254e-05
3.4766e-08
1.82413e-08
1.75414e-08
1.63111e-08
1.60142e-08
1.52082e-08
1.45082e-08
1.46143e-08
1.39143e-08
8.3229e-06
2.91584e-06
7.76953e-09
9.64032e-09
9.52578e-09
9.23944e-09
1.55736e-05
2.38062e-05
1.77188e-05
1.83958e-06
4.04302e-05
1.4666e-08
8.64245e-09
4.78979e-09
5.77899e-09
5.72692e-09
5.22365e-09
5.36248e-09
5.17159e-09
3.6484e-07
1.75098e-05
6.11661e-09
7.49272e-09
4.80425e-09
3.40434e-09
3.43615e-09
3.51569e-09
1.92512e-06
7.88329e-06
6.13058e-06
4.7153e-05
1.58989e-07
3.51543e-07
5.41889e-07
6.54654e-07
7.01563e-07
7.22844e-07
7.1301e-07
6.67682e-07
5.7895e-07
4.30597e-07
2.33451e-06
5.10101e-07
4.77159e-07
4.34168e-07
4.02069e-07
3.81261e-07
3.69282e-07
3.69393e-07
3.74385e-07
3.50079e-07
5.83747e-05
6.74463e-06
9.35876e-06
7.08149e-06
5.80211e-06
4.84872e-06
3.66206e-06
1.42458e-06
1.84108e-06
4.03172e-06
2.9913e-07
1.01776e-07
1.06834e-07
1.01569e-07
9.65262e-08
9.3391e-08
8.92797e-08
8.63072e-08
8.32015e-08
6.96483e-08
1.30564e-07
5.25296e-08
5.32395e-08
5.08818e-08
4.85494e-08
4.62423e-08
4.4924e-08
4.2693e-08
8.85804e-08
3.65779e-06
9.74517e-06
2.75071e-08
2.65088e-08
2.57768e-08
2.48451e-08
7.33183e-06
1.17882e-05
9.37738e-06
1.57048e-06
1.30354e-05
2.83337e-08
1.42169e-08
1.44141e-08
1.32113e-08
1.27578e-08
1.20873e-08
1.19493e-08
1.1062e-08
1.15352e-08
1.02069e-08
5.05443e-05
4.5487e-05
4.09477e-05
3.63361e-05
3.44888e-05
3.19776e-05
2.70579e-05
1.58937e-05
9.25338e-07
2.68191e-05
4.77517e-09
1.0422e-08
4.59796e-09
4.48502e-09
4.14623e-09
4.01716e-09
4.29143e-09
4.22689e-09
4.29143e-09
2.11768e-06
3.93508e-09
3.16479e-09
4.31832e-09
3.20916e-09
3.22395e-09
3.13522e-09
4.97551e-06
6.0296e-06
3.87632e-06
2.83827e-05
4.9829e-05
6.74168e-06
6.69856e-06
6.28285e-06
5.97313e-06
5.57505e-06
5.00206e-06
4.2975e-06
3.50021e-06
2.62172e-06
2.72818e-07
2.15997e-07
2.51261e-07
2.73306e-07
2.8968e-07
2.90093e-07
2.82854e-07
2.75781e-07
2.82792e-07
2.88156e-07
0.000200777
0.00012778
6.96558e-05
3.97054e-05
2.23059e-05
1.24789e-05
6.34608e-06
1.40356e-06
3.96145e-06
7.19851e-06
2.37712e-07
7.16553e-08
7.62472e-08
7.44737e-08
7.05417e-08
6.8342e-08
6.62936e-08
6.34477e-08
6.1193e-08
5.1731e-08
1.01806e-07
3.89583e-08
3.9194e-08
3.6955e-08
3.64365e-08
3.38676e-08
3.36319e-08
1.62267e-07
1.15154e-07
2.17214e-06
3.92735e-05
2.99559e-05
1.96176e-05
1.56855e-05
1.49577e-05
1.41905e-05
1.21819e-05
7.731e-06
1.42869e-06
7.72135e-06
2.2328e-08
9.67869e-09
1.07236e-08
1.09619e-08
9.60537e-09
9.47706e-09
8.54218e-09
9.29375e-09
7.75395e-09
7.91757e-09
0.000219669
4.30944e-05
7.95622e-05
6.97446e-05
5.42247e-05
4.02608e-05
2.80956e-05
1.45062e-05
3.46981e-07
1.89212e-05
7.48226e-09
8.98379e-09
4.76936e-09
3.32955e-09
3.49453e-09
3.7345e-09
3.31455e-09
3.17957e-09
3.41954e-09
3.5452e-09
5.679e-09
1.5123e-10
2.69464e-09
2.79087e-09
2.00723e-09
2.43342e-09
5.14845e-06
4.1285e-06
2.30879e-06
1.62706e-05
0.000141555
1.40878e-05
1.69389e-05
1.69698e-05
1.50978e-05
1.23405e-05
9.39381e-06
6.5756e-06
3.94946e-06
1.4161e-06
4.22941e-06
1.09745e-06
7.4453e-07
5.46109e-07
4.65015e-07
4.12774e-07
3.42569e-07
2.31856e-07
4.84263e-08
2.38867e-07
0.000340494
0.000241331
0.000117109
6.0921e-05
3.05834e-05
1.47974e-05
5.97865e-06
1.93782e-07
6.93219e-06
1.14232e-05
1.79427e-07
4.76339e-08
5.14042e-08
4.98194e-08
4.89759e-08
4.64325e-08
4.5295e-08
4.44515e-08
4.23682e-08
3.49274e-08
1.83413e-05
2.6511e-08
2.73216e-08
2.042e-07
1.5843e-06
2.39567e-06
2.43506e-06
1.58844e-06
1.74841e-07
1.91289e-06
3.96898e-05
4.4917e-05
3.51041e-05
2.62079e-05
1.98799e-05
1.50177e-05
1.07637e-05
6.15361e-06
1.26733e-06
4.64209e-06
1.77436e-08
6.66304e-09
7.56621e-09
7.08906e-09
7.12315e-09
6.79937e-09
6.7312e-09
5.94732e-09
6.11773e-09
4.7137e-09
0.000487296
1.70538e-05
8.34948e-05
8.25184e-05
6.29728e-05
4.38412e-05
2.81189e-05
1.36277e-05
6.21759e-08
1.44983e-05
1.62512e-08
3.93183e-09
4.68473e-09
3.26258e-09
2.56545e-09
2.189e-09
2.23082e-09
2.53756e-09
2.27265e-09
2.19843e-09
1.72612e-08
2.17273e-10
1.64872e-09
1.62316e-09
1.61038e-09
3.585e-08
2.84326e-06
2.05081e-06
1.12282e-06
7.85372e-06
0.000400018
5.97766e-05
5.43821e-05
4.01451e-05
2.76203e-05
1.80382e-05
1.09543e-05
5.62331e-06
1.31554e-06
2.61595e-06
8.84201e-06
1.199e-06
1.22629e-06
1.20494e-06
1.00952e-06
6.75264e-07
2.4878e-07
2.65408e-07
9.01303e-07
1.64499e-06
0.000488172
0.000365082
0.000159045
7.46563e-05
3.27646e-05
1.29073e-05
3.03686e-06
3.25765e-06
1.0662e-05
1.64904e-05
1.35889e-07
3.11175e-08
3.38859e-08
3.14977e-08
2.9264e-08
2.766e-08
2.51649e-08
2.39886e-08
2.38223e-08
2.18563e-08
5.89032e-05
3.53224e-05
2.03949e-05
1.31368e-05
8.8961e-06
6.11013e-06
3.97783e-06
2.03859e-06
2.12074e-07
1.69249e-06
2.91185e-05
3.7047e-05
3.06057e-05
2.27644e-05
1.64908e-05
1.16655e-05
7.79927e-06
4.28841e-06
1.0035e-06
2.56494e-06
1.3528e-08
4.97437e-09
4.49911e-09
4.99021e-09
4.48327e-09
4.59416e-09
4.54663e-09
3.75454e-09
4.13474e-09
3.48979e-09
0.000834998
0.000120021
6.1033e-05
7.89928e-05
6.25472e-05
4.30246e-05
2.66712e-05
1.26741e-05
3.98618e-07
1.16618e-05
6.44628e-09
2.35901e-09
1.24431e-09
2.33308e-09
1.80166e-09
1.47762e-09
2.15162e-09
1.72389e-09
1.38689e-09
1.84325e-09
1.47724e-08
1.62776e-09
1.21191e-09
1.21191e-09
1.37825e-09
8.91109e-10
9.74279e-10
2.45102e-07
3.06173e-07
2.23054e-06
0.00158835
3.25839e-05
2.42227e-05
1.3004e-05
5.38732e-06
7.82711e-07
2.02975e-06
3.98868e-06
5.76368e-06
7.75013e-06
9.92647e-06
7.26774e-06
5.4327e-06
3.72824e-06
2.25926e-06
1.04788e-06
1.35693e-08
9.54771e-07
1.99936e-06
3.1045e-06
0.000554177
0.000459609
0.000178162
7.46434e-05
2.76018e-05
7.54474e-06
1.07949e-06
6.03288e-06
1.25363e-05
1.89683e-05
8.05952e-08
2.03236e-08
2.12845e-08
1.9937e-08
1.69105e-08
1.41492e-08
1.04931e-08
8.0742e-09
2.62881e-09
5.95879e-09
5.0569e-05
3.42348e-05
1.93338e-05
1.20179e-05
7.70387e-06
4.95461e-06
3.02723e-06
1.49884e-06
1.86585e-07
1.09139e-06
1.64792e-05
1.99399e-05
1.69117e-05
1.2624e-05
9.02963e-06
6.24138e-06
4.06365e-06
2.22159e-06
6.02864e-07
1.07465e-06
9.5217e-09
3.66708e-09
3.25472e-09
2.85708e-09
2.23854e-09
2.41526e-09
2.44472e-09
2.13545e-09
2.34163e-09
1.84371e-09
0.0010683
0.000216046
2.00363e-05
5.71955e-05
4.92545e-05
3.44272e-05
2.12096e-05
1.01401e-05
6.22657e-07
8.40175e-06
2.1187e-08
1.02421e-09
1.56644e-10
3.85585e-10
1.00011e-09
1.14471e-09
9.63964e-10
7.59121e-10
7.59121e-10
7.78949e-10
1.22858e-06
7.9295e-07
5.96452e-10
5.63316e-10
6.62725e-10
4.8971e-07
7.85208e-07
3.58114e-07
2.53282e-07
1.29435e-06
0.00166312
0.000675
0.000481028
0.00032851
0.000229065
0.000157574
0.000102776
6.01961e-05
1.65854e-05
1.80678e-05
7.67553e-06
4.26723e-06
2.00972e-06
3.87507e-07
5.41099e-07
1.06512e-06
1.40796e-06
1.70955e-06
2.03797e-06
2.23441e-06
0.00028721
0.000372758
0.000125102
4.63485e-05
1.35046e-05
1.01819e-06
3.52813e-06
5.88468e-06
9.52923e-06
1.42894e-05
4.33396e-08
3.5836e-09
1.08227e-08
1.42933e-08
1.70247e-08
1.91707e-08
2.09471e-08
2.20356e-08
2.33704e-08
2.13349e-08
2.06631e-05
1.52831e-05
8.37835e-06
5.05634e-06
3.13994e-06
1.95993e-06
1.17084e-06
5.83404e-07
9.71842e-08
3.8506e-07
6.22167e-06
5.82971e-06
4.94132e-06
3.68721e-06
2.62275e-06
1.79388e-06
1.15668e-06
6.41645e-07
2.07962e-07
2.40103e-07
3.38545e-09
1.64291e-09
2.65604e-09
1.54708e-09
1.54708e-09
1.6566e-09
1.17742e-09
1.32802e-09
1.09528e-09
7.57615e-10
0.000714156
0.000178434
8.36365e-06
2.37469e-05
2.34028e-05
1.6915e-05
1.05278e-05
5.1479e-06
5.4624e-07
3.79758e-06
1.81319e-08
5.3208e-09
1.10897e-09
6.83303e-10
5.26479e-10
6.72101e-10
4.81672e-10
5.60084e-10
5.37681e-10
4.16229e-10
9.10477e-05
0.000129022
8.52365e-05
5.03728e-05
2.87245e-05
1.6102e-05
8.53961e-06
3.32894e-06
1.01001e-06
5.71084e-06
0.00259445
0.000687959
0.000511752
0.000383945
0.000286793
0.000210971
0.000150328
0.000100758
5.86776e-05
2.41447e-05
4.73609e-06
1.0083e-05
7.00523e-06
4.63373e-06
3.01255e-06
1.92233e-06
1.16088e-06
5.58809e-07
3.92471e-08
7.97084e-07
9.73373e-05
8.40692e-05
2.00478e-05
5.78586e-06
4.72592e-07
1.06064e-06
1.34975e-06
1.4409e-06
1.91133e-06
3.13525e-06
1.50607e-08
6.45289e-09
1.89005e-09
8.59112e-11
2.66325e-09
5.14513e-09
7.25472e-09
1.00134e-08
1.0863e-08
1.35644e-08
1.7168e-06
1.79541e-06
9.46987e-07
5.57343e-07
3.38768e-07
2.07316e-07
1.24939e-07
6.60944e-08
2.0406e-08
3.22044e-08
7.98202e-07
4.5752e-07
3.75289e-07
2.76434e-07
1.94875e-07
1.32948e-07
8.61689e-08
5.08451e-08
2.3239e-08
6.70107e-09
7.18294e-10
7.63655e-10
2.54552e-11
5.21831e-10
4.70921e-10
5.85469e-10
7.63655e-11
6.61834e-10
2.92734e-10
4.45466e-10
5.28845e-05
2.81734e-05
2.37544e-06
2.78586e-06
3.07073e-06
2.30901e-06
1.49078e-06
7.94289e-07
2.06027e-07
3.64985e-07
2.40891e-08
4.7902e-10
5.83155e-10
1.97856e-10
1.45789e-10
2.60337e-10
9.37213e-11
1.56202e-10
2.0827e-10
1.14548e-10
0.0002648
0.000160319
9.51895e-05
5.44826e-05
3.07862e-05
1.72333e-05
9.19022e-06
3.8659e-06
4.74144e-07
5.05761e-06
0.525078
0.41834
0.529449
0.918493
0.685285
0.623183
0.738458
1.1146
0.849046
0.791044
0.937353
1.4405
0.616467
0.593041
0.70259
1.09948
0.4506
0.449169
0.533331
0.863428
0.298687
0.295188
0.366153
0.623036
0.199002
0.18995
0.253734
0.455807
0.128591
0.118574
0.169928
0.316479
0.088843
0.0811527
0.122565
0.231847
0.0669157
0.0617646
0.0997332
0.188792
0.0357349
0.00179388
1.34549e-05
0.018983
0.078387
0.00651307
1.00697e-05
0.0408995
0.136507
0.0151919
5.42007e-06
0.0703783
0.124931
0.0170149
2.77923e-06
0.0603599
0.11031
0.0169936
1.44761e-06
0.0489259
0.0854266
0.014251
7.34745e-07
0.0376066
0.0645607
0.0110856
3.86238e-07
0.0305804
0.0466141
0.00836666
2.26447e-07
0.023269
0.0358974
0.00717526
0.00104514
0.0185119
0.0302565
0.00828613
0.00383987
0.0155781
0.0170498
0.0134114
0.0140933
0.0196374
0.0386454
0.0266228
0.0261405
0.0407609
0.0748841
0.048654
0.0492268
0.0796255
0.0710278
0.0430601
0.0446742
0.0749772
0.0651206
0.037074
0.0395789
0.069976
0.0520603
0.0280744
0.0307131
0.0567492
0.0405265
0.0207068
0.0232858
0.0452964
0.0300728
0.0146002
0.0167539
0.0337955
0.0236267
0.0105142
0.0124592
0.0261148
0.0202121
0.00855953
0.0106338
0.0216523
0.00191942
0.00138667
0.00133628
0.00194708
0.0060834
0.00416784
0.00385842
0.00630801
0.0162237
0.011002
0.0104719
0.0165871
0.0190409
0.0125531
0.0123929
0.0189674
0.0207286
0.0131766
0.0136094
0.0207386
0.0189847
0.0116489
0.0124638
0.0190626
0.0164792
0.00970149
0.0107181
0.0167774
0.0134617
0.00764194
0.0086434
0.0137238
0.0112729
0.00587559
0.00695676
0.0112991
0.0100243
0.00512104
0.00652803
0.0101431
0.000611422
0.000569851
0.000599912
0.000817312
0.00226368
0.00210095
0.00236257
0.00340441
0.00608932
0.00573979
0.00640096
0.00888978
0.00729412
0.00654881
0.0070591
0.00960066
0.00838887
0.0071408
0.00763808
0.0103552
0.00815611
0.00657292
0.00705314
0.00952933
0.00748776
0.00570357
0.00619866
0.00843597
0.00653088
0.00472064
0.00520088
0.00708191
0.00588691
0.00390441
0.00449016
0.00608445
0.00564258
0.0037238
0.00459913
0.00587072
0.000114832
0.000105773
0.000105709
0.000164936
0.000766018
0.00072129
0.000845392
0.00123402
0.00245413
0.00248823
0.00298584
0.00410847
0.00302131
0.00305454
0.00354426
0.00471911
0.00359005
0.00355499
0.0040424
0.00531782
0.00362625
0.00345838
0.00387712
0.00504532
0.00344297
0.00314425
0.00350581
0.00453355
0.00317915
0.0027563
0.00306417
0.00391826
0.0030857
0.00246216
0.00281555
0.00349501
0.00306288
0.00240601
0.0029195
0.003397
1.23439e-05
1.07116e-05
6.10748e-06
2.49068e-05
0.00027129
0.000251699
0.000301155
0.000460037
0.00117392
0.00119831
0.00148061
0.00206863
0.00149376
0.00157259
0.00189758
0.00252918
0.00180342
0.0019171
0.00227917
0.00298047
0.00185063
0.0019383
0.00226667
0.00292201
0.0017601
0.00180523
0.00208767
0.00265639
0.00168552
0.00165572
0.00188648
0.00236512
0.00171539
0.00157118
0.0018045
0.00215545
0.00171557
0.00154976
0.00184826
0.00207567
1.13683e-05
4.10167e-06
3.95835e-06
4.06406e-06
7.56802e-05
6.34417e-05
7.56742e-05
0.000129617
0.000536831
0.000529481
0.000660111
0.000947582
0.0007568
0.000796731
0.000973461
0.00130566
0.000957786
0.00103783
0.00125747
0.00164938
0.0010261
0.00111243
0.00133047
0.00171772
0.00097874
0.0010609
0.00125706
0.00159234
0.000969828
0.00101969
0.00118543
0.00147811
0.000974046
0.000976726
0.00112442
0.00132229
0.000989602
0.000991364
0.00116693
0.00129765
9.14328e-06
3.18534e-06
3.0629e-06
3.15283e-06
1.22122e-05
6.20305e-06
6.03637e-06
2.0195e-05
0.000233127
0.000210373
0.000262147
0.000401209
0.000378006
0.000391744
0.000480228
0.000650177
0.000505505
0.00054988
0.000671696
0.000885304
0.000581167
0.000638222
0.000770706
0.000998982
0.000559002
0.000623169
0.000746968
0.000943685
0.00058153
0.000633784
0.000744802
0.000928068
0.000555698
0.000590894
0.000679806
0.000796364
0.00058816
0.00063236
0.000736517
0.000818463
7.20992e-06
2.3968e-06
2.3157e-06
2.3831e-06
2.14645e-06
8.78503e-07
8.53856e-07
9.59114e-07
8.78958e-05
6.0636e-05
7.3748e-05
0.000138467
0.000182249
0.000182434
0.000223079
0.000306349
0.000257454
0.000277742
0.000340758
0.000452888
0.000323844
0.000355914
0.000431847
0.000563699
0.000310276
0.000351906
0.000424227
0.000534243
0.000348208
0.000386462
0.000456763
0.000571009
0.000318318
0.000350687
0.000403164
0.000472792
0.000355633
0.000399237
0.000461398
0.000513609
5.87222e-06
1.93186e-06
1.84716e-06
1.93464e-06
1.78781e-06
6.23155e-07
6.0746e-07
6.71021e-07
2.23044e-05
2.83396e-07
2.74708e-07
2.1776e-05
8.36444e-05
7.88287e-05
9.53931e-05
0.000133645
0.00012592
0.000133006
0.000163651
0.00022072
0.000178394
0.000194284
0.000236468
0.000312332
0.000165095
0.000189545
0.0002294
0.000287381
0.000207635
0.000231613
0.000274907
0.000346384
0.000180131
0.000202278
0.000232481
0.000273118
0.000215694
0.000247976
0.000285479
0.000318059
3.46296e-06
1.08298e-06
1.05781e-06
1.15107e-06
1.36834e-06
4.65034e-07
4.50697e-07
5.03297e-07
5.28632e-07
1.95344e-07
1.92331e-07
2.15645e-07
3.49965e-05
2.96092e-05
3.48166e-05
4.99248e-05
5.77913e-05
5.86719e-05
7.23064e-05
0.000100028
9.71749e-05
0.000103941
0.000126777
0.000170448
8.22421e-05
9.57022e-05
0.000116213
0.000143899
0.000123853
0.000137321
0.000163654
0.000209045
9.72683e-05
0.000110244
0.000126642
0.000148772
0.000129549
0.000150673
0.000173553
0.000193031
5.26723e-06
1.49137e-06
1.33753e-06
1.31602e-06
1.00669e-06
3.39306e-07
3.31465e-07
3.86691e-07
3.96057e-07
1.38382e-07
1.3351e-07