/*--------------------------------*- C++ -*----------------------------------*\
| =========                 |                                                 |
| \\      /  F ield         | foam-extend: Open Source CFD                    |
|  \\    /   O peration     | Version:     4.0                                |
|   \\  /    A nd           | Web:         http://www.foam-extend.org         |
|    \\/     M anipulation  |                                                 |
\*---------------------------------------------------------------------------*/
FoamFile
{
    version     2.0;
    format      ascii;
    class       volVectorField;
    location    "3100";
    object      Urel;
}
// * * * * * * * * * * * * * * * * * * * * * * * * * * * * * * * * * * * * * //

dimensions      [0 1 -1 0 0 0 0];

internalField   nonuniform List<vector> 
34480
(
(209.006 -9.79387 -19.0913)
(209.326 -9.29356 -21.5539)
(209.483 -8.56823 -23.9805)
(209.49 -7.64374 -26.414)
(209.34 -6.5589 -28.9928)
(208.998 -5.31651 -31.8924)
(208.382 -3.89687 -35.513)
(207.216 -2.18375 -40.1992)
(204.545 0.0514664 -48.1214)
(197.607 4.25579 -75.292)
(209.939 -12.8026 -26.8101)
(210.198 -11.6753 -29.5941)
(210.325 -10.3937 -32.2539)
(210.298 -8.97164 -34.8571)
(210.063 -7.4459 -37.5207)
(209.56 -5.83625 -40.4523)
(208.753 -4.16164 -44.1115)
(207.46 -2.36809 -49.2403)
(204.324 -0.294145 -58.0613)
(196.165 3.65909 -88.6315)
(210.628 -17.1 -33.7471)
(210.862 -15.5488 -36.8323)
(210.956 -13.8204 -39.7795)
(210.886 -11.9089 -42.6023)
(210.59 -9.87008 -45.4281)
(210.063 -7.73813 -48.5136)
(209.311 -5.54052 -52.3873)
(208.167 -3.20757 -58.078)
(204.866 -0.572366 -67.7765)
(195.656 4.13223 -101.291)
(210.635 -20.4952 -41.1594)
(210.87 -18.4132 -44.5391)
(210.98 -16.1555 -47.7258)
(210.942 -13.7039 -50.7507)
(210.708 -11.1152 -53.7484)
(210.294 -8.42636 -57.005)
(209.677 -5.67008 -61.0515)
(208.697 -2.76746 -67.1365)
(205.371 0.454476 -77.4584)
(195.357 5.84594 -112.88)
(210.794 -24.972 -48.0212)
(211.059 -22.4804 -51.6783)
(211.206 -19.7754 -55.1516)
(211.231 -16.8383 -58.4263)
(211.088 -13.7453 -61.6621)
(210.809 -10.5334 -65.1568)
(210.341 -7.22957 -69.4384)
(209.544 -3.74431 -75.9425)
(206.317 0.102465 -86.932)
(195.66 6.19701 -123.872)
(210.68 -28.2267 -55.6175)
(210.955 -25.2351 -59.5114)
(211.122 -22.0156 -63.1532)
(211.181 -18.5473 -66.5715)
(211.106 -14.8976 -69.9185)
(210.943 -11.1092 -73.5164)
(210.628 -7.21097 -77.8772)
(210.047 -3.11587 -84.6084)
(207.067 1.37632 -96.0829)
(196.01 8.10824 -134.171)
(210.761 -33.0088 -62.4757)
(211.077 -29.628 -66.6098)
(211.273 -25.9841 -70.5012)
(211.37 -22.0659 -74.1262)
(211.354 -17.9487 -77.666)
(211.288 -13.669 -81.4439)
(211.114 -9.23125 -85.9759)
(210.749 -4.53236 -92.9912)
(208.099 0.698951 -105.044)
(196.748 8.26173 -144.125)
(210.589 -36.1792 -70.3227)
(210.909 -32.3265 -74.664)
(211.084 -28.1647 -78.6834)
(211.14 -23.7085 -82.4175)
(211.083 -19.0116 -86.0105)
(211 -14.1314 -89.7905)
(210.871 -9.06509 -94.257)
(210.663 -3.70527 -101.229)
(208.421 2.37077 -113.47)
(197.104 10.8377 -153.055)
(210.534 -41.4427 -77.152)
(210.898 -37.2229 -81.6793)
(211.104 -32.6856 -85.8818)
(211.198 -27.8697 -89.7669)
(211.192 -22.8305 -93.5202)
(211.153 -17.5978 -97.4459)
(211.093 -12.1154 -102.078)
(211.024 -6.23072 -109.204)
(209.112 0.774875 -121.818)
(197.68 10.7322 -161.342)
(209.569 -44.6439 -85.1139)
(209.843 -40.0419 -89.9224)
(209.79 -35.0029 -94.3273)
(209.431 -29.6475 -98.3967)
(208.813 -23.9894 -102.257)
(208.027 -18.0692 -106.189)
(207.158 -11.8217 -110.662)
(206.371 -5.05624 -117.278)
(204.433 2.95958 -129.041)
(194.247 14.3052 -166.631)
(205.891 1.91221 3.00056)
(206.369 1.10968 1.5439)
(206.556 0.426576 -0.00997738)
(206.473 -0.117379 -1.61008)
(206.095 -0.546494 -3.31983)
(205.333 -0.861301 -5.1516)
(203.986 -1.0659 -7.15911)
(201.62 -1.17177 -9.31733)
(198.154 -1.25686 -11.245)
(193.579 -1.15903 -14.3934)
(207.19 2.86858 2.79792)
(207.621 2.16425 1.16179)
(207.793 1.5194 -0.492269)
(207.704 0.943886 -2.18912)
(207.292 0.416512 -3.99635)
(206.437 -0.0687758 -5.97184)
(204.943 -0.527095 -8.20874)
(202.358 -0.993372 -10.9582)
(198.189 -1.58381 -14.0068)
(192.505 -1.82408 -20.5815)
(208.139 2.57761 3.30713)
(208.548 1.77154 1.54473)
(208.706 1.04487 -0.256781)
(208.606 0.422717 -2.09024)
(208.169 -0.133486 -4.02985)
(207.295 -0.63627 -6.15937)
(205.811 -1.11494 -8.66773)
(203.233 -1.5862 -12.0869)
(198.689 -2.15707 -16.3332)
(192.07 -2.07113 -26.7166)
(208.382 3.178 3.30356)
(208.797 2.40347 1.45616)
(208.976 1.69444 -0.403414)
(208.918 1.08827 -2.29704)
(208.545 0.546446 -4.31008)
(207.773 0.0572662 -6.56894)
(206.401 -0.41239 -9.29946)
(203.916 -0.855376 -13.2587)
(199.143 -1.36353 -18.4766)
(191.71 -0.933531 -32.4541)
(208.736 2.66843 3.83841)
(209.178 1.80902 1.93579)
(209.396 1.04216 -0.0203661)
(209.403 0.408597 -2.00868)
(209.121 -0.146909 -4.14619)
(208.485 -0.63565 -6.58672)
(207.264 -1.09251 -9.57247)
(204.941 -1.48863 -14.063)
(200.089 -1.90226 -20.2309)
(191.949 -1.07297 -37.6931)
(208.771 3.39309 3.63432)
(209.228 2.54121 1.71995)
(209.472 1.78359 -0.206791)
(209.521 1.16372 -2.17561)
(209.313 0.634899 -4.29773)
(208.805 0.182704 -6.7731)
(207.75 -0.224116 -9.8435)
(205.648 -0.548008 -14.6623)
(200.884 -0.83012 -21.5476)
(192.218 0.364655 -42.21)
(208.977 2.56685 4.16009)
(209.469 1.61606 2.23758)
(209.744 0.786402 0.259119)
(209.839 0.114204 -1.74956)
(209.699 -0.450711 -3.93585)
(209.306 -0.919936 -6.51578)
(208.412 -1.30999 -9.74448)
(206.556 -1.56824 -14.9178)
(201.998 -1.65622 -22.5677)
(192.908 0.00108009 -46.245)
(208.891 3.37382 3.69577)
(209.392 2.40956 1.80353)
(209.656 1.59812 -0.0881974)
(209.725 0.950774 -2.02436)
(209.569 0.441175 -4.12039)
(209.197 0.0372329 -6.62283)
(208.398 -0.26398 -9.78133)
(206.762 -0.418413 -15.0053)
(202.533 -0.208129 -23.0527)
(193.316 1.83442 -49.2174)
(208.903 2.05541 4.24516)
(209.436 0.977345 2.402)
(209.728 0.0661191 0.526002)
(209.834 -0.688956 -1.3777)
(209.735 -1.31844 -3.48069)
(209.437 -1.83477 -6.03048)
(208.759 -2.19007 -9.33541)
(207.35 -2.32164 -14.7937)
(203.46 -1.74188 -23.4886)
(193.992 1.00291 -51.498)
(207.981 2.86378 3.63696)
(208.458 1.69308 1.78959)
(208.575 0.7963 -0.0346804)
(208.362 0.0677806 -1.90547)
(207.834 -0.474206 -3.92989)
(207.026 -0.85564 -6.35387)
(205.826 -1.01331 -9.46978)
(204.024 -0.832119 -14.5641)
(200.282 0.222237 -23.038)
(191.635 4.03739 -51.3446)
(203.517 1.42791 2.33437)
(204.02 0.833569 1.21629)
(204.201 0.302537 -0.0132742)
(204.098 -0.131744 -1.26342)
(203.697 -0.48235 -2.55463)
(202.95 -0.746703 -3.83245)
(201.764 -0.934581 -5.04907)
(199.989 -1.0715 -6.0548)
(197.434 -1.24287 -6.4985)
(194.217 -1.43224 -6.5169)
(204.912 2.41428 2.31325)
(205.407 1.87195 0.946132)
(205.587 1.34566 -0.448805)
(205.464 0.855016 -1.86579)
(205 0.389927 -3.33137)
(204.112 -0.0549535 -4.84816)
(202.639 -0.492938 -6.37975)
(200.31 -0.955659 -7.86299)
(196.687 -1.5545 -8.80245)
(191.847 -2.13657 -9.81071)
(205.947 2.21205 2.94809)
(206.447 1.52885 1.39544)
(206.627 0.890644 -0.208766)
(206.502 0.327188 -1.83808)
(206.014 -0.193566 -3.53884)
(205.061 -0.681538 -5.32777)
(203.445 -1.16149 -7.21466)
(200.801 -1.66358 -9.29203)
(196.299 -2.33215 -11.0028)
(189.857 -2.91117 -13.584)
(206.344 2.89696 2.99422)
(206.866 2.22032 1.31811)
(207.072 1.57956 -0.380872)
(206.982 1.01446 -2.11237)
(206.531 0.491542 -3.94035)
(205.615 0.00104466 -5.92308)
(203.983 -0.488923 -8.10652)
(201.17 -0.995793 -10.7406)
(195.931 -1.68092 -13.2006)
(187.995 -2.16623 -17.5586)
(206.846 2.42642 3.56884)
(207.4 1.64997 1.80548)
(207.643 0.940739 -0.0195622)
(207.609 0.340537 -1.87744)
(207.228 -0.201099 -3.86953)
(206.401 -0.692666 -6.08635)
(204.828 -1.16965 -8.60264)
(201.97 -1.63808 -11.8317)
(196.184 -2.28611 -15.1301)
(186.926 -2.57769 -21.5717)
(207.012 3.20018 3.38978)
(207.585 2.41738 1.59389)
(207.855 1.70781 -0.222483)
(207.863 1.11491 -2.08443)
(207.545 0.594112 -4.09229)
(206.815 0.133082 -6.38756)
(205.342 -0.303624 -9.06306)
(202.542 -0.715564 -12.7147)
(196.409 -1.27661 -16.715)
(186.061 -1.34001 -25.333)
(207.33 2.39048 3.93884)
(207.935 1.50287 2.11668)
(208.234 0.720179 0.231298)
(208.288 0.0785605 -1.68947)
(208.032 -0.470393 -3.78536)
(207.402 -0.93499 -6.22109)
(206.047 -1.33767 -9.12172)
(203.367 -1.66924 -13.2321)
(197.06 -2.06866 -18.0275)
(185.783 -1.79922 -28.9562)
(207.337 3.23553 3.47888)
(207.95 2.33244 1.68355)
(208.243 1.56579 -0.117607)
(208.28 0.948615 -1.97012)
(208.017 0.454334 -3.98472)
(207.414 0.0566618 -6.36734)
(206.145 -0.257232 -9.26059)
(203.617 -0.487877 -13.5544)
(197.326 -0.62057 -18.8722)
(185.387 -0.0696759 -31.8725)
(207.429 1.90357 4.0328)
(208.061 0.887432 2.27503)
(208.376 0.0348999 0.472702)
(208.441 -0.660692 -1.3616)
(208.22 -1.23124 -3.38785)
(207.68 -1.68699 -5.81521)
(206.521 -1.99264 -8.87653)
(204.188 -2.12671 -13.515)
(198.029 -1.86074 -19.6421)
(185.306 -0.799299 -34.2637)
(206.573 2.76958 3.39227)
(207.153 1.67667 1.66375)
(207.338 0.850637 -0.0526511)
(207.166 0.187342 -1.82458)
(206.629 -0.293666 -3.74855)
(205.717 -0.615383 -6.03825)
(204.201 -0.726517 -8.92243)
(201.63 -0.547163 -13.3058)
(195.609 0.217591 -19.5469)
(182.828 2.30022 -34.6944)
(201.781 0.949112 1.70179)
(202.218 0.54771 0.911411)
(202.369 0.165643 0.00790076)
(202.27 -0.157864 -0.896417)
(201.922 -0.428586 -1.80008)
(201.307 -0.641162 -2.62149)
(200.395 -0.807817 -3.29566)
(199.161 -0.952063 -3.68718)
(197.602 -1.12929 -3.58049)
(195.871 -1.36487 -2.75287)
(203.103 1.90748 1.7914)
(203.57 1.53201 0.71813)
(203.733 1.13484 -0.387721)
(203.602 0.741817 -1.49712)
(203.154 0.354136 -2.6017)
(202.344 -0.0309891 -3.67095)
(201.095 -0.424214 -4.62883)
(199.303 -0.848006 -5.34701)
(196.838 -1.37056 -5.40303)
(194.04 -1.93789 -4.6197)
(204.092 1.75989 2.50355)
(204.602 1.22001 1.20607)
(204.778 0.690195 -0.150832)
(204.636 0.204635 -1.518)
(204.136 -0.26014 -2.91217)
(203.208 -0.712452 -4.31342)
(201.717 -1.17172 -5.65532)
(199.468 -1.66423 -6.84636)
(196.114 -2.29567 -7.29998)
(192.034 -2.99151 -6.92402)
(204.551 2.52657 2.58712)
(205.108 1.97218 1.13179)
(205.313 1.4208 -0.354575)
(205.191 0.916112 -1.8612)
(204.69 0.432882 -3.42373)
(203.723 -0.0381878 -5.05639)
(202.095 -0.526173 -6.71337)
(199.508 -1.05352 -8.37937)
(195.292 -1.75934 -9.29351)
(189.827 -2.52567 -9.54029)
(205.137 2.10099 3.20277)
(205.738 1.43198 1.62536)
(205.978 0.80023 -0.0199703)
(205.897 0.249928 -1.68742)
(205.432 -0.261441 -3.45168)
(204.489 -0.741818 -5.35628)
(202.811 -1.22416 -7.38188)
(200.008 -1.72773 -9.61126)
(195.04 -2.44204 -11.1402)
(188.235 -3.18122 -12.3679)
(205.394 2.92936 3.05271)
(206.023 2.23929 1.4184)
(206.29 1.59624 -0.243826)
(206.243 1.04565 -1.94383)
(205.817 0.548762 -3.75866)
(204.923 0.0930751 -5.7801)
(203.254 -0.359097 -8.01117)
(200.343 -0.826356 -10.6685)
(194.77 -1.50681 -12.7413)
(186.758 -2.16651 -15.1349)
(205.797 2.14606 3.6309)
(206.458 1.34318 1.94759)
(206.753 0.623353 0.194421)
(206.746 0.0242258 -1.58899)
(206.368 -0.498205 -3.52107)
(205.538 -0.951732 -5.71768)
(203.916 -1.36289 -8.22172)
(200.976 -1.74469 -11.3675)
(194.945 -2.30046 -14.1235)
(185.843 -2.77402 -17.9493)
(205.884 3.04181 3.18187)
(206.553 2.21934 1.51796)
(206.846 1.51089 -0.159338)
(206.828 0.93384 -1.88665)
(206.444 0.463291 -3.75591)
(205.631 0.0769899 -5.92617)
(204.048 -0.247014 -8.4676)
(201.147 -0.535992 -11.8565)
(194.857 -0.880733 -15.1101)
(184.869 -1.19392 -20.3181)
(206.044 1.7084 3.76452)
(206.724 0.770866 2.12357)
(207.034 -0.0164569 0.423877)
(207.039 -0.652884 -1.30799)
(206.689 -1.16975 -3.21031)
(205.919 -1.57419 -5.43811)
(204.393 -1.84576 -8.14337)
(201.582 -1.99543 -11.8892)
(195.221 -1.94755 -15.9862)
(184.257 -1.89923 -22.3805)
(205.256 2.64802 3.10259)
(205.889 1.6452 1.5147)
(206.107 0.893048 -0.0759239)
(205.943 0.293623 -1.72675)
(205.373 -0.131747 -3.51646)
(204.349 -0.403142 -5.61281)
(202.583 -0.48176 -8.16709)
(199.582 -0.31664 -11.7257)
(193.24 0.228205 -16.0578)
(181.785 1.20164 -22.863)
(200.571 0.55112 1.19394)
(200.914 0.294917 0.666108)
(201.028 0.0340557 0.0357598)
(200.953 -0.195281 -0.58309)
(200.694 -0.396656 -1.18743)
(200.256 -0.562396 -1.69751)
(199.643 -0.702064 -2.06661)
(198.881 -0.830798 -2.20479)
(198.016 -0.975075 -2.02032)
(197.164 -1.14158 -1.42912)
(201.727 1.43452 1.31136)
(202.121 1.20002 0.510251)
(202.258 0.92074 -0.321242)
(202.144 0.622172 -1.14562)
(201.771 0.313523 -1.93591)
(201.123 -0.00395593 -2.64897)
(200.178 -0.334777 -3.21066)
(198.934 -0.688746 -3.5126)
(197.411 -1.09412 -3.32757)
(195.914 -1.51127 -2.51764)
(202.577 1.2927 2.05043)
(203.048 0.890607 1.01564)
(203.209 0.470801 -0.083297)
(203.076 0.0689881 -1.18038)
(202.623 -0.329607 -2.26758)
(201.814 -0.729623 -3.30342)
(200.583 -1.14427 -4.20336)
(198.865 -1.59106 -4.83741)
(196.582 -2.12527 -4.81326)
(194.193 -2.6942 -3.92696)
(203.017 2.11733 2.14837)
(203.559 1.69109 0.935486)
(203.755 1.23755 -0.315482)
(203.626 0.803249 -1.5742)
(203.135 0.372899 -2.8471)
(202.225 -0.0600284 -4.11447)
(200.775 -0.519666 -5.29415)
(198.642 -1.02522 -6.27061)
(195.552 -1.66462 -6.46641)
(192.083 -2.36904 -5.60752)
(203.616 1.72875 2.79425)
(204.221 1.17894 1.43094)
(204.453 0.635772 -0.00656816)
(204.349 0.145929 -1.45388)
(203.858 -0.322877 -2.95357)
(202.908 -0.776613 -4.50654)
(201.317 -1.24379 -6.04465)
(198.86 -1.74673 -7.49225)
(194.996 -2.42632 -8.08612)
(190.379 -3.19382 -7.53434)
(203.913 2.60713 2.66959)
(204.561 2.02454 1.22687)
(204.822 1.46013 -0.251861)
(204.742 0.962247 -1.75773)
(204.264 0.500789 -3.33669)
(203.308 0.0645966 -5.02976)
(201.637 -0.383717 -6.78409)
(198.952 -0.870436 -8.60572)
(194.393 -1.55924 -9.55977)
(188.652 -2.35306 -9.45945)
(204.362 1.85337 3.27562)
(205.05 1.15108 1.7611)
(205.338 0.505803 0.169068)
(205.29 -0.0419453 -1.44485)
(204.84 -0.529042 -3.16834)
(203.907 -0.962443 -5.06306)
(202.205 -1.37095 -7.11184)
(199.37 -1.77958 -9.39676)
(194.214 -2.37969 -10.8781)
(187.39 -3.09955 -11.5021)
(204.504 2.80595 2.83929)
(205.204 2.07976 1.3339)
(205.495 1.44066 -0.19355)
(205.439 0.91217 -1.76646)
(204.98 0.473522 -3.44903)
(204.044 0.106125 -5.34441)
(202.327 -0.218604 -7.4584)
(199.42 -0.543157 -9.9907)
(193.839 -0.991222 -11.8663)
(186.055 -1.65653 -13.2454)
(204.717 1.47464 3.45729)
(205.425 0.630489 1.95861)
(205.729 -0.0843272 0.386401)
(205.692 -0.659603 -1.21511)
(205.257 -1.12418 -2.95751)
(204.348 -1.48265 -4.93718)
(202.645 -1.72718 -7.22515)
(199.715 -1.8903 -10.0745)
(193.889 -1.98183 -12.6837)
(185.057 -2.39472 -14.8185)
(203.991 2.50146 2.77471)
(204.656 1.59933 1.34467)
(204.897 0.925128 -0.103767)
(204.741 0.389856 -1.61327)
(204.154 0.0174471 -3.24031)
(203.069 -0.209341 -5.10204)
(201.2 -0.264033 -7.2727)
(198.102 -0.118998 -10.0005)
(192.174 0.260005 -12.811)
(182.634 0.640324 -15.1308)
(199.739 0.251686 0.824881)
(199.993 0.0931315 0.488408)
(200.075 -0.0795482 0.0636014)
(200.023 -0.236489 -0.342712)
(199.848 -0.382075 -0.735395)
(199.56 -0.507322 -1.0465)
(199.175 -0.618472 -1.25087)
(198.724 -0.723003 -1.29412)
(198.247 -0.831643 -1.14383)
(197.791 -0.943193 -0.777497)
(200.717 1.04044 0.910867)
(201.019 0.911077 0.336731)
(201.126 0.728224 -0.260151)
(201.038 0.512478 -0.845169)
(200.755 0.27725 -1.38648)
(200.276 0.0267678 -1.84331)
(199.612 -0.237722 -2.15828)
(198.794 -0.516786 -2.25868)
(197.885 -0.815349 -2.03778)
(197.078 -1.10364 -1.43094)
(201.39 0.861569 1.63603)
(201.788 0.575035 0.84224)
(201.926 0.254812 -0.0152724)
(201.813 -0.0660554 -0.863777)
(201.436 -0.395748 -1.68088)
(200.784 -0.734756 -2.41795)
(199.839 -1.08966 -2.99864)
(198.61 -1.46914 -3.31459)
(197.136 -1.89525 -3.14387)
(195.749 -2.32526 -2.34647)
(201.758 1.71205 1.7204)
(202.246 1.40388 0.74623)
(202.423 1.04626 -0.269248)
(202.301 0.685477 -1.28317)
(201.86 0.315181 -2.28034)
(201.068 -0.0669939 -3.22109)
(199.871 -0.477714 -4.01849)
(198.23 -0.929466 -4.5453)
(196.096 -1.4685 -4.43725)
(193.955 -2.04071 -3.43905)
(202.316 1.34313 2.37751)
(202.884 0.910901 1.23665)
(203.097 0.45946 0.0179821)
(202.986 0.0360078 -1.20019)
(202.514 -0.38151 -2.43267)
(201.634 -0.79572 -3.64945)
(200.239 -1.22836 -4.76371)
(198.235 -1.69894 -5.64697)
(195.416 -2.29714 -5.77441)
(192.408 -2.96203 -4.76566)
(202.61 2.25827 2.26784)
(203.236 1.78728 1.03187)
(203.482 1.30764 -0.246573)
(203.383 0.869454 -1.54192)
(202.897 0.452082 -2.87082)
(201.964 0.0473198 -4.23245)
(200.423 -0.377635 -5.54366)
(198.122 -0.849225 -6.712)
(194.641 -1.48312 -7.0464)
(190.724 -2.22637 -6.09534)
(203.07 1.53071 2.89455)
(203.747 0.936755 1.56774)
(204.02 0.373368 0.156805)
(203.945 -0.116321 -1.26716)
(203.464 -0.560803 -2.76058)
(202.511 -0.965123 -4.33686)
(200.874 -1.35695 -5.93766)
(198.341 -1.76595 -7.50453)
(194.246 -2.34317 -8.22478)
(189.396 -3.07468 -7.55856)
(203.24 2.54059 2.46828)
(203.937 1.92022 1.14019)
(204.218 1.35843 -0.217926)
(204.135 0.885173 -1.61531)
(203.639 0.485195 -3.08705)
(202.659 0.143997 -4.68431)
(200.957 -0.168897 -6.36136)
(198.267 -0.50124 -8.14046)
(193.685 -0.973333 -9.13445)
(187.954 -1.71694 -8.79335)
(203.488 1.21048 3.12312)
(204.196 0.46975 1.78554)
(204.487 -0.167027 0.360797)
(204.418 -0.679452 -1.08806)
(203.935 -1.09255 -2.64478)
(202.963 -1.40836 -4.35252)
(201.236 -1.62842 -6.21898)
(198.442 -1.79478 -8.27892)
(193.523 -1.95811 -9.83221)
(186.815 -2.51403 -9.91441)
(202.813 2.33617 2.41847)
(203.482 1.54218 1.15875)
(203.733 0.949059 -0.134027)
(203.582 0.478214 -1.48548)
(202.994 0.156469 -2.92838)
(201.898 -0.0308401 -4.53214)
(200.048 -0.0680787 -6.30677)
(197.093 0.0555959 -8.29696)
(191.995 0.313709 -9.98369)
(184.568 0.412593 -10.0824)
(199.165 0.0421295 0.576358)
(199.35 -0.0565723 0.369758)
(199.406 -0.170413 0.0876304)
(199.374 -0.275802 -0.172445)
(199.263 -0.379259 -0.425536)
(199.085 -0.471393 -0.616464)
(198.855 -0.556058 -0.736408)
(198.597 -0.635522 -0.752734)
(198.335 -0.712794 -0.658274)
(198.074 -0.784022 -0.451625)
(199.988 0.740705 0.599026)
(200.205 0.682384 0.200232)
(200.283 0.572074 -0.211215)
(200.22 0.423584 -0.609822)
(200.019 0.251723 -0.966816)
(199.689 0.0621792 -1.25029)
(199.247 -0.139708 -1.42133)
(198.73 -0.349575 -1.43692)
(198.196 -0.562293 -1.25227)
(197.759 -0.754271 -0.850816)
(200.485 0.495516 1.28423)
(200.799 0.29642 0.694335)
(200.909 0.0590733 0.0457485)
(200.82 -0.189339 -0.591074)
(200.528 -0.453069 -1.18891)
(200.034 -0.729388 -1.7022)
(199.348 -1.01956 -2.07147)
(198.506 -1.32478 -2.2226)
(197.579 -1.64855 -2.04286)
(196.775 -1.95761 -1.47323)
(200.757 1.34208 1.33066)
(201.169 1.13255 0.573955)
(201.319 0.861549 -0.222733)
(201.215 0.571854 -1.01234)
(200.845 0.2637 -1.76785)
(200.199 -0.0613219 -2.44286)
(199.266 -0.411793 -2.96163)
(198.062 -0.792675 -3.22039)
(196.637 -1.22217 -3.01373)
(195.324 -1.65798 -2.19301)
(201.238 0.972685 1.97819)
(201.741 0.646438 1.05178)
(201.928 0.283059 0.0480905)
(201.824 -0.0725562 -0.948047)
(201.401 -0.433711 -1.93192)
(200.638 -0.799318 -2.85721)
(199.486 -1.18347 -3.63817)
(197.931 -1.59947 -4.14865)
(195.952 -2.0969 -4.06604)
(194.019 -2.62781 -3.11849)
(201.497 1.90627 1.86995)
(202.07 1.54175 0.841993)
(202.292 1.14714 -0.231721)
(202.189 0.772173 -1.31392)
(201.731 0.404859 -2.39861)
(200.88 0.0407057 -3.4575)
(199.546 -0.345498 -4.39854)
(197.675 -0.775075 -5.09977)
(195.127 -1.31992 -5.10525)
(192.504 -1.9457 -4.03103)
(201.938 1.19696 2.50642)
(202.573 0.711094 1.3748)
(202.824 0.232232 0.15513)
(202.735 -0.195342 -1.06965)
(202.262 -0.591732 -2.32911)
(201.356 -0.959303 -3.60164)
(199.882 -1.32166 -4.80837)
(197.74 -1.7068 -5.82717)
(194.631 -2.22173 -6.09922)
(191.266 -2.86457 -5.0734)
(202.11 2.25996 2.08455)
(202.774 1.74816 0.943386)
(203.037 1.26776 -0.233648)
(202.94 0.85413 -1.44322)
(202.442 0.497864 -2.69431)
(201.488 0.188603 -3.9975)
(199.91 -0.10202 -5.27599)
(197.561 -0.417639 -6.45331)
(193.978 -0.857837 -6.88315)
(189.88 -1.53912 -5.9233)
(202.378 0.926453 2.77516)
(203.058 0.293488 1.60957)
(203.331 -0.262307 0.345881)
(203.243 -0.711177 -0.935481)
(202.747 -1.07367 -2.29248)
(201.781 -1.34942 -3.72572)
(200.147 -1.54597 -5.20101)
(197.646 -1.7059 -6.629)
(193.704 -1.88954 -7.46374)
(188.79 -2.41859 -6.70007)
(201.741 2.16027 2.04526)
(202.387 1.47794 0.962288)
(202.636 0.967421 -0.165708)
(202.492 0.560751 -1.34766)
(201.924 0.287416 -2.59386)
(200.867 0.134967 -3.93394)
(199.132 0.110292 -5.33125)
(196.475 0.213103 -6.71451)
(192.319 0.384837 -7.61552)
(186.787 0.372406 -6.78109)
(198.759 -0.0985032 0.417777)
(198.896 -0.162727 0.295557)
(198.934 -0.239688 0.10703)
(198.915 -0.310321 -0.0578441)
(198.848 -0.383476 -0.222985)
(198.743 -0.449999 -0.343345)
(198.609 -0.512448 -0.420361)
(198.463 -0.570406 -0.432977)
(198.317 -0.623682 -0.383267)
(198.15 -0.66824 -0.273328)
(199.463 0.530697 0.367256)
(199.611 0.516936 0.0967121)
(199.665 0.457858 -0.176582)
(199.623 0.360804 -0.437989)
(199.489 0.240383 -0.664908)
(199.271 0.102595 -0.835112)
(198.989 -0.0453607 -0.924324)
(198.671 -0.197158 -0.908709)
(198.359 -0.344796 -0.771815)
(198.117 -0.47063 -0.513377)
(199.805 0.20489 1.00205)
(200.038 0.066712 0.574558)
(200.122 -0.106031 0.0960986)
(200.057 -0.293457 -0.370778)
(199.843 -0.498115 -0.800163)
(199.488 -0.715648 -1.15462)
(199.011 -0.943938 -1.39157)
(198.452 -1.17946 -1.46532)
(197.876 -1.41711 -1.32178)
(197.406 -1.63213 -0.94631)
(199.982 1.02644 0.994569)
(200.311 0.892912 0.424442)
(200.432 0.695106 -0.180674)
(200.349 0.47 -0.776287)
(200.056 0.221816 -1.33176)
(199.557 -0.045055 -1.8032)
(198.861 -0.332445 -2.13148)
(198.01 -0.639461 -2.24268)
(197.075 -0.967795 -2.02958)
(196.271 -1.28564 -1.4235)
(200.369 0.63916 1.61502)
(200.791 0.401522 0.883273)
(200.949 0.117544 0.0789855)
(200.858 -0.172796 -0.713864)
(200.502 -0.476229 -1.47949)
(199.876 -0.788499 -2.16742)
(198.969 -1.11701 -2.70374)
(197.809 -1.46802 -2.98659)
(196.453 -1.86399 -2.83143)
(195.218 -2.26679 -2.08454)
(200.573 1.57167 1.49515)
(201.072 1.30159 0.664708)
(201.265 0.987236 -0.21105)
(201.168 0.675473 -1.08916)
(200.763 0.361273 -1.94901)
(200.029 0.0436739 -2.74881)
(198.93 -0.294049 -3.40237)
(197.472 -0.666039 -3.79556)
(195.657 -1.11001 -3.64697)
(193.921 -1.60337 -2.7122)
(200.977 0.870661 2.12903)
(201.546 0.485723 1.18915)
(201.769 0.0894581 0.161014)
(201.677 -0.274854 -0.865976)
(201.24 -0.619882 -1.90117)
(200.428 -0.945118 -2.90243)
(199.168 -1.26871 -3.78746)
(197.434 -1.61286 -4.42103)
(195.149 -2.04659 -4.44745)
(192.849 -2.56756 -3.45688)
(201.127 1.97914 1.70436)
(201.734 1.57217 0.750239)
(201.972 1.17317 -0.242401)
(201.87 0.82097 -1.26113)
(201.401 0.511523 -2.29432)
(200.524 0.23829 -3.32552)
(199.138 -0.0225381 -4.26586)
(197.18 -0.305831 -5.00177)
(194.477 -0.683613 -5.08972)
(191.604 -1.24165 -4.02933)
(201.403 0.634422 2.42787)
(202.032 0.107766 1.43666)
(202.28 -0.367114 0.340277)
(202.184 -0.753151 -0.767086)
(201.705 -1.06636 -1.92179)
(200.799 -1.30418 -3.09464)
(199.335 -1.47734 -4.22896)
(197.207 -1.62394 -5.18397)
(194.167 -1.79831 -5.56507)
(190.666 -2.23199 -4.57255)
(200.79 1.98329 1.6678)
(201.391 1.41181 0.761358)
(201.627 0.983323 -0.198144)
(201.493 0.639594 -1.20546)
(200.963 0.412112 -2.2518)
(199.986 0.290279 -3.33739)
(198.433 0.274578 -4.39692)
(196.157 0.358302 -5.31039)
(192.901 0.468957 -5.695)
(188.926 0.424343 -4.59117)
(198.46 -0.191761 0.321278)
(198.567 -0.236986 0.252215)
(198.592 -0.291964 0.12249)
(198.582 -0.34013 0.0170252)
(198.543 -0.392369 -0.0945611)
(198.483 -0.440073 -0.174413)
(198.407 -0.485288 -0.229687)
(198.325 -0.526533 -0.245343)
(198.241 -0.562581 -0.226319)
(198.122 -0.590007 -0.173602)
(199.082 0.396298 0.199426)
(199.179 0.40897 0.0190431)
(199.215 0.384386 -0.1558)
(199.189 0.324869 -0.320391)
(199.102 0.244152 -0.458593)
(198.965 0.147904 -0.556188)
(198.789 0.0433879 -0.598977)
(198.598 -0.0628748 -0.574077)
(198.416 -0.163151 -0.477324)
(198.28 -0.244477 -0.311625)
(199.297 -0.0129494 0.785436)
(199.463 -0.111526 0.481373)
(199.523 -0.236472 0.134751)
(199.478 -0.375128 -0.202076)
(199.328 -0.529752 -0.50735)
(199.083 -0.695859 -0.75284)
(198.764 -0.869594 -0.909793)
(198.402 -1.04537 -0.952067)
(198.047 -1.21543 -0.854311)
(197.772 -1.36179 -0.621803)
(199.394 0.772719 0.717085)
(199.644 0.693818 0.299588)
(199.738 0.554535 -0.145916)
(199.675 0.385096 -0.581617)
(199.454 0.191545 -0.978612)
(199.085 -0.0201902 -1.30019)
(198.587 -0.247589 -1.50354)
(198.001 -0.486237 -1.54014)
(197.395 -0.729946 -1.35772)
(196.902 -0.955077 -0.931546)
(199.685 0.356105 1.29887)
(200.023 0.187958 0.735201)
(200.15 -0.0281412 0.106959)
(200.076 -0.258869 -0.508552)
(199.791 -0.506567 -1.09112)
(199.301 -0.764904 -1.59404)
(198.615 -1.03642 -1.95892)
(197.777 -1.32147 -2.11244)
(196.862 -1.62675 -1.9542)
(196.077 -1.92105 -1.41126)
(199.825 1.26979 1.15769)
(200.241 1.07822 0.505683)
(200.402 0.835623 -0.187853)
(200.318 0.583891 -0.879831)
(199.977 0.322917 -1.54232)
(199.375 0.0544893 -2.13057)
(198.507 -0.230285 -2.57195)
(197.408 -0.539163 -2.77556)
(196.142 -0.886708 -2.57469)
(195.003 -1.25724 -1.84128)
(200.182 0.567738 1.77725)
(200.672 0.271709 1.01655)
(200.862 -0.0477088 0.171318)
(200.777 -0.350467 -0.66849)
(200.394 -0.643274 -1.49885)
(199.702 -0.923069 -2.2693)
(198.671 -1.20266 -2.90499)
(197.318 -1.497 -3.28526)
(195.677 -1.84702 -3.1966)
(194.125 -2.2454 -2.37603)
(200.294 1.7122 1.3426)
(200.826 1.40097 0.567047)
(201.034 1.07964 -0.246114)
(200.937 0.78803 -1.07971)
(200.516 0.526432 -1.90799)
(199.749 0.291537 -2.69978)
(198.585 0.0652395 -3.36782)
(197.018 -0.178085 -3.80029)
(195.032 -0.485346 -3.70297)
(193.052 -0.910365 -2.75645)
(200.569 0.346109 2.09531)
(201.13 -0.0808722 1.27276)
(201.348 -0.477963 0.342413)
(201.253 -0.803557 -0.592755)
(200.815 -1.06953 -1.55273)
(200.007 -1.27151 -2.49086)
(198.754 -1.42127 -3.34289)
(197.018 -1.5501 -3.96244)
(194.741 -1.70149 -4.08203)
(192.304 -2.03017 -3.14717)
(199.969 1.81517 1.29872)
(200.506 1.34963 0.56205)
(200.721 1.00025 -0.231131)
(200.6 0.716966 -1.06539)
(200.123 0.532282 -1.91751)
(199.258 0.437125 -2.76897)
(197.924 0.427789 -3.54129)
(196.053 0.494874 -4.1095)
(193.583 0.562945 -4.17924)
(190.809 0.519247 -3.11544)
(198.232 -0.255806 0.265842)
(198.319 -0.290745 0.229541)
(198.337 -0.333199 0.13547)
(198.332 -0.36733 0.0658007)
(198.31 -0.405655 -0.0140061)
(198.276 -0.440141 -0.071138)
(198.233 -0.472754 -0.115479)
(198.187 -0.501786 -0.135259)
(198.137 -0.525877 -0.13599)
(198.043 -0.54232 -0.116915)
(198.8 0.32092 0.07822)
(198.862 0.348758 -0.0402986)
(198.886 0.346665 -0.147102)
(198.87 0.313615 -0.245247)
(198.816 0.262374 -0.324155)
(198.731 0.197922 -0.375329)
(198.625 0.126628 -0.390985)
(198.511 0.054334 -0.363989)
(198.405 -0.0126082 -0.295271)
(198.326 -0.0646538 -0.185939)
(198.916 -0.167991 0.624926)
(199.028 -0.242244 0.411076)
(199.07 -0.333262 0.162492)
(199.04 -0.434581 -0.0787427)
(198.939 -0.54884 -0.295606)
(198.777 -0.672411 -0.468023)
(198.569 -0.800843 -0.577343)
(198.34 -0.928366 -0.609502)
(198.123 -1.04747 -0.552199)
(197.96 -1.14554 -0.417672)
(198.954 0.579835 0.495816)
(199.137 0.53782 0.198413)
(199.207 0.443179 -0.119644)
(199.161 0.319578 -0.428798)
(199.002 0.173355 -0.704641)
(198.739 0.0109827 -0.918876)
(198.394 -0.163035 -1.04216)
(198 -0.342756 -1.04428)
(197.611 -0.519508 -0.902056)
(197.308 -0.676248 -0.609708)
(199.156 0.12943 1.03353)
(199.416 0.012854 0.608903)
(199.515 -0.147807 0.129488)
(199.457 -0.32655 -0.337735)
(199.239 -0.523135 -0.772492)
(198.87 -0.730475 -1.13574)
(198.37 -0.947867 -1.38416)
(197.781 -1.1719 -1.46911)
(197.172 -1.40165 -1.33823)
(196.674 -1.61139 -0.963669)
(199.235 1.00975 0.866136)
(199.568 0.87969 0.368471)
(199.697 0.698189 -0.164653)
(199.627 0.500842 -0.694163)
(199.353 0.290538 -1.19043)
(198.88 0.070876 -1.61234)
(198.22 -0.160925 -1.90292)
(197.417 -0.408018 -1.99707)
(196.547 -0.671588 -1.79858)
(195.805 -0.940703 -1.25425)
(199.543 0.300163 1.46164)
(199.948 0.0784819 0.861091)
(200.106 -0.172551 0.18311)
(200.031 -0.417922 -0.487083)
(199.711 -0.660006 -1.13801)
(199.147 -0.893841 -1.71956)
(198.335 -1.12798 -2.16947)
(197.314 -1.37038 -2.3923)
(196.156 -1.64415 -2.2674)
(195.12 -1.93654 -1.63859)
(199.605 1.47062 1.01132)
(200.053 1.24247 0.399046)
(200.228 0.992037 -0.246683)
(200.141 0.75775 -0.908244)
(199.781 0.542981 -1.55198)
(199.139 0.346859 -2.14158)
(198.2 0.15724 -2.59941)
(196.989 -0.0438278 -2.83415)
(195.562 -0.284677 -2.65422)
(194.219 -0.594799 -1.88853)
(199.876 0.0717146 1.78968)
(200.359 -0.266196 1.12322)
(200.545 -0.591336 0.350732)
(200.458 -0.860558 -0.421497)
(200.075 -1.08225 -1.20235)
(199.386 -1.25078 -1.93802)
(198.356 -1.37756 -2.56668)
(196.99 -1.48632 -2.96)
(195.327 -1.60996 -2.94809)
(193.664 -1.84764 -2.17773)
(199.279 1.66538 0.949168)
(199.741 1.29739 0.369857)
(199.929 1.02194 -0.26485)
(199.823 0.795286 -0.933943)
(199.41 0.649784 -1.60485)
(198.672 0.577639 -2.24967)
(197.57 0.572806 -2.78836)
(196.088 0.625861 -3.11461)
(194.265 0.664535 -3.0109)
(192.377 0.633191 -2.10692)
(198.051 -0.30438 0.237551)
(198.126 -0.333757 0.220996)
(198.14 -0.369453 0.147726)
(198.137 -0.395152 0.0987497)
(198.125 -0.424545 0.0372722)
(198.106 -0.450113 -0.00769645)
(198.081 -0.473916 -0.0468943)
(198.056 -0.494362 -0.0705256)
(198.024 -0.510291 -0.0839965)
(197.945 -0.519627 -0.0851089)
(198.587 0.289414 -0.0112681)
(198.626 0.326102 -0.0878323)
(198.642 0.338383 -0.148354)
(198.632 0.32362 -0.201467)
(198.6 0.293645 -0.240952)
(198.549 0.252586 -0.261998)
(198.485 0.205673 -0.260763)
(198.418 0.157753 -0.23298)
(198.355 0.113641 -0.18174)
(198.309 0.080539 -0.105152)
(198.625 -0.273124 0.509455)
(198.699 -0.333075 0.359346)
(198.726 -0.400733 0.181147)
(198.707 -0.474533 0.00780139)
(198.641 -0.557713 -0.1478)
(198.536 -0.647628 -0.272105)
(198.404 -0.740188 -0.353211)
(198.262 -0.830357 -0.384051)
(198.131 -0.911988 -0.357698)
(198.035 -0.976486 -0.288268)
(198.63 0.441137 0.324006)
(198.758 0.42256 0.118191)
(198.808 0.360645 -0.10176)
(198.777 0.273324 -0.314202)
(198.666 0.166394 -0.500173)
(198.486 0.0460101 -0.638973)
(198.252 -0.0829245 -0.71138)
(197.993 -0.21434 -0.699087)
(197.746 -0.339824 -0.593725)
(197.559 -0.447612 -0.395096)