/*--------------------------------*- C++ -*----------------------------------*\
| =========                 |                                                 |
| \\      /  F ield         | foam-extend: Open Source CFD                    |
|  \\    /   O peration     | Version:     4.0                                |
|   \\  /    A nd           | Web:         http://www.foam-extend.org         |
|    \\/     M anipulation  |                                                 |
\*---------------------------------------------------------------------------*/
FoamFile
{
    version     2.0;
    format      ascii;
    class       volScalarField;
    location    "800";
    object      epsilon;
}
// * * * * * * * * * * * * * * * * * * * * * * * * * * * * * * * * * * * * * //

dimensions      [0 2 -3 0 0 0 0];

internalField   nonuniform List<scalar> 
34480
(
4824.84
4818.39
4816
4815.46
4818.34
4835.44
4897.43
5065.35
5431.36
6213.72
5505.79
6794.9
9450.83
15615.9
32127.7
80250
218625
573462
1.30098e+06
2.36566e+06
7178.18
8612.25
11349.4
17151.2
31758.4
75459.1
215996
642498
1.71035e+06
3.66731e+06
5962.81
7223.52
9553.07
14299
25873.6
61170.9
184406
607127
1.82544e+06
4.41638e+06
4797.1
5917.74
7965.08
12051.6
21845.6
51982.3
163627
583963
1.93461e+06
5.16153e+06
3777.24
4711.19
6441.15
9947.86
18482.3
45511.5
151746
584330
2.10111e+06
6.06471e+06
2943.34
3690.79
5105.27
8042.95
15396.6
39476.1
139013
570808
2.19666e+06
6.76811e+06
2075.41
2587.36
3576.6
5716.86
11350.4
30928.2
116880
513101
2.10449e+06
6.87346e+06
1176.42
1369.68
1750.52
2640.74
5292.04
15741.9
65921.4
313757
1.37784e+06
4.74062e+06
5614.71
5598.91
5601.69
5629.21
5689.43
5777.92
5875.87
5986.13
6190.75
6470.16
4753.53
4751.9
4759.44
4776.46
4802.49
4839
4898.37
5006.82
5208.82
5602.77
2982.07
3446.54
4331.73
6015.77
9556.92
18129.5
43420.2
129089
405284
1.12677e+06
4104.77
4736.78
5866.42
7913.12
11890
20973.8
46810.6
142343
511651
1.65399e+06
3621.37
4240.24
5328.58
7274.26
10943.8
19078.3
42089.3
133853
544125
1.98207e+06
3054.74
3646.15
4688.29
6537.58
10020.3
17561
38755.5
128176
578717
2.3222e+06
2504.97
3019.09
3942.55
5619.52
8855.93
15886.5
35914.7
125899
631376
2.75989e+06
2026.63
2451.97
3233.81
4688.2
7586.77
13982.9
32541.9
120477
662646
3.11017e+06
1489.91
1786.24
2340.3
3408.62
5613.01
10648.3
25834.5
103462
632818
3.19525e+06
955.411
1067.33
1276.35
1689.34
2594.1
4810.16
12144.7
56390.3
408813
2.31318e+06
5491.39
5468.95
5460.73
5473.87
5521.89
5608.68
5707.74
5790.9
6046
6686.38
4673.85
4672.13
4677.69
4691.96
4715.64
4749.26
4795.94
4865.23
4975.91
5155.16
1601.64
1783.56
2112.29
2691.61
3752.76
5815.69
10254.1
20832.3
46877.6
103312
2180.48
2472.25
2979.27
3831.37
5304.28
8097.84
14101.7
29460.7
73915.5
189432
2071.32
2383.54
2925.91
3851.73
5421.43
8380.87
14827.4
32572.1
92175.7
272720
1860.94
2180.32
2742.85
3707.21
5363.83
8468.23
15298.7
35298.1
111892
375903
1607.05
1898.6
2424.95
3356.67
5018.83
8185.54
15355.5
37922.8
135723
511970
1362.51
1614.88
2082.49
2932.46
4512.59
7598.9
14822.3
39164.2
157094
655368
1056.06
1238.37
1581.86
2230.92
3490.01
6048.93
12347.3
35537.3
162076
747992
784.778
857.818
995.245
1257.28
1797.07
2986.82
6192.74
19574.8
104608
552568
5385.07
5360.44
5346.66
5349.21
5377.76
5439.8
5526.37
5601.77
5738.02
6164.93
4584.81
4583.35
4587.16
4597.52
4615.15
4640.79
4675.65
4723.1
4793.04
4910.77
903.352
968.552
1076.03
1259.44
1567.11
2090.73
3013.46
4696.68
7816.25
13130
1092.59
1214.19
1418.33
1745.43
2272.16
3151.56
4702.59
7668.1
13855.3
26432.7
1123.52
1267.55
1512.87
1916.18
2560.84
3648.91
5607.15
9561.13
18879.8
41294.3
1088.86
1248.38
1527.35
1992.47
2745.59
4031.72
6389.62
11383.2
24585.4
61484
1000.78
1155.21
1434.17
1918.04
2737.47
4180.15
6930.33
13142.3
31616.1
90431.4
897.197
1038.66
1301.93
1771.24
2604.49
4121.86
7138.06
14396.5
38529.9
124680
742.614
849.804
1052.15
1427.83
2127.64
3464.09
6281.76
13654.1
41334.3
151624
651.642
697.997
785.257
944.94
1255.35
1896.54
3391.01
7722.94
26228
110821
5263.42
5240.11
5225.62
5223.89
5240.86
5283.9
5355.82
5438.4
5537.4
5817.45
4484.72
4483.22
4485.45
4492.14
4503.58
4520.19
4542.79
4573.7
4620.03
4704.12
574.795
597.683
629.588
681.032
759.87
881.188
1069.22
1355.93
1770.39
2335.73
549.552
594.624
666.592
776.769
943.774
1198.46
1593.97
2217.56
3198.73
4712.35
601.503
660.979
758.933
913.968
1149.34
1514.88
2096.96
3059.85
4727.62
7734.92
629.088
701.627
825.792
1025.29
1331.55
1816.75
2606.79
3967.82
6563.58
12055.5
617.206
692.38
826.462
1052.52
1415.85
2015.69
3037.53
4905.91
8870.62
18584.2
586.772
660.499
796.579
1031.92
1429.48
2111.89
3327.92
5681.14
11220.3
26746.6
522.761
582.213
692.895
892.076
1245.26
1883.72
3095.6
5633.48
12350.2
33737.9
546.961
575.431
628.407
720.353
886.27
1203.42
1866.35
3400.84
7918.38
24432.6
5137.07
5115.68
5101.71
5097.95
5107.94
5137.04
5190.54
5264.54
5351.35
5532.95
4374.46
4372.96
4374.25
4378.76
4386.55
4397.72
4412.7
4433.32
4465.86
4530.56
419.255
428.159
437.906
452.185
471.544
497.935
533.873
580.71
634.879
694.588
302.906
318.573
341.914
376.042
424.826
493.556
590.041
722.332
891.698
1095.21
338.246
360.86
396.457
450.944
529.776
643.776
808.668
1045.35
1371.07
1818.5
374.422
405.158
455.901
533.98
648.206
817.31
1068.36
1443.03
1999.55
2901.12
388.35
422.635
482.089
578.914
726.909
957.498
1318.49
1891.79
2827.81
4601.6
388.964
425.292
490.805
599.655
774.196
1057.97
1524.1
2306.25
3704.57
6780.82
373.045
404.677
461.74
560.105
724.818
1006.9
1501.69
2399.81
4191.91
8719.5
464.972
482.119
513.315
564.476
649.966
799.9
1082.13
1644.04
2873.18
6396.45
5004.71
4985.75
4973.2
4969.18
4975.91
4996.98
5036.55
5095.8
5168.72
5283.82
4255.15
4253.66
4254.39
4257.64
4263.41
4271.72
4282.86
4298.28
4323.54
4376.92
340.038
344.01
347.265
351.295
355.817
360.954
366.666
372.059
374.42
373.158
195.777
201.164
208.413
218.425
231.838
249.349
271.902
299.681
330.169
359.902
213.049
221.201
233.269
251.221
275.952
309.415
354.007
411.502
478.379
550.18
240.98
253.423
272.906
301.407
341.012
395.83
470.841
571.403
696.077
854.582
258.62
273.6
298.382
336.988
393.129
475.479
595.224
767.215
1000.15
1347.53
268.707
285.955
315.806
362.877
434.229
543.705
710.994
965.017
1336.91
1984.9
274.899
291.306
319.412
365.275
437.141
552.937
741.893
1052.78
1557.85
2572.72
401.912
412.079
429.912
457.51
500.438
569.466
686.275
892.967
1259.06
2075.38
4865.47
4849.16
4838.47
4835.1
4840.58
4857.29
4887.89
4934.12
4992.03
5063.71
4128.14
4126.67
4127.08
4129.59
4134.23
4140.99
4150.13
4162.87
4184.14
4230.54
295.304
297.296
298.558
299.72
300.554
301.003
300.864
299.332
294.554
285.446
148.76
150.718
152.991
155.869
159.426
163.706
168.811
174.599
180.228
184.857
154.508
157.408
161.349
167.093
174.607
184.142
195.958
209.975
224.395
236.749
172.661
177.642
184.901
194.885
207.952
224.799
246.118
272.326
300.937
330.672
186.962
193.396
203.357
218.076
238.306
266.116
303.782
353.768
413.507
486.374
197.573
205.637
218.796
238.215
265.925
305.733
362.325
441.674
543.014
687.319
212.034
220.473
233.917
254.472
284.385
329.293
397.304
500.754
647.282
887.758
353.839
359.813
369.719
384.196
405.433
437.021
485.482
563.247
685.659
903.691
4718.59
4704.92
4696.2
4693.82
4698.89
4712.98
4737.71
4774.19
4818.36
4864.6
3994.42
3992.99
3993.22
3995.3
3999.26
4005.11
4013.06
4024.17
4042.81
4084.12
266.907
267.965
268.565
268.941
268.958
268.559
267.573
265.325
260.266
250.712
127.105
127.892
128.644
129.46
130.349
131.317
132.403
133.591
134.662
135.457
126.695
127.75
129.024
130.868
133.157
135.894
139.097
142.695
146.11
148.386
137.563
139.602
142.312
145.767
149.974
154.993
160.873
167.62
174.398
180.387
147.599
150.386
154.35
159.864
166.96
176.056
187.547
201.854
217.693
234.246
156.012
159.791
165.526
173.355
183.814
197.787
216.228
240.349
268.459
302.641
172.299
176.669
183.007
192.005
204.115
220.915
244.469
277.889
321.472
382.513
317.278
320.789
326.124
333.501
343.898
358.42
379.016
409.798
457.849
530.395
4563.5
4552.32
4545.45
4544.03
4548.85
4560.94
4581.19
4610.13
4643.38
4675.02
3854.62
3853.25
3853.38
3855.19
3858.71
3863.96
3871.11
3881.08
3897.7
3934.78
246.66
247.208
247.56
247.75
247.695
247.345
246.552
244.712
240.397
231.56
116.514
116.864
117.133
117.35
117.527
117.678
117.847
118.067
118.303
118.544
113.135
113.533
113.943
114.546
115.254
116.06
116.98
118.016
119.001
119.494
119.259
120.126
121.158
122.359
123.693
125.146
126.726
128.478
130.228
131.63
125.868
127.103
128.691
130.756
133.216
136.143
139.611
143.761
148.285
152.588
131.818
133.608
136.113
139.249
143.157
148.003
153.953
161.317
169.494
178.495
147.348
149.65
152.62
156.506
161.314
167.452
175.445
186.166
199.811
217.225
289.258
291.358
294.131
297.768
302.82
309.57
318.633
331.647
354.128
384.948
4399.87
4390.93
4385.66
4384.99
4389.46
4399.71
4416.15
4438.88
4463.79
4486.5
3709.12
3707.81
3707.89
3709.52
3712.72
3717.51
3724.05
3733.09
3748.01
3781.27
230.684
230.923
231.162
231.327
231.357
231.209
230.747
229.415
225.871
217.901
110.995
111.161
111.266
111.313
111.313
111.285
111.265
111.296
111.397
111.599
106.422
106.578
106.708
106.907
107.129
107.37
107.652
108.004
108.386
108.555
109.62
110.001
110.402
110.819
111.227
111.618
112.009
112.467
113.006
113.478
113.83
114.393
115.034
115.806
116.64
117.547
118.562
119.788
121.248
122.655
117.783
118.637
119.732
120.983
122.433
124.103
126.028
128.352
130.977
133.838
131.723
132.967
134.356
136.006
137.856
140.011
142.633
146.048
150.675
156.611
267.325
268.641
270.019
271.751
274.203
277.416
281.598
287.527
299.719
315.485
4227.64
4220.6
4216.64
4216.48
4220.47
4228.95
4242.04
4259.65
4278.28
4295.14
3558.14
3556.9
3556.95
3558.43
3561.37
3565.78
3571.79
3580.02
3593.39
3623.06
217.031
217.072
217.242
217.411
217.526
217.549
217.349
216.422
213.512
206.375
107.893
107.971
108.015
108.018
107.99
107.944
107.907
107.919
108.013
108.243
103.104
103.169
103.209
103.275
103.343
103.414
103.508
103.653
103.851
103.959
104.569
104.737
104.894
105.037
105.153
105.239
105.316
105.439
105.664
105.928
107.202
107.466
107.726
108.008
108.272
108.521
108.782
109.133
109.677
110.289
109.721
110.125
110.598
111.09
111.618
112.186
112.808
113.58
114.55
115.727
121.936
122.63
123.277
123.957
124.621
125.299
126.062
127.074
128.758
131.237
249.502
250.397
251.042
251.839
253.053
254.669
256.749
259.711
267.014
275.99
4046.99
4041.51
4038.57
4038.7
4042.1
4048.95
4059.2
4072.68
4086.7
4099.56
3401.87
3400.7
3400.74
3402.1
3404.8
3408.85
3414.37
3421.85
3433.75
3459.97
204.64
204.55
204.668
204.835
205.001
205.13
205.1
204.455
202.039
195.665
105.972
106.005
106.024
106.02
105.999
105.969
105.95
105.973
106.077
106.327
101.487
101.517
101.531
101.552
101.57
101.588
101.621
101.692
101.816
101.907
101.977
102.05
102.11
102.158
102.188
102.199
102.207
102.251
102.383
102.584
103.615
103.742
103.848
103.947
104.017
104.06
104.097
104.184
104.417
104.757
105.178
105.363
105.559
105.747
105.936
106.129
106.336
106.62
107.049
107.673
115.757
116.16
116.461
116.726
116.928
117.079
117.213
117.431
118.053
119.29
234.234
234.912
235.186
235.545
236.186
237.085
238.248
239.904
244.492
249.837
3858.31
3854.08
3851.9
3852.15
3854.96
3860.38
3868.31
3878.56
3889.26
3899.32
3240.53
3239.44
3239.47
3240.7
3243.17
3246.88
3251.92
3258.68
3269.2
3292.07
192.875
192.698
192.771
192.924
193.107
193.287
193.349
192.888
190.849
185.165
104.644
104.652
104.66
104.659
104.65
104.638
104.637
104.67
104.777
105.033
100.715
100.734
100.74
100.746
100.748
100.748
100.758
100.795
100.877
100.958
100.697
100.726
100.748
100.765
100.774
100.775
100.777
100.806
100.901
101.066
101.723
101.785
101.83
101.862
101.872
101.861
101.843
101.853
101.966
102.185
102.688
102.766
102.84
102.91
102.981
103.054
103.137
103.269
103.501
103.896
111.76
112.004
112.146
112.238
112.275
112.257
112.204
112.177
112.38
113.088
220.332
220.901
220.995
221.161
221.54
222.113
222.86
223.904
226.777
229.961
3662.23
3658.95
3657.32
3657.61
3659.87
3664.1
3670.2
3678.01
3686.32
3694.4
3074.38
3073.37
3073.39
3074.51
3076.76
3080.13
3084.7
3090.75
3099.95
3119.59
181.315
181.083
181.116
181.246
181.421
181.61
181.71
181.36
179.606
174.515
103.626
103.621
103.625
103.627
103.627
103.629
103.639
103.676
103.778
104.028
100.355
100.37
100.376
100.377
100.373
100.366
100.365
100.382
100.437
100.508
100.106
100.115
100.123
100.13
100.135
100.14
100.148
100.173
100.245
100.376
100.756
100.788
100.808
100.817
100.813
100.796
100.772
100.764
100.823
100.973
101.37
101.395
101.417
101.444
101.476
101.516
101.567
101.649
101.796
102.071
109.036
109.19
109.256
109.283
109.269
109.216
109.129
109.047
109.076
109.524
206.913
207.421
207.432
207.517
207.774
208.189
208.73
209.455
211.152
212.982
3459.54
3456.98
3455.75
3456.01
3457.8
3461.09
3465.78
3471.78
3478.38
3485.01
2903.82
2902.9
2902.92
2903.92
2905.94
2908.98
2913.08
2918.46
2926.4
2942.93
169.664
169.398
169.396
169.496
169.647
169.819
169.919
169.63
168.088
163.485
102.784
102.774
102.775
102.779
102.786
102.795
102.812
102.847
102.938
103.17
100.192
100.205
100.21
100.209
100.203
100.195
100.188
100.194
100.228
100.29
99.8668
99.8673
99.8693
99.8735
99.8792
99.8865
99.8973
99.9193
99.9712
100.071
100.282
100.299
100.308
100.311
100.306
100.294
100.277
100.268
100.299
100.402
100.695
100.696
100.698
100.71
100.731
100.762
100.803
100.865
100.965
101.159
107.019
107.117
107.148
107.151
107.131
107.086
107.015
106.941
106.896
107.206
193.323
193.787
193.763
193.814
194.008
194.332
194.752
195.28
196.166
197.14
3251.21
3249.2
3248.25
3248.47
3249.87
3252.42
3256.07
3260.74
3266.07
3271.6
2729.42
2728.6
2728.6
2729.5
2731.29
2733.99
2737.64
2742.36
2749.11
2762.7
157.692
157.409
157.378
157.445
157.562
157.699
157.776
157.518
156.137
151.912
102.057
102.046
102.046
102.052
102.061
102.074
102.092
102.124
102.198
102.402
100.116
100.128
100.132
100.131
100.126
100.117
100.108
100.107
100.127
100.179
99.8002
99.7982
99.7984
99.8012
99.8064
99.8137
99.8237
99.8401
99.8745
99.9451
100.064
100.073
100.078
100.079
100.077
100.069
100.059
100.053
100.068
100.136
100.355
100.347
100.343
100.35
100.366
100.392
100.426
100.472
100.538
100.671
105.373
105.434
105.447
105.445
105.43
105.403
105.357
105.307
105.237
105.466
179.065
179.481
179.443
179.479
179.632
179.892
180.224
180.624
180.995
181.444
3038.41
3036.8
3036.06
3036.23
3037.33
3039.33
3042.2
3045.89
3050.22
3054.88
2552.05
2551.28
2551.28
2552.07
2553.64
2556.01
2559.21
2563.3
2568.95
2579.79
145.218
144.934
144.879
144.912
144.986
145.077
145.116
144.874
143.636
139.693
101.424
101.414
101.414
101.419
101.428
101.442
101.46
101.486
101.542
101.707
100.075
100.083
100.087
100.086
100.082
100.075
100.068
100.064
100.073
100.112
99.8136
99.8117
99.8116
99.8134
99.817
99.8223
99.8292
99.8395
99.8595
99.9045
99.9798
99.985
99.9878
99.9885
99.9869
99.9828
99.9767
99.9712
99.9765
100.018
100.172
100.163
100.159
100.163
100.175
100.194
100.218
100.248
100.287
100.371
103.921
103.959
103.963
103.961
103.953
103.938
103.911
103.881
103.813
103.986
163.686
164.038
163.998
164.025
164.144
164.346
164.601
164.898
165.105
165.251
2822.53
2821.23
2820.64
2820.78
2821.64
2823.23
2825.5
2828.45
2831.97
2835.91
2372.39
2371.88
2371.89
2372.57
2373.95
2376.02
2378.79
2382.32
2386.97
2395.34
132.141
131.873
131.799
131.793
131.815
131.843
131.829
131.598
130.538
126.892
100.889
100.882
100.882
100.887
100.895
100.906
100.922
100.942
100.979
101.094
100.04
100.046
100.048
100.048
100.046
100.041
100.036
100.032
100.036
100.06
99.8616
99.8605
99.8604
99.8614
99.8634
99.8662
99.8699
99.8749
99.8845
99.9085
99.9639
99.9672
99.969
99.9694
99.9682
99.9655
99.9611
99.9563
99.9558
99.9761
100.053
100.047
100.045
100.047
100.054
100.065
100.077
100.092
100.11
100.155
102.594
102.617
102.619
102.618
102.613
102.603
102.586
102.565
102.517
102.638
146.574
146.838
146.802
146.819
146.903
147.045
147.223
147.422
147.529
147.636
2605.06
2604
2603.52
2603.62
2604.31
2605.57
2607.41
2609.79
2612.67
2616
2191.52
2190.89
2190.89
2191.48
2192.66
2194.44
2196.83
2199.83
2203.61
2210
117.562
117.39
117.353
117.352
117.364
117.38
117.381
117.273
116.632
113.571
100.465
100.462
100.463
100.466
100.472
100.481
100.493
100.508
100.531
100.589
100.014
100.017
100.018
100.018
100.017
100.015
100.013
100.011
100.011
100.02
99.9258
99.9254
99.9253
99.9257
99.9265
99.9277
99.9292
99.931
99.9343
99.9435
99.9829
99.9849
99.986
99.9861
99.9853
99.9834
99.9805
99.9769
99.9745
99.9807
99.9864
99.9837
99.9827
99.9838
99.9867
99.9908
99.9951
99.9992
100.004
100.019
101.379
101.391
101.394
101.393
101.388
101.379
101.367
101.352
101.332
101.4
126.434
126.569
126.542
126.549
126.596
126.675
126.773
126.878
126.913
126.971
2386.82
2385.94
2385.54
2385.62
2386.17
2387.19
2388.67
2390.61
2393
2395.83
8492.96
8948.35
8717.16
7657.43
2.65752e+06
2.55077e+06
2.48766e+06
2.405e+06
4.9787e+06
4.80956e+06
4.64542e+06
4.32102e+06
6.78361e+06
6.58255e+06
6.29201e+06
5.79574e+06
8.83915e+06
8.59583e+06
8.13391e+06
7.50674e+06
1.13604e+07
1.09272e+07
1.01418e+07
9.28678e+06
1.3695e+07
1.30683e+07
1.2034e+07
1.10668e+07
1.4784e+07
1.40072e+07
1.28264e+07
1.17731e+07
1.02427e+07
9.55256e+06
8.59476e+06
7.73867e+06
9644.76
9838.95
9738.74
9573.09
6421.42
6759.54
6901.56
6735.54
1.72973e+06
1.38411e+06
1.34396e+06
1.36186e+06
2.80153e+06
2.35211e+06
2.27167e+06
2.14118e+06
3.66028e+06
3.20903e+06
3.08059e+06
2.77168e+06
4.65711e+06
4.2348e+06
3.98397e+06
3.47447e+06
5.91633e+06
5.37096e+06
4.74183e+06
3.9159e+06
6.99763e+06
6.31427e+06
5.354e+06
4.33557e+06
7.52005e+06
6.74841e+06
5.58812e+06
4.34058e+06
5.90545e+06
5.22417e+06
4.19125e+06
3.08352e+06
9270.21
9335.29
9129.36
8749.53
5610.64
5753.98
5794.61
5704.28
175474
175696
159466
127795
344664
341285
303925
233264
524576
514190
452321
342255
762943
743953
647058
483722
1.10187e+06
1.07275e+06
921667
671751
1.487e+06
1.44202e+06
1.22616e+06
883436
1.78602e+06
1.71569e+06
1.43508e+06
1.01275e+06
1.45884e+06
1.37704e+06
1.12133e+06
749459
7068.84
7150.19
7127.27
7025.88
5345.46
5411.81
5422.38
5363.48
17409.3
17510.3
16334.5
13761
38001.2
37815
34119.2
27810.3
63310.4
61805.7
54509.6
43420.5
100298
96503.5
83498.5
64695
156514
148673
126308
95868
228228
214603
180141
135475
294213
273904
227982
170775
235880
213735
174571
126605
6130.53
6179.96
6203.22
6206.01
5138.93
5185.92
5187.68
5139.18
2718.99
2754.95
2641.16
2418.55
5794.44
5867.66
5496.33
4840.31
10010.5
10002.3
9205.08
7943.24
16492.7
16286.3
14739
12436.7
27031.4
26489.3
23745.5
19836.3
41407.5
40340.7
35960.9
29888.3
56018.2
54349.3
48399.6
40202.2
45041.1
43084.6
38249.1
31118.3
5609.5
5643.04
5670.87
5693.29
4959.55
4999.48
4999.75
4958.02
752.938
748.928
734.664
715.68
1198.32
1205.93
1164.36
1089.89
2058.88
2061.97
1971.42
1823.72
3435.43
3427.91
3244.85
2958.04
5772.84
5761.38
5437.5
4931.59
9056.4
9041.17
8520.2
7698.26
12533.8
12533.1
11837.5
10686.5
10037.1
9976.26
9487.84
8484.93
5257.02
5275.67
5297.14
5322.81
4794.47
4830.43
4830.42
4793.19
406.228
400.258
396.372
395.439
370.315
369.67
362.923
351.988
575.284
573.89
561.019
540.958
922.704
921.698
896.42
855.423
1526.81
1533.67
1493.35
1421.1
2377.78
2400.95
2341.14
2221.35
3296.85
3349.43
3279.96
3110.65
2796.47
2841.1
2819.03
2679.59
4991.16
5001.09
5016.77
5040.85
4633.3
4666.23
4666.13
4632.29
316.774
312.003
310
310.973
186.264
185.295
183.312
180.743
238.051
236.502
233.563
230.038
338.392
336.709
331.363
323.786
514.24
514.685
507.57
495.187
757.542
763.064
754.392
734.551
1031.36
1046.9
1040.39
1013.73
1059.63
1076.74
1084.93
1069.24
4772.75
4777.46
4788.48
4809.04
4470.05
4500.13
4500.02
4469.29
282.029
278.459
277.219
278.364
136.29
135.718
134.805
133.742
147.491
146.502
145.415
144.529
180.363
179.122
177.238
175.189
237.87
236.933
234.672
231.762
314.73
314.887
312.452
308.213
411.743
414.681
413.374
408.306
567.674
572.707
577.048
577.357
4576.38
4577.95
4585.42
4601.99
4302.51
4329.7
4329.59
4301.95
262.618
259.99
259.207
260.256
119.537
119.252
118.735
118.098
118.753
118.157
117.616
117.297
130.93
130.146
129.212
128.394
152.436
151.579
150.461
149.447
179.927
179.188
177.944
176.632
223.012
223.005
222.087
220.678
393.653
394.853
396.343
397.934
4387.25
4386.99
4391.89
4404.77
4129.71
4153.93
4153.82
4129.31
248.385
246.54
246.065
246.888
112.716
112.608
112.293
111.841
108.104
107.746
107.44
107.291
112.973
112.491
111.952
111.526
122.12
121.525
120.863
120.372
133.469
132.801
132.025
131.442
157.474
156.998
156.271
155.639
315.99
316.007
316.39
317.622
4198.43
4197.16
4200.29
4210.09
3951.27
3972.44
3972.31
3950.98
236.083
234.994
234.748
235.163
109.403
109.402
109.205
108.858
103.708
103.49
103.309
103.229
105.633
105.337
105.008
104.756
109.877
109.49
109.075
108.79
115.198
114.717
114.212
113.89
131.085
130.653
130.117
129.733
273.648
273.279
273.301
274.212
4007.19
4005.45
4007.4
4014.73
3767.08
3785.25
3785.17
3766.87
224.484
224.097
223.954
223.944
107.476
107.538
107.416
107.138
101.779
101.648
101.538
101.492
102.428
102.248
102.044
101.888
104.494
104.248
103.985
103.809
107.259
106.933
106.604
106.413
118.989
118.676
118.301
118.042
246.317
245.814
245.745
246.483
3812.44
3810.57
3811.75
3817.15
3577.29
3592.73
3592.68
3577.11
213.066
213.04
212.965
212.801
106.137
106.235
106.16
105.932
100.905
100.827
100.762
100.732
100.992
100.884
100.759
100.663
102.03
101.876
101.712
101.602
103.613
103.399
103.189
103.075
112.83
112.623
112.371
112.191
225.894
225.342
225.267
225.922
3613.76
3611.98
3612.66
3616.58
3382.33
3395.19
3395.16
3382.23
201.34
201.49
201.443
201.173
105.062
105.179
105.135
104.942
100.502
100.458
100.419
100.398
100.35
100.287
100.212
100.154
100.889
100.795
100.695
100.628
101.891
101.755
101.625
101.56
109.347
109.222
109.059
108.93
208.675
208.111
208.052
208.661
3411.11
3409.56
3409.93
3412.72
3182.72
3193.09
3193.07
3182.67
188.989
189.226
189.2
188.892
104.116
104.241
104.217
104.05
100.313
100.291
100.267
100.25
100.069
100.033
99.9892
99.9551
100.361
100.306
100.246
100.206
101.054
100.973
100.895
100.86
107.109
107.045
106.943
106.846
192.81
192.259
192.218
192.785
3204.77
3203.51
3203.7
3205.62
2979.13
2987.13
2987.13
2979.11
175.84
176.045
176.031
175.789
103.242
103.366
103.353
103.208
100.218
100.211
100.197
100.181
99.9531
99.9332
99.9083
99.889
100.119
100.087
100.053
100.029
100.619
100.574
100.53
100.51
105.443
105.424
105.361
105.279
177.312
176.817
176.788
177.284
2995.31
2994.36
2994.45
2995.71
2772.56
2778.38
2778.38
2772.54
161.638
161.626
161.62
161.616
102.413
102.525
102.52
102.398
100.158
100.159
100.151
100.136
99.9138
99.9028
99.8892
99.8788
100.012
99.9935
99.9736
99.9601
100.352
100.331
100.307
100.294
104.016
104.031
103.99
103.91
161.634
161.279
161.259
161.604
2783.66
2783.01
2783.05
2783.82
2564.3
2568.19
2568.19
2564.29
145.856
145.352
145.35
145.849
101.622
101.708
101.706
101.617
100.098
100.103
100.099
100.086
99.9142
99.9078
99.9007
99.8959
99.9724
99.9614
99.9499
99.9424
100.154
100.147
100.135
100.126
102.673
102.701
102.672
102.595
144.763
144.558
144.552
144.764
2571.09
2570.75
2570.75
2571.13
2355.04
2357.38
2357.38
2355.04
126.936
125.797
125.796
126.933
100.878
100.92
100.92
100.877
100.038
100.041
100.039
100.033
99.9442
99.9402
99.9367
99.9353
99.9757
99.9687
99.9623
99.959
100.023
100.021
100.016
100.011
101.384
101.391
101.369
101.324
125.113
125.09
125.094
125.132
2358.25
2358.15
2358.15
2358.25
6109.94
5470.82
5176.01
5060.33
5007.31
4963.47
4919.77
4881.6
4853.35
4835.75
1.78084e+06
529722
120862
36226.6
17412.5
10437.3
7277.4
5727.87
5057.05
4981.14
2.26388e+06
380998
84173.4
32496.7
17450.5
11377.2
8550.15
7148.71
6537.68
6533.31
2.18368e+06
251705
67467.3
26788.7
14565.4
9519.93
7139.55
5940.11
5389.39
5385.42
1.98311e+06
234307
62025.3
24425.1
12907.9
8195.34
5982.64
4867.47
4325.27
4294.8
1.93214e+06
258166
64723.9
24305.5
12124.1
7325.69
5116.31
4018.03
3465.57
3385.65
2.0596e+06
291070
66498.3
23505.8
11042.5
6387.76
4299.09
3281.12
2756.82
2649.35
2.09354e+06
297014
59955.7
19728.1
8703.91
4848.27
3176.84
2389.55
1988.77
1888.1
1.47229e+06
182983
29807.9
8998.75
3913.34
2304.28
1624.36
1310.29
1152.88
1103.76
9387.73
6991.07
6363.22
6096.31
5930.53
5821.56
5749.41
5699.04
5657.55
5628.65
5742.08
5312.4
5108.32
4997.48
4927.85
4875.41
4832.49
4798.49
4774.74
4760.99
629644
189510
59802.6
22627.6
10918.9
6450.44
4439.74
3439.73
2971.5
2830.8
782716
191071
56466.1
21882.1
11368.7
7244.58
5336.04
4379.54
3934.82
3845.71
819310
169799
48058.5
18705.6
9873.32
6334
4676.05
3838.3
3434.62
3360.67
867499
162578
45021.6
17436.2
9035.47
5665.51
4092.71
3301.68
2900.79
2815.31
1.00315e+06
179589
47996.9
17874.7
8811.45
5275.91
3655.52
2851.73
2432.73
2317.6
1.18479e+06
204299
50721.6
17823.2
8307.12
4769.79
3190.49
2423.92
2015.86
1886.12
1.30112e+06
213546
47431.9
15482.3
6785.45
3753.38
2446.73
1833.81
1513.53
1402.67
961753
136349
24907
7443.76
3259.74
1934.74
1371.18
1106.4
972.44
921.493
8146.71
6675.74
6168.67
5936.54
5793.83
5698.41
5633.31
5586.18
5546.15
5514.69
5209.7
5024.06
4926.92
4860.07
4807.36
4764.35
4730.24
4704.81
4688.01
4679
61121.1
26851.3
13075.2
7153.73
4366.56
2950.93
2201.48
1795.97
1599.92
1539.69
93212.4
36051.6
16626.8
8754.01
5320.5
3647.68
2780.84
2321.63
2104.68
2060
116135
39541.2
17138.1
8633.94
5133.88
3479.17
2637.54
2195.68
1981.36
1939.8
144367
44038.6
18180
8753.31
5017.27
3305.92
2452.46
2010.7
1785.52
1733.52
193604
54762.6
21004.6
9517.71
5155.73
3238.82
2305.27
1829.18
1578.92
1504.7
258881
67263.2
23274.1
9894.21
5064.42
3051.7
2098.86
1624.59
1369.74
1283.25
313758
74239.2
22342.4
8886.65
4292.43
2498.81
1679.33
1285.58
1079.09
1005.19
228836
45869
11398.1
4448.15
2248.37
1447.3
1073.84
889.291
797.088
762.857
6948.91
6281.87
5950.86
5773.96
5659.41
5580.65
5524.14
5480.93
5442.2
5410.62
4922.29
4815.65
4753.95
4707.77
4670.83
4641.37
4618.76
4602.47
4592.29
4587.67
9330.9
5781.02
3670.35
2435.66
1725
1316.84
1084.31
952.446
889.459
874.221
16397.1
9085.06
5347.63
3321.68
2244.71
1652.86
1321.96
1138.9
1052.84
1038.81
23067.9
11516
6281.24
3689.8
2410.92
1737.66
1371.56
1172.11
1075.94
1060.28
31424.3
14320.7
7282.51
4045.25
2535.05
1773.44
1370.34
1155.54
1046.67
1023.68
45679.8
19237.6
8961.89
4669.44
2761.19
1840.5
1365.36
1115.62
984.361
946.253
64883.1
24688.5
10347.6
5075.22
2839.41
1817.08
1304.5
1042.09
900.753
852.968
83789.2
28005.3
10243.5
4753.17
2521.12
1565.74
1103.04
874.401
754.72
712.706
62853.8
17162.9
5422.12
2637.16
1530.64
1075.92
842.033
719.394
659.261
637.595
6276.59
5918.95
5712.21
5585.07
5498.79
5435.94
5388.67
5351.1
5316.1
5287.21
4700.89
4628.31
4587.67
4558.61
4535.8
4517.66
4503.73
4493.84
4488.08
4486.25
2017.35
1546.2
1182.78
932.555
771.207
670.623
610.004
574.291
558.888
559.411
3673.74
2504.92
1718
1217.42
913.293
729.829
620.496
557.796
529.144
527.164
5677.01
3561.91
2251.89
1501.78
1078.48
834.961
694.424
615.051
577.299
573.365
8365.03
4844.55
2825.87
1775.53
1219.04
914.889
745.105
652.232
605.712
597.789
12983.8
6949.89
3701.81
2177.62
1407.99
1005.95
787.094
668.586
606.477
589.587
19234.5
9277.71
4471.05
2480.44
1518.3
1042.26
790.517
658.001
586.506
562.957
25764.7
10775.3
4616.17
2443.21
1426.19
955.291
714.099
591.296
527.198
505.536
19648.4
6697.3
2728.55
1606.83
1065.08
813.379
670.076
589.905
551.737
538.196
5794.96
5603.61
5486.58
5400.04
5336.77
5287.04
5247.76
5215.52
5184.48
5158.68
4526.09
4469.12
4440
4420.57
4405.62
4393.77
4384.73
4378.54
4375.4
4375.21
650.733
592.517
532.609
484.621
450.71
428.469
414.912
407.154
405.605
410.021
954.325
760.098
597.928
480.985
401.895
350.667
318.736
300.08
292.322
293.655
1541.79
1141.81
828.047
624.741
496.028
416.124
367.59
339.224
326.136
326.24
2395.01
1638.91
1095.42
778.047
590.01
479.708
415.215
379.189
361.564
359.971
3899.47
2464.06
1506.86
999.781
712.932
551.676
459.369
407.912
381.095
374.796
5954.33
3395.46
1894.86
1185.67
801.133
596.143
482.003
420.224
386.802
376.427
8133.21
4050.67
2058.13
1235.89
802.23
585.171
467.435
405.494
373.33
363.203
6339.47
2751.97
1490.76
1033.14
771.369
632.097
544.473
491.971
468.065
459.59
5437.36
5341.01
5276.95
5218.69
5172.07
5132.7
5100.29
5073.05
5046.13
5023.69
4373.24
4324.7
4301.4
4286.65
4275.56
4266.92
4260.51
4256.4
4254.75
4255.48
358.602
357.219
349.056
340.543
334.145
330.174
328.229
327.718
329.465
334.072
331.554
296.672
263.226
236.753
217.489
204.485
196.252
191.536
190.156
191.774
500.906
422.279
349.326
296.564
259.888
235.649
220.276
210.971
206.961
207.933
765.544
599.558
460.916
370.128
311.232
274.566
252.308
239.73
233.902
234.369
1245.93
904.703
640.364
480.591
381.012
321.051
285.04
264.379
253.76
252.012
1904.3
1257.22
820.822
581.383
438.059
355.815
307.584
280.731
266.17
262.144
2617.34
1541.58
939.215
641.403
467.542
372.958
318.421
288.693
273.467
269.249
2251.65
1297.65
906.508
713.471
586.022
507.796
453.768
419.01
404.122
398.7
5159.48
5114
5077.75
5038.02
5003.28
4972.23
4945.81
4923.3
4900.56
4881.64
4227.88
4184.42
4164.25
4151.85
4142.74
4135.8
4130.84
4127.89
4127.05
4128.24
277.076
284.108
285.2
284.462
283.8
283.765
284.319
285.332
287.427
291.316
175.607
168.546
161.434
155.489
151.034
148.059
146.285
145.441
145.645
146.87
223.589
207.615
190.624
177.113
166.999
159.967
155.337
152.426
151.358
152.23
306.94
269.741
235.207
210.128
192.692
181.318
174.249
170.296
168.719
169.562
462.319
381.746
311.175
262.668
229.823
208.719
195.452
187.642
183.775
183.675
672.99
513.229
391.376
313.835
263.158
231.823
212.449
201.382
195.407
194.108
915.314
641.618
466.221
361.957
295.113
255.295
230.824
217.022
210.202
208.739
990.768
741.017
615.972
530.968
467.214
422.198
388.36
364.957
355.644
352.01
4926.53
4905.6
4883.31
4855.6
4829.52
4805.26
4784.1
4765.94
4747.33
4731.92
4082.31
4042.75
4024.71
4013.77
4005.81
3999.86
3995.73
3993.43
3993.03
3994.42
245.309
253.351
256.051
256.741
257.083
257.63
258.413
259.429
261.141
264.217
131.164
129.387
127.761
126.411
125.461
124.934
124.758
124.855
125.308
126.133
143.385
140.057
135.937
132.378
129.548
127.505
126.123
125.219
125.005
125.611
171.266
162.6
153.923
147.06
142.052
138.699
136.636
135.567
135.337