/*--------------------------------*- C++ -*----------------------------------*\
| =========                 |                                                 |
| \\      /  F ield         | foam-extend: Open Source CFD                    |
|  \\    /   O peration     | Version:     4.0                                |
|   \\  /    A nd           | Web:         http://www.foam-extend.org         |
|    \\/     M anipulation  |                                                 |
\*---------------------------------------------------------------------------*/
FoamFile
{
    version     2.0;
    format      ascii;
    class       volScalarField;
    location    "800";
    object      MaU;
}
// * * * * * * * * * * * * * * * * * * * * * * * * * * * * * * * * * * * * * //

dimensions      [0 0 0 0 0 0 0];

internalField   nonuniform List<scalar> 
34480
(
0.624815
0.630015
0.635029
0.640083
0.645472
0.651092
0.655117
0.651813
0.631499
0.567039
0.631571
0.63777
0.643525
0.648926
0.654499
0.660711
0.666915
0.669216
0.659567
0.606574
0.634763
0.641793
0.648473
0.654911
0.661532
0.669072
0.677558
0.684113
0.682428
0.639822
0.635389
0.643914
0.652183
0.660319
0.668569
0.677644
0.687973
0.697694
0.702208
0.667582
0.635752
0.645583
0.655209
0.664821
0.67458
0.685104
0.697041
0.709429
0.719191
0.690765
0.635025
0.645872
0.656505
0.667213
0.678143
0.689841
0.703065
0.71765
0.731897
0.708683
0.634733
0.646225
0.657427
0.668746
0.68035
0.692772
0.706907
0.723434
0.741984
0.723925
0.633765
0.645538
0.656917
0.668382
0.6801
0.692621
0.706997
0.724861
0.747493
0.734974
0.633709
0.645522
0.656899
0.668395
0.680164
0.692671
0.706987
0.725645
0.752092
0.744414
0.629532
0.641391
0.65282
0.664284
0.675764
0.68759
0.700857
0.718921
0.748593
0.746777
0.600265
0.603173
0.604792
0.604835
0.602853
0.598036
0.589104
0.574344
0.549274
0.495591
0.612938
0.617307
0.620549
0.622242
0.62206
0.61932
0.612505
0.599396
0.57651
0.522464
0.619861
0.625317
0.629828
0.63314
0.634907
0.634626
0.630887
0.620981
0.601636
0.548787
0.622977
0.629951
0.636149
0.641394
0.645266
0.647275
0.646145
0.639092
0.623156
0.572421
0.625027
0.633327
0.64097
0.64784
0.653546
0.657557
0.658701
0.654303
0.641662
0.593547
0.625571
0.634947
0.643708
0.651824
0.658978
0.664614
0.667657
0.665629
0.65596
0.610084
0.626217
0.636318
0.645787
0.654701
0.662828
0.669651
0.674247
0.674488
0.667958
0.624972
0.625902
0.636396
0.646219
0.655536
0.664164
0.671683
0.677354
0.67956
0.676384
0.637329
0.626015
0.636602
0.646537
0.656076
0.665119
0.673275
0.679867
0.683734
0.684039
0.649063
0.622277
0.632911
0.64298
0.652621
0.661671
0.669776
0.676475
0.68108
0.684873
0.655087
0.581986
0.583563
0.583666
0.582081
0.578424
0.572162
0.562597
0.548914
0.529719
0.502142
0.597313
0.600288
0.601901
0.60177
0.599403
0.594027
0.584506
0.569281
0.546034
0.510816
0.606436
0.610597
0.613528
0.614895
0.61423
0.610697
0.602821
0.588355
0.563995
0.522893
0.611355
0.616986
0.621529
0.624707
0.62595
0.624394
0.618337
0.60496
0.580153
0.53428
0.614742
0.621676
0.627648
0.632418
0.635404
0.635709
0.631496
0.619526
0.594959
0.545645
0.616338
0.624373
0.631508
0.637563
0.642003
0.643907
0.641376
0.630907
0.607004
0.555389
0.617776
0.62659
0.634525
0.64148
0.647001
0.650185
0.649171
0.640385
0.617764
0.56514
0.618076
0.627364
0.635773
0.643285
0.649521
0.653638
0.653892
0.646832
0.626059
0.573613
0.618566
0.627988
0.636567
0.644365
0.651127
0.656087
0.657604
0.652361
0.633846
0.581591
0.615452
0.624904
0.633626
0.641541
0.648356
0.653367
0.655386
0.651504
0.635651
0.583803
0.569014
0.569776
0.569241
0.567281
0.563712
0.558341
0.55105
0.54196
0.531358
0.518916
0.58464
0.586525
0.587052
0.58595
0.582863
0.577329
0.568792
0.556742
0.540743
0.521009
0.594758
0.597768
0.599453
0.599494
0.597473
0.592751
0.584417
0.57136
0.552363
0.526641
0.600841
0.605202
0.608309
0.609837
0.609249
0.605745
0.598079
0.584524
0.563017
0.531449
0.60524
0.610837
0.615261
0.61821
0.619056
0.6169
0.610203
0.59667
0.573339
0.536646
0.60771
0.614391
0.619945
0.624109
0.626237
0.62535
0.619687
0.60646
0.581786
0.540647
0.609843
0.617326
0.623709
0.628787
0.63195
0.63218
0.627589
0.615029
0.589731
0.545192
0.610702
0.618712
0.625639
0.631347
0.635284
0.636444
0.632901
0.621292
0.596092
0.549214
0.611496
0.619693
0.626841
0.63287
0.63734
0.639326
0.636953
0.626708
0.602375
0.553407
0.608806
0.617058
0.624388
0.63059
0.635224
0.637389
0.635517
0.62637
0.603739
0.553039
0.56098
0.561358
0.560778
0.559191
0.556553
0.552847
0.548171
0.542915
0.537914
0.533653
0.575179
0.576349
0.576366
0.575075
0.572286
0.567799
0.561446
0.55321
0.543369
0.53292
0.585088
0.587216
0.58811
0.58753
0.585187
0.580701
0.573643
0.563654
0.550668
0.535692
0.591593
0.594894
0.596939
0.597433
0.595963
0.591955
0.584664
0.573279
0.557202
0.537258
0.596549
0.600976
0.604158
0.605794
0.605347
0.60209
0.594969
0.582666
0.563885
0.539055
0.599592
0.605049
0.609264
0.611955
0.612505
0.61007
0.60331
0.590408
0.569251
0.53973
0.602225
0.608478
0.613498
0.617038
0.618463
0.616844
0.610621
0.597534
0.574579
0.54094
0.603521
0.610332
0.615921
0.620093
0.622235
0.621377
0.615818
0.602933
0.578832
0.54176
0.604609
0.611651
0.617497
0.622003
0.624631
0.624455
0.619746
0.607591
0.583184
0.54303
0.602276
0.6094
0.615458
0.620169
0.623011
0.623055
0.61873
0.607171
0.583377
0.540658
0.556587
0.556792
0.556355
0.555273
0.553558
0.551256
0.548507
0.545702
0.543726
0.543431
0.568564
0.56928
0.569116
0.567993
0.565842
0.562617
0.55833
0.553117
0.547322
0.541673
0.577475
0.578942
0.579367
0.578597
0.576464
0.572795
0.567455
0.560455
0.552094
0.543348
0.583807
0.586241
0.58753
0.587443
0.585706
0.581975
0.575896
0.567226
0.55607
0.543644
0.588904
0.59232
0.594533
0.595278
0.594156
0.590663
0.584193
0.574158
0.560288
0.543936
0.592233
0.59659
0.599694
0.601278
0.600835
0.597725
0.591075
0.579906
0.563417
0.54299
0.595169
0.600288
0.604127
0.606438
0.60665
0.604014
0.597413
0.585475
0.566726
0.542415
0.596767
0.602449
0.606843
0.609728
0.610524
0.608404
0.60206
0.589738
0.569217
0.541376
0.598093
0.604041
0.608711
0.611924
0.613122
0.611483
0.605607
0.593429
0.571889
0.540832
0.596026
0.602081
0.60698
0.610412
0.611838
0.610406
0.604761
0.592723
0.571001
0.537266
0.554651
0.554784
0.554513
0.553854
0.552834
0.551504
0.549981
0.548589
0.548166
0.549891
0.564265
0.564706
0.564529
0.563697
0.5622
0.560055
0.557331
0.554171
0.550823
0.547707
0.571763
0.572757
0.572936
0.572214
0.570512
0.567776
0.564013
0.559345
0.554091
0.548897
0.577498
0.579253
0.580038
0.579693
0.578058
0.574961
0.570284
0.564051
0.556568
0.54878
0.582391
0.584967
0.586461
0.586664
0.58531
0.582098
0.576734
0.569057
0.559239
0.548516
0.58574
0.589142
0.591366
0.59218
0.591216
0.588037
0.582149
0.573137
0.560911
0.546964
0.588792
0.592895
0.595753
0.597141
0.596603
0.593592
0.587398
0.577314
0.562845
0.545646
0.590547
0.595193
0.59856
0.600431
0.600311
0.597562
0.591283
0.580455
0.564063
0.543752
0.592041
0.596974
0.60062
0.602791
0.602976
0.600509
0.594366
0.583255
0.56554
0.542378
0.590161
0.595215
0.599092
0.601474
0.601866
0.599553
0.593491
0.582203
0.56386
0.538373
0.554194
0.554294
0.554147
0.553776
0.553204
0.552471
0.551661
0.551034
0.551374
0.554132
0.561688
0.561965
0.561834
0.561279
0.56031
0.55896
0.557295
0.555424
0.553498
0.55174
0.567677
0.568342
0.568407
0.567829
0.56658
0.564664
0.562134
0.559118
0.555849
0.552705
0.57258
0.57382
0.574286
0.573878
0.572512
0.570126
0.566719
0.562403
0.557468
0.552527
0.577018
0.578918
0.579901
0.579816
0.578503
0.575806
0.571625
0.565998
0.559212
0.552148
0.580172
0.58277
0.584323
0.584646
0.583493
0.580602
0.575738
0.568804
0.560004
0.550506
0.583175
0.586394
0.588469
0.589209
0.588284
0.585329
0.57995
0.571867
0.561089
0.549035
0.584946
0.588667
0.591185
0.592301
0.591632
0.588726
0.583029
0.57404
0.561473
0.546894
0.586538
0.590549
0.59333
0.594702
0.594243
0.591452
0.585652
0.576139
0.562235
0.545354
0.584773
0.588909
0.591907
0.593465
0.593166
0.590458
0.584612
0.57474
0.560041
0.541316
0.554526
0.554608
0.554539
0.554342
0.554034
0.553643
0.553226
0.552997
0.55369
0.556975
0.560304
0.560481
0.560402
0.560058
0.559465
0.55865
0.557662
0.55657
0.555463
0.554447
0.564884
0.565326
0.565348
0.56493
0.564069
0.562787
0.561141
0.559231
0.557206
0.555274
0.568886
0.569747
0.570022
0.569651
0.568598
0.566857
0.56447
0.561557
0.558337
0.555173
0.572719
0.574093
0.574729
0.574523
0.57339
0.571267
0.568151
0.564152
0.559534
0.554862
0.575528
0.57747
0.578532
0.578573
0.577444
0.575008
0.571187
0.566037
0.559832
0.553373
0.578355
0.580826
0.582298
0.582618
0.581566
0.578922
0.574506
0.568277
0.560445
0.552053
0.580017
0.582933
0.584772
0.585364
0.584433
0.581688
0.57683
0.569684
0.56033
0.549991
0.581644
0.584837
0.586909
0.587703
0.586896
0.584143
0.579044
0.571286
0.560739
0.548652
0.57993
0.583241
0.585506
0.586449
0.58575
0.583009
0.577773
0.569581
0.558249
0.544783
0.555208
0.555278
0.555251
0.555151
0.55499
0.554785
0.554578
0.554545
0.555377
0.558914
0.559687
0.559802
0.559762
0.559561
0.559212
0.558735
0.55816
0.557528
0.556889
0.556287
0.563057
0.563349
0.563359
0.563079
0.562514
0.561688
0.560644
0.55945
0.558194
0.556986
0.566206
0.566795
0.566961
0.566667
0.565903
0.564685
0.563063
0.561135
0.559046
0.557
0.569378
0.570353
0.57076
0.570533
0.569631
0.56804
0.565799
0.563024
0.559916
0.556816
0.571758
0.573179
0.573891
0.573796
0.572809
0.570871
0.567988
0.564268
0.55996
0.555575
0.574326
0.576181
0.577203
0.577278
0.576266
0.574053
0.570586
0.565935
0.560355
0.554546
0.575778
0.578012
0.579325
0.579579
0.578592
0.576191
0.572247
0.566764
0.559964
0.552706
0.577391
0.579877
0.581385
0.581786
0.580852
0.578364
0.574119
0.568039
0.560253
0.551718
0.575678
0.578265
0.579936
0.580447
0.57957
0.577039
0.572608
0.566093
0.557624
0.548104
0.555988
0.556047
0.556041
0.555992
0.555909
0.555803
0.555704
0.555758
0.556618
0.56025
0.559528
0.559604
0.559587
0.559475
0.559276
0.559002
0.558671
0.558307
0.557934
0.557566
0.56191
0.562102
0.56211
0.561933
0.561577
0.56106
0.560412
0.559673
0.558891
0.558121
0.564329
0.564726
0.564829
0.564616
0.564088
0.563266
0.562192
0.560935
0.559584
0.558247
0.56685
0.567528
0.567788
0.567589
0.566912
0.565769
0.564206
0.562319
0.560247
0.558181
0.568775
0.569792
0.570264
0.570122
0.569322
0.567852
0.565751
0.563128
0.560178
0.557204
0.571042
0.572405
0.573102
0.573052
0.572172
0.570416
0.567795
0.564416
0.560507
0.556509
0.572211
0.573883
0.574801
0.574858
0.573941
0.571963
0.568893
0.564814
0.559969
0.554922
0.573786
0.575677
0.576748
0.576903
0.575988
0.573881
0.570503
0.565899
0.56028
0.554327
0.57203
0.574002
0.575205
0.575433
0.574536
0.572352
0.568775
0.56378
0.557616
0.550987
0.556732
0.556784
0.556786
0.556763
0.55672
0.556666
0.556619
0.556706
0.557531
0.561159
0.559619
0.55967
0.559666
0.559606
0.559494
0.559338
0.559149
0.558937
0.558715
0.55848
0.561217
0.561342
0.561351
0.561244
0.561027
0.560711
0.560314
0.55986
0.55937
0.558866
0.56306
0.563324
0.563389
0.563244
0.562894
0.562355
0.561659
0.560851
0.559979
0.559094
0.564982
0.565445
0.565611
0.565455
0.564972
0.564179
0.563118
0.561858
0.560489
0.559107
0.566472
0.567185
0.567494
0.567352
0.566743
0.565672
0.564186
0.562378
0.560382
0.55837
0.568436
0.569414
0.569881
0.569781
0.56907
0.567738
0.565823
0.563429
0.560733
0.557996
0.569274
0.570496
0.571124
0.571079
0.570299
0.568748
0.566446
0.563496
0.560109
0.55663
0.570808
0.572213
0.572956
0.572971
0.572161
0.570468
0.567884
0.564502
0.560532
0.556425
0.568977
0.570439
0.571284
0.571343
0.570524
0.568741
0.565971
0.562265
0.557884
0.553335
0.557381
0.557426
0.557432
0.557421
0.557399
0.55737
0.557348
0.557438
0.558193
0.561749
0.559833
0.559867
0.559869
0.559837
0.559775
0.559687
0.559577
0.559452
0.559316
0.559156
0.560807
0.560887
0.560896
0.560834
0.560705
0.560515
0.560276
0.559997
0.559686
0.559346
0.562235
0.562408
0.562451
0.562357
0.562131
0.561787
0.561344
0.560831
0.560269
0.559674
0.56363
0.563941
0.564047
0.563934
0.563603
0.563069
0.562366
0.56154
0.560643
0.559715
0.564735
0.565225
0.565424
0.565305
0.564862
0.564109
0.563087
0.561867
0.560536
0.559177
0.566418
0.567105
0.567413
0.567306
0.566763
0.565791
0.564434
0.562778
0.560948
0.559086
0.566901
0.567771
0.568192
0.568107
0.567486
0.566321
0.564651
0.562575
0.560251
0.557877
0.568418
0.569435
0.569939
0.569887
0.56922
0.56792
0.566014
0.563599
0.560849
0.558048
0.566483
0.567535
0.568114
0.568085
0.567395
0.566007
0.563942
0.561274
0.558231
0.555155
0.557912
0.557952
0.557958
0.557953
0.557941
0.557925
0.557915
0.557994
0.558656
0.562078
0.560098
0.560121
0.560124
0.560108
0.560073
0.560022
0.559958
0.559882
0.559795
0.559679
0.560557
0.560608
0.560615
0.560581
0.560505
0.560394
0.560251
0.56008
0.55988
0.559641
0.561725
0.561837
0.561865
0.561807
0.561665
0.56145
0.561173
0.56085
0.560488
0.56008
0.562669
0.562873
0.562941
0.562864
0.562644
0.562295
0.561839
0.561307
0.560725
0.560099
0.563456
0.563784
0.563912
0.563821
0.563512
0.562999
0.562314
0.561508
0.560632
0.559718
0.564895
0.565366
0.565566
0.565473
0.565078
0.564394
0.56346
0.562341
0.56112
0.55986
0.565013
0.565617
0.565892
0.565802
0.565333
0.564491
0.563318
0.561895
0.560332
0.558729
0.566559
0.567279
0.567612
0.567537
0.56702
0.566063
0.564703
0.563025
0.561157
0.55927
0.564489
0.565224
0.565611
0.565545
0.565
0.563966
0.562479
0.560614
0.558548
0.556501
0.558317
0.558353
0.558358
0.558357
0.558349
0.55834
0.558334
0.558397
0.558951
0.562177
0.560383
0.560397
0.560401
0.560392
0.560372
0.560343
0.560304
0.560255
0.560196
0.560106
0.560383
0.560415
0.560421
0.560402
0.560359
0.560294
0.560209
0.560105
0.559973
0.5598
0.561431
0.561503
0.561522
0.561487
0.561401
0.561269
0.561099
0.560898
0.560665
0.560379
0.561997
0.562128
0.562171
0.56212
0.561979
0.561756
0.561467
0.561131
0.560757
0.560332
0.562538
0.562754
0.562834
0.562769
0.562561
0.562222
0.561775
0.561253
0.560686
0.560072
0.563774
0.564089
0.564217
0.564144
0.563869
0.563404
0.562779
0.562041
0.561241
0.560394
0.563526
0.563932
0.564109
0.56403
0.563691
0.563105
0.562306
0.561355
0.560325
0.559257
0.565171
0.565667
0.565883
0.56581
0.565429
0.564751
0.563812
0.562676
0.561435
0.560176
0.562921
0.563417
0.56367
0.563597
0.563189
0.562448
0.561415
0.560147
0.558777
0.557439
0.558578
0.558611
0.558614
0.558614
0.55861
0.558604
0.558599
0.558644
0.559081
0.562038
0.560681
0.560691
0.560693
0.560688
0.560676
0.560658
0.560634
0.560602
0.56056
0.560486
0.560231
0.56025
0.560254
0.560244
0.560219
0.560182
0.560132
0.560068
0.559981
0.559851
0.561285
0.56133
0.561343
0.561323
0.561272
0.561193
0.561091
0.560968
0.560819
0.560615
0.56154
0.561622
0.561649
0.561617
0.561528
0.561389
0.56121
0.561
0.560764
0.560473
0.561907
0.562045
0.562095
0.562051
0.561916
0.561697
0.561412
0.561082
0.560721
0.56031
0.56297
0.563175
0.563256
0.563204
0.563019
0.562713
0.562308
0.561833
0.56132
0.560756
0.562364
0.56263
0.562739
0.562677
0.562442
0.562047
0.561518
0.560899
0.560234
0.559536
0.564196
0.56453
0.564667
0.564606
0.564338
0.563875
0.563247
0.562498
0.561692
0.560861
0.561676
0.561999
0.56216
0.562096
0.561804
0.561294
0.560598
0.559761
0.558875
0.558018
0.558615
0.558645
0.558649
0.55865
0.558649
0.558646
0.558643
0.558672
0.558986
0.561583
0.561013
0.56102
0.561021
0.561018
0.561011
0.561
0.560985
0.560965
0.560933
0.560872
0.560075
0.560085
0.560087
0.560081
0.560067
0.560044
0.560015
0.559975
0.559916
0.559817
0.561234
0.561263
0.561272
0.561262
0.561233
0.561187
0.561128
0.561055
0.560962
0.560817
0.561252
0.561302
0.561318
0.561298
0.561243
0.561157
0.561048
0.56092
0.560772
0.560573
0.561511
0.561598
0.561628
0.5616
0.561513
0.561376
0.561198
0.560992
0.560766
0.560493
0.562418
0.562548
0.562598
0.562562
0.562443
0.562248
0.561992
0.561695
0.561376
0.561006
0.561487
0.561656
0.561723
0.561677
0.561519
0.561259
0.560916
0.560521
0.5601
0.559654
0.5636
0.563818
0.563904
0.563858
0.563677
0.563371
0.562964
0.562482
0.561972
0.561425
0.560601
0.560806
0.560904
0.560854
0.560653
0.560313
0.559859
0.559319
0.558762
0.558224
0.558235
0.558258
0.558262
0.558263
0.558263
0.558262
0.55826
0.558276
0.55847
0.560588
0.561444
0.56145
0.561451
0.56145
0.561447
0.561443
0.561436
0.561424
0.561403
0.561354
0.559942
0.559946
0.559946
0.559941
0.55993
0.559914
0.559894
0.559867
0.559825
0.559748
0.561241
0.56126
0.561267
0.561262
0.561247
0.561222
0.56119
0.56115
0.561095
0.560996
0.561103
0.561133
0.561142
0.561129
0.561095
0.561043
0.560975
0.560897
0.560805
0.560671
0.561313
0.561367
0.561385
0.561367
0.561313
0.561227
0.561116
0.560989
0.560848
0.560669
0.562074
0.562154
0.562184
0.562161
0.562085
0.561963
0.561805
0.561624
0.561431
0.561196
0.56094
0.561046
0.561086
0.561053
0.560948
0.560779
0.560557
0.560304
0.560033
0.559753
0.563408
0.563546
0.563599
0.563566
0.563447
0.56325
0.562992
0.562689
0.562375
0.562012
0.559445
0.559574
0.559633
0.559597
0.559463
0.55924
0.558948
0.558604
0.558257
0.557922
0.557137
0.557161
0.55716
0.557156
0.557148
0.557138
0.557126
0.557119
0.557191
0.558652
0.562121
0.562128
0.562131
0.562133
0.562137
0.56214
0.562144
0.562146
0.562141
0.562113
0.559933
0.559933
0.559931
0.559924
0.559912
0.559897
0.559877
0.559853
0.559818
0.559754
0.561261
0.561274
0.561279
0.561278
0.56127
0.561258
0.561241
0.561221
0.561193
0.561134
0.561061
0.561079
0.561084
0.561075
0.561053
0.561018
0.560975
0.560924
0.560866
0.560777
0.561263
0.561297
0.561309
0.561296
0.561261
0.561206
0.561134
0.561052
0.560962
0.560845
0.561893
0.561944
0.561962
0.561947
0.561898
0.56182
0.56172
0.561607
0.561491
0.561349
0.560854
0.560925
0.560949
0.560926
0.560855
0.560741
0.560592
0.560419
0.560229
0.560038
0.563727
0.563812
0.563845
0.563822
0.563743
0.563615
0.56345
0.563261
0.563073
0.562835
0.557893
0.557986
0.558023
0.557999
0.557909
0.55776
0.557565
0.557337
0.557108
0.556877
0.555465
0.555465
0.555454
0.555435
0.555409
0.555374
0.55533
0.555275
0.555217
0.555721
0.563106
0.563114
0.56312
0.563128
0.56314
0.563156
0.563177
0.563204
0.563233
0.563262
0.560113
0.560111
0.560107
0.560098
0.560085
0.560068
0.560046
0.560018
0.559981
0.559921
0.561239
0.561248
0.561252
0.561251
0.561247
0.561239
0.561229
0.561218
0.561206
0.561182
0.561059
0.561072
0.561075
0.561068
0.561051
0.561026
0.560992
0.560954
0.560912
0.560854
0.56127
0.561294
0.561302
0.561293
0.561267
0.561226
0.561173
0.561111
0.561045
0.560967
0.561798
0.561835
0.561848
0.561836
0.5618
0.561742
0.561669
0.561588
0.561507
0.561422
0.561217
0.561271
0.56129
0.561272
0.561219
0.561133
0.561019
0.560883
0.560726
0.56056
0.564532
0.564592
0.564615
0.564597
0.564539
0.564445
0.564327
0.564198
0.564086
0.563964
0.55601
0.556104
0.556138
0.556121
0.556054
0.555941
0.555793
0.555618
0.555433
0.55522
0.353478
0.2596
0.256315
0.354234
0.346944
0.251434
0.246545
0.35122
0.338001
0.241821
0.235673
0.328563
0.326482
0.229162
0.219571
0.293754
0.313472
0.215731
0.202503
0.262339
0.301422
0.206841
0.194767
0.256794
0.290518
0.200718
0.190302
0.251841
0.277995
0.19289
0.183441
0.241988
0.265417
0.185245
0.176157
0.230078
0.253381
0.178267
0.167359
0.21299
0.389077
0.352668
0.346435
0.369926
0.392565
0.350798
0.342737
0.366049
0.391619
0.345431
0.332264
0.352286
0.388524
0.337787
0.318439
0.333084
0.384334
0.329488
0.304776
0.31409
0.375417
0.316407
0.286876
0.291052
0.366955
0.30504
0.272004
0.271436
0.35835
0.294853
0.260114
0.257869
0.350365
0.285754
0.24921
0.244016
0.342693
0.275998
0.235881
0.2252
0.465381
0.452116
0.447813
0.454022
0.469039
0.451523
0.445815
0.453117
0.467084
0.446917
0.439393
0.444536
0.462192
0.43914
0.429188
0.431788
0.456152
0.430326
0.41795
0.418547
0.44809
0.419925
0.40594
0.405573
0.440227
0.409995
0.394499
0.3927
0.43177
0.399845
0.382911
0.37901
0.424037
0.39113
0.372767
0.366155
0.417621
0.384866
0.364123
0.35231
0.498197
0.493611
0.491518
0.491881
0.503518
0.495484
0.492385
0.493997
0.502438
0.492735
0.488343
0.488896
0.498429
0.486774
0.480838
0.480263
0.493443
0.479858
0.472428
0.470812
0.486043
0.470561
0.461712
0.458966
0.478436
0.461156
0.450931
0.446933
0.47002
0.451136
0.439567
0.434007
0.461705
0.441808
0.429034
0.421488
0.45273
0.433199
0.419029
0.407591
0.519182
0.518167
0.516963
0.515531
0.525126
0.521169
0.519218
0.519241
0.52464
0.519673
0.516836
0.516095
0.521568
0.515326
0.511435
0.509819
0.517714
0.510159
0.505206
0.502698
0.511743
0.502844
0.496799
0.493308
0.505519
0.495296
0.488157
0.483615
0.498333
0.486848
0.478596
0.472842
0.491361
0.479009
0.469763
0.462441
0.483877
0.47175
0.461493
0.450923
0.531309
0.531911
0.531223
0.529221
0.537718
0.535601
0.534407
0.534127
0.537625
0.534875
0.533075
0.532242
0.535301
0.531715
0.529181
0.527696
0.532311
0.527834
0.524529
0.522353
0.527357
0.521929
0.517803
0.514878
0.522167
0.515782
0.510831
0.507122
0.516032
0.508727
0.502951
0.49838
0.510219
0.502288
0.495814
0.490129
0.503543
0.495779
0.48872
0.480738
0.538859
0.540259
0.539862
0.53766
0.545543
0.544355
0.543632
0.543369
0.54567
0.544063
0.542931
0.54229
0.543963
0.541803
0.540164
0.539059
0.541689
0.538928
0.536742
0.53513
0.537655
0.534244
0.531469
0.529303
0.53345
0.529381
0.526011
0.523274
0.528351
0.523649
0.519695
0.516355
0.52371
0.518593
0.514172
0.510077
0.517894
0.512831
0.508051
0.502447
0.5437
0.545528
0.5453
0.543011
0.550475
0.549783
0.549348
0.549166
0.550771
0.549792
0.549084
0.548655
0.549566
0.548214
0.547159
0.54641
0.54789
0.546128
0.544691
0.543582
0.544644
0.542439
0.540588
0.539084
0.541309
0.538656
0.536389
0.534482
0.537121
0.534046
0.531379
0.529062
0.53356
0.530218
0.527254
0.524454
0.528475
0.525136
0.521949
0.518212
0.546956
0.549031
0.548901
0.546557
0.553662
0.553244
0.552982
0.552874
0.554072
0.553462
0.55302
0.552752
0.553286
0.552419
0.551742
0.551258
0.552107
0.550959
0.550016
0.549281
0.549547
0.548093
0.546861
0.545849
0.546991
0.545232
0.543711
0.542418
0.5436
0.541561
0.539771
0.538202
0.541005
0.538793
0.536814
0.534947
0.536546
0.534324
0.532205
0.52977
0.549246
0.551475
0.551401
0.549015
0.55577
0.555509
0.555352
0.555297
0.556212
0.555822
0.555547
0.555389
0.555762
0.555196
0.554761
0.554461
0.554989
0.554228
0.55361
0.553137
0.553017
0.552044
0.551226
0.55056
0.55115
0.549966
0.548948
0.548089
0.54843
0.54706
0.545859
0.544814
0.546642
0.545158
0.543835
0.542612
0.542733
0.541243
0.539833
0.538263
0.550932
0.55326
0.553218
0.550796
0.557204
0.557033
0.556939
0.556919
0.557602
0.557346
0.557175
0.557092
0.55741
0.557033
0.556754
0.556577
0.556941
0.556429
0.556025
0.55573
0.555462
0.554803
0.55426
0.553832
0.55419
0.553385
0.552704
0.552144
0.552014
0.551083
0.550279
0.549594
0.55089
0.549882
0.548997
0.548205
0.547453
0.546448
0.545508
0.544499
0.552223
0.554615
0.55459
0.552144
0.55821
0.558093
0.558036
0.558039
0.558503
0.55833
0.558224
0.558188
0.55851
0.558253
0.558076
0.557979
0.558246
0.557897
0.557634
0.557458
0.557161
0.556709
0.55635
0.556084
0.556386
0.555833
0.555379
0.555024
0.554624
0.553986
0.553449
0.553007
0.554058
0.553366
0.552775
0.55227
0.551003
0.550325
0.549698
0.549052
0.553251
0.555674
0.55566
0.553205
0.558943
0.558857
0.558823
0.55884
0.55908
0.558958
0.558893
0.558888
0.559251
0.559071
0.558959
0.558916
0.559102
0.558859
0.558689
0.558594
0.558321
0.558008
0.557773
0.557616
0.557949
0.557565
0.557265
0.557048
0.556474
0.556034
0.555676
0.555401
0.55639
0.555911
0.555518
0.555205
0.553623
0.553165
0.552748
0.552337
0.554097
0.556519
0.556511
0.554071
0.559501
0.559435
0.559414
0.559439
0.559436
0.559346
0.559307
0.55932
0.559761
0.55963
0.55956
0.559551
0.559649
0.559477
0.559369
0.559325
0.559099
0.558878
0.558726
0.558642
0.559042
0.558772
0.558576
0.558453
0.557735
0.557428
0.557193
0.557029
0.558085
0.55775
0.557491
0.557307
0.555504
0.555196
0.554922
0.554664
0.554816
0.557193
0.557188
0.554801
0.559953
0.559899
0.559886
0.559914
0.559634
0.559564
0.559541
0.559565
0.560127
0.560029
0.559986
0.559998
0.559991
0.559865
0.559797
0.559788
0.559613
0.559455
0.559357
0.559321
0.559794
0.559602
0.559475
0.559414
0.558543
0.558327
0.558175
0.558085
0.55931
0.559072
0.558904
0.558805
0.556801
0.556594
0.556416
0.556257
0.555431
0.557705
0.557703
0.555423
0.560352
0.560306
0.560298
0.560328
0.559712
0.559655
0.559641
0.559671
0.560409
0.560332
0.560306
0.56033
0.560207
0.560111
0.560069
0.560081
0.55996
0.559843
0.559782
0.559777
0.560307
0.560168
0.560087
0.560066
0.559015
0.558861
0.558764
0.558723
0.560208
0.560034
0.559926
0.559885
0.557618
0.557481
0.557367
0.557272
0.555908
0.557996
0.557994
0.555903
0.560754
0.560714
0.560709
0.560738
0.559698
0.55965
0.559642
0.559675
0.560645
0.560583
0.560567
0.560597
0.560358
0.560284
0.560259
0.560282
0.560219
0.56013
0.560093
0.560106
0.560665
0.560562
0.560512
0.560515
0.559267
0.559156
0.559094
0.559084
0.560914
0.560783
0.560716
0.560711
0.557982
0.557892
0.55782
0.557765
0.556073
0.557858
0.557857
0.556071
0.561251
0.561218
0.561214
0.561241
0.559645
0.559603
0.559599
0.559632
0.560853
0.560802
0.560793
0.560824
0.560495
0.560436
0.56042
0.560449
0.56045
0.560381
0.560358
0.560381
0.560939
0.560862
0.560831
0.560846
0.559455
0.559371
0.559333
0.559341
0.561595
0.561493
0.561451
0.561469
0.557781
0.557723
0.557679
0.557647
0.555587
0.556898
0.556898
0.555587
0.562027
0.562002
0.562
0.56202
0.559661
0.559624
0.559622
0.559654
0.561023
0.560985
0.560979
0.561006
0.560636
0.56059
0.56058
0.560608
0.560673
0.56062
0.560606
0.56063
0.561164
0.561109
0.561089
0.561106
0.55978
0.559711
0.559687
0.559708
0.562497
0.562414
0.562387
0.562416
0.556788
0.55675
0.556721
0.556703
0.554447
0.555017
0.555017
0.554446
0.563228
0.563227
0.563225
0.563223
0.559838
0.559804
0.559803
0.559833
0.561113
0.561088
0.561084
0.561101
0.560751
0.560717
0.56071
0.560731
0.560841
0.560802
0.560792
0.560811
0.561308
0.56127
0.561256
0.561266
0.560296
0.560233
0.560215
0.560244
0.563786
0.56373
0.56371
0.563727
0.555118
0.555084
0.555063
0.555056
0.517142
0.555322
0.570319
0.579384
0.587143
0.594658
0.601739
0.608114
0.613974
0.619473
0.509819
0.534844
0.554618
0.569996
0.582815
0.593307
0.602422
0.610556
0.618015
0.624961
0.492611
0.517663
0.546576
0.564577
0.579757
0.591946
0.602456
0.611744
0.620098
0.627603
0.467903
0.499641
0.533331
0.554472
0.571967
0.586004
0.598132
0.608859
0.618504
0.627057
0.444403
0.483242
0.521014
0.545526
0.565076
0.580838
0.594392
0.606356
0.617081
0.626455
0.414323
0.466478
0.508344
0.536249
0.557776
0.57518
0.590014
0.603084
0.61477
0.624892
0.384974
0.453027
0.498219
0.52942
0.552565
0.571374
0.587233
0.601159
0.613518
0.624079
0.355063
0.440781
0.488517
0.522995
0.547479
0.567564
0.584268
0.598883
0.611765
0.622736
0.32652
0.431831
0.480962
0.518591
0.544224
0.565586
0.58302
0.598164
0.611281
0.622472
0.291715
0.421614
0.470055
0.51028
0.5371
0.559678
0.577975
0.593885
0.607533
0.619131
0.451564
0.495913
0.523285
0.54314
0.557952
0.569317
0.578329
0.585618
0.591553
0.596377
0.446946
0.493569
0.525089
0.547301
0.563539
0.575925
0.585916
0.594266
0.601406
0.607582
0.44117
0.490944
0.525896
0.548703
0.565607
0.578745
0.589581
0.598805
0.606796
0.613712
0.429786
0.482261
0.519348
0.54324
0.561461
0.575883
0.587992
0.598457
0.607654
0.615636
0.417233
0.471924
0.5113
0.537047
0.556826
0.572644
0.586004
0.597604
0.607854
0.616701
0.399551
0.458877
0.501308
0.529512
0.551014
0.568289
0.582848
0.59551
0.606725
0.616369
0.380269
0.447318
0.492769
0.52368
0.54672
0.565308
0.580865
0.59437
0.606286
0.616441
0.356785
0.436413
0.484215
0.517977
0.54231
0.562082
0.578453
0.592625
0.605079
0.615687
0.333402
0.428495
0.477317
0.513929
0.539303
0.560213
0.577265
0.591946
0.604653
0.615552
0.306002
0.420016
0.467199
0.506195
0.532587
0.554612
0.572449
0.587837
0.601045
0.612408
0.484385
0.504522
0.520653
0.534353
0.54595
0.555625
0.563604
0.570094
0.575253
0.579189
0.476963
0.502032
0.522771
0.539654
0.553392
0.564598
0.57383
0.58149
0.587846
0.593096
0.471196
0.499575
0.52351
0.542068
0.557004
0.569153
0.579268
0.587822
0.595101
0.601256
0.461239
0.49194
0.518376
0.538534
0.554843
0.568219
0.579528
0.589263
0.597724
0.604977
0.450493
0.482758
0.511781
0.533786
0.551608
0.566307
0.578818
0.589661
0.599183
0.607358
0.435258
0.471047
0.503006
0.527282
0.54678
0.562887
0.576588
0.588495
0.599007
0.608038
0.418716
0.460286
0.4952
0.521981
0.543048
0.560464
0.575192
0.587965
0.599227
0.608851
0.399432
0.450057
0.487307
0.51672
0.539121
0.557701
0.573255
0.586707
0.598534
0.608656
0.380022
0.44282
0.481052
0.513162
0.536605
0.556236
0.572429
0.586358
0.59844
0.608874
0.358017
0.435648
0.472226
0.506517
0.530774
0.551306
0.56812
0.582612
0.595085
0.605904
0.509378
0.516774
0.52527
0.534004
0.542121
0.549257
0.555321
0.560319
0.564257
0.567145
0.501615
0.514245
0.527123
0.538946
0.549331
0.558243
0.565799
0.572131
0.577332
0.581506
0.496681
0.511741
0.527303
0.54108
0.552971
0.563118
0.571779
0.579162
0.585403
0.590596
0.487869
0.504859
0.52273
0.538296
0.551718
0.563221
0.573149
0.581752
0.589192
0.595505
0.47807
0.496666
0.51683
0.534274
0.549286
0.562172
0.573345
0.583089
0.591617
0.598897
0.465048
0.486053
0.508746
0.528381
0.545107
0.559438
0.571845
0.582687
0.592242
0.60043
0.451166
0.47602
0.501332
0.523369
0.541743
0.557439
0.570934
0.582691
0.59305
0.601899
0.435036
0.466242
0.49377
0.518325
0.538128
0.555025
0.569392
0.581863
0.592828
0.60222
0.418705
0.459123
0.487723
0.514909
0.535831
0.553765
0.568785
0.581745
0.593001
0.602724
0.400711
0.452007
0.479523
0.50877
0.530463
0.549217
0.564792
0.578251
0.589865
0.599962
0.528595
0.529675
0.533297
0.538083
0.543008
0.547606
0.551671
0.555101
0.557819
0.559774
0.521624
0.527484
0.534628
0.54199
0.549007
0.555392
0.561016
0.565829
0.569793
0.572932
0.517814
0.525005
0.534094
0.543284
0.551918
0.55972
0.566615
0.572595
0.577667
0.581854
0.510573
0.518858
0.529757
0.540703
0.55094
0.560195
0.568431
0.575674
0.581952
0.587252
0.502284
0.511576
0.524301
0.537047
0.548898
0.55959
0.569121
0.577545
0.584934
0.591223
0.491245
0.502044
0.516784
0.531556
0.545111
0.557278
0.568086
0.57765
0.586097
0.593329
0.479563
0.492859
0.509743
0.526732
0.541961
0.555535
0.567491
0.578022
0.587323
0.59527
0.466223
0.483717
0.502517
0.521828
0.538536
0.553343