/*--------------------------------*- C++ -*----------------------------------*\
| =========                 |                                                 |
| \\      /  F ield         | foam-extend: Open Source CFD                    |
|  \\    /   O peration     | Version:     4.0                                |
|   \\  /    A nd           | Web:         http://www.foam-extend.org         |
|    \\/     M anipulation  |                                                 |
\*---------------------------------------------------------------------------*/
FoamFile
{
    version     2.0;
    format      ascii;
    class       volScalarField;
    location    "800";
    object      mut;
}
// * * * * * * * * * * * * * * * * * * * * * * * * * * * * * * * * * * * * * //

dimensions      [1 -1 -1 0 0 0 0];

internalField   nonuniform List<scalar> 
34480
(
0.00190795
0.00190567
0.00190448
0.00190467
0.00190725
0.00191455
0.00193148
0.0019633
0.00200985
0.00212539
0.0179806
0.0164762
0.0138445
0.00994576
0.00585431
0.00308528
0.00189606
0.00171252
0.00201571
0.00237211
0.0519014
0.0470913
0.039541
0.0290914
0.0174664
0.00841236
0.00391437
0.00259338
0.00268946
0.00306766
0.0644447
0.05947
0.0514655
0.0397201
0.0252425
0.012407
0.00531862
0.00304585
0.00299391
0.0034309
0.069789
0.0654717
0.0581815
0.0466673
0.0310676
0.0157313
0.00651196
0.00340168
0.003244
0.00375681
0.0716451
0.0681276
0.061685
0.0506579
0.0345496
0.0177256
0.00722417
0.00364615
0.00351966
0.00416126
0.0701979
0.0677064
0.0624435
0.0523497
0.0364105
0.0189155
0.00769627
0.00383497
0.00378146
0.0045554
0.0593122
0.0584346
0.0553075
0.0475807
0.0336597
0.0175717
0.00720512
0.00368461
0.00384464
0.00479495
0.0191549
0.0198427
0.0203294
0.0193069
0.0149104
0.00829205
0.00370569
0.00219082
0.00273989
0.00392379
0.00178222
0.00177112
0.00176256
0.00175681
0.00175496
0.00175653
0.00176055
0.00176773
0.00176749
0.00173434
0.00192046
0.00191937
0.00192005
0.00192295
0.00192853
0.00193753
0.0019526
0.00197852
0.00202248
0.00209818
0.016685
0.016375
0.0157863
0.0144874
0.0119835
0.00826515
0.00463944
0.00273805
0.0024576
0.00327909
0.0500581
0.0478171
0.0439425
0.037966
0.0300321
0.020543
0.0110939
0.00524756
0.00381866
0.00496719
0.0617263
0.0594299
0.0553611
0.0487788
0.0395508
0.0280283
0.0155251
0.00677517
0.00447852
0.005915
0.0665203
0.0647771
0.0614194
0.0554672
0.0461825
0.0338033
0.0192609
0.00802739
0.00500278
0.00678871
0.0681482
0.0670852
0.0646161
0.0595626
0.0506306
0.0378899
0.0219758
0.0089003
0.00549357
0.00787707
0.0667616
0.0664942
0.065147
0.061334
0.0532819
0.0407487
0.0240819
0.00958728
0.00594159
0.00899162
0.0562715
0.0569868
0.0572469
0.0556729
0.0501144
0.0395797
0.0239014
0.0093802
0.00598923
0.00968766
0.0179537
0.0186562
0.0197742
0.0211542
0.022019
0.0205266
0.0139221
0.00544511
0.00383994
0.00726414
0.00178364
0.0017717
0.00176164
0.00175416
0.00175077
0.00175202
0.00175601
0.0017622
0.00179293
0.0019018
0.0019253
0.00192512
0.00192649
0.0019299
0.00193571
0.00194422
0.00195614
0.00197298
0.00199742
0.0020322
0.0147594
0.0147156
0.0147337
0.0145853
0.0138303
0.0120972
0.00952736
0.00697471
0.00535402
0.0048163
0.0464726
0.0453898
0.0432764
0.0397796
0.0346986
0.0278703
0.01983
0.0124953
0.00821816
0.00706384
0.0569996
0.0559787
0.0538384
0.049928
0.0440226
0.0357441
0.0252729
0.0150127
0.00919166
0.00811587
0.0611483
0.0606125
0.0591489
0.0558933
0.0501988
0.0415457
0.0295458
0.0167887
0.00973852
0.00902311
0.0625552
0.0625712
0.0619217
0.0595978
0.0544803
0.0458558
0.0327615
0.0179036
0.0100793
0.010022
0.0613832
0.0619804
0.0622733
0.0611367
0.0570336
0.0489216
0.0352279
0.0186042
0.010266
0.0110156
0.0518684
0.0530023
0.0543648
0.0550107
0.0531506
0.0471222
0.0345677
0.0177642
0.0098017
0.0115157
0.0167844
0.0173356
0.0183169
0.0197493
0.0213906
0.0220774
0.0187361
0.0102054
0.00594964
0.00812457
0.00177911
0.00176834
0.00175934
0.00175282
0.00175004
0.00175253
0.00176078
0.00177388
0.00180486
0.00190307
0.00192235
0.00192255
0.00192373
0.00192624
0.00193025
0.0019359
0.00194341
0.0019532
0.00196639
0.00198516
0.0131363
0.0131368
0.0133132
0.0136131
0.0138323
0.0136885
0.0129615
0.0116796
0.0102081
0.00908584
0.0426377
0.0421563
0.0411098
0.0392637
0.036372
0.0322216
0.026933
0.0211366
0.0160756
0.0130899
0.0518274
0.0514556
0.0504095
0.0482403
0.0447065
0.0394602
0.0324819
0.0245143
0.0176216
0.0141675
0.0552658
0.0552928
0.0548279
0.0531679
0.0498595
0.044404
0.0364615
0.0267184
0.0183069
0.0148826
0.0564816
0.056919
0.057115
0.0562366
0.0534646
0.0481285
0.0394997
0.0281673
0.0185928
0.0156888
0.0556202
0.0564546
0.0573679
0.0574542
0.0555607
0.0507259
0.041747
0.0289911
0.0184735
0.0163554
0.0473581
0.0484514
0.0500091
0.0513694
0.0512284
0.0481576
0.0403063
0.0275438
0.0171845
0.0162645
0.0157829
0.0161795
0.0169337
0.0180695
0.0195385
0.0208191
0.020198
0.0154309
0.0102076
0.0109253
0.00177267
0.00176327
0.00175558
0.00175026
0.00174824
0.00175128
0.00176122
0.00177887
0.00181058
0.00188714
0.00191345
0.00191379
0.00191462
0.0019161
0.0019183
0.00192123
0.00192498
0.00192979
0.00193661
0.00194801
0.0120727
0.0120508
0.0121825
0.0124957
0.0129494
0.0134584
0.0138844
0.0140661
0.0138793
0.0133945
0.038935
0.0388369
0.0385441
0.0379007
0.0366825
0.0346722
0.0318042
0.0282207
0.0243043
0.0209861
0.0467684
0.04679
0.0465078
0.0456352
0.0439277
0.0411024
0.0370691
0.0320109
0.0265211
0.0222318
0.049518
0.0498305
0.049974
0.0494575
0.0479318
0.0449951
0.0404113
0.0342873
0.0274951
0.0227487
0.0505802
0.0511588
0.0517736
0.0518241
0.0507301
0.0479481
0.0430261
0.0359528
0.0280252
0.0233427
0.0500551
0.0508772
0.0519789
0.0527142
0.0522843
0.0499304
0.0448938
0.0369384
0.0279262
0.0236336
0.0431231
0.0440302
0.0454483
0.0469694
0.0477491
0.0467429
0.0427265
0.0350233
0.0259618
0.0227154
0.0149599
0.0152258
0.0157682
0.0165885
0.0177058
0.0189731
0.0196809
0.0183001
0.0147569
0.0141816
0.00176507
0.00175703
0.00175066
0.00174651
0.00174534
0.00174869
0.00175853
0.00177662
0.00180605
0.00186177
0.00190004
0.00190043
0.00190094
0.00190167
0.00190262
0.00190376
0.00190512
0.00190692
0.00191017
0.00191765
0.0116126
0.0115666
0.0116209
0.011809
0.0121302
0.0125829
0.0131565
0.013822
0.0145064
0.0150505
0.0353556
0.0354624
0.0356027
0.0357061
0.0356329
0.0352089
0.0342924
0.0328236
0.0308556
0.0287649
0.0419536
0.0421902
0.0423957
0.0424218
0.0420697
0.0411065
0.039376
0.0368539
0.0336451
0.0304388
0.0441818
0.0446087
0.0450897
0.0453504
0.0451243
0.0440942
0.042031
0.0388674
0.0347061
0.030759
0.0451685
0.0457423
0.0465141
0.0471405
0.0472312
0.0463553
0.0441564
0.0404883
0.0354678
0.0311285
0.0449719
0.0456791
0.0467456
0.0477948
0.0483299
0.0477814
0.045601
0.0414783
0.035558
0.0310621
0.0393321
0.0400252
0.0411804
0.0425992
0.0438192
0.0441674
0.0428086
0.0390952
0.0331363
0.0292283
0.0143146
0.0144799
0.0148515
0.0154083
0.0161797
0.0171701
0.018185
0.0185309
0.0172768
0.0165577
0.00175605
0.00174933
0.00174421
0.00174116
0.0017408
0.00174437
0.00175341
0.00176959
0.00179444
0.00183302
0.0018834
0.0018838
0.00188409
0.00188434
0.00188455
0.00188467
0.00188475
0.00188498
0.00188638
0.00189178
0.0116341
0.0115807
0.0115891
0.0116835
0.0118638
0.0121332
0.0125003
0.0129852
0.0136136
0.0143522
0.0322375
0.0323648
0.0325802
0.0328797
0.0332213
0.0335334
0.0337303
0.0337225
0.0334375
0.0329164
0.0376448
0.037903
0.0382445
0.038635
0.0389756
0.0391348
0.0389772
0.0384017
0.0373562
0.0360261
0.0395217
0.0399085
0.0404387
0.041007
0.0414701
0.0416358
0.0413095
0.0403575
0.0386932
0.0366704
0.0404951
0.0409598
0.0416589
0.0424625
0.0431623
0.0434887
0.0431525
0.0419572
0.0397406
0.0371494
0.0405823
0.0411219
0.0419968
0.043043
0.0440198
0.0445796
0.0443111
0.0429064
0.0400777
0.0369998
0.0361157
0.0366056
0.0374549
0.0385973
0.0398395
0.0408527
0.0411103
0.0400852
0.0372809
0.0343777
0.0138528
0.0139441
0.0141868
0.014543
0.0150321
0.0156888
0.0165005
0.0172468
0.0172417
0.0170647
0.00174535
0.00173988
0.0017359
0.00173379
0.00173409
0.00173771
0.00174571
0.00175923
0.00177879
0.00180468
0.00186442
0.00186482
0.00186498
0.00186495
0.00186474
0.00186431
0.00186371
0.00186314
0.00186358
0.00186783
0.011967
0.0119184
0.0119078
0.0119533
0.0120542
0.0122115
0.0124328
0.0127445
0.0132022
0.013864
0.0300771
0.0301494
0.0302769
0.0304733
0.0307347
0.0310471
0.0313883
0.0317185
0.0319699
0.0320674
0.0343056
0.0344739
0.0347149
0.0350443
0.0354342
0.0358456
0.0362253
0.0365074
0.0366103
0.0365103
0.0358353
0.036097
0.0364786
0.036959
0.0374947
0.0380192
0.0384422
0.0386678
0.0385856
0.0382184
0.0367568
0.0370675
0.0375577
0.0382065
0.0389438
0.0396705
0.0402373
0.0404891
0.0402411
0.039566
0.0370212
0.0373845
0.0379939
0.0387993
0.0397287
0.0406506
0.0413456
0.0415789
0.0410451
0.039963
0.0335373
0.0338564
0.0344189
0.0352127
0.0361822
0.0372387
0.0381548
0.0386003
0.0380724
0.036946
0.013571
0.0136099
0.0137611
0.0139768
0.0142656
0.014652
0.0151544
0.0157117
0.0158738
0.015898
0.00173276
0.00172844
0.00172544
0.0017241
0.00172482
0.00172827
0.00173509
0.00174592
0.00176051
0.0017776
0.00184366
0.00184406
0.00184415
0.00184397
0.00184352
0.0018428
0.00184185
0.00184086
0.00184074
0.00184426
0.0124759
0.0124374
0.012421
0.0124419
0.0125001
0.0125968
0.0127401
0.0129598
0.0133252
0.0139419
0.0288938
0.0289238
0.0289765
0.0290628
0.0291845
0.0293407
0.0295279
0.029733
0.0299176
0.0300116
0.0321166
0.0321982
0.032314
0.032484
0.0327006
0.0329558
0.033237
0.0335197
0.0337516
0.0338711
0.0332468
0.03339
0.033598
0.0338702
0.0341981
0.0345689
0.0349608
0.0353415
0.0356445
0.0358136
0.0340243
0.0342005
0.0344793
0.0348678
0.0353501
0.035911
0.0365133
0.0371013
0.0375611
0.0378188
0.0343326
0.0345495
0.0349153
0.0354147
0.0360417
0.0367757
0.0375562
0.0382901
0.0387868
0.0390009
0.0316013
0.0317921
0.0321296
0.0326106
0.033222
0.0339672
0.0348009
0.0356059
0.0360651
0.036197
0.0134613
0.0134644
0.013554
0.013678
0.0138388
0.0140477
0.0143168
0.0146196
0.0146072
0.014486
0.00171809
0.00171479
0.00171262
0.00171184
0.00171276
0.00171583
0.0017214
0.00172972
0.00174016
0.00175129
0.0018214
0.00182181
0.00182186
0.0018216
0.00182103
0.00182016
0.00181902
0.00181779
0.00181731
0.00182028
0.01308
0.0130532
0.0130364
0.0130438
0.013077
0.0131378
0.0132361
0.0134048
0.0137219
0.0143225
0.0283757
0.0283869
0.0284053
0.0284376
0.0284864
0.0285534
0.0286402
0.0287435
0.0288428
0.0288854
0.0308522
0.0308856
0.030931
0.0310022
0.0310953
0.0312083
0.0313386
0.0314781
0.031601
0.031662
0.0316069
0.0316754
0.0317713
0.0318953
0.0320449
0.0322174
0.0324095
0.0326152
0.0328069
0.032937
0.0321905
0.0322788
0.0324152
0.0326071
0.0328488
0.0331411
0.0334808
0.0338597
0.0342321
0.0345238
0.0324462
0.0325625
0.0327574
0.0330212
0.0333586
0.0337722
0.0342558
0.0347941
0.0353067
0.0357294
0.0302536
0.0303576
0.0305432
0.0308038
0.0311314
0.0315394
0.0320328
0.0325917
0.0330609
0.0334362
0.0135138
0.0134931
0.0135431
0.0136108
0.0136959
0.013802
0.0139343
0.0140742
0.0139335
0.013712
0.00170121
0.00169879
0.00169727
0.00169688
0.00169782
0.00170037
0.00170467
0.00171078
0.00171793
0.00172499
0.00179776
0.00179816
0.00179819
0.00179789
0.00179726
0.00179631
0.00179507
0.00179369
0.00179296
0.00179547
0.0137422
0.0137268
0.0137117
0.0137114
0.0137286
0.0137662
0.0138356
0.0139729
0.0142623
0.0148593
0.0282289
0.0282338
0.0282397
0.0282509
0.0282703
0.0283003
0.0283441
0.0284025
0.0284633
0.0284843
0.0301806
0.0301929
0.0302088
0.0302367
0.0302744
0.0303214
0.0303778
0.0304416
0.0305004
0.0305251
0.0306441
0.030674
0.0307141
0.030765
0.0308249
0.030893
0.0309698
0.0310568
0.0311458
0.0312073
0.0310447
0.0310849
0.0311451
0.0312299
0.0313352
0.0314618
0.0316115
0.0317874
0.031977
0.0321314
0.0312111
0.0312671
0.0313617
0.031487
0.0316461
0.0318409
0.0320726
0.032344
0.0326275
0.0328791
0.0293991
0.0294494
0.0295439
0.029673
0.0298287
0.0300174
0.0302469
0.0305172
0.0307533
0.0309677
0.0137185
0.0136824
0.0137081
0.0137431
0.0137861
0.0138371
0.0138983
0.0139554
0.0137707
0.0135436
0.00168201
0.00168033
0.00167932
0.00167917
0.00168
0.00168197
0.0016851
0.00168935
0.00169399
0.00169824
0.00177271
0.00177311
0.00177314
0.00177281
0.00177215
0.00177115
0.00176986
0.00176838
0.00176744
0.00176952
0.0144541
0.0144491
0.0144368
0.0144321
0.0144385
0.0144603
0.0145104
0.0146271
0.0149
0.0154993
0.0282704
0.0282739
0.0282757
0.0282794
0.0282874
0.0283024
0.0283281
0.0283667
0.0284105
0.0284227
0.0298468
0.029851
0.0298562
0.0298672
0.029883
0.0299038
0.0299303
0.0299627
0.0299948
0.0300072
0.0301116
0.0301233
0.030139
0.030159
0.0301823
0.0302088
0.0302397
0.030278
0.0303227
0.0303564
0.0303707
0.0303873
0.0304118
0.030447
0.03049
0.0305411
0.0306023
0.0306784
0.0307697
0.0308473
0.0304536
0.030477
0.0305191
0.0305747
0.0306451
0.0307311
0.0308336
0.0309575
0.0310961
0.0312237
0.0289264
0.028946
0.0289906
0.0290498
0.0291166
0.029193
0.0292836
0.0293908
0.0294761
0.0295656
0.0140683
0.0140222
0.0140336
0.0140508
0.0140715
0.014095
0.0141216
0.0141411
0.0139614
0.0137718
0.00166045
0.00165936
0.00165873
0.00165871
0.00165936
0.00166076
0.00166288
0.00166563
0.00166841
0.00167073
0.00174619
0.00174659
0.0017466
0.00174627
0.00174559
0.00174457
0.00174323
0.00174169
0.00174057
0.00174221
0.0152251
0.0152295
0.0152203
0.0152133
0.0152127
0.0152236
0.0152604
0.0153634
0.0156268
0.0162326
0.028402
0.0284055
0.0284064
0.0284075
0.028411
0.0284196
0.0284367
0.0284655
0.0285004
0.0285089
0.0296925
0.0296939
0.0296956
0.0297002
0.0297073
0.0297172
0.0297311
0.0297495
0.0297692
0.0297771
0.029833
0.0298367
0.0298424
0.0298503
0.02986
0.0298715
0.029886
0.029906
0.0299328
0.0299557
0.0299954
0.0300014
0.0300107
0.0300247
0.030042
0.0300626
0.030088
0.0301224
0.0301696
0.0302133
0.0300193
0.0300264
0.0300431
0.0300667
0.0300978
0.0301365
0.0301837
0.0302434
0.0303155
0.0303865
0.028729
0.0287324
0.0287518
0.0287768
0.0288022
0.0288283
0.0288578
0.0288926
0.0289122
0.0289495
0.0145609
0.0145086
0.0145119
0.0145198
0.0145295
0.01454
0.0145507
0.0145547
0.0144029
0.0142619
0.00163649
0.00163585
0.00163551
0.00163554
0.00163599
0.00163689
0.00163818
0.00163977
0.00164122
0.00164222
0.00171809
0.00171848
0.0017185
0.00171815
0.00171746
0.00171642
0.00171506
0.00171346
0.00171217
0.00171337
0.0160762
0.0160891
0.0160835
0.0160756
0.0160705
0.016074
0.0161015
0.0161956
0.0164549
0.0170715
0.0285743
0.0285781
0.0285791
0.0285795
0.0285813
0.0285867
0.0285993
0.0286223
0.0286523
0.0286598
0.029628
0.0296288
0.0296295
0.0296315
0.0296348
0.0296398
0.0296474
0.0296584
0.0296713
0.029677
0.0296959
0.0296963
0.029698
0.0297014
0.0297062
0.0297124
0.0297209
0.0297333
0.0297512
0.0297685
0.0297971
0.0297987
0.0298019
0.0298075
0.0298147
0.0298235
0.0298349
0.0298518
0.0298782
0.0299054
0.0297883
0.0297881
0.0297935
0.0298033
0.0298179
0.0298374
0.0298621
0.0298948
0.0299368
0.0299818
0.0287167
0.0287123
0.0287198
0.0287294
0.0287373
0.0287434
0.0287489
0.0287553
0.0287517
0.0287711
0.0152026
0.0151462
0.0151453
0.0151487
0.0151533
0.0151579
0.0151618
0.0151602
0.0150453
0.0149509
0.00161012
0.00160983
0.00160968
0.00160973
0.00160999
0.00161047
0.00161111
0.00161185
0.00161237
0.00161248
0.0016883
0.00168869
0.0016887
0.00168835
0.00168765
0.0016866
0.00168522
0.00168357
0.00168212
0.00168286
0.0170386
0.0170594
0.0170574
0.0170498
0.0170421
0.0170406
0.0170619
0.0171503
0.0174098
0.0180451
0.0287631
0.0287672
0.0287684
0.0287687
0.0287699
0.0287737
0.0287835
0.0288028
0.0288298
0.0288383
0.0296057
0.0296066
0.0296071
0.029608
0.0296095
0.0296118
0.0296158
0.0296224
0.029631
0.0296357
0.0296335
0.0296327
0.0296331
0.0296348
0.0296377
0.0296418
0.0296475
0.0296559
0.0296684
0.0296814
0.0296973
0.0296973
0.0296983
0.0297007
0.029704
0.0297082
0.029714
0.029723
0.0297384
0.0297561
0.0296767
0.0296737
0.0296745
0.0296787
0.0296866
0.0296981
0.0297132
0.0297335
0.0297603
0.0297912
0.0288193
0.0288118
0.0288141
0.0288172
0.0288187
0.028818
0.0288155
0.0288126
0.0288031
0.0288175
0.0160109
0.015952
0.0159488
0.0159503
0.0159526
0.0159549
0.0159559
0.0159527
0.0158769
0.0158228
0.00158137
0.00158134
0.00158132
0.00158136
0.00158146
0.00158161
0.00158177
0.00158189
0.00158178
0.0015813
0.00165674
0.00165712
0.00165713
0.00165678
0.00165607
0.00165501
0.00165361
0.00165191
0.00165031
0.00165057
0.0181546
0.0181832
0.0181852
0.0181786
0.0181696
0.0181651
0.0181821
0.0182667
0.0185302
0.019196
0.0289557
0.0289599
0.0289612
0.0289618
0.0289627
0.0289657
0.0289734
0.0289899
0.0290149
0.029026
0.0296015
0.0296025
0.029603
0.0296034
0.0296038
0.0296047
0.0296066
0.0296103
0.0296161
0.0296201
0.0296083
0.0296073
0.0296073
0.0296083
0.0296102
0.0296131
0.0296172
0.0296229
0.0296314
0.0296409
0.0296488
0.0296485
0.0296487
0.0296498
0.0296516
0.029654
0.0296572
0.0296623
0.0296713
0.0296829
0.0296296
0.029626
0.0296252
0.0296273
0.0296322
0.0296399
0.0296501
0.0296637
0.0296813
0.0297031
0.0289849
0.0289769
0.0289771
0.0289778
0.0289773
0.0289753
0.0289714
0.0289666
0.028958
0.0289715
0.0170203
0.0169598
0.0169557
0.0169563
0.0169577
0.016959
0.0169588
0.016956
0.0169162
0.0168947
0.00155029
0.00155042
0.0015505
0.00155051
0.00155049
0.0015504
0.00155023
0.00154993
0.00154938
0.00154851
0.00162342
0.0016238
0.0016238
0.00162344
0.00162273
0.00162166
0.00162024
0.0016185
0.00161674
0.0016165
0.0194828
0.0195189
0.0195251
0.0195203
0.0195115
0.0195055
0.0195195
0.0196012
0.0198707
0.0205834
0.0291435
0.0291475
0.0291489
0.0291496
0.0291505
0.0291529
0.0291591
0.0291729
0.029196
0.0292107
0.0296033
0.0296043
0.0296047
0.0296049
0.0296048
0.0296049
0.0296055
0.0296074
0.0296111
0.0296147
0.0295999
0.0295991
0.029599
0.0295996
0.0296009
0.0296029
0.0296057
0.0296094
0.0296149
0.0296214
0.0296252
0.0296249
0.029625
0.0296256
0.0296266
0.0296281
0.0296299
0.0296328
0.0296379
0.0296452
0.0296129
0.0296098
0.0296087
0.0296099
0.0296133
0.0296186
0.0296256
0.0296346
0.0296459
0.029661
0.0291752
0.0291679
0.0291674
0.0291674
0.0291668
0.0291652
0.0291622
0.0291583
0.0291524
0.0291664
0.0182898
0.0182288
0.0182245
0.0182248
0.0182258
0.0182265
0.0182256
0.0182226
0.0182106
0.0182139
0.00151697
0.00151723
0.00151736
0.00151736
0.00151724
0.00151699
0.00151659
0.00151601
0.00151518
0.00151407
0.00158852
0.00158889
0.00158889
0.00158853
0.00158781
0.00158673
0.0015853
0.00158353
0.00158163
0.00158084
0.0211037
0.0211471
0.0211577
0.0211557
0.0211486
0.0211431
0.0211555
0.0212332
0.0215069
0.0222857
0.0293172
0.0293206
0.0293219
0.0293227
0.0293236
0.0293255
0.0293303
0.0293413
0.0293615
0.0293797
0.0296053
0.029606
0.0296064
0.0296064
0.0296062
0.0296059
0.0296059
0.0296066
0.0296088
0.0296118
0.0295978
0.0295972
0.0295971
0.0295975
0.0295984
0.0295997
0.0296013
0.0296036
0.0296068
0.0296108
0.0296127
0.0296125
0.0296125
0.0296129
0.0296135
0.0296144
0.0296154
0.0296169
0.0296195
0.0296238
0.0296065
0.0296042
0.0296034
0.0296041
0.0296063
0.0296098
0.0296143
0.0296198
0.0296265
0.029636
0.029359
0.0293533
0.0293527
0.0293526
0.0293523
0.0293515
0.0293498
0.0293474
0.0293439
0.029358
0.0199185
0.0198587
0.0198548
0.019855
0.0198556
0.0198558
0.0198542
0.0198504
0.019841
0.0198618
0.00148167
0.001482
0.00148216
0.00148215
0.00148197
0.00148161
0.00148106
0.00148031
0.00147931
0.00147804
0.00155218
0.00155254
0.00155255
0.0015522
0.00155149
0.00155042
0.001549
0.00154723
0.00154523
0.0015439
0.0231176
0.0231666
0.0231821
0.0231847
0.0231826
0.0231817
0.0231955
0.0232671
0.0235321
0.0243801
0.0294642
0.0294666
0.0294677
0.0294684
0.0294692
0.0294708
0.0294742
0.0294819
0.0294976
0.029517
0.0296051
0.0296056
0.0296058
0.0296058
0.0296057
0.0296054
0.0296052
0.0296053
0.0296063
0.0296083
0.0295974
0.0295971
0.0295971
0.0295973
0.0295978
0.0295986
0.0295996
0.0296008
0.0296025
0.0296047
0.0296052
0.0296051
0.0296051
0.0296053
0.0296057
0.0296062
0.0296068
0.0296075
0.0296087
0.0296109
0.0295999
0.0295985
0.029598
0.0295985
0.0295999
0.0296019
0.0296044
0.0296074
0.0296107
0.029616
0.0295085
0.0295049
0.0295045
0.0295045
0.0295045
0.0295041
0.0295033
0.029502
0.0294997
0.0295121
0.0220767
0.0220216
0.0220185
0.0220186
0.0220188
0.0220184
0.0220162
0.0220116
0.0220008
0.0220133
0.00144455
0.00144492
0.0014451
0.00144507
0.00144485
0.00144443
0.0014438
0.00144296
0.00144187
0.00144055
0.00151353
0.00151391
0.00151392
0.00151358
0.00151289
0.00151185
0.00151046
0.00150872
0.00150668
0.00150492
0.0258016
0.025841
0.0258509
0.0258518
0.0258493
0.0258465
0.0258506
0.0258897
0.0260796
0.0269201
0.0295716
0.0295727
0.0295732
0.0295737
0.0295744
0.0295755
0.0295775
0.0295816
0.0295906
0.0296057
0.029604
0.0296042
0.0296043
0.0296043
0.0296043
0.0296043
0.0296042
0.0296042
0.0296045
0.0296052
0.0295989
0.0295986
0.0295986
0.0295987
0.0295991
0.0295996
0.0296002
0.029601
0.0296019
0.029603
0.0296016
0.0296015
0.0296015
0.0296016
0.0296019
0.0296023
0.0296028
0.0296033
0.029604
0.0296052
0.0295939
0.0295931
0.0295928
0.0295931
0.0295939
0.0295951
0.0295966
0.0295981
0.0295998
0.0296021
0.0296024
0.0296008
0.0296008
0.0296009
0.029601
0.029601
0.0296009
0.0296009
0.029601
0.0296096
0.0250861
0.0250442
0.0250425
0.0250424
0.0250424
0.0250419
0.0250401
0.0250362
0.0250272
0.0250297
0.00140493
0.0014053
0.00140547
0.00140544
0.00140521
0.00140476
0.0014041
0.00140322
0.00140212
0.00140082
0.00239037
0.00245918
0.00242983
0.00231018
0.00230906
0.00230696
0.0022774
0.00223625
0.00286082
0.00286589
0.00282721
0.00273818
0.00317845
0.00319054
0.00314986
0.00303721
0.00347936
0.00349731
0.00345396
0.00333044
0.00380686
0.00381913
0.00376538
0.00363817
0.0040759
0.00408273
0.00402725
0.00391216
0.00420571
0.00420499
0.00414817
0.00403827
0.00371543
0.00369495
0.00362787
0.00351664
0.00255789
0.00261867
0.00265638
0.00265794
0.00205032
0.00210171
0.00212106
0.00209624
0.00411852
0.00429099
0.0042462
0.0039398
0.00630128
0.00645905
0.00634506
0.00589529
0.00763562
0.00776604
0.00761651
0.00713884
0.00899048
0.00915093
0.00898671
0.00848853
0.0109261
0.0112272
0.0111086
0.0106701
0.0129489
0.013353
0.0132488
0.0128637
0.0144884
0.0149679
0.0149047
0.0146625
0.0121322
0.0125325
0.0124446
0.0122014
0.00236455
0.00239562
0.00239834
0.00237868
0.00194012
0.00196318
0.00196937
0.00195687
0.00476818
0.00498377
0.00507557
0.00519843
0.0070475
0.00731153
0.0073788
0.00752559
0.00826196
0.00851819
0.00857298
0.00870343
0.00945228
0.00972123
0.00977761
0.00986691
0.0109975
0.0113982
0.0115865
0.0118096
0.0127199
0.0132608
0.0135544
0.0138613
0.0140662
0.0147326
0.0151194
0.0155328
0.01103
0.0115833
0.0118829
0.0121523
0.00214652
0.0021722
0.00218212
0.00217959
0.00188741
0.00189861
0.00190098
0.00189301
0.00823232
0.00825962
0.00854696
0.00924187
0.0117222
0.0117939
0.0122371
0.0132463
0.0128006
0.0129674
0.0135053
0.0146476
0.0136988
0.013963
0.0145707
0.0157937
0.014864
0.0152603
0.0159958
0.0173977
0.0160346
0.0165579
0.0173924
0.0188873
0.0166648
0.0173224
0.0182492
0.0197673
0.0121621
0.0127391
0.0134412
0.0144182
0.00201252
0.0020286
0.00203961
0.00204749
0.00185164
0.00185927
0.00186012
0.0018536
0.0125359
0.01255
0.0128273
0.0134292
0.0194324
0.0194143
0.0199639
0.0211076
0.0205035
0.0206313
0.0213743
0.0227658
0.0210651
0.0213576
0.0222488
0.0237917
0.0219418
0.022452
0.0235387
0.0252441
0.0226435
0.0233359
0.0245465
0.0262966
0.0223345
0.0231631
0.0243995
0.0260266
0.014701
0.0153472
0.0161208
0.0169192
0.00193817
0.00194901
0.00195773
0.00196526
0.00182273
0.00182897
0.00182936
0.00182363
0.0140571
0.0141376
0.0142925
0.0145389
0.0276066
0.0274815
0.0278214
0.0285668
0.0290222
0.0289775
0.0294935
0.0304848
0.0292277
0.029312
0.0299696
0.0311018
0.029655
0.0299158
0.030737
0.0320022
0.0297427
0.0301564
0.0310803
0.0323845
0.0282489
0.0287697
0.029685
0.0308543
0.0165465
0.0168978
0.0173328
0.017712
0.00188392
0.00189081
0.00189721
0.0019037
0.00179792
0.00180345
0.00180366
0.00179837
0.0131036
0.0132263
0.0133174
0.013395
0.0323638
0.0322864
0.0323807
0.0326263
0.0353727
0.0352981
0.035483
0.0358793
0.0358179
0.0357783
0.0360476
0.0365558
0.03615
0.0361882
0.0365696
0.0372034
0.0358921
0.0360066
0.0364643
0.0371577
0.0333444
0.0335186
0.0339645
0.0345687
0.0171103
0.0172133
0.0173137
0.0173258
0.0018424
0.00184674
0.00185132
0.00185657
0.00177477
0.00177987
0.00177997
0.00177498
0.0124917
0.0126142
0.0126762
0.0126902
0.0316993
0.0316461
0.0316365
0.0316749
0.0363436
0.0362966
0.0362958
0.0363395
0.0379693
0.0379198
0.0379444
0.0380317
0.0391906
0.0391584
0.0392452
0.0394275
0.0394123
0.0393901
0.0395186
0.039761
0.0363549
0.0363425
0.0364515
0.0366373
0.0161271
0.0161326
0.0160859
0.0159445
0.00180799
0.00181068
0.0018139
0.00181804
0.0017519
0.00175665
0.0017567
0.00175199
0.0124816
0.0125987
0.0126427
0.0126224
0.02965
0.0295966
0.0295754
0.0295931
0.0338001
0.0337619
0.033724
0.0336951
0.035766
0.0357268
0.0356791
0.0356316
0.0377927
0.0377712
0.0377517
0.0377401
0.0389459
0.0389283
0.0389266
0.0389415
0.0361481
0.0361214
0.0360952
0.0360646
0.0146838
0.0146692
0.014608
0.0144741
0.00177741
0.00177903
0.00178124
0.00178444
0.00172858
0.00173302
0.00173304
0.00172861
0.0127677
0.0128762
0.0129075
0.012869
0.0285397
0.028491
0.028476
0.0284995
0.0315988
0.0315671
0.0315385
0.0315204
0.0328975
0.0328617
0.0328156
0.032769
0.034527
0.0345032
0.0344655
0.0344249
0.0357844
0.0357712
0.0357394
0.035699
0.0335615
0.033546
0.0334955
0.033416
0.0138351
0.013814
0.0137629
0.0136669
0.00174851
0.00174942
0.00175092
0.00175335
0.00170441
0.00170852
0.00170853
0.00170441
0.0132009
0.0132959
0.0133173
0.0132734
0.0281616
0.0281187
0.0281091
0.0281361
0.0304754
0.030453
0.0304356
0.0304281
0.0311717
0.0311446
0.0311128
0.031084
0.0321096
0.0320846
0.0320529
0.0320241
0.0328882
0.0328672
0.0328347
0.0328011
0.0310518
0.0310316
0.030985
0.0309198
0.0136457
0.0136258
0.0135844
0.013514
0.00172009
0.00172055
0.00172155
0.00172338
0.00167908
0.00168286
0.00168286
0.00167907
0.0137271
0.0138001
0.0138126
0.013778
0.0281223
0.0280839
0.0280778
0.0281062
0.029971
0.0299561
0.0299458
0.0299433
0.0303325
0.0303145
0.0302942
0.030277
0.0308226
0.0308027
0.0307802
0.0307624
0.0312075
0.0311865
0.031161
0.0311394
0.0296119
0.0295913
0.0295541
0.0295074
0.013889
0.0138751
0.0138424
0.0137878
0.0016915
0.00169168
0.00169233
0.00169369
0.0016524
0.00165584
0.00165583
0.00165239
0.014334
0.0143795
0.014388
0.0143684
0.0282305
0.0281957
0.0281918
0.0282203
0.029751
0.0297412
0.029735
0.0297346
0.0299418
0.0299307
0.0299182
0.0299078
0.0301949
0.0301812
0.0301663
0.0301553
0.0303686
0.0303524
0.0303346
0.0303213
0.028986
0.0289703
0.028943
0.02891
0.0144098
0.0144038
0.0143792
0.0143344
0.00166229
0.00166229
0.00166272
0.00166372
0.00162418
0.00162729
0.00162728
0.00162416
0.015027
0.0150601
0.0150653
0.0150469
0.0284045
0.0283732
0.0283707
0.028398
0.0296581
0.0296516
0.029648
0.0296484
0.0297612
0.0297546
0.0297471
0.0297409
0.0298936
0.0298848
0.0298754
0.0298687
0.0299687
0.0299576
0.029946
0.0299382
0.0288079
0.0287979
0.0287793
0.028756
0.0151357
0.0151381
0.0151203
0.0150818
0.00163211
0.00163202
0.00163228
0.00163302
0.0015943
0.00159707
0.00159706
0.00159429
0.01584
0.0158708
0.0158746
0.0158544
0.0286085
0.0285811
0.0285796
0.0286047
0.0296221
0.0296178
0.0296156
0.0296163
0.029678
0.0296742
0.0296699
0.0296663
0.0297491
0.0297437
0.029738
0.0297341
0.029783
0.029776
0.0297689
0.0297647
0.0288554
0.02885
0.028838
0.0288219
0.0160464
0.0160569
0.0160448
0.0160101
0.00160066
0.00160053
0.00160069
0.00160122
0.00156266
0.00156506
0.00156506
0.00156266
0.0168186
0.0168542
0.0168567
0.0168283
0.0288254
0.0288023
0.0288014
0.0288232
0.0296108
0.029608
0.0296067
0.0296072
0.0296396
0.0296375
0.029635
0.029633
0.0296789
0.0296757
0.0296724
0.0296702
0.0296984
0.0296942
0.0296902
0.0296881
0.0290086
0.0290066
0.0289992
0.0289882
0.0171561
0.0171736
0.0171661
0.0171339
0.00156774
0.0015676
0.0015677
0.00156807
0.00152925
0.00153126
0.00153126
0.00152925
0.0180206
0.018074
0.0180755
0.0180264
0.0290436
0.0290259
0.0290255
0.0290426
0.029609
0.0296074
0.0296066
0.0296068
0.029621
0.0296198
0.0296185
0.0296174
0.029643
0.0296412
0.0296393
0.029638
0.0296583
0.0296559
0.0296537
0.0296529
0.029201
0.029201
0.0291967
0.029189
0.0185061
0.0185275
0.0185237
0.0184952
0.00153324
0.00153312
0.00153318
0.00153343
0.00149426
0.00149582
0.00149582
0.00149426
0.0195395
0.0196367
0.0196373
0.0195423
0.0292519
0.0292407
0.0292405
0.0292515
0.029609
0.0296083
0.0296078
0.0296076
0.0296107
0.0296101
0.0296093
0.0296088
0.0296225
0.0296213
0.0296202
0.0296195
0.0296344
0.0296331
0.029632
0.0296317
0.0293887
0.02939
0.0293874
0.0293815
0.0201607
0.020177
0.0201761
0.0201586
0.00149724
0.00149715
0.00149718
0.00149734
0.00145798
0.00145907
0.00145907
0.00145798
0.0215432
0.0217349
0.021735
0.0215438
0.0294339
0.02943
0.02943
0.0294339
0.0296073
0.0296071
0.0296068
0.0296065
0.0296044
0.029604
0.0296036
0.0296035
0.0296098
0.029609
0.0296083
0.029608
0.0296149
0.0296143
0.0296137
0.0296137
0.0295374
0.0295394
0.0295375
0.0295323
0.0222951
0.0223055
0.0223053
0.0222948
0.00145986
0.0014598
0.00145982
0.00145991
0.00141978
0.00142038
0.00142038
0.00141978
0.0244266
0.0247689
0.0247689
0.0244267
0.0295702
0.029572
0.029572
0.0295703
0.0296047
0.0296046
0.0296045
0.0296044
0.0296027
0.0296023
0.0296022
0.0296022
0.0296042
0.0296037
0.0296033
0.0296033
0.0296012
0.0296009
0.0296007
0.0296009
0.0296225
0.0296232
0.0296216
0.0296184
0.0252449
0.0252453
0.0252456
0.025246
0.00142032
0.00142032
0.00142034
0.00142036
0.00220195
0.00208813
0.00202621
0.00199061
0.00196968
0.00195412
0.0019408
0.00192939
0.00192011
0.0019127
0.00281356
0.00256239
0.00398172
0.00853829
0.0135348
0.01731
0.0193981
0.0200175
0.0197364
0.018994
0.00407143
0.00515497
0.0116611
0.0213534
0.0324401
0.0420288
0.0490529
0.0533218
0.0550552
0.0545169
0.0057248
0.00914841
0.017928
0.0304913
0.0436355
0.0542363
0.0616939
0.0660754
0.0677436
0.0671338
0.00924842
0.0124032
0.0233294
0.0371552
0.0505753
0.0609808
0.0679244
0.0717047
0.0728555
0.0721437
0.0135435
0.0162895
0.0275735
0.0416388
0.0548298
0.0647476
0.0709532
0.0739287
0.0744368
0.0735938
0.0169332
0.0190896
0.0294159
0.0434833
0.0562721
0.0654874
0.0706743
0.0726769
0.0724767
0.0715705
0.0185885
0.0195921
0.0273862
0.0400611