/*--------------------------------*- C++ -*----------------------------------*\
| =========                 |                                                 |
| \\      /  F ield         | foam-extend: Open Source CFD                    |
|  \\    /   O peration     | Version:     4.0                                |
|   \\  /    A nd           | Web:         http://www.foam-extend.org         |
|    \\/     M anipulation  |                                                 |
\*---------------------------------------------------------------------------*/
FoamFile
{
    version     2.0;
    format      ascii;
    class       volScalarField;
    location    "800";
    object      p;
}
// * * * * * * * * * * * * * * * * * * * * * * * * * * * * * * * * * * * * * //

dimensions      [1 -1 -2 0 0 0 0];

internalField   nonuniform List<scalar> 
34480
(
108572
108281
108057
107926
107920
108092
108540
109272
109924
112918
107885
107456
107077
106765
106556
106503
106718
107281
107619
109835
107526
106975
106459
105981
105562
105260
105194
105492
105436
106662
107344
106651
105989
105342
104719
104174
103831
103841
103368
103584
107247
106434
105655
104874
104088
103337
102749
102474
101590
100871
107275
106376
105513
104633
103727
102817
102031
101498
100226
98713.9
107189
106230
105319
104384
103410
102402
101474
100712
99061.8
96805
107267
106289
105362
104417
103431
102394
101395
100453
98429.8
95384.9
107064
106085
105162
104242
103306
102323
101325
100247
97845.3
94011.5
107182
106189
105247
104323
103425
102534
101644
100616
97972.7
93266.5
110388
110228
110168
110239
110482
110948
111731
112949
114799
117783
109345
109059
108862
108777
108857
109177
109861
111084
113096
116826
108733
108327
107999
107760
107653
107763
108243
109334
111319
115511
108360
107816
107343
106943
106648
106541
106789
107686
109555
114026
108131
107466
106871
106337
105882
105581
105605
106281
107973
112561
108059
107301
106612
105973
105392
104931
104758
105206
106680
111230
107905
107078
106326
105618
104953
104377
104044
104272
105489
109864
107936
107074
106288
105545
104838
104197
103753
103780
104700
108770
107731
106853
106045
105289
104581
103936
103443
103311
103902
107688
107803
106916
106089
105315
104606
103986
103523
103374
103711
107340
111737
111664
111695
111855
112166
112657
113360
114308
115546
117095
110566
110391
110319
110379
110609
111059
111802
112922
114521
116738
109797
109515
109332
109269
109371
109707
110382
111545
113377
116203
109284
108876
108564
108362
108316
108506
109062
110192
112167
115532
108946
108422
107994
107669
107486
107530
107947
108993
111036
114841
108782
108164
107642
107215
106917
106830
107110
108044
110099
114241
108563
107871
107280
106779
106394
106202
106360
107166
109174
113531
108548
107813
107175
106626
106184
105916
105971
106640
108534
112979
108349
107586
106914
106331
105855
105546
105535
106086
107799
112328
108397
107624
106929
106321
105822
105496
105464
105974
107499
112145
112594
112560
112610
112756
113007
113369
113848
114441
115130
115858
111490
111383
111370
111473
111714
112117
112709
113514
114535
115689
110690
110493
110394
110414
110588
110959
111588
112539
113863
115494
110113
109807
109602
109517
109592
109891
110501
111537
113124
115249
109714
109300
108994
108805
108777
108985
109541
110611
112407
115000
109490
108986
108590
108310
108187
108304
108791
109857
111814
114831
109227
108649
108183
107830
107629
107663
108078
109110
111173
114548
109177
108550
108032
107627
107367
107333
107675
108647
110749
114404
108967
108309
107756
107313
107012
106932
107217
108121
110182
114108
108988
108319
107743
107277
106952
106846
107097
107957
109922
114109
113088
113073
113116
113222
113393
113627
113920
114259
114624
114983
112150
112086
112098
112200
112400
112705
113120
113637
114236
114843
111402
111268
111221
111276
111456
111781
112277
112956
113812
114741
110819
110595
110466
110451
110580
110891
111432
112247
113361
114660
110395
110076
109863
109769
109832
110104
110656
111570
112927
114609
110137
109734
109442
109273
109266
109489
110031
111015
112591
114656
109846
109371
109013
108779
108710
108880
109399
110423
112183
114609
109771
109245
108836
108551
108430
108550
109035
110066
111956
114707
109555
108997
108552
108231
108071
108152
108603
109620
111568
114635
109558
108987
108520
108177
107993
108050
108472
109467
111397
114756
113331
113323
113352
113419
113524
113662
113829
114014
114204
114384
112590
112551
112568
112648
112793
113003
113273
113590
113932
114257
111945
111854
111834
111896
112049
112302
112659
113114
113643
114174
111400
111238
111160
111180
111317
111592
112022
112615
113357
114147
110985
110743
110599
110565
110667
110941
111420
112135
113095
114173
110715
110400
110189
110098
110158
110416
110927
111746
112922
114309
110413
110030
109762
109617
109633
109868
110393
111293
112671
114368
110324
109892
109575
109386
109363
109569
110093
111046
112590
114584
110104
109639
109290
109068
109013
109192
109707
110689
112344
114628
110096
109618
109247
109004
108928
109088
109587
110574
112262
114803
113419
113414
113431
113470
113530
113607
113698
113797
113896
113987
112863
112839
112853
112908
113004
113139
113306
113495
113691
113870
112341
112280
112273
112326
112444
112627
112871
113166
113489
113799
111860
111746
111699
111732
111855
112075
112396
112810
113293
113779
111479
111299
111204
111203
111314
111556
111941
112473
113132
113826
111219
110976
110828
110787
110877
111128
111567
112209
113055
113982
110919
110616
110420
110338
110403
110653
111130
111869
112899
114073
110828
110480
110240
110123
110162
110402
110902
111717
112911
114332
110608
110227
109960
109815
109830
110057
110567
111437
112758
114421
110595
110201
109913
109751
109749
109965
110471
111363
112744
114609
113421
113418
113427
113448
113480
113522
113570
113622
113674
113720
113017
113002
113011
113046
113106
113189
113288
113398
113510
113610
112619
112578
112576
112616
112700
112825
112986
113173
113372
113556
112213
112133
112106
112139
112237
112402
112632
112913
113227
113530
111881
111750
111688
111702
111804
112001
112295
112677
113125
113575
111645
111462
111360
111349
111445
111666
112019
112504
113100
113721
111360
111125
110984
110945
111031
111265
111668
112249
112998
113807
111276
111001
110825
110759
110830
111070
111510
112173
113066
114066
111059
110754
110553
110466
110522
110760
111223
111949
112963
114152
111048
110730
110511
110409
110454
110687
111157
111914
112993
114333
113383
113380
113384
113395
113412
113434
113459
113486
113513
113537
113093
113084
113089
113110
113146
113194
113252
113315
113378
113434
112806
112779
112779
112806
112862
112944
113047
113164
113285
113396
112475
112420
112404
112431
112504
112622
112780
112968
113170
113362
112199
112106
112065
112084
112168
112319
112535
112803
113104
113398
111996
111861
111792
111797
111885
112065
112337
112693
113107
113524
111734
111556
111457
111443
111531
111733
112057
112498
113034
113589
111666
111454
111326
111295
111378
111594
111960
112478
113132
113830
111455
111215
111068
111021
111097
111320
111714
112293
113048
113887
111450
111199
111036
110979
111047
111271
111678
112291
113106
114053
113330
113328
113330
113335
113344
113355
113368
113382
113396
113408
113122
113116
113119
113131
113151
113179
113212
113248
113283
113315
112928
112910
112910
112927
112963
113015
113079
113151
113224
113291
112664
112626
112616
112637
112688
112769
112874
112997
113127
113248
112445
112379
112353
112371
112435
112546
112698
112882
113083
113275
112279
112181
112135
112146
112220
112359
112561
112814
113099
113378
112043
111911
111843
111843
111923
112087
112336
112661
113038
113418
111997
111837
111747
111737
111818
112001
112291
112682
113151
113634
111794
111610
111505
111484
111563
111757
112077
112521
113070
113654
111800
111606
111488
111460
111536
111735
112070
112546
113145
113806
113278
113276
113277
113279
113284
113289
113296
113303
113311
113317
113124
113121
113122
113129
113140
113156
113174
113194
113214
113232
113004
112993
112992
113003
113025
113057
113096
113139
113184
113224
112794
112770
112763
112778
112812
112866
112935
113013
113095
113171
112629
112584
112567
112582
112629
112707
112811
112935
113067
113191
112500
112431
112400
112413
112470
112573
112718
112894
113087
113273
112292
112197
112150
112158
112224
112350
112535
112768
113029
113287
112273
112155
112093
112094
112165
112312
112533
112819
113149
113480
112077
111939
111866
111860
111933
112093
112341
112672
113062
113464
112098
111951
111868
111858
111931
112097
112361
112718
113147
113603
113233
113232
113232
113233
113235
113238
113242
113245
113249
113252
113114
113111
113112
113115
113122
113130
113141
113152
113163
113173
113052
113044
113044
113050
113063
113082
113106
113132
113158
113182
112883
112867
112863
112872
112894
112929
112973
113022
113074
113122
112765
112735
112724
112735
112768
112821
112891
112972
113057
113138
112669
112621
112601
112612
112655
112729
112829
112949
113078
113200
112489
112421
112390
112399
112451
112545
112677
112840
113018
113191
112497
112413
112371
112377
112435
112547
112710
112913
113141
113365
112308
112207
112157
112159
112221
112346
112532
112771
113043
113316
112346
112238
112181
112181
112245
112377
112576
112836
113137
113446
113198
113198
113198
113198
113199
113200
113202
113204
113206
113207
113097
113096
113096
113098
113102
113106
113112
113118
113125
113131
113082
113077
113077
113080
113088
113099
113113
113128
113144
113158
112941
112930
112928
112933
112948
112969
112997
113028
113060
113089
112864
112844
112837
112845
112867
112902
112948
113000
113055
113106
112796
112763
112751
112759
112790
112840
112908
112988
113073
113152
112640
112593
112573
112581
112619
112687
112779
112890
113009
113123
112677
112618
112590
112598
112643
112725
112841
112982
113136
113284
112491
112419
112385
112391
112441
112534
112669
112836
113023
113205
112549
112473
112434
112439
112490
112590
112736
112920
113126
113333
113175
113174
113174
113174
113175
113175
113176
113177
113179
113179
113079
113079
113079
113080
113082
113084
113088
113091
113095
113098
113103
113100
113100
113102
113106
113113
113121
113130
113139
113147
112978
112971
112969
112973
112982
112995
113012
113031
113050
113068
112935
112922
112918
112923
112937
112960
112989
113022
113057
113089
112888
112867
112859
112865
112886
112920
112965
113017
113072
113122
112754
112722
112709
112716
112743
112790
112852
112926
113004
113079
112819
112779
112761
112768
112801
112859
112939
113034
113137
113233
112632
112582
112560
112566
112603
112671
112765
112880
113004
113125
112714
112661
112635
112641
112681
112754
112856
112983
113121
113257
113163
113162
113163
113162
113163
113163
113163
113163
113164
113164
113061
113061
113061
113062
113063
113064
113066
113068
113071
113073
113121
113119
113118
113120
113122
113126
113131
113136
113141
113146
113001
112996
112995
112997
113002
113010
113021
113032
113044
113055
112986
112978
112975
112978
112987
113002
113020
113041
113062
113082
112955
112941
112936
112940
112954
112976
113005
113038
113073
113105
112839
112818
112810
112815
112833
112864
112905
112953
113003
113051
112930
112904
112893
112899
112922
112962
113015
113078
113144
113205
112736
112702
112688
112693
112720
112767
112831
112907
112989
113068
112847
112811
112795
112801
112829
112880
112950
113035
113125
113213
113166
113165
113165
113165
113165
113165
113165
113164
113165
113164
113042
113042
113043
113043
113044
113045
113046
113047
113049
113050
113138
113137
113137
113137
113139
113141
113144
113147
113150
113152
113014
113012
113011
113012
113015
113020
113026
113032
113039
113046
113021
113016
113014
113016
113022
113031
113042
113055
113068
113080
113000
112991
112988
112991
113000
113014
113032
113053
113074
113094
112901
112888
112882
112886
112898
112918
112944
112974
113006
113036
113016
112999
112993
112997
113013
113039
113074
113114
113157
113194
112808
112785
112776
112781
112799
112831
112872
112922
112975
113025
112959
112935
112925
112930
112950
112985
113031
113086
113143
113199
113193
113192
113192
113192
113191
113191
113191
113190
113191
113189
113021
113021
113021
113021
113022
113022
113023
113023
113024
113025
113155
113154
113154
113155
113156
113157
113159
113161
113163
113164
113023
113021
113020
113021
113022
113025
113028
113032
113036
113040
113043
113040
113039
113041
113044
113050
113056
113064
113072
113079
113027
113022
113020
113022
113027
113036
113047
113060
113074
113086
112945
112937
112933
112936
112944
112956
112972
112991
113010
113029
113078
113067
113063
113066
113077
113094
113116
113142
113169
113191
112850
112835
112829
112833
112845
112865
112892
112924
112956
112990
113065
113050
113044
113048
113062
113084
113114
113149
113185
113219
113268
113267
113267
113267
113266
113266
113266
113265
113265
113262
112988
112987
112988
112988
112988
112988
112988
112988
112989
112989
113166
113166
113166
113166
113167
113168
113170
113172
113173
113174
113029
113027
113027
113027
113028
113029
113031
113033
113035
113037
113055
113053
113052
113053
113055
113059
113063
113068
113073
113078
113039
113036
113035
113036
113039
113045
113052
113060
113069
113077
112974
112968
112967
112968
112973
112981
112991
113002
113013
113025
113105
113098
113095
113098
113105
113116
113131
113148
113166
113180
112855
112846
112842
112845
112853
112866
112883
112903
112922
112945
113193
113183
113180
113182
113191
113206
113226
113248
113270
113292
113415
113415
113415
113416
113416
113418
113419
113420
113422
113420
112927
112927
112927
112926
112926
112925
112924
112923
112922
112921
113158
113158
113158
113159
113160
113162
113164
113166
113168
113170
113036
113035
113035
113035
113035
113036
113037
113038
113039
113039
113059
113058
113058
113058
113060
113062
113065
113069
113072
113076
113042
113040
113039
113040
113043
113047
113051
113057
113063
113069
112991
112988
112986
112987
112991
112996
113003
113010
113018
113025
113084
113079
113077
113079
113084
113092
113103
113115
113129
113141
112812
112807
112804
112806
112812
112820
112832
112844
112856
112871
113368
113360
113358
113359
113366
113376
113390
113406
113422
113438
113587
113587
113588
113590
113593
113597
113602
113608
113615
113622
112849
112848
112847
112847
112845
112844
112841
112838
112834
112826
113134
113135
113135
113136
113137
113138
113140
113143
113146
113150
113050
113050
113049
113050
113050
113051
113051
113052
113053
113053
113064
113063
113063
113063
113065
113067
113069
113073
113076
113079
113047
113045
113044
113045
113047
113050
113054
113059
113064
113070
113005
113003
113002
113003
113005
113010
113016
113022
113028
113034
113035
113031
113029
113031
113035
113042
113051
113061
113074
113088
112741
112737
112735
112736
112741
112748
112757
112767
112776
112781
113549
113541
113538
113539
113545
113553
113565
113579
113594
113612
128963
132471
132510
130505
129839
133778
133755
131919
130490
134654
135102
133495
130763
135109
136296
134935
131067
135573
137420
136250
131864
136620
139184
138636
132607
137507
140554
140607
133354
138307
141680
142240
133009
137898
141477
142493
131614
136309
140040
141596
121258
122829
123206
122349
121771
123597
124136
123388
122172
124222
124923
124409
122564
124811
125736
125506
123077
125477
126644
126648
123684
126144
127424
127520
124192
126671
128025
128233
124801
127256
128639
129041
124857
127251
128692
129314
124602
126953
128550
129424
118476
119164
119347
119075
118793
119639
119920
119720
119105
120117
120525
120413
119443
120627
121195
121197
119892
121233
121953
122062
120541
122018
122861
123079
121134
122721
123667
123996
121841
123499
124515
124960
122159
123827
124890
125454
122391
124012
125087
125743
116413
116731
116846
116764
116542
116952
117138
117111
116750
117263
117535
117574
117012
117638
118009
118135
117373
118108
118573
118784
117898
118731
119280
119583
118377
119298
119924
120322
119013
120004
120699
121202
119337
120364
121112
121713
119596
120630
121416
122091
115241
115395
115462
115442
115249
115460
115575
115595
115361
115641
115813
115881
115556
115911
116150
116280
115846
116278
116582
116776
116300
116807
117176
117439
116720
117298
117727
118061
117312
117953
118439
118849
117651
118328
118857
119334
117964
118652
119207
119733
114510
114588
114627
114625
114462
114575
114645
114673
114503
114661
114771
114833
114635
114845
115001
115109
114863
115127
115331
115486
115241
115558
115810
116017
115584
115953
116251
116511
116108
116525
116866
117180
116417
116865
117239
117599
116727
117189
117584
117974
114052
114093
114115
114118
113980
114043
114086
114108
113985
114079
114148
114193
114063
114192
114294
114371
114237
114403
114540
114652
114546
114750
114922
115071
114818
115060
115265
115452
115272
115549
115786
116011
115532
115833
116093
116347
115815
116127
116402
116675
113754
113776
113789
113792
113671
113707
113732
113748
113666
113722
113765
113796
113702
113782
113848
113901
113830
113936
114026
114104
114075
114208
114324
114428
114279
114438
114579
114709
114664
114848
115011
115168
114863
115065
115245
115420
115111
115321
115511
115698
113555
113567
113574
113577
113468
113489
113504
113515
113463
113497
113524
113545
113469
113520
113562
113598
113561
113630
113690
113742
113753
113841
113919
113990
113896
114003
114098
114188
114219
114343
114455
114562
114354
114490
114613
114732
114565
114707
114837
114964
113418
113425
113429
113431
113333
113345
113354
113361
113332
113353
113370
113383
113315
113347
113375
113398
113380
113425
113465
113500
113529
113587
113639
113687
113621
113693
113758
113818
113892
113975
114052
114125
113965
114057
114141
114222
114146
114242
114331
114416
113323
113326
113328
113330
113242
113248
113254
113258
113249
113262
113272
113281
113214
113234
113252
113267
113260
113289
113315
113338
113372
113411
113446
113478
113422
113470
113514
113555
113652
113708
113760
113809
113672
113734
113792
113847
113830
113894
113955
114012
113255
113257
113259
113259
113178
113181
113184
113188
113198
113206
113212
113217
113148
113161
113172
113182
113182
113201
113218
113233
113265
113290
113314
113335
113280
113312
113342
113369
113479
113517
113552
113585
113456
113498
113537
113573
113597
113641
113682
113720
113209
113211
113211
113212
113132
113133
113135
113138
113168
113173
113177
113180
113105
113113
113120
113127
113134
113146
113157
113167
113194
113211
113226
113240
113182
113203
113223
113241
113360
113385
113408
113430
113299
113327
113353
113377
113433
113462
113489
113514
113180
113181
113181
113181
113097
113098
113099
113101
113154
113157
113159
113161
113078
113083
113087
113091
113107
113115
113122
113128
113149
113160
113170
113179
113117
113130
113143
113155
113283
113299
113314
113329
113188
113206
113223
113239
113322
113341
113359
113376
113165
113165
113165
113166
113070
113070
113071
113073
113150
113152
113154
113155
113060
113063
113066
113068
113093
113098
113102
113106
113122
113129
113135
113141
113075
113084
113092
113100
113237
113248
113258
113267
113109
113121
113132
113143
113254
113267
113278
113289
113165
113165
113165
113166
113046
113046
113046
113048
113156
113157
113158
113158
113049
113050
113052
113054
113087
113090
113093
113095
113105
113109
113113
113117
113051
113056
113061
113066
113215
113222
113228
113234
113053
113061
113068
113074
113224
113232
113239
113246
113190
113189
113189
113190
113020
113020
113020
113021
113167
113168
113169
113169
113041
113041
113042
113044
113084
113086
113088
113089
113093
113096
113098
113100
113037
113040
113043
113046
113205
113209
113213
113216
113008
113013
113017
113021
113234
113239
113243
113248
113263
113262
113262
113264
112983
112982
112982
112984
113178
113179
113179
113179
113036
113037
113037
113038
113081
113082
113083
113084
113082
113083
113085
113086
113028
113030
113032
113034
113191
113194
113196
113198
112957
112960
112963
112965
113300
113303
113306
113309
113425
113422
113422
113425
112914
112912
112912
112914
113174
113176
113176
113175
113038
113038
113039
113039
113078
113079
113080
113080
113072
113074
113074
113075
113025
113026
113027
113029
113154
113157
113159
113159
112877
112879
112881
112882
113444
113446
113447
113449
113644
113642
113642
113644
112814
112809
112809
112814
113154
113156
113156
113155
113052
113052
113052
113053
113082
113083
113083
113084
113073
113074
113075
113076
113035
113035
113036
113038
113106
113110
113111
113110
112768
112766
112768
112773
113621
113623
113625
113626
120520
117084
114947
113271
112070
111168
110448
109854
109357
108932
121786
117919
115276
113444
112105
111084
110253
109550
108940
108384
122865
118662
115581
113709
112275
111159
110228
109430
108730
108105
124142
119589
116266
114298
112729
111495
110450
109541
108729
108021
125498
120539
117034
114878
113174
111819
110668
109663
108754
107995
127078
121616
117915
115544
113709
112235
110989
109899
108911
108091
128580
122413
118586
115977
114032
112445
111115
109954
108901
108050
130198
123193
119356
116496
114475
112786
111392
110169
109073
108169
131239
123442
119679
116622
114560
112789
111340
110066
108947
108000
132319
123912
120256
117027
114893
113030
111513
110178
109022
108033
119957
117636
115967
114660
113608
112751
112048
111475
111014
110652
120644
118006
116012
114453
113223
112241
111439
110773
110218
109739
121353
118452
116126
114441
113105
112037
111153
110407
109771
109215
122148
119111
116575
114775
113330
112164
111180
110333
109590
108943
122938
119898
117144
115200
113637
112364
111282
110342
109501
108792
124051
120842
117885
115765
114079
112695
111519
110495
109572
108794
125199
121598
118481
116154
114355
112862
111601
110504
109512
108691
126645
122366
119198
116649
114764
113176
111848
110688
109648
108771
127714
122642
119521
116796
114863
113194
111809
110597
109527
108608
128907
122993
120009
117131
115137
113393
111956
110697
109602
108655
118259
117115
116048
115105
114291
113601
113027
112557
112188
111914
118796
117352
115977
114790
113794
112969
112283
111712
111247
110860
119380
117693
116043
114683
113559
112631
111854
111199
110650
110180
120070
118234
116384
114895
113657
112624
111744
110987
110332
109768
120832
118900
116865
115235
113874
112732
111751
110898
110145
109509
121862
119753
117538
115737
114247
112991
111913
110973
110135
109423
122903
120483
118102
116100
114485
113117
111949
110933
110021
109260
124233
121275
118802
116585
114871
113404
112165
111084
110119
109299
125236
121632
119164
116773
114998
113447
112145
111007
110006
109143
126290
122009
119625
117087
115250
113629
112282
111103
110078
109189
116478
115973
115421
114874
114362
113901
113500
113166
112902
112709
116817
116149
115385
114638
113952
113343
112816
112368
112002
111704
117281
116463
115492
114568
113734
113003
112370
111829
111375
110990
117886
116959
115824
114754
113790
112942
112199
111551
110992
110511
118596
117570
116282
115064
113970
113005
112156
111408
110750
110191
119542
118361
116919
115534
114306
113224
112273
111433
110686
110048
120492
119059
117465
115888
114528
113329
112283
111363
110537
109843
121688
119854
118150
116370
114900
113598
112474
111485
110603
109848
122598
120276
118532
116577
115026
113633
112441
111396
110474
109679
123528
120690
118958
116859
115245
113790
112558
111477
110533
109714
115331
115102
114823
114521
114219
113935
113679
113461
113287
113161
115510
115205
114795
114349
113906
113489
113113
112786
112518
112300
115829
115444
114899
114308
113730
113193
112710
112288
111931
111630
116309
115864
115202
114479
113773
113116
112521
111991
111532
111137
116907
116403
115626
114768
113934
113159
112454
111822
111264
110790
117712
117114
116217
115210
114244
113351
112541
111815
111167
110611
118512
117751
116730
115551
114454
113443
112535
111724
110995
110379
119540
118512
117387
116028
114816
113700
112709
111826
111037
110360
120322
118955
117770
116245
114938
113727
112667
111728
110897
110182
121104
119370
118162
116505
115137
113870
112771
111799
110946
110207
114581
114476
114337
114178
114010
113846
113694
113561
113454
113376
114657
114518
114304
114047
113774
113505
113253
113029
112844
112693
114853
114680
114385
114025
113644
113270
112921
112607
112339
112112
115203
115008
114637
114172
113679
113195
112738
112323
111960
111646
115675
115459
115009
114433
113825
113228
112665
112150
111692
111302
116330
116074
115538
114838
114111
113400
112735
112125
111579
111108
116972
116631
115998
115157
114306
113482
112718
112023
111396
110864
117826
117329
116610
115618
114655
113728
112880
112112
111424
110830
118457
117749
116967
115827
114765
113747
112830
112007
111276
110646
119082
118138
117322
116071
114952
113880
112926
112072
111318
110664
114099
114051
113983
113900
113810
113719
113632
113555
113492
113446
114111
114047
113934
113789
113627
113460
113299
113153
113032
112931
114225
114150
113992
113778
113535
113284
113041
112818
112624
112461
114460
114385
114181
113891
113559
113213
112877
112563
112287
112046
114814
114743
114489
114115
113686
113241
112807
112402
112038
111727
115329
115253
114942
114473
113942
113396
112866
112370
111923
111536
115823
115713
115335
114756
114116
113465
112841
112263
111738
111291
116515
116330
115887
115187
114446
113699
112994
112345
111759
111253
116998
116696
116194
115373
114539
113709
112938
112236
111607
111066
117484
117047
116513
115603
114716
113837
113030
112298
111646
111080
113784
113762
113728
113687
113639
113590
113542
113499
113464
113437
113755
113726
113667
113586
113492
113392
113294
113203
113127
113061
113823
113793
113707
113581
113429
113266
113102
112950
112816
112702
113970
113948
113837
113658
113439
113200
112959
112731
112528
112350
114226
114219
114078
113840
113544
113222
112898
112589
112309
112070
114621
114627
114452
114145
113767
113358
112949
112558
112204
111895
114985
114988
114771
114381
113913
113413
112918
112451
112024
111659
115539
115516
115253
114773
114218
113634
113064
112530
112046
111625
115887
115809
115497
114923
114289
113632
113002
112419
111892
111438
116263
116117
115779
115138
114457
113756
113093
112480
111930
111453
113574
113564
113547
113526
113501
113476
113450
113427
113407
113392
113522
113509
113478
113434
113381
113323
113265
113210
113164
113122
113564
113552
113506
113432
113339
113235
113129
113029
112939
112862
113647
113645
113584
113475
113333
113172
113006
112846
112701
112573
113829
113844
113767
113616
113416
113189
112954
112726
112518
112339
114127
114162
114066
113867
113603
113305
112998
112700
112427
112188
114384
114431
114309
114051
113716
113343
112961
112595
112257
111968
114825
114873
114721
114399
113994
113549
113102
112675
112285
111945
115057
115084
114898
114508
114039
113533
113033
112562
112131
111760
115351
115351
115145
114706
114198
113654
113123
112625
112173
111780
113429
113425
113417
113406
113394
113380
113367
113354
113343
113335
113367
113362
113346
113322
113293
113260
113226
113195
113167
113141
113396
113392
113367
113324
113268
113204
113137
113073
113015
112965
113432
113437
113404
113337
113247
113142
113030
112921
112821
112732
113559
113579
113537
113442
113310
113154
112988
112825
112675
112546
113783
113821
113769
113642
113461
113250
113026
112806
112602
112422
113954
114010
113944
113775
113540
113268
112983
112704
112444
112222
114307
114375
114291
114078
113789
113459
113119
112788
112483
112214
114444
114511
114404
114144
113806
113427
113041
112671
112328
112034
114679
114738
114619
114326
113956
113546
113133
112738
112377
112062
113329
113327
113323
113318
113312
113305
113298
113291
113285
113281
113263
113261
113253
113241
113225
113207
113187
113169
113153
113137
113289
113288
113275
113250
113217
113178
113137
113097
113060
113028
113290
113296
113278
113238
113182
113114
113041
112969
112902
112841
113378
113396
113373
113314
113228
113123
113010
112897
112791
112700
113543
113577
113549
113468
113347
113201
113042
112883
112735
112604
113648
113698
113662
113553
113392
113199
112991
112785
112591
112425
113934
113999
113954
113816
113615
113377
113124
112874
112643
112438
113997
114068
114010
113841
113603
113326
113036
112753
112488
112261
114190
114263
114198
114006
113744
113443
113131
112827
112546
112301
113259
113259
113257
113254
113251
113247
113244
113240
113237
113234
113192
113192
113188
113181
113172
113162
113152
113142
113132
113122
113222
113223
113216
113202
113182
113159
113134
113109
113086
113066
113197
113202
113193
113169
113134
113092
113045
112999
112955
112914
113259
113273
113261
113225
113169
113101
113025
112948
112876
112814
113379
113405
113391
113340
113260
113161
113052
112940
112836
112743
113432
113471
113453
113383
113275
113141
112993
112845
112705
112585
113670
113723
113701
113612
113475
113308
113126
112943
112772
112619
113674
113736
113706
113597
113433
113236
113024
112813
112615
112445
113840
113907
113874
113750
113569
113353
113124
112897
112684
112499
113211
113212
113210
113210
113208
113206
113204
113202
113200
113199
113142
113142
113140
113137
113132
113127
113121
113115
113110
113103
113182
113183
113180
113172
113160
113147
113132
113117
113102
113091
113137
113141
113136
113122
113101
113075
113046
113016
112989
112962
113184
113194
113188
113166
113131
113086
113037
112986
112938
112897
113269
113288
113281
113249
113198
113132
113059
112983
112911
112847
113283
113311
113302
113259
113187
113096
112994
112891
112792
112707
113487
113528
113518
113462
113370
113255
113128
112997
112875
112764
113443
113492
113477
113408
113298
113160
113010
112858
112713
112590
113595
113648
113633
113555
113433
113282
113118
112953
112798
112661
113181
113182
113181
113181
113180
113179
113178
113177
113176
113175
113105
113105
113105
113103
113101
113098
113095
113092
113089
113083
113162
113163
113160
113156
113149
113141
113132
113123
113115
113108
113098
113101
113098
113090
113078
113062
113044
113026
113009
112991
113138
113146
113142
113129
113107
113079
113047
113014
112983
112956
113198
113211
113208
113188
113156
113113
113065
113014
112967
112923
113183
113202