/*--------------------------------*- C++ -*----------------------------------*\
| =========                 |                                                 |
| \\      /  F ield         | foam-extend: Open Source CFD                    |
|  \\    /   O peration     | Version:     4.0                                |
|   \\  /    A nd           | Web:         http://www.foam-extend.org         |
|    \\/     M anipulation  |                                                 |
\*---------------------------------------------------------------------------*/
FoamFile
{
    version     2.0;
    format      ascii;
    class       surfaceScalarField;
    location    "800";
    object      phi;
}
// * * * * * * * * * * * * * * * * * * * * * * * * * * * * * * * * * * * * * //

dimensions      [1 0 -1 0 0 0 0];

internalField   nonuniform List<scalar> 
97302
(
-0.000108678
5.16648e-06
-0.000608887
0.000625545
-0.000133129
5.64018e-06
-0.000612558
0.000631369
-0.000161456
6.07414e-06
-0.000615471
0.000637723
-0.000195494
6.50087e-06
-0.000617606
0.000645144
-0.000237761
6.9386e-06
-0.000618833
0.000654162
-0.000291313
7.36998e-06
-0.000618418
0.000664601
-0.000358876
7.70211e-06
-0.000614307
0.000674167
-0.000439704
7.71064e-06
-0.000601857
0.000674976
-0.000529768
6.99981e-06
-0.000570482
0.000653545
4.55095e-06
-0.000487006
-0.000665542
0.00061823
-0.000137385
7.62586e-06
-0.000850934
0.000866229
-0.000157343
8.53221e-06
-0.000856858
0.000873924
-0.00018035
9.22105e-06
-0.000861796
0.000881656
-0.000208184
9.75363e-06
-0.000865562
0.000890144
-0.000243866
1.01717e-05
-0.000868439
0.000900888
-0.000291782
1.04745e-05
-0.000870282
0.000915094
-0.000357412
1.05721e-05
-0.000869261
0.00093202
-0.000443822
1.01937e-05
-0.000860096
0.000944023
-0.000546528
8.73739e-06
-0.000829574
0.000930543
4.50174e-06
-0.000720178
-0.000718301
0.000891999
-0.000167887
8.07568e-06
-0.00109178
0.00110615
-0.000184605
9.34467e-06
-0.00109997
0.00111588
-0.000204004
1.02914e-05
-0.00110721
0.00112554
-0.000227705
1.09847e-05
-0.00111335
0.00113582
-0.000258837
1.14661e-05
-0.00111862
0.00114846
-0.000302591
1.175e-05
-0.00112353
0.00116601
-0.00036623
1.17563e-05
-0.00112697
0.00118942
-0.00045586
1.11787e-05
-0.00112334
0.00121199
-0.00056693
9.21419e-06
-0.00109732
0.00120791
3.42495e-06
-0.000966988
-0.000764533
0.00116567
-0.000199507
8.13369e-06
-0.00132929
0.00134294
-0.000215048
9.62535e-06
-0.00134109
0.00135635
-0.000233145
1.07313e-05
-0.00135196
0.00136962
-0.00025521
1.15147e-05
-0.00136175
0.00138329
-0.000284185
1.19967e-05
-0.00137039
0.00139884
-0.000325505
1.21835e-05
-0.0013786
0.00141948
-0.000387633
1.19993e-05
-0.00138601
0.0014479
-0.000479121
1.11203e-05
-0.00138773
0.00147928
-0.000595452
8.51084e-06
-0.00136724
0.00148428
8.91953e-07
-0.00121805
-0.000809135
0.00143427
-0.000233395
8.05546e-06
-0.00156691
0.00158008
-0.0002483
9.60042e-06
-0.00158275
0.00159768
-0.000265696
1.07167e-05
-0.00159771
0.00161512
-0.00028683
1.14675e-05
-0.00161157
0.00163275
-0.000314451
1.18617e-05
-0.00162406
0.00165181
-0.000354035
1.18863e-05
-0.00163579
0.00167567
-0.000414897
1.14646e-05
-0.00164707
0.00170846
-0.000507597
1.0267e-05
-0.00165406
0.00174762
-0.000627737
6.98331e-06
-0.00163957
0.00176124
-2.62127e-06
-0.00147154
-0.000851312
0.00169862
-0.000269867
7.89216e-06
-0.0018029
0.00181569
-0.000284295
9.32745e-06
-0.00182294
0.00183765
-0.000301156
1.0314e-05
-0.00184198
0.00185925
-0.00032159
1.09196e-05
-0.00185988
0.00188087
-0.000348184
1.11446e-05
-0.00187626
0.00190357
-0.000386382
1.09676e-05
-0.00189152
0.00193064
-0.000446132
1.03287e-05
-0.00190642
0.00196731
-0.000539849
8.94499e-06
-0.00191826
0.0020133
-0.000663979
5.28595e-06
-0.00190922
0.00203505
-5.87918e-06
-0.00171911
-0.000898659
0.00195705
-0.000308261
7.75239e-06
-0.00203814
0.00205056
-0.00032227
8.87859e-06
-0.00206202
0.00207648
-0.000338621
9.59054e-06
-0.00208472
0.0021018
-0.000358353
9.93033e-06
-0.00210618
0.0021269
-0.000383873
9.88837e-06
-0.00212605
0.00215282
-0.000420483
9.45123e-06
-0.00214456
0.00218268
-0.000478542
8.63159e-06
-0.00216295
0.00222271
-0.00057213
7.28497e-06
-0.00217991
0.00227516
-0.000698819
3.79592e-06
-0.0021774
0.00230558
-8.06542e-06
-0.00196581
-0.000942353
0.00221153
-0.000349698
7.08691e-06
-0.00227369
0.00228605
-0.000363115
7.73865e-06
-0.00230097
0.00231552
-0.00037883
8.12024e-06
-0.00232666
0.00234385
-0.000397788
8.19756e-06
-0.00235105
0.00237174
-0.000422161
7.92974e-06
-0.00237372
0.00240005
-0.000456931
7.29597e-06
-0.00239483
0.00243175
-0.000512528
6.41639e-06
-0.00241605
0.00247386
-0.000604499
5.38162e-06
-0.00243792
0.00253179
-0.000731982
2.83789e-06
-0.00244353
0.00257197
-8.35436e-06
-0.00221323
-0.00098215
0.00246368
-0.00039193
4.99523e-06
-0.00250684
0.00251939
-0.000404323
4.97207e-06
-0.00253663
0.00255178
-0.000419185
4.89184e-06
-0.00256466
0.00258275
-0.000437573
4.6435e-06
-0.00259185
0.00261379
-0.000461414
4.19047e-06
-0.00261804
0.00264562
-0.000494977
3.49094e-06
-0.00264291
0.00268028
-0.000548042
2.74415e-06
-0.00266757
0.0027243
-0.000637135
2.271e-06
-0.00269419
0.0027864
-0.000763241
1.36857e-06
-0.00270889
0.00283646
-7.48587e-06
-0.00246472
-0.00101366
0.00271427
-0.000434699
-0.00272496
0.00273843
-0.000445543
-0.00275742
0.00277323
-0.000458971
-0.00278803
0.00280635
-0.000476165
-0.00281766
0.0028395
-0.000498998
-0.00284598
0.002873
-0.00053128
-0.00287285
0.00290863
-0.000581569
-0.00289972
0.00295275
-0.000666033
-0.00293131
0.00301804
-0.000787261
-0.00296065
0.00308325
-0.00272225
-0.00103616
0.00296366
1.31658e-05
5.22365e-06
-0.000593858
-9.03288e-06
5.69549e-06
-0.000596055
-3.36101e-05
6.09474e-06
-0.000596988
-6.11866e-05
6.42667e-06
-0.000596457
-9.26829e-05
6.68611e-06
-0.000594023
-0.000128989
6.83977e-06
-0.000588952
-0.000169998
6.81441e-06
-0.000580113
-0.000212446
6.46441e-06
-0.000565874
-0.000246033
5.5309e-06
-0.000542425
3.49113e-06
-0.000500501
-0.00023603
2.3623e-05
7.68647e-06
-0.000835739
3.92772e-06
8.65153e-06
-0.000840119
-1.81109e-05
9.37968e-06
-0.000843043
-4.30778e-05
9.89815e-06
-0.000844067
-7.22798e-05
1.02097e-05
-0.000842761
-0.000107835
1.02874e-05
-0.000838175
-0.000151883
1.00605e-05
-0.000828459
-0.000204333
9.34549e-06
-0.000810527
-0.000257819
7.78605e-06
-0.000778343
4.53344e-06
-0.000713957
-0.000265082
3.3423e-05
8.12263e-06
-0.00107662
1.58966e-05
9.53373e-06
-0.00108333
-4.03404e-06
1.06046e-05
-0.0010885
-2.71103e-05
1.13753e-05
-0.00109175
-5.47527e-05
1.18399e-05
-0.00109261
-8.97709e-05
1.1971e-05
-0.00109019
-0.000136167
1.1697e-05
-0.00108221
-0.000197002
1.07955e-05
-0.00106396
-0.000268774
8.76848e-06
-0.00102653
4.34219e-06
-0.000938864
-0.000296706
4.28477e-05
8.03058e-06
-0.00131429
2.59185e-05
9.77421e-06
-0.0013244
6.43737e-06
1.11157e-05
-0.00133299
-1.63884e-05
1.20916e-05
-0.00133965
-4.39907e-05
1.26797e-05
-0.00134363
-7.9368e-05
1.28296e-05
-0.00134408
-0.000127755
1.24554e-05
-0.00133838
-0.000195354
1.13165e-05
-0.00132066
-0.000283341
8.76886e-06
-0.00127925
3.04061e-06
-0.00116769
-0.000332406
5.0318e-05
7.74248e-06
-0.00155199
3.35662e-05
9.67176e-06
-0.00156589
1.4169e-05
1.11555e-05
-0.00157835
-8.71036e-06
1.22306e-05
-0.00158883
-3.65151e-05
1.28715e-05
-0.00159645
-7.22979e-05
1.29983e-05
-0.00160018
-0.000122158
1.25038e-05
-0.00159725
-0.000195184
1.11406e-05
-0.00158086
-0.000297345
8.10173e-06
-0.00153674
1.04176e-06
-0.0014009
-0.000365983
5.54874e-05
7.31222e-06
-0.00178798
3.88367e-05
9.27713e-06
-0.0018059
1.94943e-05
1.07776e-05
-0.00182226
-3.41751e-06
1.18572e-05
-0.0018366
-3.1349e-05
1.2488e-05
-0.00184795
-6.73877e-05
1.2577e-05
-0.00185506
-0.000118254
1.2005e-05
-0.00185506
-0.000195512
1.05469e-05
-0.00184041
-0.000309571
7.26352e-06
-0.00179432
-8.50084e-07
-0.00163326
-0.000393537
5.83481e-05
6.80596e-06
-0.00202325
4.18403e-05
8.61001e-06
-0.00204485
2.26753e-05
9.9912e-06
-0.00206477
-4.5027e-08
1.09765e-05
-0.00208258
-2.77626e-05
1.15309e-05
-0.00209737
-6.35573e-05
1.15589e-05
-0.00210774
-0.000114616
1.09623e-05
-0.00211085
-0.000194759
9.60252e-06
-0.00209882
-0.000318907
6.51043e-06
-0.0020525
-2.22546e-06
-0.00186709
-0.000416246
5.86211e-05
5.74292e-06
-0.00225859
4.25593e-05
7.18549e-06
-0.00228348
2.38883e-05
8.36296e-06
-0.00230636
1.70551e-06
9.24155e-06
-0.00232713
-2.53781e-05
9.77102e-06
-0.00234488
-6.03654e-05
9.83383e-06
-0.00235811
-0.000110671
9.38109e-06
-0.00236416
-0.000192117
8.40285e-06
-0.00235527
-0.000324675
6.19387e-06
-0.00231065
-2.41392e-06
-0.00210307
-0.000434648
5.68295e-05
3.33865e-06
-0.00249134
4.17809e-05
4.16327e-06
-0.00251855
2.41302e-05
4.94942e-06
-0.00254359
2.79522e-06
5.57471e-06
-0.00256685
-2.37111e-05
6.03265e-06
-0.00258779
-5.81767e-05
6.18996e-06
-0.0026048
-0.000107608
6.05363e-06
-0.00261481
-0.000189184
5.73318e-06
-0.00260995
-0.000328839
5.17822e-06
-0.00256822
-1.57612e-06
-0.00234033
-0.000454062
5.40183e-05
-0.00270988
4.02231e-05
-0.00273946
2.39841e-05
-0.00276684
4.14e-06
-0.00279225
-2.08527e-05
-0.00281495
-5.39062e-05
-0.00283361
-0.000101414
-0.00284616
-0.000181076
-0.00284591
-0.000325832
-0.00281072
-0.0025709
-0.00047875
7.47635e-06
5.14892e-06
-0.000581813
-1.11162e-05
5.56522e-06
-0.000583027
-3.10528e-05
5.87716e-06
-0.000582929
-5.22236e-05
6.08394e-06
-0.00058137
-7.43456e-05
6.16533e-06
-0.000578066
-9.67173e-05
6.0747e-06
-0.000572655
-0.000117829
5.74074e-06
-0.000564742
-0.000134765
5.0699e-06
-0.000554008
-0.000141177
3.95062e-06
-0.000539963
2.29147e-06
-0.00052141
-0.00012256
1.70392e-05
7.72308e-06
-0.000822089
-1.01795e-06
8.61318e-06
-0.000825109
-2.09366e-05
9.24742e-06
-0.000826494
-4.2692e-05
9.63782e-06
-0.000825865
-6.63509e-05
9.76439e-06
-0.000822701
-9.18205e-05
9.56538e-06
-0.000816196
-0.000118255
8.94877e-06
-0.000805232
-0.000143096
7.78076e-06
-0.000788397
-0.000159642
5.89559e-06
-0.000763742
3.13843e-06
-0.000729159
-0.000145287
2.68199e-05
8.37113e-06
-0.00106212
9.7431e-06
9.71404e-06
-0.00106735
-9.49453e-06
1.06995e-05
-0.00107072
-3.12002e-05
1.135e-05
-0.00107175
-5.58127e-05
1.1633e-05
-0.00106986
-8.39705e-05
1.14752e-05
-0.00106395
-0.000115867
1.07537e-05
-0.00105212
-0.000149777
9.26562e-06
-0.00103153
-0.000179093
6.71414e-06
-0.000998031
2.75736e-06
-0.000944916
-0.000172661
3.64292e-05
8.38397e-06
-0.00129949
1.94918e-05
1.00839e-05
-0.00130783
4.76211e-08
1.13639e-05
-0.00131421
-2.23969e-05
1.22479e-05
-0.0013181
-4.8496e-05
1.26793e-05
-0.00131858
-7.93654e-05
1.25598e-05
-0.00131429
-0.000116169
1.17274e-05
-0.00130255
-0.000158554
9.91349e-06
-0.00127892
-0.000201135
6.66855e-06
-0.00123663
1.41416e-06
-0.00116214
-0.000205339
4.44151e-05
8.1457e-06
-0.001537
2.73994e-05
1.00657e-05
-0.00154886
7.65044e-06
1.15248e-05
-0.00155876
-1.54476e-05
1.25481e-05
-0.00156603
-4.27856e-05
1.30711e-05
-0.0015695
-7.58205e-05
1.29648e-05
-0.00156755
-0.00011664
1.20269e-05
-0.00155673
-0.000166571
9.92518e-06
-0.00153094
-0.000222179
6.01836e-06
-0.00148049
-5.97254e-07
-0.00138278
-0.000238291
5.02649e-05
7.7045e-06
-0.00177284
3.32054e-05
9.69586e-06
-0.00178847
1.32777e-05
1.12121e-05
-0.00180202
-1.02336e-05
1.22849e-05
-0.00181282
-3.84191e-05
1.28479e-05
-0.00181954
-7.30374e-05
1.27557e-05
-0.00182024
-0.000117045
1.17805e-05
-0.0018108
-0.000173613
9.55173e-06
-0.00178347
-0.000241818
5.23543e-06
-0.00172534
-2.50771e-06
-0.00160282
-0.000270345
5.38629e-05
7.10286e-06
-0.00200799
3.68873e-05
8.96191e-06
-0.00202714
1.70253e-05
1.0395e-05
-0.00204409
-6.51461e-06
1.14229e-05
-0.00205817
-3.49784e-05
1.19801e-05
-0.00206804
-7.03799e-05
1.19117e-05
-0.0020715
-0.000116492
1.09919e-05
-0.00206395
-0.00017846
8.86515e-06
-0.00203617
-0.000258425
4.56623e-06
-0.00197187
-3.99425e-06
-0.00182446
-0.000299577
5.48006e-05
5.90581e-06
-0.00224307
3.82716e-05
7.40417e-06
-0.00226539
1.89031e-05
8.63203e-06
-0.00228523
-4.1749e-06
9.56487e-06
-0.00230219
-3.22893e-05
1.01449e-05
-0.00231493
-6.76367e-05
1.02049e-05
-0.00232106
-0.000114669
9.56152e-06
-0.0023157
-0.00018051
7.91939e-06
-0.00228848
-0.000271122
4.41324e-06
-0.00221989
-4.36596e-06
-0.00204858
-0.000325238
5.33665e-05
3.47946e-06
-0.0024754
3.78252e-05
4.3296e-06
-0.00249994
1.95314e-05
5.13821e-06
-0.0025218
-2.57535e-06
5.78468e-06
-0.00254096
-3.00705e-05
6.28367e-06
-0.00255644
-6.52842e-05
6.48677e-06
-0.00256587
-0.000112832
6.30648e-06
-0.002564
-0.000181224
5.54278e-06
-0.00253918
-0.000280821
3.79133e-06
-0.002468
-3.36497e-06
-0.00227299
-0.000349163
5.09018e-05
-0.00269404
3.65032e-05
-0.00272073
1.95829e-05
-0.00274478
-1.00229e-06
-0.00276588
-2.68091e-05
-0.00278286
-6.04258e-05
-0.00279351
-0.000106718
-0.00279356
-0.000175246
-0.00277184
-0.000280494
-0.00270168
-0.00248747
-0.000367295
4.4202e-06
4.80286e-06
-0.000573354
-9.72376e-06
5.14812e-06
-0.000574032
-2.44086e-05
5.36563e-06
-0.00057361
-3.92186e-05
5.45621e-06
-0.000572016
-5.35466e-05
5.40097e-06
-0.000569139
-6.64883e-05
5.16512e-06
-0.000564878
-7.66986e-05
4.70583e-06
-0.000559238
-8.2188e-05
3.97848e-06
-0.000552497
-7.98144e-05
2.95173e-06
-0.000545288
1.68542e-06
-0.00053773
-6.51794e-05
1.20595e-05
7.42149e-06
-0.000810867
-3.23346e-06
8.20792e-06
-0.000812876
-1.97492e-05
8.71873e-06
-0.000813331
-3.71303e-05
8.96318e-06
-0.000811991
-5.48413e-05
8.91685e-06
-0.000808505
-7.19598e-05
8.52033e-06
-0.000802432
-8.68925e-05
7.70084e-06
-0.000793294
-9.69622e-05
6.3895e-06
-0.000780738
-9.75999e-05
4.55787e-06
-0.00076471
2.34693e-06
-0.000746147
-8.12727e-05
2.09567e-05
8.33422e-06
-0.00104912
5.29377e-06
9.56424e-06
-0.00105304
-1.20772e-05
1.04177e-05
-0.00105505
-3.10513e-05
1.09028e-05
-0.00105472
-5.14168e-05
1.09803e-05
-0.00105156
-7.26385e-05
1.05662e-05
-0.00104477
-9.33221e-05
9.54433e-06
-0.00103328
-0.000110381
7.77556e-06
-0.00101586
-0.000117533
5.14038e-06
-0.000991462
1.76038e-06
-0.000960347
-0.000101514
3.01477e-05
8.52507e-06
-0.00128555
1.3957e-05
1.01292e-05
-0.0012922
-4.43229e-06
1.12902e-05
-0.0012967
-2.51703e-05
1.20193e-05
-0.00129848
-4.82792e-05
1.2243e-05
-0.00129673
-7.35973e-05
1.18446e-05
-0.00129025
-0.000100102
1.06534e-05
-0.00127716
-0.000124726
8.44624e-06
-0.00125497
-0.00014015
4.97484e-06
-0.00122104
3.18268e-07
-0.00117392
-0.000126925
3.82219e-05
8.3983e-06
-0.00152247
2.15433e-05
1.0253e-05
-0.0015323
2.28786e-06
1.16237e-05
-0.00153984
-1.98681e-05
1.25253e-05
-0.00154438
-4.52179e-05
1.28618e-05
-0.00154477
-7.39919e-05
1.24816e-05
-0.00153941
-0.000105704
1.11536e-05
-0.00152552
-0.000137723
8.5604e-06
-0.00149904
-0.000162365
4.2728e-06
-0.00145514
-1.74664e-06
-0.00138931
-0.000153768
4.44579e-05
7.99603e-06
-0.00175787
2.7468e-05
9.95705e-06
-0.00177118
7.6528e-06
1.14235e-05
-0.00178201
-1.54676e-05
1.2417e-05
-0.0017896
-4.24733e-05
1.28335e-05
-0.0017925
-7.39729e-05
1.24968e-05
-0.00178875
-0.000110132
1.1128e-05
-0.00177462
-0.000149106
8.3255e-06
-0.00174426
-0.000183503
3.45122e-06
-0.00169012
-3.75179e-06
-0.00160322
-0.000181094
4.86145e-05
7.34957e-06
-0.00199269
3.15497e-05
9.20758e-06
-0.00200932
1.15606e-05
1.06242e-05
-0.0020233
-1.19667e-05
1.16152e-05
-0.00203384
-3.9881e-05
1.2082e-05
-0.00203938
-7.31656e-05
1.18302e-05
-0.00203755
-0.000112731
1.05575e-05
-0.00202381
-0.000157871
7.81146e-06
-0.00199051
-0.000202211
2.75623e-06
-0.00192683
-5.4023e-06
-0.00181771
-0.000207303
5.01542e-05
6.06095e-06
-0.0022274
3.34576e-05
7.57074e-06
-0.00224706
1.38466e-05
8.78737e-06
-0.00226378
-9.42663e-06
9.69319e-06
-0.002277
-3.74204e-05
1.02119e-05
-0.00228506
-7.14587e-05
1.01484e-05
-0.00228534
-0.000113223
9.23446e-06
-0.00227261
-0.000163431
7.01497e-06
-0.00223748
-0.000217651
2.62003e-06
-0.00216553
-5.91053e-06
-0.00203394
-0.000231785
4.93036e-05
3.60597e-06
-0.00245924
3.35219e-05
4.46566e-06
-0.00248105
1.49418e-05
5.26734e-06
-0.0024997
-7.35402e-06
5.88769e-06
-0.00251486
-3.47677e-05
6.33736e-06
-0.00252515
-6.90069e-05
6.46119e-06
-0.00252794
-0.000112334
6.12392e-06
-0.00251757
-0.0001667
4.96198e-06
-0.00248276
-0.000230111
2.37711e-06
-0.00240434
-4.66873e-06
-0.00224967
-0.00025468
4.73277e-05
-0.00267772
3.25978e-05
-0.00270153
1.53275e-05
-0.00272224
-5.48933e-06
-0.00273917
-3.12214e-05
-0.00275079
-6.38369e-05
-0.00275443
-0.000106361
-0.00274491
-0.000162399
-0.00271084
-0.000232383
-0.00262932
-0.00245379
-0.000270732
2.83695e-06
4.27935e-06
-0.000568099
-7.23052e-06
4.55402e-06
-0.000568518
-1.74215e-05
4.69477e-06
-0.000568113
-2.72745e-05
4.70505e-06
-0.000566868
-3.62221e-05
4.57458e-06
-0.000564766
-4.35645e-05
4.28619e-06
-0.000561822
-4.84677e-05
3.82451e-06
-0.000558159
-4.99699e-05
3.17938e-06
-0.000554174
-4.6853e-05
2.35379e-06
-0.000550759
1.41027e-06
-0.000548533
-3.74603e-05
8.49589e-06
6.85041e-06
-0.000802358
-3.66173e-06
7.52032e-06
-0.000803685
-1.65067e-05
7.90865e-06
-0.0008037
-2.95434e-05
8.02639e-06
-0.000802276
-4.20881e-05
7.85641e-06
-0.000799243
-5.31624e-05
7.35962e-06
-0.000794431
-6.14041e-05
6.49896e-06
-0.000787727
-6.50342e-05
5.26157e-06
-0.00077919
-6.18608e-05
3.69563e-06
-0.000769225
1.99876e-06
-0.000758873
-4.9723e-05
1.61146e-05
8.00771e-06
-0.00103814
2.50358e-06
9.09585e-06
-0.00104101
-1.23241e-05
9.7986e-06
-0.00104211
-2.79838e-05
1.01168e-05
-0.00104115
-4.39075e-05
1.00152e-05
-0.00103779
-5.91448e-05
9.42282e-06
-0.0010316
-7.20902e-05
8.26154e-06
-0.00102209
-8.01736e-05
6.47201e-06
-0.00100899
-7.95409e-05
4.0649e-06
-0.000992464
1.30476e-06
-0.000973989
-6.52046e-05
2.44638e-05
8.40625e-06
-0.00127303
9.67027e-06
9.87523e-06
-0.00127819
-6.90474e-06
1.08848e-05
-0.00128121
-2.50819e-05
1.14349e-05
-0.00128162
-4.44389e-05
1.14501e-05
-0.00127881
-6.4145e-05
1.08199e-05
-0.00127194
-8.24861e-05
9.40826e-06
-0.00125996
-9.62384e-05
7.08224e-06
-0.00124182
-9.99243e-05
3.77152e-06
-0.00121706
-1.86563e-07
-0.0011874
-8.49496e-05
3.22443e-05
8.43069e-06
-0.00150892
1.64918e-05
1.01741e-05
-0.00151685
-1.50966e-06
1.14134e-05
-0.00152237
-2.17798e-05
1.21517e-05
-0.00152483
-4.40999e-05
1.22781e-05
-0.00152328
-6.78849e-05
1.16396e-05
-0.00151645
-9.15195e-05
1.00295e-05
-0.00150251
-0.000111396
7.21643e-06
-0.0014793
-0.000120632
2.98887e-06
-0.00144512
-2.29616e-06
-0.00140148
-0.000106353
3.85674e-05
8.10891e-06
-0.00174353
2.21698e-05
9.99187e-06
-0.0017546
3.1684e-06
1.1359e-05
-0.00176295
-1.86368e-05
1.2221e-05
-0.00176786
-4.32947e-05
1.24478e-05
-0.00176802
-7.05329e-05
1.18534e-05
-0.00176173
-9.90286e-05
1.01643e-05
-0.00174626
-0.000125113
7.04402e-06
-0.001718
-0.000140886
2.09504e-06
-0.00167345
-4.38233e-06
-0.00161318
-0.000128842
4.30741e-05
7.46396e-06
-0.00197777
2.63703e-05
9.27699e-06
-0.0019919
6.87653e-06
1.06272e-05
-0.00200308
-1.57828e-05
1.15233e-05
-0.00201049
-4.1962e-05
1.18388e-05
-0.00201259
-7.1752e-05
1.13616e-05
-0.00200727
-0.000104309
9.76972e-06
-0.00199086
-0.000136274
6.63107e-06
-0.00195814
-0.000159271
1.33465e-06
-0.00190308
-6.14688e-06
-0.00182437
-0.000150847
4.51025e-05
6.11986e-06
-0.00221191
2.86178e-05
7.61135e-06
-0.00222891
9.29643e-06
8.7797e-06
-0.00224261
-1.34154e-05
9.61057e-06
-0.00225237
-4.01554e-05
1.00042e-05
-0.00225649
-7.14049e-05
9.75262e-06
-0.00225248
-0.00010695
8.5503e-06
-0.00223585
-0.00014413
5.91015e-06
-0.00219958
-0.000174892
1.12128e-06
-0.00213456
-6.76816e-06
-0.00203635
-0.000171858
4.48542e-05
3.66596e-06
-0.00244319
2.91565e-05
4.52292e-06
-0.00246227
1.07303e-05
5.30105e-06
-0.0024778
-1.11323e-05
5.87338e-06
-0.00248926
-3.74483e-05
6.23686e-06
-0.00249506
-6.92061e-05
6.22961e-06
-0.00249266
-0.000106927
5.68294e-06
-0.00247698
-0.000148803
4.18223e-06
-0.00243916
-0.000187526
1.17216e-06
-0.00236567
-5.34525e-06
-0.00224697
-0.000191641
4.33493e-05
-0.00266132
2.85983e-05
-0.00268226
1.137e-05
-0.00269971
-9.15538e-06
-0.00271277
-3.39992e-05
-0.00271971
-6.44021e-05
-0.0027178
-0.000101659
-0.00270197
-0.000145626
-0.00266269
-0.000190347
-0.00258342
-0.0024453
-0.000204182
2.04154e-06
3.6722e-06
-0.000565289
-4.76765e-06
3.886e-06
-0.000565595
-1.15407e-05
3.97413e-06
-0.000565314
-1.78931e-05
3.94192e-06
-0.000564457
-2.34027e-05
3.78739e-06
-0.000563044
-2.76135e-05
3.50669e-06
-0.000561118
-3.00669e-05
3.10176e-06
-0.000558807
-3.03481e-05
2.57857e-06
-0.000556471
-2.80463e-05
1.94578e-06
-0.000555006
1.23478e-06
-0.000555424
-2.23896e-05
6.01747e-06
6.10169e-06
-0.000796388
-3.15046e-06
6.65648e-06
-0.000797287
-1.26525e-05
6.94033e-06
-0.000797164
-2.19938e-05
6.96754e-06
-0.00079596
-3.05631e-05
6.73188e-06
-0.000793618
-3.75931e-05
6.21646e-06
-0.000790111
-4.21553e-05
5.4147e-06
-0.000785478
-4.3236e-05
4.34723e-06
-0.000779878
-3.9928e-05
3.08836e-06
-0.000773676
1.81135e-06
-0.000767542
-3.18358e-05
1.22768e-05
7.43808e-06
-0.00102939
1.01425e-06
8.37068e-06
-0.00103146
-1.10488e-05
8.92495e-06
-0.00103203
-2.34103e-05
9.10106e-06
-0.00103092
-3.53989e-05
8.87396e-06
-0.00102795
-4.60599e-05
8.19545e-06
-0.00102291
-5.40684e-05
7.02835e-06
-0.0010157
-5.77013e-05
5.37396e-06
-0.00100638
-5.49553e-05
3.31285e-06
-0.000995434
1.11314e-06
-0.000984036
-4.42097e-05
1.95425e-05
8.03741e-06
-0.00126231
6.59819e-06
9.34446e-06
-0.00126622
-7.6993e-06
1.01897e-05
-0.00126817
-2.2951e-05
1.05659e-05
-0.00126783
-3.85062e-05
1.04082e-05
-0.00126479
-5.33205e-05
9.62741e-06
-0.00125856
-6.57222e-05
8.13672e-06
-0.00124867
-7.32006e-05
5.88912e-06
-0.00123486
-7.23836e-05
2.93533e-06
-0.0012175
-3.35349e-07
-0.00119848
-5.98634e-05
2.67308e-05
8.23014e-06
-0.00149675
1.23993e-05
9.82529e-06
-0.001503
-3.77644e-06
1.09063e-05
-0.00150691
-2.1559e-05
1.14654e-05
-0.00150794
-4.04038e-05
1.13947e-05
-0.00150542
-5.93149e-05
1.05578e-05
-0.00149847
-7.64216e-05
8.7991e-06
-0.00148606
-8.85049e-05
5.98999e-06
-0.00146731
-9.06872e-05
2.09438e-06
-0.0014421
-2.40478e-06
-0.00141299
-7.71015e-05
3.28661e-05
8.01919e-06
-0.00173024
1.75472e-05
9.78232e-06
-0.00173924
-3.26618e-08
1.10132e-05
-0.00174548
-1.98075e-05
1.17117e-05
-0.00174833
-4.14102e-05
1.17394e-05
-0.00174676
-6.402e-05
1.09205e-05
-0.00173948
-8.57463e-05
9.02477e-06
-0.00172475
-0.000102853
5.82239e-06
-0.00170073
-0.000109026
1.13906e-06
-0.00166632
-4.49329e-06
-0.00162465
-9.547e-05
3.75042e-05
7.41919e-06
-0.00196361
2.16132e-05
9.14781e-06
-0.00197538
3.20348e-06
1.0392e-05
-0.00198405
-1.78432e-05
1.11525e-05
-0.00198888
-4.14284e-05
1.12876e-05
-0.00198855
-6.69992e-05
1.05892e-05
-0.00198136
-9.2854e-05
8.76086e-06
-0.00196474
-0.000115015
5.45899e-06
-0.00193561
-0.000125961
3.17693e-07
-0.00189131
-6.2867e-06
-0.00183508
-0.000113464
3.98695e-05
6.0621e-06
-0.00219698
2.39969e-05
7.507e-06
-0.0022114
5.49951e-06
8.59737e-06
-0.00222232
-1.59396e-05
9.31956e-06
-0.0022291
-4.05136e-05
9.55529e-06
-0.00223018
-6.8018e-05
9.09899e-06
-0.00222349
-9.71503e-05
7.65049e-06
-0.00220561
-0.000124049
4.77502e-06
-0.00217199
-0.000140514
-6.8684e-09
-0.00211777
-6.98399e-06
-0.00204556
-0.000130606
4.01527e-05
3.6508e-06
-0.00242759
2.48886e-05
4.48971e-06
-0.00244398
7.07234e-06
5.22766e-06
-0.00245661
-1.37536e-05
5.73356e-06
-0.00246485
-3.81449e-05
5.98928e-06
-0.00246711
-6.63976e-05
5.83242e-06
-0.00246114
-9.78829e-05
5.08516e-06
-0.00244293
-0.000129212
3.3528e-06
-0.0024064
-0.000151791
2.33836e-07
-0.00234333
-5.46777e-06
-0.00225416
-0.000146124
3.90714e-05
-0.00264521
2.46286e-05
-0.00266333
7.85433e-06
-0.00267771
-1.18486e-05
-0.00268734
-3.50918e-05
-0.00269048
-6.2421e-05
-0.00268464
-9.38053e-05
-0.0026655
-0.000127083
-0.00262606
-0.000154264
-0.00255601
-0.00245044
-0.000154588
1.59159e-06
3.05988e-06
-0.000564116
-2.85395e-06
3.22527e-06
-0.000564374
-7.2347e-06
3.282e-06
-0.000564215
-1.12689e-05
3.23621e-06
-0.000563659
-1.46721e-05
3.09137e-06
-0.000562732
-1.7167e-05
2.85102e-06
-0.000561474
-1.85132e-05
2.52503e-06
-0.000559986
-1.85451e-05
2.12378e-06
-0.000558563
-1.71438e-05
1.65029e-06
-0.000558058
1.10141e-06
-0.000559825
-1.38438e-05
4.28604e-06
5.26941e-06
-0.000792513
-2.34045e-06
5.71962e-06
-0.000793155
-9.10915e-06
5.92354e-06
-0.000793037
-1.55951e-05
5.89808e-06
-0.000792136
-2.13214e-05
5.64635e-06
-0.000790446
-2.5755e-05
5.16764e-06
-0.000787994
-2.83278e-05
4.47433e-06
-0.000784854
-2.85112e-05
3.60176e-06
-0.000781172
-2.59696e-05
2.62388e-06
-0.000777191
1.67209e-06
-0.000773278
-2.08037e-05
9.28816e-06
6.69784e-06
-0.00102279
3.63269e-07
7.47502e-06
-0.00102429
-9.05748e-06
7.89707e-06
-0.00102458
-1.84742e-05
7.96745e-06
-0.00102357
-2.72666e-05
7.67312e-06
-0.00102118
-3.46469e-05
6.98895e-06
-0.00101735
-3.96607e-05
5.90885e-06
-0.00101212
-4.12587e-05
4.4684e-06
-0.00100565
-3.84833e-05
2.77144e-06
-0.000998357
1.04252e-06
-0.000990975
-3.09146e-05
1.53901e-05
7.4608e-06
-0.00125353
4.51159e-06
8.59287e-06
-0.00125646
-7.34369e-06
9.27655e-06
-0.0012577
-1.96807e-05
9.50367e-06
-0.00125703
-3.17975e-05
9.22602e-06
-0.00125423
-4.27003e-05
8.38255e-06
-0.00124905
-5.10283e-05
6.93191e-06
-0.00124137
-5.50622e-05
4.88789e-06
-0.00123125
-5.29343e-05
2.36385e-06
-0.00121922
-2.8621e-07
-0.00120664
-4.344e-05
2.17911e-05
7.81481e-06
-0.00148624
9.21776e-06
9.23579e-06
-0.00149107
-4.79437e-06
1.01473e-05
-0.00149377
-1.98381e-05
1.05341e-05
-0.00149393
-3.52203e-05
1.03045e-05
-0.00149111
-4.98452e-05
9.35074e-06
-0.00148481
-6.20089e-05
7.57362e-06
-0.00147454
-6.92652e-05
4.93118e-06
-0.0014601
-6.85583e-05
1.50108e-06
-0.00144194
-2.24234e-06
-0.00142221
-5.73898e-05
2.75134e-05
7.72898e-06
-0.00171832
1.36575e-05
9.3387e-06
-0.00172549
-2.05825e-06
1.04104e-05
-0.00173003
-1.93621e-05
1.09347e-05
-0.00173143
-3.76444e-05
1.0783e-05
-0.00172895
-5.58288e-05
9.80469e-06
-0.00172175
-7.19926e-05
7.83007e-06
-0.00170885
-8.3026e-05
4.735e-06
-0.0016895
-8.45597e-05
5.14975e-07
-0.0016638
-4.25365e-06
-0.00163479
-7.24076e-05
3.20788e-05
7.20858e-06
-0.00195058
1.73954e-05
8.81824e-06
-0.00196017
5.50397e-07
9.928e-06
-0.00196672
-1.83433e-05
1.05307e-05
-0.00196958
-3.88602e-05
1.0486e-05
-0.00196774
-6.00732e-05
9.60741e-06
-0.00195995
-8.00167e-05
7.65384e-06
-0.00194462
-9.50722e-05
4.39105e-06
-0.00192021
-9.95348e-05
-3.35875e-07
-0.00188599
-5.98832e-06
-0.00184584
-8.70312e-05
3.46184e-05
5.87839e-06
-0.00218295
1.97309e-05
7.24926e-06
-0.00219494
2.52679e-06
8.23815e-06
-0.00220343
-1.70709e-05
8.831e-06
-0.0022078
-3.88824e-05
8.90152e-06
-0.00220678
-6.22375e-05
8.2622e-06
-0.00219879
-8.53444e-05
6.65225e-06
-0.0021815
-0.000104344
3.73167e-06
-0.00215234
-0.000112465
-7.53702e-07
-0.00210923
-6.71588e-06
-0.00205653
-0.00010077
3.53284e-05
3.55495e-06
-0.00241277
2.08403e-05
4.35843e-06
-0.00242661
4.05707e-06
5.04057e-06
-0.00243663
-1.52213e-05
5.46649e-06
-0.00244221
-3.71209e-05
5.60714e-06
-0.00244191
-6.13755e-05
5.30831e-06
-0.00243393
-8.66865e-05
4.40748e-06
-0.00241537
-0.000109383
2.57551e-06
-0.00238255
-0.000121821
-4.12549e-07
-0.00233124
-5.20498e-06
-0.0022652
-0.00011229
3.46089e-05
-0.00262977
2.08007e-05
-0.00264516
4.87658e-06
-0.00265675
-1.35248e-05
-0.00266347
-3.46234e-05
-0.00266377
-5.83935e-05
-0.00265556
-8.39454e-05
-0.00263554
-0.000108324
-0.00259911
-0.000123982
-0.00254076
-0.00246177
-0.000117856
1.28439e-06
2.49415e-06
-0.000563924
-1.55215e-06
2.62247e-06
-0.00056416
-4.34266e-06
2.66244e-06
-0.000564087
-6.89396e-06
2.61986e-06
-0.000563727
-9.02301e-06
2.50101e-06
-0.000563104
-1.05643e-05
2.31246e-06
-0.000562245
-1.1392e-05
2.06621e-06
-0.000561224
-1.14438e-05
1.77144e-06
-0.000560283
-1.06984e-05
1.4229e-06
-0.000560226
9.87209e-07
-0.000562686
-8.82487e-06
3.05758e-06
4.43242e-06
-0.000790209
-1.56914e-06
4.79257e-06
-0.000790698
-6.25203e-06
4.93965e-06
-0.000790631
-1.06581e-05
4.89147e-06
-0.000790001
-1.44402e-05
4.65732e-06
-0.00078882
-1.72445e-05
4.24573e-06
-0.000787123
-1.87347e-05
3.67749e-06
-0.000784975
-1.86454e-05
2.99018e-06
-0.00078248
-1.68776e-05
2.2473e-06
-0.000779783
1.54349e-06
-0.000777067
-1.3645e-05
6.97988e-06
5.86643e-06
-0.00101808
1.5988e-07
6.49832e-06
-0.00101918
-6.95111e-06
6.81098e-06
-0.00101934
-1.3916e-05
6.81179e-06
-0.00101853
-2.02286e-05
6.49849e-06
-0.00101671
-2.53035e-05
5.86421e-06
-0.0010139
-2.85025e-05
4.92233e-06
-0.00101016
-2.92128e-05
3.72198e-06
-0.00100567
-2.69862e-05
2.36317e-06
-0.0010007
1.01877e-06
-0.000995664
-2.17725e-05
1.19531e-05
6.73656e-06
-0.00124666
3.13743e-06
7.69318e-06
-0.00124884
-6.3528e-06
8.22952e-06
-0.00124963
-1.60171e-05
8.34079e-06
-0.00124889
-2.52114e-05
7.99688e-06
-0.00124653
-3.31111e-05
7.16439e-06
-0.00124245
-3.87126e-05
5.83688e-06
-0.00123668
-4.09119e-05
4.06261e-06
-0.00122939
-3.872e-05
1.97352e-06
-0.00122102
-1.39331e-07
-0.00121242
-3.1779e-05
1.74696e-05
7.2233e-06
-0.00147749
6.80713e-06
8.45695e-06
-0.00148117
-4.92698e-06
9.2012e-06
-0.001483
-1.72472e-05
9.43829e-06
-0.00148271
-2.9444e-05
9.09904e-06
-0.00148002
-4.05108e-05
8.10918e-06
-0.00147469
-4.90733e-05
6.41995e-06
-0.00146656
-5.34184e-05
4.04921e-06
-0.00145574
-5.17432e-05
1.13026e-06
-0.00144278
-1.92701e-06
-0.00142912
-4.30428e-05
2.26203e-05
7.25875e-06
-0.00170797
1.04777e-05
8.69175e-06
-0.00171358
-3.12864e-06
9.59556e-06
-0.00171682
-1.77877e-05
9.95452e-06
-0.00171729
-3.27922e-05
9.66133e-06
-0.00171451
-4.70424e-05
8.60071e-06
-0.00170799
-5.88549e-05
6.66533e-06
-0.00169728
-6.58859e-05
3.81585e-06
-0.00168223
-6.53344e-05
1.52318e-07
-0.00166337
-3.79658e-06
-0.00164297
-5.52851e-05
2.69402e-05
6.83945e-06
-0.00193893
1.37608e-05
8.30263e-06
-0.00194661
-1.18764e-06
9.26199e-06
-0.00195144
-1.76146e-05
9.70365e-06
-0.00195291
-3.49106e-05
9.50226e-06
-0.00195028
-5.20054e-05
8.50606e-06
-0.00194276
-6.70315e-05
6.54199e-06
-0.00192947
-7.70718e-05
3.47913e-06
-0.00190984
-7.81736e-05
-6.88238e-07
-0.00188405
-5.40215e-06
-0.00185531
-6.70988e-05
2.94995e-05
5.56789e-06
-0.0021701
1.59071e-05
6.84001e-06
-0.00217988
3.56959e-07
7.71163e-06
-0.00218633
-1.70165e-05
8.16867e-06
-0.0021889
-3.57719e-05
8.0884e-06
-0.00218662
-5.49912e-05
7.31322e-06
-0.00217837
-7.28091e-05
5.64291e-06
-0.00216278
-8.59092e-05
2.84408e-06
-0.0021386
-8.92885e-05
-1.15968e-06
-0.00210538
-6.11132e-06
-0.00206707
-7.80338e-05
3.05189e-05
3.37761e-06
-0.00239902
1.71126e-05
4.12824e-06
-0.00241049
1.71909e-06
4.74178e-06
-0.00241827
-1.56293e-05
5.08106e-06
-0.00242177
-3.47242e-05
5.11266e-06
-0.00241984