/*--------------------------------*- C++ -*----------------------------------*\
| =========                 |                                                 |
| \\      /  F ield         | foam-extend: Open Source CFD                    |
|  \\    /   O peration     | Version:     4.0                                |
|   \\  /    A nd           | Web:         http://www.foam-extend.org         |
|    \\/     M anipulation  |                                                 |
\*---------------------------------------------------------------------------*/
FoamFile
{
    version     2.0;
    format      ascii;
    class       volScalarField;
    location    "800";
    object      rho;
}
// * * * * * * * * * * * * * * * * * * * * * * * * * * * * * * * * * * * * * //

dimensions      [1 -3 0 0 0 0 0];

internalField   nonuniform List<scalar> 
34480
(
1.3538
1.35233
1.35171
1.35234
1.35479
1.35971
1.36773
1.377
1.37998
1.39854
1.34835
1.3455
1.34319
1.34174
1.3418
1.34432
1.35057
1.36031
1.36394
1.37803
1.34434
1.34024
1.33654
1.33336
1.33118
1.33112
1.33487
1.34322
1.34537
1.35196
1.3416
1.33627
1.33132
1.32666
1.32255
1.32008
1.32124
1.32754
1.32744
1.32572
1.33981
1.33347
1.32762
1.32185
1.31632
1.3119
1.31077
1.31489
1.31229
1.30259
1.33927
1.33228
1.3258
1.31929
1.31277
1.30692
1.30398
1.30607
1.30103
1.28485
1.33752
1.33007
1.3233
1.31641
1.30941
1.30272
1.29852
1.29881
1.29137
1.26932
1.33774
1.33024
1.32343
1.31658
1.3096
1.30275
1.29793
1.29677
1.2869
1.25863
1.33475
1.3273
1.32062
1.31423
1.30809
1.30213
1.29756
1.29535
1.28306
1.24859
1.33224
1.32461
1.31773
1.31134
1.30568
1.30081
1.29748
1.296
1.28297
1.24236
1.36946
1.36837
1.36813
1.36902
1.3714
1.37568
1.38258
1.39304
1.40811
1.42904
1.36191
1.3597
1.35823
1.35769
1.35861
1.36171
1.36808
1.37915
1.39688
1.42643
1.3565
1.35312
1.3504
1.34843
1.34761
1.34885
1.35363
1.36406
1.38244
1.41749
1.35286
1.34822
1.34422
1.34083
1.33831
1.33754
1.34024
1.34916
1.36715
1.40593
1.35069
1.34495
1.33987
1.3353
1.33135
1.32877
1.32936
1.33636
1.35317
1.39395
1.34998
1.34342
1.33752
1.33203
1.32695
1.32287
1.32157
1.32647
1.34145
1.38217
1.34829
1.34109
1.33463
1.32851
1.32268
1.31752
1.31471
1.31755
1.33029
1.36948
1.34857
1.34108
1.3343
1.32788
1.3217
1.31595
1.31208
1.31302
1.32309
1.35956
1.34593
1.33826
1.33128
1.32479
1.31875
1.3132
1.30905
1.30856
1.31574
1.35041
1.34321
1.33546
1.32828
1.32163
1.3156
1.31039
1.30671
1.30629
1.31172
1.34744
1.38067
1.38024
1.38067
1.38216
1.3849
1.38907
1.39488
1.40248
1.41203
1.42305
1.3723
1.37104
1.37064
1.37133
1.37344
1.37737
1.38367
1.39291
1.40571
1.42278
1.36559
1.36336
1.36197
1.36159
1.36264
1.3657
1.37165
1.38161
1.39686
1.41949
1.36072
1.35737
1.35488
1.35334
1.35313
1.35499
1.36
1.36987
1.3867
1.41438
1.35757
1.35318
1.34969
1.3471
1.34572
1.34633
1.35018
1.35944
1.37714
1.40902
1.35604
1.35082
1.34651
1.34306
1.34068
1.34015
1.34281
1.35115
1.36915
1.40431
1.35377
1.34787
1.34295
1.33884
1.33573
1.33428
1.33588
1.34314
1.36092
1.39826
1.35369
1.34739
1.34204
1.33751
1.33391
1.33182
1.33253
1.33862
1.35553
1.39386
1.35131
1.34471
1.339
1.33414
1.33029
1.32797
1.32829
1.33349
1.34891
1.38844
1.34856
1.34186
1.33591
1.3308
1.3267
1.3242
1.32444
1.32959
1.34365
1.38529
1.38742
1.38724
1.3877
1.38892
1.39095
1.39382
1.39758
1.40221
1.40756
1.41279
1.37993
1.37917
1.37918
1.38011
1.38215
1.38546
1.39022
1.39657
1.40446
1.41297
1.37313
1.3716
1.37088
1.37114
1.37266
1.37581
1.38106
1.38887
1.39956
1.41214
1.36783
1.36535
1.36375
1.36315
1.36389
1.36652
1.37172
1.38041
1.39354
1.41042
1.36421
1.36079
1.35833
1.35688
1.35677
1.35868
1.3635
1.3726
1.38772
1.40878
1.3622
1.35798
1.35476
1.35255
1.35165
1.3528
1.35708
1.36622
1.38289
1.40775
1.35959
1.35469
1.35085
1.34802
1.34648
1.34694
1.35064
1.35956
1.37733
1.40549
1.35923
1.35389
1.34958
1.34629
1.34426
1.34417
1.34729
1.35575
1.374
1.40482
1.35682
1.35116
1.34648
1.34283
1.34045
1.34005
1.34285
1.3509
1.36893
1.40248
1.35395
1.34817
1.34327
1.33939
1.33678
1.33614
1.33869
1.34654
1.36398
1.40049
1.39119
1.39112
1.39149
1.39233
1.39366
1.39546
1.39769
1.40033
1.40333
1.40636
1.38527
1.38483
1.38498
1.38585
1.38749
1.38992
1.39315
1.3971
1.4016
1.40606
1.37905
1.37802
1.37771
1.37821
1.37972
1.38239
1.38639
1.3918
1.39851
1.40559
1.3738
1.37201
1.37103
1.37099
1.37213
1.37476
1.37924
1.38588
1.39485
1.40501
1.37004
1.36743
1.36575
1.36508
1.3657
1.36808
1.37274
1.38031
1.39144
1.40485
1.36776
1.36443
1.36209
1.3608
1.36087
1.36287
1.36752
1.37576
1.38886
1.40557
1.36496
1.36097
1.35806
1.35623
1.3558
1.35739
1.3619
1.37057
1.38538
1.40528
1.36442
1.35998
1.3566
1.35434
1.35349
1.35469
1.35897
1.36779
1.38384
1.40667
1.36202
1.35725
1.35352
1.3509
1.34972
1.35067
1.3548
1.36368
1.38035
1.40616
1.35911
1.35421
1.35026
1.34745
1.34604
1.34676
1.35068
1.35949
1.37615
1.40494
1.39296
1.39293
1.39316
1.39367
1.39446
1.39549
1.39674
1.39819
1.39992
1.40191
1.38875
1.38848
1.38864
1.38929
1.39045
1.39208
1.39415
1.39652
1.39905
1.40141
1.38349
1.3828
1.38269
1.38321
1.38447
1.38649
1.38931
1.39284
1.3969
1.40089
1.37865
1.37738
1.3768
1.37702
1.37819
1.38046
1.38394
1.38867
1.39452
1.40062
1.37504
1.37309
1.37197
1.37176
1.37269
1.37501
1.37898
1.3848
1.39252
1.40101
1.37272
1.37012
1.36845
1.36779
1.3684
1.37064
1.37494
1.38169
1.39129
1.40236
1.36986
1.36666
1.3645
1.3634
1.36366
1.36576
1.37024
1.37776
1.38915
1.40288
1.36924
1.36561
1.36302
1.36155
1.3615
1.36339
1.36793
1.37598
1.38888
1.40521
1.36686
1.36291
1.36
1.35822
1.3579
1.35962
1.3642
1.37266
1.38661
1.40558
1.36397
1.35988
1.35678
1.35482
1.35431
1.35586
1.36033
1.36888
1.38323
1.40465
1.39354
1.39353
1.39366
1.39395
1.39438
1.39495
1.39563
1.39643
1.39749
1.399
1.39085
1.39069
1.39081
1.39124
1.39199
1.39302
1.39428
1.39568
1.39712
1.39841
1.38669
1.38623
1.3862
1.38664
1.38758
1.38902
1.39092
1.39318
1.39562
1.39792
1.38246
1.38157
1.38123
1.38153
1.38255
1.38434
1.38691
1.39017
1.39392
1.39763
1.37921
1.37776
1.37703
1.37708
1.37804
1.38006
1.38321
1.38748
1.39271
1.39811
1.377
1.37502
1.37385
1.37359
1.37442
1.37656
1.3802
1.38543
1.39223
1.39956
1.37421
1.37169
1.37012
1.36953
1.37017
1.37235
1.37637
1.38247
1.39086
1.40028
1.37361
1.3707
1.36876
1.36787
1.3683
1.37044
1.37472
1.38153
1.39137
1.40289
1.37127
1.36806
1.36585
1.36471
1.36495
1.36702
1.37147
1.37887
1.38988
1.40354
1.36847
1.36512
1.36273
1.36144
1.36154
1.36351
1.36795
1.37557
1.38715
1.40268
1.3935
1.3935
1.39357
1.39372
1.39395
1.39425
1.39461
1.39506
1.39577
1.39703
1.392
1.3919
1.39197
1.39224
1.3927
1.39331
1.39406
1.39486
1.39568
1.39639
1.38891
1.3886
1.3886
1.38892
1.38958
1.39055
1.3918
1.39322
1.3947
1.39604
1.38536
1.38474
1.38454
1.38483
1.38563
1.38696
1.38878
1.39097
1.39338
1.39567
1.38258
1.38153
1.38105
1.3812
1.38206
1.38369
1.38607
1.38912
1.39263
1.3961
1.3806
1.37912
1.37832
1.37828
1.37913
1.38098
1.38389
1.38781
1.39255
1.39741
1.37798
1.37604
1.37492
1.37466
1.37544
1.37744
1.38081
1.38556
1.39161
1.39803
1.37747
1.37519
1.37377
1.37329
1.37396
1.37605
1.37977
1.38526
1.39255
1.40058
1.37521
1.37265
1.371
1.37033
1.37089
1.37299
1.37697
1.38308
1.39146
1.40114
1.37255
1.36986
1.36806
1.36728
1.36774
1.36981
1.37385
1.38024
1.3892
1.40024
1.3932
1.3932
1.39323
1.39331
1.39343
1.39358
1.39377
1.39403
1.39454
1.39569
1.39254
1.39248
1.39252
1.39268
1.39294
1.3933
1.39372
1.39418
1.39464
1.39503
1.3904
1.39019
1.39019
1.39041
1.39084
1.39147
1.39226
1.39314
1.39404
1.39484
1.3875
1.38708
1.38696
1.38718
1.38777
1.38871
1.38995
1.39141
1.39295
1.39438
1.38523
1.38448
1.38417
1.38435
1.38504
1.38628
1.38801
1.39014
1.39249
1.39473
1.38356
1.38247
1.38193
1.382
1.38276
1.38425
1.38647
1.38933
1.39261
1.39585
1.38116
1.3797
1.37892
1.37885
1.37961
1.38132
1.384
1.38759
1.39188
1.39626
1.38082
1.37907
1.37805
1.37783
1.37858
1.38043
1.38349
1.38775
1.39304
1.39861
1.37864
1.37664
1.37544
1.3751
1.37579
1.37772
1.38107
1.38589
1.39208
1.39887
1.37618
1.37406
1.37274
1.37231
1.37295
1.3749
1.37835
1.38347
1.39017
1.39791
1.39283
1.39283
1.39285
1.39288
1.39294
1.39302
1.39312
1.39327
1.39367
1.39477
1.39272
1.39268
1.39271
1.39279
1.39294
1.39314
1.39338
1.39364
1.39389
1.3941
1.39136
1.39122
1.39122
1.39136
1.39163
1.39202
1.39251
1.39304
1.39358
1.39405
1.38903
1.38874
1.38867
1.38884
1.38924
1.38988
1.3907
1.39165
1.39263
1.39352
1.38727
1.38675
1.38655
1.3867
1.38723
1.38812
1.38933
1.39078
1.39234
1.39379
1.38593
1.38515
1.38478
1.38489
1.38551
1.38665
1.38828
1.39031
1.39255
1.39471
1.38378
1.3827
1.38216
1.3822
1.38287
1.38424
1.38628
1.38891
1.39192
1.39489
1.38364
1.38234
1.38162
1.38157
1.38227
1.38381
1.38621
1.38941
1.39318
1.39701
1.38156
1.38004
1.37919
1.37904
1.37975
1.3814
1.38408
1.38775
1.39222
1.39691
1.37935
1.37772
1.37677
1.37657
1.37725
1.37895
1.38176
1.3857
1.39058
1.39595
1.39249
1.39249
1.3925
1.39252
1.39255
1.39259
1.39264
1.39274
1.39307
1.39413
1.39271
1.39269
1.3927
1.39275
1.39283
1.39294
1.39307
1.39321
1.39335
1.39346
1.39196
1.39187
1.39187
1.39195
1.39212
1.39236
1.39265
1.39297
1.39328
1.39355
1.39009
1.3899
1.38985
1.38997
1.39024
1.39065
1.39119
1.39179
1.3924
1.39295
1.3888
1.38844
1.38831
1.38844
1.38881
1.38943
1.39026
1.39123
1.39224
1.39317
1.38777
1.38722
1.38699
1.38709
1.38757
1.3884
1.38956
1.39096
1.39247
1.39389
1.38588
1.38511
1.38474
1.38482
1.38537
1.38641
1.38791
1.38978
1.39185
1.39385
1.38599
1.38503
1.38454
1.38457
1.38517
1.38639
1.3882
1.39052
1.39317
1.39576
1.38399
1.38285
1.38226
1.38224
1.38287
1.38422
1.38628
1.38898
1.39214
1.39534
1.38206
1.38084
1.38017
1.38012
1.38075
1.38215
1.38434
1.38727
1.39074
1.39441
1.39225
1.39225
1.39225
1.39226
1.39227
1.39229
1.39232
1.39239
1.39267
1.39369
1.39261
1.3926
1.3926
1.39263
1.39267
1.39273
1.3928
1.39288
1.39296
1.39301
1.39234
1.39229
1.39228
1.39233
1.39243
1.39257
1.39274
1.39293
1.39311
1.39325
1.3908
1.39068
1.39065
1.39072
1.3909
1.39117
1.3915
1.39188
1.39225
1.39258
1.38993
1.38968
1.3896
1.38969
1.38995
1.39037
1.39092
1.39155
1.3922
1.39278
1.38917
1.3888
1.38865
1.38874
1.38909
1.38968
1.39048
1.39142
1.39242
1.39333
1.38753
1.38699
1.38675
1.38683
1.38725
1.38802
1.38908
1.39038
1.39178
1.39311
1.38788
1.3872
1.38687
1.38694
1.38743
1.38835
1.38967
1.3913
1.39312
1.39485
1.38596
1.38513
1.38473
1.38477
1.3853
1.38634
1.38786
1.3898
1.39199
1.39414
1.38435
1.38346
1.383
1.38302
1.38356
1.38465
1.38629
1.38841
1.39082
1.3933
1.3921
1.3921
1.39211
1.39211
1.39212
1.39212
1.39214
1.39218
1.39242
1.39342
1.39247
1.39247
1.39247
1.39248
1.39251
1.39254
1.39258
1.39262
1.39266
1.39269
1.3926
1.39256
1.39255
1.39258
1.39264
1.39272
1.39282
1.39293
1.39303
1.3931
1.39128
1.3912
1.39118
1.39122
1.39133
1.3915
1.39171
1.39194
1.39216
1.39235
1.39075
1.39059
1.39054
1.3906
1.39077
1.39104
1.3914
1.3918
1.39221
1.39257
1.39022
1.38997
1.38987
1.38995
1.39019
1.39059
1.39113
1.39175
1.3924
1.39298
1.3888
1.38843
1.38827
1.38834
1.38865
1.38919
1.38993
1.39081
1.39173
1.3926
1.3894
1.38893
1.38871
1.38878
1.38915
1.38982
1.39075
1.39188
1.3931
1.39423
1.38752
1.38693
1.38666
1.38672
1.38713
1.3879
1.389
1.39035
1.39184
1.39326
1.38626
1.38562
1.38532
1.38537
1.3858
1.38662
1.3878
1.38929
1.39093
1.39258
1.39207
1.39207
1.39207
1.39207
1.39207
1.39207
1.39208
1.39211
1.39232
1.39327
1.39233
1.39233
1.39234
1.39234
1.39236
1.39238
1.3924
1.39242
1.39244
1.39245
1.39279
1.39276
1.39276
1.39277
1.3928
1.39285
1.39291
1.39297
1.39303
1.39305
1.39158
1.39153
1.39152
1.39155
1.39161
1.39171
1.39184
1.39198
1.39211
1.39222
1.39134
1.39124
1.3912
1.39124
1.39136
1.39153
1.39176
1.39201
1.39226
1.39247
1.39099
1.39083
1.39076
1.39082
1.39098
1.39125
1.3916
1.392
1.39242
1.39277
1.38976
1.38951
1.38941
1.38946
1.38968
1.39005
1.39054
1.39112
1.39172
1.39228
1.39059
1.39028
1.39014
1.3902
1.39047
1.39094
1.39157
1.39233
1.39313
1.39385
1.38871
1.3883
1.38813
1.38819
1.38849
1.38904
1.3898
1.39072
1.39171
1.39264
1.38785
1.38741
1.38721
1.38726
1.38759
1.38818
1.38901
1.39002
1.39111
1.39219
1.39214
1.39214
1.39214
1.39214
1.39214
1.39214
1.39214
1.39216
1.39233
1.39322
1.3922
1.3922
1.3922
1.39221
1.39222
1.39223
1.39224
1.39225
1.39226
1.39226
1.39295
1.39294
1.39293
1.39294
1.39296
1.39299
1.39302
1.39305
1.39308
1.39308
1.39178
1.39175
1.39174
1.39175
1.39179
1.39185
1.39193
1.39201
1.39208
1.39214
1.39177
1.3917
1.39168
1.39171
1.39178
1.39189
1.39203
1.39218
1.39234
1.39245
1.39154
1.39143
1.39139
1.39143
1.39154
1.39171
1.39193
1.39219
1.39245
1.39266
1.39048
1.39031
1.39025
1.39029
1.39043
1.39068
1.391
1.39137
1.39175
1.3921
1.39153
1.39132
1.39123
1.39128
1.39147
1.39179
1.39221
1.3927
1.39322
1.39366
1.38959
1.38931
1.3892
1.38925
1.38947
1.38985
1.39035
1.39096
1.39161
1.3922
1.38918
1.38889
1.38876
1.38881
1.38905
1.38945
1.39001
1.39068
1.39139
1.39208
1.39236
1.39235
1.39235
1.39235
1.39235
1.39235
1.39235
1.39235
1.39249
1.39331
1.39206
1.39206
1.39207
1.39207
1.39208
1.39208
1.39209
1.39209
1.3921
1.39209
1.39312
1.39311
1.39311
1.39311
1.39312
1.39314
1.39316
1.39318
1.39319
1.39318
1.3919
1.39188
1.39188
1.39189
1.39191
1.39194
1.39198
1.39203
1.39207
1.3921
1.39206
1.39202
1.39201
1.39203
1.39207
1.39214
1.39222
1.39232
1.39241
1.39247
1.39191
1.39184
1.39182
1.39184
1.39191
1.39202
1.39216
1.39232
1.39248
1.3926
1.391
1.3909
1.39086
1.39089
1.39098
1.39114
1.39134
1.39157
1.39181
1.39202
1.39225
1.39211
1.39206
1.3921
1.39223
1.39243
1.39271
1.39302
1.39335
1.39361
1.3902
1.39001
1.38995
1.38998
1.39013
1.39038
1.39071
1.3911
1.39151
1.39189
1.39036
1.39017
1.39009
1.39013
1.39029
1.39057
1.39093
1.39136
1.39181
1.39224
1.39282
1.39281
1.39281
1.3928
1.3928
1.39279
1.39279
1.39279
1.39289
1.3936
1.39189
1.39189
1.3919
1.3919
1.3919
1.39191
1.39191
1.39191
1.39191
1.39191
1.39328
1.39328
1.39327
1.39328
1.39329
1.3933
1.39331
1.39332
1.39333
1.39332
1.39199
1.39198
1.39197
1.39198
1.39199
1.39201
1.39203
1.39205
1.39207
1.39208
1.39225
1.39223
1.39222
1.39223
1.39226
1.3923
1.39235
1.39241
1.39247
1.3925
1.39213
1.39209
1.39207
1.39209
1.39213
1.3922
1.39228
1.39238
1.39248
1.39255
1.39138
1.39132
1.39129
1.39131
1.39137
1.39147
1.39159
1.39174
1.39187
1.392
1.39274
1.39266
1.39263
1.39265
1.39274
1.39287
1.39305
1.39325
1.39346
1.3936
1.39054
1.39042
1.39038
1.39041
1.3905
1.39066
1.39087
1.39112
1.39137
1.39162
1.39154
1.39141
1.39137
1.3914
1.3915
1.39168
1.39192
1.39219
1.39246
1.39273
1.39374
1.39374
1.39374
1.39373
1.39373
1.39372
1.39372
1.39371
1.39377
1.39434
1.39161
1.39161
1.39162
1.39162
1.39162
1.39162
1.39162
1.39161
1.39161
1.3916
1.39337
1.39337
1.39337
1.39338
1.39339
1.3934
1.39341
1.39342
1.39343
1.39342
1.39207
1.39206
1.39205
1.39205
1.39206
1.39207
1.39208
1.39209
1.3921
1.39209
1.39235
1.39233
1.39233
1.39234
1.39235
1.39238
1.39242
1.39245
1.39249
1.3925
1.39222
1.39219
1.39218
1.39219
1.39222
1.39227
1.39232
1.39238
1.39245
1.39249
1.39163
1.39159
1.39158
1.39159
1.39163
1.39169
1.39177
1.39185
1.39194
1.39201
1.39292
1.39286
1.39284
1.39286
1.39292
1.39301
1.39313
1.39326
1.39341
1.39349
1.39055
1.39048
1.39046
1.39047
1.39054
1.39064
1.39077
1.39093
1.39108
1.39125
1.39295
1.39287
1.39285
1.39287
1.39294
1.39306
1.39321
1.39339
1.39356
1.39373
1.39539
1.39536
1.39536
1.39537
1.39538
1.39539
1.3954
1.39541
1.39546
1.39585
1.39107
1.39107
1.39107
1.39106
1.39106
1.39105
1.39104
1.39103
1.39102
1.39099
1.39328
1.39328
1.39328
1.39329
1.3933
1.39331
1.39333
1.39335
1.39336
1.39337
1.39217
1.39216
1.39216
1.39216
1.39216
1.39216
1.39217
1.39218
1.39218
1.39217
1.39239
1.39238
1.39238
1.39238
1.3924
1.39242
1.39244
1.39247
1.3925
1.39251
1.39224
1.39223
1.39222
1.39223
1.39225
1.39228
1.39232
1.39236
1.39241
1.39244
1.39179
1.39177
1.39176
1.39177
1.39179
1.39184
1.39189
1.39195
1.392
1.39205
1.39264
1.3926
1.39258
1.3926
1.39264
1.3927
1.39279
1.39289
1.39301
1.39309
1.39013
1.39008
1.39006
1.39008
1.39012
1.39019
1.39028
1.39038
1.39048
1.39059
1.39485
1.39478
1.39476
1.39478
1.39483
1.39491
1.39502
1.39515
1.39528
1.39542
1.3971
1.39712
1.39713
1.39715
1.39718
1.39721
1.39726
1.39732
1.39739
1.39762
1.3904
1.39039
1.39039
1.39038
1.39037
1.39035
1.39033
1.39029
1.39025
1.39016
1.39304
1.39304
1.39304
1.39305
1.39306
1.39307
1.39309
1.39311
1.39314
1.39317
1.39234
1.39233
1.39233
1.39233
1.39233
1.39234
1.39234
1.39235
1.39235
1.39235
1.39245
1.39244
1.39244
1.39245
1.39246
1.39247
1.3925
1.39252
1.39255
1.39258
1.3923
1.39228
1.39228
1.39228
1.3923
1.39233
1.39236
1.3924
1.39245
1.39249
1.39195
1.39192
1.39191
1.39192
1.39195
1.39198
1.39203
1.39209
1.39214
1.39219
1.39214
1.3921
1.39209
1.3921
1.39214
1.3922
1.39227
1.39237
1.39248
1.39259
1.38949
1.38945
1.38944
1.38945
1.38949
1.38955
1.38963
1.38972
1.38978
1.38982
1.39674
1.39667
1.39664
1.39665
1.3967
1.39677
1.39687
1.39699
1.39712
1.39728
1.5343
1.55123
1.54615
1.53493
1.54856
1.56841
1.56129
1.55043
1.55637
1.57717
1.57398
1.56165
1.55981
1.5815
1.58498
1.57074
1.56334
1.58607
1.5955
1.58016
1.57326
1.59888
1.61604
1.60797
1.58273
1.61029
1.63266
1.63092
1.592
1.62061
1.64633
1.64917
1.58943
1.61783
1.64541
1.65176
1.57374
1.60045
1.62904
1.63935
1.44457
1.45566
1.45892
1.4536
1.45298
1.46605
1.47092
1.46689
1.45687
1.47178
1.47765
1.47576
1.4603
1.47674
1.48421
1.48462
1.46489
1.48243
1.49194
1.49414
1.46937
1.48714
1.49749
1.49997
1.47284
1.49063
1.50165
1.50479
1.4778
1.49536
1.50675
1.51204
1.47764
1.4945
1.50639
1.51373
1.47414
1.49002
1.50283
1.51176
1.42979
1.43468
1.43583
1.43421
1.43647
1.44223
1.44421
1.44366
1.43954
1.44664
1.44974
1.44973
1.44214
1.45064
1.45511
1.45586
1.44576
1.45553
1.46128
1.46289
1.4512
1.4621
1.46903
1.47177
1.456
1.4678
1.4757
1.4795
1.46212
1.47446
1.48297
1.48775
1.46434
1.47668
1.48547
1.49105
1.46473
1.4766
1.48492
1.49029
1.41356
1.41612
1.41697
1.41618
1.41853
1.42135
1.42278
1.42289
1.42072
1.42435
1.42649
1.42711
1.42273
1.42722
1.43017
1.43156
1.42566
1.43098
1.43469
1.43687
1.42991
1.43595
1.44035
1.44336
1.43355
1.44023
1.44525
1.44912
1.4389
1.44608
1.45163
1.45641
1.44077
1.44817
1.4541
1.45958
1.44001
1.44764
1.45367
1.45906
1.40512
1.40663
1.40711
1.40658
1.4088
1.41027
1.41114
1.4114
1.41005
1.41208
1.41339
1.41402
1.41152
1.41413
1.41597
1.41712
1.41394
1.41712
1.41948
1.42117
1.41775
1.42149
1.42435
1.42662
1.42107
1.42533
1.42865
1.43151
1.42625
1.43096
1.43468
1.43816
1.4285
1.43343
1.43743
1.44134
1.42846
1.4336
1.43766
1.44129
1.39966
1.4007
1.40098
1.40049
1.40277
1.40355
1.40408
1.40434
1.40328
1.40444
1.40527
1.4058
1.40421
1.40577
1.40697
1.40787
1.40614
1.40809
1.40966
1.41096
1.40932
1.41167
1.4136
1.41532
1.41201
1.41474
1.41701
1.41916
1.41666
1.41972
1.4223
1.42489
1.41879
1.42208
1.42487
1.42772
1.41884
1.42234
1.42523
1.42781
1.39628
1.39709
1.39725
1.39675
1.39912
1.39956
1.39987
1.40007
1.39927
1.39995
1.40048
1.40085
1.39973
1.40069
1.40147
1.4021
1.40119
1.40244
1.40349
1.4044
1.4038
1.40533
1.40665
1.40786
1.40591
1.40772
1.40929
1.41081
1.41001
1.41207
1.41386
1.41567
1.41184
1.41407
1.41603
1.41799
1.41178
1.41417
1.41619
1.41795
1.3941
1.3948
1.39489
1.39437
1.39676
1.397
1.39719
1.39733
1.39683
1.39724
1.39757
1.39783
1.39693
1.39752
1.39803
1.39846
1.39801
1.3988
1.39949
1.40013
1.40007
1.40107
1.40196
1.4028
1.40159
1.40279
1.40387
1.40493
1.4051
1.40649
1.40773
1.40899
1.40648
1.408
1.40937
1.41071
1.40623
1.40786
1.40928
1.41048
1.39269
1.39334
1.39339
1.39284
1.3952
1.39533
1.39545
1.39554
1.39531
1.39555
1.39576
1.39593
1.39515
1.39552
1.39585
1.39615
1.39594
1.39645
1.39691
1.39734
1.39755
1.39821
1.39881
1.39939
1.39856
1.39936
1.4001
1.40083
1.40154
1.40247
1.40333
1.4042
1.40239
1.40342
1.40437
1.4053
1.40194
1.40306
1.40404
1.40487
1.39176
1.39241
1.39244
1.39185
1.39416
1.39423
1.3943
1.39437
1.39432
1.39447
1.3946
1.39471
1.39398
1.39422
1.39443
1.39463
1.39456
1.39489
1.3952
1.39549
1.39581
1.39624
1.39665
1.39704
1.3964
1.39693
1.39744
1.39794
1.39893
1.39956
1.40015
1.40075
1.39926
1.39996
1.40061
1.40125
1.39868
1.39944
1.40012
1.4007
1.39118
1.39182
1.39184
1.39123
1.39346
1.39349
1.39353
1.39358
1.39371
1.39379
1.39387
1.39395
1.39322
1.39336
1.3935
1.39363
1.39365
1.39386
1.39406
1.39426
1.3946
1.39488
1.39515
1.39542
1.39484
1.3952
1.39554
1.39588
1.39703
1.39745
1.39785
1.39826
1.3969
1.39737
1.39782
1.39826
1.39628
1.39679
1.39726
1.39766
1.39084
1.39149
1.3915
1.39087
1.39297
1.39298
1.393
1.39304
1.39334
1.39339
1.39344
1.39349
1.39273
1.39281
1.3929
1.39299
1.39308
1.39321
1.39334
1.39347
1.39378
1.39396
1.39414
1.39433
1.39374
1.39397
1.3942
1.39444
1.39567
1.39594
1.39622
1.3965
1.39517
1.39549
1.39579
1.3961
1.39458
1.39493
1.39524
1.39551
1.39069
1.39135
1.39136
1.39071
1.39263
1.39262
1.39264
1.39267
1.39315
1.39317
1.3932
1.39324
1.39243
1.39247
1.39253
1.39259
1.39274
1.39282
1.3929
1.39299
1.39325
1.39336
1.39348
1.39361
1.39299
1.39314
1.39329
1.39345
1.39474
1.39492
1.3951
1.3953
1.39393
1.39414
1.39434
1.39455
1.39345
1.39368
1.39389
1.39407
1.3907
1.39136
1.39137
1.39071
1.39237
1.39236
1.39237
1.3924
1.39308
1.39309
1.3931
1.39313
1.39224
1.39226
1.3923
1.39234
1.39256
1.39261
1.39266
1.39273
1.39293
1.39299
1.39307
1.39316
1.39251
1.39259
1.39269
1.3928
1.39416
1.39427
1.39439
1.39452
1.39307
1.39319
1.39333
1.39347
1.39278
1.39293
1.39307
1.39319
1.39086
1.39151
1.39152
1.39087
1.39218
1.39216
1.39217
1.39219
1.39309
1.3931
1.39311
1.39313
1.39213
1.39214
1.39216
1.39219
1.3925
1.39252
1.39255
1.3926
1.39274
1.39278
1.39283
1.39289
1.39222
1.39227
1.39233
1.39241
1.39384
1.39391
1.39399
1.39407
1.39247
1.39254
1.39263
1.39273
1.39247
1.39257
1.39266
1.39274
1.39119
1.39181
1.39181
1.39119
1.392
1.39198
1.39199
1.39201
1.39319
1.39318
1.39319
1.3932
1.39207
1.39207
1.39208
1.39211
1.39248
1.39249
1.39251
1.39254
1.39263
1.39265
1.39268
1.39272
1.39206
1.39209
1.39213
1.39218
1.39371
1.39374
1.39379
1.39385
1.39204
1.39209
1.39214
1.39221
1.3925
1.39256
1.39262
1.39267
1.39178
1.39235
1.39235
1.39178
1.39181
1.39179
1.39179
1.39182
1.39332
1.39332
1.39332
1.39333
1.39204
1.39203
1.39204
1.39206
1.39249
1.39249
1.3925
1.39253
1.39256
1.39256
1.39258
1.39261
1.392
1.392
1.39203
1.39207
1.39365
1.39367
1.3937
1.39375
1.3917
1.39172
1.39175
1.3918
1.39289
1.39293
1.39296
1.393
1.3929
1.39338
1.39338
1.3929
1.3915
1.39147
1.39147
1.3915
1.39343
1.39343
1.39344
1.39344
1.39205
1.39204
1.39204
1.39206
1.39249
1.39249
1.3925
1.39252
1.39249
1.39249
1.3925
1.39252
1.39197
1.39197
1.39199
1.39202
1.39354
1.39355
1.39357
1.39359
1.39128
1.39129
1.39131
1.39134
1.39382
1.39384
1.39386
1.39389
1.39492
1.39526
1.39526
1.39492
1.39088
1.39085
1.39085
1.39088
1.3934
1.3934
1.3934
1.3934
1.39212
1.39211
1.39211
1.39213
1.3925
1.3925
1.3925
1.39252
1.39244
1.39244
1.39245
1.39246
1.392
1.392
1.39201
1.39203
1.39318
1.3932
1.39321
1.39322
1.39056
1.39056
1.39057
1.3906
1.39548
1.3955
1.39551
1.39553
1.39747
1.3976
1.3976
1.39747
1.39
1.38994
1.38994
1.39
1.3932
1.39322
1.39322
1.39321
1.39232
1.39231
1.39231
1.39233
1.39258
1.39258
1.39259
1.39259
1.3925
1.3925
1.39251
1.39252
1.39216
1.39216
1.39217
1.39219
1.39274
1.39277
1.39278
1.39278
1.3896
1.38956
1.38958
1.38964
1.39737
1.39739
1.39741
1.39741
1.45709
1.43028
1.41091
1.3943
1.38267
1.37442
1.36818
1.36323
1.3593
1.35615
1.47071
1.43592
1.41148
1.39465
1.38273
1.37388
1.36687
1.36111
1.3563
1.35202
1.47737
1.43967
1.41218
1.39564
1.38325
1.37373
1.36594
1.35938
1.35375
1.34881
1.48531
1.4454
1.4159
1.39903
1.38561
1.3752
1.36649
1.35903
1.35245
1.34685
1.49489
1.4516
1.42079
1.40251
1.38802
1.37664
1.36708
1.35885
1.35148
1.34555
1.50514
1.45906
1.42683
1.40683
1.39134
1.37902
1.36874
1.35987
1.35188
1.3455
1.51491
1.46381
1.43096
1.40892
1.39264
1.37941
1.3685
1.35908
1.35061
1.34403
1.52662
1.46856
1.43645
1.41223
1.39552
1.38152
1.37018
1.36032
1.35157
1.34456
1.53286
1.4677
1.43714
1.41122
1.39453
1.37998
1.36834
1.35815
1.3493
1.34191
1.53818
1.46686
1.43798
1.41043
1.39337
1.37812
1.36599
1.35534
1.34629
1.33864
1.44414
1.42799
1.41538
1.40513
1.39655
1.38936
1.38338
1.37849
1.37459
1.37155
1.45303
1.43352
1.41802
1.40532
1.39498
1.38656
1.37966
1.37394
1.36923
1.36517
1.46001
1.4382
1.41965
1.40562
1.3942
1.38495
1.3773
1.37087
1.36541
1.36061
1.46668
1.44387
1.42331
1.40817
1.39579
1.38572
1.37721
1.36988
1.36346
1.35787
1.47306
1.45066
1.42803
1.41164
1.39825
1.38727
1.37791
1.36977
1.36247
1.35635
1.48212
1.45865
1.43432
1.41645
1.40203
1.3901
1.37993
1.37107
1.36303
1.35631
1.49134
1.46481
1.43926
1.41959
1.4042
1.39131
1.38038
1.37086
1.36216
1.35507
1.50343
1.47134
1.44568
1.42404
1.40796
1.39422
1.38271
1.37261
1.36348
1.35583
1.51149
1.47268
1.44765
1.42454
1.40812
1.3937
1.38169
1.37111
1.36171
1.35362
1.51871
1.47264
1.44852
1.42404
1.40708
1.39202
1.37957
1.36861
1.35905
1.35076
1.43251
1.42423
1.41577
1.40813
1.4015
1.39585
1.39112
1.38726
1.38424
1.38201
1.43872
1.42796
1.41698
1.40726
1.39903
1.39218
1.38647
1.38171
1.37787
1.37466
1.4442
1.43141
1.41797
1.40665
1.39721
1.38938
1.38282
1.3773
1.37271
1.36875
1.44987
1.43586
1.42068
1.40823
1.39778
1.38902
1.38154
1.37511
1.36957
1.36478
1.45623
1.44144
1.42468
1.41103
1.39951
1.38979
1.38142
1.37415
1.36771
1.36231
1.4647
1.44861
1.43043
1.41531
1.40269
1.39198
1.38277
1.37473
1.36753
1.36147
1.47303
1.45458
1.43515
1.41825
1.40453
1.39282
1.38281
1.37409
1.3662
1.35969
1.48431
1.4615
1.44152
1.4227
1.40815
1.39556
1.38491
1.37558
1.36721
1.36013
1.49196
1.464
1.44422
1.42396
1.40893
1.39559
1.38434
1.37446
1.36572
1.3582
1.49801
1.46467
1.44523
1.42365
1.408
1.39403
1.38237
1.37213
1.36321
1.35548
1.41778
1.41381
1.40949
1.40528
1.40133
1.39773
1.39457
1.39192
1.38982
1.38829
1.4214
1.41675
1.41102
1.40525
1.39983
1.39495
1.39069
1.38704
1.38407
1.38164
1.42567
1.41987
1.41238
1.40501
1.39823
1.39222
1.38699
1.38252
1.37878
1.37558
1.43061
1.42398
1.41513
1.40648
1.39854
1.39149
1.38528
1.37985
1.37518
1.37113
1.43656
1.42915
1.41905
1.40912
1.40004
1.39196
1.3848
1.37849
1.37291
1.36821
1.44453
1.43584
1.42455
1.41318
1.40295
1.39384
1.3858
1.37868
1.37232
1.3669
1.45236
1.44159
1.42914
1.41608
1.40469
1.39455
1.38566
1.37781
1.37072
1.36481
1.46265
1.44864
1.43541
1.42056
1.40822
1.39716
1.38757
1.37908
1.37148
1.36498
1.46964
1.4519
1.43839
1.42209
1.40906
1.39717
1.38693
1.37789
1.36988
1.36298
1.47462
1.45296
1.43916
1.42157
1.40793
1.39547
1.38487
1.37552
1.36734
1.36026
1.40923
1.40686
1.40451
1.40218
1.39989
1.39773
1.39576
1.39408
1.39272
1.39174
1.41104
1.40896
1.40597
1.40262
1.3992
1.39594
1.39296
1.39035
1.38821
1.38646
1.41387
1.4112
1.4071
1.40251
1.39791
1.39359
1.38968
1.38625
1.38336
1.38089
1.4177
1.41458
1.40957
1.40385
1.39815
1.39278
1.38788
1.3835
1.37971
1.37641
1.42268
1.41911
1.4132
1.40633
1.39952
1.39312
1.38725
1.38197
1.37729
1.37332
1.42941
1.42511
1.4183
1.41016
1.40223
1.3948
1.38802
1.38191
1.37644
1.37173
1.43596
1.43034
1.42258
1.41297
1.40389
1.39543
1.38776
1.38089
1.37468
1.36945
1.44487
1.43711
1.42859
1.41741
1.40735
1.39794
1.38954
1.382
1.37525
1.36944
1.45089
1.44066
1.43165
1.41909
1.40818
1.39791
1.38885
1.38077
1.37359
1.36741
1.45467
1.44169
1.43219
1.41847
1.40698
1.3962
1.38679
1.37842
1.37107
1.36471
1.40356
1.40191
1.40057
1.39933
1.39808
1.39686
1.39572
1.39471
1.3939
1.39329
1.40438
1.40347
1.40194
1.40006
1.398
1.39593
1.39396
1.39221
1.39076
1.38955
1.40607
1.40491
1.40276
1.40002
1.39707
1.39412
1.39133
1.38882
1.38667
1.38483
1.40877
1.40747
1.40474
1.40114
1.39724
1.39333
1.38962
1.38623
1.38326
1.38067
1.41267
1.41124
1.40791
1.40338
1.3985
1.39363
1.38899
1.38472
1.38091
1.37766
1.41815
1.41642
1.41243
1.40688
1.40099
1.39515
1.38962
1.38453
1.37995
1.37599
1.42334
1.42094
1.41623
1.40948
1.40252
1.39569
1.38929
1.38344
1.37813
1.37364
1.43078
1.42717
1.42181
1.41378
1.40586
1.39812
1.39097
1.38445
1.37859
1.37353
1.43563
1.43055
1.42468
1.41541
1.4066
1.39802
1.39022
1.38319
1.3769
1.3715
1.43812
1.43128
1.42496
1.41473
1.40539
1.39634
1.38821
1.3809
1.37444
1.36884
1.39995
1.39862
1.39779
1.39712
1.39645
1.39578
1.39515
1.39458
1.3941
1.39374
1.4002
1.39979
1.399
1.39794
1.39673
1.39547
1.39424
1.39312
1.39218
1.39138
1.40116
1.4007
1.39958
1.39798
1.39612
1.39417
1.39226
1.39049
1.38896
1.38764
1.40289
1.40245
1.40099
1.39878
1.39619
1.39344
1.39073
1.38819
1.38595
1.38398
1.40581
1.40542
1.40358
1.40069
1.39729
1.3937
1.39015
1.38682
1.38381
1.38125
1.4101
1.40969
1.40743
1.40377
1.39952
1.39506
1.3907
1.38659
1.38287
1.37963
1.41403
1.41339
1.41062
1.40604
1.40086
1.39551
1.39032
1.38548
1.38106
1.37732
1.42011
1.4189
1.41564
1.41006
1.40402
1.39783
1.39192
1.38644
1.38149
1.37719
1.42378
1.42182
1.41807
1.41146
1.40459
1.39764
1.39113
1.38516
1.37979
1.37517
1.42517
1.4222
1.4181
1.41075
1.40341
1.39603
1.3892
1.38297
1.37741
1.37261
1.39759
1.3964
1.39583
1.39546
1.39511
1.39476
1.39441
1.3941
1.39383
1.39362
1.39747
1.3973
1.39688
1.39631
1.39561
1.39487
1.39413
1.39344
1.39286
1.39235
1.39808
1.39793
1.39734
1.39641
1.39526
1.39399
1.39272
1.39152
1.39047
1.38957
1.39907
1.399
1.39823
1.39689
1.39519
1.39331
1.39139
1.38955
1.38792
1.38647
1.40118
1.40124
1.40026
1.39843
1.39611
1.39353
1.3909
1.38837
1.38608
1.38412
1.40445
1.40465
1.40341
1.40104
1.39804
1.39473
1.39138
1.38816
1.38523
1.38267
1.40729
1.40749
1.40593
1.40289
1.39913
1.39505
1.39096
1.38707
1.3835
1.38046
1.4122
1.41223
1.41033
1.40654
1.40205
1.39724
1.39249
1.38802
1.38394
1.38039
1.41479
1.41449
1.41218
1.4076
1.4024
1.39694
1.39165
1.38673
1.38225
1.37841
1.41536
1.41455
1.41199
1.40686
1.40126
1.39542
1.38984
1.38467
1.38001
1.37598
1.39602
1.3949
1.39447
1.39426
1.39407
1.39389
1.39371
1.39354
1.39339
1.39326
1.39568
1.39561
1.3954
1.39509
1.39471
1.39428
1.39385
1.39344
1.3931
1.39277
1.39612
1.39609
1.39577
1.39523
1.39453
1.39374
1.39292
1.39214
1.39144
1.39083
1.39659
1.39665
1.39624
1.39542
1.39433
1.39307
1.39176
1.39048
1.38933
1.38829
1.39809
1.39831
1.39777
1.39663
1.39506
1.39325
1.39136
1.38951
1.38782
1.38637
1.40056
1.40095
1.40029
1.39876
1.39668
1.39428
1.39178
1.38935
1.38711
1.38513
1.4025
1.40301
1.40216
1.40016
1.39748
1.39445
1.39132
1.38829
1.38548
1.38309
1.40645
1.407
1.40593
1.4034
1.40014
1.3965
1.3928
1.38925
1.38599
1.38314
1.4081
1.40853
1.40716
1.40407
1.40025
1.39607
1.3919
1.38795
1.38432
1.3812
1.4081
1.40832
1.40679
1.40331
1.39916
1.39466