/*--------------------------------*- C++ -*----------------------------------*\
| =========                 |                                                 |
| \\      /  F ield         | foam-extend: Open Source CFD                    |
|  \\    /   O peration     | Version:     4.0                                |
|   \\  /    A nd           | Web:         http://www.foam-extend.org         |
|    \\/     M anipulation  |                                                 |
\*---------------------------------------------------------------------------*/
FoamFile
{
    version     2.0;
    format      ascii;
    class       volScalarField;
    location    "800";
    object      T;
}
// * * * * * * * * * * * * * * * * * * * * * * * * * * * * * * * * * * * * * //

dimensions      [0 0 0 1 0 0 0];

internalField   nonuniform List<scalar> 
34480
(
278.756
278.311
277.865
277.396
276.88
276.317
275.836
275.827
276.872
280.641
278.112
277.593
277.088
276.581
276.026
275.373
274.651
274.124
274.256
277.042
278.014
277.435
276.861
276.276
275.634
274.858
273.912
272.984
272.4
274.225
278.11
277.418
276.719
275.997
275.217
274.296
273.154
271.885
270.665
271.582
278.229
277.432
276.618
275.769
274.853
273.789
272.465
270.887
269.08
269.166
278.413
277.53
276.623
275.671
274.64
273.451
271.972
270.119
267.766
267.046
278.555
277.608
276.636
275.615
274.504
273.224
271.624
269.523
266.634
265.087
278.713
277.73
276.724
275.667
274.518
273.198
271.536
269.253
265.853
263.417
278.807
277.809
276.784
275.697
274.505
273.138
271.426
268.997
265.067
261.71
279.642
278.647
277.617
276.521
275.328
273.976
272.296
269.85
265.429
260.939
280.178
279.994
279.892
279.891
280.019
280.327
280.895
281.827
283.375
286.482
279.068
278.792
278.588
278.483
278.5
278.681
279.122
279.963
281.416
284.676
278.613
278.267
277.981
277.774
277.667
277.694
277.946
278.601
279.887
283.247
278.404
277.96
277.564
277.23
276.987
276.867
276.953
277.433
278.535
281.903
278.264
277.733
277.242
276.8
276.436
276.184
276.122
276.434
277.347
280.673
278.223
277.62
277.055
276.53
276.068
275.708
275.521
275.679
276.419
279.717
278.176
277.526
276.912
276.333
275.805
275.365
275.073
275.081
275.628
278.842
278.197
277.519
276.881
276.272
275.708
275.219
274.854
274.728
275.055
278.081
278.213
277.527
276.876
276.246
275.646
275.103
274.667
274.419
274.481
277.18
278.964
278.275
277.615
276.977
276.371
275.825
275.372
275.062
274.817
276.893
281.301
281.202
281.195
281.293
281.517
281.899
282.478
283.297
284.428
286.011
280.048
279.863
279.763
279.773
279.924
280.262
280.854
281.785
283.173
285.192
279.469
279.207
279.024
278.94
278.986
279.215
279.716
280.624
282.12
284.541
279.156
278.8
278.512
278.312
278.237
278.343
278.738
279.595
281.154
283.921
278.938
278.498
278.117
277.813
277.625
277.612
277.894
278.676
280.252
283.296
278.834
278.321
277.864
277.476
277.192
277.076
277.252
277.946
279.508
282.762
278.74
278.176
277.665
277.216
276.861
276.661
276.739
277.33
278.833
282.22
278.719
278.123
277.58
277.093
276.689
276.426
276.421
276.902
278.301
281.735
278.698
278.092
277.535
277.026
276.582
276.258
276.164
276.523
277.775
281.203
279.388
278.78
278.214
277.695
277.245
276.912
276.778
277.039
278.088
281.386
282.077
282.029
282.061
282.179
282.393
282.714
283.146
283.681
284.304
285.043
280.827
280.712
280.68
280.749
280.94
281.279
281.798
282.519
283.46
284.59
280.194
280.007
279.903
279.902
280.031
280.327
280.845
281.644
282.783
284.279
279.814
279.541
279.347
279.253
279.293
279.518
280.003
280.848
282.159
284.02
279.538
279.185
278.906
278.721
278.671
278.813
279.245
280.102
281.546
283.738
279.381
278.958
278.606
278.342
278.21
278.273
278.643
279.492
281.04
283.527
279.245
278.77
278.363
278.039
277.839
277.831
278.136
278.952
280.558
283.283
279.189
278.679
278.236
277.87
277.619
277.55
277.789
278.55
280.164
283.062
279.148
278.625
278.165
277.776
277.487
277.361
277.522
278.195
279.763
282.8
279.794
279.268
278.797
278.395
278.093
277.951
278.074
278.67
280.115
283.206
282.547
282.522
282.556
282.651
282.807
283.026
283.301
283.61
283.908
284.183
281.401
281.33
281.329
281.408
281.577
281.848
282.229
282.718
283.295
283.899
280.786
280.656
280.601
280.638
280.783
281.06
281.491
282.094
282.866
283.739
280.385
280.181
280.054
280.025
280.118
280.37
280.822
281.52
282.486
283.657
280.078
279.802
279.603
279.502
279.532
279.74
280.189
280.952
282.094
283.562
279.887
279.546
279.281
279.112
279.08
279.239
279.67
280.48
281.778
283.535
279.722
279.329
279.012
278.788
278.701
278.809
279.21
280.04
281.462
283.476
279.64
279.21
278.856
278.591
278.457
278.517
278.879
279.702
281.205
283.437
279.581
279.136
278.764
278.476
278.308
278.322
278.629
279.408
280.938
283.362
280.189
279.739
279.353
279.051
278.868
278.865
279.143
279.88
281.363
283.908
282.795
282.781
282.806
282.87
282.972
283.107
283.269
283.434
283.556
283.6
281.798
281.755
281.765
281.832
281.961
282.154
282.41
282.718
283.058
283.387
281.248
281.159
281.133
281.181
281.311
281.535
281.858
282.277
282.773
283.285
280.862
280.712
280.633
280.639
280.747
280.977
281.35
281.875
282.542
283.272
280.548
280.337
280.2
280.155
280.226
280.445
280.845
281.46
282.295
283.261
280.342
280.072
279.879
279.781
279.81
280.007
280.423
281.113
282.113
283.322
280.16
279.841
279.601
279.456
279.445
279.614
280.031
280.775
281.919
283.362
280.06
279.705
279.429
279.248
279.2
279.337
279.74
280.513
281.771
283.428
279.989
279.616
279.321
279.118
279.043
279.148
279.523
280.288
281.614
283.465
280.562
280.182
279.873
279.655
279.564
279.655
280.013
280.767
282.098
284.085
282.896
282.887
282.902
282.941
283.001
283.08
283.169
283.252
283.282
283.205
282.053
282.027
282.038
282.087
282.177
282.304
282.466
282.653
282.85
283.032
281.593
281.533
281.522
281.566
281.669
281.834
282.06
282.339
282.65
282.956
281.245
281.138
281.09
281.112
281.212
281.401
281.684
282.059
282.505
282.965
280.946
280.789
280.697
280.685
280.769
280.967
281.295
281.761
282.349
282.983
280.741
280.532
280.394
280.345
280.405
280.603
280.966
281.517
282.253
283.078
280.553
280.299
280.122
280.036
280.071
280.26
280.645
281.265
282.14
283.159
280.445
280.157
279.947
279.831
279.84
280.013
280.406
281.075
282.069
283.272
280.364
280.057
279.829
279.693
279.682
279.838
280.223
280.911
281.989
283.361
280.906
280.592
280.35
280.2
280.175
280.321
280.699
281.397
282.508
284.002
282.909
282.902
282.91
282.932
282.966
283.009
283.057
283.094
283.079
282.939
282.206
282.189
282.197
282.23
282.287
282.367
282.466
282.577
282.69
282.794
281.838
281.798
281.794
281.829
281.904
282.019
282.17
282.35
282.544
282.729
281.542
281.467
281.439
281.464
281.546
281.691
281.896
282.155
282.448
282.741
281.273
281.157
281.097
281.103
281.183
281.348
281.602
281.941
282.346
282.765
281.081
280.922
280.827
280.807
280.879
281.056
281.353
281.774
282.301
282.863
280.897
280.7
280.572
280.527
280.584
280.767
281.098
281.59
282.238
282.952
280.789
280.56
280.405
280.336
280.378
280.559
280.91
281.46
282.217
283.079
280.703
280.455
280.283
280.197
280.226
280.4
280.759
281.342
282.181
283.18
281.218
280.963
280.777
280.68
280.698
280.866
281.228
281.831
282.715
283.812
282.875
282.869
282.873
282.884
282.902
282.925
282.95
282.964
282.928
282.754
282.286
282.276
282.28
282.301
282.336
282.384
282.443
282.508
282.573
282.633
282.005
281.978
281.977
282.002
282.053
282.13
282.228
282.342
282.462
282.577
281.764
281.712
281.696
281.718
281.781
281.886
282.029
282.204
282.395
282.583
281.533
281.45
281.411
281.424
281.493
281.621
281.809
282.049
282.325
282.602
281.363
281.245
281.18
281.178
281.247
281.395
281.627
281.937
282.308
282.691
281.191
281.04
280.95
280.931
280.996
281.157
281.427
281.803
282.273
282.77
281.09
280.912
280.799
280.763
280.82
280.989
281.286
281.72
282.281
282.893
281.002
280.806
280.678
280.63
280.679
280.849
281.162
281.633
282.267
282.983
281.492
281.289
281.15
281.092
281.135
281.303
281.624
282.121
282.799
283.589
282.819
282.814
282.815
282.821
282.831
282.843
282.855
282.858
282.812
282.621
282.322
282.315
282.317
282.329
282.35
282.378
282.412
282.45
282.488
282.523
282.114
282.096
282.096
282.112
282.146
282.195
282.257
282.328
282.403
282.475
281.925
281.889
281.879
281.897
281.943
282.016
282.113
282.228
282.352
282.474
281.734
281.675
281.651
281.665
281.719
281.815
281.949
282.116
282.301
282.485
281.591
281.505
281.462
281.467
281.527
281.645
281.818
282.042
282.299
282.559
281.435
281.323
281.261
281.256
281.318
281.452
281.662
281.942
282.276
282.62
281.348
281.212
281.132
281.117
281.177
281.323
281.563
281.893
282.3
282.73
281.26
281.109
281.016
280.992
281.049
281.201
281.46
281.827
282.294
282.8
281.728
281.57
281.468
281.437
281.49
281.645
281.914
282.307
282.812
283.371
282.756
282.752
282.752
282.755
282.76
282.767
282.773
282.77
282.722
282.523
282.33
282.326
282.327
282.333
282.345
282.361
282.381
282.402
282.425
282.446
282.182
282.17
282.17
282.18
282.202
282.232
282.271
282.315
282.361
282.407
282.037
282.013
282.007
282.02
282.051
282.101
282.165
282.24
282.32
282.399
281.886
281.845
281.83
281.842
281.882
281.951
282.044
282.157
282.281
282.404
281.77
281.709
281.681
281.689
281.737
281.826
281.952
282.109
282.285
282.462
281.634
281.551
281.509
281.512
281.566
281.672
281.83
282.032
282.266
282.503
281.564
281.462
281.407
281.403
281.459
281.579
281.764
282.009
282.299
282.598
281.478
281.363
281.298
281.289
281.344
281.472
281.677
281.954
282.29
282.644
281.923
281.804
281.731
281.717
281.771
281.904
282.12
282.42
282.788
283.177
282.695
282.691
282.691
282.692
282.695
282.698
282.701
282.697
282.65
282.449
282.324
282.321
282.321
282.324
282.331
282.34
282.352
282.364
282.377
282.391
282.223
282.216
282.215
282.221
282.234
282.253
282.277
282.304
282.333
282.363
282.113
282.097
282.093
282.102
282.123
282.155
282.196
282.244
282.296
282.349
281.998
281.97
281.96
281.969
281.998
282.046
282.109
282.184
282.266
282.348
281.909
281.866
281.847
281.856
281.892
281.957
282.046
282.154
282.273
282.392
281.791
281.732
281.704
281.71
281.752
281.833
281.948
282.091
282.252
282.415
281.741
281.667
281.629
281.632
281.679
281.772
281.911
282.088
282.29
282.496
281.657
281.572
281.527
281.526
281.575
281.677
281.833
282.036
282.274
282.518
282.081
281.992
281.941
281.938
281.987
282.095
282.262
282.484
282.745
283.013
282.638
282.635
282.635
282.635
282.637
282.639
282.64
282.635
282.592
282.394
282.31
282.308
282.308
282.31
282.313
282.319
282.325
282.333
282.341
282.35
282.247
282.243
282.242
282.246
282.253
282.265
282.279
282.295
282.314
282.334
282.162
282.152
282.149
282.155
282.168
282.189
282.215
282.246
282.279
282.314
282.079
282.06
282.054
282.06
282.08
282.112
282.154
282.203
282.257
282.312
282.012
281.983
281.971
281.978
282.005
282.05
282.111
282.184
282.263
282.344
281.912
281.87
281.852
281.858
281.891
281.949
282.031
282.13
282.239
282.35
281.883
281.831
281.806
281.811
281.848
281.918
282.018
282.142
282.281
282.422
281.8
281.738
281.708
281.711
281.751
281.83
281.944
282.089
282.253
282.42
282.202
282.139
282.104
282.106
282.147
282.231
282.355
282.514
282.695
282.877
282.587
282.585
282.584
282.585
282.585
282.587
282.587
282.583
282.545
282.353
282.293
282.292
282.292
282.293
282.295
282.298
282.302
282.306
282.311
282.318
282.262
282.259
282.259
282.261
282.265
282.272
282.28
282.29
282.302
282.317
282.192
282.186
282.184
282.187
282.196
282.209
282.225
282.244
282.266
282.29
282.136
282.124
282.12
282.124
282.137
282.158
282.185
282.217
282.252
282.289
282.089
282.069
282.062
282.067
282.086
282.116
282.157
282.205
282.257
282.312
282.003
281.975
281.963
281.968
281.992
282.033
282.089
282.156
282.228
282.303
281.996
281.96
281.944
281.949
281.977
282.027
282.098
282.183
282.276
282.371
281.91
281.867
281.847
281.851
281.882
281.94
282.021
282.122
282.234
282.346
282.291
282.247
282.224
282.228
282.26
282.322
282.411
282.523
282.646
282.767
282.542
282.541
282.54
282.54
282.541
282.542
282.542
282.539
282.507
282.324
282.276
282.275
282.275
282.275
282.276
282.278
282.28
282.283
282.287
282.292
282.272
282.27
282.27
282.271
282.274
282.278
282.283
282.289
282.297
282.307
282.21
282.206
282.204
282.206
282.212
282.219
282.23
282.242
282.255
282.272
282.176
282.168
282.166
282.169
282.177
282.19
282.208
282.228
282.25
282.275
282.144
282.131
282.126
282.13
282.142
282.163
282.189
282.22
282.254
282.291
282.07
282.051
282.043
282.048
282.064
282.092
282.129
282.173
282.221
282.272
282.085
282.061
282.05
282.055
282.075
282.11
282.158
282.215
282.276
282.34
281.992
281.962
281.949
281.954
281.977
282.017
282.074
282.141
282.216
282.291
282.353
282.323
282.308
282.312
282.337
282.381
282.443
282.518
282.6
282.679
282.505
282.504
282.504
282.504
282.504
282.504
282.505
282.502
282.477
282.308
282.257
282.257
282.256
282.257
282.257
282.258
282.26
282.262
282.264
282.269
282.281
282.28
282.28
282.281
282.282
282.284
282.287
282.291
282.296
282.304
282.218
282.216
282.215
282.216
282.219
282.224
282.23
282.237
282.246
282.258
282.203
282.198
282.197
282.199
282.204
282.212
282.223
282.235
282.25
282.267
282.181
282.173
282.17
282.173
282.181
282.194
282.211
282.231
282.252
282.277
282.118
282.106
282.101
282.104
282.115
282.133
282.157
282.186
282.216
282.25
282.154
282.139
282.132
282.136
282.15
282.173
282.205
282.242
282.281
282.323
282.049
282.029
282.021
282.025
282.041
282.069
282.106
282.151
282.199
282.249
282.393
282.373
282.364
282.368
282.385
282.416
282.457
282.507
282.56
282.611
282.479
282.479
282.479
282.479
282.479
282.479
282.479
282.478
282.46
282.31
282.237
282.236
282.236
282.236
282.237
282.237
282.238
282.24
282.241
282.245
282.291
282.29
282.29
282.29
282.291
282.292
282.294
282.297
282.3
282.306
282.221
282.22
282.219
282.22
282.222
282.224
282.228
282.232
282.238
282.246
282.22
282.217
282.217
282.218
282.221
282.226
282.233
282.24
282.249
282.261
282.205
282.2
282.198
282.2
282.205
282.213
282.224
282.236
282.249
282.266
282.151
282.143
282.14
282.142
282.149
282.161
282.176
282.194
282.213
282.235
282.207
282.196
282.193
282.195
282.205
282.22
282.241
282.264
282.289
282.316
282.084
282.071
282.066
282.068
282.079
282.098
282.122
282.151
282.181
282.214
282.421
282.408
282.403
282.406
282.418
282.438
282.465
282.497
282.53
282.562
282.479
282.478
282.478
282.478
282.478
282.478
282.478
282.477
282.466
282.344
282.21
282.21
282.21
282.21
282.21
282.21
282.211
282.211
282.213
282.216
282.298
282.298
282.298
282.299
282.299
282.3
282.301
282.303
282.305
282.31
282.221
282.22
282.22
282.22
282.221
282.222
282.224
282.227
282.23
282.236
282.229
282.228
282.227
282.228
282.23
282.233
282.237
282.242
282.247
282.255
282.217
282.214
282.212
282.214
282.217
282.222
282.229
282.236
282.244
282.255
282.171
282.167
282.165
282.166
282.171
282.178
282.187
282.198
282.21
282.224
282.239
282.233
282.23
282.232
282.239
282.249
282.262
282.277
282.293
282.31
282.094
282.086
282.083
282.085
282.092
282.104
282.119
282.137
282.156
282.178
282.451
282.444
282.44
282.442
282.45
282.464
282.481
282.501
282.522
282.542
282.51
282.517
282.517
282.517
282.518
282.519
282.519
282.52
282.516
282.431
282.169
282.169
282.169
282.169
282.168
282.168
282.168
282.168
282.168
282.17
282.299
282.299
282.299
282.3
282.3
282.301
282.302
282.304
282.306
282.31
282.22
282.219
282.219
282.219
282.219
282.22
282.221
282.222
282.224
282.227
282.232
282.231
282.23
282.231
282.232
282.234
282.237
282.24
282.243
282.249
282.22
282.218
282.217
282.218
282.22
282.223
282.227
282.232
282.238
282.245
282.182
282.179
282.178
282.179
282.182
282.187
282.193
282.199
282.206
282.215
282.244
282.24
282.239
282.24
282.244
282.251
282.26
282.27
282.281
282.293
282.074
282.069
282.067
282.068
282.073
282.081
282.091
282.102
282.113
282.127
282.503
282.498
282.495
282.497
282.502
282.511
282.523
282.536
282.55
282.564
282.592
282.59
282.591
282.592
282.594
282.596
282.598
282.602
282.605
282.576
282.11
282.11
282.109
282.109
282.108
282.107
282.106
282.104
282.103
282.101
282.288
282.288
282.289
282.289
282.29
282.291
282.292
282.294
282.296
282.3
282.221
282.221
282.22
282.22
282.221
282.221
282.222
282.222
282.223
282.225
282.232
282.231
282.231
282.231
282.232
282.234
282.236
282.238
282.241
282.244
282.219
282.218
282.217
282.218
282.22
282.222
282.225
282.229
282.233
282.237
282.188
282.186
282.185
282.186
282.188
282.191
282.196
282.2
282.205
282.21
282.223
282.219
282.218
282.219
282.222
282.228
282.234
282.242
282.252
282.262
282.025
282.022
282.02
282.021
282.025
282.03
282.037
282.045
282.052
282.059
282.572
282.567
282.565
282.566
282.57
282.576
282.585
282.595
282.606
282.619
292.157
296.829
297.891
295.529
291.434
296.473
297.775
295.745
291.425
296.758
298.349
297.129
291.391
296.946
298.896
298.594
291.407
297.107
299.375
299.707
291.331
297.001
299.362
299.681
291.221
296.812
299.232
299.664
291.155
296.639
299.126
299.79
290.872
296.268
298.863
299.852
290.69
296.034
298.801
300.221
291.766
293.292
293.537
292.56
291.302
293.034
293.339
292.373
291.482
293.37
293.853
293.019
291.73
293.772
294.46
293.84
292.035
294.205
295.048
294.623
292.58
294.834
295.765
295.498
293.087
295.371
296.338
296.201
293.536
295.798
296.751
296.636
293.701
295.955
296.943
296.932
293.795
296.151
297.318
297.572
288.017
288.703
288.915
288.582
287.446
288.337
288.618
288.246
287.586
288.606
288.969
288.701
287.881
289.032
289.502
289.355
288.24
289.51
290.08
290.022
288.713
290.074
290.699
290.674
289.178
290.612
291.283
291.309
289.649
291.133
291.844
291.947
289.964
291.468
292.23
292.451
290.439
291.92
292.799
293.275
286.25
286.515
286.626
286.584
285.566
286.002
286.168
286.08
285.633
286.159
286.393
286.36
285.87
286.496
286.808
286.833
286.163
286.885
287.268
287.344
286.588
287.399
287.846
287.974
287.023
287.914
288.419
288.604
287.49
288.447
289.006
289.259
287.901
288.894
289.504
289.849
288.677
289.639
290.318
290.852
285.072
285.147
285.214
285.272
284.346
284.569
284.678
284.676
284.371
284.651
284.81
284.85
284.554
284.903
285.119
285.207
284.781
285.202
285.473
285.608
285.129
285.619
285.946
286.131
285.489
286.046
286.426
286.663
285.896
286.513
286.947
287.242
286.271
286.927
287.408
287.78
287.04
287.677
288.209
288.75
284.368
284.352
284.391
284.485
283.619
283.74
283.809
283.824
283.617
283.775
283.878
283.926
283.755
283.961
284.105
284.189
283.933
284.188
284.375
284.497
284.223
284.53
284.761
284.924
284.525
284.884
285.158
285.362
284.877
285.283
285.6
285.847
285.206
285.643
285.995
286.3
285.957
286.38
286.764
287.196
283.918
283.855
283.877
283.985
283.161
283.23
283.272
283.287
283.145
283.238
283.304
283.341
283.246
283.371
283.466
283.53
283.381
283.541
283.667
283.759
283.619
283.815
283.974
284.097
283.865
284.098
284.289
284.444
284.161
284.428
284.65
284.837
284.433
284.722
284.969
285.196
285.142
285.425
285.693
286.008
283.619
283.53
283.543
283.658
282.871
282.911
282.937
282.947
282.843
282.901
282.942
282.967
282.915
282.994
283.055
283.099
283.014
283.117
283.201
283.265
283.206
283.334
283.442
283.529
283.403
283.556
283.687
283.796
283.647
283.824
283.977
284.109
283.863
284.054
284.223
284.382
284.525
284.714
284.896
285.113
283.41
283.306
283.313
283.433
282.682
282.707
282.722
282.728
282.648
282.684
282.71
282.725
282.694
282.745
282.785
282.813
282.764
282.832
282.887
282.93
282.916
283.001
283.073
283.132
283.067
283.169
283.258
283.333
283.266
283.385
283.488
283.579
283.428
283.556
283.671
283.778
284.042
284.169
284.292
284.437
283.256
283.141
283.145
283.269
282.556
282.572
282.581
282.584
282.521
282.544
282.56
282.569
282.547
282.581
282.606
282.624
282.593
282.638
282.674
282.702
282.71
282.767
282.815
282.854
282.821
282.89
282.95
283
282.981
283.061
283.132
283.192
283.097
283.184
283.261
283.332
283.662
283.747
283.83
283.926
283.136
283.013
283.016
283.143
282.47
282.48
282.486
282.487
282.438
282.453
282.463
282.468
282.449
282.471
282.488
282.498
282.477
282.507
282.531
282.549
282.565
282.604
282.636
282.661
282.64
282.688
282.728
282.761
282.769
282.824
282.871
282.912
282.846
282.905
282.957
283.003
283.363
283.421
283.476
283.539
283.037
282.909
282.911
283.042
282.409
282.416
282.42
282.42
282.384
282.395
282.401
282.403
282.384
282.399
282.409
282.415
282.399
282.42
282.436
282.446
282.464
282.491
282.512
282.528
282.51
282.543
282.57
282.591
282.615
282.652
282.684
282.71
282.657
282.698
282.733
282.763
283.13
283.168
283.206
283.247
282.952
282.821
282.822
282.955
282.365
282.37
282.372
282.371
282.35
282.357
282.361
282.361
282.34
282.35
282.357
282.36
282.348
282.363
282.373
282.379
282.395
282.413
282.427
282.437
282.417
282.44
282.458
282.47
282.505
282.531
282.552
282.569
282.518
282.546
282.569
282.588
282.949
282.975
282.999
283.026
282.877
282.744
282.744
282.878
282.331
282.335
282.336
282.334
282.329
282.334
282.337
282.336
282.309
282.317
282.321
282.322
282.316
282.326
282.333
282.335
282.349
282.362
282.371
282.376
282.352
282.368
282.38
282.387
282.43
282.448
282.462
282.472
282.416
282.436
282.451
282.462
282.809
282.826
282.843
282.86
282.807
282.674
282.675
282.808
282.303
282.306
282.307
282.305
282.317
282.321
282.323
282.321
282.287
282.293
282.296
282.295
282.296
282.303
282.307
282.308
282.318
282.327
282.333
282.335
282.307
282.319
282.326
282.33
282.382
282.395
282.404
282.409
282.342
282.356
282.366
282.372
282.702
282.713
282.724
282.735
282.741
282.613
282.613
282.742
282.278
282.281
282.281
282.28
282.312
282.316
282.316
282.315
282.271
282.275
282.277
282.275
282.283
282.288
282.291
282.29
282.297
282.304
282.308
282.308
282.277
282.285
282.29
282.291
282.354
282.363
282.369
282.371
282.287
282.297
282.304
282.306
282.622
282.629
282.636
282.642
282.682
282.563
282.563
282.682
282.253
282.256
282.256
282.254
282.313
282.316
282.316
282.314
282.257
282.26
282.261
282.259
282.274
282.278
282.28
282.278
282.282
282.287
282.289
282.289
282.255
282.262
282.265
282.264
282.339
282.345
282.349
282.35
282.244
282.252
282.256
282.256
282.566
282.571
282.575
282.579
282.639
282.536
282.536
282.639
282.223
282.225
282.225
282.223
282.316
282.319
282.319
282.317
282.244
282.247
282.248
282.246
282.266
282.269
282.27
282.268
282.268
282.272
282.274
282.272
282.239
282.244
282.245
282.245
282.328
282.333
282.335
282.334
282.202
282.208
282.211
282.21
282.542
282.545
282.548
282.55
282.632
282.556
282.556
282.632
282.175
282.177
282.177
282.176
282.315
282.317
282.318
282.316
282.234
282.236
282.237
282.235
282.257
282.26
282.26
282.259
282.255
282.258
282.259
282.257
282.226
282.229
282.23
282.229
282.308
282.312
282.314
282.312
282.148
282.152
282.154
282.152
282.564
282.566
282.567
282.569
282.661
282.628
282.628
282.661
282.103
282.103
282.103
282.103
282.305
282.307
282.307
282.305
282.229
282.23
282.23
282.229
282.25
282.252
282.253
282.251
282.245
282.247
282.248
282.247
282.217
282.219
282.22
282.22
282.277
282.281
282.282
282.28
282.07
282.073
282.074
282.073
282.622
282.624
282.626
282.626
287.495
284.537
283.178
282.373
281.729
281.139
280.593
280.098
279.637
279.196
287.827
285.44
283.874
282.733
281.805
281.038
280.366
279.756
279.186
278.641
289.068
286.488
284.483
283.193
282.128
281.257
280.494
279.806
279.172
278.586
290.512
287.584
285.417
283.969
282.784
281.807
280.945
280.162
279.437
278.774
291.804
288.63
286.313
284.704
283.409
282.331
281.377
280.51
279.703
278.976
293.465
289.721
287.247
285.475
284.069
282.891
281.851
280.904
280.022
279.234
295.016
290.672
288.05
286.117
284.61
283.339
282.222
281.206
280.262
279.433
296.438
291.576
288.81
286.727
285.123
283.765
282.578
281.501
280.505
279.631
297.594
292.34
289.455
287.243
285.541
284.088
282.824
281.688
280.652
279.744
299.003
293.62
290.681
288.401
286.608
285.081
283.754
282.558
281.473
280.513
288.719
286.338
284.788
283.635
282.758
282.076
281.529
281.083
280.717
280.42
288.598
286.131
284.369
283.082
282.117
281.368
280.755
280.238
279.793
279.405
288.908
286.275
284.321
282.992
281.982
281.182
280.514
279.939
279.438
279.002
289.475
286.739
284.687
283.304
282.22
281.346
280.601
279.951
279.375
278.871
290.085
287.282
285.131
283.654
282.486
281.532
280.715
279.996
279.354
278.795
290.924
287.956
285.677
284.079
282.821
281.787
280.901
280.119
279.418
278.809
291.8
288.539
286.135
284.403
283.065
281.959
281.016
280.185
279.442
278.8
292.796
289.074
286.588
284.721
283.32
282.152
281.165
280.295
279.52
278.85
293.694
289.461
286.975
284.979
283.533
282.302
281.273
280.369
279.575
278.885
295.03
290.3
287.973
285.898
284.419
283.14
282.075
281.136
280.314
279.596
286.944
285.82
284.909
284.125
283.452
282.883
282.408
282.019
281.708
281.471
287.004
285.65
284.492
283.523
282.718
282.05
281.492
281.025
280.634
280.31
287.32
285.792
284.454
283.383
282.502
281.772
281.156
280.63
280.178
279.793
287.85
286.214
284.748
283.59
282.63
281.828
281.139
280.539
280.013
279.558
288.412
286.713
285.12
283.865
282.82
281.941
281.18
280.512
279.919
279.406
289.189
287.339
285.609
284.238
283.103
282.145
281.314
280.582
279.928
279.36
290.009
287.905
286.037
284.539
283.32
282.288
281.397
280.613
279.912
279.306
290.92
288.427
286.46
284.833
283.546
282.45
281.514
280.69
279.954
279.318
291.765
288.781
286.796
285.04
283.704
282.551
281.577
280.723
279.972
279.315
293.031
289.545
287.703
285.869
284.51
283.322
282.323
281.444
280.673
279.994
285.56
285.119
284.632
284.132
283.663
283.247
282.89
282.594
282.36
282.189
285.66
284.961
284.234
283.554
282.948
282.421
281.97
281.588
281.273
281.019
285.935
285.103
284.224
283.429
282.731
282.126
281.604
281.155
280.772
280.452
286.42
285.49
284.488
283.593
282.807
282.122
281.522
280.997
280.539
280.147
286.951
285.944
284.824
283.827
282.951
282.185
281.511
280.915
280.389
279.935
287.644
286.525
285.279
284.168
283.197
282.349
281.602
280.94
280.349
279.838
288.366
287.065
285.69
284.454
283.394
282.467
281.656
280.939
280.298
279.745
289.178
287.578
286.101
284.737
283.602
282.609
281.748
280.988
280.311
279.724
289.958
287.941
286.43
284.936
283.744
282.694
281.795
281.005
280.31
279.702
291.171
288.721
287.306
285.729
284.513
283.429
282.507
281.694
280.981
280.351
284.463
284.375
284.161
283.885
283.6
283.332
283.093
282.892
282.732
282.618
284.538
284.206
283.796
283.371
282.961
282.585
282.251
281.964
281.726
281.537
284.752
284.345
283.824
283.291
282.785
282.322
281.909
281.548
281.24
280.984
285.162
284.696
284.076
283.444
282.844
282.295
281.801
281.362
280.979
280.653
285.626
285.108
284.389
283.657
282.966
282.332
281.76
281.249
280.797
280.408
286.235
285.641
284.817
283.976
283.189
282.471
281.823
281.243
280.725
280.278
286.868
286.146
285.212
284.253
283.373
282.575
281.859
281.22
280.649
280.156
287.573
286.639
285.611
284.53
283.571
282.704
281.935
281.251
280.64
280.111
288.251
287.001
285.929
284.724
283.704
282.778
281.97
281.255
280.624
280.072
289.371
287.796
286.773
285.487
284.438
283.48
282.649
281.913
281.264
280.691
283.754
283.829
283.756
283.612
283.449
283.287
283.139
283.012
282.91
282.84
283.777
283.618
283.394
283.139
282.878
282.627
282.396
282.193
282.024
281.891
283.921
283.727
283.43
283.09
282.743
282.409
282.101
281.826
281.591
281.396
284.24
284.021
283.655
283.23
282.796
282.378
281.99
281.64
281.332
281.071
284.615
284.373
283.935
283.424
282.903
282.402
281.937
281.514
281.138
280.816
285.122
284.842
284.326
283.719
283.108
282.524
281.983
281.49
281.049
280.667
285.649
285.297
284.694
283.983
283.282
282.617
282.006
281.453
280.957
280.529
286.238
285.753
285.072
284.252
283.472
282.738
282.072
281.471
280.933
280.466
286.799
286.099
285.369
284.439
283.596
282.806
282.098
281.465
280.905
280.415
287.813
286.896
286.181
285.176
284.302
283.478
282.748
282.095
281.515
281.005
283.29
283.441
283.439
283.37
283.28
283.188
283.102
283.025
282.965
282.924
283.269
283.193
283.072
282.925
282.766
282.607
282.455
282.32
282.206
282.115
283.357
283.265
283.099
282.89
282.661
282.432
282.213
282.014
281.842
281.699
283.591
283.495
283.284
283.01
282.708
282.404
282.112
281.844
281.606
281.404
283.878
283.779
283.522
283.178
282.801
282.421
282.056
281.718
281.416
281.157
284.284
284.176
283.865
283.444
282.987
282.529
282.091
281.686
281.321
281.005
284.706
284.566
284.194
283.686
283.147
282.613
282.107
281.642
281.222
280.86
285.182
284.971
284.538
283.941
283.328
282.726
282.165
281.652
281.189
280.788
285.624
285.283
284.805
284.116
283.443
282.788
282.186
281.639
281.152
280.728
286.531
286.062
285.58
284.827
284.121
283.433
282.807
282.24
281.735
281.289
282.986
283.171
283.203
283.173
283.126
283.075
283.027
282.983
282.948
282.926
282.937
282.899
282.835
282.752
282.658
282.56
282.465
282.378
282.305
282.246
282.983
282.938
282.845
282.719
282.574
282.422
282.273
282.134
282.013
281.912
283.147
283.106
282.987
282.814
282.611
282.397
282.186
281.988
281.81
281.659
283.357
283.325
283.177
282.952
282.687
282.408
282.132
281.872
281.636
281.435
283.673
283.648
283.466
283.183
282.851
282.503
282.161
281.838
281.544
281.29
284
283.968
283.745
283.395
282.993
282.576
282.17
281.79
281.444
281.146
284.376
284.314
284.049
283.627
283.161
282.683
282.224
281.796
281.409
281.073
284.71
284.58
284.278
283.785
283.265
282.738
282.239
281.779
281.366
281.006
285.52
285.324
285.01
284.466
283.913
283.355
282.833
282.353
281.921
281.54
282.78
282.981
283.027
283.018
282.994
282.966
282.939
282.915
282.896
282.885
282.72
282.7
282.666
282.619
282.565
282.507
282.449
282.395
282.349
282.312
282.736
282.713
282.661
282.586
282.495
282.398
282.3
282.207
282.124
282.055
282.846
282.829
282.761
282.654
282.521
282.376
282.228
282.086
281.958
281.848
282.994
282.989
282.904
282.761
282.58
282.381
282.178
281.984
281.806
281.654
283.235
283.243
283.139
282.953
282.719
282.462
282.202
281.952
281.723
281.525
283.48
283.495
283.365
283.129
282.837
282.522
282.205
281.903
281.627
281.388
283.773
283.781
283.624
283.335
282.99
282.621
282.256
281.91
281.594
281.319
284.015
283.996
283.813
283.471
283.08
282.667
282.265
281.888
281.547
281.25
284.74
284.694
284.497
284.116
283.695
283.255
282.831
282.435
282.076
281.758