/*--------------------------------*- C++ -*----------------------------------*\
| =========                 |                                                 |
| \\      /  F ield         | foam-extend: Open Source CFD                    |
|  \\    /   O peration     | Version:     4.0                                |
|   \\  /    A nd           | Web:         http://www.foam-extend.org         |
|    \\/     M anipulation  |                                                 |
\*---------------------------------------------------------------------------*/
FoamFile
{
    version     2.0;
    format      ascii;
    class       volVectorField;
    location    "800";
    object      U;
}
// * * * * * * * * * * * * * * * * * * * * * * * * * * * * * * * * * * * * * //

dimensions      [0 1 -1 0 0 0 0];

internalField   nonuniform List<vector> 
34480
(
(209.227 6.99379 2.52148)
(210.863 5.21185 -1.49201)
(212.319 3.63453 -6.23566)
(213.604 2.27352 -11.9802)
(214.698 1.13407 -19.1324)
(215.373 0.235046 -28.1724)
(214.766 -0.390866 -39.4502)
(210.574 -0.803552 -53.4572)
(197.934 -1.32669 -72.745)
(166.193 -1.923 -93.3825)
(211.094 10.5747 2.90686)
(213.041 9.52103 -0.398849)
(214.775 8.46242 -4.17096)
(216.287 7.42605 -8.68088)
(217.66 6.404 -14.3979)
(218.869 5.36918 -22.0201)
(219.402 4.31953 -32.3403)
(217.493 3.24507 -46.1871)
(208.624 1.82682 -67.2839)
(178.604 -0.170845 -95.6873)
(212.109 10.0185 5.20971)
(214.325 9.2674 2.33028)
(216.38 8.43491 -0.928511)
(218.281 7.54656 -4.83432)
(220.1 6.60645 -9.8221)
(221.918 5.57479 -16.7025)
(223.434 4.43164 -26.5634)
(223.166 3.19126 -40.5502)
(217.05 1.5601 -63.1037)
(188.725 -0.79674 -97.9647)
(212.29 10.3107 7.01165)
(214.982 9.63438 4.27808)
(217.547 8.84824 1.16023)
(219.998 7.98941 -2.56783)
(222.362 7.05398 -7.30627)
(224.731 6.003 -13.8528)
(226.935 4.80401 -23.4493)
(227.775 3.46648 -37.5768)
(223.615 1.67848 -61.2267)
(196.387 -1.00032 -100.898)
(212.419 9.64258 8.86336)
(215.533 8.85212 6.21357)
(218.534 7.93827 3.1122)
(221.457 6.96575 -0.576179)
(224.307 5.90741 -5.25974)
(227.157 4.72436 -11.6814)
(229.913 3.37018 -21.1659)
(231.617 1.84995 -35.5211)
(228.978 -0.174498 -60.2142)
(202.386 -3.2753 -103.725)
(212.197 9.94524 9.65818)
(215.631 9.0575 7.10892)
(218.95 8.03274 4.07077)
(222.216 6.96907 0.453605)
(225.43 5.83449 -4.1631)
(228.652 4.60186 -10.4695)
(231.826 3.22252 -19.8245)
(234.2 1.68779 -34.3472)
(232.748 -0.406949 -59.9979)
(206.407 -3.80137 -106.774)
(212.15 8.96011 10.6398)
(215.79 7.87483 8.15762)
(219.286 6.66874 5.1295)
(222.741 5.45346 1.53628)
(226.163 4.1803 -3.05365)
(229.611 2.8373 -9.27201)
(233.081 1.39392 -18.4829)
(236.047 -0.124974 -33.0973)
(235.736 -2.08588 -59.5671)
(209.817 -5.29942 -109.1)
(211.889 9.22404 10.3372)
(215.607 8.01982 8.00931)
(219.149 6.72194 5.12159)
(222.641 5.43572 1.65937)
(226.091 4.12142 -2.77914)
(229.57 2.78981 -8.76756)
(233.139 1.45801 -17.6163)
(236.558 0.187557 -31.9488)
(237.434 -1.37343 -58.7575)
(212.381 -4.10728 -110.405)
(211.96 7.33918 10.7485)
(215.677 5.9774 8.5738)
(219.206 4.60216 5.77627)
(222.693 3.26636 2.3553)
(226.143 1.91003 -2.09334)
(229.604 0.556315 -8.0479)
(233.159 -0.722963 -16.7041)
(236.862 -1.76367 -30.7098)
(238.85 -2.65742 -57.7241)
(214.768 -4.1763 -110.771)
(210.918 6.93247 10.1296)
(214.641 5.49561 8.2953)
(218.181 4.04896 5.78876)
(221.659 2.65922 2.60112)
(225.025 1.3253 -1.64966)
(228.29 0.101936 -7.40417)
(231.566 -0.898108 -15.7337)
(235.232 -1.45586 -28.9604)
(238.424 -1.60963 -55.3259)
(216.379 -1.92528 -108.57)
(201.547 6.06784 1.72585)
(202.498 4.55083 -1.64594)
(202.963 3.21365 -5.50927)
(202.824 2.09123 -9.90942)
(201.897 1.17746 -15.0103)
(199.856 0.484422 -20.9348)
(196.199 0.00985524 -27.736)
(190.271 -0.271985 -35.2269)
(180.644 -0.422313 -42.4557)
(162.206 -0.566917 -45.0436)
(205.268 9.45845 1.8451)
(206.678 8.53567 -1.12151)
(207.68 7.59186 -4.48023)
(208.123 6.68067 -8.28927)
(207.87 5.80502 -12.7427)
(206.637 4.94649 -18.1338)
(203.819 4.08519 -24.8543)
(198.498 3.21487 -33.1708)
(189.247 2.30213 -43.0371)
(169.658 1.22104 -50.1298)
(207.413 8.99943 3.95545)
(209.175 8.3108 1.24456)
(210.603 7.54557 -1.79462)
(211.601 6.72558 -5.33735)
(212.029 5.8793 -9.54041)
(211.667 4.98372 -14.7947)
(209.929 4.01194 -21.7064)
(205.681 2.94553 -30.9454)
(197.289 1.75079 -43.3414)
(176.849 0.332813 -55.5206)
(208.324 9.35283 5.70815)
(210.575 8.72954 3.0887)
(212.55 8.00537 0.124838)
(214.178 7.19991 -3.37899)
(215.298 6.33681 -7.59346)
(215.695 5.40007 -12.9152)
(214.826 4.36213 -20.0608)
(211.489 3.19551 -30.0307)
(203.91 1.83319 -44.5149)
(182.77 0.177609 -61.6363)
(208.925 8.73573 7.60449)
(211.61 8.01111 5.03924)
(214.058 7.17451 2.05274)
(216.216 6.26943 -1.48082)
(217.932 5.2934 -5.79847)
(218.981 4.23458 -11.263)
(218.853 3.05395 -18.6633)
(216.344 1.72302 -29.2885)
(209.557 0.163367 -45.5973)
(187.8 -1.69573 -67.4859)
(209.041 9.12447 8.4772)
(212.073 8.31679 6.00009)
(214.882 7.38 3.05837)
(217.441 6.39163 -0.435987)
(219.623 5.34093 -4.77565)
(221.194 4.23159 -10.299)
(221.676 3.02474 -17.838)
(219.9 1.68942 -28.9295)
(213.84 0.105081 -46.6632)
(191.398 -1.83745 -72.7754)
(209.231 8.18959 9.58413)
(212.5 7.20279 7.16982)
(215.542 6.10417 4.22739)
(218.36 4.98851 0.737328)
(220.855 3.82346 -3.63712)
(222.808 2.62573 -9.20896)
(223.789 1.36004 -16.8332)
(222.72 0.0152066 -28.2812)
(217.48 -1.49381 -47.24)
(194.613 -3.31801 -77.3425)
(209.128 8.52737 9.4169)
(212.516 7.43128 7.16072)
(215.667 6.24956 4.36518)
(218.611 5.07693 1.00679)
(221.267 3.88581 -3.24408)
(223.446 2.7054 -8.69014)
(224.784 1.53306 -16.1679)
(224.358 0.38776 -27.6183)
(220.094 -0.815584 -47.3426)
(197.311 -2.44423 -80.9725)
(209.213 6.71413 9.9462)
(212.623 5.44583 7.85968)
(215.803 4.17848 5.18448)
(218.814 2.9619 1.91483)
(221.598 1.74905 -2.32453)
(223.978 0.568241 -7.80626)
(225.609 -0.552687 -15.3161)
(225.728 -1.52931 -26.7432)
(222.487 -2.23866 -47.1513)
(199.989 -3.2684 -83.8205)
(208.275 6.50779 9.36011)
(211.692 5.12261 7.56008)
(214.909 3.77234 5.19302)
(217.952 2.48038 2.20499)
(220.748 1.25718 -1.75773)
(223.132 0.152815 -6.99867)
(224.833 -0.762051 -14.3187)
(225.274 -1.32658 -25.309)
(223.195 -1.37445 -45.8332)
(201.813 -1.25834 -84.4365)
(195.836 4.8355 0.584378)
(196.348 3.67767 -2.0522)
(196.344 2.6652 -4.95927)
(195.748 1.81574 -8.14056)
(194.426 1.14315 -11.5598)
(192.2 0.656615 -15.1156)
(188.851 0.341001 -18.6115)
(184.142 0.143661 -21.725)
(177.716 -0.0132975 -23.7242)
(168.892 -0.234635 -22.8466)
(200.444 8.08331 0.626007)
(201.398 7.32597 -1.89248)
(201.885 6.53454 -4.69229)
(201.773 5.75823 -7.77374)
(200.892 5.00619 -11.1809)
(198.977 4.27578 -14.9011)
(195.649 3.55615 -18.8644)
(190.398 2.8317 -22.8522)
(182.522 2.08702 -26.2063)
(171.013 1.28454 -26.9369)
(203.293 7.83861 2.57671)
(204.633 7.2307 0.133396)
(205.556 6.53907 -2.59544)
(205.943 5.7943 -5.69193)
(205.63 5.01843 -9.21709)
(204.323 4.19874 -13.2812)
(201.511 3.32194 -17.9616)
(196.424 2.37445 -23.1841)
(187.974 1.34392 -28.4363)
(174.17 0.202182 -31.6176)
(204.785 8.3013 4.20458)
(206.6 7.73883 1.7723)
(208.045 7.07267 -0.970163)
(209.019 6.3197 -4.18042)
(209.322 5.51016 -7.91189)
(208.647 4.62809 -12.3507)
(206.393 3.65995 -17.6865)
(201.568 2.59014 -24.0236)
(192.731 1.39658 -31.0988)
(176.835 0.0508803 -37.051)
(205.816 7.74293 6.0808)
(208.058 7.08206 3.6496)
(209.971 6.31238 0.828625)
(211.463 5.46435 -2.5077)
(212.328 4.54873 -6.47462)
(212.243 3.54907 -11.2769)
(210.555 2.44066 -17.2101)
(206.093 1.20319 -24.5841)
(197.074 -0.18681 -33.4324)
(179.351 -1.72582 -42.4507)
(206.266 8.21458 6.98072)
(208.863 7.47897 4.60609)
(211.152 6.61982 1.79526)
(213.058 5.69493 -1.55964)
(214.389 4.70914 -5.63889)
(214.81 3.65832 -10.6601)
(213.637 2.51549 -17.0091)
(209.578 1.25447 -25.2157)
(200.526 -0.176764 -35.6229)
(181.238 -1.80286 -47.7388)
(206.704 7.30963 8.17988)
(209.556 6.40889 5.84755)
(212.106 5.40487 3.01236)
(214.304 4.36992 -0.376287)
(215.982 3.28887 -4.55805)
(216.81 2.16716 -9.7558)
(216.106 0.977912 -16.4335)
(212.519 -0.298928 -25.3589)
(203.643 -1.69512 -37.2313)
(183.118 -3.24774 -52.551)
(206.785 7.70764 8.11449)
(209.784 6.70535 5.92943)
(212.482 5.62582 3.23292)
(214.856 4.54536 -0.0361639)
(216.763 3.45187 -4.1374)
(217.889 2.36143 -9.30298)
(217.588 1.26704 -16.0461)
(214.522 0.167193 -25.3513)
(206.066 -0.973444 -38.3442)
(184.721 -2.41922 -56.6491)
(206.975 5.92677 8.73194)
(210.012 4.74755 6.69526)
(212.76 3.57467 4.10843)
(215.223 2.44711 0.934068)
(217.297 1.34098 -3.14687)
(218.69 0.274454 -8.38223)
(218.783 -0.729522 -15.3096)
(216.27 -1.62997 -24.964)
(208.374 -2.31519 -39.0337)
(186.312 -3.32126 -59.8895)
(206.208 5.89256 8.19962)
(209.25 4.57994 6.40378)
(212.039 3.3231 4.10373)
(214.541 2.11782 1.19684)
(216.64 0.994569 -2.60927)
(218.069 -0.00134856 -7.58208)
(218.351 -0.801312 -14.3323)
(216.314 -1.29216 -23.8517)
(209.209 -1.31086 -38.5487)
(186.894 -1.21712 -60.7987)
(191.757 3.76547 0.000864431)
(192.003 2.95952 -1.85732)
(191.814 2.25054 -3.84269)
(191.146 1.65382 -5.92248)
(189.941 1.18281 -8.01208)
(188.142 0.840456 -9.98793)
(185.724 0.611277 -11.6671)
(182.745 0.445667 -12.8071)
(179.337 0.264727 -13.0014)
(175.438 -0.016108 -11.6634)
(196.51 6.70527 -0.126103)
(197.111 6.13749 -2.10647)
(197.261 5.52516 -4.23589)
(196.869 4.90527 -6.50971)
(195.817 4.29622 -8.88615)
(193.96 3.70186 -11.255)
(191.128 3.11595 -13.4333)
(187.178 2.52696 -15.1244)
(182.02 1.93029 -15.7649)
(175.783 1.33641 -14.6059)
(199.685 6.64841 1.5315)
(200.651 6.14449 -0.544147)
(201.178 5.55242 -2.83167)
(201.157 4.90799 -5.34463)
(200.448 4.22945 -8.08057)
(198.84 3.5135 -10.9992)
(196.039 2.75321 -13.9687)
(191.703 1.93944 -16.6823)
(185.498 1.06743 -18.4299)
(177.28 0.150025 -18.115)
(201.557 7.23075 2.93121)
(202.959 6.74773 0.775916)
(203.945 6.15691 -1.63411)
(204.402 5.48191 -4.38605)
(204.148 4.74921 -7.47843)
(202.914 3.95142 -10.938)
(200.287 3.08449 -14.6868)
(195.713 2.13978 -18.4504)
(188.583 1.10725 -21.4325)
(178.356 -0.00117865 -22.3279)
(202.918 6.73498 4.70659)
(204.726 6.1498 2.48628)
(206.141 5.45809 -0.0689136)
(207.058 4.68568 -3.05723)
(207.26 3.84952 -6.49974)
(206.442 2.93455 -10.4753)
(204.085 1.93029 -14.9745)
(199.428 0.824506 -19.8028)
(191.555 -0.39444 -24.1354)
(179.439 -1.69032 -26.6561)
(203.65 7.28868 5.57088)
(205.807 6.63335 3.36235)
(207.588 5.8603 0.76979)
(208.894 5.01426 -2.31265)
(209.505 4.11046 -5.96021)
(209.081 3.14074 -10.2858)
(207.02 2.09188 -15.3572)
(202.379 0.946777 -21.0951)
(193.909 -0.326084 -26.6962)
(180.041 -1.71554 -31.0115)
(204.308 6.41422 6.81582)
(206.728 5.60265 4.61751)
(208.779 4.69662 1.96451)
(210.382 3.75073 -1.20735)
(211.323 2.76383 -5.03595)
(211.248 1.73318 -9.65844)
(209.502 0.64371 -15.2255)
(204.995 -0.520668 -21.8132)
(196.143 -1.78521 -28.7135)
(180.753 -3.14096 -35.1045)
(204.56 6.88848 6.81711)
(207.145 5.98194 4.7457)
(209.369 5.00461 2.2104)
(211.172 4.01725 -0.87278)
(212.36 3.02324 -4.67501)
(212.578 2.02759 -9.36193)
(211.155 1.02696 -15.1557)
(206.903 0.0143956 -22.3087)
(197.93 -1.04279 -30.306)
(181.33 -2.33793 -38.7744)
(204.837 5.15257 7.54721)
(207.479 4.07056 5.59902)
(209.771 2.99469 3.14857)
(211.676 1.95553 0.144226)
(213.036 0.949843 -3.64646)
(213.518 -0.0113832 -8.4292)
(212.457 -0.90116 -14.5028)
(208.594 -1.69913 -22.2291)
(199.737 -2.33996 -31.4074)
(182.01 -3.27094 -41.7817)
(204.184 5.28934 7.07059)
(206.841 4.07075 5.33041)
(209.188 2.91778 3.14265)
(211.149 1.81007 0.38249)
(212.569 0.795455 -3.15525)
(213.125 -0.089344 -7.68827)
(212.248 -0.771446 -13.5998)
(208.754 -1.16559 -21.3689)
(200.341 -1.14533 -31.3963)
(181.81 -1.06394 -42.7965)
(189.222 2.8568 -0.246306)
(189.343 2.33244 -1.46153)
(189.15 1.86228 -2.73131)
(188.627 1.46124 -4.00973)
(187.761 1.13872 -5.22218)
(186.55 0.895416 -6.27619)
(185.034 0.720506 -7.05212)
(183.342 0.574325 -7.43318)
(181.754 0.389704 -7.24894)
(180.435 0.0877048 -6.30898)
(193.563 5.41828 -0.525136)
(193.934 5.02955 -1.98284)
(193.929 4.58671 -3.49591)
(193.497 4.11904 -5.05655)
(192.579 3.64885 -6.59945)
(191.113 3.18372 -8.01483)
(189.054 2.72341 -9.14508)
(186.409 2.26252 -9.78239)
(183.284 1.80421 -9.62315)
(180.004 1.37249 -8.44127)
(196.682 5.48942 0.810623)
(197.363 5.09493 -0.860457)
(197.64 4.61277 -2.66793)
(197.434 4.07857 -4.58859)
(196.651 3.50969 -6.58293)
(195.171 2.90895 -8.55567)
(192.863 2.27393 -10.3408)
(189.628 1.60068 -11.6649)
(185.477 0.891144 -12.0555)
(180.757 0.172496 -11.0361)
(198.701 6.1805 1.93127)
(199.759 5.78643 0.105759)
(200.405 5.28441 -1.9085)
(200.542 4.702 -4.14341)
(200.03 4.06361 -6.55989)
(198.685 3.36923 -9.09731)
(196.271 2.62031 -11.5896)
(192.544 1.81433 -13.7165)
(187.361 0.949405 -14.826)
(181.04 0.0563342 -14.2073)
(200.248 5.74221 3.54887)
(201.674 5.24152 1.59698)
(202.691 4.63695 -0.627006)
(203.194 3.95495 -3.17482)
(203.004 3.21286 -6.0135)
(201.88 2.40189 -9.12487)
(199.482 1.51998 -12.3633)
(195.397 0.5611 -15.3987)
(189.271 -0.480493 -17.4146)
(181.321 -1.55496 -17.5435)
(201.168 6.37272 4.32647)
(202.927 5.80544 2.339)
(204.277 5.12561 0.0305079)
(205.117 4.3714 -2.68158)
(205.241 3.5633 -5.79306)
(204.365 2.69421 -9.32567)
(202.048 1.76004 -13.1728)
(197.708 0.749517 -17.0302)
(190.732 -0.359655 -19.9483)
(181.175 -1.53843 -20.992)
(201.987 5.52857 5.57343)
(204.007 4.81196 3.55895)
(205.619 4.00757 1.14949)
(206.734 3.15921 -1.71028)
(207.136 2.27492 -5.07116)
(206.508 1.34996 -8.9845)
(204.331 0.377437 -13.4027)
(199.861 -0.655624 -18.0889)
(192.194 -1.77325 -22.0166)
(181.14 -2.94354 -24.2775)
(202.375 6.08675 5.60557)
(204.572 5.2827 3.69039)
(206.365 4.4115 1.36911)
(207.681 3.52397 -1.44295)
(208.31 2.63416 -4.83287)
(207.921 1.74325 -8.88927)
(205.938 0.850504 -13.628)
(201.483 -0.0561331 -18.9177)
(193.347 -1.01184 -23.7392)
(180.989 -2.14514 -27.2921)
(202.739 4.39445 6.43609)
(205.008 3.41987 4.61454)
(206.882 2.44825 2.34365)
(208.307 1.50695 -0.422203)
(209.094 0.606121 -3.82966)
(208.922 -0.245142 -8.01235)
(207.198 -1.02168 -13.0811)
(202.93 -1.71825 -19.0119)
(194.572 -2.30005 -24.9035)
(180.991 -3.11201 -29.7876)
(202.182 4.70206 5.98907)
(204.476 3.5951 4.34933)
(206.416 2.55576 2.31403)
(207.906 1.55856 -0.238179)
(208.767 0.661304 -3.4327)
(208.678 -0.10446 -7.417)
(207.094 -0.669464 -12.3734)
(203.023 -0.968771 -18.397)
(194.779 -0.917942 -25.0589)
(180.24 -0.843066 -30.6347)
(187.832 2.11027 -0.305033)
(187.897 1.78703 -1.05339)
(187.755 1.48855 -1.82514)
(187.404 1.22826 -2.57657)
(186.849 1.01134 -3.2577)
(186.107 0.838102 -3.81103)
(185.224 0.703014 -4.16614)
(184.328 0.576646 -4.28021)
(183.705 0.404671 -4.07596)
(183.631 0.102364 -3.51772)
(191.499 4.28294 -0.687727)
(191.724 4.04327 -1.70235)
(191.667 3.74453 -2.71808)
(191.3 3.40975 -3.72869)
(190.604 3.06117 -4.6757)
(189.565 2.7084 -5.47912)
(188.192 2.35632 -6.03546)
(186.533 2.00542 -6.22677)
(184.701 1.66389 -5.90681)
(182.928 1.35502 -5.04149)
(194.31 4.40946 0.354045)
(194.777 4.11775 -0.926037)
(194.908 3.74321 -2.28214)
(194.651 3.31754 -3.67963)
(193.954 2.85718 -5.0677)
(192.764 2.36825 -6.34988)
(191.043 1.85212 -7.38902)
(188.802 1.30972 -7.99944)
(186.151 0.748539 -7.92309)
(183.402 0.196087 -6.98393)
(196.284 5.18458 1.18596)
(197.062 4.88061 -0.294125)
(197.468 4.47308 -1.89978)
(197.427 3.9894 -3.63153)
(196.849 3.45263 -5.43247)
(195.626 2.86764 -7.21249)
(193.65 2.23924 -8.80615)
(190.857 1.57024 -9.95915)
(187.303 0.866692 -10.2593)
(183.392 0.163607 -9.3621)
(197.885 4.79144 2.61384)
(198.983 4.37848 0.961741)
(199.689 3.86647 -0.89936)
(199.913 3.28263 -2.97835)
(199.525 2.64236 -5.21976)
(198.361 1.94344 -7.55134)
(196.232 1.18842 -9.79494)
(192.965 0.376864 -11.6461)
(188.51 -0.489178 -12.5187)
(183.334 -1.35772 -11.9124)
(198.903 5.48815 3.26812)
(200.305 5.01283 1.53942)
(201.297 4.43062 -0.444817)
(201.789 3.7768 -2.73389)
(201.612 3.07265 -5.27869)
(200.557 2.31445 -8.03849)
(198.344 1.5035 -10.839)
(194.673 0.633619 -13.3505)
(189.341 -0.307127 -14.8152)
(182.84 -1.28095 -14.5988)
(199.823 4.67202 4.47918)
(201.473 4.05411 2.68704)
(202.705 3.35381 0.564758)
(203.431 2.60917 -1.92012)
(203.46 1.83279 -4.75781)
(202.543 1.02113 -7.93294)
(200.317 0.172408 -11.2994)
(196.348 -0.722945 -14.534)
(190.228 -1.68184 -16.7334)
(182.42 -2.65833 -17.1634)
(200.307 5.31675 4.50727)
(202.137 4.62033 2.78358)
(203.545 3.85893 0.716897)
(204.454 3.0779 -1.76169)
(204.667 2.29699 -4.67281)
(203.909 1.51731 -8.03712)
(201.747 0.73939 -11.75)
(197.618 -0.05231 -15.5334)
(190.873 -0.89017 -18.3909)
(181.86 -1.84403 -19.5342)
(200.742 3.66314 5.41509)
(202.656 2.80298 3.75252)
(204.154 1.94116 1.69667)
(205.168 1.10566 -0.778053)
(205.512 0.313652 -3.74656)
(204.907 -0.425292 -7.26744)
(202.884 -1.09015 -11.3203)
(198.762 -1.68758 -15.7034)
(191.61 -2.19879 -19.4288)
(181.46 -2.86149 -21.4295)
(200.254 4.1427 4.97205)
(202.203 3.15898 3.46856)
(203.772 2.24005 1.61994)
(204.857 1.36211 -0.675001)
(205.278 0.586498 -3.476)
(204.746 -0.0584815 -6.85976)
(202.805 -0.511992 -10.8617)
(198.728 -0.728099 -15.3471)
(191.465 -0.658715 -19.6393)
(180.395 -0.57953 -22.0318)
(187.218 1.51514 -0.275511)
(187.26 1.32323 -0.715314)
(187.173 1.13927 -1.16862)
(186.961 0.97497 -1.59822)
(186.633 0.832305 -1.97578)
(186.207 0.71193 -2.26849)
(185.72 0.612224 -2.43446)
(185.277 0.510377 -2.46816)
(185.147 0.360943 -2.3199)
(185.708 0.0695377 -2.01881)
(190.155 3.32835 -0.712235)
(190.293 3.2004 -1.38675)
(190.234 3.01406 -2.03716)
(189.967 2.78691 -2.66138)
(189.487 2.53904 -3.21653)
(188.801 2.28052 -3.65153)
(187.934 2.01928 -3.90674)
(186.932 1.75988 -3.92293)
(185.875 1.51287 -3.63362)
(184.895 1.29625 -3.05957)
(192.525 3.44335 0.0904481)
(192.841 3.23915 -0.847388)
(192.895 2.9605 -1.82058)
(192.66 2.63358 -2.79642)
(192.11 2.27305 -3.72859)
(191.231 1.88627 -4.54085)
(190.028 1.47719 -5.13756)
(188.542 1.05004 -5.4069)
(186.88 0.614845 -5.21955)
(185.246 0.19466 -4.52719)
(194.319 4.27094 0.653782)
(194.877 4.05063 -0.497747)
(195.124 3.73462 -1.72297)
(195.007 3.34777 -3.01001)
(194.474 2.91164 -4.30061)
(193.473 2.43388 -5.50838)
(191.969 1.92146 -6.50134)
(189.978 1.38101 -7.10577)
(187.606 0.823561 -7.09008)
(185.157 0.280992 -6.30665)
(195.861 3.9063 1.88308)
(196.687 3.57803 0.534479)
(197.163 3.1584 -0.964891)
(197.22 2.67276 -2.59837)
(196.771 2.13533 -4.30399)
(195.72 1.5485 -5.99434)
(193.98 0.91761 -7.50851)
(191.507 0.246725 -8.61391)
(188.378 -0.455718 -8.94432)
(184.995 -1.14311 -8.24332)
(196.894 4.65378 2.39374)
(197.986 4.26908 0.939832)
(198.696 3.78448 -0.708044)
(198.946 3.23383 -2.56594)
(198.616 2.63576 -4.57178)
(197.566 1.99123 -6.65094)
(195.641 1.30443 -8.62537)
(192.721 0.573895 -10.2154)
(188.807 -0.202846 -10.9065)
(184.398 -0.988667 -10.3205)
(197.855 3.86122 3.53992)
(199.175 3.34168 1.9923)
(200.091 2.74506 0.178755)
(200.525 2.10609 -1.90597)
(200.328 1.43849 -4.21961)
(199.319 0.741419 -6.70592)
(197.274 0.0164364 -9.18924)
(193.978 -0.741782 -11.3632)
(189.313 -1.54091 -12.5675)
(183.845 -2.33149 -12.297)
(198.391 4.59055 3.53437)
(199.884 4.00294 2.02567)
(200.962 3.3522 0.237714)
(201.55 2.68077 -1.87497)
(201.483 2.01015 -4.28887)
(200.553 1.34302 -6.97679)
(198.467 0.681168 -9.78165)
(194.909 0.00904933 -12.4013)
(189.601 -0.700986 -14.0539)
(183.117 -1.47904 -14.1268)
(198.876 2.96834 4.49568)
(200.462 2.22516 3.01561)
(201.63 1.47539 1.19898)
(202.315 0.749345 -0.953572)
(202.347 0.0664367 -3.46502)
(201.505 -0.562555 -6.33293)
(199.453 -1.12033 -9.46033)
(195.777 -1.61939 -12.5844)
(190 -2.04964 -14.889)
(182.558 -2.56643 -15.488)
(198.435 3.62152 4.03304)
(200.06 2.76706 2.69198)
(201.301 1.9717 1.05531)
(202.054 1.21678 -0.949821)
(202.154 0.562052 -3.33469)
(201.365 0.0331936 -6.1169)
(199.341 -0.319639 -9.24075)
(195.606 -0.4666 -12.4648)
(189.598 -0.388338 -15.1446)
(181.387 -0.306962 -15.922)
(187.071 1.05306 -0.212844)
(187.103 0.941325 -0.461529)
(187.056 0.829563 -0.723069)
(186.937 0.72822 -0.965392)
(186.754 0.636768 -1.17532)
(186.52 0.556212 -1.33482)
(186.262 0.487354 -1.41644)
(186.063 0.411184 -1.43239)
(186.173 0.287663 -1.33705)
(187.06 0.0119482 -1.19122)
(189.35 2.55815 -0.666701)
(189.436 2.50685 -1.09815)
(189.393 2.40211 -1.49736)
(189.216 2.25691 -1.86665)
(188.907 2.08854 -2.17829)
(188.478 1.90654 -2.40184)
(187.949 1.7198 -2.50491)
(187.357 1.53462 -2.45931)
(186.749 1.36214 -2.23584)
(186.195 1.21516 -1.86283)
(191.245 2.61252 -0.041975)
(191.456 2.47612 -0.703562)
(191.475 2.27625 -1.37694)
(191.289 2.03339 -2.03547)
(190.889 1.75975 -2.64321)
(190.277 1.46249 -3.14711)
(189.471 1.14665 -3.48681)
(188.514 0.817787 -3.5997)
(187.48 0.485749 -3.42249)
(186.489 0.168317 -2.9522)
(192.782 3.4607 0.289982)
(193.176 3.3119 -0.572619)
(193.322 3.07761 -1.47109)
(193.188 2.77931 -2.3917)
(192.748 2.43656 -3.28409)
(191.983 2.0583 -4.07929)
(190.895 1.65259 -4.68424)
(189.522 1.22801 -4.98998)
(187.962 0.797336 -4.87334)
(186.407 0.386853 -4.27666)
(194.185 3.10654 1.32949)
(194.793 2.85472 0.265019)
(195.106 2.5214 -0.901484)
(195.074 2.12851 -2.14206)
(194.647 1.68932 -3.39847)
(193.774 1.20901 -4.59047)
(192.43 0.694578 -5.59277)
(190.629 0.153013 -6.24493)
(188.474 -0.404003 -6.33279)
(186.245 -0.938193 -5.73563)
(195.164 3.88607 1.69159)
(195.995 3.58566 0.507874)
(196.49 3.19447 -0.814677)
(196.587 2.74316 -2.27134)
(196.207 2.24859 -3.79871)
(195.266 1.7149 -5.31578)
(193.693 1.148 -6.67094)
(191.466 0.550145 -7.65401)
(188.665 -0.0746445 -7.94239)
(185.669 -0.695285 -7.32878)
(196.112 3.11109 2.75384)
(197.146 2.68528 1.45582)
(197.81 2.18847 -0.0491703)
(198.04 1.65281 -1.74155)
(197.729 1.0907 -3.56913)
(196.759 0.504885 -5.45677)
(195.006 -0.101072 -7.24065)
(192.393 -0.728237 -8.67048)
(188.943 -1.37658 -9.30741)
(185.125 -2.00025 -8.8325)
(196.656 3.91906 2.69244)
(197.85 3.43701 1.4091)
(198.655 2.8943 -0.0933151)
(199.004 2.33122 -1.83655)
(198.773 1.76844 -3.77346)
(197.813 1.2108 -5.84932)
(195.951 0.661507 -7.90081)
(193.035 0.107835 -9.66037)
(189.003 -0.472533 -10.5767)
(184.379 -1.09037 -10.229)
(197.171 2.31903 3.6861)
(198.458 1.69088 2.40174)
(199.349 1.05183 0.835871)
(199.781 0.434528 -0.985231)
(199.617 -0.142637 -3.05242)
(198.691 -0.667781 -5.32236)
(196.788 -1.12649 -7.66667)
(193.688 -1.53217 -9.82558)
(189.204 -1.8778 -11.2045)
(183.826 -2.26545 -11.1683)
(196.755 3.14779 3.18278)
(198.082 2.42332 2.02013)
(199.042 1.75077 0.610083)
(199.534 1.1177 -1.09076)
(199.422 0.578547 -3.06231)
(198.524 0.156419 -5.27986)
(196.606 -0.109831 -7.64317)
(193.387 -0.203189 -9.88666)
(188.633 -0.123514 -11.498)
(182.656 -0.04635 -11.5045)
(187.174 0.700817 -0.143971)
(187.199 0.635389 -0.279856)
(187.177 0.567029 -0.43128)
(187.114 0.50559 -0.568465)
(187.016 0.448498 -0.688042)
(186.892 0.396853 -0.780038)
(186.759 0.352708 -0.823929)
(186.686 0.299157 -0.840744)
(186.908 0.199748 -0.782129)
(187.96 -0.0599872 -0.726878)
(188.917 1.95886 -0.594392)
(188.973 1.95604 -0.861325)
(188.947 1.90693 -1.09614)
(188.837 1.82081 -1.30441)
(188.649 1.71224 -1.47014)
(188.39 1.58983 -1.57602)
(188.077 1.4623 -1.60505)
(187.732 1.33612 -1.54386)
(187.382 1.22176 -1.37971)
(187.061 1.12773 -1.13581)
(190.368 1.92326 -0.0913113)
(190.508 1.83495 -0.544129)
(190.515 1.69552 -0.997598)
(190.381 1.52019 -1.43123)
(190.106 1.31843 -1.81945)
(189.698 1.09638 -2.1277)
(189.175 0.859012 -2.31987)
(188.57 0.611682 -2.36246)
(187.929 0.362566 -2.22474)
(187.319 0.124414 -1.91746)
(191.625 2.76572 0.053098)
(191.898 2.67351 -0.571446)
(191.984 2.5074 -1.20753)
(191.864 2.28536 -1.84392)
(191.528 2.02458 -2.44116)
(190.972 1.73416 -2.94924)
(190.213 1.42231 -3.30736)
(189.289 1.09808 -3.45121)
(188.271 0.773814 -3.31791)
(187.274 0.469997 -2.88698)
(192.84 2.40558 0.922978)
(193.278 2.21868 0.108024)
(193.48 1.96157 -0.771977)
(193.413 1.65218 -1.68673)
(193.047 1.30256 -2.58669)
(192.366 0.919319 -3.40712)
(191.369 0.51016 -4.05896)
(190.094 0.083366 -4.4392)
(188.629 -0.348857 -4.42772)
(187.154 -0.757018 -3.972)
(193.715 3.19735 1.14393)
(194.334 2.97132 0.209795)
(194.672 2.66518 -0.817802)
(194.682 2.30535 -1.92412)
(194.316 1.90732 -3.05093)
(193.531 1.47714 -4.12539)
(192.305 1.02169 -5.03146)
(190.66 0.545495 -5.62374)
(188.69 0.0558816 -5.70997)
(186.653 -0.424273 -5.18378)
(194.61 2.43374 2.11267)
(195.401 2.09339 1.05435)
(195.872 1.68953 -0.159431)
(195.971 1.25058 -1.49378)
(195.626 0.787744 -2.89629)
(194.768 0.306325 -4.29041)
(193.343 -0.188824 -5.54201)
(191.342 -0.695396 -6.46511)
(188.846 -1.20867 -6.78562)
(186.191 -1.68965 -6.31392)
(195.123 3.31136 1.98117)
(196.056 2.92767 0.921042)
(196.643 2.48685 -0.304708)
(196.827 2.02687 -1.69832)
(196.52 1.56589 -3.20531)
(195.627 1.111 -4.75878)
(194.055 0.666576 -6.21427)
(191.757 0.223772 -7.36099)
(188.773 -0.234147 -7.83525)
(185.502 -0.712054 -7.37513)
(195.647 1.72278 2.99038)
(196.67 1.20361 1.90434)
(197.333 0.670416 0.588017)
(197.583 0.157167 -0.911625)
(197.314 -0.320706 -2.56986)
(196.416 -0.75068 -4.32151)
(194.761 -1.12084 -6.03804)
(192.257 -1.44311 -7.49548)
(188.879 -1.70966 -8.29087)
(185.043 -1.99085 -8.01407)
(195.237 2.7292 2.42818)
(196.298 2.13064 1.44984)
(197.022 1.57632 0.269865)
(197.32 1.05942 -1.12942)
(197.086 0.626883 -2.71134)
(196.192 0.29908 -4.42575)
(194.493 0.1042 -6.16106)
(191.847 0.0497049 -7.67392)
(188.21 0.124689 -8.59944)
(183.932 0.191376 -8.28377)
(187.386 0.434125 -0.0796167)
(187.408 0.394224 -0.151265)
(187.399 0.350863 -0.241938)
(187.368 0.31392 -0.321792)
(187.316 0.279143 -0.393674)
(187.251 0.24757 -0.451832)
(187.185 0.221811 -0.4789)
(187.175 0.186191 -0.500953)
(187.441 0.107052 -0.465278)
(188.571 -0.138632 -0.462991)
(188.726 1.50769 -0.519713)
(188.762 1.5332 -0.679826)
(188.748 1.51997 -0.81099)
(188.684 1.47444 -0.920601)
(188.574 1.4088 -1.00074)
(188.422 1.33066 -1.04192)
(188.24 1.24803 -1.03546)
(188.041 1.16689 -0.974793)
(187.839 1.09672 -0.854307)
(187.649 1.0427 -0.690192)
(189.794 1.36812 -0.0918722)
(189.886 1.31121 -0.394618)
(189.889 1.2156 -0.694425)
(189.8 1.09195 -0.975874)
(189.62 0.946991 -1.22181)
(189.358 0.785492 -1.41045)
(189.026 0.611642 -1.52062)
(188.648 0.429765 -1.53459)
(188.25 0.245795 -1.43703)
(187.868 0.0681813 -1.24141)
(190.784 2.18762 -0.0922471)
(190.97 2.13723 -0.53041)
(191.022 2.02487 -0.96657)
(190.928 1.86536 -1.39319)
(190.685 1.67324 -1.78155)
(190.297 1.45697 -2.09726)
(189.783 1.22422 -2.30226)
(189.172 0.983425 -2.3599)
(188.511 0.745495 -2.23928)
(187.866 0.526027 -1.93434)
(191.791 1.8093 0.633778)
(192.101 1.67467 0.0269182)
(192.231 1.4817 -0.619312)
(192.157 1.24436 -1.27731)
(191.868 0.973163 -1.90773)
(191.36 0.675036 -2.46207)
(190.646 0.35759 -2.88034)
(189.763 0.029148 -3.09944)
(188.778 -0.299181 -3.05405)
(187.798 -0.605604 -2.72409)
(192.534 2.59468 0.729624)
(192.987 2.43117 0.0145688)
(193.213 2.19905 -0.759594)
(193.181 1.92023 -1.5755)
(192.864 1.60864 -2.38353)
(192.243 1.27122 -3.12435)
(191.322 0.91517 -3.71471)
(190.139 0.546072 -4.05971)
(188.773 0.172286 -4.04912)
(187.389 -0.191191 -3.63211)
(193.349 1.83748 1.6031)
(193.942 1.57194 0.763514)
(194.269 1.25154 -0.188995)
(194.291 0.900073 -1.21391)
(193.963 0.527747 -2.26324)
(193.251 0.141179 -3.26892)
(192.138 -0.254121 -4.12931)
(190.651 -0.653664 -4.71496)
(188.877 -1.05076 -4.86338)
(187.039 -1.41356 -4.46547)
(193.798 2.77406 1.39493)
(194.512 2.47848 0.545286)
(194.93 2.13067 -0.424313)
(195.009 1.76493 -1.50521)
(194.688 1.39709 -2.64331)
(193.914 1.03532 -3.77234)
(192.648 0.684802 -4.77535)
(190.894 0.340099 -5.49904)
(188.732 -0.0102722 -5.71398)
(186.438 -0.371099 -5.2721)
(194.317 1.18522 2.40815)
(195.113 0.765554 1.51323)
(195.595 0.330245 0.433817)
(195.72 -0.0869402 -0.769367)
(195.416 -0.474413 -2.06799)
(194.612 -0.819491 -3.38964)
(193.245 -1.11269 -4.62304)
(191.294 -1.36395 -5.59154)
(188.811 -1.56339 -6.03662)
(186.106 -1.76252 -5.71253)
(193.898 2.37155 1.77186)
(194.726 1.89081 0.974437)
(195.259 1.44663 0.017413)
(195.42 1.03663 -1.09748)
(195.134 0.699166 -2.32834)
(194.316 0.451865 -3.61362)
(192.889 0.313689 -4.85058)
(190.798 0.285721 -5.83807)
(188.093 0.351953 -6.33782)
(185.075 0.404955 -5.92564)
(187.629 0.230376 -0.0223267)
(187.648 0.203974 -0.0584553)
(187.646 0.174383 -0.11699)
(187.63 0.151975 -0.166555)
(187.604 0.131172 -0.213986)
(187.57 0.112917 -0.255681)
(187.538 0.100051 -0.275678)
(187.556 0.0777813 -0.303462)
(187.83 0.0150743 -0.281516)
(188.989 -0.218771 -0.311509)
(188.677 1.17876 -0.454642)
(188.701 1.21941 -0.547469)
(188.695 1.22815 -0.61504)
(188.66 1.20935 -0.665432)
(188.597 1.1733 -0.69597)
(188.51 1.12664 -0.701614)
(188.405 1.07655 -0.678078)
(188.29 1.02829 -0.621938)
(188.172 0.990563 -0.530706)
(188.056 0.966143 -0.414401)
(189.433 0.931161 -0.0665907)
(189.494 0.893033 -0.265628)
(189.496 0.827675 -0.461852)
(189.44 0.741909 -0.643674)
(189.327 0.639999 -0.799971)
(189.163 0.525262 -0.917293)
(188.957 0.400807 -0.983219)
(188.723 0.269623 -0.98818)
(188.475 0.135369 -0.92389)
(188.231 0.0029402 -0.802959)
(190.194 1.71965 -0.174573)
(190.319 1.69819 -0.472553)
(190.351 1.62621 -0.762267)
(190.284 1.51583 -1.03962)
(190.116 1.37895 -1.28497)
(189.855 1.2229 -1.47556)
(189.515 1.05429 -1.58811)
(189.117 0.880439 -1.60206)
(188.69 0.710437 -1.50267)
(188.267 0.556235 -1.28855)
(190.995 1.31682 0.434282)
(191.211 1.22232 -0.00622521)
(191.293 1.08113 -0.469512)
(191.23 0.903625 -0.932912)
(191.014 0.698549 -1.3669)
(190.649 0.472386 -1.737)
(190.152 0.232044 -2.00416)
(189.553 -0.0149446 -2.13075)
(188.896 -0.259339 -2.08172)
(188.242 -0.48546 -1.85157)
(191.598 2.07965 0.426297)
(191.921 1.96635 -0.104618)
(192.071 1.79609 -0.670465)
(192.025 1.58641 -1.25544)
(191.769 1.34942 -1.81993)
(191.3 1.09206 -2.3187)
(190.631 0.82127 -2.69457)
(189.799 0.542718 -2.88789)
(188.864 0.264457 -2.83694)
(187.925 -0.00486422 -2.52019)
(192.318 1.32666 1.20829)
(192.753 1.12415 0.559661)
(192.976 0.875981 -0.168553)
(192.959 0.601137 -0.937099)
(192.676 0.308708 -1.70509)
(192.114 0.00558049 -2.41707)
(191.276 -0.302694 -2.99995)
(190.199 -0.610603 -3.36736)
(188.957 -0.911453 -3.42745)
(187.691 -1.17911 -3.11763)
(192.68 2.31077 0.923696)
(193.213 2.0912 0.264009)