/*--------------------------------*- C++ -*----------------------------------*\
| =========                 |                                                 |
| \\      /  F ield         | foam-extend: Open Source CFD                    |
|  \\    /   O peration     | Version:     4.0                                |
|   \\  /    A nd           | Web:         http://www.foam-extend.org         |
|    \\/     M anipulation  |                                                 |
\*---------------------------------------------------------------------------*/
FoamFile
{
    version     2.0;
    format      ascii;
    class       volScalarField;
    location    "3850";
    object      divFlux;
}
// * * * * * * * * * * * * * * * * * * * * * * * * * * * * * * * * * * * * * //

dimensions      [1 -3 -1 0 0 0 0];

internalField   nonuniform List<scalar> 
34480
(
2.728e-05
1.01886e-05
1.03314e-05
9.54221e-06
8.8513e-06
8.30902e-06
7.89249e-06
0.000300195
0.000183946
7.04411e-06
8.23848e-06
4.39012e-06
4.25908e-06
3.95507e-06
3.73571e-06
3.63588e-06
3.63089e-06
3.63651e-06
0.0034626
3.51176e-06
2.34995e-06
1.41737e-06
1.39763e-06
1.32826e-06
1.30819e-06
1.35346e-06
1.42741e-06
1.47735e-06
0.00334079
1.45806e-06
8.35042e-07
5.43188e-07
5.38453e-07
5.13825e-07
5.14207e-07
5.42462e-07
5.76941e-07
5.97293e-07
0.000801419
5.91795e-07
3.38163e-07
2.24515e-07
2.25366e-07
2.13125e-07
2.14631e-07
2.27133e-07
2.39831e-07
2.4893e-07
2.51352e-07
2.45199e-07
1.44517e-07
9.89124e-08
9.95997e-08
9.3185e-08
9.53042e-08
9.9657e-08
1.04411e-07
1.08019e-07
1.09222e-07
1.0653e-07
6.93399e-08
4.53102e-08
4.67357e-08
4.23574e-08
4.35793e-08
4.52593e-08
4.74994e-08
4.96885e-08
4.94849e-08
4.86703e-08
3.67929e-08
2.24056e-08
2.37344e-08
2.09852e-08
2.12602e-08
2.20391e-08
2.2314e-08
2.37802e-08
2.4101e-08
2.44217e-08
2.02802e-08
1.55369e-08
1.37041e-08
1.24129e-08
1.22046e-08
1.27461e-08
1.33293e-08
1.32876e-08
1.28294e-08
1.36625e-08
1.22853e-08
1.09585e-08
9.0875e-09
9.46932e-09
8.13293e-09
8.47657e-09
8.74385e-09
8.40021e-09
8.97295e-09
8.70567e-09
3.78604e-05
1.31059e-05
1.31324e-05
1.23089e-05
1.15652e-05
1.10065e-05
1.06361e-05
1.04432e-05
1.04268e-05
0.00106308
1.23238e-05
6.42565e-06
6.21252e-06
5.83837e-06
5.57556e-06
5.46295e-06
5.4688e-06
5.57199e-06
5.75595e-06
0.0034549
3.63113e-06
2.38282e-06
2.30687e-06
2.22483e-06
2.21568e-06
2.29716e-06
2.41519e-06
2.55244e-06
2.69538e-06
0.00431041
1.38106e-06
1.02087e-06
1.01306e-06
9.78448e-07
9.87855e-07
1.03982e-06
1.10063e-06
1.16952e-06
1.23835e-06
0.00149781
5.00291e-07
4.53761e-07
4.80961e-07
4.53457e-07
4.57595e-07
4.85647e-07
5.12543e-07
5.44428e-07
5.76009e-07
5.91694e-07
1.49038e-07
1.99612e-07
2.46201e-07
2.18141e-07
2.18141e-07
2.37415e-07
2.4636e-07
2.61215e-07
2.77561e-07
2.81974e-07
3.96934e-08
7.63875e-08
1.2736e-07
1.17894e-07
1.01566e-07
1.20923e-07
1.21964e-07
1.30057e-07
1.38624e-07
1.40304e-07
9.0678e-08
1.32045e-09
9.96303e-08
5.39256e-08
5.77166e-08
6.58523e-08
6.59374e-08
6.98562e-08
7.49676e-08
7.53723e-08
7.20537e-08
1.56828e-08
4.55769e-08
5.4367e-08
3.33017e-08
4.3331e-08
4.11238e-08
4.34859e-08
4.73582e-08
4.81714e-08
1.63953e-07
2.59476e-08
1.67896e-08
4.30922e-08
2.83613e-08
3.24789e-08
3.21594e-08
3.42537e-08
3.6277e-08
3.78832e-08
3.52279e-05
9.94195e-06
1.02516e-05
9.66337e-06
9.10788e-06
8.7121e-06
8.49378e-06
8.46708e-06
3.30748e-05
0.000871704
1.084e-05
4.63787e-06
4.56219e-06
4.27901e-06
4.04529e-06
3.88972e-06
3.84057e-06
3.92689e-06
8.02296e-05
0.00135214
3.09977e-06
1.66862e-06
1.61069e-06
1.52888e-06
1.46679e-06
1.44018e-06
1.46612e-06
1.55858e-06
0.000119923
0.00127377
1.15228e-06
6.6264e-07
6.51256e-07
6.19181e-07
5.95918e-07
5.87173e-07
6.00009e-07
6.44656e-07
7.23819e-07
9.05226e-07
4.65028e-07
2.77413e-07
2.81486e-07
2.63101e-07
2.52183e-07
2.49355e-07
2.54219e-07
2.74019e-07
3.11326e-07
3.96698e-07
1.99405e-07
1.19636e-07
1.29832e-07
1.15527e-07
1.12508e-07
1.09538e-07
1.11815e-07
1.21467e-07
1.39336e-07
1.8002e-07
8.86439e-08
5.47773e-08
6.34009e-08
5.27974e-08
5.14775e-08
5.12135e-08
5.17855e-08
5.61412e-08
6.47648e-08
8.56995e-08
4.28544e-08
2.364e-08
3.81725e-08
2.38776e-08
2.66495e-08
2.63723e-08
2.55011e-08
2.89858e-08
3.29852e-08
4.43548e-08
3.42917e-08
1.88631e-08
2.0519e-08
1.74951e-08
1.58392e-08
1.54072e-08
1.61632e-08
1.69192e-08
1.9835e-08
2.69244e-08
2.75201e-08
1.52123e-08
9.70152e-09
1.25064e-08
1.01635e-08
1.10875e-08
1.06915e-08
1.12194e-08
1.27704e-08
2.00671e-08
3.47548e-05
8.98516e-06
9.34233e-06
8.83381e-06
8.34725e-06
8.00487e-06
7.82918e-06
7.82348e-06
1.78168e-05
0.000371921
1.07484e-05
4.33265e-06
4.28871e-06
4.02467e-06
3.8021e-06
3.6439e-06
3.56747e-06
3.59365e-06
3.41048e-05
0.00114327
3.13204e-06
1.63621e-06
1.57274e-06
1.4844e-06
1.41206e-06
1.36354e-06
1.35452e-06
1.40153e-06
0.000121454
0.0022894
1.19243e-06
6.63256e-07
6.43561e-07
6.10369e-07
5.81534e-07
5.62453e-07
5.6141e-07
5.85706e-07
0.00011301
0.00210565
4.98795e-07
2.77981e-07
2.78507e-07
2.64466e-07
2.51161e-07
2.42274e-07
2.41485e-07
2.5337e-07
4.50958e-05
0.00157011
2.24289e-07
1.17982e-07
1.29439e-07
1.17706e-07
1.12138e-07
1.08779e-07
1.07306e-07
1.14254e-07
1.07335e-05
0.000987232
1.10506e-07
4.94913e-08
6.34389e-08
5.40315e-08
5.25999e-08
5.04321e-08
4.99413e-08
5.33361e-08
6.12711e-08
0.000415031
6.29038e-08
1.71175e-08
3.82106e-08
2.60259e-08
2.70934e-08
2.54001e-08
2.5621e-08
2.69094e-08
3.1474e-08
0.000156164
3.51197e-08
1.71677e-08
2.0213e-08
1.70338e-08
1.65653e-08
1.68999e-08
1.62306e-08
1.75358e-08
1.93429e-08
2.61991e-08
1.91685e-08
1.73015e-08
9.35632e-09
1.28534e-08
1.10742e-08
1.09208e-08
1.07674e-08
1.17798e-08
1.36817e-08
1.87606e-08
3.3854e-05
8.0068e-06
8.39077e-06
7.95792e-06
7.53455e-06
7.23402e-06
7.07147e-06
7.05639e-06
2.2147e-05
0.000141585
1.04895e-05
3.96418e-06
3.94967e-06
3.7144e-06
3.51361e-06
3.37069e-06
3.29087e-06
3.27902e-06
4.40713e-06
0.000578458
3.0937e-06
1.55824e-06
1.50376e-06
1.41694e-06
1.34405e-06
1.29234e-06
1.26524e-06
1.27338e-06
7.62009e-05
0.00133444
1.19021e-06
6.50665e-07
6.25997e-07
5.93657e-07
5.64113e-07
5.4204e-07
5.31004e-07
5.37306e-07
7.87874e-05
0.00142034
5.03967e-07
2.78612e-07
2.71376e-07
2.58763e-07
2.45906e-07
2.35933e-07
2.32071e-07
2.35297e-07
5.29747e-05
0.00127975
2.34615e-07
1.17038e-07
1.25422e-07
1.17465e-07
1.11305e-07
1.06899e-07
1.04376e-07
1.06343e-07
4.01693e-05
0.0010158
1.20786e-07
4.68835e-08
6.27014e-08
5.45643e-08
5.20547e-08
5.01535e-08
4.9279e-08
5.02296e-08
5.86066e-06
0.000666732
7.57493e-08
1.44415e-08
3.69592e-08
2.63506e-08
2.68639e-08
2.54608e-08
2.54266e-08
2.60083e-08
8.63918e-06
0.00049939
3.7755e-08
1.5773e-08
2.03151e-08
1.80752e-08
1.63641e-08
1.59286e-08
1.61463e-08
1.64885e-08
1.89774e-08
0.00030592
1.37514e-08
1.828e-08
9.5535e-09
1.18349e-08
1.07513e-08
1.07798e-08
1.08083e-08
1.12931e-08
1.28331e-08
0.000403103
3.24099e-05
7.00279e-06
7.39889e-06
7.04022e-06
6.67479e-06
6.41109e-06
6.26445e-06
6.23131e-06
6.31827e-06
2.30029e-05
1.0054e-05
3.56626e-06
3.57142e-06
3.36452e-06
3.1874e-06
3.05895e-06
2.9828e-06
2.95949e-06
1.63359e-05
0.00022222
3.02249e-06
1.44503e-06
1.40418e-06
1.32433e-06
1.25791e-06
1.20643e-06
1.17446e-06
1.16399e-06
3.47833e-05
0.000718236
1.15756e-06
6.19807e-07
5.97511e-07
5.64875e-07
5.37754e-07
5.16254e-07
5.0162e-07
4.96529e-07
4.15078e-05
0.000847925
4.87847e-07
2.75141e-07
2.61598e-07
2.49645e-07
2.37465e-07
2.2833e-07
2.21013e-07
2.19968e-07
3.6903e-05
0.000863469
2.30766e-07
1.17869e-07
1.2105e-07
1.13932e-07
1.08245e-07
1.0403e-07
1.01644e-07
1.00411e-07
3.52751e-05
0.000779769
1.23167e-07
4.77203e-08
5.93852e-08
5.34114e-08
5.15026e-08
4.90989e-08
4.7897e-08
4.82505e-08
1.93855e-05
0.000594347
8.17968e-08
1.34253e-08
3.45177e-08
2.70415e-08
2.66279e-08
2.61507e-08
2.45919e-08
2.52917e-08
2.62396e-05
0.00052451
3.96105e-08
1.49234e-08
1.9146e-08
1.6919e-08
1.63984e-08
1.60514e-08
1.582e-08
1.65141e-08
9.58055e-06
0.000447257
1.12041e-08
1.86374e-08
1.02864e-08
1.20096e-08
1.03394e-08
1.07901e-08
1.09226e-08
1.08961e-08
2.6151e-05
0.000523936
3.06032e-05
6.02915e-06
6.41336e-06
6.12226e-06
5.80976e-06
5.57505e-06
5.43714e-06
5.39642e-06
5.445e-06
3.26194e-06
9.43127e-06
3.1463e-06
3.17051e-06
2.98999e-06
2.83472e-06
2.72038e-06
2.64936e-06
2.62219e-06
1.11201e-05
7.07632e-05
2.90112e-06
1.31215e-06
1.28074e-06
1.2092e-06
1.14973e-06
1.10362e-06
1.07248e-06
1.05523e-06
1.32521e-05
0.000377948
1.11567e-06
5.72251e-07
5.56034e-07
5.26706e-07
5.00507e-07
4.80076e-07
4.66668e-07
4.58437e-07
1.63903e-05
0.00049035
4.5999e-07
2.61781e-07
2.47923e-07
2.35628e-07
2.24939e-07
2.15559e-07
2.09011e-07
2.05926e-07
1.75734e-05
0.000542817
2.18156e-07
1.16193e-07
1.14603e-07
1.0854e-07
1.0403e-07
9.94828e-08
9.62665e-08
9.51575e-08
2.02859e-05
0.000536723
1.16956e-07
4.94231e-08
5.59624e-08
5.26106e-08
4.93573e-08
4.80758e-08
4.63341e-08
4.59727e-08
1.60109e-05
0.00044183
8.41138e-08
1.41664e-08
3.16748e-08
2.66175e-08
2.51979e-08
2.38966e-08
2.43994e-08
2.41628e-08
2.5782e-05
0.000433471
3.98928e-08
1.52983e-08
1.73955e-08
1.69922e-08
1.58092e-08
1.52983e-08
1.55672e-08
1.57285e-08
1.95265e-05
0.000409449
9.37003e-09
1.70795e-08
1.00308e-08
1.10167e-08
1.02773e-08
1.01787e-08
1.00308e-08
1.09674e-08
3.32678e-05
0.000469366
2.83961e-05
5.08461e-06
5.45264e-06
5.22515e-06
4.96183e-06
4.76309e-06
4.63846e-06
4.5916e-06
4.62219e-06
4.91358e-06
8.66632e-06
2.71458e-06
2.75276e-06
2.60337e-06
2.46837e-06
2.36943e-06
2.30392e-06
2.2744e-06
3.48029e-06
1.41633e-05
2.72225e-06
1.16863e-06
1.14334e-06
1.08087e-06
1.02676e-06
9.85795e-07
9.56542e-07
9.38808e-07
4.65472e-06
0.000180618
1.06364e-06
5.17734e-07
5.06049e-07
4.79609e-07
4.56835e-07
4.38482e-07
4.2414e-07
4.14769e-07
5.22568e-06
0.000266951
4.30833e-07
2.40415e-07
2.29535e-07
2.18498e-07
2.0809e-07
1.99488e-07
1.934e-07
1.88923e-07
5.81552e-06
0.000321845
2.00411e-07
1.11179e-07
1.07433e-07
1.01934e-07
9.66756e-08
9.33076e-08
9.06269e-08
8.85649e-08
8.07813e-06
0.000350218
1.06297e-07
4.90309e-08
5.25745e-08
4.89392e-08
4.68619e-08
4.46318e-08
4.38376e-08
4.27683e-08
8.92548e-06
0.000302957
7.95219e-08
1.6084e-08
2.84012e-08
2.57618e-08
2.39197e-08
2.36998e-08
2.32049e-08
2.2655e-08
1.92777e-05
0.000326089
3.79453e-08
1.57465e-08
1.59715e-08
1.68713e-08
1.54966e-08
1.48467e-08
1.47967e-08
1.47967e-08
1.83041e-05
0.000312282
9.20313e-09
1.59236e-08
1.0104e-08
1.0379e-08
1.03331e-08
9.57706e-09
9.59997e-09
9.82908e-09
3.06705e-05
0.000367172
2.59471e-05
4.19731e-06
4.53765e-06
4.36551e-06
4.14956e-06
3.97942e-06
3.87352e-06
3.82802e-06
3.84444e-06
4.06605e-06
7.84143e-06
2.30079e-06
2.34449e-06
2.2219e-06
2.10813e-06
2.02181e-06
1.96478e-06
1.93606e-06
1.92407e-06
8.71562e-07
2.47039e-06
1.01445e-06
9.97172e-07
9.42756e-07
8.97005e-07
8.59791e-07
8.34052e-07
8.16391e-07
1.36451e-06
7.95744e-05
9.9262e-07
4.57193e-07
4.4944e-07
4.26585e-07
4.06138e-07
3.90334e-07
3.7732e-07
3.68054e-07
1.50638e-06
0.000135592
4.02403e-07
2.17035e-07
2.07286e-07
1.97062e-07
1.87971e-07
1.8023e-07
1.75045e-07
1.707e-07
1.00956e-06
0.00017698
1.83308e-07
1.01662e-07
9.79881e-08
9.35791e-08
8.90423e-08
8.57835e-08
8.30678e-08
1.22941e-05
1.49998e-06
0.000214972
9.26342e-08
4.78528e-08
4.81652e-08
4.5382e-08
4.29397e-08
4.21729e-08
4.05541e-08
3.94466e-08
3.62727e-06
0.000190293
7.18437e-08
1.73037e-08
2.58405e-08
2.44858e-08
2.25178e-08
2.19555e-08
2.14954e-08
1.01631e-05
1.25249e-05
0.000227574
3.20223e-08
1.72177e-08
1.40344e-08
1.4685e-08
1.40112e-08
1.34767e-08
1.3407e-08
1.36162e-08
1.37138e-05
0.000214482
8.87471e-09
1.45475e-08
9.66995e-09
1.00107e-08
9.13746e-09
9.24396e-09
9.05227e-09
4.817e-06
2.45362e-05
0.000264807
2.34459e-05
3.4043e-06
3.71291e-06
3.58829e-06
3.41321e-06
3.27159e-06
3.17548e-06
3.12994e-06
3.13103e-06
3.27533e-06
6.92298e-06
1.90218e-06
1.94955e-06
1.85255e-06
1.75982e-06
1.68753e-06
1.63819e-06
1.61229e-06
1.60151e-06
1.50374e-06
2.1924e-06
8.61854e-07
8.49047e-07
8.02214e-07
7.63674e-07
7.32476e-07
7.09e-07
6.9251e-07
8.7535e-08
3.14955e-05
8.99127e-07
3.9449e-07
3.89995e-07
3.70155e-07
3.53601e-07
3.38275e-07
3.27227e-07
3.18415e-07
3.75659e-07
6.42228e-05
3.69648e-07
1.90257e-07
1.82891e-07
1.73522e-07
1.66258e-07
1.59435e-07
1.53529e-07
1.49524e-07
4.18327e-07
9.10445e-05
1.6709e-07
9.05883e-08
8.76182e-08
8.32224e-08
7.98068e-08
7.63318e-08
7.37478e-08
1.76066e-05
1.29901e-06
0.000125673
8.07325e-08
4.40104e-08
4.33768e-08
4.13439e-08
3.96014e-08
3.74894e-08
3.61693e-08
3.60901e-08
8.5518e-07
0.000109076
6.1596e-08
1.82721e-08
2.24303e-08
2.21451e-08
2.04581e-08
2.04819e-08
1.94364e-08
1.89853e-05
7.48196e-06
0.000150304
2.48173e-08
1.83391e-08
1.28525e-08
1.37813e-08
1.32629e-08
1.25501e-08
1.25285e-08
1.24205e-08
8.88283e-06
0.000136562
8.90769e-09
1.24943e-08
9.52415e-09
8.85092e-09
8.55391e-09
8.1975e-09
8.09849e-09
1.01454e-05
1.80204e-05
0.000180547
2.05601e-05
2.64762e-06
2.92673e-06
2.85538e-06
2.73065e-06
2.62695e-06
2.5558e-06
2.52694e-06
2.53504e-06
2.66135e-06
5.98713e-06
1.54032e-06
1.58364e-06
1.50901e-06
1.43382e-06
1.37531e-06
1.33412e-06
1.31056e-06
1.29715e-06
1.20762e-06
1.89201e-06
7.15461e-07
7.05035e-07
6.666e-07
6.34173e-07
6.07976e-07
5.87742e-07
5.74489e-07
5.61368e-07
1.06853e-05
7.92742e-07
3.30635e-07
3.28849e-07
3.12927e-07
2.97538e-07
2.85647e-07
2.76167e-07
2.68178e-07
3.3704e-08
2.73184e-05
3.29036e-07
1.62953e-07
1.56895e-07
1.48879e-07
1.42695e-07
1.3692e-07
1.32029e-07
1.28021e-07
5.81886e-07
4.39733e-05
1.51437e-07
7.8609e-08
7.63725e-08
7.22584e-08
6.95525e-08
6.67086e-08
6.41684e-08
1.68758e-05
2.23181e-06
7.13797e-05
7.08233e-08
3.87538e-08
3.78457e-08
3.66431e-08
3.44587e-08
3.31334e-08
3.25198e-08
3.10963e-08
1.88885e-07
5.67124e-05
5.15451e-08
1.84664e-08
1.92616e-08
1.9615e-08
1.90628e-08
1.75386e-08
9.2133e-07
2.11303e-05
4.13766e-06
9.6332e-05
1.52949e-08
1.87555e-08
1.13055e-08
1.21891e-08
1.15666e-08
1.15264e-08
1.10244e-08
1.09039e-08
4.92134e-06
8.00445e-05
8.75878e-09
9.94002e-09
8.94602e-09
7.54705e-09
7.82317e-09
7.32617e-09
7.36298e-09
1.11933e-05
1.24578e-05
0.000117917
1.82551e-05
1.98467e-06
2.20385e-06
2.14442e-06
2.03615e-06
1.93674e-06
1.86292e-06
1.81431e-06
1.78381e-06
1.80497e-06
5.03939e-06
1.22081e-06
1.25492e-06
1.19427e-06
1.135e-06
1.08572e-06
1.05145e-06
1.03135e-06
1.02216e-06
9.46869e-07
1.57894e-06
5.75669e-07
5.69837e-07
5.38542e-07
5.11765e-07
4.90203e-07
4.73242e-07
4.61907e-07
4.50202e-07
3.25482e-06
6.84611e-07
2.69192e-07
2.69979e-07
2.56752e-07
2.45526e-07
2.3442e-07
2.26651e-07
2.19327e-07
2.12482e-07
8.88837e-06
2.81764e-07
1.35353e-07
1.31187e-07
1.24968e-07
1.19101e-07
1.13733e-07
1.09626e-07
1.06751e-07
3.8875e-07
1.97306e-05
1.33086e-07
6.63269e-08
6.42221e-08
6.17323e-08
5.83954e-08
5.63163e-08
1.23113e-06
1.43121e-05
2.34431e-06
3.98566e-05
6.29461e-08
3.21253e-08
3.28098e-08
3.12583e-08
2.98665e-08
2.82694e-08
2.74024e-08
2.69004e-08
2.45184e-07
2.54137e-05
4.20165e-08
1.76598e-08
1.66947e-08
1.67974e-08
1.58528e-08
1.52162e-08
1.64315e-05
2.02619e-05
2.04692e-06
6.10678e-05
6.99768e-09
1.73051e-08
1.07714e-08
1.0286e-08
1.0118e-08
9.53928e-09
9.65129e-09
9.68863e-09
2.09366e-06
4.16306e-05
1.12926e-08
7.08446e-09
8.4021e-09
6.87911e-09
6.57109e-09
6.82777e-09
6.48553e-09
1.01303e-05
8.23447e-06
7.44426e-05
1.73085e-05
2.01147e-06
2.25276e-06
2.27244e-06
2.23609e-06
2.19379e-06
2.16144e-06
2.16196e-06
2.19333e-06
2.29146e-06
3.92158e-06
9.18002e-07
9.58854e-07
9.29694e-07
8.95237e-07
8.63286e-07
8.38254e-07
8.17828e-07
7.98476e-07
7.10612e-07
1.27762e-06
4.43168e-07
4.44543e-07
4.21502e-07
4.01438e-07
3.84219e-07
3.72384e-07
3.61617e-07
2.70979e-07
2.14937e-06
5.72083e-07
2.11371e-07
2.13392e-07
2.04674e-07
1.94413e-07
1.8665e-07
1.80207e-07
1.74003e-07
1.68435e-07
3.52069e-08
2.34928e-07
1.08648e-07
1.05621e-07
1.00521e-07
9.58032e-08
9.23126e-08
8.86037e-08
8.54675e-08
2.01533e-07
8.26206e-06
1.12554e-07
5.38331e-08
5.31649e-08
5.01344e-08
4.79153e-08
4.58631e-08
8.9084e-06
1.17116e-05
2.15721e-06
2.2205e-05
5.48597e-08
2.71711e-08
2.64287e-08
2.57712e-08
2.46046e-08
2.3947e-08
2.23774e-08
2.22926e-08
2.11684e-08
8.05153e-06
2.95484e-06
1.64744e-08
1.36492e-08
1.38592e-08
1.35919e-08
1.57287e-05
2.42132e-05
1.84088e-05
7.89495e-07
3.90333e-05
3.72304e-10
1.47685e-08
9.90931e-09
8.2433e-09
8.79864e-09
8.22594e-09
8.0524e-09
7.79209e-09
2.90407e-07
1.69599e-05
1.51488e-08
4.05657e-09
6.93594e-09
6.20417e-09
5.21786e-09
5.2815e-09
1.96694e-06
8.31161e-06
5.27082e-06
4.5782e-05
2.23353e-07
1.4658e-06
1.60802e-06
1.60428e-06
1.57122e-06
1.54571e-06
1.49421e-06
1.38658e-06
1.20423e-06
9.31599e-07
3.72092e-06
7.76609e-07
7.28405e-07
6.61124e-07
6.12698e-07
5.77582e-07
5.60434e-07
5.59347e-07
5.70483e-07
5.39178e-07
5.86874e-05
6.87517e-06
9.48785e-06
7.20563e-06
5.92733e-06
4.97749e-06
3.80073e-06
1.56583e-06
1.67823e-06
3.91377e-06
4.67451e-07
1.58831e-07
1.63638e-07
1.56702e-07
1.49307e-07
1.42312e-07
1.37639e-07
1.32197e-07
1.27376e-07
1.07768e-07
1.89499e-07
8.35353e-08
8.23438e-08
7.80846e-08
7.5017e-08
7.14423e-08
6.86536e-08
6.6448e-08
1.28459e-07
3.55384e-06
9.79057e-06
4.24807e-08
4.15268e-08
3.99962e-08
3.75782e-08
7.39386e-06
1.19352e-05
9.61295e-06
1.91784e-06
1.26046e-05
4.6448e-08
2.15127e-08
2.1e-08
2.06254e-08
1.94817e-08
1.86733e-08
1.82197e-08
1.73719e-08
1.68986e-08
1.56224e-08
5.02791e-05
4.56827e-05
4.10983e-05
3.65072e-05
3.47253e-05
3.23212e-05
2.75617e-05
1.65603e-05
3.63271e-08
2.57705e-05
2.76842e-09
9.88964e-09
9.06685e-09
7.25993e-09
6.8566e-09
6.64687e-09
6.46941e-09
6.72754e-09
5.96928e-09
2.04313e-06
1.92106e-08
1.9669e-09
5.27958e-09
4.92465e-09
4.65846e-09
4.54015e-09
5.084e-06
6.37031e-06
3.28081e-06
2.75111e-05
8.7665e-05
1.12906e-05
1.1482e-05
1.09874e-05
1.05283e-05
9.81699e-06
8.78572e-06
7.511e-06
6.073e-06
4.50648e-06
1.40926e-07
2.52581e-07
3.37751e-07
3.99184e-07
4.38655e-07
4.4577e-07
4.33025e-07
4.25457e-07
4.40532e-07
4.61073e-07
0.000201053
0.000127957
6.98293e-05
3.98788e-05
2.24796e-05
1.26562e-05
6.52894e-06
1.58374e-06
3.76483e-06
7.06112e-06
3.6897e-07
1.12694e-07
1.16914e-07
1.13793e-07
1.09545e-07
1.06369e-07
1.012e-07
9.83955e-08
9.40373e-08
7.84251e-08
1.47589e-07
6.09004e-08
6.06411e-08
5.82607e-08
5.56918e-08
5.317e-08
5.14966e-08
1.82465e-07
1.62857e-07
2.09969e-06
3.93897e-05
3.00252e-05
1.96751e-05
1.5748e-05
1.50422e-05
1.43088e-05
1.23483e-05
7.94481e-06
1.7074e-06
7.41034e-06
3.80504e-08
1.62228e-08
1.65528e-08
1.55446e-08
1.50863e-08
1.4463e-08
1.41881e-08
1.29233e-08
1.29966e-08
1.19653e-08
0.000219248
4.34904e-05
7.9925e-05
7.01189e-05
5.46368e-05
4.07359e-05
2.86655e-05
1.51605e-05
4.45638e-07
1.8082e-05
4.38046e-10
5.1893e-09
7.25902e-09
5.80422e-09
5.39927e-09
5.41427e-09
5.1743e-09
4.72436e-09
5.02432e-09
5.20837e-09
2.13706e-08
1.59478e-09
3.712e-09
3.57452e-09
3.87698e-09
3.3133e-09
5.26516e-06
4.37036e-06
1.92374e-06
1.57438e-05
0.000246242
2.682e-05
3.13661e-05
3.07538e-05
2.7021e-05
2.19351e-05
1.66358e-05
1.16316e-05
6.99252e-06
2.52054e-06
7.28066e-06
1.81982e-06
1.23119e-06
9.08597e-07
7.79844e-07
6.90813e-07
5.676e-07
3.65805e-07
3.85723e-08
4.67229e-07
0.000340784
0.000241576
0.00011734
6.11402e-05
3.07971e-05
1.501e-05
6.19216e-06
1.75301e-08
6.70245e-06
1.12541e-05
2.76368e-07
7.70808e-08
7.96114e-08
7.74259e-08
7.39111e-08
7.1994e-08
6.96679e-08
6.87733e-08
6.57315e-08
5.40426e-08
1.83863e-05
4.21984e-08
4.27024e-08
2.17959e-07
1.6047e-06
2.42453e-06
2.47612e-06
1.6393e-06
2.39037e-07
1.84354e-06
3.98318e-05
4.50302e-05
3.52099e-05
2.63167e-05
1.99988e-05
1.5154e-05
1.09234e-05
6.3375e-06
1.48814e-06
4.41309e-06
2.91157e-08
1.22866e-08
1.09574e-08
1.11789e-08
1.0787e-08
1.01394e-08
1.00712e-08
9.59409e-09
9.0147e-09
8.39401e-09
0.000486764
1.65218e-05
8.40068e-05
8.30348e-05
6.35081e-05
4.44095e-05
2.87401e-05
1.42883e-05
8.10694e-07
1.37676e-05
9.07449e-09
5.85591e-10
4.6429e-09
4.78233e-09
3.58326e-09
3.93183e-09
3.68086e-09
3.55538e-09
3.58326e-09
3.74738e-09
1.68644e-08
2.35166e-09
2.30054e-09
2.56893e-09
2.85011e-09
3.69492e-08
2.9101e-06
2.17548e-06
9.2001e-07
7.58704e-06
0.00074518
0.000103437
9.40115e-05
6.93757e-05
4.77929e-05
3.1295e-05
1.90901e-05
9.88498e-06
2.40321e-06
4.45422e-06
1.57555e-05
2.32966e-06
2.32271e-06
2.2277e-06
1.84319e-06
1.23221e-06
4.6801e-07
4.40422e-07
1.56188e-06
2.87692e-06
0.000488329
0.000365342
0.000159289
7.48895e-05
3.29869e-05
1.3118e-05
3.23585e-06
3.08194e-06
1.05019e-05
1.64091e-05
2.02391e-07
5.28843e-08
5.32527e-08
4.84525e-08
4.48762e-08
4.17158e-08
3.92207e-08
3.69869e-08
3.57275e-08
3.46906e-08
5.89661e-05
3.53711e-05
2.04409e-05
1.3184e-05
8.94443e-06
6.16095e-06
4.03459e-06
2.09847e-06
2.79065e-07
1.62986e-06
2.92398e-05
3.7151e-05
3.07068e-05
2.28645e-05
1.65955e-05
1.17776e-05
7.92336e-06
4.42125e-06
1.15652e-06
2.41224e-06
2.04741e-08
8.82396e-09
7.71502e-09
7.01798e-09
7.08134e-09
6.98629e-09
6.05162e-09
6.3843e-09
5.67141e-09
5.45017e-09
0.000834408
0.000119425
6.16156e-05
7.95773e-05
6.31393e-05
4.36323e-05
2.73048e-05
1.33246e-05
1.10512e-06
1.09998e-05
2.11202e-08
1.69797e-09
2.57935e-09
2.69601e-09
3.07189e-09
2.24235e-09
2.61824e-09
2.76082e-09
2.11274e-09
2.44201e-09
7.29256e-09
3.30304e-09
1.42577e-09
2.25748e-09
1.604e-09
1.61588e-09
2.00796e-09
2.60857e-07
2.46647e-07
2.15116e-06
0.00274934
5.58503e-05
4.20467e-05
2.33187e-05
1.04038e-05
2.43502e-06
2.57067e-06
6.15814e-06
9.44768e-06
1.31027e-05
1.69207e-05
1.26891e-05
9.43921e-06
6.45482e-06
3.90921e-06
1.81636e-06
3.23741e-08
1.65325e-06
3.47079e-06
5.39909e-06
0.000554274
0.000459839
0.000178386
7.48654e-05
2.78311e-05
7.79068e-06
8.05357e-07
5.71818e-06
1.2166e-05
1.86257e-05
1.10723e-07
3.58092e-08
3.46826e-08
3.14573e-08
2.56916e-08
2.1395e-08
1.48119e-08
9.83042e-09
2.09863e-09
1.29737e-08
5.06108e-05
3.42723e-05
1.93694e-05
1.20535e-05
7.73832e-06
4.9914e-06
3.0641e-06
1.53692e-06
2.26481e-07
1.05225e-06
1.65452e-05
1.99969e-05
1.69667e-05
1.26791e-05
9.08569e-06
6.2994e-06
4.12463e-06
2.28582e-06
6.74207e-07
1.00376e-06
1.19085e-08
5.33125e-09
5.31653e-09
4.3298e-09
4.4918e-09
3.93217e-09
4.06471e-09
3.63762e-09
3.53453e-09
2.95024e-09
0.0010678
0.000215541
2.0534e-05
5.76928e-05
4.97541e-05
3.49306e-05
2.17221e-05
1.06571e-05
1.16864e-06
7.8937e-06
2.63329e-08
1.80743e-10
7.10923e-10
1.68694e-09
1.61464e-09
1.62669e-09
1.39775e-09
1.3857e-09
1.91588e-09
1.26779e-09
1.22882e-06
7.94751e-07
1.53531e-09
9.3886e-10
1.32545e-09
4.95685e-07
8.04449e-07
3.80404e-07
2.02496e-07
1.24807e-06
0.00220647
0.00065433
0.000460966
0.000314075
0.000219114
0.000150546
9.74564e-05
5.57001e-05
1.22477e-05
2.27524e-05
1.1346e-05
7.14046e-06
3.44986e-06
7.72903e-07
7.92896e-07
1.70557e-06
2.32926e-06
2.89366e-06
3.51488e-06
3.9119e-06
0.000287187
0.000372624
0.000125003
4.62623e-05
1.34139e-05
9.12186e-07
3.66097e-06
6.04554e-06
9.72158e-06
1.44648e-05
5.6707e-08
8.35832e-09
1.7651e-08
2.30316e-08
2.76112e-08
3.17185e-08
3.44293e-08
3.6791e-08
3.86906e-08
3.58877e-08
2.06689e-05
1.52894e-05
8.38435e-06
5.06187e-06
3.14619e-06
1.9657e-06
1.17557e-06
5.88791e-07
1.01092e-07
3.82744e-07
6.23453e-06
5.83883e-06
4.95046e-06
3.69691e-06
2.63201e-06
1.80346e-06
1.16599e-06
6.51271e-07
2.16372e-07
2.31709e-07
4.8009e-09
2.58759e-09
2.30008e-09
2.2727e-09
2.02626e-09
1.9715e-09
1.90304e-09
1.71137e-09
1.57446e-09
1.27351e-09
0.000713971
0.000178245
8.17349e-06
2.39364e-05
2.35922e-05
1.71039e-05
1.0715e-05
5.331e-06
7.28628e-07
3.63237e-06
1.77344e-08
1.20978e-09
4.70471e-10
8.28924e-10
7.28109e-10
7.28109e-10
9.2974e-10
8.51328e-10
3.69656e-10
9.84917e-10
9.12134e-05
0.000129192
8.54021e-05
5.05388e-05
2.88909e-05
1.62692e-05
8.70779e-06
3.49557e-06
8.31941e-07
5.5468e-06
0.00371353
0.000684034
0.000509804
0.000383288
0.000286862
0.000211436
0.000151071
0.000101767
6.00047e-05
2.5835e-05
7.48444e-06
1.59157e-05
1.10683e-05
7.33696e-06
4.78952e-06
3.08665e-06
1.90215e-06
9.72672e-07
5.16183e-08
1.13573e-06
9.74011e-05
8.38467e-05
1.98756e-05
5.6436e-06
3.41686e-07
1.19067e-06
1.48891e-06
1.60073e-06
2.10621e-06
3.34693e-06
2.07511e-08
9.51705e-09
4.41965e-09
8.87749e-10
3.19781e-09
7.9802e-09
1.13212e-08
1.52922e-08
1.6619e-08
2.05519e-08
1.70902e-06
1.78983e-06
9.41063e-07
5.52254e-07
3.33106e-07
2.0226e-07
1.19097e-07
6.0596e-08
1.22076e-08
4.20392e-08
7.93673e-07
4.53855e-07
3.71036e-07
2.72496e-07
1.9141e-07
1.28967e-07
8.20882e-08
4.58766e-08
1.78552e-08
1.43329e-08
2.21159e-09
5.47286e-10
9.03659e-10
3.56372e-10
9.92752e-10
4.58193e-10
4.96376e-10
3.30917e-10
9.80024e-10
2.54552e-10
5.29782e-05
2.82517e-05
2.44916e-06
2.7141e-06
2.99929e-06
2.23725e-06
1.41692e-06
7.16981e-07
1.18672e-07
4.64482e-07
4.20188e-09
1.14548e-09
4.16539e-11
4.26953e-10
4.06126e-10
5.20674e-11
3.12404e-10
4.58193e-10
1.14548e-10
2.91577e-10
0.000264536
0.00016007
9.49464e-05
5.42415e-05
3.0546e-05
1.69925e-05
8.94757e-06
3.6177e-06
7.36374e-07
5.32244e-06
0.526003
0.418963
0.530148
0.919615
0.686122
0.623864
0.739198
1.11566
0.849582
0.791491
0.937844
1.44123
0.616662
0.593203
0.702771
1.09977
0.450527
0.449089
0.533248
0.863324
0.298444
0.294953
0.365857
0.622565
0.198669
0.189643
0.253305
0.455071
0.128237
0.118259
0.169446
0.315611
0.0885593
0.0808996
0.122136
0.231039
0.0667158
0.0615817
0.0993843
0.188108
0.0358247
0.00179178
2.04373e-05
0.0190128
0.0785084
0.00651786
1.52864e-05
0.0409432
0.136614
0.0152002
8.27617e-06
0.0704173
0.124984
0.0170201
4.27837e-06
0.0603785
0.110294
0.0169906
2.20793e-06
0.0489199
0.0853453
0.014238
1.13916e-06
0.0375773
0.0644285
0.0110642
5.97755e-07
0.0305283
0.0464522
0.00833919
3.43597e-07
0.0231996
0.0357367
0.00714448
0.00104075
0.0184368
0.0301121
0.0082474
0.00382223
0.0155063
0.0171009
0.0134482
0.0141262
0.0196792
0.038712
0.0266625
0.026174
0.0408087
0.0749426
0.0486866
0.0492556
0.0796679
0.0710535
0.0430733
0.0446863
0.0749962
0.0651006
0.0370635
0.0395689
0.0699603
0.0519941
0.0280422
0.0306813
0.0566963
0.0404216
0.0206584
0.0232366
0.0452094
0.0299427
0.0145426
0.0166934
0.0336834
0.023491
0.0104584
0.0123976
0.0259944
0.0200839
0.00850845
0.0105735
0.0215353
0.00191669
0.0013871
0.00133586
0.00194778
0.00609185
0.00417289
0.00386191
0.00631382
0.016234
0.0110078
0.0104764
0.0165936
0.0190441
0.0125548
0.0123943
0.0189695
0.0207163
0.0131698
0.0136032
0.0207304
0.0189521
0.0116314
0.0124474
0.0190403
0.0164258
0.00967391
0.0106912
0.0167399
0.0133905
0.00760615
0.00860729
0.0136721
0.0111936
0.00583835
0.00691672
0.0112395
0.00994528
0.00508398
0.00648418
0.0100794
0.000604545
0.000568221
0.000598078
0.000815802
0.00226529
0.00210299
0.00236433
0.0034068
0.00609155
0.00574182
0.00640275
0.0088919
0.00729289
0.00654794
0.0070583
0.00959982
0.00838018
0.00713467
0.00763256
0.0103488
0.00813708
0.00655993
0.00704125
0.00951533
0.00745735
0.00568375
0.00618014
0.00841391
0.00648923
0.00469449
0.00517573
0.00705154
0.00583792
0.00387557
0.00446056
0.00604827
0.00559009
0.00369242
0.00456367
0.00582898
0.000106766
0.000102863
0.00010282
0.000162125
0.000764704
0.000721111
0.000845157
0.00123386
0.00245371
0.00248822
0.00298584
0.00410852
0.0030192
0.00305292
0.00354273
0.0047174
0.0035842
0.00355031
0.00403806
0.00531302
0.00361498
0.00344949
0.00386884
0.00503613
0.00342566
0.003131
0.0034934
0.00451974
0.00315501
0.00273841
0.00304713
0.00389924
0.00305611
0.00244143
0.00279465
0.00347188
0.00303036
0.00238307
0.00289425
0.00337016
5.22738e-06
8.03653e-06
3.51291e-06
2.22997e-05
0.000269239
0.000250968
0.000300421
0.000459238
0.00117282
0.00119769
0.00148003
0.002068
0.00149167
0.00157098
0.00189604
0.00252746
0.00179922
0.00191356
0.00227581
0.00297681
0.00184324
0.00193202
0.00226069
0.00291553
0.00174937
0.00179617
0.00207903
0.00264709
0.00167056
0.00164333
0.00187457
0.00235226
0.00169687
0.00155641
0.00178966
0.00213976
0.00169525
0.00153337
0.00183066
0.00205772
1.72974e-05
6.22266e-06
6.00974e-06
6.17223e-06
7.36268e-05
6.26401e-05
7.48957e-05
0.00012875
0.000535727
0.000528861
0.000659517
0.000946905
0.000755085
0.000795432
0.000972213
0.00130428
0.000954812
0.00103533
0.00125507
0.00164677
0.00102105
0.00110804
0.00132624
0.00171317
0.000971709
0.0010547
0.00125108
0.00158599
0.000960005
0.00101107
0.00117707
0.00146921
0.000962429
0.000966639
0.00111433
0.00131185
0.000976753
0.000979916
0.00115487
0.00128552
1.40513e-05
4.87256e-06
4.71656e-06
4.86196e-06
1.0567e-05
5.5948e-06
5.44869e-06
1.95348e-05
0.000232212
0.000209903
0.000261698
0.000400679
0.000376752
0.000390831
0.000479346
0.000649194
0.000503491
0.000548202
0.00067008
0.000883552
0.000577736
0.000635233
0.000767816
0.000995867
0.000554377
0.000619014
0.000742941
0.000939438
0.000574941
0.00062783
0.000739
0.000921927
0.00054847
0.000584275
0.000673223
0.000789605
0.000579894
0.000624492
0.000728337
0.00081029
1.09926e-05
3.6815e-06
3.52295e-06
3.67365e-06
3.41689e-06
1.32098e-06
1.28269e-06
1.42149e-06
8.72334e-05
6.03421e-05
7.34642e-05
0.000138112
0.000181395
0.000181846
0.000222523
0.000305722
0.000256165
0.00027669
0.000339747
0.000451782
0.000321571
0.000353953
0.000429947
0.000561647
0.000307344
0.000349248
0.000421647
0.000531539
0.000343835
0.000382461
0.000452857
0.000566875
0.000313839
0.000346458
0.000398979
0.000468511
0.000350278
0.000393933
0.000455946
0.000508167
9.0041e-06
2.95335e-06
2.84132e-06
2.94458e-06
2.79542e-06
9.79851e-07
9.57756e-07
1.06575e-06
2.18798e-05
4.17237e-07
4.04626e-07
2.16039e-05
8.30857e-05
7.84773e-05
9.50615e-05
0.000133263
0.000125133
0.000132394
0.000163062
0.000220069
0.000176913
0.000193023
0.000235255
0.000311006
0.000163311
0.00018792
0.000227827
0.000285743
0.00020475
0.000228974
0.000272333
0.000343643
0.000177404
0.000199665
0.00022991
0.000270494
0.000212243
0.000244487
0.000281914
0.000314509
5.12147e-06
1.60533e-06
1.57917e-06
1.69007e-06
2.07616e-06
7.07173e-07
6.88056e-07
7.74497e-07
8.24142e-07
3.06778e-07
2.95991e-07
3.33161e-07
3.46695e-05
2.94282e-05
3.46503e-05
4.97293e-05
5.73339e-05
5.8338e-05
7.19836e-05
9.9668e-05
9.62175e-05
0.000103152
0.000126019
0.00016961
8.12247e-05
9.47656e-05
0.00011531
0.000142974
0.000121948
0.000135598
0.000161974
0.000207238
9.56901e-05
0.000108724
0.000125159
0.000147261
0.00012736
0.000148439
0.000171276
0.000190775
8.62493e-06
2.42173e-06
2.14868e-06
2.09304e-06
1.54834e-06
5.20375e-07
5.10136e-07
5.85662e-07
6.11434e-07