/*--------------------------------*- C++ -*----------------------------------*\
| =========                 |                                                 |
| \\      /  F ield         | foam-extend: Open Source CFD                    |
|  \\    /   O peration     | Version:     4.0                                |
|   \\  /    A nd           | Web:         http://www.foam-extend.org         |
|    \\/     M anipulation  |                                                 |
\*---------------------------------------------------------------------------*/
FoamFile
{
    version     2.0;
    format      ascii;
    class       volScalarField;
    location    "3250";
    object      divFlux;
}
// * * * * * * * * * * * * * * * * * * * * * * * * * * * * * * * * * * * * * //

dimensions      [1 -3 -1 0 0 0 0];

internalField   nonuniform List<scalar> 
34480
(
2.21036e-05
7.9115e-06
8.15809e-06
7.51123e-06
6.94945e-06
6.51528e-06
6.18522e-06
0.000298219
0.000171898
5.51867e-06
6.26361e-06
3.48318e-06
3.33874e-06
3.08856e-06
2.91417e-06
2.83547e-06
2.82843e-06
2.83215e-06
0.00347255
2.73765e-06
1.73642e-06
1.12812e-06
1.08152e-06
1.02709e-06
1.01302e-06
1.04784e-06
1.1042e-06
1.14301e-06
0.00334702
1.12963e-06
6.21596e-07
4.26043e-07
4.09472e-07
3.96108e-07
3.95344e-07
4.16727e-07
4.43455e-07
4.59491e-07
0.000803386
4.55482e-07
2.43636e-07
1.76732e-07
1.67568e-07
1.65211e-07
1.64884e-07
1.73328e-07
1.83212e-07
1.90412e-07
1.92114e-07
1.88317e-07
9.65427e-08
8.09856e-08
7.16499e-08
7.291e-08
7.20509e-08
7.57164e-08
7.94392e-08
8.21311e-08
8.35057e-08
8.10429e-08
4.04292e-08
3.83355e-08
3.17681e-08
3.39572e-08
3.27354e-08
3.48736e-08
3.58409e-08
3.74191e-08
3.859e-08
3.65027e-08
2.09165e-08
2.01605e-08
1.68157e-08
1.66324e-08
1.64033e-08
1.69531e-08
1.72281e-08
1.75488e-08
1.85568e-08
1.87859e-08
2.08999e-08
8.08086e-09
1.15798e-08
9.37213e-09
9.78867e-09
9.49709e-09
8.83063e-09
9.41379e-09
9.83032e-09
1.01219e-08
5.58423e-09
9.62205e-09
5.11649e-09
7.7511e-09
7.06381e-09
6.33834e-09
6.10924e-09
6.56743e-09
6.79653e-09
7.59837e-09
3.05471e-05
1.00535e-05
1.03164e-05
9.67136e-06
9.06626e-06
8.61695e-06
8.32045e-06
8.17069e-06
8.15752e-06
0.00106694
9.71824e-06
5.00073e-06
4.85421e-06
4.5513e-06
4.34083e-06
4.25191e-06
4.25585e-06
4.33668e-06
4.47948e-06
0.00345935
3.03306e-06
1.85532e-06
1.78461e-06
1.71748e-06
1.71369e-06
1.7769e-06
1.86831e-06
1.97408e-06
2.08491e-06
0.00431382
1.25962e-06
7.97773e-07
7.64727e-07
7.5209e-07
7.59189e-07
7.99442e-07
8.46368e-07
8.99115e-07
9.51933e-07
0.00149923
6.64129e-07
3.62972e-07
3.4064e-07
3.53236e-07
3.4776e-07
3.71126e-07
3.91937e-07
4.16034e-07
4.41408e-07
4.53533e-07
2.69566e-07
2.02327e-07
1.45782e-07
1.81136e-07
1.62767e-07
1.81136e-07
1.8678e-07
1.99931e-07
2.11592e-07
2.15828e-07
1.64422e-07
1.33086e-07
3.08579e-08
1.15433e-07
7.17967e-08
9.16271e-08
9.32836e-08
9.87737e-08
1.04974e-07
1.07015e-07
1.46978e-07
1.19693e-07
9.79691e-10
6.89617e-08
3.5993e-08
5.05606e-08
4.97938e-08
5.40108e-08
5.63961e-08
5.74184e-08
1.09586e-07
1.18105e-08
2.75707e-08
4.18982e-08
2.66801e-08
3.1443e-08
3.23724e-08
3.31081e-08
3.53153e-08
3.62592e-08
2.1547e-07
6.52417e-08
1.16072e-08
4.043e-08
1.94163e-08
2.44213e-08
2.53442e-08
2.51667e-08
2.82194e-08
2.88982e-08
2.87954e-05
7.44034e-06
7.99075e-06
7.57058e-06
7.11725e-06
6.79829e-06
6.6266e-06
6.60528e-06
3.06498e-05
0.000875797
8.49121e-06
3.57016e-06
3.55442e-06
3.32851e-06
3.14324e-06
3.0196e-06
2.98124e-06
3.0493e-06
8.16333e-05
0.00135492
2.39342e-06
1.28551e-06
1.24841e-06
1.1761e-06
1.13108e-06
1.11088e-06
1.13037e-06
1.20453e-06
0.000120618
0.00127521
8.80987e-07
5.23123e-07
4.95933e-07
4.75573e-07
4.59007e-07
4.51352e-07
4.60756e-07
4.95405e-07
5.55429e-07
6.95509e-07
3.75271e-07
2.24917e-07
2.04609e-07
2.041e-07
1.93804e-07
1.90749e-07
1.942e-07
2.09757e-07
2.38239e-07
3.02554e-07
1.3411e-07
1.12013e-07
8.42943e-08
9.25604e-08
8.41459e-08
8.34529e-08
8.55813e-08
9.2016e-08
1.05776e-07
1.36916e-07
6.46631e-08
5.94851e-08
3.22504e-08
4.58897e-08
3.71342e-08
3.85421e-08
3.94661e-08
4.28099e-08
4.94536e-08
6.49161e-08
9.60376e-09
4.17759e-08
1.62352e-08
2.29273e-08
1.86507e-08
1.98386e-08
1.99178e-08
2.11058e-08
2.56199e-08
3.35544e-08
4.4248e-08
1.18794e-09
1.9583e-08
1.27074e-08
1.19514e-08
1.25634e-08
1.10155e-08
1.30674e-08
1.55872e-08
2.1203e-08
1.9849e-08
1.70272e-08
1.02295e-09
1.26384e-08
6.53368e-09
8.90956e-09
8.34859e-09
8.61258e-09
9.60253e-09
1.4808e-08
2.8942e-05
6.5839e-06
7.21817e-06
6.8999e-06
6.51552e-06
6.23769e-06
6.09483e-06
6.09121e-06
1.5932e-05
0.000375178
8.47983e-06
3.32097e-06
3.32746e-06
3.12582e-06
2.94724e-06
2.82429e-06
2.76387e-06
2.78435e-06
3.54456e-05
0.00114627
2.40775e-06
1.24899e-06
1.22259e-06
1.1444e-06
1.08598e-06
1.05028e-06
1.04255e-06
1.07928e-06
0.000122211
0.00229184
8.72901e-07
5.20089e-07
4.90547e-07
4.65791e-07
4.44471e-07
4.30943e-07
4.30329e-07
4.48275e-07
0.000113511
0.00210751
3.52184e-07
2.3265e-07
2.0583e-07
2.01518e-07
1.91947e-07
1.85321e-07
1.84479e-07
1.94103e-07
4.52851e-05
0.00157122
1.27009e-07
1.18442e-07
8.72438e-08
9.19834e-08
8.58634e-08
8.26424e-08
8.24123e-08
8.65536e-08
1.07887e-05
0.000987805
5.33598e-08
6.40115e-08
3.28034e-08
4.64237e-08
3.90205e-08
3.84887e-08
3.85296e-08
3.98794e-08
4.671e-08
0.000415213
3.94576e-09
3.84315e-08
1.75592e-08
2.32282e-08
1.9547e-08
1.95839e-08
1.93262e-08
2.08354e-08
2.38172e-08
0.000156215
4.78035e-08
1.20475e-09
1.77366e-08
1.38211e-08
1.17463e-08
1.27837e-08
1.27503e-08
1.28506e-08
1.46243e-08
2.01795e-08
6.0864e-09
2.07066e-08
1.5645e-09
1.20865e-08
7.23964e-09
8.25197e-09
7.57708e-09
9.11091e-09
1.04913e-08
1.48091e-08
2.88144e-05
5.7151e-06
6.3934e-06
6.18856e-06
5.86457e-06
5.62311e-06
5.49255e-06
5.48003e-06
2.04264e-05
0.00014409
8.28564e-06
3.03318e-06
3.0505e-06
2.87503e-06
2.71864e-06
2.60635e-06
2.5433e-06
2.53402e-06
3.18063e-06
0.000580649
2.41763e-06
1.17003e-06
1.16788e-06
1.0928e-06
1.03588e-06
9.95264e-07
9.7302e-07
9.79898e-07
7.68716e-05
0.00133607
8.74849e-07
5.06621e-07
4.82552e-07
4.53492e-07
4.31162e-07
4.14194e-07
4.06266e-07
4.11086e-07
7.92075e-05
0.00142155
3.35444e-07
2.30995e-07
2.03422e-07
1.96138e-07
1.86849e-07
1.79712e-07
1.75801e-07
1.7937e-07
5.31492e-05
0.00128037
1.18605e-07
1.18492e-07
8.67515e-08
8.98742e-08
8.46554e-08
8.072e-08
7.995e-08
8.14044e-08
4.02216e-05
0.00101594
4.27703e-08
6.77205e-08
3.49059e-08
4.41838e-08
3.9773e-08
3.79098e-08
3.68452e-08
3.82901e-08
5.86496e-06
0.000666553
9.56651e-09
3.55904e-08
1.85138e-08
2.33733e-08
2.01222e-08
1.90614e-08
1.9472e-08
1.97458e-08
8.61735e-06
0.000499044
4.91195e-08
4.51102e-09
1.44664e-08
1.44975e-08
1.1542e-08
1.17286e-08
1.25686e-08
1.28486e-08
1.42797e-08
0.000305614
1.30158e-09
2.31565e-08
1.48293e-09
1.2006e-08
7.10096e-09
8.61241e-09
8.81204e-09
8.52686e-09
9.8672e-09
0.000402693
2.83839e-05
4.87147e-06
5.54252e-06
5.43173e-06
5.17844e-06
4.9711e-06
4.85077e-06
4.82433e-06
4.89371e-06
2.47602e-05
7.90195e-06
2.73187e-06
2.74893e-06
2.60028e-06
2.46316e-06
2.36096e-06
2.30139e-06
2.28282e-06
1.54411e-05
0.000223535
2.41208e-06
1.06947e-06
1.08096e-06
1.01686e-06
9.65349e-07
9.26632e-07
9.01722e-07
8.93451e-07
3.52799e-05
0.000719147
8.68011e-07
4.73624e-07
4.60474e-07
4.33353e-07
4.12038e-07
3.94753e-07
3.83379e-07
3.79721e-07
4.17811e-05
0.000848489
3.29626e-07
2.21695e-07
2.0088e-07
1.89563e-07
1.80792e-07
1.7402e-07
1.69021e-07
1.6693e-07
3.69657e-05
0.000863551
1.12661e-07
1.1437e-07
8.69304e-08
8.65328e-08
8.26754e-08
7.90566e-08
7.63127e-08
7.63922e-08
3.5179e-05
0.000779379
3.21283e-08
6.83637e-08
3.43586e-08
4.21706e-08
3.86358e-08
3.7646e-08
3.63735e-08
3.65855e-08
1.926e-05
0.000593637
1.15376e-08
3.50903e-08
1.83882e-08
2.13787e-08
1.95017e-08
1.94699e-08
1.85791e-08
1.92154e-08
2.59934e-05
0.000523505
4.65937e-08
7.72201e-09
1.30725e-08
1.49234e-08
1.14818e-08
1.26097e-08
1.20891e-08
1.2147e-08
9.48939e-06
0.000446216
8.25205e-09
2.4682e-08
1.53765e-09
1.10817e-08
7.31711e-09
8.03291e-09
7.39664e-09
8.64267e-09
2.59091e-05
0.0005227
2.75427e-05
4.12462e-06
4.71188e-06
4.67211e-06
4.48803e-06
4.3194e-06
4.20618e-06
4.16805e-06
4.19918e-06
1.88456e-06
7.33822e-06
2.41979e-06
2.42408e-06
2.3013e-06
2.18433e-06
2.09531e-06
2.03945e-06
2.01723e-06
1.04539e-05
7.15656e-05
2.34842e-06
9.64647e-07
9.84314e-07
9.27175e-07
8.81245e-07
8.4472e-07
8.21711e-07
8.08994e-07
1.35764e-05
0.000378393
8.57453e-07
4.28024e-07
4.25584e-07
4.01308e-07
3.8233e-07
3.67124e-07
3.55861e-07
3.49675e-07
1.65087e-05
0.000490479
3.2459e-07
2.02631e-07
1.89998e-07
1.80027e-07
1.71408e-07
1.64099e-07
1.59113e-07
1.56367e-07
1.75082e-05
0.00054254
1.11941e-07
1.06026e-07
8.55456e-08
8.29208e-08
7.83737e-08
7.53422e-08
7.34568e-08
7.2052e-08
2.00214e-05
0.000535977
2.38628e-08
6.67408e-08
3.61472e-08
3.96633e-08
3.74945e-08
3.618e-08
3.48656e-08
3.45699e-08
1.5723e-05
0.000440777
1.02505e-08
3.36563e-08
1.8721e-08
2.09391e-08
2.00518e-08
1.84844e-08
1.82182e-08
1.78337e-08
2.52851e-05
0.000432007
4.17018e-08
1.15342e-08
1.03512e-08
1.49757e-08
1.16687e-08
1.15342e-08
1.1346e-08
1.18569e-08
1.92022e-05
0.000407905
1.30964e-08
2.679e-08
4.6827e-10
1.09674e-08
7.34445e-09
7.54162e-09
8.15776e-09
7.9606e-09
3.27636e-05
0.000467586
2.60418e-05
3.54878e-06
3.95289e-06
3.91326e-06
3.79306e-06
3.67541e-06
3.59424e-06
3.56308e-06
3.58684e-06
3.80933e-06
6.62986e-06
2.13057e-06
2.09487e-06
1.99159e-06
1.89674e-06
1.82055e-06
1.77198e-06
1.74738e-06
2.94838e-06
1.47092e-05
2.22169e-06
8.4992e-07
8.77881e-07
8.28722e-07
7.86684e-07
7.54434e-07
7.31779e-07
7.17922e-07
4.87407e-06
0.000180823
8.32629e-07
3.88169e-07
3.85236e-07
3.65303e-07
3.47936e-07
3.34097e-07
3.23191e-07
3.16478e-07
5.2523e-06
0.00026687
3.22779e-07
1.79928e-07
1.74822e-07
1.65867e-07
1.57972e-07
1.51649e-07
1.47093e-07
1.4395e-07
5.68463e-06
0.000321426
1.13727e-07
9.38918e-08
8.11415e-08
7.75673e-08
7.38556e-08
7.08313e-08
6.8185e-08
6.69821e-08
7.71538e-06
0.000349345
1.83154e-08
6.16781e-08
3.56199e-08
3.73612e-08
3.58949e-08
3.38786e-08
3.35426e-08
3.24123e-08
8.54961e-06
0.00030181
9.63899e-09
3.04908e-08
1.88883e-08
1.91083e-08
1.8091e-08
1.77061e-08
1.75686e-08
1.72937e-08
1.86138e-05
0.000324452
3.07491e-08
1.72712e-08
7.02345e-09
1.44468e-08
1.06976e-08
1.10226e-08
1.13475e-08
1.12975e-08
1.78404e-05
0.000310625
1.9857e-08
2.79063e-08
1.03102e-09
9.69161e-09
7.83577e-09
7.35463e-09
7.1026e-09
7.85868e-09
2.9992e-05
0.000365224
2.30124e-05
3.23996e-06
3.35788e-06
3.18727e-06
3.04542e-06
2.94544e-06
2.89193e-06
2.88509e-06
2.92128e-06
3.11115e-06
5.74151e-06
1.89554e-06
1.78724e-06
1.68458e-06
1.60695e-06
1.54452e-06
1.50219e-06
1.48056e-06
1.47292e-06
4.45328e-07
2.04103e-06
7.21617e-07
7.59598e-07
7.19598e-07
6.83968e-07
6.56568e-07
6.3515e-07
6.23085e-07
1.53839e-06
7.96917e-05
7.73448e-07
3.43091e-07
3.44029e-07
3.24199e-07
3.0963e-07
2.96552e-07
2.87031e-07
2.80237e-07
1.50698e-06
0.000135463
3.18772e-07
1.59527e-07
1.57519e-07
1.49522e-07
1.42402e-07
1.37144e-07
1.3258e-07
1.2849e-07
8.78584e-07
0.000176583
1.19125e-07
8.07995e-08
7.40582e-08
7.09272e-08
6.72211e-08
6.46971e-08
6.26204e-08
1.23222e-05
1.12349e-06
0.000214156
1.64252e-08
5.41858e-08
3.45619e-08
3.43631e-08
3.28579e-08
3.15232e-08
3.04724e-08
3.05008e-08
3.26762e-06
0.000189271
1.01359e-08
2.6275e-08
1.89395e-08
1.83005e-08
1.70225e-08
1.67925e-08
1.61791e-08
1.02483e-05
1.18107e-05
0.000226026
1.98982e-08
2.14698e-08
5.64629e-09
1.26403e-08
1.09208e-08
1.05258e-08
9.94491e-09
1.04561e-08
1.32193e-05
0.000212993
2.58372e-08
2.82857e-08
1.34187e-09
8.49848e-09
6.81582e-09
6.62413e-09
7.02882e-09
4.88113e-06
2.37941e-05
0.000262986
1.8196e-05
3.48809e-06
3.42883e-06
3.11265e-06
2.8499e-06
2.64611e-06
2.49933e-06
2.41082e-06
2.36767e-06
2.42638e-06
4.54197e-06
1.73469e-06
1.52545e-06
1.41558e-06
1.3473e-06
1.29054e-06
1.25074e-06
1.23037e-06
1.22184e-06
1.15367e-06
1.88404e-06
6.00176e-07
6.4342e-07
6.13363e-07
5.83495e-07
5.58048e-07
5.39871e-07
5.27515e-07
6.75284e-08
3.15898e-05
6.94325e-07
2.93268e-07
2.96635e-07
2.81725e-07
2.68003e-07
2.5733e-07
2.48202e-07
2.41608e-07
3.86272e-07
6.41193e-05
2.97704e-07
1.40019e-07
1.38763e-07
1.32246e-07
1.25763e-07
1.20739e-07
1.1687e-07
1.13577e-07
5.14423e-07
9.07386e-05
1.23274e-07
6.88471e-08
6.60849e-08
6.31742e-08
6.06496e-08
5.81844e-08
5.59271e-08
1.76798e-05
1.64188e-06
0.000125002
1.95771e-08
4.5304e-08
3.2922e-08
3.01499e-08
2.97011e-08
2.8513e-08
2.76154e-08
2.67442e-08
5.75541e-07
0.000108292
1.45975e-08
2.10284e-08
1.75355e-08
1.70841e-08
1.49931e-08
1.50881e-08
1.48505e-08
1.91866e-05
6.79487e-06
0.000148985
4.03968e-09
2.54673e-08
4.25535e-09
1.19452e-08
9.56915e-09
9.22354e-09
9.87156e-09
9.13713e-09
8.44535e-06
0.000135376
3.21759e-08
2.78398e-08
2.8117e-09
6.69264e-09
6.81145e-09
6.19763e-09
5.78181e-09
1.03103e-05
1.73063e-05
0.000179008
4.92446e-06
1.87763e-06
1.93276e-06
1.97523e-06
2.05924e-06
2.11305e-06
2.1379e-06
2.15936e-06
2.21716e-06
2.40143e-06
3.01868e-06
1.63535e-06
1.2745e-06
1.1431e-06
1.10003e-06
1.06444e-06
1.0315e-06
1.00913e-06
9.92014e-07
9.04952e-07
1.70369e-06
4.78623e-07
5.26225e-07
5.06521e-07
4.82908e-07
4.63404e-07
4.49245e-07
4.37979e-07
4.28172e-07
1.07726e-05
6.14104e-07
2.41487e-07
2.5012e-07
2.37898e-07
2.2608e-07
2.17116e-07
2.09072e-07
2.03384e-07
2.42978e-09
2.7264e-05
2.63739e-07
1.1928e-07
1.18712e-07
1.12717e-07
1.07857e-07
1.03345e-07
1.00252e-07
9.70967e-08
6.35057e-07
4.3768e-05
1.20173e-07
5.8867e-08
5.69342e-08
5.525e-08
5.21575e-08
5.03076e-08
4.84852e-08
1.69709e-05
2.52584e-06
7.08612e-05
2.31364e-08
3.73794e-08
2.89365e-08
2.70958e-08
2.59913e-08
2.55005e-08
2.41751e-08
2.38315e-08
3.60933e-07
5.61812e-05
2.35672e-08
1.40707e-08
1.55948e-08
1.53518e-08
1.42253e-08
1.33196e-08
9.21639e-07
2.13993e-05
3.51117e-06
9.52678e-05
1.04651e-08
2.8555e-08
4.27722e-09
9.57857e-09
9.13679e-09
8.29339e-09
8.35364e-09
8.17291e-09
4.59878e-06
7.91935e-05
3.64121e-08
2.51446e-08
3.73671e-09
5.65109e-09
5.74312e-09
5.61427e-09
5.63268e-09
1.14028e-05
1.18294e-05
0.000116708
1.54081e-05
2.31018e-06
1.40739e-06
6.88082e-07
4.16717e-07
3.61667e-07
3.65466e-07
3.5951e-07
3.047e-07
1.98955e-07
1.20168e-06
1.72681e-06
1.09211e-06
8.55628e-07
7.99235e-07
7.74747e-07
7.59089e-07
7.52467e-07
7.62914e-07
7.41733e-07
1.56118e-06
3.77797e-07
4.19482e-07
4.04492e-07
3.85353e-07
3.69439e-07
3.55229e-07
3.4605e-07
3.36809e-07
3.34043e-06
5.38627e-07
1.92495e-07
2.04508e-07
1.946e-07
1.85736e-07
1.77317e-07
1.70883e-07
1.65971e-07
1.60273e-07
8.88281e-06
2.26955e-07
9.73343e-08
9.99451e-08
9.36674e-08
9.02645e-08
8.60402e-08
8.31654e-08
8.03492e-08
4.07261e-07
1.96101e-05
1.09996e-07
4.82821e-08
4.83848e-08
4.628e-08
4.40982e-08
4.29688e-08
1.22181e-06
1.44179e-05
2.5868e-06
3.94676e-05
2.59959e-08
2.96384e-08
2.57596e-08
2.33182e-08
2.23143e-08
2.11963e-08
2.09682e-08
2.03065e-08
3.02795e-07
2.51072e-05
3.46772e-08
8.7683e-09
1.25467e-08
1.36761e-08
1.14789e-08
1.16637e-08
1.65385e-05
2.05677e-05
1.48817e-06
6.02267e-05
2.62328e-08
2.99433e-08
2.98686e-09
7.82184e-09
7.65383e-09
7.31781e-09
7.52315e-09
7.31781e-09
1.91295e-06
4.10987e-05
3.57611e-08
2.02266e-08
5.0481e-09
4.87698e-09
5.20211e-09
4.74008e-09
4.77431e-09
1.03474e-05
7.71708e-06
7.35412e-05
1.42472e-05
9.05118e-06
8.29228e-06
6.9622e-06
6.06061e-06
5.53991e-06
5.25469e-06
5.07286e-06
4.94022e-06
4.86671e-06
3.04209e-06
2.03055e-06
1.15629e-06
8.10598e-07
7.50633e-07
7.46838e-07
7.34573e-07
7.05963e-07
6.54373e-07
5.31133e-07
1.37736e-06
2.85888e-07
3.20364e-07
3.14733e-07
3.06791e-07
2.97533e-07
2.91309e-07
2.84762e-07
3.32467e-07
2.20082e-06
4.64346e-07
1.43364e-07
1.60195e-07
1.54309e-07
1.47182e-07
1.4128e-07
1.37064e-07
1.32483e-07
1.27838e-07
6.82243e-08
1.89631e-07
7.77225e-08
7.94951e-08
7.67408e-08
7.21047e-08
6.98139e-08
6.72777e-08
6.4387e-08
1.98806e-07
8.19908e-06
9.34618e-08
3.98737e-08
3.91817e-08
3.78931e-08
3.62944e-08
3.46002e-08
8.9408e-06
1.18211e-05
2.35952e-06
2.19151e-05
2.42141e-08
2.31198e-08
2.17411e-08
1.9217e-08
1.81989e-08
1.76898e-08
1.72868e-08
1.64172e-08
1.6099e-08
7.92734e-06
2.98106e-06
4.56245e-09
9.54487e-09
1.12629e-08
1.02512e-08
1.57981e-05
2.44057e-05
1.87376e-05
2.86804e-07
3.83645e-05
4.03892e-08
2.97279e-08
4.26916e-09
6.40374e-09
6.52522e-09
6.09136e-09
5.37984e-09
6.0393e-09
2.58423e-07
1.67006e-05
2.85594e-08
1.31878e-08
6.12463e-09
4.1202e-09
4.42246e-09
3.89749e-09
1.98459e-06
8.5142e-06
4.86236e-06
4.51344e-05
0.000142961
1.39851e-05
1.44773e-05
1.42561e-05
1.40775e-05
1.35595e-05
1.25627e-05
1.11484e-05
9.42537e-06
7.45258e-06
4.40218e-06
3.06218e-06
1.47795e-06
6.43732e-07
3.38226e-07
2.45257e-07
2.46787e-07
2.86295e-07
3.26913e-07
3.06547e-07
5.90272e-05
6.81159e-06
9.42636e-06
7.1364e-06
5.85501e-06
4.90909e-06
3.74078e-06
1.51049e-06
1.71529e-06
3.95439e-06
4.03294e-07
1.01732e-07
1.23087e-07
1.19449e-07
1.12128e-07
1.06819e-07
1.01406e-07
9.836e-08
9.40565e-08
7.92122e-08
1.56099e-07
5.7955e-08
6.19606e-08
5.84113e-08
5.62057e-08
5.32649e-08
5.17184e-08
4.99691e-08
1.2349e-07
3.52108e-06
9.78285e-06
3.11451e-08
3.14335e-08
2.96588e-08
2.85053e-08
7.41127e-06
1.20003e-05
9.72715e-06
2.09313e-06
1.23823e-05
2.00422e-08
1.66226e-08
1.70366e-08
1.6169e-08
1.47493e-08
1.40395e-08
1.34085e-08
1.34085e-08
1.29747e-08
1.22476e-08
5.01064e-05
4.57704e-05
4.11713e-05
3.65945e-05
3.48477e-05
3.24998e-05
2.78261e-05
1.6911e-05
4.3211e-07
2.52172e-05
5.35402e-08
2.76523e-08
4.38823e-09
5.06582e-09
4.83996e-09
5.53368e-09
5.27555e-09
5.03355e-09
4.80769e-09
2.00723e-06
1.38255e-08
6.3148e-09
5.17606e-09
3.87465e-09
3.29789e-09
3.44578e-09
5.13973e-06
6.54713e-06
2.9713e-06
2.70568e-05
0.000373557
4.89329e-05
5.48331e-05
5.41269e-05
4.95456e-05
4.28069e-05
3.52336e-05
2.75853e-05
2.01e-05
1.25908e-05
2.3606e-05
1.46944e-06
8.10659e-07
4.25663e-07
2.91144e-07
2.36743e-07
2.37135e-07
3.23666e-07
5.77319e-07
1.0231e-06
0.000201389
0.000127951
6.98298e-05
3.98898e-05
2.25005e-05
1.26877e-05
6.56816e-06
1.62244e-06
3.71873e-06
7.05232e-06
3.61453e-07
5.73023e-08
8.40424e-08
8.66683e-08
8.40424e-08
8.09353e-08
7.73883e-08
7.46524e-08
7.02943e-08
5.95331e-08
1.27828e-07
3.92647e-08
4.52746e-08
4.44026e-08
4.214e-08
4.0066e-08
3.8487e-08
1.72119e-07
1.69691e-07
2.07282e-06
3.94336e-05
3.00523e-05
1.96961e-05
1.57721e-05
1.50795e-05
1.43693e-05
1.24378e-05
8.0631e-06
1.86681e-06
7.22959e-06
1.37441e-08
1.19517e-08
1.31982e-08
1.22267e-08
1.09435e-08
1.05769e-08
1.03019e-08
9.80701e-09
9.75202e-09
8.44067e-09
0.000218952
4.37117e-05
8.01327e-05
7.03379e-05
5.48784e-05
4.10142e-05
2.90003e-05
1.55454e-05
9.1175e-07
1.75891e-05
6.39213e-08
2.36518e-08
5.29429e-09
3.38954e-09
4.24443e-09
3.83948e-09
3.77949e-09
3.56952e-09
3.61451e-09
4.18928e-09
4.48995e-09
3.29955e-10
3.83573e-09
2.68089e-09
2.43342e-09
2.50216e-09
5.33189e-06
4.50993e-06
1.70034e-06
1.54396e-05
0.00115874
0.000174504
0.000169756
0.000139314
0.000107922
8.03319e-05
5.72359e-05
3.79046e-05
2.09967e-05
4.91084e-06
3.29049e-06
7.51668e-06
5.22051e-06
3.84531e-06
3.00234e-06
2.24762e-06
1.37564e-06
2.47921e-07
1.3286e-06
3.47082e-06
0.000341613
0.000241787
0.000117495
6.12666e-05
3.09103e-05
1.5125e-05
6.32174e-06
1.75562e-07
6.47425e-06
1.10158e-05
3.25744e-07
2.52037e-08
5.34875e-08
5.8587e-08
5.86381e-08
5.76668e-08
5.86637e-08
5.86509e-08
5.78329e-08
4.12866e-08
1.83866e-05
2.32245e-08
3.04328e-08
2.07925e-07
1.59977e-06
2.42661e-06
2.48754e-06
1.65842e-06
2.69141e-07
1.80868e-06
3.99072e-05
4.50983e-05
3.5273e-05
2.63805e-05
2.00712e-05
1.52387e-05
1.10264e-05
6.45673e-06
1.63463e-06
4.26014e-06
8.11562e-09
7.1061e-09
9.42368e-09
9.35552e-09
8.23081e-09
7.80479e-09
7.61733e-09
7.41284e-09
6.79937e-09
6.51637e-09
0.000486353
1.61707e-05
8.43428e-05
8.33788e-05
6.38658e-05
4.47903e-05
2.91559e-05
1.47298e-05
1.31131e-06
1.32799e-05
6.87815e-08
1.8e-08
4.8381e-09
3.26258e-09
2.63516e-09
2.6491e-09
2.59333e-09
2.66305e-09
2.90007e-09
2.80987e-09
2.09174e-08
2.50503e-09
2.9907e-09
2.2622e-09
2.22385e-09
3.62335e-08
2.95354e-06
2.25697e-06
7.87627e-07
7.41205e-06
0.00437116
0.000269113
0.000241251
0.000177418
0.000123075
8.17832e-05
5.07443e-05
2.64233e-05
5.50691e-06
1.47646e-05
7.85762e-05
1.5989e-05
1.30736e-05
1.03826e-05
7.50989e-06
4.57001e-06
1.54379e-06
1.76946e-06
5.74246e-06
1.03996e-05
0.000489033
0.000365478
0.000159383
7.49584e-05
3.30242e-05
1.31092e-05
3.15019e-06
3.29073e-06
1.08714e-05
1.69134e-05
3.51652e-07
4.78822e-09
2.68996e-08
3.15334e-08
3.01551e-08
2.8765e-08
2.80759e-08
2.95729e-08
3.45631e-08
5.19998e-08
5.90137e-05
3.53869e-05
2.04634e-05
1.32091e-05
8.97286e-06
6.19489e-06
4.0706e-06
2.14027e-06
3.25443e-07
1.58483e-06
2.9323e-05
3.7231e-05
3.07828e-05
2.29423e-05
1.66767e-05
1.18655e-05
8.02067e-06
4.52797e-06
1.2799e-06
2.28827e-06
5.04601e-09
3.9288e-09
5.5922e-09
5.7031e-09
5.67141e-09
5.62389e-09
4.81595e-09
4.48327e-09
4.49911e-09
3.62181e-09
0.00083389
0.00011895
6.20767e-05
8.00414e-05
6.36105e-05
4.41159e-05
2.78089e-05
1.38429e-05
1.66737e-06
1.04739e-05
6.53759e-08
1.19895e-08
3.86255e-09
2.02201e-09
2.07385e-09
2.22939e-09
1.65908e-09
2.16458e-09
1.56835e-09
1.64699e-09
2.89588e-08
2.47134e-09
7.12887e-10
1.35449e-09
1.39013e-09
1.53271e-09
1.48518e-09
2.72002e-07
2.01058e-07
2.09096e-06
0.00690611
0.000145357
0.000118003
7.98021e-05
4.97393e-05
2.76367e-05
1.07709e-05
3.46904e-06
1.74087e-05
3.27128e-05
1.88122e-05
3.36336e-05
2.40044e-05
1.58152e-05
9.29344e-06
4.0096e-06
6.20923e-07
5.18877e-06
1.02901e-05
1.56278e-05
0.000555395
0.000460483
0.000178901
7.53421e-05
2.8335e-05
8.37508e-06
8.88051e-08
4.81906e-06
1.10308e-05
1.75095e-05
2.83947e-07
8.28406e-09
1.85784e-08
1.64135e-08
8.57124e-09
7.51088e-10
1.36742e-08
2.652e-08
4.1111e-08
7.31773e-08
5.06754e-05
3.42987e-05
1.93999e-05
1.20858e-05
7.7728e-06
5.02618e-06
3.10292e-06
1.57672e-06
2.72191e-07
1.00729e-06
1.66088e-05
2.00562e-05
1.70255e-05
1.27378e-05
9.14612e-06
6.36289e-06
4.19225e-06
2.35773e-06
7.55241e-07
9.22197e-07
4.16699e-09
1.20763e-09
3.01908e-09
3.32835e-09
3.25472e-09
3.15163e-09
2.6509e-09
2.96017e-09
2.6509e-09
2.50792e-09
0.00106724
0.000215005
2.10576e-05
5.82161e-05
5.02801e-05
3.54628e-05
2.22638e-05
1.12049e-05
1.74774e-06
7.35562e-06
5.36407e-08
6.4947e-09
2.96419e-09
1.71104e-09
1.2411e-09
1.08446e-09
1.217e-09
8.55518e-10
1.30135e-09
1.24727e-09
1.26042e-06
7.91923e-07
6.95861e-10
5.19135e-10
9.49906e-10
5.01871e-07
8.22784e-07
4.0255e-07
1.51852e-07
1.20234e-06
0.00370186
0.000727418
0.000517655
0.000352296
0.000242959
0.000163566
0.000101925
5.26466e-05
1.63438e-06
4.16729e-05
1.05559e-05
1.3147e-05
7.90006e-06
3.59733e-06
4.47699e-07
2.02024e-06
4.24016e-06
6.54095e-06
9.13303e-06
1.11953e-05
0.000287934
0.000372768
0.00012508
4.62656e-05
1.33336e-05
7.31154e-07
3.95662e-06
6.47341e-06
1.02756e-05
1.50056e-05
2.25112e-07
2.78268e-09
2.04235e-08
3.36078e-08
4.3681e-08
5.245e-08
6.11574e-08
6.69898e-08
7.32739e-08
8.11168e-08
2.07185e-05
1.53045e-05
8.40088e-06
5.08042e-06
3.16365e-06
1.98396e-06
1.19485e-06
6.07643e-07
1.21177e-07
3.63726e-07
6.26351e-06
5.86397e-06
4.97562e-06
3.72191e-06
2.65782e-06
1.82904e-06
1.19331e-06
6.78826e-07
2.48162e-07
1.99296e-07
3.36887e-09
1.23218e-10
1.17742e-09
1.09528e-09
1.91673e-09
1.57446e-09
1.6703e-09
9.99439e-10
1.12266e-09
1.39179e-09
0.000713555
0.00017784
7.77456e-06
2.43349e-05
2.39913e-05
1.75028e-05
1.11152e-05
5.73185e-06
1.14304e-06
3.24416e-06
3.8024e-08
1.89308e-09
8.40126e-10
7.50513e-10
6.72101e-10
7.39311e-10
3.69656e-10
8.40126e-10
3.24849e-10
5.65247e-10
9.15357e-05
0.00012949
8.5695e-05
5.08332e-05
2.91852e-05
1.65644e-05
9.00717e-06
3.79244e-06
5.12034e-07
5.24891e-06
0.00265427
0.000670839
0.000500117
0.000376976
0.000283481
0.000210647
0.000152702
0.000105847
6.67776e-05
3.55915e-05
5.005e-06
1.10293e-05
7.91591e-06
5.5922e-06
4.1185e-06
3.27287e-06
2.84113e-06
2.64362e-06
2.49591e-06
1.82961e-06
9.71955e-05
8.40043e-05
2.00201e-05
5.79436e-06
5.11802e-07
9.92297e-07
1.25441e-06
1.32593e-06
1.79149e-06
3.0531e-06
4.90868e-08
1.58363e-08
1.0653e-08
6.7488e-09
5.0974e-09
3.02598e-09
1.28867e-09
4.10465e-10
5.72741e-10
2.57734e-10
1.72084e-06
1.79203e-06
9.44549e-07
5.55428e-07
3.36281e-07
2.06121e-07
1.22567e-07
6.44743e-08
1.6675e-08
3.785e-08
7.96901e-07
4.56618e-07
3.74329e-07
2.75789e-07
1.94589e-07
1.32361e-07
8.54816e-08
4.94276e-08
2.10626e-08
1.01805e-08
2.87882e-10
4.32738e-10
0
6.49107e-10
6.10924e-10
2.29097e-10
5.85469e-10
1.90914e-10
8.65476e-10
1.01821e-10
5.28619e-05
2.81383e-05
2.33653e-06
2.82662e-06
3.11155e-06
2.34914e-06
1.52762e-06
8.25973e-07
2.27711e-07
3.63404e-07
1.2574e-08
6.24809e-11
3.22818e-10
2.7075e-10
7.28944e-11
3.85299e-10
5.20674e-11
2.81164e-10
1.77029e-10
4.16539e-11
0.000265196
0.00016073
9.56067e-05
5.4903e-05
3.12076e-05
1.76521e-05
9.60478e-06
4.26832e-06
8.58539e-08
4.71386e-06
0.526072
0.419003
0.530191
0.919694
0.686288
0.623996
0.739341
1.11587
0.849774
0.791648
0.938014
1.44148
0.61684
0.59335
0.702931
1.10001
0.450697
0.44923
0.533404
0.863565
0.298614
0.295094
0.366008
0.622805
0.198841
0.189781
0.253458
0.455326
0.128415
0.118399
0.169611
0.315901
0.0887509
0.0810537
0.122331
0.231386
0.0668968
0.0617326
0.0995956
0.188488
0.0358588
0.00179702
1.60181e-05
0.0190257
0.0785523
0.0065237
1.19101e-05
0.0409605
0.136664
0.0152065
6.41552e-06
0.0704365
0.125035
0.0170268
3.28628e-06
0.0603962
0.110342
0.0169973
1.68981e-06
0.0489349
0.0853923
0.0142448
8.67756e-07
0.0375912
0.0644754
0.0110711
4.58193e-07
0.0305426
0.0465019
0.00834678
2.63265e-07
0.0232157
0.0357926
0.00715411
0.00104206
0.0184562
0.0301711
0.00826152
0.00382827
0.0155282
0.017129
0.0134651
0.0141417
0.0196974
0.0387428
0.0266804
0.0261894
0.040829
0.0749759
0.0487053
0.0492721
0.079691
0.0710848
0.0430899
0.0447014
0.0750183
0.0651277
0.0370769
0.0395813
0.0699795
0.0520172
0.0280529
0.0306914
0.0567124
0.0404417
0.0206671
0.0232449
0.0452233
0.0299624
0.0145507
0.0167014
0.0336972
0.0235123
0.0104666
0.0124061
0.0260097
0.0201075
0.0085172
0.0105832
0.0215527
0.00192754
0.00139224
0.00134057
0.00195297
0.00610036
0.00417751
0.00386574
0.00631863
0.016243
0.011013
0.0104806
0.0165991
0.0190531
0.0125598
0.0123986
0.018975
0.0207238
0.0131739
0.0136068
0.020735
0.0189576
0.0116343
0.01245
0.0190435
0.0164292
0.00967558
0.0106927
0.0167417
0.0133927
0.00760719
0.0086082
0.013673
0.0111955
0.00583918
0.00691747
0.0112402
0.00994815
0.00508523
0.0064855
0.0100808
0.000612583
0.000571925
0.000601607
0.000819512
0.00227001
0.00210585
0.00236695
0.00340982
0.00609537
0.00574452
0.00640519
0.00889467
0.00729616
0.00655028
0.00706039
0.00960219
0.00838225
0.00713611
0.00763383
0.0103502
0.00813756
0.00656023
0.00704147
0.00951549
0.00745606
0.00568289
0.00617928
0.00841276
0.00648653
0.00469278
0.00517403
0.00704934
0.00583431
0.00387345
0.00445834
0.00604541
0.00558667
0.00369036
0.0045613
0.00582602
0.000112766
0.000105269
0.000105125
0.00016452
0.000767494
0.000722574
0.000846526
0.00123542
0.00245537
0.00248934
0.0029869
0.00410971
0.00302029
0.00305371
0.00354345
0.00471819
0.00358439
0.00355043
0.00403815
0.00531309
0.00361401
0.00344871
0.00386809
0.00503524
0.00342342
0.00312928
0.00349175
0.00451786
0.00315153
0.00273583
0.00304464
0.0038964
0.00305168
0.00243833
0.00279151
0.00346834
0.00302574
0.00237982
0.00289065
0.00336627
1.0171e-05
9.88101e-06
5.286e-06
2.41223e-05
0.00027114
0.000251834
0.000301239
0.000460154
0.00117367
0.00119818
0.0014805
0.00206853
0.00149197
0.00157115
0.00189619
0.00252762
0.00179882
0.00191318
0.00227544
0.0029764
0.00184197
0.00193092
0.00225963
0.00291437
0.00174721
0.00179434
0.00207728
0.00264517
0.00166742
0.00164071
0.00187205
0.00234952
0.00169296
0.00155329
0.00178653
0.00213643
0.00169112
0.00153004
0.00182706
0.00205403
1.33561e-05
4.78444e-06
4.61575e-06
4.75302e-06
7.50181e-05
6.32009e-05
7.54346e-05
0.000129343
0.000536225
0.000529084
0.00065973
0.000947143
0.000755097
0.000795368
0.00097215
0.0013042
0.000954297
0.00103485
0.0012546
0.00164626
0.00101985
0.00110698
0.00132521
0.00171206
0.000969889
0.00105309
0.00124952
0.00158433
0.000957404
0.00100878
0.00117484
0.00146684
0.000959389
0.000963997
0.00111168
0.00130911
0.000973464
0.000976991
0.00115177
0.0012824
1.09107e-05
3.86177e-06
3.73319e-06
3.85055e-06
1.16496e-05
6.00882e-06
5.85532e-06
1.99776e-05
0.000232558
0.000210031
0.00026182
0.000400808
0.000376693
0.00039072
0.000479238
0.000649073
0.000503043
0.000547787
0.000669679
0.000883113
0.000576752
0.000634355
0.000766966
0.000994946
0.000552961
0.000617728
0.000741695
0.000938122
0.000572888
0.00062597
0.000737188
0.000920005
0.000546255
0.000582245
0.000671201
0.000787527
0.000577398
0.00062211
0.000725863
0.000807807
7.60014e-06
2.4347e-06
2.34651e-06
2.45521e-06
2.57649e-06
1.02107e-06
9.93352e-07
1.10181e-06
8.75152e-05
6.04486e-05
7.35707e-05
0.000138216
0.000181348
0.000181759
0.000222436
0.000305623
0.000255838
0.00027639
0.000339451
0.000451463
0.000320826
0.000353289
0.000429307
0.000560949
0.000306327
0.000348311
0.000420739
0.000530586
0.000342291
0.000381043
0.000451473
0.000565411
0.000312282
0.000344985
0.000397523
0.000467019
0.000348434
0.000392106
0.000454061
0.000506285
9.24494e-06
3.13799e-06
2.93481e-06
2.99994e-06
2.10428e-06
7.30552e-07
7.1278e-07
7.8794e-07
2.21126e-05
3.21173e-07
3.08862e-07
2.16963e-05
8.30742e-05
7.84301e-05
9.50156e-05
0.000133208
0.000124925
0.000132199
0.000162874
0.000219859
0.00017637
0.000192548
0.000234796
0.000310505
0.000162626
0.000187283
0.000227209
0.000285103
0.000203619
0.000227934
0.000271318
0.000342563
0.000176349
0.000198653
0.000228914
0.000269473
0.000210916
0.000243139
0.000280541
0.000313138
2.20183e-06
5.49424e-07
2.55142e-07
2.76372e-08
1.52713e-06
5.1395e-07
4.98314e-07
5.58334e-07
6.16442e-07
2.23956e-07
2.21702e-07
2.48884e-07
3.4687e-05
2.94175e-05
3.46389e-05
4.97148e-05
5.72157e-05
5.82276e-05
7.18828e-05
9.95459e-05
9.58362e-05
0.000102824
0.0001257
0.000169257
8.07953e-05
9.4365e-05
0.000114923
0.000142576
0.000121127
0.00013485
0.000161245
0.000206453
9.50157e-05
0.000108078
0.000124523
0.000146618
0.000126431
0.000147487
0.000170304
0.000189814
1.93878e-05
4.4082e-06
3.4585e-06
2.73707e-06
1.51028e-06
5.76544e-07
6.00259e-07
7.1043e-07
4.85998e-07
1.72183e-07
1.6258e-07