/*--------------------------------*- C++ -*----------------------------------*\
| =========                 |                                                 |
| \\      /  F ield         | foam-extend: Open Source CFD                    |
|  \\    /   O peration     | Version:     4.0                                |
|   \\  /    A nd           | Web:         http://www.foam-extend.org         |
|    \\/     M anipulation  |                                                 |
\*---------------------------------------------------------------------------*/
FoamFile
{
    version     2.0;
    format      ascii;
    class       volScalarField;
    location    "750";
    object      epsilon;
}
// * * * * * * * * * * * * * * * * * * * * * * * * * * * * * * * * * * * * * //

dimensions      [0 2 -3 0 0 0 0];

internalField   nonuniform List<scalar> 
34480
(
4922.06
4920.44
4920.38
4921.53
4924.08
4928.6
4941.01
4993.85
5182.74
5709.3
637.421
586.954
587.346
639.602
826.016
1573.53
5160.82
23211
105117
385723
593.621
503.329
492.395
552.931
794.604
1822.64
7091.71
35427.2
173630
700579
505.598
426.109
417.065
475.952
725.506
1879.05
8232.26
44436.9
231698
1.00469e+06
443.403
377.179
372.575
429.814
682.81
1926.89
9163.81
52362.5
287045
1.31899e+06
384.523
329.547
325.761
379.298
631.232
1960.41
10096.8
60658.1
347269
1.67676e+06
348.866
302.28
300.018
349.817
597.36
1970.06
10695.7
66712.7
396143
1.99545e+06
320.416
283.901
281.143
322.545
541.847
1831.23
10335.5
66576.4
408796
2.14139e+06
462.096
439.515
437.838
464.076
603.155
1418.09
6842.06
43509.6
273873
1.48272e+06
5689.23
5689.36
5694.36
5705.61
5721.92
5741.59
5765.01
5799.98
5865.16
5931.26
4846.48
4844.41
4844.07
4845.32
4848.75
4855.1
4866.06
4891.69
4954.57
5174.16
503.477
471.56
466.567
480.937
525.142
641.298
997.776
2376.03
12051.4
105376
434.11
373.434
361.14
380.937
449.278
635.807
1221.19
3586.71
21680.6
199949
389.004
331.38
319.707
339.981
411.169
613.682
1285.2
4283.57
30392.3
295669
358.09
306.984
298.298
318.318
389.524
597.096
1316.19
4788.55
38657.6
395324
321.64
277.477
269.331
287.569
354.188
556.731
1294.57
5151.77
47103.9
505146
300.057
261.187
254.515
270.85
333.099
527.291
1262.17
5332.84
53813.6
602426
283.053
251.966
245.478
258.075
307.02
464.144
1084.45
4809.65
54576.6
646152
435.15
414.489
410.102
418.13
448.404
536.097
853.092
2970.93
36128.4
463228
5572.3
5568.03
5568.21
5574.23
5585.35
5599.75
5618.35
5650.18
5715.84
5885.1
4760.8
4758.82
4758.23
4758.89
4761.09
4764.8
4769.74
4780.49
4805.02
4860.39
397.058
383.578
381.141
386.18
401.563
437.265
526.294
765.943
1556.77
5936.92
302.98
272.377
266.129
275.538
305.814
375.315
547.672
1036.9
2924.37
15388.3
285.691
253.298
246.536
257.401
292.357
375.6
593.351
1278.03
4458.43
29384.4
277.394
246.353
240.981
252.396
289.569
379.883
626.751
1474.53
6162.04
48184.8
259.429
231.031
225.566
236.532
272.633
363.708
625.995
1618.53
8147.86
73331.1
249.855
223.588
218.987
229.159
263.94
353.293
621.04
1719.1
10131.7
101406
243.924
222.311
217.719
225.997
254.073
327.496
555.81
1592.49
10994.1
122392
405.356
389.911
386.684
392.731
413.443
465.095
610.315
1234.18
7637.1
91445.7
5463.31
5456.35
5453.83
5456.91
5465.08
5477.03
5492.81
5522.4
5592.7
5774.22
4664.5
4663.36
4663.09
4663.63
4665.13
4667.19
4668.48
4671.33
4679.16
4695.54
328.378
323.973
323.224
324.548
328.922
339.599
366.096
426.433
555.424
974.067
217.895
204.611
201.998
206.199
219.618
248.041
309.177
449.823
792.618
2160.04
213.062
196.838
193.359
199.043
216.9
256.072
344.543
565.736
1183.55
4241.89
216.573
199.458
196.486
202.952
223.565
269.782
379.007
673.231
1615.27
7264.75
210.471
193.519
190.104
196.831
218.244
268.241
392.941
758.2
2113.16
11704
208.913
192.16
189.155
195.733
217.495
269.262
403.626
824.667
2619.86
17176.3
211.367
196.949
193.786
199.503
217.981
262.885
383.569
794.166
2841.54
21822.1
378.488
367.151
364.69
369.141
384.215
419.848
510.867
781.619
2163.5
16421.6
5342.06
5335.12
5332.38
5335
5342.7
5355.01
5371.44
5401.17
5466
5606.03
4559.06
4558.66
4558.65
4559.01
4559.79
4560.46
4559.41
4558.31
4558.53
4560.42
286.581
285.597
285.53
285.458
285.643
287.455
294.823
310.65
336.795
387.446
167.983
162.8
161.87
163.392
168.47
178.799
199.141
240.408
316.826
503.641
166.491
158.897
157.173
159.76
167.954
185.007
219.66
294.991
448.972
915.619
174.089
165.21
163.636
166.876
177.296
199.381
246.236
355.567
602.579
1527.65
174.178
164.509
162.396
166.13
177.916
203.963
262.216
409.196
780.311
2465.74
177.011
166.705
164.746
168.622
181.408
210.181
276.996
455.899
958.266
3661.37
184.935
175.602
173.411
177.049
188.555
215.139
279.047
462.597
1047.27
4744.42
354.152
346.021
344.101
347.139
357.657
381.6
439.507
580.243
998.651
3778.55
5213.21
5206.41
5203.55
5205.75
5212.86
5224.84
5240.87
5268.23
5322.27
5422.29
4445.4
4445.54
4445.74
4445.94
4446.22
4446.01
4444.11
4442.02
4440.4
4439.36
261.249
261.2
261.317
260.894
259.966
259.367
261.305
265.608
272.274
281.526
140.009
138.226
138.024
138.468
140.092
143.353
149.486
160.95
179.351
210.34
138.049
134.681
133.89
134.976
138.463
145.376
158.166
182.98
225.285
311.901
145.664
141.333
140.599
142.1
147.009
156.837
175.692
214.928
286.93
467.925
148.21
142.966
141.748
143.706
149.834
162.639
188.452
246.45
362.103
711.797
152.844
146.79
145.61
147.77
154.918
170.113
201.83
277.307
439.549
1020.64
163.83
158.08
156.661
158.885
165.749
180.846
213.62
296.677
493.796
1318.85
332.139
326.587
325.164
327.185
334.406
350.517
387.878
466.343
632.746
1275.13
5076.13
5069.72
5066.91
5068.79
5075.27
5086.41
5101.37
5125.39
5167.18
5232.82
4324.21
4324.69
4325
4325.1
4325.06
4324.36
4322.43
4320.4
4318.67
4317.34
245.252
245.192
245.266
244.84
243.876
243.016
243.504
244.749
246.981
250.101
124.63
124.138
124.198
124.267
124.633
125.435
127.042
130.035
134.702
140.783
121.265
119.817
119.475
119.902
121.304
123.981
128.568
136.613
148.91
167.617
127.368
125.367
125.08
125.722
127.899
132.035
139.292
152.842
174.649
214.572
130.369
127.644
126.982
127.956
130.991
137.021
148.075
170.237
208.227
289.615
135.275
131.855
131.193
132.327
136.152
143.867
158.456
189.39
245.283
383.735
147.583
144.216
143.348
144.648
148.565
156.833
173.301
210.356
283.166
488.5
312.585
308.991
307.963
309.27
314.169
325.083
349.668
395.24
475.141
659.174
4930.61
4924.78
4922.14
4923.75
4929.5
4939.4
4952.71
4972.96
5004.45
5047.18
4195.98
4196.62
4196.99
4197.03
4196.83
4195.91
4194.35
4192.72
4191.34
4190.3
234.19
233.851
233.816
233.479
232.774
232.26
232.349
232.79
233.9
235.929
116.183
116.13
116.254
116.218
116.192
116.241
116.504
117.179
118.48
120.117
111.583
110.966
110.827
110.986
111.524
112.529
114.164
116.831
120.753
125.827
115.925
115.052
114.978
115.23
116.139
117.791
120.499
125.108
131.998
142.277
118.509
117.151
116.814
117.275
118.717
121.462
126.133
134.542
147.584
169.211
122.936
121.071
120.729
121.291
123.263
127.072
133.717
146.299
166.417
203.131
135.443
133.585
133.091
133.82
135.962
140.349
148.578
165.093
193.669
251.17
295.329
293.162
292.427
293.262
296.596
304.135
320.721
348.151
390.902
457.635
4776.46
4771.37
4769.01
4770.36
4775.32
4783.76
4795.03
4811.43
4834.58
4862.75
4061.01
4061.72
4062.1
4062.11
4061.84
4060.99
4059.83
4058.63
4057.63
4056.9
225.517
224.895
224.753
224.506
224.072
223.864
223.879
224.118
224.897
226.658
111.485
111.55
111.664
111.613
111.502
111.373
111.286
111.352
111.765
112.47
106.12
105.85
105.795
105.85
106.048
106.415
106.995
107.91
109.321
111.179
108.959
108.602
108.613
108.699
109.05
109.666
110.631
112.169
114.454
117.721
110.87
110.223
110.064
110.272
110.925
112.129
114.077
117.287
122.008
128.882
114.55
113.562
113.405
113.667
114.65
116.486
119.512
124.698
132.315
143.549
126.602
125.657
125.399
125.793
126.912
129.168
133.268
140.705
152.506
171.154
280.053
278.88
278.348
278.89
281.207
286.627
298.045
315.102
339.433
368.283
4613.67
4609.41
4607.41
4608.52
4612.63
4619.5
4628.65
4641.41
4657.98
4676.47
3919.57
3920.25
3920.62
3920.61
3920.33
3919.67
3918.86
3918.02
3917.34
3916.85
217.83
216.995
216.771
216.591
216.367
216.314
216.335
216.525
217.176
218.813
108.78
108.852
108.936
108.895
108.794
108.659
108.522
108.455
108.616
109.07
103.112
102.981
102.958
102.976
103.046
103.178
103.384
103.711
104.288
105.194
104.837
104.699
104.733
104.755
104.877
105.083
105.399
105.884
106.662
107.96
106.11
105.816
105.748
105.838
106.115
106.616
107.403
108.617
110.389
113.031
109.034
108.52
108.459
108.573
109.051
109.919
111.295
113.471
116.487
120.533
120.293
119.87
119.753
119.96
120.515
121.636
123.655
127.021
132.04
139.072
266.329
265.824
265.419
265.79
267.469
271.602
279.512
290.402
304.831
318.507
4442.38
4438.97
4437.34
4438.23
4441.51
4446.81
4453.98
4463.53
4475.07
4487
3771.87
3772.42
3772.76
3772.75
3772.51
3772.06
3771.51
3770.94
3770.49
3770.18
210.298
209.401
209.123
208.988
208.902
208.891
208.926
209.097
209.672
211.205
107.106
107.161
107.213
107.185
107.115
107.012
106.901
106.829
106.912
107.257
101.498
101.425
101.413
101.418
101.443
101.49
101.565
101.69
101.959
102.497
102.474
102.419
102.449
102.45
102.486
102.546
102.636
102.775
103.043
103.663
103.248
103.122
103.097
103.133
103.241
103.432
103.729
104.169
104.836
106.018
105.523
105.254
105.237
105.285
105.514
105.922
106.551
107.483
108.714
110.393
115.838
115.694
115.655
115.762
116.021
116.561
117.524
119.028
121.148
124.126
253.687
253.613
253.282
253.559
254.846
258.087
263.591
270.664
279.498
286.099
4262.85
4260.26
4259
4259.68
4262.18
4266.11
4271.49
4278.38
4286.18
4293.75
3618.04
3618.47
3618.75
3618.74
3618.58
3618.28
3617.92
3617.55
3617.25
3617.06
202.562
201.69
201.382
201.275
201.244
201.247
201.287
201.443
201.956
203.383
105.952
105.987
106.018
105.999
105.952
105.885
105.811
105.759
105.814
106.085
100.656
100.608
100.6
100.601
100.61
100.627
100.655
100.707
100.849
101.203
101.165
101.136
101.154
101.15
101.16
101.176
101.201
101.238
101.336
101.676
101.595
101.543
101.535
101.549
101.585
101.647
101.746
101.891
102.134
102.725
103.36
103.212
103.212
103.233
103.346
103.544
103.839
104.255
104.777
105.563
112.677
112.67
112.671
112.727
112.839
113.09
113.52
114.163
115.005
116.373
241.665
241.861
241.566
241.794
242.845
245.359
249.182
253.805
259.345
262.338
4075.51
4073.64
4072.74
4073.23
4075.03
4077.84
4081.73
4086.51
4091.62
4096.34
3458.29
3458.64
3458.84
3458.84
3458.74
3458.55
3458.31
3458.07
3457.89
3457.76
194.436
193.596
193.303
193.217
193.196
193.202
193.242
193.381
193.839
195.153
105.055
105.074
105.088
105.076
105.047
105.007
104.963
104.932
104.974
105.181
100.227
100.194
100.189
100.189
100.191
100.196
100.206
100.229
100.31
100.553
100.466
100.443
100.449
100.446
100.45
100.46
100.472
100.488
100.533
100.737
100.68
100.658
100.657
100.661
100.669
100.684
100.708
100.746
100.829
101.149
102.066
101.975
101.979
101.991
102.053
102.158
102.307
102.511
102.751
103.17
110.373
110.423
110.442
110.472
110.518
110.625
110.792
111.039
111.315
111.988
229.847
230.206
229.922
230.124
231.034
232.881
235.502
238.508
242.031
243.098
3880.91
3879.64
3879.04
3879.38
3880.6
3882.55
3885.25
3888.44
3891.68
3894.56
3292.9
3293.18
3293.33
3293.33
3293.27
3293.15
3293
3292.85
3292.74
3292.64
185.81
185.007
184.742
184.666
184.647
184.654
184.689
184.808
185.215
186.413
104.284
104.29
104.294
104.286
104.269
104.248
104.225
104.21
104.244
104.396
100.016
99.994
99.9918
99.991
99.9903
99.9896
99.9907
99.9998
100.047
100.214
100.11
100.086
100.085
100.082
100.088
100.099
100.114
100.131
100.161
100.29
100.198
100.187
100.187
100.188
100.187
100.186
100.187
100.192
100.218
100.402
101.305
101.243
101.245
101.255
101.294
101.359
101.446
101.561
101.689
101.946
108.596
108.667
108.692
108.71
108.729
108.762
108.806
108.874
108.904
109.265
217.813
218.332
218.046
218.23
218.984
220.247
222.002
223.921
226.165
226.193
3679.76
3678.91
3678.55
3678.78
3679.57
3680.89
3682.68
3684.72
3686.68
3688.42
3122.24
3122.47
3122.58
3122.59
3122.55
3122.48
3122.39
3122.3
3122.22
3122.14
176.598
175.837
175.604
175.539
175.517
175.522
175.55
175.649
176.007
177.087
103.575
103.573
103.57
103.565
103.556
103.547
103.538
103.534
103.565
103.671
99.9215
99.9075
99.9077
99.9068
99.9041
99.8998
99.8959
99.8973
99.9242
100.039
99.9392
99.9167
99.9101
99.9088
99.9155
99.9288
99.9466
99.9658
99.992
100.078
99.9598
99.952
99.9513
99.951
99.9491
99.946
99.9423
99.9397
99.9474
100.06
100.856
100.81
100.81
100.819
100.848
100.894
100.953
101.028
101.109
101.288
107.119
107.197
107.224
107.236
107.239
107.239
107.23
107.224
107.154
107.369
205.215
205.871
205.675
205.833
206.338
207.17
208.3
209.484
210.887
210.379
3472.83
3472.29
3472.07
3472.21
3472.73
3473.58
3474.71
3475.95
3477.07
3478.11
2946.84
2947.03
2947.11
2947.12
2947.1
2947.06
2947
2946.94
2946.9
2946.81
166.718
166.004
165.798
165.746
165.726
165.729
165.749
165.828
166.139
167.104
102.902
102.895
102.888
102.884
102.88
102.879
102.879
102.882
102.911
102.985
99.8894
99.8818
99.8835
99.8827
99.879
99.8729
99.8662
99.8634
99.8779
99.9545
99.8682
99.8478
99.8394
99.8384
99.845
99.8581
99.8756
99.895
99.9185
99.978
99.856
99.8486
99.8469
99.8461
99.8449
99.8432
99.8409
99.8391
99.8424
99.9137
100.58
100.544
100.542
100.55
100.572
100.607
100.65
100.704
100.761
100.897
105.801
105.871
105.898
105.907
105.903
105.892
105.865
105.834
105.733
105.88
191.884
192.591
192.502
192.607
192.927
193.442
194.122
194.809
195.641
194.897
3261.01
3260.69
3260.55
3260.65
3260.96
3261.48
3262.14
3262.85
3263.45
3264.05
2767.38
2767.54
2767.6
2767.61
2767.6
2767.58
2767.54
2767.51
2767.47
2767.38
156.073
155.411
155.228
155.189
155.181
155.182
155.194
155.254
155.517
156.372
102.259
102.248
102.239
102.235
102.235
102.237
102.242
102.251
102.279
102.334
99.8923
99.8887
99.8909
99.8902
99.8864
99.8801
99.8729
99.8684
99.8752
99.9255
99.8503
99.8331
99.825
99.824
99.8294
99.8402
99.8549
99.8715
99.8914
99.9347
99.8257
99.8186
99.8162
99.8152
99.8148
99.8145
99.8141
99.8139
99.8165
99.8628
100.389
100.361
100.358
100.364
100.381
100.406
100.438
100.477
100.518
100.622
104.558
104.613
104.637
104.643
104.639
104.626
104.598
104.564
104.464
104.578
177.681
178.369
178.367
178.428
178.611
178.895
179.252
179.599
180.027
179.241
3045.35
3045.16
3045.09
3045.15
3045.32
3045.61
3045.98
3046.35
3046.63
3046.97
2584.86
2584.98
2585.02
2585.03
2585.03
2585.01
2584.99
2584.97
2584.94
2584.84
144.528
143.932
143.788
143.762
143.758
143.757
143.761
143.801
144.011
144.762
101.655
101.64
101.629
101.626
101.627
101.631
101.638
101.649
101.674
101.723
99.9121
99.9099
99.9116
99.9107
99.9076
99.9025
99.8967
99.8926
99.8955
99.9279
99.8623
99.8491
99.8426
99.8415
99.8452
99.8528
99.8633
99.8756
99.8909
99.9227
99.8379
99.8318
99.8295
99.8285
99.8282
99.8283
99.8284
99.8287
99.831
99.8605
100.232
100.211
100.207
100.211
100.222
100.239
100.26
100.284
100.312
100.388
103.358
103.393
103.411
103.415
103.411
103.4
103.376
103.347
103.264
103.36
162.457
163.07
163.119
163.163
163.245
163.358
163.476
163.583
163.704
163.01
2827.12
2827.02
2826.98
2827.01
2827.1
2827.24
2827.43
2827.6
2827.72
2827.89
2400.35
2400.44
2400.47
2400.48
2400.48
2400.47
2400.46
2400.44
2400.42
2400.33
131.854
131.35
131.256
131.246
131.246
131.242
131.24
131.257
131.398
132.035
101.11
101.091
101.081
101.078
101.078
101.083
101.09
101.1
101.12
101.166
99.9342
99.9316
99.932
99.931
99.9289
99.9259
99.9226
99.9203
99.9217
99.9417
99.894
99.8849
99.8806
99.8798
99.8819
99.8864
99.8927
99.9006
99.9109
99.9327
99.8766
99.8725
99.8707
99.8698
99.8694
99.8692
99.8689
99.8688
99.8701
99.8873
100.088
100.075
100.072
100.073
100.079
100.088
100.099
100.112
100.128
100.176
102.211
102.228
102.238
102.239
102.234
102.222
102.203
102.181
102.128
102.208
145.598
146.08
146.116
146.151
146.208
146.285
146.362
146.416
146.34
145.825
2607.76
2607.71
2607.7
2607.71
2607.74
2607.78
2607.84
2607.88
2607.92
2608
2214.3
2214.37
2214.38
2214.38
2214.38
2214.38
2214.38
2214.38
2214.38
2214.33
117.498
117.158
117.127
117.132
117.135
117.131
117.121
117.115
117.163
117.61
100.634
100.614
100.605
100.6
100.6
100.604
100.61
100.62
100.635
100.674
99.9577
99.9556
99.955
99.9542
99.9532
99.952
99.9509
99.9503
99.9513
99.9602
99.9423
99.9373
99.935
99.9345
99.9356
99.9378
99.941
99.9451
99.9506
99.9625
99.9333
99.9311
99.9301
99.9296
99.9292
99.9288
99.9283
99.9279
99.9282
99.9358
99.9945
99.9885
99.9867
99.9871
99.9895
99.993
99.9972
100.002
100.009
100.029
101.15
101.149
101.151
101.149
101.143
101.133
101.12
101.107
101.09
101.151
125.828
126.116
126.135
126.155
126.187
126.228
126.269
126.291
126.237
125.883
2387.99
2387.96
2387.97
2387.97
2387.97
2387.97
2387.97
2387.97
2387.96
2388
7145.67
7250.08
7203.6
6997.36
661676
684420
688669
695483
1.49035e+06
1.57123e+06
1.576e+06
1.55431e+06
2.49275e+06
2.66038e+06
2.65428e+06
2.57151e+06
3.6971e+06
3.97591e+06
3.94585e+06
3.78456e+06
5.21219e+06
5.63293e+06
5.58041e+06
5.37774e+06
6.74686e+06
7.31928e+06
7.25565e+06
7.06847e+06
7.76085e+06
8.46179e+06
8.40792e+06
8.28646e+06
5.54387e+06
6.08433e+06
6.0195e+06
5.98624e+06
7854.33
8096.36
7935.06
7525.51
5731.97
5782
5782.64
5742.34
308800
322656
342009
372287
685376
770967
812172
846287
1.16386e+06
1.37743e+06
1.43638e+06
1.45927e+06
1.7363e+06
2.13247e+06
2.20157e+06
2.21305e+06
2.41557e+06
3.04197e+06
3.14305e+06
3.18571e+06
3.07603e+06
3.95237e+06
4.11741e+06
4.24325e+06
3.51495e+06
4.61218e+06
4.86001e+06
5.1009e+06
2.76462e+06
3.75036e+06
3.94522e+06
4.26008e+06
7084.8
7310.08
7238.52
7021.09
4926.36
4936.42
4935.05
4925.27
21827.8
25994.8
24551.7
19881.1
61633.8
72967.8
68021.8
55067
127926
150798
138529
111895
225766
265667
241129
195012
367139
433124
393317
319866
536810
634999
579368
475519
692087
822666
754615
624724
575407
683138
617193
514434
6309.84
6394.45
6371.13
6277.27
4704.6
4706.09
4706.36
4705.67
1624.69
1733.82
1695.49
1557.3
4747.38
5185.55
5001.68
4419.78
11235.5
12404.9
11777.4
10079.3
22414.8
24879.9
23251.4
19367.5
41285.7
46088.1
42623.7
34818.7
67424.2
75429.9
69186.6
55866.4
95813.1
107653
98163.6
78647.6
82004
91719.4
82188.1
65645.7
5874.43
5914.8
5911.34
5874.06
4556.8
4557.21
4557.24
4556.88
432.084
443.449
444.576
437.441
721.759
763.71
764.821
734.283
1602.95
1730.81
1715.32
1597.79
3195.58
3488.64
3402.68
3070.38
6099.08
6717.17
6453.03
5649.75
10385.7
11468.1
10851.2
9261.06
15484.7
17185.3
16058.4
13396.2
13617.8
15031.4
13733.5
11271.6
5553.2
5574.52
5575.66
5560.31
4434
4434.34
4434.3
4433.84
280.42
282.606
282.855
281.531
230.798
234.572
235.513
234.37
389.601
404.221
406.648
399.989
676.051
713.859
714.569
689.295
1212.49
1302.01
1291.82
1214.98
2008.37
2175.26
2129.57
1950.76
3010.78
3292.9
3181.91
2834.98
2876.35
3106.5
2939.59
2590.4
5295.89
5306.32
5308.26
5302.79
4312.1
4312.51
4312.48
4311.99
245.26
246.791
246.926
245.813
142.46
142.656
142.634
142.562
178.01
179.767
180.277
180.005
245.075
250.498
251.663
249.964
370.233
385.121
387.007
379.898
547.773
576.695
576.387
557.041
788.415
841.148
834.332
790.091
968.707
1008.19
986.007
939.662
5076.14
5080.86
5082.62
5081.41
4185.57
4186.04
4186.04
4185.55
230.907
232.397
232.563
231.505
119.698
119.539
119.39
119.328
127.16
127.181
127.117
127.121
147.236
147.85
147.952
147.884
184.566
187.208
187.795
187.104
234.094
239.386
240.11
238.064
312.959
323.794
324.366
318.527
536.113
540.126
536.566
533.013
4876.26
4878.21
4879.45
4879.65
4052.73
4053.24
4053.25
4052.77
221.878
223.382
223.591
222.579
111.984
111.867
111.754
111.691
111.236
111.082
110.963
110.953
118.53
118.444
118.334
118.33
132.47
132.922
132.964
132.834
150.179
151.074
151.172
150.943
186.827
189.2
189.489
188.583
396.537
392.95
391.742
394.381
4683.02
4683.7
4684.46
4684.94
3913.22
3913.76
3913.79
3913.31
214.276
215.77
216.005
215.041
108.709
108.65
108.579
108.526
105.133
105.012
104.924
104.911
108.077
107.941
107.835
107.824
114.146
114.197
114.138
114.064
122.118
122.165
122.085
122.045
144.363
144.843
144.846
144.629
333.345
328.011
327.01
330.392
4490.17
4490.3
4490.72
4491.15
3767.06
3767.6
3767.64
3767.18
206.891
208.356
208.605
207.688
106.998
106.978
106.937
106.894
102.476
102.4
102.344
102.335
103.693
103.598
103.528
103.516
106.524
106.519
106.466
106.408
110.831
110.744
110.654
110.635
126.657
126.692
126.613
126.51
296.612
291.003
289.986
293.268
4295.14
4295.05
4295.27
4295.59
3614.4
3614.94
3614.98
3614.53
199.283
200.706
200.962
200.09
105.893
105.895
105.874
105.84
101.221
101.177
101.144
101.137
101.71
101.653
101.612
101.604
103.036
103.035
103.002
102.958
105.731
105.65
105.585
105.571
118.01
117.946
117.858
117.785
271.094
265.616
264.605
267.681
4096.71
4096.58
4096.69
4096.88
3455.52
3456.04
3456.08
3455.64
191.264
192.641
192.898
192.07
105.033
105.051
105.042
105.014
100.592
100.568
100.549
100.544
100.779
100.747
100.724
100.72
101.37
101.378
101.359
101.327
103.279
103.225
103.183
103.173
113.253
113.174
113.097
113.037
250.895
245.665
244.688
247.564
3894.32
3894.24
3894.3
3894.37
3290.78
3291.26
3291.28
3290.87
182.737
184.062
184.318
183.53
104.281
104.308
104.307
104.282
100.262
100.252
100.241
100.235
100.332
100.315
100.304
100.302
100.565
100.577
100.567
100.543
102.052
102.021
101.997
101.988
110.323
110.253
110.187
110.133
233.302
228.356
227.428
230.116
3687.77
3687.8
3687.82
3687.78
3120.6
3121.03
3121.04
3120.67
173.628
174.898
175.15
174.404
103.582
103.615
103.62
103.595
100.088
100.085
100.079
100.072
100.116
100.109
100.103
100.102
100.179
100.191
100.186
100.168
101.405
101.393
101.379
101.369
108.285
108.229
108.173
108.121
216.898
212.253
211.385
213.891
3477.19
3477.32
3477.33
3477.21
2945.57
2945.92
2945.91
2945.59
163.866
165.079
165.327
164.622
102.922
102.958
102.965
102.94
100.001
100.004
100.001
99.9923
100.013
100.011
100.009
100.007
99.9986
100.009
100.006
99.9918
101.024
101.026
101.019
101.007
106.678
106.639
106.593
106.538
200.864
196.544
195.747
198.068
3262.95
3263.18
3263.19
3262.99
2766.41
2766.67
2766.65
2766.38
153.37
154.525
154.768
154.11
102.299
102.338
102.345
102.318
99.9684
99.9748
99.9732
99.9641
99.9659
99.9675
99.9668
99.9638
99.9198
99.9267
99.9247
99.9145
100.751
100.763
100.76
100.745
105.264
105.246
105.208
105.148
184.676
180.727
180.017
182.137
3045.74
3046.05
3046.06
3045.82
2584.16
2584.31
2584.27
2584.07
142.04
143.142
143.384
142.772
101.715
101.752
101.758
101.732
99.9666
99.9747
99.974
99.9652
99.9498
99.9527
99.9526
99.9493
99.8942
99.8976
99.896
99.8896
100.506
100.523
100.523
100.507
103.917
103.92
103.891
103.828
167.944
164.475
163.878
165.747
2826.6
2826.95
2826.97
2826.72
2399.97
2400.01
2399.95
2399.84
129.701
130.762
131.002
130.43
101.176
101.208
101.212
101.189
99.9736
99.9816
99.9815
99.9742
99.9535
99.9561
99.9562
99.9535
99.903
99.9034
99.902
99.8991
100.265
100.281
100.282
100.269
102.587
102.601
102.581
102.528
149.886
146.966
146.523
148.134
2606.85
2607.23
2607.25
2607
2214.37
2214.23
2214.18
2214.2
115.921
116.91
117.117
116.577
100.681
100.699
100.701
100.687
99.9786
99.984
99.9842
99.98
99.9746
99.976
99.976
99.9745
99.9398
99.9385
99.9375
99.937
100.073
100.083
100.084
100.077
101.317
101.313
101.302
101.283
128.438
126.428
126.192
127.337
2387.24
2387.62
2387.63
2387.37
6080.68
5426.99
5160.94
5065.91
5011.04
4972.67
4947.4
4933.53
4925.94
4921.72
788178
186713
32540.8
11385.1
5118.24
2733.07
1685.86
1171.34
899.436
742.89
1.39892e+06
236139
42950.5
14630.6
6517.56
3486.26
2106.36
1398.97
1005.63
770.837
1.95078e+06
226066
45167.8
14449.4
6203.04
3231.35
1904.3
1237.22
873.466
661.121
2.38834e+06
243752
47226
13972.6
5820.7
2948.4
1702.17
1090.14
761.801
575.071
2.85554e+06
267425
49356.3
13403.1
5378.91
2631.05
1484.57
936.899
651.405
492.976
3.23096e+06
285753
50190.5
12622.2
4921.2
2347.31
1310.9
825.85
575.876
439.784
3.31977e+06
279099
46116
10574.8
3981.83
1861.09
1049.63
678.009
491.569
389.62
2.29021e+06
177116
26511.3
5521.66
2207.49
1210.31
844.807
665.1
565.194
506.557
5991.32
5965.21
5821.37
5797.45
5755.2
5732.01
5713.82
5704.35
5698.05
5692.41
5424.38
5161.28
5033.23
4961.01
4915.54
4885.62
4866.37
4855.17
4849.25
4845.72
177142
44208.3
13469
5258
2593.53
1537.08
1043.37
786.877
644.625
562.638
367607
84527
23036.8
8124.72
3795
2126.62
1342.93
928.274
690.977
550.217
579727
122689
29881.6
9372.02
4087.51
2178.22
1320.74
882.778
639.968
500.371
807135
159850
35244.6
10055.3
4149.76
2126.4
1254.9
823.841
589.605
458.759
1.08373e+06
201315
40398.9
10463.6
4071.69
1999.31
1147.08
739.181
524.911
408.53
1.35797e+06
237674
43860.2
10433.7
3882.41
1852.79
1049.44
674.286
479.478
375.722
1.53308e+06
252065
42608.7
9193.3
3255.53
1520.84
868.521
571.504
421.919
342.392
1.15952e+06
174327
26045
5078.24
1911.43
1069.17
761.326
610.338
524.539
476.791
6219.68
5923.53
5766.07
5708.69
5659.27
5629.77
5608.56
5595.76
5586.82
5578.72
4891.81
4857.96
4830.56
4807.52
4789.52
4776.57
4768.08
4763.14
4760.5
4758.78
9194.3
4199.57
2313.64
1436.38
983.46
731.985
587.173
501.438
449.469
417.843
23799.5
9528.29
4630.66
2525.36
1522.27
994.139
700.476
529.404
424.532
359.306
44718.9
15744.2
6829.34
3341.07
1851.22
1127.4
750.434
541.716
419.355
346.385
72064.4
22408.4
8788.73
3936.86
2049.23
1189.25
765.01
539.925
411.293
336.985
109747
30286.2
10719.5
4392.54
2151.07
1189.53
739.741
510.324
384.446
314.064
152639
37813.5
12167.4
4613.65
2160.6
1157.81
708.504
486.184
365.855
299.913
187376
41676.8
12101.3
4217.4
1897.05
999.008
617.302
433.624
337.453
284.832
138254
26920.3
7066.65
2468.76
1276.16
829.088
636.277
533.799
472.229
437.59
5986.81
5807.08
5684.88
5612.88
5561.4
5529.52
5507.48
5492.56
5481.57
5471.77
4701.52
4693.63
4684.4
4675.94
4669.53
4665.24
4662.66
4661.47
4661.29
4661.12
1221.57
921.708
720.263
577.317
482.855
422.443
383.888
358.799
342.147
331.815
3033.05
1932
1277.52
862.335
611.07
458.634
364.885
305.785
266.885
241.212
6173.29
3462.76
2040.05
1235.96
799.64
554.665
413.021
328.212
275.241
242.05
10593.5
5270.21
2820.61
1570.88
952.26
626.773
448.848
347.331
285.618
248.128
17052.4
7505.83
3658.84
1877.23
1068.34
667.275
459.645
346.177
280.327
241.775
24708.3
9685.57
4347.86
2085.12
1134.69
685.419
462.962
345.534
278.299
239.648
31390
10912.1
4492.73
2014.1
1060.26
632.574
431.452
328.127
270.922
238.102
22899.3
7127.28
2864.97
1403.4
888.144
655.257
538.857
471.353
428.033
403.25
5760.32
5633.73
5537.16
5475.04
5432.36
5404.52
5384.62
5370.41
5359.71
5350.33
4556.56
4555.62
4554.26
4553.1
4552.39
4552.11
4552.18
4552.69
4553.77
4554.7
419.492
390.419
362.926
339.436
321.567
308.519
299.065
292.141
286.974
283.861
643.749
520.165
417.322
337.653
281.204
242.489
216.245
198.334
185.565
176.567
1286.05
927.794
665.298
483.556
366.737
292.203
244.494
213.522
192.801
179.144
2256.13
1467
958.531
640.396
453.499
342.225
275.148
233.859
206.876
189.528
3762.65
2199.65
1313.15
807.184
533.742
380.871
293.738
242.421
210.581
190.954
5596.86
2964.55
1640.16
943.916
594.744
409.41
308.558
251.371
216.242
194.88
7293.2
3487.48
1792.17
974.762
596.985
406.902
308.317
253.678
221.286
201.723
5499.57
2550.06
1392.99
883.43
655.691
534.479
464.808
420.829
390.647
373.133
5510.21
5435.48
5371.87
5326.86
5294.03
5270.62
5253.03
5239.88
5229.73
5220.99
4434.09
4434.42
4434.62
4434.95
4435.45
4436.06
4436.76
4437.66
4439.02
4440.54
281.904
279.134
275.122
270.939
267.246
264.179
261.699
259.695
258.055
256.912
228.878
214.403
197.834
182.594
170.356
161.13
154.392
149.49
145.686
142.811
374.804
323.985
274.129
233.222
203.07
181.636
166.583
156
148.419
143.219
610.982
485.544
378.168
298.942
245.54
210.172
186.799
171.254
160.237
152.751
1003.15
726.472
518.018
377.809
290.597
236.322
202.305
180.577
166.06
156.682
1496.52
996.98
660.21
451.699
331.127
260.017
217.446
191.322
173.915
162.72
1999.72
1226.69
761.896
497.44
355.57
275.975
230.237
202.653
185.053
173.942
1764.46
1147.47
804.666
617.712
513.967
449.868
408.14
379.702
358.914
346.715
5280.95
5240.19
5201.48
5170.56
5145.95
5126.88
5111.87
5100.17
5090.93
5083.1
4312.25
4312.68
4313.05
4313.54
4314.15
4314.82
4315.51
4316.35
4317.61
4319.2
247.107
246.908
246.182
245.274
244.382
243.563
242.832
242.17
241.548
240.867
142.302
140.419
137.557
134.57
131.974
129.904
128.341
127.177
126.181
125.357
177.747
169.52
159.381
149.906
142.129
136.045
131.374
127.83
125.148
123.287
241.732
219.772
196.405
176.817
162.053
151.265
143.462
137.864
133.548
130.477
353.627
300.263
250.487
212.278
185.441
166.887
154.056
145.133
138.722
134.453
496.849
395.466
309.853
249.264
209.471
183.355
166.072
154.55
146.187
140.536
666.89
498.306
370.716
287.179
235.641
203.22
182.489
168.866
159.55
153.488
807.871
659.666
548.948
475.096
425.356
390.391
365.113
346.693
332.432
323.97
5072.04
5050.74
5027.66
5006.75
4988.66
4973.65
4961.29
4951.32
4943.23
4936.51
4185.7
4186.01
4186.27
4186.63
4187.09
4187.58
4188.08
4188.71
4189.73
4191.11
232.828
232.882
232.662
232.366
232.064
231.763
231.459
231.135
230.766
230.202
119.427
119.165
118.594
117.962
117.417
117.004
116.731
116.567
116.394
116.216
126.942
125.314
122.94
120.524
118.384
116.574
115.078
113.878
112.954
112.343
146.938
142.501
137.023
132.007
127.882
124.598
122.026
120.068
118.434
117.237
183.15
171.483
158.961
148.277
139.926
133.534
128.675
125.023
122.243
120.391
229.234
206.926
184.671
166.994
153.921
144.37
137.398
132.385
128.435
125.665
297.683
257.751
221.92
195.147
176.25
162.927
153.512
146.831
141.998
138.816
506.871
464.875
424.737
392.68
367.414
347.68
332.129
320.126
310.341
304.48
4875.04
4863.65
4849.74
4835.76
4822.78
4811.38
4801.6
4793.45
4786.66
4781.12
4052.78
4052.97
4053.11
4053.34
4053.63
4053.94
4054.24
4054.64
4055.42
4056.55
223.843
223.871
223.729
223.561
223.393
223.214
223.012
222.761
222.429
221.857
111.769
111.677
111.495
111.326
111.217
111.174
111.197
111.265
111.302
111.305
110.945
110.464
109.746
109.015
108.356
107.775
107.273
106.861
106.559
106.394
118.189
117.04
115.563
114.179
112.992
111.99
111.162
110.513
109.927
109.492
131.92
128.766
125.235
122.014
119.28
117
115.124
113.625
112.444
111.693
149.369
143.756
137.537
132.127
127.687
124.114
121.278
119.112
117.272
115.946
183.833
172.934
162.105
153.006