/*--------------------------------*- C++ -*----------------------------------*\
| =========                 |                                                 |
| \\      /  F ield         | foam-extend: Open Source CFD                    |
|  \\    /   O peration     | Version:     4.0                                |
|   \\  /    A nd           | Web:         http://www.foam-extend.org         |
|    \\/     M anipulation  |                                                 |
\*---------------------------------------------------------------------------*/
FoamFile
{
    version     2.0;
    format      ascii;
    class       volScalarField;
    location    "750";
    object      k;
}
// * * * * * * * * * * * * * * * * * * * * * * * * * * * * * * * * * * * * * //

dimensions      [0 2 -2 0 0 0 0];

internalField   nonuniform List<scalar> 
34480
(
8.75695
8.75499
8.75492
8.75631
8.75941
8.76488
8.77962
8.84168
9.06253
9.66536
9.11038
8.52419
8.4427
8.72052
9.31308
10.2107
11.8732
15.9444
29.1733
67.8561
14.6531
13.2385
12.8343
13.008
13.6025
14.6824
17.1058
22.998
42.1651
102.425
14.156
12.7091
12.3134
12.538
13.2723
14.7135
17.9173
25.4081
49.5318
128.263
13.1781
11.8556
11.5606
11.8589
12.7332
14.4566
18.2181
26.9075
55.3161
151.471
12.0571
10.8724
10.6112
10.9241
11.8403
13.7433
17.96
27.8494
60.9558
176.111
11.2309
10.1908
9.98227
10.2883
11.2096
13.1862
17.6605
28.3802
65.2953
197.091
9.80847
9.03006
8.85964
9.10066
9.83576
11.5173
15.5931
26.1138
64.3015
204.585
6.8865
6.63658
6.59906
6.71728
7.05358
7.78331
9.77825
16.2804
43.2629
148.846
9.217
9.21725
9.22272
9.23491
9.25251
9.27373
9.29885
9.33627
9.40583
9.47587
8.66724
8.66472
8.66428
8.66579
8.66995
8.67766
8.69084
8.72114
8.79546
9.05268
7.83444
7.42499
7.33758
7.49421
7.93407
8.77058
10.2276
12.1034
15.635
41.9534
12.0096
10.973
10.7039
10.9184
11.5997
12.8662
15.0898
18.0927
24.0747
67.6308
11.9355
10.8173
10.5333
10.7916
11.599
13.143
15.9138
19.9207
28.5291
87.1755
11.4412
10.373
10.1456
10.4401
11.3386
13.0711
16.2303
20.9627
31.8338
104.916
10.7037
9.71929
9.50177
9.79608
10.706
12.5297
15.9674
21.3621
34.7291
123.976
10.1573
9.26749
9.08589
9.36199
10.2523
12.0855
15.6678
21.4945
36.9192
140.824
9.04178
8.36642
8.20978
8.42078
9.11525
10.6223
13.7579
19.2668
35.4846
146.959
6.65222
6.4209
6.37605
6.45675
6.72655
7.31608
8.65864
11.5661
22.3666
101.894
9.09009
9.08552
9.08579
9.09237
9.10447
9.12017
9.14031
9.17471
9.24553
9.42681
8.56489
8.56244
8.5617
8.56251
8.56522
8.5698
8.57589
8.58866
8.6179
8.68376
6.73874
6.52797
6.47596
6.55177
6.78114
7.22883
8.04036
9.38531
11.2679
16.7503
9.58403
8.97138
8.82923
9.00254
9.52223
10.4793
12.1133
14.5722
17.7278
29.7695
9.78915
9.07713
8.91181
9.13339
9.79055
11.0366
13.2157
16.5713
21.1732
41.3642
9.68163
8.96666
8.8291
9.07687
9.81607
11.2481
13.8199
17.8389
23.7207
52.7625
9.2857
8.60103
8.45898
8.71016
9.47043
11.0098
13.8905
18.5234
25.8839
65.2631
8.99695
8.35511
8.23403
8.4724
9.2249
10.794
13.8513
18.8895
27.5454
77.0385
8.20364
7.70845
7.59942
7.78398
8.37063
9.65852
12.3489
17.1319
26.4265
82.7146
6.38562
6.2058
6.17326
6.23904
6.45317
6.91808
7.96076
10.3669
16.5791
56.7382
8.97101
8.96346
8.96076
8.96416
8.97312
8.98627
9.0035
9.03575
9.11222
9.30825
8.44906
8.44759
8.44723
8.44789
8.44977
8.45241
8.45413
8.45752
8.46691
8.48657
5.9929
5.89935
5.87266
5.90376
6.00411
6.19971
6.55062
7.17085
8.10658
10.0711
7.77114
7.45709
7.38948
7.48854
7.7907
8.35637
9.32414
10.8626
12.8165
17.425
8.0901
7.68387
7.59143
7.73319
8.15696
8.9716
10.3961
12.7026
15.6541
23.9124
8.22207
7.78604
7.70503
7.86957
8.36692
9.34425
11.1059
14.0222
17.8338
30.4413
8.07673
7.63411
7.54117
7.71648
8.24846
9.34015
11.3964
14.9236
19.7314
37.874
7.98337
7.54651
7.46434
7.63631
8.17935
9.32264
11.5627
15.5181
21.1751
45.0435
7.46788
7.12028
7.04278
7.1809
7.61142
8.55806
10.5386
14.3473
20.4381
48.643
6.14675
6.00924
5.98493
6.03421
6.19301
6.53057
7.25067
8.97902
12.874
32.7642
8.83766
8.83005
8.82708
8.83
8.83852
8.85215
8.87026
8.90293
8.97401
9.12664
8.32127
8.32068
8.32064
8.32107
8.3221
8.32306
8.32192
8.32056
8.32079
8.32306
5.53547
5.49783
5.4847
5.49485
5.53157
5.60289
5.72736
5.94308
6.2552
6.73892
6.56305
6.4214
6.39333
6.43606
6.57327
6.83402
7.28526
8.03359
9.01219
10.5846
6.87164
6.65882
6.60871
6.68188
6.9071
7.34415
8.11305
9.4135
11.11
14.2514
7.10589
6.85826
6.8119
6.90318
7.18705
7.74672
8.76049
10.5318
12.8677
17.982
7.11142
6.83989
6.77903
6.88447
7.20825
7.87283
9.1286
11.4203
14.5228
22.3921
7.14291
6.85742
6.80109
6.90953
7.25663
7.98337
9.40424
12.0878
15.834
26.7086
6.84327
6.60706
6.55131
6.64356
6.92825
7.54592
8.8197
11.4429
15.518
28.9328
5.9349
5.83123
5.81273
5.84663
5.95763
6.18746
6.64777
7.73157
10.0204
19.0685
8.69487
8.68734
8.6842
8.68668
8.69461
8.70798
8.72581
8.75613
8.81592
8.92607
8.18237
8.18245
8.18264
8.1829
8.18331
8.1832
8.18096
8.17838
8.17637
8.17509
5.27373
5.25982
5.25341
5.25582
5.26739
5.29059
5.33128
5.39983
5.4962
5.61162
5.82027
5.76526
5.75729
5.77222
5.82339
5.92105
6.09011
6.3756
6.76742
7.28598
6.05705
5.95415
5.92927
5.96291
6.06901
6.27268
6.62447
7.22457
8.04305
9.25894
6.29927
6.16899
6.14553
6.19125
6.33726
6.61967
7.1203
8.01124
9.23928
11.3396
6.37443
6.21754
6.1804
6.23921
6.42057
6.78515
7.45746
8.71592
10.4871
13.9093
6.4699
6.29271
6.2569
6.32069
6.52756
6.9499
7.75125
9.31114
11.5525
16.4349
6.32501
6.17257
6.13507
6.19366
6.37128
6.74606
7.4878
9.0511
11.531
17.7147
5.74933
5.67365
5.66062
5.68311
5.7584
5.90997
6.19527
6.82491
8.03523
11.7356
8.54169
8.53452
8.53139
8.53353
8.54082
8.55337
8.57017
8.59706
8.64373
8.71684
8.03294
8.03343
8.03377
8.03391
8.03392
8.03319
8.03084
8.02832
8.02616
8.02452
5.13146
5.12641
5.12297
5.12295
5.1258
5.13255
5.14555
5.168
5.20098
5.23567
5.39015
5.37297
5.3735
5.37722
5.39178
5.42037
5.4716
5.56102
5.69073
5.84175
5.5441
5.4971
5.48567
5.49983
5.54568
5.63195
5.77564
6.01365
6.34529
6.77604
5.74767
5.68373
5.67363
5.69451
5.76364
5.89324
6.11329
6.49514
7.03621
7.83721
5.84007
5.75411
5.73289
5.76361
5.85881
6.04441
6.37116
6.96919
7.83714
9.25488
5.9566
5.8516
5.83043
5.86553
5.98203
6.21206
6.62677
7.41885
8.58891
10.6869
5.91382
5.82054
5.79689
5.83219
5.93705
6.15173
6.55444
7.38109
8.7164
11.4324
5.59341
5.53957
5.531
5.54525
5.59474
5.69172
5.86557
6.21946
6.84118
8.2507
8.37758
8.37099
8.36803
8.36987
8.37641
8.38768
8.40277
8.42566
8.4612
8.50935
7.87328
7.87399
7.8744
7.87446
7.87426
7.87324
7.87129
7.86925
7.86752
7.86622
5.05648
5.05432
5.05217
5.05163
5.05203
5.05401
5.0585
5.06717
5.08201
5.09967
5.15104
5.1484
5.15167
5.15174
5.15323
5.15739
5.16782
5.19078
5.23111
5.27781
5.23562
5.2148
5.2099
5.21548
5.23411
5.2685
5.32375
5.41153
5.53562
5.68544
5.38719
5.35789
5.35471
5.36339
5.3938
5.44889
5.53811
5.68519
5.89458
6.17919
5.46972
5.42496
5.41365
5.42882
5.47614
5.56553
5.71507
5.97344
6.34818
6.89644
5.58198
5.52236
5.51085
5.52895
5.59153
5.711
5.91467
6.28178
6.82103
7.65996
5.60094
5.54725
5.53345
5.55369
5.61223
5.7289
5.9373
6.34089
6.98701
8.10667
5.46728
5.42977
5.42459
5.43325
5.46503
5.52569
5.63065
5.82721
6.14891
6.7064
8.202
8.19618
8.1935
8.19507
8.20076
8.21048
8.22339
8.24214
8.26857
8.3007
7.70347
7.70427
7.7047
7.70472
7.70443
7.70342
7.70196
7.70044
7.69917
7.69826
5.01711
5.01576
5.01421
5.01373
5.0137
5.01456
5.01663
5.0211
5.03008
5.04339
5.02218
5.02422
5.02777
5.02703
5.0249
5.02218
5.0208
5.02412
5.03718
5.05687
5.05741
5.04808
5.04605
5.04814
5.05538
5.06859
5.08929
5.12129
5.16894
5.22828
5.16112
5.14856
5.1484
5.15161
5.16397
5.18565
5.21944
5.27236
5.349
5.45287
5.22387
5.20169
5.19609
5.2032
5.2255
5.26648
5.33224
5.43848
5.59063
5.80044
5.32009
5.28742
5.28175
5.2905
5.32274
5.38251
5.47963
5.64241
5.87424
6.19577
5.37276
5.34412
5.33684
5.34789
5.37854
5.43837
5.54173
5.72941
6.02267
6.46987
5.36909
5.34328
5.34048
5.3456
5.36574
5.40324
5.46633
5.5753
5.74257
5.98448
8.01454
8.0096
8.00729
8.00859
8.01338
8.02139
8.03199
8.04675
8.0659
8.08726
7.52343
7.52425
7.52466
7.52466
7.52436
7.52354
7.5225
7.52143
7.52055
7.51995
4.99568
4.99454
4.99335
4.99302
4.99308
4.99375
4.99515
4.99816
5.00474
5.01631
4.95442
4.9574
4.96036
4.95968
4.95723
4.95361
4.95001
4.94854
4.95341
4.96544
4.95834
4.95381
4.95292
4.95368
4.95645
4.96149
4.96926
4.98129
5.00137
5.03061
5.02483
5.01969
5.02049
5.02146
5.02605
5.03385
5.04569
5.06355
5.09124
5.13433
5.06749
5.057
5.05445
5.05761
5.06752
5.08532
5.11308
5.15537
5.21604
5.30273
5.14467
5.12715
5.12469
5.12866
5.14473
5.17376
5.21923
5.29035
5.38793
5.51564
5.21333
5.1996
5.19635
5.2021
5.21687
5.2453
5.29375
5.37726
5.50498
5.68956
5.29547
5.2777
5.27645
5.27946
5.29229
5.31561
5.35358
5.41433
5.50091
5.6153
7.8149
7.8109
7.809
7.81005
7.81392
7.82019
7.82859
7.83978
7.85329
7.86727
7.33311
7.33381
7.3342
7.33419
7.33391
7.33333
7.33262
7.33189
7.3313
7.33092
4.98294
4.98194
4.98101
4.9808
4.98099
4.9816
4.98274
4.98505
4.99026
5.00059
4.91938
4.92207
4.92429
4.92385
4.92196
4.91909
4.91597
4.91395
4.91622
4.92512
4.90535
4.90281
4.90234
4.90262
4.9037
4.9057
4.90875
4.91362
4.92318
4.94053
4.94583
4.94362
4.94443
4.94461
4.94617
4.94874
4.95257
4.95822
4.96834
4.98923
4.97224
4.96746
4.9664
4.96774
4.97184
4.97906
4.99015
5.00631
5.03022
5.07014
5.0321
5.02265
5.02175
5.02349
5.03137
5.04529
5.06645
5.09763
5.13879
5.19392
5.10662
5.10117
5.10021
5.10307
5.10933
5.12134
5.14196
5.17664
5.22902
5.31035
5.24208
5.22968
5.22935
5.23122
5.23963
5.25452
5.27764
5.31201
5.3565
5.41462
7.60291
7.59982
7.59833
7.59915
7.60214
7.60684
7.61325
7.62143
7.63069
7.63969
7.13225
7.13281
7.13315
7.13314
7.13294
7.13255
7.13207
7.13158
7.1312
7.13097
4.97435
4.9735
4.97279
4.97266
4.97288
4.97343
4.97437
4.9762
4.98042
4.98959
4.90139
4.90351
4.90506
4.90483
4.90357
4.90164
4.89949
4.89792
4.89923
4.90608
4.87812
4.87648
4.87618
4.87628
4.87674
4.87758
4.87888
4.88106
4.88619
4.89764
4.9018
4.90058
4.90106
4.90103
4.90157
4.90247
4.90377
4.9056
4.90959
4.92114
4.91674
4.91459
4.91419
4.91473
4.91628
4.91894
4.92302
4.92881
4.93808
4.95835
4.96287
4.95751
4.95726
4.95806
4.96202
4.96885
4.97892
4.99304
5.01087
5.03721
5.03807
5.03682
5.03707
5.03843
5.04046
5.04442
5.05158
5.06404
5.08283
5.1214
5.20438
5.1955
5.19567
5.19698
5.2028
5.21273
5.2272
5.24718
5.26991
5.30183
7.37851
7.37625
7.37515
7.37577
7.37796
7.38136
7.38605
7.39182
7.39798
7.40367
6.92065
6.9211
6.92137
6.92137
6.92123
6.92098
6.92067
6.92035
6.9201
6.91996
4.96776
4.96705
4.96654
4.96647
4.96667
4.96711
4.96786
4.96929
4.97272
4.9807
4.89206
4.89364
4.89467
4.89458
4.89382
4.89266
4.89134
4.89032
4.8912
4.89631
4.86479
4.86365
4.86345
4.86348
4.86367
4.86402
4.86459
4.86565
4.86862
4.87654
4.8782
4.87725
4.87739
4.87734
4.87763
4.87815
4.87885
4.87973
4.88167
4.88865
4.88585
4.88483
4.88468
4.88489
4.8854
4.88625
4.88756
4.88944
4.89297
4.90413
4.92197
4.91863
4.91858
4.91903
4.92121
4.92486
4.93001
4.93697
4.94532
4.95954
4.9955
4.99613
4.99691
4.99754
4.99769
4.99808
4.99918
5.00205
5.00639
5.02639
5.17809
5.17153
5.17194
5.17302
5.17735
5.18432
5.19378
5.20589
5.21742
5.2368
7.14175
7.14019
7.13944
7.13988
7.14139
7.14379
7.14709
7.15101
7.15497
7.15851
6.69813
6.69851
6.69871
6.69871
6.69863
6.69848
6.69828
6.69807
6.69792
6.69781
4.96218
4.96161
4.96127
4.96124
4.96139
4.96172
4.96229
4.96338
4.96615
4.9729
4.88708
4.88822
4.88887
4.88884
4.88843
4.8878
4.8871
4.88653
4.88719
4.8908
4.85873
4.85794
4.85783
4.85783
4.85787
4.85797
4.85816
4.85867
4.86046
4.866
4.8661
4.86521
4.8651
4.86507
4.86533
4.86583
4.8665
4.86725
4.86852
4.87301
4.86947
4.8689
4.86882
4.86889
4.86903
4.86925
4.8696
4.87013
4.87148
4.87804
4.89858
4.89625
4.89622
4.89657
4.89796
4.90019
4.90321
4.90717
4.91167
4.9205
4.96939
4.97066
4.97161
4.97191
4.97139
4.97045
4.96919
4.96834
4.9669
4.97857
5.15952
5.1546
5.1551
5.1561
5.15952
5.16471
5.17125
5.179
5.18471
5.19792
6.89282
6.89177
6.89132
6.89161
6.8926
6.89425
6.89648
6.89902
6.90147
6.90364
6.46463
6.46495
6.46509
6.4651
6.46506
6.46496
6.46484
6.46471
6.46461
6.46451
4.95717
4.95675
4.95656
4.95656
4.95667
4.95689
4.95728
4.95808
4.96032
4.96582
4.88421
4.88502
4.88538
4.88539
4.88519
4.88492
4.88463
4.88441
4.88498
4.88736
4.85642
4.85591
4.85588
4.85587
4.85582
4.85576
4.85573
4.85592
4.85699
4.86084
4.86022
4.85939
4.85915
4.85912
4.85939
4.85991
4.8606
4.86136
4.86239
4.86541
4.86126
4.86086
4.86078
4.86079
4.86083
4.86088
4.86096
4.86111
4.86169
4.86575
4.88536
4.88361
4.88354
4.88385
4.88486
4.88644
4.88848
4.89108
4.89394
4.90018
4.95277
4.95405
4.95498
4.95515
4.95452
4.95332
4.95146
4.94954
4.94614
4.95395
5.14577
5.14206
5.14262
5.14361
5.1464
5.15048
5.15528
5.16054
5.16313
5.17313
6.63197
6.63129
6.63101
6.6312
6.63185
6.63294
6.63437
6.63594
6.63737
6.63869
6.22019
6.22045
6.22056
6.22057
6.22055
6.22049
6.22042
6.22033
6.22027
6.22016
4.95254
4.9523
4.95222
4.95227
4.95234
4.95246
4.95271
4.95327
4.95507
4.95934
4.88229
4.88283
4.88298
4.88299
4.88293
4.88289
4.88287
4.88289
4.88347
4.88499
4.85605
4.85576
4.85579
4.85576
4.85567
4.85551
4.85536
4.85537
4.85598
4.85863
4.85764
4.8569
4.85661
4.85658
4.85683
4.85731
4.85795
4.85866
4.85954
4.86167
4.8575
4.85715
4.85706
4.85705
4.85707
4.85711
4.85716
4.85724
4.85755
4.86018
4.87761
4.87625
4.87613
4.8764
4.87719
4.87838
4.87988
4.88174
4.88376
4.88854
4.9407
4.94171
4.94253
4.94266
4.94215
4.94114
4.93946
4.93757
4.93389
4.93982
5.13461
5.13186
5.13243
5.13342
5.13577
5.13912
5.14283
5.14659
5.14739
5.15545
6.35953
6.35911
6.35894
6.35907
6.35948
6.36015
6.36102
6.36193
6.3627
6.36348
5.96505
5.96527
5.96536
5.96537
5.96536
5.96533
5.96528
5.96523
5.96518
5.96505
4.94819
4.94815
4.94816
4.94826
4.94832
4.94837
4.94848
4.94883
4.95029
4.95345
4.88067
4.88097
4.88096
4.88095
4.88096
4.88105
4.88119
4.88139
4.88201
4.88309
4.85666
4.8565
4.85655
4.85652
4.85641
4.85623
4.85604
4.85596
4.85629
4.85808
4.85677
4.85616
4.85587
4.85584
4.85604
4.85642
4.85694
4.85753
4.85826
4.85982
4.85612
4.85582
4.85572
4.85569
4.85571
4.85576
4.85582
4.8559
4.85611
4.85784
4.87238
4.87133
4.87119
4.8714
4.87198
4.87286
4.87396
4.87528
4.87673
4.88043
4.92982
4.93045
4.93112
4.93124
4.93092
4.93021
4.92895
4.92749
4.92422
4.92911
5.12412
5.12218
5.12274
5.12371
5.12572
5.1285
5.13146
5.13419
5.13391
5.14044
6.07602
6.07578
6.07568
6.07576
6.076
6.07638
6.07687
6.07736
6.07773
6.07817
5.69983
5.70002
5.70008
5.7001
5.70009
5.70007
5.70004
5.7
5.69995
5.6998
4.94387
4.94403
4.94416
4.94432
4.94437
4.94436
4.94436
4.94452
4.94565
4.94794
4.87898
4.87901
4.87889
4.87884
4.87888
4.87902
4.87924
4.87954
4.88015
4.88119
4.8576
4.8575
4.85754
4.85751
4.85741
4.85726
4.85709
4.857
4.85716
4.85835
4.85681
4.85634
4.85612
4.85608
4.85621
4.85647
4.85684
4.85727
4.85782
4.85897
4.85608
4.85584
4.85575
4.85572
4.85573
4.85576
4.8558
4.85586
4.856
4.85711
4.86786
4.8671
4.86696
4.86708
4.86746
4.86804
4.86876
4.86961
4.87059
4.8733
4.91795
4.91821
4.9187
4.9188
4.91861
4.91814
4.91727
4.91624
4.9137
4.91781
5.11168
5.11046
5.11096
5.11188
5.11355
5.11581
5.11813
5.12004
5.11907
5.12399
5.78224
5.78211
5.78206
5.7821
5.78222
5.78242
5.78266
5.7829
5.78306
5.78328
5.42532
5.42548
5.42552
5.42553
5.42553
5.42552
5.4255
5.42548
5.42544
5.4253
4.93824
4.93857
4.9389
4.93914
4.93921
4.93914
4.93901
4.93894
4.93958
4.94132
4.87699
4.87673
4.87653
4.87645
4.87648
4.87663
4.87685
4.87717
4.87771
4.87884
4.85838
4.85828
4.85828
4.85825
4.85818
4.85809
4.85799
4.85794
4.85803
4.85878
4.85742
4.85711
4.85696
4.85693
4.857
4.85715
4.85737
4.85764
4.85801
4.85879
4.85686
4.8567
4.85664
4.85661
4.8566
4.85661
4.85661
4.85663
4.85671
4.85734
4.86338
4.8629
4.86279
4.86284
4.86304
4.86334
4.86371
4.86415
4.86472
4.86642
4.90396
4.90392
4.9042
4.90423
4.90406
4.90368
4.90307
4.90235
4.90074
4.90403
5.0905
5.08991
5.09033
5.09111
5.09238
5.09406
5.09574
5.09688
5.09556
5.09851
5.47921
5.47915
5.47913
5.47915
5.47919
5.47925
5.47933
5.47939
5.47944
5.47955
5.14134
5.14144
5.14145
5.14145
5.14145
5.14145
5.14145
5.14145
5.14145
5.14137
4.92379
4.92429
4.92492
4.92526
4.92535
4.92525
4.92498
4.9246
4.9243
4.92542
4.87374
4.87325
4.87298
4.87286
4.87286
4.87297
4.87318
4.87349
4.87397
4.87506
4.85898
4.85891
4.85888
4.85886
4.85882
4.85879
4.85875
4.85874
4.85879
4.85913
4.85854
4.85837
4.85829
4.85828
4.85831
4.85839
4.8585
4.85864
4.85883
4.85925
4.85823
4.85816
4.85812
4.8581
4.85809
4.85808
4.85806
4.85806
4.85808
4.85835
4.86017
4.85996
4.8599
4.85991
4.85999
4.86011
4.86024
4.8604
4.86064
4.86135
4.88726
4.88701
4.88704
4.88698
4.88678
4.88646
4.88603
4.8856
4.88508
4.88739
5.0378
5.03761
5.0379
5.0384
5.03916
5.04016
5.04114
5.04164
5.04053
5.04127
5.16696
5.16693
5.16693
5.16694
5.16694
5.16694
5.16694
5.16694
5.16692
5.16698
11.2266
11.3358
11.2874
11.0708
83.0339
84.9317
85.2873
85.8515
142.723
147.85
148.157
146.799
201.114
210.044
209.736
205.365
261.535
274.54
273.172
265.696
328.786
346.267
344.124
335.759
390.469
412.267
409.878
402.818
428.609
454.046
452.107
447.762
342.38
364.28
361.668
360.348
11.4277
11.6612
11.5059
11.107
9.6931
9.74953
9.75035
9.70505
76.682
79.586
80.1868
80.1372
134.281
144.515
145.315
142.924
192.262
212.853
213.017
206.947
254.267
287.703
286.368
276.38
326.441
375.289
373.517
361.107
395.477
460.342
459.486
446.984
441.698
520.996
522.237
511.552
347.081
417.721
415.899
411.3
10.6683
10.893
10.8218
10.6043
8.76312
8.77507
8.77348
8.76194
26.7933
29.1325
28.3317
25.7835
49.6789
53.8667
52.0632
47.3513
74.6331
81.0134
77.7154
70.2243
103.077
112.059
106.688
95.728
138.557
151.19
143.475
127.811
175.817
192.285
182.06
161.369
205.625
225.82
213.511
188.355
162.932
179.101
167.569
147.001
9.87622
9.96424
9.9401
9.84239
8.4985
8.5003
8.50064
8.49984
11.6098
11.8259
11.7712
11.5652
21.4117
22.0425
21.9171
21.3662
32.1119
33.4316
33.0915
31.7896
44.4789
46.6604
45.8848
43.4119
60.4167
63.8428
62.396
58.1803
77.5568
82.2429
79.8384
73.5428
91.797
97.8781
94.4584
85.9491
71.078
75.9055
72.3184
64.8555
9.41673
9.45979
9.45613
9.41638
8.31966
8.32016
8.32022
8.31979
7.12577
7.20152
7.21597
7.18419
11.8044
12.0534
12.1064
12.018
16.9603
17.4945
17.5494
17.289
22.8639
23.7618
23.7349
23.15
30.6612
32.1181
31.9261
30.7716
39.0334
41.0532
40.5412
38.6123
45.9044
48.6005
47.6883
44.7737
33.9749
36.042
34.802
31.9739
9.07026
9.09344
9.09469
9.078
8.1695
8.16994
8.1699
8.16935
5.663
5.66884
5.66816
5.66515
7.54276
7.58746
7.60366
7.6028
10.0078
10.1506
10.1927
10.1685
12.8761
13.1615
13.2118
13.1158
16.8028
17.3365
17.3783
17.1186
20.9803
21.7704
21.7328
21.2145
24.3118
25.4435
25.2782
24.3572
17.2663
18.0879
17.7006
16.7127
8.78782
8.79934
8.80148
8.79544
8.01904
8.01955
8.01952
8.01893
5.2378
5.2362
5.23347
5.23136
5.8815
5.8835
5.88281
5.88319
6.96672
6.99818
7.00941
7.00967
8.29983
8.38178
8.406
8.39554
10.2594
10.4468
10.4893
10.4386
12.3444
12.6408
12.6751
12.5521
13.9758
14.4379
14.4453
14.1776
10.1081
10.4117
10.3137
10.0256
8.54294
8.54823
8.5502
8.54883
7.86132
7.86192
7.86193
7.86132
5.09525
5.09347
5.09107
5.08916
5.27341
5.26788
5.26379
5.2631
5.72139
5.72222
5.72092
5.72131
6.29767
6.3126
6.31604
6.31587
7.221
7.27739
7.29282
7.28334
8.21964
8.31671
8.33621
8.31061
9.03376
9.20807
9.23032
9.15711
7.27313
7.37147
7.35524
7.2886
8.31709
8.31932
8.32073
8.32094
7.69399
7.69466
7.69469
7.69408
5.03955
5.03855
5.03679
5.03508
5.0495
5.04487
5.04154
5.04069
5.23114
5.22707
5.22384
5.22345
5.47781
5.47633
5.47375
5.47347
5.9011
5.91483
5.91713
5.91383
6.36492
6.38975
6.39396
6.38857
6.78942
6.84924
6.85966
6.83831
6.15711
6.18434
6.18326
6.17173
8.09582
8.09662
8.09748
8.09802
7.5163
7.51701
7.51706
7.51644
5.01349
5.01302
5.01172
5.01026
4.96089
4.95783
4.95561
4.95498
5.02935
5.02595
5.02342
5.02294
5.1388
5.13534
5.13244
5.13186
5.3376
5.34012
5.33894
5.33661
5.56313
5.56643
5.56503
5.56321
5.80468
5.82456
5.82719
5.81829
5.67179
5.67602
5.67569
5.67562
7.87196
7.87211
7.8726
7.87309
7.32785
7.32859
7.32864
7.32802
4.9986
4.99843
4.99746
4.99621
4.92301
4.92109
4.91968
4.91931
4.9403
4.93814
4.93652
4.93616
4.99067
4.98816
4.98615
4.9856
5.08639
5.08682
5.08547
5.08358
5.20778
5.20643
5.2042
5.20303
5.36097
5.36857
5.36842
5.36262
5.43697
5.43436
5.43323
5.43487
7.64228
7.64218
7.64244
7.6428
7.12843
7.12916
7.12922
7.1286
4.98826
4.98829
4.98755
4.98646
4.90549
4.9043
4.90344
4.90326
4.89862
4.89738
4.89642
4.89617
4.92264
4.92117
4.91997
4.91957
4.96848
4.96881
4.96794
4.96648
5.04243
5.04082
5.03908
5.03821
5.15077
5.15478
5.15404
5.14941
5.31449
5.31043
5.30894
5.31031
7.40503
7.40488
7.40502
7.40523
6.91789
6.9186
6.91865
6.91805
4.97995
4.98013
4.97955
4.97857
4.89661
4.89592
4.89544
4.89536
4.87824
4.87761
4.87706
4.87685
4.89038
4.88962
4.88897
4.88871
4.91145
4.91193
4.91147
4.91037
4.96283
4.96177
4.96067
4.96003
5.04763
5.05056
5.04988
5.04597
5.24715
5.24344
5.24196
5.24269
7.15908
7.159
7.15906
7.15913
6.69615
6.69682
6.69686
6.69628
4.97267
4.97296
4.97251
4.97157
4.89162
4.8913
4.89106
4.891
4.868
4.86776
4.86747
4.86725
4.87475
4.87442
4.8741
4.87392
4.88357
4.88412
4.8839
4.88307
4.92368
4.92319
4.92257
4.92206
4.99596
4.99851
4.99799
4.99458
5.20821
5.20542
5.20411
5.20411
6.90367
6.9037
6.90373
6.90367
6.46321
6.46382
6.46383
6.4633
4.966
4.9664
4.96603
4.96508
4.88849
4.88845
4.88837
4.88827
4.86289
4.86291
4.86276
4.8625
4.86703
4.86695
4.86682
4.86667
4.86995
4.87047
4.87038
4.86974
4.90373
4.90371
4.9034
4.90293
4.96914
4.97153
4.97114
4.96804
5.18397
5.18228
5.18118
5.18044
6.63831
6.63848
6.63849
6.63833
6.21918
6.21969
6.21968
6.21921
4.95981
4.96027
4.95995
4.95899
4.88633
4.88651
4.88651
4.88632
4.86057
4.86076
4.86069
4.86039
4.86314
4.86321
4.86316
4.86302
4.8633
4.86375
4.8637
4.8632
4.8925
4.89283
4.89271
4.8922
4.95352
4.95586
4.95556
4.95262
5.16686
5.16631
5.16544
5.16397
6.3628
6.3631
6.36311
6.36285
5.96438
5.96477
5.96473
5.96433
4.95409
4.95457
4.9543
4.95335
4.88462
4.88497
4.885
4.88471
4.85985
4.86012
4.86009
4.85979
4.86113
4.86128
4.86128
4.86113
4.86005
4.86039
4.86036
4.85997
4.88456
4.88514
4.88512
4.88456
4.94156
4.94393
4.94369
4.94082
5.15205
5.15265
5.15204
5.14988
6.07725
6.07766
6.07767
6.07735
5.69948
5.69971
5.69965
5.69935
4.94879
4.94931
4.9491
4.94821
4.88292
4.88337
4.88341
4.88302
4.8599
4.86021
4.86021
4.85992
4.8601
4.86027
4.86028
4.86014
4.85853
4.85873
4.8587
4.85844
4.87714
4.87782
4.87786
4.8773
4.92865
4.93105
4.93087
4.92809
5.13502
5.13682
5.13652
5.13371
5.7822
5.78267
5.78269
5.78236
5.42539
5.42545
5.42536
5.42519
4.9429
4.94358
4.94348
4.94261
4.88051
4.88099
4.88103
4.88063
4.86002
4.86031
4.86031
4.86007
4.85966
4.8598
4.85982
4.8597
4.85808
4.85817
4.85814
4.858
4.86939
4.86999
4.87005
4.86959
4.91204
4.91412
4.91398
4.91164
5.1075
5.11062
5.11071
5.10723
5.47858
5.47911
5.47913
5.47878
5.14201
5.1418
5.14172
5.14176
4.92817
4.92929
4.92927
4.92815
4.87603
4.87631
4.87633
4.87607
4.85984
4.86003
4.86004
4.8599
4.85974
4.85982
4.85983
4.85976
4.85858
4.85858
4.85855
4.85851
4.86285
4.86319
4.86324
4.86301
4.89113
4.89197
4.89182
4.89077
5.0454
5.04936
5.04971
5.0459
5.16648
5.16704
5.16705
5.16668
10.0827
9.34713
9.03958
8.92846
8.86403
8.81888
8.78918
8.77285
8.76383
8.75877
103.464
49.022
35.6043
29.599
24.1281
19.5422
16.0091
13.3977
11.5435
10.2197
160.092
70.6299
50.7976
43.1547
36.4903
30.7395
25.977
22.1785
19.2041
16.8742
204.529
82.2698
55.4823
45.9562
38.4866
31.9369
26.5099
22.239
18.9557
16.4498
238.679
87.8384
58.1138
47.0686
39.1105
31.8425
25.9255
21.3554
17.9064
15.3721
274.346
93.2495
60.0292
47.309
38.8415
30.9029
24.6403
19.924
16.4902
14.0603
302.913
96.4947
60.6082
46.7471
38.0459
29.6775
23.2925
18.6034
15.2746
13.0103
311.097
92.0957
55.5755
41.3052
33.0754
25.1304
19.447
15.4762
12.8455
11.1207
221.11
55.0145
29.9634
20.7172
15.9764
12.0264
9.83118
8.53815
7.76088
7.26034
9.54215
9.51489
9.36137
9.33581
9.29041
9.26545
9.24582
9.23561
9.2288
9.22266
9.3448
9.04046
8.89047
8.80531
8.7515
8.71603
8.6932
8.67995
8.67286
8.66857
53.0961
28.8271
22.6729
19.4156
16.5496
14.0458
12.0114
10.4654
9.34482
8.56508
89.6293
46.3193
35.8388
30.8504
26.8915
23.1822
19.9769
17.3507
15.2558
13.6542
121.188
58.3311
42.6559
35.2425
30.0615
25.2759
21.2589
18.0572
15.5769
13.7416
150.664
68.097
47.3544
37.9307
31.7401
26.074
21.4648
17.8899
15.177
13.2458
184.104
77.8513
51.3762
39.718
32.5178
26.0226
20.9351
17.1052
14.3148
12.4055
214.278
85.1293
53.7356
40.3794
32.5637
25.5256
20.2001
16.3053
13.5349
11.7103
230.084
85.2868
50.9034
36.6595
28.883
22.0483
17.1967
13.8344
11.6125
10.2052
164.818
53.6935
28.4792
19.0049
14.4321
11.0605
9.17287
8.06966
7.40084
6.98877
9.78318
9.47043
9.30189
9.24014
9.18675
9.15478
9.13176
9.11787
9.10816
9.09929
8.7234
8.6832
8.65058
8.62309
8.60159
8.58612
8.57598
8.57008
8.56686
8.56469
20.0542
16.7115
14.5928
12.7148
11.1021
9.77496
8.75167
8.00303
7.46802
7.09632
35.993
28.8457
24.9783
21.6473
18.8124
16.3782
14.3812
12.7878
11.5261
10.569
50.9187
37.907
31.407
26.1228
21.9939
18.5776
15.8632
13.7543
12.137
10.9539
65.7361
45.404
36.2544
29.1691
23.9582
19.7482
16.4998
14.0458
12.2016
10.9019
82.5374
52.7753
40.5333
31.4923
25.2074
20.2247
16.5027
13.7724
11.8073
10.4781
98.0524
58.3275
43.3269
32.7363
25.7388
20.241
16.2567
13.4194
11.4232
10.1197
107.054
58.7207
41.7097
30.2898
23.2202
17.828
14.1594
11.69
10.0767
9.05808
74.6594
35.896
23.3733
15.9526
12.0206
9.55931
8.21718
7.43079
6.94304
6.63859
9.53769
9.34588
9.21431
9.13638
9.08041
9.04565
9.02158
9.00528
8.99327
8.98247
8.49596
8.4865
8.47539
8.46521
8.45749
8.45231
8.4492
8.44777
8.44751
8.44719
11.0232
10.2358
9.36937
8.4943
7.75993
7.19833
6.78884
6.49632
6.28655
6.13943
19.9506
18.1488
16.2611
14.337
12.6822
11.3316
10.2623
9.42836
8.77491
8.28116
28.4731
24.6541
21.1465
17.8909
15.2786
13.2049
11.5947
10.3639
9.43085
8.75469
37.0982
30.5126
25.1996
20.603
17.1173
14.4221
12.3867
10.8768
9.75316
8.96457
47.156
36.6041
29.0931
22.9504
18.5167
15.1645
12.7098
10.9434
9.68656
8.83994
56.5087
41.4586
31.923
24.4757
19.3386
15.5208
12.8093
10.9192
9.60011
8.73639
62.0119
42.4732
31.3739
23.1588
17.8362
14.0355
11.5057
9.83855
8.75259
8.05883
41.9961
25.6442
17.5858
12.548
9.87503
8.30424
7.42333
6.89231
6.54973
6.33111
9.29561
9.1589
9.05393
8.98608
8.93929
8.9087
8.8868
8.87115
8.85937
8.84897
8.3205
8.31938
8.31774
8.31634
8.31548
8.31513
8.31522
8.31583
8.31715
8.31815
7.06343
6.83266
6.56909
6.31262
6.09766
5.92901
5.80103
5.70564
5.63494
5.58561
11.688
11.0269
10.2345
9.42541
8.71223
8.12329
7.6566
7.29462
7.00966
6.79251
16.4717
15.0038
13.3833
11.8317
10.526
9.47169
8.64914
8.02305
7.55056
7.21021
21.4895
18.8686
16.2375
13.8694
11.9769
10.4985
9.38155
8.55965
7.94769
7.51687
27.6155
23.2274
19.2398
15.8313
13.2322
11.2609
9.81861
8.78913
8.05749
7.5633
33.4172
26.9719
21.6364
17.2798
14.105
11.7611
10.1013
8.95532
8.1508
7.61715
36.9074
28.2299
21.7493
16.7636
13.3646
10.9821
9.40145
8.36366
7.67862
7.23171
24.0768
16.9521
12.5422
9.78918
8.26155
7.3449
6.79659
6.4512
6.21718
6.0651
9.02452
8.9427
8.87277
8.82311
8.78679
8.76084
8.74133
8.72673
8.71546
8.70567
8.17071
8.17113
8.17139
8.1718
8.17241
8.17316
8.17401
8.17512
8.17678
8.17855
5.65266
5.61201
5.55365
5.49134
5.43486
5.38733
5.34925
5.32008
5.29903
5.28579
7.56223
7.38407
7.12494
6.8474
6.59653
6.38803
6.22303
6.09509
5.99166
5.91055
10.0129
9.51472
8.87082
8.22616
7.66585
7.20815
6.84852
6.57302
6.3634
6.21257
12.7276
11.7504
10.603
9.52686
8.63782
7.93824
7.40772
7.01625
6.71929
6.50745
16.2559
14.4899
12.5974
10.9123
9.57844
8.56046
7.81166
7.27423
6.88661
6.62252
19.685
16.9926
14.3136
12.0415
10.3202
9.04689
8.14014
7.51066
7.05764
6.75057
21.8208
18.0542
14.6604
11.9691
10.0649
8.73321
7.83895
7.24213
6.83685
6.56612
14.13
11.3
9.25775
7.94161
7.14701
6.63896
6.31063
6.0938
5.93914
5.83772
8.77236
8.72712
8.68405
8.64958
8.62208
8.60075
8.58393
8.57083
8.56047
8.55164
8.02028
8.0208
8.02126
8.02188
8.02264
8.02346
8.02432
8.02536
8.02691
8.02885
5.2291
5.21993
5.20476
5.18764
5.17136
5.15705
5.14538
5.1368
5.1319
5.13041
5.87854
5.83725
5.76772
5.69019
5.61906
5.55975
5.51313
5.47728
5.44668
5.42122
6.97939
6.82292
6.60138
6.37286
6.16936
5.99926
5.86193
5.75385
5.67008
5.61018
8.30346
7.95655
7.51644
7.09545
6.7408
6.45728
6.23773
6.07209
5.94122
5.84588
10.1901
9.49015
8.68272
7.94883
7.35387
6.89252
6.54527
6.28922
6.09872
5.96783
12.091
10.9768
9.76449
8.71496
7.89792
7.28505
6.83846
6.52039
6.28107
6.11445
13.3427
11.7265
10.1318
8.84172
7.89856
7.22662
6.76022
6.43772
6.21031
6.0554
9.27524
8.24437
7.4014
6.81257
6.41521
6.14018
5.94843
5.81604
5.71663
5.6515
8.53937
8.5154
8.48941
8.46583
8.4454
8.42843
8.41445
8.40317
8.39402
8.38636
7.86249
7.86286
7.86318
7.86364
7.86422
7.86484
7.86546
7.86624
7.86752
7.86922
5.08832
5.08368
5.07679
5.06967
5.06319
5.05759
5.05324
5.05055
5.05023
5.05189
5.26358
5.25519
5.23787
5.21826
5.20077
5.18703
5.17745
5.17124
5.16531
5.15956
5.71655
5.67137
5.60235
5.52911
5.46192
5.40358
5.35447
5.31454
5.28346
5.26212
6.29592
6.18556
6.03874
5.89593
5.77249
5.67036
5.58815
5.52406
5.47061
5.43089
7.20999
6.95441
6.65117
6.37012
6.13494
5.94543
5.79612
5.68109
5.59237
5.53178
8.17512
7.75052
7.26753
6.84092
6.4971
6.22947
6.02544
5.87397
5.75335
5.66715
8.88305
8.23694
7.57221
7.01899
6.59586
6.28095
6.05098
5.88459
5.76278
5.67922
7.09755
6.7378
6.40202
6.14033
5.94338
5.79616
5.68623
5.60731
5.54491
5.50452
8.31671
8.30372
8.28785
8.27189
8.25707
8.24404
8.23286
8.22353
8.21576
8.2094
7.69503
7.69524
7.69542
7.69571
7.69608
7.69648
7.69685
7.69736
7.69833
7.69976
5.03423
5.02971
5.02442
5.01974
5.01585
5.0127
5.01043
5.00935
5.01004
5.01209
5.04084
5.03748
5.03153
5.02585
5.02183
5.01985
5.01996
5.02157
5.02262
5.0229
5.2224
5.20707
5.1838
5.15944
5.13694
5.11687
5.09939
5.08492
5.07413
5.06765
5.46849
5.4331
5.38624
5.3409
5.301
5.26677
5.23813
5.21525
5.19496
5.17968
5.88861
5.79799
5.692
5.59178
5.50432
5.42994
5.36798
5.31795
5.27836
5.2523
6.34966
6.20122
6.02771
5.86971
5.73552
5.62491
5.53565
5.46635
5.40766
5.36475
6.74537
6.50353
6.25039
6.02975
5.85046
5.709
5.59986
5.51734
5.45515
5.41302
6.12361
5.99317
5.85729
5.73944
5.64194
5.56373
5.50161
5.4555
5.41704
5.39275
8.09565
8.08837
8.07864
8.06802
8.05755