/*--------------------------------*- C++ -*----------------------------------*\
| =========                 |                                                 |
| \\      /  F ield         | foam-extend: Open Source CFD                    |
|  \\    /   O peration     | Version:     4.0                                |
|   \\  /    A nd           | Web:         http://www.foam-extend.org         |
|    \\/     M anipulation  |                                                 |
\*---------------------------------------------------------------------------*/
FoamFile
{
    version     2.0;
    format      ascii;
    class       volScalarField;
    location    "750";
    object      MaU;
}
// * * * * * * * * * * * * * * * * * * * * * * * * * * * * * * * * * * * * * //

dimensions      [0 0 0 0 0 0 0];

internalField   nonuniform List<scalar> 
34480
(
0.615837
0.616899
0.617525
0.617755
0.617589
0.61696
0.615737
0.613248
0.607465
0.602058
0.619237
0.620206
0.620811
0.620997
0.620605
0.6195
0.617705
0.614957
0.608154
0.602985
0.621722
0.622637
0.623168
0.623242
0.62269
0.621554
0.620012
0.617968
0.611188
0.606582
0.622221
0.623152
0.623741
0.623945
0.623626
0.622912
0.6219
0.620631
0.614319
0.610306
0.623234
0.624254
0.624965
0.625382
0.625385
0.625153
0.624704
0.624245
0.618776
0.615328
0.62335
0.624416
0.625203
0.625751
0.625994
0.626169
0.626259
0.62664
0.622388
0.619809
0.623986
0.625181
0.626073
0.626766
0.62722
0.627734
0.628313
0.62951
0.626718
0.624972
0.62377
0.624997
0.625855
0.626446
0.626795
0.627262
0.627981
0.629698
0.628411
0.627872
0.62393
0.625275
0.626236
0.626962
0.627486
0.628108
0.629059
0.631237
0.631205
0.630637
0.620323
0.621416
0.621593
0.620922
0.619532
0.617788
0.616136
0.615883
0.615467
0.617146
0.606354
0.607853
0.608493
0.608338
0.607308
0.60513
0.601177
0.594099
0.583624
0.570057
0.610953
0.612375
0.613018
0.612887
0.61179
0.609359
0.604994
0.597318
0.584821
0.568908
0.614286
0.61564
0.616246
0.616097
0.614946
0.612496
0.608235
0.600768
0.587485
0.570525
0.615539
0.6169
0.617563
0.61755
0.616619
0.614537
0.610714
0.603745
0.590171
0.57293
0.617162
0.618585
0.619352
0.619544
0.618916
0.617297
0.614017
0.60774
0.594339
0.57736
0.617749
0.619209
0.620052
0.620382
0.619995
0.618795
0.616068
0.610601
0.597798
0.581674
0.61878
0.620338
0.621276
0.621756
0.621588
0.620757
0.618562
0.613954
0.602103
0.58711
0.618847
0.620427
0.621341
0.621749
0.621533
0.620764
0.618847
0.614939
0.604275
0.591015
0.61923
0.62088
0.621874
0.622394
0.622352
0.621808
0.620266
0.617074
0.607648
0.595267
0.61581
0.617278
0.617732
0.617253
0.615857
0.613688
0.610469
0.605957
0.596965
0.58773
0.599075
0.600663
0.601274
0.601022
0.599865
0.597643
0.594055
0.588599
0.580631
0.570527
0.603981
0.605605
0.606255
0.605981
0.604665
0.602039
0.597587
0.590424
0.57906
0.563848
0.60756
0.6092
0.60986
0.6096
0.608242
0.605469
0.600649
0.592632
0.578704
0.558916
0.609255
0.61095
0.611681
0.611541
0.610328
0.607725
0.602949
0.594583
0.578614
0.55486
0.611289
0.613063
0.613896
0.613939
0.612965
0.610686
0.606178
0.597853
0.580481
0.553568
0.612234
0.61406
0.614977
0.615159
0.614394
0.612446
0.608296
0.600282
0.582089
0.552907
0.613578
0.615491
0.6165
0.616832
0.616273
0.614652
0.610912
0.603387
0.584926
0.554165
0.613906
0.615839
0.61684
0.617127
0.616546
0.615011
0.611533
0.604531
0.586299
0.554771
0.614518
0.616483
0.617543
0.617915
0.617459
0.616109
0.612978
0.606621
0.589028
0.556204
0.611333
0.61313
0.613789
0.613416
0.611962
0.609425
0.605142
0.598
0.580937
0.548573
0.593806
0.595191
0.595695
0.595433
0.594399
0.59253
0.589725
0.585881
0.580967
0.575454
0.598469
0.600006
0.600586
0.600255
0.59894
0.59649
0.592643
0.587025
0.579144
0.570023
0.601872
0.603546
0.604176
0.603831
0.602389
0.599619
0.595083
0.588124
0.577525
0.564426
0.60372
0.605523
0.606238
0.605967
0.604551
0.601716
0.596834
0.588951
0.575797
0.558535
0.605963
0.607886
0.6087
0.60857
0.60729
0.604578
0.599624
0.591213
0.575903
0.554768
0.607144
0.609146
0.610049
0.610036
0.608896
0.606365
0.601487
0.592855
0.57582
0.55131
0.608714
0.610809
0.611797
0.611919
0.61094
0.608635
0.603948
0.595338
0.577076
0.549719
0.609262
0.611378
0.61237
0.612463
0.61147
0.609218
0.604661
0.596225
0.5773
0.547773
0.610064
0.612188
0.613223
0.613387
0.612494
0.610372
0.605992
0.597883
0.578941
0.546998
0.607121
0.609091
0.609845
0.609477
0.607888
0.604952
0.599802
0.591078
0.572317
0.539229
0.590185
0.591273
0.591654
0.591447
0.590668
0.589323
0.587424
0.585034
0.582296
0.579572
0.594308
0.595608
0.596091
0.59579
0.594674
0.592685
0.589742
0.585793
0.580848
0.575801
0.597236
0.598783
0.599353
0.599007
0.597673
0.595222
0.591429
0.586047
0.578737
0.570858
0.598973
0.600731
0.601405
0.601085
0.59966
0.596939
0.592523
0.585932
0.576176
0.564955
0.601206
0.603142
0.603923
0.603696
0.602297
0.599498
0.594711
0.587217
0.575157
0.560454
0.602466
0.604528
0.605405
0.605266
0.603924
0.601137
0.596147
0.588024
0.573885
0.555794
0.604144
0.606322
0.607285
0.607257
0.606016
0.603326
0.598288
0.58979
0.57392
0.552662
0.604834
0.60705
0.608028
0.607982
0.60672
0.604026
0.59895
0.590277
0.573168
0.549155
0.605776
0.607994
0.609006
0.609014
0.607823
0.605212
0.600185
0.591479
0.573759
0.546797
0.603053
0.605129
0.60595
0.605586
0.603913
0.60074
0.595185
0.585953
0.568004
0.539016
0.587741
0.588548
0.588817
0.588674
0.588142
0.587254
0.586054
0.584634
0.583122
0.581661
0.591275
0.592282
0.592655
0.592415
0.591557
0.590078
0.587991
0.585366
0.582359
0.579495
0.59361
0.594923
0.595405
0.5951
0.593974
0.591978
0.589043
0.585158
0.580377
0.57565
0.595071
0.596657
0.597256
0.596939
0.595634
0.593237
0.589554
0.58444
0.577647
0.570578
0.597124
0.598945
0.599659
0.599389
0.598013
0.595378
0.591132
0.584954
0.576095
0.566369
0.598329
0.600326
0.601146
0.600929
0.599527
0.596751
0.592086
0.585038
0.574155
0.561625
0.600005
0.602154
0.603063
0.602928
0.601558
0.598748
0.593828
0.586123
0.573404
0.558049
0.600754
0.602965
0.603904
0.603753
0.602341
0.599457
0.594341
0.586182
0.57199
0.553978
0.601782
0.604005
0.604971
0.604861
0.603488
0.60063
0.595446
0.586994
0.571846
0.550962
0.599245
0.60134
0.602184
0.601818
0.600115
0.596864
0.591291
0.582344
0.566698
0.543644
0.586086
0.586674
0.586857
0.586767
0.586429
0.585879
0.585159
0.584345
0.583514
0.582674
0.589101
0.589831
0.590102
0.589928
0.589316
0.588288
0.586889
0.585212
0.5834
0.581708
0.590843
0.591885
0.592268
0.592024
0.591141
0.58962
0.587475
0.584794
0.581743
0.578865
0.591958
0.5933
0.593805
0.593523
0.592416
0.590445
0.587554
0.583781
0.579214
0.574769
0.593724
0.595338
0.595963
0.595692
0.594443
0.592135
0.5886
0.583777
0.57753
0.571188
0.594773
0.596606
0.597344
0.597095
0.59575
0.593188
0.589108
0.58333
0.575325
0.566852
0.59636
0.59838
0.599212
0.599015
0.597637
0.594929
0.590447
0.583868
0.574163
0.563416
0.597087
0.599197
0.600072
0.599856
0.59841
0.595559
0.590762
0.583559
0.572391
0.55939
0.598151
0.600293
0.601195
0.601007
0.599566
0.596683
0.591725
0.584073
0.571839
0.556404
0.595759
0.597789
0.598619
0.598257
0.596589
0.59342
0.588146
0.580018
0.567148
0.549817
0.584932
0.585369
0.585491
0.585439
0.585234
0.584907
0.584489
0.584029
0.583565
0.583024
0.58754
0.588044
0.588231
0.588113
0.5877
0.58702
0.58612
0.585076
0.583978
0.582911
0.588759
0.589541
0.589828
0.589645
0.588994
0.587895
0.586398
0.584606
0.582674
0.580865
0.589532
0.590606
0.591012
0.590781
0.589897
0.588363
0.586201
0.583519
0.580505
0.577689
0.590961
0.592319
0.592843
0.592599
0.591536
0.589629
0.586831
0.583217
0.578923
0.574807
0.591798
0.593399
0.594039
0.59379
0.592584
0.590358
0.586975
0.582444
0.57673
0.571068
0.593237
0.595053
0.595789
0.595567
0.594276
0.591825
0.587965
0.582605
0.575446
0.568057
0.593872
0.595803
0.596592
0.596346
0.594961
0.592314
0.588067
0.58202
0.573557
0.564397
0.594935
0.596922
0.59774
0.59751
0.5961
0.593369
0.588893
0.582331
0.572848
0.561808
0.592645
0.594536
0.595319
0.594971
0.5934
0.590449
0.585697
0.578683
0.568544
0.556035
0.584087
0.584426
0.58451
0.584481
0.584361
0.584173
0.583935
0.583677
0.583411
0.583023
0.586397
0.586733
0.586857
0.58678
0.586514
0.586082
0.58552
0.584881
0.584207
0.583484
0.587185
0.587746
0.587951
0.587822
0.587364
0.586604
0.585597
0.584431
0.583212
0.58203
0.587669
0.588489
0.5888
0.588623
0.587953
0.586814
0.58526
0.583411
0.581445
0.579634
0.588759
0.589852
0.590273
0.590068
0.589211
0.58771
0.585587
0.582969
0.580068
0.577395
0.589365
0.590702
0.591235
0.59101
0.589987
0.588148
0.585464
0.582039
0.578045
0.574292
0.590628
0.592195
0.592823
0.592605
0.591463
0.589358
0.586183
0.581984
0.576831
0.571818
0.591118
0.592816
0.593504
0.593256
0.592001
0.589669
0.586083
0.581217
0.574983
0.568648
0.592157
0.593933
0.594653
0.594412
0.593108
0.590654
0.586802
0.58142
0.574297
0.566597
0.589932
0.591627
0.592336
0.592015
0.590591
0.587958
0.583858
0.578064
0.570344
0.561595
0.583432
0.58371
0.583769
0.583755
0.583686
0.583579
0.583445
0.583301
0.583142
0.582834
0.585531
0.585751
0.585831
0.585782
0.585616
0.585349
0.585006
0.584619
0.584195
0.583668
0.585978
0.586367
0.586507
0.586419
0.586109
0.585603
0.584946
0.584203
0.583435
0.582628
0.586247
0.58685
0.58708
0.58695
0.586464
0.585651
0.58457
0.583327
0.582057
0.580871
0.587028
0.587871
0.588196
0.588035
0.587374
0.586241
0.584688
0.582846
0.580914
0.579172
0.587411
0.588485
0.588912
0.588722
0.587894
0.58644
0.584391
0.581883
0.579139
0.576662
0.588499
0.589799
0.590317
0.59012
0.58916
0.587433
0.584923
0.581745
0.578109
0.574741
0.588809
0.590244
0.590823
0.590593
0.58951
0.587548
0.584642
0.580868
0.576382
0.572068
0.589819
0.591349
0.591962
0.591732
0.590585
0.58848
0.585301
0.581053
0.575841
0.570579
0.587627
0.589086
0.589706
0.58942
0.588179
0.585923
0.582522
0.577916
0.572204
0.566244
0.582894
0.583134
0.583176
0.58317
0.583131
0.583072
0.582996
0.582915
0.582815
0.582552
0.584846
0.584991
0.585041
0.585011
0.584909
0.584748
0.584542
0.584308
0.584035
0.583624
0.585025
0.585287
0.585379
0.58532
0.585118
0.584791
0.584373
0.583909
0.583425
0.58285
0.585162
0.585591
0.585755
0.585664
0.585324
0.584763
0.584032
0.583214
0.582401
0.581608
0.585674
0.586302
0.586543
0.586422
0.585933
0.585109
0.584008
0.582744
0.581475
0.580336
0.585866
0.586695
0.587025
0.586874
0.586232
0.585127
0.583614
0.581828
0.579971
0.578344
0.586797
0.587837
0.588249
0.588084
0.587312
0.585952
0.584037
0.581703
0.579182
0.576938
0.586905
0.588073
0.588543
0.588343
0.587449
0.585865
0.583597
0.580766
0.577604
0.574705
0.587899
0.589171
0.589675
0.589472
0.588507
0.586776
0.58425
0.581011
0.577284
0.573747
0.585715
0.586922
0.587443
0.587199
0.586158
0.584299
0.58158
0.578044
0.573925
0.569957
0.582429
0.582644
0.582675
0.582674
0.582652
0.582619
0.582576
0.58253
0.582464
0.582228
0.584283
0.584381
0.584412
0.584393
0.584332
0.584236
0.584114
0.583971
0.58379
0.583455
0.584243
0.584416
0.584473
0.584435
0.584306
0.5841
0.583841
0.583557
0.583253
0.58283
0.584326
0.584626
0.58474
0.584679
0.584449
0.584072
0.58359
0.583061
0.582544
0.582003
0.584613
0.585066
0.585239
0.585151
0.584802
0.584222
0.583464
0.582617
0.581794
0.581047
0.584654
0.585273
0.585519
0.585403
0.584925
0.584115
0.583032
0.581791
0.580553
0.579487
0.58546
0.586264
0.586581
0.58645
0.585854
0.584822
0.58341
0.581742
0.580023
0.578537
0.585355
0.58627
0.586638
0.586473
0.585766
0.584536
0.582825
0.580765
0.57858
0.576655
0.586362
0.587382
0.587783
0.587614
0.586837
0.585468
0.583532
0.581139
0.578529
0.576182
0.584164
0.585122
0.585544
0.585343
0.584503
0.583028
0.580929
0.578302
0.575402
0.572816
0.582012
0.582208
0.582232
0.582234
0.582221
0.582203
0.582179
0.582151
0.582105
0.581889
0.583809
0.583878
0.583898
0.583887
0.58385
0.583793
0.58372
0.583633
0.583509
0.58323
0.583571
0.583685
0.583719
0.583694
0.583613
0.583487
0.58333
0.583159
0.582971
0.582654
0.583676
0.583882
0.58396
0.583921
0.58377
0.583523
0.583211
0.582875
0.582548
0.582173
0.583773
0.584092
0.584211
0.58415
0.583909
0.583513
0.583004
0.582449
0.581924
0.581432
0.583706
0.584155
0.584333
0.584248
0.583904
0.583329
0.582576
0.581734
0.58092
0.580223
0.584425
0.585026
0.585263
0.585163
0.58472
0.583965
0.582955
0.581794
0.580641
0.57966
0.5841
0.58479
0.585069
0.584938
0.5844
0.58348
0.582231
0.580775
0.579293
0.578029
0.585163
0.585954
0.586262
0.586128
0.585526
0.584486
0.583051
0.581334
0.579544
0.578002
0.582927
0.583656
0.583986
0.583827
0.583174
0.582046
0.58048
0.578589
0.576592
0.574944
0.581627
0.581808
0.581826
0.581828
0.581821
0.581811
0.581797
0.581781
0.581747
0.581548
0.583408
0.583461
0.583476
0.583469
0.583446
0.583412
0.583368
0.583314
0.583227
0.582992
0.58297
0.583045
0.583063
0.583046
0.582997
0.582921
0.582828
0.582729
0.582616
0.582379
0.583163
0.583306
0.583359
0.583335
0.583239
0.583081
0.582882
0.582671
0.582466
0.582203
0.583101
0.58332
0.5834
0.583357
0.583196
0.582933
0.582601
0.582244
0.581914
0.581591
0.582967
0.583283
0.583408
0.583348
0.583109
0.582713
0.582203
0.581645
0.581117
0.580661
0.58363
0.584067
0.584237
0.584164
0.583847
0.583313
0.582613
0.581825
0.581064
0.580417
0.583078
0.58358
0.583783
0.583685
0.583289
0.582625
0.581742
0.580742
0.579756
0.578934
0.584254
0.584849
0.585077
0.584976
0.584528
0.583765
0.582737
0.581541
0.580338
0.579331
0.58195
0.58248
0.582729
0.582608
0.58212
0.581288
0.580158
0.578838
0.577493
0.576469
0.581259
0.581424
0.581437
0.58144
0.581436
0.58143
0.581422
0.581412
0.581387
0.581205
0.583081
0.583125
0.583138
0.583134
0.58312
0.583098
0.583071
0.583036
0.582973
0.582778
0.582411
0.582461
0.58247
0.582457
0.582427
0.582382
0.582329
0.582275
0.58221
0.58204
0.582758
0.582859
0.582895
0.582881
0.582821
0.582721
0.582597
0.582465
0.582337
0.582152
0.582556
0.582704
0.582756
0.582728
0.582623
0.582453
0.582241
0.582017
0.581813
0.581601
0.582392
0.582611
0.582696
0.582656
0.582495
0.58223
0.581894
0.581531
0.581193
0.580893
0.583022
0.58333
0.583448
0.583397
0.583178
0.582813
0.582342
0.581821
0.581329
0.580901
0.582233
0.582586
0.582729
0.582657
0.582378
0.581914
0.581308
0.58064
0.579995
0.579467
0.583593
0.584027
0.58419
0.584118
0.583797
0.583258
0.582545
0.581734
0.580944
0.580287
0.581169
0.581537
0.581719
0.581631
0.581279
0.580688
0.579898
0.579004
0.578118
0.5775
0.580875
0.581023
0.581032
0.581034
0.581032
0.581029
0.581025
0.581018
0.581001
0.580838
0.58284
0.582882
0.582893
0.582891
0.582882
0.582868
0.58285
0.582825
0.582777
0.582618
0.581879
0.581913
0.581916
0.581906
0.581888
0.581862
0.581833
0.581805
0.581772
0.581657
0.582439
0.582513
0.582538
0.58253
0.582493
0.582431
0.582354
0.582273
0.582193
0.582063
0.58212
0.58222
0.582253
0.582235
0.582169
0.582062
0.581929
0.581791
0.581665
0.581526
0.581957
0.582107
0.582164
0.582139
0.582033
0.581861
0.581644
0.581413
0.581197
0.580997
0.58256
0.582769
0.582848
0.582814
0.582667
0.582426
0.582118
0.581784
0.581474
0.581189
0.581525
0.581764
0.581862
0.581813
0.581623
0.581309
0.580904
0.580469
0.580052
0.579717
0.583148
0.583457
0.58357
0.58352
0.583299
0.582931
0.582453
0.581919
0.581411
0.580979
0.580503
0.580746
0.580875
0.580813
0.580569
0.580163
0.579628
0.579041
0.578468
0.578111
0.580387
0.580514
0.580519
0.580521
0.58052
0.580519
0.580517
0.580514
0.580503
0.580364
0.58272
0.582762
0.582774
0.582774
0.582768
0.582757
0.582743
0.582722
0.582684
0.582556
0.581379
0.581402
0.581404
0.581397
0.581386
0.581371
0.581355
0.581341
0.581326
0.581257
0.582197
0.582251
0.582267
0.582262
0.58224
0.582202
0.582156
0.582106
0.582058
0.581968
0.581789
0.581857
0.58188
0.58187
0.581829
0.581762
0.58168
0.581595
0.581516
0.581422
0.581654
0.581757
0.581796
0.58178
0.581714
0.581604
0.581467
0.58132
0.581182
0.581044
0.582217
0.582353
0.582404
0.58238
0.582285
0.58213
0.581936
0.581728
0.581539
0.581351
0.580951
0.581111
0.581179
0.581147
0.581022
0.580815
0.58055
0.580269
0.579999
0.579788
0.582916
0.58313
0.583206
0.583172
0.583025
0.582783
0.582472
0.58213
0.581812
0.581522
0.579819
0.579973
0.580064
0.580022
0.579859
0.579589
0.579236
0.578861
0.578492
0.578299
0.579588
0.579687
0.579689
0.579691
0.579691
0.579691
0.579691
0.579691
0.579687
0.579579
0.5828
0.582844
0.582855
0.582856
0.582851
0.582843
0.582831
0.582814
0.582782
0.582677
0.580965
0.580986
0.580992
0.580991
0.580985
0.580975
0.580964
0.580952
0.58094
0.5809
0.582023
0.582059
0.582068
0.582064
0.58205
0.582028
0.582001
0.581973
0.581945
0.581885
0.581568
0.581618
0.581635
0.581631
0.581607
0.581566
0.581514
0.581459
0.581407
0.581337
0.581481
0.581553
0.581581
0.581573
0.581532
0.581463
0.581376
0.581282
0.581191
0.58109
0.581982
0.582066
0.582097
0.582081
0.58202
0.581923
0.581803
0.581677
0.581566
0.581445
0.58059
0.580702
0.580752
0.580734
0.580654
0.58052
0.580347
0.580162
0.579978
0.579836
0.582953
0.583095
0.583144
0.583121
0.583025
0.582869
0.582672
0.582459
0.582269
0.582071
0.578894
0.578991
0.579055
0.579029
0.578922
0.578746
0.578517
0.578278
0.578035
0.577939
0.578173
0.578241
0.578245
0.578248
0.578249
0.578249
0.578249
0.578246
0.578244
0.578167
0.583236
0.583271
0.583272
0.583268
0.583263
0.583258
0.583253
0.583247
0.583231
0.58315
0.580763
0.580795
0.580812
0.580819
0.580819
0.580811
0.580797
0.580778
0.580754
0.580714
0.581896
0.581917
0.581919
0.581915
0.581907
0.581894
0.581879
0.581865
0.581853
0.581817
0.58145
0.581489
0.581505
0.581505
0.581491
0.581465
0.581431
0.581392
0.581353
0.581295
0.581416
0.581468
0.581489
0.581486
0.58146
0.581416
0.581359
0.581297
0.581232
0.581154
0.581838
0.581889
0.581908
0.581897
0.581858
0.581796
0.58172
0.581642
0.581576
0.581503
0.580602
0.580691
0.580732
0.580724
0.580672
0.580583
0.580467
0.580338
0.580198
0.580078
0.583387
0.58347
0.5835
0.583482
0.583418
0.583316
0.583191
0.58306
0.582955
0.582835
0.577453
0.57752
0.577568
0.577551
0.57748
0.577363
0.577211
0.577054
0.576882
0.576831
0.576236
0.576281
0.576294
0.576302
0.576305
0.576302
0.576294
0.57628
0.576261
0.5762
0.584077
0.584062
0.584036
0.584019
0.584011
0.584012
0.584022
0.584043
0.584071
0.584064
0.580849
0.580899
0.580928
0.580943
0.580946
0.580939
0.580923
0.580895
0.580853
0.580789
0.58178
0.581786
0.581785
0.581781
0.581775
0.581767
0.581759
0.581753
0.581752
0.58174
0.581386
0.581418
0.581432
0.581434
0.581425
0.581407
0.581381
0.581352
0.581319
0.581273
0.581383
0.581423
0.58144
0.581439
0.581421
0.58139
0.581348
0.581302
0.581252
0.581193
0.581722
0.581757
0.58177
0.581763
0.581735
0.58169
0.581634
0.581578
0.581533
0.581491
0.580976
0.581058
0.581094
0.581091
0.581053
0.580987
0.5809
0.580799
0.580682
0.580557
0.584193
0.58423
0.584245
0.584229
0.584181
0.584106
0.584016
0.583929
0.583875
0.583854
0.575602
0.575663
0.575699
0.575687
0.575634
0.575547
0.575435
0.575317
0.575186
0.575138
0.434198
0.413507
0.420206
0.460833
0.386741
0.363498
0.374224
0.431142
0.344326
0.317156
0.334089
0.412673
0.307052
0.277616
0.301479
0.40251
0.276209
0.246092
0.277145
0.400755
0.249763
0.220112
0.259701
0.396833
0.228397
0.200613
0.248959
0.394747
0.208314
0.184066
0.241237
0.393138
0.190687
0.172547
0.237977
0.395272
0.171461
0.161453
0.233871
0.391101
0.493566
0.483386
0.483635
0.493196
0.463296
0.450612
0.451599
0.464073
0.433132
0.4163
0.418297
0.435634
0.404925
0.383829
0.387178
0.409651
0.380969
0.355367
0.360351
0.388165
0.35957
0.329053
0.33448
0.367482
0.342159
0.306663
0.311917
0.350029
0.326104
0.285824
0.29063
0.333744
0.31298
0.268707
0.273081
0.320603
0.297962
0.251292
0.253306
0.303361
0.560227
0.558008
0.557447
0.558519
0.542343
0.538585
0.537814
0.540024
0.522909
0.516917
0.516006
0.520237
0.501469
0.493082
0.492162
0.498891
0.481218
0.470365
0.469608
0.479247
0.460785
0.447331
0.446754
0.459363
0.442382
0.426264
0.425851
0.441409
0.424202
0.405547
0.405272
0.423595
0.40849
0.388188
0.387974
0.408207
0.390035
0.370234
0.369308
0.389035
0.572621
0.571541
0.571181
0.571503
0.562713
0.561246
0.560706
0.561026
0.551249
0.548675
0.547891
0.548749
0.53715
0.533245
0.532265
0.533955
0.523369
0.517998
0.516902
0.519735
0.508379
0.501418
0.500256
0.504487
0.494281
0.485676
0.484496
0.490323
0.479422
0.469258
0.468119
0.475613
0.465803
0.454735
0.453658
0.46243
0.44846
0.438468
0.437136
0.445402
0.57952
0.578933
0.578727
0.578903
0.573315
0.572779
0.572511
0.5725
0.566126
0.565098
0.564626
0.564685
0.556589
0.554842
0.554135
0.554405
0.547194
0.544559
0.543632
0.544284
0.536407
0.53275
0.531628
0.532839
0.526131
0.521374
0.520103
0.522053
0.514779
0.508957
0.507608
0.510436
0.504232
0.497804
0.496465
0.500048
0.48998
0.484733
0.483271
0.486251
0.58218
0.581704
0.581557
0.58174
0.578276
0.578003
0.577862
0.577853
0.573409
0.5729
0.572644
0.572635
0.566668
0.565796
0.565378
0.565398
0.560093
0.558732
0.558124
0.558227
0.552216
0.550248
0.549435
0.549696
0.544789
0.542128
0.541125
0.541645
0.536291
0.532931
0.531792
0.532682
0.528491
0.524732
0.523565
0.52483
0.517063
0.514469
0.513228
0.513773
0.58339
0.582954
0.582831
0.583024
0.580989
0.580826
0.580747
0.580753
0.577611
0.577324
0.577183
0.577188
0.57266
0.572179
0.571945
0.571954
0.567867
0.567119
0.56676
0.566778
0.561897
0.560801
0.560288
0.560329
0.556405
0.554894
0.554216
0.554317
0.54997
0.548026
0.547209
0.547431
0.544412
0.542207
0.541338
0.541712
0.535198
0.534154
0.533239
0.532799
0.583793
0.583366
0.583253
0.583455
0.582357
0.582231
0.582179
0.582203
0.58001
0.579814
0.57973
0.579758
0.576361
0.576058
0.575923
0.575955
0.572818
0.572365
0.572156
0.572189
0.568187
0.567533
0.567225
0.567252
0.564052
0.563155
0.56273
0.562756
0.559099
0.557944
0.55741
0.55746
0.555251
0.553939
0.553343
0.553422
0.547643
0.547509
0.5469
0.546128
0.583798
0.58337
0.583261
0.58347
0.582991
0.582878
0.58284
0.582877
0.581353
0.581199
0.581144
0.581188
0.578681
0.578465
0.578384
0.578436
0.576071
0.57577
0.575647
0.575701
0.572466
0.572049
0.571865
0.571911
0.569364
0.568803
0.568542
0.568575
0.565503
0.564792
0.564456
0.564482
0.562862
0.562065
0.561677
0.561681
0.556456
0.556844
0.55647
0.555629
0.583594
0.583161
0.583053
0.583268
0.583193
0.583083
0.583053
0.583102
0.582036
0.581902
0.581863
0.581919
0.580111
0.57994
0.579888
0.579953
0.5782
0.577981
0.577907
0.577976
0.575404
0.575117
0.575006
0.575068
0.573125
0.572753
0.572593
0.572643
0.570088
0.56963
0.569423
0.569459
0.568324
0.567822
0.567575
0.567578
0.562841
0.563516
0.563301
0.562484
0.583288
0.582849
0.58274
0.582961
0.583154
0.583045
0.58302
0.583077
0.582308
0.582185
0.582156
0.58222
0.580962
0.580816
0.580781
0.580854
0.579571
0.579399
0.579353
0.57943
0.577414
0.577202
0.577134
0.577206
0.575799
0.575536
0.575437
0.575499
0.573379
0.573068
0.572939
0.572988
0.572289
0.571957
0.571802
0.571819
0.567523
0.568341
0.568227
0.567459
0.582936
0.58249
0.582381
0.582606
0.58299
0.582883
0.582862
0.582924
0.582323
0.58221
0.582188
0.582257
0.581435
0.581308
0.581284
0.581359
0.580418
0.580278
0.58025
0.580328
0.578765
0.578601
0.578558
0.578632
0.577687
0.577492
0.577429
0.577495
0.575714
0.575493
0.575412
0.575468
0.575171
0.57494
0.574841
0.574873
0.570961
0.571834
0.571781
0.571068
0.582567
0.582116
0.582007
0.582236
0.582776
0.582672
0.582654
0.582719
0.582184
0.58208
0.582064
0.582135
0.58167
0.581558
0.581541
0.581615
0.580906
0.58079
0.580772
0.580848
0.579644
0.579513
0.579486
0.579557
0.578999
0.578848
0.578808
0.578873
0.577329
0.577164
0.577113
0.577171
0.577251
0.57708
0.577018
0.577059
0.573465
0.574339
0.574319
0.573664
0.582196
0.58174
0.581632
0.581863
0.582562
0.582464
0.582449
0.582513
0.581953
0.58186
0.58185
0.581919
0.581761
0.581664
0.581652
0.581721
0.581151
0.581054
0.581043
0.581113
0.580189
0.580083
0.580065
0.58013
0.579888
0.579769
0.579742
0.579803
0.578392
0.578266
0.578232
0.578288
0.578737
0.578604
0.578564
0.578612
0.575258
0.576095
0.576094
0.575498
0.581822
0.581364
0.581257
0.581492
0.582384
0.582295
0.582282
0.582342
0.581669
0.581589
0.581583
0.581647
0.581774
0.581692
0.581683
0.581744
0.581236
0.581157
0.581151
0.581211
0.580505
0.580419
0.580406
0.580462
0.580469
0.580374
0.580356
0.58041
0.579034
0.578933
0.578911
0.578963
0.579791
0.579681
0.579655
0.579708
0.576502
0.577274
0.577281
0.57675
0.581421
0.580964
0.580861
0.581098
0.582274
0.582198
0.582187
0.582238
0.581353
0.581289
0.581287
0.581342
0.581754
0.581687
0.581681
0.581731
0.581228
0.581166
0.581161
0.581209
0.580675
0.580605
0.580595
0.580641
0.580834
0.580756
0.580744
0.580792
0.57936
0.579277
0.579261
0.579309
0.580548
0.580454
0.580436
0.580492
0.577297
0.57798
0.577989
0.57753
0.580907
0.580456
0.580362
0.5806
0.582273
0.582211
0.582201
0.58224
0.581028
0.580982
0.580982
0.581024
0.581728
0.581679
0.581675
0.581711
0.581182
0.581133
0.581129
0.581165
0.580773
0.580715
0.580707
0.580743
0.581057
0.580995
0.580987
0.581028
0.579481
0.57941
0.579397
0.57944
0.581139
0.581055
0.581043
0.581101
0.577659
0.578231
0.578239
0.577858
0.580065
0.579635
0.579556
0.579791
0.582459
0.582412
0.582403
0.582427
0.580743
0.580713
0.580713
0.580738
0.581713
0.581679
0.581677
0.5817
0.581142
0.581104
0.581099
0.581123
0.580857
0.580808
0.5808
0.580829
0.581205
0.581156
0.581151
0.581187
0.579553
0.579486
0.579474
0.579513
0.58173
0.581654
0.581647
0.581704
0.577466
0.577907
0.57791
0.577617
0.578563
0.578186
0.578129
0.578345
0.582994
0.582962
0.582955
0.582966
0.580598
0.580578
0.580573
0.580579
0.581702
0.581682
0.58168
0.581694
0.581131
0.581099
0.581093
0.581109
0.580952
0.58091
0.580902
0.580925
0.581318
0.581279
0.581276
0.581306
0.579784
0.579714
0.579701
0.579739
0.582566
0.582503
0.582499
0.582554
0.576491
0.576769
0.576766
0.576578
0.576425
0.576187
0.57616
0.576298
0.583988
0.583977
0.583979
0.583992
0.580664
0.580641
0.580628
0.580622
0.581673
0.581662
0.581662
0.58167
0.581139
0.581111
0.581105
0.581116
0.581032
0.580996
0.580989
0.581008
0.581375
0.581347
0.581345
0.581367
0.580238
0.580162
0.580146
0.580186
0.583783
0.583755
0.583758
0.583791
0.574846
0.574912
0.574907
0.574866
0.587699
0.595786
0.599784
0.602868
0.605979
0.608727
0.610961
0.612711
0.614085
0.615236
0.588057
0.591174
0.598658
0.603705
0.608193
0.611598
0.614094
0.615908
0.617214
0.618218
0.592162
0.588391
0.599437
0.605126
0.610418
0.614023
0.616624
0.618498
0.619813
0.620768
0.596151
0.585216
0.59986
0.60537
0.611191
0.614712
0.617277
0.619085
0.62035
0.621278
0.601265
0.58403
0.601307
0.606559
0.612775
0.616111
0.618615
0.620313
0.621469
0.622309
0.605031
0.582131
0.6018
0.606525
0.613146
0.616256
0.61874
0.620363
0.621505
0.622371
0.609681
0.581549
0.603279
0.607246
0.614226
0.617035
0.619505
0.621046
0.62214
0.622965
0.611798
0.579063
0.602846
0.606014
0.613456
0.616065
0.618674
0.62028
0.621549
0.622587
0.614036
0.578139
0.603852
0.605727
0.613355
0.615524
0.618344
0.620058
0.621471
0.622633
0.598852
0.56263
0.590972
0.593224
0.602726
0.606457
0.610939
0.613912
0.616347
0.618273
0.531199
0.552956
0.569114
0.580597
0.588459
0.59394
0.597909
0.600878
0.603176
0.605085
0.51712
0.547359
0.56927
0.583078
0.59187
0.597837
0.602081
0.605178
0.607459
0.609166
0.507218
0.54455
0.570671
0.585525
0.594907
0.601138
0.605525
0.608688
0.610963
0.612605
0.499455
0.542149
0.571444
0.586587
0.596337
0.602611
0.606981
0.610086
0.6123
0.613897
0.495651
0.541993
0.573315
0.588518
0.598522
0.604714
0.608998
0.611981
0.614076
0.615574
0.493092
0.541555
0.574356
0.589292
0.599499
0.605534
0.609734
0.61261
0.614647
0.616138
0.493204
0.542527
0.576405
0.59079
0.601126
0.606909
0.611009
0.613767
0.615728
0.617166
0.492837
0.542036
0.576828
0.590499
0.601001
0.606562
0.610672
0.613435
0.6155
0.617092
0.493803
0.542842
0.578506
0.590958
0.601296
0.60641
0.610608
0.613459
0.615646
0.617366
0.484977
0.533074
0.569506
0.581505
0.592873
0.598996
0.604358
0.608113
0.61104
0.613223
0.562271
0.568423
0.574408
0.579709
0.584232
0.588018
0.591157
0.593755
0.595931
0.597807
0.548705
0.559979
0.570101
0.578378
0.585012
0.590242
0.594333
0.597528
0.600018
0.601928
0.536026
0.553035
0.567297
0.578101
0.586352
0.592567
0.597261
0.600817
0.603497
0.605481
0.523559
0.54626
0.564454
0.577311
0.586789
0.593628
0.598645
0.60236
0.605118
0.607139
0.514337
0.542062
0.563629
0.578027
0.588381
0.595571
0.600729
0.604468
0.607205
0.609192
0.506085
0.538114
0.562591
0.578076
0.589069
0.596431
0.601646
0.60537
0.608096
0.610097
0.500571
0.536089
0.562994
0.579132
0.590549
0.597921
0.60312
0.606785
0.60947
0.611441
0.495319
0.53348
0.562435
0.578867
0.590584
0.597897
0.603114
0.606794
0.609557
0.611646
0.492118
0.53261
0.563296
0.579421
0.591053
0.598099
0.603367
0.607123
0.609982
0.612173
0.482285
0.523965
0.55587
0.571963
0.584301
0.592063
0.598129
0.60253
0.605906
0.608359
0.572166
0.574527
0.577384
0.580288
0.583027
0.585508
0.587705
0.589629
0.59133
0.592875
0.562989
0.567755
0.573179
0.578323
0.582858
0.586718
0.589946
0.592616
0.594799
0.596536
0.552822
0.560879
0.569264
0.576658
0.582852
0.587902
0.591969
0.595216
0.597774
0.599741
0.541162
0.553217
0.564883
0.574481
0.582161
0.588168
0.59285
0.596489
0.5993
0.601429
0.531129
0.547439
0.56233
0.573882
0.582797
0.589514
0.594608
0.598473
0.601412
0.603607
0.521087
0.541678
0.559646
0.572859
0.582782
0.590013
0.595388
0.599398
0.602428
0.604697
0.513052
0.537733
0.558512
0.573038
0.583732
0.591284
0.596821
0.600893
0.603959
0.606243
0.505115
0.533517
0.556808
0.572295
0.583567
0.591308
0.59697
0.601123
0.604283
0.606675
0.499133
0.531092
0.556563
0.572466
0.583955
0.591685
0.597453
0.601696
0.604936
0.607409
0.488507
0.523029
0.549954
0.56626
0.578391
0.58668
0.59301
0.597712
0.601312
0.603898
0.578753
0.579503
0.580646
0.581991
0.583406
0.584806
0.586138
0.58738
0.58855
0.589692
0.572953
0.574882
0.577464
0.580228
0.582924
0.585423
0.587666
0.589632
0.591316
0.592708
0.565702
0.569175
0.573527
0.577932
0.582026
0.585651
0.588769
0.591393
0.593557
0.595289
0.556481
0.562155
0.568721
0.574944
0.580453
0.585128
0.589009
0.592179
0.594734
0.596742
0.547962
0.556287
0.565288
0.573334
0.58016
0.585736
0.590223
0.593796
0.596621
0.598803
0.538703
0.549999
0.561547
0.571331
0.579345
0.585671
0.590639
0.59452
0.597557
0.599895
0.530722
0.545161
0.559237
0.570577
0.579597
0.586501
0.591819
0.595906
0.599078
0.601496
0.522455
0.540055
0.556539
0.569187
0.579023
0.586351
0.591939