/*--------------------------------*- C++ -*----------------------------------*\
| =========                 |                                                 |
| \\      /  F ield         | foam-extend: Open Source CFD                    |
|  \\    /   O peration     | Version:     4.0                                |
|   \\  /    A nd           | Web:         http://www.foam-extend.org         |
|    \\/     M anipulation  |                                                 |
\*---------------------------------------------------------------------------*/
FoamFile
{
    version     2.0;
    format      ascii;
    class       volScalarField;
    location    "750";
    object      mut;
}
// * * * * * * * * * * * * * * * * * * * * * * * * * * * * * * * * * * * * * //

dimensions      [1 -1 -1 0 0 0 0];

internalField   nonuniform List<scalar> 
34480
(
0.00189386
0.0018926
0.00189237
0.00189308
0.001895
0.0018987
0.00190598
0.00192365
0.0019621
0.00203187
0.0158382
0.01505
0.0147526
0.0144575
0.0127775
0.0080748
0.00333844
0.0013463
0.00100351
0.00148073
0.0439412
0.0422796
0.040618
0.0371643
0.0282967
0.0143908
0.00503348
0.0018312
0.00126675
0.00184677
0.0480817
0.0459656
0.0440832
0.0400596
0.0294649
0.0139959
0.00474834
0.00177769
0.00130664
0.002006
0.0474421
0.0451207
0.0434363
0.0396275
0.0287725
0.0131536
0.00440142
0.00168769
0.00131167
0.00211687
0.0457607
0.0434046
0.0418301
0.0380844
0.026896
0.011676
0.00387849
0.00155825
0.00131377
0.00223828
0.0436962
0.0415103
0.0401356
0.036573
0.0254356
0.0106787
0.00353379
0.00146797
0.00131759
0.00234167
0.0362958
0.0347151
0.0337533
0.0310554
0.0216061
0.00877235
0.00285346
0.00124612
0.00123785
0.00234367
0.0123909
0.0120974
0.0120098
0.0117451
0.00997104
0.0051686
0.00169354
0.000740307
0.000834586
0.00178374
0.00179923
0.00179932
0.00180101
0.00180413
0.00180868
0.0018145
0.00182211
0.00183285
0.00184883
0.00180893
0.00189335
0.0018915
0.00189087
0.00189129
0.001893
0.0018963
0.00190168
0.00191082
0.00192825
0.00196852
0.0148964
0.0142726
0.0140828
0.0142533
0.0146408
0.0146703
0.0128525
0.00758884
0.00251492
0.00209255
0.0405396
0.0393038
0.0386588
0.0381353
0.0365172
0.0317868
0.0228198
0.0112197
0.00331667
0.00287615
0.0446155
0.0429771
0.0422209
0.0416739
0.0398281
0.0343001
0.0240675
0.0113658
0.00331964
0.00323533
0.0444692
0.0425928
0.0419143
0.0415879
0.0401024
0.0347987
0.0243905
0.0112308
0.00324352
0.00350264
0.0432995
0.0413401
0.040687
0.0404977
0.0392836
0.0342559
0.0239679
0.0108208
0.00316291
0.00382267
0.0417351
0.0398689
0.0393075
0.0392068
0.0382383
0.0335843
0.023617
0.010555
0.00311988
0.00412395
0.0350656
0.0336912
0.0332832
0.0333012
0.0328074
0.0294864
0.0212004
0.00940177
0.00283979
0.00418119
0.0123313
0.0120483
0.0120015
0.0120682
0.0122155
0.0120931
0.0106591
0.00547566
0.00169977
0.00279539
0.00179461
0.00179234
0.0017919
0.00179299
0.00179558
0.00179947
0.00180527
0.00181461
0.00183817
0.00188402
0.00188838
0.00188679
0.00188623
0.00188663
0.00188812
0.00189081
0.00189477
0.00190061
0.00190945
0.00192286
0.0140201
0.0136075
0.0134731
0.0136131
0.0140349
0.0146676
0.0151093
0.0141907
0.0101112
0.00589167
0.0371072
0.0361334
0.0358081
0.0359632
0.0362805
0.035857
0.0329147
0.0252573
0.0133417
0.00720845
0.0409884
0.039709
0.0393119
0.0395541
0.0400478
0.0396721
0.0361043
0.0264693
0.0124873
0.00730824
0.041227
0.0397744
0.0394083
0.0397705
0.0405704
0.0406656
0.0373069
0.0265401
0.0113334
0.0072626
0.0405153
0.0389906
0.0386113
0.0390418
0.0400696
0.0406485
0.0376898
0.0260382
0.0102014
0.0073101
0.0394303
0.0379558
0.037622
0.0380621
0.0391998
0.0401442
0.0376988
0.0254372
0.00927521
0.00736325
0.0335843
0.0324987
0.0322379
0.032584
0.0335365
0.0346816
0.033486
0.022587
0.00786784
0.0070385
0.0122294
0.0119941
0.011962
0.0120293
0.0122305
0.0125092
0.0126522
0.0106537
0.00444857
0.00442699
0.00178733
0.0017846
0.00178378
0.00178458
0.00178708
0.00179126
0.00179796
0.00180931
0.00183537
0.00188768
0.00187979
0.00187866
0.00187826
0.00187858
0.00187968
0.00188153
0.0018839
0.00188691
0.00189084
0.0018955
0.0134401
0.0131913
0.0130991
0.0131866
0.0134659
0.0139221
0.0144421
0.0148905
0.0146509
0.0129277
0.0340117
0.033322
0.0331344
0.0333419
0.0339072
0.0345869
0.0346199
0.0323914
0.0257016
0.0175125
0.0376382
0.036715
0.0364693
0.03677
0.0375723
0.0385573
0.038574
0.0352011
0.0257046
0.0168469
0.0381879
0.0371417
0.0369091
0.0372805
0.0382867
0.0396343
0.039959
0.0360082
0.0244535
0.0159817
0.0378849
0.036769
0.0365083
0.0369226
0.0380791
0.0397864
0.0405478
0.036192
0.0228936
0.0153935
0.0372315
0.0361243
0.0358873
0.036299
0.037505
0.0394136
0.04056
0.0359179
0.0212507
0.0148526
0.0322022
0.0313795
0.0311868
0.031495
0.032409
0.034024
0.0354609
0.0318894
0.0182671
0.0136644
0.0121675
0.0119736
0.0119512
0.0120025
0.0121546
0.0123863
0.012583
0.0126716
0.00950638
0.00823949
0.00177855
0.00177566
0.00177469
0.00177542
0.00177796
0.00178247
0.00178976
0.00180204
0.00182758
0.00187403
0.00186836
0.00186766
0.00186742
0.00186764
0.00186836
0.00186951
0.00187076
0.00187214
0.00187372
0.00187519
0.0131621
0.0130212
0.0129596
0.0130127
0.0131853
0.0134536
0.0137231
0.0140441
0.0143733
0.0145211
0.031531
0.0311223
0.0310205
0.0311491
0.0315323
0.032151
0.0328589
0.0331683
0.0317575
0.0276253
0.0348267
0.034235
0.034081
0.034282
0.0348708
0.0358384
0.0369125
0.0371094
0.034096
0.0276187
0.0355678
0.0348758
0.0347246
0.0349746
0.0357103
0.0369481
0.038352
0.0385168
0.0341044
0.0264173
0.0355758
0.0348065
0.0346205
0.0349082
0.0357628
0.0372714
0.0390802
0.0393469
0.033581
0.0254467
0.0352634
0.034468
0.0342923
0.0345841
0.0354856
0.0371281
0.0392013
0.0395166
0.0325001
0.0244183
0.0309813
0.0303775
0.0302305
0.0304526
0.031123
0.0324102
0.0342346
0.0349175
0.0286006
0.0221762
0.0121522
0.0119921
0.0119769
0.0120119
0.012115
0.0122675
0.012331
0.0126934
0.0124967
0.0121059
0.00176841
0.00176547
0.00176443
0.00176511
0.00176764
0.00177224
0.00177963
0.00179162
0.00181384
0.00184982
0.00185464
0.00185428
0.00185415
0.00185428
0.00185472
0.00185536
0.00185592
0.00185648
0.00185706
0.00185745
0.0131216
0.0130497
0.0130103
0.0130447
0.0131536
0.0133082
0.0134242
0.0135609
0.013718
0.01384
0.0297991
0.0295982
0.0295537
0.0296162
0.0298092
0.0301427
0.0306174
0.0312112
0.031609
0.0312832
0.0326921
0.0323563
0.0322676
0.0323773
0.032716
0.0333244
0.0342182
0.035254
0.0355802
0.0341354
0.0334723
0.0330548
0.0329646
0.0331088
0.0335547
0.0343631
0.0355624
0.0369003
0.0368953
0.0341971
0.0336631
0.033167
0.0330412
0.0332193
0.0337661
0.0347915
0.0363554
0.0380966
0.0377106
0.033906
0.0335796
0.0330375
0.0329138
0.0331015
0.0337015
0.0348447
0.0366254
0.0386064
0.037704
0.0330632
0.0299424
0.0295192
0.0294129
0.0295622
0.0300119
0.0308877
0.0323036
0.0341231
0.0334904
0.029814
0.0121873
0.0120556
0.0120473
0.0120697
0.0121342
0.0122139
0.0121632
0.012331
0.012687
0.0135498
0.00175675
0.00175389
0.00175283
0.00175346
0.0017559
0.00176037
0.00176741
0.00177835
0.00179643
0.00182245
0.00183903
0.00183888
0.00183883
0.00183891
0.00183915
0.00183947
0.00183965
0.00183984
0.00184001
0.00184006
0.0132452
0.013219
0.0131959
0.0132197
0.0132899
0.0133773
0.013425
0.013481
0.0135374
0.0135523
0.0287455
0.0286631
0.0286507
0.0286777
0.0287592
0.0288974
0.0290983
0.0293946
0.0297453
0.030014
0.0312243
0.0310495
0.0310022
0.0310557
0.0312266
0.0315382
0.0320246
0.0327238
0.0334798
0.0339656
0.0319222
0.0316892
0.0316406
0.0317156
0.0319572
0.0323994
0.0331013
0.0341229
0.0351301
0.0355517
0.03218
0.0318779
0.0317976
0.0318998
0.0322209
0.0328274
0.0338153
0.0352845
0.0365988
0.0368077
0.0322209
0.0318685
0.0317862
0.0318987
0.0322705
0.0329801
0.0341505
0.0359197
0.0373253
0.0370888
0.0291149
0.0288313
0.0287588
0.0288534
0.0291354
0.0296764
0.0305622
0.0320398
0.0333547
0.0334325
0.0122815
0.0121724
0.0121701
0.012183
0.0122181
0.0122401
0.0121165
0.0120975
0.012243
0.0129188
0.00174341
0.00174073
0.00173972
0.0017403
0.00174257
0.00174671
0.00175307
0.00176253
0.00177664
0.00179489
0.00182174
0.00182172
0.00182172
0.00182176
0.00182189
0.00182201
0.00182203
0.00182205
0.00182206
0.001822
0.0134773
0.0134831
0.0134727
0.01349
0.013535
0.0135789
0.013602
0.0136273
0.0136462
0.0136254
0.0281862
0.0281613
0.0281641
0.0281758
0.0282058
0.0282519
0.0283184
0.028424
0.0285678
0.028696
0.0302958
0.0302086
0.0301846
0.0302094
0.0302903
0.0304358
0.0306599
0.0309889
0.0314072
0.0318211
0.0308531
0.0307304
0.0307069
0.0307432
0.0308649
0.0310837
0.031427
0.0319463
0.0326038
0.0332857
0.0310994
0.0309238
0.0308751
0.0309306
0.0311087
0.0314395
0.0319735
0.0328109
0.0338595
0.0349232
0.0311864
0.0309662
0.0309144
0.0309779
0.0311969
0.0316072
0.0322759
0.0333558
0.0346763
0.0359262
0.0285057
0.0283238
0.0282774
0.0283341
0.0284997
0.0288072
0.0292883
0.0301478
0.0313163
0.032622
0.0124414
0.0123493
0.012352
0.0123581
0.012372
0.0123522
0.01219
0.0120649
0.0120144
0.0122628
0.00172828
0.00172587
0.00172494
0.00172545
0.00172749
0.00173116
0.00173665
0.00174446
0.00175511
0.00176769
0.0018029
0.00180295
0.00180297
0.001803
0.00180306
0.00180307
0.00180303
0.00180299
0.00180295
0.00180285
0.0137855
0.0138149
0.0138145
0.0138275
0.0138554
0.0138751
0.0138882
0.0139007
0.0139044
0.0138705
0.0279428
0.0279435
0.0279523
0.0279581
0.0279674
0.0279776
0.0279944
0.0280261
0.0280782
0.0281267
0.0297496
0.0297058
0.0296936
0.029705
0.0297431
0.0298098
0.0299094
0.0300513
0.0302391
0.0304355
0.0301611
0.0300984
0.0300883
0.030105
0.0301638
0.0302668
0.0304224
0.0306493
0.030951
0.0312994
0.0303582
0.0302595
0.0302311
0.0302601
0.0303552
0.0305278
0.030797
0.0312047
0.0317492
0.0323968
0.0304442
0.0303103
0.0302792
0.0303133
0.0304377
0.0306651
0.0310221
0.0315826
0.032328
0.0332111
0.0281034
0.0279913
0.0279638
0.0279958
0.0280859
0.0282448
0.0284745
0.0288901
0.0295299
0.0304389
0.0126723
0.0125923
0.0125991
0.0126005
0.0125995
0.0125501
0.0123758
0.0122075
0.0120593
0.0121081
0.00171125
0.00170916
0.00170834
0.00170879
0.00171055
0.00171367
0.0017182
0.0017244
0.0017322
0.00174072
0.00178252
0.00178262
0.00178265
0.00178266
0.00178269
0.00178266
0.00178261
0.00178255
0.0017825
0.0017824
0.0141563
0.0142035
0.014211
0.0142212
0.0142371
0.0142457
0.0142538
0.0142601
0.014256
0.014215
0.0278865
0.0278978
0.0279084
0.0279121
0.0279136
0.0279128
0.027914
0.0279214
0.0279409
0.0279629
0.02945
0.0294267
0.0294201
0.0294257
0.0294443
0.0294762
0.0295223
0.0295857
0.0296726
0.0297707
0.0297393
0.0297069
0.0297029
0.0297104
0.0297387
0.0297868
0.0298565
0.0299523
0.0300816
0.0302416
0.0298794
0.0298245
0.0298083
0.0298232
0.0298731
0.0299614
0.030094
0.030283
0.030535
0.0308468
0.0299438
0.0298631
0.0298449
0.0298626
0.0299321
0.0300555
0.0302414
0.0305166
0.0308781
0.0313117
0.0278828
0.027816
0.0278013
0.0278183
0.0278623
0.0279329
0.0280239
0.0281951
0.0284797
0.0289302
0.012979
0.012907
0.012917
0.0129154
0.0129041
0.0128331
0.0126674
0.0124944
0.0123136
0.0123056
0.00169225
0.00169052
0.00168983
0.00169021
0.00169167
0.0016942
0.00169781
0.00170254
0.00170811
0.00171377
0.0017606
0.00176072
0.00176076
0.00176076
0.00176077
0.00176073
0.00176068
0.00176063
0.00176058
0.00176049
0.014594
0.0146502
0.014664
0.0146724
0.0146801
0.0146852
0.0146904
0.0146929
0.0146839
0.0146375
0.0279375
0.0279514
0.0279621
0.0279649
0.027964
0.0279614
0.0279589
0.0279591
0.0279665
0.0279784
0.0292986
0.029285
0.029281
0.0292839
0.0292936
0.0293102
0.0293333
0.0293643
0.029409
0.029466
0.0294972
0.0294792
0.0294774
0.0294809
0.0294951
0.0295186
0.0295513
0.0295935
0.0296509
0.0297316
0.0295882
0.0295574
0.0295481
0.0295559
0.0295821
0.0296273
0.0296928
0.0297804
0.029896
0.0300496
0.0296283
0.0295789
0.0295682
0.0295776
0.0296164
0.0296837
0.029781
0.0299161
0.0300866
0.030293
0.0278111
0.0277721
0.0277654
0.0277737
0.0277914
0.0278129
0.0278355
0.0278891
0.0279943
0.0282093
0.0133668
0.0132995
0.0133123
0.0133087
0.0132903
0.0132087
0.0130618
0.0129049
0.0127267
0.0127219
0.00167125
0.00166987
0.00166931
0.00166961
0.00167078
0.00167275
0.00167552
0.00167901
0.00168288
0.00168659
0.00173709
0.0017372
0.00173725
0.00173725
0.00173724
0.00173721
0.00173717
0.00173713
0.00173709
0.00173701
0.0151044
0.0151643
0.0151831
0.0151904
0.0151944
0.015198
0.0152013
0.0152012
0.0151886
0.0151372
0.0280485
0.028062
0.0280712
0.0280738
0.0280731
0.0280709
0.0280683
0.0280666
0.0280689
0.0280755
0.0292308
0.0292221
0.0292195
0.029221
0.0292265
0.0292358
0.0292484
0.0292652
0.0292905
0.0293277
0.029367
0.0293557
0.0293544
0.0293562
0.029364
0.0293769
0.029394
0.0294147
0.0294428
0.0294883
0.0294222
0.0294044
0.0293989
0.0294031
0.0294171
0.0294408
0.0294739
0.0295157
0.0295703
0.0296521
0.0294442
0.0294127
0.0294062
0.0294114
0.0294339
0.0294716
0.0295244
0.0295935
0.0296763
0.0297815
0.0278533
0.0278306
0.0278287
0.0278323
0.0278359
0.0278329
0.0278266
0.0278302
0.0278561
0.0279671
0.0138429
0.013778
0.0137935
0.0137885
0.0137646
0.013684
0.0135605
0.013429
0.0132703
0.0132902
0.00164821
0.00164715
0.00164672
0.00164695
0.00164784
0.00164933
0.00165137
0.00165386
0.00165649
0.00165888
0.0017119
0.00171201
0.00171205
0.00171205
0.00171204
0.00171202
0.00171199
0.00171196
0.00171193
0.00171185
0.015699
0.0157626
0.0157831
0.0157898
0.015793
0.0157955
0.0157974
0.0157955
0.0157801
0.0157237
0.0281927
0.0282051
0.0282128
0.0282152
0.028215
0.0282136
0.0282117
0.0282098
0.0282097
0.0282123
0.0292076
0.0292017
0.0291999
0.0292008
0.029204
0.0292093
0.0292166
0.0292262
0.0292416
0.0292675
0.0293025
0.0292946
0.0292932
0.0292942
0.0292991
0.0293072
0.0293177
0.0293296
0.0293452
0.0293731
0.0293344
0.0293236
0.0293202
0.0293225
0.0293303
0.0293432
0.0293607
0.0293816
0.0294089
0.0294556
0.0293468
0.0293257
0.0293215
0.0293247
0.0293385
0.0293609
0.0293913
0.0294293
0.0294726
0.0295321
0.0279769
0.0279637
0.0279644
0.0279655
0.0279623
0.0279506
0.0279351
0.0279215
0.0279169
0.027983
0.0144183
0.0143543
0.0143725
0.0143668
0.014338
0.0142691
0.0141705
0.0140672
0.0139338
0.013984
0.00162311
0.00162233
0.00162201
0.00162219
0.00162284
0.00162391
0.00162537
0.00162708
0.00162882
0.00163034
0.00168496
0.00168505
0.00168509
0.00168509
0.00168508
0.00168507
0.00168505
0.00168503
0.001685
0.00168493
0.0163959
0.0164633
0.0164847
0.0164912
0.0164941
0.0164959
0.0164967
0.0164936
0.0164759
0.0164141
0.0283554
0.0283666
0.0283729
0.028375
0.0283751
0.0283744
0.0283733
0.0283717
0.0283704
0.0283701
0.0292069
0.0292029
0.0292017
0.0292021
0.0292039
0.0292069
0.029211
0.0292167
0.0292264
0.0292449
0.0292745
0.0292685
0.029267
0.0292676
0.029271
0.0292767
0.0292839
0.0292919
0.0293018
0.0293198
0.0292923
0.0292853
0.0292831
0.0292844
0.0292889
0.0292964
0.0293061
0.0293173
0.0293319
0.0293603
0.0293023
0.0292875
0.0292846
0.0292869
0.0292959
0.0293102
0.0293292
0.0293521
0.0293772
0.0294149
0.0281563
0.028147
0.0281488
0.0281488
0.0281428
0.0281313
0.0281159
0.0280996
0.0280863
0.0281325
0.0151148
0.0150462
0.0150675
0.0150613
0.0150323
0.014981
0.0149066
0.0148303
0.0147224
0.0148012
0.00159593
0.00159538
0.00159516
0.00159529
0.00159574
0.00159649
0.0015975
0.00159864
0.00159976
0.00160071
0.00165616
0.00165624
0.00165627
0.00165627
0.00165627
0.00165626
0.00165625
0.00165623
0.00165621
0.00165614
0.0172212
0.0172929
0.0173144
0.0173208
0.0173239
0.0173251
0.0173253
0.0173213
0.0173017
0.017234
0.0285279
0.0285377
0.0285427
0.0285444
0.0285448
0.0285446
0.0285441
0.028543
0.0285415
0.028539
0.0292167
0.0292139
0.0292132
0.0292134
0.0292143
0.0292158
0.0292179
0.0292212
0.0292274
0.0292408
0.0292655
0.0292609
0.0292593
0.0292597
0.0292622
0.0292664
0.0292717
0.0292775
0.0292844
0.0292966
0.029275
0.0292703
0.0292686
0.0292694
0.0292722
0.0292767
0.0292825
0.029289
0.0292974
0.0293155
0.0292873
0.0292766
0.0292744
0.0292762
0.0292824
0.0292923
0.0293049
0.0293198
0.0293358
0.0293625
0.0283695
0.0283601
0.0283621
0.0283616
0.0283568
0.0283484
0.0283365
0.0283232
0.0283098
0.0283465
0.0159647
0.015888
0.0159055
0.0159
0.0158803
0.0158452
0.0157932
0.015741
0.0156566
0.0157591
0.00156668
0.0015663
0.00156615
0.00156624
0.00156654
0.00156705
0.00156772
0.00156845
0.00156915
0.00156974
0.00162545
0.00162552
0.00162555
0.00162555
0.00162555
0.00162554
0.00162553
0.00162552
0.0016255
0.00162543
0.0182121
0.0182888
0.0183108
0.0183169
0.0183197
0.0183205
0.0183202
0.0183158
0.0182949
0.0182204
0.0287035
0.0287119
0.0287157
0.0287171
0.0287175
0.0287177
0.0287178
0.0287173
0.0287161
0.0287123
0.0292305
0.0292288
0.0292284
0.0292284
0.0292288
0.0292293
0.0292303
0.029232
0.029236
0.0292457
0.0292656
0.0292619
0.0292605
0.0292607
0.0292624
0.0292655
0.0292695
0.0292738
0.0292789
0.0292875
0.0292699
0.0292666
0.0292653
0.0292657
0.0292675
0.0292703
0.029274
0.0292781
0.0292833
0.0292952
0.0292863
0.0292784
0.0292768
0.0292782
0.0292826
0.0292896
0.0292983
0.0293084
0.0293192
0.0293393
0.028597
0.0285874
0.0285886
0.0285884
0.0285855
0.0285804
0.0285728
0.028564
0.0285534
0.0285844
0.0170059
0.0169232
0.0169341
0.0169317
0.0169207
0.0169001
0.0168684
0.0168369
0.0167736
0.0168931
0.00153535
0.00153511
0.00153501
0.00153506
0.00153526
0.00153559
0.00153602
0.00153647
0.0015369
0.00153725
0.00159286
0.00159292
0.00159294
0.00159295
0.00159295
0.00159294
0.00159293
0.00159292
0.0015929
0.00159283
0.0194234
0.0195058
0.0195289
0.0195346
0.019536
0.0195364
0.019536
0.0195315
0.0195101
0.0194282
0.0288757
0.0288825
0.0288851
0.028886
0.0288864
0.0288869
0.0288873
0.0288874
0.028887
0.0288832
0.029245
0.0292439
0.0292438
0.0292438
0.0292438
0.0292439
0.0292441
0.0292449
0.0292474
0.0292544
0.0292689
0.0292661
0.0292648
0.0292648
0.029266
0.0292681
0.029271
0.0292742
0.029278
0.0292843
0.02927
0.0292675
0.0292665
0.0292667
0.0292678
0.0292696
0.029272
0.0292746
0.029278
0.029286
0.0292889
0.0292833
0.0292821
0.0292831
0.0292862
0.029291
0.029297
0.0293038
0.0293111
0.0293264
0.0288206
0.0288114
0.0288119
0.0288119
0.0288107
0.0288083
0.0288043
0.0287996
0.0287924
0.0288189
0.0182947
0.0182088
0.0182123
0.0182133
0.01821
0.0182025
0.0181895
0.018176
0.0181329
0.0182607
0.00150204
0.00150188
0.00150181
0.00150185
0.00150197
0.00150218
0.00150245
0.00150272
0.00150298
0.00150318
0.00155858
0.00155864
0.00155865
0.00155866
0.00155866
0.00155865
0.00155864
0.00155863
0.00155861
0.00155854
0.020939
0.021027
0.0210491
0.0210541
0.0210552
0.0210554
0.0210549
0.0210507
0.0210298
0.0209405
0.0290354
0.0290402
0.0290415
0.0290418
0.0290421
0.0290427
0.0290435
0.0290442
0.0290447
0.0290425
0.0292578
0.0292571
0.0292571
0.029257
0.0292569
0.0292568
0.0292568
0.0292571
0.0292585
0.0292635
0.0292724
0.0292703
0.0292692
0.0292691
0.0292698
0.0292712
0.0292732
0.0292755
0.0292783
0.029283
0.0292715
0.0292698
0.029269
0.029269
0.0292696
0.0292707
0.0292722
0.0292739
0.0292761
0.0292814
0.0292887
0.0292849
0.029284
0.0292846
0.0292866
0.0292898
0.0292936
0.0292979
0.0293026
0.0293136
0.0290208
0.0290126
0.0290126
0.0290128
0.0290126
0.0290119
0.0290104
0.0290085
0.0290042
0.0290264
0.0199131
0.0198278
0.0198252
0.0198272
0.0198309
0.019836
0.0198411
0.0198446
0.0198237
0.0199479
0.00146691
0.00146681
0.00146677
0.00146679
0.00146686
0.00146699
0.00146715
0.00146732
0.00146748
0.00146759
0.00152279
0.00152283
0.00152284
0.00152284
0.00152284
0.00152283
0.00152283
0.00152283
0.00152282
0.00152277
0.022894
0.022985
0.0230047
0.0230087
0.0230095
0.0230095
0.0230088
0.0230052
0.0229862
0.0228917
0.0291702
0.0291722
0.0291722
0.0291719
0.0291721
0.0291726
0.0291736
0.0291749
0.0291763
0.0291767
0.0292673
0.0292669
0.0292669
0.0292668
0.0292667
0.0292666
0.0292666
0.0292667
0.0292675
0.0292706
0.0292754
0.0292739
0.0292731
0.029273
0.0292733
0.0292742
0.0292754
0.0292769
0.0292789
0.0292823
0.0292738
0.0292726
0.029272
0.0292719
0.0292722
0.0292729
0.0292738
0.0292748
0.0292763
0.0292794
0.0292835
0.0292812
0.0292806
0.0292809
0.029282
0.0292838
0.029286
0.0292884
0.0292912
0.029298
0.0291763
0.0291698
0.0291696
0.0291697
0.0291698
0.0291697
0.0291693
0.0291687
0.0291669
0.0291845
0.0220302
0.0219518
0.0219498
0.0219515
0.0219544
0.0219584
0.0219624
0.0219652
0.0219659
0.0220698
0.00143011
0.00143004
0.00143001
0.00143002
0.00143007
0.00143015
0.00143025
0.00143035
0.00143047
0.00143053
0.00148464
0.00148463
0.00148462
0.00148461
0.00148461
0.00148461
0.00148462
0.00148464
0.00148466
0.00148468
0.0255308
0.0256113
0.0256252
0.025628
0.0256287
0.0256284
0.0256274
0.0256242
0.0256097
0.0255226
0.0292659
0.0292651
0.0292641
0.0292635
0.0292635
0.0292639
0.0292648
0.0292663
0.0292683
0.0292711
0.0292741
0.0292739
0.0292738
0.0292738
0.0292737
0.0292737
0.0292738
0.0292739
0.0292741
0.0292753
0.0292791
0.0292782
0.0292777
0.0292776
0.0292778
0.0292783
0.029279
0.02928
0.0292811
0.0292831
0.0292781
0.0292773
0.0292769
0.0292769
0.0292771
0.0292775
0.0292781
0.0292788
0.0292797
0.0292813
0.0292791
0.0292779
0.0292774
0.0292776
0.0292782
0.0292792
0.0292805
0.0292818
0.0292833
0.0292863
0.029275
0.0292708
0.0292702
0.0292701
0.02927
0.0292699
0.0292698
0.0292699
0.0292704
0.0292823
0.0249581
0.0248991
0.0248981
0.0248992
0.0249012
0.0249038
0.0249065
0.0249082
0.0249083
0.0249852
0.00139087
0.00139082
0.00139079
0.0013908
0.00139084
0.0013909
0.00139098
0.00139106
0.00139114
0.00139119
0.00234221
0.00236261
0.00235224
0.00231847
0.00141314
0.00143484
0.00143152
0.00142629
0.00188467
0.00192482
0.00191494
0.00189
0.00226366
0.00231955
0.00229952
0.00225346
0.00260407
0.00267271
0.00264048
0.00257668
0.00294004
0.00301959
0.0029806
0.00290915
0.00321861
0.00330632
0.00326523
0.00319381
0.00338605
0.00348015
0.00344109
0.00337403
0.0030212
0.00310812
0.00306952
0.00301463
0.00236472
0.00238092
0.00234656
0.00226658
0.00203049
0.002036
0.00203697
0.00203383
0.00239402
0.00247046
0.00236771
0.00217202
0.00335107
0.00345704
0.00332102
0.00307919
0.00409564
0.00425309
0.00408881
0.00378882
0.00485683
0.00507951
0.00487909
0.00450324
0.00581797
0.00612802
0.00587919
0.00539441
0.00676712
0.00716284
0.00685311
0.00625712
0.00745637
0.00793592
0.00756886
0.00687735
0.00588106
0.00630327
0.00594052
0.00534707
0.00217374
0.00220546
0.00219855
0.00216342
0.00193668
0.00193864
0.00193875
0.00193751
0.00412163
0.00409454
0.00410101
0.00419397
0.00505866
0.00502929
0.00504131
0.00514995
0.00554324
0.00554959
0.00556136
0.00561914
0.00603633
0.00607497
0.00606939
0.00603696
0.0067609
0.00684025
0.00678598
0.00661317
0.00749697
0.00760161
0.00747156
0.00713866
0.00801671
0.00815879
0.00795358
0.00745925
0.0060788
0.00620699
0.00601545
0.00553792
0.00204188
0.00205868
0.00205674
0.00203929
0.001898
0.00189816
0.00189826
0.00189833
0.0103124
0.0100282
0.0101609
0.0106791
0.0120661
0.0117115
0.0120061
0.0129121
0.0115297
0.0113265
0.0116914
0.012606
0.0111487
0.0110648
0.0114533
0.0123048
0.0112367
0.0112555
0.0116298
0.0123721
0.0113992
0.0114779
0.0117983
0.0123884
0.011313
0.0114707
0.0117219
0.0121002
0.00795134
0.00812683
0.00823705
0.00828226
0.00195199
0.00196226
0.00196319
0.00195535
0.00187591
0.0018759
0.00187592
0.00187596
0.0145671
0.0144987
0.0145207
0.0146279
0.0240075
0.0236614
0.0238374
0.0244671
0.0223967
0.0220779
0.0224203
0.0233599
0.0204949
0.0202882
0.020758
0.0218834
0.0193998
0.0193437
0.0199011
0.0211137
0.0185353
0.0185872
0.0191638
0.0203637
0.017286
0.0174813
0.01802
0.0190341
0.0107964
0.0110244
0.0112564
0.0115706
0.00188978
0.00189616
0.00189759
0.00189425
0.00185768
0.00185761
0.00185759
0.00185762
0.0141527
0.0140725
0.0140571
0.0141084
0.0305689
0.0304368
0.0304461
0.0305883
0.0319571
0.0316916
0.0317667
0.0321435
0.0305688
0.0302557
0.0304613
0.0311217
0.0291253
0.0288854
0.0292592
0.0301872
0.0274897
0.0273443
0.0278419
0.0289608
0.0247304
0.0247848
0.0253251
0.0263889
0.0130857
0.0133094
0.0134753
0.0136308
0.00184272
0.00184657
0.00184783
0.00184651
0.00184021
0.00184013
0.00184011
0.00184012
0.0138319
0.0137378
0.0137161
0.0137672
0.0300707
0.0300506
0.0300487
0.0300682
0.0338213
0.0337962
0.0338102
0.0338649
0.0349356
0.034862
0.0349042
0.0350554
0.0354262
0.0353208
0.0354389
0.0357562
0.0347333
0.0346062
0.0348186
0.0353337
0.0310411
0.0310647
0.0313577
0.0318988
0.0132381
0.0135033
0.0135529
0.0134381
0.00180514
0.00180749
0.00180842
0.00180793
0.00182216
0.00182208
0.00182205
0.00182207
0.0138975
0.0137987
0.0137758
0.0138286
0.0287497
0.0287274
0.0287188
0.0287265
0.0318919
0.0318964
0.0318987
0.0319029
0.0334204
0.0334416
0.0334563
0.0334713
0.0351232
0.0351743
0.0352158
0.0352558
0.0359299
0.0359766
0.0360406
0.0361297
0.0325568
0.0327018
0.0328071
0.0328828
0.0123337
0.0125798
0.0126103
0.0124661
0.00177301
0.0017745
0.00177513
0.00177491
0.00180305
0.00180298
0.00180294
0.00180296
0.014147
0.014046
0.014023
0.0140774
0.0281659
0.0281433
0.0281345
0.0281411
0.0304543
0.0304491
0.0304445
0.0304432
0.0313748
0.0313812
0.0313817
0.0313805
0.0326322
0.0326745
0.0326909
0.0326879
0.033518
0.033583
0.0336078
0.0336039
0.0307303
0.0308865
0.0309363
0.0308935
0.0119153
0.0121333
0.0121681
0.0120423
0.0017436
0.00174461
0.00174501
0.00174484
0.00178264
0.00178257
0.00178253
0.00178254
0.0144987
0.0143952
0.0143721
0.0144283
0.0280025
0.0279826
0.0279755
0.0279824
0.0297725
0.029766
0.0297612
0.0297597
0.0302624
0.0302597
0.0302557
0.0302528
0.0309528
0.0309686
0.0309719
0.0309659
0.0314474
0.0314741
0.0314801
0.0314711
0.0290206
0.0291253
0.0291528
0.0291087
0.0120023
0.0122173
0.0122543
0.0121291
0.00171538
0.00171611
0.00171636
0.00171619
0.00176077
0.0017607
0.00176066
0.00176067
0.0149296
0.0148233
0.0147998
0.0148579
0.0280198
0.0280026
0.0279971
0.0280043
0.0294678
0.0294633
0.02946
0.029459
0.0297394
0.0297364
0.0297329
0.0297302
0.0301007
0.030107
0.0301066
0.0301014
0.0303376
0.0303463
0.0303456
0.0303384
0.0281809
0.0282543
0.0282715
0.0282342
0.0123764
0.0126038
0.0126434
0.0125099
0.0016875
0.00168807
0.00168823
0.00168804
0.00173732
0.00173725
0.00173722
0.00173722
0.0154391
0.0153294
0.0153053
0.0153654
0.028117
0.028102
0.0280977
0.0281049
0.0293321
0.0293295
0.0293276
0.029327
0.0294948
0.0294932
0.029491
0.029489
0.0296836
0.0296875
0.029687
0.0296828
0.029797
0.0298007
0.0297991
0.0297937
0.0278991
0.0279585
0.0279719
0.0279397
0.0129247
0.0131717
0.013215
0.0130703
0.00165939
0.00165986
0.00165996
0.00165976
0.00171219
0.00171212
0.00171209
0.00171209
0.0160371
0.0159233
0.0158983
0.0159608
0.0282528
0.0282395
0.028236
0.028243
0.029274
0.0292728
0.0292718
0.0292714
0.0293799
0.0293795
0.0293784
0.0293769
0.0294786
0.0294819
0.0294818
0.0294787
0.0295397
0.0295425
0.0295415
0.0295376
0.0279061
0.027958
0.02797
0.0279421
0.0136042
0.0138745
0.0139224
0.0137647
0.00163061
0.00163102
0.00163108
0.00163088
0.00168529
0.00168521
0.00168518
0.00168518
0.0167412
0.0166223
0.0165961
0.0166612
0.0284085
0.0283968
0.028394
0.0284005
0.0292527
0.0292525
0.0292521
0.0292517
0.0293267
0.029327
0.0293265
0.0293254
0.0293784
0.0293813
0.0293815
0.0293791
0.0294212
0.029424
0.0294238
0.0294209
0.0280579
0.0281044
0.0281155
0.0280912
0.0144076
0.014704
0.0147567
0.0145847
0.00160084
0.0016012
0.00160124
0.00160104
0.00165651
0.00165643
0.00165639
0.0016564
0.0175772
0.017452
0.0174242
0.0174924
0.0285746
0.0285645
0.0285622
0.0285679
0.0292491
0.0292496
0.0292495
0.029249
0.0293031
0.0293039
0.0293038
0.0293029
0.0293301
0.0293327
0.029333
0.0293311
0.0293697
0.0293727
0.0293729
0.0293707
0.028279
0.0283208
0.028331
0.0283097
0.0153496
0.0156752
0.0157331
0.0155446
0.00156978
0.0015701
0.00157013
0.00156994
0.00162581
0.00162572
0.00162568
0.0016257
0.0185827
0.0184492
0.0184193
0.0184911
0.0287441
0.0287356
0.0287337
0.0287386
0.0292538
0.0292547
0.0292548
0.0292541
0.0292936
0.0292946
0.0292946
0.0292939
0.029307
0.0293093
0.0293096
0.0293079
0.0293482
0.0293512
0.0293517
0.0293497
0.0285276
0.0285647
0.0285737
0.0285549
0.0164636
0.0168217
0.0168847
0.0166776
0.00153725
0.00153753
0.00153755
0.00153737
0.00159322
0.00159312
0.00159308
0.0015931
0.0198124
0.019668
0.0196349
0.0197115
0.0289102
0.0289032
0.0289016
0.0289057
0.0292616
0.0292628
0.029263
0.0292622
0.02929
0.029291
0.0292912
0.0292906
0.0292953
0.0292972
0.0292974
0.029296
0.0293364
0.0293394
0.02934
0.0293382
0.0287756
0.028808
0.0288156
0.0287988
0.0178028
0.0181959
0.0182634
0.0180359
0.00150315
0.00150339
0.0015034
0.00150325
0.00155893
0.00155882
0.00155878
0.00155882
0.021348
0.021188
0.0211506
0.0212338
0.0290651
0.02906
0.0290587
0.0290617
0.0292694
0.0292706
0.0292708
0.0292701
0.0292881
0.0292891
0.0292894
0.0292888
0.0292881
0.0292895
0.0292897
0.0292886
0.0293235
0.0293262
0.0293268
0.029325
0.0289989
0.0290263
0.0290322
0.0290173
0.0194443
0.0198681
0.0199383
0.0196921
0.00146757
0.00146776
0.00146777
0.00146765
0.00152318
0.00152306
0.00152303
0.00152308
0.0233173
0.0231343
0.0230912
0.0231845
0.0291951
0.0291921
0.0291914
0.0291933
0.0292749
0.0292759
0.0292761
0.0292754
0.0292864
0.0292873
0.0292876
0.0292871
0.0292835
0.0292844
0.0292845
0.0292839
0.0293058
0.0293079
0.0293083
0.0293069
0.0291735
0.0291947
0.0291987
0.0291863
0.0215457
0.0220003
0.0220676
0.0217983
0.00143063
0.00143078
0.00143079
0.0014307
0.00148512
0.00148502
0.00148501
0.00148507
0.0259193
0.0257109
0.0256654
0.0257725
0.0292828
0.0292817
0.0292816
0.0292825
0.0292773
0.0292779
0.029278
0.0292776
0.0292855
0.0292861
0.0292863
0.0292861
0.0292828
0.0292833
0.0292833
0.0292831
0.0292899
0.029291
0.0292912
0.0292906
0.0292823
0.029294
0.0292958
0.0292884
0.024523
0.0249506
0.0250006
0.0247393
0.00139156
0.00139169
0.00139169
0.0013916
0.00215638
0.00204145
0.00197815
0.00194623
0.00192743
0.00191528
0.00190731
0.0019023
0.00189904
0.00189681
0.00176601
0.00163596
0.00486495
0.00951025
0.0139753
0.017107
0.0185688
0.0186885
0.0180482
0.0171141
0.00238384
0.00268035
0.00747652
0.0156936
0.0250484
0.0331183
0.0390584
0.0428032
0.0446023
0.0448997
0.00278299
0.00378648
0.00844445
0.0179717
0.0292078
0.0384919
0.0449131
0.048584
0.0499538
0.049677
0.00308168
0.00398691
0.00882519
0.0194407
0.0320608
0.0418437
0.0479568
0.0507482
0.0510199
0.0497905
0.00338614
0.00408174
0.00898246
0.0204375
0.0341634
0.0441104
0.0496172
0.0513528
0.0505611
0.0485538
0.0036211
0.0040737
0.0089697
0.0211349
0.0357373
0.0455031
0.050112
0.0506983
0.0489854
0.0465252