/*--------------------------------*- C++ -*----------------------------------*\
| =========                 |                                                 |
| \\      /  F ield         | foam-extend: Open Source CFD                    |
|  \\    /   O peration     | Version:     4.0                                |
|   \\  /    A nd           | Web:         http://www.foam-extend.org         |
|    \\/     M anipulation  |                                                 |
\*---------------------------------------------------------------------------*/
FoamFile
{
    version     2.0;
    format      ascii;
    class       volScalarField;
    location    "750";
    object      p;
}
// * * * * * * * * * * * * * * * * * * * * * * * * * * * * * * * * * * * * * //

dimensions      [1 -1 -2 0 0 0 0];

internalField   nonuniform List<scalar> 
34480
(
108539
108435
108389
108396
108470
108638
108963
109620
110551
110847
108395
108290
108242
108242
108307
108465
108778
109416
110406
110307
108210
108102
108053
108043
108092
108218
108488
109053
110033
109370
108061
107953
107900
107880
107907
107989
108202
108666
109577
108328
107891
107776
107719
107685
107689
107728
107884
108244
109052
107259
107824
107714
107654
107614
107601
107604
107706
107959
108630
106313
107661
107542
107478
107427
107400
107375
107428
107586
108100
105328
107702
107590
107531
107495
107481
107466
107506
107594
107931
104699
107582
107464
107399
107356
107342
107336
107367
107400
107538
103944
107672
107567
107554
107610
107733
107903
108123
108332
108473
104403
109262
109135
109086
109105
109201
109394
109715
110228
111023
112070
109048
108913
108860
108877
108979
109188
109557
110186
111297
112860
108805
108665
108612
108622
108716
108916
109287
109963
111306
113236
108608
108465
108406
108406
108485
108659
109007
109670
111146
113316
108406
108253
108189
108174
108232
108373
108682
109299
110839
113146
108310
108160
108090
108066
108107
108216
108481
109030
110573
112905
108124
107965
107891
107854
107878
107956
108179
108654
110154
112457
108147
107993
107919
107891
107922
108000
108203
108615
110021
112205
108013
107855
107775
107738
107757
107828
108015
108379
109645
111753
108090
107944
107903
107941
108060
108253
108562
109031
110249
112157
109797
109683
109641
109665
109761
109939
110215
110607
111128
111730
109573
109439
109390
109418
109533
109753
110103
110631
111429
112418
109312
109167
109117
109144
109265
109498
109889
110517
111588
112986
109092
108938
108882
108902
109018
109250
109657
110341
111627
113397
108870
108705
108643
108651
108754
108969
109372
110071
111520
113607
108752
108587
108520
108519
108610
108805
109191
109877
111434
113765
108549
108375
108303
108291
108367
108539
108901
109558
111177
113699
108553
108384
108312
108305
108384
108553
108904
109529
111150
113779
108408
108235
108157
108141
108206
108361
108692
109295
110858
113603
108472
108306
108255
108292
108425
108661
109068
109737
111267
114011
110168
110079
110047
110067
110143
110277
110470
110717
111006
111284
109975
109857
109815
109843
109946
110132
110411
110793
111290
111802
109737
109599
109552
109581
109699
109918
110261
110761
111500
112324
109520
109366
109311
109337
109460
109696
110087
110683
111659
112823
109298
109128
109067
109085
109203
109441
109856
110515
111698
113196
109174
108999
108930
108942
109054
109285
109710
110403
111759
113560
108963
108777
108704
108705
108807
109026
109447
110155
111645
113725
108956
108773
108698
108703
108807
109026
109448
110160
111728
114031
108800
108614
108535
108533
108627
108835
109247
109961
111542
114071
108849
108670
108609
108645
108787
109050
109510
110272
111847
114516
110419
110357
110335
110349
110403
110494
110618
110767
110926
111063
110270
110176
110143
110166
110248
110391
110595
110853
111152
111425
110075
109954
109913
109941
110045
110229
110504
110873
111346
111812
109878
109736
109685
109713
109830
110047
110384
110860
111533
112243
109673
109510
109452
109475
109596
109829
110211
110773
111642
112618
109553
109379
109313
109332
109454
109694
110106
110733
111786
113030
109344
109157
109086
109097
109214
109453
109881
110553
111768
113280
109332
109145
109071
109085
109205
109450
109892
110597
111934
113686
109171
108980
108902
108911
109026
109266
109710
110442
111843
113852
109209
109023
108958
108992
109140
109417
109896
110669
112094
114298
110589
110549
110535
110545
110579
110637
110712
110797
110882
110949
110480
110413
110388
110405
110465
110566
110705
110871
111047
111194
110336
110239
110205
110228
110312
110457
110663
110921
111219
111483
110169
110046
110002
110028
110131
110314
110586
110946
111395
111822
109992
109844
109792
109816
109929
110139
110466
110917
111528
112148
109885
109723
109661
109684
109804
110032
110403
110932
111707
112535
109687
109507
109440
109457
109578
109816
110217
110810
111741
112791
109676
109494
109422
109442
109569
109818
110245
110890
111954
113218
109513
109325
109251
109268
109393
109643
110082
110769
111926
113432
109545
109360
109293
109328
109474
109751
110217
110943
112144
113836
110709
110684
110676
110682
110703
110737
110781
110829
110874
110909
110631
110585
110567
110579
110621
110689
110778
110881
110984
111065
110535
110461
110436
110453
110516
110623
110769
110945
111130
111285
110400
110300
110264
110286
110370
110515
110724
110984
111281
111542
110256
110130
110084
110107
110206
110383
110648
110993
111415
111810
110168
110024
109970
109993
110103
110306
110620
111045
111602
112148
109986
109822
109761
109781
109897
110118
110471
110967
111658
112375
109983
109813
109747
109770
109894
110131
110518
111074
111888
112778
109823
109645
109576
109597
109723
109966
110372
110977
111888
112980
109851
109676
109611
109644
109784
110047
110476
111119
112081
113322
110798
110784
110779
110782
110795
110814
110839
110866
110890
110908
110741
110711
110700
110708
110734
110778
110834
110896
110955
111000
110687
110634
110615
110628
110673
110748
110848
110962
111077
111168
110581
110504
110475
110493
110557
110668
110820
111002
111196
111357
110471
110368
110331
110350
110432
110574
110778
111033
111320
111573
110405
110283
110236
110258
110353
110525
110779
111106
111499
111860
110242
110098
110045
110065
110170
110364
110660
111056
111558
112045
110251
110100
110041
110064
110179
110392
110725
111182
111789
112407
110095
109934
109872
109894
110013
110237
110593
111100
111792
112562
110126
109965
109904
109935
110064
110304
110681
111222
111965
112846
110870
110861
110859
110860
110868
110879
110893
110907
110920
110930
110825
110806
110799
110804
110821
110848
110882
110919
110953
110978
110805
110768
110755
110764
110795
110846
110911
110984
111054
111107
110722
110665
110644
110657
110704
110785
110892
111015
111140
111240
110644
110564
110535
110550
110614
110724
110875
111057
111249
111410
110600
110501
110463
110481
110560
110698
110894
111138
111410
111647
110456
110336
110290
110309
110399
110561
110799
111104
111461
111790
110481
110351
110300
110323
110423
110606
110881
111241
111682
112106
110331
110189
110135
110157
110263
110459
110759
111165
111677
112208
110366
110224
110170
110197
110312
110521
110839
111276
111833
112442
110932
110927
110926
110927
110931
110937
110945
110953
110960
110965
110893
110881
110877
110880
110890
110907
110927
110949
110968
110983
110900
110876
110867
110873
110893
110926
110968
111014
111056
111087
110833
110793
110777
110786
110820
110876
110949
111032
111111
111172
110784
110723
110701
110713
110761
110842
110951
111077
111204
111306
110759
110681
110651
110666
110728
110835
110982
111157
111343
111497
110633
110535
110499
110515
110588
110718
110902
111129
111378
111598
110675
110568
110526
110546
110630
110780
110998
111272
111586
111872
110529
110410
110365
110384
110475
110639
110881
111195
111565
111924
110573
110452
110406
110429
110527
110702
110961
111301
111707
112119
110990
110987
110986
110986
110989
110992
110996
111001
111004
111007
110950
110944
110941
110943
110949
110959
110971
110984
110995
111003
110980
110964
110958
110962
110975
110996
111023
111050
111075
111093
110922
110894
110883
110890
110913
110951
110999
111053
111103
111141
110897
110853
110837
110846
110880
110938
111014
111099
111182
111246
110887
110829
110806
110818
110865
110944
111051
111174
111299
111398
110777
110701
110672
110685
110743
110843
110980
111144
111315
111460
110838
110753
110719
110736
110804
110922
111088
111290
111510
111698
110694
110597
110560
110577
110652
110783
110971
111207
111467
111706
110748
110650
110611
110631
110711
110852
111055
111311
111600
111874
111045
111043
111043
111043
111045
111046
111049
111051
111053
111054
111002
110998
110996
110998
111001
111007
111014
111022
111028
111033
111050
111040
111037
111039
111048
111061
111077
111093
111108
111118
110995
110976
110969
110973
110988
111013
111045
111079
111111
111135
110989
110959
110948
110954
110978
111018
111069
111126
111179
111219
110992
110950
110933
110942
110976
111033
111108
111192
111275
111338
110894
110837
110815
110825
110869
110943
111042
111158
111273
111367
110973
110908
110882
110895
110948
111038
111161
111305
111455
111578
110829
110752
110724
110737
110796
110898
111039
111210
111390
111547
110896
110819
110788
110804
110867
110977
111130
111317
111517
111697
111100
111098
111099
111099
111100
111100
111102
111103
111104
111104
111049
111047
111046
111047
111049
111052
111057
111061
111065
111069
111115
111109
111107
111109
111114
111121
111131
111141
111149
111154
111056
111044
111039
111042
111052
111068
111088
111110
111130
111145
111068
111047
111040
111044
111060
111087
111121
111157
111191
111215
111078
111048
111037
111043
111067
111106
111158
111214
111268
111308
110990
110948
110932
110939
110971
111024
111094
111173
111249
111310
111085
111038
111019
111029
111068
111134
111222
111323
111424
111502
110937
110879
110857
110868
110912
110988
111090
111211
111333
111435
111020
110962
110938
110950
110998
111080
111192
111325
111461
111577
111155
111154
111154
111154
111155
111155
111156
111157
111157
111157
111092
111091
111091
111091
111092
111094
111097
111100
111103
111105
111176
111173
111172
111173
111176
111181
111186
111192
111197
111199
111110
111102
111099
111100
111106
111117
111129
111143
111155
111165
111135
111121
111117
111119
111130
111148
111170
111193
111214
111228
111149
111129
111121
111125
111142
111168
111203
111240
111275
111299
111068
111038
111027
111033
111055
111092
111139
111192
111241
111281
111181
111148
111134
111142
111170
111216
111278
111345
111412
111460
111024
110980
110965
110972
111005
111059
111131
111214
111295
111361
111126
111083
111065
111074
111110
111169
111248
111339
111430
111503
111212
111211
111212
111211
111212
111212
111212
111212
111213
111212
111131
111130
111130
111130
111131
111132
111134
111136
111138
111141
111236
111235
111234
111235
111237
111240
111243
111246
111248
111249
111157
111152
111149
111150
111154
111161
111169
111177
111185
111191
111193
111185
111182
111183
111190
111202
111215
111230
111243
111251
111208
111195
111189
111192
111203
111221
111243
111267
111289
111304
111133
111113
111106
111109
111124
111149
111180
111215
111246
111271
111263
111241
111231
111237
111256
111288
111329
111374
111418
111446
111091
111060
111049
111054
111077
111114
111163
111219
111271
111314
111218
111188
111175
111182
111207
111248
111303
111363
111422
111468
111274
111273
111274
111274
111274
111274
111274
111274
111274
111273
111163
111163
111162
111162
111163
111164
111165
111167
111169
111172
111295
111294
111294
111295
111296
111298
111299
111301
111302
111301
111198
111195
111194
111194
111196
111200
111205
111211
111215
111220
111243
111238
111236
111237
111241
111248
111257
111266
111274
111279
111256
111248
111244
111246
111253
111264
111278
111294
111308
111317
111188
111175
111170
111173
111183
111199
111219
111240
111259
111275
111334
111320
111313
111316
111330
111351
111378
111407
111436
111452
111141
111119
111112
111115
111130
111156
111188
111224
111257
111285
111305
111285
111276
111281
111297
111325
111362
111401
111439
111466
111352
111351
111352
111352
111352
111352
111351
111351
111351
111350
111185
111184
111184
111183
111184
111185
111186
111188
111190
111193
111349
111349
111349
111349
111350
111351
111352
111353
111354
111352
111235
111233
111232
111232
111234
111236
111239
111242
111245
111248
111284
111280
111279
111279
111282
111286
111292
111297
111303
111306
111293
111287
111285
111286
111290
111297
111306
111316
111326
111332
111234
111226
111223
111225
111231
111241
111254
111267
111278
111288
111391
111381
111376
111378
111387
111401
111419
111438
111457
111465
111172
111158
111153
111155
111165
111181
111202
111225
111245
111264
111402
111389
111382
111385
111396
111414
111438
111463
111488
111504
111469
111469
111469
111469
111469
111469
111469
111468
111468
111467
111186
111184
111184
111184
111184
111185
111186
111187
111189
111194
111390
111390
111389
111389
111389
111390
111391
111392
111394
111393
111267
111265
111265
111265
111266
111268
111269
111271
111273
111275
111314
111311
111310
111310
111312
111314
111318
111322
111326
111328
111319
111315
111313
111313
111316
111320
111326
111333
111339
111344
111271
111266
111264
111265
111269
111276
111284
111292
111299
111304
111421
111414
111410
111411
111416
111425
111437
111450
111464
111470
111177
111167
111164
111166
111172
111183
111196
111210
111222
111236
111531
111522
111518
111519
111527
111539
111554
111570
111587
111596
111652
111651
111651
111651
111651
111651
111651
111651
111651
111651
111149
111148
111149
111150
111150
111151
111151
111151
111151
111154
111403
111401
111399
111397
111397
111398
111399
111402
111405
111407
111295
111294
111295
111295
111296
111296
111297
111298
111299
111299
111336
111333
111332
111332
111333
111334
111337
111340
111343
111346
111337
111333
111332
111332
111333
111336
111341
111345
111350
111354
111300
111297
111296
111297
111300
111304
111309
111315
111319
111322
111408
111402
111398
111399
111402
111409
111417
111427
111438
111446
111141
111136
111134
111136
111140
111147
111156
111165
111171
111178
111715
111709
111705
111706
111712
111720
111731
111742
111755
111760
111852
111849
111848
111847
111847
111847
111848
111850
111852
111856
111084
111089
111093
111095
111096
111095
111094
111091
111087
111080
111389
111385
111382
111381
111380
111381
111382
111385
111389
111394
111322
111322
111322
111323
111323
111324
111324
111325
111324
111324
111354
111351
111350
111350
111351
111352
111354
111357
111359
111362
111354
111351
111350
111350
111351
111354
111357
111361
111365
111368
111329
111326
111325
111326
111328
111332
111336
111340
111344
111346
111373
111366
111363
111363
111366
111371
111378
111386
111396
111406
111084
111083
111082
111083
111087
111093
111100
111107
111110
111108
111909
111904
111901
111902
111906
111913
111922
111931
111941
111946
122967
124176
124007
122759
126078
127481
127090
125502
128903
130485
129908
127959
130969
132668
131906
129680
132547
134325
133389
130962
133821
135657
134755
132213
134698
136565
135788
133175
135495
137368
136748
134094
135434
137280
136798
134146
135063
136897
136668
134164
113435
113625
113667
113553
115641
116012
116075
115796
117793
118345
118409
117915
119825
120543
120595
119860
121675
122528
122550
121559
123439
124402
124390
123194
124906
125953
125911
124556
126366
127472
127412
125947
127140
128279
128217
126698
127800
128975
128962
127486
112249
112339
112367
112343
113518
113687
113728
113665
114886
115153
115208
115084
116269
116641
116704
116498
117600
118074
118135
117826
118995
119570
119624
119201
120219
120885
120931
120389
121553
122295
122330
121675
122358
123148
123177
122427
123177
124005
124052
123245
111401
111424
111436
111437
112113
112167
112189
112183
112963
113067
113102
113080
113912
114081
114131
114080
114858
115099
115162
115067
115913
116231
116305
116154
116856
117251
117332
117112
117969
118435
118518
118226
118663
119180
119269
118912
119434
119993
120100
119703
111109
111119
111125
111126
111548
111573
111584
111585
112073
112123
112143
112140
112710
112794
112827
112817
113365
113492
113537
113514
114139
114315
114373
114330
114822
115051
115121
115048
115701
115983
116062
115953
116260
116583
116675
116534
116929
117288
117400
117236
110968
110972
110974
110975
111243
111252
111258
111260
111587
111608
111619
111621
112022
112061
112080
112083
112484
112548
112577
112577
113059
113154
113195
113190
113550
113680
113732
113717
114244
114410
114473
114443
114684
114881
114958
114915
115228
115452
115544
115489
110918
110920
110921
110921
111089
111094
111096
111098
111334
111344
111349
111351
111637
111656
111667
111670
111971
112004
112021
112025
112407
112458
112484
112488
112757
112830
112866
112869
113308
113405
113450
113449
113640
113758
113815
113809
114065
114202
114269
114257
110912
110913
110914
110914
111012
111015
111016
111017
111192
111197
111200
111201
111406
111416
111422
111424
111656
111673
111683
111687
111995
112023
112039
112044
112246
112287
112310
112316
112689
112745
112775
112781
112920
112991
113029
113034
113250
113333
113378
113380
110932
110933
110933
110933
110985
110986
110987
110987
111120
111123
111124
111124
111267
111272
111275
111277
111457
111466
111472
111474
111724
111740
111749
111753
111902
111926
111940
111945
112264
112297
112316
112322
112408
112451
112476
112482
112669
112719
112748
112753
110966
110966
110966
110966
110986
110987
110987
110987
111094
111095
111095
111095
111188
111191
111193
111194
111333
111338
111341
111342
111543
111552
111558
111560
111664
111677
111686
111690
111964
111983
111995
112000
112040
112066
112082
112087
112251
112282
112300
112304
111008
111008
111008
111008
111005
111005
111006
111006
111097
111097
111097
111097
111151
111152
111153
111153
111262
111264
111266
111267
111426
111431
111435
111436
111500
111508
111513
111516
111754
111766
111773
111776
111777
111793
111803
111806
111953
111972
111983
111986
111054
111054
111055
111054
111034
111035
111035
111035
111120
111120
111119
111119
111140
111141
111142
111142
111228
111230
111231
111231
111356
111359
111361
111362
111392
111397
111400
111402
111612
111620
111624
111626
111591
111601
111607
111610
111745
111757
111764
111766
111105
111105
111105
111105
111069
111069
111069
111069
111155
111155
111155
111154
111148
111149
111149
111149
111221
111222
111222
111223
111320
111322
111323
111323
111325
111328
111330
111332
111523
111528
111530
111532
111463
111470
111474
111475
111606
111613
111618
111619
111157
111157
111157
111157
111106
111106
111106
111106
111200
111199
111199
111199
111167
111168
111168
111168
111232
111232
111232
111232
111307
111309
111309
111310
111290
111291
111293
111293
111474
111477
111479
111479
111379
111383
111386
111387
111521
111525
111528
111529
111212
111212
111212
111212
111141
111141
111141
111141
111249
111249
111249
111248
111193
111193
111193
111193
111253
111254
111254
111254
111310
111311
111312
111312
111276
111277
111277
111278
111456
111457
111458
111459
111326
111328
111330
111331
111478
111481
111482
111483
111273
111273
111273
111273
111172
111172
111173
111173
111302
111302
111302
111301
111221
111221
111221
111221
111280
111280
111280
111281
111322
111323
111323
111323
111277
111277
111278
111278
111458
111460
111460
111460
111293
111295
111296
111296
111472
111473
111474
111475
111350
111350
111350
111350
111194
111194
111194
111195
111354
111354
111354
111353
111248
111248
111248
111249
111307
111307
111308
111308
111336
111336
111337
111337
111287
111287
111287
111288
111472
111473
111473
111473
111269
111270
111271
111272
111506
111506
111507
111507
111466
111466
111466
111466
111194
111194
111195
111195
111396
111397
111397
111397
111273
111274
111274
111274
111330
111331
111331
111331
111348
111349
111349
111349
111301
111301
111301
111302
111479
111480
111481
111481
111238
111239
111239
111239
111597
111596
111597
111598
111650
111650
111650
111650
111152
111152
111152
111153
111414
111416
111417
111417
111297
111297
111297
111298
111349
111349
111350
111350
111358
111359
111359
111360
111318
111318
111318
111319
111460
111463
111464
111463
111175
111174
111174
111175
111766
111766
111767
111768
111857
111858
111859
111859
111065
111062
111062
111062
111405
111408
111409
111410
111321
111320
111321
111321
111365
111366
111366
111367
111372
111373
111374
111374
111344
111343
111343
111344
111426
111430
111432
111430
111086
111081
111080
111083
111969
111972
111972
111969
116522
114049
112156
110893
110103
109592
109243
108997
108819
108684
117544
114412
112083
110716
109908
109395
109053
108817
108650
108525
117853
114400
111765
110478
109671
109165
108824
108588
108428
108321
117779
114231
111368
110242
109451
108978
108653
108429
108275
108169
117426
113929
110985
109975
109190
108750
108438
108228
108083
107991
116972
113723
110731
109851
109064
108662
108360
108164
108023
107926
116277
113399
110365
109621
108824
108461
108166
107981
107845
107758
115820
113376
110303
109698
108887
108558
108257
108070
107924
107814
115089
113026
109969
109540
108753
108471
108162
107972
107820
107703
115528
113714
110628
110224
109316
108931
108513
108235
108015
107828
113015
112291
111645
111104
110659
110297
110003
109766
109576
109427
114582
113252
112144
111311
110682
110211
109855
109584
109375
109217
115804
113898
112390
111340
110572
110021
109621
109326
109109
108961
116709
114310
112466
111287
110438
109854
109439
109139
108918
108766
117250
114496
112383
111125
110224
109631
109213
108917
108699
108556
117654
114670
112339
111049
110116
109530
109115
108827
108612
108464
117744
114639
112128
110841
109886
109316
108906
108626
108414
108274
117917
114799
112148
110900
109933
109382
108970
108688
108470
108310
117690
114587
111886
110743
109804
109284
108866
108578
108353
108185
118098
115095
112355
111231
110217
109624
109131
108779
108507
108289
112192
111886
111542
111210
110910
110648
110423
110233
110073
109944
113318
112696
112043
111478
111015
110641
110339
110094
109897
109743
114442
113419
112417
111614
110991
110513
110145
109860
109640
109483
115471
114020
112689
111696
110952
110403
109991
109680
109443
109273
116315
114437
112803
111657
110820
110224
109786
109463
109217
109048
117115
114839
112933
111673
110766
110143
109691
109363
109114
108937
117654
115022
112875
111535
110576
109941
109482
109153
108902
108730
118264
115344
113005
111627
110635
109996
109529
109194
108937
108748
118423
115283
112854
111512
110527
109897
109419
109075
108810
108613
118926
115698
113220
111871
110831
110148
109617
109228
108931
108699
111416
111324
111193
111044
110891
110743
110605
110480
110370
110277
112113
111893
111613
111327
111056
110811
110595
110408
110250
110122
112915
112493
111997
111531
111120
110771
110480
110241
110046
109901
113774
113102
112367
111721
111178
110738
110383
110100
109875
109705
114559
113603
112617
111803
111144
110630
110229
109916
109669
109491
115383
114123
112889
111925
111169
110599
110164
109831
109570
109379
116020
114449
112974
111884
111047
110438
109978
109632
109361
109169
116771
114910
113224
112040
111143
110505
110025
109664
109385
109175
117132
115022
113203
111982
111058
110405
109906
109534
109245
109028
117733
115446
113529
112259
111283
110588
110051
109647
109336
109095
111118
111080
111020
110946
110865
110782
110700
110624
110554
110493
111561
111469
111335
111182
111024
110869
110725
110594
110479
110383
112085
111899
111649
111383
111125
110887
110676
110492
110336
110215
112715
112399
112000
111600
111232
110908
110630
110396
110201
110049
113338
112857
112285
111746
111269
110866
110530
110255
110029
109861
114048
113374
112615
111937
111359
110887
110504
110197
109948
109759
114625
113734
112780
111971
111302
110773
110352
110020
109753
109558
115358
114246
113105
112184
111439
110863
110410
110056
109775
109561
115779
114462
113181
112182
111382
110772
110292
109923
109630
109409
116372
114876
113481
112414
111561
110913
110404
110009
109701
109461
110972
110956
110928
110892
110850
110805
110759
110715
110673
110635
111252
111212
111146
111065
110975
110882
110791
110706
110629
110561
111605
111521
111394
111245
111088
110934
110788
110655
110539
110447
112050
111901
111688
111450
111211
110985
110780
110598
110442
110315
112518
112280
111957
111617
111289
110990
110727
110501
110309
110161
113090
112739
112289
111839
111421
111054
110738
110473
110252
110079
113559
113072
112481
111917
111412
110982
110621
110324
110079
109893
114207
113572
112837
112167
111582
111097
110697
110371
110107
109901
114604
113819
112958
112197
111547
111017
110586
110242
109963
109748
115118
114196
113233
112403
111702
111136
110678
110313
110021
109792
110920
110912
110898
110879
110857
110833
110807
110782
110758
110736
111094
111073
111039
110995
110944
110889
110834
110780
110730
110686
111343
111301
111233
111147
111051
110953
110856
110765
110683
110617
111657
111581
111463
111320
111167
111014
110868
110734
110616
110517
112003
111880
111695
111482
111261
111048
110851
110675
110521
110399
112451
112265
111999
111706
111413
111138
110891
110675
110490
110340
112810
112543
112182
111801
111433
111099
110805
110554
110340
110175
113356
112997
112533
112063
111623
111234
110898
110616
110381
110193
113681
113219
112655
112102
111599
111165
110797
110493
110241
110043
114099
113546
112903
112290
111741
111273
110881
110558
110294
110083
110913
110909
110902
110892
110881
110868
110854
110840
110826
110814
111015
111005
110986
110962
110933
110901
110868
110836
110805
110777
111197
111174
111136
111086
111028
110966
110904
110844
110789
110744
111418
111377
111309
111222
111124
111023
110923
110829
110743
110670
111677
111609
111500
111366
111220
111072
110929
110798
110680
110585
112028
111925
111765
111575
111373
111175
110989
110821
110672
110550
112293
112143
111921
111666
111405
111155
110926
110723
110546
110405
112743
112538
112245
111923
111602
111302
111034
110801
110601
110437
112979
112708
112344
111956
111581
111241
110941
110685
110467
110294
113311
112984
112564
112128
111715
111345
111022
110749
110521
110335
110933
110930
110927
110921
110915
110908
110900
110893
110885
110878
110986
110981
110971
110957
110940
110922
110903
110883
110865
110847
111122
111109
111087
111058
111023
110985
110946
110907
110871
110843
111273
111250
111210
111157
111095
111030
110963
110899
110839
110787
111469
111430
111364
111279
111183
111082
110983
110888
110802
110731
111745
111685
111586
111463
111326
111187
111052
110926
110812
110716
111934
111847
111708
111539
111357
111175
111003
110846
110705
110592
112304
112184
111998
111780
111552
111330
111123
110938
110776
110639
112456
112296
112063
111798
111527
111270
111035
110828
110648
110501
112721
112528
112257
111956
111654
111372
111118
110895
110705
110547
110966
110965
110963
110960
110957
110953
110949
110944
110940
110937
110987
110984
110978
110971
110961
110951
110940
110928
110917
110906
111094
111086
111074
111056
111035
111012
110988
110964
110941
110924
111192
111178
111154
111122
111083
111041
110998
110955
110915
110878
111339
111316
111275
111222
111160
111093
111025
110959
110897
110847
111555
111519
111458
111378
111287
111192
111096
111005
110921
110848
111684
111631
111543
111432
111308
111179
111054
110936
110828
110740
111990
111918
111800
111655
111496
111336
111182
111040
110913
110804
112074
111978
111830
111651
111460
111272
111094
110933
110789
110670
112289
112173
112000
111796
111582
111374
111180
111006
110853
110724
111008
111007
111006
111004
111003
111000
110998
110996
110993
110992
111006
111004
111001
110997
110991
110985
110979
110972
110966
110959
111096
111092
111084
111074
111061
111047
111032
111017
111004
110994
111152
111144
111130
111110
111086
111060
111032
111004
110977
110953
111265
111251
111226
111192
111152
111108
111063
111018
110976
110941
111433
111411
111373
111322
111262
111197
111131
111067
111007
110953
111513
111480
111424
111352
111268
111179
111090
111004
110925
110859
111770
111726
111651
111555
111447
111335
111224
111119
111023
110939
111799
111741
111646
111527
111396
111262
111131
111010
110898
110806
111978
111909
111798
111662
111514
111365
111222
111090
110971
110870
111054
111054
111053
111053
111052
111050
111049
111048
111047
111046
111035
111034
111032
111030
111027
111023
111020
111016
111012
111007
111118
111116
111111
111105
111097
111089
111080
111071
111063
111058
111141
111136
111128
111116
111101
111084
111067
111049
111032
111015
111230
111221
111205
111184
111159
111130
111100
111071
111042
111019
111360
111347
111322
111290
111250
111208
111163
111119
111077
111039
111400
111380
111344
111297
111241
111181
111119
111059
111001
110954
111622
111595
111548
111485
111413
111335
111257
111182
111112
111049
111605
111570
111509
111431
111342
111248
111155
111066
110983
110914
111762
111719
111649
111560
111460
111355
111253
111156
111067
110990
111104
111104
111104
111103
111103
111102
111102
111101
111100
111100
111069
111069
111068
111067
111065
111063
111061
111059
111056
111053
111154
111152
111149
111145
111141
111136
111130
111125
111120
111118
111149
111146
111141
111133
111124
111114
111103
111092
111081
111070
111222
111216
111206
111193
111177
111159
111140
111120
111102
111087
111322
111314
111298
111277
111252
111224
111195
111165
111137
111111
111331
111318
111295
111265
111228
111188
111146
111104
111065
111032
111529
111513
111482
111442
111394
111342
111289
111236
111187
111141
111473
111450
111412
111361
111301
111238
111173
111110
111050
111000
111617
111591
111547
111489
111422
111351
111280
111211
111147
111091
111157
111157
111157
111156
111156
111156
111155
111155
111154
111155
111106
111106
111105
111105
111104
111103
111101
111100
111098
111095
111198
111196
111195
111192
111189
111186
111183
111180
111178
111178
111168
111166
111163
111158
111153
111147
111140
111133
111126
111119
111232
111228
111222
111214
111204
111192
111180
111168
111156
111147
111308
111303
111294
111280
111264
111246
111227
111208
111189
111171
111293
111285
111270