/*--------------------------------*- C++ -*----------------------------------*\
| =========                 |                                                 |
| \\      /  F ield         | foam-extend: Open Source CFD                    |
|  \\    /   O peration     | Version:     4.0                                |
|   \\  /    A nd           | Web:         http://www.foam-extend.org         |
|    \\/     M anipulation  |                                                 |
\*---------------------------------------------------------------------------*/
FoamFile
{
    version     2.0;
    format      ascii;
    class       surfaceScalarField;
    location    "750";
    object      phi;
}
// * * * * * * * * * * * * * * * * * * * * * * * * * * * * * * * * * * * * * //

dimensions      [1 0 -1 0 0 0 0];

internalField   nonuniform List<scalar> 
97302
(
-0.000109777
1.02706e-06
-0.000862058
0.000871077
-0.000119445
1.22633e-06
-0.000863139
0.00087158
-0.000129252
1.29549e-06
-0.000863759
0.00087227
-0.000139767
1.24583e-06
-0.000863906
0.000873175
-0.000151819
1.06777e-06
-0.000863568
0.000874552
-0.00016689
7.51892e-07
-0.000862524
0.000876843
-0.00018807
2.72385e-07
-0.000860171
0.000881079
-0.000222342
-4.13795e-07
-0.000854689
0.000889374
-0.000270832
-1.43036e-06
-0.000845081
0.000895006
-4.1619e-06
-0.000817847
-0.000352337
0.000903514
-0.000150941
1.78835e-06
-0.00115598
0.00116575
-0.000161041
2.17015e-06
-0.00115717
0.00116633
-0.000171247
2.30464e-06
-0.00115797
0.00116717
-0.00018209
2.23348e-06
-0.00115818
0.00116804
-0.000194363
1.94142e-06
-0.00115756
0.00116896
-0.000209778
1.41796e-06
-0.00115571
0.00117046
-0.000232172
6.06152e-07
-0.00115225
0.00117431
-0.000270892
-5.8648e-07
-0.00114551
0.0011844
-0.000327417
-2.46554e-06
-0.00113316
0.00119072
-6.99096e-06
-0.00109535
-0.000431495
0.00120226
-0.000191322
2.1698e-06
-0.00144906
0.00145958
-0.000201697
2.69455e-06
-0.00145041
0.00146026
-0.000212052
2.89764e-06
-0.00145132
0.00146108
-0.000222889
2.84997e-06
-0.00145137
0.00146159
-0.000235129
2.53287e-06
-0.00145026
0.00146191
-0.000250897
1.93614e-06
-0.00144782
0.00146307
-0.000274651
9.81126e-07
-0.00144414
0.00146752
-0.000317467
-4.25476e-07
-0.00143766
0.00148032
-0.000380445
-2.73975e-06
-0.00142447
0.00148772
-8.47579e-06
-0.00137602
-0.000499023
0.00149608
-0.000231533
2.43166e-06
-0.00173832
0.00174925
-0.000242173
3.09904e-06
-0.00173997
0.0017502
-0.000252805
3.38622e-06
-0.00174118
0.00175133
-0.000263944
3.38673e-06
-0.00174151
0.00175212
-0.000276572
3.06941e-06
-0.00174066
0.00175275
-0.000292997
2.42532e-06
-0.00173858
0.00175452
-0.000318007
1.35284e-06
-0.00173536
0.00176
-0.000363938
-2.32589e-07
-0.00172943
0.00177517
-0.000431564
-2.938e-06
-0.00171598
0.0017838
-9.83587e-06
-0.00165672
-0.000558877
0.00178539
-0.000271594
2.70493e-06
-0.0020288
0.00203991
-0.000282381
3.44212e-06
-0.0020309
0.00204134
-0.000293167
3.77178e-06
-0.00203268
0.00204308
-0.000304491
3.79361e-06
-0.00203357
0.00204449
-0.000317401
3.47263e-06
-0.00203336
0.00204586
-0.00033432
2.79882e-06
-0.00203202
0.00204857
-0.000360321
1.65688e-06
-0.00202959
0.00205528
-0.000408773
-2.72988e-08
-0.00202456
0.0020728
-0.000480308
-3.01114e-06
-0.00201171
0.00208332
-1.10055e-05
-0.001941
-0.000613062
0.00207492
-0.000312172
2.80126e-06
-0.00231788
0.0023293
-0.000323047
3.56345e-06
-0.00232053
0.00233129
-0.000333896
3.88461e-06
-0.00232281
0.00233354
-0.000345282
3.88036e-06
-0.00232424
0.00233554
-0.000358297
3.52375e-06
-0.00232466
0.00233763
-0.000375445
2.81291e-06
-0.00232419
0.00234132
-0.000402071
1.63239e-06
-0.00232281
0.00234946
-0.000452408
-7.30395e-08
-0.00231907
0.00236945
-0.000527238
-3.12366e-06
-0.00230797
0.00238292
-1.19868e-05
-0.00222552
-0.000663556
0.00236282
-0.000352573
2.77188e-06
-0.00260686
0.0026184
-0.000363386
3.43553e-06
-0.00261021
0.00262115
-0.000374159
3.68366e-06
-0.00261317
0.00262414
-0.00038546
3.58803e-06
-0.00261519
0.00262679
-0.000398429
3.14831e-06
-0.00261631
0.00262965
-0.000415599
2.35528e-06
-0.00261673
0.00263436
-0.000442559
1.1484e-06
-0.00261657
0.00264401
-0.000494218
-4.78856e-07
-0.00261458
0.00266664
-0.000571798
-3.17719e-06
-0.00260637
0.002684
-1.22689e-05
-0.00251199
-0.000710027
0.0026505
-0.000394279
2.36472e-06
-0.0028967
0.00290871
-0.000405142
2.82746e-06
-0.00290072
0.00291219
-0.000415917
2.88203e-06
-0.00290392
0.00291549
-0.000427176
2.57109e-06
-0.00290601
0.00291828
-0.000440019
1.92499e-06
-0.00290711
0.00292118
-0.00045692
9.38952e-07
-0.00290775
0.00292607
-0.00048361
-3.5582e-07
-0.00290831
0.00293651
-0.000535453
-1.88086e-06
-0.00290783
0.00296107
-0.000614485
-3.65145e-06
-0.00290317
0.00298267
-1.16508e-05
-0.00279871
-0.000753044
0.00293665
-0.00043557
1.25471e-06
-0.00318402
0.00319626
-0.000445993
1.33416e-06
-0.00318877
0.00320069
-0.000456356
1.06531e-06
-0.00319258
0.00320476
-0.000467294
3.54477e-07
-0.00319531
0.00320847
-0.000479955
-6.85407e-07
-0.00319721
0.00321249
-0.000496695
-2.03362e-06
-0.00319887
0.00321858
-0.000523242
-3.50347e-06
-0.00320084
0.00323053
-0.00057482
-4.81494e-06
-0.00320263
0.00325715
-0.000653838
-5.22003e-06
-0.00320053
0.00328112
-9.93188e-06
-0.00308598
-0.000789975
0.0032204
-0.000477051
-0.00345163
0.00346448
-0.000488108
-0.00345593
0.00346832
-0.000499071
-0.00345749
0.00346951
-0.000510612
-0.00345586
0.00346776
-0.000523749
-0.00345156
0.00346401
-0.000540583
-0.00344563
0.00346043
-0.000566315
-0.00343927
0.0034615
-0.00061511
-0.0034342
0.00347818
-0.000687844
-0.00343192
0.00349943
-0.00332625
-0.000816553
0.00344503
1.47127e-05
9.71039e-07
-0.000853843
5.7534e-06
1.20606e-06
-0.000855386
-3.26037e-06
1.29673e-06
-0.000856042
-1.25153e-05
1.2511e-06
-0.000855902
-2.22127e-05
1.05839e-06
-0.000854928
-3.25787e-05
7.00533e-07
-0.000852858
-4.37734e-05
1.43432e-07
-0.000849119
-5.5234e-05
-6.9076e-07
-0.000842537
-6.62222e-05
-1.99861e-06
-0.000832095
-3.75335e-06
-0.000815895
-6.44203e-05
1.58301e-05
1.71237e-06
-0.00114644
5.9606e-06
2.14973e-06
-0.00114824
-3.93963e-06
2.31888e-06
-0.00114909
-1.41855e-05
2.25906e-06
-0.00114894
-2.50407e-05
1.94765e-06
-0.00114759
-3.68754e-05
1.36293e-06
-0.00114454
-5.05364e-05
4.44001e-07
-0.00113889
-6.70809e-05
-9.22094e-07
-0.00112873
-8.79696e-05
-3.12224e-06
-0.00111114
-6.15694e-06
-0.00108192
-9.9003e-05
1.71674e-05
2.11604e-06
-0.00143833
6.61728e-06
2.71019e-06
-0.00144042
-3.88493e-06
2.95378e-06
-0.00144145
-1.4666e-05
2.91718e-06
-0.00144125
-2.60602e-05
2.56619e-06
-0.00143948
-3.88077e-05
1.87828e-06
-0.00143559
-5.46586e-05
7.63394e-07
-0.00142861
-7.6358e-05
-8.93637e-07
-0.00141599
-0.000108064
-3.67711e-06
-0.00139221
-7.737e-06
-0.00134842
-0.00013408
1.83902e-05
2.39892e-06
-0.00172692
7.39149e-06
3.15165e-06
-0.00172941
-3.56925e-06
3.48695e-06
-0.00173076
-1.48807e-05
3.50303e-06
-0.00173079
-2.69941e-05
3.14909e-06
-0.00172913
-4.09028e-05
2.40485e-06
-0.0017252
-5.89165e-05
1.14027e-06
-0.00171772
-8.51779e-05
-7.48752e-07
-0.00170331
-0.000127301
-4.05269e-06
-0.00167348
-9.09172e-06
-0.00161358
-0.000169083
1.9493e-05
2.6861e-06
-0.00201702
8.24166e-06
3.51626e-06
-0.00202001
-2.9737e-06
3.89945e-06
-0.00202188
-1.46014e-05
3.94274e-06
-0.00202238
-2.72291e-05
3.58934e-06
-0.00202117
-4.20304e-05
2.81804e-06
-0.00201763
-6.17761e-05
1.46044e-06
-0.00201016
-9.19077e-05
-5.74068e-07
-0.0019946
-0.000143962
-4.2647e-06
-0.00195945
-1.01667e-05
-0.00188259
-0.000201294
2.01921e-05
2.81418e-06
-0.00230569
8.79204e-06
3.67663e-06
-0.00230929
-2.53682e-06
4.05865e-06
-0.00231164
-1.42989e-05
4.08657e-06
-0.00231262
-2.71988e-05
3.70961e-06
-0.00231188
-4.25655e-05
2.91576e-06
-0.00230892
-6.3595e-05
1.51755e-06
-0.00230183
-9.6896e-05
-5.63478e-07
-0.00228578
-0.000158305
-4.40382e-06
-0.00224643
-1.09854e-05
-0.00215245
-0.000230548
2.05888e-05
2.7733e-06
-0.00259441
9.23208e-06
3.53478e-06
-0.00259871
-2.03623e-06
3.84947e-06
-0.00260169
-1.37356e-05
3.80017e-06
-0.00260321
-2.66952e-05
3.3754e-06
-0.00260301
-4.23464e-05
2.54494e-06
-0.00260071
-6.42586e-05
1.1378e-06
-0.00259428
-0.000100074
-9.26074e-07
-0.0025784
-0.000170109
-4.53479e-06
-0.00253621
-1.14559e-05
-0.00242526
-0.00025637
2.0315e-05
2.38516e-06
-0.00288381
8.96613e-06
2.9492e-06
-0.00288879
-2.19624e-06
3.1011e-06
-0.002892
-1.37373e-05
2.89034e-06
-0.00289356
-2.65361e-05
2.34198e-06
-0.00289328
-4.20897e-05
1.41981e-06
-0.00289107
-6.42619e-05
3.41684e-08
-0.00288504
-0.000101519
-1.9122e-06
-0.00286958
-0.000178909
-4.68685e-06
-0.00282563
-1.13086e-05
-0.00269891
-0.000278856
1.9675e-05
1.26321e-06
-0.00317075
8.80651e-06
1.41655e-06
-0.00317637
-1.84125e-06
1.27638e-06
-0.00318011
-1.28688e-05
7.13294e-07
-0.00318211
-2.53067e-05
-1.45478e-07
-0.00318229
-4.07613e-05
-1.31187e-06
-0.00318068
-6.32987e-05
-2.72928e-06
-0.00317554
-0.000101857
-4.38456e-06
-0.0031616
-0.000185193
-5.84193e-06
-0.00311604
-9.72308e-06
-0.00297148
-0.000301278
1.84881e-05
-0.00343806
7.36451e-06
-0.00344339
-3.33725e-06
-0.00344551
-1.42981e-05
-0.00344419
-2.64305e-05
-0.00343957
-4.13065e-05
-0.00343206
-6.28232e-05
-0.00342048
-0.000100138
-0.00340127
-0.000184862
-0.00335303
-0.00320143
-0.000319405
1.22671e-05
8.66091e-07
-0.000847382
4.75722e-06
1.11631e-06
-0.000848992
-2.89823e-06
1.21383e-06
-0.0008496
-1.06138e-05
1.16076e-06
-0.000849347
-1.82693e-05
9.49564e-07
-0.000848223
-2.56242e-05
5.64274e-07
-0.000846068
-3.21328e-05
-1.75723e-08
-0.000842593
-3.6498e-05
-8.33822e-07
-0.000837338
-3.68533e-05
-1.97042e-06
-0.000829769
-3.24715e-06
-0.000820115
-2.93858e-05
1.42361e-05
1.57053e-06
-0.00113821
5.32892e-06
2.03155e-06
-0.00114025
-3.6796e-06
2.20941e-06
-0.00114108
-1.28805e-05
2.13722e-06
-0.00114072
-2.22808e-05
1.79253e-06
-0.00113904
-3.17354e-05
1.15057e-06
-0.00113567
-4.08514e-05
1.57364e-07
-0.00112995
-4.84873e-05
-1.25724e-06
-0.00112067
-5.22129e-05
-3.31114e-06
-0.00110608
-5.72516e-06
-0.00108642
-4.52338e-05
1.63528e-05
2.01134e-06
-0.00142846
6.30927e-06
2.63568e-06
-0.00143098
-3.77484e-06
2.88831e-06
-0.00143205
-1.40923e-05
2.83261e-06
-0.00143162
-2.47375e-05
2.4292e-06
-0.00142947
-3.5782e-05
1.64314e-06
-0.00142504
-4.73492e-05
3.79648e-07
-0.00141726
-5.89891e-05
-1.45393e-06
-0.00140416
-6.83431e-05
-4.26977e-06
-0.00138189
-7.76229e-06
-0.00134932
-6.54063e-05
1.80125e-05
2.34404e-06
-0.00171605
7.21844e-06
3.13702e-06
-0.00171912
-3.6194e-06
3.4831e-06
-0.00172051
-1.48085e-05
3.47555e-06
-0.00172024
-2.65939e-05
3.05667e-06
-0.00171798
-3.93138e-05
2.18927e-06
-0.00171303
-5.35382e-05
7.2587e-07
-0.00170384
-6.94838e-05
-1.44703e-06
-0.00168737
-8.55037e-05
-4.99054e-06
-0.00165674
-9.56866e-06
-0.00160858
-8.8695e-05
1.94123e-05
2.67491e-06
-0.00200548
8.14491e-06
3.5514e-06
-0.00200916
-3.15127e-06
3.94912e-06
-0.00201105
-1.48909e-05
3.97021e-06
-0.00201114
-2.74976e-05
3.55025e-06
-0.00200906
-4.15599e-05
2.64759e-06
-0.00200403
-5.80988e-05
1.06013e-06
-0.00199396
-7.81371e-05
-1.34986e-06
-0.00197466
-0.000101489
-5.50762e-06
-0.00193558
-1.1107e-05
-0.00187004
-0.000112503
2.03486e-05
2.85069e-06
-0.00229356
8.77467e-06
3.76311e-06
-0.00229793
-2.78337e-06
4.16381e-06
-0.0023003
-1.48324e-05
4.17707e-06
-0.00230078
-2.79507e-05
3.74013e-06
-0.00229896
-4.2971e-05
2.81918e-06
-0.00229407
-6.13989e-05
1.18278e-06
-0.00228353
-8.51667e-05
-1.32716e-06
-0.00226203
-0.000116305
-5.83723e-06
-0.00221496
-1.22961e-05
-0.00213102
-0.000136549
2.08871e-05
2.83093e-06
-0.00258186
9.25506e-06
3.64223e-06
-0.00258696
-2.33154e-06
3.98138e-06
-0.00258992
-1.44238e-05
3.93116e-06
-0.00259087
-2.77616e-05
3.4721e-06
-0.00258941
-4.33793e-05
2.55659e-06
-0.00258483
-6.32626e-05
9.51226e-07
-0.00257416
-9.02814e-05
-1.55312e-06
-0.00255115
-0.000129279
-6.04238e-06
-0.002497
-1.31437e-05
-0.00239423
-0.000159458
2.06954e-05
2.45147e-06
-0.00287074
9.04442e-06
3.06221e-06
-0.00287656
-2.45636e-06
3.25522e-06
-0.00287978
-1.4419e-05
3.08414e-06
-0.00288075
-2.76724e-05
2.55998e-06
-0.00287911
-4.34311e-05
1.63281e-06
-0.00287439
-6.4143e-05
1.52304e-07
-0.00286353
-9.35696e-05
-2.13577e-06
-0.00283957
-0.000139907
-5.84241e-06
-0.00277949
-1.31079e-05
-0.0026582
-0.000180652
1.99824e-05
1.34055e-06
-0.00315727
8.79393e-06
1.52444e-06
-0.00316364
-2.19742e-06
1.462e-06
-0.00316732
-1.36123e-05
1.00678e-06
-0.00316862
-2.64332e-05
2.79339e-07
-0.00316719
-4.21134e-05
-7.43462e-07
-0.00316263
-6.36022e-05
-2.05406e-06
-0.00315184
-9.54332e-05
-3.79121e-06
-0.00312812
-0.000148086
-6.04606e-06
-0.00306318
-1.11251e-05
-0.00292096
-0.000200591
1.87923e-05
-0.0034244
7.5162e-06
-0.00343059
-3.37302e-06
-0.00343316
-1.45813e-05
-0.00343197
-2.69771e-05
-0.0034269
-4.20201e-05
-0.00341776
-6.26958e-05
-0.00340186
-9.44127e-05
-0.00337335
-0.00014983
-0.00330366
-0.00314711
-0.000215275
9.51594e-06
7.02221e-07
-0.000842733
3.70991e-06
9.5552e-07
-0.000844142
-2.30269e-06
1.05632e-06
-0.000844644
-8.25278e-06
1.00044e-06
-0.000844398
-1.3836e-05
7.85445e-07
-0.000843425
-1.86312e-05
4.01989e-07
-0.000841674
-2.19969e-05
-1.57432e-07
-0.00083907
-2.28939e-05
-8.95485e-07
-0.000835546
-1.97343e-05
-1.81103e-06
-0.000831117
-2.70326e-06
-0.000826245
-1.09013e-05
1.20283e-05
1.33074e-06
-0.00113162
4.49688e-06
1.80121e-06
-0.00113357
-3.20054e-06
1.98317e-06
-0.00113431
-1.09275e-05
1.90208e-06
-0.00113389
-1.84693e-05
1.53972e-06
-0.00113225
-2.54392e-05
8.77196e-07
-0.00112918
-3.10794e-05
-1.18137e-07
-0.00112435
-3.38733e-05
-1.46763e-06
-0.00111731
-3.09863e-05
-3.23619e-06
-0.00110754
-5.06592e-06
-0.00109645
-1.85867e-05
1.47533e-05
1.79724e-06
-0.00141997
5.70614e-06
2.43621e-06
-0.00142257
-3.45254e-06
2.69039e-06
-0.00142359
-1.27228e-05
2.61292e-06
-0.00142306
-2.19989e-05
2.16591e-06
-0.00142082
-3.09919e-05
1.31402e-06
-0.00141648
-3.90295e-05
-2.16464e-08
-0.00140932
-4.45097e-05
-1.89124e-06
-0.00139825
-4.35217e-05
-4.49526e-06
-0.00138162
-7.35588e-06
-0.00136137
-2.91793e-05
1.68514e-05
2.18091e-06
-0.00170624
6.72682e-06
3.00034e-06
-0.00170956
-3.51135e-06
3.34876e-06
-0.00171093
-1.40005e-05
3.30981e-06
-0.00171045
-2.47874e-05
2.82618e-06
-0.00170785
-3.57923e-05
1.85541e-06
-0.00170257
-4.65564e-05
2.59412e-07
-0.00169336
-5.55096e-05
-2.04915e-06
-0.00167826
-5.78255e-05
-5.49783e-06
-0.00165342
-9.47384e-06
-0.00162088
-4.34144e-05
1.8602e-05
2.5609e-06
-0.0019947
7.72922e-06
3.47288e-06
-0.00199876
-3.23044e-06
3.87667e-06
-0.00200062
-1.45536e-05
3.8638e-06
-0.00200037
-2.64784e-05
3.36841e-06
-0.00199767
-3.91762e-05
2.33875e-06
-0.00199181
-5.24964e-05
5.72657e-07
-0.00198095
-6.50969e-05
-2.06848e-06
-0.00196204
-7.17675e-05
-6.28912e-06
-0.00192812
-1.13855e-05
-0.00188074
-5.91563e-05
1.98354e-05
2.79552e-06
-0.00228195
8.44487e-06
3.74922e-06
-0.00228682
-2.98247e-06
4.16041e-06
-0.00228915
-1.4848e-05
4.14581e-06
-0.00228919
-2.75642e-05
3.6365e-06
-0.00228651
-4.15741e-05
2.58404e-06
-0.00228031
-5.71302e-05
7.4336e-07
-0.00226814
-7.33293e-05
-2.07329e-06
-0.00224583
-8.5264e-05
-6.82273e-06
-0.00220249
-1.29212e-05
-0.00213844
-7.63075e-05
2.05805e-05
2.81768e-06
-0.00256962
8.97901e-06
3.67217e-06
-0.00257528
-2.62043e-06
4.02712e-06
-0.00257819
-1.46964e-05
3.96038e-06
-0.00257861
-2.78442e-05
3.44375e-06
-0.00257607
-4.27606e-05
2.4182e-06
-0.00256975
-6.01567e-05
6.24231e-07
-0.00255665
-7.97071e-05
-2.21156e-06
-0.00253146
-9.74875e-05
-7.1305e-06
-0.00247891
-1.41027e-05
-0.00239698
-9.35601e-05
2.0545e-05
2.46483e-06
-0.0028579
8.85465e-06
3.11659e-06
-0.00286431
-2.7301e-06
3.33793e-06
-0.0028675
-1.47706e-05
3.18545e-06
-0.00286793
-2.797e-05
2.65293e-06
-0.00286512
-4.32652e-05
1.6833e-06
-0.00285836
-6.18889e-05
8.45512e-08
-0.00284436
-8.42326e-05
-2.4956e-06
-0.00281695
-0.000108035
-6.75256e-06
-0.00275607
-1.41828e-05
-0.00265571
-0.000110445
1.99071e-05
1.38775e-06
-0.0031439
8.62201e-06
1.59825e-06
-0.00315084
-2.5136e-06
1.59904e-06
-0.00315445
-1.40645e-05
1.22766e-06
-0.00315511
-2.68684e-05
5.9361e-07
-0.00315232
-4.2092e-05
-3.42108e-07
-0.00314538
-6.15838e-05
-1.61288e-06
-0.00313065
-8.68381e-05
-3.4467e-06
-0.00310191
-0.000116513
-6.15748e-06
-0.0030341
-1.18115e-05
-0.00291291
-0.000126934
1.87948e-05
-0.0034109
7.54287e-06
-0.00341774
-3.3796e-06
-0.00342063
-1.4642e-05
-0.00341948
-2.69952e-05
-0.00341395
-4.1641e-05
-0.00340346
-6.05253e-05
-0.00338459
-8.62256e-05
-0.00335109
-0.000119081
-0.00327696
-0.00313841
-0.000139599
6.98684e-06
5.20132e-07
-0.000839542
2.75319e-06
7.59985e-07
-0.000840668
-1.69954e-06
8.58316e-07
-0.00084105
-6.04419e-06
8.04667e-07
-0.000840858
-9.9372e-06
6.01574e-07
-0.000840133
-1.29733e-05
2.47544e-07
-0.000838886
-1.46564e-05
-2.49603e-07
-0.000837137
-1.43784e-05
-8.69193e-07
-0.000834954
-1.1459e-05
-1.56737e-06
-0.00083247
-2.18948e-06
-0.000829929
-5.58509e-06
9.64467e-06
1.03819e-06
-0.00112663
3.61177e-06
1.49694e-06
-0.00112827
-2.62984e-06
1.67588e-06
-0.00112888
-8.80117e-06
1.59181e-06
-0.00112851
-1.45604e-05
1.23226e-06
-0.00112712
-1.94373e-05
5.89336e-07
-0.00112464
-2.27134e-05
-3.43436e-07
-0.00112098
-2.32783e-05
-1.54427e-06
-0.00111607
-1.9458e-05
-2.97517e-06
-0.00110995
-4.32413e-06
-0.00110367
-1.01037e-05
1.27311e-05
1.49917e-06
-0.00141302
4.96474e-06
2.1325e-06
-0.00141544
-2.97594e-06
2.38152e-06
-0.00141636
-1.09087e-05
2.28665e-06
-0.00141583
-1.85596e-05
1.81525e-06
-0.00141376
-2.54594e-05
9.41423e-07
-0.00140994
-3.07314e-05
-3.83355e-07
-0.00140401
-3.27929e-05
-2.16103e-06
-0.00139557
-2.87483e-05
-4.4198e-06
-0.00138422
-6.66597e-06
-0.00137199
-1.57887e-05
1.51753e-05
1.91525e-06
-0.00169781
6.06429e-06
2.74477e-06
-0.00170106
-3.23232e-06
3.08977e-06
-0.00170234
-1.2651e-05
3.02097e-06
-0.00170176
-2.20309e-05
2.48607e-06
-0.00169914
-3.10139e-05
1.44829e-06
-0.00169409
-3.87118e-05
-1.98382e-07
-0.00168585
-4.31934e-05
-2.49383e-06
-0.00167345
-4.01301e-05
-5.62754e-06
-0.00165528
-8.90645e-06
-0.00163444
-2.43305e-05
1.72605e-05
2.33646e-06
-0.00198504
7.13375e-06
3.27184e-06
-0.00198916
-3.1484e-06
3.6767e-06
-0.00199092
-1.36674e-05
3.62807e-06
-0.00199046
-2.4433e-05
3.063e-06
-0.00198749
-3.52779e-05
1.92967e-06
-0.00198145
-4.54351e-05
5.41625e-08
-0.00197104
-5.27838e-05
-2.66256e-06
-0.00195452
-5.16861e-05
-6.64427e-06
-0.0019282
-1.10274e-05
-0.00189614
-3.41677e-05
1.88059e-05
2.63042e-06
-0.00227125
7.93392e-06
3.61767e-06
-0.00227629
-3.04219e-06
4.03527e-06
-0.00227853
-1.43475e-05
3.98856e-06
-0.00227825
-2.6161e-05
3.40664e-06
-0.00227504
-3.85577e-05
2.23443e-06
-0.00226822
-5.10243e-05
2.43675e-07
-0.00225587
-6.14642e-05
-2.73088e-06
-0.00223532
-6.33104e-05
-7.36143e-06
-0.00219993
-1.2793e-05
-0.00215444
-4.5546e-05
1.97898e-05
2.70786e-06
-0.00255809
8.52757e-06
3.60233e-06
-0.002564
-2.79397e-06
3.97046e-06
-0.0025668
-1.4504e-05
3.88256e-06
-0.00256679
-2.69712e-05
3.30316e-06
-0.0025635
-4.0524e-05
2.16467e-06
-0.00255613
-5.50025e-05
2.11156e-07
-0.00254214
-6.85096e-05
-2.82464e-06
-0.00251786
-7.40538e-05
-7.76964e-06
-0.00247296
-1.41834e-05
-0.00241228
-5.73572e-05
1.99573e-05
2.3933e-06
-0.00284562
8.50364e-06
3.08761e-06
-0.00285234
-2.90886e-06
3.33345e-06
-0.00285545
-1.47192e-05
3.19135e-06
-0.00285543
-2.74169e-05
2.63892e-06
-0.00285176
-4.15779e-05
1.61118e-06
-0.00284365
-5.75124e-05
-1.02367e-07
-0.00282812
-7.3782e-05
-2.87752e-06
-0.00280062
-8.36172e-05
-7.32395e-06
-0.00274668
-1.43585e-05
-0.00266966
-6.94969e-05
1.94548e-05
1.38388e-06
-0.00313098
8.32071e-06
1.62223e-06
-0.00313824
-2.73342e-06
1.67854e-06
-0.00314174
-1.41569e-05
1.37537e-06
-0.00314187
-2.6583e-05
8.11652e-07
-0.00313807
-4.07907e-05
-6.72198e-08
-0.00312949
-5.75822e-05
-1.32689e-06
-0.00311264
-7.66236e-05
-3.23165e-06
-0.00308252
-9.12205e-05
-6.13166e-06
-0.0030207
-1.16734e-05
-0.00292495
-8.18645e-05
1.84553e-05
-0.00339787
7.42786e-06
-0.00340509
-3.34623e-06
-0.00340818
-1.44463e-05
-0.00340701
-2.64524e-05
-0.00340113
-4.02241e-05
-0.00338975
-5.67079e-05
-0.00336943
-7.6403e-05
-0.00333463
-9.37435e-05
-0.00326576
-0.00315267
-9.11536e-05
4.92117e-06
3.47641e-07
-0.000837417
1.97057e-06
5.6101e-07
-0.000838278
-1.17834e-06
6.51859e-07
-0.000838553
-4.21871e-06
6.04396e-07
-0.000838422
-6.84396e-06
4.25152e-07
-0.000837933
-8.7301e-06
1.18525e-07
-0.000837118
-9.54452e-06
-2.97743e-07
-0.000836025
-8.96796e-06
-7.92269e-07
-0.000834739
-6.76209e-06
-1.30992e-06
-0.000833365
-1.74425e-06
-0.000831946
-3.00113e-06
7.38835e-06
7.33854e-07
-0.00112298
2.77039e-06
1.1601e-06
-0.00112425
-2.06676e-06
1.32871e-06
-0.00112472
-6.79179e-06
1.24817e-06
-0.00112443
-1.10316e-05
9.11721e-07
-0.00112337
-1.43421e-05
3.22472e-07
-0.00112154
-1.61587e-05
-5.04366e-07
-0.00111895
-1.57902e-05
-1.52091e-06
-0.00111571
-1.2439e-05
-2.6431e-06
-0.00111197
-3.63564e-06
-0.00110831
-5.91429e-06
1.05713e-05
1.15548e-06
-0.00140759
4.17457e-06
1.75951e-06
-0.00140964
-2.43647e-06
1.99572e-06
-0.00141042
-8.95778e-06
1.89123e-06
-0.00140995
-1.50163e-05
1.42025e-06
-0.00140821
-2.00923e-05
5.7096e-07
-0.00140511
-2.3384e-05
-6.71152e-07
-0.00140055
-2.37052e-05
-2.26739e-06
-0.00139451
-1.93308e-05
-4.14658e-06
-0.00138709
-5.89107e-06
-0.00137964
-9.42779e-06
1.31964e-05
1.57507e-06
-0.00169085
5.30162e-06
2.39252e-06
-0.0016938
-2.83905e-06
2.72715e-06
-0.00169494
-1.09902e-05
2.63527e-06
-0.00169436
-1.88283e-05
2.07289e-06
-0.00169195
-2.58439e-05
1.01659e-06
-0.00168752
-3.10773e-05
-5.96024e-07
-0.00168069
-3.28683e-05
-2.75361e-06
-0.00167117
-2.82096e-05
-5.4732e-06
-0.00165861
-8.11641e-06
-0.00164544
-1.49804e-05
1.55304e-05
2.01919e-06
-0.00197671
6.41241e-06
2.95895e-06
-0.00198061
-2.92817e-06
3.35855e-06
-0.00198221
-1.23784e-05
3.27836e-06
-0.00198165
-2.17389e-05
2.66249e-06
-0.00197872
-3.06005e-05
1.4682e-06
-0.00197304
-3.79569e-05
-4.31385e-07
-0.00196385
-4.1758e-05
-3.07836e-06
-0.00195039
-3.75472e-05
-6.65238e-06
-0.00193123
-1.03038e-05
-0.00191012
-2.13735e-05
1.73505e-05
2.36292e-06
-0.00226173
7.28315e-06
3.36936e-06
-0.00226663
-2.96107e-06
3.78804e-06
-0.00226872
-1.34098e-05
3.71039e-06
-0.00226823
-2.4005e-05
3.06829e-06
-0.00226485
-3.45098e-05
1.80951e-06
-0.00225805
-4.4004e-05
-2.52657e-07
-0.00224655
-5.0214e-05
-3.2313e-06
-0.00222896
-4.73023e-05
-7.50902e-06
-0.00220198
-1.21662e-05
-0.00217083
-2.90479e-05
1.85673e-05
2.5014e-06
-0.00254756
7.9321e-06
3.4271e-06
-0.00255343
-2.83461e-06
3.80486e-06
-0.00255605
-1.38763e-05
3.69569e-06
-0.00255574
-2.53127e-05
3.06085e-06
-0.00255205
-3.71181e-05
1.8316e-06
-0.00254434
-4.85743e-05
-2.19071e-07
-0.00253071
-5.73427e-05
-3.30781e-06
-0.00250902
-5.64455e-05
-7.98974e-06
-0.00247338
-1.36161e-05
-0.00243027
-3.70041e-05
1.89579e-05
2.23201e-06
-0.0028342
8.01221e-06
2.9663e-06
-0.00284094
-2.96947e-06
3.23239e-06
-0.0028439
-1.42617e-05
3.09543e-06
-0.00284354
-2.611e-05
2.52041e-06
-0.00283937
-3.87098e-05
1.44106e-06
-0.00283066
-5.1682e-05
-3.46395e-07
-0.00281502
-6.29041e-05
-3.18332e-06
-0.00278953
-6.47732e-05
-7.51515e-06
-0.00274528
-1.37981e-05
-0.00268879
-4.54571e-05
1.86236e-05
1.32257e-06
-0.00311883
7.89339e-06
1.58758e-06
-0.00312613
-2.84005e-06
1.69118e-06
-0.00312946
-1.38682e-05
1.44178e-06
-0.00312919
-2.55941e-05
9.29495e-07
-0.00312475
-3.84023e-05
8.88261e-08
-0.00311533
-5.2251e-05
-1.1635e-06
-0.00309797
-6.57851e-05
-3.07597e-06
-0.00306909
-7.1064e-05
-5.94895e-06
-0.00301699
-1.0896e-05
-0.00294491
-5.40079e-05
1.77655e-05
-0.0033856
7.17148e-06
-0.00339291
-3.25668e-06
-0.00339606
-1.39673e-05
-0.00339486
-2.53399e-05
-0.00338883
-3.78713e-05
-0.00337713
-5.17053e-05
-0.00335676
-6.60173e-05
-0.00332339
-7.34303e-05
-0.00326429
-0.0031771
-5.99023e-05
3.37199e-06
2.0171e-07
-0.00083601
1.37984e-06
3.81525e-07
-0.000836668
-7.74701e-07
4.61733e-07
-0.00083686
-2.84039e-06
4.22567e-07
-0.000836779
-4.57623e-06
2.73351e-07
-0.000836471
-5.74735e-06
2.16119e-08
-0.000835969
-6.14628e-06
-3.10662e-07
-0.000835315
-5.6174e-06
-6.90517e-07
-0.000834577
-4.10643e-06
-1.06687e-06
-0.00083381
-1.37005e-06
-0.000832925
-1.75668e-06
5.43658e-06
4.4981e-07
-0.00112036
2.03073e-06
8.27876e-07
-0.00112129
-1.57781e-06
9.80267e-07
-0.00112163
-5.07153e-06
9.085e-07
-0.00112142
-8.10827e-06
6.10499e-07
-0.00112067
-1.03214e-05
9.76571e-08
-0.0011194
-1.13111e-05
-6.00985e-07
-0.00111767
-1.06833e-05
-1.42638e-06
-0.0011156
-8.12206e-06
-2.28527e-06
-0.00111331
-3.01364e-06
-0.00111104
-3.74646e-06
8.48869e-06
8.03917e-07
-0.00140345
3.40233e-06
1.35611e-06
-0.00140508
-1.90943e-06
1.57199e-06
-0.0014057
-7.0924e-06
1.46621e-06
-0.00140532
-1.1746e-05
1.01983e-06
-0.00140396
-1.53824e-05
2.3474e-07
-0.00140161
-1.73668e-05
-8.74998e-07
-0.00139829
-1.69262e-05
-2.24297e-06
-0.00139413
-1.31836e-05
-3.75296e-06
-0.00138937
-5.09223e-06
-0.00138469
-6.05467e-06
1.11055e-05
1.19571e-06
-0.00168531
4.49643e-06
1.97595e-06
-0.00168781
-2.3955e-06
2.2922e-06
-0.00168876
-9.2227e-06
2.18646e-06
-0.00168825
-1.55687e-05
1.62462e-06
-0.00168621
-2.08785e-05
5.99701e-07
-0.00168257
-2.42992e-05
-9.07351e-07
-0.00167724
-2.46158e-05
-2.84102e-06
-0.00167026
-2.00408e-05
-5.11341e-06
-0.00166183
-7.20805e-06
-0.00165345
-9.9146e-06
1.35584e-05
1.63798e-06
-0.00196977
5.6097e-06
2.55724e-06
-0.00197324
-2.61406e-06
2.94343e-06
-0.00197464
-1.08452e-05
2.83965e-06
-0.00197407
-1.87328e-05
2.19999e-06
-0.0019714
-2.57352e-05
9.97189e-07
-0.00196644
-3.08428e-05
-8.42288e-07
-0.00195881
-3.24011e-05
-3.30163e-06
-0.00194838
-2.74317e-05
-6.38294e-06
-0.00193493
-9.35752e-06
-0.00192113
-1.4271e-05
1.55728e-05
2.01362e-06
-0.00225353
6.52515e-06
3.01765e-06
-0.00225805
-2.76467e-06
3.42992e-06
-0.00225992
-1.2145e-05
3.32649e-06
-0.00225934
-2.13628e-05
2.64632e-06
-0.00225608
-2.99658e-05
1.3486e-06
-0.0022498
-3.68939e-05
-6.9804e-07
-0.00223977
-4.01482e-05
-3.54145e-06
-0.00222546
-3.54323e-05
-7.32361e-06
-0.00220576
-1.12055e-05
-0.00218476
-1.96527e-05
1.69794e-05
2.21067e-06
-0.00253826
7.21468e-06
3.15151e-06
-0.00254379
-2.75337e-06
3.53295e-06
-0.00254619
-1.28815e-05
3.40549e-06
-0.00254569
-2.30653e-05
2.73149e-06
-0.00254195
-3.29992e-05
1.44982e-06
-0.00253451
-4.16754e-05
-6.19431e-07
-0.00252212
-4.68681e-05
-3.61674e-06
-0.00250375
-4.29825e-05
-7.838e-06
-0.00247675
-1.25844e-05
-0.00244681
-2.5071e-05
1.75868e-05
1.98695e-06
-0.00282389
7.39404e-06
2.75216e-06
-0.00283034
-2.91472e-06
3.03243e-06
-0.00283309
-1.34359e-05
2.89776e-06
-0.00283251
-2.41823e-05
2.30475e-06
-0.0028282
-3.50245e-05
1.19334e-06
-0.00281956
-4.51458e-05
-6.12589e-07
-0.0028049
-5.23216e-05
-3.37681e-06
-0.00278259
-5.00172e-05
-7.35139e-06
-0.00274807
-1.26716e-05
-0.00270775
-3.09665e-05
1.74327e-05
1.20434e-06
-0.00310772
7.34497e-06
1.49101e-06
-0.00311478
-2.83388e-06
1.63289e-06
-0.00311789
-1.32174e-05
1.42483e-06
-0.00311733
-2.39827e-05
9.50772e-07
-0.00311264
-3.51687e-05
1.40752e-07
-0.00310309
-4.61718e-05
-1.09198e-06
-0.00308649
-5.51571e-05
-2.94507e-06
-0.00306054
-5.50137e-05
-5.62692e-06
-0.00301885
-9.73819e-06
-0.00296636
-3.65018e-05
1.6737e-05
-0.00337435
6.77835e-06
-0.00338146
-3.10518e-06
-0.00338455
-1.32081e-05
-0.00338333
-2.37049e-05
-0.00337738
-3.47585e-05
-0.00336594
-4.59542e-05
-0.00334666
-5.57547e-05
-0.00331654
-5.72127e-05
-0.00326846
-0.00320405
-3.99945e-05
2.27621e-06
8.88108e-08
-0.000835068
9.60079e-07
2.34055e-07
-0.000835586
-4.81891e-07
3.02596e-07
-0.00083572
-1.85869e-06
2.72119e-07
-0.000835674
-2.99426e-06
1.53728e-07
-0.000835489
-3.72662e-06
-4.43109e-08
-0.000835192
-3.92927e-06
-2.99908e-07
-0.000834813
-3.52797e-06
-5.83658e-07
-0.000834395
-2.52843e-06
-8.53895e-07
-0.000833955
-1.0665e-06
-0.000833336
-1.05156e-06
3.85615e-06
2.05958e-07
-0.0011185
1.4192e-06
5.27707e-07
-0.00111915
-1.18871e-06
6.60411e-07
-0.00111938
-3.69878e-06
6.0052e-07
-0.00111924
-5.82817e-06
3.49295e-07
-0.00111873
-7.29712e-06
-7.73333e-08
-0.0011179
-7.83751e-06
-6.44516e-07
-0.00111679
-7.23472e-06
-1.29257e-06
-0.00111549
-5.38678e-06
-1.93675e-06
-0.00111408
-2.46733e-06
-0.00111256
-2.46854e-06
6.62489e-06
4.74798e-07
-0.00140036
2.69851e-06
9.57953e-07
-0.00140158
-1.43867e-06
1.1474e-06
-0.00140205
-5.44014e-06
1.04739e-06
-0.00140177
-8.9308e-06
6.44455e-07
-0.00140077
-1.14963e-05
-4.90869e-08
-0.00139907
-1.26697e-05
-1.00071e-06
-0.00139676
-1.19793e-05
-2.13064e-06
-0.00139398
-9.03219e-06
-3.31214e-06
-0.00139094
-4.32404e-06
-0.00138788
-3.98056e-06
9.06454e-06
8.11948e-07
-0.00168102
3.70294e-06
1.53122e-06
-0.00168302
-1.9511e-06
1.82122e-06
-0.00168378
-7.50159e-06
1.71105e-06
-0.00168336
-1.25061e-05
1.17631e-06
-0.00168174
-1.64383e-05
2.25347e-07
-0.00167892
-1.86122e-05
-1.12615e-06
-0.00167494
-1.82104e-05
-2.79291e-06
-0.00167
-1.42842e-05
-4.63518e-06
-0.00166443
-6.26058e-06
-0.00165903
-6.76513e-06
1.14947e-05
1.22596e-06
-0.00196416
4.77484e-06
2.09763e-06
-0.00196709
-2.24889e-06
2.46138e-06
-0.00196826
-9.21103e-06
2.34376e-06
-0.00196774
-1.56785e-05
1.70998e-06
-0.00196547
-2.10725e-05
5.50636e-07
-0.00196137
-2.45036e-05
-1.15883e-06
-0.00195535
-2.47581e-05
-3.35302e-06
-0.00194756
-2.00616e-05
-5.92239e-06
-0.00193834
-8.28861e-06
-0.00192933
-9.84152e-06
1.35973e-05
1.61073e-06
-0.00224668
5.7009e-06
2.58586e-06
-0.00225064
-2.4847e-06
2.98256e-06
-0.00225225
-1.06713e-05
2.86122e-06
-0.00225167
-1.8474e-05
2.17068e-06
-0.00224873
-2.533e-05
8.86962e-07
-0.00224328
-3.02159e-05
-1.06382e-06
-0.00223498
-3.15501e-05
-3.6667e-06
-0.00222381
-2.65335e-05
-6.88922e-06
-0.00220981
-1.00359e-05
-0.00219577
-1.37762e-05
1.51216e-05
1.85636e-06
-0.00253029
6.40684e-06
2.79e-06
-0.00253528
-2.57109e-06
3.16701e-06
-0.00253739
-1.16088e-05
3.02667e-06
-0.00253681
-2.04295e-05
2.33616e-06
-0.0025333
-2.85489e-05
1.04899e-06
-0.00252655
-3.48834e-05
-9.59825e-07
-0.00251588
-3.75498e-05
-3.74856e-06
-0.002501
-3.26123e-05
-7.40253e-06
-0.00248117
-1.12622e-05
-0.00246066
-1.75348e-05
1.59153e-05
1.67192e-06
-0.00281483
6.67303e-06
2.4527e-06
-0.00282076
-2.75718e-06
2.73938e-06
-0.00282323
-1.23056e-05
2.60657e-06
-0.00282254
-2.17917e-05
2.00678e-06
-0.00281838
-3.08533e-05
8.92784e-07
-0.00281034
-3.8476e-05
-8.71388e-07
-0.00279737
-4.2623e-05
-3.45673e-06
-0.00277874
-3.84344e-05
-6.93276e-06
-0.00275273
-1.12229e-05
-0.00272448
-2.17453e-05
1.59317e-05
1.03538e-06
-0.00309784