/*--------------------------------*- C++ -*----------------------------------*\
| =========                 |                                                 |
| \\      /  F ield         | foam-extend: Open Source CFD                    |
|  \\    /   O peration     | Version:     4.0                                |
|   \\  /    A nd           | Web:         http://www.foam-extend.org         |
|    \\/     M anipulation  |                                                 |
\*---------------------------------------------------------------------------*/
FoamFile
{
    version     2.0;
    format      ascii;
    class       volScalarField;
    location    "750";
    object      rho;
}
// * * * * * * * * * * * * * * * * * * * * * * * * * * * * * * * * * * * * * //

dimensions      [1 -3 0 0 0 0 0];

internalField   nonuniform List<scalar> 
34480
(
1.35066
1.34992
1.34977
1.35015
1.35127
1.35346
1.3575
1.36537
1.37575
1.37975
1.3515
1.35081
1.35069
1.35106
1.35209
1.3541
1.35796
1.36578
1.37715
1.37826
1.34983
1.34916
1.3491
1.34938
1.35023
1.35192
1.35547
1.36286
1.37457
1.3703
1.34792
1.34734
1.34735
1.34763
1.34838
1.34978
1.35293
1.35961
1.37109
1.36119
1.34591
1.34535
1.34543
1.34569
1.34635
1.34749
1.35027
1.3562
1.36719
1.35217
1.3449
1.34451
1.34466
1.34497
1.34558
1.34652
1.34894
1.3541
1.36431
1.34453
1.34287
1.34248
1.34269
1.34299
1.34357
1.34436
1.34649
1.351
1.36028
1.33657
1.34315
1.34295
1.34329
1.34381
1.34461
1.3456
1.34771
1.35175
1.35984
1.3323
1.34151
1.34133
1.34166
1.34219
1.3431
1.34433
1.34654
1.35029
1.35689
1.3264
1.33881
1.33883
1.33967
1.34111
1.3432
1.34598
1.34981
1.35508
1.36188
1.32766
1.35723
1.35612
1.3557
1.35588
1.35677
1.35849
1.36128
1.36549
1.37218
1.38096
1.3577
1.35645
1.35599
1.35616
1.35708
1.35894
1.36217
1.36763
1.3776
1.392
1.35574
1.35441
1.35393
1.35402
1.35482
1.35654
1.35983
1.36593
1.37851
1.397
1.35369
1.35232
1.35179
1.35178
1.35246
1.35397
1.3571
1.36319
1.37732
1.3986
1.35166
1.35021
1.34964
1.3495
1.35002
1.35126
1.35407
1.3598
1.37478
1.39773
1.35065
1.34923
1.34862
1.34842
1.34881
1.34977
1.35221
1.35733
1.37251
1.39594
1.34866
1.34716
1.34651
1.3462
1.34645
1.34715
1.34922
1.35369
1.36862
1.39194
1.34896
1.34753
1.34689
1.34666
1.34697
1.3477
1.34962
1.3535
1.36764
1.38996
1.34733
1.34588
1.34518
1.34487
1.3451
1.34581
1.34764
1.35117
1.36394
1.38578
1.3447
1.34332
1.34296
1.34328
1.34433
1.34606
1.34892
1.35337
1.36571
1.38633
1.36171
1.36077
1.36043
1.36065
1.3615
1.36304
1.36537
1.36858
1.37264
1.37709
1.36209
1.36092
1.36051
1.36078
1.36181
1.36372
1.36671
1.37108
1.37753
1.3852
1.35998
1.35868
1.35827
1.35852
1.3596
1.36165
1.36502
1.37036
1.37941
1.39075
1.35777
1.35638
1.35591
1.35611
1.35718
1.35925
1.36284
1.36876
1.37986
1.39456
1.35563
1.35412
1.35362
1.35372
1.3547
1.35667
1.36028
1.3664
1.37907
1.39672
1.35446
1.35297
1.35241
1.35246
1.35335
1.35517
1.35869
1.36473
1.37849
1.39841
1.35234
1.35076
1.35018
1.35013
1.3509
1.35254
1.35588
1.36171
1.37615
1.3979
1.3525
1.35098
1.35039
1.35039
1.35119
1.35283
1.35611
1.36171
1.37623
1.39903
1.3508
1.34925
1.34861
1.34852
1.34919
1.3507
1.35385
1.35937
1.37336
1.39726
1.34814
1.34664
1.3462
1.34655
1.34776
1.34991
1.35366
1.35978
1.37358
1.39779
1.36476
1.36407
1.36383
1.364
1.36463
1.36572
1.36727
1.36919
1.37129
1.3731
1.3654
1.36441
1.36406
1.36431
1.36518
1.36674
1.36905
1.37207
1.37585
1.37947
1.36353
1.36232
1.36193
1.36219
1.36322
1.36508
1.36796
1.37203
1.37799
1.38427
1.36139
1.36003
1.35957
1.35982
1.36091
1.36297
1.36633
1.37132
1.37943
1.38865
1.35933
1.35781
1.3573
1.35747
1.35856
1.36067
1.36431
1.36991
1.37994
1.39211
1.35814
1.35658
1.35601
1.35614
1.35719
1.35928
1.36306
1.36902
1.38066
1.39556
1.35601
1.35434
1.35373
1.35378
1.35475
1.35676
1.36055
1.3667
1.37961
1.39709
1.35608
1.35445
1.35383
1.35391
1.35491
1.35693
1.36078
1.36702
1.38071
1.40025
1.35432
1.35266
1.35199
1.35201
1.35291
1.35484
1.35861
1.36498
1.37882
1.40047
1.35163
1.35
1.34948
1.3498
1.35108
1.35345
1.3576
1.36441
1.37826
1.40142
1.36683
1.36639
1.36623
1.36635
1.36678
1.3675
1.36847
1.36961
1.37075
1.37164
1.3678
1.36704
1.36677
1.36696
1.36764
1.36881
1.37045
1.37245
1.37467
1.37654
1.36631
1.36529
1.36495
1.36519
1.36607
1.36762
1.36988
1.37281
1.37646
1.37987
1.3644
1.36317
1.36275
1.363
1.36402
1.36587
1.36872
1.37261
1.378
1.38344
1.36254
1.3611
1.36062
1.36083
1.36191
1.36395
1.36723
1.37192
1.37905
1.38673
1.36142
1.3599
1.35935
1.35954
1.36064
1.36277
1.36636
1.37166
1.38044
1.39042
1.35935
1.35769
1.3571
1.35723
1.3583
1.36044
1.36422
1.36997
1.38022
1.39256
1.3594
1.35776
1.35713
1.35729
1.35841
1.36061
1.36456
1.37066
1.38205
1.39652
1.35762
1.35592
1.35527
1.35538
1.35645
1.35862
1.3626
1.36902
1.38102
1.39779
1.35494
1.35327
1.3527
1.35302
1.35434
1.35681
1.36106
1.36787
1.38012
1.39878
1.36827
1.36801
1.36791
1.36799
1.36826
1.3687
1.36928
1.36992
1.37051
1.37091
1.3695
1.36896
1.36877
1.36891
1.36939
1.3702
1.37129
1.37255
1.37382
1.37479
1.36846
1.36765
1.36738
1.36757
1.36827
1.36945
1.37112
1.37315
1.37539
1.37725
1.36683
1.36579
1.36542
1.36565
1.36652
1.36807
1.37033
1.37323
1.37675
1.37993
1.36525
1.36398
1.36354
1.36376
1.36475
1.36655
1.36932
1.37303
1.37793
1.38269
1.36429
1.36289
1.36238
1.36259
1.36365
1.36564
1.36882
1.37324
1.37957
1.38606
1.36234
1.36077
1.36021
1.36038
1.36147
1.36356
1.36704
1.37206
1.37976
1.38816
1.36243
1.36084
1.36025
1.36045
1.36159
1.3638
1.36754
1.37305
1.38196
1.39221
1.36066
1.359
1.35838
1.35855
1.35968
1.36192
1.36578
1.37173
1.38149
1.39389
1.35804
1.35639
1.35582
1.35613
1.35743
1.35987
1.36396
1.37026
1.38044
1.39454
1.36931
1.36919
1.36913
1.36918
1.36934
1.3696
1.36993
1.37029
1.3706
1.37078
1.37071
1.37036
1.37022
1.37032
1.37065
1.37118
1.37187
1.37264
1.37336
1.37386
1.37009
1.36949
1.36928
1.36943
1.36995
1.37081
1.37197
1.37333
1.37472
1.37577
1.36875
1.36792
1.36763
1.36781
1.36851
1.36972
1.37143
1.37352
1.37582
1.37773
1.3675
1.36642
1.36605
1.36625
1.3671
1.3686
1.37081
1.37363
1.37698
1.37996
1.36673
1.3655
1.36505
1.36526
1.36621
1.36796
1.37062
1.37414
1.37862
1.38285
1.36495
1.36353
1.36302
1.36321
1.36424
1.36615
1.36917
1.37333
1.37897
1.38462
1.36513
1.36367
1.36311
1.36333
1.36443
1.36651
1.36985
1.37455
1.38128
1.38841
1.3634
1.36185
1.36127
1.36147
1.36259
1.36473
1.36826
1.37344
1.38104
1.38994
1.36088
1.35932
1.35877
1.35906
1.3603
1.3626
1.36633
1.37184
1.3799
1.39011
1.37014
1.37009
1.37007
1.37009
1.37019
1.37034
1.37052
1.37071
1.37088
1.37094
1.37161
1.37139
1.3713
1.37136
1.37157
1.37191
1.37233
1.37279
1.37319
1.37342
1.37135
1.37092
1.37077
1.37088
1.37124
1.37184
1.37262
1.3735
1.37434
1.37492
1.37026
1.36963
1.3694
1.36955
1.37008
1.37099
1.37222
1.37367
1.37516
1.37631
1.36933
1.36847
1.36816
1.36833
1.36902
1.37021
1.37189
1.37396
1.37622
1.37812
1.36877
1.36774
1.36736
1.36755
1.36836
1.36981
1.37194
1.37463
1.37777
1.38055
1.36718
1.36595
1.36551
1.36569
1.3666
1.36826
1.37076
1.37406
1.37812
1.38195
1.36749
1.36619
1.3657
1.36591
1.36692
1.36876
1.3716
1.37543
1.3804
1.38532
1.36581
1.36441
1.36389
1.3641
1.36514
1.36709
1.37015
1.37444
1.38016
1.3864
1.36345
1.36203
1.36151
1.36178
1.36291
1.36499
1.36823
1.37282
1.37899
1.38617
1.37085
1.37085
1.37084
1.37085
1.37091
1.37099
1.37109
1.3712
1.37128
1.37128
1.37231
1.37218
1.37212
1.37216
1.37229
1.37249
1.37275
1.37301
1.37323
1.37333
1.37233
1.37204
1.37194
1.37202
1.37226
1.37266
1.37317
1.37372
1.37422
1.37452
1.37145
1.37099
1.37082
1.37093
1.37132
1.37197
1.37282
1.3738
1.37475
1.37544
1.37082
1.37015
1.36991
1.37005
1.37058
1.37148
1.37272
1.37418
1.37569
1.37688
1.37045
1.36962
1.36931
1.36947
1.37014
1.37129
1.37292
1.3749
1.37707
1.37889
1.36905
1.36803
1.36766
1.36782
1.36859
1.36996
1.37195
1.37446
1.37734
1.37991
1.3695
1.36841
1.36798
1.36818
1.36905
1.37061
1.37293
1.37593
1.37952
1.38287
1.36789
1.36667
1.36623
1.36642
1.36735
1.36903
1.37158
1.37498
1.37918
1.38345
1.36572
1.36447
1.36401
1.36426
1.36525
1.36704
1.36975
1.37342
1.378
1.38293
1.3715
1.37153
1.37153
1.37153
1.37157
1.37161
1.37167
1.37172
1.37176
1.37173
1.37289
1.37281
1.37278
1.3728
1.37288
1.373
1.37315
1.3733
1.37342
1.37344
1.37314
1.37296
1.37289
1.37294
1.3731
1.37335
1.37368
1.37402
1.37431
1.37444
1.3724
1.37208
1.37195
1.37203
1.3723
1.37275
1.37333
1.37397
1.37458
1.37498
1.37202
1.37153
1.37135
1.37145
1.37184
1.3725
1.37338
1.37439
1.37538
1.37612
1.37182
1.37119
1.37095
1.37108
1.37159
1.37247
1.37368
1.3751
1.37657
1.37774
1.3706
1.36978
1.36948
1.36962
1.37024
1.37133
1.37285
1.37471
1.3767
1.37841
1.37121
1.37032
1.36997
1.37014
1.37087
1.37213
1.37395
1.37621
1.37875
1.381
1.36965
1.36863
1.36826
1.36843
1.36922
1.37061
1.37264
1.37526
1.37826
1.38113
1.3677
1.36665
1.36626
1.36647
1.3673
1.36879
1.37097
1.3738
1.37711
1.38044
1.37214
1.37217
1.37218
1.37218
1.3722
1.37223
1.37226
1.37228
1.3723
1.37226
1.3734
1.37336
1.37334
1.37335
1.3734
1.37347
1.37356
1.37365
1.3737
1.37368
1.37384
1.37373
1.37369
1.37372
1.37382
1.37398
1.37418
1.37438
1.37455
1.37459
1.37317
1.37296
1.37287
1.37292
1.37311
1.37341
1.37379
1.37421
1.37458
1.37482
1.37301
1.37266
1.37253
1.37261
1.37289
1.37335
1.37396
1.37463
1.37528
1.37573
1.37295
1.37248
1.3723
1.3724
1.37279
1.37343
1.3743
1.37529
1.37627
1.37701
1.37187
1.37124
1.37101
1.37112
1.3716
1.37243
1.37355
1.37488
1.37624
1.37736
1.37265
1.37195
1.37167
1.37182
1.37239
1.37338
1.37476
1.37641
1.37817
1.37964
1.37112
1.3703
1.37
1.37014
1.37078
1.37189
1.37345
1.37539
1.3775
1.3794
1.36943
1.36857
1.36825
1.36842
1.3691
1.37029
1.37198
1.37409
1.37643
1.37864
1.37278
1.37282
1.37283
1.37283
1.37284
1.37285
1.37287
1.37288
1.37289
1.37283
1.37387
1.37385
1.37384
1.37385
1.37388
1.37392
1.37397
1.37402
1.37405
1.37401
1.37448
1.37441
1.37438
1.3744
1.37447
1.37457
1.37469
1.3748
1.3749
1.37489
1.37382
1.37368
1.37362
1.37366
1.37378
1.37398
1.37422
1.37449
1.37472
1.37485
1.37384
1.3736
1.37351
1.37357
1.37376
1.37408
1.37449
1.37493
1.37534
1.37561
1.37388
1.37355
1.37342
1.37349
1.37377
1.37423
1.37483
1.3755
1.37616
1.37662
1.37292
1.37245
1.37228
1.37236
1.37272
1.37333
1.37413
1.37506
1.37597
1.37669
1.37385
1.37333
1.37312
1.37323
1.37367
1.37441
1.37542
1.37659
1.37779
1.37873
1.37233
1.37169
1.37146
1.37157
1.37207
1.37291
1.37408
1.37547
1.37692
1.37816
1.37093
1.37026
1.37
1.37014
1.37067
1.37158
1.37285
1.37438
1.37599
1.37744
1.37343
1.37347
1.37348
1.37348
1.37348
1.37349
1.3735
1.37351
1.3735
1.37345
1.37431
1.37431
1.3743
1.37431
1.37432
1.37435
1.37438
1.37441
1.37442
1.37438
1.37508
1.37504
1.37502
1.37504
1.37508
1.37514
1.37521
1.37527
1.37532
1.37529
1.37439
1.3743
1.37426
1.37428
1.37436
1.37449
1.37464
1.37481
1.37496
1.37503
1.37456
1.3744
1.37434
1.37438
1.37451
1.37472
1.37498
1.37527
1.37553
1.37568
1.37466
1.37443
1.37434
1.37439
1.37459
1.3749
1.37531
1.37576
1.37618
1.37647
1.37379
1.37345
1.37332
1.37339
1.37365
1.37407
1.37464
1.37527
1.37586
1.37633
1.37487
1.3745
1.37434
1.37443
1.37475
1.37529
1.37601
1.37681
1.37762
1.3782
1.37332
1.37283
1.37266
1.37275
1.37312
1.37374
1.37458
1.37556
1.37653
1.37733
1.37224
1.37173
1.37153
1.37164
1.37204
1.37271
1.37363
1.3747
1.37579
1.37673
1.3741
1.37414
1.37415
1.37415
1.37415
1.37415
1.37416
1.37416
1.37416
1.3741
1.37473
1.37473
1.37473
1.37473
1.37474
1.37476
1.37478
1.3748
1.3748
1.37477
1.37566
1.37564
1.37563
1.37564
1.37567
1.3757
1.37574
1.37578
1.3758
1.37576
1.37489
1.37484
1.37481
1.37483
1.37488
1.37495
1.37505
1.37516
1.37525
1.37529
1.37519
1.37509
1.37505
1.37507
1.37516
1.3753
1.37547
1.37564
1.3758
1.37589
1.37532
1.37517
1.37511
1.37514
1.37527
1.37549
1.37576
1.37605
1.37632
1.37649
1.37451
1.37428
1.3742
1.37424
1.37442
1.37471
1.37509
1.37551
1.37589
1.37618
1.37575
1.37549
1.37538
1.37544
1.37567
1.37605
1.37654
1.37708
1.37761
1.37796
1.37412
1.37376
1.37364
1.3737
1.37397
1.37441
1.37499
1.37566
1.3763
1.37681
1.3734
1.37303
1.37289
1.37296
1.37325
1.37373
1.37438
1.37511
1.37583
1.37643
1.3748
1.37483
1.37484
1.37484
1.37485
1.37485
1.37485
1.37485
1.37484
1.37479
1.37511
1.37512
1.37512
1.37512
1.37513
1.37514
1.37515
1.37517
1.37517
1.37514
1.37623
1.37623
1.37623
1.37623
1.37625
1.37627
1.37629
1.37631
1.37632
1.37627
1.37535
1.37532
1.3753
1.37531
1.37534
1.37539
1.37545
1.37552
1.37557
1.3756
1.37574
1.37568
1.37566
1.37568
1.37573
1.37582
1.37592
1.37603
1.37613
1.37617
1.37588
1.37578
1.37574
1.37576
1.37585
1.37599
1.37616
1.37635
1.37652
1.37662
1.37514
1.37499
1.37493
1.37496
1.37508
1.37527
1.37552
1.37579
1.37603
1.37621
1.37651
1.37635
1.37627
1.37631
1.37647
1.37672
1.37706
1.37741
1.37775
1.37795
1.37476
1.3745
1.37442
1.37446
1.37465
1.37495
1.37534
1.37578
1.37619
1.37653
1.37447
1.37421
1.37411
1.37416
1.37436
1.3747
1.37513
1.37561
1.37608
1.37646
1.37556
1.3756
1.37561
1.37561
1.37561
1.37561
1.37561
1.3756
1.3756
1.37554
1.37545
1.37545
1.37545
1.37545
1.37545
1.37546
1.37547
1.37549
1.3755
1.37548
1.3768
1.3768
1.3768
1.37681
1.37682
1.37683
1.37684
1.37685
1.37686
1.37681
1.37577
1.37575
1.37574
1.37575
1.37577
1.3758
1.37583
1.37587
1.37591
1.37593
1.37623
1.37619
1.37618
1.37619
1.37622
1.37628
1.37634
1.37641
1.37647
1.37649
1.37635
1.37628
1.37625
1.37627
1.37632
1.37641
1.37652
1.37664
1.37676
1.37681
1.37568
1.37558
1.37555
1.37557
1.37565
1.37577
1.37593
1.3761
1.37624
1.37635
1.37718
1.37707
1.37702
1.37705
1.37715
1.37732
1.37754
1.37776
1.37799
1.37809
1.37525
1.37507
1.37502
1.37504
1.37517
1.37537
1.37563
1.37591
1.37617
1.37638
1.37552
1.37534
1.37527
1.37531
1.37544
1.37567
1.37596
1.37626
1.37656
1.3768
1.3765
1.37653
1.37654
1.37654
1.37654
1.37654
1.37654
1.37653
1.37652
1.37647
1.37568
1.37568
1.37568
1.37568
1.37568
1.37569
1.3757
1.37572
1.37573
1.37573
1.37732
1.37733
1.37732
1.37733
1.37733
1.37734
1.37735
1.37736
1.37736
1.37732
1.37615
1.37614
1.37614
1.37614
1.37615
1.37617
1.37619
1.37622
1.37624
1.37625
1.37663
1.37661
1.3766
1.3766
1.37662
1.37666
1.3767
1.37674
1.37678
1.37679
1.37671
1.37667
1.37665
1.37666
1.37669
1.37675
1.37682
1.3769
1.37697
1.377
1.37615
1.37609
1.37607
1.37608
1.37613
1.37621
1.37631
1.37641
1.37649
1.37655
1.37771
1.37764
1.3776
1.37761
1.37768
1.37779
1.37793
1.37808
1.37824
1.37828
1.37558
1.37546
1.37542
1.37544
1.37552
1.37565
1.37581
1.37599
1.37615
1.3763
1.37669
1.37657
1.37652
1.37654
1.37663
1.37678
1.37697
1.37716
1.37736
1.37749
1.37784
1.37787
1.37787
1.37787
1.37787
1.37787
1.37787
1.37786
1.37785
1.37781
1.37572
1.37571
1.37571
1.37571
1.37571
1.37572
1.37573
1.37574
1.37576
1.37578
1.37771
1.37771
1.3777
1.37769
1.37769
1.3777
1.37771
1.37772
1.37774
1.37771
1.37649
1.37649
1.37649
1.37649
1.3765
1.37651
1.37652
1.37653
1.37654
1.37655
1.37694
1.37693
1.37691
1.37691
1.37692
1.37695
1.37697
1.37701
1.37704
1.37705
1.37698
1.37695
1.37693
1.37693
1.37695
1.37699
1.37704
1.37709
1.37714
1.37717
1.37653
1.3765
1.37649
1.37649
1.37653
1.37658
1.37664
1.3767
1.37675
1.37678
1.37797
1.37791
1.37788
1.37789
1.37793
1.378
1.3781
1.3782
1.37832
1.37835
1.37565
1.37557
1.37555
1.37556
1.37561
1.3757
1.3758
1.37591
1.37601
1.37611
1.3782
1.37812
1.37809
1.3781
1.37816
1.37825
1.37838
1.3785
1.37864
1.37872
1.37981
1.37983
1.37983
1.37982
1.37982
1.37982
1.37982
1.37982
1.37982
1.3798
1.37539
1.3754
1.37541
1.37542
1.37542
1.37542
1.37542
1.37542
1.37542
1.37543
1.3778
1.37778
1.37776
1.37775
1.37775
1.37775
1.37777
1.37779
1.37782
1.37784
1.3768
1.3768
1.37681
1.37681
1.37681
1.37682
1.37683
1.37684
1.37684
1.37683
1.37717
1.37716
1.37714
1.37714
1.37715
1.37716
1.37718
1.37721
1.37724
1.37725
1.37717
1.37715
1.37713
1.37713
1.37715
1.37717
1.37721
1.37725
1.37729
1.37731
1.37685
1.37683
1.37682
1.37683
1.37685
1.37688
1.37693
1.37697
1.377
1.37702
1.37782
1.37776
1.37773
1.37773
1.37776
1.37781
1.37788
1.37796
1.37806
1.37812
1.37534
1.3753
1.37529
1.3753
1.37534
1.3754
1.37547
1.37554
1.37558
1.37563
1.38025
1.38019
1.38016
1.38017
1.38021
1.38028
1.38037
1.38046
1.38057
1.38062
1.38186
1.38184
1.38182
1.38181
1.38181
1.38182
1.38182
1.38184
1.38187
1.3819
1.37485
1.37491
1.37494
1.37496
1.37497
1.37497
1.37496
1.37493
1.37488
1.3748
1.37766
1.37762
1.37759
1.37758
1.37758
1.37758
1.37759
1.37762
1.37765
1.3777
1.3771
1.37711
1.37711
1.37711
1.37711
1.37712
1.37712
1.37713
1.37713
1.37711
1.37738
1.37736
1.37735
1.37735
1.37735
1.37737
1.37738
1.3774
1.37743
1.37744
1.37738
1.37736
1.37735
1.37735
1.37736
1.37738
1.37741
1.37744
1.37747
1.3775
1.37717
1.37715
1.37714
1.37714
1.37716
1.37719
1.37723
1.37727
1.3773
1.37732
1.37749
1.37743
1.3774
1.37741
1.37743
1.37748
1.37754
1.37761
1.37769
1.37778
1.37488
1.37487
1.37487
1.37488
1.37491
1.37496
1.37502
1.37508
1.37511
1.37508
1.38231
1.38226
1.38224
1.38225
1.38228
1.38234
1.38242
1.3825
1.38258
1.38263
1.47548
1.48111
1.47774
1.47073
1.50687
1.51267
1.5059
1.49539
1.53212
1.53725
1.52766
1.51464
1.55011
1.55412
1.54168
1.52667
1.56391
1.56652
1.55135
1.53484
1.57509
1.57623
1.56062
1.54194
1.58254
1.58203
1.56689
1.54587
1.58941
1.58715
1.57275
1.54947
1.58757
1.58342
1.56953
1.54419
1.58026
1.57509
1.56279
1.53629
1.37638
1.37609
1.37666
1.37774
1.39693
1.3983
1.39932
1.39904
1.41528
1.41798
1.41925
1.41743
1.43282
1.43673
1.43813
1.43443
1.44928
1.45403
1.4554
1.44964
1.46534
1.47062
1.47165
1.46432
1.4788
1.48436
1.485
1.47655
1.49264
1.49828
1.49862
1.48952
1.49964
1.5053
1.50549
1.49614
1.5035
1.50967
1.50988
1.50085
1.38046
1.38091
1.3811
1.38112
1.39247
1.39345
1.39375
1.39361
1.40368
1.40526
1.40568
1.40536
1.41454
1.41678
1.41731
1.41665
1.42518
1.42806
1.42862
1.42744
1.4366
1.4401
1.44066
1.43879
1.44657
1.45059
1.45109
1.44845
1.45802
1.46245
1.46287
1.45945
1.464
1.46877
1.46913
1.46485
1.46766
1.4732
1.47357
1.46827
1.3737
1.37367
1.37371
1.37382
1.38114
1.38138
1.38149
1.38151
1.38827
1.38881
1.38901
1.38899
1.39584
1.3968
1.39714
1.397
1.40349
1.40493
1.4054
1.40504
1.41216
1.41412
1.41472
1.41404
1.41974
1.42223
1.4229
1.42181
1.42923
1.4322
1.43293
1.43137
1.43404
1.43745
1.43827
1.43621
1.43681
1.44109
1.44205
1.4393
1.3722
1.37215
1.37216
1.37222
1.37732
1.37746
1.37753
1.37753
1.38169
1.382
1.38212
1.3821
1.38674
1.38726
1.38745
1.38742
1.39205
1.39284
1.39312
1.39304
1.39842
1.39954
1.39993
1.39975
1.40385
1.40531
1.40581
1.40547
1.41139
1.41321
1.41381
1.41327
1.41523
1.41741
1.41818
1.41744
1.41734
1.42031
1.42128
1.42008
1.3713
1.37121
1.37119
1.37126
1.37503
1.37507
1.37509
1.37511
1.37787
1.37797
1.37803
1.37806
1.38124
1.38146
1.38157
1.38161
1.38499
1.38538
1.38555
1.38559
1.38976
1.39036
1.39062
1.39064
1.39363
1.39446
1.39481
1.39478
1.39969
1.40077
1.40122
1.40111
1.4028
1.40415
1.40476
1.40459
1.40409
1.4061
1.40689
1.40637
1.3711
1.371
1.37098
1.37104
1.37394
1.37395
1.37396
1.37398
1.376
1.37603
1.37606
1.37608
1.37827
1.37836
1.37842
1.37847
1.38097
1.38115
1.38126
1.38132
1.38458
1.38489
1.38506
1.38512
1.38728
1.38774
1.38798
1.38805
1.39217
1.3928
1.39312
1.39317
1.39457
1.39539
1.39584
1.39588
1.39505
1.39643
1.39699
1.39672
1.37123
1.37111
1.37108
1.37115
1.37341
1.3734
1.3734
1.37342
1.37497
1.37496
1.37497
1.37499
1.37652
1.37655
1.37658
1.37662
1.37856
1.37863
1.37869
1.37875
1.38136
1.38151
1.38162
1.38169
1.38324
1.38348
1.38364
1.38372
1.38723
1.38759
1.3878
1.38789
1.38888
1.38937
1.38967
1.38975
1.38871
1.38969
1.39007
1.38988
1.37154
1.37142
1.37139
1.37146
1.37326
1.37324
1.37324
1.37325
1.37448
1.37446
1.37446
1.37448
1.3755
1.3755
1.37551
1.37554
1.37706
1.37709
1.37712
1.37716
1.37929
1.37936
1.37942
1.37948
1.38057
1.3807
1.38079
1.38087
1.38388
1.38408
1.38422
1.3843
1.38481
1.38511
1.3853
1.38537
1.38423
1.38496
1.38521
1.38503
1.37198
1.37185
1.37182
1.37188
1.37334
1.37331
1.37331
1.37333
1.37436
1.37433
1.37432
1.37434
1.37495
1.37493
1.37494
1.37497
1.37616
1.37616
1.37618
1.37621
1.37792
1.37795
1.37799
1.37804
1.37874
1.3788
1.37886
1.37892
1.38154
1.38165
1.38173
1.3818
1.3819
1.38207
1.38219
1.38225
1.38107
1.38164
1.38181
1.38162
1.37249
1.37236
1.37232
1.37239
1.37357
1.37354
1.37353
1.37355
1.37448
1.37444
1.37443
1.37445
1.37474
1.37471
1.37471
1.37474
1.3757
1.37568
1.37569
1.37572
1.37708
1.37709
1.37711
1.37715
1.37751
1.37754
1.37757
1.37762
1.37993
1.37998
1.38004
1.38009
1.37983
1.37993
1.38001
1.38005
1.3789
1.37937
1.37948
1.37929
1.37305
1.37292
1.37288
1.37295
1.37388
1.37385
1.37385
1.37387
1.37476
1.37473
1.37472
1.37474
1.37475
1.37473
1.37472
1.37475
1.37554
1.37551
1.37552
1.37555
1.37662
1.37661
1.37662
1.37666
1.37674
1.37675
1.37677
1.37681
1.37887
1.3789
1.37893
1.37897
1.3784
1.37846
1.37851
1.37854
1.37748
1.37789
1.37796
1.37778
1.37365
1.37352
1.37349
1.37355
1.37425
1.37422
1.37422
1.37424
1.37516
1.37513
1.37512
1.37514
1.37492
1.37489
1.37489
1.37492
1.3756
1.37557
1.37557
1.3756
1.37644
1.37642
1.37643
1.37646
1.37631
1.37631
1.37632
1.37635
1.37826
1.37826
1.37828
1.37831
1.37745
1.37748
1.37751
1.37754
1.37666
1.377
1.37705
1.37688
1.37429
1.37416
1.37412
1.37419
1.37464
1.37461
1.37461
1.37463
1.37564
1.37561
1.3756
1.37562
1.37519
1.37516
1.37516
1.37518
1.3758
1.37577
1.37577
1.3758
1.37644
1.37643
1.37643
1.37646
1.37614
1.37612
1.37613
1.37616
1.37797
1.37797
1.37798
1.378
1.37686
1.37687
1.37689
1.37692
1.37629
1.37659
1.37663
1.37646
1.37497
1.37483
1.3748
1.37487
1.37503
1.37501
1.375
1.37502
1.37617
1.37614
1.37614
1.37615
1.3755
1.37548
1.37548
1.3755
1.37609
1.37607
1.37607
1.37609
1.37658
1.37656
1.37657
1.37658
1.37614
1.37612
1.37613
1.37615
1.37793
1.37792
1.37793
1.37795
1.37652
1.37653
1.37654
1.37656
1.37629
1.37655
1.37658
1.37643
1.37572
1.37558
1.37555
1.37562
1.37539
1.37537
1.37536
1.37538
1.37673
1.37671
1.3767
1.37672
1.37584
1.37582
1.37582
1.37584
1.37642
1.37641
1.37641
1.37642
1.37677
1.37676
1.37676
1.37678
1.37626
1.37625
1.37625
1.37627
1.37807
1.37806
1.37806
1.37808
1.37635
1.37635
1.37636
1.37638
1.37662
1.37684
1.37686
1.37673
1.37663
1.3765
1.37647
1.37654
1.37565
1.37564
1.37564
1.37566
1.37727
1.37726
1.37726
1.37727
1.37617
1.37616
1.37616
1.37618
1.37674
1.37673
1.37673
1.37675
1.37697
1.37696
1.37697
1.37698
1.37646
1.37644
1.37644
1.37646
1.37827
1.37826
1.37826
1.37828
1.37624
1.37623
1.37624
1.37626
1.37733
1.3775
1.37751
1.37741
1.37795
1.37782
1.37779
1.37786
1.37572
1.37571
1.37571
1.37572
1.37771
1.37771
1.37771
1.37772
1.37648
1.37648
1.37648
1.37649
1.37702
1.37701
1.37701
1.37703
1.37715
1.37714
1.37715
1.37716
1.37668
1.37666
1.37666
1.37668
1.37838
1.37838
1.37838
1.37839
1.37604
1.37602
1.37603
1.37605
1.37859
1.37871
1.37872
1.37865
1.37991
1.3798
1.37978
1.37985
1.37536
1.37535
1.37536
1.37537
1.37789
1.3779
1.37791
1.37792
1.37677
1.37677
1.37677
1.37678
1.37724
1.37724
1.37724
1.37725
1.3773
1.3773
1.37731
1.37731
1.37692
1.3769
1.3769
1.37692
1.37821
1.37823
1.37824
1.37824
1.37551
1.37548
1.37549
1.37551
1.38059
1.38067
1.38068
1.38064
1.38198
1.38192
1.38192
1.38196
1.37459
1.37455
1.37454
1.37455
1.3778
1.37782
1.37784
1.37784
1.37706
1.37705
1.37705
1.37706
1.37744
1.37744
1.37745
1.37746
1.3775
1.3775
1.3775
1.37751
1.37725
1.37724
1.37724
1.37725
1.37793
1.37796
1.37797
1.37796
1.37478
1.37471
1.3747
1.37475
1.38282
1.38287
1.38287
1.38283
1.4331
1.40896
1.38819
1.37422
1.36584
1.36067
1.35725
1.35492
1.35329
1.35211
1.44476
1.41228
1.38759
1.3732
1.36519
1.3603
1.35715
1.35503
1.3536
1.35256
1.44574
1.40974
1.38274
1.36989
1.36228
1.35766
1.35465
1.35263
1.35134
1.35058
1.44201
1.40523
1.37673
1.36618
1.35907
1.35496
1.35222
1.35042
1.34926
1.34856
1.43553
1.3995
1.37121
1.36233
1.35557
1.35194
1.34945
1.34787
1.34686
1.34636
1.42742
1.3948
1.36701
1.35989
1.35338
1.3503
1.34802
1.34667
1.34578
1.34529
1.41675
1.38909
1.36174
1.35639
1.35
1.34746
1.34536
1.34421
1.34343
1.34311
1.40857
1.3866
1.35969
1.35614
1.34986
1.34781
1.34577
1.3447
1.34392
1.34346
1.39765
1.38057
1.35471
1.35323
1.34742
1.34599
1.34402
1.34304
1.34231
1.34185
1.39467
1.38072
1.3554
1.3545
1.34784
1.34575
1.34301
1.34144
1.34024
1.33928
1.38146
1.37881
1.37557
1.3723
1.36915
1.36631
1.36387
1.36183
1.36017
1.3589
1.39833
1.39064
1.38343
1.37726
1.37215
1.36812
1.36501
1.36259
1.36069
1.35925
1.41042
1.39775
1.38688
1.37839
1.37174
1.36681
1.36319
1.3605
1.3585
1.35716
1.41921
1.40207
1.38803
1.37805
1.3705
1.36519
1.36138
1.35861
1.35654
1.35514
1.42465
1.40427
1.38754
1.37662
1.36852
1.36306
1.35919
1.35643
1.35437
1.35305
1.42874
1.40624
1.3873
1.37591
1.36747
1.36206
1.3582
1.3555
1.35346
1.35207
1.42976
1.40612
1.38529
1.37378
1.36512
1.35982
1.35599
1.35336
1.35133
1.35002
1.43169
1.40792
1.38567
1.37442
1.36567
1.36054
1.35669
1.35402
1.35195
1.35045
1.42928
1.40551
1.38287
1.37253
1.36406
1.35917
1.35528
1.35258
1.35046
1.3489
1.42979
1.4066
1.38355
1.37325
1.36412
1.35863
1.35413
1.35091
1.34842
1.34637
1.38036
1.3784
1.37592
1.37339
1.37103
1.36892
1.36707
1.3655
1.36418
1.36315
1.39187
1.3875
1.38243
1.37792
1.37419
1.37115
1.36865
1.36659
1.3649
1.36358
1.40199
1.39436
1.38623
1.37954
1.37432
1.37029
1.36716
1.36471
1.3628
1.36146
1.411
1.39974
1.38871
1.3803
1.37396
1.36924
1.36567
1.36295
1.36085
1.35936
1.41867
1.40362
1.38985
1.38002
1.37279
1.3676
1.36376
1.36089
1.35869
1.3572
1.42606
1.40739
1.39113
1.38022
1.37233
1.36686
1.36286
1.35993
1.35768
1.3561
1.43104
1.40901
1.39052
1.37883
1.37043
1.3648
1.36071
1.35776
1.35547
1.35394
1.43697
1.41221
1.39195
1.37989
1.37116
1.36549
1.3613
1.35827
1.35592
1.35422
1.43802
1.41117
1.3903
1.37857
1.3699
1.36425
1.35994
1.35682
1.3544
1.35263
1.43927
1.41147
1.39026
1.37838
1.3692
1.36309
1.35834
1.35486
1.35218
1.35005
1.37376
1.37331
1.37254
1.37156
1.37048
1.36939
1.36834
1.36737
1.36652
1.36584
1.38123
1.37992
1.37807
1.37606
1.37407
1.3722
1.3705
1.369
1.3677
1.36664
1.38815
1.38531
1.38167
1.37811
1.37489
1.37209
1.36973
1.36774
1.36611
1.36491
1.3953
1.39054
1.38492
1.3798
1.37539
1.37175
1.36879
1.36639
1.36445
1.363
1.40204
1.39499
1.38723
1.38062
1.37515
1.37082
1.3674
1.3647
1.36253
1.361
1.40926
1.3997
1.38977
1.38181
1.37545
1.37059
1.36683
1.36392
1.36162
1.35994
1.41475
1.40254
1.39047
1.38135
1.37423
1.36897
1.36495
1.36191
1.35949
1.3578
1.42169
1.40698
1.39304
1.38305
1.37536
1.36981
1.36558
1.36238
1.35988
1.35801
1.4244
1.40761
1.39266
1.38233
1.37436
1.36861
1.36418
1.36086
1.35827
1.35634
1.4266
1.40822
1.39242
1.38156
1.3731
1.36699
1.36225
1.35867
1.3559
1.35369
1.37208
1.37183
1.37143
1.37092
1.37033
1.36972
1.36911
1.36853
1.36801
1.3676
1.37736
1.3768
1.37593
1.37486
1.3737
1.37254
1.37143
1.37041
1.36949
1.36872
1.38172
1.38045
1.37866
1.37668
1.37472
1.37287
1.37119
1.36971
1.36843
1.36746
1.38676
1.38453
1.38155
1.37847
1.37557
1.37297
1.3707
1.36876
1.36712
1.36584
1.39194
1.38845
1.38405
1.37978
1.37593
1.37262
1.36982
1.36749
1.36556
1.36413
1.39797
1.39296
1.387
1.38154
1.37679
1.37286
1.36963
1.36699
1.36484
1.3632
1.40275
1.39597
1.38834
1.38173
1.37616
1.37169
1.36809
1.36522
1.36288
1.36119
1.40937
1.40077
1.39155
1.38395
1.37768
1.37277
1.36885
1.36576
1.36328
1.3614
1.41261
1.40239
1.39206
1.38375
1.37696
1.37168
1.3675
1.36425
1.36165
1.3597
1.4148
1.40304
1.39169
1.38272
1.37545
1.36984
1.3654
1.36194
1.35922
1.35705
1.37115
1.37103
1.37084
1.37059
1.3703
1.36997
1.36964
1.36931
1.36902
1.36881
1.37509
1.37487
1.37446
1.37391
1.37327
1.37259
1.37191
1.37126
1.37066
1.37014
1.37798
1.37746
1.37659
1.37552
1.37435
1.37317
1.37204
1.37099
1.37006
1.36933
1.38144
1.38044
1.3789
1.37712
1.37528
1.3735
1.37185
1.37037
1.36908
1.36804
1.38527
1.38359
1.38119
1.37856
1.37597
1.37356
1.3714
1.36952
1.36789
1.36666
1.39005
1.38751
1.38408
1.38053
1.37717
1.37416
1.37154
1.3693
1.36741
1.36594
1.39381
1.3902
1.38559
1.38108
1.37696
1.37338
1.37034
1.36781
1.36568
1.3641
1.39962
1.39482
1.38902
1.38359
1.37876
1.37467
1.37126
1.36846
1.36616
1.36437
1.4027
1.39675
1.38992
1.38368
1.37823
1.37372
1.37
1.36701
1.36457
1.3627
1.40424
1.39713
1.38942
1.38255
1.37665
1.37182
1.36787
1.3647
1.36216
1.36009
1.37094
1.37088
1.37078
1.37064
1.37049
1.37031
1.37013
1.36995
1.3698
1.3697
1.37398
1.37389
1.37368
1.37339
1.37304
1.37264
1.37224
1.37184
1.37147
1.37113
1.37607
1.37583
1.37537
1.37476
1.37406
1.37331
1.37257
1.37186
1.37122
1.37071
1.37843
1.37795
1.37712
1.37606
1.37489
1.3737
1.37254
1.37146
1.3705
1.3697
1.38124
1.38041
1.37906
1.37743
1.3757
1.374
1.3724
1.37095
1.36966
1.36867
1.38496
1.38366
1.38166
1.37938
1.37705
1.37482
1.37279
1.37099
1.36942
1.36817
1.38775
1.38582
1.38305
1.38003
1.37707
1.37432
1.37187
1.36975
1.36792
1.36653
1.39265
1.38999
1.38638
1.38261
1.37902
1.37578
1.37295
1.37055
1.36853
1.36692
1.39515
1.39168
1.38724
1.38275
1.37858
1.37492
1.37179
1.36918
1.367
1.3653
1.39592
1.3917
1.3866
1.38159
1.37702
1.37307
1.36972
1.36695
1.36468
1.36279
1.37106
1.37102
1.37097
1.3709
1.37081
1.37072
1.37062
1.37053
1.37045
1.37043
1.37344
1.37343
1.37333
1.37318
1.37299
1.37277
1.37254
1.3723
1.37208
1.37187
1.37502
1.37491
1.37467
1.37432
1.3739
1.37345
1.37297
1.37251
1.37209
1.37176
1.37664
1.37641
1.37594
1.3753
1.37456
1.37377
1.37299
1.37224
1.37155
1.37097
1.37876
1.37833
1.37754
1.37651
1.37537
1.3742
1.37305
1.37198
1.37101
1.37025
1.38167
1.38098
1.37978
1.3783
1.37671
1.37511
1.37359
1.37221
1.37097
1.36996
1.38367
1.38261
1.38092
1.37891
1.37682
1.37478
1.37288
1.37119
1.36969
1.36853
1.38774
1.38624
1.38398
1.38141
1.37881
1.37634
1.3741
1.37213
1.37044
1.36905
1.38948
1.38744
1.38458
1.38146
1.37838
1.37554
1.37302
1.37085
1.36898
1.3675
1.38962
1.38713
1.38382
1.38029
1.37688
1.37379
1.37107
1.36875
1.3668
1.36514
1.37138
1.37136
1.37132
1.37129
1.37124
1.37119
1.37114
1.37109
1.37106
1.37108
1.3733
1.37331
1.37328
1.37321
1.37311
1.37299
1.37285
1.37272
1.37259
1.37246
1.37452
1.37449
1.37437
1.37417
1.37392
1.37364
1.37335
1.37306
1.37279
1.37259
1.37559
1.37548
1.37521
1.37483
1.37436
1.37386
1.37334
1.37283
1.37236
1.37195
1.37721
1.37698
1.3765
1.37585
1.37511
1.37431
1.37352
1.37276
1.37205
1.37149
1.37951
1.37912
1.37838
1.37743
1.37635
1.37523
1.37414
1.37311
1.37217
1.37139
1.38089
1.38028
1.37922
1.37789
1.37643
1.37496
1.37355
1.37225
1.37108
1.37015
1.38427
1.3834
1.38197
1.38024
1.37839
1.37658
1.37487
1.37332
1.37196
1.37082
1.38528
1.38407
1.38225
1.38012
1.37791
1.37579
1.37383
1.37209
1.37056
1.36932
1.385
1.38351
1.38139