/*--------------------------------*- C++ -*----------------------------------*\
| =========                 |                                                 |
| \\      /  F ield         | foam-extend: Open Source CFD                    |
|  \\    /   O peration     | Version:     4.0                                |
|   \\  /    A nd           | Web:         http://www.foam-extend.org         |
|    \\/     M anipulation  |                                                 |
\*---------------------------------------------------------------------------*/
FoamFile
{
    version     2.0;
    format      ascii;
    class       volScalarField;
    location    "750";
    object      T;
}
// * * * * * * * * * * * * * * * * * * * * * * * * * * * * * * * * * * * * * //

dimensions      [0 0 0 1 0 0 0];

internalField   nonuniform List<scalar> 
34480
(
279.318
279.205
279.119
279.057
279.016
278.996
278.997
279.063
279.31
279.243
278.774
278.649
278.547
278.471
278.428
278.419
278.429
278.459
278.658
278.184
278.645
278.505
278.391
278.307
278.258
278.232
278.198
278.128
278.238
277.424
278.654
278.495
278.358
278.247
278.163
278.085
277.985
277.806
277.789
276.62
278.633
278.45
278.287
278.144
278.019
277.885
277.715
277.423
277.246
275.716
278.668
278.464
278.279
278.11
277.95
277.766
277.528
277.121
276.756
274.839
278.667
278.44
278.231
278.037
277.846
277.618
277.318
276.798
276.222
273.915
278.715
278.466
278.245
278.042
277.842
277.599
277.266
276.662
275.878
273.151
278.744
278.478
278.24
278.018
277.794
277.524
277.149
276.464
275.472
272.385
279.541
279.263
279.055
278.902
278.784
278.648
278.423
277.878
276.849
273.33
279.818
279.724
279.683
279.693
279.758
279.895
280.143
280.584
281.233
282.078
279.175
279.085
279.044
279.053
279.123
279.279
279.557
280.04
280.817
281.815
278.954
278.868
278.83
278.841
278.916
279.075
279.348
279.821
280.652
281.739
278.873
278.786
278.745
278.747
278.809
278.945
279.192
279.636
280.49
281.617
278.769
278.678
278.63
278.619
278.661
278.768
278.982
279.385
280.235
281.37
278.731
278.638
278.584
278.564
278.591
278.671
278.85
279.204
280.023
281.131
278.665
278.565
278.505
278.476
278.488
278.544
278.69
278.99
279.756
280.819
278.661
278.56
278.502
278.476
278.492
278.544
278.671
278.926
279.619
280.589
278.652
278.546
278.483
278.45
278.453
278.49
278.593
278.803
279.417
280.302
279.398
279.304
279.276
279.307
279.397
279.535
279.739
280.024
280.592
281.202
280.266
280.166
280.128
280.144
280.216
280.354
280.577
280.913
281.401
282.014
279.614
279.512
279.471
279.488
279.571
279.737
280.016
280.463
281.163
282.087
279.381
279.276
279.234
279.251
279.338
279.514
279.819
280.321
281.181
282.383
279.273
279.165
279.118
279.128
279.205
279.371
279.675
280.201
281.189
282.634
279.144
279.03
278.977
278.975
279.038
279.184
279.472
279.998
281.077
282.721
279.083
278.966
278.908
278.897
278.946
279.072
279.338
279.847
280.981
282.772
278.997
278.875
278.811
278.79
278.826
278.931
279.172
279.652
280.808
282.709
278.977
278.853
278.789
278.771
278.809
278.909
279.133
279.58
280.724
282.681
278.953
278.827
278.76
278.736
278.765
278.853
279.055
279.463
280.571
282.6
279.667
279.553
279.511
279.536
279.628
279.79
280.06
280.507
281.562
283.508
280.583
280.497
280.466
280.482
280.546
280.662
280.834
281.07
281.37
281.705
279.959
279.863
279.826
279.847
279.929
280.082
280.322
280.67
281.154
281.709
279.737
279.632
279.592
279.614
279.705
279.879
280.163
280.596
281.248
282.043
279.621
279.507
279.462
279.479
279.569
279.748
280.055
280.546
281.355
282.399
279.48
279.358
279.306
279.314
279.396
279.568
279.881
280.407
281.35
282.629
279.405
279.278
279.22
279.221
279.294
279.455
279.764
280.306
281.357
282.839
279.305
279.172
279.109
279.102
279.165
279.312
279.61
280.153
281.282
282.939
279.271
279.137
279.074
279.068
279.131
279.275
279.565
280.098
281.269
283.058
279.235
279.1
279.034
279.024
279.081
279.216
279.496
280.009
281.185
283.115
279.917
279.793
279.745
279.769
279.87
280.055
280.378
280.921
282.069
284.028
280.796
280.728
280.705
280.718
280.766
280.848
280.965
281.111
281.278
281.443
280.217
280.136
280.106
280.125
280.194
280.318
280.5
280.744
281.048
281.356
280.026
279.93
279.894
279.916
279.999
280.152
280.388
280.722
281.17
281.65
279.918
279.807
279.765
279.785
279.875
280.045
280.321
280.729
281.328
282.008
279.778
279.656
279.607
279.621
279.709
279.885
280.185
280.651
281.391
282.28
279.699
279.569
279.513
279.522
279.607
279.783
280.096
280.602
281.47
282.56
279.593
279.456
279.395
279.397
279.475
279.645
279.963
280.494
281.469
282.749
279.551
279.41
279.348
279.352
279.432
279.602
279.922
280.464
281.515
282.959
279.505
279.365
279.301
279.3
279.376
279.541
279.859
280.405
281.495
283.111
280.156
280.025
279.973
279.997
280.102
280.302
280.648
281.219
282.311
284.02
280.934
280.884
280.868
280.876
280.909
280.964
281.037
281.123
281.215
281.304
280.405
280.342
280.319
280.334
280.387
280.479
280.608
280.769
280.954
281.129
280.252
280.17
280.14
280.159
280.229
280.353
280.535
280.775
281.068
281.357
280.16
280.061
280.024
280.044
280.125
280.275
280.503
280.819
281.235
281.665
280.032
279.919
279.874
279.891
279.977
280.142
280.406
280.788
281.331
281.92
279.957
279.832
279.781
279.794
279.882
280.056
280.347
280.784
281.45
282.206
279.852
279.717
279.66
279.669
279.755
279.932
280.239
280.717
281.496
282.421
279.806
279.667
279.608
279.618
279.707
279.888
280.208
280.715
281.583
282.664
279.756
279.616
279.555
279.562
279.648
279.828
280.154
280.68
281.607
282.858
280.375
280.244
280.191
280.214
280.321
280.525
280.871
281.422
282.37
283.732
281.022
280.986
280.975
280.98
281.001
281.035
281.078
281.128
281.178
281.229
280.538
280.493
280.477
280.487
280.525
280.588
280.675
280.778
280.889
280.993
280.423
280.358
280.334
280.35
280.404
280.498
280.631
280.796
280.983
281.16
280.353
280.27
280.238
280.256
280.325
280.447
280.626
280.858
281.138
281.409
280.244
280.143
280.104
280.121
280.199
280.342
280.562
280.859
281.241
281.627
280.179
280.064
280.018
280.034
280.118
280.277
280.53
280.887
281.376
281.889
280.08
279.954
279.901
279.914
280
280.169
280.448
280.854
281.447
282.096
280.035
279.903
279.848
279.862
279.953
280.131
280.429
280.874
281.556
282.338
279.982
279.848
279.791
279.803
279.894
280.074
280.384
280.857
281.605
282.531
280.573
280.446
280.394
280.417
280.521
280.719
281.045
281.544
282.323
283.351
281.079
281.052
281.044
281.048
281.06
281.08
281.105
281.133
281.161
281.194
280.634
280.603
280.591
280.599
280.624
280.666
280.721
280.786
280.853
280.919
280.551
280.503
280.485
280.497
280.537
280.605
280.697
280.807
280.926
281.037
280.503
280.437
280.412
280.426
280.481
280.575
280.709
280.874
281.059
281.231
280.415
280.331
280.298
280.313
280.379
280.497
280.67
280.893
281.155
281.406
280.363
280.264
280.224
280.239
280.314
280.452
280.661
280.94
281.289
281.633
280.274
280.161
280.115
280.129
280.209
280.362
280.601
280.931
281.368
281.815
280.235
280.115
280.066
280.081
280.167
280.332
280.595
280.967
281.483
282.036
280.181
280.058
280.007
280.021
280.109
280.279
280.557
280.962
281.541
282.206
280.745
280.627
280.578
280.6
280.698
280.881
281.174
281.603
282.217
282.963
281.115
281.095
281.089
281.091
281.098
281.11
281.124
281.14
281.156
281.179
280.704
280.683
280.675
280.68
280.696
280.723
280.758
280.797
280.839
280.883
280.648
280.614
280.601
280.609
280.637
280.684
280.746
280.818
280.893
280.965
280.618
280.567
280.548
280.559
280.6
280.671
280.766
280.88
281.001
281.112
280.551
280.483
280.457
280.47
280.523
280.616
280.746
280.907
281.085
281.248
280.513
280.431
280.398
280.411
280.475
280.589
280.754
280.964
281.208
281.437
280.435
280.338
280.299
280.313
280.384
280.514
280.71
280.968
281.283
281.587
280.406
280.3
280.258
280.273
280.351
280.495
280.717
281.016
281.396
281.779
280.353
280.243
280.198
280.213
280.294
280.447
280.685
281.017
281.451
281.917
280.889
280.785
280.741
280.761
280.849
281.012
281.264
281.618
282.086
282.61
281.139
281.122
281.118
281.119
281.123
281.13
281.138
281.147
281.156
281.175
280.757
280.743
280.738
280.741
280.751
280.768
280.789
280.812
280.839
280.871
280.723
280.699
280.69
280.695
280.714
280.746
280.786
280.832
280.879
280.928
280.706
280.668
280.654
280.662
280.692
280.742
280.809
280.885
280.963
281.036
280.657
280.605
280.585
280.595
280.636
280.706
280.802
280.915
281.033
281.14
280.634
280.568
280.541
280.553
280.604
280.694
280.82
280.974
281.141
281.292
280.567
280.486
280.454
280.467
280.526
280.633
280.787
280.982
281.205
281.409
280.548
280.46
280.424
280.438
280.505
280.626
280.805
281.037
281.31
281.572
280.497
280.402
280.364
280.378
280.449
280.58
280.776
281.037
281.356
281.675
281.007
280.917
280.879
280.897
280.973
281.112
281.321
281.602
281.949
282.307
281.154
281.14
281.137
281.138
281.14
281.144
281.148
281.153
281.159
281.175
280.798
280.789
280.786
280.788
280.794
280.804
280.817
280.831
280.848
280.873
280.781
280.765
280.759
280.763
280.775
280.795
280.821
280.85
280.879
280.915
280.772
280.746
280.736
280.741
280.762
280.797
280.842
280.892
280.942
280.991
280.741
280.702
280.687
280.695
280.725
280.776
280.843
280.921
280.999
281.068
280.729
280.678
280.658
280.667
280.706
280.774
280.867
280.977
281.09
281.19
280.672
280.608
280.582
280.592
280.64
280.724
280.841
280.985
281.139
281.276
280.666
280.594
280.565
280.577
280.632
280.73
280.869
281.043
281.236
281.412
280.614
280.536
280.505
280.517
280.577
280.684
280.84
281.039
281.266
281.482
281.099
281.025
280.992
281.008
281.072
281.186
281.353
281.568
281.818
282.058
281.164
281.151
281.15
281.15
281.151
281.153
281.155
281.158
281.162
281.176
280.832
280.826
280.824
280.825
280.829
280.835
280.842
280.851
280.862
280.883
280.829
280.818
280.815
280.817
280.825
280.838
280.854
280.871
280.89
280.916
280.824
280.805
280.798
280.802
280.816
280.839
280.869
280.901
280.933
280.966
280.806
280.778
280.767
280.773
280.794
280.83
280.877
280.929
280.979
281.025
280.803
280.765
280.75
280.757
280.787
280.837
280.903
280.979
281.055
281.12
280.754
280.704
280.685
280.693
280.73
280.793
280.88
280.982
281.087
281.178
280.761
280.705
280.682
280.692
280.736
280.811
280.916
281.042
281.176
281.293
280.708
280.645
280.62
280.631
280.679
280.763
280.882
281.029
281.189
281.332
281.166
281.108
281.082
281.094
281.146
281.236
281.364
281.525
281.701
281.858
281.17
281.158
281.157
281.157
281.158
281.159
281.16
281.162
281.165
281.178
280.86
280.856
280.855
280.855
280.858
280.861
280.866
280.871
280.879
280.896
280.87
280.863
280.861
280.863
280.868
280.875
280.885
280.895
280.907
280.927
280.864
280.851
280.846
280.848
280.858
280.873
280.892
280.913
280.933
280.956
280.858
280.838
280.831
280.834
280.849
280.874
280.905
280.939
280.971
281.001
280.862
280.834
280.823
280.828
280.85
280.885
280.931
280.983
281.032
281.075
280.818
280.781
280.766
280.772
280.799
280.846
280.908
280.979
281.05
281.11
280.838
280.795
280.778
280.786
280.819
280.876
280.953
281.042
281.132
281.209
280.781
280.732
280.713
280.721
280.758
280.822
280.911
281.016
281.126
281.22
281.213
281.168
281.148
281.157
281.198
281.267
281.362
281.478
281.599
281.699
281.173
281.162
281.161
281.161
281.161
281.162
281.163
281.164
281.166
281.178
280.884
280.881
280.88
280.88
280.882
280.884
280.886
280.89
280.895
280.91
280.907
280.902
280.901
280.902
280.905
280.91
280.916
280.922
280.929
280.943
280.895
280.886
280.883
280.884
280.89
280.9
280.912
280.925
280.938
280.954
280.899
280.885
280.88
280.883
280.893
280.909
280.929
280.951
280.972
280.991
280.907
280.888
280.88
280.884
280.898
280.923
280.954
280.988
281.02
281.048
280.866
280.84
280.829
280.834
280.853
280.886
280.929
280.977
281.024
281.063
280.901
280.87
280.857
280.863
280.888
280.928
280.982
281.044
281.104
281.154
280.835
280.799
280.785
280.791
280.819
280.865
280.929
281.002
281.076
281.137
281.241
281.209
281.193
281.201
281.231
281.282
281.351
281.431
281.513
281.575
281.173
281.163
281.163
281.162
281.163
281.163
281.163
281.164
281.165
281.177
280.903
280.901
280.9
280.9
280.901
280.902
280.904
280.906
280.91
280.922
280.941
280.938
280.938
280.938
280.94
280.943
280.946
280.95
280.954
280.964
280.92
280.914
280.911
280.912
280.916
280.922
280.93
280.938
280.946
280.957
280.932
280.923
280.92
280.922
280.928
280.939
280.952
280.965
280.978
280.991
280.942
280.929
280.924
280.926
280.936
280.952
280.973
280.995
281.016
281.034
280.904
280.885
280.878
280.881
280.894
280.917
280.945
280.977
281.007
281.034
280.952
280.931
280.922
280.926
280.943
280.972
281.009
281.05
281.089
281.121
280.875
280.848
280.838
280.843
280.862
280.895
280.939
280.989
281.037
281.077
281.256
281.233
281.222
281.228
281.249
281.285
281.333
281.388
281.442
281.479
281.173
281.164
281.164
281.164
281.164
281.164
281.164
281.165
281.166
281.175
280.917
280.915
280.914
280.914
280.915
280.916
280.917
280.918
280.921
280.931
280.974
280.972
280.972
280.972
280.973
280.975
280.977
280.978
280.98
280.988
280.939
280.935
280.933
280.934
280.936
280.94
280.945
280.95
280.955
280.963
280.959
280.953
280.951
280.952
280.956
280.963
280.971
280.979
280.987
280.995
280.969
280.96
280.956
280.958
280.964
280.975
280.988
281.002
281.016
281.028
280.932
280.919
280.914
280.917
280.926
280.94
280.959
280.98
280.999
281.016
280.996
280.981
280.975
280.978
280.99
281.009
281.034
281.06
281.086
281.106
280.901
280.882
280.875
280.878
280.892
280.914
280.944
280.976
281.007
281.034
281.261
281.247
281.239
281.242
281.257
281.282
281.315
281.351
281.385
281.407
281.178
281.17
281.17
281.17
281.17
281.17
281.17
281.17
281.171
281.18
280.924
280.922
280.921
280.921
280.921
280.922
280.923
280.924
280.926
280.934
281.004
281.003
281.003
281.003
281.004
281.005
281.006
281.007
281.008
281.012
280.954
280.951
280.95
280.95
280.952
280.954
280.957
280.96
280.963
280.968
280.979
280.975
280.974
280.974
280.977
280.981
280.986
280.991
280.996
281.002
280.988
280.981
280.979
280.98
280.984
280.991
280.999
281.008
281.017
281.025
280.953
280.945
280.942
280.943
280.949
280.959
280.97
280.983
280.995
281.006
281.031
281.021
281.017
281.019
281.026
281.039
281.055
281.072
281.089
281.102
280.914
280.901
280.896
280.898
280.907
280.922
280.941
280.962
280.982
280.999
281.266
281.257
281.251
281.254
281.264
281.28
281.302
281.324
281.347
281.359
281.201
281.195
281.194
281.194
281.194
281.194
281.194
281.194
281.195
281.201
280.919
280.916
280.915
280.915
280.916
280.916
280.917
280.918
280.92
280.926
281.03
281.028
281.028
281.028
281.029
281.029
281.03
281.031
281.031
281.034
280.965
280.963
280.962
280.963
280.963
280.965
280.966
280.968
280.97
280.973
280.993
280.99
280.989
280.989
280.991
280.993
280.996
281
281.003
281.007
280.998
280.994
280.992
280.993
280.995
280.999
281.005
281.01
281.016
281.022
280.968
280.963
280.961
280.962
280.965
280.971
280.979
280.986
280.993
281
281.053
281.046
281.043
281.044
281.049
281.057
281.068
281.079
281.09
281.099
280.911
280.902
280.899
280.9
280.906
280.916
280.928
280.941
280.953
280.965
281.283
281.277
281.273
281.275
281.282
281.292
281.306
281.321
281.336
281.341
281.259
281.255
281.255
281.254
281.254
281.254
281.254
281.254
281.255
281.259
280.891
280.889
280.889
280.89
280.89
280.89
280.89
280.891
280.892
280.897
281.042
281.04
281.039
281.039
281.039
281.039
281.04
281.041
281.043
281.045
280.973
280.972
280.971
280.972
280.972
280.973
280.974
280.975
280.976
280.978
281
280.998
280.997
280.997
280.998
280.999
281.001
281.004
281.006
281.01
281.002
280.999
280.998
280.998
281
281.002
281.006
281.01
281.014
281.018
280.977
280.973
280.972
280.973
280.975
280.979
280.984
280.989
280.993
280.997
281.052
281.047
281.044
281.045
281.048
281.053
281.06
281.068
281.077
281.084
280.883
280.878
280.876
280.877
280.881
280.888
280.895
280.903
280.91
280.917
281.33
281.326
281.323
281.324
281.328
281.335
281.344
281.354
281.365
281.368
281.347
281.344
281.344
281.343
281.343
281.343
281.344
281.344
281.346
281.349
280.839
280.84
280.842
280.843
280.844
280.843
280.843
280.842
280.84
280.84
281.037
281.034
281.032
281.031
281.031
281.031
281.033
281.034
281.037
281.041
280.98
280.98
280.98
280.98
280.98
280.981
280.981
280.982
280.982
280.982
281.004
281.002
281.001
281.001
281.002
281.003
281.005
281.006
281.008
281.011
281.004
281.002
281.001
281.001
281.002
281.004
281.007
281.009
281.012
281.016
280.984
280.982
280.981
280.981
280.983
280.986
280.989
280.993
280.995
280.998
281.029
281.024
281.022
281.022
281.025
281.029
281.034
281.04
281.047
281.055
280.833
280.831
280.83
280.831
280.834
280.838
280.844
280.849
280.852
280.854
281.399
281.395
281.393
281.394
281.397
281.402
281.409
281.416
281.424
281.427
289.677
291.416
291.682
290.122
290.82
292.929
293.342
291.714
292.436
295.038
295.578
293.643
293.676
296.719
297.393
295.25
294.592
298.047
298.863
296.58
295.312
299.146
300.128
298.034
295.847
300.044
301.221
299.441
296.311
300.835
302.219
300.807
296.522
301.349
302.95
301.952
297.078
302.099
303.968
303.546
286.463
287.005
286.99
286.478
287.738
288.379
288.326
287.689
289.292
290.094
289.993
289.154
290.681
291.628
291.469
290.439
291.817
292.903
292.679
291.465
292.803
294.028
293.792
292.425
293.586
294.939
294.714
293.211
294.263
295.721
295.516
293.902
294.685
296.206
296.027
294.346
295.454
296.951
296.879
295.249
282.631
282.764
282.798
282.733
283.362
283.582
283.626
283.496
284.487
284.828
284.877
284.635
285.7
286.16
286.206
285.836
286.814
287.389
287.423
286.91
287.907
288.595
288.616
287.968
288.865
289.661
289.669
288.896
289.776
290.663
290.662
289.785
290.505
291.431
291.428
290.5
291.721
292.576
292.612
291.761
281.875
281.941
281.962
281.943
282.149
282.237
282.269
282.25
282.828
282.98
283.026
282.975
283.658
283.883
283.939
283.841
284.455
284.759
284.82
284.659
285.306
285.691
285.753
285.518
286.091
286.556
286.617
286.3
286.898
287.434
287.489
287.092
287.618
288.184
288.235
287.784
288.927
289.42
289.483
289.077
281.445
281.481
281.494
281.483
281.507
281.539
281.556
281.556
281.936
281.998
282.026
282.022
282.508
282.612
282.654
282.638
283.066
283.221
283.275
283.236
283.699
283.91
283.974
283.904
284.294
284.564
284.635
284.524
284.94
285.265
285.339
285.18
285.538
285.89
285.961
285.765
286.755
287.034
287.111
286.952
281.271
281.3
281.309
281.298
281.203
281.22
281.229
281.229
281.493
281.524
281.539
281.54
281.901
281.953
281.979
281.977
282.296
282.378
282.414
282.408
282.766
282.882
282.93
282.914
283.205
283.36
283.418
283.388
283.701
283.895
283.96
283.908
284.164
284.378
284.443
284.371
285.25
285.394
285.463
285.433
281.185
281.211
281.219
281.207
281.037
281.047
281.052
281.051
281.236
281.254
281.262
281.262
281.537
281.566
281.58
281.58
281.827
281.872
281.894
281.893
282.186
282.252
282.283
282.28
282.515
282.604
282.644
282.638
282.897
283.011
283.059
283.046
283.238
283.366
283.417
283.395
284.201
284.26
284.312
284.338
281.146
281.172
281.179
281.167
280.953
280.96
280.964
280.962
281.089
281.101
281.106
281.104
281.311
281.33
281.338
281.336
281.527
281.554
281.567
281.565
281.807
281.846
281.865
281.863
282.056
282.11
282.135
282.134
282.353
282.422
282.453
282.45
282.597
282.674
282.709
282.705
283.457
283.465
283.5
283.546
281.131
281.157
281.164
281.151
280.913
280.92
280.922
280.92
281.007
281.016
281.02
281.017
281.17
281.183
281.188
281.185
281.329
281.347
281.355
281.351
281.548
281.573
281.584
281.581
281.735
281.769
281.785
281.783
281.969
282.011
282.031
282.03
282.142
282.189
282.212
282.212
282.916
282.892
282.914
282.964
281.128
281.154
281.161
281.148
280.9
280.907
280.909
280.906
280.965
280.973
280.975
280.972
281.082
281.093
281.096
281.092
281.199
281.212
281.217
281.213
281.369
281.387
281.393
281.39
281.508
281.53
281.54
281.537
281.692
281.72
281.732
281.73
281.812
281.842
281.856
281.856
282.511
282.471
282.483
282.532
281.129
281.156
281.163
281.149
280.902
280.909
280.91
280.907
280.948
280.956
280.957
280.953
281.03
281.039
281.041
281.037
281.115
281.126
281.129
281.124
281.247
281.26
281.264
281.259
281.345
281.361
281.367
281.363
281.493
281.511
281.519
281.516
281.571
281.59
281.6
281.599
282.205
282.155
282.162
282.208
281.133
281.16
281.167
281.153
280.911
280.918
280.919
280.915
280.947
280.954
280.955
280.951
281.001
281.009
281.01
281.006
281.063
281.072
281.074
281.069
281.164
281.174
281.177
281.172
281.23
281.242
281.246
281.242
281.351
281.364
281.369
281.366
281.394
281.408
281.414
281.412
281.97
281.917
281.92
281.963
281.136
281.163
281.17
281.156
280.924
280.93
280.931
280.927
280.955
280.962
280.963
280.959
280.987
280.994
280.995
280.99
281.033
281.041
281.042
281.037
281.111
281.119
281.12
281.116
281.15
281.159
281.162
281.158
281.252
281.262
281.265
281.262
281.266
281.276
281.28
281.277
281.789
281.736
281.737
281.777
281.138
281.166
281.172
281.158
280.936
280.942
280.943
280.939
280.97
280.975
280.976
280.972
280.981
280.987
280.988
280.984
281.018
281.024
281.025
281.021
281.077
281.084
281.085
281.081
281.096
281.103
281.105
281.101
281.187
281.195
281.197
281.194
281.174
281.182
281.184
281.181
281.649
281.598
281.598
281.634
281.138
281.166
281.173
281.159
280.946
280.952
280.953
280.949
280.987
280.992
280.992
280.988
280.98
280.985
280.986
280.982
281.013
281.018
281.018
281.015
281.058
281.063
281.064
281.06
281.06
281.066
281.067
281.064
281.148
281.154
281.155
281.152
281.108
281.114
281.116
281.113
281.54
281.493
281.493
281.525
281.139
281.167
281.174
281.159
280.952
280.957
280.958
280.955
281.006
281.01
281.01
281.007
280.982
280.986
280.986
280.983
281.014
281.018
281.018
281.015
281.047
281.052
281.052
281.049
281.038
281.042
281.043
281.04
281.128
281.133
281.134
281.131
281.06
281.066
281.067
281.064
281.457
281.415
281.414
281.443
281.146
281.174
281.179
281.165
280.952
280.956
280.956
280.954
281.026
281.029
281.029
281.026
280.983
280.986
280.986
280.984
281.016
281.019
281.02
281.017
281.041
281.045
281.045
281.043
281.024
281.028
281.028
281.026
281.12
281.125
281.126
281.123
281.023
281.028
281.028
281.025
281.398
281.363
281.362
281.385
281.171
281.197
281.202
281.188
280.94
280.943
280.943
280.942
281.043
281.045
281.045
281.044
280.984
280.986
280.986
280.985
281.019
281.021
281.021
281.02
281.036
281.039
281.04
281.038
281.015
281.018
281.018
281.016
281.116
281.12
281.121
281.119
280.986
280.99
280.99
280.987
281.37
281.343
281.343
281.361
281.235
281.258
281.261
281.248
280.906
280.908
280.909
280.908
281.052
281.053
281.054
281.053
280.985
280.986
280.986
280.985
281.02
281.021
281.022
281.021
281.03
281.033
281.034
281.032
281.008
281.011
281.011
281.009
281.102
281.106
281.107
281.105
280.933
280.937
280.937
280.934
281.388
281.371
281.372
281.383
281.335
281.35
281.352
281.343
280.845
280.845
280.845
280.845
281.048
281.05
281.05
281.051
280.986
280.987
280.987
280.987
281.019
281.021
281.021
281.021
281.026
281.028
281.028
281.027
281.005
281.006
281.007
281.005
281.074
281.079
281.08
281.078
280.858
280.86
280.859
280.857
281.445
281.441
281.441
281.443
282.613
281.355
280.824
280.484
280.194
279.956
279.767
279.617
279.496
279.393
282.792
281.585
280.764
280.245
279.833
279.528
279.301
279.13
278.999
278.892
283.343
282.065
280.95
280.319
279.825
279.481
279.228
279.038
278.892
278.776
283.896
282.552
281.172
280.479
279.923
279.559
279.289
279.085
278.929
278.801
284.324
282.957
281.333
280.591
279.978
279.596
279.31
279.096
278.931
278.796
284.832
283.398
281.552
280.777
280.107
279.711
279.405
279.179
279.001
278.85
285.272
283.753
281.709
280.912
280.189
279.781
279.457
279.218
279.028
278.869
285.803
284.206
281.975
281.162
280.383
279.959
279.607
279.346
279.13
278.942
286.219
284.564
282.153
281.361
280.544
280.112
279.725
279.437
279.196
278.987
287.923
286.265
283.698
282.851
281.907
281.351
280.842
280.452
280.13
279.848
284.355
283.077
282.11
281.412
280.93
280.591
280.345
280.16
280.016
279.896
284.819
283.069
281.762
280.919
280.374
280.001
279.734
279.539
279.395
279.287
285.388
283.236
281.676
280.764
280.179
279.787
279.51
279.31
279.165
279.061
285.837
283.384
281.633
280.7
280.09
279.695
279.418
279.221
279.08
278.978
286.065
283.401
281.523
280.583
279.954
279.562
279.29
279.1
278.966
278.871
286.228
283.433
281.463
280.536
279.893
279.51
279.243
279.06
278.929
278.834
286.245
283.383
281.34
280.444
279.791
279.423
279.162
278.986
278.86
278.768
286.277
283.414
281.315
280.462
279.798
279.445
279.183
279.007
278.875
278.773
286.209
283.375
281.227
280.45
279.799
279.474
279.206
279.023
278.883
278.772
287.098
284.413
282.267
281.539
280.839
280.458
280.123
279.886
279.702
279.563
282.508
282.139
281.778
281.457
281.181
280.948
280.755
280.595
280.46
280.343
282.985
282.317
281.709
281.205
280.798
280.474
280.219
280.019
279.863
279.743
283.727
282.73
281.878
281.22
280.712
280.325
280.031
279.807
279.638
279.512
284.451
283.135
282.053
281.272
280.687
280.261
279.945
279.711
279.536
279.407
284.981
283.386
282.107
281.231
280.59
280.141
279.815
279.578
279.404
279.278
285.453
283.621
282.173
281.23
280.549
280.087
279.758
279.521
279.348
279.22
285.77
283.743
282.151
281.167
280.458
279.994
279.665
279.432
279.26
279.134
286.066
283.895
282.185
281.183
280.455
279.995
279.665
279.431
279.255
279.122
286.241
283.954
282.144
281.161
280.44
279.997
279.664
279.425
279.243
279.103
287.208
284.916
283.068
282.105
281.354
280.875
280.498
280.223
280.011
279.856
281.903
281.76
281.587
281.411
281.244
281.092
280.958
280.84
280.735
280.639
282.132
281.846
281.518
281.205
280.927
280.689
280.489
280.323
280.188
280.079
282.734
282.255
281.751
281.302
280.922
280.61
280.358
280.155
279.995
279.871
283.423
282.715
282.018
281.437
280.966
280.595
280.304
280.076
279.9
279.765
284.008
283.059
282.175
281.476
280.929
280.513
280.195
279.953
279.767
279.629
284.586
283.4
282.338
281.54
280.931
280.483
280.147
279.895
279.704
279.56
285.044
283.633
282.408
281.53
280.874
280.404
280.058
279.801
279.607
279.462
285.489
283.878
282.51
281.576
280.884
280.403
280.048
279.787
279.587
279.436
285.827
284.028
282.537
281.579
280.874
280.394
280.033
279.766
279.561
279.404
286.85
284.95
283.4
282.432
281.699
281.192
280.801
280.508
280.283
280.121
281.492
281.447
281.378
281.296
281.21
281.124
281.043
280.967
280.895
280.825
281.529
281.412
281.255
281.086
280.921
280.767
280.629
280.507
280.403
280.316
281.961
281.752
281.488
281.22
280.969
280.746
280.553
280.391
280.256
280.148
282.514
282.176
281.781
281.403
281.067
280.779
280.539
280.342
280.183
280.057
283.02
282.528
281.99
281.503
281.086
280.742
280.465
280.242
280.066
279.929
283.564
282.902
282.216
281.626
281.137
280.747
280.439
280.197
280.007
279.861
284.027
283.189
282.356
281.673
281.122
280.697
280.366
280.111
279.912
279.76
284.501
283.488
282.517
281.757
281.158
280.706
280.359
280.093
279.886
279.726
284.885
283.697
282.602
281.791
281.162
280.696
280.337
280.063
279.849
279.685
285.9
284.592
283.426
282.582
281.922
281.432
281.051
280.758
280.531
280.366
281.313
281.296
281.264
281.224
281.178
281.131
281.083
281.037
280.99
280.94
281.216
281.158
281.077
280.983
280.886
280.791
280.7
280.617
280.543
280.479
281.514
281.411
281.268
281.11
280.951
280.801
280.664
280.544
280.439
280.353
281.93
281.759
281.536
281.3
281.072
280.865
280.682
280.525
280.392
280.285
282.326
282.068
281.748
281.426
281.128
280.865
280.641
280.453
280.298
280.174
282.783
282.421
281.994
281.583
281.216
280.903
280.641
280.427
280.253
280.114
283.189
282.708
282.167
281.67
281.238
280.881
280.59
280.355
280.166
280.018
283.625
283.017
282.361
281.785
281.3
280.908
280.592
280.341
280.14
279.982
283.986
283.242
282.48
281.844
281.318
280.903
280.57
280.308
280.099
279.936
284.946
284.101
283.269
282.59
282.031
281.592
281.241
280.963
280.744
280.584
281.223
281.216
281.202
281.182
281.158
281.132
281.105
281.078
281.048
281.012
281.042
281.009
280.964
280.911
280.854
280.796
280.739
280.685
280.635
280.592
281.246
281.188
281.108
281.016
280.918
280.82
280.728
280.643
280.567
280.502
281.554
281.461
281.333
281.188
281.04
280.897
280.765
280.647
280.544
280.457
281.853
281.712
281.523
281.317
281.113
280.922
280.75
280.6
280.473
280.367
282.22
282.019
281.758
281.484
281.221
280.982
280.773
280.594
280.444
280.321
282.551
282.277
281.935
281.589
281.268
280.985
280.743
280.539
280.371
280.235
282.92
282.564
282.136
281.722
281.348
281.027
280.757
280.533
280.35
280.202
283.223
282.775
282.266
281.794
281.379
281.029
280.739
280.502
280.309
280.155
284.106
283.587
283.018
282.503
282.054
281.682
281.373
281.123
280.921
280.772
281.183
281.18
281.173
281.163
281.15
281.136
281.121
281.105
281.085
281.059
280.952
280.929
280.902
280.87
280.836
280.801
280.766
280.732
280.7
280.67
281.091
281.054
281.006
280.95
280.89
280.828
280.767
280.71
280.657
280.61
281.316
281.26
281.184
281.095
281
280.905
280.813
280.728
280.651
280.585
281.537
281.455
281.342
281.212
281.075
280.941
280.816
280.702
280.602
280.517
281.827
281.71
281.551
281.372
281.189
281.015
280.855
280.713
280.59
280.486
282.086
281.926
281.712
281.479
281.248
281.033
280.84
280.673
280.53
280.412
282.387
282.177
281.903
281.615
281.338
281.087
280.866
280.677
280.518
280.387
282.623
282.359
282.027
281.69
281.375
281.095
280.853
280.649
280.478
280.34
283.425
283.114
282.736
282.361
282.016
281.715
281.456
281.24
281.061
280.929
281.166
281.165
281.162
281.157
281.15
281.142
281.134
281.124
281.111
281.089
280.909
280.891
280.872
280.853
280.832
280.811
280.789
280.768
280.747
280.728
281.003
280.977
280.946
280.912
280.874
280.835
280.796
280.758
280.723
280.69
281.167
281.129
281.083
281.028
280.967
280.905
280.843
280.783
280.729
280.68
281.329
281.277
281.208
281.126
281.036
280.944
280.855
280.772
280.697
280.632
281.554
281.483
281.386
281.27
281.145
281.021
280.903
280.795
280.698
280.615
281.75
281.655
281.522
281.367
281.204
281.046
280.899
280.767
280.651
280.553
281.991
281.866
281.692
281.496
281.297
281.108
280.934
280.781
280.649
280.538
282.168
282.012
281.799
281.565
281.333
281.118
280.924
280.756
280.612
280.493
282.891
282.708
282.461