/*--------------------------------*- C++ -*----------------------------------*\
| =========                 |                                                 |
| \\      /  F ield         | foam-extend: Open Source CFD                    |
|  \\    /   O peration     | Version:     4.0                                |
|   \\  /    A nd           | Web:         http://www.foam-extend.org         |
|    \\/     M anipulation  |                                                 |
\*---------------------------------------------------------------------------*/
FoamFile
{
    version     2.0;
    format      ascii;
    class       volVectorField;
    location    "750";
    object      U;
}
// * * * * * * * * * * * * * * * * * * * * * * * * * * * * * * * * * * * * * //

dimensions      [0 1 -1 0 0 0 0];

internalField   nonuniform List<vector> 
34480
(
(206.521 2.22157 3.29637)
(206.863 1.27415 1.59616)
(207.051 0.501384 -0.169128)
(207.095 -0.114219 -2.04524)
(206.992 -0.604055 -4.17225)
(206.705 -0.963082 -6.72882)
(206.155 -1.16363 -10.1168)
(205.069 -1.08096 -14.6784)
(202.493 -0.479955 -22.5749)
(195.671 2.08736 -49.7617)
(207.452 3.21132 2.88505)
(207.758 2.4166 1.10878)
(207.932 1.7097 -0.675459)
(207.955 1.08996 -2.5396)
(207.775 0.530263 -4.60263)
(207.332 0.0211416 -7.0752)
(206.593 -0.445475 -10.4169)
(205.371 -0.804393 -15.366)
(202.306 -0.889131 -24.1249)
(194.271 0.89717 -54.7393)
(208.236 2.87766 3.28249)
(208.521 2.03206 1.44717)
(208.667 1.27844 -0.412326)
(208.65 0.642751 -2.31656)
(208.415 0.0816135 -4.39554)
(207.956 -0.426809 -6.90817)
(207.28 -0.897999 -10.3813)
(206.22 -1.24911 -15.8426)
(203.008 -1.30678 -25.4594)
(193.973 0.690912 -59.053)
(208.399 3.43589 3.22387)
(208.683 2.64095 1.34045)
(208.841 1.92101 -0.547448)
(208.858 1.31726 -2.47615)
(208.687 0.786464 -4.584)
(208.347 0.306237 -7.15851)
(207.817 -0.141162 -10.7291)
(206.942 -0.459969 -16.5466)
(203.731 -0.470056 -26.7845)
(193.935 1.67773 -62.3319)
(208.73 2.90575 3.72338)
(209.039 2.03862 1.80852)
(209.229 1.26976 -0.155037)
(209.307 0.641873 -2.15633)
(209.228 0.0942666 -4.35952)
(209.026 -0.393328 -7.06416)
(208.65 -0.831116 -10.796)
(207.972 -1.11093 -16.9956)
(204.88 -1.03981 -27.9018)
(194.47 1.27092 -65.0133)
(208.775 3.58081 3.50528)
(209.092 2.73006 1.59778)
(209.3 1.97724 -0.325711)
(209.413 1.36802 -2.29619)
(209.401 0.852484 -4.47117)
(209.317 0.40717 -7.17467)
(209.096 0.0236998 -10.9161)
(208.637 -0.188409 -17.3093)
(205.805 -0.0160715 -28.7041)
(195.014 2.39341 -67.0048)
(208.992 2.73195 4.02534)
(209.345 1.7864 2.1196)
(209.581 0.959707 0.154606)
(209.734 0.287203 -1.84896)
(209.782 -0.285888 -4.07751)
(209.794 -0.774533 -6.85677)
(209.712 -1.1608 -10.6989)
(209.47 -1.31814 -17.3402)
(206.973 -0.954944 -29.3121)
(195.899 1.74359 -68.6457)
(208.934 3.48822 3.56263)
(209.29 2.52524 1.69138)
(209.508 1.71261 -0.194382)
(209.623 1.06006 -2.135)
(209.634 0.537289 -4.27982)
(209.627 0.111288 -6.95974)
(209.586 -0.189133 -10.6694)
(209.494 -0.232607 -17.2337)
(207.402 0.423834 -29.3939)
(196.367 3.47323 -69.2753)
(209.007 2.13448 4.10461)
(209.394 1.05264 2.28607)
(209.641 0.116803 0.425393)
(209.794 -0.688451 -1.49279)
(209.855 -1.39216 -3.65795)
(209.891 -1.99859 -6.37907)
(209.912 -2.42399 -10.1849)
(209.949 -2.48918 -16.8695)
(208.18 -1.45173 -29.402)
(197.042 2.53941 -69.2778)
(208.097 2.8162 3.54824)
(208.396 1.63139 1.683)
(208.39 0.694861 -0.176173)
(208.099 -0.0863402 -2.10899)
(207.555 -0.695899 -4.24688)
(206.847 -1.14576 -6.8726)
(206.059 -1.34076 -10.4529)
(205.369 -1.06311 -16.5941)
(203.565 0.446586 -28.277)
(193.672 5.29555 -66.2782)
(203.528 1.95916 3.01535)
(204.02 1.17393 1.58836)
(204.229 0.50287 0.0606344)
(204.175 -0.0333564 -1.51949)
(203.833 -0.4578 -3.21433)
(203.113 -0.770065 -5.0386)
(201.814 -0.973213 -7.0476)
(199.503 -1.07688 -9.21923)
(196.103 -1.15707 -11.1777)
(191.603 -1.04722 -14.3949)
(204.827 2.9888 2.79181)
(205.295 2.30942 1.19312)
(205.505 1.68147 -0.426783)
(205.458 1.11921 -2.09628)
(205.093 0.602591 -3.88095)
(204.288 0.126615 -5.84056)
(202.848 -0.322021 -8.06953)
(200.313 -0.77564 -10.821)
(196.186 -1.34978 -13.8803)
(190.56 -1.5746 -20.5329)
(205.86 2.72813 3.28276)
(206.311 1.95579 1.56343)
(206.512 1.24957 -0.196818)
(206.459 0.643512 -1.99578)
(206.075 0.101098 -3.90574)
(205.261 -0.388884 -6.01207)
(203.841 -0.853896 -8.50373)
(201.33 -1.30672 -11.9149)
(196.849 -1.85409 -16.1582)
(190.328 -1.75025 -26.6169)
(206.242 3.34041 3.27125)
(206.697 2.60218 1.47493)
(206.916 1.91558 -0.33838)
(206.906 1.3274 -2.19301)
(206.589 0.799952 -4.17302)
(205.885 0.323392 -6.406)
(204.591 -0.132503 -9.11638)
(202.196 -0.555552 -13.0649)
(197.519 -1.0387 -18.2766)
(190.228 -0.588325 -32.3262)
(206.745 2.83457 3.79995)
(207.224 2.01256 1.95545)
(207.478 1.26992 0.049741)
(207.532 0.655585 -1.8962)
(207.309 0.114528 -3.99807)
(206.745 -0.362708 -6.41084)
(205.609 -0.80828 -9.37345)
(203.393 -1.18841 -13.8511)
(198.664 -1.58009 -20.0115)
(190.702 -0.731601 -37.54)
(206.921 3.54354 3.60229)
(207.411 2.72906 1.75115)
(207.69 1.99588 -0.123535)
(207.788 1.39402 -2.04948)
(207.64 0.876959 -4.13684)
(207.205 0.432345 -6.5861)
(206.238 0.0327926 -9.63411)
(204.251 -0.277781 -14.4412)
(199.625 -0.542122 -21.3202)
(191.162 0.670354 -42.0463)
(207.244 2.70488 4.13164)
(207.768 1.79138 2.27536)
(208.077 0.986636 0.350154)
(208.223 0.330907 -1.61631)
(208.144 -0.225051 -3.76918)
(207.823 -0.690953 -6.32484)
(207.018 -1.07972 -9.53129)
(205.277 -1.33383 -14.6923)
(200.868 -1.41241 -22.3337)
(192.002 0.259014 -46.0717)
(207.262 3.49087 3.67573)
(207.792 2.55947 1.85219)
(208.093 1.76867 0.013621)
(208.216 1.13204 -1.88268)
(208.123 0.625121 -3.94927)
(207.823 0.21792 -6.43215)
(207.107 -0.0879533 -9.57197)
(205.582 -0.245529 -14.7856)
(201.502 -0.0363937 -22.8222)
(192.524 2.01101 -49.0493)
(207.395 2.13667 4.22112)
(207.945 1.0899 2.44599)
(208.271 0.199346 0.623651)
(208.429 -0.546252 -1.24153)
(208.391 -1.17426 -3.31651)
(208.163 -1.69609 -5.8488)
(207.563 -2.06076 -9.13657)
(206.256 -2.20302 -14.5862)
(202.51 -1.6333 -23.2652)
(193.304 1.11357 -51.3473)
(206.527 2.88319 3.63977)
(207.022 1.74325 1.85515)
(207.177 0.86393 0.08077)
(207.022 0.140856 -1.75642)
(206.56 -0.403329 -3.75892)
(205.824 -0.792183 -6.17117)
(204.701 -0.9595 -9.27542)
(202.993 -0.789608 -14.3645)
(199.383 0.253503 -22.8185)
(191.008 4.07052 -51.2094)
(201.258 1.4716 2.33878)
(201.769 0.89079 1.24209)
(201.966 0.369292 0.0307797)
(201.884 -0.0584665 -1.20596)
(201.509 -0.405079 -2.48898)
(200.792 -0.667119 -3.76531)
(199.637 -0.853583 -4.98783)
(197.892 -0.98857 -6.00917)
(195.364 -1.15693 -6.4795)
(192.167 -1.34101 -6.54169)
(202.661 2.52708 2.29957)
(203.186 2.00567 0.961477)
(203.395 1.49344 -0.407516)
(203.305 1.01417 -1.80465)
(202.877 0.558349 -3.25588)
(202.026 0.121421 -4.76516)
(200.589 -0.308586 -6.29705)
(198.286 -0.76213 -7.79064)
(194.663 -1.35016 -8.75088)
(189.793 -1.92794 -9.8173)
(203.771 2.35436 2.91612)
(204.306 1.70096 1.39949)
(204.521 1.08052 -0.170452)
(204.434 0.53107 -1.77217)
(203.99 0.0221739 -3.45092)
(203.085 -0.45517 -5.22499)
(201.518 -0.924615 -7.10534)
(198.915 -1.4131 -9.18764)
(194.433 -2.06458 -10.9147)
(187.986 -2.63421 -13.5625)
(204.291 3.04853 2.95581)
(204.845 2.40387 1.32386)
(205.084 1.7829 -0.335313)
(205.034 1.23384 -2.03406)
(204.633 0.723747 -3.83567)
(203.775 0.244308 -5.80013)
(202.208 -0.234303 -7.9743)
(199.462 -0.725825 -10.6124)
(194.277 -1.39082 -13.0898)
(186.377 -1.86011 -17.5214)
(204.923 2.58116 3.52577)
(205.507 1.83753 1.81341)
(205.779 1.14991 0.0327688)
(205.787 0.567194 -1.78839)
(205.458 0.0389337 -3.75055)
(204.695 -0.442067 -5.94616)
(203.198 -0.909665 -8.44985)
(200.426 -1.36511 -11.6815)
(194.725 -1.99386 -14.9985)
(185.544 -2.26697 -21.5166)
(205.21 3.33895 3.35366)
(205.811 2.58896 1.6137)
(206.11 1.90137 -0.156212)
(206.162 1.32511 -1.98021)
(205.898 0.81561 -3.95786)
(205.236 0.362122 -6.23227)
(203.843 -0.0679084 -8.89479)
(201.141 -0.468446 -12.5493)
(195.115 -1.0121 -16.5703)
(184.873 -1.05593 -25.2688)
(205.631 2.51783 3.90602)
(206.261 1.66289 2.14295)
(206.591 0.902654 0.305746)
(206.691 0.276433 -1.57691)
(206.491 -0.263442 -3.64285)
(205.928 -0.724002 -6.05824)
(204.655 -1.12522 -8.94451)
(202.078 -1.45252 -13.056)
(195.892 -1.84053 -17.8702)
(184.748 -1.55287 -28.8789)
(205.729 3.3417 3.45444)
(206.366 2.46763 1.72057)
(206.692 1.71981 -0.0322649)
(206.778 1.11306 -1.84834)
(206.572 0.622515 -3.83601)
(206.037 0.223493 -6.20169)
(204.846 -0.093252 -9.08227)
(202.42 -0.325185 -13.3768)
(196.256 -0.454629 -18.7106)
(184.474 0.108263 -31.792)
(205.933 1.97714 4.0062)
(206.579 0.988752 2.30925)
(206.923 0.154828 0.555548)
(207.035 -0.531846 -1.24339)
(206.87 -1.10026 -3.244)
(206.395 -1.55977 -5.65581)
(205.31 -1.87225 -8.7044)
(203.073 -2.01356 -13.3427)
(197.041 -1.75205 -19.4782)
(184.509 -0.679141 -34.1854)
(205.129 2.78563 3.39156)
(205.723 1.71993 1.71855)
(205.941 0.909542 0.0468323)
(205.82 0.251421 -1.69427)
(205.342 -0.231282 -3.59784)
(204.496 -0.559187 -5.87683)
(203.051 -0.678414 -8.75238)
(200.572 -0.508031 -13.1371)
(194.672 0.249314 -19.3802)
(182.097 2.33921 -34.6177)
(199.61 0.990552 1.69975)
(200.052 0.599272 0.923943)
(200.213 0.22436 0.0324365)
(200.129 -0.0939584 -0.863372)
(199.798 -0.361459 -1.76291)
(199.202 -0.572124 -2.58533)
(198.309 -0.737636 -3.26578)
(197.091 -0.880604 -3.67002)
(195.542 -1.0564 -3.58161)
(193.813 -1.291 -2.77925)
(200.946 2.01258 1.77355)
(201.437 1.65409 0.721628)
(201.623 1.26801 -0.365601)
(201.516 0.884236 -1.46142)
(201.094 0.504128 -2.55773)
(200.311 0.125495 -3.62467)
(199.083 -0.261374 -4.58656)
(197.298 -0.678526 -5.31597)
(194.811 -1.19459 -5.38981)
(191.945 -1.76772 -4.64136)
(202.003 1.89361 2.46806)
(202.542 1.37884 1.19928)
(202.745 0.863729 -0.130643)
(202.634 0.390031 -1.47695)
(202.168 -0.0645653 -2.85605)
(201.276 -0.507817 -4.24915)
(199.819 -0.958673 -5.59054)
(197.593 -1.44105 -6.7905)
(194.23 -2.06206 -7.26223)
(190.09 -2.76148 -6.93044)
(202.571 2.66704 2.54621)
(203.154 2.13964 1.12759)
(203.385 1.6051 -0.326041)
(203.296 1.11448 -1.80653)
(202.836 0.64282 -3.34959)
(201.917 0.181912 -4.9709)
(200.339 -0.295973 -6.62579)
(197.799 -0.811497 -8.30191)
(193.606 -1.50379 -9.23778)
(188.114 -2.26516 -9.53953)
(203.269 2.244 3.15815)
(203.894 1.60283 1.62407)
(204.159 0.98984 0.0163823)
(204.113 0.455239 -1.62066)
(203.693 -0.0436378 -3.36148)
(202.805 -0.513779 -5.25144)
(201.19 -0.987508 -7.27205)
(198.453 -1.48024 -9.51164)
(193.538 -2.18053 -11.0656)
(186.744 -2.90892 -12.3571)
(203.63 3.05624 3.01514)
(204.281 2.3942 1.42896)
(204.574 1.77048 -0.193147)
(204.566 1.23507 -1.86088)
(204.188 0.749085 -3.65119)
(203.353 0.301415 -5.65751)
(201.753 -0.143531 -7.88282)
(198.921 -0.600833 -10.5511)
(193.423 -1.26744 -12.6523)
(185.453 -1.91239 -15.1177)
(204.121 2.2626 3.59614)
(204.804 1.48773 1.96427)
(205.126 0.78774 0.253486)
(205.16 0.202788 -1.49671)
(204.832 -0.310563 -3.40353)
(204.063 -0.758991 -5.58449)
(202.512 -1.16756 -8.08064)
(199.66 -1.54458 -11.2357)
(193.719 -2.09007 -14.0201)
(184.689 -2.54747 -17.9215)
(204.288 3.13716 3.15527)
(204.978 2.33993 1.54514)
(205.3 1.64834 -0.0893254)
(205.325 1.0812 -1.7843)
(204.993 0.615045 -3.63022)
(204.241 0.229225 -5.78695)
(202.729 -0.0951657 -8.32112)
(199.916 -0.383356 -11.7182)
(193.727 -0.722778 -14.9983)
(183.837 -1.02265 -20.2848)
(204.551 1.77453 3.73693)
(205.242 0.86135 2.14939)
(205.577 0.0906186 0.49295)
(205.625 -0.537477 -1.20714)
(205.325 -1.0518 -3.08663)
(204.615 -1.4586 -5.30139)
(203.157 -1.73478 -7.99837)
(200.432 -1.88834 -11.7503)
(194.175 -1.84066 -15.8674)
(183.348 -1.77778 -22.3431)
(203.813 2.6612 3.09946)
(204.457 1.68215 1.55993)
(204.703 0.943885 0.00876908)
(204.584 0.349341 -1.61424)
(204.066 -0.0772079 -3.38549)
(203.101 -0.353719 -5.47252)
(201.402 -0.439051 -8.02135)
(198.484 -0.280969 -11.5865)
(192.245 0.259356 -15.9336)
(180.944 1.24162 -22.8237)
(198.474 0.590284 1.18806)
(198.819 0.341464 0.66974)
(198.94 0.0857968 0.0469693)
(198.874 -0.139581 -0.566637)
(198.626 -0.338471 -1.16899)
(198.199 -0.502753 -1.68054)
(197.597 -0.641643 -2.05441)
(196.842 -0.769823 -2.20108)
(195.98 -0.91394 -2.02747)
(195.125 -1.08221 -1.44875)
(199.648 1.53107 1.29192)
(200.061 1.31011 0.505704)
(200.215 1.03924 -0.31306)
(200.119 0.747849 -1.12857)
(199.764 0.445082 -1.91448)
(199.132 0.132629 -2.62772)
(198.199 -0.193503 -3.19403)
(196.951 -0.542961 -3.50491)
(195.395 -0.944697 -3.33183)
(193.812 -1.37308 -2.53843)
(200.559 1.41686 2.01436)
(201.054 1.03523 1.0014)
(201.236 0.627094 -0.0771367)
(201.125 0.234941 -1.15909)
(200.698 -0.155198 -2.23654)
(199.915 -0.547675 -3.26864)
(198.706 -0.955538 -4.17104)
(196.997 -1.39477 -4.81405)
(194.689 -1.92291 -4.80438)
(192.213 -2.50554 -3.94152)
(201.095 2.2462 2.10746)
(201.658 1.84195 0.92401)
(201.874 1.40226 -0.300955)
(201.771 0.979972 -1.53957)
(201.313 0.559831 -2.79881)
(200.44 0.136115 -4.0601)
(199.026 -0.314567 -5.24192)
(196.924 -0.810675 -6.23025)
(193.838 -1.44121 -6.44574)
(190.308 -2.15131 -5.62079)
(201.79 1.85966 2.75005)
(202.414 1.33283 1.42253)
(202.666 0.805556 0.0160359)
(202.592 0.329508 -1.40684)
(202.138 -0.127884 -2.88897)
(201.233 -0.571909 -4.43285)
(199.691 -1.03103 -5.97111)
(197.283 -1.52445 -7.43227)
(193.449 -2.19404 -8.05037)
(188.803 -2.95975 -7.54357)
(202.176 2.72202 2.63217)
(202.842 2.16286 1.2299)
(203.125 1.61514 -0.21504)
(203.077 1.13083 -1.69422)
(202.641 0.679675 -3.25407)
(201.736 0.251712 -4.93727)
(200.121 -0.188737 -6.69129)
(197.498 -0.666378 -8.52792)
(192.989 -1.34448 -9.51002)
(187.247 -2.13041 -9.4653)
(202.701 1.95906 3.24041)
(203.406 1.28038 1.76979)
(203.717 0.652347 0.214234)
(203.705 0.117443 -1.37142)
(203.299 -0.360822 -3.07437)
(202.419 -0.788415 -4.95797)
(200.779 -1.19334 -7.0042)
(198.014 -1.59621 -9.30318)
(192.924 -2.18739 -10.8136)
(186.127 -2.89556 -11.5003)
(202.913 2.89064 2.81196)
(203.629 2.18614 1.35279)
(203.945 1.56196 -0.137451)
(203.927 1.04273 -1.6823)
(203.514 0.608853 -3.34529)
(202.633 0.243309 -5.2306)
(200.978 -0.0797215 -7.34205)
(198.145 -0.401519 -9.88735)
(192.64 -0.842861 -11.7914)
(184.91 -1.49599 -13.2377)
(203.218 1.53361 3.42981)
(203.935 0.710599 1.97732)
(204.261 0.0104379 0.442924)
(204.26 -0.557105 -1.13058)
(203.87 -1.01884 -2.85318)
(203.015 -1.37849 -4.82234)
(201.372 -1.62585 -7.10582)
(198.516 -1.79041 -9.9655)
(192.774 -1.87907 -12.5989)
(184.035 -2.27728 -14.8035)
(202.539 2.51225 2.77012)
(203.213 1.63059 1.38158)
(203.479 0.968563 -0.0325588)
(203.361 0.437827 -1.51744)
(202.82 0.0646761 -3.12822)
(201.788 -0.166246 -4.98226)
(199.979 -0.226419 -7.15043)
(196.955 -0.0868967 -9.88836)
(191.11 0.28949 -12.7202)
(181.679 0.678039 -15.1132)
(197.703 0.288128 0.816978)
(197.958 0.134892 0.486516)
(198.043 -0.0341083 0.0663612)
(197.998 -0.188139 -0.336761)
(197.829 -0.331906 -0.728466)
(197.548 -0.456155 -1.04073)
(197.169 -0.566883 -1.24816)
(196.72 -0.671437 -1.29649)
(196.244 -0.780778 -1.15198)
(195.785 -0.895582 -0.791399)
(198.701 1.12748 0.891604)
(199.019 1.00882 0.327319)
(199.137 0.832113 -0.261293)
(199.061 0.621689 -0.840814)
(198.79 0.390803 -1.38008)
(198.321 0.144007 -1.83804)
(197.662 -0.117342 -2.15693)
(196.835 -0.39365 -2.26342)
(195.889 -0.690506 -2.04939)
(194.991 -0.991449 -1.44797)
(199.427 0.974911 1.60132)
(199.845 0.704699 0.823459)
(199.999 0.393388 -0.0191379)
(199.902 0.0800641 -0.857007)
(199.543 -0.242906 -1.66805)
(198.908 -0.575939 -2.40388)
(197.977 -0.925489 -2.98791)
(196.748 -1.29935 -3.31119)
(195.241 -1.72195 -3.15045)
(193.757 -2.1695 -2.36247)
(199.879 1.8286 1.6812)
(200.385 1.53791 0.729872)
(200.576 1.19133 -0.265542)
(200.475 0.840493 -1.26442)
(200.058 0.478915 -2.25235)
(199.294 0.104823 -3.19043)
(198.122 -0.298185 -3.99185)
(196.5 -0.742246 -4.52978)
(194.359 -1.2752 -4.4379)
(192.141 -1.85881 -3.45804)
(200.52 1.46154 2.33513)
(201.103 1.04788 1.22304)
(201.332 0.609597 0.0293159)
(201.245 0.197973 -1.1697)
(200.803 -0.209427 -2.38939)
(199.958 -0.614799 -3.60103)
(198.6 -1.03998 -4.71829)
(196.63 -1.50216 -5.61545)
(193.827 -2.0928 -5.76448)
(190.77 -2.76187 -4.78495)
(200.89 2.36115 2.23175)
(201.53 1.9094 1.029)
(201.793 1.44388 -0.221621)
(201.722 1.01762 -1.49539)
(201.271 0.609698 -2.80983)
(200.378 0.212976 -4.16558)
(198.883 -0.204088 -5.47976)
(196.629 -0.667174 -6.66435)
(193.18 -1.29236 -7.02462)
(189.237 -2.03304 -6.11403)
(201.414 1.62564 2.86003)
(202.105 1.05129 1.56996)
(202.398 0.502679 0.189773)
(202.352 0.024433 -1.21065)
(201.909 -0.411706 -2.68778)
(201.001 -0.809953 -4.2566)
(199.415 -1.19746 -5.85843)
(196.937 -1.60014 -7.44146)
(192.889 -2.16923 -8.18912)
(188.039 -2.89302 -7.57212)
(201.644 2.61506 2.44133)
(202.355 2.01308 1.15225)
(202.656 1.46431 -0.174182)
(202.606 0.999571 -1.54773)
(202.15 0.60451 -3.00346)
(201.217 0.266105 -4.59361)
(199.568 -0.0437245 -6.27144)
(196.938 -0.37193 -8.06598)
(192.412 -0.836298 -9.08757)
(186.706 -1.56911 -8.80122)
(201.975 1.26272 3.09661)
(202.69 0.540123 1.79831)
(203 -0.0838557 0.406031)
(202.963 -0.589182 -1.01863)
(202.518 -0.999251 -2.5586)
(201.593 -1.31531 -4.25816)
(199.919 -1.53681 -6.12302)
(197.186 -1.70306 -8.19514)
(192.331 -1.8619 -9.77294)
(185.687 -2.40436 -9.91197)
(201.346 2.34501 2.41315)
(202.021 1.56841 1.18848)
(202.293 0.985786 -0.0749986)
(202.175 0.519079 -1.40511)
(201.627 0.196942 -2.83409)
(200.578 0.00636225 -4.43185)
(198.78 -0.0352703 -6.2064)
(195.887 0.0841158 -8.2086)
(190.855 0.34073 -9.91853)
(183.503 0.446256 -10.077)
(197.178 0.0753282 0.567728)
(197.364 -0.0195614 0.364829)
(197.422 -0.130852 0.0854983)
(197.393 -0.234185 -0.172644)
(197.286 -0.336395 -0.425203)
(197.112 -0.427952 -0.616821)
(196.885 -0.512506 -0.738477)
(196.628 -0.592404 -0.757562)
(196.366 -0.670897 -0.665756)
(196.101 -0.746135 -0.461406)
(198.02 0.817548 0.581205)
(198.25 0.76765 0.188482)
(198.336 0.661655 -0.217947)
(198.281 0.516917 -0.613403)
(198.088 0.348086 -0.969729)
(197.763 0.161108 -1.25461)
(197.322 -0.0389672 -1.42865)
(196.794 -0.247427 -1.4481)
(196.224 -0.459812 -1.26689)
(195.693 -0.664583 -0.865008)
(198.563 0.597065 1.25217)
(198.893 0.410779 0.67342)
(199.015 0.17998 0.035391)
(198.937 -0.0627983 -0.59418)
(198.657 -0.321428 -1.1884)
(198.175 -0.593296 -1.70167)
(197.496 -0.879323 -2.07412)
(196.649 -1.18044 -2.23055)
(195.688 -1.50219 -2.05681)
(194.783 -1.82862 -1.48785)
(198.908 1.4458 1.29431)
(199.334 1.24988 0.554805)
(199.495 0.98743 -0.226805)
(199.405 0.705721 -1.00542)
(199.053 0.404765 -1.75484)
(198.427 0.0866059 -2.42914)
(197.511 -0.257507 -2.95219)
(196.319 -0.632159 -3.22014)
(194.881 -1.05721 -3.02553)
(193.486 -1.50559 -2.21254)
(199.459 1.07839 1.93862)
(199.974 0.766879 1.03476)
(200.174 0.414162 0.0506682)
(200.087 0.0684418 -0.930751)
(199.688 -0.284025 -1.90548)
(198.952 -0.641952 -2.82812)
(197.827 -1.01945 -3.61308)
(196.296 -1.42819 -4.13593)
(194.324 -1.91959 -4.07106)
(192.332 -2.45688 -3.14114)
(199.783 1.99733 1.83605)
(200.367 1.64834 0.834779)
(200.603 1.26547 -0.216539)
(200.523 0.900739 -1.28167)
(200.093 0.541857 -2.35565)
(199.274 0.185211 -3.41137)
(197.974 -0.193603 -4.35683)
(196.138 -0.615428 -5.07329)
(193.61 -1.15296 -5.1012)
(190.951 -1.77881 -4.05557)
(200.279 1.28144 2.47348)
(200.926 0.811636 1.372)
(201.192 0.345228 0.177714)
(201.128 -0.0723394 -1.02785)
(200.686 -0.461076 -2.27463)
(199.817 -0.822723 -3.5424)
(198.383 -1.18044 -4.75206)
(196.283 -1.55925 -5.78671)
(193.207 -2.06673 -6.08326)
(189.826 -2.70427 -5.09509)
(200.503 2.32487 2.05884)
(201.178 1.82845 0.949968)
(201.457 1.35923 -0.200632)
(201.387 0.953284 -1.3904)
(200.923 0.601873 -2.62869)
(200.009 0.295964 -3.92712)
(198.474 0.00912721 -5.20831)
(196.172 -0.301723 -6.40119)
(192.631 -0.73391 -6.85622)
(188.539 -1.40553 -5.93978)
(200.844 0.972528 2.75022)
(201.53 0.354914 1.61747)
(201.818 -0.189853 0.381124)
(201.757 -0.632309 -0.879781)
(201.294 -0.991732 -2.22294)
(200.368 -1.26706 -3.65001)
(198.778 -1.46402 -5.12565)
(196.328 -1.62294 -6.56589)
(192.434 -1.80166 -7.42288)
(187.561 -2.31939 -6.70301)
(200.251 2.16757 2.03978)
(200.902 1.49977 0.9859)
(201.168 0.998168 -0.117545)
(201.052 0.595189 -1.28141)
(200.517 0.321721 -2.51605)
(199.501 0.166757 -3.85171)
(197.81 0.138599 -5.2507)
(195.205 0.238099 -6.64639)
(191.098 0.408966 -7.56984)
(185.617 0.401378 -6.78221)
(196.81 -0.0689677 0.409355)
(196.948 -0.130473 0.28934)
(196.987 -0.205712 0.102445)
(196.97 -0.274969 -0.0612852)
(196.905 -0.347353 -0.226105)
(196.802 -0.413617 -0.346838)
(196.67 -0.47625 -0.424649)
(196.525 -0.534927 -0.438628)
(196.378 -0.589725 -0.389795)
(196.208 -0.638592 -0.28048)
(197.53 0.597084 0.351719)
(197.689 0.5899 0.0844915)
(197.748 0.533694 -0.186118)
(197.711 0.439121 -0.446019)
(197.581 0.320673 -0.673127)
(197.366 0.184436 -0.844829)
(197.083 0.037339 -0.936368)
(196.754 -0.114012 -0.923233)
(196.409 -0.262259 -0.787852)
(196.073 -0.400431 -0.526291)
(197.91 0.294206 0.973474)
(198.157 0.165907 0.553383)
(198.248 -0.00224423 0.0821171)
(198.19 -0.185669 -0.380009)
(197.984 -0.386639 -0.807383)
(197.636 -0.600957 -1.1624)
(197.163 -0.826166 -1.40205)
(196.597 -1.05869 -1.47945)
(195.989 -1.2952 -1.3391)
(195.419 -1.5261 -0.95971)
(198.15 1.11725 0.961809)
(198.489 0.994099 0.404237)
(198.618 0.802712 -0.189839)
(198.545 0.583828 -0.777606)
(198.265 0.34141 -1.32919)
(197.779 0.0801867 -1.80084)
(197.096 -0.202153 -2.13293)
(196.25 -0.504169 -2.25114)
(195.301 -0.829075 -2.04626)
(194.417 -1.15855 -1.44127)
(198.596 0.732248 1.57892)
(199.028 0.506137 0.864396)
(199.195 0.230617 0.0751793)
(199.117 -0.051648 -0.706565)
(198.779 -0.347841 -1.46572)
(198.173 -0.653733 -2.15243)
(197.285 -0.976473 -2.69262)
(196.141 -1.3214 -2.98546)
(194.787 -1.71248 -2.84356)
(193.493 -2.12161 -2.10603)
(198.855 1.65134 1.46407)
(199.364 1.39359 0.654554)
(199.567 1.08881 -0.203565)
(199.488 0.785649 -1.06845)
(199.104 0.478761 -1.9205)
(198.396 0.167924 -2.71882)
(197.322 -0.163271 -3.37694)
(195.888 -0.528498 -3.78306)
(194.087 -0.966326 -3.65227)
(192.31 -1.46058 -2.73685)
(199.306 0.945199 2.09834)
(199.884 0.573243 1.18265)
(200.119 0.187302 0.175048)
(200.048 -0.168435 -0.836573)
(199.636 -0.506645 -1.86206)
(198.853 -0.826429 -2.86038)
(197.624 -1.14545 -3.74895)
(195.921 -1.48374 -4.39646)
(193.658 -1.91087 -4.44303)
(191.336 -2.42787 -3.48035)
(199.501 2.03532 1.6805)
(200.116 1.641 0.752576)
(200.368 1.25144 -0.218476)
(200.289 0.906027 -1.2211)
(199.847 0.601186 -2.2443)
(199.002 0.331552 -3.27247)
(197.65 0.0747134 -4.21634)
(195.729 -0.203806 -4.96631)
(193.055 -0.574016 -5.07549)
(190.178 -1.12367 -4.04836)
(199.841 0.674982 2.40489)
(200.474 0.161144 1.44063)
(200.735 -0.304385 0.366832)
(200.661 -0.684737 -0.723604)
(200.211 -0.994969 -1.86713)
(199.338 -1.23199 -3.03545)
(197.91 -1.4048 -4.17124)
(195.821 -1.54998 -5.1374)
(192.816 -1.71968 -5.5372)
(189.341 -2.14463 -4.57665)
(199.27 1.98945 1.66258)
(199.875 1.4299 0.779822)
(200.124 1.00883 -0.15954)
(200.013 0.668313 -1.15191)
(199.512 0.440877 -2.18895)
(198.57 0.317175 -3.27149)
(197.053 0.298732 -4.33377)
(194.818 0.379916 -5.25903)
(191.599 0.490047 -5.66374)
(187.657 0.448683 -4.5954)
(196.539 -0.166147 0.313722)
(196.646 -0.209462 0.245886)
(196.672 -0.263325 0.117043)
(196.663 -0.310643 0.0121914)
(196.625 -0.362498 -0.0992137)
(196.566 -0.410204 -0.179278)
(196.49 -0.455833 -0.234843)
(196.409 -0.497993 -0.251106)
(196.325 -0.535734 -0.232018)
(196.202 -0.567504 -0.179189)
(197.171 0.452398 0.186672)
(197.277 0.470123 0.00761988)
(197.316 0.447296 -0.166207)
(197.292 0.389269 -0.330466)
(197.208 0.309712 -0.469455)
(197.072 0.214179 -0.568644)
(196.895 0.109836 -0.613412)
(196.694 0.00334822 -0.590339)
(196.482 -0.0981776 -0.49424)
(196.255 -0.191027 -0.324437)
(197.416 0.0642236 0.760818)
(197.593 -0.0269062 0.461296)
(197.658 -0.148831 0.119319)
(197.617 -0.284819 -0.214599)
(197.472 -0.436925 -0.518955)
(197.232 -0.600723 -0.765364)
(196.914 -0.77223 -0.924588)
(196.546 -0.945796 -0.969488)
(196.162 -1.11517 -0.873352)
(195.789 -1.2754 -0.635081)
(197.566 0.85098 0.688348)
(197.825 0.779806 0.279701)
(197.924 0.64517 -0.15795)
(197.868 0.480435 -0.588206)
(197.656 0.291387 -0.982817)
(197.296 0.0841008 -1.30501)
(196.806 -0.139314 -1.51146)
(196.223 -0.373931 -1.55325)
(195.604 -0.614843 -1.37613)
(195.035 -0.849939 -0.947686)
(197.908 0.43701 1.26665)
(198.254 0.277755 0.715776)
(198.388 0.0682209 0.0988837)
(198.323 -0.156075 -0.508385)
(198.051 -0.397909 -1.0864)
(197.575 -0.651114 -1.58879)
(196.903 -0.917745 -1.95693)
(196.075 -1.19778 -2.11802)
(195.16 -1.49904 -1.96891)
(194.319 -1.79884 -1.43018)
(198.095 1.33872 1.1298)
(198.519 1.15681 0.493819)
(198.688 0.921856 -0.186121)
(198.616 0.67719 -0.868046)
(198.292 0.422389 -1.52494)
(197.709 0.1599 -2.11268)
(196.859 -0.119402 -2.55801)
(195.777 -0.422598 -2.77186)
(194.52 -0.765063 -2.58397)
(193.341 -1.13658 -1.86309)
(198.491 0.633011 1.74924)
(198.989 0.347337 1.00753)
(199.189 0.0363289 0.178575)
(199.119 -0.259238 -0.649166)
(198.756 -0.546151 -1.47218)
(198.086 -0.821186 -2.24083)
(197.078 -1.0965 -2.87989)
(195.748 -1.38572 -3.27148)
(194.121 -1.73014 -3.198)
(192.545 -2.12553 -2.39725)
(198.641 1.76057 1.32097)
(199.181 1.45959 0.566221)
(199.399 1.14607 -0.229684)
(199.32 0.860307 -1.05049)
(198.921 0.60292 -1.87112)
(198.18 0.371629 -2.66109)
(197.042 0.149129 -3.3327)
(195.502 -0.0898148 -3.77694)
(193.536 -0.390401 -3.69616)
(191.548 -0.808708 -2.77403)
(198.973 0.381856 2.07449)
(199.538 -0.0345833 1.27363)
(199.767 -0.423882 0.36157)
(199.69 -0.744553 -0.559897)
(199.274 -1.00777 -1.51105)
(198.493 -1.20879 -2.44591)
(197.269 -1.35771 -3.29988)
(195.562 -1.48501 -3.92886)
(193.311 -1.63231 -4.06318)
(190.889 -1.95482 -3.1507)
(198.414 1.82055 1.29399)
(198.953 1.36461 0.57623)
(199.179 1.02127 -0.200802)
(199.077 0.7407 -1.02304)
(198.624 0.556171 -1.86791)
(197.786 0.459661 -2.71744)
(196.482 0.448196 -3.49301)
(194.643 0.513345 -4.07169)
(192.2 0.581063 -4.15838)
(189.446 0.539346 -3.12079)
(196.327 -0.234177 0.259583)
(196.414 -0.267853 0.223851)
(196.433 -0.309635 0.130152)
(196.428 -0.343327 0.0607009)
(196.406 -0.381552 -0.0190766)
(196.373 -0.416256 -0.0763871)
(196.33 -0.44946 -0.120807)
(196.285 -0.479541 -0.140848)
(196.234 -0.505416 -0.14108)
(196.137 -0.526066 -0.121657)
(196.899 0.367184 0.0685178)
(196.968 0.398863 -0.0501511)
(196.993 0.397677 -0.157128)
(196.978 0.365371 -0.255803)
(196.925 0.314635 -0.335958)
(196.841 0.250292 -0.388879)
(196.733 0.178693 -0.406432)
(196.612 0.105716 -0.381103)
(196.478 0.0370914 -0.312832)
(196.312 -0.0254657 -0.199356)
(197.037 -0.102382 0.604407)
(197.159 -0.171257 0.393)
(197.204 -0.260473 0.147152)
(197.176 -0.360162 -0.0925274)
(197.078 -0.472805 -0.309241)
(196.918 -0.594716 -0.482853)
(196.711 -0.721538 -0.594203)
(196.476 -0.847364 -0.62852)
(196.234 -0.965967 -0.572154)
(195.979 -1.07566 -0.43161)
(197.12 0.646247 0.471292)
(197.311 0.609858 0.179861)
(197.383 0.51844 -0.13281)
(197.342 0.398285 -0.438331)
(197.189 0.255516 -0.712833)
(196.932 0.0965098 -0.92785)
(196.591 -0.0743655 -1.05359)
(196.2 -0.250782 -1.05961)
(195.8 -0.425099 -0.920738)
(195.427 -0.589861 -0.624998)
(197.365 0.19887 1.0054)
(197.632 0.0890742 0.589985)
(197.735 -0.0666023 0.118934)
(197.684 -0.240351 -0.342277)
(197.475 -0.432318 -0.773849)
(197.116 -0.635525 -1.13691)
(196.625 -0.848924 -1.38779)
(196.043 -1.06886 -1.47828)
(195.434 -1.29524 -1.35329)
(194.885 -1.50931 -0.980354)
(197.484 1.06883 0.841658)
(197.823 0.946202 0.355929)
(197.958 0.770681 -0.166942)
(197.898 0.579003 -0.688961)
(197.636 0.373781 -1.18127)
(197.176 0.159138 -1.60308)
(196.529 -0.0682036 -1.89677)
(195.738 -0.310639 -1.99865)
(194.874 -0.570048 -1.80894)
(194.096 -0.839953 -1.27284)
(197.825 0.35698 1.43656)
(198.237 0.143459 0.850578)
(198.401 -0.100855 0.185237)
(198.339 -0.340337 -0.475653)
(198.034 -0.577479 -1.12109)
(197.486 -0.807371 -1.70148)
(196.691 -1.03762 -2.15415)
(195.686 -1.27572 -2.38566)
(194.539 -1.54489 -2.2713)
(193.479 -1.83512 -1.65638)
(197.92 1.51218 0.992104)
(198.374 1.29218 0.395989)
(198.558 1.04806 -0.236244)
(198.485 0.818675 -0.88786)
(198.142 0.607623 -1.52587)
(197.52 0.414951 -2.11443)
(196.6 0.228653 -2.5754)
(195.408 0.0313742 -2.81945)
(193.995 -0.203861 -2.65152)
(192.641 -0.509026 -1.90327)
(198.241 0.103366 1.77106)
(198.727 -0.226013 1.12173)
(198.921 -0.54479 0.363737)
(198.848 -0.809858 -0.397642)
(198.484 -1.02911 -1.17167)
(197.816 -1.19664 -1.90499)
(196.808 -1.32233 -2.53561)
(195.464 -1.42966 -2.93639)
(193.819 -1.54989 -2.93542)
(192.164 -1.7836 -2.18016)
(197.683 1.67028 0.945071)
(198.147 1.30987 0.380518)
(198.343 1.03921 -0.241554)
(198.252 0.814783 -0.901242)
(197.859 0.669488 -1.5667)
(197.143 0.59636 -2.21043)
(196.064 0.589921 -2.75244)
(194.605 0.641518 -3.08749)
(192.801 0.679923 -2.99739)
(190.926 0.649622 -2.1123)
(196.151 -0.286702 0.23285)
(196.226 -0.315303 0.216381)
(196.24 -0.350673 0.143122)
(196.238 -0.376234 0.0940434)
(196.226 -0.405724 0.0324174)
(196.207 -0.43169 -0.0127882)
(196.183 -0.456211 -0.0520427)
(196.157 -0.477793 -0.0758389)
(196.126 -0.495541 -0.0886708)
(196.043 -0.508815 -0.0894717)
(196.683 0.326589 -0.0179207)
(196.728 0.366059 -0.0956679)
(196.744 0.37867 -0.157251)
(196.735 0.364084 -0.211527)
(196.703 0.334096 -0.252626)
(196.652 0.292758 -0.275617)
(196.587 0.245232 -0.276367)
(196.513 0.196333 -0.25038)
(196.428 0.150261 -0.199742)
(196.298 0.107754 -0.119505)
(196.737 -0.218192 0.492968)
(196.82 -0.274498 0.343778)
(196.848 -0.341289 0.166923)
(196.83 -0.414213 -0.00586618)
(196.766 -0.496338 -0.16192)
(196.663 -0.585124 -0.287612)
(196.531 -0.676505 -0.370661)
(196.384 -0.765307 -0.403549)
(196.232 -0.846455 -0.377985)
(196.051 -0.920292 -0.303154)
(196.78 0.496633 0.303741)
(196.915 0.482112 0.101661)
(196.967 0.42231 -0.114778)
(196.938 0.337431 -0.324948)
(196.831 0.233048 -0.510271)
(196.654 0.115173 -0.64995)
(196.424 -0.0112779 -0.724335)
(196.166 -0.139928 -0.715121)
(195.91 -0.263181 -0.611907)
(195.661 -0.377 -0.41009)
(196.94 0.0178827 0.793306)
(197.139 -0.0570325 0.485867)