/*--------------------------------*- C++ -*----------------------------------*\
| =========                 |                                                 |
| \\      /  F ield         | foam-extend: Open Source CFD                    |
|  \\    /   O peration     | Version:     4.0                                |
|   \\  /    A nd           | Web:         http://www.foam-extend.org         |
|    \\/     M anipulation  |                                                 |
\*---------------------------------------------------------------------------*/
FoamFile
{
    version     2.0;
    format      ascii;
    class       volScalarField;
    location    "4600";
    object      alphat;
}
// * * * * * * * * * * * * * * * * * * * * * * * * * * * * * * * * * * * * * //

dimensions      [1 -1 -1 0 0 0 0];

internalField   nonuniform List<scalar> 
34480
(
0.00190197
0.00189972
0.00189862
0.00189898
0.00190181
0.00190938
0.00192657
0.00195851
0.0020052
0.00212232
0.0178337
0.016358
0.0137603
0.00989713
0.00582539
0.00306441
0.00187951
0.0016975
0.00200296
0.00236916
0.0516386
0.0468943
0.039418
0.0290428
0.0174482
0.00838169
0.00387532
0.00255405
0.00265255
0.0030488
0.0641721
0.0592638
0.0513521
0.0397061
0.0252859
0.0124172
0.00528353
0.00299336
0.00293643
0.0033942
0.0695239
0.0652674
0.0580849
0.046699
0.0311921
0.0158148
0.00650174
0.00334442
0.00316816
0.00370125
0.0714134
0.0679572
0.0616423
0.0507828
0.0348061
0.0179244
0.00726079
0.00358981
0.00342101
0.00407779
0.0700466
0.0676093
0.0624794
0.052572
0.0367825
0.0192098
0.00777185
0.00377987
0.00366421
0.00445174
0.0593665
0.0585204
0.0555
0.0479482
0.0341603
0.0179539
0.00732102
0.00364157
0.00372155
0.00467959
0.0192289
0.0199239
0.0204451
0.0195027
0.0151916
0.00851379
0.00377854
0.00216675
0.00265238
0.00382826
0.00177348
0.00176214
0.00175338
0.00174746
0.00174544
0.00174688
0.0017508
0.0017575
0.00175692
0.00172602
0.00191527
0.0019142
0.00191497
0.00191806
0.0019239
0.00193328
0.00194881
0.00197526
0.00201975
0.00209593
0.016537
0.0162388
0.0156622
0.0143885
0.0119101
0.00821623
0.00461135
0.00272004
0.00244105
0.00326283
0.0497381
0.0475303
0.043691
0.0377874
0.0299192
0.0204725
0.0110396
0.00519705
0.00376625
0.00491193
0.0613709
0.0591023
0.0550811
0.0485617
0.039433
0.0279774
0.0154929
0.00671803
0.00439867
0.00582003
0.0661593
0.0644323
0.061124
0.0552298
0.0460655
0.0337826
0.0192769
0.00798398
0.00490071
0.00665069
0.0678137
0.0667585
0.0643378
0.0593475
0.0505517
0.0379351
0.0220776
0.00889211
0.00536783
0.00766907
0.0665069
0.0662369
0.0649283
0.0611706
0.0532477
0.0408489
0.0242535
0.00960737
0.00579125
0.00872525
0.056242
0.0569435
0.0572159
0.0556756
0.050183
0.0397598
0.024149
0.00944028
0.00583547
0.00938935
0.0180032
0.0187044
0.019828
0.021215
0.0220849
0.0206235
0.0140765
0.00549348
0.00374082
0.0070346
0.00177522
0.00176306
0.00175283
0.00174523
0.00174172
0.00174299
0.00174722
0.00175368
0.00178472
0.0018944
0.00192052
0.00192037
0.00192182
0.00192539
0.00193141
0.00194021
0.00195248
0.00196973
0.00199461
0.00202982
0.0146329
0.014595
0.0146228
0.014491
0.0137569
0.0120487
0.00950134
0.00695996
0.00533941
0.00480207
0.0461613
0.0450947
0.0430047
0.0395677
0.0345537
0.0277899
0.019795
0.0124671
0.00816941
0.00700643
0.0566316
0.0556194
0.0534983
0.0496514
0.0438386
0.0356565
0.0252607
0.0150021
0.00912237
0.00801631
0.0607591
0.060221
0.0587782
0.0555604
0.0499762
0.0414498
0.0295694
0.0168176
0.00965765
0.0088808
0.0621812
0.0621857
0.0615493
0.0592539
0.0542497
0.0457785
0.0328556
0.0180027
0.00999473
0.00983059
0.061078
0.0616554
0.0619492
0.060822
0.0568118
0.0488582
0.03538
0.0187665
0.0101712
0.0107634
0.0517835
0.0528958
0.0542426
0.0548674
0.0530352
0.0471217
0.034786
0.0179906
0.00971404
0.0112277
0.0168121
0.017361
0.0183432
0.0197722
0.0214014
0.0220955
0.0188484
0.0103541
0.00590123
0.00791605
0.00177098
0.00176004
0.00175093
0.00174436
0.00174155
0.00174414
0.00175274
0.00176645
0.00179831
0.00189744
0.00191768
0.0019179
0.00191915
0.00192176
0.00192592
0.00193176
0.00193948
0.0019495
0.00196293
0.00198197
0.013033
0.0130381
0.0132211
0.0135315
0.0137635
0.0136347
0.012922
0.0116503
0.0101826
0.00906275
0.0423674
0.0418928
0.0408627
0.0390604
0.0362228
0.0321284
0.0268822
0.0210991
0.0160218
0.0130242
0.0514872
0.051115
0.0500798
0.047962
0.0445042
0.0393457
0.0324438
0.0245012
0.017561
0.0140622
0.0548897
0.0549076
0.054449
0.0528207
0.0496025
0.0442621
0.0364404
0.0267505
0.0182532
0.0147387
0.0561086
0.0565298
0.056724
0.0558631
0.0531808
0.0479823
0.0395271
0.0282848
0.0185683
0.0155113
0.0552998
0.0561127
0.0570135
0.0570964
0.0552705
0.0505751
0.0418135
0.0291921
0.0184755
0.0161431
0.0472394
0.0483138
0.0498502
0.0511805
0.0510498
0.0480702
0.0404304
0.0278287
0.0172257
0.0160434
0.0157958
0.0161897
0.0169425
0.0180732
0.0195298
0.0208086
0.0202458
0.0155901
0.010249
0.0107812
0.00176483
0.0017553
0.00174756
0.00174222
0.00174025
0.00174346
0.00175375
0.00177206
0.00180475
0.00188207
0.0019087
0.00190905
0.00190992
0.00191147
0.00191377
0.00191681
0.00192067
0.0019256
0.00193254
0.0019441
0.01199
0.0119715
0.0121075
0.0124264
0.0128859
0.0133999
0.0138292
0.0140123
0.013826
0.0133437
0.0387048
0.038608
0.0383257
0.0377107
0.0365306
0.0345607
0.0317229
0.0281461
0.0242128
0.0208818
0.0464644
0.0464813
0.0462058
0.0453691
0.0437173
0.0409594
0.0369848
0.0319475
0.0264226
0.0220876
0.0491697
0.0494711
0.0496121
0.0491233
0.0476618
0.0448135
0.040324
0.0342529
0.027411
0.02257
0.0502261
0.0507892
0.0513955
0.0514581
0.050428
0.047751
0.0429649
0.0359906
0.0279945
0.0231482
0.0497376
0.0505414
0.051627
0.0523559
0.0519712
0.0497213
0.0448535
0.0370514
0.0279559
0.0234306
0.0429834
0.043876
0.0452746
0.0467694
0.0475493
0.0466033
0.0427414
0.0352221
0.0260699
0.0225386
0.0149631
0.015226
0.0157656
0.0165803
0.0176868
0.0189471
0.0196763
0.0183778
0.0148294
0.0140806
0.00175748
0.00174936
0.00174297
0.00173885
0.00173778
0.00174133
0.00175151
0.00177017
0.00180041
0.00185668
0.00189509
0.00189548
0.00189601
0.00189679
0.00189779
0.001899
0.00190042
0.00190229
0.0019056
0.00191318
0.0115471
0.0115038
0.0115613
0.0117529
0.0120763
0.0125283
0.0130971
0.0137546
0.0144322
0.0149776
0.0351529
0.0352566
0.0354005
0.035518
0.0354663
0.0350668
0.0341698
0.0327056
0.0307254
0.0286254
0.0416776
0.0419066
0.0421129
0.0421584
0.0418411
0.0409234
0.0392346
0.0367278
0.0334943
0.0302529
0.043862
0.0442767
0.0447511
0.0450262
0.0448388
0.0438685
0.0418716
0.0387474
0.0345583
0.0305385
0.0448394
0.0453993
0.0461582
0.0467895
0.046917
0.0461109
0.0440067
0.0404151
0.0353703
0.0309027
0.0446666
0.045359
0.0464088
0.0474486
0.0480075
0.0475262
0.0454607
0.0414589
0.0355278
0.0308448
0.03918
0.0398624
0.0410011
0.0423985
0.0436114
0.0439916
0.0427285
0.039155
0.0332035
0.0290652
0.0143119
0.0144743
0.0148425
0.0153939
0.0161562
0.0171375
0.0181514
0.0185254
0.0172919
0.0164643
0.00174868
0.00174191
0.0017368
0.0017338
0.00173357
0.00173735
0.00174671
0.00176335
0.0017888
0.00182777
0.00187818
0.00187857
0.00187888
0.00187916
0.00187939
0.00187956
0.00187967
0.00187994
0.00188137
0.00188685
0.0115815
0.0115302
0.011541
0.011638
0.0118193
0.012087
0.012448
0.0129226
0.0135402
0.0142769
0.032061
0.032183
0.0323961
0.032698
0.0330444
0.0333607
0.0335581
0.0335454
0.0332538
0.0327409
0.0373947
0.0376428
0.0379787
0.0383725
0.0387249
0.038902
0.0387614
0.0381904
0.0371313
0.0357942
0.0392319
0.0396056
0.040125
0.0406925
0.0411684
0.0413608
0.0410681
0.0401365
0.0384574
0.0364032
0.0401951
0.040647
0.0413315
0.0421285
0.0428386
0.0431976
0.0429135
0.041764
0.0395403
0.0368799
0.0402958
0.0408232
0.0416812
0.0427137
0.0436933
0.044284
0.0440802
0.0427511
0.0399353
0.0367458
0.035959
0.0364407
0.0372759
0.0384
0.0396289
0.0406497
0.0409534
0.0400086
0.0372359
0.0341924
0.0138474
0.0139359
0.0141753
0.0145267
0.015009
0.0156572
0.0164596
0.0171988
0.0171809
0.0169387
0.00173816
0.00173266
0.00172871
0.00172667
0.0017271
0.00173092
0.0017392
0.00175308
0.00177306
0.00179922
0.00185891
0.0018593
0.00185947
0.00185946
0.00185926
0.00185886
0.00185828
0.00185773
0.00185819
0.00186251
0.0119231
0.0118758
0.0118671
0.0119143
0.0120157
0.0121712
0.0123874
0.0126904
0.0131386
0.0137978
0.0299301
0.0299978
0.0301222
0.0303169
0.0305757
0.0308809
0.0312074
0.0315164
0.0317498
0.0318553
0.0340879
0.0342472
0.0344807
0.0348057
0.0351925
0.0355985
0.0359652
0.0362225
0.0362959
0.036196
0.0355805
0.0358306
0.0362006
0.0366721
0.0372024
0.0377238
0.0381411
0.0383484
0.0382333
0.0378542
0.0364902
0.03679
0.0372666
0.0379025
0.0386314
0.0393568
0.0399281
0.0401779
0.0399038
0.039198
0.0367591
0.0371123
0.0377068
0.0384958
0.0394134
0.0403342
0.0410435
0.0412962
0.040755
0.03962
0.033383
0.0336953
0.0342462
0.0350243
0.0359777
0.0370242
0.0379454
0.0384104
0.0378848
0.0366862
0.0135652
0.0136017
0.01375
0.0139619
0.0142461
0.0146265
0.0151201
0.0156601
0.0157858
0.0157481
0.0017257
0.00172138
0.00171841
0.00171714
0.00171799
0.00172161
0.00172867
0.00173976
0.00175463
0.00177192
0.00183786
0.00183825
0.00183835
0.00183817
0.00183774
0.00183703
0.00183609
0.00183511
0.001835
0.00183858
0.0124375
0.0123999
0.0123847
0.0124066
0.0124648
0.0125598
0.0126989
0.0129118
0.0132698
0.0138855
0.0287707
0.0287977
0.0288485
0.0289334
0.0290525
0.0292017
0.0293747
0.0295581
0.0297221
0.0298175
0.0319317
0.0320071
0.0321179
0.0322842
0.0324961
0.0327416
0.033002
0.0332483
0.0334367
0.0335434
0.033028
0.0331628
0.0333622
0.0336265
0.0339461
0.0343048
0.0346734
0.0350103
0.0352518
0.0353905
0.0337923
0.0339605
0.0342292
0.0346064
0.0350766
0.0356228
0.0362019
0.036746
0.0371361
0.0373455
0.0340981
0.0343071
0.0346616
0.0351472
0.0357594
0.0364777
0.0372393
0.03794
0.0383757
0.0385312
0.0314543
0.0316395
0.0319681
0.0324372
0.0330348
0.0337645
0.0345809
0.0353591
0.0357665
0.0358291
0.0134568
0.0134578
0.013545
0.0136663
0.0138244
0.01403
0.0142938
0.0145817
0.0145334
0.0143581
0.00171113
0.00170784
0.0017057
0.00170499
0.00170602
0.00170923
0.00171497
0.00172348
0.0017341
0.00174536
0.00181533
0.00181572
0.00181577
0.00181552
0.00181496
0.0018141
0.00181297
0.00181174
0.00181128
0.0018143
0.0130452
0.0130187
0.0130026
0.0130106
0.0130435
0.0131027
0.0131974
0.0133608
0.0136726
0.0142744
0.0282667
0.0282761
0.0282934
0.0283251
0.0283723
0.0284347
0.0285116
0.0285994
0.0286831
0.0287249
0.0306922
0.0307218
0.0307648
0.0308344
0.0309253
0.0310322
0.0311476
0.031259
0.0313454
0.0313911
0.031418
0.0314811
0.0315721
0.0316919
0.0318369
0.0320013
0.0321752
0.0323429
0.0324771
0.0325711
0.031989
0.0320718
0.0322022
0.0323875
0.0326216
0.0329027
0.0332205
0.0335532
0.0338478
0.0340761
0.0322385
0.0323489
0.0325365
0.0327915
0.0331187
0.0335191
0.0339806
0.0344728
0.0349004
0.0352389
0.0301162
0.0302156
0.0303951
0.0306477
0.0309664
0.0313632
0.0318389
0.0323602
0.0327534
0.0330383
0.0135113
0.0134888
0.0135372
0.0136031
0.0136869
0.0137916
0.0139215
0.0140506
0.0138815
0.0136198
0.00169431
0.0016919
0.00169042
0.00169008
0.00169111
0.00169377
0.0016982
0.00170444
0.00171169
0.00171884
0.00179143
0.00179181
0.00179185
0.00179154
0.00179092
0.00178998
0.00178875
0.00178738
0.00178665
0.00178921
0.0137098
0.0136943
0.0136796
0.0136796
0.0136962
0.0137323
0.0137989
0.013932
0.0142178
0.0148184
0.0281259
0.0281296
0.0281348
0.0281456
0.028164
0.0281911
0.0282285
0.0282766
0.0283268
0.0283468
0.0300359
0.030046
0.0300608
0.0300883
0.0301253
0.0301692
0.0302167
0.030262
0.0302953
0.0303073
0.0304765
0.030503
0.0305407
0.0305898
0.0306481
0.0307126
0.0307791
0.0308414
0.0308895
0.0309219
0.0308665
0.0309031
0.0309601
0.0310419
0.031144
0.0312654
0.0314026
0.0315473
0.0316785
0.0317795
0.0310258
0.0310778
0.031168
0.0312887
0.031443
0.0316312
0.0318498
0.0320882
0.0323028
0.0324779
0.0292707
0.0293175
0.0294079
0.0295325
0.0296836
0.0298668
0.0300862
0.0303292
0.0305016
0.0306333
0.0137183
0.0136807
0.0137053
0.0137394
0.0137818
0.0138328
0.0138932
0.0139419
0.013735
0.0134789
0.00167514
0.00167347
0.00167249
0.00167238
0.00167328
0.00167533
0.00167855
0.00168288
0.00168758
0.00169188
0.00176614
0.00176652
0.00176654
0.00176622
0.00176557
0.00176458
0.00176329
0.00176182
0.00176089
0.00176301
0.0144234
0.0144181
0.0144059
0.0144011
0.0144071
0.0144275
0.0144751
0.0145886
0.0148592
0.0154645
0.0281678
0.0281705
0.0281719
0.0281753
0.0281826
0.0281957
0.0282172
0.0282492
0.028286
0.0282976
0.0297099
0.0297128
0.0297175
0.0297285
0.0297443
0.0297635
0.0297848
0.0298054
0.0298202
0.0298229
0.0299573
0.029967
0.0299814
0.0300009
0.030024
0.0300493
0.0300747
0.030098
0.0301157
0.0301282
0.0302083
0.0302227
0.0302456
0.0302796
0.0303218
0.0303712
0.0304263
0.030484
0.0305365
0.0305753
0.0302851
0.0303058
0.0303455
0.030399
0.0304678
0.0305516
0.0306482
0.0307529
0.0308453
0.0309162
0.0288047
0.0288217
0.0288638
0.0289206
0.0289856
0.0290603
0.0291468
0.0292377
0.029279
0.0293062
0.0140699
0.0140228
0.0140335
0.0140502
0.014071
0.0140949
0.0141216
0.0141335
0.0139358
0.0137251
0.00165357
0.00165249
0.00165189
0.0016519
0.00165261
0.00165406
0.00165624
0.00165903
0.00166186
0.00166421
0.00173939
0.00173978
0.00173979
0.00173946
0.00173878
0.00173777
0.00173644
0.0017349
0.00173379
0.00173548
0.0151953
0.0151993
0.0151901
0.0151829
0.0151818
0.0151915
0.0152262
0.0153266
0.0155888
0.0162026
0.0282966
0.0282995
0.0283001
0.0283009
0.028304
0.0283113
0.0283258
0.0283502
0.0283807
0.028389
0.0295583
0.029559
0.0295605
0.0295651
0.0295723
0.0295816
0.0295924
0.0296033
0.0296116
0.0296122
0.029686
0.0296885
0.0296935
0.0297014
0.0297114
0.0297227
0.0297344
0.0297455
0.0297547
0.0297626
0.0298427
0.0298473
0.0298557
0.0298695
0.0298868
0.0299072
0.02993
0.0299538
0.0299761
0.0299926
0.029862
0.0298673
0.0298828
0.0299056
0.0299365
0.0299751
0.0300202
0.0300694
0.0301123
0.0301435
0.0286107
0.0286123
0.0286301
0.028654
0.0286791
0.0287053
0.0287337
0.0287594
0.0287503
0.0287432
0.0145637
0.0145107
0.0145137
0.0145214
0.0145314
0.0145426
0.0145538
0.0145498
0.014383
0.0142263
0.00162958
0.00162896
0.00162863
0.00162869
0.00162918
0.00163011
0.00163144
0.00163306
0.00163453
0.00163555
0.00171109
0.00171147
0.00171148
0.00171114
0.00171045
0.00170942
0.00170807
0.00170647
0.00170519
0.00170644
0.0160466
0.0160591
0.0160533
0.0160452
0.0160395
0.016042
0.0160678
0.0161598
0.0164184
0.0170445
0.0284641
0.0284675
0.0284682
0.0284684
0.0284699
0.0284746
0.0284854
0.0285057
0.0285328
0.0285404
0.0294935
0.0294938
0.0294944
0.0294965
0.0295
0.0295046
0.0295104
0.0295169
0.0295223
0.0295227
0.0295521
0.0295518
0.0295533
0.0295567
0.0295619
0.0295682
0.0295753
0.0295826
0.0295895
0.0295962
0.0296493
0.0296501
0.0296529
0.0296585
0.0296661
0.0296752
0.0296856
0.0296966
0.0297074
0.0297158
0.0296376
0.0296363
0.029641
0.0296507
0.0296656
0.0296857
0.0297099
0.0297371
0.0297612
0.029779
0.0285984
0.0285929
0.0285994
0.0286086
0.0286167
0.0286236
0.0286293
0.0286307
0.0286087
0.0285974
0.0152055
0.0151488
0.0151476
0.0151511
0.015156
0.0151614
0.0151658
0.015155
0.0150281
0.0149221
0.00160318
0.00160289
0.00160276
0.00160282
0.00160311
0.00160361
0.00160428
0.00160503
0.00160556
0.00160568
0.00168112
0.00168149
0.0016815
0.00168115
0.00168046
0.00167942
0.00167804
0.0016764
0.00167496
0.00167574
0.0170081
0.0170286
0.0170264
0.0170185
0.0170103
0.0170079
0.0170277
0.0171143
0.0173735
0.018018
0.0286469
0.0286508
0.0286517
0.028652
0.0286529
0.0286562
0.0286649
0.0286824
0.0287077
0.0287164
0.0294691
0.0294696
0.0294701
0.0294711
0.0294726
0.0294749
0.0294779
0.0294818
0.0294856
0.0294865
0.0294904
0.0294892
0.0294894
0.0294912
0.0294944
0.0294987
0.0295039
0.0295094
0.0295151
0.0295209
0.0295513
0.0295509
0.0295516
0.0295541
0.0295578
0.0295624
0.0295679
0.0295738
0.0295797
0.0295848
0.0295292
0.0295255
0.0295259
0.0295303
0.0295386
0.0295507
0.0295659
0.0295836
0.0295997
0.0296127
0.0286982
0.0286901
0.0286918
0.0286947
0.0286966
0.0286967
0.0286949
0.0286892
0.0286683
0.0286618
0.0160125
0.0159534
0.0159503
0.0159518
0.0159546
0.0159574
0.015959
0.015947
0.0158605
0.0157979
0.00157438
0.00157434
0.00157433
0.00157438
0.0015745
0.00157467
0.00157485
0.00157498
0.00157487
0.0015744
0.0016494
0.00164977
0.00164977
0.00164942
0.00164872
0.00164766
0.00164627
0.00164458
0.00164299
0.00164329
0.0181221
0.0181503
0.018152
0.0181453
0.0181359
0.0181307
0.0181464
0.0182295
0.0184926
0.019167
0.028833
0.0288369
0.0288381
0.0288386
0.0288393
0.0288419
0.028849
0.0288643
0.0288882
0.0288996
0.0294616
0.0294623
0.0294628
0.0294633
0.0294639
0.0294647
0.0294662
0.0294684
0.0294712
0.0294727
0.0294642
0.029463
0.0294628
0.0294639
0.0294661
0.0294692
0.029473
0.0294773
0.0294817
0.0294864
0.0295027
0.029502
0.0295021
0.0295033
0.0295053
0.0295081
0.0295113
0.0295148
0.0295184
0.0295217
0.0294828
0.0294789
0.0294779
0.02948
0.0294853
0.0294935
0.0295041
0.0295164
0.0295282
0.0295386
0.0288589
0.0288504
0.0288503
0.0288509
0.0288509
0.0288495
0.0288463
0.0288398
0.0288246
0.0288241
0.0170186
0.0169581
0.0169541
0.0169549
0.0169566
0.0169584
0.0169587
0.0169522
0.0168995
0.0168719
0.00154323
0.00154338
0.00154345
0.00154348
0.00154346
0.00154339
0.00154322
0.00154293
0.00154239
0.00154153
0.00161595
0.00161631
0.00161631
0.00161596
0.00161524
0.00161418
0.00161277
0.00161104
0.00160929
0.00160908
0.0194467
0.0194826
0.0194885
0.0194837
0.0194745
0.019468
0.0194811
0.0195614
0.0198305
0.0205506
0.0290137
0.0290175
0.0290188
0.0290194
0.0290202
0.0290223
0.0290281
0.0290411
0.0290633
0.0290782
0.0294596
0.0294604
0.0294608
0.029461
0.0294611
0.0294612
0.0294617
0.0294628
0.0294649
0.029467
0.0294537
0.0294528
0.0294526
0.0294533
0.0294547
0.0294569
0.0294596
0.0294626
0.0294659
0.0294693
0.0294775
0.029477
0.029477
0.0294776
0.0294788
0.0294805
0.0294825
0.0294847
0.0294868
0.029489
0.0294652
0.029462
0.0294608
0.0294621
0.0294656
0.0294713
0.0294786
0.0294871
0.0294955
0.0295038
0.0290426
0.029035
0.0290343
0.0290343
0.029034
0.0290329
0.0290304
0.0290258
0.0290162
0.0290206
0.0182817
0.018221
0.0182168
0.0182174
0.0182186
0.0182196
0.0182192
0.0182165
0.0181932
0.0181928
0.00150988
0.00151014
0.00151027
0.00151028
0.00151017
0.00150992
0.00150952
0.00150895
0.00150813
0.00150702
0.00158094
0.00158131
0.00158131
0.00158095
0.00158023
0.00157915
0.00157773
0.00157597
0.00157408
0.00157332
0.0210626
0.0211058
0.0211162
0.0211142
0.0211069
0.0211012
0.0211129
0.0211896
0.0214625
0.0222468
0.0291798
0.0291831
0.0291844
0.0291851
0.0291859
0.0291876
0.0291921
0.0292025
0.029222
0.0292401
0.0294574
0.0294581
0.0294584
0.0294584
0.0294583
0.0294581
0.0294581
0.0294586
0.02946
0.0294623
0.0294488
0.0294482
0.029448
0.0294484
0.0294494
0.0294507
0.0294524
0.0294543
0.0294564
0.0294587
0.0294626
0.0294623
0.0294623
0.0294626
0.0294633
0.0294643
0.0294654
0.0294667
0.0294679
0.0294692
0.0294568
0.0294544
0.0294536
0.0294543
0.0294567
0.0294603
0.0294649
0.0294703
0.0294757
0.0294818
0.0292187
0.029213
0.0292122
0.0292121
0.029212
0.0292115
0.02921
0.0292076
0.0292022
0.0292096
0.0198993
0.0198399
0.0198361
0.0198365
0.0198373
0.0198377
0.0198365
0.019833
0.0198236
0.0198429
0.00147455
0.00147489
0.00147505
0.00147504
0.00147486
0.0014745
0.00147396
0.00147321
0.00147222
0.00147097
0.0015445
0.00154487
0.00154488
0.00154453
0.00154383
0.00154277
0.00154135
0.00153959
0.0015376
0.0015363
0.0230692
0.0231181
0.0231335
0.0231362
0.0231342
0.0231334
0.0231471
0.0232181
0.0234823
0.0243329
0.0293189
0.0293212
0.0293222
0.0293229
0.0293236
0.0293251
0.0293282
0.0293355
0.0293506
0.0293695
0.029453
0.0294534
0.0294536
0.0294536
0.0294535
0.0294532
0.0294531
0.0294532
0.029454
0.0294558
0.0294451
0.0294448
0.0294447
0.0294449
0.0294454
0.0294462
0.0294472
0.0294483
0.0294495
0.0294508
0.0294522
0.029452
0.029452
0.0294522
0.0294526
0.0294531
0.0294536
0.0294542
0.0294548
0.0294555
0.0294475
0.029446
0.0294455
0.0294459
0.0294473
0.0294494
0.0294519
0.0294548
0.0294577
0.0294616
0.0293602
0.0293566
0.0293561
0.0293561
0.0293561
0.0293558
0.029355
0.0293538
0.0293504
0.0293585
0.0220372
0.0219827
0.0219797
0.0219799
0.0219802
0.02198
0.0219781
0.0219737
0.0219633
0.0219756
0.00143742
0.00143779
0.00143797
0.00143794
0.00143772
0.00143731
0.00143668
0.00143584
0.00143476
0.00143345
0.00150579
0.00150616
0.00150618
0.00150584
0.00150516
0.00150412
0.00150273
0.00150101
0.00149898
0.00149724
0.0257133
0.0257523
0.025762
0.025763
0.0257606
0.0257579
0.025762
0.0258006
0.025989
0.0268273
0.0294181
0.0294192
0.0294197
0.0294201
0.0294207
0.0294217
0.0294235
0.0294273
0.0294358
0.0294503
0.0294477
0.0294478
0.0294479
0.0294479
0.0294478
0.0294477
0.0294476
0.0294476
0.0294479
0.0294487
0.0294428
0.0294425
0.0294425
0.0294426
0.0294429
0.0294433
0.0294439
0.0294445
0.0294452
0.029446
0.0294452
0.029445
0.029445
0.0294451
0.0294453
0.0294457
0.0294461
0.0294465
0.029447
0.0294474
0.0294379
0.0294371
0.0294368
0.029437
0.0294378
0.029439
0.0294404
0.0294419
0.0294433
0.0294452
0.0294466
0.0294451
0.0294449
0.029445
0.0294451
0.029445
0.0294449
0.0294447
0.0294443
0.0294502
0.0250078
0.0249664
0.0249647
0.0249648
0.0249649
0.0249645
0.0249628
0.0249591
0.0249504
0.0249535
0.00139778
0.00139814
0.00139831
0.00139829
0.00139805
0.00139761
0.00139695
0.00139607
0.00139498
0.00139368
0.00239285
0.00246255
0.0024326
0.002311
0.0023259
0.00232648
0.00229757
0.00225644
0.00287981
0.00288864
0.00284981
0.00275969
0.00319441
0.00321062
0.00317095
0.00305625
0.00349145
0.00351369
0.00347125
0.00334514
0.00381602
0.00383415
0.0037824
0.00365065
0.00408596
0.00409776
0.00404279
0.00392222
0.00421933
0.00422317
0.00416669
0.00405226
0.00372987
0.00371282
0.00364536
0.0035291
0.00255893
0.00262101
0.0026591
0.00265929
0.00204782
0.00209954
0.0021189
0.00209331
0.00411216
0.00429189
0.00425029
0.00394151
0.0062733
0.00644902
0.00634473
0.00589836
0.00757658
0.007725
0.00758578
0.00710701
0.00889015
0.00906819
0.00891488
0.00841748
0.0107287
0.0110408
0.0109304
0.0104827
0.0127043
0.0131259
0.0130311
0.0126283
0.0142199
0.0147177
0.0146587
0.0143857
0.0119095
0.0123256
0.0122444
0.0119875
0.0023579
0.00239049
0.00239442
0.00237526
0.00193774
0.00196076
0.00196691
0.00195416
0.00475879
0.00497821
0.00507275
0.0051852
0.00700863
0.00728841
0.00736916
0.00752298
0.0081913
0.00846723
0.0085348
0.00867897
0.00934394
0.00963213
0.00969821
0.00978249
0.0108241
0.0112322
0.0114178
0.0116295
0.0124749
0.0130223
0.013315
0.0136086
0.0137734
0.0144452
0.0148306
0.0152281
0.0108037
0.0113622
0.0116645
0.0119328
0.00214144
0.00216789
0.0021785
0.00217637
0.00188462
0.00189572
0.00189803
0.00188991
0.0082126
0.00824441
0.00852912
0.0092129
0.0116679
0.0117595
0.0122175
0.0132349
0.0127135
0.0129078
0.0134662
0.0146166
0.013576
0.0138684
0.0144946
0.0157155
0.0147053
0.015129
0.0158819
0.0172853
0.0158329
0.0163798
0.0172295
0.0187324
0.0164401
0.0171164
0.0180562
0.0195911
0.0120142
0.0126064
0.0133217
0.0143222
0.00200799
0.0020245
0.00203584
0.00204388
0.0018481
0.00185584
0.00185662
0.00185
0.0124906
0.0125098
0.012787
0.013381
0.0193418
0.0193473
0.019915
0.0210672
0.0203779
0.0205408
0.0213137
0.0227196
0.020904
0.0212344
0.0221584
0.0237207
0.0217585
0.0223071
0.0234315
0.0251708
0.022453
0.0231879
0.0244445
0.0262443
0.0221696
0.0230422
0.0243302
0.0260187
0.0146181
0.0152972
0.0161069
0.016946
0.00193344
0.00194454
0.00195345
0.00196109
0.00181859
0.00182491
0.00182533
0.00181952
0.0139987
0.0140885
0.0142461
0.0144857
0.0274846
0.0273869
0.0277519
0.0285118
0.0288606
0.0288571
0.0294138
0.0304305
0.0290361
0.0291704
0.0298801
0.0310508
0.0294604
0.0297776
0.0306615
0.0319795
0.0295651
0.0300422
0.031039
0.0324096
0.0281319
0.0287174
0.0297086
0.0309499
0.0165006
0.0168927
0.0173698
0.0177832
0.00187889
0.00188593
0.00189246
0.00189901
0.00179331
0.00179891
0.00179913
0.00179378
0.0130476
0.013181
0.0132768
0.0133501
0.03222
0.0321739
0.0322963
0.0325585
0.0351837
0.0351515
0.0353782
0.0358025
0.0356034
0.0356172
0.0359418
0.0364894
0.035941
0.0360414
0.0364901
0.0371749
0.0357108
0.0358961
0.0364316
0.0371864
0.0332395
0.0334848
0.0340092
0.0346765
0.0170578
0.0172011
0.0173413
0.0173804
0.00183706
0.00184151
0.00184615
0.00185142
0.00176977
0.00177493
0.00177504
0.00176999
0.0124435
0.0125753
0.0126408
0.0126503
0.031529
0.0315107
0.0315321
0.0315895
0.0360915
0.0360906
0.0361339
0.0362085
0.03768
0.037684
0.0377616
0.0378868
0.0389062
0.0389334
0.0390812
0.0393079
0.0391644
0.0392087
0.0394069
0.0397009
0.0361974
0.0362516
0.0364311
0.0366696
0.0160494
0.0160926
0.0160843
0.0159694
0.00180236
0.00180512
0.00180837
0.00181251
0.00174655
0.00175137
0.00175142
0.00174665
0.0124415
0.0125673
0.0126137
0.0125876
0.0294906
0.0294658
0.0294701
0.0295035
0.0335317
0.0335366
0.0335411
0.0335432
0.0354213
0.0354347
0.0354401
0.0354327
0.0374106
0.0374463
0.0374857
0.0375193
0.0385808
0.0386247
0.0386867
0.0387503
0.0358916
0.0359256
0.0359628
0.0359809
0.0146106
0.0146285
0.0146016
0.0144919
0.0017715
0.00177316
0.00177539
0.00177858
0.00172294
0.00172744
0.00172746
0.00172298
0.0127354
0.0128535
0.0128867
0.0128401
0.0284031
0.0283738
0.0283762
0.0284104
0.0313707
0.031371
0.0313742
0.0313794
0.0325941
0.0326011
0.0325991
0.0325864
0.0341579
0.0341844
0.0341998
0.034201
0.0353885
0.0354309
0.0354583
0.0354649
0.0332639
0.0333027
0.0333103
0.0332769
0.0137831
0.0137874
0.0137636
0.0136866
0.00174234
0.00174329
0.0017448
0.00174721
0.0016985
0.00170268
0.00170269
0.00169851
0.0131762
0.0132837
0.0133071
0.0132512
0.0280401
0.0280099
0.0280115
0.028045
0.0302854
0.0302842
0.030288
0.030296
0.0309293
0.0309323
0.0309317
0.0309268
0.0318154
0.0318281
0.0318366
0.0318394
0.0325597
0.0325827
0.0325977
0.0326018
0.0307949
0.0308185
0.0308193
0.0307917
0.0136106
0.0136096
0.0135887
0.0135326
0.00171371
0.00171419
0.0017152
0.00171701
0.00167294
0.00167678
0.00167678
0.00167294
0.0137099
0.0138008
0.0138164
0.0137626
0.0280085
0.0279784
0.0279792
0.0280112
0.0298043
0.029803
0.0298062
0.0298136
0.030132
0.0301339
0.0301342
0.0301327
0.0305892
0.0305952
0.0306003
0.030604
0.0309504
0.0309607
0.030969
0.030974
0.0294072
0.0294184
0.0294158
0.0293964
0.013864
0.0138638
0.0138461
0.0138019
0.00168494
0.00168513
0.0016858
0.00168714
0.00164604
0.00164953
0.00164952
0.00164603
0.0143228
0.0143849
0.0143938
0.0143581
0.028119
0.0280897
0.02809
0.0281203
0.0295972
0.0295959
0.0295982
0.0296039
0.0297662
0.0297678
0.0297684
0.029768
0.0299991
0.0300024
0.0300056
0.0300086
0.0301586
0.0301634
0.0301682
0.0301727
0.0288163
0.0288223
0.0288188
0.0288044
0.0143901
0.014394
0.01438
0.0143427
0.00165557
0.00165559
0.00165602
0.00165701
0.00161763
0.00162077
0.00162077
0.00161762
0.0150236
0.0150661
0.0150716
0.0150441
0.0282918
0.0282641
0.0282642
0.0282922
0.0295108
0.0295097
0.0295112
0.0295152
0.0295997
0.0296011
0.0296018
0.0296017
0.0297197
0.0297217
0.0297238
0.0297259
0.0297869
0.0297894
0.0297924
0.0297959
0.0286575
0.0286618
0.0286588
0.0286478
0.0151184
0.0151278
0.0151175
0.015084
0.00162526
0.00162518
0.00162545
0.00162617
0.00158757
0.00159036
0.00159036
0.00158756
0.0158345
0.0158741
0.0158781
0.0158492
0.0284921
0.0284672
0.0284671
0.0284923
0.0294774
0.0294765
0.0294774
0.02948
0.0295241
0.0295252
0.0295258
0.0295258
0.0295875
0.0295888
0.0295902
0.0295915
0.0296175
0.029619
0.029621
0.0296237
0.0287138
0.0287175
0.0287155
0.0287071
0.0160298
0.0160452
0.0160381
0.0160067
0.0015937
0.00159358
0.00159375
0.00159426
0.00155577
0.00155819
0.00155819
0.00155577
0.0168099
0.0168538
0.0168564
0.0168198
0.0287035
0.0286822
0.0286822
0.0287036
0.0294664
0.0294658
0.0294663
0.0294677
0.0294891
0.02949
0.0294904
0.0294904
0.0295236
0.0295245
0.0295254
0.0295262
0.0295418
0.0295428
0.0295442
0.0295462
0.0288693
0.0288727
0.0288714
0.0288651
0.0171394
0.0171602
0.017156
0.0171258
0.00156069
0.00156056
0.00156066
0.00156102
0.00152223
0.00152425
0.00152425
0.00152223
0.018007
0.0180681
0.0180697
0.018013
0.028915
0.0288986
0.0288986
0.0289152
0.0294634
0.0294632
0.0294634
0.0294639
0.0294714
0.029472
0.0294723
0.0294722
0.0294903
0.0294909
0.0294914
0.0294917
0.029506
0.0295067
0.0295076
0.0295089
0.0290593
0.0290625
0.0290617
0.0290568
0.0184895
0.0185131
0.0185113
0.0184838
0.00152612
0.00152601
0.00152607
0.00152631
0.00148714
0.00148872
0.00148872
0.00148714
0.0195178
0.0196215
0.0196222
0.0195207
0.0291153
0.029105
0.0291051
0.0291156
0.0294612
0.0294614
0.0294614
0.0294612
0.0294602
0.0294606
0.0294608
0.0294606
0.02947
0.0294703
0.0294705
0.0294705
0.0294832
0.0294838
0.0294844
0.029485
0.029242
0.029245
0.0292443
0.02924
0.0201455
0.0201633
0.0201636
0.0201463
0.00149008
0.00148999
0.00149002
0.00149018
0.00145079
0.00145189
0.00145189
0.00145079
0.0215059
0.0217019
0.0217021
0.0215066
0.0292886
0.0292852
0.0292853
0.0292888
0.0294562
0.0294567
0.0294566
0.0294561
0.0294517
0.029452
0.0294521
0.0294519
0.029456
0.0294561
0.0294561
0.029456
0.0294626
0.0294631
0.0294634
0.0294636
0.0293841
0.0293869
0.0293862
0.0293818
0.0222598
0.0222714
0.0222718
0.0222612
0.00145266
0.00145262
0.00145264
0.00145272
0.00141253
0.00141314
0.00141314
0.00141253
0.0243525
0.0246971
0.0246971
0.0243527
0.0294158
0.0294179
0.029418
0.0294161
0.0294492
0.0294495
0.0294495
0.0294492
0.0294464
0.0294466
0.0294466
0.0294466
0.0294476
0.0294476
0.0294475
0.0294475
0.0294457
0.029446
0.0294463
0.0294465
0.0294635
0.0294648
0.0294638
0.0294608
0.0251695
0.0251706
0.0251712
0.0251714
0.00141309
0.00141309
0.00141311
0.00141313
0.00219647
0.00208298
0.00202162
0.00198583
0.00196461
0.00194878
0.00193521
0.00192361
0.00191421
0.00190674
0.00280745
0.00252468
0.00384784
0.00830357
0.0133666
0.0171445
0.0192219
0.0198342
0.0195577
0.0188276
0.00403139
0.00498192
0.0114507
0.0211216
0.0322213
0.0417959
0.0487837
0.0530179
0.0547401
0.0542146
0.00557289
0.00896909
0.0176591
0.0302525
0.0434543
0.0540511
0.0614676
0.065797
0.0674387
0.0668284
0.00876582
0.0121158
0.0230599
0.0370094
0.0505316
0.0609146
0.0677766
0.0714743
0.0725816
0.0718561
0.0132366
0.0159587
0.0274703
0.0417028
0.0549633
0.0648107
0.0708949
0.0737609
0.0742134
0.0733468
0.016711
0.0188399
0.0294899
0.0436962
0.056525
0.0656476
0.0707073
0.0725955
0.0723417
0.071411
0.0185316
0.0194617
0.0276089