/*--------------------------------*- C++ -*----------------------------------*\
| =========                 |                                                 |
| \\      /  F ield         | foam-extend: Open Source CFD                    |
|  \\    /   O peration     | Version:     4.0                                |
|   \\  /    A nd           | Web:         http://www.foam-extend.org         |
|    \\/     M anipulation  |                                                 |
\*---------------------------------------------------------------------------*/
FoamFile
{
    version     2.0;
    format      ascii;
    class       volVectorField;
    location    "4000";
    object      Urel;
}
// * * * * * * * * * * * * * * * * * * * * * * * * * * * * * * * * * * * * * //

dimensions      [0 1 -1 0 0 0 0];

internalField   nonuniform List<vector> 
34480
(
(212.108 -5.13161 -19.9645)
(213.718 -5.92846 -24.5789)
(215.134 -6.48805 -29.8693)
(216.365 -6.80727 -36.1195)
(217.388 -6.87957 -43.7273)
(217.969 -6.68962 -53.1766)
(217.244 -6.20766 -64.8186)
(212.898 -5.49972 -79.1581)
(200.036 -4.89321 -98.7325)
(167.926 -4.34953 -119.474)
(214.236 -5.40334 -26.9675)
(216.151 -5.08433 -31.0631)
(217.837 -4.73408 -35.5503)
(219.285 -4.32809 -40.7028)
(220.575 -3.87756 -46.9905)
(221.678 -3.41191 -55.1104)
(222.075 -2.93741 -65.8563)
(219.995 -2.47024 -80.0741)
(210.885 -2.33353 -101.484)
(180.445 -2.76016 -130.006)
(215.43 -9.93794 -32.0144)
(217.613 -8.92302 -35.8846)
(219.616 -7.94533 -40.0361)
(221.442 -6.9815 -44.7363)
(223.166 -6.03101 -50.4217)
(224.866 -5.13706 -57.9002)
(226.23 -4.32426 -68.2609)
(225.772 -3.58478 -82.6656)
(219.385 -3.21533 -105.554)
(190.571 -3.5431 -140.531)
(215.715 -13.6467 -37.5458)
(218.375 -12.1675 -41.4723)
(220.888 -10.7412 -45.6599)
(223.264 -9.33671 -50.3419)
(225.528 -7.96107 -55.9091)
(227.77 -6.65992 -63.1598)
(229.811 -5.47045 -73.3336)
(230.447 -4.39155 -87.9298)
(225.991 -3.73792 -111.931)
(198.232 -3.93613 -151.7)
(215.911 -18.3348 -43.0103)
(218.996 -16.5799 -47.0541)
(221.951 -14.8781 -51.4045)
(224.804 -13.1746 -56.2074)
(227.556 -11.5002 -61.8548)
(230.279 -9.90306 -69.0924)
(232.869 -8.43541 -79.2393)
(234.357 -7.10387 -94.1225)
(231.394 -6.2486 -119.185)
(204.232 -6.41431 -162.768)
(215.744 -22.049 -49.5294)
(219.155 -19.9994 -53.6708)
(222.436 -18.0042 -58.1357)
(225.642 -15.9778 -63.0243)
(228.769 -13.9571 -68.7395)
(231.873 -11.9809 -75.9744)
(234.888 -10.1065 -86.081)
(237.045 -8.35824 -101.198)
(235.24 -7.14504 -127.235)
(208.282 -7.17677 -174.034)
(215.73 -27.0703 -55.8481)
(219.355 -24.8257 -60.1197)
(222.824 -22.6069 -64.7523)
(226.233 -20.3168 -69.7739)
(229.583 -18.01 -75.5999)
(232.931 -15.7134 -82.8662)
(236.256 -13.4696 -92.9322)
(239.006 -11.2755 -108.233)
(238.291 -9.50819 -135.152)
(211.651 -8.95254 -184.712)
(215.476 -30.8332 -63.4549)
(219.187 -28.3131 -67.767)
(222.714 -25.78 -72.4339)
(226.176 -23.143 -77.475)
(229.58 -20.4514 -83.2839)
(232.989 -17.7101 -90.4339)
(236.449 -14.9183 -100.241)
(239.672 -12.0373 -115.363)
(240.104 -9.4314 -142.704)
(214.22 -7.95938 -194.405)
(215.497 -36.7518 -70.345)
(219.218 -33.9987 -74.6972)
(222.747 -31.1417 -79.4466)
(226.226 -28.1415 -84.5971)
(229.659 -25.0689 -90.5453)
(233.089 -21.918 -97.7744)
(236.581 -18.6347 -107.492)
(240.123 -15.0814 -122.394)
(241.632 -11.3662 -150.027)
(216.607 -8.24809 -203.159)
(214.42 -41.1588 -78.2964)
(218.152 -38.0946 -82.5004)
(221.701 -34.9131 -87.1267)
(225.185 -31.5639 -92.1857)
(228.559 -28.0597 -98.0524)
(231.836 -24.3643 -105.177)
(235.117 -20.3828 -114.655)
(238.699 -15.9207 -128.883)
(241.417 -11.0198 -155.986)
(218.284 -6.23579 -209.373)
(204.292 6.14199 1.56048)
(205.221 4.59767 -1.86991)
(205.648 3.24362 -5.77716)
(205.459 2.10562 -10.2267)
(204.467 1.18212 -15.3699)
(202.342 0.483643 -21.3321)
(198.58 0.00792816 -28.1627)
(192.523 -0.272228 -35.6723)
(182.726 -0.419353 -42.8909)
(164.057 -0.559851 -45.4033)
(208.279 9.6309 1.58826)
(209.657 8.68348 -1.42743)
(210.613 7.71606 -4.82997)
(210.995 6.78513 -8.67529)
(210.664 5.89251 -13.1618)
(209.336 5.02103 -18.5797)
(206.398 4.15049 -25.3175)
(200.929 3.27404 -33.6396)
(191.478 2.35875 -43.4764)
(171.619 1.28206 -50.4694)
(210.608 9.17351 3.66742)
(212.337 8.46412 0.905745)
(213.714 7.67674 -2.18071)
(214.64 6.838 -5.75968)
(214.979 5.97594 -9.99482)
(214.505 5.06922 -15.2715)
(212.632 4.09068 -22.1939)
(208.216 3.02144 -31.43)
(199.593 1.82904 -43.7748)
(178.842 0.42457 -55.8127)
(211.63 9.51186 5.4166)
(213.849 8.86826 2.74342)
(215.772 8.12486 -0.265746)
(217.326 7.30196 -3.81392)
(218.348 6.42648 -8.06059)
(218.624 5.48115 -13.4049)
(217.604 4.43955 -20.5573)
(214.081 3.27305 -30.5177)
(206.241 1.91608 -44.9319)
(184.755 0.280364 -61.8756)
(212.308 8.86358 7.33335)
(214.964 8.11927 4.71271)
(217.363 7.26697 1.68074)
(219.45 6.3476 -1.90397)
(221.068 5.36339 -6.25752)
(221.991 4.29948 -11.7497)
(221.703 3.11864 -19.1587)
(218.993 1.78944 -29.7745)
(211.912 0.233077 -45.9999)
(189.781 -1.60923 -67.6745)
(212.488 9.22605 8.23337)
(215.495 8.40139 5.70225)
(218.262 7.45349 2.71539)
(220.759 6.45554 -0.832032)
(222.848 5.40143 -5.21122)
(224.298 4.29091 -10.7679)
(224.62 3.08621 -18.3215)
(222.631 1.75191 -29.4114)
(216.246 0.166045 -47.0616)
(193.41 -1.76347 -72.9481)
(212.719 8.2468 9.38467)
(215.97 7.24604 6.91883)
(218.979 6.1411 3.93147)
(221.746 5.02123 0.386896)
(224.161 3.85948 -4.03251)
(226.004 2.66648 -9.64804)
(226.831 1.407 -17.3024)
(225.541 0.0625722 -28.7714)
(219.925 -1.45633 -47.6565)
(196.593 -3.27684 -77.5008)
(212.63 8.55069 9.26085)
(216.008 7.44527 6.95797)
(219.138 6.26285 4.12037)
(222.045 5.09416 0.713186)
(224.643 3.91375 -3.58675)
(226.735 2.74646 -9.0812)
(227.94 1.58632 -16.6054)
(227.299 0.444925 -28.1101)
(222.614 -0.766518 -47.7912)
(199.275 -2.38974 -81.1483)
(212.673 6.69726 9.83857)
(216.083 5.4214 7.71163)
(219.256 4.15464 4.9996)
(222.248 2.94471 1.68623)
(225 1.74726 -2.59812)
(227.322 0.586559 -8.13164)
(228.856 -0.513865 -15.7036)
(228.782 -1.48026 -27.2281)
(225.074 -2.19524 -47.6309)
(201.922 -3.22077 -84.0151)
(211.706 6.48513 9.27338)
(215.128 5.09087 7.43975)
(218.343 3.73909 5.04426)
(221.38 2.44978 2.0238)
(224.164 1.23646 -1.96981)
(226.526 0.14502 -7.25187)
(228.179 -0.756307 -14.6349)
(228.481 -1.31582 -25.767)
(225.915 -1.36175 -46.3575)
(203.739 -1.22796 -84.6922)
(198.507 4.90342 0.455468)
(199 3.7268 -2.21872)
(198.968 2.70217 -5.15304)
(198.332 1.84197 -8.3623)
(196.96 1.16301 -11.8023)
(194.675 0.673322 -15.3722)
(191.256 0.357848 -18.8724)
(186.47 0.163107 -21.9778)
(179.963 0.00976234 -23.948)
(171.056 -0.208841 -23.0072)
(203.364 8.23799 0.412962)
(204.291 7.46152 -2.1417)
(204.737 6.65365 -4.96482)
(204.574 5.86227 -8.06815)
(203.629 5.09827 -11.4891)
(201.64 4.35909 -15.2146)
(198.228 3.63394 -19.1713)
(192.883 2.90696 -23.1371)
(184.902 2.16282 -26.4407)
(173.288 1.36553 -27.0816)
(206.389 7.99834 2.32911)
(207.698 7.37326 -0.1517)
(208.574 6.66373 -2.91344)
(208.898 5.90416 -6.03169)
(208.508 5.11616 -9.57189)
(207.11 4.28858 -13.6386)
(204.195 3.40786 -18.3059)
(198.995 2.4602 -23.4949)
(190.415 1.43336 -28.674)
(176.488 0.301734 -31.7283)
(207.991 8.44906 3.9466)
(209.774 7.86901 1.47298)
(211.169 7.18582 -1.30478)
(212.073 6.41909 -4.54103)
(212.29 5.59927 -8.29056)
(211.509 4.71106 -12.7329)
(209.134 3.74125 -18.0523)
(204.175 2.67376 -24.3473)
(195.18 1.48646 -31.3292)
(179.139 0.15474 -37.1169)
(209.103 7.86148 5.83534)
(211.315 7.18299 3.3599)
(213.177 6.39913 0.503925)
(214.601 5.53895 -2.86892)
(215.374 4.61647 -6.85716)
(215.176 3.61328 -11.6682)
(213.352 2.50578 -17.5868)
(208.735 1.27223 -24.9158)
(199.529 -0.111681 -33.6544)
(181.636 -1.63682 -42.4727)
(209.622 8.30848 6.75503)
(212.192 7.55739 4.33597)
(214.435 6.68792 1.48945)
(216.277 5.75456 -1.90581)
(217.518 4.76575 -6.01096)
(217.825 3.71432 -11.047)
(216.51 2.57401 -17.3866)
(212.279 1.31649 -25.5499)
(203.005 -0.111163 -35.8339)
(183.513 -1.72511 -47.7098)
(210.105 7.36071 7.99168)
(212.936 6.4469 5.61583)
(215.448 5.43651 2.74393)
(217.592 4.39737 -0.688517)
(219.187 3.31859 -4.90267)
(219.905 2.20074 -10.1259)
(219.057 1.01682 -16.8079)
(215.281 -0.257477 -25.7044)
(206.138 -1.65691 -37.4526)
(185.362 -3.20634 -52.4992)
(210.207 7.72698 7.96371)
(213.192 6.71559 5.73836)
(215.862 5.63441 3.00656)
(218.194 4.55595 -0.304618)
(220.033 3.4714 -4.44084)
(221.065 2.39106 -9.63981)
(220.631 1.30633 -16.4026)
(217.369 0.210837 -25.7032)
(208.601 -0.9327 -38.586)
(186.943 -2.37348 -56.596)
(210.363 5.90717 8.62491)
(213.394 4.72085 6.55288)
(216.126 3.54758 3.93437)
(218.562 2.4241 0.721658)
(220.589 1.33011 -3.39245)
(221.911 0.278797 -8.66561)
(221.891 -0.709595 -15.6277)
(219.188 -1.60188 -25.3125)
(210.935 -2.29132 -39.2979)
(188.494 -3.29447 -59.8484)
(209.572 5.86757 8.11112)
(212.612 4.54722 6.28539)
(215.391 3.28895 3.95985)
(217.876 2.0854 1.02315)
(219.946 0.97056 -2.80701)
(221.33 -0.015264 -7.81157)
(221.53 -0.80403 -14.6004)
(219.33 -1.28859 -24.1871)
(211.839 -1.30418 -38.8532)
(189.045 -1.19847 -60.8216)
(194.404 3.82626 -0.0960376)
(194.636 3.0083 -1.97594)
(194.426 2.2913 -3.97613)
(193.731 1.68772 -6.0695)
(192.493 1.21281 -8.16666)
(190.656 0.86877 -10.1444)
(188.195 0.640227 -11.8177)
(185.172 0.47705 -12.9432)
(181.725 0.299185 -13.1122)
(177.802 0.0197833 -11.7335)
(199.38 6.84121 -0.297207)
(199.959 6.26027 -2.29992)
(200.077 5.6366 -4.44083)
(199.646 5.00641 -6.7234)
(198.548 4.38945 -9.10109)
(196.639 3.78968 -11.4634)
(193.753 3.20094 -13.6255)
(189.75 2.61151 -15.2887)
(184.543 2.01667 -15.8845)
(178.272 1.42748 -14.6616)
(202.712 6.79129 1.32536)
(203.65 6.27421 -0.775301)
(204.138 5.66877 -3.08188)
(204.067 5.01342 -5.60406)
(203.298 4.32629 -8.34201)
(201.623 3.60528 -11.2512)
(198.752 2.84318 -14.1975)
(194.348 2.03062 -16.8715)
(188.081 1.16269 -18.5552)
(179.826 0.253086 -18.1477)
(204.686 7.3649 2.70956)
(206.058 6.86751 0.525183)
(206.999 6.26306 -1.90761)
(207.396 5.57743 -4.67206)
(207.071 4.83714 -7.76858)
(205.754 4.03553 -11.2182)
(203.04 3.16855 -14.9395)
(198.378 2.22727 -18.6539)
(191.167 1.20129 -21.5541)
(180.893 0.103939 -22.3268)
(206.127 6.8423 4.49039)
(207.903 6.24227 2.23761)
(209.272 5.53852 -0.342103)
(210.126 4.75673 -3.35099)
(210.25 3.91535 -6.80117)
(209.338 2.99852 -10.7703)
(206.877 1.99624 -15.2419)
(202.114 0.895427 -20.0155)
(194.137 -0.316481 -24.2503)
(181.958 -1.6013 -26.6177)
(206.926 7.37366 5.36725)
(209.055 6.70507 3.12482)
(210.791 5.92297 0.506488)
(212.037 5.07028 -2.60168)
(212.567 4.16433 -6.26112)
(212.043 3.19495 -10.5851)
(209.868 2.14932 -15.6318)
(205.104 1.00915 -21.3135)
(196.505 -0.257544 -26.8023)
(182.558 -1.63577 -30.9313)
(207.632 6.45867 6.64275)
(210.029 5.63568 4.41)
(212.041 4.72373 1.72926)
(213.588 3.7744 -1.47334)
(214.452 2.78927 -5.32032)
(214.277 1.7622 -9.95057)
(212.409 0.677839 -15.5033)
(207.761 -0.482427 -22.0422)
(198.743 -1.74537 -28.8219)
(183.243 -3.09551 -34.9914)
(207.91 6.90424 6.67498)
(210.477 5.98955 4.57075)
(212.669 5.01022 2.00786)
(214.426 4.02414 -1.10686)
(215.546 3.03702 -4.93106)
(215.673 2.04959 -9.6337)
(214.131 1.05702 -15.4258)
(209.725 0.0493011 -22.5454)
(200.548 -1.00682 -30.4239)
(183.794 -2.2954 -38.6407)
(208.161 5.13113 7.44366)
(210.792 4.04289 5.46595)
(213.061 2.9662 2.98971)
(214.933 1.92999 -0.044333)
(216.24 0.933375 -3.85767)
(216.646 -0.0162462 -8.66129)
(215.475 -0.894231 -14.7456)
(211.454 -1.68549 -22.4626)
(202.35 -2.32847 -31.5362)
(184.418 -3.25678 -41.6447)
(207.488 5.2631 6.98286)
(210.138 4.03828 5.21718)
(212.467 2.88426 3.00776)
(214.403 1.77834 0.22346)
(215.783 0.770764 -3.33203)
(216.281 -0.105387 -7.88427)
(215.312 -0.777887 -13.812)
(211.669 -1.16513 -21.5964)
(202.975 -1.1409 -31.5521)
(184.16 -1.05134 -42.6975)
(191.878 2.90995 -0.317728)
(191.99 2.3784 -1.54438)
(191.783 1.90334 -2.8211)
(191.243 1.4982 -4.10488)
(190.357 1.17343 -5.3185)
(189.124 0.929302 -6.36977)
(187.584 0.755123 -7.1379)
(185.869 0.610935 -7.50637)
(184.266 0.428857 -7.30409)
(182.95 0.127505 -6.34014)
(196.415 5.53582 -0.659674)
(196.769 5.13888 -2.12951)
(196.741 4.6888 -3.64625)
(196.282 4.21454 -5.20764)
(195.332 3.73948 -6.74542)
(193.834 3.27133 -8.1499)
(191.745 2.80997 -9.26258)
(189.074 2.34984 -9.87515)
(185.933 1.89392 -9.68244)
(182.653 1.46628 -8.45878)
(199.668 5.61463 0.643402)
(200.326 5.21073 -1.04256)
(200.572 4.71918 -2.85851)
(200.328 4.17743 -4.7798)
(199.503 3.60289 -6.76833)
(197.977 2.99924 -8.72622)
(195.626 2.36385 -10.4867)
(192.357 1.69254 -11.7754)
(188.185 0.987036 -12.1176)
(183.474 0.274744 -11.0367)
(201.774 6.3 1.74574)
(202.806 5.89476 -0.0983648)
(203.415 5.38257 -2.12448)
(203.504 4.79236 -4.36209)
(202.937 4.14875 -6.77328)
(201.532 3.45236 -9.29365)
(199.059 2.70449 -11.7555)
(195.283 1.90241 -13.8371)
(190.068 1.04393 -14.8835)
(183.754 0.160498 -14.1809)
(203.395 5.83751 3.36338)
(204.793 5.32487 1.38967)
(205.768 4.71049 -0.849906)
(206.218 4.02196 -3.40422)
(205.964 3.27605 -6.24087)
(204.768 2.46456 -9.33635)
(202.296 1.58533 -12.542)
(198.146 0.631849 -15.5252)
(191.973 -0.402356 -17.4641)
(184.024 -1.467 -17.4864)
(204.38 6.4484 4.14724)
(206.111 5.87025 2.13587)
(207.419 5.18284 -0.189407)
(208.205 4.42392 -2.91384)
(208.261 3.61456 -6.02597)
(207.305 2.74663 -9.54539)
(204.903 1.81623 -13.3599)
(200.482 0.811459 -17.1609)
(193.442 -0.290244 -19.9887)
(183.878 -1.45818 -20.8987)
(205.246 5.56645 5.41819)
(207.241 4.8403 3.37817)
(208.815 4.03073 0.949571)
(209.879 3.17988 -1.92839)
(210.212 2.29719 -5.29544)
(209.5 1.37566 -9.20271)
(207.228 0.408163 -13.5947)
(202.661 -0.619868 -18.2271)
(194.905 -1.73321 -22.0552)
(183.827 -2.89663 -24.1546)
(205.662 6.09942 5.47464)
(207.838 5.28846 3.53419)
(209.598 4.41527 1.19291)
(210.868 3.52884 -1.63971)
(211.435 2.64443 -5.03983)
(210.964 1.76035 -9.09697)
(208.884 0.874637 -13.8184)
(204.319 -0.0268546 -19.0629)
(196.064 -0.979323 -23.7816)
(183.655 -2.10559 -27.1463)
(206.006 4.37193 6.33837)
(208.261 3.3922 4.49326)
(210.11 2.41963 2.20251)
(211.497 1.48077 -0.584062)
(212.231 0.586881 -4.00425)
(211.987 -0.255371 -8.19329)
(210.168 -1.02271 -13.2542)
(205.778 -1.71371 -19.154)
(197.266 -2.29623 -24.949)
(183.595 -3.1054 -29.6308)
(205.432 4.67552 5.90434)
(207.715 3.56389 4.24375)
(209.633 2.52406 2.19108)
(211.093 1.52904 -0.378866)
(211.91 0.638039 -3.5842)
(211.76 -0.119945 -7.57613)
(210.09 -0.676368 -12.5313)
(205.896 -0.968864 -18.5396)
(197.465 -0.913993 -25.121)
(182.773 -0.833272 -30.4953)
(190.517 2.15599 -0.357244)
(190.577 1.82875 -1.11094)
(190.427 1.52754 -1.88509)
(190.066 1.26498 -2.63765)
(189.499 1.0469 -3.31721)
(188.745 0.873367 -3.86664)
(187.849 0.739025 -4.2148)
(186.941 0.614281 -4.31966)
(186.313 0.444453 -4.10335)
(186.254 0.142338 -3.5316)
(194.355 4.38332 -0.792016)
(194.568 4.13913 -1.81213)
(194.495 3.83621 -2.827)
(194.111 3.49754 -3.8343)
(193.395 3.14625 -4.77385)
(192.338 2.79207 -5.56592)
(190.949 2.44004 -6.1068)
(189.28 2.09051 -6.27876)
(187.449 1.75154 -5.93519)
(185.689 1.44616 -5.04339)
(197.275 4.51715 0.221247)
(197.725 4.21919 -1.06634)
(197.833 3.83851 -2.42395)
(197.55 3.40798 -3.81715)
(196.824 2.94423 -5.19581)
(195.605 2.45396 -6.46222)
(193.86 1.93837 -7.47916)
(191.606 1.39823 -8.06112)
(188.957 0.840802 -7.95009)
(186.237 0.29359 -6.9713)
(199.322 5.28916 1.03418)
(200.077 4.97694 -0.456347)
(200.454 4.56223 -2.06584)
(200.377 4.07316 -3.79401)
(199.759 3.53314 -5.58463)
(198.495 2.94747 -7.34543)
(196.482 2.32078 -8.9106)
(193.665 1.65575 -10.0259)
(190.108 0.958149 -10.2797)
(186.23 0.263308 -9.32746)
(200.987 4.87449 2.45861)
(202.06 4.45224 0.793318)
(202.732 3.93292 -1.075)
(202.913 3.34438 -3.15276)
(202.475 2.70175 -5.38532)
(201.26 2.00328 -7.6969)
(199.081 1.2513 -9.90814)
(195.777 0.445066 -11.7142)
(191.311 -0.413914 -12.5292)
(186.169 -1.27389 -11.852)
(202.064 5.5545 3.11409)
(203.44 5.07057 1.37006)
(204.396 4.48227 -0.623752)
(204.841 3.8256 -2.91431)
(204.61 3.12084 -5.45247)
(203.494 2.36443 -8.19287)
(201.22 1.55751 -10.959)
(197.501 0.693571 -13.4196)
(192.147 -0.239478 -14.8158)
(185.679 -1.20344 -14.5097)
(203.028 4.70357 4.34332)
(204.655 4.07796 2.53364)
(205.851 3.37337 0.399619)
(206.531 2.6272 -2.09297)
(206.503 1.85236 -4.92788)
(205.519 1.044 -8.08825)
(203.223 0.20012 -11.4232)
(199.192 -0.689851 -14.6063)
(193.034 -1.64323 -16.729)
(185.251 -2.61256 -17.0497)
(203.539 5.32679 4.38942)
(205.348 4.62477 2.64749)
(206.724 3.86162 0.567652)
(207.591 3.08175 -1.92179)
(207.749 2.30521 -4.8338)
(206.923 1.53128 -8.18841)
(204.686 0.759602 -11.8751)
(200.483 -0.0268156 -15.6103)
(193.679 -0.860247 -18.3867)
(184.675 -1.80716 -19.4003)
(203.96 3.64025 5.32523)
(205.858 2.77603 3.64483)
(207.329 1.91339 1.57472)
(208.308 1.08012 -0.912501)
(208.602 0.293609 -3.88543)
(207.934 -0.438202 -7.40206)
(205.833 -1.09571 -11.4357)
(201.624 -1.68824 -15.778)
(194.385 -2.19898 -19.4231)
(184.212 -2.85856 -21.2821)
(203.458 4.11677 4.89233)
(205.392 3.12986 3.37262)
(206.937 2.21108 1.51101)
(207.991 1.33582 -0.795335)
(208.368 0.566006 -3.60065)
(207.78 -0.071845 -6.98277)
(205.765 -0.51764 -10.9719)
(201.596 -0.727356 -15.427)
(194.217 -0.654243 -19.645)
(183.073 -0.570721 -21.8916)
(189.943 1.55402 -0.313802)
(189.982 1.3601 -0.755633)
(189.89 1.17482 -1.20899)
(189.673 1.00941 -1.63781)
(189.339 0.866285 -2.01294)
(188.906 0.745957 -2.30197)
(188.413 0.647009 -2.46248)
(187.964 0.54654 -2.48991)
(187.833 0.399004 -2.33371)
(188.413 0.107569 -2.0252)
(193.029 3.41322 -0.792455)
(193.159 3.28331 -1.46857)
(193.091 3.09492 -2.1159)
(192.812 2.86575 -2.73521)
(192.32 2.61665 -3.28277)
(191.625 2.35777 -3.70778)
(190.751 2.09718 -3.95069)
(189.749 1.83939 -3.95268)
(188.7 1.59486 -3.64728)
(187.74 1.38122 -3.05665)
(195.486 3.53431 -0.0132047)
(195.789 3.32633 -0.953711)
(195.828 3.04402 -1.92438)
(195.574 2.71424 -2.89373)
(195.006 2.352 -3.81563)
(194.111 1.96498 -4.61349)
(192.896 1.55703 -5.19196)
(191.409 1.13223 -5.43985)
(189.761 0.700382 -5.22844)
(188.164 0.284486 -4.51104)
(197.336 4.36087 0.532065)
(197.878 4.1348 -0.624072)
(198.102 3.81399 -1.84797)
(197.959 3.4237 -3.12808)
(197.398 2.98583 -4.40647)
(196.37 2.50833 -5.59582)
(194.845 1.99802 -6.56448)
(192.845 1.46136 -7.13952)
(190.486 0.909188 -7.09088)
(188.082 0.373499 -6.27218)
(198.933 3.97725 1.75616)
(199.738 3.64204 0.400802)
(200.187 3.21721 -1.09971)
(200.21 2.7284 -2.72743)
(199.725 2.18978 -4.42088)
(198.638 1.60404 -6.09077)
(196.866 0.976299 -7.57614)
(194.377 0.310391 -8.64521)
(191.255 -0.38569 -8.93391)
(187.921 -1.06576 -8.18734)
(200.017 4.71102 2.26441)
(201.086 4.31967 0.801885)
(201.765 3.83067 -0.849191)
(201.978 3.27818 -2.70288)
(201.607 2.68023 -4.69733)
(200.512 2.03789 -6.75504)
(198.547 1.35516 -8.6973)
(195.6 0.63037 -10.2447)
(191.689 -0.139087 -10.8853)
(187.33 -0.916236 -10.2414)
(201.018 3.88678 3.42392)
(202.316 3.36122 1.86541)
(203.201 2.76122 0.0459145)
(203.596 2.1216 -2.03861)
(203.353 1.45545 -4.34395)
(202.294 0.76155 -6.81128)
(200.2 0.0411178 -9.26292)
(196.867 -0.711801 -11.3917)
(192.195 -1.50518 -12.5388)
(186.776 -2.28893 -12.1978)
(201.579 4.59836 3.43077)
(203.051 4.00637 1.90994)
(204.1 3.35427 0.114532)
(204.65 2.68416 -2.00129)
(204.538 2.01716 -4.40969)
(203.554 1.35492 -7.08193)
(201.414 0.698576 -9.85751)
(197.808 0.0316629 -12.432)
(192.48 -0.673394 -14.0227)
(186.037 -1.445 -14.0109)
(202.054 2.94565 4.41525)
(203.622 2.19945 2.92252)
(204.765 1.44913 1.09661)
(205.416 0.725264 -1.06159)
(205.406 0.0468387 -3.57128)
(204.511 -0.5764 -6.42833)
(202.4 -1.12822 -9.53156)
(198.666 -1.62288 -12.6137)
(192.845 -2.0517 -14.8544)
(185.418 -2.56528 -15.3595)
(201.599 3.59698 3.95999)
(203.208 2.74067 2.60703)
(204.425 1.94608 0.961506)
(205.147 1.1943 -1.04939)
(205.208 0.545005 -3.43328)
(204.37 0.0226594 -6.2074)
(202.289 -0.323354 -9.31223)
(198.488 -0.46465 -12.5014)
(192.414 -0.383174 -15.1191)
(184.175 -0.298672 -15.7966)
(189.841 1.08593 -0.241248)
(189.871 0.973384 -0.490296)
(189.821 0.861146 -0.750836)
(189.699 0.759391 -0.991672)
(189.513 0.667912 -1.19913)
(189.276 0.58761 -1.35558)
(189.014 0.519512 -1.43308)
(188.812 0.444551 -1.44488)
(188.924 0.322773 -1.34422)
(189.831 0.046958 -1.19447)
(192.25 2.62934 -0.728264)
(192.332 2.57772 -1.15924)
(192.283 2.47232 -1.55459)
(192.099 2.32636 -1.91874)
(191.784 2.1577 -2.2236)
(191.35 1.97599 -2.43899)
(190.82 1.79024 -2.53273)
(190.231 1.60671 -2.47701)
(189.635 1.43651 -2.24269)
(189.103 1.29208 -1.85927)
(194.214 2.6881 -0.121741)
(194.416 2.54971 -0.783098)
(194.424 2.34791 -1.45221)
(194.226 2.10362 -2.10377)
(193.815 1.8294 -2.70193)
(193.194 1.5326 -3.19372)
(192.384 1.21821 -3.51923)
(191.433 0.891629 -3.61656)
(190.418 0.562511 -3.4231)
(189.467 0.248522 -2.93724)
(195.792 3.53673 0.194131)
(196.173 3.38413 -0.669295)
(196.303 3.14685 -1.56365)
(196.151 2.84657 -2.47607)
(195.692 2.50317 -3.35642)
(194.911 2.12577 -4.13546)
(193.812 1.72232 -4.72078)
(192.44 1.30126 -5.00452)
(190.899 0.875157 -4.86511)
(189.392 0.470276 -4.24627)
(197.239 3.16591 1.22802)
(197.83 2.90908 0.161243)
(198.122 2.57225 -1.00265)
(198.066 2.17741 -2.23529)
(197.613 1.73788 -3.47875)
(196.716 1.25904 -4.65195)
(195.353 0.747696 -5.63019)
(193.547 0.210637 -6.2544)
(191.409 -0.340845 -6.31295)
(189.235 -0.868887 -5.68714)
(198.259 3.93459 1.58545)
(199.072 3.6292 0.397992)
(199.543 3.235 -0.923335)
(199.611 2.78266 -2.37269)
(199.2 2.28872 -3.88675)
(198.228 1.7574 -5.38305)
(196.63 1.19443 -6.71025)
(194.391 0.601901 -7.65949)
(191.604 -0.0163158 -7.91164)
(188.666 -0.629525 -7.26152)
(199.243 3.13111 2.6573)
(200.257 2.7007 1.35352)
(200.895 2.20143 -0.153008)
(201.094 1.66568 -1.8404)
(200.748 1.10501 -3.6568)
(199.742 0.522195 -5.52457)
(197.957 -0.0795843 -7.27958)
(195.324 -0.701801 -8.6722)
(191.883 -1.34472 -9.26752)
(188.125 -1.96224 -8.74866)
(199.809 3.92498 2.60356)
(200.983 3.43964 1.31308)
(201.763 2.89598 -0.192429)
(202.081 2.33441 -1.93321)
(201.813 1.77466 -3.86097)
(200.814 1.22119 -5.91873)
(198.914 0.676682 -7.94184)
(195.97 0.127869 -9.66236)
(191.938 -0.447495 -10.5326)
(187.369 -1.05952 -10.1315)
(200.316 2.29699 3.61613)
(201.587 1.66675 2.32353)
(202.454 1.02745 0.752464)
(202.857 0.412355 -1.06902)
(202.657 -0.161089 -3.13046)
(201.692 -0.681526 -5.38627)
(199.746 -1.13541 -7.70592)
(196.608 -1.53726 -9.82732)
(192.106 -1.8809 -11.1573)
(186.762 -2.26556 -11.0609)
(199.887 3.12528 3.11762)
(201.199 2.40006 1.94688)
(202.135 1.72884 0.531609)
(202.599 1.09919 -1.17045)
(202.454 0.565097 -3.13723)
(201.517 0.148814 -5.34295)
(199.556 -0.111579 -7.68513)
(196.295 -0.200204 -9.89517)
(191.506 -0.117996 -11.4578)
(185.526 -0.0387497 -11.3985)
(189.988 0.72854 -0.165402)
(190.013 0.662997 -0.300896)
(189.99 0.594648 -0.450952)
(189.925 0.533202 -0.586517)
(189.825 0.476331 -0.703889)
(189.699 0.425054 -0.793477)
(189.565 0.381651 -0.834273)
(189.491 0.32918 -0.848354)
(189.714 0.231405 -0.786065)
(190.787 -0.028416 -0.728865)
(191.849 2.0182 -0.641721)
(191.901 2.01604 -0.907236)
(191.871 1.96713 -1.13817)
(191.758 1.88103 -1.3417)
(191.566 1.77273 -1.50173)
(191.306 1.65099 -1.60117)
(190.994 1.5246 -1.62323)
(190.655 1.40002 -1.55486)
(190.318 1.28772 -1.38333)
(190.02 1.19591 -1.1328)
(193.352 1.98505 -0.151946)
(193.486 1.89596 -0.602997)
(193.485 1.75572 -1.05185)
(193.344 1.57993 -1.47896)
(193.063 1.3783 -1.85903)
(192.651 1.15712 -2.15765)
(192.128 0.921308 -2.33918)
(191.531 0.676091 -2.37076)
(190.912 0.42947 -2.22224)
(190.342 0.194054 -1.90547)
(194.637 2.8289 -0.0211132)
(194.9 2.73437 -0.644282)
(194.975 2.56654 -1.27514)
(194.843 2.34354 -1.90347)
(194.495 2.08283 -2.48999)
(193.929 1.79358 -2.98476)
(193.166 1.48396 -3.32765)
(192.247 1.16287 -3.45546)
(191.252 0.842493 -3.30668)
(190.304 0.543202 -2.86217)
(195.885 2.45411 0.843683)
(196.31 2.26376 0.0292228)
(196.497 2.0044 -0.846267)
(196.412 1.69396 -1.75261)
(196.03 1.34458 -2.64047)
(195.333 0.962971 -3.44488)
(194.326 0.556691 -4.07755)
(193.052 0.133862 -4.43693)
(191.609 -0.293638 -4.40526)
(190.189 -0.696687 -3.93196)
(196.793 3.23765 1.0588)
(197.398 3.00801 0.124218)
(197.717 2.69993 -0.89955)
(197.706 2.33969 -1.99735)
(197.317 1.94262 -3.11096)
(196.512 1.51479 -4.16696)
(195.271 1.06296 -5.04997)
(193.623 0.591513 -5.61629)
(191.672 0.107666 -5.67696)
(189.694 -0.366213 -5.12819)
(197.718 2.44868 2.03448)
(198.493 2.10491 0.974032)
(198.943 1.69943 -0.238097)
(199.018 1.26068 -1.56542)
(198.647 0.799315 -2.95582)
(197.765 0.320663 -4.33137)
(196.319 -0.170748 -5.55835)
(194.31 -0.672883 -6.45214)
(191.83 -1.18131 -6.74294)
(189.237 -1.65698 -6.24439)
(198.249 3.31568 1.90686)
(199.165 2.92958 0.843362)
(199.731 2.48829 -0.382167)
(199.89 2.02983 -1.77024)
(199.556 1.57145 -3.26639)
(198.634 1.12012 -4.80191)
(197.038 0.67975 -6.23218)
(194.725 0.241207 -7.34712)
(191.751 -0.212101 -7.78769)
(188.54 -0.684944 -7.29466)
(198.768 1.7017 2.93136)
(199.775 1.1812 1.8406)
(200.418 0.648065 0.522177)
(200.643 0.13704 -0.974184)
(200.347 -0.337735 -2.62458)
(199.419 -0.76383 -4.36129)
(197.736 -1.1301 -6.05531)
(195.21 -1.44919 -7.48188)
(191.828 -1.71372 -8.24128)
(188.033 -1.99241 -7.92704)
(198.345 2.70916 2.37162)
(199.391 2.11071 1.38836)
(200.095 1.55811 0.206099)
(200.368 1.04475 -1.19107)
(200.107 0.616801 -2.76596)
(199.183 0.294111 -4.46705)
(197.454 0.104097 -6.1819)
(194.783 0.0533454 -7.6658)
(191.131 0.130129 -8.55483)
(186.86 0.198038 -8.19698)
(190.244 0.457538 -0.0961119)
(190.265 0.417906 -0.167087)
(190.256 0.374817 -0.256356)
(190.223 0.338088 -0.334692)
(190.171 0.303661 -0.404704)
(190.105 0.272508 -0.46099)
(190.039 0.247459 -0.485698)
(190.027 0.212808 -0.50594)
(190.295 0.135217 -0.467608)
(191.445 -0.110487 -0.464476)
(191.689 1.55689 -0.556248)
(191.723 1.58359 -0.714623)
(191.707 1.57105 -0.84224)
(191.641 1.52598 -0.947741)
(191.529 1.46094 -1.02323)
(191.378 1.38364 -1.05939)
(191.198 1.30218 -1.04772)
(191.005 1.22253 -0.981897)
(190.817 1.15422 -0.856312)
(190.649 1.10218 -0.68788)
(192.796 1.41772 -0.137403)
(192.884 1.36078 -0.437743)
(192.882 1.26507 -0.733211)
(192.789 1.14157 -1.00902)
(192.606 0.997166 -1.24836)
(192.342 0.836728 -1.4296)
(192.013 0.664413 -1.53196)
(191.645 0.484433 -1.53826)
(191.269 0.302564 -1.43357)
(190.926 0.127106 -1.23231)
(193.804 2.23916 -0.148744)
(193.984 2.18747 -0.584431)
(194.028 2.07427 -1.01526)
(193.926 1.91449 -1.43467)
(193.675 1.72286 -1.81408)
(193.283 1.50789 -2.1193)
(192.767 1.27718 -2.31287)
(192.164 1.03909 -2.35905)
(191.527 0.804383 -2.22808)
(190.929 0.588598 -1.91503)
(194.835 1.8479 0.57328)
(195.136 1.71099 -0.0315179)
(195.254 1.51669 -0.672613)
(195.169 1.27894 -1.32273)
(194.869 1.00833 -1.94274)
(194.351 0.711824 -2.48419)
(193.632 0.396944 -2.88782)
(192.754 0.0718737 -3.09181)
(191.791 -0.252527 -3.03276)
(190.864 -0.554776 -2.69244)
(195.604 2.62735 0.66296)
(196.045 2.46132 -0.0505127)
(196.257 2.22805 -0.819639)
(196.21 1.94926 -1.62706)
(195.878 1.63878 -2.42321)
(195.244 1.30355 -3.14865)
(194.315 0.950673 -3.72089)
(193.133 0.585624 -4.04657)
(191.788 0.216705 -4.01823)
(190.462 -0.141555 -3.58762)
(196.443 1.84782 1.54158)
(197.023 1.57981 0.702256)
(197.333 1.25843 -0.24677)
(197.337 0.907364 -1.26407)
(196.992 0.536487 -2.30188)
(196.263 0.152389 -3.29154)
(195.138 -0.239669 -4.13209)
(193.65 -0.635387 -4.69552)
(191.894 -1.02833 -4.82308)
(190.117 -1.38666 -4.40917)
(196.906 2.77698 1.33445)
(197.605 2.47972 0.484084)
(198.007 2.13185 -0.483027)
(198.066 1.76752 -1.55714)
(197.725 1.40196 -2.68419)
(196.932 1.04319 -3.79702)
(195.65 0.696023 -4.77901)
(193.891 0.354832 -5.47802)
(191.744 0.00834898 -5.6688)
(189.509 -0.348292 -5.20692)
(197.422 1.16528 2.36002)
(198.203 0.744867 1.46298)
(198.667 0.30996 0.383932)
(198.773 -0.105236 -0.814372)
(198.448 -0.490049 -2.10425)
(197.623 -0.831941 -3.41181)
(196.238 -1.12204 -4.62607)
(194.276 -1.37076 -5.57052)
(191.797 -1.56847 -5.99011)
(189.134 -1.7658 -5.64325)
(196.989 2.35422 1.72414)
(197.803 1.87418 0.924252)
(198.319 1.43196 -0.0328909)
(198.46 1.02544 -1.14352)
(198.153 0.691988 -2.36638)
(197.313 0.449022 -3.63853)
(195.867 0.314744 -4.85731)
(193.762 0.28959 -5.82136)
(191.052 0.356946 -6.29474)
(188.046 0.410545 -5.85606)
(190.527 0.250241 -0.0353023)
(190.546 0.224306 -0.0706995)
(190.543 0.195113 -0.127932)
(190.528 0.173032 -0.176153)
(190.501 0.152637 -0.222027)
(190.467 0.134816 -0.262263)
(190.435 0.122619 -0.28041)
(190.452 0.101219 -0.306985)
(190.727 0.03999 -0.283012)
(191.905 -0.193773 -0.312784)
(191.671 1.21935 -0.482987)
(191.694 1.26143 -0.574073)
(191.687 1.2711 -0.638559)
(191.65 1.25299 -0.68549)
(191.587 1.21768 -0.712273)
(191.501 1.17193 -0.714002)
(191.399 1.12298 -0.686534)
(191.29 1.07608 -0.62663)
(191.185 1.04002 -0.531814)
(191.091 1.01738 -0.412623)
(192.455 0.97012 -0.100289)
(192.513 0.93237 -0.296809)
(192.513 0.867331 -0.489231)
(192.454 0.782058 -0.666402)
(192.339 0.680921 -0.817489)
(192.175 0.5673 -0.929212)
(191.973 0.444284 -0.989455)
(191.749 0.314767 -0.989082)
(191.522 0.182264 -0.920117)
(191.316 0.0515124 -0.79599)
(193.226 1.76077 -0.216809)
(193.347 1.73869 -0.511915)
(193.374 1.66644 -0.79674)
(193.301 1.55623 -1.06798)
(193.129 1.42006 -1.30613)
(192.866 1.26529 -1.48866)
(192.526 1.0985 -1.59278)
(192.137 0.926901 -1.59863)
(191.732 0.759515 -1.49238)
(191.355 0.608273 -1.27364)
(194.043 1.34648 0.38934)
(194.252 1.25055 -0.0483958)
(194.327 1.10865 -0.506692)
(194.256 0.931158 -0.963232)
(194.033 0.726837 -1.38871)
(193.663 0.502191 -1.74882)
(193.164 0.264052 -2.00513)
(192.571 0.0198437 -2.12104)
(191.935 -0.221372 -2.06293)
(191.332 -0.444134 -1.82706)
(194.665 2.10532 0.375438)
(194.98 1.99034 -0.15282)
(195.119 1.81946 -0.71338)
(195.063 1.61009 -1.29063)
(194.798 1.37425 -1.84507)
(194.321 1.11884 -2.33159)
(193.648 0.850737 -2.69373)
(192.818 0.575501 -2.87307)
(191.904 0.301156 -2.81006)
(191.02 0.0360589 -2.48549)
(195.405 1.33286 1.16145)
(195.829 1.12863 0.51448)
(196.04 0.879935 -0.209483)
(196.01 0.605622 -0.970726)
(195.715 0.314548 -1.72862)
(195.142 0.013555 -2.42755)
(194.298 -0.291997 -2.99516)
(193.222 -0.596736 -3.34633)
(191.999 -0.894162 -3.39213)