/*--------------------------------*- C++ -*----------------------------------*\
| =========                 |                                                 |
| \\      /  F ield         | foam-extend: Open Source CFD                    |
|  \\    /   O peration     | Version:     4.0                                |
|   \\  /    A nd           | Web:         http://www.foam-extend.org         |
|    \\/     M anipulation  |                                                 |
\*---------------------------------------------------------------------------*/
FoamFile
{
    version     2.0;
    format      ascii;
    class       volScalarField;
    location    "3700";
    object      divFlux;
}
// * * * * * * * * * * * * * * * * * * * * * * * * * * * * * * * * * * * * * //

dimensions      [1 -3 -1 0 0 0 0];

internalField   nonuniform List<scalar> 
34480
(
2.30143e-05
8.43251e-06
8.57802e-06
7.91735e-06
7.33536e-06
6.87816e-06
6.53021e-06
0.0002988
0.000179948
5.8257e-06
6.48134e-06
3.71113e-06
3.51509e-06
3.26211e-06
3.07843e-06
2.9959e-06
2.99011e-06
2.99383e-06
0.00346444
2.89257e-06
1.8617e-06
1.19112e-06
1.14443e-06
1.09114e-06
1.07327e-06
1.10942e-06
1.17036e-06
1.21105e-06
0.00334097
1.19547e-06
6.87595e-07
4.28831e-07
4.43836e-07
4.19972e-07
4.19934e-07
4.42538e-07
4.71022e-07
4.86487e-07
0.000801249
4.83546e-07
2.79138e-07
1.66913e-07
1.86092e-07
1.73393e-07
1.74179e-07
1.84194e-07
1.95321e-07
2.01278e-07
2.04812e-07
2.00623e-07
9.65284e-08
8.71712e-08
7.43991e-08
7.81792e-08
7.5831e-08
8.14438e-08
8.45939e-08
8.65985e-08
8.82594e-08
8.69994e-08
4.21283e-08
3.80809e-08
3.3499e-08
3.65027e-08
3.4059e-08
3.70627e-08
3.84373e-08
4.02701e-08
3.94555e-08
3.9201e-08
1.62429e-08
2.80414e-08
1.48455e-08
1.86485e-08
1.68157e-08
1.77321e-08
1.86485e-08
1.92899e-08
1.97939e-08
1.90608e-08
3.46248e-08
1.91608e-09
1.49954e-08
9.33048e-09
9.20552e-09
1.09966e-08
9.28882e-09
1.06634e-08
1.02885e-08
1.09966e-08
5.94696e-09
1.64186e-08
2.40551e-09
1.02712e-08
6.49107e-09
7.48382e-09
6.30016e-09
7.02563e-09
6.6438e-09
7.33109e-09
3.13819e-05
1.08852e-05
1.08862e-05
1.01915e-05
9.56959e-06
9.09735e-06
8.78711e-06
8.62557e-06
8.61311e-06
0.00106513
9.98367e-06
5.3449e-06
5.12373e-06
4.80916e-06
4.5898e-06
4.49454e-06
4.49896e-06
4.58415e-06
4.73696e-06
0.00345611
3.54788e-06
1.93902e-06
1.87658e-06
1.81852e-06
1.81413e-06
1.87998e-06
1.97736e-06
2.08938e-06
2.20733e-06
0.00431065
1.81784e-06
7.50351e-07
8.23295e-07
7.95147e-07
8.06293e-07
8.4729e-07
8.96736e-07
9.54063e-07
1.00933e-06
0.00149775
1.3309e-06
2.63178e-07
3.80497e-07
3.76238e-07
3.66076e-07
3.96927e-07
4.14695e-07
4.422e-07
4.68122e-07
4.79676e-07
5.49415e-07
1.99452e-07
1.33749e-07
2.0845e-07
1.65003e-07
1.95459e-07
1.97642e-07
2.11858e-07
2.25329e-07
2.27958e-07
4.95995e-07
1.46291e-07
2.74029e-08
1.62146e-07
6.06272e-08
9.98149e-08
9.90576e-08
1.05068e-07
1.11884e-07
1.13398e-07
4.91278e-07
2.6064e-07
7.96957e-08
1.10364e-07
2.60683e-08
5.69499e-08
5.24773e-08
5.63109e-08
6.08686e-08
6.1843e-08
2.11979e-07
7.28379e-08
2.10266e-08
5.72712e-08
2.35436e-08
3.3689e-08
3.48119e-08
3.62834e-08
3.76e-08
3.8631e-08
6.64459e-07
1.9498e-07
1.25549e-07
8.9308e-08
7.84463e-09
2.69415e-08
2.719e-08
2.64446e-08
3.01361e-08
3.07573e-08
2.91991e-05
8.23586e-06
8.47174e-06
7.97564e-06
7.51274e-06
7.18259e-06
7.0039e-06
6.98081e-06
3.15333e-05
0.000873466
8.7658e-06
3.8466e-06
3.75578e-06
3.52041e-06
3.3244e-06
3.19502e-06
3.15319e-06
3.22447e-06
8.09646e-05
0.00135298
2.62364e-06
1.36285e-06
1.31473e-06
1.24797e-06
1.19689e-06
1.1763e-06
1.19642e-06
1.27395e-06
0.000120196
0.00127401
1.1007e-06
4.90884e-07
5.28271e-07
4.98935e-07
4.83756e-07
4.76497e-07
4.88673e-07
5.24971e-07
5.88361e-07
7.37565e-07
5.78407e-07
1.68235e-07
2.26105e-07
2.13773e-07
2.0591e-07
2.01724e-07
2.06362e-07
2.22541e-07
2.52607e-07
3.21854e-07
1.61671e-07
1.19933e-07
8.55318e-08
9.95396e-08
8.96401e-08
8.88976e-08
9.12735e-08
9.84507e-08
1.11815e-07
1.4582e-07
1.24309e-07
5.54813e-08
2.74986e-08
5.43813e-08
3.89821e-08
4.1226e-08
4.23259e-08
4.51418e-08
5.22254e-08
6.96046e-08
9.42384e-08
8.33539e-08
3.9598e-09
2.93026e-08
1.85715e-08
2.15017e-08
2.09474e-08
2.28085e-08
2.65703e-08
3.54106e-08
7.48307e-08
2.41548e-08
3.02745e-08
1.28514e-08
1.12314e-08
1.39313e-08
1.21314e-08
1.29594e-08
1.63792e-08
2.21074e-08
2.78718e-08
3.70902e-08
2.036e-08
2.32309e-08
3.82781e-09
9.33854e-09
8.64557e-09
9.10755e-09
1.04935e-08
1.5963e-08
2.87383e-05
7.44165e-06
7.71323e-06
7.28495e-06
6.87702e-06
6.59096e-06
6.44067e-06
6.43748e-06
1.64106e-05
0.000373415
8.76505e-06
3.58477e-06
3.51888e-06
3.3016e-06
3.11901e-06
2.98806e-06
2.92419e-06
2.94563e-06
3.47336e-05
0.00114384
2.53684e-06
1.33789e-06
1.28786e-06
1.21563e-06
1.15397e-06
1.11455e-06
1.10656e-06
1.14437e-06
0.000121642
0.00228927
1.04751e-06
5.18739e-07
5.29537e-07
4.95087e-07
4.72356e-07
4.56987e-07
4.55269e-07
4.76313e-07
0.000112967
0.00210499
5.03588e-07
1.98731e-07
2.2655e-07
2.11562e-07
2.0299e-07
1.96312e-07
1.95102e-07
2.05199e-07
4.50413e-05
0.00156919
1.241e-07
1.32798e-07
8.82562e-08
9.76432e-08
9.11551e-08
8.75199e-08
8.71518e-08
9.22594e-08
1.07146e-05
0.000986259
8.06273e-08
7.01468e-08
2.94494e-08
5.0882e-08
4.18427e-08
4.01657e-08
4.06156e-08
4.33561e-08
4.91641e-08
0.000414414
6.26616e-08
7.18565e-08
8.02496e-09
2.86027e-08
1.96207e-08
2.06882e-08
2.07986e-08
2.24552e-08
2.54001e-08
0.000155835
8.78075e-08
2.10831e-08
2.57348e-08
1.51263e-08
1.19806e-08
1.41893e-08
1.34196e-08
1.36873e-08
1.53605e-08
2.16457e-08
1.81585e-08
5.1107e-08
1.81911e-08
2.16883e-08
4.78553e-09
1.043e-08
8.58941e-09
9.63241e-09
1.08288e-08
1.55127e-08
2.78695e-05
6.61097e-06
6.91109e-06
6.54748e-06
6.19654e-06
5.94521e-06
5.81124e-06
5.79515e-06
2.08774e-05
0.00014289
8.54031e-06
3.28924e-06
3.23701e-06
3.03994e-06
2.87623e-06
2.75954e-06
2.69456e-06
2.68412e-06
3.88974e-06
0.000578818
2.51267e-06
1.26531e-06
1.22089e-06
1.15665e-06
1.09718e-06
1.05296e-06
1.03133e-06
1.0379e-06
7.6315e-05
0.00133423
1.00011e-06
5.07847e-07
5.17429e-07
4.83607e-07
4.58796e-07
4.4103e-07
4.32075e-07
4.36296e-07
7.86824e-05
0.00141967
4.57302e-07
2.08311e-07
2.264e-07
2.07969e-07
1.9868e-07
1.91347e-07
1.87974e-07
1.90614e-07
5.28141e-05
0.00127876
1.02414e-07
1.36629e-07
9.02164e-08
9.48363e-08
8.97459e-08
8.60671e-08
8.36716e-08
8.66232e-08
3.99518e-05
0.00101456
4.8408e-08
7.89756e-08
3.0229e-08
4.85565e-08
4.15601e-08
4.03814e-08
3.95068e-08
4.02673e-08
5.82267e-06
0.00066555
5.03184e-08
6.68004e-08
1.04033e-08
2.61452e-08
2.1628e-08
2.09093e-08
2.0088e-08
2.12173e-08
8.55733e-06
0.000498169
9.32332e-08
1.51197e-08
1.92574e-08
1.70796e-08
1.13864e-08
1.30353e-08
1.31597e-08
1.35642e-08
1.50575e-08
0.000305042
4.93498e-08
5.9688e-08
1.80804e-08
2.03618e-08
5.93173e-09
8.98314e-09
8.64093e-09
9.52498e-09
1.04376e-08
0.000401875
2.66216e-05
5.76747e-06
6.07338e-06
5.77277e-06
5.47142e-06
5.25382e-06
5.13353e-06
5.10928e-06
5.18255e-06
2.41669e-05
8.10847e-06
2.96466e-06
2.93583e-06
2.75394e-06
2.60517e-06
2.49919e-06
2.43624e-06
2.41819e-06
1.5862e-05
0.000222541
2.484e-06
1.18477e-06
1.13517e-06
1.07759e-06
1.02312e-06
9.82401e-07
9.5571e-07
9.47343e-07
3.48677e-05
0.000718063
9.77914e-07
4.72245e-07
4.86985e-07
4.5899e-07
4.35951e-07
4.18136e-07
4.06338e-07
4.03289e-07
4.13728e-05
0.00084736
4.32494e-07
1.97289e-07
2.21649e-07
2.01834e-07
1.92199e-07
1.84018e-07
1.79519e-07
1.78565e-07
3.66829e-05
0.000862607
9.21517e-08
1.31549e-07
9.37703e-08
9.12253e-08
8.77258e-08
8.39877e-08
8.26754e-08
8.10449e-08
3.49472e-05
0.000778602
2.40976e-08
8.28212e-08
3.33688e-08
4.51752e-08
4.15697e-08
3.96962e-08
3.87418e-08
3.86358e-08
1.91615e-05
0.000593106
4.62047e-08
6.37861e-08
1.24391e-08
2.45918e-08
2.05833e-08
2.0297e-08
2.0138e-08
2.04879e-08
2.58951e-05
0.000523052
9.11914e-08
5.72643e-09
1.30725e-08
1.82783e-08
1.16553e-08
1.32749e-08
1.29279e-08
1.34195e-08
9.46386e-06
0.000445854
6.9184e-08
6.50321e-08
1.68877e-08
1.93532e-08
5.96503e-09
8.96081e-09
8.53663e-09
8.74872e-09
2.58441e-05
0.000522226
2.50965e-05
4.96852e-06
5.27073e-06
5.02171e-06
4.75304e-06
4.56211e-06
4.44541e-06
4.4113e-06
4.44529e-06
2.19745e-06
7.53183e-06
2.58825e-06
2.59398e-06
2.44433e-06
2.31413e-06
2.21894e-06
2.1613e-06
2.13853e-06
1.0674e-05
7.10936e-05
2.34798e-06
1.09581e-06
1.03607e-06
9.81327e-07
9.34983e-07
8.97009e-07
8.71781e-07
8.58029e-07
1.33467e-05
0.000377855
9.80706e-07
4.40002e-07
4.4954e-07
4.26471e-07
4.06459e-07
3.8965e-07
3.7787e-07
3.70722e-07
1.62777e-05
0.000489933
4.29183e-07
1.75802e-07
2.06856e-07
1.91392e-07
1.81379e-07
1.74239e-07
1.68704e-07
1.66423e-07
1.73621e-05
0.000542149
9.2944e-08
1.15675e-07
9.34569e-08
8.72462e-08
8.3882e-08
8.02591e-08
7.78191e-08
7.67471e-08
1.9936e-05
0.000535761
7.34702e-09
8.06082e-08
3.66401e-08
4.21608e-08
4.03205e-08
3.82174e-08
3.72645e-08
3.70673e-08
1.5718e-05
0.000440761
4.61175e-08
5.85584e-08
1.50537e-08
2.26249e-08
2.01701e-08
2.02589e-08
1.91054e-08
1.89871e-08
2.53304e-05
0.000432124
7.87534e-08
6.26452e-09
6.21074e-09
1.86053e-08
1.11578e-08
1.26097e-08
1.2529e-08
1.24753e-08
1.92441e-05
0.000408072
8.64796e-08
6.84907e-08
1.60444e-08
1.6562e-08
6.95012e-09
8.28099e-09
8.15776e-09
9.06966e-09
3.2829e-05
0.00046775
2.3138e-05
4.15303e-06
4.46586e-06
4.27769e-06
4.05682e-06
3.89019e-06
3.78825e-06
3.75567e-06
3.78436e-06
4.02933e-06
6.98977e-06
2.21622e-06
2.24299e-06
2.12006e-06
2.01039e-06
1.92805e-06
1.87622e-06
1.84986e-06
3.05928e-06
1.45144e-05
2.12278e-06
9.96628e-07
9.31385e-07
8.76754e-07
8.34468e-07
7.99936e-07
7.76566e-07
7.61884e-07
4.77089e-06
0.000180609
9.29638e-07
4.07208e-07
4.07414e-07
3.87481e-07
3.69244e-07
3.55015e-07
3.43835e-07
3.35586e-07
5.16426e-06
0.000266693
4.45107e-07
1.56008e-07
1.87077e-07
1.77414e-07
1.67831e-07
1.61075e-07
1.56205e-07
1.52709e-07
5.66114e-06
0.000321383
1.08797e-07
9.4751e-08
8.95271e-08
8.19319e-08
7.81859e-08
7.52647e-08
7.30308e-08
7.15186e-08
7.7756e-06
0.000349497
1.36945e-09
7.14842e-08
3.81249e-08
3.90414e-08
3.78805e-08
3.64142e-08
3.49173e-08
3.46424e-08
8.65488e-06
0.000302133
4.55553e-08
5.2376e-08
1.74037e-08
2.08129e-08
1.91358e-08
1.91908e-08
1.84209e-08
1.84484e-08
1.88296e-05
0.000324979
5.76447e-08
1.89708e-08
1.84959e-09
1.77961e-08
1.11975e-08
1.17724e-08
1.20723e-08
1.19224e-08
1.79979e-05
0.000311174
1.00517e-07
7.19425e-08
1.43885e-08
1.40448e-08
7.4921e-09
8.01907e-09
7.90451e-09
8.13362e-09
3.02206e-05
0.000365852
2.11918e-05
3.35556e-06
3.67526e-06
3.55537e-06
3.3809e-06
3.23926e-06
3.14435e-06
3.10833e-06
3.12346e-06
3.31055e-06
6.40048e-06
1.87193e-06
1.9073e-06
1.8104e-06
1.71564e-06
1.64487e-06
1.59669e-06
1.57324e-06
1.56695e-06
5.42982e-07
1.82035e-06
8.66666e-07
8.11177e-07
7.61822e-07
7.26013e-07
6.97335e-07
6.74843e-07
6.61706e-07
1.49246e-06
7.96244e-05
8.36432e-07
3.70887e-07
3.63624e-07
3.44178e-07
3.28523e-07
3.15445e-07
3.052e-07
2.97319e-07
1.4935e-06
0.000135458
4.41104e-07
1.41635e-07
1.66464e-07
1.59673e-07
1.51895e-07
1.45433e-07
1.41161e-07
1.36925e-07
9.17361e-07
0.000176699
1.35235e-07
7.56556e-08
8.13106e-08
7.52722e-08
7.17898e-08
6.87866e-08
6.64223e-08
1.23083e-05
1.27145e-06
0.000214476
7.0885e-09
5.75937e-08
3.91342e-08
3.56979e-08
3.49879e-08
3.34259e-08
3.26592e-08
3.1722e-08
3.42711e-06
0.000189724
3.82623e-08
4.19684e-08
1.99874e-08
1.92717e-08
1.78404e-08
1.78915e-08
1.71503e-08
1.02082e-05
1.2142e-05
0.000226744
3.01284e-08
3.21351e-08
2.30034e-09
1.68459e-08
1.11067e-08
1.07814e-08
1.10835e-08
1.11299e-08
1.34516e-05
0.000213687
1.15924e-07
7.3334e-08
1.1949e-08
1.15017e-08
7.22051e-09
7.11402e-09
7.09272e-09
4.85063e-06
2.41403e-05
0.000263826
1.97813e-05
2.67484e-06
2.9665e-06
2.91199e-06
2.79271e-06
2.67878e-06
2.59506e-06
2.55e-06
2.53554e-06
2.63789e-06
5.65886e-06
1.52542e-06
1.57122e-06
1.49973e-06
1.4272e-06
1.36773e-06
1.32782e-06
1.30673e-06
1.30198e-06
1.23035e-06
1.60035e-06
7.44594e-07
6.94364e-07
6.49788e-07
6.17901e-07
5.92453e-07
5.74823e-07
5.60994e-07
3.69957e-08
3.15736e-05
7.09478e-07
3.23623e-07
3.16693e-07
2.98417e-07
2.84695e-07
2.73032e-07
2.63983e-07
2.56617e-07
3.94846e-07
6.41679e-05
4.04064e-07
1.30583e-07
1.45315e-07
1.39816e-07
1.33909e-07
1.2892e-07
1.2393e-07
1.20705e-07
4.60587e-07
9.08899e-05
1.56478e-07
6.19861e-08
7.13717e-08
6.75106e-08
6.42434e-08
6.12733e-08
5.97586e-08
1.76369e-05
1.46144e-06
0.000125353
2.39112e-08
4.28224e-08
3.71461e-08
3.2262e-08
3.11795e-08
3.05987e-08
2.96219e-08
2.89091e-08
7.30831e-07
0.000108723
2.23152e-08
2.8513e-08
1.94601e-08
1.84384e-08
1.60623e-08
1.59911e-08
1.56822e-08
1.90733e-05
7.1787e-06
0.000149722
1.37334e-09
4.29424e-08
4.12575e-09
1.40621e-08
1.03468e-08
9.82836e-09
9.74195e-09
9.54755e-09
8.69045e-06
0.000136039
1.31157e-07
7.20152e-08
7.10846e-09
7.92029e-09
7.54407e-09
6.71244e-09
6.49464e-09
1.02176e-05
1.77043e-05
0.000179862
1.76996e-05
2.02937e-06
2.22997e-06
2.20864e-06
2.15772e-06
2.11411e-06
2.0803e-06
2.07143e-06
2.09847e-06
2.21895e-06
4.9772e-06
1.23701e-06
1.27354e-06
1.21671e-06
1.16119e-06
1.11353e-06
1.08095e-06
1.05729e-06
1.04387e-06
9.65061e-07
1.33116e-06
6.17209e-07
5.77979e-07
5.37866e-07
5.10564e-07
4.91258e-07
4.75133e-07
4.64354e-07
4.55386e-07
1.07625e-05
6.0545e-07
2.7232e-07
2.68583e-07
2.52108e-07
2.40493e-07
2.30093e-07
2.22712e-07
2.1638e-07
5.41179e-09
2.73115e-05
3.38798e-07
1.18491e-07
1.24771e-07
1.19754e-07
1.15367e-07
1.09246e-07
1.06248e-07
1.02966e-07
5.93719e-07
4.38962e-05
1.59466e-07
5.17709e-08
6.10759e-08
5.79559e-08
5.59678e-08
5.37866e-08
5.12463e-08
1.69084e-05
2.34303e-06
7.11803e-05
4.41648e-08
2.9501e-08
3.37961e-08
2.85684e-08
2.8053e-08
2.73167e-08
2.55986e-08
2.52059e-08
2.51765e-07
5.6514e-05
6.91763e-09
1.37614e-08
1.84443e-08
1.70968e-08
1.4402e-08
1.42915e-08
9.19872e-07
2.12301e-05
3.90497e-06
9.59369e-05
3.48425e-08
5.14471e-08
3.91577e-09
1.14461e-08
1.02212e-08
8.53436e-09
8.95606e-09
8.95606e-09
4.80268e-06
7.97278e-05
1.39289e-07
6.47758e-08
1.67508e-09
5.79835e-09
6.29535e-09
6.03764e-09
5.90879e-09
1.12707e-05
1.22229e-05
0.000117463
1.64082e-05
1.94823e-06
1.87442e-06
1.66142e-06
1.52211e-06
1.43315e-06
1.38294e-06
1.3438e-06
1.30417e-06
1.27558e-06
4.16525e-06
9.83687e-07
1.00309e-06
9.56633e-07
9.09121e-07
8.71773e-07
8.46105e-07
8.33502e-07
8.27316e-07
7.73351e-07
1.09444e-06
4.98232e-07
4.70798e-07
4.36423e-07
4.12685e-07
3.93855e-07
3.80487e-07
3.70507e-07
3.61431e-07
3.32609e-06
5.19814e-07
2.18677e-07
2.19669e-07
2.07297e-07
1.97749e-07
1.89227e-07
1.82399e-07
1.76975e-07
1.71704e-07
8.90667e-06
2.66856e-07
1.03935e-07
1.03847e-07
9.98864e-08
9.57208e-08
9.18486e-08
8.8211e-08
8.59229e-08
3.83529e-07
1.96991e-05
1.43862e-07
4.57923e-08
5.08746e-08
4.91548e-08
4.705e-08
4.52276e-08
1.22202e-06
1.43415e-05
2.41901e-06
3.97337e-05
5.88842e-08
1.9622e-08
2.89995e-08
2.49382e-08
2.31813e-08
2.25881e-08
2.23371e-08
2.13789e-08
2.60174e-07
2.53182e-05
4.25736e-08
9.03525e-10
1.43537e-08
1.56063e-08
1.22797e-08
1.23824e-08
1.64638e-05
2.03581e-05
1.87063e-06
6.08023e-05
6.58041e-08
5.60409e-08
2.65084e-09
8.86724e-09
8.02718e-09
8.17653e-09
7.97118e-09
7.69116e-09
2.03657e-06
4.14623e-05
1.36053e-07
5.23805e-08
3.9187e-09
3.85025e-09
5.71548e-09
5.06522e-09
5.0481e-09
1.01989e-05
8.06993e-06
7.41551e-05
1.01857e-05
3.01414e-06
2.8451e-06
2.54831e-06
2.36291e-06
2.24546e-06
2.1953e-06
2.21877e-06
2.31228e-06
2.50019e-06
3.13023e-06
7.5667e-07
7.72132e-07
7.55047e-07
7.32068e-07
7.08921e-07
6.88376e-07
6.71911e-07
6.48693e-07
5.65095e-07
8.56151e-07
3.74407e-07
3.6427e-07
3.42298e-07
3.24182e-07
3.10915e-07
3.00835e-07
2.93276e-07
3.34376e-07
2.204e-06
4.48802e-07
1.67003e-07
1.72555e-07
1.65508e-07
1.56377e-07
1.49839e-07
1.44096e-07
1.39991e-07
1.35855e-07
6.30768e-08
2.01183e-07
8.60402e-08
8.50312e-08
8.10223e-08
7.69862e-08
7.39591e-08
7.10138e-08
6.86685e-08
1.90516e-07
8.25366e-06
1.15498e-07
3.93726e-08
4.18543e-08
3.9826e-08
3.86329e-08
3.69387e-08
8.91231e-06
1.17371e-05
2.20797e-06
2.213e-05
6.21821e-08
1.24508e-08
2.41379e-08
2.10624e-08
1.89201e-08
1.91958e-08
1.81353e-08
1.77323e-08
1.71383e-08
8.02006e-06
3.00468e-06
6.64323e-09
8.78128e-09
1.34964e-08
1.12057e-08
1.57454e-05
2.42647e-05
1.84968e-05
6.54072e-07
3.88535e-05
9.52648e-08
5.73213e-08
2.77669e-10
6.43845e-09
7.46235e-09
6.24755e-09
6.49051e-09
6.31697e-09
2.83257e-07
1.68903e-05
1.15326e-07
3.57615e-08
7.39728e-09
3.5316e-09
4.43837e-09
4.47018e-09
1.9709e-06
8.36645e-06
5.15896e-06
4.56057e-05
2.60816e-05
1.82015e-06
2.70431e-06
3.02782e-06
3.05707e-06
3.11809e-06
3.20873e-06
3.23624e-06
3.1471e-06
2.9087e-06
3.57789e-06
7.8963e-07
6.25564e-07
5.29378e-07
4.71613e-07
4.30375e-07
4.09279e-07
4.14203e-07
4.43862e-07
4.50933e-07
5.84061e-05
6.81899e-06
9.43111e-06
7.14985e-06
5.87352e-06
4.92558e-06
3.75088e-06
1.5167e-06
1.72271e-06
3.95346e-06
3.91064e-07
1.21342e-07
1.31679e-07
1.27198e-07
1.2044e-07
1.15382e-07
1.10073e-07
1.0608e-07
1.01066e-07
8.49974e-08
1.46979e-07
6.85522e-08
6.59663e-08
6.26959e-08
6.00846e-08
5.73466e-08
5.5293e-08
5.27832e-08
1.18775e-07
3.55432e-06
9.784e-06
3.38514e-08
3.343e-08
3.17219e-08
3.00803e-08
7.39248e-06
1.19456e-05
9.63524e-06
1.95371e-06
1.25575e-05
5.57359e-08
7.55212e-09
1.92057e-08
1.69972e-08
1.5538e-08
1.54e-08
1.46902e-08
1.39606e-08
1.34873e-08
1.26423e-08
5.01624e-05
4.56822e-05
4.11088e-05
3.65272e-05
3.47527e-05
3.2361e-05
2.76207e-05
1.66401e-05
6.9655e-08
2.56449e-05
1.21733e-07
5.44334e-08
2.54904e-09
4.42049e-09
5.71115e-09
5.61435e-09
5.29168e-09
5.14649e-09
5.46915e-09
2.03599e-06
7.53583e-08
1.65042e-08
8.23733e-09
3.4162e-09
3.57888e-09
3.38662e-09
5.09651e-06
6.41081e-06
3.21034e-06
2.74062e-05
0.000100496
1.98524e-05
1.83053e-05
1.67905e-05
1.65598e-05
1.62203e-05
1.51735e-05
1.34122e-05
1.11199e-05
8.40963e-06
1.8213e-06
1.60276e-07
1.32168e-07
2.29133e-07
3.4468e-07
3.97988e-07
3.86997e-07
3.58394e-07
3.56146e-07
3.85435e-07
0.00020086
0.000127904
6.97737e-05
3.98311e-05
2.24447e-05
1.2631e-05
6.50969e-06
1.56879e-06
3.77466e-06
7.07209e-06
3.39378e-07
7.91618e-08
8.88268e-08
9.02703e-08
8.84281e-08
8.56509e-08
8.3355e-08
8.09628e-08
7.68246e-08
6.55256e-08
1.05055e-07
5.19209e-08
4.86449e-08
4.62173e-08
4.45911e-08
4.28942e-08
4.14094e-08
1.72802e-07
1.56965e-07
2.10113e-06
3.93818e-05
3.00281e-05
1.96757e-05
1.57479e-05
1.50448e-05
1.43165e-05
1.23615e-05
7.96319e-06
1.73375e-06
7.37941e-06
4.13962e-08
4.71103e-09
1.39315e-08
1.36198e-08
1.23183e-08
1.13285e-08
1.04119e-08
1.04669e-08
1.07236e-08
9.1844e-09
0.000219093
4.35159e-05
7.9957e-05
7.01601e-05
5.46822e-05
4.07875e-05
2.87289e-05
1.52328e-05
5.33307e-07
1.79889e-05
1.43656e-07
4.76486e-08
5.9242e-09
3.08958e-09
3.89947e-09
4.37941e-09
4.19943e-09
3.88448e-09
4.22943e-09
3.99321e-09
2.30293e-08
9.6237e-10
6.40664e-09
3.64326e-09
2.77713e-09
3.02459e-09
5.27724e-06
4.3967e-06
1.88079e-06
1.56859e-05
0.000451592
3.38679e-05
4.88588e-05
5.5168e-05
5.24145e-05
4.46654e-05
3.51027e-05
2.54236e-05
1.61893e-05
7.25269e-06
1.14826e-05
3.56543e-06
2.00722e-06
1.19927e-06
9.58135e-07
8.78134e-07
7.46678e-07
4.54855e-07
8.60784e-08
9.51501e-07
0.000340789
0.000241623
0.000117347
6.11229e-05
3.07677e-05
1.49799e-05
6.16279e-06
8.03654e-09
6.71715e-06
1.12608e-05
2.77339e-07
5.5034e-08
5.93922e-08
5.83186e-08
5.62226e-08
5.65549e-08
5.55452e-08
5.60309e-08
5.6082e-08
4.46736e-08
1.83499e-05
3.69839e-08
3.38289e-08
2.10006e-07
1.59806e-06
2.41907e-06
2.47172e-06
1.6377e-06
2.38445e-07
1.84283e-06
3.98187e-05
4.50408e-05
3.52172e-05
2.63226e-05
2.00057e-05
1.5163e-05
1.09359e-05
6.35236e-06
1.50679e-06
4.39319e-06
2.47986e-08
1.53369e-09
9.78154e-09
9.88379e-09
8.82725e-09
8.36714e-09
7.60029e-09
7.73662e-09
6.81641e-09
6.62981e-09
0.0004866
1.64769e-05
8.40493e-05
8.30848e-05
6.35614e-05
4.44662e-05
2.88021e-05
1.43534e-05
8.85262e-07
1.36958e-05
1.53543e-07
3.60696e-08
7.30595e-09
2.81642e-09
3.23469e-09
3.19287e-09
2.78853e-09
3.19287e-09
2.57939e-09
3.09366e-09
2.57423e-08
6.83771e-09
3.50193e-09
2.69674e-09
2.31332e-09
3.63101e-08
2.91671e-06
2.18782e-06
9.00187e-07
7.56e-06
0.00104083
0.000234049
0.000213398
0.000157538
0.000108275
7.05697e-05
4.27799e-05
2.2015e-05
5.40254e-06
9.55898e-06
3.56827e-05
2.47349e-06
3.48434e-06
4.08133e-06
3.76834e-06
2.77363e-06
1.3274e-06
4.81127e-07
2.7424e-06
5.43933e-06
0.000488175
0.000365441
0.000159357
7.4924e-05
3.29916e-05
1.30986e-05
3.19135e-06
3.16322e-06
1.06382e-05
1.65861e-05
2.27753e-07
4.53634e-08
4.34623e-08
3.7688e-08
3.0666e-08
2.58659e-08
2.14698e-08
1.91648e-08
1.844e-08
2.65393e-08
5.89387e-05
3.53723e-05
2.04403e-05
1.31812e-05
8.94337e-06
6.16132e-06
4.03394e-06
2.09929e-06
2.8045e-07
1.62818e-06
2.92224e-05
3.71603e-05
3.07131e-05
2.28706e-05
1.66013e-05
1.17846e-05
7.93039e-06
4.42972e-06
1.16668e-06
2.40226e-06
1.2058e-08
1.58419e-10
5.25952e-09
6.82787e-09
5.90904e-09
5.5922e-09
5.13279e-09
4.97437e-09
4.7209e-09
4.67941e-09
0.000834266
0.000119374
6.16594e-05
7.96245e-05
6.31891e-05
4.36832e-05
2.73575e-05
1.33791e-05
1.16367e-06
1.09447e-05
1.44281e-07
2.31235e-08
6.55856e-09
2.57935e-09
2.00905e-09
1.76278e-09
2.15162e-09
2.04793e-09
1.85351e-09
1.83684e-09
5.74844e-08
8.8398e-09
3.08918e-10
1.604e-09
1.20003e-09
1.50894e-09
1.49706e-09
2.6157e-07
2.41728e-07
2.14553e-06
0.00630122
0.000127785
9.50376e-05
5.01798e-05
1.99443e-05
1.97887e-06
8.68714e-06
1.58718e-05
2.22104e-05
2.92658e-05
3.76543e-05
2.86843e-05
2.14969e-05
1.47882e-05
8.97252e-06
4.18325e-06
1.29596e-07
3.65163e-06
7.6941e-06
1.19757e-05
0.000554278
0.000459959
0.000178525
7.50247e-05
2.80191e-05
8.02602e-06
4.89144e-07
5.28304e-06
1.15783e-05
1.80142e-05
1.20115e-07
3.4771e-08
3.52459e-08
2.89832e-08
2.14502e-08
1.02943e-08
1.10454e-11
1.36963e-08
2.67409e-08
5.42052e-08
5.05846e-05
3.42738e-05
1.93686e-05
1.20516e-05
7.73625e-06
4.98916e-06
3.0627e-06
1.53555e-06
2.26652e-07
1.05128e-06
1.65283e-05
1.99992e-05
1.6969e-05
1.268e-05
9.0871e-06
6.30117e-06
4.12589e-06
2.28773e-06
6.75781e-07
1.00179e-06
5.15331e-09
6.47998e-10
2.22381e-09
4.07944e-09
3.7849e-09
2.87181e-09
3.47562e-09
3.51981e-09
2.4889e-09
2.46814e-09
0.00106771
0.000215509
2.05581e-05
5.77177e-05
4.97796e-05
3.49575e-05
2.17493e-05
1.06837e-05
1.19646e-06
7.868e-06
1.18569e-07
1.23508e-08
4.88007e-09
1.97613e-09
1.65079e-09
1.16881e-09
1.09651e-09
1.25315e-09
1.30135e-09
1.14205e-09
1.29495e-06
7.87439e-07
3.42408e-10
9.94087e-10
7.06907e-10
4.96326e-07
8.04935e-07
3.8163e-07
1.9958e-07
1.24555e-06
0.00408775
0.00054139
0.000356172
0.00023956
0.000168576
0.000116114
7.31827e-05
3.74548e-05
2.86202e-06
3.66022e-05
3.1718e-05
1.77937e-05
8.42094e-06
1.70688e-06
2.10343e-06
4.20445e-06
5.53382e-06
6.67211e-06
7.91673e-06
8.65188e-06
0.000287446
0.000372106
0.000124649
4.59828e-05
1.31429e-05
6.06457e-07
4.02126e-06
6.47787e-06
1.02176e-05
1.48981e-05
6.72424e-08
7.06453e-09
1.64805e-08
3.25297e-08
4.42457e-08
5.49144e-08
6.32624e-08
6.95055e-08
7.32739e-08
7.1066e-08
2.06422e-05
1.52867e-05
8.38018e-06
5.05771e-06
3.14256e-06
1.96055e-06
1.17095e-06
5.83334e-07
9.49663e-08
3.88476e-07
6.22381e-06
5.83795e-06
4.94887e-06
3.69523e-06
2.62981e-06
1.80121e-06
1.16389e-06
6.48514e-07
2.14446e-07
2.34567e-07
2.41832e-09
1.08158e-09
4.65492e-10
1.8209e-09
1.25957e-09
1.8209e-09
1.36909e-09
1.2048e-09
1.57446e-09
8.39633e-10
0.000713947
0.000178252
8.18635e-06
2.39232e-05
2.358e-05
1.70905e-05
1.07012e-05
5.31698e-06
7.12154e-07
3.6483e-06
8.46865e-08
1.46742e-09
1.62424e-09
8.62529e-10
9.07336e-10
5.93689e-10
4.81672e-10
5.71286e-10
3.92059e-10
1.11084e-09
9.12601e-05
0.000129185
8.53968e-05
5.05333e-05
2.88855e-05
1.62635e-05
8.70257e-06
3.48945e-06
8.38718e-07
5.55251e-06
0.00885214
0.000674636
0.000507552
0.000385413
0.000291089
0.000216549
0.000156581
0.000107623
6.63937e-05
3.29693e-05
2.02498e-05
4.24958e-05
2.95171e-05
1.9503e-05
1.26488e-05
8.03632e-06
4.79989e-06
2.23187e-06
3.1717e-07
3.51771e-06
9.71356e-05
8.33712e-05
1.96022e-05
5.48057e-06
2.22338e-07
1.31295e-06
1.65567e-06
1.84981e-06
2.47259e-06
3.73487e-06
3.34695e-08
3.45936e-08
1.82418e-08
5.65105e-09
4.95421e-09
1.48817e-08
2.43415e-08
3.48322e-08
4.22588e-08
5.2444e-08
1.69923e-06
1.78641e-06
9.38003e-07
5.49864e-07
3.30292e-07
1.99805e-07
1.16168e-07
5.7405e-08
9.27841e-09
4.7423e-08
7.87547e-07
4.52194e-07
3.69619e-07
2.71236e-07
1.90107e-07
1.27635e-07
8.04558e-08
4.44877e-08
1.65236e-08
1.61943e-08
2.39138e-09
7.76383e-10
6.10924e-10
5.21831e-10
5.34559e-10
7.63655e-10
5.72741e-10
9.29114e-10
5.09103e-10
4.83648e-10
5.29871e-05
2.82738e-05
2.47288e-06
2.68988e-06
2.97474e-06
2.21211e-06
1.39186e-06
6.9123e-07
9.13522e-08
4.93085e-07
2.96537e-08
6.24809e-10
6.24809e-11
2.81164e-10
4.16539e-11
3.64472e-10
2.81164e-10
4.99847e-10
1.14548e-10
3.64472e-10
0.000264429
0.000159953
9.48291e-05
5.41251e-05
3.04297e-05
1.68763e-05
8.83056e-06
3.50065e-06
8.55504e-07
5.43803e-06
0.52606
0.419
0.53019
0.919681
0.686149
0.623884
0.739222
1.1157
0.849557
0.791469
0.937822
1.44121
0.616589
0.593139
0.702703
1.09968
0.45042
0.448991
0.533142
0.863167
0.298318
0.294839
0.365722
0.622349
0.198536
0.189527
0.253155
0.454815
0.128109
0.118149
0.169291
0.315336
0.0884492
0.080806
0.121994
0.230776
0.0666259
0.0615038
0.0992554
0.187864
0.0358351
0.00179523
1.69332e-05
0.0190174
0.0785143
0.00652043
1.25903e-05
0.0409465
0.13661
0.015201
6.77361e-06
0.0704168
0.124969
0.0170189
3.48604e-06
0.0603736
0.110266
0.016987
1.79538e-06
0.048911
0.085306
0.0142322
9.20737e-07
0.0375644
0.0643813
0.011057
4.86204e-07
0.0305112
0.0464007
0.00833081
2.80334e-07
0.0231792
0.035686
0.00713514
0.00103951
0.018415
0.0300646
0.00823519
0.00381684
0.0154848
0.0171084
0.0134518
0.0141296
0.0196828
0.038715
0.0266642
0.0261756
0.0408102
0.0749394
0.048685
0.0492542
0.0796655
0.0710426
0.0430678
0.0446813
0.0749884
0.0650815
0.0370541
0.0395601
0.0699463
0.0519673
0.0280296
0.030669
0.0566758
0.0403889
0.0206437
0.0232217
0.0451834
0.0299062
0.0145269
0.016677
0.0336533
0.0234541
0.0104435
0.0123814
0.025963
0.0200486
0.00849464
0.0105574
0.0215044
0.00192258
0.00138956
0.00133825
0.00195021
0.00609371
0.0041738
0.00386283
0.00631469
0.0162334
0.0110075
0.0104763
0.0165932
0.0190406
0.0125529
0.0123927
0.0189673
0.0207092
0.013166
0.0135999
0.0207259
0.018941
0.0116257
0.0124421
0.019033
0.0164111
0.00966645
0.010684
0.0167299
0.0133727
0.0075973
0.00859843
0.0136595
0.0111745
0.00582949
0.00690725
0.0112255
0.00992625
0.00507514
0.0064738
0.0100644
0.000609701
0.000570235
0.000600083
0.000817801
0.0022666
0.00210346
0.0023648
0.00340724
0.00609126
0.00574146
0.00640245
0.00889153
0.00729117
0.00654663
0.00705715
0.00959845
0.00837678
0.00713225
0.00763042
0.0103463
0.00813166
0.00655626
0.00703792
0.00951144
0.00744994
0.00567896
0.0061757
0.00840865
0.00647983
0.00468862
0.00517012
0.00704481
0.00582728
0.00386936
0.0044542
0.00604055
0.0055787
0.00368565
0.00455606
0.00582008
0.000111167
0.000104517
0.000104432
0.000163755
0.00076592
0.000721575
0.000845603
0.00123432
0.00245366
0.00248803
0.00298566
0.00410832
0.00301834
0.00305217
0.00354203
0.00471661
0.00358249
0.00354891
0.00403677
0.00531159
0.00361222
0.00344732
0.00386684
0.00503391
0.00342188
0.00312813
0.00349071
0.00451677
0.00315005
0.00273475
0.00304365
0.00389539
0.00305022
0.00243732
0.00279052
0.00346733
0.00302389
0.00237852
0.00288927
0.00336489
9.12523e-06
9.48759e-06
4.91075e-06
2.37132e-05
0.000270313
0.000251362
0.000300815
0.000459652
0.00117292
0.00119763
0.00147997
0.00206792
0.00149119
0.00157053
0.0018956
0.00252699
0.00179824
0.00191271
0.00227499
0.00297592
0.00184166
0.00193068
0.00225941
0.00291415
0.00174724
0.00179439
0.00207734
0.00264527
0.00166773
0.00164099
0.00187233
0.00234986
0.00169345
0.00155369
0.00178695
0.0021369
0.0016915
0.00153036
0.00182743
0.00205444
1.41078e-05
5.08175e-06
4.88374e-06
5.03206e-06
7.4609e-05
6.29975e-05
7.52473e-05
0.000129117
0.000535922
0.000528892
0.00065955
0.000946927
0.000754856
0.000795185
0.000971974
0.00130402
0.00095425
0.00103483
0.00125458
0.00164625
0.00102009
0.0011072
0.00132543
0.0017123
0.000970439
0.00105358
0.00125001
0.00158485
0.000958287
0.00100956
0.00117561
0.00146767
0.000960429
0.000964908
0.0011126
0.00131007
0.000974537
0.000977952
0.00115279
0.00128345
1.15171e-05
4.01596e-06
3.88772e-06
4.01813e-06
1.14292e-05
5.92644e-06
5.77515e-06
1.98845e-05
0.000232432
0.000209967
0.00026176
0.000400737
0.000376678
0.000390715
0.000479236
0.000649071
0.000503185
0.000547915
0.000669805
0.000883251
0.000577156
0.000634718
0.000767319
0.000995331
0.000553613
0.00061832
0.000742272
0.000938731
0.000573865
0.000626858
0.000738056
0.000920928
0.000547302
0.00058321
0.000672162
0.00078852
0.000578558
0.000623221
0.000727018
0.000808971
8.74414e-06
2.89018e-06
2.80004e-06
2.88476e-06
2.75246e-06
1.08646e-06
1.05453e-06
1.16849e-06
8.74628e-05
6.04306e-05
7.35512e-05
0.000138203
0.000181393
0.000181808
0.000222479
0.000305674
0.000256016
0.000276543
0.000339605
0.000451627
0.000321229
0.000353645
0.000429652
0.000561324
0.000306899
0.000348835
0.000421249
0.000531122
0.000343166
0.00038185
0.000452261
0.000566244
0.000313162
0.000345812
0.000398348
0.000467862
0.000349464
0.00039313
0.000455116
0.000507341
7.69035e-06
2.56791e-06
2.47519e-06
2.53143e-06
2.24244e-06
7.87136e-07
7.67032e-07
8.57668e-07
2.20736e-05
3.37842e-07
3.25204e-07
2.16857e-05
8.31268e-05
7.84746e-05
9.50585e-05
0.000133259
0.000125072
0.000132326
0.000162995
0.000219995
0.000176714
0.000192847
0.000235083
0.000310819
0.000163064
0.000187687
0.000227599
0.00028551
0.000204339
0.000228593
0.000271965
0.000343249
0.000177016
0.000199294
0.000229544
0.000270118
0.000211751
0.000243985
0.000281405
0.000314
2.96257e-06
8.48538e-07
9.13843e-07
1.00907e-06
1.67399e-06
5.64321e-07
5.57801e-07
6.18549e-07
6.65386e-07
2.47985e-07
2.41857e-07
2.72624e-07
3.47185e-05
2.94447e-05
3.46636e-05
4.97463e-05
5.73188e-05
5.83111e-05
7.1961e-05
9.96363e-05
9.61074e-05
0.000103052
0.000125922
0.000169501
8.10962e-05
9.46416e-05
0.000115192
0.000142852
0.000121695
0.000135367
0.000161747
0.000206996
9.54791e-05
0.000108524
0.000124959
0.000147062
0.000127066
0.000148139
0.000170968
0.000190471
1.05802e-05
2.9546e-06
2.57379e-06
2.35962e-06
1.2853e-06
4.37903e-07
4.31415e-07
4.97971e-07
4.90541e-07