/*--------------------------------*- C++ -*----------------------------------*\
| =========                 |                                                 |
| \\      /  F ield         | foam-extend: Open Source CFD                    |
|  \\    /   O peration     | Version:     4.0                                |
|   \\  /    A nd           | Web:         http://www.foam-extend.org         |
|    \\/     M anipulation  |                                                 |
\*---------------------------------------------------------------------------*/
FoamFile
{
    version     2.0;
    format      ascii;
    class       volScalarField;
    location    "4400";
    object      divFlux;
}
// * * * * * * * * * * * * * * * * * * * * * * * * * * * * * * * * * * * * * //

dimensions      [1 -3 -1 0 0 0 0];

internalField   nonuniform List<scalar> 
34480
(
0.0729756
0.0232399
0.023701
0.0218374
0.0197942
0.0178552
0.0160536
0.0144299
0.0130357
0.0118666
0.0182705
0.00922373
0.00926463
0.00894294
0.00864444
0.00829044
0.00781477
0.00724341
0.00664781
0.00608702
0.00396707
0.00261215
0.00266243
0.00270473
0.00278762
0.0028585
0.00284934
0.0027399
0.00256034
0.00235015
0.000936887
0.000706861
0.000730323
0.000760972
0.000808188
0.000857875
0.000884373
0.00087227
0.000824653
0.000753439
0.000155962
0.000135468
0.000148716
0.000164121
0.000183283
0.000203256
0.000217102
0.000219176
0.000208046
0.000186351
3.99699e-05
2.43463e-05
1.51464e-05
6.29097e-06
1.87481e-06
8.88378e-06
1.38888e-05
1.604e-05
1.45723e-05
1.04953e-05
7.79261e-05
5.9861e-05
5.27078e-05
4.66792e-05
4.25305e-05
4.02109e-05
3.88977e-05
3.78569e-05
3.69828e-05
3.65104e-05
8.04212e-05
6.41024e-05
5.75779e-05
5.239e-05
4.93013e-05
4.81414e-05
4.78122e-05
4.73403e-05
4.61776e-05
4.50255e-05
9.10071e-05
7.30282e-05
6.47841e-05
5.77786e-05
5.26879e-05
4.94571e-05
4.7481e-05
4.62451e-05
4.50233e-05
4.41942e-05
9.09637e-05
7.40644e-05
6.56541e-05
5.82141e-05
5.20778e-05
4.73985e-05
4.42469e-05
4.25501e-05
4.17389e-05
4.1853e-05
0.0940833
0.0267997
0.0272839
0.0254706
0.0234605
0.0216883
0.0201934
0.0190342
0.0183194
0.0193299
0.0256229
0.0117624
0.0118381
0.0114626
0.0110909
0.0107961
0.0105398
0.0102897
0.0100793
0.0107902
0.00596469
0.0036585
0.00373958
0.00380473
0.00392642
0.00405488
0.00415733
0.00420373
0.0041853
0.00449535
0.00152438
0.0010899
0.00112709
0.00117227
0.00124585
0.00132678
0.00139683
0.00143939
0.00144083
0.00153652
0.000255674
0.000216473
0.000239178
0.000264319
0.000294648
0.00032731
0.000355323
0.000372285
0.000371514
0.000388214
0.000103533
6.37012e-05
4.51327e-05
2.86284e-05
1.5184e-05
4.8768e-06
2.28422e-06
4.88139e-06
2.39775e-06
3.65764e-06
0.000188899
0.000140396
0.000123646
0.000110753
0.000103295
0.00010151
0.000102696
0.000106213
0.00010908
0.000119517
0.000209176
0.000161865
0.000144655
0.000132006
0.000125408
0.000125362
0.000128734
0.000134288
0.000137087
0.000147499
0.000265224
0.000206871
0.000182576
0.000162768
0.000148604
0.00014131
0.000139473
0.000142373
0.000144192
0.000154582
0.000285431
0.000226126
0.000200137
0.000177832
0.00015987
0.000148192
0.00014239
0.000142272
0.000144097
0.000156195
0.0943593
0.0230089
0.0238659
0.0225756
0.0211711
0.0200004
0.0191264
0.0186259
0.0187084
0.0201185
0.0247956
0.00964957
0.00982081
0.00944651
0.00912197
0.00896269
0.00894893
0.00906506
0.00940249
0.00545032
0.0054333
0.00285725
0.00291354
0.00291487
0.00295469
0.00305268
0.00320827
0.00339931
0.00364163
0.000833845
0.00132214
0.000819764
0.000841061
0.000857442
0.000890741
0.000940927
0.00101269
0.00109813
0.00119565
0.00140133
0.000222632
0.000164288
0.000178288
0.000191549
0.000208015
0.000227572
0.000251381
0.000277519
0.000303136
0.000350213
6.34033e-05
3.24717e-05
2.03065e-05
8.9098e-06
4.68882e-07
7.86713e-06
1.31586e-05
1.55298e-05
1.33383e-05
4.40095e-06
0.000121074
8.03631e-05
6.95326e-05
5.96321e-05
5.29279e-05
4.98797e-05
5.07802e-05
5.64471e-05
6.75446e-05
9.24831e-05
0.000126085
8.84092e-05
7.82288e-05
6.8975e-05
6.28666e-05
6.07606e-05
6.303e-05
7.06595e-05
8.39212e-05
0.000112394
0.000140923
9.99128e-05
8.89798e-05
7.8738e-05
7.10313e-05
6.68275e-05
6.68656e-05
7.26157e-05
8.53041e-05
0.000116311
0.000128872
9.1324e-05
8.20001e-05
7.33625e-05
6.6835e-05
6.30369e-05
6.21725e-05
6.58658e-05
7.76744e-05
0.000114122
0.0949709
0.0208101
0.0218022
0.0208902
0.0198421
0.0189848
0.0183858
0.0168142
0.00800421
0.00913481
0.0253905
0.00907566
0.00926623
0.00889356
0.0085465
0.00833692
0.00828285
0.00839457
0.00762996
0.00429621
0.00559276
0.00274617
0.00279684
0.00276684
0.00276304
0.00281282
0.00292485
0.00309737
0.00333201
0.0012929
0.00137604
0.00080726
0.000827059
0.000835174
0.000853256
0.000886794
0.00094158
0.00101723
0.00111208
0.000246877
0.000235344
0.00016597
0.000179878
0.000191672
0.000205204
0.000220695
0.000240144
0.000263375
0.00028872
0.000382823
6.48225e-05
3.19169e-05
1.95569e-05
7.98627e-06
1.49308e-06
8.96213e-06
1.4149e-05
1.64443e-05
1.46484e-05
0.000123887
0.000126032
8.16337e-05
7.06134e-05
6.03131e-05
5.29663e-05
4.88547e-05
4.87791e-05
5.37703e-05
6.46272e-05
8.56572e-05
0.000130808
9.02805e-05
8.00996e-05
7.06119e-05
6.39733e-05
6.07936e-05
6.20262e-05
6.89726e-05
8.23247e-05
0.000106726
0.00014266
0.000100518
9.01485e-05
8.03341e-05
7.27954e-05
6.82384e-05
6.77962e-05
7.32052e-05
8.62402e-05
0.000113737
0.000128716
9.09538e-05
8.22301e-05
7.41494e-05
6.81075e-05
6.44936e-05
6.39195e-05
6.80391e-05
8.02943e-05
0.000113243
0.0934657
0.0184259
0.0195085
0.0188892
0.0180909
0.0174217
0.0150391
0.0113416
0.00668929
0.00160495
0.0254195
0.00834583
0.00857736
0.00825527
0.00792273
0.00767805
0.00754359
0.00753555
0.00507365
0.00140304
0.00568748
0.00259913
0.00264998
0.00260149
0.00256717
0.00257154
0.00262242
0.0027248
0.00276602
0.000234187
0.00141725
0.000783478
0.000803412
0.000805063
0.000811974
0.000829758
0.000862686
0.000912745
0.000977944
0.00048154
0.000244655
0.000164812
0.000178848
0.000189709
0.000200581
0.000212353
0.000226367
0.000243081
0.000261483
0.000505048
6.73302e-05
3.14074e-05
1.90258e-05
7.44777e-06
2.0397e-06
9.49035e-06
1.46103e-05
1.6994e-05
1.58604e-05
0.000358889
0.00013123
8.20741e-05
7.11794e-05
6.08007e-05
5.30429e-05
4.80619e-05
4.66657e-05
4.97458e-05
5.8026e-05
0.000173157
0.000135246
9.09465e-05
8.10997e-05
7.17554e-05
6.48898e-05
6.08865e-05
6.07106e-05
6.55467e-05
7.62322e-05
6.08921e-05
0.000143771
9.94961e-05
8.98463e-05
8.06686e-05
7.3535e-05
6.89021e-05
6.78353e-05
7.18902e-05
8.2813e-05
6.01122e-05
0.000128297
8.91316e-05
8.10571e-05
7.35607e-05
6.79512e-05
6.45345e-05
6.4065e-05
6.79823e-05
7.8919e-05
0.000106769
0.089987
0.0159503
0.0170537
0.0166505
0.0158895
0.0141902
0.0122398
0.0102961
0.00804343
0.00442427
0.0247665
0.00747625
0.00774264
0.0074891
0.00720303
0.00696922
0.00680334
0.00629916
0.0045091
0.0010874
0.00570169
0.00241742
0.00247127
0.00241478
0.0023629
0.00233634
0.00234
0.00237737
0.00232906
0.000678576
0.001442
0.000749005
0.000769597
0.00076677
0.00076563
0.000771231
0.000786206
0.000811981
0.000876237
0.000691312
0.000250813
0.000161212
0.000175512
0.000185368
0.000194213
0.000202945
0.000212393
0.000222935
0.000233564
0.000532512
6.97458e-05
3.05298e-05
1.8267e-05
6.81592e-06
2.61616e-06
9.97063e-06
1.50333e-05
1.75757e-05
1.71459e-05
0.000387175
0.000135613
8.14129e-05
7.08369e-05
6.05384e-05
5.25101e-05
4.68838e-05
4.43357e-05
4.54444e-05
5.06139e-05
0.000240473
0.000138693
9.03645e-05
8.10175e-05
7.1966e-05
6.50104e-05
6.04267e-05
5.90305e-05
6.16689e-05
6.89152e-05
0.000168875
0.000143996
9.72698e-05
8.8357e-05
7.98133e-05
7.30965e-05
6.85431e-05
6.70314e-05
6.9698e-05
7.78178e-05
8.96416e-05
0.000127421
8.63754e-05
7.89416e-05
7.19899e-05
6.6745e-05
6.34948e-05
6.2985e-05
6.63386e-05
7.53205e-05
5.59213e-05
0.0844958
0.0130847
0.0140667
0.0135709
0.0126018
0.0116669
0.0105382
0.00956114
0.00835718
0.0067389
0.0234875
0.00652454
0.0068082
0.00662015
0.0063889
0.00619017
0.00601689
0.00550548
0.00439002
0.00254154
0.00561233
0.00220452
0.00226401
0.00220991
0.00215365
0.00211275
0.00209021
0.00208767
0.00204457
0.00108437
0.00144446
0.000703719
0.000725752
0.000721185
0.000715777
0.000713901
0.000717087
0.000725992
0.000859415
0.000733194
0.00025331
0.000155201
0.000169725
0.000178913
0.000186404
0.000193012
0.000199241
0.000205291
0.000210074
0.000484344
7.11759e-05
2.89741e-05
1.70009e-05
5.79622e-06
3.45665e-06
1.06448e-05
1.56342e-05
1.83225e-05
1.84648e-05
0.000341228
0.000138209
7.929e-05
6.91967e-05
5.91689e-05
5.10392e-05
4.50451e-05
4.16656e-05
4.12152e-05
4.37918e-05
0.000216838
0.00014041
8.827e-05
7.95328e-05
7.0886e-05
6.39973e-05
5.91006e-05
5.68343e-05
5.77129e-05
6.19782e-05
0.00016701
0.000142861
9.37821e-05
8.56017e-05
7.76626e-05
7.13488e-05
6.69641e-05
6.51935e-05
6.67719e-05
7.24369e-05
0.000108399
0.000125693
8.26849e-05
7.58806e-05
6.94343e-05
6.45074e-05
6.13899e-05
6.07398e-05
6.33647e-05
7.03573e-05
8.2835e-05
0.0774003
0.010039
0.0110762
0.0109469
0.0103766
0.00985814
0.0091677
0.00868367
0.00794782
0.00725706
0.0217455
0.00556099
0.00584325
0.00570816
0.00552489
0.00536247
0.00519333
0.00484686
0.00420309
0.0032235
0.00539244
0.00196449
0.00202946
0.00198473
0.00193378
0.00189216
0.001862
0.00188045
0.00181664
0.00124303
0.00141697
0.000647313
0.000671118
0.000667244
0.000661092
0.000656464
0.000654234
0.000654644
0.000787953
0.000691651
0.000251339
0.00014671
0.000161326
0.000170152
0.000176944
0.000182409
0.000186842
0.000190324
0.000233537
0.000407053
7.0922e-05
2.65908e-05
1.51065e-05
4.32287e-06
4.59844e-06
1.15412e-05
1.64273e-05
1.92204e-05
2.42137e-05
0.000274581
0.0001382
7.54775e-05
6.60257e-05
5.64424e-05
4.84821e-05
4.24299e-05
3.85811e-05
3.70815e-05
3.78579e-05
0.000168082
0.000139782
8.44818e-05
7.64342e-05
6.83195e-05
6.16571e-05
5.67299e-05
5.39643e-05
5.36366e-05
5.57553e-05
0.000133224
0.000139945
8.89469e-05
8.14951e-05
7.41438e-05
6.82362e-05
6.40669e-05
6.21566e-05
6.29471e-05
6.68042e-05
8.12385e-05
0.000122746
7.79904e-05
7.18099e-05
6.58495e-05
6.12236e-05
5.82247e-05
5.73836e-05
5.92495e-05
6.44762e-05
6.09696e-05
0.070641
0.00800018
0.00894873
0.00898761
0.00862817
0.00832791
0.00786692
0.00762605
0.00710976
0.00684371
0.0197238
0.00464381
0.00491043
0.00481568
0.00467119
0.00455173
0.00440376
0.00417161
0.00379898
0.00326559
0.00504659
0.00170738
0.0017747
0.0017407
0.00169844
0.00166225
0.00163406
0.00166472
0.00159838
0.0012623
0.00135609
0.000581085
0.000605941
0.000603741
0.000598641
0.000594075
0.000590633
0.000588416
0.000688551
0.000621834
0.000244467
0.000135854
0.000150212
0.000158714
0.000165117
0.000170064
0.000173736
0.000176163
0.000227297
0.000328181
6.85197e-05
2.33864e-05
1.26158e-05
2.46995e-06
5.93649e-06
1.25138e-05
1.72216e-05
2.00591e-05
5.84665e-05
0.00020967
0.000135026
6.9954e-05
6.12801e-05
5.23187e-05
4.47958e-05
3.89641e-05
3.49923e-05
3.29351e-05
3.26497e-05
0.000119183
0.000136388
7.89854e-05
7.1687e-05
6.41764e-05
5.79192e-05
5.31962e-05
5.02593e-05
4.92392e-05
4.68725e-05
9.61939e-05
0.000134954
8.27676e-05
7.60391e-05
6.92954e-05
6.3796e-05
5.98784e-05
5.78918e-05
5.81058e-05
6.06805e-05
4.48813e-05
0.000118295
7.22752e-05
6.67187e-05
6.12478e-05
5.69278e-05
5.40591e-05
5.30289e-05
5.4196e-05
5.79532e-05
3.21945e-05
0.0638912
0.00646284
0.00726519
0.00737134
0.00712564
0.00694143
0.0066063
0.00648968
0.00609233
0.00602394
0.0175731
0.0038089
0.00405039
0.00398551
0.00388781
0.00379075
0.00366537
0.00350762
0.00328473
0.00297591
0.00460992
0.00144875
0.00151433
0.0014893
0.00145503
0.00142477
0.00140051
0.00142741
0.0013725
0.00117592
0.00126606
0.000508737
0.000533326
0.000532569
0.00052868
0.000524857
0.000521607
0.000519012
0.000581623
0.000540547
0.000233077
0.000123131
0.000136751
0.000144701
0.000150636
0.000155165
0.000158428
0.000160446
0.000197285
0.000257625
6.38156e-05
1.95239e-05
9.68456e-06
4.00099e-07
7.29345e-06
1.33424e-05
1.7739e-05
2.04973e-05
6.26038e-05
0.000152622
0.000128476
6.29282e-05
5.51369e-05
4.69558e-05
4.00629e-05
3.46616e-05
3.08409e-05
2.8606e-05
2.78115e-05
7.54596e-05
0.000130057
7.19462e-05
6.54363e-05
5.86001e-05
5.28762e-05
4.85002e-05
4.56208e-05
4.42863e-05
2.82811e-05
6.26628e-05
0.00012774
7.53568e-05
6.93622e-05
6.32276e-05
5.81929e-05
5.45545e-05
5.25406e-05
5.23161e-05
5.39444e-05
1.4307e-05
0.000112161
6.56069e-05
6.06717e-05
5.5703e-05
5.17293e-05
4.90252e-05
4.78483e-05
4.84312e-05
5.05321e-05
8.46065e-06
0.0574268
0.00526419
0.00591484
0.00604197
0.0058618
0.00573946
0.00547308
0.00541537
0.00507714
0.00508307
0.0154063
0.00312145
0.00329416
0.00326422
0.00318586
0.00309388
0.00299455
0.00288582
0.00274794
0.00255549
0.00412163
0.00120248
0.00126301
0.00124473
0.0012169
0.00119157
0.00119845
0.00119159
0.0011476
0.00102641
0.00115501
0.00043478
0.000457835
0.000457918
0.000454812
0.000451504
0.000448491
0.000445868
0.000480072
0.000454939
0.000218071
0.000109242
0.000121664
0.000128774
0.000134011
0.000137961
0.000140757
0.000142426
0.000163821
0.000199634
5.69878e-05
1.52903e-05
6.56097e-06
1.67011e-06
8.47779e-06
1.38411e-05
1.7777e-05
2.03083e-05
5.58664e-05
0.000107869
0.000118723
5.47947e-05
4.79628e-05
4.06856e-05
3.4549e-05
2.9712e-05
2.62132e-05
2.40363e-05
2.30592e-05
4.08773e-05
0.000120877
6.36895e-05
5.7997e-05
5.19006e-05
4.67844e-05
4.28385e-05
4.01431e-05
3.87104e-05
1.94228e-05
3.6343e-05
0.000118309
6.69357e-05
6.16829e-05
5.61977e-05
5.16759e-05
4.83503e-05
4.6368e-05
4.58267e-05
4.67341e-05
6.1755e-06
0.000104283
5.81393e-05
5.38329e-05
4.93933e-05
4.58151e-05
4.33161e-05
4.20624e-05
4.22018e-05
4.05006e-05
7.28017e-06
0.0499682
0.00408667
0.0045879
0.00472785
0.0046159
0.00456631
0.00438986
0.00442142
0.00418214
0.00428762
0.0132747
0.00251258
0.00264743
0.00261662
0.00254923
0.00247399
0.002399
0.00232322
0.00223415
0.00210169
0.00361087
0.000976916
0.0010301
0.00101668
0.000995918
0.000997575
0.000990819
0.000971158
0.000935491
0.000854561
0.00103053
0.000362826
0.000383383
0.000383775
0.000381073
0.00037802
0.000375111
0.000372447
0.000387484
0.000371373
0.0002003
9.48109e-05
0.000105687
0.000111739
0.000116099
0.000119324
0.000121546
0.000122799
0.000133674
0.00015364
4.85e-05
1.10368e-05
3.54313e-06
3.4999e-06
9.3038e-06
1.38712e-05
1.72355e-05
1.94248e-05
4.74034e-05
7.57768e-05
0.000106249
4.6059e-05
4.02345e-05
3.39488e-05
2.86504e-05
2.44577e-05
2.13788e-05
1.939e-05
1.83928e-05
1.71855e-05
0.000109172
5.46408e-05
4.97852e-05
4.4482e-05
4.00259e-05
3.656e-05
3.41247e-05
3.27121e-05
1.39336e-05
1.87752e-05
0.000106836
5.78119e-05
5.33121e-05
4.85177e-05
4.45491e-05
4.15827e-05
3.97031e-05
3.89652e-05
3.93449e-05
1.77987e-05
9.47299e-05
5.01122e-05
4.64383e-05
4.2562e-05
3.9419e-05
3.71703e-05
3.5919e-05
3.57573e-05
3.33032e-05
1.57033e-05
0.0465587
0.00351468
0.00384135
0.00386409
0.0036496
0.00347429
0.00317266
0.00306976
0.00269504
0.00265828
0.0112382
0.00192528
0.00204246
0.00202375
0.00197909
0.00192999
0.00188543
0.00184537
0.0018023
0.00172624
0.00312559
0.000811266
0.000856071
0.000847051
0.000831514
0.000814944
0.000796367
0.00077362
0.000744156
0.000685106
0.000897877
0.000295057
0.000312503
0.00031286
0.000310375
0.000307491
0.000304679
0.000302039
0.000304588
0.000293883
0.000180231
8.02625e-05
8.93813e-05
9.42691e-05
9.76825e-05
0.000100134
0.000101752
0.000102578
0.000107817
0.000117269
3.90372e-05
7.12166e-06
9.23605e-07
4.87026e-06
9.61801e-06
1.33409e-05
1.60793e-05
2.03133e-05
3.96625e-05
5.352e-05
9.17667e-05
3.72505e-05
3.24473e-05
2.72014e-05
2.27829e-05
1.92785e-05
1.66779e-05
1.49528e-05
1.40264e-05
2.7575e-06
9.5468e-05
4.52741e-05
4.1255e-05
3.67825e-05
3.30193e-05
3.00702e-05
2.795e-05
2.2003e-05
9.33932e-06
8.72427e-06
9.3659e-05
4.8353e-05
4.4604e-05
4.05322e-05
3.71508e-05
3.45836e-05
3.28795e-05
3.20637e-05
3.2088e-05
2.28565e-05
8.3705e-05
4.18242e-05
3.87746e-05
3.54885e-05
3.28107e-05
3.08557e-05
2.9683e-05
2.93468e-05
2.71895e-05
1.85646e-05
0.0328637
0.00261351
0.00313374
0.003578
0.00386779
0.00418166
0.00434237
0.00464269
0.00460105
0.00483527
0.0092958
0.00146067
0.00155771
0.00152164
0.00145307
0.00138008
0.00131136
0.00124875
0.00118662
0.00108649
0.00259504
0.000644267
0.000688191
0.000680104
0.000660932
0.000639872
0.000618546
0.000596795
0.000573187
0.000529719
0.000760567
0.000232565
0.000246532
0.000246607
0.000244233
0.000241508
0.000238855
0.000236366
0.000232368
0.000224103
0.000157966
6.58558e-05
7.31325e-05
7.6854e-05
7.93448e-05
8.10632e-05
8.21253e-05
8.25727e-05
8.58025e-05
8.82983e-05
2.94274e-05
3.85272e-06
1.05791e-06
5.61208e-06
9.31958e-06
1.22083e-05
1.43226e-05
2.51549e-05
3.29433e-05
3.80638e-05
7.61394e-05
2.88572e-05
2.50478e-05
2.08441e-05
1.73076e-05
1.44996e-05
1.24014e-05
1.09841e-05
1.01884e-05
5.01228e-06
8.04355e-05
3.60579e-05
3.28513e-05
2.92179e-05
2.61573e-05
2.37447e-05
1.79372e-05
1.06193e-05
4.9644e-06
3.95525e-06
7.92696e-05
3.89544e-05
3.59362e-05
3.25989e-05
2.98189e-05
2.76837e-05
2.62128e-05
2.5417e-05
2.52334e-05
2.34578e-05
7.15486e-05
3.3605e-05
3.11596e-05
2.84737e-05
2.62765e-05
2.46467e-05
2.36129e-05
2.3209e-05
2.159e-05
1.78016e-05
0.0286368
0.000686056
0.0017088
0.00267132
0.00355317
0.00413634
0.00455383
0.00455464
0.00468321
0.00435452
0.00746914
0.00114918
0.001318
0.00140455
0.00146556
0.00151297
0.00154924
0.00157574
0.00159211
0.00159776
0.00206032
0.000473662
0.000527711
0.000527392
0.000510778
0.000488962
0.000465343
0.000440843
0.000414355
0.000370856
0.000622851
0.000177002
0.000187449
0.000187077
0.000184671
0.000181988
0.000179426
0.000177085
0.000173616
0.000162979
0.000133666
5.1933e-05
5.7417e-05
6.00596e-05
6.17224e-05
6.27946e-05
6.33837e-05
6.35254e-05
6.69225e-05
6.50615e-05
2.05086e-05
1.42754e-06
2.2711e-06
5.66805e-06
8.4096e-06
1.24687e-05
2.10165e-05
2.52482e-05
2.69245e-05
2.70958e-05
6.02868e-05
2.12782e-05
1.8394e-05
1.51853e-05
1.24899e-05
1.03497e-05
8.74533e-06
7.64904e-06
7.01586e-06
6.58152e-06
0.000141255
4.33459e-05
2.12123e-07
7.41547e-06
6.97593e-06
5.05682e-06
3.02169e-06
2.16135e-06
7.27793e-07
2.55065e-06
6.42836e-05
3.00048e-05
2.76754e-05
2.50584e-05
2.28748e-05
2.11806e-05
1.99831e-05
1.92761e-05
1.90034e-05
1.90859e-05
5.87213e-05
2.57894e-05
2.39091e-05
2.18128e-05
2.00925e-05
1.88006e-05
1.79493e-05
1.75567e-05
1.65103e-05
1.51809e-05
0.109869
0.0173737
0.0206734
0.0218206
0.0216841
0.0207821
0.0193118
0.0177123
0.0157462
0.0140955
0.00454327
9.08911e-05
0.000295002
0.000526665
0.000711305
0.000825414
0.000870518
0.000859012
0.000806558
0.000757188
0.00140943
0.000282513
0.000369732
0.000395543
0.000398591
0.000390903
0.000378405
0.000364585
0.000350148
0.000321597
0.000477519
0.000125622
0.000133301
0.000133338
0.000131726
0.00012967
0.00012745
0.000125158
0.000121818
0.000111366
0.000107127
3.85681e-05
4.23865e-05
4.41273e-05
4.51545e-05
4.64262e-05
4.92795e-05
5.04383e-05
5.02332e-05
4.61547e-05
5.49466e-05
3.79996e-05
2.40479e-05
2.10532e-05
2.14418e-05
2.24008e-05
2.288e-05
2.21835e-05
2.10505e-05
1.89105e-05
4.51019e-05
1.47881e-05
1.27292e-05
1.04236e-05
8.4893e-06
6.95651e-06
5.80674e-06
5.01544e-06
4.55257e-06
4.24366e-06
0.000585357
0.000256706
0.000104427
4.70882e-05
2.34398e-05
1.27936e-05
7.68849e-06
4.384e-06
3.2382e-06
3.08086e-06
4.93958e-05
2.18532e-05
2.01486e-05
1.8209e-05
1.65892e-05
1.53242e-05
1.44102e-05
1.38399e-05
1.35601e-05
1.33727e-05
4.5775e-05
1.86789e-05
1.73105e-05
1.5768e-05
1.45004e-05
1.35401e-05
1.28898e-05
1.25904e-05
1.20879e-05
1.20505e-05
0.528934
0.0540391
0.0568062
0.0519152
0.0453224
0.0386157
0.0323347
0.0266524
0.0216979
0.0171214
0.0121782
0.00410951
0.00457228
0.00473311
0.00465389
0.00439505
0.00401732
0.00356928
0.0030785
0.00262014
0.00128058
9.26288e-05
0.000166435
0.000168628
0.000158222
0.000145999
0.000135615
0.000128288
0.000123983
0.000118489
0.000357331
8.56647e-05
9.01713e-05
8.93422e-05
8.75943e-05
8.59123e-05
8.44585e-05
8.31225e-05
8.08807e-05
7.27601e-05
9.37741e-05
4.07388e-05
4.15365e-05
4.08879e-05
4.00693e-05
3.91473e-05
3.80178e-05
3.6537e-05
3.47005e-05
3.02246e-05
8.67873e-05
6.07473e-05
3.94691e-05
2.95308e-05
2.43044e-05
2.11012e-05
1.8775e-05
1.66299e-05
1.4809e-05
1.22865e-05
3.13743e-05
9.53205e-06
8.16805e-06
6.63578e-06
5.35382e-06
4.34256e-06
3.58387e-06
3.06126e-06
2.75574e-06
2.56347e-06
0.00103826
0.000456609
0.000193158
8.90884e-05
4.498e-05
2.47669e-05
1.47663e-05
8.97578e-06
6.30146e-06
4.23239e-06
3.53172e-05
1.47749e-05
1.36123e-05
1.22806e-05
1.11684e-05
1.02961e-05
9.65771e-06
9.24175e-06
9.00691e-06
8.71402e-06
3.33088e-05
1.25207e-05
1.1592e-05
1.05463e-05
9.68632e-06
9.03144e-06
8.58086e-06
8.33276e-06
8.26178e-06
8.93409e-06
2.08015
0.0800706
0.0795508
0.0681395
0.055805
0.0447706
0.0354072
0.0275721
0.0208721
0.0154927
0.0189398
0.0100887
0.00958014
0.00862424
0.00746046
0.00623081
0.00501651
0.00385319
0.00273941
0.00175337
5.94187e-05
0.000115623
0.000329152
0.000389927
0.000387705
0.000349503
0.000291875
0.000223469
0.000145776
4.8801e-05
0.000206149
4.72083e-05
4.8778e-05
4.9065e-05
4.94335e-05
5.00753e-05
5.11155e-05
5.27965e-05
5.49171e-05
5.39991e-05
6.77594e-05
3.1204e-05
3.10799e-05
2.94043e-05
2.76047e-05
2.59134e-05
2.43201e-05
2.27391e-05
2.1018e-05
1.75154e-05
5.96276e-05
4.34314e-05
2.83168e-05
2.05511e-05
1.60702e-05
1.3215e-05
1.12192e-05
9.63126e-06
8.37498e-06
6.67915e-06
1.96612e-05
5.51521e-06
4.70441e-06
3.79948e-06
3.04472e-06
2.45207e-06
2.00913e-06
1.70577e-06
1.5291e-06
1.4268e-06
0.00129195
0.000560191
0.000232029
0.000104316
5.11743e-05
2.74476e-05
1.59983e-05
9.81111e-06
6.79413e-06
4.32372e-06
2.272e-05
8.95025e-06
8.23524e-06
7.41934e-06
6.7403e-06
6.20659e-06
5.81254e-06
5.54846e-06
5.38317e-06
5.10053e-06
2.19048e-05
7.47628e-06
6.90689e-06
6.27948e-06
5.76496e-06
5.37341e-06
5.10195e-06
5.0466e-06
4.86967e-06
5.36266e-06
3.12649
0.0354737
0.0331679
0.0283462
0.0233282
0.0187006
0.0145865
0.0109335
0.00786871
0.00501254
0.0241081
0.0143131
0.0122406
0.009936
0.00782416
0.00599069
0.0044169
0.00305033
0.00182313
0.000758654
0.000570521
0.000367126
0.00022553
0.000160209
9.78136e-05
3.53735e-05
2.97154e-05
9.99022e-05
0.000177526
0.000255882
0.000134731
2.90958e-05
2.90003e-05
2.57107e-05
2.1115e-05
1.5805e-05
9.84075e-06
3.03904e-06
4.96803e-06
1.34424e-05
3.46679e-05
1.4107e-05
1.44324e-05
1.39796e-05
1.34063e-05
1.28776e-05
1.24405e-05
1.20861e-05
1.16788e-05
1.02422e-05
1.80639e-05
1.52496e-05
1.01154e-05
7.45159e-06
5.87751e-06
4.87335e-06
4.1819e-06
3.65e-06
3.21583e-06
2.5436e-06
1.03197e-05
2.63941e-06
2.24107e-06
1.80756e-06
1.44913e-06
1.16859e-06
9.61988e-07
8.20957e-07
7.419e-07
6.97165e-07
0.000849988
0.000383924
0.000154032
6.71029e-05
3.16334e-05
1.62186e-05
9.00096e-06
5.30174e-06
3.48798e-06
2.15844e-06
1.21715e-05
4.44633e-06
4.07933e-06
3.67538e-06
3.34017e-06
3.07836e-06
2.88402e-06
2.75248e-06
2.66297e-06
2.45826e-06
9.99719e-05
9.07403e-05
6.1859e-05
3.68651e-05
2.12159e-05
1.21304e-05
7.00842e-06
4.12584e-06
2.3215e-06
1.34365e-06
0.639545
0.0252026
0.0212735
0.0170033
0.0131959
0.00997831
0.00729028
0.00501258
0.00301417
0.00134334
0.00149959
0.00282498
0.0024154
0.00192498
0.00144854
0.00100897
0.000605058
0.00022665
0.000140061
0.000485884
0.000152601
8.28567e-06
4.49346e-05
4.43494e-05
2.93142e-05
5.91257e-06
2.25021e-05
5.48199e-05
9.08021e-05
0.00012289
3.31566e-05
7.34682e-06
9.04629e-06
1.07388e-05
1.24905e-05
1.43623e-05
1.64118e-05
1.86674e-05
2.08863e-05
2.11684e-05
9.05318e-06
2.98743e-06
2.97827e-06
2.84788e-06
2.67492e-06
2.47912e-06
2.26915e-06
2.05038e-06
1.78042e-06
1.24777e-06
4.10796e-07
1.38695e-06
1.07103e-06
9.44478e-07
8.76388e-07
8.37115e-07
8.0758e-07
7.76004e-07
7.28419e-07
5.80125e-07
3.32414e-06
9.04229e-07
7.5807e-07
6.1672e-07
5.01267e-07
4.12827e-07
3.47668e-07
3.03784e-07
2.78288e-07
2.55729e-07
7.09326e-05
5.59776e-05
2.21682e-05
9.44302e-06
4.09405e-06
1.76939e-06
6.99858e-07
1.72344e-07
7.84859e-08
1.57132e-07
3.97972e-06
1.51795e-06
1.37717e-06
1.24243e-06
1.13321e-06
1.04807e-06
9.86219e-07
9.44039e-07
9.12257e-07
8.12398e-07
0.000208744
0.000121276
7.26295e-05
4.14398e-05
2.29928e-05
1.25768e-05
6.82865e-06
3.6336e-06
1.70707e-06
4.50804e-07
1.24842
1.26319
1.45592
1.88501
0.946648
1.00072
1.19663
1.7665
0.523303
0.50674
0.70654
1.16537
0.2197
0.186444
0.330761
0.58588
0.0627413
0.0483117
0.107258
0.196677
0.00212103
0.000283573
0.00219202
0.00436391
0.0250795
0.0140516
0.0353847
0.0784179
0.0313908
0.0170943
0.0458302
0.108261
0.0320788
0.0166746
0.0486226
0.121621
0.0291658
0.0142948
0.0476092
0.125669
0.105026
0.0217392
0.0251242
0.0610309
0.119573
0.0316453
0.021905
0.0441886
0.0827727
0.0231917
0.0112236
0.0271728
0.0426719
0.0115753
0.00113698
0.0215127
0.0145628
0.00332032
0.00151814
0.0102852
0.00111412
0.000101058
0.000144948
0.000461208
0.00844275
0.000140716
0.000469295
0.000365969
0.0115566
0.000477034
0.000576103
0.000579737
0.0132813
0.000578385
0.000657183
0.000657456
0.0135541
0.000702947
0.000833543
0.000827192
0.106587
0.101923
0.0985248
0.128364
0.0906987
0.0821656
0.0786184
0.112702
0.0563481
0.0487813
0.0490689
0.0710309
0.0268706
0.0223988
0.0250734
0.0368257
0.00855245
0.00728743
0.00938547
0.0144245
0.00111338
0.000192401
0.000884143
0.00179894
0.00601201
0.00320522
0.00340139
0.00488727
0.00839151
0.0046941
0.00508472
0.00750866
0.010115
0.00545129
0.00576932
0.00858091
0.0119663
0.00609251
0.00635491
0.00844892
0.0189097
0.0257037
0.0277398
0.0311716
0.0195199
0.0216285
0.0238203
0.0312534
0.014261
0.0144312
0.0166986
0.0229577
0.00743441
0.00731547
0.00882485
0.0130321
0.00242742
0.00260216
0.0032954
0.00536507
0.000636471
9.09839e-05
0.000426007
0.000902642
0.00236494
0.00112301
0.000804603
0.0012567
0.00331316
0.00163972
0.00114246
0.00207846
0.00391946
0.00170113
0.000924981
0.0021921
0.00399504
0.00118404
0.000182297
0.00163708
0.00237449
0.00772259
0.00890632
0.010605
0.00514945
0.00892655
0.0113518
0.0153856
0.00432075
0.00650274
0.00841606
0.0116317
0.00227844
0.00351285
0.00461748
0.00664834
0.000656075
0.00131266
0.00181633
0.0028105
0.000440921
4.18805e-05
0.000312268
0.000620469
0.00115857
0.00067726
0.000444143
0.000558307
0.00162762
0.00105646
0.000735787
0.00108273
0.00197904
0.00120322
0.000696392
0.00122179
0.00207275
0.0010833
0.000416365
0.00109506
0.00638468
0.00285015
0.00204701
0.0010121
0.00107412
0.00221346
0.00386679
0.00600868
0.00052706
0.00242898
0.00367873
0.0054536
0.000348498
0.00146773
0.00222781
0.00332041
1.22373e-05
0.000580083
0.000942462
0.00148216
0.000303462
9.75971e-06
0.000201814
0.000395416
0.000559845
0.000348024
0.000198706
0.000216099
0.000758915
0.000555822
0.00036415
0.000498998
0.000897194
0.000634056
0.000321127
0.000560063
0.00080165
0.000505755
0.000123618
0.000515696
0.00897395
0.00651454
0.00601448
0.00537775
0.00372282
0.00100402
8.59786e-05
0.00100789
0.000842176
0.000660145
0.00140421
0.0023499
0.000318698
0.000552966
0.00104039
0.0016045
0.000194685
0.000240147
0.000490177
0.000774362
0.000223993
7.21422e-06
0.000131185
0.000249121
0.000302931
0.000193601
9.6689e-05
7.8832e-05
0.000388482
0.000317352
0.000207368
0.000245349
0.000426229
0.000359199
0.00017709
0.000274185
0.000281965
0.000250765
5.54373e-05
0.000269549
0.00926456
0.00744635
0.00715677
0.00678595
0.00476935
0.00259456
0.00212555
0.00161059
0.00145604
0.000258838
0.000151485
0.00063365
0.000590335
8.01343e-05
0.000367739
0.000641999
0.000261799
6.24695e-05
0.000221498
0.00036619
0.000167374
1.57975e-05
7.86868e-05
0.000147768
0.000165417
0.000103695
4.00931e-05
1.6457e-05
0.000194923
0.00017311
0.000108025
0.000109735
0.000173632
0.000182365
7.66995e-05
0.000115702
2.80786e-05
8.94535e-05
2.45003e-06
0.000123539
0.00850595
0.00710182
0.00693868
0.00672244
0.00475738
0.00300977
0.00277399
0.00256561
0.00166563
0.000691141
0.000475621
0.00024534
0.000692376
0.000160804
2.85507e-07
0.000118757
0.000277319
3.01758e-05
6.53054e-05
0.000135661
0.000126665
1.97631e-05
4.27953e-05
8.25048e-05
8.69392e-05
5.34287e-05
1.10827e-05
9.16748e-06
8.94833e-05
9.11005e-05
5.09338e-05
4.16888e-05
3.54482e-05
7.58328e-05
1.44356e-05
3.05406e-05
8.71685e-05
1.4911e-06
3.92113e-05
4.00449e-05
0.00735191
0.00624909
0.00616284
0.00603992
0.00425821
0.00284781
0.00272968
0.00267909
0.00161224
0.000819697
0.00071038
0.000610728
0.000690633
0.000265755
0.000181413
0.000144282
0.000266547
7.61442e-05
2.26267e-05
6.56646e-06
9.59559e-05
2.11188e-05
1.83046e-05
3.96105e-05
3.7657e-05
2.33911e-05
4.31082e-06
1.89151e-05
2.66921e-05
4.17293e-05
1.61439e-05
5.71452e-06
3.76109e-05
1.35301e-05
2.24983e-05
1.56994e-05
0.000134804
4.37627e-05
6.08186e-05
7.92607e-06
0.00609476
0.00519855
0.00513668
0.00505289
0.0035942
0.00246386
0.00240741
0.00243747
0.00141616
0.000776419
0.000720864
0.00068229
0.000622867
0.000284132
0.000241702
0.000243364
0.000238225
9.11807e-05
6.29066e-05
5.49727e-05
7.27368e-05
2.06769e-05
2.97922e-06
1.30883e-05
7.90695e-06
6.04179e-06
1.11592e-05
2.05813e-05
9.13247e-06
1.27509e-05
3.33054e-06
1.20152e-05
6.92533e-05
1.77404e-05
3.89912e-05
3.64724e-05
0.000145916
6.23418e-05
6.90721e-05
3.26508e-05
0.00518058
0.00449397
0.00449114
0.00446617
0.00289805
0.00200133
0.00197426
0.00204336
0.00116798
0.000659991
0.000631285
0.00061895
0.000524426
0.000257391
0.000237043
0.000254299
0.000200926
8.7595e-05
7.33718e-05
7.4766e-05
5.52115e-05
1.893e-05
5.26634e-06
1.24523e-06
7.52126e-06
2.5523e-06
1.24815e-05
1.79989e-05
2.58356e-05
2.20413e-06
1.18742e-05
1.82875e-05
7.68973e-05
3.01023e-05
4.25267e-05
4.2089e-05
0.000137048
6.50009e-05
6.74385e-05
4.21816e-05
0.0029576
0.00244946
0.00241342
0.00241027
0.00237914
0.00167928
0.00167421
0.00175995
0.00091895
0.000524498
0.000509102
0.000507184
0.000418483
0.000212511
0.000203689
0.000225401
0.000161261
7.49265e-05
6.81368e-05
7.26032e-05
4.17078e-05
1.63442e-05
8.67134e-06
7.5243e-06
1.36383e-05
5.69131e-06
1.0891e-05
1.37789e-05
3.01769e-05
8.08669e-06
1.35614e-05
1.78865e-05
7.16838e-05
3.19698e-05
3.90492e-05
3.95905e-05
0.000117821
5.87811e-05
5.95411e-05
4.21949e-05
0.00600581
0.00513976
0.00501701
0.00485573
0.00135849
0.000940868
0.000953982
0.00100056
0.000692218
0.000398937
0.000389863
0.000388283
0.000317123
0.000163844
0.000161025
0.00018216
0.000123182
5.89728e-05
5.58503e-05