/*--------------------------------*- C++ -*----------------------------------*\
| =========                 |                                                 |
| \\      /  F ield         | foam-extend: Open Source CFD                    |
|  \\    /   O peration     | Version:     4.0                                |
|   \\  /    A nd           | Web:         http://www.foam-extend.org         |
|    \\/     M anipulation  |                                                 |
\*---------------------------------------------------------------------------*/
FoamFile
{
    version     2.0;
    format      ascii;
    class       volScalarField;
    location    "4400";
    object      p;
}
// * * * * * * * * * * * * * * * * * * * * * * * * * * * * * * * * * * * * * //

dimensions      [1 -1 -2 0 0 0 0];

internalField   nonuniform List<scalar> 
34480
(
107861
107574
107356
107235
107245
107439
107917
108688
109396
112514
107121
106696
106324
106025
105833
105807
106057
106667
107075
109442
106720
106174
105666
105200
104801
104526
104498
104849
104873
106278
106502
105813
105158
104523
103919
103402
103098
103163
102782
103204
106381
105569
104795
104024
103255
102530
101981
101763
100982
100496
106389
105489
104628
103756
102862
101976
101225
100747
99589.4
98330.3
106291
105327
104414
103483
102518
101528
100629
99918.1
98396.8
96429.8
106362
105376
104444
103497
102514
101487
100507
99606.9
97719.7
95002.4
106155
105166
104234
103307
102367
101384
100394
99345.5
97079.8
93609
106273
105267
104314
103380
102471
101570
100674
99652.7
97127.2
92813.9
109718
109561
109509
109591
109849
110337
111147
112402
114299
117347
108621
108340
108150
108079
108179
108525
109243
110512
112587
116405
107963
107562
107243
107018
106933
107072
107591
108734
110795
115097
107551
107012
106547
106162
105888
105812
106101
107055
109012
113612
107295
106632
106045
105523
105088
104818
104884
105620
107411
112149
107200
106443
105758
105129
104567
104134
104003
104513
106098
110825
107032
106202
105452
104750
104100
103549
103256
103545
104888
109468
107053
106186
105398
104657
103960
103338
102927
103012
104068
108374
106846
105959
105146
104387
103682
103048
102579
102498
103228
107277
106916
106019
105184
104405
103692
103075
102625
102512
102982
106893
111088
111018
111055
111225
111549
112056
112780
113753
115019
116600
109868
109698
109633
109705
109952
110424
111195
112349
113989
116252
109054
108777
108602
108553
108675
109036
109745
110949
112834
115719
108501
108099
107795
107607
107582
107801
108393
109571
111610
115048
108134
107614
107195
106882
106720
106794
107250
108349
110466
114359
107947
107331
106815
106400
106120
106063
106384
107375
109515
113761
107711
107019
106432
105940
105572
105407
105606
106472
108577
113061
107686
106948
106311
105767
105338
105094
105187
105915
107917
112515
107484
106715
106041
105459
104991
104699
104721
105328
107156
111856
107529
106748
106050
105441
104945
104630
104622
105179
106821
111653
111950
111919
111973
112126
112385
112759
113251
113858
114561
115304
110805
110702
110696
110808
111062
111480
112092
112918
113962
115138
109964
109772
109680
109712
109901
110292
110946
111925
113281
114942
109350
109049
108852
108779
108873
109195
109834
110904
112531
114694
108922
108513
108214
108037
108028
108262
108851
109960
111805
114447
108675
108174
107784
107516
107411
107554
108076
109187
111202
114279
108395
107817
107356
107013
106830
106890
107340
108422
110554
114003
108333
107705
107190
106792
106547
106536
106914
107937
110118
113864
108120
107458
106905
106466
106176
106115
106433
107388
109535
113564
108138
107464
106887
106423
106105
106015
106293
107199
109254
113556
112439
112426
112472
112583
112759
113000
113300
113646
114019
114385
111469
111408
111425
111533
111742
112058
112485
113015
113626
114244
110686
110555
110514
110578
110770
111110
111622
112319
113192
114137
110070
109850
109727
109723
109866
110195
110757
111594
112733
114052
109619
109304
109097
109015
109093
109386
109962
110904
112291
114000
109338
108938
108652
108494
108504
108748
109318
110335
111948
114046
109030
108556
108204
107980
107927
108120
108669
109729
111534
114003
108944
108418
108012
107736
107629
107771
108286
109357
111301
114103
108722
108163
107721
107405
107257
107357
107837
108897
110904
114031
108722
108149
107683
107344
107170
107243
107692
108728
110721
114150
112672
112665
112696
112765
112873
113015
113186
113375
113569
113751
111906
111869
111890
111974
112125
112342
112618
112942
113291
113621
111232
111143
111128
111196
111358
111621
111988
112454
112993
113532
110658
110500
110427
110455
110603
110891
111335
111943
112698
113499
110218
109980
109842
109817
109932
110221
110718
111452
112430
113523
109929
109616
109411
109329
109403
109678
110210
111051
112251
113656
109610
109229
108966
108830
108861
109114
109662
110589
111995
113715
109510
109079
108767
108585
108575
108800
109348
110331
111909
113933
109285
108820
108474
108258
108214
108412
108951
109965
111659
113979
109274
108794
108425
108188
108122
108299
108821
109840
111572
114154
112746
112741
112760
112800
112861
112941
113034
113134
113235
113328
112171
112149
112165
112223
112323
112461
112633
112825
113025
113206
111626
111567
111563
111621
111744
111933
112184
112485
112814
113128
111121
111009
110967
111006
111136
111365
111695
112118
112610
113102
110718
110542
110451
110457
110578
110831
111229
111772
112443
113144
110440
110200
110057
110024
110125
110389
110842
111500
112360
113297
110126
109825
109633
109560
109636
109901
110394
111153
112199
113387
110025
109678
109443
109333
109383
109639
110157
110994
112209
113647
109799
109419
109155
109017
109042
109285
109814
110707
112054
113737
109784
109389
109104
108948
108956
109186
109712
110628
112037
113926
112732
112729
112739
112761
112794
112837
112886
112939
112992
113039
112315
112301
112311
112348
112410
112495
112597
112709
112823
112923
111899
111859
111859
111902
111989
112118
112283
112475
112676
112862
111473
111395
111371
111408
111512
111683
111918
112205
112523
112830
111123
110994
110936
110956
111064
111269
111571
111961
112415
112869
110871
110691
110593
110588
110693
110922
111286
111781
112385
113012
110573
110341
110204
110171
110266
110511
110926
111520
112280
113096
110481
110208
110035
109976
110056
110307
110761
111439
112345
113355
110258
109955
109757
109676
109741
109991
110469
111210
112241
113442
110245
109927
109711
109616
109669
109914
110398
111173
112270
113624
112678
112676
112680
112692
112709
112731
112757
112785
112812
112836
112379
112370
112376
112398
112435
112485
112544
112608
112672
112729
112078
112052
112053
112082
112140
112224
112330
112449
112572
112684
111732
111678
111664
111694
111771
111892
112054
112245
112450
112643
111441
111349
111311
111334
111423
111579
111799
112073
112378
112674
111225
111092
111026
111035
111129
111316
111595
111956
112376
112796
110951
110775
110679
110671
110765
110975
111308
111757
112299
112858
110876
110665
110541
110515
110605
110831
111206
111733
112395
113099
110659
110422
110278
110236
110319
110551
110956
111545
112311
113156
110653
110402
110243
110190
110266
110499
110917
111542
112368
113323
112610
112608
112610
112616
112625
112636
112650
112664
112678
112690
112395
112390
112393
112405
112427
112455
112489
112525
112561
112593
112191
112173
112174
112193
112230
112283
112348
112421
112496
112563
111914
111878
111869
111892
111945
112028
112136
112261
112391
112513
111683
111619
111595
111616
111683
111797
111952
112139
112342
112535
111507
111411
111367
111381
111459
111603
111809
112066
112354
112635
111261
111131
111065
111070
111154
111324
111578
111908
112289
112671
111210
111051
110964
110958
111044
111233
111530
111927
112401
112887
111001
110819
110717
110700
110785
110986
111313
111764
112319
112907
111006
110813
110698
110674
110756
110962
111304
111788
112394
113059
112543
112542
112543
112545
112550
112555
112562
112570
112577
112583
112385
112382
112383
112390
112402
112418
112437
112457
112477
112495
112257
112246
112246
112257
112280
112313
112352
112397
112441
112482
112038
112013
112008
112024
112060
112114
112184
112264
112347
112424
111863
111819
111804
111820
111869
111949
112055
112181
112314
112439
111725
111658
111629
111644
111704
111810
111957
112136
112330
112517
111510
111415
111371
111381
111451
111581
111769
112005
112269
112527
111486
111369
111310
111314
111389
111539
111765
112054
112388
112720
111286
111149
111078
111076
111153
111317
111571
111905
112300
112703
111305
111160
111079
111072
111149
111321
111589
111952
112385
112842
112485
112484
112484
112485
112487
112490
112494
112497
112501
112504
112362
112360
112360
112364
112370
112379
112390
112401
112413
112423
112294
112287
112287
112293
112307
112326
112350
112377
112403
112427
112118
112102
112098
112109
112132
112167
112212
112262
112314
112362
111993
111963
111954
111966
112000
112054
112125
112207
112293
112374
111890
111844
111825
111838
111882
111957
112060
112181
112310
112433
111703
111637
111607
111618
111672
111769
111903
112068
112247
112420
111709
111625
111585
111594
111655
111769
111935
112140
112370
112594
111516
111416
111367
111372
111438
111566
111755
111996
112270
112544
111553
111446
111391
111393
111460
111595
111798
112062
112364
112675
112437
112436
112436
112437
112438
112439
112441
112443
112445
112446
112333
112332
112332
112334
112338
112343
112349
112355
112362
112367
112314
112309
112309
112313
112321
112332
112346
112362
112378
112392
112167
112157
112154
112161
112175
112198
112225
112257
112289
112318
112085
112065
112059
112068
112090
112126
112173
112226
112281
112332
112012
111980
111968
111978
112009
112061
112130
112211
112296
112375
111850
111804
111785
111795
111835
111903
111997
112109
112228
112343
111886
111827
111801
111810
111857
111941
112058
112201
112356
112504
111696
111625
111593
111600
111652
111748
111884
112053
112241
112423
111754
111678
111641
111647
111701
111803
111951
112137
112344
112551
112401
112401
112401
112401
112401
112402
112403
112403
112405
112405
112303
112303
112303
112304
112306
112309
112312
112316
112320
112323
112325
112322
112322
112324
112328
112335
112343
112352
112362
112370
112195
112188
112187
112190
112199
112213
112230
112249
112269
112287
112149
112136
112132
112138
112152
112175
112205
112239
112273
112305
112098
112077
112070
112077
112098
112133
112178
112231
112285
112336
111959
111928
111916
111924
111952
111999
112062
112136
112215
112290
112024
111984
111967
111975
112010
112069
112150
112245
112348
112445
111833
111783
111762
111770
111809
111877
111973
112088
112214
112334
111915
111862
111838
111845
111886
111960
112064
112192
112330
112467
112378
112377
112377
112377
112377
112377
112378
112378
112379
112378
112274
112274
112274
112275
112276
112278
112280
112282
112284
112286
112333
112331
112330
112332
112334
112338
112343
112348
112353
112358
112208
112204
112203
112205
112211
112219
112229
112241
112252
112264
112191
112183
112181
112184
112194
112208
112227
112248
112269
112289
112158
112144
112139
112144
112158
112181
112210
112243
112278
112310
112038
112018
112010
112016
112035
112066
112107
112156
112206
112254
112130
112104
112093
112100
112124
112164
112218
112281
112348
112409
111932
111898
111885
111892
111919
111967
112031
112108
112190
112269
112043
112008
111992
111999
112029
112081
112151
112237
112327
112415
112369
112368
112368
112368
112368
112368
112368
112368
112369
112368
112244
112244
112245
112245
112246
112247
112248
112249
112251
112252
112340
112339
112338
112339
112341
112343
112346
112349
112352
112354
112212
112210
112209
112210
112213
112218
112224
112231
112238
112244
112218
112213
112211
112214
112219
112228
112240
112253
112266
112278
112195
112186
112184
112187
112196
112210
112228
112249
112271
112291
112094
112081
112076
112080
112092
112112
112139
112169
112200
112231
112210
112194
112187
112192
112208
112235
112270
112311
112353
112390
111998
111976
111968
111973
111991
112023
112065
112116
112168
112219
112150
112127
112117
112123
112143
112178
112225
112280
112338
112393
112386
112386
112385
112385
112385
112384
112384
112383
112384
112382
112211
112211
112212
112212
112212
112213
112213
112214
112215
112216
112347
112346
112346
112346
112347
112349
112351
112353
112355
112356
112211
112209
112209
112209
112211
112213
112217
112221
112224
112228
112231
112228
112227
112229
112232
112238
112245
112252
112260
112268
112214
112209
112207
112209
112214
112223
112235
112248
112261
112273
112130
112122
112119
112122
112130
112142
112158
112177
112196
112215
112265
112254
112250
112254
112265
112282
112305
112330
112357
112379
112033
112019
112014
112017
112030
112050
112077
112109
112141
112175
112252
112237
112231
112235
112249
112272
112302
112337
112373
112407
112452
112452
112452
112451
112451
112451
112450
112449
112450
112446
112166
112166
112167
112167
112167
112167
112167
112167
112167
112168
112347
112347
112347
112347
112348
112349
112351
112353
112354
112355
112207
112206
112205
112206
112206
112208
112209
112211
112213
112215
112233
112231
112231
112232
112234
112237
112242
112247
112252
112256
112218
112214
112213
112214
112218
112223
112230
112239
112247
112255
112151
112146
112144
112146
112151
112159
112168
112180
112191
112202
112284
112277
112275
112277
112285
112296
112311
112328
112346
112359
112031
112022
112019
112022
112030
112043
112060
112079
112099
112122
112375
112365
112362
112365
112374
112389
112408
112430
112453
112474
112591
112590
112591
112591
112592
112593
112595
112596
112598
112596
112094
112093
112093
112093
112092
112091
112090
112089
112089
112087
112327
112328
112328
112329
112330
112331
112333
112335
112337
112339
112205
112204
112203
112203
112204
112204
112205
112206
112206
112207
112228
112227
112227
112227
112229
112231
112234
112237
112240
112244
112212
112209
112209
112209
112212
112215
112220
112226
112231
112236
112160
112157
112156
112157
112160
112165
112172
112179
112186
112192
112255
112250
112248
112250
112255
112263
112273
112285
112299
112310
111980
111975
111973
111974
111980
111989
112000
112012
112024
112038
112545
112537
112535
112536
112543
112553
112567
112582
112598
112615
112753
112753
112755
112757
112760
112763
112768
112774
112782
112789
112004
112003
112002
112001
112000
111998
111995
111992
111987
111979
112292
112292
112293
112293
112294
112295
112297
112299
112302
112306
112208
112208
112207
112207
112207
112208
112208
112209
112209
112208
112223
112222
112222
112222
112223
112225
112227
112230
112233
112235
112206
112204
112203
112204
112206
112209
112213
112217
112222
112226
112165
112162
112161
112162
112165
112169
112175
112181
112186
112191
112196
112192
112190
112192
112196
112203
112211
112222
112234
112246
111900
111896
111894
111895
111900
111907
111916
111926
111933
111938
112719
112710
112708
112709
112714
112723
112734
112748
112763
112781
128801
132341
132374
130320
129743
133715
133687
131793
130452
134650
135026
133350
130748
135119
136233
134810
131065
135589
137367
136135
131825
136586
139081
138406
132602
137522
140530
140473
133382
138366
141722
142183
133065
137997
141577
142507
131682
136430
140177
141656
120880
122471
122848
121964
121427
123275
123813
123034
121850
123920
124617
124060
122255
124522
125430
125160
122780
125198
126349
126317
123416
125902
127179
127253
123943
126446
127797
127969
124569
127049
128434
128787
124629
127048
128489
129063
124366
126743
128339
129169
118002
118698
118881
118598
118338
119192
119472
119258
118660
119679
120081
119954
119003
120194
120754
120738
119461
120810
121522
121612
120116
121600
122437
122636
120730
122325
123266
123573
121457
123125
124140
124559
121783
123463
124524
125060
122012
123647
124721
125351
115866
116188
116303
116216
116002
116416
116601
116567
116211
116728
116998
117029
116474
117104
117473
117590
116839
117577
118040
118243
117368
118205
118752
119043
117858
118782
119405
119789
118503
119498
120190
120677
118831
119863
120609
121194
119089
120129
120914
121574
114646
114802
114868
114846
114654
114866
114981
114998
114763
115044
115215
115279
114955
115312
115549
115675
115245
115678
115981
116170
115698
116206
116573
116830
116122
116701
117129
117455
116719
117361
117846
118246
117061
117740
118268
118737
117376
118066
118620
119138
113879
113958
113997
113994
113828
113942
114012
114038
113863
114022
114131
114191
113990
114201
114357
114462
114216
114480
114683
114836
114591
114908
115160
115364
114935
115304
115601
115858
115460
115878
116218
116529
115773
116222
116595
116950
116085
116547
116942
117327
113394
113435
113457
113459
113317
113381
113423
113444
113315
113409
113478
113522
113388
113516
113618
113694
113557
113723
113859
113970
113862
114067
114238
114386
114133
114375
114580
114766
114588
114865
115102
115325
114850
115151
115411
115662
115135
115446
115721
115992
113073
113095
113108
113111
112985
113021
113046
113061
112973
113029
113072
113103
113003
113083
113148
113201
113125
113231
113321
113398
113367
113500
113615
113718
113568
113728
113868
113998
113953
114138
114301
114456
114154
114355
114535
114709
114402
114612
114801
114987
112855
112867
112874
112876
112763
112784
112799
112809
112751
112785
112812
112833
112751
112801
112844
112879
112837
112906
112966
113018
113025
113113
113191
113261
113166
113272
113368
113457
113489
113612
113724
113831
113623
113759
113882
114000
113835
113977
114107
114232
112701
112707
112711
112713
112612
112623
112632
112639
112604
112625
112642
112655
112581
112613
112641
112664
112641
112686
112726
112760
112785
112844
112896
112944
112875
112946
113011
113072
113145
113229
113305
113377
113217
113309
113394
113474
113399
113495
113583
113668
112589
112593
112595
112596
112505
112511
112517
112521
112507
112520
112530
112539
112466
112486
112504
112519
112508
112537
112563
112586
112616
112655
112690
112721
112663
112711
112754
112795
112892
112948
113000
113049
112911
112973
113031
113085
113069
113134
113194
113251
112508
112510
112511
112512
112427
112431
112434
112437
112443
112451
112458
112463
112388
112401
112412
112422
112418
112437
112454
112469
112498
112523
112546
112568
112510
112542
112571
112598
112708
112746
112781
112814
112684
112725
112764
112800
112825
112869
112909
112948
112448
112449
112450
112451
112369
112370
112372
112374
112402
112407
112411
112414
112334
112342
112350
112356
112360
112372
112383
112393
112417
112434
112449
112463
112402
112423
112442
112460
112580
112605
112628
112650
112517
112545
112571
112595
112651
112680
112707
112732
112407
112407
112407
112408
112322
112323
112324
112326
112376
112379
112382
112384
112297
112302
112306
112310
112323
112331
112338
112344
112363
112374
112384
112393
112328
112341
112354
112366
112494
112510
112525
112540
112397
112415
112432
112448
112531
112550
112568
112585
112380
112380
112380
112380
112284
112284
112284
112286
112363
112365
112366
112367
112269
112272
112274
112277
112300
112305
112309
112313
112327
112334
112340
112346
112278
112286
112295
112302
112441
112451
112461
112470
112310
112322
112333
112343
112456
112468
112479
112490
112369
112368
112369
112369
112248
112248
112248
112250
112358
112359
112360
112360
112247
112249
112250
112252
112285
112288
112290
112293
112301
112306
112310
112313
112245
112250
112255
112260
112411
112417
112424
112429
112246
112254
112261
112267
112418
112426
112433
112440
112383
112382
112382
112383
112211
112210
112211
112212
112359
112360
112361
112360
112229
112230
112231
112232
112272
112274
112276
112277
112280
112283
112285
112287
112222
112226
112229
112232
112393
112397
112401
112404
112193
112198
112202
112206
112421
112426
112431
112435
112448
112446
112446
112448
112162
112161
112161
112162
112359
112360
112360
112360
112215
112215
112215
112216
112259
112261
112262
112262
112259
112261
112263
112264
112205
112207
112209
112211
112370
112373
112375
112377
112133
112137
112139
112142
112482
112484
112487
112490
112601
112598
112598
112601
112080
112078
112078
112081
112343
112345
112345
112344
112206
112206
112206
112207
112246
112247
112247
112248
112240
112241
112242
112243
112193
112194
112195
112197
112323
112326
112328
112328
112043
112045
112047
112049
112620
112622
112624
112626
112811
112808
112808
112811
111967
111962
111962
111967
112310
112311
112312
112310
112207
112206
112207
112208
112237
112238
112238
112239
112229
112230
112231
112231
112190
112191
112192
112194
112264
112267
112268
112268
111924
111922
111923
111928
112789
112792
112793
112794
120055
116535
114353
112639
111410
110490
109757
109153
108650
108221
121296
117349
114652
112777
111406
110364
109517
108802
108186
107623
122381
118086
114933
113013
111548
110408
109460
108650
107941
107305
123647
118997
115586
113579
111977
110719
109655
108732
107909
107187
124996
119936
116343
114148
112409
111029
109857
108835
107914
107139
126561
121009
117216
114807
112935
111435
110166
109058
108055
107218
128066
121818
117887
115240
113255
111640
110286
109105
108035
107165
129698
122609
118658
115761
113696
111980
110560
109316
108201
107277
130753
122857
118984
115889
113784
111984
110509
109213
108073
107107
131854
123323
119568
116296
114120
112227
110682
109324
108147
107139
119504
117121
115408
114069
112992
112115
111398
110815
110348
109982
120190
117473
115426
113827
112565
111560
110742
110063
109501
109017
120889
117903
115512
113781
112412
111319
110417
109658
109014
108449
121690
118541
115933
114087
112607
111416
110413
109551
108798
108141
122474
119314
116483
114494
112896
111597
110494
109537
108686
107963
123555
120250
117211
115048
113325
111914
110717
109674
108738
107945
124690
121013
117802
115433
113595
112074
110790
109673
108665
107829
126124
121792
118517
115928
114002
112385
111033
109852
108794
107901
127200
122067
118843
116077
114103
112405
110994
109760
108672
107735
128409
122414
119334
116414
114378
112604
111141
109860
108746
107781
117756
116580
115485
114518
113684
112980
112393
111916
111541
111264
118295
116805
115391
114172
113151
112306
111606
111025
110553
110162
118876
117130
115431
114034
112881
111931
111138
110472
109915
109439
119562
117653
115747
114218
112948
111892
110995
110224
109561
108989
120316
118308
116208
114537
113144
111978
110978
110111
109349
108703
121328
119149
116866
115025
113502
112221
111124
110168
109318
108595
122357
119881
117423
115382
113732
112338
111149
110116
109190
108416
123674
120680
118119
115865
114114
112621
111360
110259
109279
108446
124680
121039
118482
116055
114243
112664
111339
110182
109164
108287
125744
121414
118946
116370
114495
112847
111475
110277
109235
108332
115919
115399
114832
114272
113747
113276
112868
112527
112259
112065
116258
115567
114779
114012
113308
112686
112147
111691
111320
111019
116717
115867
114865
113915
113059
112311
111666
111115
110655
110265
117318
116350
115177
114076
113087
112220
111462
110803
110238
109750
118021
116951
115618
114367
113246
112261
111396
110636
109969
109403
118955
117732
116241
114823
113567
112463
111495
110642
109885
109238
119898
118430
116779
115170
113780
112559
111494
110558
109721
109017
121088
119230
117461
115649
114147
112822
111678
110672
109778
109012
122000
119655
117844
115858
114273
112856
111644
110581
109646
108839
122937
120069
118271
116139
114492
113013
111760
110661
109703
108872
114730
114494
114207
113898
113589
113298
113037
112815
112639
112512
114906
114589
114166
113708
113253
112827
112443
112111
111839
111619
115218
114817
114252
113644
113051
112502
112010
111580
111219
110914
115693
115225
114538
113794
113070
112398
111791
111252
110788
110388
116286
115755
114948
114066
113211
112420
111702
111060
110495
110015
117083
116458
115528
114494
113507
112596
111772
111034
110378
109815
117879
117094
116034
114829
113708
112677
111753
110929
110191
109567
118904
117858
116688
115302
114064
112928
111920
111023
110224
109538
119687
118304
117071
115519
114185
112954
111876
110922
110080
109355
120473
118720
117464
115780
114384
113095
111978
110991
110127
109378
113947
113839
113697
113533
113362
113194
113038
112903
112795
112716
114018
113874
113652
113388
113109
112833
112576
112349
112161
112009
114207
114025
113718
113347
112957
112575
112218
111900
111628
111399
114551
114343
113956
113476
112971
112476
112010
111588
111222
110905
115017
114786
114316
113723
113100
112490
111917
111394
110931
110537
115667
115393
114835
114116
113372
112647
111970
111351
110799
110323
116306
115948
115289
114428
113558
112718
111941
111236
110601
110064
117158
116647
115898
114885
113901
112958
112096
111316
110620
110020
117790
117069
116255
115093
114011
112975
112043
111209
110468
109831
118416
117459
116611
115338
114196
113107
112138
111271
110508
109846
113440
113390
113319
113235
113142
113049
112961
112883
112819
112773
113446
113379
113262
113112
112946
112775
112612
112464
112341
112239
113551
113472
113307
113086
112837
112580
112333
112106
111911
111745
113780
113697
113484
113184
112843
112490
112147
111829
111550
111307
114128
114047
113781
113395
112955
112501
112059
111648
111280
110967
114639
114550
114225
113743
113199
112642
112103
111601
111149
110759
115130
115008
114613
114018
113364
112702
112067
111481
110950
110500
115821
115625
115162
114447
113689
112930
112214
111555
110963
110452
116304
115992
115469
114630
113781
112937
112154
111443
110806
110260
116791
116344
115787
114861
113957
113063
112245
111502
110843
110272
113103
113080
113045
113002
112953
112903
112855
112811
112775
112748
113068
113037
112975
112892
112796
112694
112594
112503
112425
112359
113128
113094
113005
112875
112719
112552
112386
112232
112096
111981
113268
113241
113124
112939
112714
112470
112226
111994
111789
111610
113518
113504
113356
113109
112806
112478
112149
111835
111553
111312
113909
113906
113723
113406
113019
112602
112186
111791
111433
111122
114269
114265
114036
113635
113156
112648
112145
111672
111240
110873
114823
114792
114515
114024
113457
112863
112285
111744
111255
110830
115170
115085
114758
114172
113526
112858
112219
111629
111096
110638
115547
115394
115040
114387
113693
112981
112308
111688
111133
110651
112873
112862
112845
112824
112798
112772
112746
112722
112702
112687
112816
112802
112770
112725
112670
112611
112552
112497
112450
112408
112851
112837
112789
112712
112617
112511
112404
112302
112211
112134
112927
112922
112858
112745
112599
112435
112266
112104
111958
111829
113103
113114
113032
112875
112671
112439
112201
111970
111760
111581
113397
113426
113324
113118
112849
112545
112234
111932
111657
111417
113650
113692
113563
113297
112954
112574
112187
111817
111476
111186
114090
114132
113972
113641
113228
112776
112323
111891
111498
111155
114322
114344
114148
113748
113270
112756
112250
111773
111338
110966
114616
114610
114394
113946
113428
112876
112339
111835
111379
110983
112711
112707
112698
112688
112675
112661
112647
112635
112624
112615
112645
112639
112623
112598
112568
112535
112500
112468
112440
112414
112668
112663
112636
112592
112535
112469
112402
112336
112278
112227
112697
112700
112665
112596
112503
112396
112283
112172
112072
111982
112819
112836
112791
112692
112556
112398
112230
112065
111914
111784
113038
113073
113017
112885
112700
112485
112259
112035
111830
111650
113206
113258
113186
113012
112772
112495
112206
111924
111663
111440
113558
113622
113532
113313
113018
112683
112338
112003
111696
111427
113694
113756
113643
113377
113032
112647
112256
111882
111537
111242
113929
113983
113857
113557
113181
112765
112347
111949
111584
111268
112595
112594
112589
112584
112578
112571
112563
112557
112551
112546
112526
112524
112516
112503
112486
112468
112449
112430
112414
112397
112546
112545
112531
112506
112472
112432
112390
112350
112313
112280
112542
112546
112527
112486
112428
112360
112286
112213
112146
112084
112625
112641
112616
112555
112467
112360
112246
112131
112025
111934
112786
112817
112787
112703
112579
112431
112270
112110
111961
111829
112887
112934
112895
112783
112618
112422
112211
112003
111808
111642
113173
113235
113186
113043
112838
112597
112341
112089
111856
111650
113234
113302
113240
113065
112823
112542
112249
111963
111697
111469
113427
113497
113427
113230
112964
112658
112343
112036
111754
111507
112511
112511
112509
112506
112503
112499
112495
112492
112489
112486
112442
112441
112437
112430
112421
112411
112400
112390
112381
112370
112467
112468
112460
112446
112426
112402
112377
112352
112329
112309
112437
112441
112431
112407
112371
112328
112281
112234
112190
112149
112495
112508
112494
112457
112400
112330
112254
112176
112104
112041
112611
112636
112620
112567
112486
112385
112274
112162
112058
111964
112660
112698
112677
112605
112495
112359
112210
112060
111919
111799
112898
112949
112924
112833
112693
112523
112339
112155
111983
111830
112900
112960
112927
112814
112648
112448
112233
112022
111822
111652
113066
113131
113094
112967
112783
112565
112333
112104
111891
111705
112450
112451
112449
112448
112446
112445
112443
112441
112439
112438
112379
112379
112377
112373
112369
112363
112357
112351
112346
112339
112416
112417
112413
112405
112393
112379
112364
112349
112335
112323
112366
112369
112364
112350
112328
112302
112272
112242
112215
112188
112409
112419
112412
112389
112353
112308
112258
112207
112159
112117
112491
112510
112501
112469
112416
112350
112275
112199
112127
112062
112502
112529
112519
112473
112400
112308
112205
112101
112002
111917
112706
112746
112733
112676
112583
112466
112337
112206
112084
111973
112660
112707
112690
112619
112507
112368
112215
112063
111918
111794
112812
112863
112846
112765
112641
112489
112323
112157
112001
111865
112407
112408
112407
112407
112406
112405
112404
112403
112402
112401
112330
112330
112329
112328
112325
112322
112319
112316
112313
112308
112384
112385
112383
112378
112372
112363
112354
112345
112337
112330
112317
112319
112316
112308
112295
112279
112261
112243
112226
112208
112354
112361
112357
112343
112321
112293
112261
112228
112197
112170
112411
112424
112420
112400
112366
112323
112274
112224
112176
112132
112393