/*--------------------------------*- C++ -*----------------------------------*\
| =========                 |                                                 |
| \\      /  F ield         | foam-extend: Open Source CFD                    |
|  \\    /   O peration     | Version:     4.0                                |
|   \\  /    A nd           | Web:         http://www.foam-extend.org         |
|    \\/     M anipulation  |                                                 |
\*---------------------------------------------------------------------------*/
FoamFile
{
    version     2.0;
    format      ascii;
    class       volScalarField;
    location    "4250";
    object      divFlux;
}
// * * * * * * * * * * * * * * * * * * * * * * * * * * * * * * * * * * * * * //

dimensions      [1 -3 -1 0 0 0 0];

internalField   nonuniform List<scalar> 
34480
(
2.51972e-05
9.36638e-06
9.52373e-06
8.79731e-06
8.16259e-06
7.66202e-06
7.27893e-06
0.000299594
0.000182954
6.49775e-06
7.57039e-06
4.04739e-06
3.92803e-06
3.64905e-06
3.44659e-06
3.35586e-06
3.34933e-06
3.35598e-06
0.00346313
3.23925e-06
2.17121e-06
1.30622e-06
1.29252e-06
1.2264e-06
1.20867e-06
1.2499e-06
1.31758e-06
1.36468e-06
0.0033409
1.34576e-06
7.77124e-07
4.98094e-07
4.9943e-07
4.74879e-07
4.77284e-07
5.01836e-07
5.32382e-07
5.52848e-07
0.000801411
5.46395e-07
3.17307e-07
2.03634e-07
2.10114e-07
1.97219e-07
1.99707e-07
2.09525e-07
2.22289e-07
2.29817e-07
2.32238e-07
2.27133e-07
1.34301e-07
9.12377e-08
9.18677e-08
8.63694e-08
8.73431e-08
9.24405e-08
9.63924e-08
9.98861e-08
1.00459e-07
9.9027e-08
6.70107e-08
4.05755e-08
4.36302e-08
3.92519e-08
4.0881e-08
4.15428e-08
4.34774e-08
4.53611e-08
4.48011e-08
4.5412e-08
3.32648e-08
2.19474e-08
2.17184e-08
1.92899e-08
1.97023e-08
2.0298e-08
2.1306e-08
2.19474e-08
2.24056e-08
2.19474e-08
2.38989e-08
1.2038e-08
1.36208e-08
1.17464e-08
1.23296e-08
1.10799e-08
1.14132e-08
1.23712e-08
1.27878e-08
1.29127e-08
9.1925e-09
1.14166e-08
7.10199e-09
9.35478e-09
8.28566e-09
7.86565e-09
8.01838e-09
8.01838e-09
8.24748e-09
8.82022e-09
3.49065e-05
1.20674e-05
1.21097e-05
1.13499e-05
1.06675e-05
1.01498e-05
9.80812e-06
9.63139e-06
9.61495e-06
0.00106394
1.13819e-05
5.91414e-06
5.73422e-06
5.38782e-06
5.14583e-06
5.042e-06
5.04844e-06
5.14204e-06
5.31195e-06
0.00345539
3.45996e-06
2.18492e-06
2.13245e-06
2.05292e-06
2.0464e-06
2.12031e-06
2.23186e-06
2.35569e-06
2.48914e-06
0.00431056
1.39405e-06
9.25346e-07
9.36279e-07
9.04617e-07
9.12674e-07
9.60487e-07
1.01721e-06
1.08014e-06
1.14301e-06
0.00149784
6.30194e-07
3.95953e-07
4.44451e-07
4.2005e-07
4.20963e-07
4.49136e-07
4.72929e-07
5.03172e-07
5.32562e-07
5.47661e-07
2.46526e-07
1.81775e-07
2.19579e-07
2.07066e-07
2.00144e-07
2.1894e-07
2.27618e-07
2.41835e-07
2.55359e-07
2.60906e-07
8.83526e-08
7.61035e-08
9.69279e-08
1.21775e-07
8.85035e-08
1.12546e-07
1.13445e-07
1.20213e-07
1.29064e-07
1.29957e-07
1.10984e-07
4.08914e-08
6.21039e-08
6.32114e-08
4.98364e-08
6.15075e-08
6.09538e-08
6.43614e-08
6.93877e-08
7.05164e-08
5.49237e-08
2.51699e-08
4.21693e-08
5.13079e-08
3.00103e-08
4.00008e-08
3.88778e-08
3.88004e-08
4.37569e-08
4.4696e-08
2.08111e-07
2.74384e-08
1.32045e-08
3.95071e-08
2.63381e-08
2.93552e-08
2.94972e-08
3.18754e-08
3.31178e-08
3.48349e-08
3.25276e-05
9.15461e-06
9.45657e-06
8.91382e-06
8.40195e-06
8.03774e-06
7.83853e-06
7.81355e-06
3.24038e-05
0.000872456
1.00251e-05
4.26402e-06
4.21313e-06
3.94961e-06
3.7337e-06
3.59045e-06
3.54541e-06
3.6255e-06
8.05486e-05
0.00135251
2.91045e-06
1.53122e-06
1.49265e-06
1.41139e-06
1.35429e-06
1.32946e-06
1.35322e-06
1.43872e-06
0.000120045
0.0012739
1.0979e-06
5.98458e-07
6.01164e-07
5.68661e-07
5.48829e-07
5.41734e-07
5.5434e-07
5.95786e-07
6.68514e-07
8.36327e-07
4.70166e-07
2.40473e-07
2.61121e-07
2.42849e-07
2.34194e-07
2.30857e-07
2.35439e-07
2.53258e-07
2.88048e-07
3.66073e-07
1.95312e-07
1.09687e-07
1.18695e-07
1.07212e-07
1.03846e-07
1.02806e-07
1.03895e-07
1.12458e-07
1.30129e-07
1.65801e-07
9.84651e-08
4.84856e-08
5.64052e-08
5.02895e-08
4.77376e-08
4.71657e-08
4.74737e-08
5.25774e-08
6.0189e-08
7.89431e-08
2.5172e-08
3.18368e-08
3.09261e-08
2.36796e-08
2.46696e-08
2.37192e-08
2.4234e-08
2.72039e-08
3.01737e-08
4.11597e-08
3.84979e-08
1.04035e-08
2.17789e-08
1.56232e-08
1.50113e-08
1.43993e-08
1.53712e-08
1.65232e-08
1.84671e-08
2.47533e-08
2.72659e-08
1.63012e-08
6.0057e-09
1.27374e-08
9.47053e-09
1.01965e-08
1.07245e-08
9.93251e-09
1.25394e-08
1.88936e-08
3.21125e-05
8.2685e-06
8.62051e-06
8.15138e-06
7.7027e-06
7.38769e-06
7.22535e-06
7.21903e-06
1.72028e-05
0.000372579
9.96983e-06
3.98317e-06
3.95745e-06
3.71541e-06
3.50871e-06
3.36248e-06
3.29207e-06
3.31632e-06
3.43819e-05
0.00114355
2.91351e-06
1.49699e-06
1.45763e-06
1.37422e-06
1.30527e-06
1.2608e-06
1.25296e-06
1.29474e-06
0.000121548
0.00228942
1.12845e-06
6.08836e-07
5.99173e-07
5.64876e-07
5.37666e-07
5.19997e-07
5.18401e-07
5.41133e-07
0.000113016
0.0021055
4.86885e-07
2.46691e-07
2.59681e-07
2.42747e-07
2.31493e-07
2.23447e-07
2.23395e-07
2.33807e-07
4.50879e-05
0.00156987
2.06517e-07
1.09975e-07
1.1858e-07
1.08227e-07
1.03441e-07
1.01462e-07
9.85635e-08
1.05604e-07
1.07306e-05
0.000986966
1.08593e-07
4.56057e-08
5.73854e-08
5.01458e-08
4.84688e-08
4.69145e-08
4.67509e-08
4.91641e-08
5.60766e-08
0.000414859
4.15731e-08
2.58418e-08
3.06642e-08
2.48847e-08
2.47375e-08
2.42958e-08
2.26392e-08
2.48847e-08
2.92653e-08
0.000156073
4.53433e-08
8.63403e-09
2.13508e-08
1.54609e-08
1.47247e-08
1.5394e-08
1.46912e-08
1.64314e-08
1.75692e-08
2.37896e-08
1.52333e-08
2.01238e-08
6.28867e-09
1.2424e-08
9.54038e-09
9.60173e-09
1.00005e-08
1.0338e-08
1.22092e-08
1.73341e-08
3.13212e-05
7.35092e-06
7.74053e-06
7.34804e-06
6.95392e-06
6.67425e-06
6.52715e-06
6.5109e-06
2.15982e-05
0.000142156
9.73166e-06
3.6475e-06
3.64639e-06
3.43096e-06
3.24659e-06
3.1148e-06
3.04088e-06
3.02817e-06
4.17489e-06
0.000578649
2.88363e-06
1.41691e-06
1.38761e-06
1.30637e-06
1.24125e-06
1.19276e-06
1.16952e-06
1.17558e-06
7.6267e-05
0.00133442
1.1108e-06
5.95254e-07
5.81737e-07
5.4954e-07
5.2222e-07
5.01773e-07
4.91649e-07
4.9624e-07
7.87722e-05
0.00142017
4.87046e-07
2.51724e-07
2.54461e-07
2.39208e-07
2.2728e-07
2.18138e-07
2.14324e-07
2.17404e-07
5.2934e-05
0.00127947
2.09616e-07
1.12332e-07
1.15711e-07
1.08225e-07
1.02707e-07
9.86435e-08
9.6633e-08
9.80018e-08
4.01079e-05
0.00101544
1.1097e-07
4.6237e-08
5.61613e-08
5.10281e-08
4.84044e-08
4.59709e-08
4.54005e-08
4.71496e-08
5.8502e-06
0.000666384
5.12472e-08
2.29968e-08
3.08678e-08
2.53581e-08
2.4263e-08
2.47079e-08
2.34417e-08
2.47421e-08
8.61475e-06
0.000499028
4.86869e-08
7.46651e-09
2.08129e-08
1.61774e-08
1.54619e-08
1.5493e-08
1.45286e-08
1.6053e-08
1.74841e-08
0.000305659
7.75732e-09
2.14455e-08
6.33098e-09
1.28901e-08
9.58202e-09
1.10079e-08
1.01239e-08
1.06087e-08
1.1892e-08
0.000402739
3.01116e-05
6.39338e-06
6.82212e-06
6.50202e-06
6.16525e-06
5.92097e-06
5.78266e-06
5.75456e-06
5.83478e-06
2.35101e-05
9.32621e-06
3.28081e-06
3.29831e-06
3.10715e-06
2.94299e-06
2.825e-06
2.75509e-06
2.73366e-06
1.6129e-05
0.000222382
2.84666e-06
1.3236e-06
1.29866e-06
1.22476e-06
1.16113e-06
1.11513e-06
1.08506e-06
1.07555e-06
3.48344e-05
0.000718215
1.07527e-06
5.61986e-07
5.51063e-07
5.21371e-07
4.96901e-07
4.76169e-07
4.63709e-07
4.59838e-07
4.14785e-05
0.00084777
4.65383e-07
2.45828e-07
2.44737e-07
2.31239e-07
2.20286e-07
2.10742e-07
2.05788e-07
2.0347e-07
3.68409e-05
0.000863214
2.05731e-07
1.12023e-07
1.11427e-07
1.05263e-07
1.0061e-07
9.69119e-08
9.39294e-08
9.33727e-08
3.51763e-05
0.000779413
1.08898e-07
4.76496e-08
5.41537e-08
4.99119e-08
4.71547e-08
4.6165e-08
4.41501e-08
4.43622e-08
1.93165e-05
0.000593963
5.58128e-08
2.22376e-08
2.90776e-08
2.56417e-08
2.4051e-08
2.39874e-08
2.27467e-08
2.31602e-08
2.61315e-05
0.000524055
5.12618e-08
7.66417e-09
1.87411e-08
1.60803e-08
1.48945e-08
1.52126e-08
1.42872e-08
1.53862e-08
9.54356e-06
0.000446819
1.99249e-09
2.30383e-08
5.72643e-09
1.22217e-08
9.35848e-09
9.19941e-09
1.02599e-08
1.00213e-08
2.60539e-05
0.000523403
2.86934e-05
5.43741e-06
5.89626e-06
5.65737e-06
5.36729e-06
5.14607e-06
5.0222e-06
4.98203e-06
5.02814e-06
2.81167e-06
8.74781e-06
2.89166e-06
2.92622e-06
2.76241e-06
2.61742e-06
2.51262e-06
2.44685e-06
2.42134e-06
1.09312e-05
7.09155e-05
2.72577e-06
1.19861e-06
1.18457e-06
1.11885e-06
1.06307e-06
1.02054e-06
9.91264e-07
9.75175e-07
1.33002e-05
0.000377938
1.05567e-06
5.24192e-07
5.14678e-07
4.86977e-07
4.62922e-07
4.44758e-07
4.31129e-07
4.22897e-07
1.63638e-05
0.000490228
4.42124e-07
2.31488e-07
2.30305e-07
2.17292e-07
2.07785e-07
1.9904e-07
1.93505e-07
1.9004e-07
1.75092e-05
0.00054261
1.93121e-07
1.08984e-07
1.07172e-07
1.0037e-07
9.5675e-08
9.19412e-08
8.95382e-08
8.78746e-08
2.01744e-05
0.000536415
1.01691e-07
4.81415e-08
5.11318e-08
4.755e-08
4.62027e-08
4.39681e-08
4.28508e-08
4.22265e-08
1.59156e-05
0.000441482
5.53888e-08
2.27727e-08
2.75047e-08
2.4843e-08
2.34825e-08
2.29798e-08
2.24474e-08
2.24474e-08
2.56338e-05
0.00043303
5.12905e-08
9.11447e-09
1.62393e-08
1.67771e-08
1.4196e-08
1.48144e-08
1.33356e-08
1.48413e-08
1.94327e-05
0.000408998
1.18358e-09
2.29699e-08
6.28468e-09
1.14849e-08
9.39005e-09
9.85832e-09
9.36541e-09
9.71045e-09
3.31222e-05
0.000468838
2.71504e-05
4.47269e-06
4.97445e-06
4.82729e-06
4.59146e-06
4.40111e-06
4.28527e-06
4.24408e-06
4.27235e-06
4.54809e-06
8.05458e-06
2.49277e-06
2.54178e-06
2.40648e-06
2.28186e-06
2.18986e-06
2.13033e-06
2.10226e-06
3.30931e-06
1.43132e-05
2.55582e-06
1.06577e-06
1.05607e-06
9.99157e-07
9.48981e-07
9.10544e-07
8.84233e-07
8.67736e-07
4.70649e-06
0.000180627
1.00003e-06
4.75462e-07
4.69001e-07
4.43752e-07
4.2233e-07
4.05513e-07
3.92934e-07
3.83999e-07
5.2112e-06
0.000266873
4.25096e-07
2.13353e-07
2.13471e-07
2.02316e-07
1.91829e-07
1.84916e-07
1.78907e-07
1.74469e-07
5.76636e-06
0.000321694
1.81171e-07
1.01418e-07
1.00009e-07
9.42011e-08
8.99739e-08
8.65372e-08
8.36159e-08
8.15539e-08
7.97654e-06
0.000349976
9.20271e-08
4.75034e-08
4.89698e-08
4.53344e-08
4.35015e-08
4.13937e-08
4.0966e-08
4.0019e-08
8.83341e-06
0.000302677
5.21425e-08
2.22151e-08
2.49645e-08
2.39197e-08
2.23251e-08
2.18027e-08
2.11428e-08
2.09779e-08
1.9124e-05
0.000325709
4.62355e-08
1.23723e-08
1.44718e-08
1.53966e-08
1.3572e-08
1.3772e-08
1.3772e-08
1.3772e-08
1.81985e-05
0.000311904
4.98077e-09
2.28429e-08
5.5217e-09
1.09518e-08
9.05009e-09
8.88971e-09
9.09591e-09
9.39376e-09
3.05159e-05
0.000366721
2.57466e-05
3.48736e-06
4.04308e-06
4.00841e-06
3.83507e-06
3.68165e-06
3.57526e-06
3.53126e-06
3.54776e-06
3.75283e-06
7.28995e-06
2.10778e-06
2.16357e-06
2.05293e-06
1.94906e-06
1.86842e-06
1.81513e-06
1.78784e-06
1.77922e-06
7.36716e-07
2.32481e-06
9.23842e-07
9.20698e-07
8.72902e-07
8.28761e-07
7.95458e-07
7.71125e-07
7.54767e-07
1.41573e-06
7.95999e-05
9.23377e-07
4.19791e-07
4.14807e-07
3.9404e-07
3.75765e-07
3.60685e-07
3.49162e-07
3.39939e-07
1.5054e-06
0.00013555
4.00444e-07
1.92608e-07
1.92097e-07
1.82567e-07
1.74242e-07
1.67012e-07
1.61718e-07
1.57701e-07
9.7885e-07
0.000176884
1.71084e-07
9.20456e-08
9.14705e-08
8.60711e-08
8.21733e-08
7.917e-08
7.64863e-08
1.2299e-05
1.41982e-06
0.000214798
8.28442e-08
4.4388e-08
4.49276e-08
4.17753e-08
4.04122e-08
3.89922e-08
3.7203e-08
3.67202e-08
3.55635e-06
0.000190091
4.71913e-08
2.19299e-08
2.38469e-08
2.20577e-08
2.10865e-08
2.07542e-08
1.97318e-08
1.01789e-05
1.23873e-05
0.000227278
3.84051e-08
1.56144e-08
1.13391e-08
1.53356e-08
1.28726e-08
1.30353e-08
1.20361e-08
1.29423e-08
1.36195e-05
0.000214198
9.27591e-09
2.27691e-08
5.43136e-09
9.64865e-09
8.49848e-09
8.54108e-09
8.39198e-09
4.82888e-06
2.4394e-05
0.000264457
2.53051e-05
2.59843e-06
3.17578e-06
3.25468e-06
3.16346e-06
3.04961e-06
2.96019e-06
2.91076e-06
2.89714e-06
3.01816e-06
6.42485e-06
1.73353e-06
1.79487e-06
1.71348e-06
1.6286e-06
1.56195e-06
1.51541e-06
1.49117e-06
1.48164e-06
1.39749e-06
2.08212e-06
7.81709e-07
7.82897e-07
7.42765e-07
7.06648e-07
6.77565e-07
6.55895e-07
6.40308e-07
3.82312e-08
3.15277e-05
8.33683e-07
3.63818e-07
3.61007e-07
3.4275e-07
3.26138e-07
3.12634e-07
3.02496e-07
2.9515e-07
3.84174e-07
6.42036e-05
3.64966e-07
1.69788e-07
1.68872e-07
1.61065e-07
1.53495e-07
1.47487e-07
1.42362e-07
1.38356e-07
4.32889e-07
9.09888e-05
1.6074e-07
8.12324e-08
8.15889e-08
7.71931e-08
7.41636e-08
7.06886e-08
6.82234e-08
1.76176e-05
1.35897e-06
0.000125556
7.62074e-08
3.91262e-08
4.09479e-08
3.82814e-08
3.63013e-08
3.49549e-08
3.36348e-08
3.279e-08
8.08899e-07
0.000108944
4.1665e-08
1.98166e-08
2.14085e-08
2.00542e-08
1.86998e-08
1.80107e-08
1.7987e-08
1.9019e-05
7.36886e-06
0.000150087
2.77243e-08
1.7799e-08
1.02388e-08
1.29173e-08
1.23124e-08
1.15348e-08
1.1578e-08
1.16428e-08
8.81083e-06
0.000136368
1.33519e-08
2.18996e-08
6.49464e-09
8.2173e-09
7.72228e-09
7.64308e-09
7.52427e-09
1.01725e-05
1.79021e-05
0.000180291
2.46299e-05
1.70775e-06
2.2521e-06
2.41828e-06
2.41959e-06
2.38456e-06
2.35818e-06
2.3607e-06
2.40353e-06
2.56761e-06
5.55964e-06
1.38901e-06
1.4484e-06
1.38777e-06
1.32478e-06
1.27293e-06
1.23513e-06
1.21296e-06
1.20023e-06
1.11213e-06
1.81243e-06
6.44224e-07
6.48443e-07
6.1595e-07
5.86262e-07
5.62627e-07
5.44227e-07
5.31659e-07
5.20482e-07
1.0716e-05
7.30691e-07
3.0514e-07
3.05159e-07
2.89163e-07
2.76093e-07
2.64828e-07
2.55182e-07
2.48004e-07
1.90885e-08
2.73156e-05
3.23449e-07
1.46639e-07
1.44083e-07
1.38151e-07
1.31713e-07
1.26349e-07
1.2212e-07
1.18302e-07
5.86335e-07
4.39436e-05
1.47253e-07
7.02428e-08
7.05189e-08
6.69847e-08
6.44169e-08
6.15729e-08
5.9861e-08
1.6888e-05
2.27494e-06
7.13023e-05
7.1217e-08
3.35016e-08
3.58086e-08
3.36243e-08
3.17099e-08
3.05318e-08
2.98692e-08
2.92801e-08
2.13993e-07
5.66348e-05
3.87827e-08
1.71631e-08
1.85768e-08
1.86872e-08
1.72294e-08
1.69422e-08
9.20755e-07
2.11694e-05
4.04685e-06
9.61773e-05
1.58065e-08
2.00407e-08
8.73517e-09
1.17473e-08
1.09441e-08
1.05826e-08
9.71913e-09
9.94002e-09
4.87455e-06
7.99206e-05
1.59383e-08
1.91437e-08
6.44261e-09
7.19731e-09
7.21572e-09
6.82916e-09
7.05005e-09
1.12237e-05
1.23662e-05
0.000117739
2.55665e-05
1.31442e-06
1.72431e-06
1.78116e-06
1.68648e-06
1.56549e-06
1.45791e-06
1.36862e-06
1.28013e-06
1.21326e-06
4.69226e-06
1.10802e-06
1.14755e-06
1.09445e-06
1.03556e-06
9.89565e-07
9.57659e-07
9.41078e-07
9.38536e-07
8.8306e-07
1.5376e-06
5.20512e-07
5.23018e-07
4.9774e-07
4.72523e-07
4.52543e-07
4.36731e-07
4.24472e-07
4.15334e-07
3.28364e-06
6.30079e-07
2.48948e-07
2.49411e-07
2.37295e-07
2.26377e-07
2.17051e-07
2.09556e-07
2.03071e-07
1.96003e-07
8.89547e-06
2.74307e-07
1.22181e-07
1.21507e-07
1.15522e-07
1.09831e-07
1.05841e-07
1.01529e-07
9.87717e-08
3.87313e-07
1.9717e-05
1.28607e-07
5.99099e-08
5.99099e-08
5.6573e-08
5.43655e-08
5.2081e-08
1.22715e-06
1.43243e-05
2.37519e-06
3.98065e-05
6.61398e-08
2.79956e-08
3.07792e-08
2.89311e-08
2.74936e-08
2.64213e-08
2.56227e-08
2.45731e-08
2.5066e-07
2.53743e-05
3.73045e-08
1.43332e-08
1.6017e-08
1.55037e-08
1.48055e-08
1.40252e-08
1.64448e-05
2.0302e-05
1.97389e-06
6.09586e-05
3.73518e-09
2.03853e-08
7.97118e-09
9.2406e-09
9.37127e-09
9.14726e-09
8.58722e-09
9.27793e-09
2.07062e-06
4.15611e-05
1.48896e-08
1.50587e-08
7.17002e-09
6.41708e-09
6.1604e-09
6.19462e-09
6.00639e-09
1.01582e-05
8.16643e-06
7.43243e-05
2.42345e-05
1.99338e-06
2.775e-06
3.18676e-06
3.34187e-06
3.38531e-06
3.40238e-06
3.41721e-06
3.4515e-06
3.55189e-06
3.29358e-06
8.0165e-07
8.84046e-07
8.85096e-07
8.68082e-07
8.45365e-07
8.21265e-07
7.93895e-07
7.55524e-07
6.4199e-07
1.2379e-06
3.98899e-07
4.05886e-07
3.88629e-07
3.72365e-07
3.59899e-07
3.48541e-07
3.39817e-07
2.911e-07
2.16552e-06
5.24494e-07
1.95272e-07
1.97165e-07
1.89498e-07
1.79857e-07
1.73112e-07
1.66351e-07
1.61658e-07
1.56647e-07
4.64232e-08
2.26551e-07
9.9103e-08
9.71123e-08
9.31034e-08
8.91491e-08
8.51403e-08
8.17859e-08
7.93315e-08
1.97579e-07
8.25775e-06
1.07044e-07
4.94424e-08
4.84402e-08
4.66506e-08
4.45746e-08
4.2761e-08
8.91062e-06
1.1723e-05
2.17957e-06
2.21712e-05
5.93998e-08
2.21017e-08
2.48591e-08
2.39894e-08
2.24835e-08
2.19108e-08
2.10836e-08
2.04897e-08
1.99382e-08
8.03786e-06
2.95998e-06
1.17784e-08
1.23511e-08
1.34201e-08
1.29047e-08
1.57359e-05
2.42358e-05
1.84469e-05
7.30011e-07
3.89551e-05
6.01313e-09
1.83956e-08
8.13917e-09
8.19124e-09
7.84415e-09
7.8615e-09
7.65325e-09
7.20204e-09
2.87127e-07
1.69297e-05
9.56911e-09
9.70395e-09
6.39506e-09
5.01106e-09
4.85198e-09
4.99515e-09
1.96892e-06
8.33563e-06
5.2217e-06
4.57059e-05
1.38319e-05
8.1718e-06
8.08996e-06
7.58485e-06
7.24227e-06
6.90478e-06
6.43556e-06
5.79624e-06
5.00221e-06
4.04514e-06
4.35051e-06
7.88521e-07
6.7958e-07
5.67622e-07
4.89426e-07
4.48964e-07
4.42398e-07
4.64337e-07
5.01871e-07
4.9449e-07
5.8682e-05
6.86083e-06
9.46792e-06
7.18394e-06
5.90284e-06
4.952e-06
3.77546e-06
1.5397e-06
1.70189e-06
3.93583e-06
4.23364e-07
1.50549e-07
1.52147e-07
1.45092e-07
1.38556e-07
1.31324e-07
1.26429e-07
1.21711e-07
1.16831e-07
9.92778e-08
1.81637e-07
7.65888e-08
7.5955e-08
7.24057e-08
6.9186e-08
6.63212e-08
6.34311e-08
6.13775e-08
1.24783e-07
3.55291e-06
9.78496e-06
3.87317e-08
3.85543e-08
3.658e-08
3.49162e-08
7.39368e-06
1.19409e-05
9.62357e-06
1.93481e-06
1.25825e-05
5.03123e-08
1.77662e-08
1.99155e-08
1.9324e-08
1.78845e-08
1.72535e-08
1.67606e-08
1.61888e-08
1.54789e-08
1.50464e-08
5.02536e-05
4.56888e-05
4.11054e-05
3.65158e-05
3.4738e-05
3.23399e-05
2.75898e-05
1.65978e-05
1.21386e-08
2.57118e-05
1.30295e-08
1.47619e-08
7.27607e-09
6.30807e-09
6.55007e-09
6.34034e-09
5.84021e-09
5.98541e-09
5.93701e-09
2.0398e-06
1.42111e-11
4.77677e-09
5.50142e-09
4.79156e-09
4.54015e-09
3.75634e-09
5.09008e-06
6.38873e-06
3.24828e-06
2.74623e-05
0.000234409
2.73229e-05
3.00197e-05
2.96179e-05
2.77416e-05
2.47554e-05
2.10982e-05
1.71392e-05
1.3054e-05
8.82597e-06
3.6573e-06
4.38614e-07
1.45799e-08
2.32619e-07
3.42184e-07
3.68581e-07
3.66354e-07
3.89079e-07
4.94108e-07
6.86258e-07
0.000200942
0.000127926
6.98054e-05
3.98651e-05
2.24744e-05
1.26555e-05
6.5304e-06
1.58537e-06
3.76316e-06
7.0663e-06
3.26334e-07
1.07236e-07
1.09023e-07
1.0516e-07
1.02259e-07
9.85467e-08
9.49172e-08
9.09852e-08
8.73832e-08
7.32588e-08
1.40808e-07
5.6823e-08
5.55739e-08
5.38299e-08
5.14495e-08
4.91398e-08
4.73486e-08
1.79119e-07
1.60853e-07
2.09962e-06
3.9389e-05
3.00259e-05
1.96756e-05
1.57496e-05
1.50437e-05
1.43135e-05
1.23559e-05
7.95467e-06
1.72134e-06
7.39362e-06
4.02211e-08
1.33449e-08
1.50313e-08
1.4848e-08
1.38215e-08
1.34365e-08
1.25566e-08
1.22267e-08
1.18417e-08
1.08653e-08
0.000219209
4.35088e-05
7.99445e-05
7.01396e-05
5.46598e-05
4.07626e-05
2.86979e-05
1.51968e-05
4.90941e-07
1.80351e-05
1.54765e-08
1.04686e-08
6.44913e-09
5.57925e-09
4.75436e-09
4.91934e-09
4.70937e-09
4.16944e-09
4.82935e-09
4.77801e-09
9.24326e-09
2.65339e-09
4.17944e-09
3.24456e-09
3.23081e-09
3.47828e-09
5.2712e-06
4.38382e-06
1.90184e-06
1.57146e-05
0.000654463
8.96796e-05
9.24869e-05
8.10253e-05
6.60621e-05
5.10602e-05
3.74209e-05
2.54195e-05
1.46656e-05
4.37912e-06
1.63094e-05
3.27986e-06
2.39954e-06
1.93473e-06
1.65817e-06
1.36608e-06
9.57292e-07
3.61088e-07
5.2943e-07
1.79399e-06
0.000340797
0.000241604
0.000117351
6.11452e-05
3.07994e-05
1.5014e-05
6.20344e-06
4.09036e-08
6.65157e-06
1.11841e-05
2.26039e-07
7.54065e-08
7.46652e-08
7.15978e-08
6.92334e-08
6.74696e-08
6.69329e-08
6.65494e-08
6.54119e-08
5.04304e-08
1.838e-05
3.92406e-08
3.97883e-08
2.15024e-07
1.60234e-06
2.42301e-06
2.47512e-06
1.63938e-06
2.40768e-07
1.84239e-06
3.98326e-05
4.50354e-05
3.52146e-05
2.63207e-05
2.00039e-05
1.51602e-05
1.09307e-05
6.34701e-06
1.4997e-06
4.40124e-06
3.03693e-08
9.98604e-09
1.01905e-08
1.0395e-08
9.88379e-09
9.71338e-09
9.03174e-09
9.0147e-09
8.38418e-09
7.51061e-09
0.000486718
1.64929e-05
8.40342e-05
8.3064e-05
6.35385e-05
4.44419e-05
2.87752e-05
1.4326e-05
8.53177e-07
1.37263e-05
1.01159e-08
5.10301e-09
4.71262e-09
3.63903e-09
4.0852e-09
3.65297e-09
3.54143e-09
3.49961e-09
3.36018e-09
2.95017e-09
1.44274e-08
1.08636e-09
2.46669e-09
3.18241e-09
2.07048e-09
3.67958e-08
2.91403e-06
2.18271e-06
9.09057e-07
7.57157e-06
0.0023007
0.000201163
0.000181667
0.000133638
9.20616e-05
6.03909e-05
3.68331e-05
1.87932e-05
3.7737e-06
1.03473e-05
3.36296e-05
8.89631e-06
7.52989e-06
6.24738e-06
4.71302e-06
2.98668e-06
1.10059e-06
1.02146e-06
3.58518e-06
6.59259e-06
0.000488169
0.000365306
0.000159254
7.48483e-05
3.29335e-05
1.30449e-05
3.12605e-06
3.24952e-06
1.07517e-05
1.67051e-05
1.68825e-07
5.33596e-08
4.89159e-08
4.36524e-08
3.89712e-08
3.59414e-08
3.3577e-08
3.21868e-08
3.41592e-08
4.26391e-08
5.89649e-05
3.53713e-05
2.04419e-05
1.31844e-05
8.94492e-06
6.16285e-06
4.03671e-06
2.10041e-06
2.81183e-07
1.62755e-06
2.92414e-05
3.71569e-05
3.07111e-05
2.28696e-05
1.66008e-05
1.17831e-05
7.92994e-06
4.42788e-06
1.16504e-06
2.4039e-06
2.01684e-08
6.74866e-09
6.84371e-09
6.95461e-09
6.59024e-09
6.47935e-09
6.1942e-09
5.78231e-09
6.06746e-09
4.75124e-09
0.000834361
0.000119389
6.16494e-05
7.96116e-05
6.31745e-05
4.3668e-05
2.73418e-05
1.33633e-05
1.14651e-06
1.0961e-05
4.90186e-10
1.89239e-09
2.16458e-09
2.90339e-09
2.42382e-09
2.47566e-09
2.09978e-09
2.60528e-09
2.19051e-09
2.41463e-09
1.23387e-08
6.41598e-10
2.10302e-09
1.30696e-09
1.65152e-09
1.61588e-09
1.52083e-09
2.61154e-07
2.43071e-07
2.1475e-06
0.00527572
0.000106964
8.2263e-05
4.9241e-05
2.55524e-05
9.97919e-06
6.35984e-07
8.87912e-06
1.67442e-05
2.54983e-05
3.20939e-05
2.45033e-05
1.79018e-05
1.20237e-05
7.13682e-06
3.13658e-06
3.14811e-07
3.63737e-06
7.27687e-06
1.11002e-05
0.000554245
0.000460002
0.000178526
7.5008e-05
2.79988e-05
8.00538e-06
5.15905e-07
5.32623e-06
1.16463e-05
1.80923e-05
7.73713e-08
3.8913e-08
3.55e-08
2.85966e-08
2.06991e-08
1.08356e-08
1.62368e-09
9.59847e-09
2.11962e-08
4.67035e-08
5.06095e-05
3.42742e-05
1.93708e-05
1.20538e-05
7.73966e-06
4.99238e-06
3.06493e-06
1.53877e-06
2.2936e-07
1.04915e-06
1.65451e-05
1.99998e-05
1.69701e-05
1.2682e-05
9.08877e-06
6.30367e-06
4.12782e-06
2.29028e-06
6.78117e-07
9.98928e-07
1.152e-08
4.37398e-09
4.94835e-09
4.03526e-09
4.0058e-09
3.6229e-09
3.90271e-09
3.37253e-09
2.91599e-09
2.99727e-09
0.00106776
0.000215509
2.05658e-05
5.77236e-05
4.97858e-05
3.49633e-05
2.17553e-05
1.06896e-05
1.20334e-06
7.86132e-06
7.16092e-09
1.09651e-09
1.90383e-09
2.03637e-09
1.3134e-09
1.53029e-09
1.15676e-09
1.32545e-09
1.217e-09
1.26718e-09
1.23861e-06
7.94121e-07
5.74362e-10
8.72588e-10
1.39172e-09
4.95807e-07
8.05531e-07
3.81873e-07
1.99436e-07
1.24514e-06
0.00316152
0.00064511
0.000448483
0.000304372
0.000211721
0.000144319
9.13795e-05
4.88669e-05
3.77113e-06
3.36957e-05
1.32336e-05
1.179e-05
6.00094e-06
1.68352e-06
9.97885e-07
2.72701e-06
4.05327e-06
5.3365e-06
6.77046e-06
7.77085e-06
0.000287154
0.000372462
0.00012487
4.61275e-05
1.32555e-05
7.12178e-07
3.91449e-06
6.36263e-06
1.01e-05
1.48094e-05
5.17417e-08
8.26591e-09
2.13989e-08
3.17082e-08
3.92451e-08
4.66998e-08
5.23679e-08
5.74814e-08
6.13423e-08
6.13386e-08
2.0669e-05
1.52893e-05
8.38373e-06
5.06183e-06
3.14589e-06
1.96488e-06
1.17515e-06
5.87559e-07
9.94373e-08
3.84214e-07
6.23416e-06
5.84011e-06
4.95098e-06
3.69785e-06
2.63316e-06
1.8037e-06
1.16686e-06
6.51441e-07
2.17804e-07
2.30649e-07
3.77292e-09
2.38222e-09
2.08102e-09
2.34115e-09
1.6703e-09
2.05364e-09
1.54708e-09
1.38279e-09
1.54708e-09
1.24372e-09
0.000713952
0.000178228
8.15721e-06
2.39523e-05
2.36085e-05
1.71196e-05
1.07307e-05
5.34719e-06
7.44597e-07
3.61781e-06
2.72632e-09
1.10897e-09
5.26479e-10
4.25664e-10
1.00815e-09
9.07336e-10
6.38496e-10
4.14462e-10
1.12017e-09
6.53225e-10
9.1235e-05
0.000129204
8.54154e-05
5.05516e-05
2.89035e-05
1.62819e-05
8.72054e-06
3.50849e-06
8.18253e-07
5.53356e-06
0.00490588
0.000677944
0.000506708
0.000382367
0.000287362
0.000212936
0.000153401
0.000104944
6.41707e-05
3.11358e-05
1.03971e-05
2.22848e-05
1.5567e-05
1.04158e-05
6.9268e-06
4.63195e-06
3.07438e-06
1.88903e-06
7.23243e-07
9.06249e-07
9.73269e-05
8.37507e-05
1.98341e-05
5.6369e-06
3.53221e-07
1.17027e-06
1.47113e-06
1.59386e-06
2.12197e-06
3.37444e-06
2.04922e-08
1.67813e-08
9.24023e-09
3.19781e-09
1.36503e-09
7.1879e-09
1.13403e-08
1.6829e-08
1.94923e-08
2.3301e-08
1.70872e-06
1.78942e-06
9.40359e-07
5.5245e-07
3.31519e-07
2.0221e-07
1.18819e-07
6.00888e-08
1.20112e-08
4.25792e-08
7.92576e-07
4.53124e-07
3.71036e-07
2.72081e-07
1.91353e-07
1.28466e-07
8.18447e-08
4.61343e-08
1.75832e-08
1.47195e-08
1.64789e-09
6.10924e-10
5.34559e-10
8.65476e-10
6.8729e-10
3.691e-10
9.03659e-10
3.43645e-10
7.76383e-10
5.47286e-10
5.29772e-05
2.82521e-05
2.4494e-06
2.71385e-06
2.99916e-06
2.23685e-06
1.41614e-06
7.16144e-07
1.17366e-07
4.66441e-07
1.2997e-09
5.1026e-10
2.91577e-10
5.31087e-10
1.97856e-10
3.12404e-11
5.51914e-10
5.62328e-10
2.0827e-10
2.3951e-10
0.000264541
0.000160074
9.49503e-05
5.42456e-05
3.05508e-05
1.69967e-05
8.9513e-06
3.62086e-06
7.33099e-07
5.32082e-06
0.526005
0.418964
0.530149
0.919617
0.686122
0.623863
0.739198
1.11566
0.849571
0.791482
0.937835
1.44122
0.616641
0.593184
0.702751
1.09974
0.450499
0.449063
0.53322
0.863283
0.298413
0.294924
0.365822
0.622509
0.198637
0.189615
0.253268
0.455007
0.128207
0.118233
0.169408
0.315544
0.0885352
0.0808789
0.122103
0.230978
0.0666976
0.0615658
0.0993567
0.188055
0.0358283
0.00179328
1.88585e-05
0.0190145
0.0785104
0.00651893
1.4111e-05
0.0409444
0.136613
0.0152006
7.63428e-06
0.0704174
0.124981
0.0170199
3.95068e-06
0.0603773
0.110287
0.0169897
2.04234e-06
0.0489176
0.0853353
0.0142365
1.05024e-06
0.037574
0.0644166
0.0110624
5.54658e-07
0.0305239
0.0464393
0.00833708
3.20566e-07
0.0231944
0.0357244
0.0071422
0.00104045
0.0184314
0.030101
0.00824453
0.00382096
0.0155012
0.0171039
0.0134496
0.0141275
0.0196806
0.0387133
0.0266632
0.0261747
0.0408094
0.074942
0.0486863
0.0492554
0.0796674
0.0710508
0.043072
0.0446851
0.0749942
0.0650956
0.0370611
0.0395666
0.0699567
0.051987
0.0280389
0.030678
0.0566908
0.0404129
0.0206545
0.0232326
0.0452024
0.029933
0.0145385
0.016689
0.0336754
0.0234813
0.0104545
0.0123934
0.0259861
0.0200749
0.00850492
0.0105694
0.0215273
0.00191927
0.0013882
0.00133693
0.00194887
0.00609273
0.00417333
0.00386234
0.00631424
0.016234
0.0110079
0.0104765
0.0165936
0.0190432
0.0125543
0.0123939
0.018969
0.0207144
0.0131688
0.0136023
0.0207292
0.018949
0.0116298
0.012446
0.0190383
0.0164217
0.00967183
0.0106892
0.0167371
0.0133855
0.00760367
0.00860481
0.0136686
0.0111883
0.00583588
0.00691407
0.0112356
0.00994004
0.00508154
0.00648132
0.0100752
0.000606761
0.000569095
0.000598963
0.000816678
0.00226591
0.00210325
0.00236457
0.00340704
0.00609158
0.00574178
0.00640272
0.00889187
0.00729246
0.0065476
0.00705801
0.00959947
0.00837924
0.00713399
0.00763196
0.0103481
0.00813552
0.00655887
0.00704028
0.0095142
0.00745517
0.00568234
0.00617883
0.00841236
0.00648645
0.00469276
0.00517407
0.00704955
0.00583477
0.00387374
0.00445868
0.00604599
0.00558675
0.00369043
0.00456144
0.00582636
0.000108643
0.000103586
0.000103508
0.000162835
0.000765239
0.000721335
0.000845368
0.00123409
0.00245377
0.0024882
0.00298582
0.0041085
0.00301898
0.00305272
0.00354254
0.00471719
0.00358371
0.0035499
0.00403768
0.0053126
0.00361414
0.00344883
0.00386823
0.00503545
0.00342449
0.00313011
0.00349257
0.00451882
0.00315347
0.00273727
0.00304604
0.00389804
0.00305427
0.00244015
0.00279336
0.00347046
0.00302835
0.00238166
0.00289271
0.00336853
6.85706e-06
8.63991e-06
4.1182e-06
2.28844e-05
0.000269696
0.000251142
0.000300594
0.000459426
0.0011729
0.00119769
0.00148003
0.002068
0.00149154
0.00157085
0.00189592
0.00252733
0.00179892
0.0019133
0.00227555
0.00297653
0.00184273
0.00193159
0.00226028
0.00291509
0.00174868
0.00179559
0.00207848
0.00264649
0.00166964
0.00164256
0.00187384
0.00235148
0.00169575
0.00155552
0.00178877
0.00213883
0.00169403
0.00153239
0.00182961
0.00205665
1.59895e-05
5.74152e-06
5.54656e-06
5.71406e-06
7.40321e-05
6.27881e-05
7.50358e-05
0.000128905
0.000535824
0.000528885
0.000659541
0.000946931
0.000755021
0.000795354
0.000972142
0.0013042
0.000954629
0.00103517
0.00125491
0.0016466
0.00102073
0.00110776
0.00132597
0.00171288
0.000971277
0.00105432
0.00125072
0.0015856
0.000959416
0.00101055
0.00117657
0.00146868
0.000961745
0.000966048
0.00111374
0.00131124
0.000975996
0.000979251
0.00115416
0.00128482
1.30208e-05
4.54713e-06
4.3759e-06
4.54505e-06
1.09237e-05
5.72327e-06
5.58021e-06
1.96721e-05
0.000232302
0.000209935
0.000261728
0.000400709
0.000376738
0.000390792
0.000479312
0.000649154
0.000503383
0.000548105
0.000669987
0.00088345
0.000577532
0.000635052
0.000767641
0.00099568
0.000554106
0.000618766
0.000742702
0.000939187
0.000574555
0.000627481
0.000738662
0.00092157
0.000548053
0.000583892
0.000672844
0.000789217
0.000579417
0.00062404
0.000727868
0.000809819
9.97969e-06
3.2974e-06
3.16886e-06
3.28201e-06
3.14878e-06
1.22206e-06
1.18655e-06
1.31736e-06
8.73241e-05
6.0375e-05
7.3496e-05
0.000138144
0.000181401
0.000181837
0.00022251
0.000305708
0.000256113
0.000276636
0.000339695
0.000451725
0.000321445
0.000353837
0.000429841
0.000561526
0.000307178
0.000349094
0.000421499
0.000531382
0.000343582
0.000382232
0.000452634
0.000566639
0.000313586
0.000346217
0.000398743
0.00046827
0.000349975
0.000393634
0.000455635
0.000507859
9.20059e-06
3.08892e-06
2.95028e-06
3.04937e-06
2.58398e-06
8.99844e-07
8.78821e-07
9.77661e-07
2.19564e-05
3.89564e-07
3.71397e-07
2.16345e-05
8.31004e-05
7.84768e-05
9.50588e-05
0.000133264
0.000125112
0.000132368
0.000163038
0.000220039
0.000176835
0.000192954
0.000235188
0.000310933
0.000163216
0.000187827
0.000227737
0.000285652
0.000204589
0.000228824
0.000272189
0.000343489
0.000177253
0.000199521
0.000229766
0.000270347
0.000212051
0.000244291
0.000281716
0.000314308
2.05981e-06
6.6195e-07
7.44177e-07
9.79667e-07
1.91141e-06
6.54523e-07
6.39252e-07
7.14182e-07
7.60564e-07
2.8047e-07
2.71279e-07
3.07163e-07
3.46852e-05
2.94337e-05
3.46558e-05
4.97345e-05
5.7326e-05
5.83276e-05
7.19753e-05
9.96533e-05
9.61727e-05
0.000103112
0.000125979
0.000169564
8.11695e-05
9.47143e-05
0.000115262
0.000142923
0.000121844
0.000135503
0.000161881
0.000207137
9.56026e-05
0.00010864
0.000125079
0.000147178
0.000127238
0.000148319
0.000171149
0.000190649
1.43637e-05
3.68094e-06
3.09569e-06
2.7839e-06
1.5232e-06
5.2879e-07
5.34969e-07
6.17334e-07
5.75985e-07