/*--------------------------------*- C++ -*----------------------------------*\
| =========                 |                                                 |
| \\      /  F ield         | foam-extend: Open Source CFD                    |
|  \\    /   O peration     | Version:     4.0                                |
|   \\  /    A nd           | Web:         http://www.foam-extend.org         |
|    \\/     M anipulation  |                                                 |
\*---------------------------------------------------------------------------*/
FoamFile
{
    version     2.0;
    format      ascii;
    class       volScalarField;
    location    "1000";
    object      divFlux;
}
// * * * * * * * * * * * * * * * * * * * * * * * * * * * * * * * * * * * * * //

dimensions      [1 -3 -1 0 0 0 0];

internalField   nonuniform List<scalar> 
34480
(
0.139882
0.0461592
0.0496793
0.0480599
0.0455772
0.0428401
0.0399155
0.03692
0.034035
0.031328
0.0569973
0.0292327
0.0304323
0.0303077
0.0301359
0.0296231
0.0284836
0.0267677
0.024739
0.0226454
0.0240155
0.015649
0.0160747
0.016427
0.0170336
0.0175658
0.0175818
0.0169324
0.0158087
0.0144697
0.0130725
0.00945289
0.00947784
0.0095876
0.00992846
0.010343
0.010525
0.0102911
0.00969755
0.0089001
0.00767999
0.00589366
0.00578361
0.00576037
0.0059052
0.00615245
0.00631654
0.00624994
0.00594347
0.00548045
0.00476028
0.00378672
0.00365322
0.00358879
0.00364325
0.00378719
0.00390785
0.00390266
0.00374259
0.00349482
0.00313575
0.00254666
0.00241896
0.00234527
0.00235833
0.0024443
0.00253318
0.00255538
0.00247669
0.00235026
0.00233743
0.00191086
0.00178245
0.00169887
0.00168382
0.00172906
0.00178914
0.00181861
0.00178449
0.00172233
0.0022973
0.00186786
0.00169735
0.00156255
0.00148019
0.00144687
0.00144182
0.00144492
0.00142714
0.00140151
0.0021842
0.00179452
0.00162188
0.00147652
0.00136494
0.00128873
0.00124718
0.00123601
0.00123534
0.00124485
0.193082
0.0586836
0.0628478
0.0613128
0.0587458
0.0562205
0.0538571
0.0518568
0.0506018
0.0536213
0.0845291
0.0401377
0.0416984
0.0414861
0.041102
0.0408027
0.0404167
0.0397789
0.0390007
0.0414131
0.0380707
0.0233627
0.0239842
0.0244763
0.0253343
0.0262088
0.0268799
0.0271298
0.0268673
0.0285379
0.0227092
0.0156399
0.015657
0.0158008
0.0163814
0.0171091
0.017753
0.0181278
0.018049
0.0191461
0.014652
0.0107905
0.0105522
0.0104931
0.0107736
0.0112882
0.0118031
0.0121752
0.0121932
0.0129291
0.00996112
0.00765076
0.00734488
0.00720789
0.00733162
0.00769221
0.00809484
0.00843038
0.00849244
0.00899952
0.00718727
0.00566586
0.00535242
0.00518921
0.00523474
0.00549846
0.00582843
0.00613809
0.00622905
0.00661428
0.00591669
0.00471904
0.00438182
0.00418224
0.0041636
0.00434312
0.00460869
0.00489328
0.00499819
0.0053118
0.00662304
0.00526754
0.00477774
0.00440738
0.00418085
0.00413006
0.00421108
0.00439154
0.00447863
0.00477266
0.00683963
0.00551039
0.00499438
0.0045763
0.0042641
0.00410082
0.00407414
0.00417069
0.00426808
0.00460304
0.210385
0.055187
0.0599926
0.0590979
0.0574493
0.0559849
0.0548959
0.0544245
0.0551811
0.00146727
0.0876491
0.0354826
0.0371754
0.0366366
0.0361111
0.0360747
0.0364397
0.0371174
0.0384244
0.0128901
0.0363123
0.0191414
0.0195876
0.0196299
0.0199197
0.0205786
0.0215973
0.0228067
0.0242778
0.0179621
0.0199814
0.0119338
0.011864
0.0117217
0.0118635
0.0122639
0.012997
0.0139665
0.0151607
0.0178158
0.0118692
0.00766736
0.00742958
0.00720081
0.00720232
0.00741683
0.00789634
0.0086152
0.00954348
0.0115161
0.00742041
0.00505573
0.00479925
0.00457189
0.00451028
0.00462642
0.0049473
0.0054798
0.00619592
0.00766394
0.00492362
0.00348099
0.00324775
0.00304526
0.00296392
0.00302876
0.00325599
0.0036664
0.00423756
0.00537437
0.00370429
0.00267527
0.00245866
0.00226929
0.00217267
0.00219815
0.0023609
0.00268847
0.00316801
0.00412136
0.00361038
0.00260574
0.00237842
0.00217148
0.00203051
0.00198152
0.00204724
0.00226962
0.00267689
0.00360776
0.00315517
0.00226749
0.00207769
0.00190934
0.0017948
0.00174993
0.00177943
0.00192717
0.00229228
0.00335128
0.230729
0.0543558
0.0595828
0.0593091
0.0582411
0.0573302
0.0567957
0.0551949
0.0412124
0.0151447
0.096041
0.0356811
0.0374441
0.0367373
0.0359594
0.0355935
0.0357165
0.0363646
0.0353844
0.0119602
0.0392037
0.0192865
0.0196917
0.0194842
0.0194464
0.0197683
0.0205062
0.0216343
0.0231467
0.0071088
0.0214392
0.0121138
0.0120205
0.0117612
0.0116898
0.0118756
0.012405
0.0132772
0.0144807
0.00461651
0.0126795
0.00784032
0.00759089
0.00729974
0.00719441
0.00726907
0.00761398
0.00825134
0.00917478
0.00397701
0.00789389
0.0051993
0.00493465
0.00467485
0.00455455
0.00458242
0.00481576
0.00528981
0.00600227
0.00473092
0.00521311
0.00359401
0.00335558
0.00313518
0.00302045
0.00302788
0.00319732
0.00356802
0.00414107
0.00510377
0.0038866
0.00276033
0.00254394
0.00234668
0.00223111
0.00221854
0.00234262
0.00264437
0.00313193
0.00395126
0.00368757
0.00264262
0.00242856
0.00223162
0.00209344
0.00203275
0.00208279
0.00229417
0.00271438
0.00354325
0.00317595
0.00227332
0.002097
0.00194096
0.00183802
0.00179706
0.00183399
0.00199413
0.00237421
0.00333672
0.249497
0.0528471
0.0584339
0.0586354
0.0579149
0.0572492
0.0538526
0.047696
0.0400839
0.0270973
0.103511
0.0352902
0.0372154
0.0365387
0.0356519
0.0350081
0.0347104
0.0348358
0.0283196
0.0150011
0.042027
0.019225
0.0196252
0.0192368
0.0189416
0.0189237
0.0192376
0.0199141
0.0198144
0.00691883
0.022885
0.0121645
0.0120744
0.0117148
0.0114822
0.0114574
0.0117051
0.0122569
0.013099
0.00211009
0.013484
0.00792891
0.00768434
0.00735875
0.00715526
0.00710366
0.00726861
0.00768496
0.00835437
0.000425341
0.00835973
0.00528439
0.00502698
0.00474953
0.00458257
0.00453072
0.0046474
0.00496888
0.00550368
0.00182455
0.00549281
0.00366383
0.00343262
0.00320703
0.00306832
0.00302573
0.00311744
0.00338047
0.00382766
0.00106482
0.00405329
0.00280664
0.0026004
0.00240653
0.00228154
0.00223854
0.00230993
0.00253397
0.00292988
0.000196333
0.00374237
0.00263445
0.00243785
0.00225623
0.00212721
0.00206228
0.00209144
0.00225997
0.00261683
0.00235338
0.00318477
0.00224089
0.00207928
0.0019363
0.00184263
0.00180517
0.00184344
0.00199695
0.00233982
0.00315838
0.266215
0.0506224
0.0564063
0.0569324
0.056406
0.0536964
0.0503023
0.0469197
0.0430837
0.037365
0.109268
0.0341926
0.0362642
0.035704
0.0348481
0.0341181
0.0335932
0.0316658
0.0263892
0.0189311
0.0446181
0.0189049
0.0193198
0.0188127
0.018336
0.0180577
0.0180148
0.0182328
0.0163221
0.00833728
0.0242089
0.0120561
0.0119783
0.0115413
0.0111854
0.0109897
0.0109949
0.0112237
0.0115303
0.00251442
0.0142075
0.00791023
0.0076827
0.00732237
0.00704607
0.00689229
0.00690139
0.007097
0.00746743
0.000901368
0.00877137
0.00529825
0.0050556
0.00476925
0.00456086
0.00444506
0.00445954
0.0046276
0.00494827
0.00333738
0.00573484
0.00368445
0.0034669
0.00324095
0.00308298
0.00299994
0.00302253
0.00317542
0.00346477
0.00377674
0.00418879
0.00281441
0.00262282
0.00243628
0.0023056
0.0022395
0.00226431
0.00240726
0.00268223
0.00425706
0.00377139
0.00259331
0.00241456
0.00224783
0.00212782
0.0020625
0.00207568
0.00219987
0.00247107
0.00284279
0.00317955
0.00218387
0.00203689
0.00190576
0.00181925
0.0017838
0.00181871
0.00195448
0.00224042
0.00183367
0.280328
0.0473893
0.0529749
0.0531696
0.0516979
0.0500434
0.047912
0.0461063
0.0439089
0.0413863
0.112926
0.0324278
0.0345749
0.0341384
0.033363
0.0326581
0.032026
0.0296002
0.0261184
0.0218462
0.0466814
0.0182771
0.0187303
0.0181811
0.0176149
0.0171858
0.0169173
0.0168229
0.0144464
0.00929014
0.0252584
0.0117496
0.0116996
0.011224
0.0107956
0.0104872
0.0103229
0.0103129
0.00944834
0.00329777
0.0147572
0.00775456
0.00755242
0.00717489
0.0068552
0.00663149
0.00652798
0.00655567
0.00668957
0.000253255
0.00907343
0.00521944
0.00499816
0.0047097
0.00447548
0.00431637
0.00425516
0.00430373
0.00444991
0.00303843
0.00590623
0.00364198
0.00344255
0.00322172
0.00305117
0.00294025
0.00291074
0.00297573
0.00313148
0.00402832
0.00427347
0.00277585
0.00260139
0.0024246
0.00229234
0.00221145
0.00220158
0.00227891
0.00244785
0.0052734
0.00376386
0.00251795
0.00235664
0.00220346
0.00209144
0.0020276
0.0020299
0.00211861
0.00231379
0.00457232
0.00315186
0.00210264
0.0019699
0.0018493
0.00176825
0.00173332
0.00176134
0.00187393
0.0021009
0.00377485
0.290683
0.0426357
0.0482172
0.0488988
0.0479523
0.046907
0.0454322
0.0444383
0.0429261
0.0419262
0.114431
0.0301317
0.0322681
0.0319238
0.031217
0.0305531
0.0294951
0.027892
0.0257219
0.0232984
0.0477815
0.0172864
0.0177844
0.0172563
0.0166823
0.0162073
0.0158489
0.0154419
0.0134486
0.0100551
0.0258217
0.0112036
0.0111944
0.0107229
0.0102769
0.00992249
0.00967324
0.00953202
0.00834787
0.00409531
0.0150288
0.00743706
0.00726863
0.0068967
0.00656571
0.00631025
0.00614373
0.00606933
0.00576426
0.000627716
0.00921027
0.00503147
0.00483702
0.00455669
0.00431673
0.00413684
0.00403012
0.00400094
0.00403124
0.00218543
0.00597553
0.00352572
0.00334724
0.00313701
0.00296397
0.00283995
0.00277746
0.00278225
0.00284432
0.00331512
0.00428934
0.00268469
0.00252854
0.00236399
0.00223458
0.00214763
0.00211588
0.00214717
0.00223884
0.00493393
0.00370937
0.00240586
0.00226138
0.00212057
0.00201583
0.00195413
0.00194854
0.00201055
0.00214898
0.00441656
0.00309318
0.0019954
0.00187647
0.00176545
0.00168889
0.00165346
0.00167253
0.00176038
0.00193403
0.003834
0.299719
0.0387919
0.044102
0.0449843
0.0442889
0.0435427
0.0423744
0.0417686
0.040521
0.0402223
0.11385
0.0274603
0.0295095
0.0292268
0.0285701
0.0278823
0.0268266
0.0257363
0.0243501
0.0228818
0.0476592
0.0159359
0.0164593
0.0159802
0.015439
0.0149764
0.014609
0.0139969
0.0126444
0.0104234
0.0257281
0.0104041
0.010435
0.00999552
0.00956892
0.00921691
0.00894767
0.00876115
0.00769795
0.00474656
0.0149379
0.00694925
0.00681706
0.00646825
0.00615061
0.00589501
0.0057083
0.00559
0.00506752
0.0014623
0.00913798
0.00472947
0.00456387
0.00430139
0.0040712
0.00389054
0.0037661
0.00369813
0.00320519
0.00127527
0.00591821
0.00333166
0.00317582
0.0029801
0.00281467
0.00268995
0.00261253
0.00258367
0.00259097
0.00235984
0.00422297
0.00253908
0.00240129
0.00225012
0.00212784
0.00204206
0.00199956
0.00200316
0.00201612
0.00414288
0.00359998
0.00225651
0.00212807
0.00199928
0.00190125
0.00184185
0.00182967
0.00187095
0.00196838
0.00343507
0.00299648
0.00186135
0.00175586
0.00165396
0.00158156
0.00154535
0.00155492
0.00161916
0.0017476
0.00319609
0.305854
0.035176
0.0400393
0.0409551
0.0403639
0.0397568
0.0387235
0.0383079
0.0371619
0.0371844
0.111216
0.0245466
0.0264471
0.0262058
0.0255928
0.0248003
0.0239798
0.0231878
0.0222412
0.0212329
0.0463236
0.0143066
0.0148257
0.0143997
0.0139017
0.0134682
0.0131173
0.0124866
0.011574
0.0101112
0.0249353
0.00938784
0.00944798
0.00905176
0.00865998
0.00833128
0.00807188
0.0078809
0.00708087
0.0050369
0.0144528
0.00630982
0.00621049
0.00589372
0.00560175
0.00536253
0.0051796
0.00505126
0.00459919
0.00209399
0.00883657
0.00432319
0.00418551
0.00394646
0.00373468
0.00356507
0.00344066
0.00336
0.00271955
0.000451067
0.00572159
0.00306514
0.0029316
0.00275339
0.00260107
0.00248345
0.00240358
0.00236053
0.00234181
0.00136081
0.00406726
0.00234228
0.00222249
0.00208519
0.0019729
0.00189209
0.00184614
0.00183522
0.00125031
0.00320513
0.00343095
0.00207207
0.00195912
0.00184178
0.00175108
0.00169416
0.00167619
0.00170049
0.00176684
0.00227709
0.00285694
0.00170169
0.00160911
0.00151637
0.00144855
0.00141202
0.00141284
0.00145638
0.0015479
0.002373
0.307778
0.0314986
0.0358059
0.0366619
0.036101
0.0355515
0.0345662
0.0342475
0.0331228
0.0332777
0.106504
0.0214942
0.0231982
0.0229859
0.0223572
0.0216673
0.0210037
0.0203914
0.0197019
0.0189124
0.0438939
0.0125067
0.0129952
0.0126216
0.0121702
0.011771
0.0113584
0.0108376
0.0101978
0.00919858
0.0234983
0.0082247
0.0083013
0.0079522
0.0076006
0.00730197
0.00706204
0.00687979
0.00632117
0.00487836
0.0135925
0.00555893
0.0054868
0.00520612
0.00494463
0.00472789
0.00455793
0.00443284
0.00411145
0.00237891
0.00831173
0.00383548
0.00372331
0.00351059
0.00332085
0.00316709
0.00305049
0.00296916
0.00235299
0.000137404
0.00538647
0.00273923
0.00262691
0.00246789
0.00233112
0.002224
0.00214764
0.00210041
0.00207099
0.000483601
0.00382214
0.00210258
0.00200012
0.00187735
0.0017762
0.00170192
0.00165601
0.00163753
0.000819802
0.00233901
0.00320127
0.00185748
0.00175959
0.0016541
0.00157155
0.0015175
0.00149496
0.00150544
0.00154733
0.0012655
0.00267228
0.00151973
0.00143986
0.00135643
0.0012942
0.00125815
0.00125191
0.00127857
0.00102459
0.00162091
0.303908
0.0276207
0.0313306
0.0321204
0.0316077
0.0311276
0.0301976
0.0299846
0.028873
0.0291074
0.0996594
0.0183793
0.0198604
0.0196686
0.0191105
0.0185198
0.0179685
0.0174732
0.0169443
0.0162541
0.040495
0.0106317
0.0110697
0.010748
0.0103477
0.00993979
0.00950773
0.00911422
0.00864561
0.00794112
0.0215075
0.00698791
0.00707003
0.00677021
0.00646234
0.00619792
0.00598252
0.00581521
0.00545393
0.00440147
0.0124058
0.00474418
0.00469371
0.00445154
0.00422321
0.00403195
0.00387911
0.00376292
0.00354922
0.00234263
0.00758828
0.00329593
0.0032066
0.00302207
0.00285625
0.00272043
0.0026149
0.00253781
0.00197914
0.000438512
0.00492543
0.0023722
0.00227979
0.00214116
0.00202121
0.00192602
0.00185572
0.00180862
0.00177482
0.000160363
0.00349433
0.0018316
0.00174576
0.00163824
0.00154897
0.00148209
0.00143798
0.00141537
0.000504414
0.00169453
0.00291398
0.00162019
0.00153707
0.00144412
0.0013705
0.00132029
0.00129501
0.00129508
0.00131821
0.000462037
0.00244329
0.00132096
0.00125346
0.00118003
0.00112427
0.00108981
0.00107869
0.00109253
0.00070793
0.00103745
0.293342
0.0233125
0.0262865
0.0269077
0.0263774
0.0259087
0.024994
0.0248795
0.0237628
0.0240899
0.0906498
0.0152964
0.0165197
0.016352
0.0158994
0.0154321
0.0149795
0.0145792
0.0141674
0.0135262
0.0361597
0.00871651
0.00908324
0.00879492
0.00840947
0.00803366
0.00768761
0.00738485
0.00702964
0.00652927
0.0190643
0.00574138
0.00582026
0.00557063
0.00530933
0.00508263
0.00489592
0.00474842
0.00455565
0.00376407
0.0109564
0.00391114
0.00387729
0.00367494
0.00348169
0.00331824
0.00318564
0.00308234
0.00293717
0.00209237
0.00670339
0.00273516
0.00266598
0.00251084
0.00237023
0.00225388
0.00216165
0.00209189
0.0015795
0.000511039
0.00435997
0.00198439
0.00191042
0.0017931
0.00169086
0.00160868
0.00154619
0.00150182
0.00146706
0.000580207
0.00309648
0.00154288
0.00147287
0.00138127
0.00130459
0.00124598
0.00120522
0.000999289
0.000201986
0.00130216
0.00257648
0.00136939
0.00130064
0.00122093
0.00115705
0.00111188
0.00108597
0.00107924
0.00108883
0.000158414
0.0021741
0.00111251
0.00105697
0.000994133
0.000945639
0.000914034
0.000900284
0.000905164
0.0004983
0.000641963
0.282437
0.0204384
0.0228743
0.0234467
0.0230092
0.0225752
0.0216032
0.0214241
0.019994
0.0200875
0.0795349
0.0122768
0.0132198
0.0130492
0.012649
0.0122427
0.0118898
0.0115994
0.0113389
0.0107856
0.0310136
0.0067512
0.00705436
0.00682324
0.00651217
0.00621093
0.00593894
0.00570605
0.00543296
0.00509014
0.0162794
0.00453822
0.00460729
0.00440718
0.00419391
0.0040072
0.00385206
0.00372785
0.00360967
0.00308051
0.00931765
0.00309984
0.00307807
0.00291542
0.00275803
0.00262375
0.00251351
0.00242598
0.00230652
0.00171821
0.00570251
0.00218174
0.0021299
0.00200435
0.00188951
0.0017936
0.00171632
0.00151817
0.00116572
0.000432507
0.00371821
0.00159591
0.00153866
0.00144298
0.00135894
0.00129059
0.00123736
0.00119787
0.00116495
0.000837269
0.00264626
0.00125058
0.00119536
0.00112004
0.00105645
0.00100694
0.000835571
0.000410189
0.00013403
0.0011316
0.00220035
0.00111543
0.00106039
0.00099435
0.000940851
0.000901843
0.000877337
0.000866968
0.000867772
0.000645282
0.0018723
0.000902581
0.000858372
0.000806509
0.000765904
0.000738275
0.000723963
0.000723235
0.000332237
0.000409088
0.222151
0.013306
0.0140984
0.0142543
0.0142427
0.0146719
0.0148059
0.0158773
0.0153921
0.0165261
0.0666504
0.00967775
0.0103812
0.0102231
0.00986806
0.00948782
0.00913309
0.0088164
0.00851538
0.00808133
0.0253605
0.00489749
0.00514334
0.0049653
0.00472365
0.00448948
0.00428073
0.0041042
0.0038965
0.003692
0.0132828
0.00342329
0.00347807
0.0033247
0.0031587
0.00301229
0.00288983
0.00279078
0.00269479
0.00243019
0.00757182
0.0023441
0.00233044
0.00220572
0.00208349
0.00197839
0.00189126
0.00182101
0.00168274
0.00128205
0.00463732
0.00166064
0.00162319
0.00152626
0.00143673
0.00136134
0.001189
0.000994656
0.000755212
0.000263764
0.00303302
0.00122515
0.00118261
0.00110807
0.00104209
0.000987853
0.000944789
0.000911761
0.000882867
0.000814603
0.00206121
0.00082303
0.000802436
0.000714557
0.000571352
0.000371144
0.000106512
0.000164906
0.000544269
0.00116145
0.001801
0.000868966
0.000826656
0.000774277
0.000731435
0.00069942
0.000678002
0.000666545
0.000662465
0.00066131
0.00154876
0.000699799
0.000666002
0.000625123
0.00059271
0.000569895
0.000556675
0.000553055
0.000206399
0.000275877
0.2786
0.0259865
0.0240397
0.0191196
0.0141988
0.0104315
0.00735676
0.00589093
0.00384639
0.00409354
0.0505814
0.00659853
0.00710807
0.00711503
0.0070519
0.00700264
0.00697231
0.00695168
0.00691809
0.00686523
0.0193253
0.00316928
0.00338594
0.00326452
0.00308614
0.00290624
0.0027423
0.0025985
0.00242752
0.00232723
0.0102231
0.00243388
0.00247267
0.00236167
0.00223984
0.00213159
0.00204052
0.00196629
0.00189319
0.00172913
0.00580956
0.00167118
0.00166246
0.00157239
0.00148306
0.0014057
0.00132702
0.00122051
0.0010914
0.000831162
0.00349145
0.00112093
0.00109903
0.00101353
0.00090899
0.000791737
0.000663438
0.000536234
0.000373457
5.70254e-05
0.00234039
0.00088773
0.000857627
0.00080287
0.000754008
0.000713489
0.000680805
0.000655057
0.00063158
0.000574884
0.00132567
5.74819e-05
8.41861e-05
0.000201548
0.000327138
0.000474078
0.000656604
0.000819822
0.00109578
0.00141016
0.00139682
0.000640107
0.000609204
0.000569952
0.00053759
0.00051293
0.000495601
0.000485034
0.000479013
0.00046917
0.00121706
0.000512376
0.000487809
0.000457452
0.00043313
0.00041556
0.00040459
0.000380105
0.000174303
0.000138435
0.281448
0.0327705
0.0395299
0.0414574
0.0407239
0.0384383
0.0353554
0.0319679
0.0278443
0.0253963
0.0373288
0.00519978
0.00458927
0.00370475
0.00292837
0.00236827
0.0020226
0.00184996
0.00179234
0.00176231
0.013151
0.00143532
0.00167325
0.00164638
0.00156603
0.00147155
0.00137968
0.00129453
0.00119152
0.001226
0.00726304
0.00159459
0.00161879
0.00154537
0.00146356
0.00138987
0.00132688
0.00127438
0.00122114
0.00110049
0.0040435
0.00102368
0.00102026
0.000952658
0.000876438
0.000800384
0.000726396
0.000657782
0.000572319
0.000415985
0.00234577
0.000584638
0.000555517
0.000491719
0.000418601
0.000340393
0.000257419
0.000177048
6.73977e-05
0.000126948
0.00167729
0.000595753
0.000575693
0.000538506
0.000505093
0.000477175
0.000454348
0.000435944
0.000418477
0.000375074
0.000485604
0.000804171
0.00106608
0.00121074
0.00132339
0.00143228
0.00155676
0.00165013
0.00186616
0.00192256
0.00100764
0.000437482
0.00041639
0.000389153
0.000366554
0.000349075
0.000336359
0.000327918
0.000321996
0.000309002
0.00089259
0.000347355
0.00033062
0.000309833
0.000293064
0.000280722
0.000272622
0.000268607
0.000260246
6.93291e-05
0.928214
0.0931092
0.0931539
0.0787843
0.063387
0.0498216
0.038494
0.0291676
0.0222691
0.015012
0.0463829
0.00924989
0.0102143
0.0103128
0.00983976
0.00903718
0.008078
0.00706685
0.00604218
0.00509542
0.00819753
0.000277628
0.000112451
0.000147336
0.000201765
0.000250874
0.000289213
0.000321204
0.000345971
0.000157284
0.00461157
0.000929845
0.000942797
0.000899883
0.000851456
0.000807528
0.000769707
0.000737618
0.00070336
0.000622586
0.00244164
0.000470304
0.000464485
0.00042241
0.000375262
0.000328757
0.00028407
0.000242688
0.000189231
0.000102053
0.00137803
0.000220716
0.000198383
0.000159504
0.000116081
7.06577e-05
2.29963e-05
2.36881e-05
9.42218e-05
0.000213394
0.00107892
0.000357191
0.000344823
0.000322332
0.000302041
0.000284978
0.000270856
0.000259212
0.000247656
0.000217773
0.000553508
0.00175361
0.00208663
0.00223851
0.00233385
0.0024123
0.00249519
0.00255294
0.0027395
0.00259964
0.000653388
0.000267612
0.000254536
0.000237696
0.000223682
0.000212733
0.000204566
0.00019882
0.000194214
0.000182133
0.000591202
0.000209877
0.000199482
0.0001869
0.000176732
0.000169167
0.000164045
9.54056e-05
7.51374e-05
1.86944e-05
4.53101
0.0349029
0.0353715
0.0317688
0.0272549
0.0227308
0.0185344
0.0149813
0.00969824
0.00807235
0.020703
0.0188774
0.0158174
0.0125816
0.00968609
0.00721765
0.00513517
0.00335949
0.00179882
0.000493861
0.0024837
0.000852027
0.000626745
0.000626564
0.000705123
0.000818799
0.000951948
0.00110177
0.00124088
0.00120972
0.00235199
0.000430787
0.000432399
0.000414559
0.000396237
0.000381
0.000369457
0.00036171
0.000353718
0.000318866
0.00121035
0.000151213
0.00014401
0.000122727
9.94329e-05
7.65936e-05
5.4457e-05
3.30756e-05
3.88938e-06
4.66682e-05
0.000688352
6.44574e-05
5.35335e-05
3.65646e-05
1.79974e-05
1.14768e-06
2.13631e-05
4.24619e-05
8.10136e-05
0.000161092
0.000575298
0.00017492
0.000168172
0.000157163
0.000147248
0.000138868
0.000131848
0.000125917
0.000119638
0.000102246
0.00154414
0.00226065
0.00249681
0.00259495
0.00265085
0.00269404
0.00274021
0.00278179
0.00293989
0.00277788
0.000351943
0.000133958
0.000127099
0.000118693
0.000111713
0.000106236
0.000102087
9.90455e-05
9.62887e-05
8.76618e-05
0.00171217
0.00188638
0.00188725
0.00186229
0.00186331
0.00187693
0.00189711
0.00194939
0.00193888
0.00200613
0.951706
0.0423754
0.0364178
0.0301458
0.0246396
0.0200539
0.0162576
0.0132833
0.0111369
0.010573
0.00657119
0.00474777
0.00414131
0.00340241
0.00268962
0.002041
0.00145515
0.000916132
0.000399182
9.66221e-05
0.000425025
0.000944555
0.00092076
0.000909449
0.000903617
0.000895914
0.00088918
0.000883435
0.000857762
0.000786205
0.000721544
0.000144271
0.000139717
0.000129993
0.000119976
0.000110556
0.000101725
9.32913e-05
8.36172e-05
6.50958e-05
0.000358433
3.7818e-05
3.29581e-05
2.60456e-05
1.93101e-05
1.30741e-05
7.04203e-06
8.85786e-07
9.92625e-06
5.0601e-05
0.000226688
3.41878e-05
3.04024e-05
2.58139e-05
2.17907e-05
1.82257e-05
1.46149e-05
1.02325e-05
3.70934e-06
6.69993e-05
0.00018425
5.86921e-05
5.56175e-05
5.19223e-05
4.86842e-05
4.59441e-05
4.36144e-05
4.15799e-05
3.92124e-05
3.20368e-05
0.00119652
0.00129359
0.00133028
0.00134637
0.00135686
0.0013665
0.00137971
0.00139939
0.00147828
0.00152978
0.000115077
4.57368e-05
4.29441e-05
4.01327e-05
3.78479e-05
3.6062e-05
3.47028e-05
3.36744e-05
3.26006e-05
2.85161e-05
0.00738399
0.00718205
0.00714758
0.0071143
0.00710214
0.00710256
0.00711216
0.00713935
0.00714723
0.00734757
1.47568
1.43695
1.64228
2.19199
1.11598
1.1207
1.32012
2.03606
0.636342
0.559331
0.856985
1.52766
0.306209
0.220994
0.474125
0.939517
0.128533
0.0725602
0.238018
0.533056
0.0898855
0.0425663
0.169776
0.556536
0.023395
0.00218314
0.0279021
0.238733
0.00509498
0.0182753
0.0287341
0.0919994
0.0266717
0.0295531
0.0750878
0.0476276
0.0330342
0.0315033
0.0969312
0.130506
0.105721
0.0187394
0.0908068
0.0347464
0.135816
0.00441189
0.0945284
0.00612339
0.116855
0.00381704
0.0762229
0.00665866
0.0957173
0.00719541
0.0493451
0.00585066
0.0829909
0.0103163
0.0290231
0.0114222
0.0702728
0.0142479
0.0274564
0.0145263
0.0621281
0.016459
0.0235848
0.0241929
0.0562051
0.0174014
0.0198377
0.0199694
0.052534
0.0174056
0.0197321
0.0197268
0.0458469
0.0202931
0.0240132
0.0238148
0.11893
0.107959
0.0980721
0.140365
0.111794
0.0929521
0.0788031
0.128006
0.093784
0.0683386
0.0588431
0.0969469
0.0815185
0.049272
0.0459827
0.0754918
0.0775395
0.0391056
0.0396474
0.0653882
0.0813541
0.0386124
0.0397922
0.0641196
0.0828304
0.0376231
0.0383788
0.0614877
0.0819311
0.0351236
0.0330456
0.0531747
0.0830623
0.0320281
0.0280688
0.047196
0.0865268
0.0285193
0.022977
0.0372298
0.00897321
0.00229739
0.00265046
0.00722497
0.000294476
0.0062159
0.00596839
0.0165916
0.00919756
0.00963219
0.00959106
0.0203036
0.0177129
0.0113226
0.0101689
0.0208612
0.0271381
0.0137385
0.0108327
0.0217421
0.0362947
0.0165126
0.0115431
0.0224071
0.0432015
0.0179205
0.0107164
0.0220323
0.0481884
0.0183654
0.00869809
0.0207973
0.0499088
0.0146204
0.00248582
0.0163321
0.0433515
0.00378059
0.00967715
0.00658593
0.0340224
0.0229906
0.0228557
0.0207592
0.0209017
0.00885283
0.00685132
0.00148275
0.00872169
0.000327051
0.000965504
0.00586411
0.000631599
0.00442269
0.00413085
0.00849345
0.00975242
0.00850183
0.00641901
0.0106755
0.0186787
0.0128478
0.00894206
0.0132943
0.0259027
0.015917
0.010015
0.0147194
0.0318742
0.0181809
0.00995429
0.0153558
0.0349323
0.0171373
0.0061582
0.0132623
0.0314242
0.0112742
0.00132944
0.00865756
0.0482441
0.0390067
0.0386169
0.0371528
0.0302257
0.0177007
0.0160125
0.0134351
0.0147482
0.00571485
0.00460483
0.0023003
0.00605646
0.000299748
0.000190514
0.00163452
0.00148265
0.0037424
0.00257619
0.00424697
0.00839408
0.00756875
0.00500032
0.00665276
0.0138721
0.0102795
0.00613552
0.00797648
0.0185281
0.0125191
0.00652717
0.00882522
0.0203426
0.0120739
0.00360094
0.00737542
0.0153137
0.00703445
0.00216163
0.00503729
0.0523127
0.0442737
0.0439004
0.0428398
0.0345991
0.0223672
0.0214154
0.0202255
0.016405
0.00785879
0.00722369
0.00637114
0.0082001
0.00243915
0.0023757
0.00193673
0.00182972
0.00120036
0.000448983
0.000744307
0.00374078
0.00454212
0.00284814
0.00303047
0.0080417
0.00696613
0.00417469
0.00437962
0.011662
0.0090801
0.00496046
0.0053689
0.0124713
0.00897826
0.00286204
0.00437057
0.00726255
0.00506007
0.000958915
0.00356011
0.0520093
0.0447809
0.0445001
0.043745
0.0358834
0.0244055
0.0238899
0.0233927
0.0173885
0.00924915
0.00894197
0.00878086
0.00944735
0.00387202
0.00390599
0.00408664
0.00372624
0.000542371
0.00109132
0.00135831
0.000983248
0.00234155
0.00117074
0.000765056
0.00443269
0.00436834
0.00245915
0.00198743
0.00726877
0.00619795
0.00337638
0.00296733
0.00714706
0.00603997
0.00174955
0.0022038
0.00235595
0.0029985
0.000641971
0.00226187
0.0491648
0.042585
0.042384
0.0418357
0.0342957
0.0237776
0.0234896
0.0233997
0.0174094
0.0097429
0.00961055
0.00975538
0.0101084
0.00469826
0.00478342
0.00520144
0.00492892
0.00165954
0.00209085
0.00252744
0.000772729
0.000898893
4.14128e-05
0.000528586
0.00212561
0.0026067
0.00124507
0.000570976
0.00446617
0.00419498
0.00220912
0.00153313
0.00361565
0.00376506
0.000777494
0.000796076
0.000300982
0.00152547
0.000617334
0.00129223
0.0449236
0.0389577
0.0388152
0.0384138
0.0310739
0.0216414
0.0214757
0.0216378
0.0162481
0.00929288
0.00924729
0.00951977
0.00995388
0.00489733
0.00499596
0.00548842
0.00548419
0.00227558
0.00261548
0.00307113
0.00190616
6.21446e-05
0.000709623
0.0012734
0.000499824
0.00133667
0.000327321
0.000341483
0.00249932
0.00272629
0.00128351
0.000602577
0.00132704
0.00207077
2.44582e-05
0.000167137
0.00170954
0.000502432
0.000763607
0.000535411
0.0397971
0.0344551
0.0343506
0.0340593
0.0270976
0.0188467
0.0187531
0.0190709
0.0142595
0.00818906
0.00818285
0.00848598
0.0090559
0.00454788
0.00463974
0.00513475
0.00536655
0.00241478
0.00267515
0.00309484
0.0024304
0.000599617
0.00108426
0.00158782
0.000554435
0.000460619
0.00029012
0.000890689
0.00116561
0.0016724
0.000616878
1.9205e-05
1.48293e-05
0.000961805
0.000528897
0.000733329
0.00233886
0.00013021
0.000901363
6.38689e-06
0.0345411
0.0298123
0.0297142
0.029495
0.0228427
0.0158324
0.0157848
0.0161981
0.0119009
0.00680626
0.00681798
0.00709775
0.00774217
0.00389448
0.00397265
0.00443491
0.00477907
0.00221808
0.00241254
0.00277198
0.00245457
0.000790381
0.0011462
0.00157086
0.00110146
6.96432e-05
0.000619731
0.00113965
0.000376877
0.000978725
0.000214178
0.000278962
0.000655359
0.000281377
0.000789928
0.00101029
0.00247573
0.000463525
0.000955861
0.000348719
0.0284465
0.0245366
0.0245403
0.0245023
0.0186817
0.0129001
0.0128748
0.0132451
0.00946672
0.00537387
0.00539311
0.00561877
0.00628827
0.00314125
0.00320597
0.00362053
0.00395631
0.00185175
0.0019944
0.00228429
0.00216692
0.000758682
0.00101546
0.00135557
0.00128501
0.000340846
0.00073709
0.0011781
4.53492e-06
0.000575549
2.96991e-05
0.000353205
0.000941768
0.000124495
0.00089489
0.00110481
0.00230421
0.000581346
0.000912448
0.000520341
0.023248
0.0196437
0.0194167
0.019264
0.0144412
0.010116
0.0101109
0.0103155
0.00714296
0.00402171
0.00404224
0.00419627
0.00486979
0.00240927
0.00246202
0.00282589
0.00305917
0.00142563
0.00152918
0.00174864
0.00172356
0.0006102
0.000792797
0.0010504
0.00125715
0.000453047
0.000734047
0.00107292
9.02873e-05
0.000375421
8.33991e-06
0.000280391
0.00101636
0.000365398
0.000914516
0.00110053
0.00196421
0.00056551
0.000798426
0.000569449
0.020219
0.0175809
0.0177037
0.0178402
0.0101765
0.00706683
0.00705052
0.00722605
0.0050308
0.00281669
0.00283618
0.00290531
0.00359622
0.00176636
0.00180896
0.00200578
0.00218532
0.00100071
0.00107499
0.00122761
0.00122521
0.00041004
0.000538108
0.00071938
0.00112441
0.00047559
0.000671868
0.000749835
2.34949e-06
0.000321355
5.58476e-05
0.000105816
0.00099334
0.000514264
0.000838914
0.000824962
0.00158531
0.000508195
0.000677056
0.000571125
0.00396386
0.00384908
0.00431491
0.00481836
0.00866569
0.00613107
0.0060985
0.00619053
0.00309969
0.00169941
0.00171743
0.00170223
0.00246435
0.00121437
0.00121229
0.00132724
0.00139514
0.000610765
0.000663516
0.000755538
0.000737624
0.000199036
0.000287728
0.000401226
0.000953171
0.000449288
0.000459632
0.000493133
0.000253231
0.000400977
0.000220073
0.000172937
0.000949078
0.000571746
0.000542553
0.000542799
0.00131419
0.000532272
0.000656384
0.000640119
0.0269263
0.0199227
0.0173705
0.0148779
0.0021943
0.00163908
0.00191516
0.00231316
0.00164624
0.000868924
0.000877634
0.000763332
0.00147916
0.000720166
0.000721414
0.000797935
0.000733659
0.000282712
0.000319919
0.000359693
0.000315373
1.44768e-05
7.55908e-05
0.000132203
0.000682914
0.000283311
0.00027452
0.000298651
0.000689057
0.00064023
0.000518065
0.000604286
0.000740625
0.000340427
0.000324536
0.000330669
0.00102851
0.00059603
0.00058821
0.000480531
0.0116207
0.00486005
0.000601024
0.00366083
0.00429986
0.00275879
0.00188037
0.000935369
0.000272456
2.3983e-05
8.34519e-05
7.39477e-05
0.000755225
0.00036745
0.000370844
0.000419388
0.000246017
5.1367e-05
7.78799e-05
7.75135e-05
1.92464e-05
9.49443e-05
5.18406e-05
3.66408e-05
0.000366541
0.000147487
0.000144158