/*--------------------------------*- C++ -*----------------------------------*\
| =========                 |                                                 |
| \\      /  F ield         | foam-extend: Open Source CFD                    |
|  \\    /   O peration     | Version:     4.0                                |
|   \\  /    A nd           | Web:         http://www.foam-extend.org         |
|    \\/     M anipulation  |                                                 |
\*---------------------------------------------------------------------------*/
FoamFile
{
    version     2.0;
    format      ascii;
    class       volScalarField;
    location    "1000";
    object      k;
}
// * * * * * * * * * * * * * * * * * * * * * * * * * * * * * * * * * * * * * //

dimensions      [0 2 -2 0 0 0 0];

internalField   nonuniform List<scalar> 
34480
(
8.70442
8.69806
8.69519
8.69321
8.69385
8.70983
8.7773
8.96732
9.38245
10.252
28.6784
30.5206
33.009
35.9683
39.5579
45.3157
58.4881
89.7552
146.678
213.915
55.8075
58.2755
61.3358
64.6952
68.1995
72.8499
83.8142
117.204
194.859
304.966
56.7175
60.0437
64.3103
69.1883
74.2335
79.9707
90.6472
123.873
213.083
356.332
52.9478
57.0586
62.5123
68.9757
75.8594
83.2868
94.8462
128.794
228.988
405.55
47.6135
51.968
57.952
65.4044
73.7502
82.9666
96.5212
133.707
248.992
464.664
41.6547
45.9298
52.0146
59.925
69.2863
80.0672
95.679
135.934
264.603
516.2
32.1943
35.7822
41.0468
48.2625
57.324
68.463
85.0941
126.601
261.714
536.124
13.7708
15.1723
17.4204
20.9193
26.0921
33.6048
45.8971
76.4425
179.16
404.54
9.14542
9.12982
9.13346
9.16307
9.22701
9.32017
9.42152
9.53075
9.72964
9.99481
8.61988
8.61935
8.62854
8.64793
8.67686
8.71706
8.78305
8.90528
9.13406
9.57695
20.192
21.5198
23.6968
26.7601
30.6694
35.0401
40.5309
53.4727
89.2312
170.279
41.1715
43.2563
46.165
49.8463
54.3406
59.6321
65.2885
77.887
125.074
253.818
42.9923
45.6939
49.4814
54.3045
60.0015
66.6713
73.5446
86.1276
139.96
303.398
41.0084
44.2747
48.9559
55.0048
62.1896
70.467
78.9217
92.1021
152.916
352.251
37.6003
41.0341
46.1108
52.9458
61.3608
71.175
81.4705
96.4927
167.716
414.064
33.5159
36.8792
42.0228
49.1993
58.4313
69.4843
81.518
98.3958
179.271
471.314
26.4182
29.1899
33.5796
40.0611
48.8725
59.9358
72.6203
90.5494
176.473
497.917
11.947
12.9128
14.5856
17.4105
22.0701
29.0861
38.1264
51.1224
113.99
368.239
9.01137
8.98834
8.9799
8.99392
9.045
9.1373
9.24184
9.32589
9.58437
10.2261
8.52403
8.52337
8.53023
8.54637
8.5726
8.60946
8.66058
8.73714
8.86094
9.06248
13.845
14.5932
15.8912
17.8503
20.5181
23.8669
28.072
34.1272
44.6521
62.5579
28.7525
30.2678
32.4459
35.271
38.7442
42.8541
47.5882
54.3631
69.3746
102.229
31.0869
33.0679
35.9424
39.7164
44.2385
49.518
55.2573
62.8055
81.9553
131.195
30.5472
32.9505
36.5375
41.3137
47.0978
53.8112
60.8815
69.344
93.0352
162.19
28.7336
31.279
35.2106
40.6794
47.5757
55.7412
64.4458
74.4693
104.375
199.314
26.2469
28.7665
32.8005
38.6155
46.2958
55.6602
65.9119
77.451
113.572
236.535
21.2732
23.3401
26.7722
32.0325
39.4154
48.8904
59.8064
72.3721
113.004
258.744
10.433
11.115
12.3387
14.4331
17.9851
23.58
31.2835
40.8711
70.9847
187.229
8.89476
8.86918
8.85455
8.85697
8.88697
8.95284
9.04466
9.12261
9.26144
9.70075
8.41566
8.41528
8.42005
8.4315
8.4505
8.47786
8.51496
8.56573
8.64188
8.7733
9.77609
10.1246
10.742
11.7515
13.2096
15.168
17.6975
20.9327
25.1832
30.7295
19.4058
20.3443
21.7119
23.5341
25.8335
28.6079
31.888
35.9586
41.9669
52.1051
21.7332
23.0091
24.882
27.39
30.472
34.139
38.3139
43.2893
51.2403
67.5239
22.1195
23.705
26.1189
29.3802
33.3896
38.1517
43.4338
49.404
59.5912
84.2228
21.4602
23.1698
25.8801
29.7102
34.6032
40.5457
47.2107
54.6396
68.1338
104.651
20.1962
21.9247
24.7736
28.9377
34.5067
41.4629
49.425
58.2137
75.0946
125.378
16.9823
18.4103
20.8446
24.6342
30.0338
37.1482
45.7094
55.4524
75.1737
137.893
9.18974
9.65119
10.4935
11.9094
14.2835
18.1224
23.8422
31.3232
46.3085
96.7674
8.76041
8.73612
8.72067
8.71841
8.73592
8.78139
8.85786
8.94495
9.04733
9.33998
8.29255
8.2921
8.29492
8.30192
8.31344
8.32993
8.35234
8.38343
8.43175
8.52425
7.46229
7.60304
7.84503
8.26255
8.88184
9.74494
10.8923
12.33
13.9761
15.7603
13.1068
13.6162
14.3598
15.3677
16.6586
18.2351
20.11
22.2904
24.7715
27.8868
15.0512
15.7832
16.859
18.3215
20.1482
22.3524
24.9263
27.8883
31.4033
36.6317
15.8583
16.8067
18.2598
20.236
22.6919
25.6537
29.0617
32.8982
37.6442
46.114
15.8944
16.9431
18.6281
21.0315
24.122
27.9528
32.438
37.5228
44.1804
57.8475
15.4421
16.5362
18.3684
21.0581
24.6713
29.2772
34.7806
41.0392
49.659
69.7449
13.5513
14.4731
16.0586
18.5317
22.0667
26.8284
32.8195
39.91
50.3222
76.7632
8.17415
8.47365
9.0245
9.91967
11.3681
13.7015
17.3427
22.4805
30.4714
51.6737
8.61972
8.59744
8.58249
8.57801
8.58799
8.61844
8.67517
8.7537
8.84478
9.03595
8.15565
8.15514
8.1568
8.16115
8.16824
8.17817
8.19145
8.21025
8.24228
8.31231
6.24554
6.29927
6.38512
6.54008
6.76704
7.07892
7.48912
7.99735
8.55773
9.11479
9.25327
9.50273
9.86183
10.3545
10.9898
11.7653
12.6779
13.6963
14.722
15.7388
10.6626
11.0438
11.6009
12.3715
13.346
14.5273
15.9061
17.4452
19.0178
20.7771
11.5254
12.049
12.8476
13.9381
15.3079
16.9711
18.9041
21.0527
23.2946
26.2911
11.8823
12.4807
13.4421
14.8234
16.6139
18.865
21.557
24.6278
27.9923
33.2191
11.884
12.5344
13.6261
15.2269
17.3838
20.1784
23.6059
27.5792
32.1073
40.2284
10.9014
11.4676
12.4335
13.9286
16.0574
18.9741
22.759
27.3791
33.0213
44.2299
7.35463
7.54299
7.89044
8.43218
9.26894
10.5793
12.6312
15.6486
19.8003
28.5516
8.47105
8.45133
8.43791
8.43318
8.4397
8.46151
8.50325
8.5661
8.64294
8.76408
8.0061
8.00555
8.00651
8.00932
8.01398
8.0205
8.02921
8.04189
8.06541
8.12242
5.62788
5.64781
5.6764
5.73215
5.81228
5.9182
6.05091
6.2073
6.37029
6.52758
7.09735
7.20754
7.35895
7.56613
7.83198
8.15401
8.52852
8.93588
9.32127
9.64936
8.00481
8.18349
8.43909
8.79874
9.25641
9.81115
10.4544
11.1572
11.8247
12.4269
8.73027
8.99688
9.39552
9.93764
10.6212
11.451
12.4136
13.471
14.4899
15.5689
9.16423
9.48292
9.98596
10.7082
11.6498
12.8409
14.2776
15.922
17.5879
19.6224
9.36343
9.72915
10.3333
11.209
12.3873
13.9266
15.838
18.0833
20.4308
23.7343
8.94654
9.28037
9.8336
10.6728
11.8505
13.4737
15.6154
18.2924
21.3003
26.0369
6.71313
6.82756
7.03904
7.35355
7.81522
8.50545
9.55156
11.0934
13.0746
16.5187
8.31316
8.29627
8.28488
8.28091
8.28615
8.30331
8.33538
8.38422
8.44503
8.51956
7.84533
7.84475
7.8453
7.84723
7.85055
7.85528
7.86169
7.87131
7.89029
7.93948
5.31801
5.32518
5.3341
5.35452
5.38399
5.42186
5.4674
5.51827
5.56782
5.61482
5.97503
6.02087
6.07797
6.15353
6.24785
6.35923
6.48587
6.62001
6.7404
6.83188
6.50465
6.58083
6.68445
6.83229
7.0192
7.24334
7.49966
7.77383
8.02223
8.21223
7.03105
7.1577
7.33909
7.58036
7.88089
8.24108
8.65384
9.10066
9.51441
9.89
7.41543
7.57533
7.81791
8.16108
8.60512
9.16435
9.83855
10.611
11.3737
12.1657
7.65792
7.8542
8.16704
8.60718
9.193
9.95451
10.9019
12.0232
13.1628
14.5106
7.55853
7.74922
8.04956
8.48919
9.08822
9.90471
10.9844
12.3541
13.8571
15.8526
6.22445
6.29121
6.41555
6.59125
6.83705
7.18517
7.68554
8.40045
9.26203
10.5454
8.14487
8.13085
8.12162
8.11879
8.12366
8.13805
8.16377
8.20201
8.24787
8.29476
7.6743
7.67371
7.67402
7.67545
7.67802
7.68174
7.68686
7.69472
7.71083
7.75441
5.16132
5.16364
5.16604
5.1739
5.18582
5.20122
5.21979
5.24043
5.2604
5.2795
5.4138
5.43304
5.45348
5.47825
5.50736
5.54021
5.57653
5.61424
5.64632
5.668
5.6993
5.72989
5.76801
5.82319
5.89138
5.971
6.05963
6.15151
6.22989
6.27793
6.04344
6.10114
6.17817
6.2759
6.39308
6.5285
6.67868
6.83661
6.97669
7.0889
6.33581
6.4128
6.52243
6.67249
6.86101
7.09291
7.36808
7.6809
7.98634
8.27147
6.54794
6.64959
6.8032
7.0088
7.2747
7.61225
8.02631
8.5148
9.00604
9.52649
6.60615
6.71273
6.86886
7.0858
7.3681
7.74006
8.22375
8.83775
9.5105
10.3139
5.86284
5.89974
5.97024
6.06468
6.19175
6.3624
6.59445
6.9118
7.2717
7.74011
7.9652
7.9539
7.94671
7.94498
7.94965
7.96191
7.98276
8.01272
8.04657
8.07744
7.49348
7.49289
7.49309
7.49422
7.49633
7.49944
7.50377
7.51046
7.52444
7.56343
5.07958
5.08005
5.08043
5.08378
5.08946
5.0972
5.10717
5.11906
5.13167
5.14426
5.13701
5.14558
5.15292
5.16031
5.16797
5.17604
5.18505
5.19511
5.20417
5.21047
5.27926
5.29126
5.30441
5.324
5.34742
5.37378
5.40225
5.43096
5.45387
5.46252
5.48637
5.51228
5.54379
5.581
5.62266
5.66768
5.71473
5.76199
5.80164
5.82888
5.68979
5.7261
5.77356
5.83543
5.90912
5.99568
6.09491
6.20556
6.31275
6.4042
5.84874
5.90005
5.97267
6.06356
6.17582
6.31236
6.47431
6.66191
6.84763
7.02952
5.97279
6.03157
6.11003
6.21202
6.33643
6.49157
6.68612
6.92909
7.19606
7.49609
5.60345
5.62218
5.66056
5.7093
5.77333
5.85552
5.96217
6.10261
6.25606
6.43792
7.77336
7.76451
7.7591
7.75824
7.76257
7.77283
7.78948
7.81258
7.83717
7.85821
7.30299
7.30243
7.30255
7.3035
7.30531
7.308
7.31177
7.31757
7.32979
7.36466
5.03442
5.03422
5.0341
5.03582
5.03916
5.04414
5.05124
5.06068
5.07196
5.08388
5.00094
5.00502
5.00777
5.00964
5.011
5.01223
5.01411
5.01738
5.02166
5.02597
5.06469
5.06938
5.0737
5.08054
5.08843
5.09699
5.10612
5.11541
5.12271
5.12321
5.17938
5.19097
5.20362
5.21722
5.23097
5.24429
5.25692
5.26899
5.27889
5.28473
5.31325
5.33024
5.35021
5.37466
5.4016
5.4311
5.46329
5.49861
5.5337
5.56161
5.42125
5.44653
5.47982
5.51835
5.56332
5.61511
5.67382
5.74035
5.80542
5.86565
5.56415
5.59637
5.63472
5.68055
5.73176
5.79087
5.86131
5.94729
6.04378
6.1517
5.42349
5.43159
5.45143
5.47555
5.50718
5.54663
5.59614
5.65981
5.72883
5.80784
7.56879
7.56204
7.55809
7.55782
7.56164
7.56996
7.5829
7.60028
7.61789
7.63247
7.10273
7.1022
7.10229
7.1031
7.10468
7.10705
7.11036
7.11542
7.12606
7.15703
5.00747
5.00708
5.00693
5.00805
5.01043
5.01428
5.0203
5.02909
5.04067
5.05362
4.93402
4.93606
4.93716
4.93744
4.93727
4.93706
4.93752
4.93951
4.94325
4.94801
4.95766
4.95954
4.96092
4.9633
4.96595
4.96876
4.97186
4.97531
4.97834
4.97796
5.01451
5.01961
5.0246
5.02942
5.03363
5.03702
5.0397
5.04224
5.04482
5.04677
5.09966
5.10761
5.11583
5.12509
5.13419
5.14308
5.1521
5.16214
5.17348
5.1827
5.16796
5.17999
5.19469
5.21041
5.22769
5.24653
5.26696
5.29006
5.31316
5.3346
5.30845
5.32613
5.3444
5.36394
5.38309
5.40261
5.42413
5.45003
5.48169
5.52214
5.303
5.30518
5.31472
5.32615
5.34179
5.36125
5.38526
5.41585
5.44931
5.48824
7.35116
7.34614
7.34333
7.3434
7.34659
7.35309
7.36285
7.37561
7.38809
7.39829
6.89251
6.89202
6.89208
6.89279
6.89417
6.89625
6.89915
6.90354
6.9127
6.93989
4.98994
4.98957
4.98954
4.99042
4.99231
4.99556
5.00099
5.00956
5.02176
5.03618
4.90101
4.90203
4.90252
4.90246
4.90214
4.90192
4.90239
4.90435
4.90827
4.91363
4.90586
4.90672
4.90718
4.90801
4.90888
4.90979
4.91093
4.91247
4.91419
4.91416
4.92886
4.93099
4.9329
4.93459
4.93583
4.93658
4.93698
4.93755
4.93879
4.94055
4.98218
4.98592
4.98926
4.99259
4.99528
4.99731
4.99902
5.00121
5.00495
5.00874
5.02318
5.02855
5.03468
5.04084
5.04733
5.05417
5.06145
5.07006
5.07937
5.08891
5.15324
5.16301
5.17153
5.17927
5.18521
5.18961
5.19335
5.19798
5.20596
5.22293
5.2252
5.22433
5.22835
5.2336
5.24169
5.25218
5.2651
5.28148
5.29932
5.32098
7.12036
7.11671
7.11476
7.11497
7.1175
7.12241
7.12957
7.13871
7.1475
7.1547
6.67211
6.67166
6.67171
6.67232
6.67352
6.67532
6.67784
6.68158
6.68934
6.7128
4.97758
4.9773
4.97739
4.97816
4.97972
4.98251
4.98745
4.99577
5.00847
5.02442
4.88464
4.88514
4.88539
4.88536
4.88522
4.88526
4.88597
4.88804
4.8921
4.89785
4.88171
4.88223
4.88246
4.88274
4.88297
4.88319
4.88358
4.88434
4.8855
4.88585
4.88632
4.8871
4.88779
4.88841
4.88886
4.88913
4.88933
4.88979
4.89095
4.89288
4.91973
4.92151
4.92287
4.924
4.92459
4.92466
4.92443
4.92448
4.92578
4.92786
4.94383
4.94591
4.9482
4.95054
4.95309
4.9559
4.95905
4.96312
4.96796
4.97366
5.06137
5.06683
5.07073
5.07344
5.07445
5.07383
5.07201
5.07005
5.06971
5.07828
5.17663
5.17438
5.17557
5.178
5.1827
5.1893
5.19747
5.2077
5.21825
5.23168
6.87647
6.87387
6.87253
6.87278
6.8747
6.87828
6.88338
6.88979
6.89598
6.9011
6.44134
6.44095
6.44099
6.4415
6.44252
6.44405
6.44619
6.44931
6.45572
6.47552
4.9682
4.96806
4.96826
4.96893
4.97021
4.97256
4.97695
4.98485
4.99776
5.01513
4.87653
4.87676
4.87693
4.87698
4.87704
4.87732
4.87819
4.88028
4.8843
4.89023
4.87095
4.87138
4.87156
4.87164
4.87162
4.87156
4.8716
4.87195
4.87276
4.87337
4.86655
4.86673
4.86694
4.86722
4.86752
4.86781
4.86817
4.86876
4.8699
4.87177
4.88769
4.88855
4.88913
4.88949
4.88952
4.88922
4.88871
4.88837
4.88886
4.89026
4.90235
4.90287
4.90352
4.90443
4.90566
4.90724
4.90919
4.91184
4.9151
4.91931
5.00733
5.0104
5.01216
5.01289
5.01239
5.01066
5.00782
5.00459
5.00164
5.00715
5.14697
5.14428
5.1441
5.14532
5.14855
5.15347
5.15956
5.16698
5.17377
5.18286
6.61974
6.61793
6.61703
6.61725
6.61864
6.62116
6.6247
6.6291
6.63347
6.63712
6.20015
6.19982
6.19984
6.20026
6.2011
6.20236
6.20411
6.20664
6.21175
6.22798
4.96065
4.96066
4.96092
4.96151
4.96251
4.96441
4.96815
4.97537
4.98808
5.00664
4.87258
4.87268
4.87282
4.87295
4.87315
4.87356
4.87449
4.87647
4.88026
4.8862
4.86639
4.86679
4.86696
4.86697
4.86685
4.86666
4.86652
4.86662
4.86718
4.86795
4.85837
4.85832
4.85837
4.85853
4.85878
4.85912
4.85955
4.86016
4.86114
4.86273
4.87184
4.87227
4.87253
4.87266
4.8726
4.87236
4.87199
4.8717
4.8719
4.87291
4.88169
4.88154
4.88156
4.88197
4.88276
4.88395
4.88549
4.88755
4.89001
4.89333
4.97427
4.97596
4.97672
4.97676
4.97606
4.97456
4.9722
4.96946
4.96604
4.97048
5.12868
5.12603
5.12522
5.12597
5.12853
5.13264
5.13767
5.14358
5.14816
5.15477
6.35061
6.34937
6.34878
6.34895
6.34991
6.35163
6.35402
6.35699
6.36004
6.36264
5.94866
5.94839
5.9484
5.94873
5.94938
5.95037
5.95174
5.95369
5.95757
5.97033
4.95421
4.95437
4.95466
4.95515
4.95588
4.95731
4.96029
4.96654
4.97848
4.99779
4.87071
4.87077
4.87089
4.87107
4.87133
4.87179
4.87267
4.87442
4.87782
4.88353
4.86445
4.86481
4.86497
4.86495
4.86481
4.86458
4.86437
4.86432
4.86469
4.86552
4.85582
4.85572
4.85571
4.85582
4.85602
4.85632
4.85669
4.85719
4.85792
4.8591
4.86437
4.86459
4.86472
4.86477
4.86474
4.8646
4.86439
4.86419
4.86426
4.86495
4.87169
4.87132
4.87116
4.87139
4.87199
4.87293
4.87415
4.87572
4.87751
4.88006
4.9515
4.9524
4.95267
4.95255
4.95204
4.95107
4.94951
4.94764
4.94456
4.9486
5.11622
5.11385
5.1128
5.11336
5.11555
5.11911
5.12341
5.12828
5.13129
5.13636
6.06974
6.06892
6.06854
6.06866
6.06929
6.07041
6.07196
6.0739
6.07597
6.07778
5.68738
5.68713
5.68713
5.68737
5.68784
5.68856
5.68955
5.69094
5.69367
5.70314
4.94816
4.94842
4.94873
4.94909
4.94956
4.9505
4.95265
4.9576
4.96804
4.98725
4.86981
4.86985
4.86996
4.87013
4.8704
4.87084
4.8716
4.87303
4.87584
4.88099
4.86332
4.8636
4.86373
4.86371
4.86359
4.8634
4.86319
4.86309
4.8633
4.86408
4.85579
4.85571
4.8557
4.85576
4.8559
4.8561
4.85635
4.85667
4.85713
4.8579
4.86114
4.86127
4.86135
4.86138
4.86135
4.86127
4.86113
4.86097
4.86094
4.86135
4.86639
4.86605
4.86589
4.86604
4.86646
4.86712
4.86795
4.86897
4.87011
4.8719
4.93265
4.93312
4.93318
4.93307
4.93277
4.93222
4.93129
4.93014
4.92766
4.93131
5.10474
5.10273
5.10167
5.10211
5.10396
5.10697
5.11054
5.11444
5.11615
5.12011
5.77806
5.77756
5.77733
5.7774
5.77778
5.77847
5.77941
5.78061
5.7819
5.78311
5.41695
5.41666
5.41666
5.41682
5.41713
5.41761
5.41826
5.41916
5.42085
5.42729
4.94072
4.94097
4.94125
4.94145
4.94168
4.94216
4.94343
4.94679
4.95485
4.97247
4.86922
4.86924
4.86932
4.86946
4.8697
4.87007
4.87066
4.8717
4.87373
4.87782
4.86213
4.8623
4.86239
4.86238
4.86231
4.86219
4.86205
4.86195
4.86205
4.86262
4.85678
4.85674
4.85673
4.85676
4.85683
4.85694
4.85706
4.85722
4.85745
4.85785
4.86005
4.86014
4.86019
4.8602
4.86017
4.8601
4.85998
4.85983
4.85973
4.85989
4.86267
4.86245
4.86236
4.86244
4.86268
4.86303
4.86346
4.86395
4.8645
4.86554
4.91416
4.91447
4.91449
4.91442
4.91422
4.91385
4.91324
4.91246
4.91075
4.91354
5.08619
5.08453
5.08361
5.08392
5.08534
5.08764
5.09032
5.09309
5.09358
5.09648
5.47668
5.47639
5.47627
5.4763
5.4765
5.47687
5.47739
5.47804
5.47876
5.47946
5.13678
5.13677
5.13678
5.13687
5.13703
5.13728
5.13762
5.13807
5.13888
5.14291
4.92402
4.92419
4.92438
4.92447
4.92453
4.92467
4.92516
4.92671
4.9314
4.94434
4.8681
4.8681
4.86816
4.86826
4.86844
4.86871
4.86911
4.86974
4.87091
4.87335
4.86096
4.86104
4.86108
4.86109
4.86106
4.861
4.86093
4.86088
4.86089
4.86113
4.85823
4.85821
4.85821
4.85822
4.85824
4.85828
4.85833
4.85838
4.85846
4.8586
4.86004
4.8601
4.86013
4.86013
4.8601
4.86004
4.85995
4.85983
4.85971
4.85971
4.86017
4.86008
4.86004
4.86008
4.86017
4.8603
4.86044
4.86057
4.86072
4.86108
4.89372
4.89395
4.89402
4.89398
4.8938
4.89348
4.89303
4.89251
4.89177
4.89336
5.03639
5.03498
5.03431
5.03444
5.03531
5.03673
5.03837
5.03993
5.03967
5.04114
5.16571
5.16556
5.1655
5.16551
5.16559
5.16573
5.16594
5.16621
5.16651
5.16687
12.1488
12.5833
12.3634
11.3322
211.591
206.149
202.84
198.409
321.188
314.318
307.324
292.837
393.98
386.716
375.638
355.506
469.17
461.185
444.916
421.571
554.204
541.059
515.461
485.954
627.594
609.234
577.058
545.532
660.905
638.315
602.119
568.362
517.712
494.661
461.021
429.451
13.1941
13.3757
13.286
13.1327
10.0767
10.4281
10.5737
10.4008
234.916
214.035
209.683
203.728
368.714
341.155
331.914
310.977
462.242
434.938
421.773
387.363
563.555
540.066
518.507
470.555
697.428
671.619
627.73
559.006
824.938
793.238
726.589
644.45
904.258
867.684
786.194
686.982
733.834
699.129
622.33
527.853
12.8345
12.9026
12.7198
12.3709
9.21457
9.37024
9.41409
9.31529
80.9516
82.797
79.6479
72.1927
137.402
139.243
132.06
116.898
182.851
183.703
172.839
151.527
234.97
235.056
219.754
191.029
303.231
304.053
283.856
244.66
377.845
379.204
353.165
303.108
434.806
435.28
402.768
342.696
347.925
345.734
315.507
260.537
10.7264
10.8121
10.7927
10.6936
8.92414
8.99701
9.00838
8.94264
33.6885
33.87
33.3005
31.7791
59.145
59.2548
57.3968
53.9259
79.4677
79.1138
75.8921
70.5829
103.101
102.19
97.1834
89.1148
133.686
132.09
124.713
113.315
167.25
164.812
154.747
139.75
193.23
190.015
177.831
159.994
147.814
143.927
133.473
117.534
9.76556
9.81984
9.84618
9.85067
8.69149
8.74477
8.7464
8.69152
16.4688
16.6059
16.4491
16.1016
29.8074
30.0331
29.5145
28.4928
40.0897
40.2701
39.3784
37.7788
51.9705
52.0866
50.6421
48.1339
67.6655
67.8411
65.8319
62.3282
84.8864
85.1297
82.4806
77.8175
97.8964
98.2494
95.1766
89.5461
71.2283
71.2062
68.7449
63.4677
9.20737
9.24515
9.27655
9.3019
8.48688
8.5327
8.53309
8.4853
9.18386
9.19681
9.16498
9.12166
16.1649
16.2127
16.0551
15.7504
21.6418
21.6902
21.4381
20.9837
27.9548
28.0252
27.6244
26.8965
36.3821
36.5737
36.0762
35.0867
45.5487
45.8979
45.2967
43.9772
52.1568
52.7024
52.0858
50.4731
35.7388
36.0508
35.6335
34.0638
8.81879
8.84034
8.86493
8.89405
8.29648
8.33817
8.33822
8.2951
6.51535
6.50373
6.49818
6.50898
9.72825
9.72874
9.67071
9.56782
12.6275
12.6304
12.5494
12.4078
16.0358
16.0593
15.9362
15.7003
20.6594
20.766
20.6473
20.3446
25.6468
25.869
25.7628
25.3656
29.0838
29.4496
29.3937
28.911
19.2159
19.4639
19.4766
19.009
8.51923
8.53097
8.54914
8.57672
8.10856
8.14717
8.1471
8.10745
5.61971
5.60815
5.60614
5.61783
6.83164
6.82048
6.79364
6.75541
8.23788
8.22568
8.19336
8.14773
10.0029
9.99855
9.9491
9.86334
12.4887
12.5228
12.4847
12.383
15.1756
15.267
15.2471
15.1189
16.9975
17.1652
17.1828
17.033
11.5139
11.6345
11.6873
11.5643
8.26869
8.27439
8.2873
8.3111
7.91609
7.95179
7.95168
7.91524
5.30198
5.29526
5.29409
5.30057
5.65871
5.64915
5.63471
5.6176
6.26529
6.25303
6.23836
6.22423
7.10261
7.09157
7.06722
7.03334
8.3571
8.36058
8.34215
8.30513
9.73933
9.76686
9.75826
9.71372
10.7265
10.7902
10.8013
10.7516
8.06997
8.1188
8.15041
8.12461
8.03979
8.0418
8.05066
8.07005
7.71621
7.7489
7.74878
7.71557
5.17548
5.17287
5.17222
5.17476
5.20535
5.19923
5.19065
5.18101
5.44777
5.43897
5.43158
5.42741
5.82127
5.81157
5.79799
5.78309
6.41651
6.41061
6.39893
6.38421
7.08256
7.08453
7.07632
7.05968
7.63024
7.64774
7.64777
7.62902
6.54457
6.56083
6.57327
6.57002
7.81606
7.81587
7.82177
7.83702
7.5074
7.53694
7.53681
7.50694
5.1184
5.1187
5.11844
5.11834
5.02507
5.02165
5.01626
5.00989
5.11301
5.10742
5.10345
5.10225
5.27683
5.27021
5.26213
5.2545
5.55688
5.55038
5.54252
5.5356
5.87032
5.86524
5.85793
5.85076
6.18972
6.19094
6.18612
6.17676
5.8377
5.84113
5.84418
5.84501
7.58944
7.58802
7.59184
7.6036
7.28876
7.31499
7.31485
7.28843
5.08869
5.09112
5.09112
5.08906
4.94975
4.9481
4.94465
4.94009
4.97176
4.96834
4.96611
4.9658
5.04191
5.03779
5.03285
5.02843
5.17662
5.17173
5.16649
5.16263
5.32837
5.32287
5.31721
5.31355
5.53106
5.52818
5.52263
5.51648
5.4903
5.48892
5.48845
5.49
7.35648
7.35443
7.35686
7.36579
7.05969
7.0825
7.08241
7.05943
5.07064
5.07482
5.07492
5.07117
4.91693
4.91644
4.91425
4.91081
4.91063
4.90859
4.9073
4.90723
4.93812
4.93569
4.93266
4.92994
5.00437
5.00112
4.99771
4.99534
5.08209
5.07781
5.07382
5.07178
5.22433
5.2213
5.21665
5.2121
5.31211
5.30903
5.30765
5.30958
7.11545
7.1132
7.11469
7.12138
6.81977
6.83943
6.83937
6.81956
5.05796
5.06361
5.06374
5.05851
4.90213
4.90242
4.90105
4.89834
4.88407
4.8829
4.88214
4.88208
4.89196
4.89058
4.88875
4.88706
4.92519
4.92317
4.92102
4.91953
4.96846
4.96549
4.96285
4.96174
5.07845
5.07628
5.07285
5.06938
5.21806
5.21442
5.2131
5.21549
6.86535
6.86316
6.86404
6.86898
6.56886
6.58553
6.5855
6.56874
5.04801
5.05511
5.05523
5.04844
4.8952
4.89605
4.89523
4.89295
4.87276
4.87215
4.8717
4.87155
4.87165
4.87092
4.86984
4.86879
4.8888
4.88761
4.8863
4.88537
4.91584
4.91393
4.91229
4.91173
5.00782
5.00659
5.00424
5.00157
5.16692
5.16317
5.1622
5.16506
6.60555
6.60359
6.60409
6.60766
6.30701
6.32072
6.3207
6.30694
5.03954
5.04829
5.04837
5.03984
4.89173
4.893
4.89254
4.89048
4.86816
4.86794
4.86765
4.86739
4.86297
4.86261
4.86199
4.86135
4.8722
4.87153
4.87075
4.87016
4.89127
4.89014
4.88919
4.88892
4.97206
4.97165
4.97012
4.96795
5.13757
5.13388
5.13328
5.13653
6.33572
6.3341
6.33436
6.33687
6.0343
6.04513
6.04512
6.03427
5.03189
5.04249
5.04254
5.03205
4.88953
4.89114
4.89091
4.88891
4.86631
4.86636
4.86617
4.8658
4.85944
4.85928
4.85893
4.85853
4.86464
4.86428
4.86382
4.86344
4.87904
4.87846
4.87794
4.87778
4.95112
4.95139
4.95041
4.94843
5.11849
5.11499
5.1147
5.11815
6.05589
6.05464
6.05477
6.05646
5.75126
5.75933
5.75933
5.75124
5.02397
5.03645
5.03646
5.02403
4.8872
4.88904
4.88895
4.88695
4.86518
4.8654
4.86528
4.86484
4.85817
4.8581
4.8579
4.85767
4.86121
4.861
4.86071
4.86045
4.87157
4.87136
4.87109
4.87093
4.93445
4.93527
4.93457
4.93252
5.10214
5.09909
5.09902
5.1023
5.76649
5.76562
5.76567
5.76672
5.45879
5.46434
5.46433
5.45879
5.01197
5.02572
5.02571
5.01196
4.88353
4.88533
4.8853
4.88347
4.86365
4.86391
4.86384
4.86345
4.85799
4.85794
4.85784
4.85771
4.85976
4.85961
4.85943
4.85926
4.86563
4.86563
4.8655
4.86533
4.91617
4.91719
4.91659
4.9145
5.07936
5.07734
5.07741
5.07982
5.46839
5.46791
5.46793
5.46846
5.1569
5.16035
5.16035
5.1569
4.97981
4.99224
4.99223
4.97977
4.87727
4.87845
4.87844
4.87728
4.86168
4.86183
4.86179
4.86158
4.85862
4.85857
4.85851
4.85847
4.85956
4.85944
4.85932
4.85924
4.86123
4.86129
4.86124
4.86114
4.89373
4.89403
4.89349
4.89223
5.02646
5.02636
5.02655
5.02715
5.1616
5.16146
5.16146
5.1616
10.1294
9.42673
9.09937
8.97258
8.91638
8.86866
8.8191
8.77455
8.74042
8.71765
196.445
103.454
61.8631
49.86
43.8
38.483
34.0858
30.758
28.7324
28.0075
265.024
124.019
88.3491
74.7808
67.9054
62.6365
58.8176
56.1919
54.7118
54.5087
306.902
133.429
97.7247
80.8691
71.7669
64.9531
60.189
56.9754
55.099
54.938
367.627
148.839
106.426
84.9656
72.5528
63.7761
57.726
53.6726
51.1656
50.8515
439.593
177.82
117.769
89.4942
73.0463
62.0113
54.4758
49.4598
46.2651
45.5917
506.102
204.09
123.211
89.8859
70.5831
58.2145
49.8341
44.326
40.7423
39.8084
532.591
208.77
112.823
79.01
59.4215
47.5321
39.7
34.7656
31.6436
30.7397
397.858
129.845
56.4796
35.9372
24.8448
19.1812
16.05
14.4093
13.4247
13.1472
12.8303
10.5677
9.9371
9.66133
9.48834
9.37342
9.29645
9.24144
9.1949
9.16098
9.72013
9.2509
9.02453
8.90121
8.82383
8.76502
8.71596
8.67609
8.64719
8.62897
130.883
71.1178
48.322
38.6693
33.041
28.6017
25.0302
22.3289
20.6346
19.8929
181.9
96.1383
70.3204
58.7181
52.2009
47.4565
44.0372
41.7083
40.4192
40.1803
212.404
108.037
79.087
64.5079
56.207
50.2687
46.1587
43.4379
41.886
41.662
250.448
121.633
86.9739
68.5096
57.7333
50.3235
45.2711
41.951
39.9086
39.4967
317.792
144.851
97.5465
73.3682
59.3435
50.0511
43.7575
39.6224
36.9685
36.1972
393.519
166.821
103.705
74.9735
58.4966
47.9975
40.9385
36.3537
33.3174
32.2752
433.154
172.956
96.8886
67.2489
50.3056
40.0557
33.3574
29.1815
26.4863
25.4939
325.372
109.214
49.69
31.3882
21.7692
16.8806
14.1805
12.7749
11.906
11.5935
11.6779
10.2498
9.73397
9.49226
9.3424
9.24117
9.17118
9.11937
9.07414
9.03729
9.12069
8.91742
8.81112
8.73807
8.68004
8.63203
8.59323
8.5635
8.54286
8.53034
55.3377
41.7112
33.2649
27.4007
22.9958
19.6054
17.0743
15.2688
14.1783
13.6979
84.8021
62.8157
50.9763
42.8397
37.4252
33.576
30.8885
29.1111
28.1745
28.0302
105.653
74.287
58.5296
47.9339
41.2277
36.5657
33.3951
31.3418
30.2342
30.1084
128.396
85.1918
65.0127
51.5071
43.1345
37.462
33.633
31.1665
29.7173
29.4436
159.511
101.392
73.4857
56.0214
45.2858
38.1591
33.3488
30.229
28.2895
27.7198
194.898
116.357
78.9009
58.1919
45.5264
37.3821
31.9193
28.4159
26.1517
25.3526
220.215
121.093
74.5672
53.113
39.9043
31.8529
26.6161
23.3959
21.3688
20.6149
160.626
74.3731
37.757
24.9547
17.7303
14.1051
12.0952
11.046
10.4031
10.1841
10.5173
9.84613
9.50412
9.31838
9.19744
9.11347
9.05235
9.00445
8.96043
8.9233
8.78559
8.6694
8.60342
8.5543
8.51476
8.4828
8.45773
8.43898
8.42635
8.41918
29.0757
24.7144
20.7413
17.4248
14.8286
12.8763
11.475
10.5084
9.94333
9.70058
47.3318
39.7915
33.6744
28.7547
25.1809
22.6067
20.8096
19.63
19.0262
18.9485
60.2263
48.8428
39.9284
33.2549
28.6843
25.4782
23.2927
21.8859
21.1564
21.0939
73.5447
57.5265
45.2295
36.5229
30.7666
26.8334
24.1786
22.4912
21.5435
21.3881
92.4094
69.6212
52.0593
40.6069
33.1029
28.0574
24.6494
22.4631
21.1546
20.7858
112.938
80.5077
56.8123
43.0157
33.9966
28.1179
24.18
21.6878
20.132
19.5942
128.065
83.844
54.5125
40.0003
30.4251
24.543
20.7385
18.4349
17.0349
16.5339
90.6397
49.402
27.2747
19.0605
14.1661
11.7143
10.3308
9.60158
9.15614
9.01664
9.83258
9.46425
9.24807
9.11389
9.02242
8.95509
8.90363
8.86158
8.82146
8.78714
8.52083
8.44226
8.40082
8.372
8.34933
8.33097
8.31639
8.30541
8.29817
8.29445
15.6307
13.9953
12.2927
10.8252
9.67093
8.80809
8.19246
7.76593
7.52018
7.42038
26.6501
23.6623
20.735
18.2512
16.3259
14.8924
13.875
13.2057
12.8731
12.8453
34.7943
30.0924
25.4798
21.8826
19.2285
17.3098
15.983
15.126
14.6944
14.6719
43.3991
36.3652
29.5758
24.6646
21.1791
18.7425
17.0881
16.0468
15.485
15.4108
55.4953
44.9156
34.8635
28.1163
23.3739
20.1161
17.9067
16.5023
15.6908
15.4761
68.3421
52.6218
38.8381
30.4243
24.5406
20.6325
18.0135
16.3772
15.3891
15.0589
77.4762
55.0603
38.0044
28.8858
22.5027
18.5362
15.981
14.4558
13.5599
13.257
52.279
31.1135
19.1802
14.3698
11.3642
9.82143
8.92069
8.43785
8.14146
8.05658
9.32422
9.12501
9.00246
8.91118
8.84404
8.79057
8.74757
8.71114
8.67521
8.64417
8.30727
8.24659
8.21872
8.20135
8.18812
8.17733
8.16868
8.16223
8.15822
8.15659
9.15281
8.62561
8.02441
7.49509
7.07342
6.75291
6.5181
6.34887
6.25223
6.21898
15.2041
14.0434
12.7771
11.6554
10.7467
10.0594
9.57106
9.25275
9.10472
9.11065
20.0775
18.1256
15.9793
14.2218
12.8478
11.8325
11.1253
10.6676
10.4459
10.4508
25.3512
22.1794
18.8471
16.3173
14.4169
13.0655
12.1483
11.5789
11.2855
11.2657
32.8086
27.768
22.6425
18.967
16.2309
14.3154
13.015
12.1966
11.7398
11.6339
40.6662
32.8693
25.6839
20.9006
17.375
14.9893
13.3919
12.4066
11.8289
11.6477
45.9813
34.6312
25.6693
20.2974
16.3898
13.9258
12.342
11.4072
10.875
10.7111
29.6193
19.319
13.6324
11.0247
9.3168
8.39177
7.82705
7.51729
7.32534
7.27589
8.9366
8.83712
8.7711
8.71007
8.66073
8.61833
8.58266
8.5516
8.52009
8.49268
8.11814
8.06704
8.04592
8.03406
8.02541
8.01847
8.01301
8.00909
8.00695
8.00651
6.56897
6.42014
6.23217
6.06115
5.92015
5.80787
5.72088
5.65454
5.61775
5.61027
9.38841
8.94474
8.44867
8.00259
7.6382
7.36466
7.17313
7.0512
7.00301
7.02244
12.1045
11.2987
10.3793
9.59884
8.97186
8.50582
8.18139
7.97079
7.87503
7.89262
15.1248
13.7036
12.1974
10.9983
10.075
9.41686
8.97475
8.70593
8.57656
8.58578
19.4841
17.1342
14.7118
12.8447
11.4132
10.4013
9.71653
9.28969
9.06034
9.02112
24.0675
20.3247
16.8371
14.2902
12.3614
11.0384
10.1545
9.61541
9.30726
9.22093
27.0724
21.5722
17.1714
14.2113
12.0251
10.6236
9.72158
9.19266
8.90082
8.82442
17.1886
12.6147
10.1435
8.80717
7.88649
7.34906
7.00488
6.81092
6.68934
6.66156
8.62893
8.58415
8.54826
8.50728
8.47076
8.43735
8.40816
8.38225
8.35528
8.33173
7.93632
7.89076
7.87313
7.86394
7.85756
7.85261
7.84886
7.84636
7.84525
7.84546
5.63693
5.59463
5.5323
5.47324
5.42276
5.38077
5.34649
5.31925
5.30525
5.30629
6.69583
6.5442
6.37813
6.22896
6.1084
6.0198
5.95973
5.92385
5.91645
5.93598
8.05313
7.75559
7.40762
7.10531
6.85942
6.67591
6.54749
6.46276
6.42839
6.44701
9.64293
9.05529
8.43881
7.93428
7.54526
7.26954
7.08706
6.97937
6.93402
6.95287
12.0537
11.0317
9.96773
9.10491
8.437
7.96208
7.64094
7.44189
7.3402
7.33444
14.6083
12.9218
11.3279
10.0827
9.13017
8.46859
8.02554
7.75721
7.60742
7.57349
16.2894
13.7898
11.7492
10.2502
9.13628
8.40564
7.9316
7.65451
7.5077
7.48032
10.8897
9.07094
8.05814
7.39699
6.91505
6.60863
6.40279
6.28315
6.20718
6.19175
8.36642
8.34847
8.32785
8.30001
8.27294
8.24693
8.22348
8.20239
8.17997
8.16033
7.75223
7.71083
7.69546
7.68782
7.68268
7.67884
7.67605
7.67433
7.67377
7.67429
5.29147
5.27536
5.2487
5.22319
5.2015
5.18339
5.16826
5.15612
5.15065
5.15366
5.59362
5.54442
5.49471
5.45085
5.4168
5.39347
5.37956
5.37364
5.3783
5.39309
6.20122
6.10922
5.99507
5.89285
5.80774
5.74314
5.69701
5.66552
5.65532
5.66975
6.95197
6.73909
6.519
6.33558
6.19417
6.09435
6.02981
5.99399
5.98377
6.00161
8.18614
7.79146
7.37249
7.01921
6.74236
6.54261
6.40661
6.32264
6.28332
6.2902
9.5225
8.83538
8.1707
7.62556
7.20248
6.90174
6.69777
6.57481
6.50812
6.49875
10.4621
9.42592
8.55395
7.86556
7.34579
6.99283
6.76062
6.62586
6.55932
6.55595
7.90229
7.24245
6.83645
6.51596
6.26732
6.0947
5.97298
5.89959
5.85212
5.84314
8.12471
8.11831
8.10561
8.08654
8.06658
8.04668
8.02825