/*--------------------------------*- C++ -*----------------------------------*\
| =========                 |                                                 |
| \\      /  F ield         | foam-extend: Open Source CFD                    |
|  \\    /   O peration     | Version:     4.0                                |
|   \\  /    A nd           | Web:         http://www.foam-extend.org         |
|    \\/     M anipulation  |                                                 |
\*---------------------------------------------------------------------------*/
FoamFile
{
    version     2.0;
    format      ascii;
    class       volScalarField;
    location    "1000";
    object      MaU;
}
// * * * * * * * * * * * * * * * * * * * * * * * * * * * * * * * * * * * * * //

dimensions      [0 0 0 0 0 0 0];

internalField   nonuniform List<scalar> 
34480
(
0.629956
0.635127
0.640094
0.645083
0.650381
0.65588
0.659745
0.65623
0.635585
0.570423
0.637199
0.643361
0.649055
0.654371
0.659831
0.665896
0.671908
0.673964
0.66395
0.610154
0.640708
0.647703
0.654316
0.660652
0.66714
0.674512
0.682781
0.68906
0.686961
0.643417
0.641509
0.650005
0.658213
0.66625
0.674362
0.683258
0.693354
0.702775
0.70683
0.671157
0.64198
0.651792
0.661372
0.670899
0.680527
0.690877
0.702576
0.714651
0.723901
0.694309
0.641343
0.652184
0.662787
0.67343
0.684251
0.695794
0.708796
0.723071
0.736749
0.7122
0.641104
0.652605
0.663797
0.675077
0.686602
0.698903
0.71285
0.729082
0.746999
0.727432
0.640143
0.651939
0.66333
0.674784
0.686467
0.698919
0.713169
0.730789
0.752747
0.738553
0.639995
0.65185
0.663264
0.674786
0.68657
0.699076
0.713352
0.731843
0.757586
0.748071
0.635734
0.647643
0.659121
0.670634
0.68217
0.694064
0.707404
0.725448
0.75447
0.750625
0.605126
0.608002
0.609564
0.609529
0.607442
0.602484
0.593369
0.578375
0.552978
0.498812
0.618297
0.622624
0.625798
0.627396
0.627089
0.624187
0.617163
0.603783
0.580506
0.525882
0.625554
0.630968
0.635407
0.638607
0.64023
0.639767
0.635794
0.625586
0.605794
0.552255
0.628866
0.635803
0.641928
0.647063
0.650783
0.652595
0.65121
0.643828
0.627386
0.57586
0.631048
0.639317
0.646897
0.653668
0.659225
0.663035
0.663914
0.659163
0.645958
0.596959
0.6317
0.641056
0.649769
0.657803
0.664821
0.670268
0.673049
0.670655
0.660365
0.613538
0.632414
0.64251
0.651949
0.660802
0.668817
0.675474
0.679823
0.679689
0.672461
0.628374
0.632122
0.642626
0.652438
0.661717
0.670273
0.677667
0.683132
0.684983
0.681042
0.640711
0.632159
0.642772
0.65272
0.662254
0.671269
0.679355
0.685803
0.689363
0.688841
0.652415
0.628349
0.639016
0.649109
0.658766
0.667821
0.675914
0.682556
0.686957
0.689918
0.658465
0.586689
0.588236
0.588292
0.586641
0.582896
0.576526
0.566829
0.552993
0.533626
0.505861
0.602487
0.605422
0.606971
0.606754
0.604278
0.598767
0.589084
0.57367
0.550194
0.514727
0.611932
0.61605
0.61891
0.620176
0.61938
0.615687
0.607619
0.592926
0.568285
0.52687
0.61705
0.622639
0.627109
0.630178
0.631278
0.629541
0.623264
0.609623
0.584475
0.538216
0.620578
0.627475
0.633378
0.638045
0.640885
0.640999
0.636546
0.624277
0.599307
0.549523
0.622292
0.6303
0.637376
0.64334
0.64764
0.649355
0.646574
0.635779
0.611403
0.559213
0.623809
0.632608
0.640499
0.64738
0.652776
0.655783
0.654521
0.645384
0.622209
0.568888
0.624144
0.63343
0.641813
0.649272
0.655412
0.659381
0.659408
0.651992
0.630589
0.577315
0.624572
0.634007
0.64258
0.650353
0.657054
0.661908
0.663237
0.657655
0.638442
0.585224
0.621396
0.630868
0.639594
0.647501
0.654285
0.659232
0.661119
0.656956
0.640375
0.58741
0.573654
0.574394
0.573823
0.571814
0.568184
0.562739
0.555363
0.546183
0.535497
0.522992
0.589705
0.591556
0.59203
0.590859
0.587688
0.582056
0.57341
0.561245
0.545129
0.525301
0.600113
0.603084
0.604706
0.604662
0.602536
0.59769
0.589218
0.576015
0.556868
0.531028
0.606383
0.610702
0.613741
0.615171
0.61446
0.610809
0.602973
0.589236
0.567534
0.535809
0.610923
0.616481
0.620836
0.623686
0.624401
0.62208
0.615189
0.601438
0.577861
0.540958
0.613514
0.620161
0.625653
0.629724
0.63172
0.630662
0.624788
0.611311
0.586336
0.544928
0.615731
0.62319
0.629521
0.634519
0.637557
0.63762
0.632808
0.619967
0.594297
0.549399
0.616632
0.624631
0.631521
0.637164
0.640996
0.642004
0.638247
0.626339
0.600697
0.553358
0.617379
0.625578
0.632704
0.638691
0.643083
0.644943
0.642376
0.631828
0.606981
0.557442
0.614636
0.622895
0.630213
0.636387
0.640964
0.643035
0.641002
0.631575
0.60838
0.556975
0.565624
0.565986
0.565382
0.563764
0.561087
0.557336
0.552611
0.547307
0.542272
0.538007
0.580194
0.581338
0.581316
0.579975
0.577128
0.572577
0.566158
0.557863
0.547975
0.537507
0.590354
0.592448
0.593291
0.592645
0.590224
0.585651
0.578503
0.568434
0.555387
0.540395
0.597023
0.600285
0.602271
0.602685
0.601117
0.596997
0.589588
0.57809
0.561923
0.541949
0.602111
0.606499
0.609618
0.611167
0.61061
0.607222
0.599957
0.587509
0.568602
0.543716
0.60527
0.610691
0.614846
0.61745
0.617885
0.615307
0.608383
0.595306
0.573981
0.54437
0.607986
0.614211
0.619177
0.622639
0.62395
0.622183
0.61578
0.602488
0.579313
0.545532
0.609329
0.616121
0.621668
0.625772
0.627811
0.626812
0.62107
0.607957
0.583579
0.546297
0.610383
0.617417
0.623232
0.627687
0.630231
0.62993
0.625042
0.612643
0.587895
0.547445
0.608003
0.615124
0.621159
0.625829
0.628603
0.628542
0.624058
0.612256
0.588068
0.54494
0.561275
0.56147
0.561018
0.559917
0.558179
0.555852
0.553076
0.550246
0.548258
0.547986
0.573574
0.57427
0.57408
0.572924
0.570735
0.567471
0.563149
0.55791
0.552105
0.546471
0.582692
0.584132
0.584519
0.583701
0.581514
0.577787
0.572395
0.565357
0.556985
0.548271
0.58916
0.591561
0.592802
0.592653
0.590842
0.587032
0.580877
0.572146
0.560962
0.548569
0.594375
0.597756
0.599915
0.600588
0.599378
0.595788
0.589216
0.579094
0.565173
0.548845
0.59781
0.602132
0.605182
0.606689
0.606152
0.60293
0.596158
0.584877
0.56831
0.547893
0.600826
0.605916
0.609702
0.61194
0.612054
0.609297
0.602559
0.590481
0.571618
0.54729
0.602471
0.60813
0.612479
0.615299
0.616001
0.61376
0.607268
0.594785
0.574108
0.546209
0.603773
0.609705
0.61434
0.617499
0.618615
0.616862
0.610838
0.598475
0.576725
0.545543
0.601664
0.607707
0.612577
0.615962
0.617317
0.615784
0.609998
0.597769
0.575788
0.541833
0.559406
0.559533
0.559253
0.558583
0.55755
0.556206
0.554669
0.553264
0.55284
0.5546
0.569299
0.569726
0.569532
0.56868
0.56716
0.564993
0.562252
0.559086
0.555746
0.552659
0.576963
0.577937
0.578088
0.577333
0.575596
0.572826
0.569035
0.564356
0.559116
0.553976
0.582805
0.584533
0.585281
0.584891
0.583203
0.580054
0.575331
0.56907
0.561593
0.553867
0.587798
0.590343
0.591793
0.59194
0.590521
0.587239
0.581809
0.574084
0.564259
0.553599
0.59124
0.59461
0.596787
0.597539
0.5965
0.593238
0.587266
0.578186
0.565936
0.55205
0.594365
0.598439
0.60125
0.602575
0.601957
0.598851
0.592557
0.582385
0.567869
0.550719
0.596164
0.600785
0.604109
0.60592
0.605721
0.602873
0.596484
0.585546
0.569078
0.548791
0.597641
0.602555
0.606165
0.608283
0.608395
0.605832
0.599572
0.58833
0.570495
0.547304
0.595723
0.600761
0.604605
0.606939
0.607264
0.604861
0.598684
0.587256
0.568754
0.54316
0.559024
0.559121
0.55897
0.558592
0.558014
0.557273
0.556456
0.555823
0.556165
0.558964
0.566764
0.567032
0.56689
0.566323
0.565341
0.56398
0.56231
0.560441
0.558533
0.55681
0.572882
0.573533
0.573579
0.57298
0.571709
0.569773
0.567231
0.564219
0.560977
0.557896
0.577866
0.579085
0.579524
0.579083
0.577682
0.575263
0.57183
0.567506
0.562597
0.55773
0.582384
0.584259
0.585208
0.585081
0.583721
0.580977
0.576755
0.571106
0.564336
0.557352
0.585616
0.588187
0.589702
0.589976
0.588766
0.585816
0.580896
0.573926
0.565132
0.555717
0.588684
0.591875
0.593911
0.594598
0.593611
0.590587
0.585139
0.577003
0.566216
0.554242
0.590494
0.59419
0.596669
0.597734
0.597
0.594019
0.588242
0.579184
0.566588
0.552075
0.592074
0.596064
0.59881
0.600135
0.599614
0.596747
0.590861
0.58126
0.567293
0.550434
0.590273
0.594389
0.597355
0.598868
0.59851
0.595728
0.589795
0.579826
0.565034
0.546264
0.559435
0.559515
0.559443
0.559243
0.558931
0.558537
0.558117
0.557884
0.558581
0.561907
0.56543
0.565602
0.565516
0.565166
0.564565
0.563746
0.562758
0.561674
0.560587
0.55961
0.570109
0.570541
0.570551
0.57012
0.569246
0.567954
0.566306
0.564407
0.562415
0.560549
0.574168
0.575014
0.57527
0.574877
0.573802
0.57204
0.56964
0.566731
0.563544
0.560459
0.578064
0.579418
0.580028
0.579793
0.578628
0.576473
0.573334
0.569328
0.564738
0.560152
0.580936
0.582855
0.583886
0.583891
0.582721
0.580244
0.576389
0.571222
0.565038
0.558671
0.583818
0.586264
0.587704
0.587983
0.586884
0.584191
0.57973
0.573472
0.565653
0.557353
0.585512
0.588405
0.590211
0.59076
0.58978
0.586979
0.582067
0.574881
0.565525
0.55527
0.587131
0.590303
0.592343
0.593097
0.59224
0.58943
0.58427
0.576456
0.565881
0.553841
0.585382
0.588673
0.590908
0.591811
0.591063
0.588264
0.582965
0.57471
0.563328
0.54985
0.560193
0.560262
0.560233
0.560132
0.559969
0.559763
0.559554
0.559518
0.560355
0.563933
0.564867
0.56498
0.564935
0.564731
0.564378
0.5639
0.563328
0.562706
0.562089
0.561526
0.568311
0.568596
0.568598
0.56831
0.567738
0.566908
0.565867
0.564688
0.563467
0.562325
0.571498
0.572076
0.572228
0.57192
0.571142
0.569913
0.568286
0.566367
0.564314
0.562347
0.574716
0.575675
0.576064
0.575817
0.574893
0.573283
0.57103
0.568256
0.565181
0.562168
0.577144
0.578547
0.579237
0.579115
0.578099
0.576135
0.573232
0.569507
0.565227
0.560934
0.579757
0.581592
0.582589
0.582633
0.581587
0.579341
0.575846
0.571181
0.565623
0.55991
0.581235
0.583448
0.584735
0.584956
0.583931
0.581491
0.577513
0.572008
0.56522
0.558051
0.582842
0.585309
0.58679
0.587158
0.586185
0.583656
0.57937
0.573258
0.565462
0.556984
0.581095
0.583663
0.585307
0.585784
0.584869
0.582295
0.577821
0.571268
0.562775
0.553259
0.561045
0.561104
0.561097
0.561047
0.560963
0.560857
0.560756
0.56081
0.561673
0.565344
0.564762
0.564836
0.564817
0.564703
0.564503
0.564229
0.563902
0.563549
0.563198
0.562868
0.567198
0.567385
0.567388
0.567207
0.566847
0.566329
0.565686
0.564963
0.564216
0.56351
0.569638
0.570028
0.570122
0.569899
0.569364
0.568535
0.567461
0.566216
0.564901
0.563641
0.572191
0.572858
0.573105
0.572892
0.572202
0.571047
0.569479
0.567598
0.565559
0.563578
0.574152
0.575156
0.575611
0.57545
0.574632
0.573145
0.571032
0.568411
0.56549
0.562606
0.576456
0.577802
0.57848
0.578407
0.577505
0.575727
0.573089
0.569706
0.565822
0.561916
0.577644
0.579298
0.580195
0.580226
0.579283
0.577279
0.574188
0.570099
0.565272
0.560313
0.579213
0.581087
0.582137
0.582266
0.581322
0.579186
0.575783
0.571161
0.565544
0.559648
0.577424
0.579378
0.580558
0.58076
0.579834
0.57762
0.574015
0.568999
0.562825
0.556207
0.561856
0.561907
0.561909
0.561886
0.561843
0.561788
0.561741
0.561827
0.562655
0.56632
0.564905
0.564954
0.564949
0.564888
0.564776
0.564621
0.564436
0.564235
0.564034
0.563836
0.566539
0.566661
0.566667
0.566558
0.566339
0.566023
0.565633
0.565194
0.564737
0.564295
0.568392
0.568651
0.568711
0.56856
0.568205
0.567663
0.566969
0.566173
0.565336
0.564525
0.570334
0.57079
0.570947
0.570782
0.570291
0.569491
0.568427
0.567176
0.565838
0.564537
0.571849
0.572552
0.572849
0.572695
0.572074
0.570992
0.569501
0.567697
0.56573
0.563803
0.573842
0.574808
0.57526
0.575145
0.574419
0.573073
0.571148
0.568755
0.566084
0.563434
0.574693
0.5759
0.576511
0.576449
0.575651
0.574083
0.571768
0.568815
0.565449
0.562054
0.576222
0.577612
0.578338
0.578334
0.577504
0.575792
0.573193
0.569802
0.565838
0.561788
0.574359
0.575806
0.576632
0.576671
0.575832
0.574028
0.571241
0.567524
0.563142
0.558604
0.562567
0.562612
0.562617
0.562607
0.562584
0.562555
0.562533
0.562623
0.56338
0.566969
0.565166
0.565199
0.5652
0.565168
0.565106
0.565019
0.564914
0.564799
0.564683
0.564558
0.566163
0.566241
0.566248
0.566185
0.566055
0.565867
0.565633
0.565369
0.565089
0.564808
0.567593
0.567763
0.567802
0.567705
0.567476
0.567131
0.566691
0.566189
0.565658
0.565134
0.568998
0.569304
0.569404
0.569286
0.568949
0.568412
0.567708
0.566891
0.566023
0.565171
0.57012
0.570603
0.570794
0.570667
0.570216
0.569457
0.568432
0.567218
0.565912
0.564632
0.571825
0.572503
0.5728
0.572683
0.57213
0.57115
0.569788
0.568135
0.566328
0.564545
0.572315
0.573174
0.573582
0.573485
0.572851
0.571676
0.57
0.567924
0.56562
0.563323
0.573827
0.574834
0.575324
0.575258
0.574578
0.573266
0.571351
0.568933
0.566191
0.563442
0.571862
0.572902
0.573467
0.573423
0.572719
0.571318
0.569243
0.56657
0.563529
0.560465
0.563156
0.563195
0.563201
0.563197
0.563184
0.563168
0.563158
0.563237
0.563901
0.567353
0.565475
0.565497
0.5655
0.565483
0.565449
0.5654
0.565339
0.565272
0.565203
0.56512
0.565945
0.565995
0.566001
0.565966
0.56589
0.56578
0.565642
0.565484
0.565312
0.56513
0.56711
0.56722
0.567246
0.567185
0.567043
0.566827
0.566553
0.56624
0.565906
0.565564
0.568057
0.568257
0.568321
0.568241
0.568018
0.567667
0.567212
0.566688
0.566131
0.565574
0.568854
0.569177
0.569299
0.569203
0.568889
0.568373
0.567688
0.566887
0.566034
0.565191
0.570309
0.570773
0.570966
0.570866
0.570465
0.569776
0.568841
0.567725
0.566523
0.565335
0.570428
0.571023
0.57129
0.571192
0.570714
0.569867
0.568691
0.567269
0.565723
0.56419
0.571972
0.572683
0.573006
0.572922
0.572396
0.571432
0.570067
0.568388
0.566529
0.564688
0.569874
0.570599
0.570975
0.570899
0.570345
0.569302
0.567811
0.565944
0.563882
0.561845
0.563615
0.563651
0.563655
0.563654
0.563646
0.563637
0.563631
0.563693
0.564249
0.567502
0.565799
0.565813
0.565817
0.565808
0.565788
0.56576
0.565724
0.565684
0.565641
0.565582
0.565802
0.565832
0.565838
0.565818
0.565775
0.565712
0.565631
0.565537
0.565431
0.56531
0.566844
0.566914
0.566931
0.566895
0.566808
0.566677
0.566509
0.566317
0.566108
0.565882
0.567406
0.567535
0.567576
0.567523
0.56738
0.567156
0.566869
0.566538
0.566186
0.565824
0.567953
0.568165
0.568242
0.568174
0.567963
0.567622
0.567175
0.566658
0.56611
0.565559
0.5692
0.56951
0.569633
0.569556
0.569277
0.568809
0.568184
0.56745
0.566666
0.565882
0.568948
0.569348
0.569519
0.569434
0.569091
0.568501
0.567701
0.566753
0.565737
0.56473
0.570593
0.571082
0.571291
0.571212
0.570826
0.570143
0.569203
0.568067
0.566833
0.565615
0.568316
0.568805
0.56905
0.568971
0.568557
0.567812
0.566776
0.565509
0.564143
0.562813
0.563926
0.563958
0.563961
0.563961
0.563957
0.563951
0.563946
0.563991
0.564428
0.567408
0.566133
0.566143
0.566145
0.56614
0.566128
0.566111
0.56609
0.566065
0.566037
0.565991
0.565677
0.565695
0.565699
0.565688
0.565664
0.565628
0.565581
0.565526
0.565459
0.565377
0.566724
0.566769
0.566781
0.56676
0.566709
0.56663
0.56653
0.566414
0.566284
0.566133
0.566973
0.567054
0.567079
0.567046
0.566956
0.566817
0.566638
0.566434
0.566214
0.565979
0.567342
0.567477
0.567525
0.567479
0.567342
0.567123
0.566838
0.566512
0.566165
0.56581
0.568411
0.568613
0.56869
0.568636
0.568449
0.568142
0.567737
0.567265
0.566765
0.566255
0.567797
0.568059
0.568164
0.568099
0.567861
0.567464
0.566935
0.566319
0.565665
0.565019
0.569631
0.56996
0.570092
0.570027
0.569756
0.569291
0.568663
0.567915
0.567115
0.566318
0.567086
0.567405
0.56756
0.567492
0.567196
0.566684
0.565988
0.565152
0.564269
0.563419
0.564009
0.564037
0.564041
0.564042
0.564041
0.564038
0.564035
0.564064
0.564378
0.566993
0.566498
0.566505
0.566506
0.566503
0.566496
0.566486
0.566474
0.566458
0.566439
0.566403
0.565547
0.565557
0.565559
0.565553
0.565539
0.565517
0.56549
0.565456
0.565414
0.565356
0.566701
0.56673
0.566738
0.566727
0.566698
0.566653
0.566595
0.566527
0.566449
0.566349
0.56671
0.566759
0.566774
0.566753
0.566698
0.566613
0.566504
0.566379
0.566244
0.566091
0.566968
0.567053
0.567082
0.567052
0.566965
0.566828
0.56665
0.566448
0.566232
0.566005
0.567877
0.568005
0.568053
0.568016
0.567896
0.5677
0.567445
0.567151
0.56684
0.566514
0.566936
0.567102
0.567166
0.567118
0.566959
0.566698
0.566356
0.565964
0.56555
0.565146
0.569052
0.569266
0.569349
0.5693
0.569118
0.568812
0.568405
0.567924
0.567419
0.566899
0.566028
0.566229
0.566324
0.566271
0.566069
0.565728
0.565274
0.564736
0.564181
0.563648
0.563664
0.563689
0.563693
0.563694
0.563694
0.563693
0.563692
0.563707
0.563901
0.566032
0.566962
0.566967
0.566968
0.566967
0.566965
0.566961
0.566955
0.566947
0.566935
0.566908
0.565442
0.565446
0.565446
0.56544
0.56543
0.565415
0.565396
0.565373
0.565343
0.565299
0.566735
0.566754
0.56676
0.566756
0.566741
0.566717
0.566685
0.566648
0.566604
0.56654
0.566588
0.566617
0.566626
0.566613
0.566579
0.566527
0.56646
0.566384
0.566301
0.566202
0.566794
0.566847
0.566864
0.566846
0.566791
0.566706
0.566596
0.566471
0.566338
0.566192
0.567553
0.567632
0.567661
0.567637
0.567562
0.56744
0.567283
0.567104
0.566918
0.566715
0.566409
0.566513
0.566551
0.566518
0.566412
0.566243
0.566023
0.565772
0.565506
0.565256
0.56888
0.569015
0.569066
0.569032
0.568913
0.568716
0.568459
0.568158
0.567847
0.567504
0.564888
0.565014
0.565071
0.565033
0.564898
0.564676
0.564385
0.564043
0.563698
0.563366
0.562607
0.562629
0.562628
0.562624
0.562617
0.562607
0.562595
0.562587
0.56266
0.564128
0.56767
0.567677
0.567679
0.567682
0.567685
0.56769
0.567695
0.567699
0.5677
0.567689
0.565463
0.565463
0.56546
0.565454
0.565443
0.565428
0.565409
0.565387
0.56536
0.565319
0.566783
0.566796
0.566801
0.5668
0.566793
0.566781
0.566766
0.566748
0.566726
0.566692
0.566573
0.566591
0.566596
0.566588
0.566566
0.566533
0.56649
0.566442
0.566389
0.566324
0.56677
0.566804
0.566815
0.566803
0.566768
0.566714
0.566644
0.566564
0.566478
0.566384
0.567396
0.567446
0.567464
0.567448
0.5674
0.567323
0.567225
0.567114
0.567003
0.566882
0.566348
0.566417
0.566441
0.566418
0.566347
0.566234
0.566086
0.565916
0.56573
0.565558
0.569221
0.569306
0.569337
0.569313
0.569235
0.569108
0.568944
0.568757
0.568573
0.568348
0.563353
0.563444
0.56348
0.563455
0.563365
0.563217
0.563023
0.562797
0.56257
0.562342
0.560977
0.560976
0.560965
0.560946
0.56092
0.560885
0.560841
0.560787
0.560728
0.561234
0.568681
0.568688
0.568695
0.568704
0.568716
0.568733
0.568755
0.568783
0.568816
0.568855
0.565674
0.565673
0.565668
0.565661
0.565648
0.565632
0.565611
0.565585
0.565553
0.565505
0.566791
0.5668
0.566804
0.566804
0.566801
0.566794
0.566786
0.566777
0.56677
0.566759
0.566602
0.566615
0.566619
0.566612
0.566597
0.566572
0.566541
0.566506
0.566467
0.566423
0.566806
0.56683
0.566838
0.566829
0.566804
0.566765
0.566714
0.566655
0.566593
0.566528
0.567328
0.567365
0.567378
0.567366
0.567331
0.567275
0.567204
0.567126
0.56705
0.566975
0.566739
0.566793
0.566811
0.566794
0.566741
0.566656
0.566545
0.566412
0.56626
0.566104
0.570052
0.570111
0.570133
0.570115
0.570057
0.569965
0.569849
0.569723
0.569614
0.569502
0.561498
0.561591
0.561624
0.561607
0.56154
0.561428
0.561282
0.561109
0.560926
0.560716
0.355571
0.261406
0.258285
0.356732
0.349002
0.253245
0.248577
0.353814
0.339856
0.243549
0.237795
0.332418
0.328196
0.230873
0.221847
0.2977
0.315006
0.217315
0.204771
0.266068
0.302526
0.207771
0.196126
0.258734
0.291483
0.201572
0.191774
0.254371
0.278927
0.193791
0.185123
0.245003
0.266326
0.186192
0.178011
0.233425
0.254293
0.179268
0.169371
0.216609
0.391706
0.355223
0.349045
0.372739
0.395315
0.353475
0.345484
0.36908
0.39427
0.348072
0.335217
0.355671
0.391043
0.340325
0.321303
0.336535
0.386749
0.331947
0.307553
0.31738
0.377884
0.318941
0.289732
0.294546
0.369167
0.307223
0.274351
0.2741
0.360327
0.296735
0.262108
0.260227
0.352121
0.28737
0.250923
0.246227
0.344221
0.27735
0.237273
0.227176
0.46887
0.455583
0.451302
0.457588
0.472784
0.455241
0.449565
0.456993
0.470886
0.45072
0.443266
0.448606
0.465941
0.442914
0.433084
0.435881
0.459832
0.434046
0.421781
0.422505
0.451671
0.423542
0.409656
0.409446
0.443688
0.413504
0.398131
0.396587
0.435125
0.403257
0.386477
0.382908
0.427267
0.394425
0.376236
0.37001
0.42067
0.387984
0.367442
0.356106
0.502133
0.497562
0.495482
0.495857
0.507776
0.499747
0.49667
0.498332
0.506813
0.497135
0.492788
0.493398
0.502791
0.491174
0.485295
0.48478
0.497768
0.48423
0.476863
0.475324
0.49036
0.474939
0.466168
0.463523
0.482682
0.465471
0.455341
0.451485
0.474197
0.455391
0.443933
0.438552
0.465758
0.44594
0.433286
0.425952
0.456569
0.437111
0.423084
0.411938
0.523431
0.522443
0.521246
0.519801
0.529729
0.525789
0.523853
0.52389
0.529391
0.524453
0.521638
0.52091
0.526328
0.520123
0.51626
0.514661
0.522464
0.514953
0.510035
0.507552
0.516501
0.507654
0.501654
0.498204
0.510256
0.500095
0.493014
0.488534
0.503038
0.491623
0.483439
0.477764
0.495954
0.483672
0.4745
0.467278
0.488254
0.476189
0.466028
0.455626
0.535773
0.536408
0.535724
0.533696
0.542548
0.540452
0.539267
0.538984
0.542616
0.539896
0.538108
0.537269
0.540315
0.536765
0.534247
0.532756
0.537333
0.532898
0.529612
0.527435
0.532402
0.527021
0.522921
0.52
0.527212
0.520881
0.515962
0.512267
0.521061
0.513813
0.508074
0.503526
0.51514
0.507266
0.500831
0.495184
0.508249
0.500529
0.493529
0.485639
0.543483
0.544919
0.544524
0.542292
0.550533
0.549367
0.548649
0.548375
0.550822
0.549245
0.54812
0.547463
0.549146
0.547021
0.545391
0.544269
0.54689
0.544168
0.541993
0.540364
0.542882
0.539514
0.536752
0.534573
0.538689
0.534666
0.531313
0.528566
0.53358
0.528927
0.524993
0.521647
0.528839
0.523767
0.519368
0.515277
0.522809
0.517778
0.513032
0.507477
0.548452
0.550315
0.550088
0.547766
0.555585
0.554914
0.554482
0.554285
0.556035
0.555086
0.554381
0.553932
0.554865
0.553545
0.552496
0.551725
0.55321
0.551485
0.550055
0.548923
0.549992
0.547826
0.545983
0.544457
0.546675
0.544064
0.541805
0.539877
0.542482
0.53945
0.536793
0.534457
0.538827
0.535524
0.532569
0.529756
0.53353
0.530215
0.527048
0.523335
0.551812
0.553923
0.553794
0.551416
0.558865
0.558468
0.558208
0.558083
0.55942
0.558838
0.558398
0.558107
0.558666
0.557831
0.557157
0.556648
0.557511
0.556397
0.555458
0.554698
0.554977
0.55356
0.552333
0.551295
0.552442
0.550721
0.549206
0.547886
0.549049
0.547049
0.545264
0.543669
0.546366
0.544189
0.542214
0.540326
0.541699
0.539496
0.537389
0.534964
0.554193
0.556457
0.556383
0.553963
0.56105
0.560808
0.560652
0.560579
0.561622
0.56126
0.560986
0.560804
0.561201
0.560666
0.560234
0.559906
0.560451
0.559723
0.559108
0.558607
0.558505
0.557567
0.556751
0.556057
0.556659
0.555511
0.554496
0.553608
0.553938
0.552604
0.551407
0.550332
0.55207
0.550618
0.549297
0.548047
0.547957
0.546483
0.54508
0.543511
0.555958
0.55832
0.558279
0.555824
0.562546
0.562395
0.562302
0.562264
0.563062
0.562833
0.562663
0.562554
0.562894
0.562547
0.56227
0.562065
0.562446
0.561966
0.561563
0.56124
0.560988
0.560363
0.559822
0.559365
0.559738
0.558968
0.558289
0.557698
0.557561
0.556666
0.555863
0.555147
0.556364
0.555387
0.554503
0.553683
0.55273
0.551738
0.550803
0.549791
0.557322
0.559746
0.559722
0.557243
0.563606
0.563508
0.563452
0.563436
0.564002
0.563855
0.56375
0.563689
0.564029
0.563801
0.563625
0.563501
0.563782
0.563463
0.563201
0.562997
0.562715
0.562296
0.561938
0.561642
0.56196
0.561441
0.560988
0.560602
0.560198
0.559594
0.559057
0.558585
0.559565
0.558904
0.558313
0.55778
0.556321
0.555654
0.55503
0.554379
0.558414
0.560869
0.560855
0.558369
0.564384
0.564318
0.564284
0.564282
0.564611
0.564514
0.56445
0.564419
0.564797
0.564645
0.564534
0.564463
0.56466
0.564447
0.564278
0.564154
0.563894
0.563613
0.563379
0.563192
0.563541
0.563189
0.56289
0.562643
0.562065
0.561657
0.5613
0.560994
0.561922
0.561472
0.56108
0.560739
0.558973
0.558525
0.558111
0.557694
0.559321
0.561772
0.561764
0.559295
0.564982
0.564934
0.564913
0.56492
0.564991
0.564926
0.564887
0.564875
0.565328
0.565225
0.565156
0.565119
0.565224
0.565081
0.564973
0.564901
0.564685
0.564495
0.564344
0.564231
0.564645
0.564407
0.564211
0.564058
0.563335
0.56306
0.562825
0.562631
0.563636
0.563328
0.56307
0.562858
0.560882
0.560583
0.56031
0.560046
0.560096
0.562499
0.562495
0.560081
0.565467
0.56543
0.565417
0.565429
0.565208
0.565162
0.565139
0.565139
0.565711
0.565639
0.565596
0.565582
0.565578
0.565481
0.565413
0.565376
0.565209
0.56508
0.564983
0.564919
0.565404
0.565242
0.565116
0.565025
0.564149
0.563963
0.563811
0.563692
0.564874
0.564663
0.564495
0.56437
0.562203
0.562004
0.561827
0.561663
0.560765
0.563061
0.563058
0.560756
0.565893
0.565864
0.565856
0.565869
0.565299
0.565265
0.565252
0.565259
0.566005
0.565953
0.565927
0.565926
0.565803
0.565735
0.565693
0.565677
0.565562
0.565474
0.565413
0.56538
0.56592
0.565809
0.565729
0.56568
0.564622
0.564497
0.5644
0.56433
0.565781
0.565633
0.565526
0.565459
0.563042
0.562912
0.562799
0.562698
0.561289
0.563395
0.563394
0.561285
0.566319
0.566295
0.56629
0.566303
0.565295
0.565269
0.565261
0.565272
0.566249
0.566211
0.566195
0.566202
0.565961
0.565912
0.565887
0.565885
0.565825
0.565763
0.565726
0.565713
0.566279
0.566203
0.566153
0.56613
0.564873
0.564788
0.564727
0.56469
0.566494
0.566388
0.566321
0.566292
0.563424
0.56334
0.563269
0.56321
0.561498
0.563296
0.563295
0.561496
0.566837
0.566818
0.566814
0.566826
0.565248
0.565227
0.565222
0.565235
0.566462
0.566434
0.566424
0.566434
0.566102
0.566065
0.56605
0.566056
0.566058
0.566013
0.565991
0.56599
0.566551
0.566498
0.566468
0.566459
0.565058
0.564999
0.564961
0.564945
0.567181
0.567101
0.567059
0.567056
0.56324
0.563187
0.563142
0.563107
0.561052
0.56237
0.56237
0.561052
0.56763
0.567617
0.567615
0.567623
0.565271
0.565251
0.565248
0.565264
0.566635
0.566615
0.56661
0.566618
0.566246
0.566218
0.566209
0.566218
0.566282
0.566248
0.566234
0.566239
0.566773
0.566737
0.566718
0.566715
0.565382
0.565333
0.565309
0.56531
0.568087
0.568022
0.567995
0.568006
0.562263
0.562228
0.5622
0.562179
0.559958
0.56053
0.56053
0.559957
0.568841
0.568849
0.568847
0.568836
0.565454
0.565432
0.565431
0.565449
0.566728
0.566717
0.566713
0.566716
0.566363
0.566343
0.566336
0.566343
0.56645
0.566426
0.566416
0.56642
0.566914
0.566891
0.566877
0.566872
0.565896
0.565847
0.56583
0.565844
0.569376
0.569334
0.569314
0.569318
0.56062
0.560588
0.560568
0.560558
0.521177
0.559919
0.575138
0.584321
0.592149
0.599709
0.606839
0.613243
0.619119
0.624623
0.514539
0.539914
0.559813
0.575282
0.58823
0.598804
0.607973
0.616144
0.623626
0.63059
0.497753
0.522828
0.551968
0.570099
0.585394
0.597674
0.608255
0.617596
0.625993
0.633536
0.473144
0.504912
0.538862
0.560102
0.577729
0.59186
0.604064
0.614852
0.62455
0.633156
0.449718
0.488565
0.526597
0.55121
0.570895
0.586754
0.600394
0.612427
0.623213
0.632651
0.420248
0.471856
0.513963
0.541965
0.563634
0.581143
0.596072
0.609219
0.620974
0.631168
0.391036
0.458364
0.503833
0.53513
0.558431
0.577353
0.593314
0.607324
0.619759
0.630399
0.361144
0.446063
0.494104
0.528681
0.553329
0.573527
0.590336
0.605038
0.618002
0.629057
0.332509
0.436999
0.486461
0.524184
0.549971
0.571437
0.588974
0.604206
0.617412
0.628693
0.297576
0.426681
0.475462
0.51579
0.542757
0.56544
0.583842
0.599843
0.61358
0.625267
0.455148
0.499954
0.527589
0.547635
0.562587
0.574051
0.58313
0.590464
0.596422
0.601251
0.451023
0.498079
0.529854
0.552261
0.568651
0.581144
0.591206
0.599601
0.606765
0.612951
0.44551
0.495675
0.530924
0.553946
0.570997
0.584242
0.595156
0.604434
0.612461
0.619404
0.434223
0.48715
0.524566
0.548648
0.567018
0.581545
0.593734
0.604257
0.613497
0.621516
0.421821
0.476941
0.516635
0.542554
0.562478
0.578401
0.591845
0.603509
0.613808
0.622702
0.404489
0.464028
0.506742
0.535091
0.556737
0.574118
0.588767
0.601499
0.612771
0.62247
0.385605
0.452474
0.498236
0.529278
0.552471
0.57117
0.586823
0.600403
0.612384
0.622603
0.362304
0.441538
0.489687
0.523569
0.548061
0.567943
0.584412
0.598664
0.611187
0.621864
0.338886
0.43352
0.482729
0.519443
0.544967
0.565978
0.583126
0.597887
0.610671
0.621644
0.311358
0.424952
0.472547
0.51164
0.538176
0.5603
0.578234
0.593704
0.606988
0.618425
0.488245
0.508606
0.524908
0.538747
0.550454
0.560211
0.568252
0.574783
0.579963
0.583904
0.481165
0.506502
0.52744
0.54448
0.558346
0.569647
0.578946
0.586649
0.593026
0.598283
0.475614
0.504265
0.528428
0.547162
0.562233
0.574482
0.58467
0.593274
0.600584
0.606757
0.465688
0.496755
0.523451
0.543791
0.560242
0.573722
0.585107
0.594896
0.603392
0.610671
0.45507
0.487678
0.516973
0.539156
0.55712
0.571923
0.584512
0.595414
0.604977
0.613186
0.440086
0.476079
0.508306
0.532741
0.552379
0.56859
0.582375
0.594345
0.604904
0.613977
0.423752
0.465329
0.500546
0.527474
0.548689
0.566212
0.581029
0.593871
0.605187
0.61486
0.404579
0.455075
0.49267
0.522219
0.544772
0.563459
0.579104
0.592629
0.604516
0.614693
0.385124
0.447745
0.486371
0.518595
0.542184
0.561912
0.578196
0.592199
0.604348
0.614842
0.36299
0.440494
0.477496
0.511889
0.536286
0.556915
0.573819
0.588387
0.600927
0.611806
0.513524
0.521014
0.529604
0.538425
0.546618
0.553815
0.559923
0.564951
0.568906
0.571796
0.506059
0.518822
0.531824
0.543755
0.554231
0.563215
0.570824
0.57719
0.582407
0.586583
0.501296
0.51651
0.53222
0.546125
0.55812
0.568348
0.577069
0.584492
0.590757
0.59596
0.492527
0.509717
0.527772
0.543484
0.557024
0.568615
0.578609
0.587257
0.594724
0.601052
0.482789
0.501601
0.521976
0.539572
0.554707
0.567685
0.578927
0.588719
0.597279
0.604581
0.469901
0.491083
0.513996
0.533774
0.550622
0.565047
0.577526
0.588422
0.598013
0.606229
0.456152
0.48107
0.506633
0.528807
0.54731
0.563102
0.576674
0.588489
0.59889
0.607774
0.440101
0.471277
0.499095
0.523777
0.543714
0.560705
0.575152
0.587686
0.598699
0.608132
0.423726
0.464075
0.493016
0.520306
0.541358
0.559381
0.57448
0.587505
0.598815
0.608583
0.405636
0.456892
0.484775
0.514115
0.535934
0.554775
0.570429
0.583953
0.595622
0.605765
0.532985
0.53409
0.537756
0.542592
0.547563
0.552199
0.556292
0.559742
0.562469
0.564425
0.526297
0.532208
0.539414
0.546838
0.553913
0.560346
0.566007
0.570843
0.574819
0.577959
0.522643
0.529893
0.539062
0.548332
0.557037
0.564898
0.571839
0.577849
0.582936
0.587129
0.515436
0.523809
0.53482
0.545868
0.556193
0.565518
0.573806
0.581084
0.587381
0.59269
0.507184
0.516582
0.529448
0.542309
0.554258
0.565027
0.574614
0.583077
0.590489
0.596791
0.496225
0.507122
0.522019
0.536908
0.550565
0.56281
0.573679
0.583286
0.591759
0.599009
0.484615
0.497959
0.515028
0.532134
0.547471
0.561126
0.573146
0.583725
0.593058
0.601029
0.471318
0.488808
0.507827
0.527249
0.544069
0.558958
0.571905