/*--------------------------------*- C++ -*----------------------------------*\
| =========                 |                                                 |
| \\      /  F ield         | foam-extend: Open Source CFD                    |
|  \\    /   O peration     | Version:     4.0                                |
|   \\  /    A nd           | Web:         http://www.foam-extend.org         |
|    \\/     M anipulation  |                                                 |
\*---------------------------------------------------------------------------*/
FoamFile
{
    version     2.0;
    format      ascii;
    class       volScalarField;
    location    "1000";
    object      p;
}
// * * * * * * * * * * * * * * * * * * * * * * * * * * * * * * * * * * * * * //

dimensions      [1 -1 -2 0 0 0 0];

internalField   nonuniform List<scalar> 
34480
(
108180
107891
107671
107545
107548
107732
108196
108950
109633
112696
107464
107038
106662
106357
106158
106119
106354
106942
107319
109619
107083
106534
106022
105551
105143
104856
104810
105137
105125
106450
106881
106191
105532
104891
104279
103749
103427
103467
103045
103374
106771
105959
105183
104406
103629
102893
102325
102082
101254
100664
106789
105889
105027
104151
103252
102354
101587
101084
99874.7
98502.7
106696
105734
104822
103889
102920
101921
101009
100274
98694.4
96597.2
106771
105789
104859
103912
102928
101896
100907
99987.2
98038.2
95174.4
106566
105581
104653
103729
102791
101808
100814
99751
97422.8
93789.5
106684
105684
104736
103806
102902
102005
101112
100087
97506.4
93016.7
110019
109860
109805
109882
110133
110612
111409
112648
114524
117543
108946
108663
108470
108393
108483
108817
109520
110769
112816
116594
108309
107906
107582
107352
107256
107382
107884
109003
111030
115283
107915
107374
106905
106513
106230
106139
106410
107339
109256
113798
107672
107008
106417
105889
105445
105161
105208
105917
107664
112335
107587
106829
106143
105509
104938
104493
104342
104824
106360
111008
107426
106597
105846
105141
104484
103922
103610
103872
105158
109647
107451
106587
105799
105058
104356
103725
103299
103357
104352
108553
107245
106362
105552
104794
104087
103448
102968
102864
103530
107462
107317
106424
105593
104816
104104
103486
103030
102900
103309
107094
111379
111308
111343
111508
111826
112326
113040
114002
115256
116823
110182
110009
109941
110008
110247
110709
111468
112606
114228
116470
109388
109109
108930
108874
108988
109337
110031
111217
113078
115937
108853
108448
108140
107946
107912
108118
108694
109850
111860
115266
108499
107977
107554
107236
107064
107125
107563
108638
110722
114576
108323
107706
107187
106767
106479
106408
106710
107676
109778
113978
108095
107403
106814
106318
105942
105765
105945
106784
108845
113274
108075
107338
106700
106154
105719
105464
105540
106241
108195
112725
107874
107108
106435
105852
105380
105081
105088
105669
107445
112069
107920
107143
106446
105838
105340
105020
105001
105537
107126
111875
112239
112207
112259
112409
112664
113033
113519
114120
114816
115553
111113
111007
110998
111107
111355
111766
112369
113185
114219
115386
110290
110096
110001
110027
110209
110592
111234
112200
113543
115190
109693
109390
109189
109110
109196
109508
110133
111189
112797
114944
109278
108867
108564
108382
108365
108587
109161
110252
112075
114696
109042
108539
108147
107873
107760
107891
108398
109488
111478
114528
108770
108191
107728
107381
107189
107238
107672
108732
110833
114249
108713
108085
107569
107168
106916
106895
107256
108257
110402
114108
108502
107842
107289
106848
106552
106483
106786
107718
109826
113810
108521
107849
107273
106808
106486
106389
106655
107540
109555
113806
112730
112716
112761
112869
113044
113281
113578
113921
114291
114654
111775
111712
111727
111832
112037
112349
112770
113294
113900
114513
111007
110875
110831
110891
111078
111411
111916
112605
113471
114408
110407
110184
110059
110050
110186
110508
111060
111887
113015
114326
109968
109651
109442
109354
109424
109708
110274
111204
112577
114274
109697
109296
109007
108844
108846
109081
109639
110641
112237
114321
109397
108923
108568
108339
108279
108461
108997
110041
111826
114276
109316
108790
108383
108102
107990
108121
108622
109676
111596
114375
109097
108538
108095
107776
107623
107715
108181
109222
111203
114303
109099
108527
108060
107719
107540
107606
108043
109061
111025
114423
112967
112960
112990
113059
113165
113306
113474
113661
113854
114035
112213
112175
112194
112276
112425
112638
112912
113233
113579
113907
111552
111462
111445
111510
111668
111927
112290
112750
113285
113820
110991
110831
110756
110781
110924
111206
111643
112245
112994
113790
110562
110323
110182
110153
110262
110544
111034
111759
112729
113815
110282
109968
109761
109674
109742
110010
110532
111364
112553
113949
109971
109589
109323
109184
109208
109453
109991
110906
112299
114009
109876
109445
109130
108945
108929
109146
109683
110653
112215
114226
109654
109188
108841
108622
108573
108763
109291
110291
111967
114272
109644
109165
108795
108555
108484
108654
109166
110170
111882
114447
113048
113043
113061
113100
113161
113240
113332
113431
113532
113624
112481
112458
112473
112530
112629
112766
112935
113126
113324
113504
111947
111887
111882
111937
112058
112244
112492
112790
113117
113429
111453
111340
111296
111332
111459
111684
112010
112429
112917
113406
111060
110882
110789
110792
110909
111156
111549
112087
112752
113451
110790
110549
110403
110367
110463
110721
111168
111819
112672
113605
110482
110180
109986
109910
109981
110239
110725
111475
112514
113696
110386
110038
109801
109688
109733
109982
110492
111319
112525
113955
110163
109783
109517
109375
109396
109632
110153
111035
112371
114045
110149
109754
109467
109309
109312
109536
110053
110958
112355
114234
113041
113038
113047
113069
113102
113144
113193
113245
113297
113345
112630
112615
112625
112661
112722
112806
112907
113018
113131
113231
112222
112182
112181
112223
112308
112435
112599
112788
112988
113173
111805
111726
111701
111736
111837
112006
112238
112523
112839
113144
111463
111333
111273
111291
111396
111597
111896
112283
112734
113186
111219
111037
110937
110929
111031
111256
111615
112106
112706
113330
110926
110693
110554
110519
110609
110849
111259
111847
112602
113415
110838
110564
110390
110328
110404
110650
111097
111768
112669
113675
110618
110314
110115
110031
110092
110337
110808
111542
112565
113761
110606
110288
110070
109972
110022
110261
110739
111506
112595
113943
112994
112991
112996
113007
113024
113046
113072
113099
113126
113150
112699
112690
112696
112717
112754
112803
112861
112925
112989
113045
112405
112378
112378
112407
112464
112547
112651
112770
112892
113003
112065
112011
111996
112025
112100
112220
112380
112569
112773
112966
111781
111688
111650
111671
111757
111911
112129
112400
112704
112999
111571
111437
111369
111377
111468
111652
111928
112287
112704
113123
111302
111125
111028
111018
111109
111315
111644
112089
112629
113187
111230
111019
110894
110865
110952
111173
111545
112068
112726
113427
111017
110778
110633
110588
110668
110896
111296
111881
112642
113485
111011
110760
110599
110544
110617
110846
111259
111878
112700
113651
112933
112931
112933
112938
112947
112958
112972
112985
113000
113012
112721
112716
112718
112731
112751
112779
112813
112849
112885
112917
112521
112503
112504
112522
112558
112611
112676
112748
112822
112889
112250
112213
112204
112226
112278
112360
112467
112591
112721
112843
112025
111960
111935
111954
112020
112133
112287
112473
112674
112867
111853
111756
111711
111724
111800
111942
112146
112402
112688
112969
111612
111481
111414
111417
111499
111666
111918
112246
112625
113007
111563
111404
111316
111308
111391
111578
111871
112266
112738
113223
111357
111174
111070
111051
111134
111332
111656
112104
112657
113243
111362
111169
111052
111026
111106
111309
111648
112128
112731
113394
112872
112871
112872
112874
112879
112884
112891
112898
112906
112912
112716
112713
112714
112721
112732
112748
112767
112787
112808
112825
112592
112580
112580
112591
112614
112646
112686
112730
112774
112814
112377
112352
112347
112362
112397
112451
112521
112600
112682
112759
112207
112162
112146
112162
112210
112289
112394
112519
112651
112776
112073
112004
111975
111988
112047
112152
112298
112476
112670
112856
111861
111766
111721
111729
111797
111926
112113
112347
112610
112868
111839
111722
111661
111664
111737
111886
112109
112397
112729
113061
111641
111504
111431
111427
111503
111665
111916
112249
112642
113045
111660
111515
111433
111425
111500
111669
111935
112296
112727
113184
112820
112819
112819
112820
112822
112825
112829
112832
112836
112839
112698
112696
112697
112701
112707
112716
112726
112738
112749
112759
112634
112626
112626
112632
112646
112665
112689
112715
112742
112765
112460
112444
112441
112451
112474
112508
112553
112603
112654
112702
112339
112309
112299
112311
112344
112398
112468
112550
112636
112716
112239
112192
112173
112185
112228
112303
112404
112525
112654
112777
112055
111988
111958
111968
112021
112116
112250
112414
112592
112766
112062
111978
111937
111945
112005
112118
112282
112487
112716
112940
111871
111770
111721
111725
111789
111916
112103
112343
112617
112890
111908
111801
111745
111746
111812
111946
112147
112409
112711
113021
112778
112777
112777
112778
112779
112780
112782
112783
112786
112787
112675
112674
112674
112676
112680
112685
112691
112697
112703
112709
112658
112653
112653
112656
112664
112676
112690
112705
112721
112735
112513
112503
112501
112507
112521
112543
112571
112602
112634
112664
112434
112414
112408
112416
112438
112474
112520
112572
112627
112678
112363
112331
112319
112328
112359
112410
112479
112559
112644
112723
112204
112158
112138
112147
112186
112254
112347
112459
112578
112693
112240
112182
112155
112163
112209
112292
112409
112551
112705
112854
112052
111981
111948
111955
112005
112100
112236
112404
112591
112774
112110
112034
111996
112002
112055
112156
112303
112488
112694
112902
112748
112747
112747
112747
112747
112748
112749
112750
112751
112751
112651
112650
112650
112651
112653
112656
112659
112663
112667
112670
112674
112670
112670
112672
112677
112683
112691
112700
112710
112718
112545
112539
112537
112541
112550
112563
112580
112599
112619
112637
112501
112488
112484
112489
112504
112527
112556
112590
112624
112656
112452
112431
112423
112430
112451
112485
112531
112583
112637
112688
112315
112284
112271
112279
112306
112353
112416
112490
112568
112643
112380
112340
112323
112331
112364
112423
112503
112599
112702
112798
112191
112141
112120
112127
112165
112233
112327
112443
112568
112689
112273
112220
112195
112202
112242
112316
112419
112546
112684
112821
112729
112728
112729
112728
112729
112729
112729
112729
112730
112730
112626
112626
112626
112627
112628
112630
112632
112634
112636
112638
112685
112683
112683
112684
112687
112691
112695
112701
112706
112710
112563
112559
112558
112560
112565
112573
112583
112595
112607
112618
112547
112539
112536
112540
112549
112563
112582
112603
112624
112644
112514
112501
112496
112501
112515
112537
112566
112599
112634
112666
112397
112376
112368
112373
112392
112423
112465
112513
112563
112611
112488
112462
112451
112458
112481
112521
112575
112638
112705
112766
112292
112258
112244
112251
112278
112325
112389
112466
112548
112626
112403
112368
112352
112358
112387
112439
112509
112594
112684
112772
112725
112725
112725
112725
112725
112724
112725
112724
112725
112724
112601
112601
112602
112602
112603
112604
112605
112606
112608
112609
112697
112696
112695
112696
112698
112700
112703
112706
112709
112711
112571
112569
112568
112569
112572
112577
112583
112589
112596
112603
112577
112572
112571
112573
112579
112588
112599
112612
112625
112637
112555
112547
112544
112547
112556
112570
112588
112609
112631
112650
112455
112442
112437
112440
112453
112473
112499
112529
112561
112591
112571
112554
112548
112552
112568
112595
112630
112670
112713
112750
112361
112338
112330
112334
112353
112385
112427
112477
112529
112580
112512
112489
112479
112484
112505
112539
112586
112641
112698
112754
112747
112746
112746
112746
112745
112745
112745
112744
112745
112743
112573
112573
112574
112574
112574
112575
112575
112576
112577
112578
112708
112708
112707
112708
112709
112710
112712
112714
112716
112717
112574
112572
112572
112572
112574
112576
112580
112583
112587
112591
112594
112591
112591
112592
112595
112601
112608
112616
112624
112631
112578
112572
112571
112572
112578
112587
112598
112611
112625
112637
112495
112487
112483
112486
112494
112506
112523
112541
112560
112579
112628
112618
112614
112617
112628
112645
112668
112693
112721
112742
112399
112384
112379
112382
112394
112415
112442
112474
112506
112539
112616
112601
112595
112599
112613
112635
112665
112701
112736
112770
112817
112817
112816
112816
112816
112815
112815
112814
112814
112811
112534
112533
112534
112534
112534
112534
112534
112534
112535
112535
112713
112713
112713
112713
112714
112716
112717
112719
112720
112722
112575
112573
112573
112573
112574
112575
112577
112578
112580
112582
112601
112599
112598
112599
112601
112605
112609
112614
112619
112624
112585
112582
112581
112582
112585
112591
112598
112606
112615
112622
112519
112514
112512
112514
112518
112526
112536
112548
112559
112570
112651
112644
112642
112644
112651
112663
112678
112695
112713
112726
112400
112391
112387
112390
112398
112411
112428
112448
112467
112490
112741
112731
112728
112730
112739
112754
112774
112796
112818
112840
112959
112959
112959
112960
112961
112962
112963
112965
112967
112964
112467
112466
112466
112466
112465
112464
112463
112462
112461
112460
112699
112699
112699
112700
112701
112702
112704
112706
112708
112711
112577
112576
112575
112575
112576
112576
112577
112578
112579
112579
112600
112599
112598
112599
112600
112603
112606
112609
112612
112616
112583
112581
112580
112581
112583
112587
112592
112597
112603
112609
112532
112528
112527
112528
112531
112537
112543
112551
112558
112565
112626
112621
112619
112621
112626
112634
112644
112657
112670
112682
112352
112347
112345
112346
112352
112361
112372
112384
112396
112411
112913
112905
112903
112904
112911
112921
112935
112951
112967
112983
113126
113126
113127
113129
113132
113136
113141
113147
113154
113161
112381
112381
112380
112379
112378
112376
112374
112370
112366
112358
112669
112669
112669
112670
112671
112672
112674
112676
112679
112683
112585
112584
112584
112584
112584
112584
112585
112586
112586
112586
112599
112598
112598
112598
112599
112601
112604
112607
112610
112613
112582
112580
112579
112580
112582
112585
112589
112594
112598
112603
112541
112538
112537
112538
112541
112545
112551
112557
112563
112568
112571
112567
112566
112567
112571
112578
112587
112597
112609
112623
112276
112272
112270
112271
112276
112283
112292
112302
112310
112315
113090
113082
113079
113080
113085
113094
113106
113120
113134
113153
128875
132401
132437
130404
129787
133745
133719
131851
130471
134653
135062
133417
130757
135117
136264
134868
131068
135584
137394
136189
131845
136605
139132
138515
132604
137514
140539
140531
133373
138344
141709
142215
133044
137957
141538
142506
131655
136380
140121
141635
121051
122633
123010
122137
121582
123420
123959
123194
121996
124057
124756
124218
122395
124653
125570
125317
122915
125325
126483
126468
123538
126013
127291
127374
124057
126550
127904
128090
124675
127145
128529
128904
124733
127142
128583
129178
124474
126840
128437
129286
118215
118908
119091
118813
118543
119394
119674
119466
118860
119876
120282
120161
119202
120390
120953
120945
119656
121001
121717
121816
120309
121790
122629
122837
120914
122506
123450
123767
121632
123296
124311
124742
121954
123629
124691
125240
122185
123814
124888
125530
116112
116432
116547
116462
116245
116657
116843
116812
116454
116969
117240
117274
116717
117345
117715
117835
117080
117817
118280
118487
117607
118443
118991
119287
118093
119015
119640
120030
118733
119727
120420
120915
119060
120090
120837
121429
119319
120356
121142
121809
114913
115069
115135
115113
114921
115133
115247
115267
115032
115313
115484
115550
115225
115581
115819
115948
115516
115948
116252
116443
115970
116477
116845
117105
116391
116970
117399
117728
116987
117629
118114
118519
117328
118006
118534
119007
117642
118331
118886
119407
114162
114241
114279
114277
114113
114226
114296
114323
114151
114309
114419
114480
114280
114490
114646
114753
114507
114771
114975
115129
114884
115201
115453
115658
115227
115596
115894
116152
115752
116170
116511
116823
116063
116512
116886
117243
116375
116837
117232
117619
113689
113730
113752
113754
113615
113678
113720
113742
113616
113710
113779
113824
113691
113820
113922
113999
113863
114029
114165
114276
114170
114374
114546
114694
114441
114683
114889
115075
114896
115173
115410
115634
115158
115458
115719
115971
115442
115753
116028
116300
113379
113401
113413
113416
113293
113328
113354
113369
113284
113340
113383
113414
113317
113397
113463
113515
113442
113548
113638
113715
113685
113818
113934
114037
113887
114047
114188
114318
114273
114457
114620
114776
114473
114675
114855
115029
114721
114931
115121
115307
113169
113181
113188
113190
113079
113100
113115
113125
113070
113105
113132
113152
113073
113124
113166
113202
113162
113231
113291
113343
113352
113440
113518
113588
113494
113601
113696
113785
113817
113941
114052
114159
113951
114087
114211
114330
114163
114305
114435
114561
113022
113029
113033
113034
112935
112947
112956
112963
112930
112952
112969
112982
112910
112942
112970
112993
112973
113018
113057
113092
113119
113177
113230
113277
113210
113281
113346
113407
113481
113564
113640
113713
113553
113645
113730
113810
113734
113830
113919
114004
112918
112921
112924
112925
112835
112841
112847
112851
112840
112852
112863
112871
112801
112822
112839
112854
112845
112874
112900
112923
112955
112994
113029
113061
113003
113051
113095
113136
113233
113289
113341
113390
113253
113315
113372
113427
113410
113475
113535
113593
112843
112844
112846
112847
112763
112767
112770
112773
112781
112789
112796
112801
112728
112741
112753
112762
112761
112780
112796
112811
112842
112867
112890
112912
112855
112887
112916
112944
113054
113092
113126
113160
113030
113072
113111
113147
113172
113215
113256
113294
112789
112790
112791
112791
112710
112712
112714
112716
112745
112750
112754
112757
112680
112688
112695
112701
112707
112719
112730
112740
112765
112782
112797
112811
112751
112772
112792
112810
112929
112954
112978
113000
112868
112896
112921
112946
113001
113030
113057
113083
112753
112753
112754
112754
112669
112670
112671
112673
112724
112727
112730
112731
112646
112651
112656
112660
112674
112682
112689
112695
112715
112726
112736
112745
112681
112695
112707
112719
112847
112864
112879
112893
112751
112770
112787
112803
112885
112904
112922
112939
112731
112731
112731
112732
112636
112636
112636
112638
112715
112717
112719
112719
112623
112626
112629
112631
112655
112660
112664
112668
112683
112690
112696
112702
112635
112644
112652
112659
112797
112808
112818
112827
112668
112680
112691
112701
112813
112826
112837
112848
112725
112725
112725
112725
112605
112605
112605
112607
112715
112716
112717
112717
112606
112607
112609
112611
112644
112647
112649
112652
112661
112665
112669
112673
112606
112611
112616
112621
112771
112777
112784
112789
112607
112615
112622
112629
112779
112787
112794
112801
112744
112743
112743
112744
112573
112572
112573
112574
112721
112722
112722
112722
112592
112593
112594
112595
112635
112637
112639
112640
112644
112646
112649
112651
112587
112590
112593
112596
112756
112760
112764
112768
112558
112562
112567
112571
112785
112790
112794
112799
112813
112811
112811
112813
112529
112528
112528
112530
112725
112726
112726
112726
112582
112582
112583
112584
112627
112628
112629
112630
112627
112629
112630
112631
112573
112575
112577
112579
112737
112740
112742
112744
112502
112505
112508
112510
112848
112851
112853
112856
112970
112967
112967
112970
112453
112451
112451
112453
112715
112716
112716
112715
112578
112578
112578
112579
112618
112619
112620
112620
112612
112613
112614
112615
112565
112566
112567
112569
112695
112698
112699
112700
112416
112418
112420
112422
112988
112990
112992
112994
113183
113181
113181
113183
112345
112341
112341
112346
112687
112689
112689
112688
112585
112584
112585
112586
112615
112616
112616
112616
112606
112608
112608
112609
112568
112568
112569
112571
112640
112644
112645
112644
112301
112299
112301
112306
113161
113163
113165
113166
120264
116782
114620
112923
111706
110794
110067
109468
108968
108541
121517
117606
114933
113077
111721
110688
109848
109138
108525
107965
122600
118346
115225
113327
111876
110746
109806
109001
108296
107665
123871
119265
115893
113904
112316
111069
110014
109096
108278
107563
125224
120209
116655
114478
112754
111386
110223
109209
108293
107525
126797
121285
117533
115141
113286
111797
110538
109438
108441
107612
128300
122089
118204
115574
113607
112004
110661
109488
108426
107564
129927
122875
118975
116094
114049
112345
110937
109702
108595
107680
130976
123124
119300
116222
114136
112349
110885
109599
108468
107510
132067
123591
119881
116628
114471
112591
111059
109711
108543
107544
119708
117353
115659
114335
113269
112401
111690
111111
110647
110283
120394
117713
115690
114108
112861
111867
111055
110382
109823
109341
121099
118151
115788
114079
112724
111642
110749
109995
109354
108793
121897
118799
116222
114397
112933
111753
110759
109903
109154
108502
122684
119578
116782
114813
113230
111943
110849
109900
109053
108336
123780
120519
117516
115372
113666
112267
111079
110044
109114
108328
124917
121280
118110
115760
113938
112431
111157
110048
109047
108218
126361
122053
118826
116255
114347
112743
111401
110230
109180
108294
127434
122329
119151
116403
114447
112762
111363
110139
109059
108129
128637
122678
119641
116739
114722
112961
111510
110238
109133
108176
117982
116820
115738
114782
113957
113259
112678
112204
111832
111556
118521
117051
115655
114450
113440
112604
111910
111334
110864
110475
119103
117384
115707
114327
113187
112246
111460
110799
110245
109772
119792
117915
116034
114523
113267
112221
111332
110567
109908
109339
120549
118575
116505
114852
113474
112318
111326
110466
109707
109066
121570
119423
117170
115347
113838
112568
111480
110531
109686
108968
122601
120155
117730
115707
114072
112690
111510
110484
109565
108796
123928
120951
118429
116191
114456
112975
111723
110631
109658
108831
124933
121308
118791
116380
114585
113018
111703
110555
109544
108673
125993
121685
119254
116695
114837
113201
111840
110650
109616
108719
116170
115657
115097
114542
114023
113556
113152
112814
112548
112354
116510
115829
115051
114293
113597
112981
112448
111995
111626
111327
116971
116136
115147
114209
113363
112622
111982
111436
110978
110591
117574
116624
115468
114381
113404
112545
111794
111140
110577
110092
118280
117230
115917
114681
113572
112596
111738
110984
110320
109758
119220
118017
116547
115144
113900
112806
111845
110998
110246
109602
120165
118715
117089
115494
114117
112906
111850
110921
110089
109389
121360
119513
117773
115975
114487
113173
112038
111039
110150
109389
122271
119937
118155
116183
114613
113207
112004
110949
110019
109218
123206
120350
118582
116465
114833
113364
112120
111029
110078
109252
115000
114767
114483
114178
113872
113584
113325
113105
112930
112803
115177
114865
114449
113996
113546
113124
112744
112414
112144
111925
115493
115099
114543
113943
113356
112813
112324
111898
111538
111235
115971
115513
114837
114102
113386
112721
112119
111584
111122
110725
116566
116047
115254
114382
113537
112752
112040
111403
110841
110364
117367
116754
115839
114817
113839
112936
112118
111385
110733
110173
118164
117391
116348
115155
114044
113023
112105
111287
110553
109933
119192
118154
117004
115630
114404
113276
112276
111385
110590
109908
119974
118599
117387
115847
114525
113303
112233
111285
110448
109727
120758
119014
117780
116108
114724
113445
112336
111355
110496
109751
114231
114125
113984
113823
113653
113486
113332
113198
113090
113012
114305
114163
113944
113684
113407
113135
112880
112654
112468
112315
114497
114319
114017
113652
113266
112887
112534
112217
111947
111719
114844
114642
114262
113789
113290
112799
112337
111918
111553
111238
115313
115089
114628
114042
113426
112822
112253
111734
111273
110881
115965
115700
115151
114441
113704
112986
112314
111700
111150
110676
116606
116256
115609
114756
113895
113062
112291
111590
110959
110423
117459
116955
116219
115215
114241
113305
112449
111674
110982
110384
118091
117376
116576
115424
114351
113323
112398
111569
110832
110198
118717
117766
116932
115669
114537
113456
112493
111632
110873
110214
113736
113687
113617
113533
113442
113350
113262
113184
113121
113075
113744
113679
113563
113416
113251
113082
112920
112773
112651
112549
113854
113776
113614
113397
113150
112896
112650
112426
112231
112066
114086
114007
113797
113502
113165
112815
112475
112159
111881
111639
114437
114360
114099
113718
113283
112834
112395
111987
111621
111309
114950
114866
114548
114071
113533
112981
112446
111947
111497
111108
115442
115326
114938
114350
113703
113045
112416
111833
111305
110856
116134
115943
115488
114780
114030
113276
112565
111910
111321
110812
116617
116310
115796
114965
114123
113285
112507
111800
111167
110622
117104
116661
116115
115195
114299
113412
112598
111860
111204
110635
113408
113386
113351
113309
113261
113211
113163
113120
113084
113057
113376
113346
113285
113204
113108
113007
112908
112817
112740
112674
113440
113408
113320
113192
113038
112872
112708
112554
112419
112305
113583
113558
113444
113262
113039
112798
112555
112325
112121
111942
113836
113825
113681
113437
113138
112812
112485
112174
111893
111652
114229
114230
114051
113738
113355
112942
112529
112136
111779
111469
114591
114590
114366
113970
113496
112992
112493
112022
111592
111226
115145
115118
114847
114361
113800
113210
112635
112097
111610
111187
115493
115411
115091
114510
113869
113206
112571
111984
111454
110998
115870
115720
115373
114725
114037
113330
112661
112044
111491
111012
113187
113177
113160
113138
113113
113087
113061
113038
113018
113003
113133
113119
113087
113043
112989
112930
112872
112817
112770
112728
113171
113158
113111
113035
112941
112836
112729
112628
112538
112460
113250
113247
113184
113072
112928
112766
112598
112436
112291
112163
113429
113442
113362
113208
113005
112776
112539
112310
112100
111921
113725
113757
113657
113454
113187
112887
112577
112277
112003
111763
113980
114024
113898
113636
113297
112919
112535
112166
111827
111537
114420
114465
114309
113982
113572
113123
112673
112243
111851
111509
114653
114677
114485
114090
113616
113106
112602
112127
111694
111323
114947
114943
114732
114288
113774
113226
112691
112190
111736
111341
113033
113029
113020
113010
112997
112983
112970
112957
112946
112938
112969
112963
112947
112923
112893
112860
112826
112794
112766
112740
112994
112990
112964
112920
112864
112799
112731
112667
112608
112558
113027
113030
112996
112928
112837
112730
112618
112508
112408
112318
113151
113169
113125
113029
112894
112737
112570
112406
112255
112126
113372
113409
113355
113225
113042
112828
112603
112381
112176
111996
113542
113596
113526
113355
113117
112842
112555
112274
112013
111791
113894
113960
113873
113656
113364
113032
112689
112355
112049
111780
114031
114095
113985
113722
113380
112998
112609
112236
111893
111597
114266
114323
114200
113903
113529
113116
112700
112303
111940
111625
112924
112922
112918
112913
112906
112900
112892
112886
112880
112875
112857
112854
112846
112834
112817
112799
112780
112761
112745
112729
112879
112878
112865
112839
112806
112767
112725
112684
112647
112615
112877
112882
112864
112823
112766
112698
112624
112552
112485
112423
112963
112980
112956
112896
112808
112702
112588
112474
112368
112277
113125
113158
113129
113046
112924
112776
112616
112457
112308
112176
113229
113277
113240
113129
112965
112770
112561
112354
112159
111993
113514
113578
113531
113390
113187
112947
112693
112441
112209
112003
113576
113646
113586
113413
113173
112894
112602
112317
112052
111824
113770
113841
113773
113579
113314
113010
112696
112391
112109
111863
112846
112846
112844
112841
112838
112834
112830
112827
112824
112821
112778
112777
112773
112766
112758
112748
112737
112727
112717
112707
112805
112806
112798
112784
112764
112741
112716
112691
112668
112648
112777
112782
112772
112748
112713
112670
112623
112576
112533
112492
112838
112851
112838
112801
112745
112676
112599
112522
112450
112388
112955
112981
112965
112913
112833
112733
112623
112511
112407
112313
113006
113045
113025
112954
112845
112709
112561
112412
112271
112151
113244
113297
113273
113182
113044
112875
112692
112508
112337
112184
113247
113308
113276
113165
113000
112801
112588
112377
112178
112007
113413
113479
113444
113318
113136
112918
112687
112459
112247
112061
112791
112791
112790
112789
112787
112786
112783
112782
112780
112779
112720
112720
112719
112715
112710
112705
112699
112693
112688
112681
112759
112760
112756
112748
112737
112723
112708
112693
112678
112667
112711
112715
112710
112696
112674
112648
112619
112589
112561
112534
112756
112766
112759
112737
112701
112657
112607
112556
112508
112466
112840
112858
112851
112819
112766
112700
112626
112550
112479
112414
112852
112880
112870
112825
112753
112661
112559
112455
112356
112271
113056
113097
113085
113028
112936
112820
112691
112561
112438
112327
113011
113059
113043
112973
112861
112723
112571
112419
112274
112151
113163
113215
113199
113119
112996
112844
112679
112514
112358
112222
112754
112754
112753
112753
112752
112751
112750
112749
112748
112748
112677
112677
112676
112675
112672
112669
112666
112663
112660
112655
112732
112733
112731
112726
112720
112712
112703
112694
112685
112678
112667
112669
112666
112658
112646
112630
112612
112594
112576
112559
112705
112712
112709
112695
112673
112645
112613
112580
112549
112522
112763
112776
112773
112753
112720
112677
112628
112578
112530
112486
112747