/*--------------------------------*- C++ -*----------------------------------*\
| =========                 |                                                 |
| \\      /  F ield         | foam-extend: Open Source CFD                    |
|  \\    /   O peration     | Version:     4.0                                |
|   \\  /    A nd           | Web:         http://www.foam-extend.org         |
|    \\/     M anipulation  |                                                 |
\*---------------------------------------------------------------------------*/
FoamFile
{
    version     2.0;
    format      ascii;
    class       surfaceScalarField;
    location    "1000";
    object      phi;
}
// * * * * * * * * * * * * * * * * * * * * * * * * * * * * * * * * * * * * * //

dimensions      [1 0 -1 0 0 0 0];

internalField   nonuniform List<scalar> 
97302
(
-0.000108944
5.25784e-06
-0.000612136
0.000628876
-0.000133561
5.72737e-06
-0.000615763
0.000634654
-0.000162049
6.1554e-06
-0.000618621
0.000640953
-0.000196242
6.57519e-06
-0.000620701
0.000648319
-0.000238663
7.00527e-06
-0.000621862
0.000657278
-0.00029238
7.42888e-06
-0.00062137
0.000667657
-0.00036013
7.75326e-06
-0.000617171
0.000677168
-0.000441183
7.75376e-06
-0.000604616
0.000677916
-0.000531525
7.03254e-06
-0.000573063
0.000656371
4.5705e-06
-0.000489257
-0.00066761
0.000620772
-0.000137639
7.78636e-06
-0.000855845
0.000871246
-0.000157763
8.68601e-06
-0.000861689
0.000878855
-0.000180924
9.36367e-06
-0.000866526
0.000886478
-0.0002089
9.88268e-06
-0.000870182
0.00089485
-0.000244712
1.02861e-05
-0.000872944
0.000905475
-0.000292756
1.05743e-05
-0.000874663
0.000919562
-0.000358528
1.06581e-05
-0.000873508
0.000936376
-0.000445136
1.02673e-05
-0.000864202
0.000948296
-0.000548156
8.79867e-06
-0.000833448
0.000934702
4.55369e-06
-0.000723607
-0.000720269
0.000895737
-0.000168099
8.27559e-06
-0.00109836
0.00111287
-0.000184983
9.53766e-06
-0.00110644
0.00112247
-0.000204533
1.04713e-05
-0.00111352
0.00113196
-0.000228367
1.11483e-05
-0.00111947
0.00114204
-0.000259612
1.16121e-05
-0.00112455
0.00115447
-0.000303466
1.1878e-05
-0.00112926
0.00117181
-0.000367209
1.18679e-05
-0.00113249
0.00119503
-0.000456996
1.1277e-05
-0.00112866
0.00121744
-0.000568377
9.30235e-06
-0.00110233
0.00121321
3.51594e-06
-0.000971417
-0.000766261
0.00117034
-0.000199614
8.34973e-06
-0.00133744
0.00135125
-0.000215316
9.83421e-06
-0.00134907
0.00136448
-0.000233558
1.09269e-05
-0.00135974
0.00137753
-0.000255749
1.16948e-05
-0.00136928
0.00139092
-0.000284824
1.21592e-05
-0.00137764
0.00140616
-0.00032622
1.23276e-05
-0.00138554
0.00142649
-0.000388418
1.21266e-05
-0.00139266
0.00145459
-0.000480023
1.12339e-05
-0.00139409
0.00148574
-0.000596656
8.615e-06
-0.00137321
0.00149053
1.01069e-06
-0.00122337
-0.000810498
0.00143972
-0.000233348
8.26889e-06
-0.00157661
0.00158994
-0.000248404
9.80797e-06
-0.00159223
0.00160731
-0.000265939
1.09139e-05
-0.00160693
0.00162447
-0.000287193
1.16531e-05
-0.00162048
0.00164177
-0.000314907
1.20336e-05
-0.0016326
0.00166044
-0.000354557
1.20432e-05
-0.00164396
0.00168389
-0.000415472
1.16068e-05
-0.00165483
0.00171626
-0.000508273
1.03944e-05
-0.00166144
0.00175508
-0.000628711
7.09695e-06
-0.00164646
0.00176842
-2.48375e-06
-0.00147775
-0.000852273
0.00170481
-0.000269633
8.07933e-06
-0.00181418
0.00182713
-0.000284193
9.51208e-06
-0.00183396
0.00184881
-0.000301178
1.04942e-05
-0.0018527
0.0018701
-0.00032172
1.10955e-05
-0.00187024
0.00189134
-0.000348399
1.13152e-05
-0.0018862
0.00191359
-0.000386657
1.11314e-05
-0.00190101
0.00194018
-0.000446456
1.04831e-05
-0.00191543
0.00197635
-0.000540274
9.0826e-06
-0.0019268
0.00202193
-0.000664665
5.39467e-06
-0.00191717
0.00204326
-5.76836e-06
-0.00172645
-0.000898829
0.00196389
-0.000307812
7.89021e-06
-0.00205094
0.00206352
-0.000321929
9.01952e-06
-0.00207452
0.00208913
-0.000338384
9.73601e-06
-0.00209689
0.0021141
-0.000358211
1.00831e-05
-0.00211797
0.00213881
-0.000383814
1.00504e-05
-0.00213739
0.00216426
-0.0004205
9.62157e-06
-0.00215542
0.00219362
-0.000478654
8.80555e-06
-0.00217329
0.00223312
-0.000572438
7.44797e-06
-0.00218966
0.00228508
-0.000699527
3.91914e-06
-0.00218634
0.0023149
-7.96584e-06
-0.00197391
-0.000942526
0.0022191
-0.000349016
7.16217e-06
-0.00228794
0.00230045
-0.000362511
7.82254e-06
-0.00231489
0.00232958
-0.000378298
8.21669e-06
-0.00234025
0.00235756
-0.000397325
8.313e-06
-0.00236426
0.00238506
-0.000421765
8.07017e-06
-0.00238652
0.00241294
-0.000456617
7.46343e-06
-0.00240717
0.00244418
-0.000512359
6.60735e-06
-0.00242788
0.00248582
-0.000604652
5.57838e-06
-0.00244911
0.00254327
-0.000732743
2.99682e-06
-0.00245362
0.00258263
-8.23166e-06
-0.0022221
-0.000982516
0.00247214
-0.000391
5.02728e-06
-0.00252212
0.00253477
-0.000403437
5.01173e-06
-0.00255158
0.00256683
-0.000418339
4.9433e-06
-0.00257929
0.00259747
-0.000436759
4.71394e-06
-0.00260616
0.00262818
-0.000460639
4.28796e-06
-0.00263199
0.00265965
-0.00049428
3.62162e-06
-0.00265651
0.002694
-0.00054753
2.90994e-06
-0.00268079
0.00273773
-0.000637052
2.45952e-06
-0.00270678
0.00279942
-0.000763969
1.53484e-06
-0.00271997
0.00284835
-7.35275e-06
-0.00247409
-0.00101418
0.00272342
-0.000433549
-0.00274131
0.00275486
-0.000444412
-0.00277343
0.0027893
-0.000457843
-0.00280371
0.00282209
-0.000475022
-0.00283304
0.00285493
-0.000497841
-0.00286107
0.00288817
-0.000530156
-0.00288775
0.00292369
-0.000580633
-0.0029145
0.00296789
-0.000665614
-0.0029457
0.00303314
-0.00078788
-0.00297316
0.00309696
-0.00273199
-0.00103679
0.00297354
1.27031e-05
5.3129e-06
-0.000597047
-9.63159e-06
5.78081e-06
-0.00059921
-3.43273e-05
6.17404e-06
-0.0006001
-6.20062e-05
6.49892e-06
-0.000599521
-9.3585e-05
6.75054e-06
-0.000597034
-0.000129951
6.89604e-06
-0.0005919
-0.000170992
6.86236e-06
-0.000582992
-0.000213439
6.50401e-06
-0.000568673
-0.000246938
5.56171e-06
-0.000545126
3.5145e-06
-0.00050308
-0.00023663
2.30383e-05
7.84605e-06
-0.000840567
3.20093e-06
8.80457e-06
-0.000844875
-1.89604e-05
9.52188e-06
-0.000847712
-4.40238e-05
1.00269e-05
-0.000848646
-7.32983e-05
1.0324e-05
-0.000847243
-0.000108895
1.03871e-05
-0.000842557
-0.000152948
1.01458e-05
-0.00083274
-0.00020536
9.41764e-06
-0.000814703
-0.000258708
7.84632e-06
-0.000782384
4.58918e-06
-0.000717848
-0.000265542
3.2732e-05
8.32481e-06
-0.00108308
1.50566e-05
9.72828e-06
-0.00108969
-5.00005e-06
1.07856e-05
-0.00109473
-2.81716e-05
1.15397e-05
-0.00109781
-5.58756e-05
1.19861e-05
-0.00109851
-9.09147e-05
1.20987e-05
-0.00109593
-0.000137281
1.1807e-05
-0.00108779
-0.000198026
1.089e-05
-0.00106939
-0.000269577
8.85026e-06
-0.00103178
4.42608e-06
-0.000943945
-0.000296886
4.20957e-05
8.25176e-06
-0.0013223
2.50204e-05
9.98661e-06
-0.00133226
5.41332e-06
1.13132e-05
-0.00134066
-1.7507e-05
1.22725e-05
-0.00134709
-4.51605e-05
1.28416e-05
-0.00135084
-8.054e-05
1.29715e-05
-0.00135104
-0.000128866
1.25781e-05
-0.0013451
-0.000196325
1.14219e-05
-0.00132716
-0.000284017
8.85877e-06
-0.00128553
3.13597e-06
-0.00117378
-0.000332316
4.9552e-05
7.96324e-06
-0.00156153
3.26603e-05
9.88402e-06
-0.00157523
1.31404e-05
1.13546e-05
-0.00158745
-9.83215e-06
1.24162e-05
-0.00159765
-3.76866e-05
1.30407e-05
-0.00160495
-7.34658e-05
1.31498e-05
-0.00160835
-0.000123249
1.26367e-05
-0.0016051
-0.000196105
1.12543e-05
-0.00158842
-0.000297913
8.19321e-06
-0.00154399
1.13404e-06
-0.00140799
-0.000365675
5.47418e-05
7.50765e-06
-0.00179909
3.79636e-05
9.46635e-06
-0.00181676
1.85079e-05
1.09584e-05
-0.00183284
-4.49114e-06
1.20305e-05
-0.00184686
-3.24723e-05
1.26522e-05
-0.00185783
-6.851e-05
1.27297e-05
-0.00186455
-0.000119303
1.21432e-05
-0.00186414
-0.000196391
1.06645e-05
-0.00184912
-0.000310102
7.34759e-06
-0.00180261
-7.73807e-07
-0.00164139
-0.000393254
5.76534e-05
6.95199e-06
-0.00203587
4.1035e-05
8.75423e-06
-0.00205719
2.17695e-05
1.01347e-05
-0.0020768
-1.03172e-06
1.11221e-05
-0.00209426
-2.88051e-05
1.16804e-05
-0.00210865
-6.46195e-05
1.17102e-05
-0.00211859
-0.000115641
1.11102e-05
-0.00212123
-0.000195656
9.73485e-06
-0.00210872
-0.00031946
6.60154e-06
-0.00206179
-2.15125e-06
-0.00187611
-0.000415875
5.80002e-05
5.82489e-06
-0.00227267
4.18495e-05
7.27049e-06
-0.00229726
2.3101e-05
8.45384e-06
-0.00231982
8.52242e-07
9.34426e-06
-0.00234024
-2.62874e-05
9.8911e-06
-0.00235759
-6.1311e-05
9.9722e-06
-0.00237041
-0.00011163
9.53295e-06
-0.00237599
-0.000193024
8.55256e-06
-0.00236653
-0.000325279
6.30215e-06
-0.00232107
-2.32603e-06
-0.00211298
-0.000434224
5.62967e-05
3.37745e-06
-0.00250649
4.1181e-05
4.20494e-06
-0.0025334
2.34746e-05
4.9967e-06
-0.00255813
2.09389e-06
5.63373e-06
-0.00258107
-2.44521e-05
6.11051e-06
-0.00260167
-5.89637e-05
6.29218e-06
-0.00261832
-0.000108468
6.18047e-06
-0.00262793
-0.000190087
5.87298e-06
-0.00262248
-0.000329482
5.28564e-06
-0.00257956
-1.48854e-06
-0.00235084
-0.000453564
5.35467e-05
-0.00272612
3.97012e-05
-0.00275538
2.34282e-05
-0.00278244
3.56724e-06
-0.00280754
-2.14321e-05
-0.00282996
-5.45139e-05
-0.00284837
-0.000102142
-0.00286069
-0.000181977
-0.00285999
-0.000326576
-0.00282328
-0.0025819
-0.000478156
7.1216e-06
5.2317e-06
-0.000584978
-1.15659e-05
5.64414e-06
-0.000586166
-3.1579e-05
5.95008e-06
-0.000586037
-5.28076e-05
6.15027e-06
-0.000584443
-7.49654e-05
6.22451e-06
-0.000581101
-9.73465e-05
6.12661e-06
-0.000575646
-0.000118437
5.78566e-06
-0.000567687
-0.000135311
5.10844e-06
-0.000556907
-0.000141596
3.98349e-06
-0.000542825
2.32061e-06
-0.000524246
-0.000122751
1.65499e-05
7.87501e-06
-0.000826865
-1.61095e-06
8.7585e-06
-0.000829829
-2.16112e-05
9.38201e-06
-0.000831144
-4.3423e-05
9.7599e-06
-0.000830444
-6.7108e-05
9.87307e-06
-0.000827207
-9.25683e-05
9.66083e-06
-0.000820631
-0.000118951
9.03187e-06
-0.000809603
-0.000143685
7.85335e-06
-0.000792714
-0.00016003
5.9603e-06
-0.000768016
3.2022e-06
-0.000733417
-0.000145343
2.62136e-05
8.56751e-06
-0.0010685
9.01754e-06
9.9018e-06
-0.00107363
-1.03152e-05
1.08736e-05
-0.00107689
-3.20796e-05
1.15074e-05
-0.0010778
-5.67115e-05
1.17729e-05
-0.00107578
-8.48396e-05
1.15978e-05
-0.00106974
-0.000116647
1.08603e-05
-0.00105781
-0.000150392
9.35917e-06
-0.00103715
-0.00017941
6.79912e-06
-0.0010036
2.84599e-06
-0.000950514
-0.000172484
3.57437e-05
8.60164e-06
-0.00130738
1.86822e-05
1.02912e-05
-0.00131558
-8.57521e-07
1.15555e-05
-0.0013218
-2.33628e-05
1.2422e-05
-0.0013255
-4.9476e-05
1.28344e-05
-0.00132579
-8.02999e-05
1.26955e-05
-0.00132131
-0.000116982
1.1845e-05
-0.0013094
-0.000159148
1.00161e-05
-0.00128565
-0.000201336
6.76089e-06
-0.0012433
1.51369e-06
-0.00116888
-0.000204901
4.36953e-05
8.36488e-06
-0.0015464
2.65593e-05
1.02743e-05
-0.00155808
6.71298e-06
1.17186e-05
-0.00156776
-1.64508e-05
1.27268e-05
-0.00157479
-4.3802e-05
1.32325e-05
-0.001578
-7.67863e-05
1.31079e-05
-0.00157578
-0.000117466
1.21516e-05
-0.00156473
-0.000167138
1.00328e-05
-0.00153877
-0.000222272
6.1116e-06
-0.00148821
-4.96164e-07
-0.00139062
-0.000237625
4.95467e-05
7.89961e-06
-0.00178379
3.23756e-05
9.88232e-06
-0.0017992
1.23559e-05
1.13877e-05
-0.00181249
-1.12199e-05
1.24508e-05
-0.001823
-3.94216e-05
1.30024e-05
-0.0018294
-7.39933e-05
1.28967e-05
-0.00182977
-0.000117858
1.19053e-05
-0.00182003
-0.00017414
9.65655e-06
-0.00179246
-0.000241791
5.31579e-06
-0.00173416
-2.42764e-06
-0.00161182
-0.000269426
5.31793e-05
7.24964e-06
-0.00202044
3.61053e-05
9.10403e-06
-0.00203933
1.61597e-05
1.0533e-05
-0.002056
-7.44313e-06
1.15599e-05
-0.00206977
-3.59329e-05
1.21169e-05
-0.00207927
-7.13095e-05
1.2046e-05
-0.00208236
-0.000117306
1.11184e-05
-0.00207445
-0.000179004
8.97395e-06
-0.00204634
-0.00025838
4.64232e-06
-0.00198174
-3.92583e-06
-0.00183446
-0.000298531
5.41789e-05
5.98865e-06
-0.00225699
3.75694e-05
7.48726e-06
-0.00227903
1.81328e-05
8.71737e-06
-0.00229857
-4.9957e-06
9.65779e-06
-0.00231521
-3.31397e-05
1.02487e-05
-0.00232758
-6.84845e-05
1.03204e-05
-0.00233334
-0.000115446
9.68262e-06
-0.00232759
-0.000181071
8.03136e-06
-0.00229997
-0.000271092
4.48848e-06
-0.00223089
-4.30043e-06
-0.0020596
-0.000324103
5.28252e-05
3.51878e-06
-0.00249043
3.7223e-05
4.37024e-06
-0.00251468
1.88801e-05
5.18204e-06
-0.00253625
-3.25911e-06
5.83682e-06
-0.00255511
-3.07745e-05
6.34869e-06
-0.00257025
-6.59983e-05
6.56855e-06
-0.00257935
-0.000113531
6.40321e-06
-0.00257712
-0.000181789
5.64252e-06
-0.00255183
-0.000280825
3.85799e-06
-0.00247989
-3.31014e-06
-0.00228469
-0.000347966
5.04177e-05
-0.00271017
3.59731e-05
-0.00273656
1.9022e-05
-0.00276031
-1.57309e-06
-0.00278111
-2.73784e-05
-0.0027978
-6.09977e-05
-0.00280819
-0.00010732
-0.00280796
-0.000175839
-0.00278583
-0.000280642
-0.00271462
-0.0024997
-0.000366155
4.16203e-06
4.87747e-06
-0.000576523
-1.0041e-05
5.21904e-06
-0.000577183
-2.47693e-05
5.43115e-06
-0.00057674
-3.96051e-05
5.51588e-06
-0.000575123
-5.39391e-05
5.45452e-06
-0.000572221
-6.68644e-05
5.21275e-06
-0.000567934
-7.70343e-05
4.74818e-06
-0.000562266
-8.2458e-05
4.01666e-06
-0.000555501
-7.9989e-05
2.98708e-06
-0.000548281
1.71962e-06
-0.000540736
-6.52184e-05
1.16714e-05
7.56214e-06
-0.000815623
-3.69114e-06
8.34202e-06
-0.000817589
-2.02533e-05
8.8428e-06
-0.000817994
-3.76559e-05
9.07589e-06
-0.000816602
-5.53598e-05
9.01777e-06
-0.000813066
-7.24399e-05
8.61011e-06
-0.000806948
-8.72997e-05
7.78097e-06
-0.000797777
-9.72567e-05
6.4624e-06
-0.000785203
-9.77309e-05
4.62688e-06
-0.000769182
2.41769e-06
-0.000750657
-8.11888e-05
2.04456e-05
8.51962e-06
-0.00105544
4.69727e-06
9.74034e-06
-0.00105928
-1.27329e-05
1.05803e-05
-0.0010612
-3.17303e-05
1.10494e-05
-0.00106077
-5.208e-05
1.11107e-05
-0.00105752
-7.32407e-05
1.06813e-05
-0.00105065
-9.38125e-05
9.64626e-06
-0.0010391
-0.000110701
7.86828e-06
-0.00102167
-0.000117603
5.2294e-06
-0.000997305
1.85544e-06
-0.000966302
-0.000101252
2.95439e-05
8.73355e-06
-0.00129335
1.32596e-05
1.0326e-05
-0.00129989
-5.19304e-06
1.14708e-05
-0.00130424
-2.59543e-05
1.2182e-05
-0.00130587
-4.90399e-05
1.23872e-05
-0.00130398
-7.42773e-05
1.19709e-05
-0.00129736
-0.000100634
1.07643e-05
-0.00128416
-0.000125033
8.54651e-06
-0.00126193
-0.00014012
5.07126e-06
-0.00122805
4.2486e-07
-0.00118113
-0.000126445
3.75651e-05
8.61029e-06
-0.00153176
2.07923e-05
1.04525e-05
-0.00154143
1.47168e-06
1.18071e-05
-0.00154878
-2.07127e-05
1.26922e-05
-0.00155312
-4.60367e-05
1.30108e-05
-0.0015533
-7.47205e-05
1.26127e-05
-0.00154774
-0.000106261
1.12685e-05
-0.00153369
-0.000138008
8.66293e-06
-0.00150714
-0.000162227
4.36967e-06
-0.00146329
-1.6368e-06
-0.00139773
-0.000153064
4.37842e-05
8.18589e-06
-0.00176869
2.67053e-05
1.01359e-05
-0.0017818
6.82687e-06
1.15892e-05
-0.0017924
-1.63239e-05
1.25705e-05
-0.00179973
-4.3306e-05
1.29735e-05
-0.00180238
-7.47155e-05
1.26221e-05
-0.00179837
-0.000110693
1.12379e-05
-0.00178402
-0.00014936
8.42015e-06
-0.00175355
-0.000183249
3.53345e-06
-0.00169944
-3.65944e-06
-0.0016129
-0.000180142
4.79583e-05
7.49341e-06
-0.002005
3.08136e-05
9.34405e-06
-0.0020214
1.07653e-05
1.07534e-05
-0.00203512
-1.27949e-05
1.17399e-05
-0.00204538
-4.06957e-05
1.2202e-05
-0.0020506
-7.39075e-05
1.1944e-05
-0.00204847
-0.000113308
1.06616e-05
-0.00203447
-0.000158132
7.90044e-06
-0.00200099
-0.000201888
2.8254e-06
-0.00193728
-5.32761e-06
-0.00182855
-0.000206131
4.95462e-05
6.14256e-06
-0.00224117
3.27831e-05
7.6499e-06
-0.00226057
1.31228e-05
8.86527e-06
-0.00227702
-1.01777e-05
9.77421e-06
-0.00228994
-3.81648e-05
1.02976e-05
-0.00229768
-7.21522e-05
1.02388e-05
-0.00229764
-0.000113785
9.32458e-06
-0.00228462
-0.000163702
7.09417e-06
-0.00224924
-0.000217294
2.67282e-06
-0.00217715
-5.85506e-06
-0.00204592
-0.000230441
4.87647e-05
3.64478e-06
-0.00247416
3.29323e-05
4.50413e-06
-0.0024957
1.43173e-05
5.30662e-06
-0.00251408
-7.99444e-06
5.93184e-06
-0.00252895
-3.53988e-05
6.38893e-06
-0.00253894
-6.9601e-05
6.52223e-06
-0.00254143
-0.000112839
6.19165e-06
-0.00253074
-0.000166971
5.02663e-06
-0.00249563
-0.000229749
2.41447e-06
-0.00241686
-4.63449e-06
-0.00226243
-0.000253235
4.68399e-05
-0.00269375
3.2071e-05
-0.00271729
1.47793e-05
-0.00273771
-6.03872e-06
-0.00275436
-3.17513e-05
-0.0027657
-6.43333e-05
-0.00276908
-0.000106805
-0.0027593
-0.000162699
-0.00272491
-0.000232121
-0.00264278
-0.00246712
-0.000269332
2.65577e-06
4.3454e-06
-0.000571291
-7.44547e-06
4.61685e-06
-0.000571698
-1.76581e-05
4.75308e-06
-0.000571281
-2.75192e-05
4.75852e-06
-0.00057002
-3.64602e-05
4.62322e-06
-0.000567904
-4.37805e-05
4.33041e-06
-0.000564944
-4.86465e-05
3.86516e-06
-0.000561265
-5.00979e-05
3.21771e-06
-0.000557267
-4.69193e-05
2.39121e-06
-0.000553851
1.44797e-06
-0.000551654
-3.74498e-05
8.19892e-06
6.97799e-06
-0.00080712
-4.00033e-06
7.64182e-06
-0.000808415
-1.68668e-05
8.0212e-06
-0.000808396
-2.99031e-05
8.12913e-06
-0.000806936
-4.24244e-05
7.94936e-06
-0.000803871
-5.34517e-05
7.44384e-06
-0.000799034
-6.16234e-05
6.57631e-06
-0.000792316
-6.5161e-05
5.3347e-06
-0.000783783
-6.18732e-05
3.76782e-06
-0.000773846
2.0743e-06
-0.000763552
-4.96046e-05
1.56982e-05
8.1788e-06
-0.00104443
2.03263e-06
9.25749e-06
-0.00104723
-1.28238e-05
9.94728e-06
-0.00104827
-2.84806e-05
1.02508e-05
-0.00104724
-4.43675e-05
1.0135e-05
-0.00104382
-5.95319e-05
9.52995e-06
-0.00103757
-7.23683e-05
8.3589e-06
-0.00102805
-8.03076e-05
6.56394e-06
-0.00101496
-7.94947e-05
4.1571e-06
-0.000998507
1.40495e-06
-0.000980177
-6.49507e-05
2.39482e-05
8.60133e-06
-0.00128076
9.09154e-06
1.00577e-05
-0.00128583
-7.5161e-06
1.10513e-05
-0.00128874
-2.56867e-05
1.15838e-05
-0.00128903
-4.49942e-05
1.15819e-05
-0.00128612
-6.46024e-05
1.09362e-05
-0.00127916
-8.2795e-05
9.51261e-06
-0.00126713
-9.63486e-05
7.18047e-06
-0.001249
-9.97814e-05
3.87143e-06
-0.00122434
-7.35711e-08
-0.00119492
-8.45144e-05
3.16612e-05
8.63104e-06
-0.00151812
1.58417e-05
1.03605e-05
-0.00152592
-2.19255e-06
1.1583e-05
-0.00153128
-2.2456e-05
1.23038e-05
-0.00153357
-4.47206e-05
1.24127e-05
-0.00153186
-6.83912e-05
1.17578e-05
-0.00152489
-9.18466e-05
1.01347e-05
-0.00151086
-0.000111475
7.31455e-06
-0.00148764
-0.000120383
3.0892e-06
-0.0014536
-2.17802e-06
-0.00141029
-0.000105717
3.79511e-05
8.28943e-06
-0.00175424
2.14894e-05
1.01594e-05
-0.00176514
2.45486e-06
1.15115e-05
-0.00177329
-1.93461e-05
1.23593e-05
-0.00177799
-4.39462e-05
1.25713e-05
-0.00177793
-7.10627e-05
1.19621e-05
-0.00177146
-9.936e-05
1.02598e-05
-0.00175585
-0.000125154
7.13013e-06
-0.00172757
-0.000140518
2.1795e-06
-0.00168317
-4.27974e-06
-0.00162334
-0.000127979
4.24585e-05
7.6017e-06
-0.00198995
2.56963e-05
9.40488e-06
-0.00200388
6.17028e-06
1.0745e-05
-0.00201482
-1.64892e-05
1.16332e-05
-0.00202199
-4.26178e-05
1.19405e-05
-0.00202384
-7.22953e-05
1.14545e-05
-0.00201829
-0.000104657
9.85275e-06
-0.0020017
-0.00013631
6.70363e-06
-0.00196891
-0.00015882
1.39972e-06
-0.00191399
-6.06625e-06
-0.00183581
-0.000149773
4.45201e-05
6.19843e-06
-0.00222556
2.79858e-05
7.68489e-06
-0.00224232
8.63729e-06
8.8488e-06
-0.00225578
-1.40743e-05
9.67859e-06
-0.00226528
-4.07717e-05
1.00716e-05
-0.00226912
-7.19259e-05
9.81922e-06
-0.00226485
-0.000107296
8.61289e-06
-0.00224801
-0.00014417
5.96297e-06
-0.00221163
-0.000174388
1.15886e-06
-0.00214669
-6.71812e-06
-0.00204905
-0.000170611
4.43273e-05
3.70322e-06
-0.00245801
2.85914e-05
4.55818e-06
-0.00247684
1.0147e-05
5.33489e-06
-0.00249212
-1.17108e-05
5.90887e-06
-0.00250333
-3.79874e-05
6.27516e-06
-0.00250886
-6.96637e-05
6.27155e-06
-0.0025062
-0.000107239
5.72587e-06
-0.00249028
-0.000148838
4.21915e-06
-0.00245229
-0.00018699
1.18954e-06
-0.00237874
-5.32267e-06
-0.00226053
-0.00019028
4.28664e-05
-0.00267727
2.8086e-05
-0.00269795
1.08481e-05
-0.00271514
-9.66492e-06
-0.00272794
-3.44682e-05
-0.00273462
-6.48019e-05
-0.00273248
-0.000101944
-0.00271643
-0.000145691
-0.00267694
-0.000189866
-0.00259741
-0.00245949
-0.000202822
1.91785e-06
3.73011e-06
-0.000568513
-4.90889e-06
3.94133e-06
-0.000568813
-1.16909e-05
4.02589e-06
-0.000568525
-1.80425e-05
3.98994e-06
-0.000567659
-2.35416e-05
3.83184e-06
-0.000566237
-2.77325e-05
3.54808e-06
-0.000564301
-3.01572e-05
3.14096e-06
-0.000561982
-3.04035e-05
2.61677e-06
-0.000559638
-2.80643e-05
1.98426e-06
-0.000558174
1.27426e-06
-0.000558626
-2.23662e-05
5.79679e-06
6.21566e-06
-0.000801172
-3.39285e-06
6.76515e-06
-0.00080205
-1.29005e-05
7.04139e-06
-0.000801904
-2.22305e-05
7.06055e-06
-0.000800677
-3.07716e-05
6.81722e-06
-0.000798316
-3.77574e-05
6.29541e-06
-0.000794796
-4.22617e-05
5.4892e-06
-0.00079016
-4.32738e-05
4.4198e-06
-0.000784574
-3.98902e-05
3.16187e-06
-0.000778407
1.88893e-06
-0.000772336
-3.17212e-05
1.19476e-05
7.59292e-06
-0.00103567
6.54909e-07
8.51642e-06
-0.00103769
-1.1415e-05
9.05885e-06
-0.00103821
-2.37574e-05
9.22223e-06
-0.00103706
-3.57003e-05
8.98327e-06
-0.00103404
-4.62897e-05
8.29494e-06
-0.00102898
-5.42037e-05
7.12121e-06
-0.00102177
-5.77244e-05
5.46451e-06
-0.00101248
-5.48546e-05
3.40627e-06
-0.00100162
1.21541e-06
-0.000990375
-4.39835e-05
1.91145e-05
8.21616e-06
-0.00127
6.13321e-06
9.51042e-06
-0.00127384
-8.17224e-06
1.03403e-05
-0.00127571
-2.33972e-05
1.07002e-05
-0.00127529
-3.88893e-05
1.05274e-05
-0.00127217
-5.36034e-05
9.73394e-06
-0.00126588
-6.58704e-05
8.23487e-06
-0.00125597
-7.3187e-05
5.98505e-06
-0.0012422
-7.21898e-05
3.03671e-06
-0.00122496
-2.19442e-07
-0.00120618
-5.94868e-05
2.62267e-05
8.4154e-06
-0.00150589
1.18549e-05
9.99565e-06
-0.00151203
-4.32834e-06
1.10598e-05
-0.00151581
-2.20792e-05
1.16015e-05
-0.00151672
-4.0849e-05
1.15145e-05
-0.00151408
-5.96371e-05
1.06635e-05
-0.00150703
-7.65736e-05
8.89526e-06
-0.00149458
-8.84466e-05
6.08389e-06
-0.00147587
-9.03876e-05
2.19598e-06
-0.00145082
-2.28302e-06
-0.00142206
-7.65541e-05
3.23155e-05
8.18704e-06
-0.00174087
1.69562e-05
9.93562e-06
-0.00174972
-6.29241e-07
1.11503e-05
-0.0017558
-2.03707e-05
1.18333e-05
-0.00175848
-4.18924e-05
1.18461e-05
-0.00175674
-6.43647e-05
1.10135e-05
-0.00174933
-8.58944e-05
9.10748e-06
-0.00173453
-0.000102748
5.90122e-06
-0.00171054
-0.000108614
1.22436e-06
-0.00167633
-4.38518e-06
-0.00163512
-9.47354e-05
3.69393e-05
7.54804e-06
-0.0019757
2.10117e-05
9.26469e-06
-0.00198728
2.59524e-06
1.04966e-05
-0.00199575
-1.84225e-05
1.12465e-05
-0.00200039
-4.19285e-05
1.13712e-05
-0.00199986
-6.73617e-05
1.06627e-05
-0.0019925
-9.30106e-05
8.82565e-06
-0.00197577
-0.000114889
5.51835e-06
-0.00194665
-0.000125462
3.79678e-07
-0.00190257
-6.20254e-06
-0.00184691
-0.000112552
3.93228e-05
6.13587e-06
-0.00221052
2.34187e-05
7.57339e-06
-0.00222472
4.9162e-06
8.65659e-06
-0.00223543
-1.64963e-05
9.37412e-06
-0.00224199
-4.09978e-05
9.60526e-06
-0.00224285
-6.8375e-05
9.1445e-06
-0.00223596
-9.73093e-05
7.69042e-06
-0.00221794
-0.000123916
4.80807e-06
-0.00218431
-0.000139955
2.12028e-08
-0.00213029
-6.93635e-06
-0.00205873
-0.000129544
3.96475e-05
3.68537e-06
-0.00244232
2.43591e-05
4.52072e-06
-0.0024585
6.54193e-06
5.25528e-06
-0.0024709
-1.42582e-05
5.76e-06
-0.00247891
-3.85841e-05
6.01496e-06
-0.00248095
-6.6722e-05
5.85761e-06
-0.00247478
-9.80248e-05
5.10809e-06
-0.0024564
-0.000129071
3.36966e-06
-0.0024198
-0.000151187
2.3925e-07
-0.00235684
-5.45017e-06
-0.00226825
-0.000144951
3.86026e-05
-0.00266109
2.41415e-05
-0.00267897
7.37096e-06
-0.00269311
-1.23039e-05
-0.0027025
-3.54862e-05
-0.00270543
-6.27169e-05
-0.00269939
-9.39474e-05
-0.00268009
-0.000126974
-0.00264055
-0.00015369
-0.00257046
-0.00246524
-0.000153386
1.50862e-06
3.1105e-06
-0.000567379
-2.94494e-06
3.27398e-06
-0.000567634
-7.32782e-06
3.32804e-06
-0.00056747
-1.13578e-05
3.2795e-06
-0.000566909
-1.47508e-05
3.13217e-06
-0.000565976
-1.72299e-05
2.88985e-06
-0.000564712
-1.8556e-05
2.56269e-06
-0.000563218
-1.85652e-05
2.16131e-06
-0.00056179
-1.71421e-05
1.68878e-06
-0.000561286
1.1412e-06
-0.000563089
-1.38211e-05
4.12596e-06
5.37002e-06
-0.000797327
-2.5095e-06
5.81587e-06
-0.000797956
-9.2752e-06
6.01364e-06
-0.000797824
-1.5746e-05
5.98189e-06
-0.000796909
-2.14456e-05
5.72448e-06
-0.000795208
-2.58427e-05
5.24141e-06
-0.000792751
-2.83719e-05
4.54558e-06
-0.000789614
-2.85079e-05
3.67268e-06
-0.000785949
-2.59186e-05
2.6968e-06
-0.000782005
1.74922e-06
-0.000778154
-2.07091e-05
9.03432e-06
6.83559e-06
-0.00102908
9.68604e-08
7.60447e-06
-0.00103054
-9.31708e-06
8.01616e-06
-0.0010308
-1.87068e-05
8.07594e-06
-0.00102976
-2.74528e-05
7.77224e-06
-0.00102735
-3.47696e-05
7.08097e-06
-0.00102351
-3.97073e-05
5.99698e-06
-0.00101828
-4.12228e-05
4.55656e-06
-0.00101185
-3.83655e-05
2.86396e-06
-0.00100465
1.14388e-06
-0.000997411
-3.07237e-05
1.50437e-05
7.62138e-06
-0.00126122
4.14854e-06
8.74108e-06
-0.00126408
-7.69739e-06
9.41055e-06
-0.00126526
-1.99963e-05
9.62325e-06
-0.00126453
-3.20464e-05
9.33289e-06
-0.00126168
-4.2856e-05
8.47977e-06
-0.00125647
-5.10703e-05
7.02402e-06
-0.00124879
-5.49795e-05
4.98083e-06
-0.00123872
-5.27276e-05
2.46442e-06
-0.00122682
-1.71035e-07
-0.00121447
-4.31233e-05
2.13656e-05
7.98249e-06
-0.00149534
8.77411e-06
9.38834e-06
-0.00150008
-5.226e-06
1.02835e-05
-0.00150269
-2.02227e-05
1.06539e-05
-0.00150276
-3.55214e-05
1.04098e-05
-0.00149986
-5.00266e-05
9.44473e-06
-0.00149349
-6.20399e-05
7.66162e-06
-0.00148321
-6.91273e-05
5.02075e-06
-0.00146882
-6.82496e-05
1.60164e-06
-0.00145083
-2.1211e-06
-0.00143143
-5.69296e-05
2.7033e-05
7.88153e-06
-0.00172889
1.31587e-05
9.47571e-06
-0.00173593
-2.54251e-06
1.0531e-05
-0.00174034
-1.97937e-05
1.10395e-05
-0.00174161
-3.79815e-05
1.08735e-05
-0.00173902
-5.60262e-05
9.88336e-06
-0.00173173
-7.2009e-05
7.90184e-06
-0.00171879
-8.28318e-05
4.80754e-06
-0.0016995
-8.41445e-05
5.99173e-07
-0.00167401
-4.14474e-06
-0.00164544
-7.17931e-05
3.15717e-05
7.32612e-06
-0.00196259
1.68716e-05
8.9222e-06
-0.00197203
4.15545e-08
1.00183e-05
-0.00197841
-1.88009e-05
1.06087e-05
-0.00198111
-3.92208e-05
1.05524e-05
-0.00197912
-6.02863e-05
9.66389e-06
-0.00197122
-8.00308e-05
7.70369e-06
-0.00195583
-9.4843e-05
4.44014e-06
-0.00193147
-9.90335e-05
-2.77083e-07
-0.0018975
-5.90391e-06
-0.00185791
-8.62733e-05
3.41158e-05
5.94564e-06
-0.0021964
1.92142e-05
7.30718e-06
-0.00220821
2.02464e-06
8.28683e-06
-0.00221651
-1.75246e-05
8.87228e-06
-0.0022207
-3.9243e-05
8.93567e-06
-0.00221952
-6.24537e-05
8.28998e-06
-0.00221137
-8.53587e-05
6.67461e-06
-0.002194
-0.000104098
3.75085e-06
-0.00216488
-0.000111901
-7.31287e-07
-0.00212203
-6.66987e-06
-0.00206997
-9.989e-05
3.4854e-05
3.58572e-06
-0.00242743
2.03556e-05
4.38425e-06
-0.00244108
3.5877e-06
5.06139e-06
-0.00245091
-1.56462e-05
5.48389e-06
-0.00245629
-3.74611e-05
5.62134e-06
-0.00245582
-6.15819e-05
5.31951e-06
-0.00244769
-8.66979e-05
4.41514e-06
-0.00242902
-0.000109127
2.57872e-06
-0.0023962
-0.00012121
-4.1361e-07
-0.00234507
-5.18952e-06
-0.00227963
-0.000111311
3.41632e-05
-0.00264559
2.03485e-05
-0.00266077
4.44133e-06
-0.00267214
-1.39169e-05
-0.00267866
-3.49376e-05
-0.00267878
-5.85898e-05
-0.00267042
-8.39703e-05
-0.0026503
-0.000108102
-0.00261384
-0.000123391
-0.00255559
-0.00247698
-0.000116842
1.22926e-06
2.53844e-06
-0.000567225
-1.61004e-06
2.66547e-06
-0.00056746
-4.39947e-06
2.70353e-06
-0.000567384
-6.94576e-06
2.65903e-06
-0.000567021
-9.06619e-06
2.53853e-06
-0.000566394
-1.05958e-05
2.34881e-06
-0.000565531
-1.14099e-05
2.10209e-06
-0.000564507
-1.14475e-05
1.8077e-06
-0.00056356
-1.069e-05
1.46045e-06
-0.000563504
1.02618e-06
-0.000565998
-8.80714e-06
2.94371e-06
4.52043e-06
-0.000795059
-1.68451e-06
4.87722e-06
-0.00079554
-6.36039e-06
5.01955e-06
-0.000795464
-1.07512e-05
4.96667e-06
-0.000794826
-1.45108e-05
4.72854e-06
-0.000793639
-1.7287e-05
4.31421e-06
-0.00079194
-1.87461e-05
3.74486e-06
-0.000789798
-1.86255e-05
3.05826e-06
-0.000787321
-1.6829e-05
2.31786e-06
-0.000784659
1.61803e-06
-0.000782002
-1.3573e-05
6.78842e-06
5.98712e-06
-0.00102438
-3.29046e-08
6.61178e-06
-0.00102546
-7.12996e-06
6.91576e-06
-0.0010256
-1.40659e-05
6.90812e-06
-0.00102477
-2.03363e-05
6.58777e-06
-0.00102294
-2.53585e-05
5.94872e-06
-0.00102012
-2.84992e-05
5.00506e-06
-0.0010164
-2.91515e-05
3.80633e-06
-0.00101195
-2.6873e-05
2.45258e-06
-0.00100706
1.11644e-06
-0.00100216
-2.16192e-05
1.16792e-05
6.87812e-06
-0.00125434
2.86118e-06
7.82329e-06
-0.00125648
-6.60945e-06
8.34698e-06
-0.00125722
-1.62314e-05
8.44603e-06
-0.00125645
-2.53619e-05
8.09195e-06
-0.00125405
-3.31805e-05
7.25257e-06
-0.00124996
-3.86902e-05
5.92263e-06
-0.00124419
-4.0797e-05
4.15135e-06
-0.00123695
-3.85229e-05
2.07091e-06
-0.00122871
-2.81453e-08
-0.00122033
-3.15192e-05
1.71188e-05
7.37183e-06
-0.00148657
6.45451e-06
8.5908e-06
-0.00149019
-5.25466e-06
9.3198e-06
-0.00149195
-1.75204e-05
9.54224e-06
-0.00149159
-2.96339e-05
9.19068e-06
-0.00148884
-4.05918e-05
8.1923e-06
-0.00148347
-4.90278e-05
6.50015e-06
-0.00147535
-5.32424e-05
4.13377e-06
-0.00146459
-5.14501e-05
1.22745e-06
-0.00145178
-1.80991e-06
-0.00143843
-4.26617e-05
2.22105e-05
7.39409e-06
-0.0017185
1.00669e-05
8.81128e-06
-0.00172401
-3.51041e-06
9.69912e-06
-0.00172714
-1.81062e-05
1.0043e-05
-0.00172752
-3.30125e-05
9.73681e-06
-0.00172466
-4.71307e-05
8.66675e-06
-0.00171808
-5.87851e-05
6.72766e-06
-0.00170736
-6.56482e-05
3.88252e-06
-0.00169238
-6.4942e-05
2.33459e-07
-0.00167372
-3.69079e-06
-0.00165373
-5.47762e-05
2.64949e-05
6.94371e-06
-0.00195088
1.33152e-05
8.39235e-06
-0.00195843
-1.60197e-06
9.33753e-06
-0.00196313
-1.79626e-05
9.76615e-06
-0.00196448
-3.51542e-05
9.55328e-06
-0.00196175
-5.21038e-05
8.54817e-06
-0.00195415
-6.69493e-05
6.5799e-06
-0.00194084
-7.67893e-05
3.5201e-06
-0.00192127
-7.76978e-05
-6.33323e-07
-0.00189573
-5.3207e-06
-0.0018675
-6.64725e-05
2.90475e-05
5.6271e-06
-0.00218348
1.54562e-05
6.88843e-06
-0.00219311
-6.3478e-08
7.74951e-06
-0.00219941
-1.73731e-05
8.19741e-06
-0.00220183
-3.60244e-05
8.10879e-06
-0.00219942
-5.50958e-05
7.32675e-06
-0.00219108
-7.27229e-05
5.65218e-06
-0.00217545
-8.5601e-05
2.85369e-06
-0.00215134
-8.87506e-05
-1.14117e-06
-0.00211837
-6.06772e-06
-0.00208067
-7.73075e-05
3.00829e-05
3.40351e-06
-0.00241364
1.66795e-05
4.14812e-06
-0.00242493
1.31524e-06
4.7555e-06
-0.00243255
-1.59741e-05
5.08979e-06
-0.00243589
-3.49727e-05
5.1168e-06
-0.00243383
-5.50283e-05
4.69898e-06
-0.002425