/*--------------------------------*- C++ -*----------------------------------*\
| =========                 |                                                 |
| \\      /  F ield         | foam-extend: Open Source CFD                    |
|  \\    /   O peration     | Version:     4.0                                |
|   \\  /    A nd           | Web:         http://www.foam-extend.org         |
|    \\/     M anipulation  |                                                 |
\*---------------------------------------------------------------------------*/
FoamFile
{
    version     2.0;
    format      ascii;
    class       volScalarField;
    location    "1000";
    object      T;
}
// * * * * * * * * * * * * * * * * * * * * * * * * * * * * * * * * * * * * * //

dimensions      [0 0 0 1 0 0 0];

internalField   nonuniform List<scalar> 
34480
(
278.425
277.979
277.533
277.066
276.553
275.996
275.523
275.529
276.602
280.437
277.742
277.222
276.717
276.214
275.663
275.016
274.304
273.793
273.952
276.809
277.62
277.04
276.466
275.884
275.247
274.478
273.543
272.631
272.076
273.981
277.704
277.008
276.308
275.588
274.813
273.899
272.768
271.516
270.327
271.331
277.815
277.013
276.196
275.347
274.434
273.377
272.064
270.503
268.728
268.91
277.993
277.103
276.191
275.238
274.208
273.024
271.554
269.716
267.399
266.789
278.131
277.177
276.199
275.173
274.061
272.783
271.188
269.1
266.249
264.824
278.289
277.297
276.284
275.221
274.068
272.745
271.085
268.808
265.446
263.143
278.39
277.382
276.348
275.253
274.054
272.679
270.962
268.531
264.638
261.426
279.237
278.232
277.192
276.087
274.885
273.522
271.829
269.368
264.976
260.643
279.876
279.693
279.594
279.597
279.733
280.051
280.634
281.585
283.161
286.312
278.726
278.451
278.25
278.151
278.176
278.369
278.825
279.688
281.173
284.484
278.247
277.901
277.619
277.417
277.319
277.358
277.626
278.304
279.624
283.043
278.025
277.579
277.186
276.857
276.622
276.514
276.617
277.121
278.261
281.693
277.875
277.342
276.852
276.414
276.057
275.817
275.772
276.109
277.063
280.457
277.826
277.221
276.655
276.132
275.677
275.327
275.156
275.339
276.122
279.492
277.775
277.12
276.505
275.926
275.402
274.97
274.694
274.726
275.32
278.616
277.794
277.111
276.469
275.859
275.296
274.812
274.459
274.356
274.735
277.852
277.815
277.122
276.466
275.832
275.23
274.69
274.26
274.032
274.149
276.953
278.577
277.881
277.215
276.571
275.962
275.413
274.961
274.663
274.474
276.673
281.015
280.917
280.913
281.016
281.247
281.638
282.228
283.06
284.209
285.811
279.725
279.541
279.444
279.46
279.618
279.967
280.572
281.52
282.93
284.975
279.121
278.86
278.68
278.602
278.657
278.897
279.414
280.341
281.862
284.316
278.793
278.437
278.152
277.958
277.892
278.01
278.422
279.3
280.889
283.694
278.565
278.124
277.745
277.445
277.266
277.266
277.565
278.37
279.98
283.067
278.452
277.938
277.481
277.096
276.821
276.716
276.909
277.628
279.228
282.533
278.352
277.786
277.274
276.828
276.478
276.288
276.383
277.001
278.547
281.992
278.329
277.73
277.185
276.698
276.298
276.043
276.052
276.56
278.007
281.507
278.312
277.701
277.141
276.63
276.187
275.868
275.787
276.17
277.474
280.978
279.011
278.399
277.828
277.306
276.855
276.525
276.399
276.68
277.783
281.169
281.801
281.753
281.787
281.909
282.128
282.455
282.895
283.438
284.07
284.818
280.516
280.401
280.372
280.446
280.643
280.991
281.519
282.252
283.205
284.349
279.859
279.674
279.573
279.577
279.713
280.02
280.549
281.362
282.517
284.03
279.466
279.193
279.002
278.913
278.962
279.197
279.696
280.558
281.888
283.769
279.178
278.826
278.549
278.369
278.327
278.481
278.927
279.803
281.271
283.488
279.012
278.589
278.238
277.979
277.854
277.928
278.315
279.185
280.76
283.277
278.87
278.393
277.987
277.666
277.473
277.476
277.798
278.636
280.274
283.036
278.811
278.299
277.855
277.491
277.245
277.186
277.44
278.224
279.876
282.817
278.773
278.246
277.785
277.396
277.11
276.991
277.166
277.863
279.472
282.561
279.428
278.898
278.424
278.021
277.721
277.585
277.719
278.337
279.827
282.978
282.273
282.249
282.284
282.381
282.541
282.764
283.043
283.357
283.659
283.936
281.096
281.026
281.027
281.11
281.284
281.56
281.948
282.443
283.027
283.636
280.461
280.332
280.28
280.321
280.472
280.756
281.196
281.808
282.588
283.468
280.047
279.844
279.72
279.696
279.796
280.056
280.518
281.227
282.205
283.385
279.729
279.454
279.258
279.161
279.199
279.416
279.877
280.654
281.811
283.292
279.53
279.188
278.926
278.762
278.737
278.905
279.349
280.175
281.492
283.265
279.359
278.964
278.649
278.429
278.348
278.466
278.881
279.729
281.173
283.208
279.273
278.842
278.488
278.226
278.097
278.166
278.542
279.385
280.914
283.172
279.216
278.769
278.396
278.109
277.946
277.968
278.288
279.088
280.648
283.104
279.832
279.379
278.992
278.69
278.511
278.514
278.805
279.562
281.079
283.664
282.52
282.506
282.532
282.598
282.701
282.839
283.003
283.171
283.294
283.337
281.496
281.453
281.465
281.535
281.667
281.864
282.123
282.435
282.778
283.108
280.93
280.841
280.818
280.869
281.003
281.231
281.56
281.984
282.484
282.998
280.532
280.383
280.307
280.317
280.43
280.667
281.046
281.578
282.251
282.985
280.209
279.999
279.864
279.823
279.9
280.126
280.536
281.159
282.003
282.974
279.995
279.725
279.534
279.44
279.476
279.681
280.107
280.809
281.819
283.036
279.806
279.487
279.248
279.108
279.102
279.28
279.708
280.466
281.624
283.078
279.703
279.347
279.072
278.894
278.851
278.997
279.412
280.199
281.475
283.146
279.632
279.258
278.963
278.762
278.692
278.805
279.192
279.974
281.321
283.191
280.213
279.832
279.522
279.306
279.219
279.317
279.686
280.457
281.812
283.825
282.618
282.608
282.624
282.664
282.725
282.805
282.896
282.98
283.01
282.931
281.752
281.726
281.737
281.788
281.88
282.01
282.173
282.362
282.56
282.742
281.277
281.218
281.209
281.255
281.361
281.529
281.758
282.04
282.352
282.657
280.92
280.814
280.769
280.793
280.897
281.09
281.379
281.758
282.207
282.665
280.614
280.457
280.367
280.359
280.447
280.651
280.985
281.457
282.05
282.684
280.401
280.192
280.057
280.011
280.077
280.281
280.652
281.21
281.952
282.779
280.208
279.954
279.778
279.696
279.736
279.932
280.326
280.955
281.839
282.861
280.096
279.807
279.599
279.486
279.499
279.68
280.082
280.763
281.768
282.978
280.015
279.707
279.48
279.347
279.34
279.503
279.898
280.599
281.691
283.074
280.565
280.249
280.007
279.86
279.839
279.991
280.379
281.09
282.218
283.729
282.627
282.619
282.627
282.649
282.684
282.728
282.776
282.815
282.799
282.656
281.902
281.886
281.894
281.928
281.987
282.068
282.168
282.279
282.393
282.494
281.524
281.484
281.482
281.518
281.595
281.712
281.865
282.046
282.239
282.422
281.221
281.147
281.12
281.147
281.232
281.38
281.588
281.849
282.143
282.433
280.945
280.83
280.772
280.78
280.864
281.032
281.29
281.633
282.041
282.457
280.747
280.589
280.495
280.479
280.554
280.736
281.039
281.464
281.995
282.556
280.558
280.361
280.235
280.192
280.254
280.443
280.78
281.278
281.931
282.645
280.447
280.218
280.063
279.997
280.044
280.23
280.589
281.147
281.911
282.775
280.36
280.112
279.941
279.858
279.891
280.071
280.437
281.029
281.878
282.883
280.882
280.626
280.441
280.346
280.369
280.543
280.912
281.525
282.421
283.528
282.588
282.581
282.584
282.596
282.615
282.638
282.663
282.678
282.641
282.463
281.981
281.97
281.975
281.996
282.032
282.081
282.14
282.204
282.269
282.327
281.691
281.665
281.664
281.69
281.743
281.82
281.919
282.033
282.152
282.264
281.445
281.394
281.378
281.402
281.467
281.574
281.719
281.894
282.085
282.269
281.208
281.126
281.088
281.103
281.174
281.306
281.496
281.738
282.014
282.288
281.033
280.916
280.852
280.852
280.924
281.076
281.311
281.625
281.997
282.377
280.857
280.706
280.618
280.601
280.669
280.835
281.108
281.49
281.961
282.457
280.753
280.575
280.464
280.43
280.491
280.664
280.966
281.405
281.97
282.581
280.665
280.469
280.342
280.296
280.349
280.523
280.842
281.32
281.96
282.678
281.162
280.958
280.82
280.764
280.81
280.984
281.31
281.815
282.5
283.296
282.527
282.521
282.522
282.528
282.538
282.55
282.563
282.565
282.519
282.324
282.013
282.006
282.009
282.021
282.042
282.07
282.105
282.142
282.178
282.212
281.799
281.781
281.781
281.798
281.833
281.883
281.945
282.016
282.089
282.157
281.606
281.571
281.562
281.58
281.627
281.702
281.8
281.915
282.038
282.156
281.411
281.353
281.329
281.344
281.401
281.498
281.635
281.802
281.986
282.167
281.264
281.178
281.136
281.144
281.206
281.326
281.502
281.727
281.984
282.241
281.105
280.993
280.932
280.929
280.993
281.131
281.344
281.626
281.961
282.302
281.015
280.88
280.801
280.787
280.85
281
281.243
281.577
281.986
282.414
280.927
280.776
280.684
280.662
280.722
280.877
281.14
281.512
281.982
282.489
281.401
281.243
281.142
281.112
281.169
281.327
281.601
281.999
282.509
283.072
282.46
282.454
282.454
282.457
282.462
282.469
282.475
282.472
282.424
282.221
282.018
282.013
282.014
282.021
282.033
282.05
282.069
282.09
282.111
282.131
281.865
281.854
281.854
281.865
281.886
281.917
281.956
281.999
282.044
282.086
281.718
281.694
281.689
281.702
281.735
281.784
281.849
281.924
282.003
282.078
281.564
281.524
281.509
281.522
281.563
281.633
281.728
281.841
281.963
282.082
281.445
281.384
281.357
281.367
281.416
281.506
281.634
281.792
281.968
282.14
281.306
281.224
281.182
281.187
281.242
281.35
281.51
281.714
281.948
282.182
281.234
281.133
281.078
281.076
281.134
281.256
281.444
281.692
281.982
282.278
281.148
281.033
280.969
280.961
281.019
281.15
281.357
281.637
281.976
282.328
281.599
281.48
281.408
281.395
281.452
281.587
281.807
282.11
282.481
282.873
282.394
282.389
282.389
282.39
282.393
282.396
282.399
282.394
282.347
282.143
282.009
282.005
282.006
282.009
282.016
282.025
282.036
282.048
282.06
282.072
281.905
281.897
281.897
281.903
281.917
281.935
281.959
281.985
282.013
282.039
281.793
281.777
281.774
281.783
281.804
281.837
281.878
281.926
281.976
282.025
281.676
281.648
281.639
281.649
281.679
281.727
281.791
281.866
281.946
282.024
281.585
281.542
281.524
281.533
281.571
281.636
281.726
281.835
281.953
282.068
281.464
281.405
281.378
281.385
281.429
281.511
281.627
281.771
281.932
282.091
281.413
281.34
281.303
281.306
281.355
281.45
281.59
281.768
281.971
282.174
281.329
281.244
281.2
281.2
281.251
281.355
281.513
281.718
281.956
282.199
281.758
281.67
281.62
281.618
281.669
281.778
281.947
282.172
282.434
282.704
282.333
282.329
282.328
282.329
282.33
282.332
282.333
282.328
282.285
282.083
281.992
281.99
281.99
281.991
281.995
282
282.007
282.014
282.021
282.028
281.927
281.922
281.922
281.926
281.933
281.945
281.959
281.975
281.991
282.008
281.841
281.831
281.828
281.834
281.848
281.869
281.895
281.925
281.957
281.988
281.756
281.738
281.732
281.739
281.759
281.792
281.834
281.883
281.935
281.986
281.689
281.66
281.648
281.656
281.683
281.729
281.79
281.863
281.942
282.019
281.586
281.545
281.527
281.534
281.567
281.627
281.709
281.808
281.917
282.024
281.557
281.505
281.48
281.486
281.524
281.595
281.697
281.822
281.96
282.098
281.473
281.412
281.382
281.386
281.427
281.507
281.623
281.769
281.934
282.099
281.881
281.818
281.783
281.786
281.829
281.913
282.039
282.2
282.382
282.564
282.278
282.274
282.274
282.274
282.275
282.276
282.277
282.272
282.234
282.038
281.972
281.971
281.971
281.972
281.974
281.977
281.98
281.984
281.989
281.993
281.94
281.937
281.937
281.939
281.943
281.95
281.958
281.968
281.978
281.989
281.87
281.863
281.862
281.865
281.874
281.887
281.903
281.922
281.942
281.963
281.813
281.801
281.797
281.802
281.815
281.836
281.864
281.895
281.929
281.962
281.765
281.746
281.738
281.744
281.763
281.794
281.835
281.883
281.934
281.985
281.677
281.649
281.638
281.644
281.668
281.709
281.766
281.833
281.905
281.976
281.671
281.635
281.619
281.624
281.653
281.704
281.775
281.861
281.954
282.045
281.584
281.541
281.521
281.527
281.558
281.617
281.699
281.8
281.912
282.023
281.97
281.926
281.903
281.908
281.941
282.004
282.094
282.207
282.33
282.452
282.23
282.226
282.226
282.226
282.227
282.227
282.228
282.224
282.192
282.006
281.952
281.951
281.951
281.951
281.953
281.954
281.956
281.959
281.961
281.965
281.949
281.947
281.946
281.948
281.95
281.954
281.959
281.964
281.971
281.978
281.886
281.882
281.881
281.883
281.888
281.896
281.906
281.917
281.93
281.944
281.852
281.844
281.842
281.845
281.854
281.867
281.884
281.904
281.925
281.947
281.819
281.806
281.802
281.806
281.819
281.839
281.866
281.897
281.93
281.963
281.744
281.725
281.718
281.723
281.74
281.768
281.805
281.849
281.897
281.944
281.76
281.736
281.725
281.73
281.751
281.787
281.835
281.892
281.953
282.013
281.666
281.637
281.624
281.629
281.652
281.693
281.75
281.818
281.893
281.966
282.031
282.002
281.987
281.992
282.017
282.061
282.124
282.2
282.282
282.361
282.189
282.186
282.186
282.186
282.186
282.187
282.187
282.185
282.159
281.988
281.931
281.931
281.93
281.931
281.931
281.932
281.934
281.935
281.937
281.94
281.956
281.955
281.955
281.955
281.957
281.959
281.962
281.965
281.969
281.974
281.893
281.89
281.89
281.891
281.894
281.899
281.905
281.912
281.919
281.928
281.878
281.873
281.872
281.874
281.879
281.887
281.898
281.91
281.924
281.938
281.856
281.848
281.845
281.848
281.856
281.869
281.886
281.906
281.927
281.948
281.792
281.779
281.775
281.778
281.789
281.808
281.832
281.861
281.891
281.921
281.829
281.813
281.807
281.811
281.825
281.849
281.881
281.918
281.957
281.996
281.723
281.703
281.695
281.699
281.715
281.743
281.781
281.826
281.874
281.922
282.071
282.051
282.042
282.046
282.064
282.095
282.137
282.187
282.24
282.291
282.161
282.158
282.158
282.158
282.158
282.159
282.159
282.157
282.139
281.988
281.909
281.908
281.908
281.908
281.909
281.909
281.91
281.911
281.912
281.914
281.964
281.963
281.963
281.963
281.964
281.965
281.967
281.969
281.972
281.975
281.894
281.893
281.892
281.893
281.895
281.897
281.901
281.905
281.91
281.916
281.894
281.891
281.89
281.891
281.895
281.9
281.906
281.914
281.922
281.931
281.878
281.873
281.872
281.873
281.879
281.887
281.897
281.91
281.923
281.936
281.824
281.816
281.813
281.815
281.823
281.834
281.85
281.867
281.886
281.906
281.88
281.87
281.867
281.87
281.879
281.895
281.915
281.939
281.964
281.988
281.757
281.744
281.739
281.742
281.753
281.771
281.796
281.824
281.855
281.886
282.098
282.086
282.08
282.083
282.095
282.116
282.143
282.175
282.209
282.241
282.158
282.155
282.154
282.154
282.155
282.155
282.155
282.154
282.143
282.019
281.88
281.88
281.88
281.88
281.88
281.88
281.88
281.881
281.882
281.883
281.97
281.97
281.97
281.97
281.971
281.972
281.973
281.974
281.976
281.979
281.892
281.891
281.891
281.891
281.892
281.893
281.895
281.898
281.9
281.904
281.901
281.899
281.899
281.9
281.902
281.905
281.909
281.913
281.918
281.924
281.889
281.886
281.885
281.886
281.889
281.894
281.901
281.908
281.916
281.925
281.843
281.838
281.837
281.838
281.843
281.85
281.859
281.87
281.881
281.894
281.912
281.906
281.903
281.906
281.912
281.922
281.935
281.95
281.966
281.981
281.766
281.758
281.755
281.757
281.764
281.776
281.791
281.809
281.828
281.849
282.128
282.12
282.117
282.119
282.127
282.14
282.158
282.178
282.199
282.219
282.2
282.192
282.192
282.193
282.193
282.194
282.194
282.195
282.191
282.105
281.837
281.837
281.836
281.836
281.836
281.836
281.835
281.835
281.835
281.836
281.969
281.969
281.969
281.969
281.97
281.971
281.972
281.973
281.975
281.977
281.889
281.889
281.888
281.888
281.889
281.89
281.89
281.892
281.893
281.895
281.902
281.901
281.901
281.901
281.902
281.904
281.907
281.91
281.913
281.917
281.89
281.888
281.888
281.888
281.89
281.894
281.898
281.903
281.908
281.913
281.853
281.85
281.849
281.849
281.852
281.857
281.863
281.87
281.876
281.884
281.916
281.911
281.91
281.911
281.916
281.922
281.931
281.942
281.953
281.963
281.744
281.739
281.737
281.739
281.743
281.751
281.761
281.772
281.783
281.797
282.179
282.173
282.171
282.173
282.178
282.187
282.199
282.212
282.226
282.239
282.262
282.263
282.264
282.265
282.267
282.269
282.271
282.275
282.278
282.249
281.776
281.775
281.775
281.774
281.774
281.773
281.771
281.77
281.768
281.765
281.956
281.956
281.956
281.957
281.958
281.959
281.96
281.961
281.963
281.966
281.889
281.888
281.888
281.888
281.888
281.889
281.889
281.89
281.89
281.891
281.9
281.9
281.899
281.9
281.901
281.902
281.904
281.906
281.908
281.911
281.888
281.887
281.886
281.887
281.888
281.891
281.894
281.897
281.901
281.905
281.857
281.855
281.854
281.854
281.857
281.86
281.864
281.869
281.873
281.878
281.892
281.889
281.888
281.889
281.892
281.897
281.904
281.912
281.921
281.93
281.693
281.69
281.688
281.69
281.693
281.699
281.706
281.713
281.72
281.727
282.247
282.241
282.239
282.24
282.244
282.251
282.259
282.27
282.281
282.293
292.077
296.787
297.851
295.453
291.355
296.433
297.739
295.67
291.36
296.73
298.318
297.029
291.336
296.926
298.872
298.517
291.364
297.098
299.364
299.661
291.314
297.024
299.397
299.711
291.211
296.839
299.267
299.673
291.147
296.666
299.157
299.787
290.863
296.292
298.891
299.843
290.681
296.059
298.83
300.217
291.656
293.195
293.439
292.447
291.182
292.928
293.233
292.249
291.367
293.268
293.743
292.885
291.62
293.675
294.358
293.71
291.929
294.113
294.952
294.506
292.472
294.742
295.673
295.383
292.992
295.294
296.266
296.12
293.454
295.735
296.694
296.57
293.63
295.903
296.896
296.872
293.742
296.114
297.287
297.527
287.842
288.534
288.747
288.407
287.253
288.152
288.433
288.052
287.391
288.418
288.78
288.5
287.69
288.848
289.315
289.158
288.053
289.331
289.901
289.837
288.533
289.903
290.529
290.497
289.006
290.448
291.12
291.136
289.485
290.977
291.688
291.779
289.809
291.321
292.082
292.29
290.301
291.789
292.667
293.127
286.041
286.306
286.418
286.375
285.332
285.772
285.938
285.846
285.394
285.922
286.155
286.119
285.633
286.261
286.572
286.594
285.929
286.654
287.037
287.11
286.357
287.171
287.618
287.742
286.798
287.693
288.198
288.377
287.271
288.232
288.791
289.038
287.693
288.69
289.3
289.637
288.488
289.454
290.131
290.657
284.837
284.912
284.978
285.038
284.085
284.309
284.418
284.415
284.102
284.382
284.541
284.581
284.285
284.635
284.85
284.938
284.514
284.935
285.207
285.342
284.864
285.355
285.682
285.866
285.227
285.785
286.166
286.401
285.639
286.258
286.691
286.985
286.023
286.681
287.162
287.532
286.811
287.45
287.982
288.519
284.117
284.099
284.138
284.233
283.34
283.461
283.529
283.545
283.328
283.486
283.589
283.637
283.466
283.671
283.816
283.9
283.644
283.899
284.086
284.209
283.935
284.242
284.473
284.637
284.24
284.598
284.873
285.077
284.595
285.001
285.318
285.567
284.932
285.37
285.722
286.028
285.703
286.127
286.51
286.941
283.653
283.588
283.611
283.721
282.87
282.938
282.98
282.996
282.843
282.936
283.001
283.04
282.943
283.068
283.163
283.228
283.078
283.237
283.363
283.458
283.316
283.511
283.671
283.796
283.564
283.796
283.987
284.144
283.862
284.128
284.352
284.54
284.142
284.43
284.679
284.908
284.87
285.153
285.421
285.736
283.345
283.254
283.267
283.384
282.57
282.609
282.635
282.646
282.533
282.589
282.631
282.657
282.603
282.68
282.742
282.788
282.702
282.803
282.887
282.954
282.893
283.02
283.128
283.217
283.09
283.242
283.374
283.485
283.337
283.513
283.666
283.801
283.56
283.75
283.92
284.081
284.24
284.429
284.612
284.829
283.129
283.022
283.029
283.152
282.374
282.398
282.413
282.42
282.331
282.365
282.392
282.409
282.376
282.425
282.465
282.495
282.445
282.511
282.566
282.611
282.596
282.68
282.752
282.813
282.747
282.848
282.937
283.014
282.948
283.065
283.169
283.262
283.116
283.243
283.359
283.468
283.748
283.874
283.998
284.143
282.968
282.85
282.855
282.981
282.243
282.257
282.266
282.271
282.199
282.221
282.237
282.248
282.224
282.256
282.282
282.301
282.269
282.312
282.349
282.379
282.385
282.441
282.489
282.53
282.495
282.563
282.623
282.676
282.657
282.736
282.807
282.87
282.779
282.864
282.942
283.015
283.361
283.446
283.529
283.625
282.842
282.717
282.72
282.85
282.152
282.161
282.167
282.169
282.113
282.127
282.137
282.143
282.123
282.143
282.16
282.172
282.15
282.178
282.202
282.221
282.237
282.274
282.306
282.333
282.311
282.357
282.398
282.433
282.442
282.495
282.542
282.585
282.523
282.581
282.633
282.682
283.057
283.114
283.169
283.233
282.739
282.608
282.609
282.743
282.088
282.094
282.097
282.098
282.057
282.065
282.072
282.075
282.055
282.068
282.079
282.086
282.07
282.089
282.104
282.116
282.133
282.158
282.18
282.197
282.179
282.21
282.237
282.26
282.284
282.32
282.352
282.38
282.331
282.37
282.405
282.437
282.819
282.857
282.894
282.936
282.649
282.515
282.516
282.652
282.04
282.044
282.046
282.046
282.02
282.026
282.03
282.032
282.009
282.018
282.024
282.029
282.017
282.03
282.04
282.047
282.063
282.08
282.094
282.105
282.084
282.105
282.123
282.138
282.173
282.197
282.218
282.236
282.189
282.216
282.239
282.26
282.635
282.66
282.685
282.712
282.569
282.434
282.434
282.571
282.004
282.007
282.008
282.007
281.997
282.001
282.003
282.004
281.977
281.983
281.987
281.989
281.983
281.992
281.998
282.002
282.015
282.027
282.036
282.043
282.018
282.032
282.044
282.053
282.097
282.113
282.127
282.139
282.085
282.104
282.119
282.132
282.492
282.509
282.525
282.543
282.496
282.361
282.361
282.496
281.974
281.976
281.977
281.976
281.984
281.987
281.988
281.988
281.954
281.958
281.961
281.962
281.962
281.968
281.972
281.974
281.984
281.992
281.997
282.001
281.972
281.982
281.99
281.995
282.048
282.059
282.068
282.075
282.01
282.022
282.032
282.04
282.383
282.394
282.404
282.416
282.426
282.296
282.296
282.427
281.947
281.949
281.949
281.948
281.979
281.981
281.981
281.981
281.936
281.939
281.941
281.941
281.948
281.952
281.955
281.956
281.963
281.968
281.972
281.974
281.941
281.948
281.953
281.956
282.019
282.027
282.033
282.037
281.954
281.963
281.969
281.973
282.3
282.307
282.314
282.321
282.363
282.243
282.243
282.364
281.92
281.922
281.922
281.921
281.979
281.98
281.981
281.98
281.922
281.924
281.925
281.924
281.939
281.942
281.943
281.943
281.947
281.951
281.953
281.954
281.92
281.924
281.927
281.929
282.004
282.009
282.013
282.015
281.91
281.917
281.921
281.922
282.243
282.248
282.252
282.256
282.317
282.214
282.214
282.318
281.888
281.89
281.89
281.889
281.982
281.983
281.983
281.982
281.909
281.91
281.911
281.91
281.93
281.933
281.933
281.933
281.933
281.936
281.937
281.937
281.903
281.907
281.908
281.909
281.993
281.997
281.999
282
281.868
281.873
281.875
281.875
282.218
282.221
282.224
282.226
282.308
282.232
282.232
282.308
281.84
281.841
281.841
281.84
281.98
281.981
281.982
281.981
281.898
281.9
281.9
281.899
281.922
281.923
281.924
281.923
281.92
281.922
281.922
281.922
281.89
281.892
281.893
281.894
281.974
281.976
281.978
281.978
281.812
281.816
281.818
281.817
282.239
282.24
282.242
282.244
282.335
282.302
282.302
282.335
281.766
281.766
281.766
281.767
281.969
281.97
281.971
281.969
281.893
281.893
281.894
281.893
281.915
281.916
281.916
281.916
281.909
281.911
281.912
281.911
281.882
281.883
281.884
281.884
281.943
281.946
281.947
281.946
281.734
281.737
281.738
281.738
282.296
282.298
282.299
282.3
287.293
284.283
282.9
282.081
281.428
280.831
280.277
279.777
279.311
278.867
287.594
285.165
283.577
282.421
281.477
280.7
280.018
279.401
278.825
278.276
288.824
286.218
284.179
282.87
281.789
280.904
280.131
279.433
278.792
278.198
290.282
287.315
285.112
283.644
282.441
281.449
280.575
279.781
279.047
278.374
291.585
288.367
286.012
284.38
283.065
281.971
281.004
280.125
279.308
278.57
293.228
289.461
286.95
285.153
283.726
282.531
281.477
280.516
279.623
278.823
294.797
290.421
287.759
285.799
284.269
282.98
281.847
280.817
279.861
279.019
296.245
291.333
288.525
286.413
284.785
283.408
282.205
281.114
280.105
279.218
297.428
292.106
289.178
286.935
285.21
283.738
282.458
281.308
280.259
279.338
298.875
293.4
290.419
288.106
286.29
284.743
283.4
282.19
281.092
280.119
288.544
286.123
284.549
283.376
282.486
281.793
281.239
280.787
280.417
280.119
288.396
285.888
284.099
282.792
281.811
281.05
280.429
279.905
279.456
279.065
288.695
286.021
284.036
282.685
281.658
280.846
280.168
279.587
279.08
278.639
289.262
286.48
284.394
282.989
281.888
281.001
280.246
279.588
279.004
278.494
289.87
287.021
284.835
283.336
282.15
281.183
280.354
279.626
278.976
278.41
290.7
287.694
285.38
283.76
282.483
281.435
280.537
279.745
279.036
278.418
291.568
288.282
285.84
284.086
282.728
281.607
280.651
279.809
279.056
278.406
292.57
288.824
286.297
284.406
282.985
281.801
280.8
279.919
279.133
278.454
293.482
289.22
286.691
284.671
283.204
281.957
280.915
279.999
279.195
278.495
294.844
290.072
287.702
285.602
284.103
282.808
281.729
280.777
279.945
279.216
286.743
285.6
284.673
283.876
283.192
282.614
282.133
281.738
281.424
281.186
286.784
285.406
284.228
283.244
282.425
281.747
281.181
280.708
280.314
279.987
287.091
285.536
284.176
283.087
282.191
281.45
280.825
280.292
279.835
279.447
287.623
285.955
284.463
283.286
282.31
281.495
280.797
280.19
279.657
279.198
288.183
286.452
284.831
283.556
282.495
281.603
280.832
280.155
279.555
279.036
288.954
287.078
285.318
283.927
282.775
281.803
280.961
280.22
279.558
278.983
289.771
287.647
285.748
284.228
282.991
281.944
281.042
280.247
279.538
278.925
290.687
288.175
286.173
284.524
283.218
282.107
281.158
280.323
279.579
278.934
291.544
288.538
286.514
284.737
283.381
282.213
281.227
280.362
279.602
278.936
292.833
289.314
287.434
285.577
284.199
282.996
281.984
281.093
280.312
279.624
285.334
284.885
284.389
283.881
283.404
282.982
282.62
282.32
282.084
281.912
285.418
284.705
283.966
283.276
282.66
282.125
281.668
281.282
280.963
280.708
285.684
284.838
283.944
283.136
282.426
281.813
281.283
280.828
280.442
280.118
286.171
285.223
284.202
283.293
282.493
281.798
281.19
280.659
280.196
279.8
286.702
285.676
284.535
283.522
282.632
281.855
281.171
280.569
280.036
279.578
287.394
286.257
284.988
283.86
282.874
282.014
281.257
280.587
279.99
279.474
288.116
286.799
285.4
284.146
283.069
282.13
281.308
280.582
279.934
279.375
288.931
287.318
285.813
284.43
283.278
282.272
281.4
280.63
279.945
279.351
289.721
287.689
286.146
284.634
283.425
282.361
281.45
280.651
279.947
279.332
290.953
288.48
287.034
285.438
284.204
283.106
282.173
281.35
280.627
279.991
284.216
284.126
283.908
283.627
283.337
283.065
282.824
282.62
282.458
282.344
284.274
283.937
283.521
283.089
282.673
282.291
281.953
281.662
281.422
281.232
284.481
284.067
283.538
282.997
282.482
282.013
281.594
281.229
280.918
280.66
284.892
284.418
283.786
283.144
282.534
281.977
281.476
281.032
280.645
280.317
285.357
284.829
284.097
283.353
282.65
282.008
281.428
280.911
280.454
280.062
285.967
285.362
284.523
283.669
282.87
282.141
281.486
280.898
280.375
279.923
286.601
285.87
284.919
283.945
283.052
282.243
281.518
280.871
280.294
279.796
287.31
286.368
285.319
284.224
283.251
282.371
281.593
280.9
280.283
279.748
287.997
286.737
285.642
284.421
283.386
282.449
281.631
280.907
280.269
279.711
289.133
287.543
286.496
285.194
284.131
283.16
282.319
281.574
280.918
280.339
283.491
283.567
283.493
283.347
283.18
283.017
282.867
282.737
282.635
282.565
283.498
283.337
283.11
282.852
282.587
282.332
282.099
281.893
281.723
281.589
283.634
283.439
283.138
282.793
282.44
282.101
281.789
281.512
281.274
281.077
283.954
283.732
283.36
282.928
282.487
282.063
281.67
281.316
281.005
280.742
284.33
284.084
283.639
283.119
282.589
282.082
281.61
281.182
280.803
280.478
284.838
284.554
284.028
283.411
282.791
282.199
281.65
281.152
280.706
280.322
285.367
285.011
284.396
283.674
282.963
282.289
281.67
281.111
280.61
280.178
285.96
285.471
284.776
283.945
283.153
282.409
281.734
281.127
280.583
280.112
286.529
285.823
285.077
284.134
283.28
282.479
281.763
281.123
280.556
280.062
287.558
286.63
285.898
284.881
283.995
283.161
282.422
281.761
281.175
280.659
283.016
283.169
283.166
283.096
283.006
282.912
282.824
282.747
282.686
282.645
282.979
282.902
282.781
282.632
282.471
282.309
282.156
282.019
281.904
281.813
283.059
282.968
282.8
282.588
282.357
282.124
281.903
281.702
281.528
281.383
283.293
283.197
282.984
282.705
282.399
282.09
281.795
281.523
281.283
281.08
283.58
283.482
283.22
282.871
282.488
282.102
281.732
281.391
281.086
280.826
283.987
283.879
283.562
283.135
282.671
282.206
281.763
281.353
280.985
280.667
284.411
284.271
283.891
283.376
282.829
282.287
281.775
281.305
280.881
280.516
284.891
284.679
284.237
283.631
283.009
282.4
281.832
281.313
280.846
280.441
285.341
284.996
284.507
283.809
283.127
282.464
281.854
281.302
280.81
280.381
286.261
285.786
285.291
284.528
283.813
283.116
282.483
281.91
281.4
280.95
282.703
282.891
282.923
282.893
282.845
282.793
282.744
282.7
282.665
282.643
282.638
282.601
282.537
282.454
282.358
282.259
282.163
282.076
282.001
281.942
282.676
282.634
282.541
282.413
282.266
282.113
281.962
281.822
281.7
281.598
282.84
282.802
282.681
282.506
282.3
282.084
281.87
281.669
281.49
281.338
283.051
283.02
282.87
282.642
282.373
282.09
281.811
281.548
281.31
281.107
283.368
283.344
283.159
282.871
282.534
282.182
281.835
281.509
281.213
280.957
283.696
283.666
283.438
283.082
282.674
282.252
281.841
281.457
281.108
280.808
284.075
284.014
283.743
283.315
282.842
282.358
281.893
281.462
281.07
280.732
284.416
284.284
283.975
283.475
282.948
282.414
281.91
281.445
281.028
280.666
285.238
285.038
284.716
284.164
283.604
283.039
282.511
282.026
281.59
281.207
282.489
282.694
282.74
282.731
282.706
282.679
282.651
282.627
282.608
282.597
282.414
282.396
282.362
282.316
282.261
282.202
282.144
282.09
282.043
282.006
282.423
282.403
282.352
282.277
282.186
282.087
281.988
281.894
281.811
281.741
282.533
282.519
282.452
282.343
282.209
282.062
281.912
281.769
281.639
281.529
282.681
282.679
282.594
282.448
282.265
282.063
281.858
281.662
281.483
281.329
282.923
282.933
282.828
282.639
282.401
282.142
281.878
281.626
281.395
281.195
283.168
283.186
283.054
282.814
282.518
282.198
281.878
281.573
281.295
281.054
283.464
283.475
283.314
283.02
282.67
282.297
281.927
281.578
281.26
280.983
283.712
283.694
283.505
283.158
282.762
282.344
281.938
281.557
281.213
280.913
284.449
284.4
284.198
283.811
283.385
282.939