/*--------------------------------*- C++ -*----------------------------------*\
| =========                 |                                                 |
| \\      /  F ield         | foam-extend: Open Source CFD                    |
|  \\    /   O peration     | Version:     4.0                                |
|   \\  /    A nd           | Web:         http://www.foam-extend.org         |
|    \\/     M anipulation  |                                                 |
\*---------------------------------------------------------------------------*/
FoamFile
{
    version     2.0;
    format      ascii;
    class       volVectorField;
    location    "1000";
    object      Urel;
}
// * * * * * * * * * * * * * * * * * * * * * * * * * * * * * * * * * * * * * //

dimensions      [0 1 -1 0 0 0 0];

internalField   nonuniform List<vector> 
34480
(
(210.826 -5.16443 -19.8699)
(212.447 -5.94684 -24.4523)
(213.88 -6.49619 -29.7136)
(215.136 -6.80653 -35.9315)
(216.191 -6.87291 -43.5075)
(216.814 -6.67941 -52.9232)
(216.142 -6.19603 -64.5293)
(211.865 -5.48711 -78.8241)
(199.103 -4.87948 -98.3514)
(167.157 -4.33621 -119.104)
(212.835 -5.4848 -26.8309)
(214.764 -5.15226 -30.8992)
(216.472 -4.78955 -35.3616)
(217.949 -4.37251 -40.49)
(219.276 -3.91246 -46.7536)
(220.428 -3.43935 -54.8494)
(220.885 -2.95921 -65.5702)
(218.882 -2.4871 -79.7538)
(209.88 -2.34597 -101.122)
(179.627 -2.77162 -129.655)
(213.949 -10.0191 -31.8661)
(216.147 -8.99339 -35.7086)
(218.173 -8.00485 -39.8356)
(220.033 -7.03122 -44.5137)
(221.799 -6.07249 -50.1777)
(223.553 -5.17255 -57.6362)
(224.985 -4.3561 -67.9772)
(224.613 -3.6147 -82.3548)
(218.347 -3.24596 -105.209)
(189.751 -3.58277 -140.204)
(214.186 -13.7204 -37.3992)
(216.861 -12.2312 -41.2973)
(219.397 -10.7957 -45.4612)
(221.807 -9.38289 -50.1196)
(224.116 -8.00104 -55.6663)
(226.415 -6.69555 -62.8988)
(228.53 -5.50431 -73.0569)
(229.258 -4.4253 -87.6312)
(224.935 -3.77492 -111.608)
(197.413 -3.98875 -151.41)
(214.351 -18.3945 -42.8762)
(217.449 -16.6303 -46.8916)
(220.425 -14.9213 -51.218)
(223.31 -13.2116 -55.9953)
(226.106 -11.5334 -61.6216)
(228.887 -9.93413 -68.8402)
(231.552 -8.46685 -78.9718)
(233.137 -7.13638 -93.8347)
(230.32 -6.28553 -118.883)
(203.412 -6.47469 -162.516)
(214.159 -22.0969 -49.4113)
(217.581 -20.0397 -53.5255)
(220.878 -18.0397 -57.967)
(224.111 -16.0095 -62.8298)
(227.278 -13.9877 -68.5233)
(230.435 -12.0117 -75.738)
(233.522 -10.1389 -85.8282)
(235.778 -8.39073 -100.923)
(234.131 -7.17812 -126.956)
(207.447 -7.22773 -173.834)
(214.13 -27.0986 -55.753)
(217.76 -24.8481 -59.9991)
(221.242 -22.6271 -64.6089)
(224.672 -20.3363 -69.6045)
(228.054 -18.032 -75.4069)
(231.448 -15.7388 -82.6488)
(234.839 -13.4987 -92.6906)
(237.687 -11.3031 -107.956)
(237.156 -9.52939 -134.86)
(210.838 -8.97833 -184.503)
(213.871 -30.8464 -63.3822)
(217.585 -28.3229 -67.6717)
(221.119 -25.7906 -72.3179)
(224.593 -23.1569 -77.3359)
(228.018 -20.4719 -83.1209)
(231.459 -17.7383 -90.2448)
(234.969 -14.9533 -100.02)
(238.282 -12.0731 -115.089)
(238.915 -9.46204 -142.395)
(213.401 -7.9957 -194.175)
(213.913 -36.7466 -70.2962)
(217.632 -33.9909 -74.6294)
(221.161 -31.1356 -79.3611)
(224.644 -28.1405 -84.4911)
(228.084 -25.0773 -90.4174)
(231.528 -21.9377 -97.6192)
(235.05 -18.6655 -107.297)
(238.667 -15.1169 -122.126)
(240.393 -11.3987 -149.703)
(215.788 -8.28191 -202.907)
(212.851 -41.1503 -78.2585)
(216.579 -38.0823 -82.4476)
(220.123 -34.9009 -87.0613)
(223.604 -31.5543 -92.1067)
(226.974 -28.056 -97.9593)
(230.246 -24.3677 -105.063)
(233.525 -20.3927 -114.501)
(237.148 -15.932 -128.636)
(240.083 -11.0325 -155.646)
(217.436 -6.2608 -209.087)
(203.071 6.10878 1.63479)
(204.009 4.57664 -1.76949)
(204.452 3.2301 -5.65722)
(204.286 2.09904 -10.0848)
(203.323 1.17986 -15.2093)
(201.236 0.483781 -21.1549)
(197.52 0.00856076 -27.9727)
(191.522 -0.27236 -35.4742)
(181.8 -0.420926 -42.6976)
(163.234 -0.563264 -45.244)
(206.937 9.55363 1.70371)
(208.329 8.61719 -1.29015)
(209.306 7.66028 -4.67326)
(209.716 6.73813 -8.50256)
(209.42 5.85304 -12.9745)
(208.134 4.9873 -18.3807)
(205.249 4.12085 -25.1111)
(199.847 3.2471 -33.4311)
(190.485 2.33292 -43.2816)
(170.746 1.25423 -50.3194)
(209.184 9.09519 3.79704)
(210.927 8.39504 1.05794)
(212.328 7.61752 -2.00755)
(213.286 6.78711 -5.57051)
(213.665 5.93205 -9.79154)
(213.241 5.03025 -15.0585)
(211.428 4.05468 -21.9765)
(207.087 2.98662 -31.2144)
(198.567 1.79306 -43.5827)
(177.955 0.382412 -55.6842)
(210.155 9.44014 5.54792)
(212.389 8.80557 2.89861)
(214.335 8.07075 -0.0904204)
(215.922 7.25562 -3.61898)
(216.988 6.38565 -7.85146)
(217.319 5.44414 -13.186)
(216.367 4.40414 -20.3357)
(212.927 3.23754 -30.301)
(205.203 1.87808 -44.7473)
(183.871 0.233346 -61.7711)
(210.798 8.80557 7.4557)
(213.467 8.06998 4.85969)
(215.888 7.22464 1.84794)
(218.007 6.3116 -1.71401)
(219.669 5.331 -6.05169)
(220.649 4.26933 -11.5318)
(220.433 3.08854 -18.9373)
(217.814 1.75848 -29.5581)
(210.864 0.200472 -45.8219)
(188.899 -1.64952 -67.593)
(210.949 9.17969 8.34338)
(213.966 8.3625 5.83626)
(216.753 7.41948 2.86949)
(219.278 6.42575 -0.654278)
(221.408 5.37316 -5.01591)
(222.913 4.26317 -10.5579)
(223.307 3.05752 -18.1054)
(221.414 1.72272 -29.1968)
(215.174 0.137322 -46.8857)
(192.513 -1.79847 -72.8737)
(211.16 8.22015 9.47487)
(214.419 7.22548 7.03192)
(217.443 6.12324 4.06459)
(220.233 5.00515 0.544345)
(222.684 3.8419 -3.85494)
(224.577 2.64676 -9.45107)
(225.474 1.38452 -17.0923)
(224.284 0.0399229 -28.553)
(218.836 -1.47458 -47.4738)
(195.71 -3.29666 -77.4366)
(211.063 8.53923 9.3315)
(214.446 7.43782 7.04927)
(217.586 6.25562 4.23032)
(220.509 5.08508 0.844872)
(223.133 3.89988 -3.43306)
(225.264 2.72676 -8.90586)
(226.53 1.56128 -16.4093)
(225.986 0.418325 -27.8905)
(221.491 -0.789297 -47.5928)
(198.398 -2.41469 -81.0732)
(211.125 6.70418 9.88771)
(214.535 5.43155 7.77857)
(217.71 4.16442 5.08279)
(220.711 2.95144 1.78891)
(223.477 1.74704 -2.47525)
(225.826 0.577349 -7.9855)
(227.404 -0.532138 -15.5295)
(227.419 -1.5029 -27.0112)
(223.921 -2.21514 -47.4186)
(201.06 -3.24255 -83.932)
(210.17 6.49529 9.3129)
(213.589 5.1049 7.49401)
(216.805 3.75363 5.11098)
(219.845 2.46301 2.10485)
(222.634 1.24517 -1.87491)
(225.006 0.147942 -7.13833)
(226.681 -0.759383 -14.4927)
(227.047 -1.32105 -25.5617)
(224.702 -1.36781 -46.1251)
(202.88 -1.24196 -84.5824)
(197.318 4.87295 0.513354)
(197.819 3.70469 -2.14412)
(197.8 2.68547 -5.06636)
(197.182 1.83004 -8.26324)
(195.832 1.1539 -11.6941)
(193.573 0.665592 -15.2578)
(190.186 0.350032 -18.7563)
(185.434 0.154111 -21.8655)
(178.963 -0.000866256 -23.8487)
(170.093 -0.220707 -22.9362)
(202.063 8.16867 0.508652)
(203.002 7.40071 -2.02997)
(203.467 6.60015 -4.84283)
(203.326 5.81546 -7.93655)
(202.41 5.05674 -11.3515)
(200.454 4.32143 -15.0749)
(197.079 3.5987 -19.0347)
(191.776 2.8728 -23.0106)
(183.842 2.12837 -26.3369)
(172.274 1.32874 -27.018)
(205.009 7.92652 2.44046)
(206.332 7.30907 -0.023743)
(207.229 6.60749 -2.77097)
(207.582 5.85447 -5.8797)
(207.226 5.07184 -9.41341)
(205.868 4.24772 -13.4792)
(203 3.36869 -18.1526)
(197.85 2.42103 -23.3569)
(189.327 1.39244 -28.569)
(175.455 0.256196 -31.6802)
(206.561 8.38249 4.06274)
(208.358 7.81025 1.60742)
(209.776 7.13464 -1.15471)
(210.712 6.374 -4.37962)
(210.967 5.55875 -8.1213)
(210.234 4.67324 -12.5623)
(207.913 3.70413 -17.8894)
(203.014 2.63555 -24.2036)
(194.089 1.44538 -31.2277)
(178.112 0.10734 -37.0891)
(207.637 7.80776 5.94607)
(209.862 7.13707 3.49023)
(211.747 6.35948 0.649743)
(213.201 5.50467 -2.70697)
(214.016 4.58519 -6.68592)
(213.869 3.58353 -11.4934)
(212.106 2.47556 -17.4188)
(207.558 1.24018 -24.7685)
(198.435 -0.146572 -33.5567)
(180.617 -1.67802 -42.4647)
(208.124 8.26572 6.85687)
(210.706 7.52144 4.45749)
(212.969 6.65648 1.62677)
(214.84 5.72684 -1.75062)
(216.122 4.73936 -5.84439)
(216.48 3.68817 -10.874)
(215.229 2.54672 -17.2183)
(211.075 1.28759 -25.4015)
(201.9 -0.141819 -35.7413)
(182.498 -1.76152 -47.7247)
(208.586 7.33698 8.07683)
(211.426 6.42887 5.72023)
(213.956 5.42121 2.86464)
(216.124 4.38383 -0.548389)
(217.756 3.30401 -4.74816)
(218.524 2.18439 -9.96024)
(217.74 0.998074 -16.6407)
(214.05 -0.277373 -25.551)
(205.026 -1.67541 -37.3561)
(184.359 -3.22623 -52.5261)
(208.677 7.71748 8.03203)
(211.668 6.71001 5.82444)
(214.352 5.62947 3.10825)
(216.702 4.55003 -0.184287)
(218.571 3.46147 -4.30492)
(219.646 2.37662 -9.4891)
(219.272 1.28765 -16.2433)
(216.098 0.190333 -25.5467)
(207.47 -0.951797 -38.4798)
(185.951 -2.39461 -56.6224)
(208.848 5.91544 8.67375)
(211.881 4.73215 6.61727)
(214.621 3.55896 4.01271)
(217.069 2.43357 0.817011)
(219.117 1.33409 -3.28229)
(220.471 0.275979 -8.53861)
(220.502 -0.71931 -15.4853)
(217.885 -1.6151 -25.1572)
(209.793 -2.30253 -39.1818)
(187.52 -3.30702 -59.8699)
(208.066 5.87882 8.15142)
(211.108 4.56175 6.3388)
(213.891 3.30398 4.02442)
(216.383 2.09955 1.10088)
(218.466 0.980867 -2.71857)
(219.871 -0.00949371 -7.70887)
(220.108 -0.803243 -14.4803)
(217.983 -1.29057 -24.0374)
(210.666 -1.30754 -38.7191)
(188.085 -1.20723 -60.8151)
(193.226 3.79894 -0.0525383)
(193.464 2.9863 -1.92283)
(193.263 2.27287 -3.91647)
(192.58 1.67233 -6.00386)
(191.357 1.19915 -8.09774)
(189.537 0.855832 -10.0747)
(187.094 0.626983 -11.7507)
(184.091 0.462699 -12.8828)
(180.662 0.283441 -13.0631)
(176.749 0.00337905 -11.7026)
(198.101 6.78027 -0.2204)
(198.69 6.20518 -2.21325)
(198.822 5.58654 -4.34915)
(198.408 4.96091 -6.62795)
(197.331 4.34743 -9.00524)
(195.446 3.75003 -11.3706)
(192.584 3.1625 -13.5401)
(188.604 2.57323 -15.2159)
(183.418 1.97753 -15.8317)
(177.163 1.38623 -14.6374)
(201.363 6.72707 1.41801)
(202.314 6.21583 -0.671619)
(202.819 5.61632 -2.96988)
(202.77 4.96579 -5.48812)
(202.028 4.28244 -8.22537)
(200.383 3.56363 -11.139)
(197.544 2.80227 -14.0959)
(193.169 1.9891 -16.7877)
(186.93 1.11927 -18.5001)
(178.691 0.206117 -18.134)
(203.291 7.3045 2.80929)
(204.677 6.8135 0.637731)
(205.638 6.21509 -1.78509)
(206.062 5.53416 -4.54416)
(205.768 4.79721 -7.63907)
(204.489 3.99726 -11.0934)
(201.813 3.13026 -14.8272)
(197.191 2.18739 -18.5639)
(190.015 1.15843 -21.5009)
(179.762 0.0560971 -22.3284)
(204.695 6.79373 4.58789)
(206.486 6.20026 2.34943)
(207.876 5.50182 -0.219507)
(208.758 4.72416 -3.21942)
(208.917 3.88504 -6.66643)
(208.047 2.96898 -10.6387)
(205.633 1.96576 -15.123)
(200.917 0.86265 -19.9214)
(192.986 -0.352492 -24.2001)
(180.835 -1.64231 -26.6362)
(205.464 7.33501 5.45913)
(207.606 6.67226 3.23165)
(209.362 5.89411 0.624657)
(210.635 5.04431 -2.47222)
(211.201 4.1393 -6.1266)
(210.722 3.16972 -10.4516)
(208.598 2.12262 -15.5097)
(203.889 0.980201 -21.2169)
(195.347 -0.289324 -26.7562)
(181.434 -1.67265 -30.9685)
(206.148 6.43806 6.72106)
(208.555 5.62004 4.50349)
(210.585 4.71063 1.83502)
(212.157 3.76272 -1.35409)
(213.056 2.77677 -5.193)
(212.925 1.74804 -9.82008)
(211.112 0.661371 -15.3796)
(206.527 -0.500768 -21.9408)
(197.583 -1.76448 -28.775)
(182.13 -3.11711 -35.0434)
(206.413 6.8965 6.7394)
(208.989 5.98531 4.64959)
(211.194 5.0068 2.09886)
(212.972 4.02005 -1.002)
(214.123 3.02982 -4.81651)
(214.291 2.03871 -9.51235)
(212.802 1.04257 -15.3055)
(208.466 0.0327419 -22.4406)
(199.379 -1.02384 -30.3728)
(182.693 -2.31535 -38.7024)
(206.674 5.14032 7.49088)
(209.311 4.05473 5.52612)
(211.59 2.97832 3.0612)
(213.477 1.94071 0.0402607)
(214.808 0.93998 -3.76306)
(215.249 -0.0148331 -8.55751)
(214.127 -0.898052 -14.6373)
(210.177 -1.69223 -22.3591)
(201.183 -2.33419 -31.4804)
(183.342 -3.26376 -41.7084)
(206.01 5.27494 7.02278)
(208.663 4.05276 5.26826)
(211 2.89907 3.06831)
(212.948 1.79226 0.294618)
(214.345 0.78146 -3.25304)
(214.87 -0.0985877 -7.79675)
(213.943 -0.775381 -13.7173)
(210.367 -1.16569 -21.4954)
(201.799 -1.14324 -31.4843)
(183.11 -1.05738 -42.7447)
(190.696 2.88601 -0.285667)
(190.811 2.35764 -1.50729)
(190.61 1.88476 -2.78096)
(190.078 1.48143 -4.06242)
(189.201 1.15765 -5.27558)
(187.978 0.91387 -6.32813)
(186.448 0.739346 -7.0998)
(184.744 0.594252 -7.47393)
(183.147 0.411021 -7.27972)
(181.83 0.109361 -6.32646)
(195.144 5.48311 -0.599306)
(195.506 5.08981 -2.06382)
(195.488 4.64293 -3.57902)
(195.041 4.17158 -5.14019)
(194.105 3.69865 -6.68036)
(192.622 3.23181 -8.08981)
(190.545 2.77088 -9.21043)
(187.886 2.31037 -9.83411)
(184.752 1.85335 -9.65637)
(181.472 1.42388 -8.45134)
(198.337 5.55837 0.718531)
(199.005 5.15863 -0.960912)
(199.265 4.67124 -2.77325)
(199.039 4.13282 -4.69441)
(198.232 3.56074 -6.68569)
(196.727 2.95834 -8.65037)
(194.395 2.32306 -10.422)
(191.141 1.65082 -11.7266)
(186.978 0.943459 -12.0905)
(182.262 0.228279 -11.0371)
(200.404 6.24623 1.82919)
(201.447 5.84594 -0.00677917)
(202.074 5.33825 -2.02779)
(202.184 4.75147 -4.26438)
(201.642 4.11015 -6.67814)
(200.264 3.41461 -9.20633)
(197.817 2.66622 -11.682)
(194.062 1.86235 -13.784)
(188.861 1.00095 -14.8587)
(182.544 0.113204 -14.1935)
(201.991 5.79441 3.447)
(203.402 5.28704 1.48286)
(204.396 4.67698 -0.749942)
(204.87 3.9913 -3.30156)
(204.644 3.24704 -6.13936)
(203.481 2.43572 -9.24219)
(201.042 1.55523 -12.4628)
(196.921 0.59927 -15.4695)
(190.769 -0.438305 -17.4429)
(182.818 -1.50737 -17.5129)
(202.947 6.41403 4.2281)
(204.69 5.84066 2.22721)
(206.017 5.15654 -0.0907533)
(206.828 4.39965 -2.8099)
(206.914 3.59082 -5.92199)
(205.994 2.72232 -9.44758)
(203.63 1.7902 -13.2769)
(199.245 0.782819 -17.1035)
(192.233 -0.322253 -19.9718)
(182.671 -1.49503 -20.9415)
(203.791 5.5489 5.48844)
(205.798 4.8269 3.4596)
(207.389 4.01955 1.03945)
(208.476 3.1697 -1.8307)
(208.839 2.28627 -5.19516)
(208.166 1.36313 -9.10544)
(205.936 0.393355 -13.5094)
(201.412 -0.636972 -18.1663)
(193.695 -1.75229 -22.039)
(182.627 -2.91879 -24.2103)
(204.194 6.09319 5.53399)
(206.379 5.28519 3.60459)
(208.154 4.41283 1.27207)
(209.445 3.52581 -1.55163)
(210.04 2.63894 -4.94736)
(209.606 1.75179 -9.00444)
(207.569 0.862936 -13.7339)
(203.053 -0.0408489 -18.9991)
(194.851 -0.994803 -23.7641)
(182.464 -2.12429 -27.2131)
(204.546 4.38169 6.3829)
(206.807 3.40413 4.54809)
(208.668 2.43192 2.26601)
(210.072 1.49188 -0.511504)
(210.83 0.594826 -3.92615)
(210.618 -0.251467 -8.11258)
(208.842 -1.02291 -13.1773)
(204.507 -1.71637 -19.0915)
(196.064 -2.29855 -24.9303)
(182.431 -3.10904 -29.7029)
(203.979 4.68752 5.94286)
(206.267 3.57783 4.29137)
(208.195 2.53811 2.24626)
(209.669 1.54202 -0.315947)
(210.505 0.648159 -3.51659)
(210.383 -0.113339 -7.50526)
(208.751 -0.673613 -12.4612)
(204.613 -0.969151 -18.4768)
(196.266 -0.916097 -25.095)
(181.641 -0.838022 -30.56)
(189.322 2.13535 -0.333798)
(189.384 1.80987 -1.08517)
(189.237 1.50987 -1.85829)
(188.88 1.24831 -2.61039)
(188.319 1.03074 -3.29069)
(187.569 0.857322 -3.8419)
(186.68 0.722634 -4.1932)
(185.777 0.597153 -4.30219)
(185.151 0.426354 -4.09128)
(185.085 0.124136 -3.52554)
(193.082 4.33829 -0.745232)
(193.3 4.09608 -1.76298)
(193.234 3.795 -2.7783)
(192.858 3.45805 -3.78716)
(192.151 3.10794 -4.73012)
(191.102 2.75436 -5.52732)
(189.72 2.40227 -6.07516)
(188.056 2.0521 -6.25579)
(186.224 1.71196 -5.92277)
(184.458 1.40503 -5.04277)
(195.954 4.46876 0.28089)
(196.412 4.17357 -1.00344)
(196.529 3.79559 -2.36054)
(196.258 3.3672 -3.75576)
(195.545 2.90491 -5.13875)
(194.339 2.41519 -6.41231)
(192.604 1.89931 -7.43925)
(190.356 1.35811 -8.03398)
(187.706 0.798967 -7.93846)
(184.973 0.249382 -6.97734)
(197.968 5.24212 1.10243)
(198.733 4.93356 -0.383586)
(199.123 4.52201 -1.99153)
(199.062 4.0353 -3.72146)
(198.462 3.49669 -5.51685)
(197.216 2.91128 -7.2864)
(195.22 2.28378 -8.86443)
(192.413 1.61693 -9.99668)
(188.857 0.916641 -10.2712)
(184.964 0.218115 -9.34352)
(199.603 4.83695 2.52857)
(200.688 4.4188 0.869006)
(201.375 3.90268 -0.996267)
(201.576 3.31619 -3.07477)
(201.16 2.67455 -5.31148)
(199.968 1.97582 -7.6322)
(197.811 1.22242 -9.85809)
(194.523 0.413751 -11.6845)
(190.062 -0.448441 -12.5252)
(184.904 -1.31227 -11.8797)
(200.654 5.5244 3.18357)
(202.041 5.04425 1.4462)
(203.014 4.45858 -0.543515)
(203.48 3.80312 -2.83362)
(203.273 3.0986 -5.37498)
(202.184 2.34133 -8.12428)
(199.938 1.53257 -10.906)
(196.24 0.665939 -13.3895)
(190.895 -0.270564 -14.8165)
(184.412 -1.2389 -14.5503)
(201.598 4.68896 4.4048)
(203.235 4.06669 2.60273)
(204.448 3.36395 0.473878)
(205.148 2.61834 -2.01565)
(205.145 1.84279 -4.85193)
(204.192 1.03288 -8.01917)
(201.927 0.186793 -11.3684)
(197.923 -0.705638 -14.5748)
(191.781 -1.66155 -16.7318)
(183.987 -2.63409 -17.1011)
(202.096 5.32185 4.44283)
(203.914 4.62222 2.70882)
(205.305 3.8598 0.634707)
(206.19 3.07931 -1.85018)
(206.373 2.30077 -4.76196)
(205.578 1.52423 -8.12118)
(203.375 0.749749 -11.8199)
(199.204 -0.0390514 -15.5769)
(192.426 -0.874525 -18.3898)
(183.417 -1.82463 -19.4615)
(202.522 3.65024 5.36614)
(204.428 2.78772 3.6935)
(205.911 1.92538 1.62956)
(206.906 1.09103 -0.852287)
(207.223 0.302 -3.82342)
(206.582 -0.433023 -7.34218)
(204.516 -1.09382 -11.3847)
(200.346 -1.68855 -15.7457)
(193.146 -2.1995 -19.427)
(182.982 -2.86054 -21.3496)
(202.026 4.1285 4.92854)
(203.967 3.14289 3.41587)
(205.523 2.22395 1.55988)
(206.591 1.3474 -0.741561)
(206.988 0.574932 -3.54512)
(206.425 -0.0661432 -6.92816)
(204.443 -0.515407 -10.9233)
(200.315 -0.727984 -15.3923)
(192.988 -0.65655 -19.6439)
(181.876 -0.574981 -21.9561)
(188.73 1.53643 -0.296596)
(188.77 1.34338 -0.737579)
(188.68 1.15868 -1.19093)
(188.464 0.993762 -1.62014)
(188.134 0.850834 -1.99638)
(187.704 0.730475 -2.28708)
(187.213 0.631179 -2.45005)
(186.767 0.530086 -2.48029)
(186.636 0.381694 -2.32764)
(187.208 0.0902579 -2.02243)
(191.748 3.37512 -0.756471)
(191.882 3.24606 -1.43194)
(191.818 3.05857 -2.0807)
(191.544 2.83029 -2.70226)
(191.057 2.58171 -3.25326)
(190.367 2.32297 -3.68277)
(189.496 2.06206 -3.93121)
(188.493 1.80353 -3.93955)
(187.44 1.55788 -3.64134)
(186.471 1.34291 -3.05809)
(194.166 3.49344 0.0333355)
(194.475 3.28714 -0.906027)
(194.521 3.00642 -1.878)
(194.275 2.6779 -2.85029)
(193.716 2.31638 -3.77688)
(192.827 1.92943 -4.58124)
(191.617 1.52093 -5.16791)
(190.131 1.09505 -5.42541)
(188.477 0.661668 -5.22474)
(186.863 0.243832 -4.5185)
(195.991 4.32043 0.586779)
(196.54 4.09691 -0.567428)
(196.775 3.77821 -1.79205)
(196.643 3.38942 -3.07538)
(196.095 2.95228 -4.35936)
(195.078 2.47463 -5.55705)
(193.563 1.96333 -6.53666)
(191.567 1.42494 -7.12488)
(189.202 0.870388 -7.09097)
(186.777 0.331635 -6.28797)
(197.563 3.94519 1.81334)
(198.378 3.61304 0.46086)
(198.839 3.19048 -1.0393)
(198.877 2.70303 -2.66975)
(198.408 2.16489 -4.3688)
(197.337 1.57861 -6.04798)
(195.579 0.94941 -7.54636)
(193.097 0.281227 -8.63176)
(189.972 -0.417745 -8.93912)
(186.615 -1.10111 -8.21286)
(198.624 4.68507 2.32273)
(199.703 4.29664 0.863891)
(200.396 3.80952 -0.785921)
(200.626 3.2578 -2.64167)
(200.273 2.65976 -4.64141)
(199.198 2.01639 -6.70889)
(197.251 1.33179 -8.66571)
(194.316 0.604407 -10.2323)
(190.403 -0.168313 -10.8955)
(186.022 -0.949317 -10.2774)
(199.606 3.87494 3.47639)
(200.915 3.35198 1.92255)
(201.814 2.75345 0.105693)
(202.227 2.11398 -1.97937)
(202.004 1.44717 -4.28849)
(200.967 0.751788 -6.76453)
(198.895 0.0292731 -9.23053)
(195.578 -0.726071 -11.3796)
(190.909 -1.52208 -12.5524)
(185.467 -2.3089 -12.2426)
(200.156 4.59451 3.47771)
(201.638 4.00438 1.96208)
(202.699 3.35285 0.169883)
(203.267 2.68204 -1.94485)
(203.175 2.01338 -4.35585)
(202.215 1.34891 -7.03535)
(200.099 0.690073 -9.82425)
(196.514 0.0207977 -12.4192)
(191.195 -0.686553 -14.0376)
(184.733 -1.46111 -14.0637)
(200.635 2.9556 4.45184)
(202.211 2.21065 2.96457)
(203.365 1.46051 1.14262)
(204.032 0.735602 -1.01326)
(204.041 0.0551071 -3.52392)
(203.169 -0.570733 -6.38605)
(201.085 -1.12524 -9.50032)
(197.376 -1.62188 -12.6015)
(191.575 -2.05136 -14.871)
(184.14 -2.56643 -15.4182)
(200.186 3.60808 3.99313)
(201.802 2.75249 2.64531)
(203.03 1.95747 1.00356)
(203.766 1.20421 -1.00494)
(203.844 0.552427 -3.38944)
(203.028 0.0271347 -6.16738)
(200.972 -0.321947 -9.28093)
(197.201 -0.465779 -12.486)
(191.156 -0.385752 -15.1317)
(182.929 -0.302646 -15.8541)
(188.608 1.07102 -0.228474)
(188.638 0.958812 -0.477411)
(188.589 0.846788 -0.738409)
(188.468 0.745211 -0.979934)
(188.284 0.653738 -1.18852)
(188.048 0.573316 -1.34634)
(187.788 0.504872 -1.4257)
(187.587 0.429365 -1.43936)
(187.698 0.306802 -1.34108)
(188.596 0.0310197 -1.19307)
(190.958 2.59736 -0.700647)
(191.041 2.54586 -1.13189)
(190.995 2.44075 -1.529)
(190.814 2.29512 -1.89549)
(190.501 2.12657 -2.20342)
(190.069 1.94471 -2.42248)
(189.54 1.7585 -2.5204)
(188.95 1.57422 -2.46921)
(188.348 1.40299 -2.23973)
(187.806 1.25743 -1.86094)
(192.89 2.65415 -0.0859333)
(193.096 2.51663 -0.747438)
(193.11 2.31566 -1.41858)
(192.917 2.072 -2.07329)
(192.511 1.798 -2.67579)
(191.894 1.50097 -3.17304)
(191.086 1.1859 -3.50492)
(190.131 0.858269 -3.60921)
(189.108 0.527819 -3.423)
(188.139 0.212276 -2.94406)
(194.45 3.50256 0.237205)
(194.837 3.35163 -0.625957)
(194.974 3.11566 -1.52226)
(194.831 2.81623 -2.43843)
(194.38 2.47308 -3.32425)
(193.606 2.09527 -4.11059)
(192.512 1.69077 -4.70473)
(191.139 1.26811 -4.99833)
(189.589 0.839943 -4.86909)
(188.061 0.432582 -4.26009)
(195.877 3.1391 1.27372)
(196.476 2.88447 0.207856)
(196.777 2.54916 -0.957329)
(196.732 2.15515 -2.19364)
(196.29 1.71572 -3.44301)
(195.405 1.23618 -4.62472)
(194.05 0.723409 -5.61381)
(192.246 0.184293 -6.25056)
(190.1 -0.369703 -6.32221)
(187.901 -0.900521 -5.70917)
(196.879 3.91261 1.63331)
(197.7 3.6094 0.447374)
(198.181 3.21648 -0.874647)
(198.263 2.76455 -2.32741)
(197.865 2.27029 -3.84758)
(196.907 1.73786 -5.35331)
(195.32 1.1731 -6.69312)
(193.087 0.578157 -7.65757)
(190.293 -0.0430006 -7.92592)
(187.328 -0.659521 -7.29205)
(197.846 3.12183 2.70096)
(198.869 2.6934 1.39958)
(199.519 2.19516 -0.106403)
(199.732 1.65939 -1.79618)
(199.402 1.09803 -3.61775)
(198.411 0.513816 -5.49457)
(196.641 -0.0898812 -7.26264)
(194.017 -0.714364 -8.67199)
(190.571 -1.35976 -9.28593)
(186.786 -1.98003 -8.78658)
(198.402 3.92206 2.64381)
(199.585 3.4381 1.35633)
(200.376 2.89483 -0.147875)
(200.708 2.33248 -1.89009)
(200.457 1.77134 -3.82204)
(199.475 1.21596 -5.88809)
(197.592 0.669274 -7.92408)
(194.66 0.11825 -9.66221)
(190.628 -0.459413 -10.5531)
(186.034 -1.07408 -10.1759)
(198.912 2.30669 3.64794)
(200.19 1.6773 2.35884)
(201.068 1.03805 0.789927)
(201.484 0.421902 -1.03158)
(201.3 -0.153263 -3.09576)
(200.353 -0.675838 -5.35808)
(198.426 -1.13191 -7.68896)
(195.305 -1.5355 -9.82734)
(190.81 -1.88005 -11.1793)
(185.45 -2.26608 -11.1099)
(198.488 3.13546 3.14715)
(199.807 2.41048 1.97987)
(200.754 1.73859 0.566766)
(201.23 1.10735 -1.13491)
(201.1 0.570943 -3.104)
(200.181 0.152015 -5.31519)
(198.239 -0.111013 -7.667)
(194.997 -0.201753 -9.89222)
(190.223 -0.120688 -11.4768)
(184.244 -0.0423625 -11.447)
(188.735 0.715933 -0.155756)
(188.759 0.650419 -0.291472)
(188.736 0.582069 -0.442143)
(188.672 0.520624 -0.57845)
(188.573 0.46365 -0.69682)
(188.448 0.412205 -0.787497)
(188.314 0.368466 -0.829684)
(188.241 0.315509 -0.844992)
(188.464 0.217 -0.784349)
(189.527 -0.0427939 -0.728012)
(190.542 1.99153 -0.620488)
(190.596 1.98906 -0.886681)
(190.568 1.94006 -1.11938)
(190.456 1.85394 -1.32505)
(190.266 1.7455 -1.48766)
(190.006 1.62345 -1.58999)
(189.694 1.49654 -1.61518)
(189.352 1.37123 -1.55002)
(189.009 1.25801 -1.38178)
(188.701 1.16521 -1.1342)
(192.022 1.95729 -0.124731)
(192.159 1.86854 -0.576618)
(192.161 1.72864 -1.0276)
(192.023 1.55305 -1.45766)
(191.745 1.35133 -1.84142)
(191.335 1.12974 -2.14437)
(190.812 0.893209 -2.33067)
(190.211 0.647024 -2.36717)
(189.582 0.399268 -2.22347)
(188.994 0.16262 -1.91091)
(193.294 2.80051 0.0122269)
(193.562 2.707 -0.61164)
(193.642 2.53991 -1.24491)
(193.515 2.31732 -1.87691)
(193.172 2.05654 -2.46829)
(192.611 1.76675 -2.96906)
(191.849 1.4561 -3.31879)
(190.928 1.13359 -3.45378)
(189.923 0.811454 -3.31191)
(188.952 0.510145 -2.87342)
(194.527 2.4322 0.879392)
(194.959 2.24336 0.0646091)
(195.152 1.98497 -0.812998)
(195.075 1.67496 -1.72319)
(194.7 1.32543 -2.61655)
(194.01 0.943055 -3.4282)
(193.008 0.535451 -4.0695)
(191.733 0.110814 -4.43823)
(190.28 -0.318827 -4.41558)
(188.835 -0.724166 -3.95009)
(195.421 3.2194 1.09718)
(196.032 2.99133 0.162669)
(196.359 2.68407 -0.862933)
(196.357 2.32398 -1.96466)
(195.979 1.92643 -3.08429)
(195.183 1.49752 -4.14864)
(193.948 1.04403 -5.04204)
(192.301 0.570436 -5.62001)
(190.342 0.0840148 -5.6921)
(188.337 -0.392665 -5.15337)
(196.332 2.44173 2.06983)
(197.114 2.09943 1.01019)
(197.574 1.69462 -0.202809)
(197.659 1.25573 -1.5334)
(197.3 0.79366 -2.92935)
(196.428 0.31372 -4.31333)
(194.991 -0.179408 -5.55142)
(192.986 -0.683575 -6.45838)
(190.498 -1.19422 -6.76247)
(187.878 -1.67225 -6.27582)
(196.854 3.31353 1.94049)
(197.778 2.92844 0.87834)
(198.353 2.4873 -0.347432)
(198.524 2.02812 -1.73813)
(198.201 1.56852 -3.23927)
(197.293 1.11555 -4.78298)
(195.707 0.673331 -6.22465)
(193.401 0.232847 -7.35391)
(190.422 -0.222574 -7.80958)
(187.184 -0.697699 -7.3312)
(197.375 1.711 2.95817)
(198.39 1.19102 1.86936)
(199.041 0.657805 0.551732)
(199.277 0.145725 -0.946266)
(198.993 -0.330482 -2.60032)
(198.079 -0.758347 -4.34387)
(196.408 -1.12639 -6.0481)
(193.892 -1.44693 -7.48862)
(190.512 -1.71238 -8.2642)
(186.698 -1.99221 -7.96669)
(196.958 2.71822 2.39722)
(198.01 2.11965 1.41602)
(198.723 1.56621 0.234643)
(199.007 1.05122 -1.16362)
(198.758 0.62117 -2.7418)
(197.848 0.296167 -4.449)
(196.132 0.103964 -6.17315)
(193.472 0.051546 -7.67015)
(189.827 0.127517 -8.5756)
(185.552 0.194894 -8.23662)
(188.971 0.446865 -0.0886822)
(188.992 0.407093 -0.160003)
(188.983 0.363889 -0.249899)
(188.951 0.327063 -0.328927)
(188.899 0.292479 -0.399784)
(188.833 0.261136 -0.456914)
(188.767 0.235767 -0.482683)
(188.756 0.200681 -0.503738)
(189.023 0.122396 -0.466596)
(190.164 -0.123308 -0.463836)
(190.368 1.53477 -0.539856)
(190.403 1.56092 -0.699045)
(190.388 1.54807 -0.828266)
(190.323 1.50279 -0.935624)
(190.212 1.43747 -1.01321)
(190.06 1.35978 -1.05162)
(189.88 1.2778 -1.04229)
(189.684 1.19747 -0.978775)
(189.489 1.12833 -0.855464)
(189.311 1.07541 -0.688943)
(191.458 1.39544 -0.116972)
(191.548 1.3385 -0.418433)
(191.548 1.24283 -0.715875)
(191.457 1.11925 -0.99424)
(191.275 0.97458 -1.23655)
(191.012 0.813651 -1.42113)
(190.682 0.640631 -1.52699)
(190.309 0.459785 -1.53671)
(189.923 0.276962 -1.4352)
(189.563 0.100534 -1.23642)
(192.458 2.21601 -0.123371)
(192.64 2.16489 -0.56023)
(192.688 2.05204 -0.9935)
(192.59 1.89236 -1.41619)
(192.342 1.70049 -1.79964)
(191.952 1.48492 -2.10959)
(191.437 1.25327 -2.30828)
(190.83 1.01395 -2.35959)
(190.182 0.777797 -2.23323)
(189.563 0.560375 -1.92377)
(193.478 1.83047 0.600518)
(193.783 1.69456 -0.00528335)
(193.906 1.50082 -0.648752)
(193.827 1.26323 -1.30247)
(193.531 0.99232 -1.92719)
(193.018 0.69506 -2.47446)
(192.301 0.379002 -2.88467)
(191.42 0.0523969 -3.09543)
(190.447 -0.273782 -3.04248)
(189.497 -0.577895 -2.70674)
(194.235 2.61256 0.693003)
(194.681 2.44762 -0.0212773)
(194.9 2.21483 -0.792753)
(194.86 1.93599 -1.60406)
(194.534 1.62498 -2.40561)
(193.906 1.28874 -3.138)
(192.981 0.934414 -3.7184)
(191.798 0.567531 -4.05274)
(190.444 0.196443 -4.03232)
(189.091 -0.164145 -3.60773)
(195.063 1.84298 1.56939)
(195.649 1.57603 0.729833)
(195.967 1.25504 -0.220861)
(195.979 0.903751 -1.24167)
(195.641 0.532185 -2.28473)
(194.92 0.14694 -3.28165)
(193.8 -0.246608 -4.13115)
(192.312 -0.644075 -4.70455)
(190.548 -1.03892 -4.84144)
(188.744 -1.39923 -4.4346)
(195.52 2.7755 1.36181)
(196.225 2.47894 0.511637)
(196.635 2.13105 -0.456713)
(196.702 1.76605 -1.53398)
(196.371 1.39942 -2.66609)
(195.586 1.03927 -3.78628)
(194.311 0.690566 -4.77776)
(192.554 0.347774 -5.48788)
(190.4 -0.00048613 -5.68948)
(188.138 -0.359 -5.23648)
(196.036 1.17409 2.38187)
(196.824 0.75395 1.48565)
(197.296 0.318811 0.406305)
(197.411 -0.0973206 -0.794309)
(197.095 -0.483364 -2.08823)
(196.28 -0.826713 -3.40222)
(194.902 -1.11822 -4.62515)
(192.946 -1.36812 -5.58046)
(190.464 -1.56661 -6.0115)
(187.782 -1.76475 -5.6748)
(195.609 2.36206 1.74573)
(196.429 1.88164 0.94682)
(196.953 1.43848 -0.0103949)
(197.103 1.03036 -1.12305)
(196.806 0.695084 -2.34961)
(195.976 0.450158 -3.62776)
(194.538 0.314129 -4.85478)
(192.439 0.287728 -5.82942)
(189.731 0.354575 -6.31464)
(186.719 0.407922 -5.8878)
(189.236 0.241167 -0.029456)
(189.254 0.215005 -0.0652239)
(189.252 0.185642 -0.123034)
(189.236 0.163415 -0.171867)
(189.21 0.142839 -0.218442)
(189.176 0.124823 -0.259337)
(189.144 0.112326 -0.278314)
(189.161 0.0905365 -0.305432)
(189.436 0.0286457 -0.282366)
(190.605 -0.205162 -0.312233)
(190.337 1.20109 -0.470271)
(190.36 1.24253 -0.562167)
(190.353 1.25178 -0.628045)
(190.317 1.23336 -0.676538)
(190.254 1.19771 -0.705013)
(190.167 1.15155 -0.708501)
(190.064 1.10207 -0.682796)
(189.953 1.05457 -0.624576)
(189.842 1.01775 -0.531356)
(189.738 0.994324 -0.413439)
(191.108 0.95262 -0.0851723)
(191.167 0.914695 -0.282855)
(191.168 0.849509 -0.477003)
(191.111 0.764006 -0.656276)
(190.996 0.662512 -0.809712)
(190.832 0.548379 -0.923953)
(190.628 0.424705 -0.986743)
(190.4 0.29443 -0.988752)
(190.163 0.161132 -0.921864)
(189.94 0.0296282 -0.799141)
(191.874 1.74231 -0.197848)
(191.998 1.72049 -0.494289)
(192.027 1.64834 -0.781342)
(191.956 1.53805 -1.05535)
(191.786 1.40154 -1.29676)
(191.524 1.24618 -1.48291)
(191.184 1.07856 -1.59082)
(190.79 0.905941 -1.60029)
(190.375 0.737379 -1.49709)
(189.978 0.584826 -1.28038)
(192.685 1.33309 0.409571)
(192.897 1.23778 -0.0294686)
(192.975 1.09617 -0.490055)
(192.907 0.918652 -0.949716)
(192.687 0.713967 -1.37905)
(192.32 0.488618 -1.74366)
(191.821 0.24947 -2.00485)
(191.225 0.0039975 -2.12555)
(190.58 -0.238654 -2.07149)
(189.954 -0.462909 -1.83813)
(193.298 2.0937 0.398354)
(193.616 1.97944 -0.131172)
(193.76 1.80881 -0.694172)
(193.708 1.59928 -1.27495)
(193.447 1.36289 -1.83394)
(192.974 1.10658 -2.326)
(192.303 0.837253 -2.69431)
(191.472 0.560515 -2.87993)
(190.548 0.284418 -2.82229)
(189.639 0.017451 -2.50117)
(194.029 1.32991 1.18262)
(194.458 1.12641 0.53482)
(194.673 0.877918 -0.191134)
(194.649 0.603332 -0.955726)
(194.36 0.311617 -1.71821)
(193.792 0.00963544 -2.42305)
(192.95 -0.297167 -2.99754)
(191.874 -0.603355 -3.35599)
(190.642 -0.902338 -3.40818)