/*--------------------------------*- C++ -*----------------------------------*\
| =========                 |                                                 |
| \\      /  F ield         | foam-extend: Open Source CFD                    |
|  \\    /   O peration     | Version:     4.0                                |
|   \\  /    A nd           | Web:         http://www.foam-extend.org         |
|    \\/     M anipulation  |                                                 |
\*---------------------------------------------------------------------------*/
FoamFile
{
    version     2.0;
    format      ascii;
    class       regIOobject;
    location    "3500/uniform";
    object      profilingInfo;
}
// * * * * * * * * * * * * * * * * * * * * * * * * * * * * * * * * * * * * * //

profilingInfo
(

    {
        id              24;
        parentId        16;
        description     "Foam::Time::writeObject - outputTime";
        calls           70;
        totalTime       24.9817;
        childTime       0;
        onStack         1;
    }

    {
        id              16;
        parentId        1;
        description     "Foam::Time::writeObject";
        calls           3500;
        totalTime       24.9969;
        childTime       24.9817;
        onStack         1;
    }

    {
        id              1;
        description     "application::main";
        calls           1;
        totalTime       1105.92;
        childTime       658.982;
        onStack         1;
    }

    {
        id              19;
        parentId        17;
        description     "FO::Mach::execute";
        calls           3499;
        totalTime       7.27599;
        childTime       0;
        onStack         0;
    }

    {
        id              18;
        parentId        17;
        description     "FO::flux::execute";
        calls           3499;
        totalTime       4.27282;
        childTime       0;
        onStack         0;
    }

    {
        id              21;
        parentId        17;
        description     "FO::minMaxP::execute";
        calls           3499;
        totalTime       0.526713;
        childTime       0;
        onStack         0;
    }

    {
        id              22;
        parentId        17;
        description     "FO::minMaxRho::execute";
        calls           3499;
        totalTime       0.4894;
        childTime       0;
        onStack         0;
    }

    {
        id              23;
        parentId        17;
        description     "FO::minMaxT::execute";
        calls           3499;
        totalTime       0.469609;
        childTime       0;
        onStack         0;
    }

    {
        id              20;
        parentId        17;
        description     "FO::minMaxU::execute";
        calls           3499;
        totalTime       1.5723;
        childTime       0;
        onStack         0;
    }

    {
        id              3;
        parentId        2;
        description     "functionObjectList::read";
        calls           1;
        totalTime       0.005391;
        childTime       0;
        onStack         0;
    }

    {
        id              17;
        parentId        1;
        description     "functionObjects_.execute()";
        calls           3499;
        totalTime       14.6659;
        childTime       14.6068;
        onStack         0;
    }

    {
        id              2;
        parentId        1;
        description     "functionObjects_.start()";
        calls           1;
        totalTime       0.005403;
        childTime       0.005391;
        onStack         0;
    }

    {
        id              4;
        parentId        1;
        description     "fvMatrix::solve_U";
        calls           3500;
        totalTime       44.3906;
        childTime       38.43;
        onStack         0;
    }

    {
        id              12;
        parentId        1;
        description     "fvMatrix::solve_epsilon";
        calls           3500;
        totalTime       23.9548;
        childTime       14.9348;
        onStack         0;
    }

    {
        id              10;
        parentId        1;
        description     "fvMatrix::solve_i";
        calls           3500;
        totalTime       13.861;
        childTime       12.6584;
        onStack         0;
    }

    {
        id              14;
        parentId        1;
        description     "fvMatrix::solve_k";
        calls           3500;
        totalTime       16.3406;
        childTime       15.2127;
        onStack         0;
    }

    {
        id              8;
        parentId        1;
        description     "fvMatrix::solve_p";
        calls           7000;
        totalTime       520.767;
        childTime       518.232;
        onStack         0;
    }

    {
        id              5;
        parentId        4;
        description     "lduMatrix::solver_Ux";
        calls           3500;
        totalTime       13.0343;
        childTime       0;
        onStack         0;
    }

    {
        id              6;
        parentId        4;
        description     "lduMatrix::solver_Uy";
        calls           3500;
        totalTime       12.7248;
        childTime       0;
        onStack         0;
    }

    {
        id              7;
        parentId        4;
        description     "lduMatrix::solver_Uz";
        calls           3500;
        totalTime       12.6709;
        childTime       0;
        onStack         0;
    }

    {
        id              13;
        parentId        12;
        description     "lduMatrix::solver_epsilon";
        calls           3500;
        totalTime       14.9348;
        childTime       0;
        onStack         0;
    }

    {
        id              11;
        parentId        10;
        description     "lduMatrix::solver_i";
        calls           3500;
        totalTime       12.6584;
        childTime       0;
        onStack         0;
    }

    {
        id              15;
        parentId        14;
        description     "lduMatrix::solver_k";
        calls           3500;
        totalTime       15.2127;
        childTime       0;
        onStack         0;
    }

    {
        id              9;
        parentId        8;
        description     "lduMatrix::solver_p";
        calls           7000;
        totalTime       518.232;
        childTime       0;
        onStack         0;
    }
);


// ************************************************************************* //
