/*--------------------------------*- C++ -*----------------------------------*\
| =========                 |                                                 |
| \\      /  F ield         | foam-extend: Open Source CFD                    |
|  \\    /   O peration     | Version:     4.0                                |
|   \\  /    A nd           | Web:         http://www.foam-extend.org         |
|    \\/     M anipulation  |                                                 |
\*---------------------------------------------------------------------------*/
FoamFile
{
    version     2.0;
    format      ascii;
    class       volScalarField;
    location    "2700";
    object      divFlux;
}
// * * * * * * * * * * * * * * * * * * * * * * * * * * * * * * * * * * * * * //

dimensions      [1 -3 -1 0 0 0 0];

internalField   nonuniform List<scalar> 
34480
(
1.95998e-05
7.31234e-06
7.30478e-06
6.71295e-06
6.21035e-06
5.81443e-06
5.5126e-06
0.000286505
0.000193368
4.91538e-06
5.6962e-06
3.07018e-06
2.95913e-06
2.74091e-06
2.58318e-06
2.50878e-06
2.50448e-06
2.50683e-06
0.00368034
2.42304e-06
1.49735e-06
1.00326e-06
9.49834e-07
9.0429e-07
8.90086e-07
9.20189e-07
9.7027e-07
1.00459e-06
0.00341829
9.9208e-07
5.28044e-07
3.76864e-07
3.58078e-07
3.4563e-07
3.45325e-07
3.64034e-07
3.86486e-07
4.02141e-07
0.000809917
3.97368e-07
2.06326e-07
1.54935e-07
1.46098e-07
1.42367e-07
1.42694e-07
1.50484e-07
1.5932e-07
1.6508e-07
1.66848e-07
1.63444e-07
8.85816e-08
6.62089e-08
6.42616e-08
6.20279e-08
6.19706e-08
6.5178e-08
6.89581e-08
7.13063e-08
7.17645e-08
7.05617e-08
3.866e-08
3.10553e-08
2.87134e-08
2.85607e-08
2.83062e-08
2.97316e-08
3.11571e-08
3.22772e-08
3.27354e-08
3.20226e-08
1.96565e-08
1.56702e-08
1.43414e-08
1.36083e-08
1.37916e-08
1.43414e-08
1.43873e-08
1.55786e-08
1.59451e-08
1.51662e-08
1.28398e-08
9.62205e-09
8.53905e-09
8.16417e-09
7.99755e-09
8.83063e-09
8.12251e-09
8.83063e-09
9.78867e-09
8.70567e-09
7.84656e-09
6.6438e-09
6.18561e-09
5.95651e-09
5.65105e-09
5.38377e-09
5.57468e-09
4.73466e-09
5.38377e-09
6.10924e-09
2.66418e-05
9.25091e-06
9.22024e-06
8.6134e-06
8.07677e-06
7.66888e-06
7.40327e-06
7.26643e-06
7.25383e-06
0.00110512
8.59298e-06
4.45488e-06
4.29988e-06
4.02972e-06
3.84252e-06
3.76047e-06
3.76169e-06
3.83331e-06
3.96317e-06
0.00351503
2.48049e-06
1.65189e-06
1.56814e-06
1.50889e-06
1.50348e-06
1.55826e-06
1.63907e-06
1.73265e-06
1.83062e-06
0.00433912
9.79656e-07
7.08536e-07
6.72792e-07
6.53482e-07
6.61682e-07
6.95296e-07
7.37643e-07
7.83362e-07
8.30252e-07
0.00149909
4.3366e-07
3.23602e-07
3.13014e-07
2.94637e-07
3.05773e-07
3.20195e-07
3.39728e-07
3.60478e-07
3.82323e-07
3.92652e-07
2.25164e-07
1.45463e-07
1.5707e-07
1.37636e-07
1.48125e-07
1.53449e-07
1.62075e-07
1.71339e-07
1.81935e-07
1.8485e-07
1.1493e-07
6.2615e-08
8.99233e-08
6.36089e-08
7.37844e-08
7.63402e-08
8.01264e-08
8.46226e-08
9.03019e-08
9.18164e-08
3.13874e-08
3.63337e-08
4.93253e-08
3.55244e-08
3.99117e-08
4.08063e-08
4.28508e-08
4.54065e-08
4.80474e-08
4.96341e-08
4.31186e-08
1.35918e-08
3.75613e-08
2.59831e-08
2.49763e-08
2.62542e-08
2.6835e-08
2.74933e-08
3.00877e-08
3.16173e-08
1.8842e-07
5.07593e-09
2.19366e-08
2.29659e-08
2.00553e-08
2.05167e-08
2.04812e-08
2.2043e-08
2.40663e-08
2.45766e-08
2.47333e-05
6.97747e-06
7.15421e-06
6.71863e-06
6.31793e-06
6.03365e-06
5.87681e-06
5.85691e-06
2.10297e-05
0.000911414
7.50111e-06
3.18571e-06
3.13641e-06
2.93709e-06
2.77087e-06
2.66282e-06
2.62773e-06
2.68653e-06
8.80155e-05
0.00137761
2.04462e-06
1.14434e-06
1.09239e-06
1.03363e-06
9.90743e-07
9.72884e-07
9.89555e-07
1.05271e-06
0.000122623
0.00128133
7.40644e-07
4.55741e-07
4.32972e-07
4.11952e-07
3.97036e-07
3.90767e-07
4.00468e-07
4.30398e-07
4.82304e-07
6.05508e-07
2.93833e-07
1.92673e-07
1.81812e-07
1.73383e-07
1.66877e-07
1.63992e-07
1.67839e-07
1.81472e-07
2.05712e-07
2.62258e-07
1.32541e-07
8.2067e-08
8.14235e-08
7.56323e-08
7.34049e-08
7.16725e-08
7.33059e-08
8.00871e-08
9.09765e-08
1.18438e-07
6.07803e-08
3.69582e-08
3.74862e-08
3.43183e-08
3.40983e-08
3.30424e-08
3.38343e-08
3.70902e-08
4.24139e-08
5.53025e-08
2.44722e-08
2.23333e-08
1.79775e-08
1.77399e-08
1.72252e-08
1.72648e-08
1.72252e-08
1.82151e-08
2.21353e-08
2.84908e-08
1.54207e-08
1.18074e-08
1.22034e-08
1.09795e-08
1.06555e-08
1.00435e-08
1.04395e-08
1.18074e-08
1.28154e-08
1.76301e-08
2.84766e-08
5.60972e-09
6.36869e-09
8.1176e-09
6.63267e-09
6.89666e-09
7.49063e-09
7.39164e-09
7.88661e-09
1.33128e-08
2.41972e-05
6.27303e-06
6.4823e-06
6.11035e-06
5.76107e-06
5.51716e-06
5.39034e-06
5.3859e-06
1.378e-05
0.000392767
7.44144e-06
2.96086e-06
2.93491e-06
2.74965e-06
2.59371e-06
2.48295e-06
2.42962e-06
2.44858e-06
4.02922e-05
0.00116583
2.08163e-06
1.10859e-06
1.06224e-06
1.0004e-06
9.50516e-07
9.1757e-07
9.11348e-07
9.43301e-07
0.000123497
0.00229802
7.61107e-07
4.50637e-07
4.27875e-07
4.06954e-07
3.87137e-07
3.74866e-07
3.73148e-07
3.89867e-07
0.000111147
0.00209518
3.0152e-07
1.93419e-07
1.81797e-07
1.73909e-07
1.65285e-07
1.59395e-07
1.58922e-07
1.66757e-07
4.23758e-05
0.00154416
1.35612e-07
8.30105e-08
8.23663e-08
7.73507e-08
7.34394e-08
7.07706e-08
7.04025e-08
7.40836e-08
9.37913e-06
0.000954183
6.10966e-08
3.84478e-08
3.88977e-08
3.52575e-08
3.38668e-08
3.29261e-08
3.26397e-08
3.43167e-08
3.98794e-08
0.000391843
2.59707e-08
2.20502e-08
1.95102e-08
1.8185e-08
1.70438e-08
1.63812e-08
1.64549e-08
1.77065e-08
2.02833e-08
0.000143069
1.6421e-08
1.28506e-08
1.23821e-08
1.12778e-08
1.10101e-08
1.08762e-08
1.06085e-08
1.05415e-08
1.24825e-08
1.6559e-08
1.83829e-08
9.08023e-09
6.10461e-09
8.09858e-09
6.7795e-09
7.36235e-09
6.41138e-09
8.00656e-09
9.17226e-09
1.17031e-08
2.33851e-05
5.55669e-06
5.79162e-06
5.47284e-06
5.17161e-06
4.95664e-06
4.84288e-06
4.83113e-06
1.87026e-05
0.000151681
7.22528e-06
2.69789e-06
2.69062e-06
2.52567e-06
2.38725e-06
2.28784e-06
2.23081e-06
2.2232e-06
2.93749e-07
0.00058899
2.07809e-06
1.04601e-06
1.01101e-06
9.50742e-07
9.01668e-07
8.65667e-07
8.48522e-07
8.5369e-07
7.64625e-05
0.00133458
7.70556e-07
4.36067e-07
4.16105e-07
3.93946e-07
3.73784e-07
3.59668e-07
3.5231e-07
3.56046e-07
7.4904e-05
0.00140535
3.06688e-07
1.89929e-07
1.78392e-07
1.70325e-07
1.61721e-07
1.55268e-07
1.5253e-07
1.54828e-07
4.70428e-05
0.00124945
1.36912e-07
8.22172e-08
8.13616e-08
7.67845e-08
7.23785e-08
6.97691e-08
6.8443e-08
6.99402e-08
3.19909e-05
0.000972144
6.20734e-08
3.86323e-08
3.8214e-08
3.57805e-08
3.38793e-08
3.25104e-08
3.20541e-08
3.25865e-08
4.06757e-06
0.000621559
2.69623e-08
2.16964e-08
1.9164e-08
1.81032e-08
1.71108e-08
1.69396e-08
1.59814e-08
1.69054e-08
5.18634e-06
0.000450566
1.75424e-08
1.31597e-08
1.16975e-08
1.11375e-08
1.07953e-08
1.02665e-08
1.03909e-08
1.11998e-08
1.17909e-08
0.000269867
1.22244e-08
1.09509e-08
6.13135e-09
7.87095e-09
7.18652e-09
6.64468e-09
7.38614e-09
7.35762e-09
7.38614e-09
0.000352235
2.2211e-05
4.82492e-06
5.07378e-06
4.81558e-06
4.55636e-06
4.37073e-06
4.26489e-06
4.24302e-06
4.30251e-06
2.65896e-05
6.88008e-06
2.40971e-06
2.4185e-06
2.27642e-06
2.1527e-06
2.06633e-06
2.01391e-06
1.99689e-06
1.48829e-05
0.000224721
2.03547e-06
9.66654e-07
9.41203e-07
8.85879e-07
8.40036e-07
8.059e-07
7.84076e-07
7.77045e-07
3.34953e-05
0.000713941
7.58988e-07
4.1225e-07
3.94726e-07
3.73729e-07
3.55728e-07
3.40299e-07
3.31073e-07
3.28952e-07
3.61014e-05
0.00083215
3.04609e-07
1.83655e-07
1.7152e-07
1.64021e-07
1.55614e-07
1.4966e-07
1.44752e-07
1.44161e-07
2.87237e-05
0.000834916
1.37294e-07
8.02098e-08
7.84203e-08
7.37278e-08
7.12225e-08
6.74844e-08
6.56551e-08
6.55358e-08
2.28387e-05
0.000736996
6.25638e-08
3.67976e-08
3.79995e-08
3.47828e-08
3.33688e-08
3.20256e-08
3.10712e-08
3.14954e-08
1.03559e-05
0.00054571
2.76256e-08
2.09015e-08
1.89609e-08
1.78474e-08
1.74656e-08
1.57795e-08
1.63203e-08
1.63203e-08
1.21458e-05
0.000465154
1.87858e-08
1.20313e-08
1.23205e-08
1.13083e-08
9.97788e-09
1.06141e-08
1.02671e-08
1.03539e-08
4.63514e-06
0.00038885
8.16319e-09
1.19301e-08
6.04457e-09
7.66176e-09
6.41573e-09
6.78688e-09
6.8134e-09
7.23758e-09
1.3292e-05
0.000452103
2.08539e-05
4.11329e-06
4.36401e-06
4.15605e-06
3.93791e-06
3.77704e-06
3.68157e-06
3.65216e-06
3.68852e-06
1.33966e-06
6.42901e-06
2.11557e-06
2.13387e-06
2.01195e-06
1.90544e-06
1.82677e-06
1.77879e-06
1.76034e-06
1.05491e-05
7.06037e-05
1.94498e-06
8.69889e-07
8.55071e-07
8.05504e-07
7.65252e-07
7.34021e-07
7.1323e-07
7.02051e-07
1.15753e-05
0.00037282
7.3302e-07
3.80827e-07
3.66582e-07
3.47309e-07
3.30574e-07
3.17241e-07
3.07974e-07
3.01443e-07
1.09471e-05
0.000476528
2.93809e-07
1.7369e-07
1.61353e-07
1.54424e-07
1.47157e-07
1.40735e-07
1.37355e-07
1.34228e-07
9.21457e-06
0.000519081
1.35821e-07
7.63774e-08
7.46029e-08
7.10539e-08
6.74309e-08
6.44365e-08
6.28838e-08
6.18117e-08
6.60431e-06
0.000500173
6.24892e-08
3.54242e-08
3.60815e-08
3.34197e-08
3.22696e-08
3.10866e-08
2.96078e-08
2.96078e-08
4.04898e-06
0.000398949
2.82566e-08
1.9342e-08
1.80112e-08
1.74197e-08
1.64437e-08
1.61184e-08
1.52311e-08
1.54086e-08
7.00634e-06
0.000377605
1.91511e-08
1.22333e-08
1.09965e-08
1.08083e-08
1.04857e-08
9.6522e-09
9.97483e-09
1.01093e-08
7.55081e-06
0.000351227
6.05478e-09
1.20272e-08
5.74247e-09
7.61556e-09
7.12264e-09
6.53114e-09
6.50649e-09
6.92547e-09
1.463e-05
0.000400479
1.92785e-05
3.4504e-06
3.68659e-06
3.52454e-06
3.34198e-06
3.20524e-06
3.11992e-06
3.08771e-06
3.10904e-06
3.3078e-06
5.87037e-06
1.81642e-06
1.84364e-06
1.74222e-06
1.65053e-06
1.58369e-06
1.53908e-06
1.51956e-06
2.8126e-06
1.38388e-05
1.82352e-06
7.67108e-07
7.582e-07
7.16657e-07
6.8075e-07
6.53256e-07
6.32883e-07
6.21061e-07
3.5157e-06
0.000176746
6.93782e-07
3.42918e-07
3.32883e-07
3.15355e-07
2.99776e-07
2.87907e-07
2.79086e-07
2.72511e-07
1.05471e-06
0.000256759
2.76634e-07
1.60172e-07
1.49214e-07
1.42419e-07
1.36134e-07
1.30635e-07
1.26001e-07
1.2333e-07
8.84716e-07
0.000304325
1.29059e-07
7.16561e-08
6.95597e-08
6.58823e-08
6.30642e-08
6.0796e-08
5.86652e-08
5.76685e-08
4.18403e-06
0.000321766
6.16876e-08
3.40314e-08
3.36037e-08
3.17402e-08
3.06099e-08
2.9113e-08
2.86853e-08
2.74939e-08
2.35568e-06
0.000269095
2.81229e-08
1.8366e-08
1.75961e-08
1.63864e-08
1.56441e-08
1.53691e-08
1.48742e-08
1.45443e-08
3.48871e-07
0.000279318
1.82678e-08
1.18974e-08
1.00978e-08
1.06976e-08
9.57289e-09
9.82283e-09
9.34794e-09
9.49791e-09
5.14204e-06
0.000264729
3.64903e-09
1.14329e-08
5.97993e-09
6.80475e-09
6.04867e-09
6.32361e-09
6.16322e-09
6.27778e-09
1.13138e-05
0.000310252
1.74282e-05
2.82788e-06
3.05023e-06
2.92616e-06
2.77785e-06
2.66007e-06
2.58942e-06
2.55943e-06
2.56888e-06
2.7185e-06
5.26008e-06
1.52829e-06
1.56027e-06
1.47765e-06
1.40091e-06
1.34327e-06
1.30401e-06
1.28525e-06
1.27781e-06
6.50867e-07
1.66452e-06
6.61118e-07
6.57846e-07
6.22804e-07
5.91366e-07
5.67366e-07
5.4927e-07
5.37973e-07
9.00558e-07
7.72793e-05
6.41821e-07
3.00748e-07
2.94209e-07
2.79321e-07
2.66456e-07
2.5521e-07
2.46988e-07
2.41088e-07
1.12495e-06
0.000129038
2.54468e-07
1.44958e-07
1.34661e-07
1.28016e-07
1.22794e-07
1.16952e-07
1.13739e-07
1.10891e-07
3.51813e-06
0.000165454
1.20644e-07
6.56875e-08
6.30996e-08
6.06395e-08
5.72849e-08
5.52401e-08
5.37066e-08
1.34406e-05
8.15011e-06
0.000194745
5.81517e-08
3.02736e-08
3.10404e-08
2.93364e-08
2.76325e-08
2.67805e-08
2.59001e-08
2.60137e-08
4.9578e-06
0.000166409
2.78952e-08
1.63069e-08
1.64858e-08
1.57957e-08
1.4211e-08
1.42621e-08
1.40832e-08
1.22334e-05
3.92683e-06
0.000191986
1.80736e-08
1.15017e-08
9.48019e-09
9.48019e-09
9.2943e-09
8.69017e-09
8.574e-09
8.38811e-09
2.28928e-06
0.000179923
3.77117e-09
1.05645e-08
5.94255e-09
6.47503e-09
5.85735e-09
5.85735e-09
5.60175e-09
6.35561e-06
7.29617e-06
0.000221941
1.56001e-05
2.27263e-06
2.47988e-06
2.39248e-06
2.27092e-06
2.17305e-06
2.10751e-06
2.08032e-06
2.08161e-06
2.17995e-06
4.61584e-06
1.25422e-06
1.29084e-06
1.2266e-06
1.16348e-06
1.11459e-06
1.08252e-06
1.06499e-06
1.0565e-06
9.93375e-07
1.48058e-06
5.56741e-07
5.55505e-07
5.26636e-07
5.02067e-07
4.8035e-07
4.66283e-07
4.54688e-07
6.92392e-08
3.04098e-05
5.83151e-07
2.58003e-07
2.54815e-07
2.41648e-07
2.3054e-07
2.20857e-07
2.1361e-07
2.07333e-07
9.58474e-07
6.04589e-05
2.28912e-07
1.27222e-07
1.18838e-07
1.12728e-07
1.07365e-07
1.03529e-07
9.96599e-08
9.73856e-08
3.10561e-06
8.40934e-05
1.09089e-07
5.87784e-08
5.65806e-08
5.38778e-08
5.17987e-08
4.93929e-08
4.74326e-08
1.93882e-05
8.4093e-06
0.000112148
5.41117e-08
2.80906e-08
2.7985e-08
2.6665e-08
2.53185e-08
2.44737e-08
2.41041e-08
2.28896e-08
4.68878e-06
9.38771e-05
2.63248e-08
1.48743e-08
1.48268e-08
1.37575e-08
1.32586e-08
1.26883e-08
1.21893e-08
2.29286e-05
5.7761e-06
0.000124954
1.57822e-08
1.08868e-08
8.61871e-09
8.89952e-09
8.2947e-09
7.88429e-09
8.1219e-09
8.03549e-09
3.84904e-07
0.000113461
3.21483e-09
9.56375e-09
5.4056e-09
5.5046e-09
5.5244e-09
5.14819e-09
5.6036e-09
1.33546e-05
4.08778e-06
0.000150317
1.35693e-05
1.70295e-06
1.9226e-06
1.88877e-06
1.80373e-06
1.72988e-06
1.67931e-06
1.65962e-06
1.66864e-06
1.75998e-06
3.97156e-06
1.0016e-06
1.03986e-06
9.92511e-07
9.41872e-07
9.03161e-07
8.75937e-07
8.60281e-07
8.52661e-07
7.90493e-07
1.28102e-06
4.61261e-07
4.58235e-07
4.35174e-07
4.14874e-07
3.96916e-07
3.83376e-07
3.7454e-07
3.665e-07
1.03152e-05
5.15587e-07
2.14281e-07
2.13103e-07
2.03862e-07
1.94015e-07
1.85823e-07
1.79344e-07
1.73711e-07
4.17831e-07
2.54497e-05
2.00102e-07
1.08614e-07
1.01388e-07
9.67811e-08
9.23949e-08
8.83558e-08
8.55789e-08
8.30229e-08
1.96125e-06
4.00867e-05
9.76866e-08
5.10254e-08
4.92307e-08
4.67733e-08
4.41779e-08
4.30734e-08
4.17205e-08
1.87052e-05
7.30556e-06
6.26112e-05
4.90901e-08
2.4396e-08
2.42978e-08
2.32179e-08
2.22607e-08
2.13526e-08
2.01991e-08
2.03955e-08
3.10546e-06
4.79476e-05
2.46414e-08
1.33638e-08
1.27232e-08
1.23919e-08
1.1928e-08
1.13979e-08
9.94091e-07
2.56011e-05
6.17348e-06
7.88625e-05
1.33754e-08
1.00003e-08
8.03234e-09
7.69097e-09
7.38975e-09
7.49016e-09
7.0283e-09
6.98814e-09
4.56096e-07
6.59034e-05
2.89543e-09
8.04406e-09
5.22772e-09
5.30135e-09
5.15409e-09
4.71231e-09
4.78594e-09
1.46905e-05
1.97646e-06
9.76607e-05
1.25917e-05
1.18239e-06
1.39411e-06
1.41265e-06
1.35803e-06
1.2906e-06
1.22929e-06
1.18189e-06
1.13907e-06
1.12738e-06
3.35626e-06
7.80548e-07
8.15149e-07
7.82345e-07
7.41917e-07
7.10807e-07
6.84548e-07
6.72844e-07
6.66401e-07
6.20874e-07
1.05867e-06
3.74121e-07
3.67344e-07
3.50075e-07
3.32846e-07
3.18123e-07
3.0841e-07
2.99765e-07
2.91941e-07
3.19042e-06
4.45697e-07
1.74904e-07
1.73997e-07
1.66057e-07
1.58579e-07
1.51597e-07
1.46378e-07
1.42083e-07
1.37616e-07
8.21865e-06
1.70136e-07
8.98831e-08
8.47495e-08
8.06425e-08
7.65649e-08
7.43061e-08
7.04925e-08
6.89378e-08
9.62987e-07
1.77357e-05
8.3416e-08
4.35591e-08
4.12747e-08
3.93495e-08
3.81945e-08
3.65004e-08
1.27202e-06
1.59673e-05
5.92042e-06
3.42589e-05
4.35816e-08
2.074e-08
2.10366e-08
2.00099e-08
1.90288e-08
1.82074e-08
1.82302e-08
1.70438e-08
1.13892e-06
2.10414e-05
2.20226e-08
1.10271e-08
1.12735e-08
1.10476e-08
1.02057e-08
1.00209e-08
1.79859e-05
2.46332e-05
5.88279e-06
4.91561e-05
1.0221e-08
9.3526e-09
6.55242e-09
6.75777e-09
6.7391e-09
6.08573e-09
6.08573e-09
6.06706e-09
5.14225e-07
3.3984e-05
3.45212e-09
6.62243e-09
4.94543e-09
4.39784e-09
4.27805e-09
4.32939e-09
3.76469e-09
1.32553e-05
7.75765e-07
6.14179e-05
1.29893e-05
1.07135e-06
1.28469e-06
1.41138e-06
1.4854e-06
1.51986e-06
1.54859e-06
1.59118e-06
1.65831e-06
1.77831e-06
2.62084e-06
5.64842e-07
6.04047e-07
6.00444e-07
5.85936e-07
5.68326e-07
5.51192e-07
5.38498e-07
5.19193e-07
4.53917e-07
8.24754e-07
2.93352e-07
2.85583e-07
2.71151e-07
2.59869e-07
2.49789e-07
2.40855e-07
2.35434e-07
2.3049e-07
2.10887e-06
3.70069e-07
1.38623e-07
1.36698e-07
1.31162e-07
1.25499e-07
1.21156e-07
1.16129e-07
1.12789e-07
1.08446e-07
6.91058e-08
1.41654e-07
7.1532e-08
6.84776e-08
6.48233e-08
6.18235e-08
5.87691e-08
5.72692e-08
5.46512e-08
3.80595e-07
7.3206e-06
6.90496e-08
3.5316e-08
3.42422e-08
3.20708e-08
3.04959e-08
2.9255e-08
9.41864e-06
1.31478e-05
4.70128e-06
1.86318e-05
3.70993e-08
1.7308e-08
1.69899e-08
1.65444e-08
1.58233e-08
1.54203e-08
1.43597e-08
1.39779e-08
1.37234e-08
6.50204e-06
3.10126e-06
9.85031e-09
9.04854e-09
8.95309e-09
8.3804e-09
1.66117e-05
2.65908e-05
2.2457e-05
5.37289e-06
3.08392e-05
7.7104e-09
7.70531e-09
5.90047e-09
5.72692e-09
5.25836e-09
5.241e-09
5.18894e-09
5.29307e-09
1.27589e-07
1.37354e-05
4.05452e-09
4.75653e-09
3.92931e-09
3.84977e-09
3.64296e-09
3.54751e-09
2.19947e-06
1.08377e-05
1.87239e-07
3.76825e-05
2.83885e-06
1.33035e-06
1.69625e-06
1.83092e-06
1.84896e-06
1.86529e-06
1.86783e-06
1.81523e-06
1.69402e-06
1.48717e-06
2.70062e-06
5.1243e-07
4.52957e-07
4.06262e-07
3.74961e-07
3.53488e-07
3.44149e-07
3.49273e-07
3.68928e-07
3.66869e-07
5.83988e-05
6.78101e-06
9.42314e-06
7.16749e-06
5.93031e-06
5.03928e-06
3.93914e-06
1.7415e-06
1.35833e-06
3.74717e-06
2.92424e-07
1.07499e-07
1.05814e-07
1.00164e-07
9.60677e-08
9.13353e-08
8.85107e-08
8.4991e-08
8.16931e-08
6.89629e-08
1.15681e-07
5.44818e-08
5.26311e-08
4.97663e-08
4.80423e-08
4.62423e-08
4.41888e-08
4.25663e-08
2.06848e-07
3.10599e-06
9.84225e-06
2.74627e-08
2.64423e-08
2.55771e-08
2.46233e-08
7.65682e-06
1.26778e-05
1.08517e-05
3.77685e-06
1.0277e-05
3.02771e-08
1.40789e-08
1.37634e-08
1.29944e-08
1.23437e-08
1.20676e-08
1.15944e-08
1.11606e-08
1.09634e-08
1.00699e-08
4.88243e-05
4.67199e-05
4.19105e-05
3.74395e-05
3.60235e-05
3.42201e-05
3.0354e-05
2.02593e-05
4.89693e-06
1.99533e-05
6.48478e-09
5.74341e-09
5.00129e-09
4.85609e-09
4.32369e-09
4.58182e-09
3.90423e-09
4.37209e-09
4.0333e-09
1.64391e-06
4.23028e-09
4.05212e-09
3.19437e-09
2.80986e-09
2.57324e-09
3.03169e-09
5.6841e-06
8.26953e-06
4.9498e-08
2.26309e-05
7.49077e-05
1.15847e-05
1.13365e-05
1.06691e-05
1.03389e-05
9.83045e-06
8.95429e-06
7.75225e-06
6.32167e-06
4.71566e-06
7.2165e-07
1.2132e-07
1.58193e-07
2.20266e-07
2.75451e-07
2.93124e-07
2.85288e-07
2.70935e-07
2.79452e-07
3.01394e-07
0.000201122
0.000128362
7.02327e-05
4.03e-05
2.29174e-05
1.31191e-05
7.02587e-06
2.07591e-06
3.17064e-06
6.70624e-06
2.13534e-07
8.01379e-08
7.55323e-08
7.2274e-08
7.01705e-08
6.78883e-08
6.57299e-08
6.33515e-08
6.04506e-08
5.05894e-08
9.14501e-08
3.90997e-08
3.94061e-08
3.73792e-08
3.53524e-08
3.44332e-08
3.23828e-08
1.79991e-07
3.06222e-07
1.81216e-06
3.98476e-05
3.03207e-05
1.99109e-05
1.60127e-05
1.54192e-05
1.48689e-05
1.31578e-05
9.00046e-06
3.09948e-06
5.84677e-06
2.3519e-08
1.05769e-08
1.06869e-08
1.01186e-08
9.55038e-09
9.23875e-09
8.83548e-09
8.56051e-09
7.64397e-09
7.51136e-09
0.000217028
4.55182e-05
8.17999e-05
7.20622e-05
5.67803e-05
4.32078e-05
3.1635e-05
1.8571e-05
4.572e-06
1.37174e-05
5.52013e-09
4.10945e-09
3.64451e-09
3.49453e-09
3.64451e-09
3.31455e-09
3.53952e-09
2.84962e-09
3.13458e-09
3.39247e-09
4.8046e-09
2.98335e-09
2.77713e-09
2.68089e-09
2.11721e-09
2.46092e-09
5.87284e-06
5.63776e-06
1.00155e-07
1.29788e-05
0.00026367
2.46295e-05
3.11132e-05
3.23213e-05
2.93841e-05
2.43935e-05
1.88211e-05
1.33927e-05
8.30917e-06
3.39764e-06
7.02953e-06
1.93239e-06
1.18516e-06
7.96293e-07
6.59832e-07
5.89359e-07
4.83995e-07
2.90788e-07
4.11221e-08
5.5675e-07
0.000341076
0.000242307
0.000118043
6.18498e-05
3.15061e-05
1.57248e-05
6.91399e-06
7.19807e-07
5.93195e-06
1.07482e-05
1.35824e-07
6.02613e-08
5.38326e-08
4.87969e-08
4.67904e-08
4.46815e-08
4.4886e-08
4.45665e-08
4.34546e-08
3.49255e-08
1.84022e-05
2.74969e-08
2.74531e-08
2.05449e-07
1.62164e-06
2.48778e-06
2.59599e-06
1.81033e-06
4.74393e-07
1.58018e-06
4.04e-05
4.55266e-05
3.56712e-05
2.6788e-05
2.05211e-05
1.57608e-05
1.1646e-05
7.17053e-06
2.49384e-06
3.36767e-06
1.65582e-08
7.6855e-09
7.36172e-09
7.25947e-09
7.14019e-09
6.18589e-09
6.4415e-09
6.21997e-09
6.0666e-09
5.41472e-09
0.000484166
1.3985e-05
8.64425e-05
8.5502e-05
6.60705e-05
4.71335e-05
3.17158e-05
1.74511e-05
4.38788e-06
1.02789e-05
5.92666e-09
2.7467e-09
2.9419e-09
2.80247e-09
2.30054e-09
2.31448e-09
2.17505e-09
2.34237e-09
2.32842e-09
2.22734e-09
3.89481e-09
1.69984e-09
1.89155e-09
1.62316e-09
1.76375e-09
3.76777e-08
3.23105e-06
2.77677e-06
5.89704e-08
6.29569e-06
0.00070651
0.000120401
0.000109579
8.08355e-05
5.55629e-05
3.62426e-05
2.19746e-05
1.12715e-05
2.64464e-06
5.18843e-06
1.83162e-05
2.06244e-06
2.30533e-06
2.39188e-06
2.07821e-06
1.46079e-06
6.39798e-07
3.59562e-07
1.59883e-06
3.06506e-06
0.000488608
0.000366104
0.000160022
7.56166e-05
3.3707e-05
1.38334e-05
3.94524e-06
2.39442e-06
9.78477e-06
1.59031e-05
8.13493e-08
4.49e-08
3.92682e-08
3.18066e-08
2.7256e-08
2.40718e-08
2.09826e-08
2.05193e-08
1.94024e-08
2.28307e-08
5.91092e-05
3.55143e-05
2.0579e-05
1.33238e-05
9.09389e-06
6.32669e-06
4.21756e-06
2.29747e-06
5.02972e-07
1.41482e-06
2.96679e-05
3.75531e-05
3.10912e-05
2.32519e-05
1.70001e-05
1.22127e-05
8.40207e-06
4.94127e-06
1.75067e-06
1.81663e-06
1.09517e-08
4.97437e-09
5.03773e-09
4.56248e-09
4.54663e-09
4.03969e-09
4.32485e-09
3.83375e-09
3.56443e-09
3.43932e-09
0.000831906
0.000116927
6.40564e-05
8.2025e-05
6.56219e-05
4.61788e-05
2.99583e-05
1.60456e-05
4.05205e-06
8.24205e-06
4.02113e-09
2.28124e-09
2.16458e-09
1.72389e-09
1.72389e-09
1.58131e-09
1.93128e-09
1.33504e-09
1.58131e-09
1.77761e-09
3.56744e-09
8.67346e-10
1.10497e-09
1.36637e-09
1.0218e-09
1.27132e-09
1.11686e-09
3.25195e-07
5.07338e-09
1.81666e-06
0.00322096
6.52982e-05
4.86559e-05
2.61129e-05
1.08075e-05
1.59157e-06
4.00747e-06
7.87517e-06
1.13618e-05
1.5248e-05
1.96327e-05
1.47083e-05
1.09793e-05
7.52271e-06
4.54836e-06
2.09873e-06
1.89539e-08
1.93171e-06
4.02624e-06
6.24425e-06
0.000554197
0.000460081
0.000178624
7.51064e-05
2.80746e-05
8.03474e-06
5.59419e-07
5.47207e-06
1.1907e-05
1.84113e-05
2.42825e-08
3.06068e-08
2.75362e-08
2.21571e-08
1.76948e-08
1.07914e-08
4.8158e-09
1.72308e-09
8.84738e-09
2.47315e-08
5.06749e-05
3.43448e-05
1.94388e-05
1.21221e-05
7.80834e-06
5.06261e-06
3.13757e-06
1.61226e-06
3.06652e-07
9.78077e-07
1.66921e-05
2.01401e-05
1.71065e-05
1.28193e-05
9.22886e-06
6.44879e-06
4.28109e-06
2.44983e-06
8.52828e-07
8.2574e-07
6.78689e-09
2.68035e-09
3.06326e-09
2.82763e-09
2.72454e-09
2.51835e-09
2.72454e-09
1.95872e-09
2.63617e-09
2.03562e-09
0.00106628
0.000214001
2.20558e-05
5.92152e-05
5.1284e-05
3.64748e-05
2.32888e-05
1.22313e-05
2.81711e-06
6.36858e-06
1.32961e-09
1.3134e-09
1.08446e-09
1.27725e-09
1.2893e-09
9.76013e-10
8.91666e-10
8.67567e-10
9.15765e-10
4.64619e-10
1.24237e-06
7.99224e-07
7.06907e-10
7.84224e-10
9.94087e-10
5.1549e-07
8.65375e-07
4.51934e-07
3.78858e-08
1.09962e-06
0.00246918
0.000632342
0.000440858
0.000299691
0.000209246
0.00014374
9.26382e-05
5.21151e-05
9.47664e-06
2.49695e-05
1.53803e-05
8.72086e-06
4.13581e-06
8.35883e-07
1.05028e-06
2.11277e-06
2.80265e-06
3.40718e-06
4.07231e-06
4.46963e-06
0.000286413
0.000371818
0.000124248
4.55349e-05
1.26959e-05
1.87194e-07
4.4022e-06
6.81577e-06
1.05584e-05
1.51954e-05
1.87241e-08
3.09073e-09
1.35335e-08
2.02797e-08
2.63893e-08
3.02399e-08
3.47579e-08
3.76843e-08
3.9317e-08
3.83963e-08
2.06077e-05
1.52358e-05
8.33323e-06
5.0135e-06
3.09674e-06
1.91423e-06
1.12287e-06
5.30913e-07
3.52933e-08
4.50884e-07
6.1813e-06
5.79262e-06
4.9069e-06
3.65434e-06
2.58884e-06
1.75876e-06
1.11839e-06
5.97825e-07
1.53084e-07
3.02343e-07
3.57143e-09
1.39648e-09
1.54708e-09
1.28695e-09
1.13635e-09
1.36909e-09
1.58815e-09
1.21849e-09
1.23219e-09
6.19502e-10
0.000714259
0.000178506
8.41657e-06
2.3703e-05
2.33621e-05
1.68686e-05
1.04661e-05
5.05591e-06
3.95531e-07
3.98587e-06
1.89244e-10
8.96135e-11
6.49698e-10
4.25664e-10
3.13647e-10
6.04891e-10
2.80042e-10
4.36866e-10
3.13647e-10
6.49927e-10
9.12185e-05
0.000129189
8.54029e-05
5.05418e-05
2.88951e-05
1.62737e-05
8.71132e-06
3.49535e-06
8.40299e-07
5.56393e-06
0.00460974
0.000677707
0.00050468
0.00037889
0.000282777
0.000207452
0.000147078
9.77419e-05
5.60036e-05
2.16138e-05
9.71621e-06
2.05628e-05
1.42898e-05
9.45096e-06
6.14504e-06
3.92006e-06
2.3669e-06
1.13433e-06
8.40498e-08
1.6313e-06
9.83494e-05
8.28412e-05
1.89243e-05
4.7316e-06
5.54253e-07
2.08651e-06
2.39917e-06
2.54557e-06
3.12369e-06
4.38904e-06
1.46325e-08
1.58077e-08
7.56019e-09
1.58458e-09
3.00689e-09
8.0852e-09
1.24476e-08
1.73159e-08
2.1306e-08
2.51243e-08
1.63855e-06
1.72935e-06
8.84984e-07
4.9799e-07
2.80414e-07
1.49355e-07
6.5178e-08
3.66554e-09
5.18904e-08
1.18312e-07
7.40303e-07
4.07763e-07
3.27393e-07
2.29898e-07
1.48956e-07
8.59542e-08
3.79871e-08
9.45023e-10
3.61543e-08
8.14868e-08
1.42779e-09
5.21831e-10
5.47286e-10
4.70921e-10
6.74562e-10
4.83648e-10
2.92734e-10
2.41824e-10
4.83648e-10
3.691e-10
5.39756e-05
2.92246e-05
3.40432e-06
1.76795e-06
2.05661e-06
1.29412e-06
4.66131e-07
2.50025e-07
9.13648e-07
1.54121e-06
2.02057e-09
7.28944e-11
2.81164e-10
3.95712e-10
3.64472e-10
8.33078e-11
6.24809e-11
4.06126e-10
2.3951e-10
1.04135e-11
0.000260088
0.000155629
9.05319e-05
4.98394e-05
2.61563e-05
1.2612e-05
4.56768e-06
7.6607e-07
5.19557e-06
9.62543e-06
0.533712
0.424157
0.535987
0.928855
0.692196
0.628773
0.744551
1.12329
0.852607
0.794006
0.940617
1.44538
0.616674
0.593185
0.702783
1.09999
0.448186
0.446931
0.530912
0.859928
0.294625
0.291465
0.361669
0.615868
0.194094
0.185599
0.247976
0.445945
0.123528
0.114211
0.163633
0.305159
0.0844325
0.0773528
0.116627
0.220761
0.0633534
0.0586354
0.0943869
0.178549
0.0365144
0.00182685
1.42724e-05
0.0192587
0.0792984
0.00657957
1.05451e-05
0.0412436
0.137139
0.0152543
5.62567e-06
0.0706215
0.12499
0.0170221
2.86707e-06
0.0603893
0.10967
0.0169048
1.46299e-06
0.0487192
0.0841338
0.0140553
7.46332e-07
0.0371701
0.0627613
0.0108037
3.90265e-07
0.0299094
0.0445115
0.00801902
2.25318e-07
0.0224118
0.0337694
0.00677811
0.000990173
0.0175703
0.028255
0.00776563
0.00360691
0.0146459
0.0174886
0.0137042
0.0143589
0.0199648
0.0391125
0.0269001
0.0263779
0.0410901
0.0751863
0.0488252
0.0493794
0.0798467
0.0709844
0.0430382
0.0446553
0.0749511
0.0646346
0.0368315
0.03935
0.0696155
0.0511341
0.0276325
0.0302809
0.0560309
0.0392353
0.0201194
0.0226916
0.0442517
0.0285367
0.0139288
0.0160524
0.0325024
0.0220268
0.0098637
0.0117456
0.0247267
0.0186669
0.00795125
0.00992068
0.0202781
0.00197312
0.00141918
0.00136289
0.00198111
0.0061554
0.0042087
0.00388997
0.00635255
0.0162684
0.0110278
0.0104927
0.0166159
0.0189919
0.012526
0.0123703
0.0189374
0.0205211
0.0130639
0.0135091
0.0206045
0.0185803
0.0114345
0.0122639
0.0187922
0.0158778
0.00939335
0.0104194
0.0163622
0.0126895
0.00725549
0.00825476
0.0131697
0.0104211
0.00547736
0.00652977
0.0106667
0.00916601
0.00472033
0.00605547
0.00946007
0.000627961
0.00058253
0.00061107
0.000830471
0.00228553
0.00211709
0.00237716
0.00342216
0.00609261
0.00574253
0.00640356
0.00889291
0.00725338
0.00651886
0.00703252
0.00956992
0.00827514
0.00706028
0.00756602
0.0102713
0.00794505
0.00642931
0.0069223
0.00937597
0.0071726
0.00549888
0.00600804
0.00820975
0.00611092
0.00445756
0.00494842
0.00677822
0.00539869
0.0036177
0.00419636
0.00572639
0.00511571
0.00340948
0.00424463
0.00545476
0.000117015
0.000107458
0.000107047
0.000166775
0.000769556
0.000723876
0.000847777
0.00123694
0.00244752
0.00248312
0.00298111
0.00410321
0.00299221
0.00303104
0.00352237
0.00469476
0.00352557
0.00350317
0.00399441
0.00526466
0.00351262
0.00336888
0.00379401
0.00495322
0.00327621
0.00301691
0.00338681
0.00440164
0.00295119
0.00258765
0.00290382
0.00373981
0.00280881
0.00226851
0.00262058
0.0032796
0.00275668
0.00219024
0.00268246
0.00314554
1.21432e-05
1.06309e-05
5.99042e-06
2.48494e-05
0.000270193
0.00025099
0.000300494
0.000459214
0.00116644
0.00119246
0.00147505
0.00206232
0.00147257
0.00155506
0.00188085
0.00251071
0.00176249
0.0018824
0.00224617
0.00294459
0.00178189
0.0018799
0.00221115
0.00286191
0.00166325
0.00172356
0.00200997
0.00257285
0.0015523
0.00154553
0.00178075
0.00225117
0.00155124
0.0014404
0.00167335
0.00201704
0.00153445
0.00140382
0.00169167
0.00191629
1.16005e-05
4.18651e-06
4.03915e-06
4.17422e-06
7.40791e-05
6.25204e-05
7.48459e-05
0.000128494
0.000531362
0.00052538
0.000656177
0.00094298
0.000742498
0.000784985
0.000962169
0.00129315
0.000931596
0.00101543
0.00123594
0.00162602
0.000982246
0.00107428
0.00129376
0.00167822
0.000918838
0.00100813
0.00120622
0.00153841
0.000886781
0.000946883
0.00111489
0.00140311
0.000875908
0.000891605
0.00103935
0.00123435
0.000880468
0.000894264
0.00106461
0.00119501
9.3492e-06
3.25628e-06
3.15291e-06
3.25486e-06
1.13463e-05
5.91703e-06
5.83438e-06
1.97364e-05
0.000229818
0.000208121
0.000259993
0.000398527
0.000369007
0.000384496
0.000473256
0.000642388
0.000489302
0.000536049
0.000658359
0.000870805
0.00055313
0.000613674
0.000746988
0.000973432
0.000521569
0.000589491
0.000714352
0.000909315
0.000528349
0.000585756
0.000698038
0.00087859
0.000497263
0.000537402
0.000626635
0.000741821
0.000521023
0.000568479
0.000670162
0.000752187
7.25968e-06
2.42791e-06
2.32798e-06
2.42884e-06
2.2546e-06
8.69384e-07
8.46294e-07
9.35539e-07
8.62926e-05
5.97931e-05
7.29573e-05
0.000137272
0.00017696
0.00017834
0.000219159
0.000301913
0.000247918
0.000269711
0.000333014
0.000444416
0.00030631
0.000340638
0.000417077
0.000547712
0.000287656
0.000331311
0.000404257
0.000513322
0.0003144
0.000355519
0.000426582
0.000539057
0.000283586
0.000317887
0.000370733
0.000439614
0.000313939
0.000357938
0.000418964
0.000471275
6.023e-06
1.99592e-06
1.92948e-06
1.99985e-06
1.82665e-06
6.37386e-07
6.22746e-07
6.94179e-07
2.18195e-05
2.75361e-07
2.62043e-07
2.15489e-05
8.07557e-05
7.67293e-05
9.34061e-05
0.000131352
0.000120585
0.000128635
0.000159443
0.000216061
0.000167563
0.000184981
0.000227492
0.000302526
0.000151972
0.000177513
0.000217742
0.000275264
0.000186247
0.000212026
0.000255803
0.000326043
0.000159829
0.000182825
0.000213346
0.000253577
0.000189898
0.000221878
0.000258843
0.000291527
2.85273e-06
8.72086e-07
8.70123e-07
9.66557e-07
1.35372e-06
4.6649e-07
4.54416e-07
5.08778e-07
5.34456e-07
1.94433e-07
1.9142e-07
2.12297e-07
3.36048e-05
2.87023e-05
3.39844e-05
4.89399e-05
5.50127e-05
5.64991e-05
7.02174e-05
9.76653e-05
9.05565e-05
9.83943e-05
0.000121441
0.000164533
7.50928e-05
8.90946e-05
0.000109824
0.000137357
0.000110309
0.000125052
0.000151691
0.000196168
8.59965e-05
9.93931e-05
0.000116034
0.000137982
0.000113845
0.000134644
0.000157219
0.000176833
7.23726e-06
2.01958e-06
1.77462e-06
1.7263e-06
9.97278e-07