/*--------------------------------*- C++ -*----------------------------------*\
| =========                 |                                                 |
| \\      /  F ield         | foam-extend: Open Source CFD                    |
|  \\    /   O peration     | Version:     4.0                                |
|   \\  /    A nd           | Web:         http://www.foam-extend.org         |
|    \\/     M anipulation  |                                                 |
\*---------------------------------------------------------------------------*/
FoamFile
{
    version     2.0;
    format      ascii;
    class       volScalarField;
    location    "2700";
    object      k;
}
// * * * * * * * * * * * * * * * * * * * * * * * * * * * * * * * * * * * * * //

dimensions      [0 2 -2 0 0 0 0];

internalField   nonuniform List<scalar> 
34480
(
8.76721
8.7648
8.76467
8.76645
8.77026
8.77638
8.79133
8.85472
9.07726
9.68613
9.27992
8.66819
8.5755
8.85514
9.45424
10.3411
11.9397
15.8518
28.7375
67.0237
15.0401
13.5707
13.1246
13.2729
13.8433
14.8761
17.2096
22.9053
41.6355
101.406
14.4917
12.9641
12.514
12.7082
13.4187
14.8332
18.0053
25.4063
49.2499
127.781
13.4286
12.0127
11.6618
11.9287
12.7803
14.4904
18.2598
26.956
55.27
151.575
12.2197
10.9462
10.6338
10.9156
11.8072
13.7007
17.9422
27.9025
61.0604
176.657
11.3268
10.2066
9.95196
10.227
11.1221
13.0877
17.5896
28.42
65.5181
198.015
9.83984
9.00355
8.79871
9.01445
9.72701
11.3972
15.4915
26.1247
64.544
205.594
6.88244
6.61389
6.56523
6.67526
7.0047
7.72931
9.72989
16.2735
43.4114
149.668
9.23849
9.23874
9.24461
9.2575
9.27562
9.29723
9.32324
9.36181
9.43283
9.506
8.67858
8.67558
8.675
8.67677
8.68154
8.68989
8.70314
8.73419
8.80843
9.06734
7.92997
7.51009
7.41675
7.57446
8.02148
8.86387
10.3054
12.1078
15.4274
41.173
12.2354
11.1727
10.8805
11.0837
11.7624
13.0235
15.2213
18.1223
23.7875
66.4125
12.1395
10.9712
10.6524
10.8956
11.7007
13.2512
16.0319
20.0142
28.3902
86.1791
11.5988
10.465
10.1981
10.4742
11.367
13.1084
16.297
21.0753
31.8418
104.294
10.8053
9.75494
9.49954
9.77338
10.6717
12.4985
15.9681
21.4559
34.8376
123.7
10.2148
9.26272
9.04554
9.29913
10.1726
12.0009
15.608
21.5521
37.1092
140.952
9.05421
8.33232
8.14819
8.33975
9.0175
10.5152
13.6623
19.2851
35.7042
147.363
6.64488
6.39754
6.34334
6.41752
6.68223
7.26724
8.61411
11.5618
22.4916
102.418
9.11132
9.10663
9.10719
9.1144
9.12708
9.1429
9.16388
9.19961
9.27262
9.45787
8.57685
8.57397
8.57307
8.57405
8.57719
8.58215
8.58793
8.60085
8.62963
8.69529
6.78265
6.57104
6.517
6.5929
6.82432
7.27133
8.06586
9.3598
11.1353
16.4367
9.69146
9.07135
8.91801
9.08561
9.60529
10.5603
12.1753
14.5698
17.5471
29.1788
9.88909
9.1511
8.96574
9.17964
9.83905
11.0948
13.2873
16.6419
21.1137
40.7607
9.75968
9.0045
8.84169
9.07843
9.81695
11.2606
13.8638
17.9406
23.778
52.2519
9.33106
8.60365
8.43614
8.67407
9.42844
10.9743
13.8889
18.6188
26.0238
64.9004
9.01606
8.33166
8.18545
8.40807
9.14959
10.7177
13.8026
18.9564
27.7477
76.9244
8.19531
7.66698
7.53772
7.70812
8.28316
9.56564
12.2713
17.1625
26.652
82.8778
6.37361
6.18138
6.14155
6.2025
6.41344
6.87618
7.92509
10.3685
16.6987
57.106
8.99179
8.98403
8.98151
8.98543
8.99505
9.00815
9.02618
9.05974
9.13853
9.33855
8.46138
8.45956
8.45905
8.45981
8.46198
8.46475
8.46595
8.46934
8.47827
8.49768
6.00864
5.91784
5.89074
5.92158
6.0218
6.21441
6.55112
7.13253
7.996
9.88094
7.80875
7.4961
7.42322
7.51866
7.82015
8.38299
9.33405
10.821
12.6577
17.0736
8.12481
7.70737
7.60362
7.74111
8.16725
8.98956
10.4232
12.7267
15.5982
23.5538
8.24748
7.78887
7.69202
7.84984
8.34809
9.33567
11.1225
14.0847
17.8846
30.1247
8.08394
7.61551
7.5059
7.67287
8.20246
9.30161
11.3876
14.9953
19.8641
37.6352
7.97592
7.51161
7.41215
7.57367
8.11064
9.25629
11.5228
15.5771
21.3677
44.9592
7.44533
7.07504
6.983
7.11145
7.53536
8.4814
10.4799
14.382
20.6524
48.768
6.13164
5.98467
5.95477
6.00075
6.15815
6.49614
7.22482
8.98542
12.9806
33.0375
8.85789
8.85009
8.84727
8.85065
8.85976
8.87339
8.89224
8.92614
8.99932
9.15519
8.33371
8.33288
8.33271
8.33319
8.33437
8.33523
8.33364
8.33226
8.33219
8.33433
5.53764
5.50319
5.4901
5.49998
5.53617
5.60492
5.72019
5.91163
6.17865
6.62113
6.56606
6.42838
6.39758
6.43785
6.57423
6.83253
7.27154
7.98207
8.87904
10.3566
6.87207
6.65542
6.5988
6.66955
6.89678
7.33942
8.11414
9.40819
11.0453
14.0195
7.10209
6.84236
6.78601
6.87332
7.15882
7.72697
8.75926
10.5599
12.8858
17.7757
7.09733
6.81073
6.73902
6.83952
7.16332
7.83579
9.11554
11.4644
14.6137
22.2337
7.12086
6.81807
6.74998
6.85193
7.19683
7.9288
9.37338
12.1313
15.9826
26.6474
6.81346
6.56184
6.49575
6.58183
6.86393
7.48522
8.77851
11.4747
15.6918
29.013
5.91845
5.80757
5.78482
5.81663
5.92764
6.15996
6.63031
7.74139
10.1054
19.2392
8.71445
8.70675
8.70373
8.7066
8.71506
8.72848
8.74696
8.7784
8.83992
8.95244
8.19475
8.19468
8.19477
8.19505
8.1955
8.19509
8.19261
8.19005
8.18787
8.18655
5.27035
5.25895
5.25262
5.25487
5.26618
5.28801
5.32348
5.37806
5.44749
5.53732
5.80943
5.758
5.74829
5.76171
5.81271
5.90957
6.07213
6.33471
6.67419
7.1389
6.04302
5.93933
5.91055
5.94303
6.05126
6.25974
6.61646
7.21169
7.98782
9.10664
6.28233
6.14567
6.11583
6.15947
6.30772
6.59749
7.11206
8.02113
9.2379
11.2029
6.3511
6.18552
6.14132
6.19753
6.38056
6.75305
7.4444
8.7405
10.5397
13.8037
6.44216
6.2542
6.21042
6.27056
6.47789
6.90718
7.72905
9.3406
11.6533
16.3938
6.29322
6.13033
6.08552
6.14048
6.31826
6.6992
7.46012
9.07706
11.6574
17.7685
5.73295
5.6518
5.63557
5.6569
5.73316
5.88844
6.18401
6.83623
8.10063
11.8449
8.56053
8.55321
8.55018
8.55265
8.5604
8.57304
8.59038
8.61824
8.66627
8.74103
8.04508
8.04552
8.0458
8.04593
8.0459
8.04471
8.0424
8.03992
8.03767
8.03601
5.12661
5.12321
5.11975
5.11968
5.12257
5.12897
5.13907
5.15344
5.16958
5.18565
5.37594
5.361
5.36013
5.363
5.37802
5.40721
5.45622
5.53389
5.63282
5.75051
5.52655
5.47964
5.4657
5.47947
5.52758
5.61834
5.76707
6.0038
6.30875
6.68034
5.7272
5.65977
5.64549
5.66547
5.73717
5.87329
6.1045
6.49907
7.03139
7.75012
5.81506
5.724
5.69812
5.72771
5.82545
6.01858
6.36062
6.98392
7.86726
9.18691
5.92898
5.81722
5.79063
5.82394
5.94245
6.18001
6.61216
7.43969
8.65434
10.6616
5.88358
5.78312
5.75429
5.78768
5.89432
6.11619
6.53637
7.40181
8.80326
11.4704
5.57814
5.52017
5.5092
5.52294
5.57398
5.67523
5.85871
6.23086
6.89041
8.32519
8.39558
8.38887
8.38599
8.38811
8.39503
8.40639
8.42194
8.44564
8.48223
8.53152
7.88502
7.88578
7.88618
7.88621
7.88591
7.88456
7.88269
7.8807
7.87891
7.87757
5.05199
5.05077
5.04852
5.04801
5.04863
5.05067
5.05363
5.05744
5.061
5.0634
5.13787
5.13622
5.13826
5.13786
5.14011
5.14558
5.15602
5.17355
5.19603
5.22002
5.21961
5.19898
5.19236
5.19796
5.21875
5.25716
5.31721
5.40615
5.51475
5.62678
5.36809
5.33678
5.33078
5.33923
5.37218
5.43287
5.53109
5.68807
5.8927
6.12695
5.44708
5.39923
5.38479
5.39967
5.44976
5.54585
5.70754
5.98376
6.36786
6.85609
5.55774
5.4938
5.47856
5.49602
5.56126
5.68793
5.90593
6.29792
6.86483
7.64809
5.57428
5.51557
5.49807
5.51748
5.57854
5.70233
5.92565
6.3573
7.04569
8.13534
5.45382
5.41323
5.40625
5.41484
5.44843
5.51344
5.62684
5.83779
6.18542
6.75856
8.21908
8.21316
8.21055
8.21234
8.21835
8.22809
8.24144
8.26084
8.28805
8.32096
7.71466
7.71561
7.71608
7.71606
7.7156
7.71448
7.71309
7.71163
7.71033
7.70934
5.01365
5.01275
5.01108
5.01065
5.01093
5.01192
5.01317
5.01455
5.0155
5.01565
5.01145
5.01361
5.01609
5.01508
5.01375
5.01244
5.01195
5.01303
5.01553
5.01856
5.04476
5.03554
5.03232
5.0346
5.04369
5.06024
5.08501
5.11906
5.15789
5.19173
5.14541
5.13164
5.12959
5.13288
5.1475
5.17374
5.21451
5.27517
5.34997
5.42253
5.20532
5.18122
5.1735
5.18072
5.20562
5.25217
5.32729
5.44636
5.60503
5.77831
5.30063
5.26519
5.25694
5.26566
5.30064
5.36669
5.47511
5.65553
5.90511
6.1934
5.35056
5.31836
5.30843
5.31926
5.35258
5.4188
5.5342
5.74204
6.06227
6.49184
5.35789
5.3298
5.32566
5.33096
5.35294
5.39452
5.46461
5.58462
5.76939
6.0209
8.03061
8.0256
8.02335
8.02483
8.02985
8.03783
8.04884
8.06411
8.08383
8.10571
7.53417
7.53501
7.53551
7.53547
7.53501
7.53422
7.53324
7.53222
7.53133
7.5306
4.99322
4.99239
4.99109
4.99082
4.99116
4.99192
4.99283
4.99375
4.99433
4.99423
4.94616
4.94879
4.95088
4.95006
4.94828
4.94586
4.94332
4.94113
4.93966
4.93897
4.94928
4.94483
4.94314
4.94413
4.94835
4.95593
4.96687
4.98092
4.99593
5.00713
5.01295
5.00712
5.00665
5.00784
5.01426
5.02557
5.04258
5.06624
5.09365
5.11683
5.05337
5.04169
5.03772
5.04115
5.05326
5.07543
5.1101
5.16146
5.22692
5.2911
5.13023
5.11096
5.10672
5.11094
5.12948
5.16363
5.21765
5.30112
5.41039
5.51827
5.19569
5.17943
5.17428
5.18011
5.19734
5.23111
5.28882
5.38657
5.53154
5.7058
5.28669
5.26729
5.26504
5.26838
5.28293
5.30978
5.35334
5.42231
5.52054
5.64046
7.82987
7.82583
7.82398
7.82517
7.82919
7.83546
7.84418
7.85576
7.86967
7.88398
7.34328
7.34395
7.34438
7.34434
7.34404
7.3435
7.34284
7.34215
7.34156
7.34101
4.98135
4.98063
4.97967
4.97952
4.97986
4.98054
4.98135
4.98216
4.98272
4.98262
4.91316
4.91532
4.91688
4.91637
4.91498
4.91301
4.91082
4.90874
4.9072
4.90635
4.89944
4.897
4.89603
4.89651
4.89866
4.90247
4.90779
4.91429
4.92088
4.92515
4.93748
4.93493
4.93492
4.93534
4.93828
4.94342
4.95091
4.96067
4.97119
4.97929
4.96218
4.95671
4.95471
4.95634
4.96217
4.97264
4.98862
5.01099
5.03837
5.06425
5.02226
5.01175
5.00965
5.01173
5.02165
5.03952
5.06688
5.1065
5.15535
5.19849
5.09316
5.08592
5.08362
5.08668
5.09501
5.11121
5.13865
5.18313
5.2465
5.32169
5.23575
5.22222
5.22116
5.2234
5.23332
5.25108
5.27852
5.31882
5.37093
5.4318
7.6167
7.6136
7.61216
7.61308
7.61615
7.62088
7.62754
7.636
7.64554
7.65473
7.14175
7.14229
7.14263
7.14262
7.14243
7.14207
7.14164
7.14119
7.14079
7.14036
4.97347
4.97291
4.97226
4.97218
4.97249
4.97307
4.97376
4.97446
4.97501
4.97486
4.89667
4.89828
4.89938
4.89911
4.89821
4.89691
4.89546
4.89407
4.89314
4.89263
4.87472
4.87323
4.87265
4.87291
4.87409
4.87614
4.87897
4.8823
4.88565
4.88753
4.89636
4.89504
4.89504
4.89522
4.89676
4.89943
4.9032
4.9078
4.91235
4.91573
4.91008
4.90757
4.90657
4.90737
4.91017
4.91514
4.92253
4.93242
4.94409
4.95558
4.95689
4.95095
4.94991
4.95103
4.95657
4.9663
4.98068
5.0004
5.02319
5.04215
5.02816
5.02567
5.02497
5.02655
5.03021
5.03731
5.04926
5.06827
5.09394
5.12882
5.20037
5.19076
5.19041
5.19207
5.19917
5.2113
5.22897
5.25309
5.28069
5.31355
7.39105
7.38879
7.38774
7.38842
7.39063
7.39411
7.39899
7.40495
7.4113
7.41709
6.92935
6.9298
6.93007
6.93007
6.92996
6.92973
6.92945
6.92915
6.9289
6.92854
4.96746
4.9671
4.9667
4.96667
4.96693
4.96737
4.96792
4.96848
4.96899
4.96874
4.88842
4.88959
4.89035
4.89025
4.88972
4.88897
4.88814
4.88736
4.88696
4.88674
4.86323
4.86231
4.86198
4.86212
4.86277
4.86388
4.86541
4.86721
4.86908
4.87002
4.87503
4.87413
4.87402
4.87413
4.8751
4.87678
4.87907
4.88173
4.88415
4.88599
4.88185
4.88068
4.88018
4.88058
4.88196
4.88436
4.88783
4.8923
4.89739
4.90306
4.91901
4.9154
4.91485
4.91558
4.9189
4.92458
4.93263
4.94318
4.95461
4.96418
4.98843
4.98821
4.98835
4.98917
4.99053
4.99313
4.99747
5.00457
5.0131
5.03087
5.17623
5.16923
5.16927
5.17066
5.176
5.18458
5.19633
5.21124
5.2258
5.24495
7.15297
7.15142
7.15072
7.15119
7.1527
7.1552
7.15864
7.16267
7.16676
7.17034
6.70592
6.70632
6.70652
6.70653
6.70647
6.70632
6.70614
6.70595
6.70578
6.70546
4.96235
4.96222
4.96202
4.96203
4.96222
4.96253
4.96293
4.96335
4.96382
4.96346
4.88422
4.8851
4.8856
4.88559
4.88533
4.88496
4.88456
4.88421
4.88418
4.88417
4.85845
4.85792
4.85776
4.85784
4.85815
4.8587
4.85946
4.86039
4.86147
4.862
4.86459
4.86384
4.86362
4.86371
4.86442
4.86565
4.86728
4.86911
4.87071
4.87198
4.86743
4.86685
4.86658
4.86679
4.8675
4.86871
4.87039
4.87248
4.87478
4.8779
4.89783
4.89543
4.89509
4.89565
4.89783
4.90143
4.90631
4.91248
4.91882
4.92462
4.96448
4.96519
4.96573
4.96618
4.96649
4.96704
4.96787
4.96965
4.97065
4.98099
5.15953
5.1544
5.15466
5.15594
5.16005
5.16639
5.17452
5.18409
5.19163
5.20392
6.90272
6.90165
6.90122
6.90152
6.90256
6.90428
6.9066
6.90922
6.91173
6.91392
6.47141
6.47175
6.4719
6.47192
6.47189
6.4718
6.47168
6.47156
6.47144
6.47115
4.95775
4.95784
4.95779
4.95785
4.95797
4.95817
4.95843
4.95871
4.95917
4.95871
4.88198
4.88264
4.88296
4.88301
4.88291
4.88279
4.88268
4.88261
4.88284
4.88298
4.85696
4.85671
4.85667
4.8567
4.85681
4.85699
4.85727
4.85768
4.85828
4.85862
4.85988
4.85922
4.85894
4.85901
4.85955
4.86051
4.86175
4.86312
4.86432
4.86531
4.86061
4.86026
4.86009
4.8602
4.86059
4.86125
4.86212
4.86315
4.86424
4.86613
4.88611
4.88438
4.88413
4.8846
4.88613
4.88857
4.89176
4.89568
4.89957
4.90373
4.94944
4.95038
4.95107
4.95134
4.95125
4.951
4.95044
4.95008
4.94803
4.95504
5.14739
5.1436
5.14402
5.14521
5.14849
5.15337
5.15922
5.16563
5.16928
5.17803
6.6405
6.63981
6.63953
6.63973
6.64042
6.64155
6.64304
6.64465
6.64612
6.64742
6.22587
6.22616
6.22627
6.22629
6.22628
6.22622
6.22615
6.22607
6.22599
6.22571
4.95347
4.95377
4.95384
4.95394
4.95402
4.95411
4.95425
4.95442
4.95492
4.95441
4.88063
4.88113
4.8813
4.88135
4.88136
4.8814
4.88147
4.88159
4.88198
4.88229
4.85702
4.85695
4.85699
4.85699
4.85697
4.85694
4.85694
4.85704
4.85735
4.85764
4.85804
4.85747
4.85719
4.85723
4.85764
4.85836
4.8593
4.86032
4.86124
4.86205
4.85775
4.85749
4.85736
4.85742
4.85765
4.85803
4.85851
4.85907
4.85962
4.86082
4.87923
4.87793
4.87772
4.8781
4.8792
4.88091
4.88309
4.88569
4.88825
4.89155
4.93853
4.93935
4.94005
4.94025
4.94009
4.93964
4.93871
4.93771
4.93472
4.94011
5.13759
5.13481
5.1353
5.13643
5.13913
5.14298
5.14736
5.15182
5.15324
5.16
6.36666
6.36624
6.36607
6.3662
6.36663
6.36732
6.36822
6.36915
6.36995
6.37071
5.96959
5.96984
5.96992
5.96994
5.96994
5.9699
5.96985
5.9698
5.96973
5.96947
4.94938
4.94989
4.95004
4.95018
4.95023
4.95025
4.95027
4.95035
4.95092
4.95047
4.87956
4.8799
4.87995
4.87999
4.88005
4.88018
4.88036
4.88059
4.88107
4.88157
4.85775
4.85776
4.85782
4.8578
4.85772
4.8576
4.85748
4.85742
4.85755
4.85786
4.85756
4.85709
4.85685
4.85686
4.85714
4.85765
4.85831
4.85904
4.85973
4.86037
4.85687
4.85666
4.85655
4.85657
4.85671
4.85693
4.85721
4.85752
4.85781
4.85858
4.87434
4.87336
4.87318
4.87345
4.87421
4.87538
4.87684
4.87855
4.88027
4.88293
4.92852
4.92907
4.92969
4.92986
4.92974
4.92935
4.92849
4.9275
4.92454
4.92896
5.12816
5.12619
5.12669
5.12776
5.12999
5.13309
5.13645
5.13959
5.13968
5.14511
6.08174
6.0815
6.0814
6.08148
6.08173
6.08212
6.08262
6.08311
6.08349
6.08391
5.70321
5.70342
5.70349
5.7035
5.7035
5.70348
5.70345
5.7034
5.70334
5.70311
4.94521
4.94586
4.94608
4.94626
4.9463
4.94626
4.94619
4.94618
4.94677
4.94657
4.87839
4.87852
4.87849
4.87849
4.87856
4.87873
4.87895
4.87924
4.87971
4.88042
4.85859
4.85858
4.85862
4.85859
4.85851
4.85838
4.85824
4.85815
4.85819
4.85854
4.85769
4.85734
4.85715
4.85715
4.85732
4.85763
4.85805
4.85853
4.85901
4.8595
4.85697
4.85681
4.85673
4.85673
4.8568
4.85691
4.85705
4.8572
4.85734
4.85779
4.8697
4.86899
4.86883
4.869
4.86947
4.87019
4.87108
4.87211
4.8732
4.87524
4.91724
4.91752
4.918
4.91814
4.91805
4.91774
4.91707
4.91626
4.91381
4.91738
5.11634
5.11506
5.11552
5.11649
5.11829
5.12073
5.12328
5.12542
5.1247
5.12893
5.78656
5.78643
5.78638
5.78642
5.78655
5.78674
5.787
5.78721
5.78737
5.78758
5.42759
5.42776
5.4278
5.42781
5.42781
5.4278
5.42778
5.42775
5.4277
5.42751
4.93954
4.94018
4.94055
4.94079
4.94084
4.94075
4.94058
4.94042
4.94078
4.94109
4.87679
4.87667
4.87656
4.87651
4.87657
4.87672
4.87695
4.87723
4.87765
4.87849
4.8591
4.85904
4.85905
4.85901
4.85895
4.85886
4.85877
4.85871
4.85874
4.85908
4.85815
4.85791
4.85779
4.85778
4.85787
4.85804
4.85827
4.85855
4.85884
4.85918
4.8576
4.85751
4.85746
4.85745
4.85746
4.8575
4.85754
4.85758
4.85763
4.85783
4.86472
4.86428
4.86417
4.86424
4.86448
4.86484
4.86528
4.86578
4.86637
4.86774
4.90353
4.90357
4.90386
4.90391
4.90378
4.90347
4.90293
4.9023
4.90068
4.9033
5.09505
5.09435
5.09474
5.09554
5.09688
5.09865
5.10044
5.10169
5.10054
5.10334
5.48212
5.48206
5.48205
5.48206
5.4821
5.48216
5.48224
5.4823
5.48235
5.48245
5.14253
5.14263
5.14264
5.14265
5.14264
5.14264
5.14264
5.14263
5.14263
5.14254
4.92471
4.92528
4.92589
4.92622
4.9263
4.92619
4.92589
4.92549
4.92509
4.92571
4.87368
4.87333
4.87313
4.87303
4.87305
4.87316
4.87336
4.87364
4.87404
4.87487
4.85937
4.8593
4.85928
4.85925
4.85922
4.85919
4.85915
4.85914
4.85916
4.85939
4.85895
4.85883
4.85877
4.85876
4.8588
4.85888
4.85899
4.85912
4.85927
4.85945
4.85863
4.85859
4.85857
4.85856
4.85856
4.85855
4.85854
4.85853
4.85853
4.85857
4.86083
4.86064
4.86059
4.86061
4.8607
4.86083
4.86098
4.86115
4.86139
4.86202
4.88685
4.88669
4.88674
4.88669
4.88651
4.8862
4.88578
4.88536
4.88479
4.88649
5.04091
5.04062
5.04087
5.04138
5.04217
5.0432
5.04422
5.04478
5.04377
5.04482
5.16848
5.16845
5.16846
5.16846
5.16847
5.16847
5.16846
5.16846
5.16843
5.16849
11.269
11.3841
11.3385
11.1223
82.8103
84.8876
85.3475
85.9967
143.137
148.611
149.081
147.836
202.8
212.237
212.104
207.815
264.482
278.143
276.938
269.486
332.777
351.058
348.958
340.215
395.161
417.813
415.43
408.038
433.169
459.442
457.495
452.919
345.683
368.261
365.711
364.362
11.4769
11.7155
11.5594
11.1514
9.71377
9.77314
9.77598
9.73199
76.0776
79.3216
80.0811
80.2023
133.884
144.805
145.906
143.741
192.905
214.534
215.07
209.174
256.139
290.982
290.035
280.086
329.511
380.274
378.499
365.624
399.601
466.623
465.655
452.626
446.088
527.577
528.618
517.427
350.523
422.883
420.974
416.139
10.7115
10.9424
10.8719
10.6516
8.77684
8.78981
8.7888
8.77729
26.5381
28.9548
28.2176
25.7085
49.3567
53.7629
52.0989
47.4252
74.5824
81.3418
78.2225
70.7072
103.456
112.996
107.818
96.7358
139.442
152.805
145.178
129.285
177.31
194.675
184.516
163.493
207.529
228.706
216.447
190.911
164.729
181.623
170.14
149.304
9.91284
10.0036
9.98042
9.88121
8.51189
8.51445
8.51511
8.51415
11.4729
11.7226
11.693
11.4959
21.2126
21.9399
21.8765
21.3344
31.997
33.4838
33.232
31.9164
44.5103
46.9439
46.2797
43.7578
60.6338
64.4024
63.0828
58.7667
78.0555
83.1685
80.9019
74.4581
92.5755
99.1263
95.8397
87.1477
71.9351
77.0756
73.564
65.9627
9.4487
9.49313
9.49006
9.44964
8.33287
8.33397
8.33423
8.33358
7.04185
7.13341
7.15861
7.12876
11.6778
11.9741
12.0571
11.9711
16.871
17.4856
17.586
17.3194
22.8365
23.8564
23.8923
23.2885
30.7128
32.338
32.2254
31.0366
39.2231
41.4579
41.0404
39.0612
46.2615
49.1977
48.3809
45.4008
34.401
36.6198
35.4297
32.5496
9.09836
9.12229
9.12391
9.10695
8.18255
8.18347
8.18356
8.18279
5.60668
5.62097
5.62619
5.62447
7.45584
7.52578
7.55851
7.55988
9.93737
10.1211
10.1884
10.1633
12.8335
13.1794
13.2657
13.1652
16.796
17.4126
17.5025
17.2348
21.0456
21.9425
21.966
21.4368
24.4783
25.7303
25.6289
24.6927
17.4809
18.375
18.0206
17.0169
8.81282
8.82472
8.82708
8.82094
8.03171
8.0326
8.03267
8.03189
5.19692
5.20011
5.20098
5.2
5.8231
5.83891
5.84756
5.84977
6.91424
6.96714
6.99232
6.99342
8.2589
8.37117
8.41552
8.40581
10.2336
10.4613
10.5312
10.4824
12.3586
12.7064
12.7767
12.6576
14.0531
14.5728
14.6195
14.3553
10.2218
10.5581
10.4796
10.1884
8.56539
8.57086
8.57293
8.57153
7.87347
7.87434
7.87441
7.87366
5.06321
5.06438
5.06439
5.06345
5.23312
5.2355
5.23694
5.23759
5.68403
5.6964
5.70295
5.70433
6.26557
6.29593
6.31049
6.31202
7.19408
7.2697
7.30037
7.29467
8.21561
8.33661
8.37649
8.35783
9.06871
9.26925
9.31385
9.24845
7.33896
7.4517
7.44566
7.37956
8.33737
8.33965
8.34111
8.34133
7.70549
7.70632
7.70639
7.70568
5.01329
5.01422
5.01416
5.01323
5.02032
5.02044
5.0205
5.02054
5.20441
5.20675
5.20804
5.20841
5.45535
5.46197
5.46557
5.46668
5.88057
5.90357
5.91414
5.914
6.35901
6.39485
6.41018
6.41047
6.80641
6.87772
6.90025
6.88557
6.19854
6.23248
6.23682
6.2263
8.11415
8.11494
8.11584
8.11639
7.52702
7.5278
7.52787
7.52721
4.99133
4.99219
4.99214
4.99126
4.93893
4.93883
4.93873
4.93864
5.00959
5.00982
5.00995
5.01
5.12348
5.12438
5.12496
5.12535
5.32339
5.33041
5.33373
5.33366
5.55978
5.56824
5.57287
5.57493
5.81408
5.83896
5.84804
5.8438
5.69867
5.70623
5.7089
5.70967
7.88847
7.88859
7.88909
7.88962
7.3377
7.33842
7.33848
7.33787
4.97959
4.98037
4.98032
4.97948
4.90613
4.9061
4.90602
4.9059
4.92538
4.92527
4.92522
4.92523
4.9803
4.98016
4.9801
4.98018
5.07668
5.07926
5.08037
5.08006
5.20667
5.20777
5.20885
5.21021
5.36632
5.37604
5.37937
5.37667
5.45416
5.45323
5.45381
5.4561
7.65708
7.65692
7.65719
7.6576
7.13733
7.13799
7.13803
7.13748
4.97183
4.97253
4.97246
4.97167
4.89242
4.89243
4.89237
4.89225
4.8873
4.88718
4.88713
4.88714
4.91575
4.91554
4.91542
4.9154
4.96187
4.96314
4.9636
4.96325
5.04267
5.04221
5.0423
5.04305
5.15355
5.15841
5.15956
5.15698
5.32496
5.32165
5.32115
5.32309
7.41818
7.41797
7.4181
7.41837
6.92579
6.92637
6.92641
6.92591
4.9658
4.9664
4.9663
4.96555
4.88654
4.88656
4.88651
4.88638
4.86973
4.86964
4.86961
4.86964
4.88596
4.88583
4.88574
4.8857
4.90699
4.9078
4.90805
4.90773
4.96376
4.96323
4.96312
4.96349
5.04878
5.052
5.05235
5.04977
5.25296
5.24941
5.24851
5.24981
7.17064
7.17048
7.17055
7.17068
6.70303
6.70353
6.70355
6.70311
4.96066
4.96114
4.96102
4.96031
4.88397
4.884
4.88395
4.88382
4.86175
4.8617
4.86169
4.86171
4.87203
4.87197
4.87191
4.87186
4.88064
4.88121
4.88136
4.8811
4.92485
4.92457
4.92447
4.92458
4.99617
4.9988
4.99884
4.99626
5.21089
5.20785
5.20687
5.20752
6.91368
6.91364
6.91367
6.91367
6.46905
6.46946
6.46947
6.46909
4.9561
4.95647
4.95631
4.95566
4.88285
4.88289
4.88284
4.88271
4.85849
4.85848
4.85847
4.85848
4.86542
4.8654
4.86536
4.86532
4.8681
4.86851
4.8686
4.86838
4.90484
4.90484
4.90479
4.90471
4.96894
4.97136
4.97128
4.96867
5.18476
5.1825
5.18159
5.1816
6.64681
6.64692
6.64693
6.64682
6.22399
6.22431
6.2243
6.22397
4.95205
4.95231
4.95212
4.95151
4.88233
4.88241
4.88237
4.88221
4.85766
4.85768
4.85768
4.85767
4.86219
4.86219
4.86217
4.86214
4.86223
4.86251
4.86256
4.86238
4.89336
4.89359
4.89358
4.89337
4.95328
4.9557
4.95557
4.95289
5.16679
5.16545
5.16468
5.16406
6.36982
6.37007
6.37008
6.36987
5.96819
5.96841
5.96837
5.96811
4.94847
4.94864
4.94844
4.94788
4.88193
4.88208
4.88205
4.88185
4.85805
4.85811
4.85812
4.85808
4.86054
4.86056
4.86055
4.86053
4.85952
4.85971
4.85973
4.85959
4.88513
4.88551
4.88554
4.88524
4.94148
4.94401
4.94389
4.9411
5.15202
5.1517
5.15114
5.14988
6.08284
6.08321
6.08322
6.08294
5.70235
5.70246
5.70239
5.7022
4.94521
4.94538
4.9452
4.94467
4.88123
4.88148
4.88147
4.8812
4.85888
4.85898
4.85899
4.85892
4.85969
4.85972
4.85973
4.85971
4.85835
4.85846
4.85846
4.85837
4.87745
4.8779
4.87795
4.87762
4.92867
4.93133
4.93126
4.92843
5.13572
5.13661
5.13633
5.13438
5.78641
5.78685
5.78687
5.78656
5.42738
5.42735
5.42726
5.42716
4.941
4.94139
4.94128
4.94066
4.8796
4.87994
4.87994
4.8796
4.85947
4.85959
4.8596
4.85952
4.85936
4.8594
4.85941
4.85941
4.85808
4.85813
4.85812
4.85808
4.86956
4.86996
4.87001
4.86974
4.91187
4.91428
4.91426
4.91178
5.10925
5.11165
5.11172
5.10891
5.48142
5.48193
5.48196
5.48162
5.14313
5.14289
5.1428
5.14287
4.92732
4.92821
4.92819
4.92723
4.87564
4.87587
4.87584
4.87558
4.85963
4.8597
4.85971
4.85965
4.85958
4.85961
4.85962
4.85963
4.85863
4.85863
4.85863
4.85863
4.86301
4.86323
4.86327
4.86313
4.89063
4.8918
4.89177
4.89056
5.04765
5.05118
5.05149
5.04806
5.16797
5.16853
5.16854
5.16817
10.1126
9.36667
9.05458
8.94205
8.87758
8.83213
8.80185
8.78483
8.77537
8.76974
103.674
49.1182
35.7479
29.9539
24.5569
19.9494
16.3633
13.6895
11.7815
10.4194
160.952
70.8604
51.0936
43.7433
37.1921
31.4261
26.5935
22.7127
19.669
17.2944
206.427
82.5937
55.9826
46.7289
39.3629
32.7674
27.2293
22.8357
19.4442
16.8564
242.065
88.9525
58.8268
47.9662
40.0782
32.7371
26.6775
21.955
18.3683
15.7228
278.039
94.692
60.975
48.3032
39.8463
31.7878
25.3531
20.4654
16.8824
14.3312
307.098
98.1603
61.6915
47.7819
39.0466
30.5203
23.9439
19.0745
15.5949
13.2107
315.211
93.7538
56.6289
42.2285
33.918
25.7873
19.9245
15.7972
13.0462
11.2292
224.476
56.135
30.5437
21.1164
16.2836
12.2242
9.95523
8.61312
7.80415
7.27997
9.56919
9.54455
9.38914
9.363
9.31641
9.29028
9.26952
9.25848
9.25102
9.2446
9.36711
9.05697
8.90474
8.81914
8.7652
8.72958
8.70644
8.69269
8.68529
8.6806
53.1032
28.6708
22.5566
19.4497
16.6689
14.1981
12.1633
10.6007
9.46098
8.66883
89.9994
46.2747
35.8009
31.0213
27.1818
23.5095
20.2909
17.632
15.5039
13.8849
122.266
58.6124
42.8653
35.6348
30.5511
25.7672
21.6967
18.4234
15.8734
13.9868
152.565
68.7684
47.8571
38.521
32.3853
26.679
21.978
18.2986
15.4861
13.4759
186.44
78.8766
52.1458
40.4765
33.2588
26.6703
21.4547
17.4964
14.5918
12.5916
217.208
86.4761
54.7143
41.2509
33.3542
26.1783
20.6986
16.6614
13.7711
11.8536
233.2
86.7514
51.9189
37.4849
29.5789
22.5779
17.5746
14.0837
11.7636
10.2832
167.41
54.7566
29.0628
19.3798
14.695
11.2267
9.27464
8.12957
7.43364
7.00278
9.81853
9.50198
9.33081
9.26753
9.21263
9.17935
9.15519
9.14044
9.13005
9.12103
8.73773
8.69631
8.66357
8.63635
8.61504
8.59959
8.58927
8.58309
8.57966
8.5772
19.9484
16.5765
14.5029
12.6846
11.115
9.81193
8.79764
8.04874
7.50999
7.13738
35.9208
28.7124
24.9256
21.6897
18.9141
16.5059
14.5108
12.9064
11.6311
10.6693
51.038
37.9366
31.5412
26.3508
22.2598
18.8403
16.097
13.9478
12.2883
11.0745
66.1291
45.6929
36.6305
29.5942
24.3797
20.1259
16.8139
14.2908
12.3793
11.0261
83.2269
53.3446
41.1448
32.085
25.7359
20.662
16.8424
14.0204
11.9744
10.5808
99.1255
59.1916
44.1512
33.4589
26.3369
20.7058
16.598
13.6545
11.5707
10.1995
108.42
59.7591
42.6003
31.001
23.7649
18.2182
14.4248
11.857
10.1705
9.09761
75.9448
36.6498
23.8687
16.273
12.2257
9.68247
8.28975
7.4715
6.9627
6.6433
9.57147
9.377
9.24303
9.16317
9.10555
9.0695
9.04441
9.02731
9.01466
9.00376
8.50933
8.49926
8.48821
8.47827
8.47074
8.46561
8.4624
8.46077
8.46037
8.4599
10.9415
10.1335
9.28434
8.43994
7.73278
7.19008
6.79128
6.50325
6.29469
6.14962
19.868
18.0288
16.1769
14.304
12.6882
11.36
10.2986
9.46282
8.80358
8.30903
28.4781
24.6334
21.1905
17.9888
15.4008
13.3286
11.7051
10.4521
9.49365
8.79845
37.2436
30.6672
25.4315
20.8638
17.3677
14.6403
12.5635
11.0096
9.84186
9.01755
47.4706
36.9716
29.5249
23.3603
18.8651
15.4401
12.9155
11.0864
9.7745
8.88363
57.0696
42.0774
32.5536
25.0138
19.76
15.8316
13.027
11.0614
9.68099
8.76941
62.7995
43.2656
32.0893
23.7128
18.2357
14.3065
11.6799
9.94109
8.80283
8.06977
42.7463
26.2044
17.9727
12.7916
10.0236
8.39138
7.47314
6.91841
6.55963
6.32899
9.32682
9.18825
9.08108
9.0114
8.96315
8.93148
8.90873
8.89239
8.88006
8.86963
8.33339
8.3319
8.33039
8.32921
8.32851
8.32821
8.32824
8.3287
8.32981
8.33083
6.9988
6.7586
6.50564
6.26724
6.06893
5.91253
5.79217
5.70052
5.63117
5.58321
11.6112
10.9252
10.1514
9.3738
8.68703
8.11475
7.65555
7.29397
7.00549
6.78756
16.4401
14.9574
13.3756
11.8596
10.5721
9.52175
8.69356
8.05536
7.56708
7.21428
21.5365
18.9349
16.3583
14.0119
12.1133
10.6149
9.4727
8.6238
7.98363
7.52914
27.768
23.4444
19.5088
16.0872
13.4439
11.4221
9.93342
8.86352
8.09577
7.57181
33.736
27.3833
22.066
17.6423
14.3795
11.9552
10.2306
9.03394
8.18816
7.62147
37.3946
28.7912
22.2627
17.1545
13.6364
11.1587
9.50879
8.42156
7.7002
7.22516
24.5289
17.3349
12.8095
9.95724
8.3637
7.40495
6.83004
6.46704
6.22052
6.05875
9.05264
8.96954
8.89791
8.84681
8.80936
8.78254
8.76231
8.74712
8.73538
8.7256
8.18336
8.18351
8.18387
8.18446
8.18519
8.18597
8.18678
8.18776
8.18925
8.19101
5.60801
5.56479
5.51343
5.46125
5.41405
5.37359
5.34009
5.31314
5.29257
5.2796
7.50458
7.31351
7.0651
6.80573
6.57051
6.37233
6.21226
6.08443
5.97781
5.89485
9.97774
9.47193
8.85068
8.22743
7.67865
7.22432
6.86234
6.57998
6.36006
6.20033
12.7362
11.7743
10.6616
9.59966
8.70701
7.99566
7.45056
7.04307
6.72811
6.50019
16.3274
14.6098
12.7535
11.061
9.6984
8.64825
7.87073
7.30844
6.89762
6.61332
19.8649
17.2467
14.5836
12.2679
10.4874
9.16072
8.21199
7.55018
7.06994
6.74001
22.1187
18.4205
14.998
12.2242
10.2382
8.84212
7.90162
7.27199
6.84165
6.55062
14.3943
11.5385
9.42801
8.05202
7.21593
6.68001
6.33283
6.10285
5.93849
5.82918
8.79753
8.75141
8.70718
8.6717
8.64335
8.62131
8.6039
8.59031
8.57955
8.57073
8.03259
8.03292
8.03348
8.03423
8.03509
8.03593
8.03675
8.03769
8.0391
8.0409
5.19671
5.18854
5.17887
5.16821
5.15757
5.14755
5.13863
5.13124
5.12618
5.12429
5.83875
5.7928
5.73041
5.66328
5.60091
5.54739
5.50338
5.46696
5.43313
5.40494
6.95006
6.79203
6.58424
6.3681
6.17124
6.00317
5.86452
5.75207
5.66101
5.59417
8.29791
7.96325
7.5444
7.13202
6.77523
6.48488
6.25687
6.0815
5.93868
5.83182
10.2207
9.5538
8.76948
8.03163
7.41932
6.93867
6.57423
6.30298
6.09724
5.95214
12.1905
11.1262
9.92518
8.84937
7.99556
7.34972
6.87718
6.53874
6.28124
6.09835
13.5197
11.9508
10.3399
8.99923
8.00465
7.29201
6.79593
6.45176
6.20677
6.03686
9.42635
8.38639
7.50736
6.88479
6.46192
6.16836
5.96314
5.82084
5.71383
5.6423
8.56198
8.53744
8.5107
8.48641
8.46534
8.44782
8.43336
8.42166
8.41218
8.40453
7.87436
7.87462
7.87504
7.87561
7.87625
7.87688
7.87747
7.87817
7.87933
7.88091
5.06296
5.06119
5.05922
5.05687
5.05424
5.05148
5.04889
5.04683
5.04609
5.047
5.23564
5.22717
5.21544
5.20229
5.18989
5.17938
5.17106
5.16392
5.15498
5.14623
5.69442
5.65146
5.59144
5.52541
5.46178
5.40433
5.35414
5.3111
5.27462
5.24774
6.28733
6.18741
6.05372
5.91586
5.79086
5.68442
5.59689
5.52647
5.4647
5.41642
7.22115
6.98851
6.69977
6.41672
6.17133
5.97026
5.81045
5.68575
5.5866
5.51564
8.22909
7.83675
7.36139
6.91978
6.55428
6.26682
6.04674
5.88215
5.74898
5.65087
8.98513
8.36909
7.69626
7.114
6.66033
6.32045
6.07147
5.89051
5.75608
5.66117
7.18615
6.8236
6.46921
6.18827
5.97537
5.81564
5.69602
5.60963
5.54126
5.49572
8.33714
8.32377
8.30742
8.29096
8.27566
8.2622
8.25063
8.24097
8.23294
8.22655
7.70636
7.70653
7.70681
7.70719
7.70761
7.70801
7.70836
7.7088
7.70968
7.71102
5.01329
5.01254
5.0118
5.01096
5.00997
5.00886
5.00781
5.00712
5.00735
5.0086
5.02003
5.01895
5.01783
5.01664
5.01585
5.01578
5.01646
5.01712
5.0156
5.01306
5.20582
5.19451
5.17767
5.15772
5.13713
5.11729
5.09886
5.08212
5.06736
5.05657
5.46129
5.43457
5.39596
5.35328
5.312
5.27473
5.24247
5.21527
5.18907
5.16741
5.89253
5.81798
5.72103
5.61962
5.52587
5.44424
5.37553
5.31907
5.27214
5.23843
6.38044
6.25268
6.08407
5.9175
5.77047
5.64771
5.54823
5.47018
5.40261
5.35087
6.80415
6.58124
6.3245
6.08763
5.89037
5.73347
5.61194
5.51944
5.44804
5.39726
6.17814
6.04686
5.90093
5.77168
5.66399
5.57727
5.50821
5.45649
5.4134
5.38504
8.11413