/*--------------------------------*- C++ -*----------------------------------*\
| =========                 |                                                 |
| \\      /  F ield         | foam-extend: Open Source CFD                    |
|  \\    /   O peration     | Version:     4.0                                |
|   \\  /    A nd           | Web:         http://www.foam-extend.org         |
|    \\/     M anipulation  |                                                 |
\*---------------------------------------------------------------------------*/
FoamFile
{
    version     2.0;
    format      ascii;
    class       volVectorField;
    location    "2700";
    object      U;
}
// * * * * * * * * * * * * * * * * * * * * * * * * * * * * * * * * * * * * * //

dimensions      [0 1 -1 0 0 0 0];

internalField   nonuniform List<vector> 
34480
(
(209.006 2.16684 3.26216)
(209.326 1.1997 1.52482)
(209.483 0.41383 -0.272697)
(209.489 -0.210322 -2.17603)
(209.34 -0.705109 -4.32564)
(208.998 -1.06675 -6.89886)
(208.382 -1.26885 -10.2974)
(207.216 -1.18844 -14.8665)
(204.545 -0.59007 -22.7773)
(197.607 1.98008 -50.0421)
(209.939 3.08103 2.8749)
(210.198 2.25951 1.05402)
(210.325 1.53434 -0.770441)
(210.298 0.899794 -2.66946)
(210.063 0.327818 -4.76319)
(209.56 -0.192655 -7.2614)
(208.753 -0.671702 -10.6256)
(207.46 -1.04635 -15.599)
(204.324 -1.14611 -24.4048)
(196.165 0.636982 -55.1002)
(210.628 2.71747 3.28993)
(210.862 1.83728 1.40635)
(210.956 1.06178 -0.498545)
(210.886 0.407379 -2.44282)
(210.59 -0.171076 -4.55752)
(210.063 -0.69681 -7.10233)
(209.311 -1.18624 -10.608)
(208.167 -1.55848 -16.1048)
(204.866 -1.63534 -25.7843)
(195.656 0.36163 -59.4547)
(210.635 3.26159 3.23995)
(210.87 2.42888 1.3008)
(210.98 1.68494 -0.636458)
(210.942 1.06058 -2.60824)
(210.708 0.511838 -4.75357)
(210.294 0.0146442 -7.36193)
(209.677 -0.450246 -10.9672)
(208.697 -0.790554 -16.8198)
(205.371 -0.819795 -27.119)
(195.357 1.32582 -62.7272)
(210.794 2.72721 3.74632)
(211.059 1.82045 1.76876)
(211.206 1.02577 -0.247732)
(211.231 0.376381 -2.29452)
(211.088 -0.188745 -4.53642)
(210.809 -0.691556 -7.27534)
(210.341 -1.14349 -11.0425)
(209.544 -1.43933 -17.2756)
(206.317 -1.38327 -28.2387)
(195.66 0.926767 -65.3969)
(210.68 3.41702 3.52181)
(210.955 2.52631 1.54664)
(211.122 1.74772 -0.430888)
(211.181 1.11885 -2.44645)
(211.106 0.589455 -4.65801)
(210.943 0.134111 -7.39249)
(210.628 -0.258199 -11.1656)
(210.047 -0.482644 -17.5872)
(207.067 -0.320976 -29.0315)
(196.01 2.0875 -67.3687)
(210.761 2.5807 4.03784)
(211.077 1.59503 2.06176)
(211.273 0.742357 0.0421187)
(211.37 0.0524731 -2.00518)
(211.354 -0.530556 -4.26795)
(211.288 -1.02364 -7.07485)
(211.114 -1.41151 -10.9458)
(210.749 -1.57078 -17.6129)
(208.099 -1.20997 -29.6317)
(196.748 1.49027 -68.9926)
(210.589 3.35699 3.56676)
(210.909 2.35904 1.62282)
(211.084 1.5256 -0.317246)
(211.14 0.862723 -2.29871)
(211.083 0.338164 -4.47303)
(211 -0.0837365 -7.17437)
(210.871 -0.378162 -10.9066)
(210.663 -0.41525 -17.4916)
(208.421 0.250171 -29.6951)
(197.104 3.31535 -69.5911)
(210.534 2.04082 4.11468)
(210.898 0.925637 2.22406)
(211.104 -0.0310361 0.308516)
(211.198 -0.845249 -1.64902)
(211.192 -1.5488 -3.84202)
(211.153 -2.1476 -6.58127)
(211.093 -2.56113 -10.4058)
(211.024 -2.61221 -17.1068)
(209.112 -1.55743 -29.679)
(197.68 2.45885 -69.545)
(209.569 2.78744 3.53092)
(209.843 1.57018 1.59853)
(209.79 0.616389 -0.311847)
(209.431 -0.169541 -2.27862)
(208.813 -0.775549 -4.4374)
(208.027 -1.21635 -7.07442)
(207.158 -1.40004 -10.6665)
(206.371 -1.10919 -16.8187)
(204.433 0.415541 -28.5361)
(194.247 5.28069 -66.5005)
(205.891 1.9122 3.00057)
(206.369 1.10967 1.54391)
(206.556 0.426567 -0.00996984)
(206.473 -0.117389 -1.61008)
(206.095 -0.546505 -3.31983)
(205.333 -0.861313 -5.1516)
(203.985 -1.06591 -7.15911)
(201.62 -1.17179 -9.31733)
(198.154 -1.25687 -11.245)
(193.579 -1.15904 -14.3934)
(207.19 2.86856 2.79793)
(207.621 2.16423 1.1618)
(207.793 1.51937 -0.492257)
(207.704 0.943856 -2.18911)
(207.292 0.416481 -3.99634)
(206.437 -0.0688074 -5.97184)
(204.943 -0.527128 -8.20874)
(202.358 -0.993404 -10.9582)
(198.189 -1.58383 -14.0068)
(192.505 -1.8241 -20.5815)
(208.139 2.57756 3.30715)
(208.548 1.77149 1.54476)
(208.706 1.04482 -0.256759)
(208.606 0.422668 -2.09022)
(208.169 -0.133535 -4.02984)
(207.295 -0.636318 -6.15937)
(205.811 -1.11499 -8.66772)
(203.233 -1.58625 -12.0869)
(198.689 -2.15711 -16.3332)
(192.07 -2.07116 -26.7166)
(208.382 3.17794 3.3036)
(208.797 2.40341 1.4562)
(208.976 1.69438 -0.403381)
(208.918 1.08821 -2.29701)
(208.545 0.54639 -4.31006)
(207.773 0.0572112 -6.56893)
(206.401 -0.412443 -9.29946)
(203.916 -0.855428 -13.2587)
(199.143 -1.36357 -18.4766)
(191.71 -0.933568 -32.4541)
(208.736 2.66837 3.83846)
(209.178 1.80896 1.93584)
(209.396 1.0421 -0.0203239)
(209.403 0.40854 -2.00864)
(209.121 -0.146965 -4.14616)
(208.485 -0.635704 -6.5867)
(207.264 -1.09256 -9.57246)
(204.941 -1.48868 -14.063)
(200.089 -1.90231 -20.2309)
(191.949 -1.07301 -37.6931)
(208.771 3.39304 3.63438)
(209.228 2.54116 1.72001)
(209.472 1.78355 -0.206744)
(209.521 1.16367 -2.17557)
(209.313 0.634852 -4.2977)
(208.805 0.182657 -6.77308)
(207.75 -0.224163 -9.84349)
(205.648 -0.548054 -14.6623)
(200.884 -0.830162 -21.5476)
(192.218 0.36462 -42.21)
(208.976 2.56681 4.16015)
(209.469 1.61603 2.23764)
(209.743 0.786368 0.259167)
(209.839 0.114169 -1.74952)
(209.699 -0.450747 -3.93582)
(209.306 -0.919973 -6.51576)
(208.412 -1.31003 -9.74447)
(206.556 -1.56827 -14.9178)
(201.998 -1.65625 -22.5677)
(192.908 0.00105456 -46.2451)
(208.891 3.37381 3.69582)
(209.392 2.40955 1.80358)
(209.656 1.5981 -0.0881538)
(209.725 0.950757 -2.02432)
(209.569 0.441155 -4.12037)
(209.197 0.0372092 -6.62282)
(208.398 -0.264006 -9.78132)
(206.762 -0.41844 -15.0053)
(202.533 -0.208154 -23.0527)
(193.316 1.83441 -49.2174)
(208.903 2.05542 4.2452)
(209.436 0.97735 2.40204)
(209.728 0.0661208 0.526038)
(209.834 -0.688959 -1.37767)
(209.735 -1.31845 -3.48067)
(209.437 -1.83478 -6.03047)
(208.759 -2.19009 -9.33541)
(207.35 -2.32165 -14.7937)
(203.46 -1.7419 -23.4886)
(193.992 1.0029 -51.498)
(207.981 2.86379 3.63699)
(208.458 1.6931 1.78962)
(208.575 0.79631 -0.0346493)
(208.362 0.0677865 -1.90544)
(207.834 -0.474204 -3.92987)
(207.026 -0.855641 -6.35387)
(205.826 -1.01331 -9.46977)
(204.024 -0.832122 -14.5641)
(200.282 0.222236 -23.038)
(191.635 4.03739 -51.3446)
(203.517 1.4279 2.33438)
(204.02 0.833559 1.2163)
(204.201 0.302526 -0.0132675)
(204.097 -0.131756 -1.26341)
(203.697 -0.482362 -2.55463)
(202.95 -0.746716 -3.83245)
(201.764 -0.934594 -5.04907)
(199.989 -1.07152 -6.0548)
(197.434 -1.24289 -6.49851)
(194.217 -1.43225 -6.5169)
(204.912 2.41426 2.31327)
(205.407 1.87192 0.946147)
(205.587 1.34563 -0.448792)
(205.464 0.854985 -1.86578)
(205 0.389895 -3.33136)
(204.112 -0.0549864 -4.84815)
(202.638 -0.492972 -6.37975)
(200.31 -0.955692 -7.86299)
(196.687 -1.55453 -8.80245)
(191.847 -2.13659 -9.81072)
(205.947 2.212 2.94812)
(206.447 1.5288 1.39546)
(206.627 0.890595 -0.208744)
(206.502 0.327139 -1.83807)
(206.014 -0.193614 -3.53883)
(205.061 -0.681587 -5.32776)
(203.445 -1.16153 -7.21465)
(200.801 -1.66362 -9.29203)
(196.299 -2.33219 -11.0028)
(189.857 -2.9112 -13.584)
(206.344 2.8969 2.99426)
(206.866 2.22026 1.31815)
(207.072 1.5795 -0.38084)
(206.982 1.01441 -2.11235)
(206.531 0.491486 -3.94033)
(205.615 0.000989434 -5.92307)
(203.983 -0.488978 -8.10651)
(201.17 -0.995846 -10.7406)
(195.931 -1.68097 -13.2006)
(187.995 -2.16627 -17.5587)
(206.846 2.42636 3.56889)
(207.4 1.64992 1.80553)
(207.643 0.940682 -0.0195225)
(207.609 0.340482 -1.8774)
(207.228 -0.201153 -3.86951)
(206.401 -0.69272 -6.08633)
(204.828 -1.16971 -8.60263)
(201.97 -1.63813 -11.8317)
(196.184 -2.28616 -15.1302)
(186.926 -2.57773 -21.5717)
(207.012 3.20013 3.38983)
(207.585 2.41733 1.59394)
(207.855 1.70777 -0.222439)
(207.863 1.11486 -2.0844)
(207.544 0.594065 -4.09227)
(206.815 0.133035 -6.38754)
(205.342 -0.303671 -9.06305)
(202.542 -0.715611 -12.7147)
(196.409 -1.27665 -16.715)
(186.061 -1.34005 -25.333)
(207.33 2.39045 3.93889)
(207.935 1.50284 2.11673)
(208.234 0.720146 0.231342)
(208.288 0.0785263 -1.68943)
(208.032 -0.470429 -3.78533)
(207.402 -0.935026 -6.22107)
(206.047 -1.3377 -9.12171)
(203.367 -1.66928 -13.2321)
(197.06 -2.0687 -18.0275)
(185.783 -1.79925 -28.9562)
(207.337 3.23552 3.47892)
(207.95 2.33243 1.6836)
(208.243 1.56577 -0.117567)
(208.28 0.948597 -1.97008)
(208.017 0.454313 -3.9847)
(207.414 0.0566384 -6.36733)
(206.145 -0.257257 -9.26058)
(203.617 -0.487903 -13.5544)
(197.326 -0.620594 -18.8723)
(185.387 -0.0696933 -31.8726)
(207.429 1.90358 4.03284)
(208.061 0.887435 2.27506)
(208.376 0.0348998 0.472735)
(208.441 -0.660696 -1.36157)
(208.22 -1.23125 -3.38783)
(207.68 -1.687 -5.8152)
(206.521 -1.99265 -8.87653)
(204.188 -2.12672 -13.515)
(198.029 -1.86075 -19.6421)
(185.306 -0.799305 -34.2637)
(206.573 2.76959 3.3923)
(207.153 1.67668 1.66378)
(207.338 0.850645 -0.0526233)
(207.166 0.187347 -1.82456)
(206.629 -0.293664 -3.74853)
(205.717 -0.615384 -6.03824)
(204.201 -0.726519 -8.92243)
(201.63 -0.547166 -13.3058)
(195.609 0.217589 -19.5469)
(182.828 2.30022 -34.6944)
(201.781 0.9491 1.7018)
(202.218 0.547697 0.911419)
(202.369 0.16563 0.00790701)
(202.27 -0.157878 -0.896412)
(201.922 -0.428599 -1.80008)
(201.307 -0.641176 -2.62149)
(200.395 -0.807831 -3.29566)
(199.161 -0.952077 -3.68718)
(197.602 -1.12931 -3.58049)
(195.871 -1.36489 -2.75287)
(203.103 1.90746 1.79142)
(203.57 1.53198 0.718146)
(203.733 1.13481 -0.387707)
(203.602 0.741785 -1.49711)
(203.154 0.354103 -2.60169)
(202.344 -0.0310226 -3.67094)
(201.095 -0.424248 -4.62883)
(199.303 -0.84804 -5.34701)
(196.838 -1.37059 -5.40303)
(194.04 -1.93791 -4.6197)
(204.092 1.75985 2.50358)
(204.602 1.21997 1.2061)
(204.778 0.690148 -0.15081)
(204.636 0.204588 -1.51799)
(204.136 -0.260187 -2.91216)
(203.208 -0.7125 -4.31342)
(201.717 -1.17177 -5.65531)
(199.468 -1.66428 -6.84636)
(196.113 -2.29571 -7.29999)
(192.034 -2.99154 -6.92403)
(204.551 2.52652 2.58716)
(205.108 1.97212 1.13182)
(205.313 1.42075 -0.354545)
(205.191 0.916058 -1.86117)
(204.69 0.432828 -3.42371)
(203.723 -0.0382417 -5.05638)
(202.095 -0.526227 -6.71337)
(199.508 -1.05357 -8.37937)
(195.292 -1.75939 -9.29352)
(189.827 -2.52571 -9.5403)
(205.137 2.10094 3.20282)
(205.738 1.43193 1.6254)
(205.978 0.800177 -0.0199336)
(205.897 0.249875 -1.68739)
(205.432 -0.261494 -3.45166)
(204.489 -0.741871 -5.35627)
(202.811 -1.22421 -7.38187)
(200.008 -1.72779 -9.61126)
(195.04 -2.44209 -11.1402)
(188.235 -3.18126 -12.3679)
(205.394 2.92931 3.05276)
(206.023 2.23924 1.41844)
(206.29 1.59619 -0.243786)
(206.243 1.04561 -1.9438)
(205.817 0.548716 -3.75864)
(204.923 0.0930288 -5.78008)
(203.254 -0.359144 -8.01116)
(200.343 -0.826402 -10.6685)
(194.77 -1.50685 -12.7413)
(186.758 -2.16655 -15.135)
(205.796 2.14602 3.63094)
(206.458 1.34315 1.94763)
(206.753 0.62332 0.194461)
(206.746 0.0241924 -1.58896)
(206.368 -0.49824 -3.52105)
(205.538 -0.951767 -5.71767)
(203.915 -1.36293 -8.22171)
(200.976 -1.74472 -11.3675)
(194.945 -2.30049 -14.1236)
(185.843 -2.77405 -17.9494)
(205.883 3.0418 3.18191)
(206.553 2.21932 1.518)
(206.846 1.51087 -0.159302)
(206.828 0.933822 -1.88662)
(206.444 0.463271 -3.75588)
(205.631 0.0769672 -5.92616)
(204.048 -0.247038 -8.4676)
(201.147 -0.536016 -11.8565)
(194.857 -0.880756 -15.1101)
(184.869 -1.19394 -20.3181)
(206.044 1.7084 3.76455)
(206.724 0.770866 2.1236)
(207.033 -0.0164587 0.423906)
(207.039 -0.652889 -1.30797)
(206.689 -1.16975 -3.21029)
(205.919 -1.5742 -5.4381)
(204.393 -1.84577 -8.14337)
(201.582 -1.99544 -11.8892)
(195.221 -1.94756 -15.9862)
(184.257 -1.89924 -22.3805)
(205.256 2.64803 3.10261)
(205.889 1.64521 1.51472)
(206.107 0.893055 -0.0758994)
(205.943 0.293627 -1.72673)
(205.373 -0.131746 -3.51645)
(204.349 -0.403143 -5.6128)
(202.583 -0.481762 -8.16709)
(199.582 -0.316642 -11.7257)
(193.24 0.228204 -16.0578)
(181.785 1.20164 -22.863)
(200.571 0.551106 1.19395)
(200.914 0.294903 0.666116)
(201.028 0.0340419 0.0357658)
(200.953 -0.195295 -0.583085)
(200.694 -0.39667 -1.18743)
(200.256 -0.562411 -1.69751)
(199.643 -0.702079 -2.06661)
(198.881 -0.830813 -2.20479)
(198.016 -0.97509 -2.02032)
(197.164 -1.1416 -1.42912)
(201.727 1.43449 1.31138)
(202.121 1.19999 0.510267)
(202.258 0.920709 -0.321228)
(202.144 0.62214 -1.14561)
(201.771 0.31349 -1.93591)
(201.123 -0.00398937 -2.64896)
(200.178 -0.334811 -3.21066)
(198.934 -0.688781 -3.5126)
(197.411 -1.09416 -3.32757)
(195.914 -1.5113 -2.51764)
(202.577 1.29266 2.05046)
(203.048 0.890564 1.01567)
(203.209 0.470757 -0.0832757)
(203.076 0.0689432 -1.18037)
(202.623 -0.329652 -2.26757)
(201.814 -0.729668 -3.30342)
(200.583 -1.14432 -4.20336)
(198.865 -1.59111 -4.83741)
(196.582 -2.12531 -4.81327)
(194.193 -2.69424 -3.92697)
(203.017 2.11728 2.14841)
(203.559 1.69104 0.93552)
(203.755 1.2375 -0.315453)
(203.626 0.803199 -1.57418)
(203.135 0.372848 -2.84708)
(202.225 -0.0600799 -4.11446)
(200.775 -0.519718 -5.29414)
(198.642 -1.02527 -6.27061)
(195.552 -1.66467 -6.46642)
(192.083 -2.36908 -5.60753)
(203.616 1.7287 2.79429)
(204.221 1.17889 1.43098)
(204.453 0.635722 -0.00653471)
(204.349 0.145879 -1.45385)
(203.858 -0.322928 -2.95355)
(202.908 -0.776663 -4.50652)
(201.317 -1.24384 -6.04464)
(198.86 -1.74678 -7.49226)
(194.996 -2.42637 -8.08613)
(190.379 -3.19386 -7.53436)
(203.913 2.60708 2.66963)
(204.561 2.02449 1.22691)
(204.822 1.46009 -0.251825)
(204.742 0.962203 -1.75771)
(204.264 0.500745 -3.33667)
(203.308 0.0645524 -5.02974)
(201.637 -0.383762 -6.78409)
(198.952 -0.870481 -8.60572)
(194.393 -1.55929 -9.55978)
(188.652 -2.35309 -9.45947)
(204.362 1.85334 3.27566)
(205.05 1.15105 1.76114)
(205.338 0.505771 0.169103)
(205.29 -0.0419775 -1.44482)
(204.84 -0.529075 -3.16832)
(203.907 -0.962477 -5.06305)
(202.205 -1.37099 -7.11183)
(199.37 -1.77961 -9.39676)
(194.214 -2.37972 -10.8781)
(187.39 -3.09957 -11.5021)
(204.504 2.80593 2.83933)
(205.204 2.07975 1.33394)
(205.495 1.44065 -0.193519)
(205.439 0.912151 -1.76643)
(204.98 0.473502 -3.44901)
(204.044 0.106103 -5.3444)
(202.327 -0.218627 -7.4584)
(199.42 -0.54318 -9.9907)
(193.839 -0.991243 -11.8663)
(186.055 -1.65655 -13.2455)
(204.717 1.47463 3.45731)
(205.425 0.630487 1.95864)
(205.729 -0.0843303 0.386427)
(205.692 -0.659609 -1.21509)
(205.257 -1.12419 -2.9575)
(204.348 -1.48266 -4.93717)
(202.645 -1.72719 -7.22514)
(199.715 -1.89031 -10.0745)
(193.889 -1.98184 -12.6837)
(185.057 -2.39472 -14.8185)
(203.99 2.50147 2.77473)
(204.656 1.59933 1.34469)
(204.897 0.925133 -0.103746)
(204.741 0.389859 -1.61325)
(204.153 0.0174477 -3.24029)
(203.069 -0.209343 -5.10203)
(201.2 -0.264035 -7.27269)
(198.102 -0.119 -10.0005)
(192.174 0.260003 -12.811)
(182.633 0.640324 -15.1308)
(199.739 0.251672 0.824888)
(199.993 0.0931176 0.488415)
(200.075 -0.0795624 0.0636072)
(200.023 -0.236503 -0.342707)
(199.848 -0.38209 -0.735391)
(199.56 -0.507336 -1.0465)
(199.175 -0.618487 -1.25087)
(198.724 -0.723018 -1.29412)
(198.247 -0.831658 -1.14383)
(197.791 -0.943207 -0.777499)
(200.717 1.04041 0.910884)
(201.019 0.911047 0.336748)
(201.126 0.728193 -0.260137)
(201.038 0.512446 -0.845158)
(200.755 0.277218 -1.38648)
(200.276 0.026735 -1.84331)
(199.612 -0.237755 -2.15828)
(198.794 -0.51682 -2.25868)
(197.885 -0.815382 -2.03778)
(197.078 -1.10367 -1.43095)
(201.39 0.861532 1.63606)
(201.788 0.574995 0.842265)
(201.926 0.254771 -0.015252)
(201.813 -0.0660975 -0.863762)
(201.436 -0.39579 -1.68087)
(200.784 -0.734799 -2.41795)
(199.839 -1.0897 -2.99864)
(198.61 -1.46918 -3.31459)
(197.136 -1.89529 -3.14388)
(195.749 -2.32529 -2.34648)
(201.758 1.71201 1.72043)
(202.246 1.40383 0.746262)
(202.423 1.04621 -0.269222)
(202.301 0.68543 -1.28315)
(201.86 0.315133 -2.28032)
(201.068 -0.0670423 -3.22108)
(199.871 -0.477763 -4.01849)
(198.23 -0.929515 -4.5453)
(196.096 -1.46855 -4.43726)
(193.954 -2.04075 -3.43906)
(202.316 1.34309 2.37754)
(202.884 0.910856 1.23668)
(203.097 0.459414 0.0180121)
(202.986 0.0359611 -1.20017)
(202.514 -0.381557 -2.43265)
(201.634 -0.795767 -3.64944)
(200.239 -1.22841 -4.76371)
(198.235 -1.69899 -5.64698)
(195.416 -2.29719 -5.77442)
(192.408 -2.96207 -4.76567)
(202.61 2.25823 2.26788)
(203.236 1.78724 1.03191)
(203.482 1.3076 -0.246541)
(203.383 0.869414 -1.54189)
(202.897 0.452041 -2.8708)
(201.964 0.0472782 -4.23244)
(200.423 -0.377677 -5.54365)
(198.122 -0.849267 -6.71201)
(194.641 -1.48316 -7.04641)
(190.724 -2.2264 -6.09536)
(203.07 1.53068 2.89459)
(203.746 0.936725 1.56778)
(204.02 0.373338 0.156836)
(203.945 -0.116351 -1.26714)
(203.464 -0.560835 -2.76057)
(202.51 -0.965155 -4.33685)
(200.874 -1.35698 -5.93765)
(198.341 -1.76598 -7.50453)
(194.246 -2.3432 -8.22479)
(189.396 -3.07471 -7.55858)
(203.239 2.54057 2.46831)
(203.937 1.9202 1.14022)
(204.218 1.35842 -0.217899)
(204.135 0.885155 -1.61528)
(203.639 0.485175 -3.08703)
(202.659 0.143976 -4.6843)
(200.957 -0.168919 -6.36136)
(198.267 -0.501262 -8.14046)
(193.685 -0.973354 -9.13446)
(187.954 -1.71695 -8.79336)
(203.488 1.21048 3.12314)
(204.196 0.469746 1.78557)
(204.487 -0.167031 0.360819)
(204.418 -0.679458 -1.08804)
(203.935 -1.09255 -2.64477)
(202.963 -1.40837 -4.35251)
(201.236 -1.62843 -6.21897)
(198.442 -1.79479 -8.27892)
(193.523 -1.95812 -9.83221)
(186.815 -2.51404 -9.91443)
(202.813 2.33617 2.41849)
(203.482 1.54219 1.15877)
(203.733 0.949063 -0.134009)
(203.582 0.478215 -1.48547)
(202.994 0.15647 -2.92837)
(201.898 -0.0308416 -4.53213)
(200.048 -0.0680809 -6.30676)
(197.093 0.0555936 -8.29696)
(191.995 0.313708 -9.98369)
(184.567 0.412593 -10.0824)
(199.165 0.0421157 0.576366)
(199.35 -0.0565861 0.369765)
(199.406 -0.170427 0.087636)
(199.374 -0.275816 -0.172441)
(199.263 -0.379273 -0.425533)
(199.085 -0.471408 -0.616462)
(198.855 -0.556073 -0.736407)
(198.596 -0.635537 -0.752733)
(198.335 -0.712809 -0.658275)
(198.074 -0.784037 -0.451627)
(199.988 0.740678 0.599043)
(200.205 0.682355 0.200248)
(200.283 0.572045 -0.211201)
(200.22 0.423554 -0.609811)
(200.019 0.251693 -0.966809)
(199.689 0.0621477 -1.25029)
(199.247 -0.13974 -1.42133)
(198.73 -0.349608 -1.43692)
(198.196 -0.562324 -1.25228)
(197.759 -0.754297 -0.850819)
(200.485 0.495483 1.28426)
(200.799 0.296383 0.694358)
(200.909 0.0590353 0.0457676)
(200.82 -0.189378 -0.591059)
(200.528 -0.453109 -1.1889)
(200.034 -0.729428 -1.7022)
(199.348 -1.0196 -2.07147)
(198.506 -1.32482 -2.22261)
(197.579 -1.64859 -2.04287)
(196.775 -1.95764 -1.47324)
(200.757 1.34204 1.33069)
(201.169 1.13251 0.573984)
(201.319 0.861506 -0.222709)
(201.215 0.571811 -1.01232)
(200.845 0.263656 -1.76783)
(200.199 -0.0613668 -2.44285)
(199.265 -0.411838 -2.96163)
(198.062 -0.792721 -3.2204)
(196.637 -1.22221 -3.01374)
(195.324 -1.65802 -2.19302)
(201.238 0.972646 1.97822)
(201.74 0.646397 1.05181)
(201.928 0.283016 0.0481171)
(201.823 -0.0725991 -0.948026)
(201.401 -0.433754 -1.93191)
(200.638 -0.799361 -2.8572)
(199.486 -1.18352 -3.63816)
(197.931 -1.59952 -4.14866)
(195.952 -2.09694 -4.06605)
(194.019 -2.62785 -3.1185)
(201.497 1.90623 1.86998)
(202.07 1.54171 0.842025)
(202.292 1.14711 -0.231694)
(202.189 0.772135 -1.3139)
(201.731 0.404821 -2.3986)
(200.88 0.0406671 -3.45749)
(199.546 -0.345537 -4.39854)
(197.675 -0.775114 -5.09977)
(195.127 -1.31996 -5.10526)
(192.504 -1.94573 -4.03105)
(201.938 1.19694 2.50645)
(202.573 0.711067 1.37483)
(202.824 0.232204 0.155157)
(202.735 -0.19537 -1.06962)
(202.262 -0.591761 -2.32909)
(201.356 -0.959332 -3.60163)
(199.882 -1.32169 -4.80837)
(197.74 -1.70683 -5.82718)
(194.631 -2.22176 -6.09923)
(191.266 -2.8646 -5.07342)
(202.11 2.25994 2.08457)
(202.774 1.74815 0.943412)
(203.037 1.26775 -0.233624)
(202.94 0.854113 -1.4432)
(202.442 0.497846 -2.6943)
(201.488 0.188583 -3.99749)
(199.91 -0.10204 -5.27598)
(197.561 -0.417659 -6.45331)
(193.978 -0.857856 -6.88316)
(189.88 -1.53914 -5.92332)
(202.378 0.926449 2.77518)
(203.058 0.293484 1.60959)
(203.331 -0.262312 0.345901)
(203.243 -0.711183 -0.935465)
(202.747 -1.07368 -2.29247)
(201.78 -1.34942 -3.72571)
(200.147 -1.54598 -5.20101)
(197.646 -1.7059 -6.62901)
(193.704 -1.88955 -7.46375)
(188.79 -2.4186 -6.70009)
(201.741 2.16027 2.04527)
(202.387 1.47794 0.962304)
(202.636 0.967424 -0.165692)
(202.492 0.560753 -1.34764)
(201.924 0.287416 -2.59385)
(200.867 0.134966 -3.93394)
(199.131 0.11029 -5.33125)
(196.475 0.213101 -6.71451)
(192.319 0.384835 -7.61552)
(186.787 0.372406 -6.7811)
(198.759 -0.0985165 0.417784)
(198.896 -0.16274 0.295563)
(198.934 -0.239701 0.107035)
(198.915 -0.310335 -0.0578398)
(198.848 -0.38349 -0.222982)
(198.743 -0.450013 -0.343343)
(198.609 -0.512462 -0.42036)
(198.463 -0.57042 -0.432977)
(198.317 -0.623697 -0.383267)
(198.15 -0.668255 -0.27333)
(199.463 0.530671 0.367272)
(199.611 0.516909 0.0967276)
(199.665 0.457831 -0.176569)
(199.623 0.360776 -0.437978)
(199.489 0.240354 -0.664901)
(199.271 0.102565 -0.835108)
(198.989 -0.0453911 -0.924322)
(198.671 -0.197189 -0.908709)
(198.359 -0.344826 -0.771818)
(198.117 -0.470655 -0.513381)
(199.805 0.20486 1.00207)
(200.038 0.0666793 0.574579)
(200.122 -0.106066 0.096116)
(200.057 -0.293492 -0.370765)
(199.843 -0.498151 -0.800154)
(199.488 -0.715684 -1.15462)
(199.011 -0.943975 -1.39157)
(198.452 -1.1795 -1.46532)
(197.876 -1.41715 -1.32178)
(197.406 -1.63216 -0.946318)
(199.982 1.0264 0.994596)
(200.311 0.892875 0.424467)
(200.432 0.695068 -0.180653)
(200.349 0.469961 -0.77627)
(200.056 0.221776 -1.33175)
(199.557 -0.0450959 -1.8032)
(198.861 -0.332487 -2.13148)
(198.009 -0.639503 -2.24268)
(197.075 -0.967835 -2.02959)
(196.271 -1.28568 -1.42351)
(200.369 0.639126 1.61505)
(200.791 0.401485 0.883301)
(200.949 0.117506 0.0790088)
(200.858 -0.172835 -0.713846)
(200.502 -0.476268 -1.47948)
(199.876 -0.788538 -2.16741)
(198.969 -1.11705 -2.70374)
(197.809 -1.46806 -2.9866)
(196.452 -1.86403 -2.83144)
(195.218 -2.26682 -2.08455)
(200.572 1.57164 1.49518)
(201.072 1.30156 0.664736)
(201.265 0.987203 -0.211026)
(201.168 0.675439 -1.08914)
(200.762 0.361238 -1.949)
(200.029 0.0436384 -2.7488)
(198.93 -0.294085 -3.40237)
(197.471 -0.666074 -3.79556)
(195.657 -1.11005 -3.64698)
(193.921 -1.6034 -2.71222)
(200.977 0.870637 2.12906)
(201.546 0.485698 1.18918)
(201.769 0.0894324 0.161037)
(201.677 -0.27488 -0.865958)
(201.24 -0.619908 -1.90116)
(200.428 -0.945145 -2.90243)
(199.168 -1.26873 -3.78745)
(197.434 -1.61288 -4.42104)
(195.149 -2.04661 -4.44746)
(192.849 -2.56759 -3.4569)
(201.127 1.97913 1.70438)
(201.734 1.57215 0.750262)
(201.971 1.17315 -0.242381)
(201.87 0.820954 -1.26111)
(201.4 0.511505 -2.2943)
(200.524 0.238272 -3.32551)
(199.138 -0.022557 -4.26586)
(197.18 -0.30585 -5.00178)
(194.477 -0.683631 -5.08973)
(191.604 -1.24166 -4.02935)
(201.402 0.634418 2.42789)
(202.032 0.107761 1.43668)
(202.28 -0.36712 0.340293)
(202.184 -0.753158 -0.767072)
(201.705 -1.06636 -1.92178)
(200.799 -1.30418 -3.09463)
(199.335 -1.47735 -4.22895)
(197.207 -1.62395 -5.18397)
(194.167 -1.79832 -5.56508)
(190.666 -2.23199 -4.57256)
(200.79 1.98329 1.66781)
(201.391 1.41181 0.761372)
(201.627 0.983325 -0.198131)
(201.493 0.639595 -1.20545)
(200.962 0.412112 -2.25179)
(199.986 0.290277 -3.33738)
(198.433 0.274575 -4.39692)
(196.157 0.358299 -5.31039)
(192.901 0.468955 -5.69501)
(188.926 0.424343 -4.59118)
(198.46 -0.191774 0.321284)
(198.567 -0.236999 0.252221)
(198.592 -0.291977 0.122495)
(198.582 -0.340142 0.0170292)
(198.543 -0.392382 -0.0945581)
(198.483 -0.440087 -0.174411)
(198.407 -0.485302 -0.229686)
(198.325 -0.526547 -0.245343)
(198.241 -0.562596 -0.226319)
(198.122 -0.590021 -0.173604)
(199.082 0.396275 0.199442)
(199.179 0.408946 0.0190576)
(199.215 0.384361 -0.155788)
(199.189 0.324843 -0.320381)
(199.102 0.244126 -0.458586)
(198.965 0.147877 -0.556184)
(198.789 0.0433599 -0.598976)
(198.598 -0.0629032 -0.574079)
(198.416 -0.163179 -0.477328)
(198.28 -0.2445 -0.31163)
(199.297 -0.0129758 0.785457)
(199.463 -0.111555 0.481392)
(199.523 -0.236503 0.134766)
(199.478 -0.37516 -0.202064)
(199.328 -0.529784 -0.507342)
(199.083 -0.695892 -0.752836)
(198.764 -0.869628 -0.909793)
(198.402 -1.04541 -0.95207)
(198.047 -1.21546 -0.854318)
(197.771 -1.36182 -0.621811)
(199.394 0.772689 0.717109)
(199.644 0.693785 0.29961)
(199.738 0.554501 -0.145898)
(199.675 0.385061 -0.581603)
(199.454 0.191509 -0.978602)
(199.085 -0.020227 -1.30019)
(198.587 -0.247627 -1.50354)
(198.001 -0.486275 -1.54014)
(197.395 -0.729983 -1.35773)
(196.902 -0.955107 -0.931558)
(199.685 0.356075 1.2989)
(200.023 0.187926 0.735225)
(200.15 -0.0281751 0.106979)
(200.076 -0.258904 -0.508536)
(199.791 -0.506602 -1.09111)
(199.301 -0.764939 -1.59403)
(198.615 -1.03646 -1.95892)
(197.777 -1.32151 -2.11244)
(196.862 -1.62678 -1.95421)
(196.077 -1.92108 -1.41127)
(199.825 1.26976 1.15771)
(200.241 1.07819 0.505707)
(200.402 0.835593 -0.187832)
(200.318 0.58386 -0.879815)
(199.976 0.322885 -1.54231)
(199.375 0.0544571 -2.13057)
(198.507 -0.230317 -2.57195)
(197.408 -0.539195 -2.77557)
(196.142 -0.88674 -2.5747)
(195.003 -1.25726 -1.8413)
(200.182 0.567717 1.77727)
(200.672 0.271686 1.01657)
(200.862 -0.0477323 0.171338)
(200.777 -0.350491 -0.668474)
(200.394 -0.643298 -1.49883)
(199.702 -0.923093 -2.26929)
(198.67 -1.20269 -2.90499)
(197.318 -1.49702 -3.28527)
(195.676 -1.84704 -3.19661)
(194.125 -2.24542 -2.37605)
(200.294 1.71218 1.34262)
(200.826 1.40096 0.567067)
(201.034 1.07963 -0.246096)
(200.937 0.788015 -1.0797)
(200.516 0.526415 -1.90798)
(199.749 0.291519 -2.69978)
(198.585 0.0652221 -3.36782)
(197.018 -0.178102 -3.80029)
(195.032 -0.485362 -3.70298)
(193.052 -0.910378 -2.75646)
(200.569 0.346104 2.09532)
(201.13 -0.0808777 1.27277)
(201.348 -0.477969 0.342427)
(201.253 -0.803564 -0.592744)
(200.815 -1.06953 -1.55272)
(200.007 -1.27152 -2.49086)
(198.754 -1.42128 -3.34289)
(197.017 -1.55011 -3.96245)
(194.741 -1.7015 -4.08203)
(192.304 -2.03017 -3.14718)
(199.969 1.81517 1.29873)
(200.506 1.34963 0.562061)
(200.721 1.00025 -0.23112)
(200.6 0.716965 -1.06538)
(200.123 0.532281 -1.9175)
(199.257 0.437123 -2.76897)
(197.924 0.427787 -3.54129)
(196.053 0.494872 -4.1095)
(193.583 0.562943 -4.17925)
(190.809 0.519246 -3.11545)
(198.232 -0.255817 0.265849)
(198.319 -0.290756 0.229547)
(198.337 -0.33321 0.135474)
(198.332 -0.367342 0.0658043)
(198.31 -0.405667 -0.0140034)
(198.276 -0.440153 -0.0711363)
(198.233 -0.472766 -0.115478)
(198.187 -0.501799 -0.135258)
(198.137 -0.52589 -0.135991)
(198.043 -0.542333 -0.116917)
(198.8 0.320899 0.0782345)
(198.862 0.348736 -0.0402853)
(198.886 0.346642 -0.147091)
(198.87 0.313591 -0.245239)
(198.816 0.26235 -0.32415)
(198.731 0.197897 -0.375326)
(198.625 0.126603 -0.390984)
(198.511 0.0543083 -0.363991)
(198.405 -0.0126334 -0.295274)
(198.326 -0.0646751 -0.185944)
(198.916 -0.168014 0.624944)
(199.028 -0.242269 0.411092)
(199.07 -0.333289 0.162505)
(199.04 -0.434609 -0.0787324)
(198.939 -0.548869 -0.295599)
(198.777 -0.67244 -0.468019)
(198.569 -0.800873 -0.577343)
(198.34 -0.928396 -0.609506)
(198.123 -1.0475 -0.552206)
(197.96 -1.14556 -0.41768)
(198.954 0.579809 0.495837)
(199.137 0.537791 0.198433)
(199.207 0.443149 -0.119628)
(199.161 0.319547 -0.428786)
(199.002 0.173323 -0.704633)
(198.739 0.0109501 -0.918872)
(198.393 -0.163068 -1.04216)
(198 -0.342789 -1.04429)
(197.611 -0.51954 -0.902065)
(197.308 -0.676275 -0.609719)
(199.156 0.129403 1.03355)
(199.416 0.0128255 0.608923)
(199.515 -0.147836 0.129505)
(199.457 -0.326581 -0.337722)
(199.239 -0.523167 -0.772483)
(198.87 -0.730506 -1.13574)
(198.37 -0.947899 -1.38416)
(197.78 -1.17193 -1.46912)
(197.172 -1.40168 -1.33824)
(196.674 -1.61142 -0.963682)
(199.235 1.00972 0.866158)
(199.568 0.879664 0.368491)
(199.697 0.698162 -0.164636)
(199.627 0.500815 -0.694149)
(199.353 0.29051 -1.19042)
(198.88 0.0708472 -1.61234)
(198.219 -0.160954 -1.90292)
(197.417 -0.408047 -1.99707)
(196.547 -0.671616 -1.79858)
(195.805 -0.940727 -1.25426)
(199.543 0.300144 1.46166)
(199.948 0.0784614 0.86111)
(200.105 -0.172573 0.183126)
(200.031 -0.417944 -0.48707)
(199.711 -0.660028 -1.138)
(199.146 -0.893863 -1.71955)
(198.335 -1.128 -2.16947)
(197.314 -1.3704 -2.39231)
(196.156 -1.64417 -2.26741)
(195.12 -1.93655 -1.6386)
(199.605 1.4706 1.01134)
(200.053 1.24246 0.399062)
(200.228 0.992023 -0.246669)
(200.141 0.757735 -0.908232)
(199.781 0.542966 -1.55197)
(199.139 0.346843 -2.14158)
(198.2 0.157224 -2.59941)
(196.989 -0.0438436 -2.83416)
(195.562 -0.284692 -2.65423)
(194.219 -0.594811 -1.88855)
(199.876 0.0717091 1.7897)
(200.358 -0.266202 1.12323)
(200.545 -0.591343 0.350744)
(200.458 -0.860564 -0.421488)
(200.075 -1.08226 -1.20234)
(199.386 -1.25079 -1.93801)
(198.356 -1.37756 -2.56668)
(196.989 -1.48633 -2.96)
(195.327 -1.60996 -2.94809)
(193.664 -1.84765 -2.17774)
(199.279 1.66538 0.949176)
(199.741 1.29739 0.369866)
(199.929 1.02194 -0.264841)
(199.823 0.795285 -0.933935)
(199.41 0.649783 -1.60484)
(198.672 0.577636 -2.24967)
(197.57 0.572803 -2.78836)
(196.088 0.625858 -3.11461)
(194.265 0.664533 -3.0109)
(192.377 0.63319 -2.10693)
(198.051 -0.30439 0.237557)
(198.126 -0.333767 0.221)
(198.139 -0.369463 0.14773)
(198.137 -0.395162 0.0987529)
(198.125 -0.424555 0.0372745)
(198.105 -0.450124 -0.00769494)
(198.081 -0.473927 -0.0468935)
(198.055 -0.494373 -0.0705255)
(198.024 -0.510303 -0.0839971)
(197.945 -0.51964 -0.0851103)
(198.587 0.289396 -0.0112551)
(198.626 0.326082 -0.0878205)
(198.642 0.338363 -0.148344)
(198.632 0.323599 -0.201459)
(198.6 0.293624 -0.240947)
(198.549 0.252564 -0.261996)
(198.485 0.205651 -0.260763)
(198.418 0.15773 -0.232982)
(198.355 0.113618 -0.181744)
(198.308 0.08052 -0.105157)
(198.624 -0.273143 0.509471)
(198.698 -0.333096 0.359361)
(198.726 -0.400756 0.181159)
(198.707 -0.474557 0.00781008)
(198.641 -0.557738 -0.147794)
(198.536 -0.647653 -0.272103)
(198.404 -0.740214 -0.353212)
(198.262 -0.830383 -0.384056)
(198.131 -0.912013 -0.357705)
(198.035 -0.976506 -0.288277)
(198.63 0.441114 0.324024)
(198.758 0.422535 0.118207)
(198.808 0.360619 -0.101747)
(198.777 0.273296 -0.314191)
(198.666 0.166366 -0.500167)
(198.485 0.0459815 -0.638971)
(198.252 -0.0829535 -0.711381)
(197.993 -0.214369 -0.699091)
(197.746 -0.339852 -0.593733)
(197.559 -0.447635 -0.395107)
(198.754 -0.0410776 0.817331)