/*--------------------------------*- C++ -*----------------------------------*\
| =========                 |                                                 |
| \\      /  F ield         | foam-extend: Open Source CFD                    |
|  \\    /   O peration     | Version:     4.0                                |
|   \\  /    A nd           | Web:         http://www.foam-extend.org         |
|    \\/     M anipulation  |                                                 |
\*---------------------------------------------------------------------------*/
FoamFile
{
    version     2.0;
    format      ascii;
    class       volScalarField;
    location    "1600";
    object      alphat;
}
// * * * * * * * * * * * * * * * * * * * * * * * * * * * * * * * * * * * * * //

dimensions      [1 -1 -1 0 0 0 0];

internalField   nonuniform List<scalar> 
34480
(
0.00188842
0.00188716
0.001887
0.00188783
0.00188995
0.00189385
0.00190139
0.00191965
0.00195892
0.00203017
0.0159229
0.0151139
0.0148138
0.0145442
0.0129232
0.00824238
0.00340659
0.00134831
0.000984913
0.00145503
0.0442646
0.0426053
0.0409169
0.0374715
0.0286622
0.0146763
0.00511694
0.00182829
0.00124088
0.00181181
0.0484138
0.0462549
0.0443127
0.0402723
0.0296982
0.014154
0.00479132
0.00177522
0.00128742
0.00197772
0.0477358
0.0453146
0.0435486
0.039706
0.0288377
0.0131812
0.00440618
0.00168419
0.00129904
0.00209685
0.0459868
0.0435011
0.0418392
0.0380509
0.0268232
0.0116075
0.00385563
0.001553
0.00130559
0.00222461
0.0438574
0.0415328
0.0400715
0.0364557
0.0252573
0.010544
0.00349177
0.00146083
0.00131316
0.00233431
0.0364063
0.0347128
0.0336821
0.030933
0.0214155
0.00863269
0.00281048
0.0012396
0.00123645
0.00234135
0.0124294
0.0121092
0.0120056
0.0117288
0.00993014
0.00512452
0.00167692
0.00073679
0.000834601
0.00178692
0.0018012
0.00180109
0.00180274
0.00180601
0.00181078
0.00181689
0.00182492
0.00183615
0.00185271
0.00181396
0.00188848
0.00188661
0.00188601
0.00188653
0.00188839
0.00189184
0.00189734
0.0019068
0.0019245
0.00196534
0.0149563
0.0143203
0.0141276
0.0143109
0.0147225
0.0147727
0.0129466
0.00764426
0.002495
0.0020455
0.0407409
0.0395112
0.038844
0.0383063
0.0366936
0.0319835
0.0230032
0.011294
0.00328121
0.00280236
0.0448174
0.0431469
0.0423423
0.0417693
0.0399268
0.0344289
0.0242039
0.0114377
0.00330057
0.00316961
0.044651
0.0426924
0.0419456
0.0415869
0.0401038
0.0348335
0.0244501
0.0112821
0.00323807
0.00345104
0.0434366
0.0413676
0.0406388
0.0404141
0.0391994
0.0342047
0.0239534
0.0108471
0.00316582
0.00378246
0.0418324
0.039846
0.0392075
0.0390667
0.0380897
0.0334592
0.0235327
0.010551
0.00312947
0.00409921
0.0351424
0.0336683
0.0331984
0.0331801
0.0326708
0.0293555
0.0210907
0.00938276
0.00285503
0.00417208
0.012368
0.0120603
0.0119988
0.0120566
0.0121869
0.012031
0.0106122
0.00545478
0.00170728
0.00280219
0.00179662
0.00179414
0.00179364
0.00179482
0.00179761
0.00180171
0.00180788
0.0018177
0.00184196
0.00188925
0.001884
0.00188239
0.00188186
0.00188232
0.00188391
0.00188668
0.00189066
0.00189666
0.00190559
0.00191913
0.0140606
0.0136433
0.0135085
0.013659
0.0140982
0.0147396
0.0151424
0.0142151
0.0101114
0.00583766
0.0372095
0.0362406
0.0359012
0.0360474
0.036365
0.0359464
0.0330139
0.0253629
0.0133435
0.00709938
0.0410801
0.0397746
0.0393434
0.0395692
0.0400668
0.0397156
0.0361964
0.0266174
0.01254
0.00720368
0.0413083
0.0397911
0.0393742
0.0397137
0.0405185
0.0406502
0.0373601
0.0266918
0.0114198
0.00717597
0.040567
0.0389575
0.0385206
0.038924
0.0399531
0.0405732
0.0376955
0.0261752
0.0103054
0.00724824
0.0394611
0.0378926
0.0374985
0.0379061
0.0390377
0.0400172
0.0376483
0.0255282
0.00938143
0.00733267
0.0336213
0.0324565
0.0321462
0.032463
0.033404
0.0345661
0.0334135
0.0226389
0.00797008
0.00704476
0.0122612
0.0120054
0.0119608
0.0120212
0.0122173
0.012451
0.0126064
0.0106476
0.00448947
0.00445845
0.00178929
0.00178638
0.00178549
0.00178638
0.00178906
0.00179342
0.00180044
0.00181226
0.00183899
0.00189248
0.00187583
0.0018747
0.00187432
0.00187467
0.00187583
0.0018777
0.00188002
0.0018831
0.00188705
0.00189173
0.0134705
0.0132218
0.0131304
0.0132264
0.0135178
0.0139745
0.014449
0.0148648
0.0145948
0.0128628
0.0340375
0.0333529
0.0331566
0.0333589
0.0339255
0.0346054
0.0346327
0.0324118
0.0256871
0.0173829
0.0376431
0.0367006
0.0364313
0.0367226
0.0375316
0.0385393
0.0385996
0.035295
0.0257939
0.0167219
0.0381893
0.0370955
0.0368262
0.0371827
0.0381962
0.0395781
0.0399747
0.036146
0.0246356
0.0158803
0.0378682
0.0366906
0.036388
0.0367837
0.0379436
0.0396882
0.0405392
0.0363523
0.0231446
0.0153345
0.037208
0.0360313
0.0357493
0.0361375
0.0373406
0.039281
0.0405162
0.0360608
0.0215258
0.0148468
0.0322061
0.0313232
0.0310924
0.0313792
0.032287
0.0339188
0.0354083
0.0320008
0.0185306
0.0137259
0.0121954
0.0119846
0.0119518
0.011998
0.0121473
0.0123388
0.0125459
0.0126748
0.00958986
0.00832208
0.00178037
0.00177732
0.00177631
0.00177711
0.00177981
0.00178447
0.00179206
0.00180476
0.0018309
0.00187825
0.00186477
0.00186408
0.00186385
0.00186409
0.00186484
0.00186595
0.00186714
0.00186856
0.00187014
0.00187161
0.0131885
0.0130506
0.0129901
0.0130498
0.0132297
0.0134907
0.013722
0.0140112
0.0142929
0.0144158
0.0315048
0.031103
0.0309959
0.0311208
0.0315048
0.0321198
0.0328083
0.0330918
0.0316408
0.0274622
0.0347717
0.0341684
0.0339985
0.0341941
0.0347901
0.0357759
0.0368786
0.0371118
0.0340984
0.0274701
0.0355139
0.0347892
0.0346122
0.0348528
0.0355968
0.0368638
0.0383265
0.0385855
0.0342366
0.026305
0.0355122
0.0347005
0.0344847
0.0347607
0.0356213
0.0371625
0.0390483
0.03946
0.0338324
0.0253961
0.0352028
0.0343579
0.0341493
0.0344256
0.035329
0.0370011
0.0391541
0.0396419
0.0328257
0.024445
0.0309623
0.0303137
0.0301377
0.0303454
0.0310156
0.0323217
0.0341958
0.0350328
0.0289335
0.022297
0.0121772
0.0120034
0.0119795
0.012011
0.0121128
0.0122317
0.0123026
0.0126985
0.0125769
0.0122148
0.00177003
0.00176696
0.00176588
0.00176662
0.00176929
0.00177403
0.00178167
0.00179404
0.00181675
0.00185338
0.00185135
0.001851
0.00185088
0.00185103
0.00185147
0.00185204
0.00185255
0.00185314
0.00185372
0.00185411
0.0131467
0.0130799
0.0130419
0.013081
0.0131931
0.0133318
0.0134239
0.0135394
0.0136596
0.0137518
0.0297468
0.0295528
0.0295045
0.0295644
0.0297581
0.0300874
0.0305438
0.0310963
0.0314204
0.0310594
0.0326051
0.0322636
0.0321642
0.0322712
0.0326173
0.0332409
0.0341526
0.0351953
0.0354832
0.0339475
0.0333873
0.0329487
0.0328405
0.0329794
0.0334343
0.0342674
0.035511
0.0369086
0.0369253
0.0340671
0.0335735
0.0330492
0.0329026
0.0330743
0.0336295
0.0346836
0.0363082
0.0381543
0.0378639
0.033851
0.0334982
0.0329218
0.0327745
0.0329531
0.0335592
0.0347306
0.0365771
0.0386929
0.0379554
0.033104
0.0299099
0.0294538
0.0293258
0.0294662
0.0299201
0.0308163
0.0322765
0.0342208
0.0337732
0.029959
0.0122103
0.0120677
0.0120523
0.0120722
0.0121362
0.0121897
0.0121422
0.0123376
0.0127499
0.013642
0.00175809
0.00175512
0.00175404
0.00175473
0.00175729
0.00176188
0.00176913
0.00178039
0.00179886
0.00182534
0.00183595
0.00183584
0.0018358
0.00183588
0.00183611
0.00183633
0.00183652
0.00183672
0.00183689
0.00183694
0.0132689
0.0132498
0.0132289
0.0132556
0.013325
0.0133884
0.0134283
0.0134711
0.0135023
0.0134925
0.028686
0.0286085
0.0285928
0.0286178
0.0287003
0.0288352
0.0290281
0.0292939
0.029576
0.029794
0.031128
0.0309502
0.0308955
0.0309481
0.0311264
0.0314518
0.0319534
0.0326517
0.0333527
0.0337477
0.0318259
0.0315794
0.0315181
0.0315907
0.0318415
0.0323052
0.0330419
0.0341023
0.0350994
0.0353928
0.0320811
0.0317606
0.0316657
0.0317651
0.0320959
0.0327281
0.0337643
0.0353067
0.0366678
0.0367265
0.0321321
0.0317563
0.0316572
0.0317651
0.0321456
0.0328818
0.0341065
0.0359751
0.0374875
0.0371095
0.0290762
0.0287687
0.02868
0.0287695
0.0290584
0.0296195
0.0305445
0.032119
0.033565
0.0335535
0.0123031
0.0121855
0.0121775
0.0121887
0.0122235
0.0122227
0.0121016
0.0121052
0.0122927
0.0129885
0.00174443
0.00174166
0.00174063
0.00174125
0.00174363
0.00174787
0.00175441
0.00176414
0.00177854
0.00179711
0.00181882
0.00181884
0.00181886
0.0018189
0.001819
0.00181904
0.00181908
0.00181911
0.00181912
0.00181905
0.0134974
0.0135131
0.0135059
0.0135244
0.0135648
0.01359
0.0136095
0.0136262
0.0136272
0.0135853
0.0281285
0.0281062
0.028106
0.0281161
0.0281471
0.0281925
0.028258
0.0283472
0.0284451
0.0285294
0.0302034
0.030114
0.0300846
0.0301094
0.0301975
0.0303554
0.030594
0.0309254
0.0313009
0.0316333
0.0307581
0.0306263
0.0305939
0.0306296
0.0307601
0.0309975
0.0313693
0.0319181
0.0325618
0.0331327
0.0310022
0.0308145
0.0307557
0.0308106
0.0309985
0.0313519
0.0319249
0.0328157
0.0338884
0.0348258
0.0310993
0.0308631
0.0307994
0.0308613
0.03109
0.0315245
0.032238
0.0333917
0.0347813
0.0359176
0.0284656
0.0282665
0.0282081
0.0282623
0.0284357
0.0287612
0.0292768
0.0302109
0.0314719
0.0327076
0.0124618
0.0123633
0.0123616
0.0123665
0.0123796
0.0123369
0.01218
0.0120731
0.0120535
0.0123164
0.00172892
0.00172643
0.00172549
0.00172605
0.00172817
0.00173192
0.00173756
0.00174558
0.00175646
0.00176926
0.00180005
0.00180016
0.0018002
0.00180022
0.00180024
0.00180022
0.0018002
0.00180016
0.00180012
0.00180001
0.0137983
0.0138412
0.0138457
0.0138585
0.0138769
0.0138879
0.0138988
0.0139056
0.0138958
0.0138432
0.0278888
0.0278905
0.0278968
0.0279012
0.0279106
0.0279231
0.0279419
0.027966
0.0279895
0.0280041
0.0296658
0.0296202
0.029604
0.029616
0.0296601
0.0297375
0.0298499
0.0299968
0.0301573
0.0302921
0.0300731
0.0300044
0.029988
0.030005
0.0300716
0.0301899
0.0303683
0.0306189
0.0309131
0.0311798
0.0302683
0.0301614
0.030126
0.0301556
0.0302598
0.0304513
0.0307512
0.031199
0.0317601
0.0323127
0.0303636
0.030219
0.0301794
0.0302136
0.0303476
0.0305957
0.0309889
0.0316043
0.0323977
0.0331949
0.0280643
0.02794
0.0279038
0.0279348
0.0280324
0.028206
0.0284654
0.0289375
0.0296428
0.0305011
0.0126913
0.0126068
0.0126104
0.0126108
0.0126081
0.012536
0.0123696
0.0122157
0.0120896
0.0121485
0.00171146
0.00170932
0.00170849
0.00170898
0.0017108
0.00171398
0.00171864
0.001725
0.00173298
0.00174164
0.0017797
0.00177983
0.00177989
0.00177989
0.00177988
0.00177985
0.00177981
0.00177976
0.00177971
0.00177958
0.0141698
0.0142228
0.0142377
0.0142462
0.0142527
0.0142599
0.0142668
0.0142688
0.0142542
0.0141961
0.027837
0.0278462
0.0278549
0.0278572
0.027859
0.0278616
0.0278657
0.0278701
0.0278717
0.0278673
0.0293748
0.0293501
0.0293408
0.0293469
0.0293703
0.0294106
0.0294667
0.0295356
0.0296058
0.0296581
0.0296594
0.029623
0.0296147
0.029623
0.0296576
0.0297176
0.0298046
0.0299187
0.0300454
0.0301498
0.0297979
0.0297378
0.0297168
0.0297328
0.0297903
0.0298935
0.0300493
0.0302676
0.0305325
0.0307799
0.029871
0.0297833
0.0297592
0.0297779
0.0298557
0.0299961
0.03021
0.0305252
0.0309206
0.0312967
0.027845
0.0277698
0.0277488
0.0277656
0.027816
0.0278972
0.0280136
0.0282265
0.0285565
0.0289739
0.0129959
0.0129212
0.0129292
0.0129267
0.0129122
0.0128232
0.0126641
0.0125021
0.0123367
0.0123354
0.00169201
0.00169024
0.00168954
0.00168995
0.00169145
0.00169403
0.00169775
0.0017026
0.0017083
0.00171406
0.00175773
0.00175786
0.00175792
0.00175792
0.00175791
0.00175787
0.00175784
0.00175779
0.00175774
0.00175762
0.0146082
0.0146652
0.0146832
0.01469
0.0146951
0.0147003
0.0147046
0.0147039
0.0146862
0.014624
0.0278897
0.0279004
0.0279085
0.0279107
0.0279111
0.0279112
0.0279113
0.0279106
0.0279068
0.0278979
0.0292296
0.0292151
0.0292094
0.0292128
0.0292261
0.0292487
0.0292791
0.0293146
0.0293488
0.0293715
0.0294237
0.0294035
0.0293989
0.0294032
0.0294221
0.0294545
0.0294996
0.029555
0.0296124
0.0296558
0.0295139
0.0294799
0.0294675
0.0294763
0.0295085
0.0295649
0.029647
0.0297553
0.0298805
0.0299918
0.0295623
0.0295086
0.0294939
0.0295044
0.0295502
0.0296304
0.0297485
0.0299118
0.0301057
0.0302753
0.0277732
0.0277289
0.0277179
0.0277262
0.0277487
0.0277777
0.0278208
0.0279041
0.02804
0.0282341
0.0133804
0.0133122
0.0133243
0.0133196
0.0132959
0.0132024
0.0130604
0.0129115
0.0127441
0.012743
0.00167052
0.00166911
0.00166855
0.00166887
0.00167007
0.00167209
0.00167494
0.00167851
0.00168248
0.00168625
0.0017341
0.00173421
0.00173427
0.00173427
0.00173426
0.00173423
0.0017342
0.00173416
0.00173412
0.001734
0.0151184
0.015179
0.0151983
0.015205
0.0152093
0.0152131
0.0152157
0.015213
0.0151932
0.0151271
0.0279991
0.0280098
0.028017
0.0280192
0.0280196
0.0280193
0.0280186
0.0280169
0.0280121
0.0280024
0.0291649
0.0291559
0.0291523
0.0291544
0.0291623
0.0291756
0.0291932
0.029213
0.0292315
0.0292427
0.0292974
0.0292851
0.0292821
0.0292846
0.0292959
0.0293148
0.0293404
0.0293701
0.029399
0.0294198
0.0293526
0.029333
0.0293255
0.0293306
0.029349
0.0293806
0.0294252
0.0294807
0.0295421
0.0295963
0.0293826
0.0293487
0.0293396
0.0293459
0.0293737
0.029421
0.0294884
0.0295765
0.0296748
0.0297567
0.0278129
0.0277875
0.0277828
0.0277863
0.027793
0.0277967
0.0278053
0.0278292
0.027875
0.0279731
0.0138514
0.0137876
0.0138037
0.0137973
0.0137654
0.0136798
0.0135601
0.0134342
0.0132826
0.0133045
0.00164697
0.00164589
0.00164547
0.00164571
0.00164662
0.00164814
0.00165025
0.0016528
0.00165549
0.00165792
0.00170871
0.00170882
0.00170887
0.00170886
0.00170886
0.00170884
0.00170881
0.00170879
0.00170875
0.00170864
0.0157117
0.0157761
0.0157964
0.0158031
0.0158069
0.0158096
0.0158109
0.0158069
0.0157853
0.0157153
0.0281391
0.0281493
0.0281557
0.0281578
0.0281583
0.0281581
0.0281576
0.0281559
0.0281514
0.0281416
0.0291418
0.0291362
0.029134
0.0291352
0.0291399
0.0291478
0.0291582
0.0291697
0.0291804
0.0291864
0.0292339
0.0292258
0.0292235
0.0292251
0.0292324
0.0292444
0.0292603
0.029278
0.0292945
0.0293061
0.0292665
0.0292549
0.0292503
0.0292533
0.0292642
0.0292824
0.0293073
0.029337
0.0293686
0.0293974
0.0292866
0.0292644
0.0292586
0.0292627
0.0292803
0.0293095
0.0293499
0.0294002
0.0294532
0.0294977
0.0279325
0.0279176
0.0279167
0.0279176
0.0279159
0.0279105
0.0279053
0.027905
0.0279129
0.027971
0.0144196
0.0143586
0.014379
0.014371
0.0143338
0.0142663
0.0141705
0.0140704
0.0139417
0.0139924
0.00162135
0.00162056
0.00162025
0.00162043
0.00162109
0.0016222
0.00162371
0.00162546
0.00162724
0.00162879
0.00168149
0.00168159
0.00168163
0.00168163
0.00168163
0.00168162
0.0016816
0.00168158
0.00168155
0.00168144
0.0164061
0.0164745
0.0164958
0.0165024
0.0165058
0.0165077
0.0165081
0.0165032
0.0164803
0.016406
0.0282954
0.0283052
0.0283107
0.0283127
0.0283132
0.0283133
0.028313
0.0283117
0.0283077
0.0282981
0.0291386
0.0291353
0.029134
0.0291346
0.0291373
0.0291418
0.0291477
0.0291544
0.0291607
0.0291641
0.0292043
0.0291987
0.0291968
0.0291979
0.0292028
0.0292109
0.0292214
0.0292329
0.0292432
0.0292506
0.0292233
0.0292162
0.0292133
0.0292151
0.0292217
0.0292326
0.0292469
0.0292634
0.0292805
0.029297
0.0292408
0.0292257
0.0292218
0.0292248
0.0292364
0.0292554
0.0292808
0.0293112
0.0293421
0.0293698
0.0281066
0.028095
0.0280963
0.0280959
0.0280917
0.028085
0.0280762
0.0280682
0.0280623
0.0281038
0.0151149
0.0150451
0.0150677
0.0150579
0.0150289
0.0149787
0.0149063
0.0148311
0.014726
0.0148043
0.00159367
0.0015931
0.00159288
0.00159301
0.00159348
0.00159426
0.00159529
0.00159646
0.00159761
0.00159858
0.00165237
0.00165246
0.00165249
0.00165249
0.00165249
0.00165248
0.00165247
0.00165245
0.00165243
0.00165233
0.0172274
0.0173004
0.0173223
0.0173287
0.017332
0.0173333
0.0173331
0.0173277
0.0173039
0.0172249
0.0284601
0.0284692
0.0284738
0.0284756
0.0284762
0.0284765
0.0284765
0.0284756
0.0284723
0.0284632
0.0291437
0.0291419
0.0291413
0.0291416
0.029143
0.0291453
0.0291484
0.029152
0.0291557
0.0291578
0.0291917
0.0291876
0.029186
0.0291868
0.0291901
0.0291958
0.029203
0.0292107
0.0292176
0.0292225
0.0292027
0.0291982
0.0291963
0.0291974
0.0292014
0.029208
0.0292165
0.029226
0.0292356
0.0292456
0.029222
0.0292114
0.0292088
0.029211
0.029219
0.0292318
0.0292483
0.0292677
0.0292868
0.0293063
0.0283126
0.0283017
0.0283028
0.0283025
0.0282994
0.0282939
0.0282862
0.0282777
0.0282684
0.0283023
0.0159635
0.0158862
0.015903
0.0158968
0.0158774
0.015843
0.0157924
0.015739
0.0156559
0.0157571
0.00156391
0.00156352
0.00156337
0.00156346
0.00156378
0.0015643
0.00156499
0.00156574
0.00156646
0.00156705
0.00162131
0.00162138
0.00162141
0.00162141
0.00162141
0.0016214
0.00162139
0.00162138
0.00162136
0.00162127
0.0182126
0.0182908
0.0183128
0.0183189
0.0183223
0.0183232
0.0183226
0.0183171
0.0182928
0.0182087
0.0286271
0.0286354
0.0286391
0.0286406
0.0286412
0.0286417
0.0286419
0.0286414
0.028639
0.0286308
0.0291514
0.0291506
0.0291503
0.0291505
0.0291511
0.029152
0.0291533
0.0291551
0.0291572
0.0291587
0.0291863
0.0291834
0.0291821
0.0291825
0.0291848
0.0291886
0.0291935
0.0291988
0.0292035
0.029207
0.0291925
0.0291895
0.0291882
0.0291888
0.0291913
0.0291953
0.0292004
0.029206
0.0292116
0.0292179
0.0292151
0.0292075
0.0292057
0.0292074
0.029213
0.0292216
0.0292326
0.0292452
0.0292575
0.0292722
0.0285315
0.0285211
0.0285218
0.0285218
0.02852
0.0285167
0.0285115
0.0285052
0.0284967
0.028526
0.0170038
0.0169209
0.0169318
0.0169289
0.016918
0.016898
0.0168671
0.0168321
0.0167686
0.0168862
0.00153209
0.00153184
0.00153174
0.0015318
0.001532
0.00153234
0.00153278
0.00153324
0.00153368
0.00153404
0.00158835
0.00158842
0.00158844
0.00158845
0.00158845
0.00158844
0.00158843
0.00158842
0.0015884
0.00158831
0.019416
0.0194999
0.0195222
0.0195279
0.0195306
0.019531
0.0195303
0.019525
0.0195011
0.0194113
0.0287905
0.0287975
0.0288003
0.0288013
0.0288019
0.0288024
0.0288029
0.0288029
0.0288015
0.0287947
0.0291586
0.0291583
0.0291583
0.0291583
0.0291585
0.0291587
0.029159
0.0291597
0.0291607
0.029162
0.029183
0.0291808
0.0291798
0.02918
0.0291814
0.0291839
0.0291872
0.0291907
0.0291939
0.0291964
0.0291859
0.0291839
0.0291829
0.0291833
0.0291847
0.0291872
0.0291902
0.0291935
0.0291968
0.0292008
0.0292102
0.0292049
0.0292037
0.0292049
0.0292087
0.0292144
0.0292215
0.0292296
0.0292374
0.0292486
0.0287456
0.0287361
0.0287364
0.0287366
0.0287361
0.0287347
0.028732
0.0287284
0.0287219
0.0287472
0.0182927
0.0182069
0.0182115
0.0182114
0.0182082
0.0182012
0.0181886
0.0181687
0.0181236
0.0182493
0.00149831
0.00149816
0.00149809
0.00149813
0.00149825
0.00149847
0.00149874
0.00149901
0.00149928
0.00149948
0.00155374
0.0015538
0.00155381
0.00155382
0.00155382
0.00155381
0.0015538
0.00155379
0.00155377
0.00155369
0.02092
0.0210094
0.0210319
0.021037
0.021038
0.0210381
0.0210373
0.0210326
0.02101
0.0209148
0.0289415
0.0289467
0.0289483
0.0289488
0.0289493
0.0289498
0.0289506
0.0289511
0.0289507
0.0289463
0.0291634
0.0291634
0.0291635
0.0291635
0.0291635
0.0291634
0.0291633
0.0291634
0.0291638
0.0291649
0.0291791
0.0291775
0.0291767
0.0291767
0.0291776
0.0291791
0.0291811
0.0291833
0.0291855
0.0291874
0.0291798
0.0291784
0.0291778
0.0291779
0.0291788
0.0291801
0.0291818
0.0291837
0.0291855
0.029188
0.0292011
0.0291977
0.0291968
0.0291977
0.0292
0.0292035
0.0292078
0.0292126
0.0292173
0.0292254
0.0289355
0.0289275
0.0289275
0.0289279
0.028928
0.0289278
0.0289269
0.0289254
0.0289211
0.0289419
0.0199137
0.0198283
0.0198258
0.0198278
0.0198318
0.0198373
0.0198428
0.0198362
0.0198108
0.0199332
0.00146277
0.00146267
0.00146262
0.00146265
0.00146272
0.00146285
0.00146302
0.00146318
0.00146335
0.00146345
0.00151766
0.0015177
0.00151771
0.00151771
0.00151771
0.0015177
0.0015177
0.0015177
0.00151768
0.00151763
0.0228576
0.0229496
0.0229693
0.0229734
0.0229742
0.0229741
0.0229732
0.0229692
0.0229493
0.0228511
0.029068
0.0290706
0.029071
0.0290709
0.0290711
0.0290717
0.0290726
0.0290736
0.0290743
0.0290731
0.0291653
0.0291653
0.0291654
0.0291654
0.0291653
0.0291652
0.0291651
0.029165
0.029165
0.0291659
0.0291743
0.0291733
0.0291727
0.0291727
0.0291732
0.029174
0.0291752
0.0291765
0.0291779
0.0291793
0.0291739
0.029173
0.0291726
0.0291727
0.0291731
0.0291738
0.0291747
0.0291757
0.0291767
0.029178
0.0291863
0.0291843
0.0291838
0.0291842
0.0291855
0.0291875
0.0291898
0.0291923
0.0291949
0.0291999
0.0290801
0.029074
0.0290739
0.0290741
0.0290744
0.0290745
0.0290743
0.0290739
0.0290718
0.0290874
0.0220132
0.0219348
0.0219328
0.0219346
0.0219377
0.0219419
0.0219461
0.021949
0.0219499
0.022053
0.00142558
0.00142551
0.00142548
0.0014255
0.00142554
0.00142562
0.00142572
0.00142583
0.00142594
0.001426
0.00147926
0.00147926
0.00147925
0.00147924
0.00147924
0.00147924
0.00147925
0.00147926
0.00147929
0.00147931
0.0254663
0.0255468
0.0255605
0.0255634
0.025564
0.0255637
0.0255626
0.0255593
0.0255445
0.0254562
0.0291564
0.0291561
0.0291554
0.029155
0.029155
0.0291554
0.0291563
0.0291576
0.0291592
0.029161
0.029165
0.029165
0.0291651
0.0291651
0.0291651
0.0291651
0.0291651
0.0291651
0.029165
0.0291654
0.0291706
0.0291699
0.0291696
0.0291696
0.0291699
0.0291704
0.0291711
0.0291718
0.0291727
0.0291735
0.0291701
0.0291696
0.0291693
0.0291693
0.0291696
0.0291701
0.0291706
0.0291712
0.0291718
0.0291724
0.0291722
0.0291712
0.0291709
0.0291712
0.0291719
0.029173
0.0291742
0.0291755
0.0291768
0.029179
0.0291674
0.0291637
0.0291632
0.0291632
0.0291632
0.0291631
0.0291631
0.0291631
0.0291633
0.0291731
0.0249078
0.024849
0.0248479
0.0248491
0.0248511
0.0248539
0.0248567
0.0248585
0.0248588
0.0249357
0.00138598
0.00138593
0.0013859
0.00138592
0.00138595
0.00138602
0.00138609
0.00138617
0.00138625
0.0013863
0.0023441
0.00236498
0.00235476
0.00232085
0.00141075
0.00143375
0.0014311
0.0014263
0.00188732
0.00192938
0.00192024
0.00189557
0.00227432
0.00233247
0.00231293
0.00226669
0.00262186
0.00269299
0.00266097
0.00259646
0.00296337
0.00304566
0.00300542
0.00293189
0.00324549
0.00333594
0.00329364
0.00322028
0.0034132
0.00351001
0.00346999
0.0034013
0.00304496
0.0031345
0.00309569
0.00303994
0.00237493
0.00239158
0.00235673
0.0022755
0.00202752
0.00203322
0.00203434
0.00203133
0.00235377
0.00243402
0.002334
0.0021422
0.00330837
0.00342285
0.00329239
0.00305454
0.00407215
0.00424058
0.00408191
0.00378392
0.0048543
0.00509027
0.00489565
0.00451985
0.00582961
0.00615565
0.00591408
0.00542928
0.00679613
0.00720987
0.00690822
0.00631012
0.00749407
0.00799214
0.00763398
0.00693885
0.00591822
0.0063549
0.00600208
0.00540516
0.00218183
0.00221418
0.00220733
0.00217155
0.00193318
0.00193524
0.00193539
0.00193413
0.00406677
0.00404215
0.00405243
0.00414343
0.00499154
0.00497286
0.00499289
0.00509707
0.00549631
0.00551602
0.00553577
0.00558545
0.0060115
0.00606566
0.00606886
0.00602715
0.00675502
0.00685187
0.00681208
0.00663406
0.00751354
0.00763711
0.00752336
0.00718534
0.00805227
0.00821289
0.00802544
0.00752649
0.00612615
0.00626595
0.00608983
0.00560868
0.00204819
0.0020653
0.00206339
0.00204564
0.00189446
0.00189469
0.00189481
0.00189485
0.0102414
0.00996264
0.0100984
0.0106129
0.0119482
0.0116141
0.0119168
0.0128101
0.0114409
0.0112599
0.011632
0.0125267
0.0110906
0.0110296
0.0114265
0.0122568
0.011209
0.0112518
0.0116421
0.012369
0.0114057
0.0115077
0.0118463
0.0124249
0.0113565
0.0115339
0.0118041
0.0121751
0.00802027
0.00820492
0.00832792
0.00836914
0.00195697
0.00196742
0.00196839
0.0019604
0.00187255
0.00187259
0.00187262
0.00187264
0.0144914
0.0144313
0.0144593
0.0145686
0.0238428
0.0235192
0.0237069
0.0243337
0.0222467
0.0219548
0.0223073
0.0232339
0.0203819
0.0202027
0.0206826
0.02179
0.019332
0.019302
0.0198731
0.0210715
0.0185196
0.0185949
0.019188
0.0203798
0.0173333
0.0175457
0.018101
0.0191136
0.0108826
0.0111179
0.0113593
0.011673
0.00189373
0.00190022
0.00190168
0.00189828
0.00185453
0.0018545
0.00185449
0.00185448
0.0140871
0.0140134
0.0140039
0.0140588
0.0304055
0.0302988
0.0303247
0.0304716
0.0317994
0.0315607
0.0316513
0.032028
0.0304339
0.0301468
0.0303673
0.0310259
0.0290269
0.0288092
0.0291986
0.0301282
0.0274512
0.0273237
0.0278388
0.0289674
0.0247781
0.0248434
0.0254009
0.0264785
0.0131764
0.0134087
0.0135844
0.0137452
0.0018458
0.00184972
0.001851
0.00184965
0.00183724
0.0018372
0.00183717
0.00183716
0.0137855
0.0136948
0.0136771
0.0137314
0.0299179
0.029921
0.0299353
0.0299609
0.033678
0.0336815
0.033714
0.0337728
0.0348275
0.0347814
0.0348425
0.0349987
0.0353491
0.0352643
0.0354009
0.0357283
0.0347112
0.0345979
0.0348303
0.0353649
0.0311031
0.0311349
0.0314471
0.0320126
0.0133188
0.0135961
0.0136573
0.0135497
0.00180746
0.00180985
0.00181079
0.00181028
0.00181932
0.00181927
0.00181924
0.00181923
0.0138651
0.0137679
0.0137478
0.0138033
0.0286267
0.02862
0.0286229
0.0286358
0.0317616
0.0317879
0.0318052
0.0318141
0.0333196
0.033365
0.0333979
0.0334195
0.0350558
0.035129
0.0351904
0.0352418
0.0359228
0.0359872
0.0360733
0.0361817
0.0326261
0.0327842
0.0329109
0.0330096
0.0123948
0.0126513
0.0126918
0.0125529
0.00177462
0.00177614
0.00177677
0.00177654
0.00180027
0.00180021
0.00180018
0.00180018
0.0141243
0.0140239
0.0140028
0.0140596
0.0280691
0.0280563
0.0280549
0.0280651
0.0303432
0.0303512
0.0303563
0.0303585
0.0312826
0.0313039
0.0313168
0.0313215
0.0325605
0.0326174
0.0326488
0.0326562
0.0334967
0.0335752
0.0336188
0.0336322
0.0307778
0.0309453
0.0310138
0.0309907
0.0119594
0.012184
0.0122257
0.0121039
0.00174453
0.00174556
0.00174597
0.00174579
0.00177985
0.00177978
0.00177975
0.00177975
0.0144826
0.0143792
0.0143574
0.0144155
0.0279219
0.0279084
0.0279062
0.0279155
0.0296755
0.0296766
0.0296776
0.0296785
0.0301807
0.030186
0.0301893
0.0301907
0.0308835
0.0309063
0.0309186
0.0309205
0.0314168
0.0314497
0.0314677
0.0314722
0.0290447
0.0291547
0.0291946
0.0291658
0.0120341
0.0122534
0.012295
0.0121726
0.00171566
0.00171641
0.00171666
0.00171648
0.00175789
0.00175782
0.00175779
0.00175779
0.0149178
0.0148112
0.0147886
0.0148483
0.027948
0.0279351
0.0279328
0.0279414
0.029379
0.0293785
0.0293785
0.0293791
0.0296646
0.0296654
0.0296661
0.0296665
0.0300341
0.0300429
0.0300476
0.030048
0.0303023
0.0303128
0.0303191
0.0303212
0.0281872
0.0282619
0.0282863
0.02826
0.0123991
0.0126298
0.0126725
0.0125407
0.00168715
0.00168772
0.00168789
0.00168769
0.00173429
0.00173421
0.00173417
0.00173418
0.0154297
0.0153195
0.0152959
0.0153574
0.0280488
0.0280365
0.0280342
0.0280423
0.0292468
0.0292461
0.029246
0.0292466
0.0294229
0.0294228
0.0294229
0.029423
0.0296171
0.0296213
0.0296234
0.0296233
0.0297564
0.0297599
0.0297621
0.029763
0.0278903
0.0279491
0.0279665
0.027942
0.0129403
0.01319
0.0132355
0.0130915
0.00165842
0.00165889
0.00165899
0.0016588
0.00170893
0.00170885
0.00170881
0.00170882
0.0160285
0.0159138
0.0158891
0.0159527
0.028184
0.0281725
0.0281703
0.0281776
0.0291891
0.0291884
0.0291883
0.0291888
0.0293076
0.0293075
0.0293074
0.0293075
0.0294098
0.0294123
0.0294135
0.0294133
0.0294922
0.029494
0.0294951
0.0294953
0.0278834
0.0279342
0.0279484
0.0279257
0.0136138
0.0138865
0.0139357
0.0137782
0.00162904
0.00162945
0.00162952
0.00162932
0.00168174
0.00168165
0.00168161
0.00168163
0.0167318
0.0166118
0.0165857
0.0166518
0.0283363
0.0283255
0.0283233
0.02833
0.029166
0.0291654
0.0291653
0.0291658
0.0292515
0.0292515
0.0292514
0.0292514
0.0293053
0.0293071
0.0293078
0.0293076
0.0293655
0.029367
0.0293677
0.0293676
0.0280221
0.0280674
0.0280798
0.0280589
0.0144115
0.01471
0.0147636
0.0145911
0.00159869
0.00159905
0.00159909
0.0015989
0.00165265
0.00165254
0.0016525
0.00165253
0.0175657
0.0174391
0.0174112
0.0174803
0.0284967
0.0284868
0.0284847
0.0284906
0.0291591
0.0291586
0.0291586
0.029159
0.0292232
0.0292232
0.0292231
0.0292231
0.0292516
0.0292528
0.0292533
0.029253
0.0293046
0.0293062
0.0293068
0.0293064
0.028231
0.0282717
0.0282825
0.0282635
0.015348
0.0156753
0.0157336
0.0155443
0.00156708
0.0015674
0.00156743
0.00156724
0.0016216
0.00162149
0.00162145
0.00162148
0.0185673
0.0184323
0.0184021
0.0184749
0.0286591
0.0286501
0.0286482
0.0286534
0.0291596
0.0291593
0.0291593
0.0291596
0.0292075
0.0292075
0.0292074
0.0292074
0.0292223
0.0292231
0.0292234
0.0292232
0.029273
0.0292746
0.0292752
0.0292746
0.0284679
0.0285042
0.0285136
0.0284961
0.0164569
0.0168161
0.0168792
0.0166711
0.00153402
0.00153431
0.00153433
0.00153415
0.00158866
0.00158854
0.0015885
0.00158854
0.0197912
0.0196451
0.0196117
0.0196893
0.0288172
0.0288095
0.0288077
0.0288122
0.0291627
0.0291625
0.0291625
0.0291628
0.0291969
0.0291969
0.0291969
0.0291969
0.0292039
0.0292045
0.0292047
0.0292044
0.0292512
0.0292528
0.0292533
0.0292526
0.0287047
0.0287367
0.0287444
0.0287283
0.0177925
0.0181858
0.0182532
0.018025
0.00149944
0.00149968
0.0014997
0.00149955
0.00155407
0.00155394
0.00155391
0.00155395
0.0213177
0.021156
0.0211183
0.0212023
0.0289646
0.0289585
0.028957
0.0289604
0.0291655
0.0291654
0.0291654
0.0291655
0.029188
0.0291881
0.0291881
0.0291881
0.0291901
0.0291905
0.0291906
0.0291904
0.0292288
0.0292302
0.0292306
0.0292299
0.0289167
0.0289441
0.0289501
0.0289354
0.0194343
0.0198575
0.0199275
0.0196813
0.00146343
0.00146362
0.00146364
0.00146352
0.00151805
0.00151793
0.0015179
0.00151795
0.0232722
0.0230879
0.0230445
0.0231383
0.0290881
0.0290842
0.0290832
0.0290854
0.0291661
0.0291661
0.0291661
0.0291661
0.0291799
0.02918
0.0291801
0.0291802
0.0291792
0.0291794
0.0291794
0.0291793
0.0292029
0.0292039
0.0292042
0.0292036
0.0290789
0.0291006
0.0291047
0.029092
0.0215231
0.0219756
0.0220426
0.0217749
0.0014261
0.00142625
0.00142626
0.00142617
0.00147976
0.00147967
0.00147965
0.00147971
0.0258486
0.0256398
0.0255942
0.0257014
0.0291711
0.0291695
0.029169
0.0291699
0.0291649
0.0291648
0.0291648
0.0291647
0.0291741
0.0291742
0.0291742
0.0291743
0.0291728
0.0291728
0.0291729
0.0291729
0.0291804
0.0291808
0.0291809
0.0291807
0.0291753
0.0291876
0.0291895
0.0291818
0.0244728
0.0248978
0.0249473
0.0246877
0.00138667
0.0013868
0.0013868
0.00138671
0.00215544
0.00203888
0.00197445
0.00194191
0.00192279
0.0019104
0.00190222
0.00189703
0.00189369
0.00189141
0.00174759
0.00158339
0.00476577
0.00942427
0.0139348
0.0171223
0.0186324
0.0187829
0.0181507
0.0172099
0.00236387
0.0025747
0.00732527
0.015553
0.0249571
0.0330778
0.0390624
0.042865
0.0447409
0.0451273
0.00276872
0.00359856
0.00828955
0.0178409
0.029167
0.038519
0.0449937
0.0487235
0.0501601
0.0499508
0.00307737
0.00394258
0.00871761
0.0193465
0.0320845
0.0419657
0.04815
0.0510026
0.0513169
0.0501039
0.00338926
0.00407179
0.00893973
0.0204194
0.0342685
0.0443135
0.0498917
0.0516814
0.0509051
0.0488642
0.00363147
0.00408521
0.00897042
0.0211721
0.0359008
0.0457611
0.0504405
0.0510696
0.049343
0.0468093