/*--------------------------------*- C++ -*----------------------------------*\
| =========                 |                                                 |
| \\      /  F ield         | foam-extend: Open Source CFD                    |
|  \\    /   O peration     | Version:     4.0                                |
|   \\  /    A nd           | Web:         http://www.foam-extend.org         |
|    \\/     M anipulation  |                                                 |
\*---------------------------------------------------------------------------*/
FoamFile
{
    version     2.0;
    format      ascii;
    class       volScalarField;
    location    "1600";
    object      epsilon;
}
// * * * * * * * * * * * * * * * * * * * * * * * * * * * * * * * * * * * * * //

dimensions      [0 2 -3 0 0 0 0];

internalField   nonuniform List<scalar> 
34480
(
4930.33
4928.29
4928.17
4929.68
4932.91
4938.11
4950.73
5004.37
5194.19
5725.44
655.547
602.248
601.325
653.302
838.865
1576.25
5099.93
22850.7
103711
382387
618.534
522.948
509.32
568.985
809.835
1829.16
7042.34
35122
172544
699251
524.516
439.167
427.143
484.863
733.608
1883.35
8220.1
44416.8
232234
1.011e+06
456.368
384.529
377.097
432.865
684.559
1927.39
9178.69
52596.7
289206
1.33365e+06
392.236
332.581
326.346
378.208
628.09
1956.06
10122
61050.8
350654
1.6987e+06
353.019
302.54
298.137
346.142
591.181
1962.49
10726
67202.4
400356
2.02264e+06
321.163
281.911
277.503
317.278
533.94
1820.22
10350.1
66982.1
412626
2.16735e+06
459.889
435.808
433.195
458.587
596.872
1409.82
6840.19
43690.9
275945
1.49819e+06
5709.07
5709.28
5714.72
5726.66
5743.48
5763.56
5787.74
5823.66
5890.02
5958.6
4855.8
4853.27
4852.77
4854.27
4858.29
4865.33
4876.47
4902.59
4965.23
5185.75
512.164
479.286
473.643
487.76
532.159
648.604
1002.98
2354.75
11802.2
103656
446.897
383.857
370.158
389.571
458.375
645.677
1229.66
3567.27
21359.3
197646
399.447
338.534
325.074
344.786
416.253
619.996
1294.3
4289.56
30236.9
294767
365.664
310.948
300.405
319.612
390.545
598.644
1321.49
4812.05
38721.5
396528
326.159
278.786
268.972
286.248
351.997
553.829
1293.66
5180.1
47355.4
508604
302.362
260.669
252.482
267.73
328.68
521.105
1255.6
5360.45
54223.3
607849
282.962
249.813
242.129
253.732
301.348
456.339
1074.13
4827.29
54997.6
652034
432.713
410.823
405.717
413.169
443.257
531.416
847.779
2980.16
36401.3
467531
5591.59
5587.26
5587.76
5594.39
5606.06
5620.65
5639.99
5672.97
5740.6
5913.47
4770.71
4768.29
4767.53
4768.36
4771
4775.16
4779.99
4790.78
4814.85
4869.91
399.959
386.506
383.838
388.591
403.715
439.073
527.14
758.69
1517.11
5760.02
308.069
276.842
269.999
279.177
309.591
379.22
550.371
1030.2
2859.78
14989.7
290.159
256.34
248.659
259.235
294.391
378.31
597.115
1279.78
4409.66
28921.5
280.734
247.776
241.319
252.272
289.37
380.138
628.834
1481.24
6141.35
47815.3
261.214
230.958
224.459
234.851
270.528
361.458
624.972
1625.45
8152.48
73166.4
250.42
222.394
216.793
226.273
260.336
348.945
616.861
1724.25
10167.6
101620
242.964
219.99
214.57
222.184
249.495
321.974
549.644
1594.17
11045.9
122923
402.605
386.261
382.508
388.148
408.556
461.402
606.868
1235.3
7682.59
92117.2
5481.92
5474.8
5472.5
5476.07
5484.86
5496.86
5513.35
5544.1
5616.55
5801.95
4674.72
4673.21
4672.77
4673.42
4675.22
4677.53
4678.54
4681.35
4688.75
4704.86
328.506
324.379
323.557
324.646
328.718
339.063
365.085
421.651
541.303
940.696
219.281
206.019
203.16
207.201
220.594
248.893
309.051
445.255
772.201
2086.04
214.376
197.65
193.708
199.229
217.185
256.678
345.481
565.531
1169.65
4141.78
217.489
199.444
195.849
202.046
222.645
269.184
379.422
675.936
1611.43
7155.9
210.628
192.675
188.63
195.016
216.234
266.296
391.952
761.597
2118.1
11602
208.417
190.629
186.976
193.121
214.501
266.005
400.885
827.263
2634.11
17128.3
209.902
194.619
190.891
196.176
214.231
258.755
379.615
795.058
2861.58
21857.7
375.588
363.602
360.768
364.953
379.897
416.824
508.559
782.518
2181.53
16551.7
5359.93
5352.83
5350.27
5353.32
5361.58
5373.97
5391.09
5421.93
5488.71
5631.93
4569.35
4568.66
4568.51
4568.91
4569.89
4570.62
4569.31
4568.18
4568.12
4569.87
285.535
284.792
284.692
284.455
284.443
286.174
293.421
307.412
329.769
376.057
167.889
162.862
161.813
163.23
168.265
178.491
198.29
237.452
308.156
484.291
166.434
158.701
156.732
159.229
167.485
184.725
219.538
294.223
443.198
889.788
173.862
164.545
162.605
165.695
176.142
198.482
245.977
356.465
601.529
1498.08
173.559
163.359
160.861
164.405
176.136
202.359
261.384
410.898
784.055
2435.34
176.027
165.119
162.742
166.364
178.99
207.783
275.253
457.517
966.735
3641.6
183.294
173.409
170.836
174.211
185.529
212.085
276.577
463.526
1058.92
4748.16
351.273
342.671
340.489
343.374
353.901
379.118
438.036
581.415
1009.57
3815.87
5230.26
5223.31
5220.59
5223.16
5230.78
5242.87
5259.51
5287.88
5343.55
5445.91
4455.57
4455.5
4455.57
4455.8
4456.18
4455.85
4453.83
4451.74
4449.97
4448.89
259.812
259.892
259.975
259.451
258.452
258.053
259.957
263.324
268.07
275.355
139.435
137.781
137.506
137.89
139.506
142.754
148.669
159.201
175.211
203.075
137.516
134.128
133.198
134.243
137.797
144.869
157.821
182.38
222.55
303.023
145.012
140.471
139.516
140.943
145.914
155.971
175.293
215.185
286.407
458.074
147.323
141.797
140.339
142.202
148.36
161.391
187.827
247.287
364.152
701.914
151.736
145.33
143.878
145.902
153.027
168.388
200.752
278.292
444.284
1014.31
162.228
156.122
154.443
156.52
163.344
178.601
212.077
297.439
500.572
1321
329.408
323.512
321.906
323.856
331.185
348.438
386.944
467.519
639.995
1290.99
5092.3
5085.76
5083.06
5085.25
5092.17
5103.45
5118.93
5143.83
5186.89
5254.15
4334.08
4334.43
4334.65
4334.76
4334.74
4333.79
4331.92
4329.92
4328.1
4326.75
243.805
243.757
243.782
243.304
242.371
241.929
242.296
243.037
244.15
245.957
123.978
123.559
123.562
123.599
123.987
124.839
126.391
128.986
132.516
137.21
120.654
119.212
118.784
119.198
120.673
123.499
128.26
136.274
147.583
163.76
126.644
124.535
124.108
124.72
126.975
131.319
138.945
152.95
174.422
210.578
129.482
126.599
125.784
126.718
129.825
136.086
147.64
170.71
209.345
285.858
134.241
130.608
129.767
130.838
134.711
142.648
157.807
190.041
247.911
381.64
146.14
142.535
141.49
142.715
146.675
155.184
172.319
210.927
287.039
490.061
310.087
306.238
305.082
306.374
311.444
323.415
349.056
396.259
479.984
667.674
4945.84
4939.89
4937.35
4939.21
4945.33
4955.37
4969.12
4990.1
5022.56
5066.4
4205.4
4206.01
4206.32
4206.35
4206.11
4205.04
4203.54
4201.95
4200.52
4199.44
232.915
232.486
232.383
232.028
231.434
231.252
231.274
231.43
231.825
232.817
115.595
115.569
115.645
115.594
115.602
115.718
115.996
116.509
117.204
117.991
111.044
110.436
110.239
110.398
111.006
112.142
113.939
116.665
120.093
123.806
115.277
114.344
114.178
114.422
115.41
117.24
120.239
125.192
131.955
140.379
117.738
116.286
115.849
116.3
117.825
120.779
125.84
134.858
148.278
167.586
122.064
120.066
119.605
120.144
122.195
126.226
133.337
146.776
167.981
202.466
134.209
132.187
131.569
132.268
134.491
139.135
147.927
165.5
195.919
252.259
293.115
290.755
289.928
290.784
294.327
302.887
320.287
348.945
394.106
462.679
4790.69
4785.51
4783.23
4784.79
4790.04
4798.56
4810.24
4827.23
4851.09
4880.02
4069.86
4070.62
4070.98
4070.97
4070.61
4069.72
4068.62
4067.47
4066.44
4065.64
224.508
223.705
223.47
223.232
222.985
222.933
222.916
222.984
223.275
224.168
111.001
111.061
111.134
111.078
111.004
110.932
110.885
110.892
110.959
111.063
105.698
105.433
105.339
105.4
105.657
106.129
106.843
107.84
108.988
109.985
108.435
108.044
107.994
108.083
108.504
109.262
110.448
112.245
114.499
116.716
110.252
109.547
109.321
109.533
110.265
111.641
113.883
117.514
122.485
128.114
113.864
112.793
112.553
112.814
113.881
115.913
119.299
125.066
133.326
143.412
125.588
124.525
124.18
124.568
125.779
128.272
132.813
140.977
153.848
171.893
278.15
276.829
276.224
276.807
279.355
285.709
297.703
315.659
341.504
371.336
4626.86
4622.53
4620.58
4621.86
4626.2
4633.1
4642.62
4655.83
4672.92
4691.9
3927.88
3928.54
3928.93
3928.9
3928.55
3927.93
3927.16
3926.37
3925.67
3925.09
216.93
216.035
215.688
215.539
215.484
215.462
215.465
215.546
215.846
216.739
108.388
108.448
108.499
108.457
108.386
108.293
108.197
108.117
108.076
108.079
102.807
102.68
102.63
102.656
102.772
102.983
103.29
103.691
104.124
104.438
104.441
104.284
104.278
104.307
104.485
104.799
105.276
105.95
106.739
107.397
105.642
105.313
105.2
105.298
105.642
106.277
107.277
108.781
110.728
112.648
108.526
107.96
107.842
107.965
108.518
109.546
111.19
113.761
117.178
120.587
119.484
118.975
118.796
119.008
119.651
120.976
123.32
127.182
132.844
139.549
264.746
264.122
263.656
264.078
265.997
270.86
279.214
290.745
306.119
320.302
4454.47
4451.02
4449.44
4450.45
4453.89
4459.24
4466.68
4476.57
4488.47
4500.72
3779.56
3780.08
3780.41
3780.38
3780.15
3779.74
3779.23
3778.7
3778.24
3777.81
209.485
208.603
208.263
208.155
208.119
208.115
208.137
208.234
208.549
209.439
106.789
106.83
106.863
106.834
106.781
106.709
106.632
106.565
106.53
106.536
101.293
101.223
101.195
101.207
101.265
101.368
101.515
101.697
101.886
102.002
102.191
102.127
102.132
102.14
102.218
102.356
102.559
102.829
103.123
103.343
102.912
102.765
102.71
102.755
102.915
103.205
103.652
104.287
105.076
105.823
105.171
104.87
104.815
104.874
105.165
105.697
106.516
107.713
109.2
110.508
115.209
115.002
114.919
115.036
115.37
116.073
117.265
119.102
121.615
124.408
252.421
252.247
251.859
252.192
253.726
257.476
263.317
270.835
280.249
287.08
4273.81
4271.2
4269.98
4270.75
4273.35
4277.33
4282.93
4290.06
4298.1
4305.85
3625.05
3625.47
3625.72
3625.71
3625.57
3625.3
3624.97
3624.63
3624.33
3623.99
201.826
200.971
200.66
200.566
200.538
200.542
200.574
200.676
200.994
201.867
105.695
105.716
105.734
105.716
105.681
105.634
105.585
105.544
105.532
105.551
100.529
100.486
100.469
100.475
100.506
100.561
100.637
100.729
100.825
100.876
100.974
100.942
100.945
100.948
100.988
101.058
101.158
101.283
101.407
101.497
101.365
101.302
101.276
101.297
101.371
101.503
101.703
101.975
102.302
102.627
103.135
102.969
102.944
102.975
103.137
103.424
103.851
104.441
105.125
105.689
112.2
112.146
112.115
112.181
112.355
112.722
113.311
114.173
115.254
116.516
240.71
240.813
240.458
240.746
242.054
244.864
248.925
253.851
259.739
262.8
4085.31
4083.43
4082.56
4083.12
4084.96
4087.84
4091.89
4096.83
4102.1
4106.91
3464.55
3464.89
3465.09
3465.09
3465.01
3464.84
3464.62
3464.4
3464.21
3463.93
193.772
192.952
192.67
192.587
192.563
192.569
192.601
192.7
193.01
193.856
104.844
104.852
104.859
104.848
104.827
104.8
104.773
104.753
104.758
104.788
100.158
100.132
100.122
100.126
100.142
100.171
100.211
100.26
100.313
100.339
100.347
100.324
100.323
100.325
100.35
100.394
100.455
100.527
100.593
100.642
100.533
100.507
100.494
100.504
100.539
100.6
100.689
100.808
100.945
101.103
101.939
101.84
101.828
101.848
101.945
102.113
102.35
102.664
103.004
103.285
110.016
110.033
110.029
110.069
110.163
110.345
110.619
111.004
111.424
112.036
229.191
229.458
229.107
229.374
230.509
232.479
235.263
238.474
242.203
243.245
3889.51
3888.26
3887.68
3888.07
3889.29
3891.34
3894.14
3897.43
3900.76
3903.69
3298.35
3298.64
3298.79
3298.8
3298.75
3298.65
3298.51
3298.37
3298.25
3298
185.215
184.435
184.182
184.11
184.087
184.091
184.119
184.209
184.505
185.318
104.111
104.11
104.111
104.104
104.092
104.079
104.067
104.06
104.077
104.112
99.9894
99.974
99.9699
99.9714
99.9789
99.992
100.011
100.035
100.066
100.081
100.043
100.023
100.017
100.019
100.038
100.071
100.116
100.166
100.21
100.246
100.113
100.101
100.095
100.1
100.117
100.146
100.187
100.239
100.298
100.385
101.251
101.186
101.178
101.194
101.258
101.364
101.508
101.691
101.878
102.047
108.329
108.383
108.392
108.419
108.467
108.549
108.66
108.815
108.927
109.252
217.312
217.827
217.503
217.762
218.575
219.921
221.783
223.846
226.209
226.168
3687.2
3686.35
3686
3686.24
3687.07
3688.46
3690.31
3692.41
3694.43
3696.17
3126.85
3127.1
3127.21
3127.22
3127.2
3127.14
3127.05
3126.96
3126.88
3126.66
176.074
175.337
175.112
175.051
175.028
175.03
175.052
175.13
175.408
176.182
103.436
103.43
103.426
103.422
103.417
103.412
103.41
103.412
103.435
103.474
99.9217
99.9144
99.9139
99.9143
99.9161
99.9194
99.9252
99.9348
99.9518
99.9624
99.9099
99.8916
99.8837
99.8852
99.9002
99.9266
99.9613
99.9997
100.033
100.062
99.9193
99.9126
99.9087
99.9111
99.92
99.935
99.955
99.9798
100.006
100.059
100.852
100.806
100.8
100.814
100.859
100.93
101.024
101.14
101.254
101.374
106.922
106.989
107.009
107.025
107.046
107.077
107.109
107.155
107.13
107.324
204.837
205.49
205.293
205.475
206.019
206.903
208.101
209.395
210.87
210.277
3479.11
3478.57
3478.35
3478.51
3479.05
3479.94
3481.1
3482.37
3483.53
3484.55
2950.59
2950.8
2950.88
2950.89
2950.89
2950.85
2950.8
2950.74
2950.68
2950.48
166.267
165.577
165.382
165.334
165.309
165.308
165.324
165.388
165.643
166.378
102.795
102.786
102.78
102.778
102.776
102.777
102.78
102.787
102.813
102.854
99.9051
99.9031
99.9046
99.9043
99.9029
99.9006
99.899
99.9
99.9083
99.9175
99.8639
99.8476
99.8392
99.8403
99.8517
99.8721
99.8988
99.928
99.9544
99.9782
99.8452
99.8399
99.8368
99.8379
99.8431
99.8516
99.8625
99.8753
99.8877
99.9215
100.606
100.571
100.566
100.577
100.61
100.66
100.724
100.8
100.875
100.97
105.658
105.723
105.746
105.757
105.764
105.771
105.768
105.767
105.689
105.822
191.593
192.297
192.202
192.324
192.668
193.215
193.936
194.718
195.6
194.779
3266.15
3265.82
3265.69
3265.79
3266.12
3266.65
3267.34
3268.06
3268.67
3269.25
2770.3
2770.47
2770.53
2770.54
2770.54
2770.52
2770.48
2770.44
2770.4
2770.21
155.698
155.06
154.892
154.855
154.837
154.835
154.844
154.893
155.121
155.814
102.183
102.172
102.165
102.163
102.164
102.168
102.174
102.184
102.209
102.253
99.9143
99.9146
99.9166
99.916
99.9131
99.9086
99.9038
99.9009
99.904
99.9135
99.8605
99.8469
99.8395
99.8399
99.848
99.8625
99.8815
99.9027
99.9226
99.9419
99.8327
99.828
99.8253
99.8256
99.8286
99.8337
99.8399
99.8469
99.8531
99.8748
100.43
100.403
100.398
100.406
100.429
100.463
100.506
100.557
100.607
100.682
104.459
104.511
104.533
104.541
104.543
104.54
104.525
104.508
104.418
104.519
177.438
178.121
178.106
178.184
178.38
178.682
179.062
179.502
179.975
179.132
3049.37
3049.18
3049.11
3049.17
3049.36
3049.65
3050.03
3050.39
3050.68
3051
2586.96
2587.1
2587.15
2587.16
2587.16
2587.15
2587.12
2587.09
2587.05
2586.89
144.234
143.657
143.517
143.493
143.488
143.485
143.487
143.52
143.71
144.357
101.607
101.594
101.587
101.585
101.587
101.592
101.599
101.61
101.632
101.676
99.9332
99.9331
99.9345
99.9336
99.9308
99.9265
99.9216
99.9181
99.9188
99.9292
99.878
99.8677
99.8621
99.862
99.867
99.8762
99.8885
99.9023
99.9163
99.9311
99.8525
99.8486
99.8465
99.8463
99.8478
99.8504
99.8535
99.8567
99.8597
99.8724
100.273
100.253
100.249
100.254
100.268
100.289
100.315
100.345
100.377
100.436
103.292
103.329
103.346
103.352
103.351
103.344
103.326
103.305
103.226
103.306
162.212
162.82
162.868
162.915
163.003
163.123
163.253
163.457
163.63
162.905
2830.08
2829.99
2829.95
2829.98
2830.07
2830.22
2830.4
2830.56
2830.67
2830.83
2401.72
2401.83
2401.86
2401.87
2401.87
2401.86
2401.84
2401.82
2401.79
2401.66
131.649
131.156
131.065
131.055
131.053
131.049
131.045
131.058
131.19
131.771
101.086
101.071
101.064
101.061
101.063
101.067
101.075
101.084
101.101
101.142
99.9499
99.948
99.9482
99.9473
99.9453
99.9425
99.9394
99.9373
99.9376
99.9478
99.9082
99.9013
99.8977
99.8974
99.9001
99.9051
99.912
99.92
99.9287
99.9389
99.8903
99.888
99.8866
99.8862
99.8866
99.8873
99.8881
99.8888
99.8896
99.8954
100.119
100.106
100.103
100.105
100.113
100.123
100.136
100.151
100.168
100.208
102.17
102.189
102.2
102.201
102.197
102.188
102.171
102.152
102.098
102.158
145.455
145.932
145.966
146.002
146.062
146.142
146.224
146.283
146.215
145.695
2609.7
2609.66
2609.65
2609.66
2609.69
2609.74
2609.79
2609.83
2609.87
2609.94
2215.02
2215.09
2215.09
2215.09
2215.09
2215.09
2215.09
2215.09
2215.08
2215.02
117.39
117.053
117.023
117.027
117.029
117.024
117.014
117.007
117.051
117.478
100.624
100.608
100.601
100.598
100.598
100.601
100.608
100.616
100.63
100.662
99.9661
99.9638
99.9632
99.9625
99.9616
99.9604
99.9594
99.9588
99.9595
99.9662
99.9505
99.9468
99.945
99.9448
99.9461
99.9484
99.9516
99.9555
99.96
99.9655
99.9407
99.9397
99.9391
99.9388
99.9387
99.9385
99.9382
99.9378
99.9375
99.9388
100.009
100.004
100.002
100.003
100.006
100.01
100.014
100.019
100.026
100.045
101.125
101.128
101.13
101.128
101.123
101.113
101.101
101.088
101.069
101.112
125.764
126.047
126.064
126.085
126.117
126.16
126.202
126.226
126.176
125.835
2388.98
2388.96
2388.97
2388.97
2388.97
2388.97
2388.97
2388.97
2388.95
2388.99
7183.32
7293.61
7249.9
7043.51
658868
683792
689355
697272
1.49735e+06
1.58402e+06
1.59151e+06
1.57164e+06
2.52522e+06
2.70344e+06
2.70086e+06
2.61932e+06
3.76086e+06
4.05585e+06
4.02946e+06
3.86776e+06
5.30767e+06
5.75077e+06
5.69921e+06
5.48623e+06
6.86756e+06
7.46617e+06
7.40234e+06
7.20539e+06
7.88107e+06
8.60848e+06
8.55378e+06
8.42537e+06
5.61789e+06
6.17693e+06
6.11297e+06
6.07886e+06
7902.8
8150.48
7988.23
7569.34
5748.96
5801.72
5804.25
5765.15
308522
324607
345276
377277
689258
780738
824785
861679
1.17787e+06
1.40268e+06
1.46585e+06
1.49176e+06
1.76342e+06
2.17728e+06
2.25112e+06
2.2645e+06
2.45858e+06
3.11185e+06
3.21112e+06
3.24696e+06
3.13129e+06
4.03932e+06
4.20014e+06
4.3188e+06
3.57255e+06
4.70259e+06
4.94393e+06
5.17851e+06
2.80601e+06
3.81711e+06
4.00589e+06
4.31871e+06
7125.92
7357.45
7286.58
7066.22
4937.68
4948.62
4947.76
4938.05
21657.8
25953
24589.3
19961.4
61560.8
73393
68661
55716.9
128734
152813
140859
114005
228347
270505
246232
199395
372368
441894
401348
326353
545307
648472
591551
485316
702747
839265
769463
636695
584393
696720
629251
524521
6344.11
6431.4
6409.09
6313.77
4715.83
4717.95
4718.5
4717.7
1594.39
1711.11
1679.57
1544.77
4697.76
5171.54
5011.47
4433.54
11229.7
12503.3
11924.2
10211.3
22554
25252
23696.8
19742.2
41693
46923.1
43526.4
35532.7
68299.2
76986.6
70795
57122.4
97165.3
109913
100440
80417.7
83363.8
93762.8
84195.3
67256.4
5903.85
5945.54
5942.65
5904.74
4567.86
4568.77
4568.98
4568.44
423.362
436.265
438.498
431.576
710.139
757.041
761.519
731.305
1594.99
1736.73
1729.16
1610.08
3203.61
3529.27
3458.37
3118.31
6140.51
6823.78
6583.29
5757.99
10499.3
11694.8
11109.8
9472.4
15694
17557.3
16464.7
13724.2
13862.8
15398.8
14114.8
11586.2
5578.58
5600.61
5602.1
5586.5
4444.83
4445.58
4445.66
4445.03
275.634
278.501
279.207
277.943
226.39
231.487
233.307
232.258
385.608
403.098
407.325
400.537
674.079
717.897
722.135
696.108
1215.26
1316.6
1312.75
1233.56
2023.87
2211.72
2175.98
1991.51
3047.43
3360.98
3262.36
2904.76
2929.63
3183.86
3023.87
2664.44
5318.06
5328.84
5330.98
5325.42
4322.51
4323.23
4323.28
4322.65
241.805
243.709
244.106
243.046
140.149
140.902
141.253
141.236
175.878
178.577
179.702
179.442
243.21
250.24
252.474
250.766
368.994
386.624
390.353
383.204
549.27
582.741
585.385
565.857
795.635
855.108
852.261
807.241
984.868
1029.9
1010.41
962.639
5095.68
5100.56
5102.42
5101.17
4195.41
4196.1
4196.16
4195.55
228.115
229.832
230.17
229.159
118.195
118.333
118.386
118.362
125.857
126.306
126.529
126.554
146.032
147.261
147.804
147.782
183.411
186.921
188.189
187.629
233.797
240.35
242.108
240.325
314.647
327.218
329.161
323.612
543.089
548.749
546.233
542.545
4893.58
4895.59
4896.88
4897.07
4061.87
4062.52
4062.58
4062.01
219.506
221.16
221.488
220.512
110.89
110.947
110.955
110.916
110.348
110.42
110.457
110.464
117.765
117.975
118.085
118.117
131.713
132.522
132.876
132.844
149.881
151.236
151.778
151.741
187.375
190.313
191.161
190.507
400.201
397.223
396.476
399.138
4698.39
4699.07
4699.85
4700.34
3921.58
3922.18
3922.23
3921.72
212.208
213.807
214.127
213.189
107.869
107.917
107.921
107.881
104.484
104.491
104.493
104.492
107.574
107.594
107.608
107.621
113.658
113.877
113.977
113.97
121.963
122.212
122.352
122.432
144.59
145.291
145.555
145.497
335.327
330.243
329.462
332.88
4503.75
4503.85
4504.28
4504.73
3774.56
3775.11
3775.16
3774.69
205.066
206.606
206.917
206.016
106.337
106.385
106.391
106.353
101.988
101.985
101.983
101.981
103.357
103.349
103.345
103.348
106.2
106.277
106.309
106.297
110.768
110.778
110.805
110.859
126.737
126.865
126.918
126.915
297.577
292.065
291.159
294.475
4307.05
4306.92
4307.14
4307.49
3621.02
3621.51
3621.55
3621.13
197.667
199.145
199.446
198.584
105.37
105.416
105.422
105.387
100.852
100.85
100.848
100.847
101.488
101.479
101.474
101.474
102.818
102.857
102.869
102.857
105.717
105.685
105.683
105.714
118.004
117.98
117.962
117.951
271.408
265.952
264.998
268.114
4107.08
4106.89
4107
4107.23
3461.24
3461.67
3461.69
3461.32
189.842
191.255
191.545
190.723
104.623
104.667
104.673
104.64
100.317
100.316
100.315
100.315
100.636
100.631
100.627
100.626
101.225
101.249
101.256
101.245
103.289
103.26
103.253
103.27
113.197
113.137
113.096
113.075
250.799
245.549
244.602
247.526
3903.23
3903.1
3903.15
3903.26
3295.6
3295.96
3295.97
3295.65
181.503
182.849
183.127
182.348
103.965
104.006
104.012
103.982
100.064
100.064
100.063
100.063
100.244
100.241
100.239
100.237
100.47
100.488
100.492
100.482
102.071
102.054
102.048
102.054
110.245
110.183
110.138
110.107
232.965
227.974
227.063
229.809
3695.31
3695.28
3695.3
3695.31
3124.56
3124.85
3124.85
3124.58
172.58
173.858
174.125
173.39
103.348
103.386
103.391
103.364
99.9512
99.9519
99.9519
99.9511
100.064
100.063
100.061
100.06
100.12
100.133
100.135
100.127
101.424
101.418
101.414
101.413
108.204
108.155
108.11
108.07
216.444
211.74
210.883
213.456
3483.44
3483.52
3483.53
3483.44
2948.71
2948.93
2948.92
2948.7
163.006
164.216
164.473
163.784
102.756
102.792
102.797
102.771
99.9133
99.9151
99.9153
99.9139
99.9816
99.9814
99.9805
99.9793
99.9653
99.9742
99.9753
99.969
101.039
101.041
101.04
101.034
106.609
106.577
106.537
106.487
200.38
195.996
195.207
197.6
3267.98
3268.17
3268.18
3268.02
2768.81
2768.96
2768.93
2768.76
152.696
153.841
154.09
153.448
102.19
102.223
102.228
102.204
99.9165
99.9195
99.9199
99.9177
99.9465
99.9469
99.9465
99.9457
99.9042
99.91
99.9103
99.9054
100.76
100.769
100.769
100.759
105.212
105.203
105.17
105.11
184.216
180.206
179.503
181.69
3049.64
3049.92
3049.93
3049.72
2585.9
2585.97
2585.92
2585.79
141.546
142.636
142.88
142.283
101.648
101.68
101.684
101.661
99.9383
99.9423
99.9427
99.9398
99.9365
99.9373
99.9374
99.9369
99.8895
99.8928
99.8927
99.8895
100.51
100.522
100.523
100.512
103.88
103.895
103.87
103.803
167.52
164.004
163.41
165.331
2829.46
2829.78
2829.8
2829.57
2401.14
2401.12
2401.06
2401
129.374
130.426
130.665
130.104
101.14
101.168
101.171
101.15
99.9593
99.9635
99.964
99.9609
99.944
99.9451
99.9454
99.9453
99.9029
99.9042
99.904
99.9026
100.267
100.278
100.28
100.271
102.557
102.583
102.569
102.509
149.613
146.667
146.225
147.863
2608.73
2609.1
2609.12
2608.88
2215.01
2214.85
2214.79
2214.84
115.75
116.731
116.937
116.405
100.666
100.683
100.683
100.669
99.9733
99.976
99.9762
99.9743
99.9692
99.97
99.9704
99.9706
99.9405
99.9406
99.9405
99.9403
100.076
100.083
100.084
100.079
101.289
101.297
101.29
101.265
128.33
126.308
126.072
127.23
2388.2
2388.59
2388.6
2388.34
6105.52
5442.58
5172.84
5076.72
5021.91
4983.39
4957.78
4943.4
4935.42
4930.66
798426
193258
33401.8
11731.6
5300.19
2835.94
1749.06
1212.34
928.234
765.152
1.424e+06
246972
44245.4
15125.7
6774.15
3635.77
2199.28
1459.51
1047.57
802.54
1.99522e+06
239407
46754.4
15012.9
6480.23
3389.21
1999.2
1296.55
912.242
688.099
2.45794e+06
252517
48917.6
14554.7
6095.02
3100.24
1790.78
1143.59
794.905
596.279
2.92936e+06
276279
51122.6
13967.9
5635.36
2766.77
1560.44
980.496
676.916
507.934
3.311e+06
294817
51978
13155.4
5155.61
2466.23
1374.84
860.952
595.236
450.106
3.39444e+06
287210
47676.5
10996.1
4161.68
1945.47
1092.33
699.88
502.651
394.573
2.33991e+06
182027
27355.8
5707.97
2273.9
1237.26
857.625
671.335
567.976
506.41
6016.43
5993.07
5847.31
5822.87
5779.45
5755.14
5735.84
5725.58
5718.64
5712.65
5443
5174.91
5044.99
4972.43
4926.89
4896.88
4877.43
4865.88
4859.66
4855.72
180226
44889.5
13611.3
5321.81
2635.02
1566.95
1064.97
802.399
656.231
572.344
375611
86389.3
23461.1
8288.34
3887.67
2186.82
1383.15
955.655
710.381
565.467
594888
126207
30692.4
9648.4
4226.32
2260.42
1371.79
915.269
661.169
515.187
830229
164954
36415.5
10414
4315.77
2218.8
1309.59
857.094
610.02
471.722
1.10944e+06
207137
41740.2
10860.6
4245.47
2090.42
1198.09
768.451
541.776
418.245
1.38835e+06
244348
45339.7
10847.2
4054.23
1938.35
1095.14
699.216
492.971
382.744
1.56351e+06
258551
43980.6
9549.98
3394.5
1584.62
900.313
587.517
429.744
345.66
1.1816e+06
178626
26840.1
5247.75
1966.07
1091.01
771.393
615
526.432
476.152
6252.75
5952.92
5792.83
5733.99
5683.1
5652.33
5630.02
5616.41
5606.82
5598.49
4903.77
4868.93
4841.47
4818.67
4800.86
4787.94
4779.33
4774.17
4771.31
4769.26
9198.37
4174.88
2298.28
1432.48
985.247
735.777
591.173
504.949
452.262
420.487
23991.6
9561.5
4648.59
2545.96
1541.49
1009.83
712.359
538.095
430.924
364.624
45424.1
15956.8
6935.96
3410.03
1897.6
1158.51
771.145
555.399
428.311
352.574
73570
22895.9
9009.61
4055.01
2118.99
1231.82
791.419
556.374
421.327
343.113
112017
31034.4
11038.9
4547.54
2234.66
1236.57
766.859
526.046
393.336
318.841
155996
38859.9
12575.7
4794.33
2251.23
1205.61
734.487
500.378
373.312
303.402
191432
42859.3
12519.5
4384.96
1974.5
1036.43
636.054
442.899
341.644
286.074
141610
27746.8
7302.84
2546.84
1307.54
842.736
642.543
536.422
472.866
436.179
6018.23
5835.82
5711.23
5637.38
5584.28
5551.15
5528.13
5512.45
5500.85
5490.86
4712.78
4704.42
4695.25
4687.01
4680.77
4676.51
4673.86
4672.5
4672.17
4671.79
1207.95
906.335
708.756
570.414
479.231
420.76
383.19
358.489
341.816
331.56
3027.91
1918.83
1269.97
860.5
612.208
460.81
367.063
307.516
268.093
242.25
6219.04
3480.13
2056.96
1251.84
812.637
564.505
420.09
333.01
278.233
243.901
10743.9
5350.07
2877.87
1610.28
978.605
644.076
460.095
354.466
289.806
250.361
17342.4
7666.01
3761.45
1939
1105.06
688.992
472.502
353.655
284.339
243.531
25216.3
9947.32
4497.11
2165.92
1178.76
709.546
476.267
352.751
281.839
240.855
32096
11242.1
4659.69
2095.25
1100.61
652.662
441.5
332.908
272.716
238.026
23539.2
7366.97
2961.81
1443.31
906.019
663.465
542.504
472.553
427.799
401.352
5788.97
5660.49
5561.76
5497.87
5453.78
5424.9
5404.18
5389.32
5378.1
5368.61
4567.41
4566.18
4564.94
4563.97
4563.4
4563.15
4563.17
4563.55
4564.46
4565.3
412.741
382.956
356.666
334.89
318.465
306.422
297.575
290.948
285.876
282.633
637.65
512.425
411.644
334.463
279.718
241.92
216.039
198.141
185.208
176.16
1286.99
925.872
666.161
486.226
369.781
294.902
246.577
214.886
193.42
179.227
2275.68
1481.58
973.37
652.855
462.8
348.765
279.566
236.64
208.292
189.924
3813.85
2241.1
1347.08
830.709
548.829
390.197
299.37
245.635
212.064
191.186
5703.22
3044.79
1696.69
978.461
614.786
420.766
314.889
254.714
217.621
194.882
7460.13
3600.58
1861.7
1012.52
616.785
417.032
313.337
255.869
221.734
200.967
5662.43
2637.53
1436.35
904.151
665.834
539.303
466.77
421.115
389.876
371.017
5535.59
5459.57
5394.31
5347.92
5314
5289.75
5271.49
5257.78
5247.2
5238.38
4444.64
4444.76
4445.06
4445.53
4446.13
4446.77
4447.42
4448.22
4449.44
4450.87
277.91
274.903
271.434
268.009
264.989
262.427
260.273
258.426
256.806
255.502
225.917
210.86
194.954
180.649
169.141
160.368
153.842
148.953
145.026
142.067
373.093
321.798
273.228
233.336
203.622
182.261
167.078
156.221
148.258
142.733
613.137
488.04
382.104
302.924
248.807
212.593
188.455
172.219
160.506
152.425
1013.13
737.878
529.415
386.662
296.654
240.201
204.652
181.82
166.395
156.274
1522.2
1022.99
681.537
466.043
339.941
265.18
220.326
192.734
174.247
162.2
2045.73
1267.47
790.517
514.431
364.968
280.911
232.612
203.494
184.849
172.923
1814.71
1182.68
825.032
628.749
519.775
452.633
409.053
379.439
357.855
344.583
5303.25
5261.62
5221.79
5189.91
5164.49
5144.75
5129.18
5117.03
5107.42
5099.53
4322.38
4322.66
4323.11
4323.72
4324.41
4325.09
4325.75
4326.5
4327.64
4329.1
244.195
244.031
243.685
243.215
242.698
242.161
241.612
241.027
240.386
239.63
140.672
138.603
136.044
133.469
131.204
129.348
127.881
126.697
125.581
124.65
176.549
168.269
158.715
149.719
142.176
136.154
131.435
127.744
124.816
122.717
241.571
220.134
197.621
178.269
163.324
152.224
144.091
138.146
133.42
129.955
355.646
303.74
254.65
215.839
188.012
168.566
155.039
145.558
138.619
133.863
503.918
404.495
318.238
255.412
213.47
185.767
167.392
155.098
146.091
139.875
681.279
513.639
382.701
294.923
240.172
205.646
183.577
169.073
159.091
152.448
826.833
675.355
559.197
481.204
428.702
391.902
365.386
346.127
331.261
321.961
5091.7
5069.83
5046.04
5024.46
5005.77
4990.23
4977.43
4967.08
4958.69
4951.92
4195.31
4195.52
4195.86
4196.32
4196.83
4197.34
4197.8
4198.36
4199.29
4200.56
230.457
230.685
230.79
230.801
230.74
230.614
230.42
230.133
229.73
229.094
118.34
118.073
117.71
117.309
116.939
116.635
116.404
116.206
115.924
115.635
126.155
124.614
122.567
120.395
118.367
116.58
115.046
113.746
112.647
111.852
146.602
142.562
137.554
132.684
128.48
125.034
122.28
120.115
118.21
116.73
183.576
172.818
160.787
149.941
141.163
134.337
129.11
125.136
122.015
119.821
231.608
210.577
188.392
169.917
155.913
145.593
138.041
132.577
128.211
125.043
302.938
264.096
227.336
198.909
178.556
164.163
153.993
146.769
141.481
137.875
515.563
472.665
430.24
396.134
369.301
348.412
332.019
319.413
309.176
302.688
4892.46
4880.71
4866.34
4851.88
4838.47
4826.67
4816.54
4808.08
4801.05
4795.46
4061.78
4061.92
4062.14
4062.44
4062.78
4063.09
4063.37
4063.71
4064.41
4065.47
221.803
222.069
222.218
222.287
222.292
222.233
222.102
221.872
221.507
220.874
110.951
110.941
110.93
110.916
110.911
110.929
110.969
111.004
110.951
110.853
110.386
110.048
109.548
108.956
108.35
107.771
107.237
106.753
106.324
106.018
117.935
117.086
115.882
114.573
113.327
112.218
111.272
110.487
109.713
109.072
132.032
129.448
126.213
122.924
119.961
117.431
115.334
113.631
112.217
111.218
150.442
145.57
139.469
133.707
128.796
124.801
121.623
119.172
117.048
115.433
186.148
175.937
164.819