/*--------------------------------*- C++ -*----------------------------------*\
| =========                 |                                                 |
| \\      /  F ield         | foam-extend: Open Source CFD                    |
|  \\    /   O peration     | Version:     4.0                                |
|   \\  /    A nd           | Web:         http://www.foam-extend.org         |
|    \\/     M anipulation  |                                                 |
\*---------------------------------------------------------------------------*/
FoamFile
{
    version     2.0;
    format      ascii;
    class       volScalarField;
    location    "1600";
    object      k;
}
// * * * * * * * * * * * * * * * * * * * * * * * * * * * * * * * * * * * * * //

dimensions      [0 2 -2 0 0 0 0];

internalField   nonuniform List<scalar> 
34480
(
8.7668
8.76438
8.76424
8.76603
8.76986
8.77601
8.79097
8.85436
9.07689
9.68574
9.2794
8.66743
8.57453
8.8542
9.45346
10.3406
11.9396
15.8522
28.7391
67.0275
15.0353
13.5665
13.1205
13.2691
13.8399
14.8733
17.2077
22.9047
41.6368
101.408
14.4857
12.9587
12.5087
12.7032
13.4139
14.8288
18.0018
25.4049
49.2523
127.785
13.4223
12.0068
11.6558
11.9229
12.7744
14.4846
18.2549
26.9538
55.2742
151.584
12.2138
10.9405
10.628
10.9097
11.8011
13.6944
17.9364
27.8998
61.0664
176.67
11.3211
10.2009
9.94611
10.2209
11.1156
13.0808
17.5829
28.4163
65.5239
198.027
9.83542
8.99908
8.79407
9.00956
9.72171
11.3916
15.486
26.1217
64.5492
205.601
6.88079
6.61215
6.5634
6.67332
7.00263
7.72725
9.72787
16.2724
43.4137
149.668
9.23843
9.23866
9.24452
9.25739
9.27551
9.29711
9.3231
9.36164
9.43263
9.50572
8.67823
8.67521
8.67462
8.6764
8.68119
8.68957
8.70283
8.73388
8.80812
9.06706
7.92991
7.50971
7.41613
7.57383
8.02093
8.86367
10.3055
12.1082
15.4286
41.1792
12.2323
11.1699
10.8775
11.0809
11.7599
13.0216
15.2202
18.1218
23.7881
66.4151
12.1353
10.9672
10.6483
10.8917
11.6971
13.248
16.0294
20.0128
28.391
86.1823
11.5943
10.4604
10.1934
10.4696
11.3623
13.1039
16.2929
21.0726
31.8435
104.303
10.8009
9.7505
9.4949
9.76864
10.6667
12.4933
15.9629
21.4522
34.8404
123.717
10.2106
9.25826
9.04082
9.29417
10.1672
11.9949
15.6017
21.5472
37.1123
140.974
9.05088
8.32879
8.14444
8.33573
9.01303
10.5101
13.6569
19.2808
35.708
147.387
6.64354
6.39607
6.34178
6.41585
6.68042
7.26541
8.61212
11.5602
22.4941
102.435
9.11126
9.10655
9.10709
9.11429
9.12696
9.14279
9.16375
9.19945
9.27242
9.45766
8.57654
8.57365
8.57274
8.57373
8.57689
8.58187
8.58765
8.60058
8.62936
8.69503
6.78273
6.57081
6.51657
6.59245
6.8239
7.27109
8.06587
9.36007
11.1361
16.4402
9.68962
9.06941
8.91586
9.08349
9.60336
10.5587
12.1744
14.5696
17.5475
29.1801
9.88637
9.14828
8.9627
9.17665
9.83618
11.0923
13.2854
16.6411
21.1143
40.7607
9.75644
9.0011
8.83805
9.07479
9.81327
11.2571
13.8607
17.939
23.7789
52.2535
9.32787
8.60025
8.43252
8.67033
9.42448
10.9701
13.885
18.6163
26.0255
64.9071
9.01281
8.32818
8.1817
8.40411
9.14523
10.7129
13.7976
18.9527
27.7495
76.9367
8.19278
7.66421
7.53474
7.70491
8.27958
9.56161
12.2671
17.1592
26.6546
82.8959
6.37248
6.18013
6.14021
6.20107
6.41191
6.87467
7.92352
10.3673
16.7005
57.1228
8.99173
8.98395
8.98143
8.98533
8.99495
9.00806
9.02606
9.05959
9.13836
9.33837
8.46111
8.45929
8.45876
8.45954
8.46172
8.4645
8.46571
8.46909
8.47803
8.49744
6.00872
5.91766
5.8904
5.92121
6.02146
6.21418
6.55106
7.13272
7.99652
9.88284
7.80771
7.49482
7.4217
7.51711
7.81871
8.38184
9.33343
10.821
12.658
17.0743
8.12308
7.70541
7.60141
7.73889
8.16511
8.98766
10.4219
12.7264
15.5988
23.5533
8.24524
7.78639
7.68929
7.84709
8.34533
9.33303
11.1204
14.0839
17.8856
30.1244
8.08164
7.61297
7.50315
7.67003
8.19948
9.29855
11.3849
14.994
19.8656
37.6371
7.97349
7.50893
7.40924
7.57062
8.10733
9.2527
11.5193
15.5748
21.3692
44.9643
7.44341
7.07289
6.98067
7.10897
7.53264
8.47841
10.4769
14.38
20.6544
48.7777
6.13069
5.9836
5.95363
5.99955
6.1569
6.49492
7.22363
8.98461
12.9817
33.0475
8.85784
8.85002
8.84719
8.85055
8.85966
8.8733
8.89213
8.92601
8.99916
9.15504
8.33349
8.33265
8.33246
8.33296
8.33414
8.33502
8.33342
8.33205
8.33197
8.33411
5.53766
5.50302
5.4898
5.49966
5.53586
5.6047
5.72011
5.9118
6.17907
6.62204
6.56547
6.42752
6.3965
6.43674
6.57319
6.83171
7.27116
7.9823
8.87957
10.3572
6.87099
6.65408
6.59723
6.66796
6.89526
7.33809
8.1133
9.40831
11.0461
14.0195
7.10058
6.84058
6.78401
6.87131
7.15684
7.72512
8.75787
10.5598
12.887
17.7756
7.09572
6.80888
6.73698
6.83744
7.16119
7.83367
9.11377
11.464
14.6154
22.2346
7.11908
6.81606
6.74778
6.84965
7.19442
7.92629
9.37105
12.1303
15.9843
26.65
6.81204
6.56022
6.49399
6.57998
6.86195
7.48315
8.77656
11.4737
15.6938
29.0184
5.91764
5.80667
5.78386
5.81564
5.92663
6.159
6.62941
7.74087
10.1063
19.2447
8.7144
8.70668
8.70365
8.70651
8.71497
8.72839
8.74686
8.77828
8.83978
8.95231
8.19456
8.19448
8.19457
8.19485
8.19531
8.1949
8.19243
8.18986
8.18768
8.18636
5.27031
5.25877
5.25234
5.25458
5.2659
5.28779
5.32338
5.37818
5.44782
5.53781
5.80906
5.75739
5.7475
5.76089
5.81196
5.90899
6.0719
6.33501
6.67479
7.13942
6.04234
5.93841
5.90944
5.94191
6.05019
6.25885
6.61597
7.21198
7.98871
9.1069
6.28131
6.14441
6.11439
6.15803
6.30633
6.59623
7.11121
8.02126
9.23915
11.2031
6.34999
6.1842
6.13985
6.19604
6.37907
6.75165
7.44333
8.74051
10.5413
13.8046
6.44087
6.25271
6.20879
6.2689
6.47618
6.90548
7.7276
9.34021
11.6551
16.3955
6.2922
6.12913
6.08422
6.13914
6.31687
6.69782
7.45894
9.07678
11.6593
17.7718
5.73228
5.65104
5.63477
5.65609
5.73234
5.88767
6.18333
6.83587
8.10123
11.8478
8.56048
8.55315
8.55012
8.55258
8.56033
8.57297
8.59029
8.61813
8.66616
8.74092
8.04491
8.04536
8.04563
8.04576
8.04574
8.04455
8.04224
8.03976
8.03751
8.03585
5.12653
5.12302
5.11949
5.11941
5.12232
5.12876
5.13896
5.15351
5.1698
5.18592
5.37567
5.36055
5.35953
5.36238
5.37745
5.40679
5.45606
5.53413
5.6333
5.75085
5.52611
5.479
5.46491
5.47868
5.52684
5.61774
5.76678
6.00409
6.30952
6.68067
5.7265
5.65888
5.64446
5.66444
5.73619
5.87245
6.10398
6.49928
7.03244
7.75052
5.81431
5.72307
5.69708
5.72666
5.82443
6.01767
6.35999
6.9841
7.86868
9.18772
5.92807
5.81614
5.78944
5.82274
5.94125
6.17888
6.61128
7.43963
8.65584
10.6629
5.88287
5.78226
5.75335
5.78672
5.89336
6.1153
6.53569
7.40185
8.80491
11.4727
5.57758
5.51955
5.50854
5.52227
5.57332
5.67462
5.85819
6.23059
6.8908
8.32674
8.39554
8.38882
8.38593
8.38804
8.39497
8.40633
8.42186
8.44556
8.48214
8.53143
7.88488
7.88565
7.88604
7.88608
7.88578
7.88443
7.88256
7.88057
7.87878
7.87743
5.05189
5.05059
5.04828
5.04776
5.0484
5.05047
5.05351
5.05746
5.06114
5.06356
5.13765
5.13586
5.13779
5.13738
5.13968
5.14524
5.15588
5.17369
5.19635
5.2202
5.21932
5.19853
5.1918
5.1974
5.21823
5.25676
5.31703
5.40638
5.51533
5.62705
5.36761
5.33614
5.33005
5.3385
5.3715
5.4323
5.53075
5.68825
5.89347
6.12732
5.44658
5.39859
5.38406
5.39894
5.44907
5.54526
5.70718
5.98397
6.36893
6.85678
5.5571
5.49303
5.47771
5.49516
5.56043
5.68718
5.9054
6.29798
6.86598
7.64909
5.57379
5.51498
5.49741
5.51681
5.5779
5.70177
5.92528
6.35746
7.04697
8.13692
5.45335
5.41271
5.4057
5.41429
5.44789
5.51294
5.62643
5.83757
6.18566
6.75942
8.21904
8.21311
8.2105
8.21229
8.21829
8.22803
8.24138
8.26077
8.28797
8.32088
7.71455
7.7155
7.71597
7.71595
7.71549
7.71437
7.71298
7.71152
7.71022
7.70922
5.01354
5.01259
5.01087
5.01043
5.01073
5.01175
5.01305
5.01453
5.01558
5.01573
5.01125
5.01332
5.01572
5.0147
5.01341
5.01216
5.0118
5.01308
5.01571
5.01863
5.04456
5.03523
5.03193
5.03421
5.04334
5.05996
5.08489
5.11922
5.1583
5.19192
5.14506
5.13119
5.12906
5.13236
5.14701
5.17334
5.21429
5.27529
5.3505
5.42281
5.20498
5.18078
5.173
5.18022
5.20516
5.25179
5.32708
5.44654
5.6058
5.77886
5.30018
5.26465
5.25634
5.26506
5.30007
5.36619
5.47479
5.65561
5.90592
6.19416
5.35024
5.31796
5.30798
5.31881
5.35217
5.41846
5.53402
5.74223
6.06321
6.49298
5.35749
5.32937
5.32521
5.33051
5.35251
5.39412
5.46429
5.58443
5.76952
6.02141
8.03058
8.02557
8.02331
8.02479
8.02981
8.03779
8.04879
8.06406
8.08378
8.10565
7.53408
7.53492
7.53542
7.53538
7.53493
7.53413
7.53316
7.53213
7.53124
7.5305
4.99311
4.99225
4.99092
4.99064
4.99099
4.99177
4.99272
4.99371
4.99436
4.99428
4.94599
4.94855
4.95059
4.94976
4.948
4.94563
4.94318
4.94111
4.93973
4.93898
4.94915
4.94462
4.94287
4.94386
4.94811
4.95574
4.96679
4.98103
4.9962
5.00727
5.0127
5.0068
5.00628
5.00747
5.01392
5.0253
5.04242
5.0663
5.09399
5.11703
5.05314
5.0414
5.03738
5.04082
5.05295
5.07519
5.10998
5.1616
5.22744
5.29152
5.12992
5.11059
5.1063
5.11053
5.12909
5.16331
5.21745
5.30119
5.41094
5.51883
5.19549
5.17917
5.17398
5.17982
5.19708
5.23092
5.28874
5.38675
5.53222
5.70663
5.28636
5.26694
5.26467
5.26801
5.28258
5.30946
5.35308
5.42215
5.52059
5.64073
7.82985
7.8258
7.82394
7.82513
7.82916
7.83542
7.84415
7.85572
7.86963
7.88394
7.34321
7.34388
7.34431
7.34427
7.34397
7.34343
7.34277
7.34208
7.34148
7.34093
4.98125
4.98051
4.97953
4.97938
4.97972
4.98041
4.98125
4.98211
4.98273
4.98265
4.913
4.91512
4.91665
4.91613
4.91476
4.91282
4.91068
4.90868
4.9072
4.90632
4.89935
4.89687
4.89586
4.89634
4.89851
4.90235
4.90774
4.91435
4.92106
4.92524
4.9373
4.9347
4.93467
4.93509
4.93805
4.94323
4.95079
4.9607
4.97139
4.97942
4.96204
4.95652
4.95449
4.95613
4.96197
4.97249
4.98855
5.01109
5.03872
5.06456
5.02204
5.0115
5.00936
5.01144
5.02139
5.03931
5.06675
5.10655
5.15571
5.19889
5.09305
5.08576
5.08343
5.0865
5.09486
5.11111
5.13864
5.18329
5.24697
5.3223
5.23547
5.22193
5.22086
5.2231
5.23303
5.25082
5.2783
5.31867
5.37091
5.43193
7.61669
7.61358
7.61213
7.61305
7.61613
7.62086
7.62751
7.63597
7.64551
7.6547
7.14169
7.14224
7.14257
7.14256
7.14237
7.14202
7.14158
7.14113
7.14074
7.1403
4.97339
4.97282
4.97215
4.97207
4.97238
4.97296
4.97367
4.97441
4.97501
4.97488
4.89652
4.8981
4.89919
4.89892
4.89802
4.89674
4.89532
4.89398
4.89308
4.89257
4.87466
4.87315
4.87255
4.87281
4.874
4.87607
4.87893
4.88234
4.88576
4.8876
4.89623
4.89488
4.89487
4.89505
4.8966
4.8993
4.90311
4.9078
4.91247
4.91581
4.90999
4.90745
4.90644
4.90724
4.91006
4.91505
4.9225
4.93249
4.94432
4.95581
4.95674
4.95078
4.94972
4.95085
4.9564
4.96617
4.98061
5.00043
5.02342
5.04242
5.02811
5.02558
5.02487
5.02645
5.03013
5.03727
5.04928
5.0684
5.09427
5.12925
5.20015
5.19052
5.19017
5.19183
5.19894
5.21109
5.22879
5.25296
5.28065
5.31357
7.39104
7.38878
7.38773
7.3884
7.39062
7.3941
7.39897
7.40493
7.41127
7.41707
6.9293
6.92976
6.93002
6.93002
6.92991
6.92968
6.9294
6.92911
6.92885
6.92848
4.96739
4.96703
4.96662
4.96659
4.96684
4.96729
4.96785
4.96844
4.96899
4.96876
4.88828
4.88945
4.89019
4.89009
4.88957
4.88882
4.88801
4.88726
4.88688
4.88667
4.8632
4.86227
4.86192
4.86207
4.86272
4.86385
4.86539
4.86723
4.86916
4.87007
4.87494
4.87403
4.8739
4.87402
4.87499
4.87669
4.87901
4.88171
4.88421
4.88603
4.8818
4.88062
4.8801
4.88051
4.8819
4.88431
4.88782
4.89234
4.89754
4.90322
4.91892
4.9153
4.91473
4.91546
4.9188
4.9245
4.93259
4.9432
4.95475
4.96436
4.98841
4.98817
4.98831
4.98913
4.9905
4.99313
4.99751
5.00467
5.01332
5.03118
5.17605
5.16904
5.16908
5.17048
5.17582
5.18442
5.19619
5.21113
5.22574
5.2449
7.15296
7.15142
7.15071
7.15118
7.15269
7.15519
7.15862
7.16266
7.16674
7.17033
6.70588
6.70628
6.70648
6.70649
6.70643
6.70629
6.70611
6.70592
6.70574
6.70541
4.9623
4.96216
4.96196
4.96197
4.96216
4.96247
4.96288
4.96332
4.96382
4.96348
4.8841
4.88497
4.88547
4.88547
4.88521
4.88483
4.88444
4.88411
4.88409
4.88409
4.85844
4.85791
4.85775
4.85782
4.85814
4.85869
4.85946
4.86041
4.86152
4.86203
4.86453
4.86377
4.86355
4.86364
4.86435
4.86559
4.86724
4.86908
4.87073
4.87199
4.86741
4.86682
4.86655
4.86676
4.86747
4.86869
4.87039
4.87252
4.87487
4.87801
4.89778
4.89537
4.89502
4.89559
4.89777
4.90138
4.90629
4.91249
4.91889
4.92471
4.96449
4.96519
4.96572
4.96617
4.96649
4.96706
4.96792
4.96974
4.97081
4.98121
5.15939
5.15426
5.15452
5.1558
5.15992
5.16627
5.17441
5.184
5.19156
5.20385
6.90271
6.90165
6.90122
6.90152
6.90255
6.90428
6.90659
6.90921
6.91173
6.91391
6.47138
6.47172
6.47187
6.47189
6.47186
6.47177
6.47165
6.47153
6.47141
6.47111
4.95771
4.9578
4.95775
4.95781
4.95793
4.95813
4.95839
4.95869
4.95919
4.95874
4.88187
4.88254
4.88286
4.8829
4.88281
4.88268
4.88258
4.88252
4.88275
4.8829
4.85696
4.85671
4.85668
4.8567
4.85681
4.85699
4.85728
4.8577
4.85832
4.85865
4.85984
4.85918
4.8589
4.85897
4.85951
4.86047
4.86172
4.8631
4.86431
4.86531
4.86061
4.86026
4.86008
4.86019
4.86059
4.86125
4.86212
4.86318
4.8643
4.8662
4.88608
4.88435
4.8841
4.88456
4.8861
4.88855
4.89175
4.89568
4.89961
4.90378
4.94946
4.9504
4.95109
4.95136
4.95128
4.95103
4.95048
4.95015
4.94814
4.95519
5.14729
5.1435
5.14392
5.14511
5.1484
5.15328
5.15914
5.16556
5.16922
5.17794
6.64051
6.63981
6.63953
6.63974
6.64043
6.64155
6.64304
6.64465
6.64612
6.64742
6.22584
6.22614
6.22625
6.22626
6.22625
6.2262
6.22613
6.22604
6.22596
6.22568
4.95344
4.95375
4.95382
4.95392
4.95399
4.95409
4.95423
4.95441
4.95494
4.95444
4.88053
4.88104
4.88121
4.88127
4.88128
4.88131
4.88139
4.88151
4.8819
4.88221
4.85704
4.85697
4.857
4.857
4.85698
4.85695
4.85696
4.85706
4.85737
4.85766
4.85801
4.85745
4.85716
4.85721
4.85762
4.85834
4.85928
4.8603
4.86123
4.86203
4.85776
4.8575
4.85737
4.85742
4.85766
4.85804
4.85853
4.85909
4.85966
4.86088
4.87922
4.87792
4.87771
4.87809
4.87919
4.88091
4.88309
4.8857
4.88827
4.89157
4.93857
4.93939
4.94008
4.94028
4.94012
4.93968
4.93876
4.93777
4.9348
4.94023
5.13753
5.13476
5.13525
5.13638
5.13907
5.14294
5.14732
5.15178
5.1532
5.15993
6.36667
6.36624
6.36607
6.36621
6.36664
6.36733
6.36823
6.36916
6.36995
6.37071
5.96957
5.96982
5.9699
5.96992
5.96992
5.96988
5.96983
5.96977
5.96971
5.96944
4.94937
4.94989
4.95004
4.95017
4.95022
4.95024
4.95027
4.95035
4.95094
4.9505
4.87949
4.87982
4.87988
4.87992
4.87998
4.88011
4.88029
4.88052
4.881
4.8815
4.85777
4.85778
4.85784
4.85782
4.85774
4.85762
4.85749
4.85744
4.85757
4.85787
4.85754
4.85708
4.85683
4.85685
4.85713
4.85764
4.8583
4.85903
4.85972
4.86035
4.85688
4.85668
4.85657
4.85659
4.85672
4.85695
4.85723
4.85754
4.85783
4.85862
4.87434
4.87336
4.87317
4.87345
4.87422
4.87539
4.87685
4.87856
4.88028
4.88293
4.92856
4.92911
4.92973
4.9299
4.92978
4.92939
4.92854
4.92755
4.9246
4.92905
5.12814
5.12618
5.12667
5.12774
5.12997
5.13307
5.13643
5.13958
5.13967
5.14506
6.08175
6.0815
6.08141
6.08149
6.08173
6.08212
6.08263
6.08311
6.08349
6.08391
5.70319
5.70341
5.70347
5.70349
5.70349
5.70347
5.70343
5.70338
5.70332
5.70309
4.94521
4.94586
4.94609
4.94627
4.94631
4.94627
4.9462
4.94618
4.94679
4.9466
4.87833
4.87847
4.87843
4.87843
4.87851
4.87867
4.8789
4.87918
4.87966
4.88038
4.8586
4.8586
4.85864
4.85861
4.85853
4.85839
4.85825
4.85816
4.85821
4.85854
4.85768
4.85733
4.85714
4.85714
4.85731
4.85763
4.85805
4.85852
4.859
4.85948
4.85698
4.85683
4.85675
4.85675
4.85682
4.85693
4.85707
4.85721
4.85736
4.85781
4.8697
4.86899
4.86884
4.869
4.86948
4.8702
4.87108
4.87211
4.87321
4.87523
4.91728
4.91756
4.91804
4.91818
4.91809
4.91778
4.91712
4.91631
4.91386
4.91745
5.11634
5.11507
5.11553
5.1165
5.1183
5.12074
5.12329
5.12543
5.1247
5.1289
5.78657
5.78644
5.78639
5.78643
5.78655
5.78675
5.787
5.78722
5.78737
5.78759
5.42758
5.42775
5.42779
5.4278
5.4278
5.42779
5.42777
5.42773
5.42768
5.4275
4.93955
4.9402
4.94058
4.94081
4.94086
4.94077
4.94059
4.94043
4.94079
4.94109
4.87674
4.87662
4.87652
4.87647
4.87653
4.87668
4.87691
4.8772
4.87762
4.87847
4.85911
4.85905
4.85906
4.85903
4.85896
4.85888
4.85878
4.85872
4.85874
4.85908
4.85814
4.85791
4.85779
4.85778
4.85787
4.85804
4.85827
4.85854
4.85884
4.85917
4.85761
4.85752
4.85747
4.85746
4.85748
4.85751
4.85755
4.85759
4.85764
4.85784
4.86473
4.86428
4.86417
4.86425
4.86449
4.86485
4.86528
4.86578
4.86638
4.86773
4.90356
4.90361
4.90389
4.90394
4.90382
4.90351
4.90297
4.90234
4.90072
4.90336
5.09508
5.09438
5.09477
5.09557
5.09691
5.09868
5.10047
5.10172
5.10056
5.10334
5.48213
5.48207
5.48205
5.48207
5.48211
5.48217
5.48224
5.48231
5.48236
5.48246
5.14253
5.14263
5.14264
5.14264
5.14264
5.14264
5.14263
5.14263
5.14262
5.14253
4.92472
4.92529
4.92592
4.92625
4.92633
4.92621
4.92591
4.9255
4.92508
4.92567
4.87365
4.8733
4.8731
4.873
4.87302
4.87313
4.87333
4.87362
4.87402
4.87486
4.85938
4.8593
4.85928
4.85926
4.85923
4.85919
4.85916
4.85914
4.85917
4.85939
4.85895
4.85883
4.85877
4.85876
4.8588
4.85888
4.85899
4.85911
4.85926
4.85944
4.85864
4.8586
4.85858
4.85857
4.85856
4.85856
4.85855
4.85854
4.85853
4.85858
4.86084
4.86064
4.86059
4.86061
4.8607
4.86083
4.86099
4.86115
4.86139
4.86201
4.88688
4.88671
4.88677
4.88672
4.88653
4.88622
4.88581
4.88539
4.88482
4.88652
5.04094
5.04065
5.0409
5.0414
5.04219
5.04323
5.04425
5.0448
5.04379
5.04483
5.16849
5.16845
5.16846
5.16847
5.16847
5.16847
5.16847
5.16846
5.16843
5.16849
11.2684
11.3834
11.3379
11.1217
82.8061
84.8812
85.3408
85.9933
143.134
148.604
149.073
147.83
202.796
212.228
212.094
207.803
264.476
278.131
276.923
269.464
332.762
351.033
348.931
340.183
395.125
417.764
415.38
407.978
433.103
459.359
457.411
452.821
345.611
368.175
365.63
364.268
11.4761
11.7147
11.5587
11.151
9.71338
9.77271
9.77555
9.7316
76.0765
79.3147
80.0739
80.1992
133.881
144.795
145.895
143.732
192.903
214.525
215.057
209.159
256.142
290.973
290.021
280.063
329.514
380.257
378.482
365.599
399.592
466.584
465.619
452.574
446.055
527.503
528.55
517.337
350.484
422.803
420.911
416.055
10.7111
10.9419
10.8716
10.6512
8.77656
8.78952
8.7885
8.777
26.5376
28.9518
28.2138
25.7057
49.3534
53.7567
52.0916
47.4182
74.5782
81.3348
78.2137
70.6971
103.454
112.991
107.81
96.7241
139.445
152.804
145.175
129.275
177.315
194.674
184.513
163.481
207.532
228.699
216.438
190.892
164.733
181.615
170.135
149.291
9.91261
10.0033
9.98018
9.88097
8.51165
8.51421
8.51487
8.5139
11.4736
11.7222
11.6922
11.4952
21.212
21.9381
21.874
21.3317
31.9953
33.4812
33.2284
31.912
44.509
46.9418
46.2765
43.7528
60.6349
64.4026
63.0813
58.7624
78.0588
83.1704
80.9014
74.4536
92.5812
99.1291
95.8397
87.143
71.9433
77.0797
73.566
65.9615
9.44852
9.49295
9.48988
9.44947
8.33266
8.33376
8.33402
8.33336
7.04249
7.13379
7.1588
7.12885
11.6781
11.9741
12.0568
11.9705
16.8707
17.485
17.5851
17.318
22.8361
23.856
23.8915
23.2868
30.7134
32.3386
32.2255
31.0356
39.2247
41.4595
41.0412
39.0605
46.265
49.2007
48.3828
45.401
34.4062
36.6236
35.4325
32.5512
9.09821
9.12214
9.12376
9.10681
8.18236
8.18329
8.18338
8.1826
5.60714
5.62136
5.6265
5.62471
7.45641
7.52629
7.55888
7.56005
9.93766
10.1214
10.1885
10.1631
12.8337
13.1796
13.2658
13.1649
16.7965
17.4131
17.503
17.2349
21.0465
21.9435
21.9668
21.4373
24.4803
25.7323
25.6307
24.6941
17.4837
18.3774
18.0227
17.0187
8.8127
8.8246
8.82697
8.82083
8.03155
8.03244
8.03251
8.03172
5.19717
5.20034
5.20119
5.20017
5.82345
5.83925
5.84785
5.84996
6.91453
6.96742
6.99254
6.99349
8.25909
8.37138
8.41568
8.40583
10.2339
10.4616
10.5315
10.4826
12.359
12.7069
12.7772
12.6581
14.0543
14.5739
14.6207
14.3565
10.2233
10.5594
10.4809
10.1897
8.56529
8.57075
8.57283
8.57143
7.87332
7.8742
7.87426
7.87351
5.06335
5.0645
5.0645
5.06355
5.23327
5.23564
5.23706
5.23766
5.68418
5.69653
5.70304
5.70435
6.26566
6.296
6.31054
6.31202
7.19422
7.2698
7.30047
7.2948
8.2158
8.33674
8.37666
8.35811
9.06938
9.26982
9.31448
9.24928
7.33969
7.45237
7.44631
7.38028
8.33729
8.33957
8.34103
8.34126
7.70536
7.70619
7.70626
7.70555
5.01336
5.01428
5.01421
5.01328
5.02036
5.02047
5.02051
5.02053
5.20446
5.20677
5.20804
5.20838
5.45538
5.46196
5.46554
5.46665
5.88065
5.90359
5.91414
5.91405
6.35912
6.39487
6.41022
6.41061
6.80684
6.87804
6.9006
6.8861
6.1989
6.23278
6.23713
6.22666
8.11408
8.11487
8.11577
8.11633
7.5269
7.52768
7.52775
7.52709
4.99137
4.99222
4.99216
4.99128
4.9389
4.9388
4.93869
4.93859
5.0096
5.0098
5.00991
5.00995
5.12348
5.12434
5.1249
5.12529
5.32345
5.33041
5.33372
5.33368
5.55986
5.56824
5.57287
5.57501
5.81441
5.83918
5.84827
5.84415
5.6988
5.70632
5.70899
5.7098
7.88842
7.88853
7.88903
7.88957
7.3376
7.33831
7.33837
7.33776
4.9796
4.98038
4.98033
4.97948
4.90609
4.90605
4.90597
4.90584
4.92537
4.92524
4.92517
4.92517
4.98028
4.9801
4.98003
4.98012
5.07674
5.07925
5.08035
5.08007
5.20673
5.20776
5.20883
5.21025
5.36657
5.37621
5.37954
5.37692
5.45415
5.45318
5.45376
5.45608
7.65704
7.65688
7.65714
7.65755
7.13724
7.13788
7.13793
7.13738
4.97184
4.97253
4.97245
4.97165
4.89237
4.89237
4.89232
4.89219
4.88728
4.88714
4.88708
4.88709
4.91572
4.91549
4.91535
4.91534
4.96191
4.96314
4.96358
4.96326
5.04271
5.04219
5.04227
5.04306
5.15375
5.15855
5.15969
5.15717
5.32484
5.32151
5.321
5.32296
7.41815
7.41793
7.41806
7.41834
6.92571
6.92628
6.92631
6.92582
4.9658
4.96639
4.96629
4.96553
4.88648
4.8865
4.88645
4.88633
4.86971
4.86961
4.86957
4.86959
4.88592
4.88578
4.88567
4.88563
4.90702
4.9078
4.90803
4.90774
4.96377
4.9632
4.96308
4.96347
5.04894
5.05212
5.05246
5.04992
5.25278
5.2492
5.24829
5.24961
7.17062
7.17046
7.17052
7.17065
6.70295
6.70344
6.70346
6.70302
4.96066
4.96113
4.961
4.96028
4.88391
4.88395
4.8839
4.88377
4.86174
4.86167
4.86165
4.86168
4.87199
4.87191
4.87185
4.8718
4.88066
4.8812
4.88135
4.8811
4.92483
4.92452
4.92441
4.92455
4.9963
4.9989
4.99894
4.99638
5.21067
5.2076
5.20661
5.20729
6.91366
6.91362
6.91364
6.91365
6.46898
6.46939
6.46939
6.46901
4.9561
4.95646
4.95629
4.95563
4.8828
4.88284
4.88279
4.88265
4.85848
4.85845
4.85844
4.85846
4.86537
4.86534
4.8653
4.86526
4.86811
4.8685
4.86859
4.86838
4.9048
4.90478
4.90472
4.90466
4.96905
4.97146
4.97138
4.96878
5.18452
5.18222
5.18131
5.18135
6.6468
6.6469
6.64691
6.6468
6.22393
6.22424
6.22423
6.22391
4.95205
4.95229
4.95209
4.95148
4.88228
4.88236
4.88232
4.88215
4.85764
4.85766
4.85766
4.85765
4.86214
4.86214
4.86211
4.86208
4.86224
4.86251
4.86256
4.86238
4.89331
4.89351
4.89351
4.8933
4.9534
4.9558
4.95568
4.95299
5.16656
5.16517
5.1644
5.16382
6.36981
6.37006
6.37007
6.36986
5.96814
5.96836
5.96832
5.96806
4.94846
4.94861
4.9484
4.94784
4.88188
4.88203
4.882
4.8818
4.85803
4.85809
4.8581
4.85806
4.8605
4.86051
4.8605
4.86047
4.85953
4.85971
4.85973
4.85959
4.88506
4.88543
4.88546
4.88516
4.94159
4.94412
4.944
4.9412
5.1518
5.15144
5.15087
5.14965
6.08283
6.0832
6.08321
6.08294
5.70231
5.70241
5.70235
5.70216
4.94518
4.94534
4.94515
4.94461
4.88119
4.88144
4.88142
4.88115
4.85885
4.85895
4.85896
4.8589
4.85965
4.85967
4.85967
4.85966
4.85836
4.85846
4.85846
4.85837
4.87739
4.87782
4.87787
4.87755
4.92878
4.93144
4.93137
4.92853
5.13555
5.1364
5.13611
5.1342
5.7864
5.78685
5.78687
5.78656
5.42735
5.42732
5.42723
5.42714
4.94095
4.94132
4.9412
4.94059
4.87958
4.87991
4.8799
4.87956
4.85944
4.85956
4.85957
4.85949
4.85932
4.85936
4.85937
4.85937
4.85809
4.85813
4.85812
4.85808
4.86951
4.8699
4.86995
4.86969
4.91196
4.91438
4.91435
4.91187
5.10914
5.1115
5.11157
5.10879
5.48142
5.48193
5.48196
5.48162
5.14312
5.14287
5.14279
5.14286
4.92723
4.9281
4.92809
4.92715
4.87562
4.87585
4.87581
4.87554
4.8596
4.85968
4.85968
4.85963
4.85956
4.85958
4.8596
4.8596
4.85863
4.85863
4.85863
4.85862
4.86298
4.8632
4.86324
4.8631
4.89069
4.89186
4.89183
4.89061
5.0476
5.0511
5.05141
5.048
5.16798
5.16853
5.16854
5.16817
10.1123
9.36633
9.05423
8.9417
8.87722
8.83176
8.80148
8.78444
8.77499
8.76935
103.681
49.119
35.7483
29.9532
24.5554
19.9475
16.3612
13.6875
11.78
10.4184
160.952
70.8578
51.0896
43.737
37.1839
31.417
26.584
22.7036
19.6607
17.2876
206.417
82.5918
55.9764
46.7193
39.3513
32.7556
27.2182
22.8255
19.4351
16.8487
242.033
88.9413
58.8191
47.9544
40.0648
32.7242
26.6659
21.9449
18.3596
15.7153
277.996
94.6781
60.9663
48.29
39.832
31.7748
25.3421
20.4561
16.8747
14.3244
307.029
98.143
61.6821
47.7678
39.0321
30.5076
23.9336
19.066
15.5879
13.2045
315.115
93.7344
56.6202
42.2158
33.9052
25.7768
19.9163
15.7907
13.041
11.2247
224.392
56.1219
30.5385
21.11
16.2778
12.2203
9.95257
8.61114
7.80258
7.27844
9.56949
9.54469
9.38929
9.36311
9.3165
9.29035
9.26958
9.25851
9.25103
9.24458
9.36679
9.05662
8.9044
8.81881
8.76487
8.72924
8.70611
8.69236
8.68495
8.68026
53.1041
28.6692
22.5547
19.4477
16.6672
14.1965
12.1619
10.5996
9.46016
8.66846
89.992
46.2684
35.7954
31.0155
27.1756
23.503
20.2845
17.6258
15.4984
13.8804
122.252
58.6043
42.8594
35.6279
30.5432
25.7592
21.6891
18.4164
15.8671
13.9815
152.541
68.7599
47.8521
38.5143
32.377
26.6706
21.9703
18.2917
15.48
13.4705
186.412
78.8691
52.1426
40.4703
33.2508
26.6623
21.4475
17.4901
14.5864
12.5868
217.167
86.4678
54.7121
41.2451
33.3464
26.1707
20.6919
16.6556
13.7663
11.8492
233.143
86.742
51.9176
37.4802
29.5723
22.5718
17.5694
14.0794
11.76
10.28
167.366
54.7495
29.0612
19.3769
14.6919
11.2243
9.27292
8.12818
7.43249
7.00162
9.81846
9.50201
9.33088
9.26758
9.21267
9.17938
9.15522
9.14045
9.13004
9.121
8.73743
8.696
8.66327
8.63605
8.61475
8.59929
8.58898
8.5828
8.57937
8.57691
19.9472
16.5742
14.5006
12.6829
11.1137
9.8109
8.79683
8.04814
7.50963
7.13732
35.9148
28.7063
24.9202
21.6851
18.9099
16.5018
14.5069
12.9027
11.6278
10.6666
51.0283
37.9295
31.5356
26.3456
22.2546
18.8352
16.0922
13.9434
12.2844
11.0711
66.1172
45.6871
36.6266
29.5899
24.3747
20.1208
16.809
14.2863
12.3753
11.0225
83.2149
53.3417
41.1436
32.0822
25.7318
20.6574
16.8381
14.0164
11.9708
10.5775
99.1121
59.1911
44.1519
33.457
26.3333
20.7016
16.594
13.6508
11.5674
10.1963
108.406
59.7606
42.6026
31.0002
23.7622
18.2151
14.4218
11.8543
10.168
9.09526
75.9379
36.651
23.869
16.2719
12.2244
9.68128
8.2887
7.47052
6.96181
6.64235
9.57138
9.37699
9.24304
9.16319
9.10556
9.06951
9.04442
9.02731
9.01465
9.00373
8.50907
8.49899
8.48795
8.47801
8.47048
8.46534
8.46214
8.46051
8.46011
8.45965
10.941
10.1323
9.28325
8.43912
7.73217
7.18959
6.7909
6.50298
6.29457
6.14967
19.8647
18.025
16.1737
14.3013
12.6859
11.3578
10.2965
9.46082
8.80181
8.30761
28.4727
24.6288
21.1871
17.9858
15.3979
13.3258
11.7023
10.4496
9.49134
8.79641
37.2373
30.6638
25.4296
20.8618
17.3652
14.6374
12.5607
11.0069
9.83935
9.01518
47.4649
36.9712
29.5257
23.3599
18.8634
15.4377
12.9129
11.0839
9.77216
8.88136
57.0644
42.0798
32.5565
25.0144
19.7588
15.8295
13.0246
11.059
9.67871
8.76712
62.7956
43.2706
32.0937
23.7143
18.2353
14.3052
11.6782
9.93937
8.80117
8.06806
42.7463
26.2077
17.9743
12.7918
10.0233
8.39078
7.47246
6.91768
6.5589
6.32819
9.32673
9.18822
9.08107
9.01139
8.96315
8.93148
8.90872
8.89238
8.88004
8.86959
8.33316
8.33167
8.33016
8.32898
8.32828
8.32798
8.32801
8.32847
8.32958
8.33061
6.99874
6.75828
6.50535
6.26704
6.06876
5.91236
5.79202
5.70042
5.63113
5.58325
11.6099
10.9236
10.1501
9.37279
8.6861
8.11381
7.65459
7.29302
7.00463
6.78684
16.4378
14.9553
13.3742
11.8584
10.5709
9.52037
8.69217
8.05402
7.56582
7.21312
21.5339
18.9337
16.358
14.0114
12.1122
10.6134
9.47114
8.62225
7.98213
7.52766
27.7662
23.4455
19.5106
16.088
13.4435
11.4209
9.932
8.86203
8.09431
7.5703
33.7353
27.3869
22.0696
17.644
14.3795
11.9542
10.2292
9.03242
8.18663
7.61986
37.3957
28.7972
22.2676
17.1569
13.6369
11.1583
9.50789
8.4205
7.6991
7.22394
24.5314
17.3384
12.8113
9.95786
8.36371
7.40464
6.82956
6.46647
6.21992
6.05808
9.05256
8.96949
8.89787
8.84678
8.80934
8.78252
8.76229
8.7471
8.73536
8.72556
8.18316
8.18331
8.18367
8.18426
8.18499
8.18578
8.18658
8.18756
8.18905
8.19082
5.60812
5.56479
5.51344
5.46127
5.41404
5.37354
5.34003
5.31308
5.29254
5.2796
7.50433
7.31306
7.06479
6.80552
6.57026
6.37201
6.21187
6.08402
5.97741
5.89448
9.97696
9.47125
8.85038
8.2272
7.67824
7.22374
6.86169
6.57931
6.3594
6.19968
12.7353
11.7742
10.662
9.59987
8.70673
7.99501
7.44975
7.04222
6.72724
6.49927
16.3272
14.6114
12.7553
11.0621
9.69856
8.64779
7.86998
7.30759
6.89674
6.61236
19.8657
17.25
14.5868
12.2697
10.4878
9.16031
8.21121
7.54924
7.06895
6.73891
22.1211
18.4257
15.0022
12.2265
10.2391
8.84211
7.9012
7.27137
6.84094
6.54979
14.3968
11.5412
9.42952
8.05264
7.21605
6.67984
6.33248
6.10239
5.93799
5.82862
8.79746
8.75135
8.70714
8.67166
8.64332
8.62129
8.60388
8.59028
8.57953
8.57069
8.03241
8.03275
8.03331
8.03406
8.03492
8.03576
8.03658
8.03752
8.03893
8.04073
5.1968
5.1886
5.17894
5.16826
5.15759
5.14752
5.13859
5.13119
5.12614
5.12425
5.83874
5.79273
5.73043
5.66333
5.6009
5.54729
5.50323
5.46677
5.43292
5.40472
6.94986
6.79195
6.58436
6.3682
6.17117
6.00295
5.86423
5.75175
5.66067
5.59379
8.29773
7.9636
7.54501
7.13242
6.77525
6.4846
6.25645
6.08103
5.93817
5.83124
10.221
9.55518
8.77103
8.03261
7.41964
6.93853
6.57387
6.30252
6.09673
5.95153
12.1915
11.1287
9.92757
8.85076
7.99601
7.34959
6.87675
6.53817
6.2806
6.0976
13.5219
11.9545
10.3431
9.00105
8.00545
7.29218
6.79577
6.45143
6.20634
6.03631
9.42807
8.38817
7.5084
6.88525
6.46203
6.16823
5.96286
5.82046
5.7134
5.64182
8.56191
8.53738
8.51065
8.48637
8.46531
8.44779
8.43333
8.42163
8.41215
8.40449
7.8742
7.87447
7.87489
7.87546
7.87611
7.87674
7.87732
7.87802
7.87918
7.88077
5.06301
5.06123
5.05926
5.0569
5.05424
5.05145
5.04884
5.04678
5.04603
5.04693
5.23563
5.22717
5.2155
5.20236
5.18991
5.17934
5.17098
5.16382
5.15485
5.14607
5.69435
5.65152
5.59162
5.52555
5.4618
5.40424
5.35399
5.31093
5.27443
5.24751
6.28733
6.18776
6.05423
5.91619
5.79094
5.68429
5.59665
5.5262
5.46439
5.41604
7.22149
6.98954
6.70089
6.41746
6.17163
5.97025
5.81028
5.6855
5.5863
5.51526
8.22989
7.83848
7.363
6.92075
6.55465
6.2668
6.0465
5.8818
5.74857
5.65036
8.98673
8.37162
7.69838
7.1153
6.66098
6.32067
6.07145
5.89036
5.75584
5.66082
7.18718
6.82467
6.46985
6.18856
5.97541
5.81551
5.69578
5.6093
5.5409
5.49532
8.33708
8.32373
8.30737
8.29092
8.27563
8.26217
8.2506
8.24094
8.23291
8.22652
7.70622
7.70641
7.70668
7.70706
7.70749
7.70789
7.70823
7.70867
7.70956
7.7109
5.01331
5.01256
5.01182
5.01096
5.00995
5.00881
5.00776
5.00705
5.00728
5.00852
5.01999
5.01894
5.01786
5.01667
5.01585
5.01574
5.0164
5.01704
5.0155
5.01292
5.20578
5.19457
5.17781
5.15783
5.13715
5.11724
5.09877
5.08202
5.06725
5.05642
5.4613
5.43483
5.39631
5.35351
5.31206
5.27465
5.24232
5.21509
5.18886
5.16715
5.89279
5.81869
5.72179
5.62013
5.5261
5.44427
5.37545
5.31894
5.27196
5.23818
6.38099
6.2538
6.0851
5.91814
5.77074
5.64773
5.5481
5.46997
5.40235
5.35052
6.80524
6.58288
6.32589
6.08853
5.89086
5.73369
5.61199
5.51938
5.44791
5.39705
6.17871
6.04746
5.90129
5.77182
5.66398
5.57713
5.50798
5.45621
5.41307
5.38469
8.11408
8.10657
8.09651
8.08554