/*--------------------------------*- C++ -*----------------------------------*\
| =========                 |                                                 |
| \\      /  F ield         | foam-extend: Open Source CFD                    |
|  \\    /   O peration     | Version:     4.0                                |
|   \\  /    A nd           | Web:         http://www.foam-extend.org         |
|    \\/     M anipulation  |                                                 |
\*---------------------------------------------------------------------------*/
FoamFile
{
    version     2.0;
    format      ascii;
    class       volScalarField;
    location    "1600";
    object      MaU;
}
// * * * * * * * * * * * * * * * * * * * * * * * * * * * * * * * * * * * * * //

dimensions      [0 0 0 0 0 0 0];

internalField   nonuniform List<scalar> 
34480
(
0.623778
0.624775
0.62531
0.625422
0.625116
0.624316
0.622884
0.620137
0.61404
0.608237
0.627179
0.628008
0.628469
0.628501
0.627943
0.626649
0.624645
0.621682
0.614663
0.609104
0.629345
0.630106
0.63048
0.630389
0.629656
0.628311
0.626538
0.624246
0.617211
0.612094
0.629328
0.63011
0.630555
0.630595
0.630087
0.629146
0.627874
0.626296
0.61965
0.61501
0.629779
0.630665
0.63125
0.63151
0.631325
0.630862
0.630136
0.62933
0.62347
0.61932
0.629366
0.630311
0.63098
0.63137
0.631422
0.631364
0.631175
0.631191
0.626516
0.623189
0.629563
0.63065
0.631426
0.631956
0.632218
0.632502
0.632808
0.633644
0.630418
0.627896
0.628968
0.630096
0.630829
0.631244
0.63139
0.631628
0.632088
0.633464
0.631756
0.630424
0.628712
0.629998
0.630844
0.631394
0.631717
0.632115
0.632824
0.634699
0.634265
0.632842
0.624909
0.625937
0.625977
0.625102
0.623484
0.621502
0.619609
0.619074
0.618289
0.619099
0.613871
0.615333
0.615906
0.615657
0.614513
0.612197
0.608083
0.600814
0.590104
0.576245
0.618468
0.619778
0.620304
0.620042
0.6188
0.616205
0.611664
0.603818
0.59116
0.575
0.62152
0.622746
0.62322
0.622926
0.621612
0.618973
0.614504
0.60682
0.593319
0.575985
0.622319
0.623556
0.624096
0.623937
0.622831
0.620536
0.616467
0.609213
0.595321
0.577569
0.623453
0.624765
0.625423
0.62547
0.624664
0.622822
0.619275
0.612664
0.598869
0.581275
0.623581
0.624938
0.625675
0.625858
0.625288
0.623862
0.62086
0.615038
0.601794
0.584992
0.624228
0.625692
0.626524
0.626852
0.626499
0.625445
0.62298
0.618014
0.605698
0.589973
0.623957
0.625449
0.62625
0.626494
0.626086
0.625095
0.622923
0.618674
0.607549
0.593516
0.623948
0.625548
0.626441
0.626799
0.62657
0.625813
0.624033
0.620533
0.610669
0.597438
0.620336
0.621753
0.622089
0.621428
0.619827
0.617438
0.613985
0.609187
0.599799
0.589693
0.606234
0.607801
0.608366
0.608045
0.606803
0.604484
0.60079
0.595222
0.58715
0.576958
0.611117
0.612653
0.613211
0.612835
0.611404
0.608654
0.60408
0.596823
0.585433
0.570274
0.614446
0.615981
0.616535
0.616156
0.614662
0.611734
0.606753
0.59859
0.584575
0.564754
0.61574
0.617337
0.617968
0.617703
0.616338
0.613551
0.608565
0.599976
0.583809
0.559885
0.617353
0.619039
0.61978
0.619696
0.618562
0.616082
0.611334
0.602728
0.585061
0.557851
0.617902
0.619645
0.620472
0.62052
0.619588
0.61743
0.613027
0.604699
0.586147
0.556569
0.618913
0.62075
0.621667
0.62186
0.621129
0.619298
0.615303
0.607452
0.588589
0.557347
0.618943
0.620805
0.621705
0.621844
0.621086
0.619341
0.615619
0.608297
0.589648
0.557567
0.619193
0.62112
0.622091
0.622319
0.621692
0.620141
0.616781
0.610124
0.592122
0.558641
0.615823
0.61758
0.618139
0.617608
0.615971
0.613231
0.608725
0.601299
0.583855
0.550791
0.600666
0.602041
0.602513
0.602205
0.601113
0.599181
0.596312
0.592408
0.587448
0.581916
0.605286
0.606752
0.607263
0.606854
0.605455
0.602918
0.598995
0.593342
0.585515
0.576587
0.608466
0.610052
0.610599
0.610159
0.608609
0.605721
0.60107
0.594028
0.583435
0.570499
0.609959
0.611684
0.612319
0.611945
0.610401
0.607415
0.602367
0.594324
0.581072
0.56386
0.611842
0.613693
0.614433
0.614193
0.612773
0.609888
0.604733
0.596099
0.580596
0.559388
0.612683
0.614619
0.615444
0.615313
0.614023
0.611305
0.606206
0.597314
0.580016
0.555331
0.613968
0.615999
0.616908
0.616905
0.61577
0.613274
0.608358
0.599467
0.580891
0.553261
0.614255
0.616312
0.617216
0.617176
0.616022
0.613577
0.608796
0.600076
0.580809
0.550922
0.614729
0.616822
0.617779
0.617814
0.616766
0.614458
0.609864
0.60148
0.582189
0.549765
0.611607
0.613546
0.614214
0.613709
0.611956
0.608834
0.603475
0.594486
0.575389
0.541767
0.596797
0.59788
0.598241
0.598004
0.597189
0.595806
0.59387
0.591449
0.588696
0.585975
0.600862
0.602104
0.602536
0.60218
0.601006
0.598961
0.595977
0.59203
0.58718
0.582391
0.603591
0.605066
0.605573
0.605155
0.60374
0.601204
0.597335
0.591917
0.584671
0.577049
0.605016
0.606712
0.607325
0.606923
0.605396
0.602556
0.598016
0.591318
0.581533
0.570483
0.606941
0.608822
0.609542
0.609224
0.607708
0.604766
0.599818
0.592157
0.57998
0.565343
0.607912
0.609921
0.610734
0.610493
0.609021
0.606074
0.600899
0.59257
0.578249
0.560129
0.609346
0.611475
0.612369
0.612231
0.610853
0.607994
0.602759
0.594029
0.577925
0.556545
0.60981
0.611979
0.612883
0.612719
0.611314
0.608446
0.603171
0.594256
0.576881
0.552656
0.610457
0.612652
0.613596
0.613492
0.612162
0.609382
0.604162
0.595214
0.57721
0.549912
0.607562
0.609616
0.610364
0.609881
0.608064
0.604722
0.598978
0.589507
0.571278
0.541902
0.594148
0.594953
0.595211
0.595048
0.594495
0.593584
0.592365
0.59093
0.589413
0.58796
0.597617
0.598577
0.598915
0.598639
0.597742
0.596229
0.594123
0.591519
0.588622
0.58604
0.599779
0.601033
0.601468
0.601111
0.599927
0.597873
0.594891
0.591
0.586311
0.581883
0.600967
0.602504
0.603058
0.602678
0.601295
0.598809
0.595037
0.589855
0.583073
0.576232
0.602757
0.604535
0.605203
0.604859
0.603388
0.60064
0.596269
0.589971
0.581047
0.571462
0.603717
0.605672
0.606441
0.606138
0.604627
0.601719
0.596906
0.589699
0.578694
0.566223
0.605186
0.607295
0.608148
0.607919
0.606431
0.603478
0.598393
0.590502
0.577614
0.562235
0.60574
0.607913
0.60879
0.608539
0.607002
0.603967
0.59868
0.590321
0.575927
0.557806
0.606505
0.60871
0.60962
0.609412
0.607917
0.604909
0.599556
0.590899
0.575529
0.554414
0.603804
0.605883
0.606666
0.606198
0.604369
0.600968
0.595227
0.586075
0.570204
0.546877
0.592328
0.592915
0.593092
0.59299
0.59264
0.592077
0.591347
0.590526
0.589694
0.588861
0.59528
0.595971
0.59622
0.596023
0.595387
0.594338
0.592934
0.591286
0.589584
0.588182
0.596876
0.597868
0.598219
0.597939
0.597017
0.595457
0.593286
0.590615
0.587664
0.585098
0.597754
0.599057
0.59953
0.599202
0.598037
0.596001
0.593049
0.589235
0.584698
0.580503
0.599296
0.600876
0.601467
0.601139
0.599816
0.597421
0.593793
0.588886
0.582607
0.576437
0.600138
0.601937
0.602635
0.602316
0.600883
0.598215
0.59402
0.588125
0.58004
0.571668
0.60155
0.603538
0.604324
0.604049
0.602573
0.599746
0.595132
0.58841
0.578585
0.567869
0.602108
0.604189
0.605013
0.604712
0.603159
0.600181
0.595243
0.58788
0.576564
0.563519
0.602939
0.605069
0.605923
0.605652
0.604106
0.601094
0.595992
0.588173
0.575769
0.560179
0.60039
0.60241
0.603189
0.602741
0.600965
0.597666
0.592246
0.583947
0.570903
0.553386
0.591045
0.591482
0.591601
0.591542
0.59133
0.590997
0.590573
0.59011
0.589645
0.589111
0.593602
0.594074
0.594247
0.594116
0.593689
0.592998
0.592099
0.591085
0.59009
0.589312
0.594701
0.595442
0.595708
0.595503
0.594825
0.593701
0.59219
0.590415
0.58858
0.587082
0.595271
0.596313
0.596698
0.596435
0.59551
0.593931
0.591727
0.589022
0.586044
0.583475
0.596511
0.597842
0.598341
0.598054
0.596935
0.594963
0.592099
0.588427
0.584118
0.58018
0.597171
0.598746
0.599354
0.599051
0.597776
0.595468
0.591999
0.587383
0.581617
0.576072
0.598463
0.600254
0.600953
0.600668
0.599298
0.596751
0.592788
0.587321
0.580079
0.572747
0.598953
0.600861
0.601609
0.601293
0.59982
0.597068
0.592708
0.586538
0.577967
0.568801
0.59981
0.601788
0.602567
0.602269
0.60077
0.597931
0.593335
0.586641
0.577032
0.56589
0.597371
0.599255
0.599996
0.599577
0.597914
0.594854
0.58998
0.582828
0.572558
0.559924
0.59011
0.590449
0.59053
0.590498
0.590374
0.590182
0.589941
0.589682
0.589415
0.589034
0.592385
0.592695
0.592812
0.592729
0.592455
0.592017
0.591459
0.590847
0.590266
0.589826
0.593079
0.593606
0.593798
0.593656
0.593181
0.592406
0.591392
0.590243
0.589114
0.588233
0.593391
0.594185
0.594483
0.594284
0.593586
0.592416
0.590834
0.588971
0.58704
0.585465
0.594322
0.595391
0.595794
0.595559
0.594661
0.593113
0.590944
0.588287
0.585379
0.582876
0.594777
0.596093
0.596602
0.596336
0.595259
0.593359
0.590613
0.587128
0.5831
0.579461
0.595917
0.597462
0.598062
0.597794
0.59659
0.594411
0.591158
0.586882
0.581671
0.576723
0.596282
0.597961
0.598616
0.598312
0.596986
0.594571
0.590896
0.585938
0.579628
0.573308
0.59714
0.598909
0.599597
0.5993
0.597923
0.595381
0.591433
0.585949
0.578735
0.57097
0.594772
0.596462
0.597138
0.596758
0.595259
0.592536
0.588336
0.582434
0.574617
0.565788
0.589401
0.589678
0.589735
0.589719
0.589648
0.58954
0.589404
0.589259
0.589099
0.5888
0.591487
0.591686
0.591763
0.591713
0.591543
0.591273
0.590934
0.590569
0.590228
0.589973
0.591864
0.592223
0.592356
0.592261
0.591941
0.591426
0.590766
0.590038
0.589348
0.588827
0.591989
0.592569
0.592791
0.592648
0.592143
0.591309
0.59021
0.588958
0.587718
0.586749
0.592634
0.593457
0.59377
0.593587
0.592898
0.591732
0.590147
0.588278
0.586343
0.584756
0.592891
0.593944
0.594354
0.594134
0.593267
0.591769
0.589675
0.587125
0.584358
0.581987
0.593874
0.595154
0.595651
0.595417
0.594409
0.592626
0.59006
0.586825
0.58315
0.579847
0.594076
0.595494
0.596048
0.595774
0.594636
0.592609
0.589637
0.585795
0.581256
0.576968
0.594928
0.596451
0.597039
0.596765
0.59556
0.593384
0.59013
0.585806
0.580529
0.575229
0.592598
0.594054
0.594648
0.594315
0.593014
0.590686
0.587205
0.582517
0.576736
0.570725
0.588845
0.589083
0.589125
0.589118
0.589078
0.589018
0.588941
0.588859
0.588759
0.588506
0.59081
0.590936
0.590987
0.590958
0.590855
0.590692
0.59049
0.590273
0.590071
0.589917
0.590937
0.591174
0.591263
0.591202
0.590994
0.590661
0.590242
0.58979
0.589372
0.589062
0.590955
0.591364
0.591524
0.591425
0.591073
0.590499
0.589756
0.588931
0.588142
0.587543
0.591352
0.591961
0.592194
0.592058
0.59155
0.590704
0.589582
0.588299
0.587028
0.586024
0.591436
0.592246
0.592564
0.592391
0.591721
0.590585
0.589042
0.587227
0.585354
0.583819
0.59228
0.593301
0.593697
0.593505
0.592697
0.591296
0.589341
0.586968
0.58442
0.582237
0.592293
0.593445
0.593896
0.593663
0.592727
0.591095
0.588778
0.585898
0.5827
0.579833
0.593149
0.594414
0.5949
0.594662
0.593652
0.591867
0.589284
0.585989
0.582216
0.57866
0.590832
0.592038
0.592539
0.592258
0.59117
0.589254
0.586474
0.582878
0.57871
0.574712
0.588399
0.588611
0.588642
0.588641
0.588618
0.588584
0.588541
0.588494
0.588428
0.588205
0.590291
0.590372
0.590407
0.59039
0.590329
0.590232
0.590112
0.589983
0.58986
0.589763
0.590213
0.590364
0.590421
0.590383
0.590251
0.590042
0.589783
0.589507
0.589255
0.589071
0.590199
0.590479
0.590591
0.590526
0.590289
0.589904
0.589414
0.58888
0.58838
0.588009
0.590387
0.590821
0.590989
0.590892
0.59053
0.589936
0.589164
0.588304
0.587479
0.586847
0.590335
0.590936
0.591173
0.591043
0.590545
0.589714
0.58861
0.587351
0.586101
0.585115
0.591068
0.591853
0.592159
0.592008
0.591386
0.590326
0.588885
0.587191
0.585454
0.584023
0.590879
0.591779
0.592133
0.591944
0.591205
0.58994
0.588194
0.586101
0.583891
0.582001
0.591766
0.592779
0.593166
0.592972
0.592159
0.590751
0.588773
0.586339
0.583698
0.581347
0.58944
0.590397
0.590805
0.590577
0.5897
0.588183
0.586038
0.583368
0.580434
0.57783
0.588035
0.588228
0.588252
0.588253
0.58824
0.588222
0.588197
0.58817
0.588123
0.587921
0.589894
0.589947
0.589972
0.589963
0.589927
0.58987
0.589799
0.589721
0.589643
0.589576
0.589629
0.589722
0.589756
0.589732
0.589651
0.589523
0.589366
0.5892
0.589052
0.588943
0.589652
0.589839
0.589917
0.589876
0.58972
0.589469
0.589152
0.588812
0.588497
0.588264
0.589664
0.589963
0.590079
0.590012
0.589763
0.589358
0.588841
0.588276
0.587749
0.587354
0.589517
0.589946
0.590118
0.590023
0.589666
0.589077
0.588311
0.587457
0.586635
0.586006
0.590171
0.590755
0.590983
0.59087
0.590409
0.589634
0.588605
0.587426
0.586262
0.585331
0.589772
0.590447
0.590715
0.590568
0.590007
0.589062
0.587789
0.58631
0.584813
0.583585
0.59073
0.591515
0.591813
0.59166
0.591033
0.589963
0.588499
0.586754
0.584943
0.583407
0.588374
0.589102
0.589422
0.589243
0.588563
0.587404
0.585805
0.583883
0.581864
0.580206
0.587735
0.587912
0.587929
0.587932
0.587924
0.587914
0.5879
0.587884
0.587851
0.587667
0.589599
0.589637
0.589655
0.589651
0.58963
0.589596
0.589553
0.589504
0.589451
0.5894
0.589138
0.589192
0.589212
0.589197
0.589147
0.589071
0.588978
0.588882
0.588796
0.588733
0.589263
0.589387
0.589439
0.589415
0.589316
0.589156
0.588954
0.588739
0.588542
0.588394
0.589123
0.589322
0.5894
0.589354
0.589188
0.58892
0.588583
0.588221
0.587889
0.587645
0.588919
0.589216
0.589336
0.58927
0.589023
0.588619
0.5881
0.587534
0.587002
0.586604
0.589526
0.589945
0.590109
0.590028
0.589699
0.589152
0.588438
0.587639
0.586872
0.586272
0.588906
0.589393
0.589589
0.589478
0.589068
0.588387
0.587487
0.586472
0.585477
0.584693
0.589993
0.590581
0.590802
0.590688
0.590222
0.589439
0.58839
0.587175
0.585958
0.584965
0.587576
0.588106
0.588347
0.588212
0.587704
0.586851
0.585698
0.584357
0.582998
0.581968
0.587478
0.587639
0.587651
0.587654
0.58765
0.587645
0.587637
0.587627
0.587603
0.587437
0.5894
0.589429
0.589444
0.589443
0.589431
0.58941
0.589383
0.58935
0.589311
0.589265
0.588707
0.588737
0.588746
0.588735
0.588706
0.588661
0.588608
0.588555
0.588508
0.588474
0.588996
0.589077
0.589112
0.589098
0.589037
0.588937
0.588811
0.588677
0.588553
0.588458
0.588724
0.588851
0.588901
0.588871
0.588763
0.588591
0.588376
0.588149
0.587944
0.587796
0.588495
0.588695
0.588777
0.588733
0.588567
0.588297
0.587956
0.587589
0.587249
0.587
0.589075
0.589365
0.589479
0.589423
0.589196
0.588822
0.588343
0.587816
0.587322
0.586937
0.588223
0.588561
0.588698
0.588619
0.588329
0.587854
0.587238
0.58656
0.585911
0.585422
0.589507
0.589934
0.590092
0.590011
0.589678
0.589125
0.588399
0.587576
0.586777
0.586139
0.586979
0.587346
0.587523
0.587425
0.58706
0.586454
0.585649
0.584741
0.583846
0.583226
0.587226
0.587369
0.587377
0.58738
0.587378
0.587375
0.587371
0.587365
0.587348
0.587201
0.589303
0.589329
0.589342
0.589342
0.589335
0.589321
0.589303
0.589279
0.589246
0.5892
0.588316
0.588328
0.588331
0.588323
0.588305
0.58828
0.588251
0.588224
0.588202
0.588186
0.588826
0.588878
0.588901
0.588893
0.588856
0.588795
0.588718
0.588636
0.588559
0.588496
0.58844
0.588519
0.58855
0.588531
0.588463
0.588355
0.588222
0.588082
0.587958
0.587871
0.588218
0.588349
0.588403
0.588375
0.588267
0.588092
0.587873
0.587639
0.587425
0.587271
0.588773
0.588966
0.589042
0.589003
0.588851
0.588605
0.588293
0.587956
0.587647
0.587405
0.587678
0.587903
0.587997
0.587943
0.587746
0.587425
0.587014
0.586573
0.586156
0.58586
0.589239
0.589541
0.58965
0.589594
0.589365
0.588989
0.588502
0.58796
0.587448
0.587038
0.586497
0.58674
0.586865
0.586796
0.586544
0.586128
0.585583
0.584988
0.58441
0.584052
0.586879
0.587001
0.587005
0.587007
0.587006
0.587005
0.587004
0.587001
0.586991
0.586868
0.589333
0.589359
0.58937
0.589372
0.589367
0.589357
0.589343
0.589323
0.589293
0.589243
0.587961
0.587963
0.587963
0.587957
0.587947
0.587933
0.587918
0.587905
0.587896
0.587893
0.588734
0.588766
0.58878
0.588775
0.588753
0.588716
0.588671
0.588622
0.588577
0.588536
0.588264
0.588312
0.588332
0.588321
0.588279
0.588213
0.588132
0.588047
0.587972
0.587921
0.588074
0.588159
0.588195
0.588177
0.588109
0.587999
0.587861
0.587714
0.58758
0.587484
0.588591
0.588712
0.588759
0.588732
0.588634
0.588477
0.588281
0.588072
0.587887
0.58774
0.587268
0.587414
0.587478
0.587443
0.587314
0.587103
0.586835
0.586552
0.586284
0.586111
0.589183
0.589388
0.589461
0.589423
0.589272
0.589024
0.588709
0.588362
0.588044
0.587778
0.585994
0.586146
0.586234
0.586187
0.586019
0.585743
0.585385
0.585005
0.584634
0.584442
0.586214
0.586309
0.586311
0.586313
0.586313
0.586313
0.586314
0.586314
0.586312
0.586216
0.589558
0.589585
0.589593
0.589594
0.589591
0.589584
0.589573
0.589557
0.58953
0.589472
0.587688
0.587689
0.587692
0.58769
0.587685
0.587676
0.587666
0.587657
0.58765
0.587651
0.588704
0.58872
0.588725
0.58872
0.588707
0.588686
0.588661
0.588635
0.588613
0.58859
0.588194
0.588225
0.588239
0.588233
0.588208
0.588168
0.588118
0.588066
0.58802
0.587988
0.588057
0.588112
0.588135
0.588125
0.588083
0.588014
0.587928
0.587837
0.587752
0.58769
0.588513
0.588583
0.588609
0.588591
0.588528
0.58843
0.58831
0.588186
0.588081
0.587999
0.587069
0.587168
0.587214
0.587193
0.58711
0.586974
0.5868
0.586617
0.586437
0.586331
0.58939
0.589523
0.58957
0.589543
0.589444
0.589285
0.589087
0.588873
0.588684
0.58851
0.58524
0.585333
0.585395
0.585365
0.585255
0.585075
0.584844
0.584604
0.584361
0.584268
0.584921
0.584986
0.58499
0.584992
0.584993
0.584994
0.584994
0.584993
0.584992
0.584924
0.590117
0.590135
0.590132
0.590126
0.590121
0.590118
0.590115
0.590111
0.590099
0.590046
0.587611
0.587625
0.587637
0.587643
0.587642
0.587636
0.587624
0.587608
0.58759
0.587576
0.588706
0.588709
0.588706
0.5887
0.58869
0.588679
0.588667
0.588657
0.588652
0.588648
0.588214
0.588236
0.588246
0.588244
0.588229
0.588204
0.588172
0.588138
0.588107
0.588084
0.588135
0.588172
0.588188
0.588182
0.588155
0.588112
0.588057
0.587999
0.587944
0.587901
0.588517
0.588555
0.588568
0.588555
0.588514
0.588452
0.588377
0.588303
0.588246
0.588208
0.587236
0.587313
0.587349
0.587338
0.587284
0.587194
0.587079
0.586953
0.586821
0.586734
0.589985
0.59006
0.590086
0.590065
0.589999
0.589895
0.58977
0.589641
0.589541
0.589444
0.58396
0.584023
0.584068
0.584048
0.583975
0.583856
0.583704
0.583547
0.583377
0.58333
0.583099
0.58314
0.583152
0.583159
0.583162
0.583159
0.583152
0.583139
0.583123
0.583068
0.591043
0.591014
0.590985
0.590966
0.590957
0.590958
0.590969
0.590992
0.591024
0.591033
0.587796
0.587832
0.587856
0.587868
0.58787
0.587863
0.587848
0.587823
0.587787
0.587742
0.588698
0.588689
0.588682
0.588675
0.588668
0.58866
0.588655
0.588653
0.588659
0.588671
0.588271
0.588288
0.588297
0.588296
0.588285
0.588267
0.588244
0.588219
0.588195
0.588175
0.588234
0.588261
0.588272
0.588268
0.588248
0.588217
0.588178
0.588136
0.588097
0.588065
0.58854
0.588563
0.588571
0.58856
0.58853
0.588485
0.588432
0.588381
0.588345
0.588331
0.587759
0.58783
0.587861
0.587854
0.587815
0.587748
0.587662
0.587566
0.587458
0.587359
0.590946
0.590974
0.590985
0.590966
0.590916
0.59084
0.59075
0.590666
0.59062
0.590618
0.582276
0.582334
0.582367
0.582352
0.582297
0.582208
0.582096
0.58198
0.581852
0.581811
0.439165
0.418414
0.425322
0.46628
0.391389
0.368152
0.379193
0.436428
0.348203
0.321058
0.338394
0.417315
0.310136
0.280739
0.305069
0.406393
0.278659
0.248592
0.280152
0.403974
0.251559
0.222037
0.261866
0.401126
0.229844
0.202191
0.250806
0.398476
0.209459
0.185329
0.242779
0.39637
0.191517
0.173477
0.239191
0.39799
0.172056
0.162164
0.234874
0.393485
0.499243
0.489043
0.489369
0.499085
0.468746
0.456129
0.457274
0.469952
0.43787
0.421149
0.423357
0.440929
0.40885
0.387883
0.391475
0.414193
0.384189
0.358724
0.363977
0.392037
0.362144
0.331793
0.337831
0.371151
0.344265
0.308924
0.314792
0.353206
0.327825
0.287684
0.2931
0.336502
0.314284
0.270106
0.275064
0.322859
0.298927
0.252323
0.254888
0.305214
0.566632
0.564414
0.563884
0.56502
0.548861
0.545162
0.544467
0.54677
0.528875
0.522978
0.522169
0.526505
0.506637
0.498369
0.497568
0.504401
0.485638
0.474916
0.474286
0.484018
0.464561
0.451253
0.45084
0.46358
0.445623
0.429647
0.429409
0.445093
0.426988
0.408465
0.408369
0.426818
0.410726
0.39052
0.390468
0.41084
0.391813
0.372092
0.371316
0.391215
0.579091
0.578004
0.577655
0.578008
0.569445
0.568031
0.56754
0.567906
0.557585
0.555099
0.554381
0.555282
0.542814
0.539022
0.538116
0.53984
0.528377
0.523137
0.522117
0.52497
0.512811
0.505996
0.504919
0.509162
0.498208
0.489745
0.488651
0.494486
0.482894
0.47286
0.471804
0.479309
0.468667
0.457686
0.456678
0.465482
0.450828
0.440892
0.439623
0.447967
0.585952
0.585359
0.585159
0.585349
0.580108
0.579625
0.579395
0.579407
0.572628
0.571686
0.571263
0.571335
0.562527
0.56089
0.560237
0.560504
0.552569
0.550064
0.549191
0.549821
0.541273
0.537758
0.53669
0.537866
0.530541
0.525928
0.524707
0.526615
0.518757
0.513067
0.511765
0.514551
0.507581
0.501238
0.499932
0.503502
0.492831
0.487626
0.486193
0.48921
0.588525
0.588047
0.587901
0.588088
0.585065
0.584852
0.584742
0.584736
0.579979
0.579557
0.57934
0.579323
0.572758
0.571995
0.571618
0.57161
0.565704
0.564472
0.563904
0.563958
0.557386
0.55556
0.554785
0.554981
0.549557
0.547042
0.546074
0.54652
0.540659
0.537436
0.536328
0.537143
0.53223
0.528558
0.527411
0.528635
0.520319
0.517765
0.516541
0.517097
0.589646
0.589213
0.58909
0.589278
0.587752
0.587657
0.587606
0.587597
0.584213
0.584017
0.58391
0.583891
0.578847
0.578476
0.578274
0.578237
0.573644
0.573024
0.572694
0.572645
0.567294
0.566337
0.565851
0.565809
0.561452
0.560085
0.559432
0.559439
0.554652
0.552845
0.55205
0.552179
0.548487
0.546368
0.545513
0.545832
0.538813
0.537808
0.536907
0.536464
0.589974
0.589556
0.589442
0.589632
0.589092
0.589044
0.589017
0.589012
0.58663
0.586532
0.586477
0.586466
0.582617
0.582425
0.582316
0.582289
0.57872
0.578391
0.578204
0.578158
0.573759
0.57324
0.57295
0.572884
0.569321
0.568562
0.568154
0.568078
0.564043
0.56302
0.5625
0.562449
0.559628
0.558401
0.557816
0.557834
0.551585
0.551491
0.550893
0.55011
0.589927
0.589515
0.589405
0.589595
0.589707
0.589681
0.589665
0.589662
0.587989
0.587937
0.587908
0.587901
0.584994
0.58489
0.584829
0.584812
0.582074
0.581894
0.581788
0.581756
0.578183
0.577893
0.577723
0.577671
0.574819
0.574387
0.574139
0.574068
0.570673
0.570086
0.56976
0.569686
0.567523
0.566808
0.566429
0.56637
0.560704
0.561131
0.560765
0.559909
0.5897
0.58929
0.589181
0.589372
0.589904
0.589889
0.589879
0.589875
0.588689
0.588661
0.588645
0.58864
0.586476
0.586416
0.586381
0.586369
0.584294
0.584191
0.584129
0.584109
0.581249
0.581082
0.580981
0.580945
0.578745
0.578494
0.578343
0.578292
0.575463
0.575121
0.574921
0.57486
0.573253
0.572831
0.572592
0.572532
0.567376
0.568088
0.56788
0.567044
0.589402
0.588991
0.588882
0.589074
0.589876
0.589865
0.589858
0.589855
0.588983
0.588968
0.588958
0.588955
0.587378
0.587343
0.587321
0.587313
0.585749
0.585689
0.585652
0.585639
0.583378
0.583279
0.583217
0.583194
0.581574
0.581423
0.58133
0.581295
0.578947
0.578744
0.578621
0.578578
0.577476
0.577222
0.577074
0.577029
0.57233
0.573183
0.573074
0.572287
0.589087
0.588674
0.588565
0.588759
0.589735
0.589727
0.589721
0.589718
0.589027
0.589018
0.589013
0.589011
0.587906
0.587884
0.58787
0.587863
0.58668
0.586644
0.586622
0.586613
0.584844
0.584783
0.584745
0.58473
0.58361
0.583517
0.583459
0.583436
0.581467
0.581344
0.581268
0.58124
0.580605
0.580449
0.580357
0.580327
0.576025
0.576932
0.576882
0.576149
0.588784
0.588368
0.58826
0.588455
0.589554
0.589547
0.589542
0.589539
0.588919
0.588915
0.588913
0.588912
0.588197
0.588183
0.588174
0.588169
0.587252
0.587231
0.587218
0.587212
0.585837
0.5858
0.585776
0.585766
0.585067
0.585009
0.584972
0.584958
0.58326
0.583185
0.583138
0.583119
0.582921
0.582824
0.582766
0.582749
0.578774
0.579679
0.579663
0.578988
0.588504
0.588085
0.587977
0.588175
0.589379
0.589373
0.589367
0.589364
0.588722
0.588721
0.58872
0.58872
0.588349
0.588339
0.588332
0.588328
0.587583
0.587571
0.587563
0.58756
0.586499
0.586475
0.58646
0.586453
0.5861
0.586063
0.58604
0.586031
0.584496
0.584451
0.584422
0.584409
0.584633
0.58457
0.584535
0.584527
0.580802
0.581667
0.581668
0.581054
0.58824
0.587819
0.587713
0.587915
0.589242
0.589235
0.589229
0.589225
0.588471
0.588472
0.588472
0.588472
0.588425
0.588417
0.588412
0.588409
0.58776
0.587753
0.587749
0.587747
0.586933
0.586918
0.586908
0.586904
0.586826
0.586802
0.586788
0.586783
0.585306
0.585278
0.58526
0.585252
0.585901
0.585859
0.585838
0.585836
0.582269
0.583066
0.583075
0.582527
0.587962
0.58754
0.587439
0.587645
0.589172
0.589163
0.589156
0.589152
0.588189
0.58819
0.588192
0.588193
0.588471
0.588465
0.588461
0.588459
0.587849
0.587845
0.587843
0.587842
0.587227
0.587217
0.58721
0.587208
0.587334
0.58732
0.587312
0.587309
0.585794
0.585777
0.585766
0.58576
0.586859
0.586829
0.586816
0.58682
0.583276
0.583981
0.583991
0.583517
0.587572
0.587154
0.587061
0.587271
0.589205
0.589193
0.589185
0.589181
0.587898
0.5879
0.587902
0.587903
0.588518
0.588514
0.588511
0.588511
0.587906
0.587904
0.587903
0.587902
0.587452
0.587445
0.58744
0.587439
0.5877
0.587693
0.58769
0.587689
0.58607
0.586059
0.586051
0.586047
0.587635
0.587612
0.587605
0.587613
0.583835
0.584427
0.584435
0.584041
0.586844
0.586442
0.586363
0.586575
0.589421
0.589406
0.589397
0.589393
0.587652
0.587653
0.587653
0.587654
0.588581
0.588579
0.588578
0.58858
0.587975
0.587972
0.587971
0.587971
0.587664
0.587657
0.587653
0.587653
0.587986
0.587985
0.587985
0.587985
0.586288
0.586276
0.586268
0.586266
0.588392
0.588374
0.58837
0.588382
0.583823
0.584279
0.584283
0.58398
0.585432
0.585078
0.585023
0.585218
0.589983
0.589966
0.589958
0.58996
0.587557
0.587552
0.587549
0.587547
0.588652
0.588653
0.588655
0.588658
0.588069
0.588066
0.588064
0.588064
0.587876
0.58787
0.587867
0.587867
0.588219
0.588224
0.588226
0.588226
0.586648
0.586627
0.586618
0.586619
0.589369
0.589357
0.589357
0.589372
0.583013
0.583302
0.5833
0.583106
0.583363
0.583142
0.583116
0.583241
0.591002
0.590996
0.591
0.591014
0.587676
0.587662
0.587652
0.587647
0.588694
0.588699
0.588703
0.588707
0.588158
0.588155
0.588153
0.588153
0.588041
0.588036
0.588033
0.588035
0.588364
0.588372
0.588375
0.588374
0.587197
0.587159
0.587148
0.587161
0.590691
0.590703
0.59071
0.590714
0.581534
0.581608
0.581603
0.58156
0.595243
0.603705
0.607707
0.61081
0.613934
0.61669
0.618928
0.620675
0.622042
0.623189
0.596161
0.599499
0.606919
0.611966
0.616429
0.619815
0.622278
0.624043
0.625288
0.626232
0.600009
0.596365
0.607346
0.613058
0.618338
0.621933
0.624499
0.62632
0.627574
0.628466
0.603406
0.592473
0.607085
0.612655
0.618513
0.62206
0.624615
0.626393
0.627609
0.628475
0.607874
0.59044
0.607811
0.61311
0.619414
0.622814
0.625341
0.627036
0.628165
0.62895
0.610936
0.587761
0.607531
0.612358
0.619116
0.622334
0.624876
0.626524
0.627659
0.628486
0.614912
0.586476
0.608335
0.612449
0.619614
0.622569
0.62513
0.626721
0.627831
0.628634
0.61646
0.583407
0.607326
0.610672
0.618347
0.621106
0.623829
0.625506
0.626816
0.627857
0.618106
0.58191
0.607761
0.609774
0.617592
0.619884
0.622837
0.624664
0.626177
0.62741
0.602554
0.566042
0.594538
0.596896
0.606587
0.610462
0.615116
0.618234
0.620801
0.622826
0.537821
0.55989
0.576236
0.587862
0.595826
0.601369
0.605375
0.608367
0.610675
0.612595
0.524096
0.554641
0.576725
0.590671
0.599522
0.605511
0.609753
0.612829
0.615072
0.616736
0.513824
0.5515
0.577818
0.592831
0.602282
0.608543
0.61293
0.616071
0.618307
0.619903
0.505427
0.548457
0.577979
0.593314
0.603169
0.609508
0.613905
0.61701
0.619201
0.620754
0.500956
0.547623
0.579227
0.594614
0.60476
0.611051
0.615392
0.618399
0.620489
0.621953
0.497745
0.546534
0.579623
0.594777
0.605165
0.611336
0.615621
0.618544
0.620595
0.622062
0.497332
0.546948
0.581112
0.595743
0.606296
0.612247
0.616457
0.619282
0.621273
0.622701
0.496524
0.545986
0.581054
0.594987
0.605734
0.611471
0.615708
0.618553
0.620668
0.622269
0.497002
0.546295
0.582221
0.594896
0.60544
0.610705
0.615039
0.618004
0.620287
0.622075
0.487913
0.536256
0.572932
0.585121
0.596686
0.602971
0.608497
0.612392
0.615438
0.61771
0.568929
0.575205
0.581283
0.586658
0.591242
0.595075
0.598248
0.600869
0.603062
0.604953
0.555678
0.567072
0.577257
0.585582
0.592249
0.597497
0.601591
0.604773
0.607235
0.609111
0.542587
0.55976
0.574127
0.585013
0.593321
0.59957
0.604276
0.607824
0.610478
0.612425
0.529426
0.552328
0.570678
0.583671
0.593252
0.600162
0.605221
0.608952
0.611702
0.613692
0.519493
0.547462
0.569242
0.583817
0.594317
0.601613
0.606842
0.61062
0.613368
0.615332
0.510638
0.542918
0.567639
0.58334
0.594515
0.602016
0.607325
0.611108
0.61386
0.615846
0.5046
0.540382
0.567556
0.583943
0.595574
0.60311
0.608424
0.612164
0.614888
0.616853
0.498899
0.537338
0.566577
0.583278
0.595227
0.602714
0.608058
0.611826
0.614643
0.616742
0.495183
0.535988
0.566963
0.583331
0.595166
0.60237
0.607773
0.61164
0.614589
0.616839
0.485089
0.527093
0.559274
0.575584
0.58812
0.596048
0.602268
0.606799
0.610281
0.612808
0.578734
0.581145
0.584051
0.586998
0.589776
0.592288
0.59451
0.596452
0.598166
0.599726
0.569945
0.574712
0.580127
0.585269
0.589805
0.593664
0.596885
0.59954
0.601696
0.6034
0.559421
0.567498
0.575907
0.583328
0.589548
0.594616
0.598689
0.601928
0.604463
0.606394
0.547102
0.559202
0.570943
0.580624
0.588378
0.594441
0.599162
0.602819
0.605629
0.607732
0.536403
0.552793
0.567818
0.579505
0.588538
0.595349
0.600511
0.604419
0.607376
0.609554
0.525779
0.546476
0.564622
0.578015
0.588095
0.595451
0.600916
0.604987
0.608049
0.610309
0.517239
0.54206
0.563056
0.577798
0.58868
0.596382
0.602027
0.606175
0.609283
0.611568
0.508857
0.537435
0.560972
0.5767
0.588178
0.59608
0.601862
0.606103
0.609318
0.611723
0.502335
0.534543
0.560279
0.57641
0.588089
0.595972
0.601868
0.606217
0.60954
0.612065
0.491434
0.526238
0.553424
0.569943
0.582261
0.590709
0.59718
0.602001
0.605694
0.608345
0.585221
0.585985
0.58715
0.588515
0.58995
0.591367
0.592713
0.593966
0.595146
0.596299
0.579872
0.581729
0.584248
0.586971
0.589642
0.592124
0.594351
0.596297
0.597953
0.599311
0.572331
0.575733
0.580041
0.584429
0.588519
0.592145
0.595259
0.597872
0.600012
0.601707
0.562513
0.568123
0.574689
0.580946
0.586497
0.591211
0.595121
0.598309
0.600863
0.602847
0.553388
0.561673
0.570731
0.578864
0.585778
0.591429
0.595975
0.599588
0.602433
0.604602
0.543586
0.554874
0.56653
0.576447
0.584586
0.591017
0.596066
0.600005
0.603075
0.605408
0.535131
0.549605
0.563833
0.575344
0.584521
0.591552
0.596969
0.601127
0.604343
0.606764
0.526432
0.544116
0.560791
0.573637
0.583648
0.591118
0.596816