/*--------------------------------*- C++ -*----------------------------------*\
| =========                 |                                                 |
| \\      /  F ield         | foam-extend: Open Source CFD                    |
|  \\    /   O peration     | Version:     4.0                                |
|   \\  /    A nd           | Web:         http://www.foam-extend.org         |
|    \\/     M anipulation  |                                                 |
\*---------------------------------------------------------------------------*/
FoamFile
{
    version     2.0;
    format      ascii;
    class       surfaceScalarField;
    location    "1600";
    object      phi;
}
// * * * * * * * * * * * * * * * * * * * * * * * * * * * * * * * * * * * * * //

dimensions      [1 0 -1 0 0 0 0];

internalField   nonuniform List<scalar> 
97302
(
-0.000109786
9.48697e-07
-0.00086945
0.000878727
-0.000119599
1.13811e-06
-0.000870453
0.000879128
-0.00012952
1.19743e-06
-0.000870979
0.000879703
-0.00014012
1.13573e-06
-0.000871018
0.000880482
-0.000152226
9.43962e-07
-0.000870566
0.000881728
-0.000167318
6.11954e-07
-0.000869399
0.000883879
-0.000188487
1.13176e-07
-0.000866912
0.000887968
-0.000222736
-5.96755e-07
-0.000861286
0.000896132
-0.00027131
-1.6402e-06
-0.000851497
0.000901711
-4.39668e-06
-0.000823993
-0.000352973
0.000910053
-0.0001509
1.59782e-06
-0.00116587
0.00117596
-0.000161169
1.96032e-06
-0.00116683
0.00117627
-0.000171512
2.07934e-06
-0.00116742
0.00117688
-0.000182464
1.98788e-06
-0.00116744
0.00117754
-0.000194823
1.67094e-06
-0.00116665
0.00117828
-0.000210303
1.11719e-06
-0.00116464
0.00117962
-0.000232753
2.68924e-07
-0.00116105
0.00118334
-0.000271553
-9.69142e-07
-0.00115426
0.00119343
-0.00032833
-2.89999e-06
-0.00114195
0.00119999
-7.46275e-06
-0.00110406
-0.000432741
0.00121154
-0.000191206
1.89174e-06
-0.0014612
0.00147204
-0.000201772
2.38828e-06
-0.00146221
0.00147235
-0.000212288
2.57034e-06
-0.00146284
0.00147286
-0.000223262
2.49434e-06
-0.00146264
0.0014731
-0.000235621
2.14218e-06
-0.00146129
0.00147318
-0.000251498
1.50324e-06
-0.00145863
0.00147412
-0.000275375
4.98239e-07
-0.00145476
0.0014784
-0.000318346
-9.71429e-07
-0.00144819
0.00149116
-0.000381678
-3.35766e-06
-0.00143503
0.00149882
-9.13984e-06
-0.00138632
-0.000500673
0.00150699
-0.00023144
2.08229e-06
-0.00175256
0.00176382
-0.000242299
2.71863e-06
-0.0017538
0.00176433
-0.00025311
2.97933e-06
-0.00175468
0.00176508
-0.000264398
2.94399e-06
-0.00175468
0.00176552
-0.000277156
2.58396e-06
-0.00175351
0.00176582
-0.000293704
1.89045e-06
-0.00175109
0.00176725
-0.000318857
7.61178e-07
-0.00174753
0.00177242
-0.000364963
-8.95666e-07
-0.00174131
0.00178734
-0.000432985
-3.684e-06
-0.0017277
0.00179605
-1.06343e-05
-0.00166786
-0.000560748
0.00179712
-0.000271579
2.31606e-06
-0.00204508
0.00205653
-0.000282609
3.02169e-06
-0.00204669
0.00205742
-0.000293589
3.31996e-06
-0.00204808
0.00205872
-0.000305072
3.3007e-06
-0.00204855
0.00205968
-0.000318118
2.93306e-06
-0.00204791
0.00206061
-0.000335168
2.20797e-06
-0.00204611
0.00206284
-0.000361326
1.00889e-06
-0.0020432
0.00206911
-0.00040997
-7.48343e-07
-0.00203767
0.00208617
-0.000481935
-3.81781e-06
-0.00202442
0.00209652
-1.1868e-05
-0.00195278
-0.000615178
0.00208726
-0.000312291
2.4025e-06
-0.00233621
0.00234796
-0.000323425
3.1336e-06
-0.00233827
0.00234929
-0.000334474
3.41949e-06
-0.00234005
0.002351
-0.000346015
3.37244e-06
-0.00234094
0.00235241
-0.000359159
2.97053e-06
-0.00234082
0.00235392
-0.000376436
2.21363e-06
-0.00233977
0.00235704
-0.00040322
9.83877e-07
-0.00233778
0.00236459
-0.000453758
-7.85263e-07
-0.00233336
0.00238394
-0.00052903
-3.91365e-06
-0.00232162
0.00239699
-1.28357e-05
-0.00223788
-0.000665799
0.00237562
-0.000352827
2.38183e-06
-0.00262717
0.00263904
-0.000363904
3.02069e-06
-0.00262982
0.00264101
-0.000374876
3.23567e-06
-0.00263216
0.00264332
-0.000386326
3.10272e-06
-0.00263351
0.00264523
-0.000399418
2.62684e-06
-0.00263397
0.0026474
-0.000416714
1.80083e-06
-0.00263373
0.00265144
-0.000443835
5.60886e-07
-0.00263288
0.00266043
-0.000495713
-1.10893e-06
-0.00263007
0.00268227
-0.000573771
-3.86005e-06
-0.00262099
0.00269899
-1.29893e-05
-0.00252492
-0.00071255
0.00266385
-0.000394633
2.02246e-06
-0.00291869
0.002931
-0.000405763
2.47224e-06
-0.00292194
0.00293362
-0.000416733
2.50092e-06
-0.00292439
0.00293609
-0.000428133
2.16224e-06
-0.00292568
0.00293802
-0.00044109
1.49246e-06
-0.00292603
0.00294012
-0.000458108
4.89897e-07
-0.00292596
0.00294429
-0.000484955
-8.17158e-07
-0.00292581
0.00295404
-0.000537024
-2.35817e-06
-0.00292444
0.00297776
-0.000616549
-4.14638e-06
-0.00291872
0.00299853
-1.21385e-05
-0.00281216
-0.00075573
0.00295049
-0.000435835
1.06701e-06
-0.00320655
0.00321898
-0.000446539
1.13479e-06
-0.00321065
0.00322269
-0.000457116
8.43878e-07
-0.00321372
0.00322595
-0.000468213
1.10358e-07
-0.00321562
0.00322877
-0.000480998
-9.48879e-07
-0.00321676
0.00323199
-0.000497859
-2.30843e-06
-0.0032177
0.00323736
-0.000524558
-3.78263e-06
-0.00321897
0.00324864
-0.000576353
-5.09644e-06
-0.00321991
0.00327444
-0.000655809
-5.5028e-06
-0.00321658
0.00329739
-1.01924e-05
-0.00309925
-0.000792478
0.00323398
-0.000477252
-0.0034751
0.00348812
-0.000488596
-0.00347871
0.00349119
-0.000499782
-0.00347941
0.00349144
-0.000511491
-0.00347685
0.00348867
-0.000524762
-0.0034717
0.00348402
-0.000541725
-0.00346501
0.00347967
-0.000567613
-0.00345797
0.00348007
-0.00061662
-0.00345207
0.00349598
-0.000689712
-0.0034485
0.00351609
-0.00333956
-0.000818728
0.00345839
1.43947e-05
8.86058e-07
-0.000860992
5.31291e-06
1.11073e-06
-0.000862482
-3.78982e-06
1.19163e-06
-0.000863068
-1.30972e-05
1.13419e-06
-0.000862845
-2.28085e-05
9.28483e-07
-0.000861783
-3.31421e-05
5.56142e-07
-0.000859622
-4.42451e-05
-1.70252e-08
-0.000855792
-5.55366e-05
-8.69892e-07
-0.000849125
-6.62316e-05
-2.1984e-06
-0.000838604
-3.9692e-06
-0.000822347
-6.39088e-05
1.5409e-05
1.50854e-06
-0.00115602
5.39322e-06
1.92492e-06
-0.00115762
-4.61247e-06
2.07908e-06
-0.0011583
-1.49254e-05
2.00035e-06
-0.001158
-2.5811e-05
1.66686e-06
-0.0011565
-3.76318e-05
1.05627e-06
-0.00115332
-5.12244e-05
1.06689e-07
-0.00114758
-6.76323e-05
-1.29824e-06
-0.00113742
-8.82536e-05
-3.54571e-06
-0.00111999
-6.61193e-06
-0.00109103
-9.86369e-05
1.67411e-05
1.8198e-06
-0.00145015
6.01396e-06
2.38409e-06
-0.00145194
-4.62107e-06
2.60818e-06
-0.00145273
-1.54961e-05
2.54642e-06
-0.00145231
-2.69491e-05
2.16578e-06
-0.00145034
-3.97142e-05
1.44252e-06
-0.00144625
-5.55369e-05
2.84535e-07
-0.00143911
-7.71459e-05
-1.43036e-06
-0.00142645
-0.000108628
-4.28723e-06
-0.00140281
-8.4003e-06
-0.00135928
-0.000133881
1.79599e-05
2.029e-06
-0.00174082
6.74868e-06
2.75077e-06
-0.00174295
-4.37198e-06
3.06227e-06
-0.00174401
-1.57978e-05
3.04655e-06
-0.00174376
-2.79848e-05
2.65632e-06
-0.00174181
-4.19252e-05
1.86996e-06
-0.00173757
-5.99293e-05
5.54659e-07
-0.0017298
-8.61199e-05
-1.40346e-06
-0.00171515
-0.000128048
-4.79797e-06
-0.00168526
-9.91037e-06
-0.0016254
-0.000169004
1.90768e-05
2.2763e-06
-0.00203294
7.57817e-06
3.0768e-06
-0.00203552
-3.82361e-06
3.43199e-06
-0.00203705
-1.55853e-05
3.43839e-06
-0.00203718
-2.8301e-05
3.04472e-06
-0.00203558
-4.31488e-05
2.22882e-06
-0.00203162
-6.29048e-05
8.18826e-07
-0.00202371
-9.2988e-05
-1.28949e-06
-0.0020077
-0.000144891
-5.07857e-06
-0.00197224
-1.10676e-05
-0.00189511
-0.000201407
1.97823e-05
2.3954e-06
-0.00232365
8.10523e-06
3.23051e-06
-0.00232675
-3.42789e-06
3.58104e-06
-0.00232867
-1.53326e-05
3.56998e-06
-0.00232917
-2.8323e-05
3.1531e-06
-0.00232793
-4.37409e-05
2.31822e-06
-0.00232444
-6.47912e-05
8.73571e-07
-0.00231679
-9.80619e-05
-1.27508e-06
-0.0023001
-0.000159359
-5.20949e-06
-0.00226019
-1.18847e-05
-0.0021656
-0.000230825
2.01952e-05
2.36652e-06
-0.00261434
8.53999e-06
3.10786e-06
-0.00261805
-2.94328e-06
3.39276e-06
-0.00262049
-1.47868e-05
3.30852e-06
-0.00262141
-2.78349e-05
2.85034e-06
-0.00262062
-4.354e-05
1.98896e-06
-0.0026177
-6.54858e-05
5.48824e-07
-0.00261061
-0.0001013
-1.56416e-06
-0.00259396
-0.000171281
-5.24468e-06
-0.00255097
-1.22477e-05
-0.002439
-0.000256837
1.99373e-05
2.03131e-06
-0.00290544
8.2796e-06
2.58727e-06
-0.00290976
-3.09742e-06
2.71619e-06
-0.00291233
-1.47739e-05
2.47888e-06
-0.00291318
-2.76492e-05
1.90637e-06
-0.00291221
-4.325e-05
9.65824e-07
-0.00290934
-6.54603e-05
-4.35034e-07
-0.00290262
-0.000102742
-2.40551e-06
-0.00288632
-0.000180127
-5.21767e-06
-0.00284137
-1.18961e-05
-0.00271318
-0.000279462
1.94094e-05
1.0725e-06
-0.00319302
8.22065e-06
1.21781e-06
-0.0031981
-2.65256e-06
1.05785e-06
-0.00320119
-1.38211e-05
4.73357e-07
-0.00320245
-2.6339e-05
-4.046e-07
-0.00320193
-4.18433e-05
-1.58523e-06
-0.00319965
-6.44229e-05
-3.01008e-06
-0.00319382
-0.000103031
-4.67366e-06
-0.00317903
-0.000186377
-6.1463e-06
-0.0031323
-1.00723e-05
-0.00298555
-0.000301908
1.82546e-05
-0.0034613
6.8139e-06
-0.00346605
-4.1088e-06
-0.00346743
-1.52021e-05
-0.00346528
-2.74071e-05
-0.0034599
-4.23293e-05
-0.00345168
-6.3891e-05
-0.00343942
-0.000101279
-0.00341935
-0.000186025
-0.0033699
-0.0032156
-0.000320057
1.20257e-05
7.74848e-07
-0.000854319
4.42397e-06
1.01492e-06
-0.000855896
-3.29307e-06
1.10309e-06
-0.000856454
-1.10354e-05
1.03883e-06
-0.000856141
-1.86799e-05
8.15581e-07
-0.000854954
-2.59815e-05
4.17527e-07
-0.000852738
-3.23885e-05
-1.7738e-07
-0.000849208
-3.65968e-05
-1.00713e-06
-0.00084391
-3.67256e-05
-2.15552e-06
-0.000836319
-3.43358e-06
-0.00082667
-2.8969e-05
1.38784e-05
1.35706e-06
-0.00114751
4.85484e-06
1.79735e-06
-0.00114938
-4.23003e-06
1.96083e-06
-0.00115007
-1.34671e-05
1.87062e-06
-0.00114959
-2.28627e-05
1.50523e-06
-0.0011478
-3.22659e-05
8.40058e-07
-0.00114434
-4.12762e-05
-1.78445e-07
-0.00113857
-4.87415e-05
-1.62296e-06
-0.00112934
-5.21971e-05
-3.70872e-06
-0.00111498
-6.13101e-06
-0.00109578
-4.47536e-05
1.59853e-05
1.70365e-06
-0.00143999
5.78615e-06
2.29902e-06
-0.00144225
-4.40802e-06
2.53315e-06
-0.00144311
-1.47926e-05
2.45342e-06
-0.00144251
-2.54633e-05
2.02194e-06
-0.00144018
-3.64832e-05
1.20341e-06
-0.0014356
-4.79666e-05
-9.71866e-08
-0.00142771
-5.9445e-05
-1.97791e-06
-0.00141461
-6.85083e-05
-4.84893e-06
-0.0013926
-8.3696e-06
-0.0013606
-6.49483e-05
1.76372e-05
1.96343e-06
-0.00172963
6.64855e-06
2.7274e-06
-0.00173239
-4.33191e-06
3.05108e-06
-0.00173355
-1.56152e-05
3.01284e-06
-0.00173303
-2.74475e-05
2.55873e-06
-0.00173052
-4.01586e-05
1.65101e-06
-0.00172531
-5.43097e-05
1.41499e-07
-0.00171588
-7.0093e-05
-2.09074e-06
-0.00169925
-8.58e-05
-5.70864e-06
-0.0016687
-1.03386e-05
-0.00162099
-8.82417e-05
1.90442e-05
2.25593e-06
-0.00202107
7.54588e-06
3.10545e-06
-0.0020244
-3.92338e-06
3.47688e-06
-0.002026
-1.57827e-05
3.462e-06
-0.00202577
-2.84574e-05
3.00208e-06
-0.00202335
-4.25303e-05
2.05518e-06
-0.00201795
-5.90146e-05
4.17962e-07
-0.0020075
-7.89003e-05
-2.05877e-06
-0.00198785
-0.000101939
-6.30342e-06
-0.00194861
-1.19732e-05
-0.00188328
-0.000112134
1.99834e-05
2.42397e-06
-0.00231117
8.14737e-06
3.31254e-06
-0.00231512
-3.60551e-06
3.68395e-06
-0.00231712
-1.57884e-05
3.65907e-06
-0.00231718
-2.89845e-05
3.18167e-06
-0.00231492
-4.40268e-05
2.21842e-06
-0.00230956
-6.24152e-05
5.35846e-07
-0.00229852
-8.60451e-05
-2.03868e-06
-0.00227649
-0.000116878
-6.63848e-06
-0.00222903
-1.31817e-05
-0.00214501
-0.000136254
2.05362e-05
2.41842e-06
-0.00260142
8.61873e-06
3.21315e-06
-0.00260603
-3.17689e-06
3.52486e-06
-0.00260853
-1.54097e-05
3.44015e-06
-0.00260896
-2.88294e-05
2.94597e-06
-0.00260696
-4.44791e-05
1.99627e-06
-0.00260183
-6.43437e-05
3.55348e-07
-0.00259057
-9.12551e-05
-2.19994e-06
-0.00256689
-0.000129987
-6.76463e-06
-0.00251211
-1.39486e-05
-0.00240891
-0.00015931
2.03606e-05
2.09446e-06
-0.00289204
8.41203e-06
2.69998e-06
-0.0028973
-3.3003e-06
2.87241e-06
-0.00289997
-1.53984e-05
2.67556e-06
-0.00290031
-2.8727e-05
2.12544e-06
-0.00289806
-4.45185e-05
1.17551e-06
-0.00289273
-6.5227e-05
-3.26132e-07
-0.00288123
-9.45802e-05
-2.64522e-06
-0.00285652
-0.000140698
-6.39927e-06
-0.00279561
-1.37357e-05
-0.00267347
-0.000180622
1.97498e-05
1.14943e-06
-0.00317931
8.25311e-06
1.32724e-06
-0.00318523
-2.9597e-06
1.24717e-06
-0.00318835
-1.45153e-05
7.72036e-07
-0.00318899
-2.74161e-05
2.54601e-08
-0.00318693
-4.31375e-05
-1.01343e-06
-0.00318173
-6.46392e-05
-2.33606e-06
-0.00317031
-9.64365e-05
-4.08885e-06
-0.00314579
-0.000148911
-6.36859e-06
-0.00307986
-1.15106e-05
-0.00293605
-0.000200628
1.85882e-05
-0.00344743
7.00908e-06
-0.00345314
-4.09579e-06
-0.00345508
-1.54366e-05
-0.00345317
-2.79062e-05
-0.0034474
-4.29903e-05
-0.0034376
-6.36893e-05
-0.00342105
-9.54076e-05
-0.00339172
-0.000150696
-0.00332098
-0.00316241
-0.000215404
9.33393e-06
6.06146e-07
-0.000849486
3.46442e-06
8.49704e-07
-0.000850876
-2.58638e-06
9.41964e-07
-0.000851345
-8.5451e-06
8.76055e-07
-0.000851059
-1.4105e-05
6.50595e-07
-0.000850045
-1.88435e-05
2.56675e-07
-0.000848256
-2.21183e-05
-3.12672e-07
-0.00084562
-2.28911e-05
-1.05969e-06
-0.000842077
-1.95789e-05
-1.9809e-06
-0.000837651
-2.86442e-06
-0.000832801
-1.05827e-05
1.17255e-05
1.11144e-06
-0.00114068
4.10907e-06
1.56196e-06
-0.00114248
-3.63625e-06
1.73061e-06
-0.00114312
-1.13729e-05
1.63289e-06
-0.00114261
-1.88848e-05
1.25163e-06
-0.00114088
-2.57829e-05
5.68799e-07
-0.00113775
-3.13082e-05
-4.47186e-07
-0.00113291
-3.39428e-05
-1.81862e-06
-0.00112595
-3.08481e-05
-3.60569e-06
-0.00111645
-5.42071e-06
-0.00110592
-1.81535e-05
1.44368e-05
1.48302e-06
-0.00143123
5.26247e-06
2.09483e-06
-0.0014336
-3.97896e-06
2.3318e-06
-0.00143447
-1.32881e-05
2.23149e-06
-0.00143379
-2.25587e-05
1.7577e-06
-0.00143142
-3.14962e-05
8.75684e-07
-0.00142696
-3.94229e-05
-4.92105e-07
-0.00141974
-4.47295e-05
-2.39868e-06
-0.00140873
-4.349e-05
-5.03837e-06
-0.00139241
-7.89604e-06
-0.0013729
-2.87126e-05
1.65257e-05
1.79536e-06
-0.00171953
6.23255e-06
2.58841e-06
-0.00172259
-4.12427e-06
2.9159e-06
-0.00172378
-1.46823e-05
2.84716e-06
-0.00172309
-2.54866e-05
2.32872e-06
-0.00172028
-3.64489e-05
1.31855e-06
-0.00171479
-4.71017e-05
-3.19513e-07
-0.0017054
-5.58613e-05
-2.67814e-06
-0.00169021
-5.78763e-05
-6.17994e-06
-0.00166554
-1.01762e-05
-0.00163369
-4.28933e-05
1.82782e-05
2.13884e-06
-0.00200999
7.19872e-06
3.02679e-06
-0.00201376
-3.91318e-06
3.4059e-06
-0.00201538
-1.53341e-05
3.35772e-06
-0.00201486
-2.73012e-05
2.82192e-06
-0.00201188
-3.99763e-05
1.74724e-06
-0.00200571
-5.31969e-05
-6.71997e-08
-0.00199453
-6.55969e-05
-2.76761e-06
-0.00197536
-7.19308e-05
-7.0556e-06
-0.0019414
-1.21946e-05
-0.00189454
-5.86433e-05
1.95121e-05
2.36702e-06
-0.00229925
7.88165e-06
3.30013e-06
-0.00230376
-3.7234e-06
3.68407e-06
-0.00230579
-1.57056e-05
3.63194e-06
-0.00230547
-2.84791e-05
3.08104e-06
-0.0023024
-4.24813e-05
1.98373e-06
-0.00229579
-5.79526e-05
9.5548e-08
-0.00228321
-7.39564e-05
-2.78196e-06
-0.00226048
-8.5534e-05
-7.60676e-06
-0.0022169
-1.37678e-05
-0.00215315
-7.58233e-05
2.02695e-05
2.40546e-06
-0.00258886
8.40276e-06
3.24626e-06
-0.00259411
-3.39223e-06
3.57588e-06
-0.00259663
-1.55964e-05
3.47508e-06
-0.0025966
-2.88115e-05
2.92159e-06
-0.00259359
-4.37354e-05
1.85772e-06
-0.00258678
-6.10696e-05
2.35765e-08
-0.00257316
-8.04484e-05
-2.8646e-06
-0.00254743
-9.7881e-05
-7.85353e-06
-0.00249444
-1.48962e-05
-0.0024125
-9.31612e-05
2.02503e-05
2.10974e-06
-0.00287889
8.28013e-06
2.758e-06
-0.00288484
-3.50628e-06
2.96065e-06
-0.00288757
-1.56749e-05
2.78305e-06
-0.00288745
-2.89407e-05
2.22326e-06
-0.0028841
-4.42505e-05
1.22676e-06
-0.00287678
-6.28331e-05
-3.9993e-07
-0.00286222
-8.50385e-05
-3.01821e-06
-0.00283416
-0.000108522
-7.32787e-06
-0.00277266
-1.4829e-05
-0.00267193
-0.000110128
1.97048e-05
1.19857e-06
-0.00316573
8.12853e-06
1.40419e-06
-0.0031723
-3.21966e-06
1.38907e-06
-0.00317543
-1.49063e-05
9.98957e-07
-0.00317552
-2.77849e-05
3.45784e-07
-0.00317218
-4.30361e-05
-6.07253e-07
-0.00316465
-6.25109e-05
-1.89418e-06
-0.00314934
-8.76704e-05
-3.75024e-06
-0.0031199
-0.000117068
-6.4934e-06
-0.0030513
-1.22142e-05
-0.00292905
-0.00012669
1.86179e-05
-0.00343376
7.08075e-06
-0.0034402
-4.04853e-06
-0.00344256
-1.54403e-05
-0.00344078
-2.78648e-05
-0.00343463
-4.25425e-05
-0.00342353
-6.14257e-05
-0.00340407
-8.70681e-05
-0.00336983
-0.0001197
-0.00329484
-0.00315487
-0.000139453
6.84977e-06
4.21374e-07
-0.000846138
2.57575e-06
6.51985e-07
-0.000847254
-1.89753e-06
7.42805e-07
-0.000847615
-6.23965e-06
6.80606e-07
-0.000847397
-1.0106e-05
4.68933e-07
-0.000846647
-1.30916e-05
1.06868e-07
-0.000845377
-1.47029e-05
-3.97195e-07
-0.000843612
-1.43358e-05
-1.02201e-06
-0.000841422
-1.13199e-05
-1.72192e-06
-0.000838945
-2.33016e-06
-0.000836426
-5.36495e-06
9.38791e-06
8.17663e-07
-0.00113547
3.29908e-06
1.25746e-06
-0.001137
-2.96608e-06
1.4245e-06
-0.00113753
-9.12761e-06
1.32571e-06
-0.00113709
-1.48431e-05
9.49715e-07
-0.00113565
-1.9643e-05
2.89795e-07
-0.00113314
-2.28119e-05
-6.5917e-07
-0.00112948
-2.32463e-05
-1.87543e-06
-0.00112466
-1.92832e-05
-3.316e-06
-0.00111882
-4.63462e-06
-0.00111313
-9.76731e-06
1.24585e-05
1.18397e-06
-0.00142405
4.59547e-06
1.79239e-06
-0.00142628
-3.40093e-06
2.02587e-06
-0.00142707
-1.13479e-05
1.90995e-06
-0.00142643
-1.89704e-05
1.41375e-06
-0.00142426
-2.57965e-05
5.12671e-07
-0.00142036
-3.09499e-05
-8.39677e-07
-0.0014144
-3.28521e-05
-2.64574e-06
-0.00140605
-2.86156e-05
-4.9258e-06
-0.00139504
-7.14227e-06
-0.00138362
-1.53913e-05
1.48948e-05
1.53067e-06
-0.00171084
5.64486e-06
2.33668e-06
-0.00171389
-3.74455e-06
2.66247e-06
-0.00171502
-1.32073e-05
2.56536e-06
-0.00171428
-2.25794e-05
1.99681e-06
-0.00171149
-3.14955e-05
9.21296e-07
-0.00170628
-3.90631e-05
-7.63877e-07
-0.00169791
-4.33503e-05
-3.10107e-06
-0.00168547
-4.00359e-05
-6.27061e-06
-0.00166751
-9.53868e-06
-0.00164748
-2.38509e-05
1.69785e-05
1.9171e-06
-0.00200007
6.67356e-06
2.83136e-06
-0.00200395
-3.73685e-06
3.21328e-06
-0.00200552
-1.43301e-05
3.13049e-06
-0.00200483
-2.51127e-05
2.52533e-06
-0.00200162
-3.59074e-05
1.34706e-06
-0.00199534
-4.59365e-05
-5.75233e-07
-0.00198469
-5.30684e-05
-3.34474e-06
-0.00196798
-5.16657e-05
-7.37616e-06
-0.00194169
-1.17715e-05
-0.00191033
-3.36509e-05
1.85231e-05
2.20569e-06
-0.00228827
7.43781e-06
3.17532e-06
-0.00229302
-3.69505e-06
3.56766e-06
-0.00229501
-1.50969e-05
3.48441e-06
-0.00229442
-2.69451e-05
2.86041e-06
-0.00229089
-3.93066e-05
1.64169e-06
-0.00228373
-5.16553e-05
-3.97373e-07
-0.00227104
-6.18731e-05
-3.42984e-06
-0.00225017
-6.33763e-05
-8.12081e-06
-0.00221465
-1.35883e-05
-0.00216969
-4.50247e-05
1.95176e-05
2.30124e-06
-0.00257704
8.01458e-06
3.18433e-06
-0.00258261
-3.48481e-06
3.52903e-06
-0.00258509
-1.53071e-05
3.40773e-06
-0.0025847
-2.78233e-05
2.79034e-06
-0.002581
-4.13585e-05
1.61043e-06
-0.00257321
-5.57401e-05
-3.87098e-07
-0.00255879
-6.90397e-05
-3.477e-06
-0.00253408
-7.42279e-05
-8.48469e-06
-0.00248888
-1.49509e-05
-0.00242849
-5.6879e-05
1.97012e-05
2.04479e-06
-0.00286633
7.98963e-06
2.73655e-06
-0.00287268
-3.61041e-06
2.96514e-06
-0.0028754
-1.55377e-05
2.79839e-06
-0.00287492
-2.82893e-05
2.21764e-06
-0.00287077
-4.24446e-05
1.15977e-06
-0.00286218
-5.83048e-05
-5.87256e-07
-0.00284616
-7.43952e-05
-3.40586e-06
-0.00281814
-8.38857e-05
-7.90817e-06
-0.00276374
-1.50065e-05
-0.00268668
-6.90756e-05
1.92807e-05
1.19884e-06
-0.00315264
7.87609e-06
1.43303e-06
-0.00315959
-3.37787e-06
1.47481e-06
-0.00316268
-1.49287e-05
1.15378e-06
-0.00316233
-2.74212e-05
5.70857e-07
-0.00315804
-4.16415e-05
-3.26613e-07
-0.00314894
-5.83889e-05
-1.6055e-06
-0.00313157
-7.72932e-05
-3.53649e-06
-0.00310086
-9.1578e-05
-6.47326e-06
-0.00303845
-1.2077e-05
-0.00294204
-8.15197e-05
1.83027e-05
-0.00342059
7.01126e-06
-0.00342748
-3.95741e-06
-0.00343012
-1.51804e-05
-0.0034284
-2.72522e-05
-0.00342199
-4.10443e-05
-0.00341007
-5.75033e-05
-0.00338921
-7.70967e-05
-0.00335377
-9.41714e-05
-0.00328424
-0.00317022
-9.08951e-05
4.81726e-06
2.48674e-07
-0.000843877
1.84364e-06
4.5338e-07
-0.000844734
-1.3135e-06
5.3785e-07
-0.000844995
-4.34514e-06
4.83427e-07
-0.000844849
-6.94464e-06
2.97532e-07
-0.000844345
-8.78936e-06
-1.485e-08
-0.000843517
-9.55012e-06
-4.35449e-07
-0.000842416
-8.91235e-06
-9.32332e-07
-0.000841128
-6.64668e-06
-1.44913e-06
-0.000839761
-1.86754e-06
-0.000838358
-2.84714e-06
7.17015e-06
5.17139e-07
-0.00113164
2.52082e-06
9.25507e-07
-0.00113282
-2.32056e-06
1.08384e-06
-0.00113324
-7.02257e-06
9.90878e-07
-0.0011329
-1.12126e-05
6.40814e-07
-0.0011318
-1.44493e-05
3.81289e-08
-0.00112995
-1.61734e-05
-8.00679e-07
-0.00112739
-1.57043e-05
-1.82737e-06
-0.00112423
-1.22608e-05
-2.95361e-06
-0.00112076
-3.90959e-06
-0.00111769
-5.65508e-06
1.03368e-05
8.45461e-07
-0.00141842
3.87251e-06
1.42689e-06
-0.00142031
-2.7703e-06
1.64954e-06
-0.001421
-9.28652e-06
1.52639e-06
-0.00142045
-1.53025e-05
1.03343e-06
-0.00141864
-2.02981e-05
1.60502e-07
-0.00141549
-2.34761e-05
-1.10456e-06
-0.00141092
-2.36617e-05
-2.72233e-06
-0.00140497
-1.91495e-05
-4.61367e-06
-0.00139789
-6.31403e-06
-0.00139127
-9.09603e-06
1.29572e-05
1.19781e-06
-0.00170368
4.95354e-06
1.99452e-06
-0.00170645
-3.2551e-06
2.31194e-06
-0.00170748
-1.1429e-05
2.19393e-06
-0.00170678
-1.9241e-05
1.60017e-06
-0.00170425
-2.61765e-05
5.09028e-07
-0.0016997
-3.12764e-05
-1.13802e-06
-0.00169278
-3.28873e-05
-3.33019e-06
-0.00168325
-2.80277e-05
-6.07399e-06
-0.00167091
-8.68589e-06
-0.00165858
-1.45525e-05
1.52883e-05
1.60852e-06
-0.00199152
6.02181e-06
2.52978e-06
-0.00199522
-3.42245e-06
2.90837e-06
-0.00199667
-1.2925e-05
2.79588e-06
-0.00199593
-2.22817e-05
2.14144e-06
-0.00199281
-3.10749e-05
9.03934e-07
-0.00198694
-3.82908e-05
-1.03995e-06
-0.00197757
-4.18776e-05
-3.7335e-06
-0.00196399
-3.74031e-05
-7.34458e-06
-0.0019449
-1.09854e-05
-0.00192455
-2.08833e-05
1.71069e-05
1.94747e-06
-0.00227851
6.8549e-06
2.93877e-06
-0.00228318
-3.52327e-06
3.3342e-06
-0.00228506
-1.40482e-05
3.22154e-06
-0.00228432
-2.46581e-05
2.53803e-06
-0.00228068
-3.51071e-05
1.23281e-06
-0.00227361
-4.44645e-05
-8.77374e-07
-0.00226184
-5.04442e-05
-3.91011e-06
-0.00224402
-4.7221e-05
-8.23674e-06
-0.00221698
-1.2908e-05
-0.00218645
-2.85313e-05
1.83324e-05
2.10527e-06
-0.00256627
7.48362e-06
3.02129e-06
-0.00257185
-3.4405e-06
3.37738e-06
-0.00257421
-1.45769e-05
3.23581e-06
-0.00257357
-2.60448e-05
2.56277e-06
-0.00256956
-3.78121e-05
1.29068e-06
-0.0025615
-4.91475e-05
-8.0601e-07
-0.00254753
-5.7691e-05
-3.94886e-06
-0.0025255
-5.64555e-05
-8.68736e-06
-0.00248967
-1.43504e-05
-0.002447
-3.6504e-05
1.87384e-05
1.89405e-06
-0.00285469
7.55972e-06
2.62611e-06
-0.00286111
-3.59212e-06
2.87604e-06
-0.00286375
-1.49878e-05
2.71491e-06
-0.002863
-2.68765e-05
2.11094e-06
-0.00285843
-3.94529e-05
9.9936e-07
-0.00284931
-5.23262e-05
-8.24937e-07
-0.00283327
-6.33453e-05
-3.70766e-06
-0.00280737
-6.48756e-05
-8.09597e-06
-0.0027628
-1.44347e-05
-0.00270647
-4.5e-05
1.84752e-05
1.14344e-06
-0.00314035
7.4983e-06
1.40461e-06
-0.00314739
-3.41879e-06
1.49476e-06
-0.00315039
-1.45629e-05
1.22822e-06
-0.00314969
-2.63451e-05
6.96721e-07
-0.00314484
-3.91516e-05
-1.6359e-07
-0.00313497
-5.29359e-05
-1.43701e-06
-0.00311717
-6.63091e-05
-3.37707e-06
-0.00308782
-7.12781e-05
-6.28717e-06
-0.00303529
-1.12873e-05
-0.00296282
-5.36429e-05
1.76345e-05
-0.0034082
6.80032e-06
-0.00341524
-3.80702e-06
-0.00341801
-1.46311e-05
-0.00341635
-2.60615e-05
-0.00340986
-3.86009e-05
-0.00339769
-5.23904e-05
-0.00337686
-6.65732e-05
-0.00334297
-7.37153e-05
-0.00328338
-0.00319561
-5.96126e-05
3.29195e-06
1.05065e-07
-0.000842352
1.28911e-06
2.76847e-07
-0.000843008
-8.65468e-07
3.51804e-07
-0.000843193
-2.91932e-06
3.07215e-07
-0.000843102
-4.63198e-06
1.53125e-07
-0.000842786
-5.77031e-06
-1.02443e-07
-0.000842277
-6.13005e-06
-4.36917e-07
-0.000841619
-5.55988e-06
-8.1704e-07
-0.000840881
-4.01236e-06
-1.19082e-06
-0.000840118
-1.47706e-06
-0.000839246
-1.64692e-06
5.25002e-06
2.41738e-07
-0.00112888
1.83264e-06
6.03082e-07
-0.00112973
-1.76556e-06
7.4688e-07
-0.00113003
-5.22781e-06
6.65096e-07
-0.0011298
-8.21334e-06
3.56402e-07
-0.00112902
-1.03589e-05
-1.66414e-07
-0.00112774
-1.1271e-05
-8.733e-07
-0.00112604
-1.05672e-05
-1.70468e-06
-0.00112405
-7.94815e-06
-2.56388e-06
-0.001122
-3.25436e-06
-0.00112032
-3.53955e-06
8.28741e-06
5.05041e-07
-0.00141412
3.15899e-06
1.03691e-06
-0.00141562
-2.1647e-06
1.24134e-06
-0.00141617
-7.32868e-06
1.11973e-06
-0.00141574
-1.19324e-05
6.547e-07
-0.00141433
-1.54894e-05
-1.49863e-07
-0.00141195
-1.73716e-05
-1.27808e-06
-0.00140864
-1.68209e-05
-2.66207e-06
-0.00140457
-1.29852e-05
-4.17868e-06
-0.00140011
-5.47024e-06
-0.00139625
-5.78171e-06
1.09038e-05
8.31967e-07
-0.00169796
4.21397e-06
1.59397e-06
-0.00170032
-2.72377e-06
1.89516e-06
-0.00170119
-9.55677e-06
1.76608e-06
-0.00170059
-1.58653e-05
1.17607e-06
-0.00169846
-2.10916e-05
1.20274e-07
-0.00169474
-2.43865e-05
-1.41645e-06
-0.00168934
-2.45466e-05
-3.37835e-06
-0.00168238
-1.98178e-05
-5.66761e-06
-0.00167415
-7.72315e-06
-0.0016666
-9.54641e-06
1.33535e-05
1.24177e-06
-0.00198439
5.28553e-06
2.14473e-06
-0.0019877
-3.01842e-06
2.51199e-06
-0.00198899
-1.12829e-05
2.37847e-06
-0.00198828
-1.9152e-05
1.70296e-06
-0.00198547
-2.60774e-05
4.60241e-07
-0.00198035
-3.10459e-05
-1.41951e-06
-0.0019726
-3.24073e-05
-3.91917e-06
-0.00196209
-2.72178e-05
-7.02888e-06
-0.00194873
-9.98154e-06
-0.00193568
-1.38279e-05
1.53661e-05
1.61258e-06
-0.00227012
6.16315e-06
2.60341e-06
-0.00227443
-3.23744e-06
2.99447e-06
-0.00227614
-1.26751e-05
2.85819e-06
-0.00227537
-2.18916e-05
2.13846e-06
-0.0022719
-3.0427e-05
7.96198e-07
-0.00226541
-3.72136e-05
-1.29607e-06
-0.00225518
-4.0247e-05
-4.18861e-06
-0.00224071
-3.52569e-05
-8.01108e-06
-0.00222099
-1.1894e-05
-0.00220063
-1.91657e-05
1.67797e-05
1.82925e-06
-0.00255675
6.82994e-06
2.76153e-06
-0.00256206
-3.27355e-06
3.12298e-06
-0.00256424
-1.34788e-05
2.96458e-06
-0.00256348
-2.36787e-05
2.25321e-06
-0.00255947
-3.35608e-05
9.29097e-07
-0.00255175
-4.21061e-05
-1.18582e-06
-0.00253909
-4.70743e-05
-4.23475e-06
-0.00252049
-4.28794e-05
-8.50687e-06
-0.00249337
-1.32796e-05
-0.00246391
-2.45803e-05
1.7401e-05
1.66269e-06
-0.00284418
7.00238e-06
2.4255e-06
-0.00285037
-3.45677e-06
2.6905e-06
-0.00285286
-1.40665e-05
2.5323e-06
-0.00285196
-2.48404e-05
1.91032e-06
-0.00284731
-3.5646e-05
7.65932e-07
-0.00283834
-4.56555e-05
-1.07803e-06
-0.00282337
-5.26223e-05
-3.88738e-06
-0.00280075
-5.00013e-05
-7.91582e-06
-0.00276602
-1.32843e-05
-0.00272596
-3.05103e-05
1.73072e-05
1.03233e-06
-0.00312912
6.99907e-06
1.31517e-06
-0.00313597
-3.3445e-06
1.4445e-06
-0.0031388
-1.38306e-05
1.22e-06
-0.0031379
-2.46409e-05
7.26958e-07
-0.00313285
-3.58133e-05
-1.03103e-07
-0.00312293
-4.67395e-05
-1.35764e-06
-0.00310597
-5.5558e-05
-3.23761e-06
-0.00307965
-5.51322e-05
-5.95376e-06
-0.00303768
-1.01069e-05
-0.00298497
-3.6162e-05
1.66247e-05
-0.00339686
6.45186e-06
-0.00340375
-3.59281e-06
-0.00340653
-1.37973e-05
-0.00340493
-2.43423e-05
-0.00339859
-3.53924e-05
-0.00338675
-4.65295e-05
-0.00336708
-5.61885e-05
-0.00333655
-5.73929e-05
-0.00328813
-0.0032234
-3.97149e-05
2.21291e-06
-3.13475e-09
-0.000841307
8.94586e-07
1.34729e-07
-0.000841824
-5.42085e-07
1.99062e-07
-0.000841955
-1.90557e-06
1.64542e-07
-0.000841903
-3.02059e-06
4.28114e-08
-0.000841714
-3.72707e-06
-1.57452e-07
-0.000841413
-3.90112e-06
-4.13593e-07
-0.000841031
-3.47203e-06
-6.96112e-07
-0.000840614
-2.45056e-06
-9.62557e-07
-0.000840177
-1.15776e-06
-0.000839569
-9.70673e-07
3.69521e-06
1.07288e-08
-0.00112689
1.26227e-06
3.17011e-07
-0.00112748
-1.32458e-06
4.42772e-07
-0.00112769
-3.79792e-06
3.75173e-07
-0.00112753
-5.87661e-06
1.15968e-07
-0.00112702
-7.28427e-06
-3.17615e-07
-0.00112618
-7.75918e-06
-8.89896e-07
-0.00112509
-7.09791e-06
-1.54081e-06
-0.00112386
-5.21432e-06
-2.18277e-06
-0.00112266
-2.67586e-06
-0.00112173
-2.29236e-06
6.45189e-06
1.92273e-07
-0.0014109
2.505e-06
6.57322e-07
-0.00141201
-1.62837e-06
8.37503e-07
-0.00141243
-5.60129e-06
7.24578e-07
-0.00141212
-9.03917e-06
3.06476e-07
-0.00141109
-1.15298e-05
-4.02661e-07
-0.00140937
-1.2614e-05
-1.36843e-06
-0.00140707
-1.18356e-05
-2.50999e-06
-0.00140438
-8.8276e-06
-3.69477e-06
-0.00140161
-4.66029e-06
-0.00139935
-3.75052e-06
8.89621e-06
4.67171e-07
-0.00169353
3.47878e-06
1.17043e-06
-0.00169541
-2.20228e-06
1.44761e-06
-0.00169612
-7.74596e-06
1.31725e-06
-0.00169564
-1.27072e-05
7.58107e-07
-0.00169395
-1.65589e-05
-2.19055e-07
-0.00169107
-1.86206e-05
-1.59537e-06
-0.00168706
-1.80888e-05
-3.28474e-06
-0.00168213
-1.40496e-05
-5.13913e-06
-0.00167675
-6.72538e-06
-0.00167213
-6.45651e-06
1.13238e-05
8.49323e-07
-0.00197863
4.51194e-06
1.70651e-06
-0.00198142
-2.57072e-06
2.05351e-06
-0.00198251
-9.5507e-06
1.90922e-06
-0.00198189
-1.59903e-05
1.24322e-06
-0.00197951
-2.13065e-05
4.84115e-08
-0.00197531
-2.46097e-05
-1.69631e-06
-0.0019692
-2.46939e-05
-3.92442e-06
-0.00196136
-1.98225e-05
-6.51594e-06
-0.00195222
-8.85757e-06
-0.00194391
-9.46208e-06
1.34247e-05
1.22854e-06
-0.0022631
5.40148e-06
2.19191e-06
-0.0022669
-2.87257e-06
2.56949e-06
-0.00226839
-1.10997e-05
2.418e-06
-0.00226765
-1.88898e-05
1.69082e-06
-0.00226455
-2.5674e-05
3.65969e-07
-0.00225894
-3.04255e-05
-1.6263e-06
-0.0022505
-3.15619e-05
-4.2722e-06
-0.00223923
-2.63156e-05
-7.52798e-06
-0.00222522
-1.06703e-05
-0.00221179
-1.33458e-05
1.49541e-05
1.49301e-06
-0.00254861
6.08319e-06
2.41873e-06
-0.00255341
-3.00785e-06
2.77743e-06
-0.00255535
-1.21058e-05
2.60811e-06
-0.00255457
-2.09304e-05
1.8821e-06
-0.00255084
-2.89912e-05
5.54523e-07
-0.00254388
-3.51965e-05
-1.49746e-06
-0.00253302
-3.76554e-05
-4.33307e-06
-0.00251797
-3.24491e-05
-8.03172e-06
-0.00249807
-1.19114e-05
-0.00247803
-1.7087e-05
1.57597e-05
1.36353e-06
-0.00283496
6.33995e-06
2.14142e-06
-0.00284068
-3.21952e-06
2.41366e-06
-0.00284293
-1.28411e-05
2.25828e-06
-0.00284199
-2.23433e-05
1.63029e-06
-0.00283756
-3.13601e-05
4.83932e-07
-0.00282926
-3.88688e-05
-1.31753e-06
-0.00281604
-4.28181e-05
-3.94487e-06
-0.00279719
-3.83498e-05
-7.46979e-06
-0.00277105
-1.18e-05
-0.0027431
-2.13237e-05
1.58264e-05
8.71088e-07
-0.00311916
6.39294e-06