/*--------------------------------*- C++ -*----------------------------------*\
| =========                 |                                                 |
| \\      /  F ield         | foam-extend: Open Source CFD                    |
|  \\    /   O peration     | Version:     4.0                                |
|   \\  /    A nd           | Web:         http://www.foam-extend.org         |
|    \\/     M anipulation  |                                                 |
\*---------------------------------------------------------------------------*/
FoamFile
{
    version     2.0;
    format      ascii;
    class       volScalarField;
    location    "1600";
    object      rho;
}
// * * * * * * * * * * * * * * * * * * * * * * * * * * * * * * * * * * * * * //

dimensions      [1 -3 0 0 0 0 0];

internalField   nonuniform List<scalar> 
34480
(
1.34601
1.3453
1.3452
1.34565
1.34687
1.34918
1.35339
1.36149
1.3722
1.37668
1.34693
1.34626
1.34621
1.34668
1.34784
1.35003
1.35414
1.36229
1.37415
1.37603
1.34572
1.34507
1.34508
1.34547
1.34647
1.34837
1.35219
1.35999
1.37224
1.36887
1.34463
1.34407
1.34411
1.34448
1.34536
1.34696
1.35038
1.35744
1.36947
1.36054
1.34358
1.34299
1.34308
1.34339
1.34415
1.34545
1.34847
1.35478
1.36629
1.35226
1.34349
1.34302
1.34314
1.34346
1.34415
1.34523
1.34787
1.35338
1.36407
1.34525
1.34222
1.3417
1.34185
1.34214
1.34277
1.3437
1.34603
1.35086
1.36057
1.33778
1.34299
1.34265
1.3429
1.34342
1.34429
1.34543
1.34774
1.35207
1.36053
1.33383
1.34148
1.34116
1.34143
1.34199
1.34299
1.34438
1.34679
1.3508
1.3577
1.32793
1.33871
1.33862
1.33942
1.34092
1.34315
1.34611
1.35017
1.35568
1.36275
1.32911
1.35291
1.35181
1.35142
1.35166
1.35262
1.35443
1.35734
1.36168
1.36851
1.37745
1.35349
1.35225
1.35183
1.35207
1.3531
1.3551
1.35851
1.36421
1.37448
1.38929
1.35201
1.35068
1.35024
1.3504
1.35133
1.35322
1.35673
1.36313
1.37612
1.3952
1.3507
1.34932
1.34881
1.34887
1.34966
1.35134
1.3547
1.36111
1.3757
1.39767
1.34953
1.34802
1.34745
1.34735
1.34797
1.34935
1.35239
1.35844
1.3739
1.39763
1.34934
1.34783
1.34718
1.34699
1.34745
1.34855
1.3512
1.35664
1.37229
1.39655
1.34803
1.3464
1.34568
1.34536
1.34566
1.34649
1.34876
1.35353
1.36893
1.39308
1.34876
1.34719
1.34648
1.34624
1.34662
1.34747
1.34959
1.35375
1.3683
1.39144
1.34727
1.34569
1.34492
1.34462
1.34493
1.34578
1.3478
1.35158
1.36471
1.38729
1.34459
1.34309
1.34267
1.34303
1.34418
1.34608
1.34914
1.35384
1.3665
1.38779
1.35768
1.35675
1.35643
1.35669
1.35759
1.35919
1.3616
1.36489
1.36903
1.37354
1.35822
1.35705
1.35667
1.35699
1.3581
1.36012
1.36325
1.36777
1.37441
1.3823
1.35658
1.35527
1.35489
1.35521
1.35638
1.35856
1.36211
1.36767
1.37698
1.38866
1.35504
1.35363
1.35318
1.35344
1.3546
1.35682
1.3606
1.36676
1.37819
1.39331
1.35365
1.35211
1.3516
1.35174
1.35281
1.35491
1.35872
1.3651
1.37814
1.39629
1.3532
1.35164
1.35106
1.35113
1.35209
1.35404
1.35774
1.36406
1.3782
1.39868
1.35168
1.35
1.34937
1.34932
1.35016
1.35192
1.35544
1.36155
1.37638
1.39872
1.35223
1.35061
1.34996
1.34997
1.35084
1.35259
1.35605
1.36191
1.37681
1.40021
1.35068
1.34902
1.34832
1.34825
1.34899
1.35063
1.35396
1.35972
1.37405
1.3985
1.34798
1.34637
1.34589
1.34627
1.34757
1.34987
1.3538
1.36016
1.37426
1.39901
1.36098
1.3603
1.36007
1.36027
1.36093
1.36207
1.36365
1.36562
1.36776
1.36958
1.36182
1.36082
1.3605
1.36078
1.36171
1.36335
1.36574
1.36886
1.37276
1.3765
1.3604
1.35918
1.35881
1.35912
1.36022
1.36218
1.36518
1.36941
1.37554
1.38202
1.35887
1.35749
1.35704
1.35733
1.3585
1.36068
1.36418
1.36935
1.37768
1.38716
1.35747
1.3559
1.35539
1.3556
1.35676
1.35899
1.36278
1.36859
1.37888
1.39138
1.3569
1.35528
1.35469
1.35484
1.35596
1.35817
1.36211
1.36829
1.38022
1.39549
1.35528
1.35353
1.35289
1.35295
1.35398
1.3561
1.36006
1.36644
1.37967
1.39755
1.35571
1.35399
1.35332
1.35342
1.35448
1.35662
1.36063
1.3671
1.3811
1.40107
1.35409
1.35233
1.35162
1.35166
1.35263
1.35468
1.3586
1.3652
1.37932
1.40137
1.35136
1.34964
1.34909
1.34944
1.3508
1.3533
1.35761
1.36464
1.37876
1.40232
1.36327
1.36284
1.36268
1.36282
1.36327
1.36402
1.36501
1.36617
1.36733
1.36823
1.36445
1.36369
1.36343
1.36365
1.36437
1.36559
1.36728
1.36935
1.37164
1.37362
1.36341
1.36236
1.36204
1.36231
1.36324
1.36486
1.36721
1.37024
1.37402
1.37757
1.36202
1.36077
1.36035
1.36064
1.36172
1.36366
1.36662
1.37064
1.37618
1.38179
1.36073
1.35926
1.35877
1.35902
1.36016
1.36229
1.36569
1.37054
1.37785
1.38574
1.36015
1.35858
1.35801
1.35823
1.35939
1.36162
1.36534
1.37081
1.3798
1.39003
1.35853
1.3568
1.35618
1.35632
1.35746
1.3597
1.36361
1.36955
1.38004
1.39266
1.35889
1.35717
1.35651
1.35669
1.35786
1.36017
1.36426
1.37056
1.38219
1.39696
1.35723
1.35546
1.35477
1.3549
1.35603
1.35831
1.36243
1.36904
1.38128
1.39834
1.35452
1.35277
1.35218
1.35253
1.35391
1.3565
1.3609
1.36789
1.38038
1.39933
1.36489
1.36464
1.36454
1.36463
1.36491
1.36537
1.36596
1.3666
1.36721
1.36761
1.36634
1.3658
1.36561
1.36577
1.36628
1.36712
1.36824
1.36955
1.37088
1.37194
1.3657
1.36488
1.36461
1.36483
1.36556
1.3668
1.36852
1.37062
1.37295
1.37493
1.36454
1.36348
1.36312
1.36337
1.36429
1.3659
1.36824
1.37123
1.37485
1.37816
1.36346
1.36215
1.36171
1.36195
1.36299
1.36487
1.36773
1.37155
1.37658
1.38149
1.36295
1.3615
1.36098
1.36121
1.36232
1.3644
1.36768
1.37224
1.37871
1.38538
1.36138
1.35975
1.35917
1.35936
1.3605
1.36268
1.36628
1.37144
1.37931
1.38791
1.36174
1.36009
1.35946
1.35968
1.36088
1.36318
1.36705
1.37272
1.38181
1.39227
1.36008
1.35836
1.35771
1.35789
1.35908
1.36141
1.3654
1.37151
1.38146
1.39406
1.35743
1.35572
1.35512
1.35546
1.35682
1.35936
1.36358
1.37004
1.38041
1.39473
1.36607
1.36594
1.36589
1.36595
1.36612
1.36638
1.36672
1.36708
1.3674
1.36757
1.36769
1.36733
1.3672
1.36731
1.36765
1.3682
1.36891
1.36971
1.37048
1.37107
1.36743
1.36681
1.36661
1.36677
1.36731
1.36821
1.36941
1.37082
1.37227
1.37343
1.3665
1.36565
1.36535
1.36556
1.36629
1.36755
1.3693
1.37145
1.37383
1.37585
1.36566
1.36455
1.36418
1.3644
1.36528
1.36684
1.36912
1.37202
1.37545
1.37855
1.36527
1.36401
1.36354
1.36377
1.36477
1.36658
1.36933
1.37294
1.37753
1.38188
1.36382
1.36235
1.36182
1.36203
1.3631
1.36508
1.3682
1.37247
1.37823
1.38403
1.36422
1.36271
1.36213
1.36237
1.36352
1.36567
1.36912
1.37395
1.38081
1.38809
1.36259
1.36098
1.36038
1.3606
1.36177
1.364
1.36763
1.37294
1.38068
1.38973
1.36004
1.35843
1.35786
1.35818
1.35947
1.36185
1.36569
1.37133
1.37955
1.38992
1.36699
1.36694
1.36691
1.36694
1.36704
1.36719
1.36738
1.36758
1.36774
1.3678
1.36867
1.36844
1.36835
1.36842
1.36864
1.36899
1.36942
1.3699
1.37034
1.37067
1.36873
1.36828
1.36813
1.36825
1.36863
1.36925
1.37005
1.37097
1.37186
1.37254
1.36799
1.36734
1.3671
1.36726
1.36782
1.36875
1.37002
1.37151
1.37305
1.37431
1.3674
1.36651
1.3662
1.36638
1.3671
1.36833
1.37006
1.37219
1.37451
1.3765
1.36716
1.3661
1.3657
1.36591
1.36676
1.36826
1.37045
1.37321
1.37643
1.37929
1.36584
1.36456
1.36411
1.36431
1.36526
1.36697
1.36955
1.37293
1.37708
1.38101
1.36633
1.365
1.36449
1.36472
1.36576
1.36767
1.3706
1.37453
1.3796
1.38463
1.36474
1.36329
1.36276
1.36298
1.36407
1.36609
1.36924
1.37363
1.37946
1.3858
1.36234
1.36088
1.36035
1.36064
1.36182
1.36397
1.3673
1.372
1.37828
1.38558
1.36773
1.36773
1.36772
1.36774
1.36779
1.36788
1.36798
1.36809
1.36817
1.36817
1.36939
1.36925
1.36919
1.36924
1.36937
1.36958
1.36985
1.37013
1.37038
1.37056
1.36969
1.36939
1.36928
1.36936
1.36962
1.37003
1.37055
1.37113
1.37167
1.37207
1.3691
1.36862
1.36844
1.36856
1.36896
1.36963
1.37052
1.37152
1.37251
1.37329
1.36875
1.36806
1.36782
1.36796
1.36851
1.36944
1.37072
1.37221
1.37377
1.37504
1.36865
1.36779
1.36747
1.36765
1.36833
1.36953
1.3712
1.37324
1.37546
1.37734
1.36746
1.36641
1.36603
1.3662
1.367
1.36842
1.37046
1.37305
1.37598
1.37863
1.36808
1.36695
1.36651
1.36673
1.36763
1.36924
1.37162
1.3747
1.37836
1.3818
1.36653
1.36528
1.36482
1.36503
1.36599
1.36773
1.37034
1.37384
1.37812
1.38246
1.36433
1.36305
1.36258
1.36284
1.36387
1.36572
1.3685
1.37226
1.37692
1.38194
1.36837
1.36839
1.36839
1.3684
1.36843
1.36848
1.36853
1.36859
1.36863
1.3686
1.36993
1.36985
1.36982
1.36984
1.36992
1.37005
1.37021
1.37037
1.37051
1.37062
1.37043
1.37022
1.37015
1.3702
1.37037
1.37064
1.37097
1.37133
1.37165
1.37188
1.36991
1.36958
1.36945
1.36953
1.36981
1.37027
1.37087
1.37153
1.37217
1.37265
1.36977
1.36926
1.36907
1.36918
1.36959
1.37027
1.37117
1.37221
1.37323
1.37403
1.36979
1.36913
1.36888
1.36902
1.36956
1.37047
1.37171
1.37316
1.37467
1.37589
1.36874
1.36789
1.36759
1.36774
1.36838
1.3695
1.37107
1.37297
1.37501
1.37678
1.36949
1.36857
1.36821
1.36839
1.36914
1.37045
1.37232
1.37464
1.37723
1.37953
1.36798
1.36693
1.36655
1.36673
1.36755
1.36899
1.37107
1.37375
1.37682
1.37974
1.366
1.36492
1.36452
1.36474
1.36561
1.36714
1.36938
1.37228
1.37566
1.37905
1.36893
1.36896
1.36897
1.36897
1.36899
1.36902
1.36905
1.36908
1.3691
1.36905
1.37035
1.37031
1.37029
1.3703
1.37035
1.37043
1.37052
1.37061
1.37069
1.37075
1.371
1.37086
1.37082
1.37085
1.37096
1.37112
1.37133
1.37155
1.37174
1.37187
1.37051
1.37028
1.37019
1.37024
1.37043
1.37074
1.37114
1.37157
1.37197
1.37227
1.37054
1.37017
1.37004
1.37012
1.37041
1.37089
1.37151
1.3722
1.37287
1.37337
1.37066
1.37017
1.36998
1.37008
1.37048
1.37115
1.37204
1.37306
1.37407
1.37485
1.36972
1.36906
1.36882
1.36894
1.36944
1.37029
1.37145
1.37282
1.37421
1.37537
1.37061
1.36989
1.3696
1.36975
1.37035
1.37136
1.37278
1.37447
1.37627
1.37779
1.36912
1.36827
1.36796
1.36812
1.36878
1.36992
1.37153
1.37351
1.37567
1.37761
1.36739
1.36652
1.36619
1.36637
1.36707
1.3683
1.37003
1.3722
1.37458
1.37684
1.36944
1.36948
1.36949
1.36949
1.3695
1.36952
1.36953
1.36955
1.36955
1.3695
1.37068
1.37066
1.37064
1.37065
1.37068
1.37073
1.37078
1.37084
1.37088
1.37092
1.37145
1.37137
1.37134
1.37136
1.37143
1.37153
1.37165
1.37178
1.37189
1.37196
1.37094
1.37079
1.37073
1.37076
1.37089
1.37109
1.37134
1.37162
1.37187
1.37206
1.37111
1.37086
1.37077
1.37082
1.37102
1.37135
1.37177
1.37222
1.37265
1.37296
1.3713
1.37095
1.37081
1.37088
1.37117
1.37165
1.37227
1.37296
1.37363
1.37413
1.37044
1.36995
1.36978
1.36987
1.37024
1.37086
1.37169
1.37265
1.37358
1.37434
1.37147
1.37093
1.37071
1.37083
1.37129
1.37205
1.37309
1.37429
1.37552
1.37649
1.36998
1.36932
1.36908
1.3692
1.36971
1.37059
1.37178
1.37321
1.37469
1.37597
1.36854
1.36785
1.36759
1.36774
1.36829
1.36923
1.37053
1.37209
1.37374
1.37522
1.36992
1.36996
1.36997
1.36997
1.36997
1.36998
1.36999
1.37
1.37
1.36994
1.37093
1.37092
1.37091
1.37092
1.37094
1.37096
1.37099
1.37103
1.37106
1.37108
1.37183
1.37178
1.37176
1.37178
1.37181
1.37188
1.37195
1.37202
1.37209
1.37212
1.37125
1.37115
1.37111
1.37113
1.37121
1.37134
1.3715
1.37168
1.37183
1.37195
1.37154
1.37137
1.37131
1.37135
1.37148
1.3717
1.37197
1.37226
1.37253
1.37272
1.37176
1.37152
1.37142
1.37147
1.37167
1.372
1.37242
1.37288
1.37332
1.37363
1.37097
1.37062
1.37049
1.37056
1.37082
1.37127
1.37184
1.37249
1.3731
1.3736
1.37214
1.37175
1.37159
1.37168
1.37201
1.37257
1.3733
1.37413
1.37495
1.37557
1.37061
1.3701
1.36993
1.37002
1.3704
1.37104
1.3719
1.37291
1.3739
1.37473
1.36949
1.36897
1.36877
1.36888
1.3693
1.36999
1.37093
1.37203
1.37314
1.37411
1.37037
1.37041
1.37042
1.37042
1.37042
1.37043
1.37043
1.37043
1.37043
1.37037
1.37111
1.37111
1.37111
1.37111
1.37112
1.37114
1.37116
1.37118
1.3712
1.37121
1.37215
1.37212
1.37211
1.37212
1.37215
1.37218
1.37222
1.37226
1.3723
1.3723
1.37147
1.3714
1.37138
1.37139
1.37144
1.37152
1.37162
1.37173
1.37182
1.3719
1.37186
1.37175
1.37171
1.37173
1.37182
1.37196
1.37214
1.37232
1.37248
1.3726
1.37209
1.37192
1.37186
1.37189
1.37203
1.37225
1.37252
1.37282
1.3731
1.3733
1.37135
1.3711
1.37102
1.37106
1.37125
1.37155
1.37194
1.37237
1.37276
1.37308
1.37265
1.37238
1.37227
1.37233
1.37257
1.37296
1.37347
1.37402
1.37456
1.37494
1.37104
1.37067
1.37054
1.37061
1.37088
1.37134
1.37194
1.37262
1.37327
1.37381
1.37029
1.36991
1.36976
1.36984
1.37014
1.37064
1.3713
1.37205
1.37278
1.3734
1.37082
1.37085
1.37087
1.37086
1.37087
1.37087
1.37087
1.37087
1.37086
1.37081
1.37123
1.37123
1.37123
1.37123
1.37123
1.37124
1.37126
1.37128
1.37129
1.3713
1.37243
1.37242
1.37242
1.37242
1.37244
1.37246
1.37248
1.3725
1.37252
1.37251
1.37162
1.37157
1.37156
1.37156
1.37159
1.37164
1.3717
1.37177
1.37183
1.37188
1.37209
1.37202
1.37199
1.37201
1.37206
1.37215
1.37226
1.37237
1.37247
1.37254
1.3723
1.37219
1.37215
1.37217
1.37226
1.3724
1.37258
1.37277
1.37295
1.37307
1.37161
1.37145
1.37139
1.37142
1.37155
1.37175
1.372
1.37228
1.37252
1.37272
1.37305
1.37287
1.3728
1.37284
1.373
1.37326
1.3736
1.37397
1.37432
1.37454
1.37131
1.37104
1.37095
1.371
1.37119
1.3715
1.3719
1.37236
1.37278
1.37313
1.37099
1.37072
1.37062
1.37068
1.37088
1.37123
1.37168
1.37217
1.37265
1.37303
1.37131
1.37134
1.37135
1.37135
1.37135
1.37135
1.37135
1.37135
1.37134
1.37129
1.37126
1.37127
1.37126
1.37126
1.37127
1.37128
1.37129
1.3713
1.37131
1.37133
1.37269
1.37268
1.37268
1.37269
1.3727
1.37271
1.37272
1.37273
1.37273
1.37271
1.37171
1.37168
1.37167
1.37167
1.37169
1.37172
1.37176
1.3718
1.37183
1.37187
1.37223
1.37219
1.37217
1.37218
1.37222
1.37227
1.37234
1.37241
1.37247
1.3725
1.37241
1.37234
1.37231
1.37233
1.37238
1.37247
1.37259
1.37271
1.37282
1.37289
1.37179
1.37169
1.37165
1.37168
1.37176
1.37188
1.37204
1.37221
1.37236
1.37249
1.37335
1.37324
1.37318
1.37321
1.37332
1.37349
1.37372
1.37395
1.37418
1.37429
1.37143
1.37124
1.37118
1.37122
1.37134
1.37155
1.37181
1.3721
1.37236
1.3726
1.37168
1.3715
1.37143
1.37147
1.37161
1.37184
1.37213
1.37245
1.37275
1.37299
1.37197
1.372
1.37201
1.37201
1.37201
1.37201
1.37201
1.372
1.37199
1.37195
1.3712
1.37119
1.37119
1.37119
1.37119
1.3712
1.37121
1.37122
1.37123
1.37126
1.37289
1.37289
1.37289
1.3729
1.3729
1.37291
1.37291
1.37292
1.37292
1.3729
1.37176
1.37174
1.37174
1.37174
1.37175
1.37177
1.37179
1.37181
1.37183
1.37185
1.37229
1.37227
1.37226
1.37226
1.37228
1.37231
1.37235
1.3724
1.37243
1.37246
1.37243
1.37238
1.37236
1.37237
1.3724
1.37246
1.37253
1.37261
1.37268
1.37272
1.3719
1.37184
1.37182
1.37184
1.37189
1.37197
1.37207
1.37217
1.37225
1.37232
1.37352
1.37344
1.37341
1.37342
1.37349
1.3736
1.37375
1.3739
1.37405
1.37411
1.37139
1.37127
1.37123
1.37125
1.37133
1.37147
1.37163
1.37181
1.37197
1.37213
1.3725
1.37239
1.37234
1.37236
1.37245
1.3726
1.37279
1.37299
1.37319
1.37333
1.37306
1.37309
1.37309
1.37309
1.37309
1.37309
1.37309
1.37308
1.37307
1.37303
1.37094
1.37093
1.37093
1.37093
1.37093
1.37094
1.37094
1.37095
1.37096
1.37099
1.37297
1.37297
1.37296
1.37296
1.37296
1.37296
1.37297
1.37298
1.37299
1.37297
1.37178
1.37177
1.37178
1.37178
1.37179
1.3718
1.37181
1.37182
1.37182
1.37183
1.37228
1.37226
1.37225
1.37225
1.37226
1.37228
1.37231
1.37233
1.37236
1.37238
1.37235
1.37232
1.37231
1.37231
1.37233
1.37237
1.37241
1.37246
1.37251
1.37254
1.37194
1.37191
1.3719
1.37191
1.37194
1.37199
1.37205
1.37211
1.37216
1.37219
1.37343
1.37337
1.37334
1.37335
1.3734
1.37347
1.37356
1.37367
1.37378
1.37382
1.37111
1.37104
1.37101
1.37103
1.37108
1.37117
1.37127
1.37138
1.37147
1.37158
1.37369
1.37362
1.37358
1.3736
1.37366
1.37375
1.37388
1.374
1.37414
1.37422
1.37481
1.37482
1.37482
1.37482
1.37482
1.37482
1.37482
1.37482
1.37481
1.37479
1.37035
1.37035
1.37037
1.37038
1.37038
1.37038
1.37038
1.37037
1.37037
1.37038
1.37279
1.37277
1.37275
1.37274
1.37274
1.37275
1.37276
1.37278
1.3728
1.37281
1.3718
1.37181
1.37182
1.37182
1.37183
1.37183
1.37184
1.37184
1.37183
1.37183
1.37221
1.37219
1.37218
1.37218
1.37219
1.37221
1.37222
1.37224
1.37226
1.37228
1.37224
1.37222
1.37221
1.37221
1.37222
1.37225
1.37228
1.37231
1.37234
1.37237
1.37194
1.37193
1.37192
1.37193
1.37195
1.37199
1.37203
1.37207
1.37209
1.3721
1.37294
1.37289
1.37287
1.37287
1.3729
1.37295
1.37302
1.3731
1.37319
1.37325
1.37047
1.37043
1.37042
1.37044
1.37048
1.37054
1.37061
1.37067
1.37071
1.37076
1.37544
1.37538
1.37536
1.37537
1.37541
1.37548
1.37557
1.37566
1.37576
1.37581
1.37666
1.37665
1.37663
1.37662
1.37662
1.37663
1.37663
1.37665
1.37667
1.3767
1.3696
1.36966
1.36969
1.36972
1.36972
1.36972
1.36971
1.36968
1.36963
1.36955
1.37242
1.37238
1.37236
1.37235
1.37235
1.37235
1.37236
1.37238
1.37242
1.37247
1.37187
1.37187
1.37188
1.37189
1.37189
1.3719
1.3719
1.3719
1.37189
1.37188
1.37215
1.37214
1.37214
1.37214
1.37214
1.37216
1.37217
1.37219
1.37221
1.37222
1.37217
1.37215
1.37215
1.37215
1.37216
1.37218
1.37221
1.37224
1.37227
1.37229
1.37197
1.37196
1.37195
1.37196
1.37198
1.37201
1.37205
1.37208
1.37211
1.37211
1.37231
1.37226
1.37224
1.37224
1.37227
1.37231
1.37237
1.37244
1.37251
1.3726
1.36971
1.3697
1.36969
1.36971
1.36974
1.3698
1.36986
1.36991
1.36994
1.3699
1.37721
1.37716
1.37714
1.37715
1.37719
1.37725
1.37733
1.37741
1.37749
1.37753
1.47345
1.47904
1.47561
1.46842
1.5062
1.51193
1.50507
1.49431
1.53265
1.53771
1.52801
1.51471
1.55164
1.55555
1.54301
1.52769
1.56632
1.56883
1.55355
1.53673
1.57826
1.57931
1.56314
1.54438
1.58625
1.58566
1.57004
1.54894
1.59339
1.59106
1.57626
1.55288
1.59124
1.58704
1.57284
1.5474
1.58342
1.57821
1.56567
1.5391
1.37268
1.37236
1.37292
1.37398
1.39414
1.3955
1.39651
1.39617
1.41356
1.41626
1.41751
1.4156
1.43219
1.4361
1.43748
1.43365
1.4497
1.45447
1.45582
1.44991
1.46668
1.47196
1.47302
1.46544
1.48084
1.48639
1.48705
1.47836
1.49512
1.50075
1.5011
1.49177
1.5021
1.50773
1.50792
1.49837
1.50573
1.51186
1.51205
1.50285
1.37691
1.37735
1.37754
1.37755
1.38963
1.39061
1.3909
1.39075
1.40172
1.40331
1.40373
1.40338
1.41351
1.41577
1.4163
1.41559
1.42507
1.42798
1.42854
1.4273
1.43731
1.44083
1.44138
1.43944
1.44794
1.45199
1.45247
1.44976
1.45983
1.46428
1.46469
1.46119
1.46584
1.47062
1.47096
1.4666
1.46934
1.47488
1.47523
1.46986
1.37017
1.37013
1.37016
1.37027
1.3782
1.37844
1.37854
1.37856
1.38608
1.38663
1.38683
1.38679
1.39448
1.39545
1.39579
1.39562
1.40294
1.40441
1.40489
1.40449
1.41235
1.41435
1.41495
1.41422
1.42053
1.42306
1.42374
1.42261
1.43043
1.43344
1.43418
1.43257
1.4353
1.43874
1.43955
1.43745
1.43797
1.44226
1.44321
1.44042
1.36879
1.36873
1.36873
1.36879
1.37444
1.37459
1.37466
1.37465
1.37947
1.37979
1.37991
1.37988
1.38521
1.38576
1.38595
1.3859
1.39123
1.39205
1.39235
1.39224
1.39825
1.3994
1.39981
1.3996
1.4042
1.40571
1.40622
1.40586
1.41211
1.41398
1.41459
1.41402
1.41601
1.41822
1.41899
1.41822
1.41804
1.42103
1.422
1.42077
1.36801
1.36791
1.36789
1.36796
1.37224
1.37229
1.37232
1.37233
1.37565
1.37577
1.37584
1.37586
1.3796
1.37986
1.37998
1.38
1.38396
1.38438
1.38457
1.38459
1.38928
1.38992
1.3902
1.39019
1.39361
1.39449
1.39485
1.3948
1.39999
1.40112
1.40158
1.40144
1.40314
1.40452
1.40514
1.40495
1.40436
1.40639
1.40718
1.40664
1.36792
1.36781
1.36779
1.36785
1.37123
1.37126
1.37128
1.37128
1.37378
1.37384
1.37388
1.37389
1.37654
1.37667
1.37674
1.37677
1.37974
1.37996
1.38009
1.38012
1.38381
1.38417
1.38435
1.3844
1.3869
1.38741
1.38767
1.38771
1.39206
1.39275
1.39308
1.3931
1.39449
1.39535
1.39581
1.39582
1.3949
1.3963
1.39686
1.39658
1.36812
1.368
1.36798
1.36804
1.37075
1.37077
1.37078
1.37078
1.37273
1.37275
1.37277
1.37278
1.37468
1.37474
1.37479
1.3748
1.37712
1.37723
1.37731
1.37734
1.3803
1.3805
1.38062
1.38066
1.3825
1.3828
1.38296
1.38302
1.38673
1.38713
1.38736
1.38742
1.3884
1.38893
1.38923
1.38929
1.38816
1.38916
1.38953
1.38933
1.36847
1.36835
1.36832
1.36838
1.37061
1.37062
1.37062
1.37063
1.37218
1.37219
1.3722
1.37221
1.3735
1.37354
1.37357
1.37358
1.37539
1.37546
1.37551
1.37553
1.37793
1.37805
1.37812
1.37815
1.37947
1.37965
1.37975
1.3798
1.38298
1.38322
1.38337
1.38342
1.38393
1.38426
1.38445
1.38451
1.38327
1.38401
1.38426
1.38407
1.36889
1.36877
1.36874
1.3688
1.37065
1.37065
1.37065
1.37066
1.37194
1.37195
1.37196
1.37196
1.37278
1.3728
1.37282
1.37283
1.37424
1.37428
1.37431
1.37432
1.37625
1.37632
1.37637
1.37639
1.37728
1.37738
1.37745
1.37748
1.38023
1.38038
1.38048
1.38052
1.38061
1.38081
1.38094
1.38098
1.3797
1.38028
1.38045
1.38025
1.36933
1.36921
1.36918
1.36923
1.37077
1.37077
1.37078
1.37078
1.37191
1.37191
1.37191
1.37191
1.37235
1.37236
1.37237
1.37238
1.3735
1.37352
1.37354
1.37355
1.37508
1.37512
1.37515
1.37517
1.37568
1.37574
1.37578
1.37581
1.37822
1.37831
1.37837
1.3784
1.37814
1.37826
1.37834
1.37837
1.37711
1.3776
1.37771
1.37751
1.36977
1.36965
1.36962
1.36967
1.37093
1.37093
1.37093
1.37093
1.37198
1.37199
1.37199
1.37199
1.37211
1.37212
1.37212
1.37213
1.37304
1.37305
1.37306
1.37307
1.37427
1.3743
1.37432
1.37433
1.37452
1.37456
1.37459
1.37461
1.37677
1.37682
1.37686
1.37688
1.3763
1.37638
1.37643
1.37645
1.37528
1.3757
1.37577
1.37558
1.37021
1.37008
1.37005
1.37011
1.37109
1.37109
1.37109
1.37109
1.37213
1.37213
1.37213
1.37213
1.37198
1.37199
1.37199
1.372
1.37277
1.37278
1.37278
1.37279
1.37373
1.37375
1.37376
1.37376
1.37371
1.37373
1.37375
1.37376
1.37574
1.37578
1.3758
1.37581
1.37494
1.37499
1.37503
1.37504
1.37405
1.37441
1.37446
1.37427
1.37063
1.3705
1.37047
1.37053
1.37122
1.37122
1.37122
1.37122
1.37231
1.37231
1.37231
1.37231
1.37192
1.37192
1.37193
1.37193
1.37263
1.37263
1.37263
1.37263
1.37336
1.37338
1.37338
1.37339
1.37314
1.37315
1.37316
1.37317
1.37505
1.37508
1.37509
1.3751
1.37394
1.37398
1.374
1.37401
1.37327
1.37359
1.37362
1.37345
1.37105
1.37093
1.37089
1.37095
1.3713
1.3713
1.3713
1.37131
1.37252
1.37252
1.37251
1.37251
1.37189
1.37189
1.37189
1.3719
1.37255
1.37255
1.37256
1.37256
1.37312
1.37313
1.37313
1.37313
1.37275
1.37275
1.37276
1.37277
1.37462
1.37463
1.37464
1.37464
1.37321
1.37323
1.37325
1.37325
1.37288
1.37315
1.37317
1.37302
1.37152
1.3714
1.37136
1.37142
1.37133
1.37133
1.37133
1.37133
1.37272
1.37272
1.37272
1.37272
1.37187
1.37187
1.37187
1.37187
1.37251
1.37251
1.37251
1.37251
1.37293
1.37294
1.37294
1.37294
1.37248
1.37248
1.37249
1.37249
1.37436
1.37437
1.37437
1.37437
1.37264
1.37266
1.37267
1.37267
1.37283
1.37305
1.37307
1.37293
1.37216
1.37203
1.372
1.37206
1.37125
1.37125
1.37125
1.37125
1.37291
1.37291
1.37291
1.3729
1.37184
1.37183
1.37184
1.37184
1.37247
1.37246
1.37247
1.37247
1.37276
1.37276
1.37276
1.37276
1.3723
1.37229
1.37229
1.3723
1.37417
1.37418
1.37419
1.37419
1.37215
1.37216
1.37217
1.37217
1.37317
1.37335
1.37336
1.37325
1.37321
1.37309
1.37306
1.37312
1.37097
1.37097
1.37097
1.37098
1.373
1.37301
1.373
1.373
1.3718
1.3718
1.3718
1.3718
1.37239
1.37239
1.37239
1.37239
1.37257
1.37258
1.37258
1.37258
1.37215
1.37214
1.37214
1.37214
1.37391
1.37392
1.37392
1.37392
1.37157
1.37157
1.37158
1.37158
1.37409
1.37422
1.37423
1.37415
1.37494
1.37484
1.37482
1.37488
1.37032
1.37031
1.37031
1.37031
1.37288
1.37289
1.37289
1.37289
1.37179
1.37178
1.37178
1.37178
1.37229
1.37229
1.37229
1.3723
1.37239
1.3724
1.3724
1.3724
1.37205
1.37204
1.37204
1.37204
1.37338
1.37341
1.37341
1.37341
1.37068
1.37067
1.37067
1.37068
1.37578
1.37587
1.37588
1.37583
1.3768
1.37675
1.37675
1.37679
1.36934
1.3693
1.36928
1.36929
1.37257
1.37259
1.3726
1.3726
1.37183
1.37182
1.37182
1.37182
1.37223
1.37223
1.37223
1.37224
1.3723
1.3723
1.3723
1.3723
1.37206
1.37205
1.37205
1.37206
1.37276
1.3728
1.37281
1.37279
1.36962
1.36954
1.36953
1.36958
1.37772
1.37778
1.37778
1.37773
1.42994
1.40545
1.3843
1.37003
1.36145
1.35616
1.35268
1.3503
1.34865
1.34745
1.44222
1.40924
1.38405
1.36923
1.36099
1.35594
1.35269
1.35051
1.34903
1.34797
1.44377
1.4072
1.3797
1.36643
1.35861
1.35382
1.35069
1.34859
1.34724
1.34646
1.44057
1.4033
1.37436
1.36347
1.35619
1.35195
1.34911
1.34724
1.34602
1.3453
1.43469
1.39837
1.36956
1.36053
1.35364
1.34992
1.34736
1.34572
1.34465
1.3441
1.42745
1.39442
1.36621
1.359
1.35242
1.34927
1.34695
1.34553
1.34457
1.344
1.41723
1.38933
1.36167
1.3563
1.34989
1.34732
1.34516
1.34393
1.34306
1.34263
1.40932
1.38725
1.36012
1.3566
1.35031
1.34825
1.34615
1.34498
1.34409
1.34349
1.39831
1.38128
1.35527
1.35384
1.34801
1.34655
1.3445
1.34343
1.34257
1.34198
1.3952
1.38139
1.35596
1.35511
1.3484
1.34627
1.34343
1.34176
1.34043
1.33933
1.37774
1.37497
1.37163
1.36827
1.36504
1.36214
1.35964
1.35756
1.35587
1.35458
1.39541
1.38744
1.37999
1.37363
1.36835
1.36419
1.36097
1.35848
1.35652
1.35506
1.40835
1.39529
1.38411
1.37537
1.36851
1.36342
1.35968
1.35689
1.35482
1.35345
1.418
1.4004
1.38602
1.37578
1.36804
1.36257
1.35864
1.35578
1.35365
1.35221
1.42432
1.40343
1.38637
1.3752
1.36693
1.36134
1.35737
1.35452
1.35238
1.351
1.42914
1.40617
1.38691
1.37532
1.36675
1.36122
1.35728
1.35448
1.35236
1.35089
1.43074
1.40668
1.38558
1.37392
1.36514
1.35976
1.35584
1.35311
1.35097
1.34956
1.43304
1.4089
1.38642
1.37505
1.3662
1.361
1.35705
1.35427
1.35207
1.35045
1.43058
1.40654
1.38371
1.37328
1.36473
1.35976
1.35577
1.35295
1.3507
1.34902
1.43097
1.40757
1.38436
1.37399
1.36477
1.35918
1.35457
1.35123
1.3486
1.34643
1.37677
1.37474
1.37218
1.36959
1.36717
1.365
1.36311
1.36151
1.36017
1.35913
1.38893
1.38439
1.37916
1.3745
1.37065
1.3675
1.36492
1.36281
1.36107
1.35972
1.39987
1.39198
1.38362
1.37673
1.37135
1.36719
1.36396
1.36143
1.35947
1.35809
1.40972
1.39814
1.38685
1.37822
1.37171
1.36686
1.36319
1.36038
1.35822
1.35668
1.41824
1.40283
1.38878
1.37873
1.37134
1.36602
1.36208
1.35913
1.35685
1.35531
1.42637
1.40733
1.39079
1.37968
1.37164
1.36606
1.36196
1.35894
1.35661
1.35496
1.43194
1.40956
1.3908
1.37893
1.3704
1.36468
1.36048
1.35743
1.35505
1.35342
1.43825
1.41315
1.39265
1.38043
1.37159
1.36581
1.36152
1.35838
1.35593
1.35412
1.43931
1.41216
1.39108
1.37922
1.37045
1.36471
1.36029
1.35706
1.35453
1.35265
1.44045
1.4124
1.391
1.37901
1.36973
1.36352
1.35866
1.35506
1.35227
1.35003
1.3702
1.36973
1.36892
1.36791
1.36681
1.36568
1.36461
1.36362
1.36276
1.36207
1.37825
1.37685
1.3749
1.3728
1.37074
1.3688
1.36704
1.36549
1.36416
1.36307
1.38589
1.38291
1.37913
1.37545
1.37212
1.36923
1.36679
1.36474
1.36306
1.36182
1.39382
1.38888
1.38308
1.37782
1.37329
1.36954
1.3665
1.36402
1.36202
1.36053
1.40135
1.39408
1.38613
1.37936
1.37376
1.36933
1.36581
1.36304
1.3608
1.35922
1.40926
1.39946
1.38934
1.38123
1.37474
1.36977
1.36592
1.36293
1.36055
1.3588
1.41533
1.40287
1.39062
1.38134
1.3741
1.36873
1.36462
1.36149
1.35898
1.35721
1.42265
1.40769
1.39357
1.38343
1.37562
1.36997
1.36564
1.36234
1.35974
1.35778
1.42539
1.40839
1.39327
1.38282
1.37474
1.36889
1.36437
1.36095
1.35825
1.35623
1.42753
1.40896
1.393
1.38202
1.37346
1.36724
1.3624
1.35871
1.35584
1.35354
1.36865
1.36838
1.36796
1.36743
1.36683
1.3662
1.36558
1.36499
1.36446
1.36405
1.37446
1.37383
1.37289
1.37176
1.37055
1.36934
1.36819
1.36713
1.36619
1.3654
1.37945
1.37808
1.37619
1.37413
1.37209
1.37018
1.36845
1.36691
1.36559
1.36459
1.38517
1.38281
1.37971
1.37653
1.37354
1.37086
1.36853
1.36652
1.36484
1.36352
1.39104
1.38739
1.38286
1.37848
1.37453
1.37113
1.36826
1.36587
1.36387
1.3624
1.39769
1.39251
1.38641
1.38083
1.37599
1.37196
1.36865
1.36594
1.36372
1.36203
1.40299
1.39603
1.38826
1.38153
1.37586
1.3713
1.36761
1.36466
1.36224
1.36047
1.40995
1.40118
1.39182
1.3841
1.37773
1.37272
1.36871
1.36553
1.36297
1.361
1.41324
1.40288
1.39242
1.38401
1.37712
1.37175
1.36747
1.36413
1.36146
1.35943
1.41539
1.4035
1.39203
1.38296
1.37559
1.36988
1.36534
1.36179
1.35899
1.35673
1.36784
1.36771
1.36752
1.36726
1.36695
1.36662
1.36627
1.36594
1.36565
1.36543
1.37228
1.372
1.37153
1.37093
1.37026
1.36954
1.36884
1.36816
1.36754
1.367
1.37573
1.37512
1.37418
1.37305
1.37183
1.3706
1.36942
1.36833
1.36737
1.36662
1.37976
1.37865
1.37703
1.37517
1.37327
1.37144
1.36974
1.36821
1.36688
1.3658
1.38417
1.38238
1.37987
1.37717
1.3745
1.37203
1.36981
1.36788
1.3662
1.36493
1.3895
1.38683
1.38329
1.37966
1.37622
1.37314
1.37045
1.36815
1.36621
1.36468
1.39371
1.38996
1.38525
1.38065
1.37644
1.37279
1.36967
1.36707
1.36488
1.36323
1.39982
1.39489
1.38899
1.38347
1.37855
1.37438
1.37089
1.36801
1.36564
1.36378
1.40294
1.3969
1.38999
1.38366
1.37812
1.37353
1.36973
1.36666
1.36415
1.36221
1.40446
1.39727
1.38946
1.3825
1.37652
1.3716
1.36757
1.36432
1.3617
1.35956
1.36774
1.36767
1.36756
1.36742
1.36726
1.36708
1.36689
1.36671
1.36656
1.36646
1.37125
1.3711
1.37085
1.37052
1.37013
1.36971
1.36929
1.36887
1.36848
1.36813
1.37382
1.37351
1.37299
1.37233
1.37158
1.3708
1.37003
1.36929
1.36862
1.36809
1.37666
1.37609
1.37519
1.37407
1.37286
1.37162
1.37043
1.36932
1.36832
1.36749
1.37995
1.37902
1.37759
1.37591
1.37413
1.37238
1.37073
1.36924
1.36792
1.36689
1.38412
1.38271
1.38064
1.3783
1.37591
1.37363
1.37154
1.36969
1.36809
1.36678
1.38729
1.38525
1.38241
1.37933
1.3763
1.37349
1.37098
1.36881
1.36693
1.36548
1.39246
1.38969
1.38601
1.38218
1.37851
1.37521
1.37232
1.36985
1.36777
1.3661
1.39501
1.39148
1.38697
1.38241
1.37817
1.37445
1.37124
1.36857
1.36633
1.36457
1.39575
1.39148
1.38631
1.38122
1.37658
1.37256
1.36914
1.3663
1.36397
1.36202
1.36793
1.36789
1.36783
1.36776
1.36767
1.36758
1.36747
1.36738
1.3673
1.36728
1.37076
1.37068
1.37055
1.37036
1.37015
1.36991
1.36966
1.36941
1.36917
1.36895
1.37275
1.37257
1.37227
1.37189
1.37144
1.37095
1.37045
1.36997
1.36952
1.36917
1.37475
1.37444
1.37391
1.37323
1.37246
1.37164
1.37083
1.37005
1.36934
1.36873
1.37726
1.37674
1.37589
1.37483
1.37365
1.37244
1.37126
1.37016
1.36916
1.36837
1.38054
1.37976
1.37851
1.37699
1.37536
1.37372
1.37216
1.37074
1.36947
1.36841
1.38286
1.38171
1.37997
1.37792
1.37577
1.37369
1.37175
1.37001
1.36847
1.36726
1.38715
1.38557
1.38326
1.38065
1.37799
1.37547
1.37318
1.37116
1.36942
1.36798
1.38894
1.38686
1.38395
1.38077
1.37764
1.37475
1.37217
1.36994
1.36802
1.36649
1.38905
1.38652
1.38316
1.37958
1.37611
1.37296
1.37019
1.36781
1.3658
1.3641
1.36828
1.36825
1.36822
1.36818
1.36813
1.36808
1.36803
1.36798
1.36795
1.36797
1.37062
1.37057
1.3705
1.3704
1.37027
1.37014
1.36999
1.36984
1.3697
1.36956
1.37219
1.37208
1.37191
1.37168
1.37141
1.37111
1.3708
1.37049
1.3702
1.36998
1.37355
1.37337
1.37305
1.37264
1.37215
1.37162
1.37108
1.37056
1.37006
1.36963
1.37548
1.37517
1.37465
1.37398
1.37321
1.37239
1.37157
1.37078
1.37006
1.36947
1.37808
1.37762
1.37684
1.37586
1.37475
1.3736
1.37248
1.37142
1.37046
1.36964
1.37972
1.37904
1.37794
1.37658
1.37509
1.37359
1.37214
1.3708
1.36959
1.36863
1.38329
1.38236
1.38089
1.37912
1.37724
1.37538
1.37363
1.37205
1.37065
1.36946
1.38434
1.3831
1.38124
1.37907
1.37683
1.37466
1.37265
1.37087
1.3693
1.36802