/*--------------------------------*- C++ -*----------------------------------*\
| =========                 |                                                 |
| \\      /  F ield         | foam-extend: Open Source CFD                    |
|  \\    /   O peration     | Version:     4.0                                |
|   \\  /    A nd           | Web:         http://www.foam-extend.org         |
|    \\/     M anipulation  |                                                 |
\*---------------------------------------------------------------------------*/
FoamFile
{
    version     2.0;
    format      ascii;
    class       volScalarField;
    location    "1600";
    object      T;
}
// * * * * * * * * * * * * * * * * * * * * * * * * * * * * * * * * * * * * * //

dimensions      [0 0 0 1 0 0 0];

internalField   nonuniform List<scalar> 
34480
(
278.811
278.7
278.619
278.565
278.532
278.523
278.538
278.623
278.895
278.861
278.26
278.142
278.049
277.982
277.949
277.952
277.977
278.022
278.238
277.794
278.15
278.018
277.913
277.838
277.801
277.788
277.769
277.715
277.843
277.067
278.192
278.039
277.91
277.808
277.736
277.672
277.588
277.43
277.436
276.312
278.206
278.029
277.871
277.736
277.622
277.502
277.349
277.08
276.93
275.45
278.275
278.075
277.894
277.733
277.584
277.414
277.194
276.81
276.474
274.611
278.302
278.077
277.872
277.686
277.506
277.292
277.009
276.512
275.965
273.714
278.374
278.126
277.909
277.715
277.527
277.297
276.981
276.399
275.643
272.973
278.432
278.163
277.928
277.715
277.503
277.246
276.886
276.221
275.255
272.23
279.248
278.968
278.764
278.622
278.517
278.397
278.187
277.661
276.654
273.198
279.345
279.252
279.216
279.232
279.304
279.451
279.711
280.168
280.837
281.707
278.695
278.612
278.578
278.596
278.676
278.843
279.134
279.632
280.425
281.446
278.491
278.413
278.383
278.403
278.49
278.662
278.95
279.44
280.291
281.407
278.439
278.359
278.326
278.337
278.41
278.561
278.825
279.291
280.171
281.334
278.365
278.281
278.239
278.238
278.292
278.413
278.646
279.072
279.953
281.131
278.357
278.269
278.222
278.212
278.25
278.346
278.543
278.921
279.773
280.928
278.315
278.22
278.167
278.147
278.172
278.243
278.406
278.731
279.53
280.644
278.333
278.237
278.185
278.171
278.198
278.265
278.409
278.688
279.414
280.436
278.349
278.246
278.189
278.166
278.181
278.232
278.351
278.582
279.227
280.17
279.114
279.023
279.002
279.045
279.148
279.302
279.521
279.826
280.421
281.089
279.819
279.72
279.685
279.705
279.783
279.929
280.16
280.506
281.005
281.628
279.163
279.065
279.03
279.054
279.145
279.319
279.609
280.065
280.772
281.7
278.943
278.845
278.81
278.834
278.93
279.117
279.434
279.949
280.821
282.035
278.86
278.758
278.717
278.735
278.823
279.002
279.32
279.864
280.871
282.336
278.757
278.649
278.601
278.607
278.68
278.84
279.145
279.693
280.796
282.468
278.721
278.609
278.556
278.553
278.614
278.754
279.038
279.569
280.732
282.556
278.657
278.538
278.479
278.467
278.515
278.634
278.893
279.396
280.583
282.522
278.655
278.535
278.477
278.469
278.518
278.631
278.872
279.342
280.518
282.517
278.654
278.53
278.468
278.453
278.494
278.595
278.813
279.241
280.38
282.458
279.387
279.275
279.239
279.274
279.379
279.553
279.839
280.306
281.389
283.386
280.158
280.072
280.042
280.062
280.13
280.251
280.429
280.67
280.975
281.314
279.531
279.438
279.406
279.432
279.52
279.68
279.926
280.279
280.764
281.312
279.321
279.221
279.186
279.214
279.312
279.495
279.789
280.23
280.886
281.678
279.227
279.117
279.076
279.1
279.199
279.389
279.708
280.213
281.033
282.082
279.107
278.989
278.942
278.957
279.048
279.232
279.56
280.104
281.064
282.355
279.054
278.93
278.877
278.886
278.968
279.142
279.467
280.029
281.102
282.602
278.972
278.842
278.784
278.784
278.857
279.017
279.331
279.895
281.05
282.732
278.954
278.822
278.765
278.767
278.841
278.998
279.304
279.857
281.056
282.875
278.939
278.805
278.744
278.741
278.809
278.957
279.251
279.784
280.987
282.955
279.638
279.515
279.473
279.505
279.617
279.815
280.153
280.714
281.888
283.888
280.388
280.321
280.298
280.313
280.364
280.449
280.569
280.718
280.887
281.054
279.808
279.73
279.703
279.725
279.799
279.927
280.113
280.359
280.659
280.954
279.628
279.535
279.503
279.529
279.619
279.778
280.021
280.359
280.807
281.274
279.538
279.431
279.392
279.417
279.514
279.693
279.978
280.397
281.001
281.675
279.417
279.297
279.252
279.272
279.368
279.554
279.866
280.346
281.097
281.988
279.355
279.228
279.176
279.192
279.285
279.472
279.799
280.321
281.205
282.303
279.265
279.129
279.072
279.081
279.169
279.351
279.682
280.231
281.226
282.52
279.236
279.098
279.04
279.051
279.141
279.323
279.657
280.217
281.291
282.754
279.209
279.07
279.01
279.016
279.101
279.278
279.61
280.173
281.287
282.931
279.876
279.747
279.699
279.73
279.845
280.057
280.417
281.005
282.119
283.86
280.54
280.49
280.474
280.484
280.519
280.575
280.65
280.738
280.831
280.92
280.01
279.95
279.929
279.946
280.002
280.096
280.228
280.389
280.569
280.728
279.866
279.788
279.761
279.783
279.857
279.986
280.172
280.414
280.704
280.976
279.792
279.695
279.66
279.684
279.771
279.927
280.163
280.485
280.904
281.322
279.68
279.568
279.525
279.547
279.64
279.813
280.087
280.479
281.029
281.613
279.619
279.496
279.447
279.466
279.562
279.745
280.047
280.496
281.174
281.931
279.527
279.394
279.34
279.354
279.448
279.635
279.955
280.447
281.241
282.172
279.493
279.355
279.3
279.316
279.413
279.605
279.937
280.459
281.345
282.439
279.458
279.319
279.261
279.274
279.369
279.56
279.897
280.439
281.385
282.656
280.094
279.963
279.914
279.944
280.059
280.273
280.631
281.198
282.165
283.55
280.639
280.603
280.592
280.599
280.62
280.655
280.7
280.75
280.801
280.852
280.155
280.112
280.096
280.109
280.148
280.213
280.301
280.403
280.508
280.595
280.047
279.986
279.964
279.981
280.039
280.136
280.271
280.437
280.619
280.778
279.992
279.911
279.881
279.902
279.975
280.102
280.286
280.522
280.802
281.06
279.896
279.797
279.76
279.781
279.864
280.013
280.24
280.544
280.931
281.309
279.843
279.731
279.687
279.707
279.797
279.964
280.226
280.592
281.089
281.599
279.755
279.63
279.581
279.598
279.691
279.868
280.157
280.575
281.179
281.83
279.721
279.59
279.538
279.557
279.655
279.842
280.151
280.608
281.303
282.093
279.682
279.548
279.494
279.511
279.609
279.798
280.119
280.605
281.367
282.308
280.288
280.161
280.112
280.141
280.252
280.459
280.796
281.308
282.102
283.147
280.704
280.677
280.67
280.674
280.687
280.707
280.733
280.761
280.79
280.822
280.259
280.229
280.218
280.227
280.253
280.296
280.352
280.415
280.476
280.525
280.183
280.137
280.12
280.133
280.175
280.245
280.339
280.449
280.562
280.655
280.147
280.082
280.058
280.074
280.132
280.23
280.367
280.535
280.719
280.877
280.07
279.987
279.956
279.973
280.043
280.166
280.344
280.572
280.837
281.079
280.029
279.93
279.892
279.911
279.991
280.135
280.351
280.637
280.991
281.33
279.948
279.836
279.792
279.81
279.896
280.055
280.302
280.641
281.086
281.532
279.918
279.799
279.752
279.772
279.864
280.036
280.308
280.69
281.216
281.772
279.877
279.753
279.704
279.723
279.817
279.995
280.282
280.698
281.288
281.963
280.455
280.337
280.291
280.317
280.421
280.612
280.914
281.355
281.98
282.738
280.747
280.726
280.721
280.723
280.73
280.742
280.757
280.773
280.789
280.812
280.334
280.314
280.307
280.312
280.329
280.356
280.391
280.429
280.465
280.492
280.283
280.251
280.239
280.248
280.277
280.325
280.388
280.459
280.529
280.584
280.264
280.214
280.196
280.208
280.252
280.324
280.422
280.538
280.657
280.754
280.206
280.139
280.114
280.129
280.185
280.281
280.416
280.58
280.759
280.913
280.178
280.096
280.064
280.081
280.148
280.266
280.436
280.652
280.9
281.122
280.107
280.01
279.973
279.99
280.065
280.201
280.403
280.667
280.988
281.29
280.085
279.98
279.939
279.958
280.041
280.192
280.42
280.726
281.114
281.498
280.043
279.933
279.889
279.908
279.994
280.153
280.399
280.739
281.182
281.654
280.593
280.488
280.446
280.47
280.563
280.733
280.992
281.355
281.832
282.364
280.774
280.757
280.754
280.754
280.759
280.765
280.774
280.782
280.792
280.81
280.389
280.376
280.371
280.375
280.385
280.402
280.423
280.445
280.467
280.482
280.359
280.337
280.328
280.334
280.354
280.386
280.427
280.472
280.515
280.547
280.351
280.315
280.301
280.31
280.341
280.393
280.461
280.538
280.615
280.675
280.311
280.26
280.24
280.252
280.294
280.367
280.465
280.58
280.7
280.798
280.295
280.229
280.204
280.218
280.271
280.364
280.494
280.652
280.822
280.968
280.234
280.154
280.123
280.138
280.201
280.311
280.471
280.67
280.896
281.099
280.222
280.134
280.099
280.116
280.187
280.313
280.497
280.735
281.013
281.275
280.18
280.085
280.048
280.065
280.141
280.276
280.479
280.746
281.071
281.394
280.704
280.613
280.576
280.597
280.678
280.822
281.037
281.325
281.678
282.042
280.791
280.776
280.774
280.774
280.776
280.78
280.785
280.79
280.796
280.811
280.43
280.422
280.419
280.421
280.427
280.437
280.45
280.463
280.476
280.485
280.416
280.402
280.396
280.4
280.413
280.433
280.459
280.487
280.513
280.532
280.415
280.389
280.38
280.386
280.407
280.443
280.489
280.54
280.589
280.626
280.39
280.352
280.338
280.346
280.378
280.43
280.5
280.579
280.658
280.719
280.385
280.335
280.315
280.326
280.367
280.438
280.533
280.645
280.761
280.855
280.333
280.269
280.245
280.257
280.307
280.394
280.515
280.661
280.818
280.952
280.333
280.261
280.233
280.247
280.306
280.407
280.55
280.728
280.925
281.1
280.289
280.211
280.181
280.195
280.258
280.369
280.53
280.733
280.966
281.183
280.787
280.712
280.681
280.698
280.766
280.884
281.056
281.277
281.531
281.774
280.8
280.787
280.785
280.785
280.786
280.788
280.791
280.794
280.798
280.811
280.461
280.456
280.454
280.455
280.459
280.465
280.472
280.48
280.488
280.494
280.461
280.452
280.448
280.45
280.459
280.472
280.488
280.505
280.52
280.532
280.462
280.444
280.437
280.441
280.456
280.48
280.51
280.543
280.574
280.597
280.45
280.423
280.413
280.419
280.441
280.478
280.526
280.579
280.63
280.669
280.453
280.416
280.401
280.409
280.44
280.492
280.56
280.638
280.715
280.775
280.408
280.359
280.34
280.35
280.388
280.454
280.543
280.648
280.755
280.843
280.42
280.364
280.342
280.354
280.4
280.478
280.586
280.715
280.851
280.967
280.374
280.311
280.287
280.299
280.35
280.437
280.56
280.71
280.873
281.017
280.845
280.785
280.76
280.774
280.829
280.922
281.054
281.218
281.398
281.557
280.802
280.79
280.789
280.789
280.79
280.791
280.792
280.794
280.797
280.809
280.485
280.482
280.48
280.481
280.483
280.487
280.491
280.496
280.501
280.505
280.497
280.491
280.489
280.491
280.496
280.504
280.513
280.524
280.533
280.539
280.495
280.484
280.479
280.482
280.491
280.507
280.526
280.547
280.567
280.581
280.495
280.476
280.469
280.473
280.489
280.514
280.546
280.58
280.613
280.637
280.504
280.477
280.467
280.472
280.495
280.531
280.578
280.631
280.682
280.72
280.463
280.427
280.413
280.42
280.449
280.497
280.56
280.633
280.705
280.762
280.489
280.447
280.43
280.439
280.474
280.532
280.611
280.702
280.794
280.87
280.437
280.389
280.37
280.379
280.418
280.485
280.575
280.683
280.795
280.889
280.881
280.836
280.816
280.827
280.869
280.94
281.039
281.157
281.281
281.382
280.8
280.789
280.788
280.787
280.788
280.788
280.789
280.79
280.792
280.804
280.503
280.5
280.499
280.5
280.501
280.503
280.506
280.509
280.512
280.515
280.527
280.524
280.523
280.524
280.527
280.532
280.537
280.543
280.548
280.552
280.519
280.512
280.509
280.51
280.516
280.526
280.539
280.552
280.564
280.573
280.528
280.516
280.511
280.514
280.524
280.541
280.561
280.584
280.604
280.619
280.541
280.522
280.515
280.519
280.534
280.559
280.591
280.626
280.659
280.684
280.503
280.477
280.467
280.472
280.493
280.526
280.57
280.62
280.667
280.704
280.542
280.512
280.5
280.507
280.532
280.574
280.63
280.692
280.753
280.802
280.482
280.445
280.431
280.439
280.467
280.516
280.581
280.656
280.731
280.792
280.898
280.865
280.851
280.859
280.89
280.943
281.014
281.096
281.179
281.242
280.793
280.783
280.782
280.782
280.782
280.783
280.783
280.784
280.785
280.795
280.514
280.513
280.512
280.512
280.512
280.514
280.515
280.517
280.52
280.523
280.554
280.552
280.552
280.552
280.554
280.557
280.56
280.563
280.566
280.568
280.536
280.531
280.529
280.53
280.533
280.54
280.547
280.556
280.563
280.569
280.553
280.545
280.542
280.544
280.55
280.561
280.574
280.588
280.601
280.61
280.567
280.555
280.549
280.552
280.562
280.579
280.6
280.623
280.644
280.659
280.531
280.513
280.506
280.51
280.524
280.547
280.576
280.609
280.639
280.663
280.584
280.563
280.555
280.56
280.577
280.607
280.645
280.687
280.727
280.757
280.51
280.484
280.474
280.479
280.5
280.534
280.579
280.63
280.679
280.718
280.901
280.879
280.868
280.874
280.896
280.934
280.983
281.039
281.094
281.132
280.785
280.776
280.775
280.775
280.775
280.776
280.776
280.776
280.777
280.786
280.52
280.518
280.517
280.517
280.518
280.519
280.52
280.521
280.523
280.526
280.578
280.577
280.577
280.578
280.579
280.58
280.582
280.584
280.585
280.586
280.546
280.543
280.542
280.542
280.545
280.548
280.553
280.558
280.563
280.567
280.57
280.565
280.563
280.565
280.569
280.576
280.584
280.592
280.6
280.605
280.584
280.576
280.573
280.574
280.581
280.592
280.605
280.62
280.633
280.642
280.55
280.538
280.533
280.536
280.545
280.56
280.579
280.6
280.619
280.634
280.618
280.604
280.598
280.601
280.613
280.633
280.659
280.686
280.711
280.73
280.526
280.507
280.5
280.504
280.518
280.541
280.571
280.605
280.637
280.662
280.895
280.881
280.873
280.877
280.893
280.918
280.952
280.988
281.024
281.046
280.781
280.773
280.773
280.773
280.773
280.773
280.773
280.773
280.774
280.782
280.517
280.516
280.515
280.515
280.515
280.516
280.516
280.518
280.52
280.523
280.6
280.6
280.6
280.6
280.601
280.602
280.603
280.603
280.604
280.604
280.552
280.55
280.549
280.55
280.551
280.553
280.556
280.559
280.562
280.564
280.581
280.578
280.577
280.578
280.58
280.584
280.589
280.595
280.599
280.602
280.593
280.588
280.585
280.586
280.591
280.598
280.606
280.615
280.623
280.629
280.561
280.554
280.551
280.552
280.558
280.568
280.58
280.593
280.604
280.614
280.643
280.634
280.63
280.632
280.64
280.653
280.669
280.687
280.703
280.714
280.528
280.515
280.511
280.513
280.523
280.538
280.557
280.579
280.598
280.615
280.889
280.88
280.874
280.877
280.887
280.904
280.926
280.95
280.973
280.984
280.795
280.789
280.789
280.789
280.789
280.789
280.789
280.789
280.789
280.795
280.503
280.501
280.5
280.5
280.501
280.501
280.502
280.503
280.504
280.508
280.617
280.617
280.617
280.617
280.617
280.617
280.618
280.619
280.619
280.619
280.554
280.553
280.553
280.553
280.554
280.555
280.557
280.558
280.56
280.561
280.585
280.584
280.583
280.583
280.585
280.587
280.59
280.593
280.596
280.598
280.594
280.591
280.589
280.59
280.592
280.597
280.602
280.607
280.613
280.617
280.566
280.561
280.56
280.561
280.565
280.571
280.578
280.586
280.592
280.598
280.655
280.649
280.646
280.647
280.652
280.661
280.672
280.683
280.694
280.7
280.514
280.506
280.503
280.505
280.511
280.521
280.533
280.546
280.558
280.568
280.896
280.89
280.886
280.888
280.895
280.906
280.92
280.935
280.95
280.955
280.846
280.842
280.842
280.842
280.842
280.842
280.842
280.842
280.842
280.846
280.467
280.466
280.466
280.467
280.467
280.467
280.468
280.468
280.468
280.472
280.621
280.621
280.62
280.62
280.62
280.62
280.621
280.622
280.623
280.624
280.554
280.554
280.554
280.554
280.555
280.556
280.556
280.557
280.557
280.557
280.584
280.583
280.582
280.582
280.583
280.585
280.587
280.589
280.591
280.592
280.589
280.587
280.586
280.586
280.588
280.591
280.594
280.598
280.601
280.604
280.566
280.563
280.562
280.563
280.566
280.57
280.574
280.579
280.582
280.585
280.645
280.64
280.638
280.638
280.642
280.647
280.654
280.662
280.67
280.676
280.476
280.472
280.47
280.471
280.475
280.482
280.49
280.498
280.504
280.51
280.933
280.929
280.926
280.927
280.932
280.939
280.948
280.958
280.968
280.971
280.928
280.926
280.925
280.924
280.924
280.924
280.925
280.926
280.927
280.93
280.41
280.411
280.413
280.414
280.415
280.415
280.414
280.413
280.411
280.41
280.61
280.608
280.606
280.606
280.605
280.606
280.607
280.608
280.611
280.613
280.554
280.555
280.555
280.556
280.556
280.557
280.557
280.557
280.557
280.556
280.581
280.58
280.579
280.579
280.58
280.581
280.582
280.584
280.585
280.587
280.583
280.581
280.581
280.581
280.582
280.584
280.586
280.589
280.591
280.593
280.564
280.563
280.562
280.563
280.565
280.567
280.571
280.574
280.576
280.577
280.612
280.608
280.606
280.606
280.609
280.613
280.618
280.624
280.631
280.637
280.416
280.414
280.413
280.415
280.418
280.422
280.428
280.433
280.436
280.436
280.992
280.988
280.986
280.987
280.99
280.996
281.003
281.01
281.018
281.02
289.474
291.232
291.496
289.907
290.639
292.769
293.178
291.518
292.301
294.927
295.461
293.489
293.583
296.65
297.318
295.135
294.528
298.005
298.814
296.491
295.276
299.132
300.101
297.908
295.822
300.039
301.199
299.332
296.294
300.834
302.201
300.712
296.508
301.348
302.929
301.865
297.067
302.097
303.944
303.465
286.162
286.709
286.69
286.166
287.46
288.103
288.041
287.388
289.064
289.868
289.756
288.898
290.505
291.454
291.284
290.232
291.681
292.772
292.535
291.3
292.703
293.931
293.67
292.277
293.509
294.868
294.619
293.091
294.205
295.67
295.443
293.805
294.643
296.172
295.973
294.27
295.429
296.931
296.843
295.194
282.254
282.388
282.419
282.35
282.983
283.201
283.241
283.104
284.15
284.488
284.532
284.282
285.418
285.876
285.916
285.536
286.581
287.155
287.182
286.66
287.717
288.403
288.416
287.755
288.709
289.503
289.503
288.718
289.648
290.535
290.525
289.636
290.407
291.334
291.324
290.383
291.65
292.507
292.536
291.673
281.486
281.552
281.574
281.552
281.745
281.83
281.86
281.838
282.454
282.602
282.644
282.59
283.331
283.552
283.604
283.503
284.172
284.471
284.528
284.365
285.062
285.442
285.5
285.263
285.881
286.342
286.398
286.079
286.718
287.25
287.302
286.902
287.474
288.039
288.087
287.632
288.818
289.309
289.37
288.958
281.055
281.091
281.104
281.092
281.093
281.123
281.137
281.136
281.544
281.601
281.627
281.622
282.155
282.254
282.293
282.276
282.751
282.9
282.951
282.913
283.419
283.623
283.685
283.616
284.044
284.309
284.377
284.267
284.719
285.04
285.111
284.954
285.357
285.706
285.776
285.579
286.609
286.887
286.963
286.802
280.884
280.914
280.923
280.912
280.788
280.801
280.808
280.808
281.093
281.119
281.132
281.133
281.534
281.58
281.603
281.604
281.961
282.036
282.07
282.066
282.461
282.57
282.616
282.604
282.927
283.075
283.131
283.105
283.45
283.638
283.702
283.654
283.953
284.163
284.228
284.158
285.074
285.217
285.285
285.254
280.803
280.829
280.837
280.825
280.621
280.627
280.63
280.631
280.832
280.844
280.851
280.852
281.161
281.184
281.196
281.198
281.479
281.516
281.536
281.539
281.864
281.921
281.951
281.953
282.215
282.297
282.336
282.335
282.622
282.729
282.776
282.768
283.002
283.126
283.175
283.157
283.999
284.056
284.108
284.134
280.768
280.794
280.801
280.79
280.538
280.541
280.543
280.543
280.683
280.689
280.692
280.693
280.929
280.941
280.948
280.95
281.168
281.188
281.2
281.202
281.471
281.502
281.52
281.524
281.74
281.786
281.81
281.815
282.059
282.12
282.151
282.154
282.339
282.411
282.446
282.445
283.232
283.237
283.272
283.318
280.756
280.782
280.789
280.777
280.499
280.501
280.502
280.502
280.599
280.602
280.604
280.604
280.783
280.789
280.793
280.794
280.962
280.973
280.98
280.982
281.201
281.218
281.229
281.232
281.406
281.432
281.447
281.451
281.658
281.694
281.713
281.718
281.863
281.906
281.928
281.932
282.668
282.642
282.664
282.715
280.754
280.78
280.787
280.775
280.486
280.487
280.488
280.488
280.555
280.557
280.558
280.558
280.692
280.695
280.697
280.698
280.826
280.832
280.836
280.837
281.013
281.023
281.029
281.031
281.166
281.181
281.191
281.194
281.367
281.388
281.4
281.404
281.515
281.54
281.554
281.558
282.244
282.201
282.213
282.264
280.755
280.781
280.788
280.776
280.488
280.488
280.489
280.489
280.537
280.538
280.539
280.539
280.636
280.638
280.639
280.64
280.736
280.74
280.742
280.743
280.882
280.888
280.892
280.893
280.993
281.002
281.008
281.01
281.154
281.167
281.174
281.177
281.256
281.271
281.28
281.283
281.919
281.867
281.873
281.921
280.756
280.782
280.789
280.777
280.496
280.496
280.497
280.497
280.534
280.535
280.535
280.535
280.603
280.605
280.606
280.606
280.679
280.681
280.682
280.683
280.792
280.796
280.798
280.799
280.868
280.874
280.877
280.879
281
281.007
281.012
281.014
281.063
281.072
281.078
281.08
281.667
281.611
281.614
281.659
280.755
280.781
280.788
280.776
280.506
280.507
280.507
280.507
280.541
280.541
280.541
280.541
280.585
280.586
280.587
280.587
280.644
280.645
280.646
280.646
280.731
280.733
280.735
280.735
280.778
280.782
280.784
280.785
280.89
280.894
280.897
280.898
280.92
280.925
280.929
280.93
281.469
281.414
281.415
281.456
280.752
280.778
280.784
280.772
280.516
280.517
280.517
280.517
280.553
280.553
280.553
280.553
280.576
280.577
280.577
280.577
280.623
280.624
280.624
280.625
280.69
280.691
280.692
280.693
280.715
280.717
280.718
280.719
280.814
280.817
280.818
280.819
280.813
280.817
280.819
280.819
281.314
281.261
281.261
281.298
280.745
280.772
280.778
280.766
280.524
280.524
280.525
280.525
280.568
280.568
280.568
280.568
280.571
280.572
280.572
280.572
280.612
280.613
280.613
280.613
280.663
280.664
280.665
280.665
280.67
280.671
280.672
280.673
280.764
280.766
280.767
280.767
280.733
280.736
280.737
280.737
281.191
281.142
281.141
281.175
280.739
280.765
280.771
280.759
280.528
280.528
280.529
280.529
280.586
280.586
280.586
280.586
280.568
280.569
280.569
280.569
280.607
280.607
280.607
280.607
280.645
280.646
280.646
280.646
280.639
280.639
280.64
280.64
280.734
280.735
280.735
280.736
280.673
280.675
280.675
280.675
281.093
281.05
281.049
281.079
280.738
280.764
280.769
280.756
280.525
280.526
280.526
280.526
280.604
280.604
280.604
280.604
280.565
280.566
280.566
280.566
280.603
280.603
280.603
280.603
280.631
280.632
280.632
280.632
280.616
280.616
280.617
280.617
280.717
280.717
280.718
280.718
280.624
280.625
280.625
280.625
281.022
280.985
280.985
281.009
280.756
280.781
280.786
280.773
280.511
280.512
280.512
280.513
280.619
280.619
280.619
280.619
280.562
280.562
280.562
280.562
280.599
280.599
280.599
280.599
280.618
280.619
280.619
280.619
280.598
280.598
280.598
280.598
280.703
280.704
280.704
280.705
280.576
280.577
280.577
280.576
280.983
280.955
280.954
280.973
280.815
280.837
280.84
280.828
280.476
280.477
280.477
280.477
280.625
280.625
280.625
280.625
280.557
280.557
280.557
280.557
280.593
280.593
280.593
280.593
280.605
280.605
280.606
280.606
280.584
280.584
280.584
280.584
280.681
280.682
280.683
280.683
280.514
280.515
280.515
280.514
280.991
280.973
280.973
280.985
280.912
280.925
280.927
280.919
280.412
280.413
280.412
280.411
280.617
280.618
280.619
280.619
280.555
280.554
280.554
280.554
280.588
280.588
280.588
280.588
280.595
280.595
280.595
280.595
280.575
280.574
280.574
280.574
280.647
280.649
280.65
280.649
280.432
280.431
280.431
280.43
281.037
281.033
281.033
281.036
282.182
280.881
280.339
279.992
279.698
279.456
279.264
279.113
278.991
278.886
282.328
281.089
280.255
279.731
279.315
279.007
278.78
278.609
278.48
278.375
282.902
281.596
280.466
279.827
279.327
278.98
278.726
278.536
278.392
278.278
283.499
282.133
280.735
280.031
279.466
279.095
278.822
278.617
278.461
278.336
283.979
282.59
280.945
280.192
279.567
279.176
278.884
278.666
278.5
278.367
284.53
283.084
281.217
280.427
279.742
279.333
279.02
278.787
278.606
278.455
285.013
283.485
281.419
280.606
279.864
279.441
279.106
278.86
278.665
278.503
285.581
283.976
281.723
280.894
280.092
279.653
279.289
279.018
278.795
278.602
286.031
284.368
281.937
281.132
280.296
279.852
279.452
279.152
278.9
278.681
287.763
286.1
283.513
282.655
281.693
281.124
280.599
280.195
279.86
279.565
283.98
282.671
281.683
280.97
280.477
280.131
279.88
279.692
279.547
279.425
284.427
282.641
281.31
280.45
279.897
279.519
279.25
279.055
278.912
278.806
285.024
282.83
281.243
280.313
279.718
279.321
279.041
278.84
278.697
278.595
285.513
283.017
281.237
280.284
279.663
279.26
278.979
278.78
278.639
278.539
285.781
283.074
281.164
280.205
279.563
279.162
278.884
278.691
278.556
278.462
285.981
283.146
281.144
280.196
279.537
279.143
278.869
278.681
278.549
278.455
286.027
283.128
281.055
280.137
279.466
279.085
278.815
278.633
278.505
278.413
286.084
283.188
281.059
280.184
279.501
279.135
278.863
278.68
278.544
278.441
286.043
283.178
281.002
280.207
279.539
279.203
278.924
278.733
278.586
278.47
286.952
284.239
282.067
281.324
280.607
280.215
279.867
279.621
279.427
279.282
282.113
281.734
281.364
281.034
280.752
280.515
280.318
280.154
280.017
279.899
282.575
281.893
281.275
280.764
280.351
280.023
279.765
279.565
279.409
279.29
283.348
282.332
281.465
280.797
280.281
279.889
279.591
279.366
279.197
279.073
284.118
282.78
281.679
280.883
280.287
279.853
279.532
279.295
279.119
278.992
284.694
283.072
281.771
280.877
280.223
279.763
279.431
279.189
279.013
278.887
285.204
283.344
281.871
280.909
280.212
279.738
279.4
279.158
278.982
278.854
285.552
283.497
281.879
280.873
280.146
279.669
279.33
279.091
278.916
278.789
285.875
283.676
281.939
280.914
280.168
279.694
279.353
279.112
278.932
278.797
286.08
283.763
281.926
280.923
280.185
279.73
279.387
279.139
278.95
278.806
287.068
284.747
282.873
281.892
281.125
280.633
280.245
279.96
279.74
279.579
281.508
281.361
281.183
281.003
280.832
280.677
280.54
280.42
280.313
280.216
281.715
281.426
281.095
280.779
280.499
280.259
280.058
279.892
279.756
279.649
282.344
281.859
281.349
280.894
280.51
280.194
279.939
279.735
279.575
279.453
283.077
282.361
281.654
281.063
280.584
280.206
279.91
279.679
279.502
279.368
283.706
282.745
281.846
281.134
280.576
280.151
279.826
279.579
279.392
279.253
284.322
283.122
282.042
281.227
280.604
280.145
279.801
279.543
279.349
279.205
284.812
283.384
282.139
281.242
280.569
280.088
279.732
279.469
279.271
279.125
285.286
283.655
282.265
281.31
280.601
280.107
279.742
279.474
279.269
279.116
285.655
283.833
282.318
281.34
280.62
280.128
279.757
279.481
279.27
279.109
286.702
284.776
283.202
282.217
281.468
280.948
280.546
280.245
280.013
279.845
281.1
281.053
280.982
280.898
280.81
280.723
280.64
280.563
280.49
280.418
281.108
280.994
280.84
280.672
280.507
280.353
280.214
280.093
279.989
279.904
281.562
281.355
281.092
280.822
280.57
280.345
280.151
279.987
279.853
279.747
282.156
281.818
281.42
281.037
280.695
280.403
280.16
279.96
279.8
279.675
282.702
282.208
281.662
281.167
280.741
280.391
280.107
279.88
279.701
279.565
283.282
282.616
281.918
281.316
280.816
280.417
280.102
279.855
279.661
279.514
283.776
282.93
282.082
281.384
280.821
280.384
280.046
279.785
279.582
279.428
284.278
283.254
282.266
281.489
280.875
280.412
280.056
279.783
279.571
279.409
284.696
283.49
282.376
281.548
280.905
280.429
280.06
279.778
279.559
279.39
285.734
284.406
283.221
282.361
281.687
281.186
280.794
280.493
280.259
280.09
280.927
280.909
280.877
280.835
280.789
280.741
280.692
280.645
280.597
280.547
280.797
280.745
280.669
280.579
280.484
280.389
280.299
280.216
280.144
280.082
281.112
281.015
280.876
280.719
280.561
280.41
280.273
280.152
280.049
279.964
281.564
281.399
281.177
280.939
280.708
280.498
280.312
280.153
280.02
279.913
281.995
281.742
281.42
281.092
280.788
280.52
280.291
280.099
279.942
279.817
282.485
282.125
281.692
281.273
280.897
280.576
280.309
280.09
279.912
279.773
282.92
282.438
281.886
281.378
280.936
280.571
280.272
280.032
279.839
279.69
283.382
282.769
282.101
281.512
281.014
280.612
280.289
280.031
279.826
279.666
283.776
283.021
282.243
281.594
281.056
280.631
280.29
280.021
279.807
279.64
284.76
283.9
283.053
282.36
281.79
281.34
280.98
280.695
280.47
280.306
280.843
280.837
280.822
280.801
280.777
280.751
280.724
280.696
280.665
280.629
280.626
280.602
280.564
280.515
280.461
280.404
280.348
280.295
280.247
280.205
280.843
280.795
280.721
280.631
280.534
280.438
280.345
280.261
280.186
280.122
281.183
281.099
280.974
280.83
280.68
280.536
280.402
280.282
280.178
280.092
281.513
281.38
281.191
280.982
280.774
280.579
280.404
280.251
280.122
280.016
281.909
281.714
281.45
281.17
280.901
280.656
280.442
280.259
280.106
279.983
282.265
281.994
281.646
281.292
280.963
280.673
280.424
280.216
280.044
279.907
282.659
282.302
281.865
281.441
281.058
280.728
280.451
280.222
280.035
279.886
282.993
282.538
282.017
281.534
281.109
280.751
280.453
280.21
280.012
279.856
283.899
283.369
282.788
282.262
281.804
281.422
281.106
280.85
280.643
280.49
280.808
280.807
280.8
280.789
280.776
280.762
280.747
280.73
280.71
280.683
280.541
280.528
280.508
280.481
280.45
280.416
280.382
280.349
280.319
280.291
280.688
280.663
280.622
280.57
280.512
280.451
280.391
280.333
280.282
280.237
280.942
280.897
280.826
280.738
280.643
280.546
280.453
280.367
280.29
280.225
281.191
281.118
281.007
280.875
280.736
280.599
280.471
280.355
280.253
280.169
281.505
281.396
281.236
281.053
280.866
280.687
280.523
280.377
280.252
280.148
281.786
281.632
281.414
281.174
280.937
280.716
280.519
280.348
280.202
280.083
282.108
281.9
281.62
281.325
281.04
280.782
280.556
280.363
280.2
280.068
282.374
282.104
281.764
281.418
281.095
280.808
280.56
280.351
280.177
280.036
283.196
282.878
282.492
282.108
281.755
281.446
281.181
280.96
280.777
280.642
280.796
280.797
280.793
280.788
280.781
280.773
280.764
280.754
280.741
280.72
280.501
280.495
280.483
280.468
280.45
280.431
280.41
280.39
280.371
280.354
280.602
280.588
280.564
280.534
280.499
280.461
280.423
280.386
280.351
280.321
280.79
280.765
280.724
280.67
280.61
280.547
280.484
280.424
280.369
280.322
280.976
280.935
280.868
280.785
280.694
280.6
280.509
280.424
280.348
280.283
281.223
281.161
281.063
280.944
280.816
280.689
280.568
280.457
280.359
280.276
281.438
281.348
281.212
281.053
280.886
280.724
280.573
280.438
280.319
280.221
281.697
281.575
281.397
281.195
280.99
280.796
280.618
280.461
280.326
280.214
281.9
281.74
281.52
281.28
281.043
280.822
280.623
280.451
280.304
280.183
282.642
282.454
282.201
281.931
281.668