/*--------------------------------*- C++ -*----------------------------------*\
| =========                 |                                                 |
| \\      /  F ield         | foam-extend: Open Source CFD                    |
|  \\    /   O peration     | Version:     4.0                                |
|   \\  /    A nd           | Web:         http://www.foam-extend.org         |
|    \\/     M anipulation  |                                                 |
\*---------------------------------------------------------------------------*/
FoamFile
{
    version     2.0;
    format      ascii;
    class       volVectorField;
    location    "1600";
    object      Urel;
}
// * * * * * * * * * * * * * * * * * * * * * * * * * * * * * * * * * * * * * //

dimensions      [0 1 -1 0 0 0 0];

internalField   nonuniform List<vector> 
34480
(
(208.996 -9.79553 -19.0909)
(209.316 -9.29507 -21.5533)
(209.473 -8.56956 -23.9797)
(209.48 -7.64491 -26.4131)
(209.33 -6.55988 -28.9917)
(208.988 -5.31731 -31.8911)
(208.373 -3.89749 -35.5116)
(207.206 -2.18424 -40.1976)
(204.535 0.0510725 -48.1193)
(197.596 4.25544 -75.288)
(209.922 -12.8062 -26.8084)
(210.183 -11.6787 -29.5921)
(210.31 -10.3967 -32.2517)
(210.283 -8.97429 -34.8547)
(210.048 -7.44817 -37.5183)
(209.545 -5.83818 -40.4498)
(208.739 -4.16336 -44.109)
(207.447 -2.36979 -49.2378)
(204.311 -0.296002 -58.0584)
(196.151 3.65718 -88.6271)
(210.605 -17.1028 -33.7452)
(210.84 -15.5511 -36.8299)
(210.935 -13.8223 -39.7766)
(210.865 -11.9104 -42.5989)
(210.57 -9.87149 -45.4245)
(210.044 -7.73957 -48.51)
(209.293 -5.54216 -52.384)
(208.15 -3.20958 -58.0749)
(204.85 -0.574972 -67.7733)
(195.641 4.12918 -101.287)
(210.608 -20.4969 -41.1576)
(210.844 -18.4145 -44.5368)
(210.954 -16.1564 -47.7229)
(210.918 -13.7047 -50.7473)
(210.685 -11.1159 -53.7447)
(210.271 -8.42726 -57.0012)
(209.656 -5.67124 -61.0479)
(208.678 -2.76904 -67.1332)
(205.352 0.452198 -77.455)
(195.341 5.84308 -112.876)
(210.763 -24.9728 -48.0195)
(211.029 -22.4809 -51.6763)
(211.177 -19.7756 -55.149)
(211.203 -16.8385 -58.4231)
(211.061 -13.7455 -61.6585)
(210.783 -10.5339 -65.153)
(210.316 -7.23033 -69.4346)
(209.522 -3.74544 -75.9389)
(206.296 0.100739 -86.9284)
(195.642 6.19471 -123.869)
(210.645 -28.227 -55.6159)
(210.922 -25.2352 -59.5096)
(211.09 -22.0156 -63.1508)
(211.15 -18.5473 -66.5686)
(211.076 -14.8976 -69.9151)
(210.915 -11.1094 -73.5127)
(210.601 -7.21121 -77.8733)
(210.021 -3.11628 -84.6046)
(207.043 1.3755 -96.0791)
(195.991 8.10694 -134.169)
(210.724 -33.0087 -62.4742)
(211.041 -29.6279 -66.6083)
(211.238 -25.984 -70.4992)
(211.336 -22.0658 -74.1236)
(211.321 -17.9486 -77.6627)
(211.257 -13.6688 -81.4401)
(211.084 -9.23113 -85.9717)
(210.721 -4.53227 -92.987)
(208.074 0.698891 -105.04)
(196.729 8.26145 -144.123)
(210.55 -36.1794 -70.3211)
(210.871 -32.3267 -74.6625)
(211.047 -28.1648 -78.6815)
(211.104 -23.7085 -82.415)
(211.048 -19.0115 -86.0072)
(210.966 -14.1311 -89.7866)
(210.839 -9.06454 -94.2526)
(210.633 -3.70454 -101.224)
(208.395 2.37157 -113.466)
(197.085 10.8385 -153.053)
(210.493 -41.4425 -77.15)
(210.858 -37.2228 -81.6776)
(211.065 -32.6854 -85.8798)
(211.16 -27.8694 -89.7645)
(211.155 -22.83 -93.5169)
(211.118 -17.5972 -97.4418)
(211.059 -12.1146 -102.073)
(210.994 -6.22978 -109.199)
(209.086 0.77591 -121.813)
(197.661 10.7333 -161.34)
(209.527 -44.6432 -85.112)
(209.803 -40.0413 -89.9207)
(209.751 -35.0024 -94.3254)
(209.393 -29.647 -98.3943)
(208.775 -23.9887 -102.254)
(207.991 -18.0685 -106.184)
(207.124 -11.821 -110.657)
(206.341 -5.05565 -117.273)
(204.408 2.96004 -129.036)
(194.23 14.3057 -166.63)
(205.879 1.91072 3.00099)
(206.357 1.10827 1.54447)
(206.544 0.425293 -0.00924785)
(206.46 -0.11855 -1.60925)
(206.082 -0.547528 -3.3189)
(205.321 -0.862206 -5.15062)
(203.973 -1.06668 -7.15814)
(201.608 -1.17242 -9.31644)
(198.142 -1.2574 -11.2442)
(193.567 -1.15945 -14.3926)
(207.171 2.86519 2.79945)
(207.603 2.16105 1.16354)
(207.775 1.51651 -0.490362)
(207.687 0.941294 -2.18713)
(207.275 0.41425 -3.99427)
(206.42 -0.0707258 -5.96976)
(204.927 -0.528807 -8.20672)
(202.343 -0.995015 -10.9563)
(198.174 -1.58559 -14.0052)
(192.49 -1.82583 -20.5802)
(208.114 2.57491 3.30874)
(208.524 1.76916 1.54681)
(208.682 1.04293 -0.254286)
(208.583 0.421096 -2.08745)
(208.148 -0.134865 -4.02682)
(207.274 -0.637538 -6.15629)
(205.791 -1.11627 -8.66479)
(203.214 -1.5878 -12.0843)
(198.671 -2.15922 -16.3311)
(192.053 -2.07353 -26.7156)
(208.354 3.1763 3.30509)
(208.77 2.4021 1.45811)
(208.95 1.69346 -0.400958)
(208.893 1.0875 -2.2942)
(208.52 0.545811 -4.30693)
(207.749 0.0566466 -6.5657)
(206.378 -0.413131 -9.29632)
(203.895 -0.85647 -13.2559)
(199.122 -1.36529 -18.4743)
(191.691 -0.935657 -32.4536)
(208.704 2.66756 3.8399)
(209.147 1.80843 1.93757)
(209.366 1.04186 -0.0180712)
(209.374 0.408406 -2.00598)
(209.093 -0.14704 -4.1431)
(208.459 -0.63583 -6.58346)
(207.238 -1.09285 -9.56922)
(204.917 -1.48931 -14.0601)
(200.067 -1.90355 -20.2284)
(191.929 -1.07454 -37.6932)
(208.737 3.39273 3.63581)
(209.195 2.54098 1.72159)
(209.439 1.78353 -0.204686)
(209.49 1.16371 -2.1731)
(209.283 0.634949 -4.29478)
(208.776 0.182793 -6.7699)
(207.722 -0.224031 -9.84021)
(205.622 -0.548093 -14.6593)
(200.859 -0.830653 -21.545)
(192.197 0.363972 -42.2107)
(208.94 2.56684 4.1615)
(209.433 1.6161 2.23903)
(209.709 0.78651 0.260984)
(209.805 0.114355 -1.74725)
(209.666 -0.450484 -3.93299)
(209.274 -0.919642 -6.51251)
(208.382 -1.30966 -9.74095)
(206.528 -1.56796 -14.9145)
(201.972 -1.65614 -22.5649)
(192.887 0.00123235 -46.2462)
(208.853 3.37365 3.69736)
(209.355 2.40941 1.80502)
(209.619 1.59802 -0.0864037)
(209.69 0.950772 -2.02211)
(209.534 0.441326 -4.11754)
(209.164 0.0375793 -6.61945)
(208.366 -0.263395 -9.77754)
(206.732 -0.417679 -15.0016)
(202.506 -0.20734 -23.0496)
(193.294 1.83547 -49.2188)
(208.863 2.05566 4.24711)
(209.397 0.977542 2.40372)
(209.69 0.0663086 0.527862)
(209.796 -0.688695 -1.37545)
(209.698 -1.31805 -3.47783)
(209.402 -1.83425 -6.02695)
(208.726 -2.18941 -9.33131)
(207.32 -2.32084 -14.7895)
(203.434 -1.74094 -23.4852)
(193.971 1.00419 -51.4993)
(207.94 2.86455 3.63882)
(208.419 1.69366 1.79124)
(208.536 0.796793 -0.0329187)
(208.324 0.0682872 -1.90331)
(207.797 -0.473643 -3.92707)
(206.991 -0.855039 -6.35034)
(205.793 -1.01274 -9.46564)
(203.993 -0.831643 -14.5599)
(200.256 0.222668 -23.0348)
(191.615 4.03817 -51.3463)
(203.502 1.42663 2.33486)
(204.005 0.832329 1.21688)
(204.187 0.301386 -0.0125903)
(204.083 -0.132823 -1.26269)
(203.682 -0.483335 -2.55386)
(202.935 -0.747601 -3.83168)
(201.75 -0.93539 -5.04834)
(199.974 -1.07223 -6.05418)
(197.42 -1.24354 -6.49803)
(194.202 -1.43282 -6.51656)
(204.892 2.41137 2.31462)
(205.387 1.86917 0.947641)
(205.567 1.34313 -0.447196)
(205.445 0.852709 -1.86415)
(204.981 0.38787 -3.32971)
(204.093 -0.0567663 -4.84653)
(202.62 -0.49455 -6.37822)
(200.292 -0.957196 -7.86167)
(196.669 -1.55614 -8.80143)
(191.828 -2.13816 -9.8102)
(205.921 2.20969 2.94949)
(206.422 1.52675 1.39718)
(206.603 0.888912 -0.206719)
(206.478 0.325726 -1.83583)
(205.991 -0.194795 -3.53643)
(205.039 -0.68262 -5.32533)
(203.423 -1.16254 -7.21236)
(200.779 -1.66478 -9.29009)
(196.278 -2.33377 -11.0014)
(189.837 -2.91299 -13.5837)
(206.315 2.89548 2.99552)
(206.838 2.21913 1.31972)
(207.044 1.57871 -0.378854)
(206.955 1.01382 -2.11008)
(206.505 0.49107 -3.93782)
(205.59 0.000667102 -5.92049)
(203.959 -0.489316 -8.10403)
(201.147 -0.996416 -10.7385)
(195.909 -1.68209 -13.1991)
(187.973 -2.16774 -17.5589)
(206.814 2.42567 3.57008)
(207.369 1.64949 1.80696)
(207.613 0.940538 -0.0176589)
(207.58 0.340465 -1.87522)
(207.2 -0.201067 -3.86702)
(206.374 -0.692608 -6.08371)
(204.801 -1.16967 -8.60006)
(201.945 -1.63831 -11.8295)
(196.159 -2.28687 -15.1286)
(186.903 -2.57874 -21.5725)
(206.978 3.19989 3.39104)
(207.552 2.41724 1.59528)
(207.823 1.70784 -0.2207)
(207.831 1.11502 -2.08233)
(207.514 0.594322 -4.08986)
(206.786 0.133389 -6.38494)
(205.313 -0.303259 -9.06045)
(202.515 -0.715312 -12.7125)
(196.383 -1.27678 -16.7136)
(186.037 -1.34035 -25.3345)
(207.294 2.3905 3.94007)
(207.9 1.50298 2.11795)
(208.2 0.720381 0.232916)
(208.254 0.0788231 -1.68749)
(207.999 -0.470034 -3.78296)
(207.37 -0.934533 -6.21838)
(206.017 -1.33714 -9.11891)
(203.338 -1.66873 -13.2297)
(197.033 -2.06837 -18.0259)
(185.758 -1.79889 -28.9583)
(207.3 3.2354 3.48032)
(207.913 2.33236 1.6849)
(208.207 1.56578 -0.115999)
(208.245 0.948705 -1.96815)
(207.982 0.454572 -3.98228)
(207.381 0.057095 -6.36451)
(206.113 -0.256571 -9.25756)
(203.588 -0.487074 -13.5517)
(197.298 -0.619753 -18.8706)
(185.362 -0.0686485 -31.875)
(207.39 1.90382 4.03455)
(208.023 0.887666 2.27659)
(208.338 0.0351373 0.474395)
(208.404 -0.660393 -1.3596)
(208.184 -1.23084 -3.38537)
(207.645 -1.68649 -5.81227)
(206.488 -1.99202 -8.87328)
(204.157 -2.12596 -13.512)
(198.002 -1.85985 -19.6403)
(185.281 -0.798113 -34.2664)
(206.533 2.77028 3.39393)
(207.114 1.67721 1.66527)
(207.3 0.851107 -0.0510323)
(207.128 0.187815 -1.82265)
(206.592 -0.293159 -3.7461)
(205.682 -0.614861 -6.03529)
(204.168 -0.726034 -8.91915)
(201.6 -0.54675 -13.3028)
(195.582 0.218013 -19.5453)
(182.804 2.30101 -34.6974)
(201.764 0.948018 1.70231)
(202.201 0.546634 0.911978)
(202.352 0.164624 0.00851647)
(202.253 -0.158839 -0.895798)
(201.905 -0.429501 -1.79946)
(201.29 -0.642024 -2.62091)
(200.379 -0.808623 -3.29516)
(199.144 -0.952822 -3.68681)
(197.585 -1.13002 -3.58028)
(195.853 -1.36554 -2.75287)
(203.08 1.90506 1.79259)
(203.549 1.52968 0.719399)
(203.712 1.1327 -0.386401)
(203.581 0.739843 -1.49581)
(203.133 0.352343 -2.60042)
(202.323 -0.0326082 -3.66974)
(201.075 -0.425693 -4.62777)
(199.282 -0.849435 -5.3462)
(196.817 -1.37207 -5.40253)
(194.018 -1.93925 -4.61976)
(204.065 1.75795 2.50474)
(204.576 1.21826 1.20749)
(204.752 0.688745 -0.149202)
(204.611 0.203402 -1.51625)
(204.112 -0.261185 -2.91033)
(203.184 -0.713368 -4.31161)
(201.693 -1.17258 -5.65366)
(199.445 -1.66516 -6.84504)
(196.09 -2.29686 -7.29918)
(192.01 -2.99271 -6.92424)
(204.522 2.52538 2.5882)
(205.079 1.97123 1.13309)
(205.285 1.42016 -0.352967)
(205.163 0.915643 -1.85939)
(204.663 0.432568 -3.42178)
(203.697 -0.0383919 -5.05443)
(202.07 -0.52634 -6.71155)
(199.484 -1.05381 -8.37791)
(195.267 -1.76001 -9.29264)
(189.802 -2.52655 -9.54081)
(205.106 2.10043 3.20378)
(205.707 1.43167 1.62655)
(205.948 0.800176 -0.0184393)
(205.868 0.249995 -1.68566)
(205.403 -0.261273 -3.44971)
(204.461 -0.741605 -5.35425)
(202.784 -1.22397 -7.37997)
(199.981 -1.72767 -9.60975)
(195.014 -2.44236 -11.1393)
(188.21 -3.18177 -12.3689)
(205.36 2.92918 3.05375)
(205.99 2.23928 1.41955)
(206.258 1.59639 -0.242357)
(206.212 1.04589 -1.94212)
(205.787 0.5491 -3.75672)
(204.893 0.0935177 -5.77806)
(203.225 -0.358573 -8.00923)
(200.315 -0.82589 -10.667)
(194.742 -1.50667 -12.7406)
(186.731 -2.16656 -15.1365)
(205.761 2.14614 3.63194)
(206.424 1.34339 1.94867)
(206.719 0.623662 0.195792)
(206.713 0.024599 -1.58735)
(206.335 -0.497743 -3.51911)
(205.507 -0.951183 -5.71554)
(203.885 -1.36227 -8.2196)
(200.947 -1.74405 -11.3659)
(194.916 -2.3 -14.1228)
(185.815 -2.77359 -17.9515)
(205.847 3.04176 3.18314)
(206.517 2.21935 1.51916)
(206.811 1.51098 -0.157927)
(206.793 0.934021 -1.88497)
(206.41 0.463601 -3.75388)
(205.598 0.0774695 -5.9239)
(204.016 -0.246339 -8.46532)
(201.117 -0.535186 -11.8548)
(194.828 -0.879935 -15.1093)
(184.841 -1.19302 -20.3207)
(206.006 1.70867 3.76607)
(206.687 0.771139 2.12496)
(206.997 -0.0161731 0.425383)
(207.003 -0.652549 -1.30626)
(206.654 -1.16933 -3.20823)
(205.885 -1.5737 -5.43575)
(204.361 -1.8452 -8.14093)
(201.552 -1.99475 -11.8872)
(195.192 -1.94675 -15.9855)
(184.23 -1.89824 -22.3835)
(205.217 2.64865 3.10405)
(205.851 1.64571 1.51606)
(206.07 0.893493 -0.0744662)
(205.907 0.29406 -1.72505)
(205.337 -0.131295 -3.5144)
(204.314 -0.402692 -5.61042)
(202.55 -0.481351 -8.16461)
(199.551 -0.316284 -11.7237)
(193.212 0.228598 -16.0572)
(181.759 1.20234 -22.8664)
(200.552 0.5502 1.19445)
(200.894 0.293998 0.666636)
(201.009 0.0331714 0.0362996)
(200.933 -0.196144 -0.582576)
(200.675 -0.397485 -1.18695)
(200.237 -0.563195 -1.69709)
(199.625 -0.702831 -2.06629)
(198.862 -0.831542 -2.20459)
(197.997 -0.975811 -2.02027)
(197.144 -1.14228 -1.42924)
(201.703 1.43257 1.31237)
(202.097 1.19814 0.511291)
(202.234 0.919001 -0.320189)
(202.121 0.62055 -1.14461)
(201.748 0.312028 -1.93495)
(201.1 -0.00533323 -2.64811)
(200.156 -0.336067 -3.20996)
(198.911 -0.690022 -3.51215)
(197.388 -1.09549 -3.32742)
(195.89 -1.51247 -2.51802)
(202.549 1.29118 2.05142)
(203.021 0.88923 1.01676)
(203.183 0.469672 -0.0820414)
(203.049 0.0680259 -1.17906)
(202.597 -0.330429 -2.26624)
(201.789 -0.730348 -3.30213)
(200.558 -1.14495 -4.20224)
(198.84 -1.59177 -4.83661)
(196.557 -2.12614 -4.81291)
(194.167 -2.69492 -3.92746)
(202.987 2.11646 2.14924)
(203.53 1.69041 0.936502)
(203.727 1.23713 -0.314245)
(203.598 0.80298 -1.57284)
(203.108 0.372759 -2.84565)
(202.198 -0.0600716 -4.11306)
(200.748 -0.519663 -5.29289)
(198.616 -1.02528 -6.26969)
(195.526 -1.66493 -6.46598)
(192.056 -2.36939 -5.60818)
(203.585 1.72841 2.79505)
(204.19 1.17883 1.43187)
(204.422 0.635884 -0.00537876)
(204.319 0.146148 -1.45253)
(203.829 -0.322574 -2.95208)
(202.88 -0.776273 -4.50504)
(201.289 -1.24345 -6.04331)
(198.833 -1.74647 -7.4913)
(194.968 -2.42631 -8.08574)
(190.351 -3.19394 -7.5353)
(203.88 2.6071 2.67043)
(204.528 2.02467 1.2278)
(204.79 1.46042 -0.250686)
(204.71 0.962612 -1.75639)
(204.233 0.501242 -3.33519)
(203.278 0.0651399 -5.02824)
(201.608 -0.3831 -6.78274)
(198.924 -0.86985 -8.6048)
(194.364 -1.55889 -9.55952)
(188.623 -2.35286 -9.46085)
(204.328 1.85355 3.27649)
(205.016 1.15139 1.762)
(205.305 0.506218 0.170198)
(205.258 -0.0414702 -1.44353)
(204.808 -0.528495 -3.16681)
(203.875 -0.961834 -5.06144)
(202.175 -1.37029 -7.11035)
(199.34 -1.77888 -9.39577)
(194.185 -2.37913 -10.8779)
(187.36 -3.09906 -11.504)
(204.468 2.80598 2.84039)
(205.169 2.07988 1.33495)
(205.461 1.44085 -0.192341)
(205.405 0.912434 -1.76506)
(204.947 0.47389 -3.44741)
(204.012 0.106629 -5.34268)
(202.296 -0.217952 -7.45678)
(199.39 -0.542403 -9.98963)
(193.809 -0.990491 -11.8662)
(186.026 -1.65579 -13.2478)
(204.68 1.47494 3.45863)
(205.389 0.630804 1.95984)
(205.693 -0.0840015 0.38771)
(205.657 -0.65924 -1.21365)
(205.222 -1.12376 -2.95583)
(204.314 -1.48219 -4.93536)
(202.613 -1.72666 -7.22341)
(199.684 -1.8897 -10.0734)
(193.859 -1.98115 -12.6838)
(185.028 -2.39394 -14.8214)
(203.953 2.50203 2.77599)
(204.619 1.5998 1.34588)
(204.861 0.925545 -0.102481)
(204.705 0.390256 -1.61182)
(204.119 0.0178468 -3.23861)
(203.035 -0.208956 -5.10018)
(201.167 -0.26369 -7.27092)
(198.072 -0.118694 -9.99931)
(192.145 0.260354 -12.8112)
(182.605 0.640901 -15.134)
(199.718 0.250924 0.825361)
(199.972 0.0923591 0.488884)
(200.053 -0.0803012 0.0640638)
(200.002 -0.237234 -0.342293)
(199.827 -0.382805 -0.735027)
(199.539 -0.508037 -1.04621)
(199.154 -0.619171 -1.25067)
(198.703 -0.723693 -1.29404)
(198.226 -0.832334 -1.14388)
(197.77 -0.943856 -0.777682)
(200.691 1.03894 0.911699)
(200.994 0.90961 0.337561)
(201.101 0.726869 -0.259333)
(201.014 0.511207 -0.844408)
(200.73 0.276067 -1.38579)
(200.252 0.0256605 -1.84272)
(199.588 -0.23878 -2.15784)
(198.769 -0.517856 -2.25845)
(197.86 -0.81652 -2.0378)
(197.052 -1.10468 -1.4314)
(201.362 0.860466 1.63683)
(201.76 0.574038 0.843096)
(201.899 0.254013 -0.0143408)
(201.786 -0.0667267 -0.862824)
(201.409 -0.396318 -1.67993)
(200.757 -0.735261 -2.41708)
(199.813 -1.09013 -2.99793)
(198.584 -1.46965 -3.31416)
(197.109 -1.89588 -3.14379)
(195.721 -2.32566 -2.3471)
(201.728 1.71151 1.72107)
(202.217 1.4035 0.74699)
(202.394 1.04609 -0.268337)
(202.272 0.685424 -1.28218)
(201.832 0.31523 -2.27932)
(201.041 -0.0668678 -3.22012)
(199.843 -0.477553 -4.01768)
(198.203 -0.929356 -4.54477)
(196.068 -1.46856 -4.4371)
(193.926 -2.0407 -3.43974)
(202.284 1.34303 2.37812)
(202.853 0.910992 1.23734)
(203.067 0.459745 0.0188666)
(202.957 0.0363817 -1.1992)
(202.485 -0.38107 -2.4316)
(201.605 -0.795257 -3.64841)
(200.21 -1.2279 -4.76284)
(198.206 -1.69854 -5.64642)
(195.387 -2.29691 -5.7743)
(192.379 -2.96185 -4.76651)
(202.578 2.2584 2.26851)
(203.204 1.78756 1.03259)
(203.45 1.30806 -0.245668)
(203.352 0.869943 -1.54091)
(202.867 0.452642 -2.86973)
(201.934 0.0479514 -4.23139)
(200.393 -0.376952 -5.54277)
(198.093 -0.848571 -6.7115)
(194.611 -1.48263 -7.04644)
(190.694 -2.22599 -6.0965)
(203.036 1.53099 2.89527)
(203.713 0.93717 1.56847)
(203.987 0.373881 0.157706)
(203.913 -0.115755 -1.26614)
(203.432 -0.560184 -2.75944)
(202.48 -0.964468 -4.3357)
(200.844 -1.35627 -5.93668)
(198.312 -1.76525 -7.50401)
(194.216 -2.34257 -8.22494)
(189.366 -3.07417 -7.56008)
(203.205 2.54072 2.46921)
(203.903 1.92043 1.14109)
(204.184 1.35871 -0.216916)
(204.102 0.885509 -1.61418)
(203.606 0.485611 -3.0858)
(202.628 0.144516 -4.68304)
(200.926 -0.168279 -6.36028)
(198.237 -0.500561 -8.13992)
(193.655 -0.972701 -9.13474)
(187.923 -1.71635 -8.79532)
(203.452 1.21082 3.12427)
(204.16 0.470103 1.7866)
(204.452 -0.166667 0.361907)
(204.384 -0.679067 -1.08686)
(203.901 -1.09213 -2.64346)
(202.93 -1.40793 -4.35118)
(201.204 -1.62795 -6.21783)
(198.411 -1.79426 -8.27839)
(193.492 -1.95756 -9.83271)
(186.785 -2.51347 -9.91694)
(202.776 2.33669 2.41957)
(203.446 1.54262 1.15981)
(203.698 0.949447 -0.132917)
(203.548 0.478576 -1.48427)
(202.96 0.156819 -2.92703)
(201.865 -0.0305126 -4.53075)
(200.016 -0.0677911 -6.30557)
(197.062 0.0558559 -8.29639)
(191.965 0.314014 -9.98429)
(184.538 0.413058 -10.0851)
(199.142 0.0415077 0.576796)
(199.328 -0.057209 0.370176)
(199.383 -0.171041 0.088019)
(199.351 -0.27643 -0.17211)
(199.24 -0.379883 -0.42526)
(199.063 -0.472012 -0.616265)
(198.832 -0.55667 -0.736301)
(198.574 -0.636132 -0.75273)
(198.312 -0.713408 -0.658375)
(198.05 -0.784608 -0.451828)
(199.961 0.739601 0.599687)
(200.178 0.681299 0.200874)
(200.257 0.571076 -0.210597)
(200.194 0.422646 -0.609264)
(199.994 0.250844 -0.966326)
(199.663 0.061348 -1.2499)
(199.221 -0.140515 -1.42106)
(198.704 -0.350409 -1.43682)
(198.169 -0.563227 -1.25235)
(197.73 -0.755101 -0.851212)
(200.456 0.494794 1.28484)
(200.77 0.295781 0.694957)
(200.881 0.0585938 0.046409)
(200.793 -0.189722 -0.590417)
(200.501 -0.453381 -1.18827)
(200.007 -0.729658 -1.70164)
(199.321 -1.01981 -2.07105)
(198.479 -1.32508 -2.22239)
(197.551 -1.64896 -2.0429)
(196.746 -1.95783 -1.47381)
(200.727 1.34184 1.33115)
(201.14 1.13245 0.57449)
(201.29 0.861619 -0.222099)
(201.186 0.572017 -1.01167)
(200.816 0.263941 -1.76717)
(200.171 -0.0610226 -2.44224)
(199.238 -0.411474 -2.96114)
(198.034 -0.792407 -3.22012)
(196.608 -1.22204 -3.01372)
(195.294 -1.65778 -2.19361)
(201.207 0.972807 1.97863)
(201.71 0.646727 1.05226)
(201.898 0.283511 0.0487115)
(201.794 -0.0720332 -0.947365)
(201.372 -0.433138 -1.9312)
(200.609 -0.798736 -2.85653)
(199.457 -1.1829 -3.63764)
(197.902 -1.59895 -4.14837)
(195.923 -2.09651 -4.06608)
(193.989 -2.62745 -3.11917)
(201.465 1.90657 1.87045)
(202.038 1.54218 0.842527)
(202.261 1.14769 -0.231057)
(202.159 0.772773 -1.3132)
(201.701 0.405516 -2.39786)
(200.85 0.0414171 -3.45681)
(199.516 -0.344759 -4.39802)
(197.646 -0.774375 -5.09955)
(195.097 -1.31937 -5.10543)
(192.474 -1.94523 -4.03192)
(201.906 1.19736 2.50699)
(202.541 0.711607 1.37537)
(202.792 0.232831 0.15582)
(202.704 -0.1947 -1.06889)
(202.231 -0.591054 -2.32829)
(201.325 -0.958611 -3.60086)
(199.852 -1.32096 -4.80779)
(197.71 -1.7061 -5.82698)
(194.601 -2.22113 -6.09955)
(191.236 -2.86406 -5.07458)
(202.076 2.26019 2.08533)
(202.741 1.74846 0.944131)
(203.004 1.26811 -0.23283)
(202.907 0.854525 -1.44235)
(202.41 0.498318 -2.69339)
(201.457 0.189131 -3.99663)
(199.879 -0.101434 -5.27534)
(197.531 -0.417031 -6.45313)
(193.948 -0.857304 -6.88364)
(189.849 -1.53869 -5.92488)
(202.343 0.926822 2.77612)
(203.024 0.293873 1.61046)
(203.297 -0.26192 0.346797)
(203.21 -0.710778 -0.934534)
(202.714 -1.07326 -2.29149)
(201.749 -1.349 -3.72478)
(200.115 -1.54555 -5.20032)
(197.616 -1.70545 -6.62888)
(193.674 -1.88909 -7.46448)
(188.759 -2.41818 -6.70218)
(201.705 2.16074 2.0462)
(202.352 1.47834 0.963198)
(202.602 0.967777 -0.164772)
(202.459 0.561076 -1.34667)
(201.891 0.28772 -2.59283)
(200.835 0.135244 -3.93296)
(199.1 0.110532 -5.33051)
(196.444 0.213326 -6.71436)
(192.288 0.385102 -7.61632)
(186.757 0.372782 -6.78334)
(198.734 -0.099001 0.418164)
(198.872 -0.16324 0.295917)
(198.91 -0.240198 0.107351)
(198.891 -0.310835 -0.0575788)
(198.824 -0.383993 -0.222781)
(198.719 -0.450515 -0.343215)
(198.585 -0.512962 -0.420314)
(198.439 -0.57092 -0.433018)
(198.293 -0.624201 -0.383393)
(198.125 -0.66873 -0.273528)
(199.435 0.529935 0.367761)
(199.583 0.516187 0.0971925)
(199.638 0.457179 -0.17613)
(199.597 0.360168 -0.437592)
(199.462 0.239787 -0.664573)
(199.245 0.102027 -0.834854)
(198.962 -0.0459187 -0.924165)
(198.644 -0.197748 -0.908668)
(198.331 -0.345479 -0.771891)
(198.087 -0.471229 -0.513686)
(199.776 0.204501 1.00248)
(200.01 0.0663923 0.574983)
(200.094 -0.106221 0.0965395)
(200.029 -0.293573 -0.370351)
(199.815 -0.498182 -0.799763)
(199.46 -0.715687 -1.15428)
(198.983 -0.943973 -1.39133)
(198.424 -1.17954 -1.46522)
(197.847 -1.41731 -1.32184)
(197.376 -1.63218 -0.94676)
(199.952 1.02648 0.994901)
(200.281 0.893059 0.424785)
(200.403 0.695395 -0.180267)
(200.32 0.470361 -0.775867)
(200.027 0.222235 -1.33134)
(199.528 -0.0445933 -1.80284)
(198.833 -0.331977 -2.13122)
(197.981 -0.639045 -2.24256)
(197.045 -0.967508 -2.02963)
(196.24 -1.28532 -1.42396)
(200.338 0.639487 1.61531)
(200.761 0.401988 0.883578)
(200.919 0.118144 0.0793863)
(200.828 -0.172141 -0.713432)
(200.473 -0.475539 -1.47905)
(199.847 -0.78781 -2.16702)
(198.94 -1.11633 -2.70347)
(197.78 -1.4674 -2.98649)
(196.423 -1.86349 -2.83154)
(195.187 -2.26632 -2.08505)
(200.541 1.57212 1.49551)
(201.041 1.30215 0.665077)
(201.234 0.98789 -0.210593)
(201.138 0.676168 -1.08868)
(200.733 0.362011 -1.94853)
(200 0.044453 -2.7484)
(198.901 -0.293263 -3.40212)
(197.442 -0.665298 -3.79552)
(195.628 -1.1094 -3.64721)
(193.89 -1.60286 -2.71287)
(200.945 0.871153 2.12947)
(201.515 0.486319 1.18957)
(201.738 0.0901268 0.161517)
(201.647 -0.274155 -0.865447)
(201.209 -0.61916 -1.90063)
(200.398 -0.944399 -2.90196)
(199.138 -1.26799 -3.78717)
(197.404 -1.61216 -4.42104)
(195.119 -2.04599 -4.44785)
(192.818 -2.56708 -3.45776)
(201.095 1.97946 1.705)
(201.702 1.57254 0.75084)
(201.94 1.17358 -0.241761)
(201.839 0.82141 -1.26048)
(201.37 0.512002 -2.29367)
(200.493 0.238822 -3.32496)
(199.108 -0.0219807 -4.26554)
(197.151 -0.305278 -5.00183)
(194.447 -0.683154 -5.09029)
(191.573 -1.24132 -4.03055)
(201.369 0.63482 2.42867)
(201.999 0.108174 1.43739)
(202.247 -0.366712 0.341011)
(202.152 -0.752748 -0.766362)
(201.673 -1.06595 -1.92108)
(200.768 -1.30378 -3.09403)
(199.305 -1.47695 -4.22861)
(197.177 -1.62354 -5.1841)
(194.136 -1.79793 -5.56588)
(190.635 -2.23166 -4.57426)
(200.756 1.98371 1.66859)
(201.357 1.41218 0.762125)
(201.594 0.983646 -0.197373)
(201.46 0.639881 -1.20469)
(200.93 0.412373 -2.25104)
(199.955 0.290512 -3.33673)
(198.402 0.274779 -4.39652)
(196.127 0.358493 -5.3105)
(192.871 0.469188 -5.69586)
(188.895 0.424654 -4.59297)
(198.435 -0.192151 0.32161)
(198.542 -0.237389 0.252518)
(198.567 -0.292367 0.122751)
(198.557 -0.340538 0.0172326)
(198.518 -0.392782 -0.0944125)
(198.458 -0.440488 -0.174331)
(198.381 -0.485702 -0.229678)
(198.3 -0.526949 -0.245407)
(198.216 -0.562999 -0.226453)
(198.096 -0.590395 -0.173788)
(199.053 0.395823 0.199794)
(199.151 0.408508 0.0193887)
(199.188 0.383981 -0.155481)
(199.161 0.324497 -0.320117)
(199.075 0.243807 -0.458369)
(198.937 0.147575 -0.556024)
(198.762 0.0430601 -0.598885)
(198.57 -0.0632348 -0.574062)
(198.388 -0.163594 -0.477378)
(198.25 -0.244851 -0.311841)
(199.268 -0.0130594 0.785713)
(199.434 -0.111574 0.481635)
(199.495 -0.236414 0.135019)
(199.45 -0.375013 -0.201824)
(199.3 -0.529602 -0.507121)
(199.055 -0.695692 -0.752655)
(198.736 -0.869431 -0.909677)
(198.374 -1.04526 -0.952035)
(198.018 -1.21543 -0.854365)
(197.741 -1.36169 -0.622111)
(199.364 0.77299 0.717274)
(199.615 0.694178 0.299774)
(199.709 0.55501 -0.14569)
(199.646 0.385625 -0.581389)
(199.426 0.192116 -0.978396)
(199.057 -0.0195913 -1.30001)
(198.558 -0.246992 -1.50343)
(197.972 -0.485692 -1.54012)
(197.366 -0.729521 -1.35779)
(196.871 -0.95465 -0.93187)
(199.655 0.356604 1.29903)
(199.993 0.18857 0.735359)
(200.121 -0.0274214 0.107182)
(200.046 -0.258108 -0.508316)
(199.762 -0.505782 -1.09088)
(199.272 -0.764125 -1.59384)
(198.586 -1.03566 -1.95882)
(197.748 -1.32076 -2.11245)
(196.833 -1.62615 -1.95434)
(196.046 -1.92051 -1.41162)
(199.795 1.27036 1.15792)
(200.211 1.07888 0.505912)
(200.372 0.83636 -0.187569)
(200.288 0.584659 -0.879549)
(199.947 0.323716 -1.54205)
(199.346 0.0553189 -2.13038)
(198.478 -0.229462 -2.57189)
(197.379 -0.538389 -2.77564)
(196.113 -0.886051 -2.57496)
(194.972 -1.25669 -1.84176)
(200.151 0.568311 1.77757)
(200.641 0.272366 1.01684)
(200.832 -0.0469922 0.17166)
(200.747 -0.34973 -0.66815)
(200.364 -0.642526 -1.49852)
(199.672 -0.922336 -2.26905)
(198.641 -1.20194 -2.90491)
(197.289 -1.49631 -3.2854)
(195.647 -1.84642 -3.19701)
(194.094 -2.24492 -2.37668)
(200.263 1.71258 1.34311)
(200.795 1.40139 0.567516)
(201.003 1.08009 -0.245632)
(200.906 0.788498 -1.07925)
(200.485 0.526925 -1.90757)
(199.719 0.292065 -2.69947)
(198.556 0.0657712 -3.36772)
(196.989 -0.177572 -3.80048)
(195.002 -0.484931 -3.70355)
(193.021 -0.91008 -2.75738)
(200.536 0.346524 2.09596)
(201.098 -0.080454 1.27335)
(201.317 -0.477556 0.342984)
(201.222 -0.803158 -0.592224)
(200.784 -1.06914 -1.55225)
(199.977 -1.27114 -2.49051)
(198.724 -1.42091 -3.34278)
(196.988 -1.54974 -3.96273)
(194.711 -1.70116 -4.08282)
(192.273 -2.02988 -3.14854)
(199.936 1.81556 1.29937)
(200.474 1.34997 0.562683)
(200.689 1.00053 -0.230511)
(200.568 0.717216 -1.0648)
(200.092 0.532504 -1.91697)
(199.227 0.437319 -2.76857)
(197.893 0.427958 -3.54113)
(196.023 0.495039 -4.10976)
(193.553 0.563147 -4.18006)
(190.778 0.51951 -3.11684)
(198.206 -0.256103 0.26612)
(198.293 -0.291052 0.229792)
(198.311 -0.333506 0.135679)
(198.306 -0.367642 0.0659608)
(198.284 -0.405972 -0.0138994)
(198.25 -0.440461 -0.07109)
(198.207 -0.473073 -0.115493)
(198.161 -0.502107 -0.135333)
(198.111 -0.526198 -0.136122)
(198.017 -0.542614 -0.117082)
(198.771 0.320677 0.0784716)
(198.834 0.348531 -0.0400619)
(198.858 0.346487 -0.146887)
(198.842 0.313464 -0.245067)
(198.789 0.26224 -0.324013)
(198.704 0.197797 -0.375229)
(198.597 0.126501 -0.390933)
(198.483 0.0541766 -0.36398)
(198.376 -0.0128354 -0.295295)
(198.296 -0.0648291 -0.186066)
(198.887 -0.167877 0.625074)
(199 -0.24207 0.41121)
(199.042 -0.333001 0.162629)
(199.012 -0.434276 -0.0786183)
(198.911 -0.548511 -0.295498)
(198.749 -0.672072 -0.467943)
(198.54 -0.800513 -0.577303)
(198.311 -0.928086 -0.6095)
(198.094 -1.04729 -0.552226)
(197.93 -1.1453 -0.417853)
(198.925 0.580285 0.495886)
(199.108 0.538347 0.198475)
(199.178 0.443799 -0.119557)
(199.133 0.320239 -0.428714)
(198.974 0.174046 -0.704567)
(198.711 0.0116875 -0.918827)
(198.365 -0.162338 -1.04215)
(197.972 -0.342109 -1.04431)
(197.582 -0.518972 -0.902126)
(197.278 -0.675741 -0.609912)
(199.127 0.13006 1.03358)
(199.387 0.0135757 0.608943)
(199.486 -0.147 0.129572)
(199.428 -0.325714 -0.337648)
(199.21 -0.522285 -0.772409)
(198.842 -0.729631 -1.13569)
(198.341 -0.947038 -1.38418)
(197.752 -1.17112 -1.46919)
(197.143 -1.40097 -1.33838)
(196.644 -1.61079 -0.963911)
(199.206 1.01042 0.866259)
(199.538 0.880423 0.368583)
(199.668 0.698982 -0.164508)
(199.598 0.501657 -0.694033)
(199.324 0.291374 -1.19033)
(198.851 0.0717304 -1.6123)
(198.191 -0.160083 -1.90298)
(197.388 -0.407222 -1.99722)
(196.518 -0.670894 -1.79885)
(195.774 -0.94012 -1.25459)
(199.513 0.300792 1.46185)
(199.919 0.0791776 0.861276)
(200.076 -0.17181 0.183318)
(200.002 -0.417169 -0.486893)
(199.682 -0.659251 -1.13785)
(199.118 -0.893106 -1.71947)
(198.306 -1.12726 -2.16952)
(197.285 -1.36969 -2.39251)
(196.127 -1.64355 -2.26781)
(195.09 -1.93604 -1.63907)
(199.574 1.47105 1.01171)
(200.023 1.24293 0.399395)
(200.198 0.992509 -0.246338)
(200.112 0.75823 -0.907939)
(199.751 0.543476 -1.55173)
(199.11 0.347377 -2.14145)
(198.171 0.157746 -2.59945)
(196.96 -0.0433462 -2.83442)
(195.533 -0.284284 -2.65477)
(194.189 -0.594515 -1.88925)
(199.845 0.0721336 1.7902)
(200.328 -0.265781 1.12368)
(200.514 -0.590937 0.35116)
(200.428 -0.860172 -0.421126)
(200.045 -1.08188 -1.20205)
(199.356 -1.25043 -1.93785)
(198.326 -1.37722 -2.56673)
(196.96 -1.48599 -2.96035)
(195.297 -1.60965 -2.94881)
(193.633 -1.84736 -2.17882)
(199.248 1.66573 0.949699)
(199.71 1.29769 0.370368)
(199.898 1.02219 -0.264365)
(199.792 0.7955 -0.933508)
(199.38 0.64997 -1.60449)
(198.642 0.577799 -2.24945)
(197.54 0.572946 -2.78837)
(196.058 0.626002 -3.11494)
(194.235 0.664711 -3.01162)
(192.347 0.633417 -2.108)
(198.025 -0.3046 0.237778)
(198.1 -0.333982 0.221199)
(198.113 -0.369677 0.147891)
(198.111 -0.395379 0.0988714)
(198.098 -0.424777 0.037347)
(198.079 -0.450348 -0.00767202)
(198.055 -0.47415 -0.0469218)
(198.029 -0.494596 -0.0706024)
(197.998 -0.510525 -0.08412)
(197.918 -0.519839 -0.085254)
(198.558 0.289353 -0.0111095)
(198.598 0.326061 -0.08768)
(198.614 0.338386 -0.148217)
(198.605 0.323645 -0.201355)
(198.572 0.293682 -0.240868)
(198.521 0.252628 -0.261943)
(198.458 0.20571 -0.260737)
(198.39 0.157763 -0.232972)
(198.326 0.113593 -0.181737)
(198.278 0.0805269 -0.105203)
(198.596 -0.272836 0.509499)
(198.67 -0.33273 0.359382)
(198.698 -0.400315 0.181187)
(198.679 -0.474081 0.00783258)
(198.613 -0.557244 -0.147779)
(198.509 -0.647155 -0.272099)
(198.377 -0.739728 -0.353223)
(198.234 -0.829946 -0.384066)
(198.102 -0.911671 -0.357703)
(198.005 -0.976147 -0.288346)
(198.601 0.441716 0.32398)
(198.73 0.423209 0.118157)
(198.78 0.361368 -0.101776)
(198.749 0.274075 -0.31422)
(198.639 0.167165 -0.500198)
(198.458 0.046786 -0.639012)
(198.224 -0.08216 -0.711442)
(197.965 -0.213623 -0.699156)
(197.717 -0.339208 -0.593796)
(197.529 -0.447047 -0.395205)
(198.725 -0.0403337 0.817274)