/*--------------------------------*- C++ -*----------------------------------*\
| =========                 |                                                 |
| \\      /  F ield         | foam-extend: Open Source CFD                    |
|  \\    /   O peration     | Version:     4.0                                |
|   \\  /    A nd           | Web:         http://www.foam-extend.org         |
|    \\/     M anipulation  |                                                 |
\*---------------------------------------------------------------------------*/
FoamFile
{
    version     2.0;
    format      ascii;
    class       surfaceScalarField;
    location    "2850";
    object      phi;
}
// * * * * * * * * * * * * * * * * * * * * * * * * * * * * * * * * * * * * * //

dimensions      [1 0 -1 0 0 0 0];

internalField   nonuniform List<scalar> 
97302
(
-0.000109786
9.51698e-07
-0.000869496
0.000878773
-0.0001196
1.14103e-06
-0.000870499
0.000879173
-0.000129523
1.20015e-06
-0.000871025
0.000879747
-0.000140125
1.13818e-06
-0.000871063
0.000880527
-0.000152232
9.46071e-07
-0.000870611
0.000881773
-0.000167325
6.13703e-07
-0.000869444
0.000883924
-0.000188496
1.14593e-07
-0.000866957
0.000888013
-0.000222747
-5.95566e-07
-0.000861331
0.000896178
-0.000271325
-1.63915e-06
-0.000851542
0.000901759
-4.39606e-06
-0.000824043
-0.000352996
0.000910109
-0.000150901
1.60321e-06
-0.00116596
0.00117606
-0.000161173
1.96547e-06
-0.00116691
0.00117636
-0.000171518
2.08401e-06
-0.0011675
0.00117697
-0.000182473
1.99204e-06
-0.00116753
0.00117763
-0.000194834
1.67458e-06
-0.00116673
0.00117836
-0.000210314
1.12036e-06
-0.00116472
0.0011797
-0.000232766
2.71801e-07
-0.00116113
0.00118342
-0.000271568
-9.66272e-07
-0.00115433
0.00119351
-0.00032835
-2.89682e-06
-0.00114203
0.00120007
-7.4597e-06
-0.00110414
-0.000432769
0.00121163
-0.000191208
1.89671e-06
-0.00146133
0.00147218
-0.000201778
2.39289e-06
-0.00146234
0.00147248
-0.000212297
2.57441e-06
-0.00146296
0.00147299
-0.000223274
2.49798e-06
-0.00146276
0.00147323
-0.000235634
2.14549e-06
-0.00146141
0.0014733
-0.000251511
1.50635e-06
-0.00145874
0.00147423
-0.000275388
5.0134e-07
-0.00145486
0.00147851
-0.000318359
-9.67978e-07
-0.00144829
0.00149126
-0.000381693
-3.35337e-06
-0.00143513
0.00149892
-9.135e-06
-0.00138641
-0.000500693
0.00150709
-0.000231437
2.08623e-06
-0.00175271
0.00176398
-0.000242301
2.72214e-06
-0.00175394
0.00176448
-0.000253115
2.98241e-06
-0.00175482
0.00176522
-0.000264406
2.94684e-06
-0.00175482
0.00176566
-0.000277164
2.58668e-06
-0.00175364
0.00176596
-0.000293713
1.89316e-06
-0.00175121
0.00176737
-0.000318864
7.63979e-07
-0.00174765
0.00177253
-0.00036497
-8.92453e-07
-0.00174142
0.00178745
-0.000432991
-3.67979e-06
-0.00172781
0.00179616
-1.0629e-05
-0.00166796
-0.000560755
0.00179722
-0.000271569
2.31894e-06
-0.00204524
0.00205669
-0.000282602
3.02416e-06
-0.00204685
0.00205758
-0.000293586
3.3222e-06
-0.00204823
0.00205887
-0.000305071
3.30288e-06
-0.0020487
0.00205983
-0.000318118
2.93523e-06
-0.00204805
0.00206075
-0.000335169
2.21012e-06
-0.00204624
0.00206298
-0.000361326
1.01099e-06
-0.00204332
0.00206924
-0.000409968
-7.46071e-07
-0.00203779
0.00208628
-0.000481932
-3.81472e-06
-0.00202453
0.00209663
-1.18636e-05
-0.00195288
-0.000615169
0.00208735
-0.000312271
2.40462e-06
-0.00233637
0.00234812
-0.000323408
3.13542e-06
-0.00233843
0.00234946
-0.000334459
3.4213e-06
-0.0023402
0.00235116
-0.000346003
3.37431e-06
-0.00234109
0.00235256
-0.00035915
2.97239e-06
-0.00234096
0.00235407
-0.000376428
2.2153e-06
-0.00233991
0.00235718
-0.000403212
9.85149e-07
-0.00233792
0.00236472
-0.000453747
-7.84274e-07
-0.00233348
0.00238406
-0.000529016
-3.91238e-06
-0.00232173
0.0023971
-1.28332e-05
-0.00223797
-0.000665773
0.0023757
-0.000352796
2.38391e-06
-0.00262733
0.0026392
-0.000363875
3.02245e-06
-0.00262998
0.00264118
-0.00037485
3.23748e-06
-0.00263232
0.00264348
-0.000386304
3.10455e-06
-0.00263367
0.0026454
-0.000399399
2.62854e-06
-0.00263412
0.00264756
-0.000416696
1.80204e-06
-0.00263388
0.00265159
-0.000443818
5.61216e-07
-0.00263302
0.00266057
-0.000495694
-1.10951e-06
-0.00263019
0.00268239
-0.000573748
-3.86117e-06
-0.0026211
0.0026991
-1.29896e-05
-0.002525
-0.00071251
0.00266392
-0.000394592
2.02492e-06
-0.00291886
0.00293116
-0.000405723
2.47423e-06
-0.00292211
0.00293379
-0.000416697
2.50286e-06
-0.00292456
0.00293627
-0.000428101
2.16407e-06
-0.00292586
0.0029382
-0.000441062
1.49399e-06
-0.0029262
0.00294029
-0.000458083
4.90707e-07
-0.00292612
0.00294446
-0.000484931
-8.1755e-07
-0.00292596
0.00295419
-0.000536998
-2.35998e-06
-0.00292457
0.00297789
-0.000616519
-4.14946e-06
-0.00291883
0.00299864
-1.21412e-05
-0.00281223
-0.00075568
0.00295055
-0.000435788
1.06842e-06
-0.00320674
0.00321918
-0.000446493
1.13587e-06
-0.00321085
0.00322289
-0.000457073
8.44941e-07
-0.00321391
0.00322615
-0.000468174
1.1135e-07
-0.00321582
0.00322898
-0.000480963
-9.48111e-07
-0.00321696
0.00323219
-0.000497828
-2.30818e-06
-0.00321788
0.00323755
-0.00052453
-3.78322e-06
-0.00321914
0.0032488
-0.000576323
-5.09814e-06
-0.00322004
0.00327457
-0.000655776
-5.50568e-06
-0.00321668
0.00329749
-1.01951e-05
-0.00309932
-0.000792426
0.00323402
-0.0004772
-0.00347532
0.00348833
-0.000488545
-0.00347892
0.0034914
-0.000499734
-0.00347963
0.00349166
-0.000511446
-0.00347707
0.00348889
-0.000524721
-0.00347191
0.00348424
-0.000541688
-0.00346522
0.00347987
-0.00056758
-0.00345815
0.00348026
-0.000616584
-0.00345221
0.00349612
-0.000689675
-0.0034486
0.00351618
-0.00333961
-0.000818675
0.00345842
1.43957e-05
8.89033e-07
-0.00086104
5.31243e-06
1.11367e-06
-0.00086253
-3.79162e-06
1.19439e-06
-0.000863115
-1.31001e-05
1.13672e-06
-0.000862892
-2.28123e-05
9.30716e-07
-0.00086183
-3.31465e-05
5.58042e-07
-0.000859668
-4.42496e-05
-1.54503e-08
-0.000855839
-5.55406e-05
-8.68553e-07
-0.000849171
-6.62354e-05
-2.19716e-06
-0.00083865
-3.96818e-06
-0.000822397
-6.39127e-05
1.54089e-05
1.51394e-06
-0.00115611
5.39049e-06
1.93018e-06
-0.00115771
-4.61746e-06
2.08387e-06
-0.00115839
-1.49323e-05
2.00464e-06
-0.00115808
-2.58193e-05
1.6706e-06
-0.00115658
-3.76409e-05
1.05948e-06
-0.0011534
-5.12338e-05
1.09508e-07
-0.00114766
-6.76412e-05
-1.29548e-06
-0.0011375
-8.82616e-05
-3.54257e-06
-0.00112007
-6.60866e-06
-0.00109112
-9.86423e-05
1.67379e-05
1.82489e-06
-0.00145028
6.00705e-06
2.3889e-06
-0.00145207
-4.6311e-06
2.6124e-06
-0.00145285
-1.55085e-05
2.55013e-06
-0.00145243
-2.6963e-05
2.16898e-06
-0.00145045
-3.97283e-05
1.44529e-06
-0.00144636
-5.55499e-05
2.87123e-07
-0.00143922
-7.71568e-05
-1.42749e-06
-0.00142655
-0.000108636
-4.28338e-06
-0.00140291
-8.39573e-06
-0.00135938
-0.000133882
1.79544e-05
2.03318e-06
-0.00174097
6.73995e-06
2.75449e-06
-0.00174309
-4.38351e-06
3.06547e-06
-0.00174415
-1.58115e-05
3.04936e-06
-0.00174389
-2.79997e-05
2.65874e-06
-0.00174194
-4.19398e-05
1.87207e-06
-0.0017377
-5.99425e-05
5.56673e-07
-0.00172991
-8.61301e-05
-1.40105e-06
-0.00171526
-0.000128053
-4.79432e-06
-0.00168538
-9.90563e-06
-0.00162551
-0.000168998
1.90694e-05
2.27947e-06
-0.0020331
7.56849e-06
3.07946e-06
-0.00203567
-3.83547e-06
3.43429e-06
-0.00203719
-1.5599e-05
3.44044e-06
-0.00203733
-2.83157e-05
3.04647e-06
-0.00203572
-4.31632e-05
2.23024e-06
-0.00203175
-6.29175e-05
8.20036e-07
-0.00202383
-9.29969e-05
-1.28806e-06
-0.00200782
-0.000144892
-5.07598e-06
-0.00197236
-1.10638e-05
-0.00189522
-0.000201392
1.97736e-05
2.39783e-06
-0.00232381
8.09549e-06
3.23248e-06
-0.00232691
-3.43917e-06
3.58285e-06
-0.00232882
-1.53454e-05
3.57165e-06
-0.00232932
-2.83369e-05
3.15449e-06
-0.00232808
-4.37547e-05
2.31915e-06
-0.00232458
-6.48033e-05
8.74012e-07
-0.00231692
-9.80695e-05
-1.27481e-06
-0.00230023
-0.000159356
-5.20853e-06
-0.00226032
-1.18828e-05
-0.00216571
-0.000230799
2.01859e-05
2.36888e-06
-0.0026145
8.53063e-06
3.10972e-06
-0.00261821
-2.95377e-06
3.39454e-06
-0.00262065
-1.4799e-05
3.31017e-06
-0.00262157
-2.78486e-05
2.85164e-06
-0.00262077
-4.3554e-05
1.9896e-06
-0.00261785
-6.54984e-05
5.4858e-07
-0.00261075
-0.000101308
-1.56515e-06
-0.00259409
-0.000171275
-5.24585e-06
-0.00255109
-1.22483e-05
-0.00243911
-0.000256801
1.99276e-05
2.03397e-06
-0.00290561
8.27065e-06
2.5893e-06
-0.00290993
-3.10723e-06
2.71808e-06
-0.0029125
-1.47855e-05
2.48057e-06
-0.00291335
-2.76628e-05
1.90767e-06
-0.00291238
-4.32647e-05
9.66365e-07
-0.0029095
-6.5474e-05
-4.35648e-07
-0.00290277
-0.000102751
-2.40739e-06
-0.00288645
-0.000180119
-5.22061e-06
-0.00284148
-1.1899e-05
-0.00271328
-0.000279418
1.93974e-05
1.07396e-06
-0.00319322
8.21031e-06
1.21885e-06
-0.00319829
-2.66299e-06
1.05882e-06
-0.00320138
-1.38331e-05
4.74233e-07
-0.00320265
-2.63531e-05
-4.03939e-07
-0.00320212
-4.18591e-05
-1.58504e-06
-0.00319983
-6.44382e-05
-3.01063e-06
-0.00319398
-0.00010304
-4.67521e-06
-0.00317917
-0.000186368
-6.14897e-06
-0.00313242
-1.00752e-05
-0.00298565
-0.000301861
1.8242e-05
-0.00346152
6.80345e-06
-0.00346626
-4.11903e-06
-0.00346765
-1.52138e-05
-0.0034655
-2.7421e-05
-0.00346011
-4.23451e-05
-0.00345188
-6.39064e-05
-0.0034396
-0.000101289
-0.00341951
-0.000186016
-0.00337002
-0.0032157
-0.000320006
1.20259e-05
7.77675e-07
-0.000854369
4.42316e-06
1.01771e-06
-0.000855945
-3.29476e-06
1.10572e-06
-0.000856503
-1.10378e-05
1.04126e-06
-0.00085619
-1.86828e-05
8.1777e-07
-0.000855002
-2.59847e-05
4.19442e-07
-0.000852786
-3.23915e-05
-1.75735e-07
-0.000849256
-3.65994e-05
-1.00567e-06
-0.000843957
-3.67275e-05
-2.15412e-06
-0.000836368
-3.43232e-06
-0.000826722
-2.89702e-05
1.38779e-05
1.36216e-06
-0.0011476
4.85239e-06
1.80229e-06
-0.00114947
-4.23421e-06
1.96535e-06
-0.00115016
-1.34727e-05
1.87469e-06
-0.00114968
-2.28693e-05
1.50879e-06
-0.00114788
-3.2273e-05
8.43124e-07
-0.00114442
-4.12831e-05
-1.75773e-07
-0.00113865
-4.87474e-05
-1.6204e-06
-0.00112942
-5.22014e-05
-3.70582e-06
-0.00111506
-6.12793e-06
-0.00109587
-4.47546e-05
1.59824e-05
1.70842e-06
-0.00144012
5.7802e-06
2.3035e-06
-0.00144237
-4.41649e-06
2.53706e-06
-0.00144323
-1.4803e-05
2.45682e-06
-0.00144262
-2.54748e-05
2.0248e-06
-0.0014403
-3.64948e-05
1.20577e-06
-0.0014357
-4.7977e-05
-9.51307e-08
-0.00142782
-5.94529e-05
-1.9757e-06
-0.00141472
-6.8512e-05
-4.84584e-06
-0.00139271
-8.36573e-06
-0.00136071
-6.49449e-05
1.76322e-05
1.96731e-06
-0.00172977
6.6408e-06
2.7308e-06
-0.00173253
-4.34196e-06
3.05393e-06
-0.00173368
-1.5627e-05
3.01524e-06
-0.00173316
-2.74601e-05
2.56065e-06
-0.00173064
-4.01708e-05
1.65248e-06
-0.00172543
-5.43203e-05
1.42722e-07
-0.001716
-7.01002e-05
-2.08926e-06
-0.00169937
-8.58011e-05
-5.70593e-06
-0.00166882
-1.03346e-05
-0.00162111
-8.82321e-05
1.90373e-05
2.25882e-06
-0.00202122
7.53705e-06
3.10778e-06
-0.00202455
-3.93401e-06
3.47877e-06
-0.00202615
-1.57947e-05
3.46355e-06
-0.00202591
-2.84701e-05
3.00321e-06
-0.00202349
-4.25424e-05
2.05583e-06
-0.00201808
-5.90247e-05
4.1827e-07
-0.00200763
-7.8906e-05
-2.05832e-06
-0.00198797
-0.000101936
-6.30169e-06
-0.00194873
-1.197e-05
-0.0018834
-0.000112116
1.99752e-05
2.42618e-06
-0.00231133
8.1382e-06
3.31418e-06
-0.00231527
-3.6159e-06
3.68532e-06
-0.00231727
-1.57999e-05
3.6602e-06
-0.00231733
-2.89967e-05
3.1824e-06
-0.00231506
-4.40384e-05
2.21855e-06
-0.0023097
-6.24245e-05
5.35391e-07
-0.00229865
-8.60491e-05
-2.03932e-06
-0.00227662
-0.000116871
-6.63816e-06
-0.00222916
-1.318e-05
-0.00214515
-0.000136227
2.05272e-05
2.42061e-06
-0.00260159
8.60967e-06
3.21471e-06
-0.00260619
-3.18682e-06
3.52623e-06
-0.00260869
-1.54208e-05
3.44129e-06
-0.00260911
-2.88415e-05
2.94668e-06
-0.00260711
-4.4491e-05
1.99623e-06
-0.00260197
-6.43532e-05
3.54373e-07
-0.00259071
-9.12585e-05
-2.20161e-06
-0.00256702
-0.000129976
-6.76607e-06
-0.00251225
-1.3949e-05
-0.00240905
-0.000159273
2.0351e-05
2.09696e-06
-0.00289221
8.40313e-06
2.70176e-06
-0.00289747
-3.30978e-06
2.87397e-06
-0.00290014
-1.54092e-05
2.67685e-06
-0.00290048
-2.87392e-05
2.12627e-06
-0.00289823
-4.4531e-05
1.17556e-06
-0.00289288
-6.52373e-05
-3.27221e-07
-0.00288138
-9.45837e-05
-2.64748e-06
-0.00285666
-0.000140685
-6.40219e-06
-0.00279575
-1.3738e-05
-0.0026736
-0.000180578
1.97379e-05
1.15077e-06
-0.0031795
8.24281e-06
1.32812e-06
-0.00318542
-2.96991e-06
1.24795e-06
-0.00318854
-1.45265e-05
7.72675e-07
-0.00318919
-2.74287e-05
2.58574e-08
-0.00318712
-4.31508e-05
-1.01349e-06
-0.00318191
-6.46506e-05
-2.33684e-06
-0.00317047
-9.64406e-05
-4.09055e-06
-0.00314594
-0.000148897
-6.37116e-06
-0.00308
-1.15129e-05
-0.00293619
-0.000200578
1.85758e-05
-0.00344765
6.99869e-06
-0.00345336
-4.10584e-06
-0.00345529
-1.54476e-05
-0.00345339
-2.79187e-05
-0.00344761
-4.30036e-05
-0.00343781
-6.37008e-05
-0.00342124
-9.54116e-05
-0.00339189
-0.00015068
-0.00332112
-0.00316254
-0.000215349
9.33367e-06
6.08767e-07
-0.000849538
3.46344e-06
8.52294e-07
-0.000850927
-2.58791e-06
9.4441e-07
-0.000851396
-8.54704e-06
8.78337e-07
-0.000851109
-1.41072e-05
6.52676e-07
-0.000850095
-1.88457e-05
2.58542e-07
-0.000848306
-2.21201e-05
-3.11005e-07
-0.00084567
-2.28922e-05
-1.05815e-06
-0.000842127
-1.95793e-05
-1.97936e-06
-0.000837701
-2.86301e-06
-0.000832856
-1.05822e-05
1.17248e-05
1.11606e-06
-0.00114077
4.10691e-06
1.56644e-06
-0.00114257
-3.63965e-06
1.7347e-06
-0.0011432
-1.13772e-05
1.63658e-06
-0.0011427
-1.88896e-05
1.2549e-06
-0.00114097
-2.57879e-05
5.71646e-07
-0.00113784
-3.13125e-05
-4.44672e-07
-0.00113299
-3.39459e-05
-1.81621e-06
-0.00112603
-3.08493e-05
-3.60302e-06
-0.00111654
-5.41805e-06
-0.00110601
-1.81518e-05
1.44341e-05
1.48727e-06
-0.00143135
5.25738e-06
2.09879e-06
-0.00143372
-3.98595e-06
2.33521e-06
-0.00143459
-1.32964e-05
2.23442e-06
-0.00143391
-2.25677e-05
1.76013e-06
-0.00143153
-3.15048e-05
8.77649e-07
-0.00142707
-3.94303e-05
-4.90465e-07
-0.00141985
-4.47344e-05
-2.39698e-06
-0.00140883
-4.3491e-05
-5.03599e-06
-0.00139252
-7.89316e-06
-0.00137302
-2.87078e-05
1.65211e-05
1.79873e-06
-0.00171967
6.22573e-06
2.59128e-06
-0.00172273
-4.13286e-06
2.91819e-06
-0.00172391
-1.4692e-05
2.84901e-06
-0.00172322
-2.54968e-05
2.33009e-06
-0.00172041
-3.64584e-05
1.31947e-06
-0.00171491
-4.71094e-05
-3.18886e-07
-0.00170552
-5.58656e-05
-2.67738e-06
-0.00169033
-5.78753e-05
-6.17818e-06
-0.00166566
-1.01734e-05
-0.00163382
-4.28842e-05
1.82718e-05
2.14127e-06
-0.00201014
7.19074e-06
3.02859e-06
-0.0020139
-3.92255e-06
3.40722e-06
-0.00201552
-1.53443e-05
3.35867e-06
-0.002015
-2.73116e-05
2.82243e-06
-0.00201201
-3.99858e-05
1.74726e-06
-0.00200584
-5.32041e-05
-6.75625e-08
-0.00199466
-6.55998e-05
-2.76791e-06
-0.00197548
-7.19267e-05
-7.05476e-06
-0.00194153
-1.21923e-05
-0.00189468
-5.86282e-05
1.95043e-05
2.36882e-06
-0.0022994
7.87313e-06
3.30129e-06
-0.00230392
-3.73281e-06
3.68487e-06
-0.00230594
-1.57157e-05
3.63244e-06
-0.00230562
-2.84893e-05
3.08111e-06
-0.00230255
-4.24905e-05
1.98321e-06
-0.00229593
-5.7959e-05
9.44424e-08
-0.00228334
-7.39575e-05
-2.78327e-06
-0.00226061
-8.5526e-05
-7.60708e-06
-0.00221704
-1.37666e-05
-0.0021533
-7.58003e-05
2.02608e-05
2.40731e-06
-0.00258903
8.39409e-06
3.2474e-06
-0.00259427
-3.40146e-06
3.57673e-06
-0.00259679
-1.56063e-05
3.47564e-06
-0.00259675
-2.88218e-05
2.92169e-06
-0.00259374
-4.37449e-05
1.85709e-06
-0.00258692
-6.10761e-05
2.20802e-08
-0.0025733
-8.04485e-05
-2.86673e-06
-0.00254757
-9.78695e-05
-7.8552e-06
-0.00249458
-1.48965e-05
-0.00241266
-9.31305e-05
2.0241e-05
2.11195e-06
-0.00287906
8.27142e-06
2.75945e-06
-0.00288501
-3.51529e-06
2.9618e-06
-0.00288774
-1.56848e-05
2.78386e-06
-0.00288762
-2.89512e-05
2.2236e-06
-0.00288426
-4.42604e-05
1.22634e-06
-0.00287694
-6.28401e-05
-4.01378e-07
-0.00286237
-8.50383e-05
-3.02067e-06
-0.00283431
-0.000108507
-7.33063e-06
-0.0027728
-1.48306e-05
-0.00267209
-0.00011009
1.96933e-05
1.1997e-06
-0.00316593
8.11846e-06
1.40486e-06
-0.00317249
-3.22944e-06
1.38961e-06
-0.00317562
-1.49166e-05
9.99318e-07
-0.00317571
-2.77959e-05
3.45883e-07
-0.00317236
-4.30467e-05
-6.07593e-07
-0.00316483
-6.25185e-05
-1.89515e-06
-0.00314951
-8.767e-05
-3.752e-06
-0.00312006
-0.000117052
-6.49578e-06
-0.00305145
-1.22158e-05
-0.00292921
-0.000126645
1.8606e-05
-0.00343398
7.07059e-06
-0.00344042
-4.05821e-06
-0.00344278
-1.54504e-05
-0.00344099
-2.78757e-05
-0.00343484
-4.25532e-05
-0.00342374
-6.14333e-05
-0.00340425
-8.70674e-05
-0.00337
-0.000119682
-0.003295
-0.00315504
-0.000139403
6.84916e-06
4.23749e-07
-0.000846192
2.57469e-06
6.54331e-07
-0.000847307
-1.89888e-06
7.4502e-07
-0.000847667
-6.24117e-06
6.82684e-07
-0.000847449
-1.01075e-05
4.70854e-07
-0.0008467
-1.30929e-05
1.0863e-07
-0.000845429
-1.47038e-05
-3.9557e-07
-0.000843664
-1.43362e-05
-1.02045e-06
-0.000841474
-1.13196e-05
-1.7203e-06
-0.000838998
-2.32865e-06
-0.000836483
-5.36402e-06
9.38712e-06
8.21707e-07
-0.00113556
3.29718e-06
1.26136e-06
-0.00113708
-2.9688e-06
1.42804e-06
-0.00113762
-9.13087e-06
1.32891e-06
-0.00113718
-1.48465e-05
9.52567e-07
-0.00113573
-1.96462e-05
2.92324e-07
-0.00113322
-2.28143e-05
-6.56887e-07
-0.00112956
-2.32474e-05
-1.8732e-06
-0.00112474
-1.92824e-05
-3.31353e-06
-0.00111891
-4.63235e-06
-0.00111323
-9.76442e-06
1.24559e-05
1.18756e-06
-0.00142418
4.59114e-06
1.79568e-06
-0.00142639
-3.40658e-06
2.02864e-06
-0.00142719
-1.13544e-05
1.91229e-06
-0.00142654
-1.89771e-05
1.41566e-06
-0.00142437
-2.58026e-05
5.14191e-07
-0.00142047
-3.09546e-05
-8.3843e-07
-0.00141451
-3.28544e-05
-2.64447e-06
-0.00140616
-2.86145e-05
-4.92401e-06
-0.00139515
-7.14036e-06
-0.00138374
-1.53859e-05
1.48905e-05
1.53337e-06
-0.00171098
5.63891e-06
2.33886e-06
-0.00171402
-3.75175e-06
2.66409e-06
-0.00171515
-1.32152e-05
2.56655e-06
-0.00171441
-2.25873e-05
1.99758e-06
-0.00171162
-3.15024e-05
9.21669e-07
-0.0017064
-3.90682e-05
-7.63763e-07
-0.00169803
-4.33523e-05
-3.10087e-06
-0.00168559
-4.00334e-05
-6.26963e-06
-0.00166764
-9.537e-06
-0.00164761
-2.38428e-05
1.69727e-05
1.91891e-06
-0.00200021
6.66642e-06
2.83252e-06
-0.00200409
-3.74494e-06
3.21393e-06
-0.00200566
-1.43387e-05
3.13076e-06
-0.00200497
-2.5121e-05
2.52519e-06
-0.00200176
-3.59145e-05
1.34649e-06
-0.00199547
-4.59411e-05
-5.76142e-07
-0.00198482
-5.30691e-05
-3.3456e-06
-0.00196811
-5.16608e-05
-7.37607e-06
-0.00194183
-1.17702e-05
-0.00191047
-3.36386e-05
1.85159e-05
2.20696e-06
-0.00228843
7.42996e-06
3.17589e-06
-0.00229317
-3.70342e-06
3.56782e-06
-0.00229516
-1.51055e-05
3.48422e-06
-0.00229457
-2.69534e-05
2.85982e-06
-0.00229103
-3.93134e-05
1.64058e-06
-0.00228387
-5.1659e-05
-3.98981e-07
-0.00227118
-6.18719e-05
-3.4316e-06
-0.00225031
-6.3368e-05
-8.12166e-06
-0.00221479
-1.35877e-05
-0.00216984
-4.50067e-05
1.95094e-05
2.30263e-06
-0.00257721
8.0064e-06
3.18495e-06
-0.00258277
-3.49323e-06
3.5293e-06
-0.00258525
-1.53157e-05
3.40766e-06
-0.00258485
-2.78318e-05
2.78983e-06
-0.00258115
-4.13656e-05
1.60927e-06
-0.00257336
-5.57438e-05
-3.88976e-07
-0.00255894
-6.90373e-05
-3.47937e-06
-0.00253423
-7.42164e-05
-8.48648e-06
-0.00248903
-1.49512e-05
-0.00242865
-5.68548e-05
1.96922e-05
2.04659e-06
-0.00286651
7.98122e-06
2.73758e-06
-0.00287286
-3.61882e-06
2.96582e-06
-0.00287557
-1.55464e-05
2.7987e-06
-0.00287509
-2.82981e-05
2.21747e-06
-0.00287094
-4.2452e-05
1.15891e-06
-0.00286234
-5.83086e-05
-5.88967e-07
-0.00284632
-7.4392e-05
-3.40833e-06
-0.0028183
-8.38712e-05
-7.91063e-06
-0.0027639
-1.50075e-05
-0.00268686
-6.9045e-05
1.92696e-05
1.19972e-06
-0.00315284
7.8664e-06
1.43345e-06
-0.00315978
-3.38704e-06
1.47507e-06
-0.00316288
-1.49379e-05
1.15383e-06
-0.00316252
-2.74304e-05
5.70645e-07
-0.00315822
-4.16494e-05
-3.27225e-07
-0.00314912
-5.8393e-05
-1.60665e-06
-0.00313174
-7.72893e-05
-3.53825e-06
-0.00310103
-9.15604e-05
-6.47535e-06
-0.00303862
-1.2078e-05
-0.00294222
-8.14822e-05
1.82914e-05
-0.00342081
7.00148e-06
-0.00342769
-3.96653e-06
-0.00343033
-1.51895e-05
-0.00342862
-2.72614e-05
-0.0034222
-4.10524e-05
-0.00341027
-5.75076e-05
-0.00338941
-7.70926e-05
-0.00335396
-9.41523e-05
-0.00328442
-0.00317041
-9.08525e-05
4.81643e-06
2.50776e-07
-0.000843933
1.84256e-06
4.55451e-07
-0.000844788
-1.31467e-06
5.39803e-07
-0.00084505
-4.3463e-06
4.85267e-07
-0.000844903
-6.94564e-06
2.99251e-07
-0.000844399
-8.79005e-06
-1.32467e-08
-0.000843572
-9.55037e-06
-4.33932e-07
-0.00084247
-8.91207e-06
-9.30831e-07
-0.000841182
-6.64592e-06
-1.44754e-06
-0.000839816
-1.86602e-06
-0.000838417
-2.84597e-06
7.16923e-06
5.20526e-07
-0.00113173
2.51915e-06
9.28747e-07
-0.00113291
-2.32273e-06
1.08675e-06
-0.00113332
-7.02499e-06
9.93501e-07
-0.00113299
-1.1215e-05
6.43163e-07
-0.00113189
-1.44513e-05
4.0238e-08
-0.00113004
-1.61746e-05
-7.98732e-07
-0.00112747
-1.57043e-05
-1.82541e-06
-0.00112432
-1.22592e-05
-2.95139e-06
-0.00112085
-3.90761e-06
-0.00111779
-5.65211e-06
1.03344e-05
8.48291e-07
-0.00141854
3.86884e-06
1.42941e-06
-0.00142043
-2.77481e-06
1.65157e-06
-0.00142111
-9.29145e-06
1.52805e-06
-0.00142056
-1.53073e-05
1.03472e-06
-0.00141875
-2.03022e-05
1.61493e-07
-0.0014156
-2.34788e-05
-1.10376e-06
-0.00141103
-2.36622e-05
-2.72147e-06
-0.00140508
-1.91471e-05
-4.61237e-06
-0.001398
-6.31285e-06
-0.00139139
-9.09064e-06
1.29532e-05
1.19973e-06
-0.00170381
4.94836e-06
1.99591e-06
-0.00170658
-3.26105e-06
2.31279e-06
-0.0017076
-1.14352e-05
2.19439e-06
-0.0017069
-1.92469e-05
1.60026e-06
-0.00170437
-2.61813e-05
5.08803e-07
-0.00169982
-3.12794e-05
-1.13843e-06
-0.0016929
-3.28877e-05
-3.33049e-06
-0.00168337
-2.80245e-05
-6.07366e-06
-0.00167104
-8.68518e-06
-0.00165872
-1.45454e-05
1.52828e-05
1.6096e-06
-0.00199166
6.01547e-06
2.53019e-06
-0.00199536
-3.42935e-06
2.90826e-06
-0.00199681
-1.2932e-05
2.7954e-06
-0.00199607
-2.22881e-05
2.1406e-06
-0.00199294
-3.10799e-05
9.02748e-07
-0.00198707
-3.82934e-05
-1.04137e-06
-0.0019777
-4.18769e-05
-3.73482e-06
-0.00196412
-3.73981e-05
-7.34508e-06
-0.00194504
-1.0985e-05
-0.0019247
-2.08734e-05
1.71002e-05
1.94809e-06
-0.00227867
6.84775e-06
2.93866e-06
-0.00228333
-3.53059e-06
3.33364e-06
-0.00228521
-1.40554e-05
3.22064e-06
-0.00228447
-2.46645e-05
2.53674e-06
-0.00228082
-3.51117e-05
1.2311e-06
-0.00227375
-4.44662e-05
-8.79435e-07
-0.00226198
-5.04417e-05
-3.91221e-06
-0.00224416
-4.72132e-05
-8.23798e-06
-0.00221713
-1.29079e-05
-0.00218662
-2.85173e-05
1.83246e-05
2.10608e-06
-0.00256643
7.476e-06
3.02132e-06
-0.00257201
-3.44805e-06
3.37701e-06
-0.00257437
-1.45843e-05
3.23509e-06
-0.00257373
-2.60514e-05
2.56162e-06
-0.00256971
-3.78169e-05
1.289e-06
-0.00256165
-4.91489e-05
-8.08215e-07
-0.00254768
-5.7687e-05
-3.95135e-06
-0.00252565
-5.64448e-05
-8.68915e-06
-0.00248982
-1.43507e-05
-0.00244717
-3.64853e-05
1.87297e-05
1.89536e-06
-0.00285486
7.55174e-06
2.62666e-06
-0.00286128
-3.5998e-06
2.87622e-06
-0.00286392
-1.49954e-05
2.7147e-06
-0.00286317
-2.68835e-05
2.11028e-06
-0.0028586
-3.9458e-05
9.98098e-07
-0.00284948
-5.23275e-05
-8.26854e-07
-0.00283343
-6.33402e-05
-3.71006e-06
-0.00280752
-6.48619e-05
-8.09805e-06
-0.00276297
-1.44352e-05
-0.00270666
-4.4976e-05
1.84647e-05
1.14401e-06
-0.00314055
7.48914e-06
1.40474e-06
-0.00314759
-3.42721e-06
1.49472e-06
-0.00315058
-1.45709e-05
1.22796e-06
-0.00314989
-2.63524e-05
6.96196e-07
-0.00314503
-3.9157e-05
-1.64465e-07
-0.00313516
-5.29372e-05
-1.43832e-06
-0.00311735
-6.63028e-05
-3.3788e-06
-0.003088
-7.12609e-05
-6.28896e-06
-0.00303547
-1.12878e-05
-0.00296302
-5.36123e-05
1.76239e-05
-0.00340842
6.79108e-06
-0.00341546
-3.81543e-06
-0.00341823
-1.46391e-05
-0.00341657
-2.60689e-05
-0.00341007
-3.86065e-05
-0.0033979
-5.23918e-05
-0.00337706
-6.65667e-05
-0.00334316
-7.36968e-05
-0.00328358
-0.00319582
-5.9578e-05
3.29099e-06
1.06878e-07
-0.000842409
1.28804e-06
2.78628e-07
-0.000843064
-8.66487e-07
3.53475e-07
-0.000843249
-2.92019e-06
3.08792e-07
-0.000843158
-4.63259e-06
1.5461e-07
-0.000842842
-5.77056e-06
-1.0104e-07
-0.000842333
-6.12985e-06
-4.35565e-07
-0.000841675
-5.55921e-06
-8.15675e-07
-0.000840937
-4.01132e-06
-1.18935e-06
-0.000840175
-1.47565e-06
-0.000839307
-1.64567e-06
5.24902e-06
2.44426e-07
-0.00112897
1.83115e-06
6.05622e-07
-0.00112982
-1.76731e-06
7.49119e-07
-0.00113012
-5.22962e-06
6.67093e-07
-0.00112988
-8.21497e-06
3.58184e-07
-0.00112911
-1.03601e-05
-1.64801e-07
-0.00112783
-1.12714e-05
-8.71784e-07
-0.00112613
-1.05667e-05
-1.7031e-06
-0.00112414
-7.94657e-06
-2.56202e-06
-0.0011221
-3.2527e-06
-0.00112043
-3.53708e-06
8.28504e-06
5.07038e-07
-0.00141424
3.15586e-06
1.03859e-06
-0.00141573
-2.1683e-06
1.24258e-06
-0.00141628
-7.33238e-06
1.12063e-06
-0.00141585
-1.19358e-05
6.55317e-07
-0.00141444
-1.5492e-05
-1.49474e-07
-0.00141206
-1.73729e-05
-1.27781e-06
-0.00140874
-1.68205e-05
-2.66168e-06
-0.00140468
-1.29825e-05
-4.17786e-06
-0.00140023
-5.46958e-06
-0.00139638
-5.777e-06
1.09001e-05
8.33019e-07
-0.00169809
4.20947e-06
1.5945e-06
-0.00170045
-2.72865e-06
1.89518e-06
-0.00170132
-9.5616e-06
1.76575e-06
-0.00170071
-1.58696e-05
1.17543e-06
-0.00169858
-2.10948e-05
1.194e-07
-0.00169486
-2.4388e-05
-1.41743e-06
-0.00168947
-2.4546e-05
-3.37917e-06
-0.0016825
-1.98144e-05
-5.66783e-06
-0.00167428
-7.72313e-06
-0.00166674
-9.54041e-06
1.33485e-05
1.24202e-06
-0.00198454
5.27994e-06
2.14433e-06
-0.00198784
-3.02421e-06
2.51109e-06
-0.00198912
-1.12884e-05
2.37722e-06
-0.00198842
-1.91567e-05
1.70139e-06
-0.0019856
-2.60807e-05
4.58415e-07
-0.00198049
-3.1047e-05
-1.42146e-06
-0.00197273
-3.24057e-05
-3.92093e-06
-0.00196222
-2.72132e-05
-7.0299e-06
-0.00194887
-9.98184e-06
-0.00193583
-1.38201e-05
1.53598e-05
1.61246e-06
-0.00227027
6.15671e-06
2.60257e-06
-0.00227458
-3.24374e-06
2.99317e-06
-0.00227629
-1.26809e-05
2.85655e-06
-0.00227551
-2.18964e-05
2.13648e-06
-0.00227204
-3.04299e-05
7.93893e-07
-0.00226555
-3.72138e-05
-1.29858e-06
-0.00225532
-4.02437e-05
-4.19101e-06
-0.00224086
-3.52499e-05
-8.01264e-06
-0.00222114
-1.18945e-05
-0.0022008
-1.9155e-05
1.67724e-05
1.82942e-06
-0.00255692
6.82294e-06
2.76093e-06
-0.00256222
-3.28019e-06
3.12196e-06
-0.0025644
-1.34849e-05
2.9632e-06
-0.00256363
-2.36837e-05
2.25145e-06
-0.00255963
-3.35638e-05
9.26921e-07
-0.0025519
-4.21058e-05
-1.18834e-06
-0.00253924
-4.70695e-05
-4.23732e-06
-0.00252064
-4.28699e-05
-8.50863e-06
-0.00249353
-1.32799e-05
-0.00246409
-2.45661e-05
1.73928e-05
1.66344e-06
-0.00284436
6.99494e-06
2.42553e-06
-0.00285055
-3.46365e-06
2.69015e-06
-0.00285303
-1.40728e-05
2.53156e-06
-0.00285213
-2.48457e-05
1.90918e-06
-0.00284748
-3.56491e-05
7.64293e-07
-0.00283851
-4.56548e-05
-1.08012e-06
-0.00282353
-5.26161e-05
-3.8897e-06
-0.00280091
-4.99889e-05
-7.91755e-06
-0.00276619
-1.32843e-05
-0.00272615
-3.04918e-05
1.72974e-05
1.03257e-06
-0.00312932
6.99057e-06
1.31499e-06
-0.00313617
-3.35207e-06
1.44413e-06
-0.00313899
-1.38373e-05
1.21942e-06
-0.00313809
-2.46464e-05
7.26134e-07
-0.00313304
-3.58165e-05
-1.04218e-07
-0.00312312
-4.67385e-05
-1.35908e-06
-0.00310615
-5.55503e-05
-3.23931e-06
-0.00307983
-5.51162e-05
-5.95532e-06
-0.00303786
-1.01072e-05
-0.00298517
-3.61375e-05
1.66148e-05
-0.00339708
6.44331e-06
-0.00340397
-3.6004e-06
-0.00340674
-1.38041e-05
-0.00340514
-2.4348e-05
-0.0033988
-3.53958e-05
-0.00338695
-4.65287e-05
-0.00336728
-5.61807e-05
-0.00333675
-5.73759e-05
-0.00328834
-0.00322362
-3.96874e-05
2.21188e-06
-1.61598e-09
-0.000841366
8.93559e-07
1.36212e-07
-0.000841882
-5.42974e-07
2.00444e-07
-0.000842013
-1.90623e-06
1.65843e-07
-0.000841961
-3.02093e-06
4.40406e-08
-0.000841771
-3.72703e-06
-1.56278e-07
-0.00084147
-3.90064e-06
-4.12448e-07
-0.000841089
-3.47112e-06
-6.94938e-07
-0.000840671
-2.44937e-06
-9.61276e-07
-0.000840235
-1.15654e-06
-0.00083963
-9.69413e-07
3.69414e-06
1.27081e-08
-0.00112699
1.26089e-06
3.18843e-07
-0.00112757
-1.32606e-06
4.44331e-07
-0.00112778
-3.79932e-06
3.76525e-07
-0.00112762
-5.87774e-06
1.17155e-07
-0.0011271
-7.28497e-06
-3.16545e-07
-0.00112626
-7.75928e-06
-8.88875e-07
-0.00112518
-7.09731e-06
-1.53969e-06
-0.00112395
-5.21296e-06
-2.18135e-06
-0.00112276
-2.67462e-06
-0.00112183
-2.29044e-06
6.44965e-06
1.93415e-07
-0.00141101
2.50229e-06
6.58151e-07
-0.00141212
-1.63127e-06
8.37922e-07
-0.00141254
-5.60408e-06
7.24715e-07
-0.00141223
-9.04155e-06
3.06385e-07
-0.00141119
-1.15315e-05
-4.02916e-07
-0.00140948
-1.26146e-05
-1.36874e-06
-0.00140718
-1.18349e-05
-2.51014e-06
-0.00140449
-8.82529e-06
-3.69449e-06
-0.00140172
-4.6601e-06
-0.00139947
-3.74681e-06
8.89273e-06
4.67318e-07
-0.00169366
3.47486e-06
1.17007e-06
-0.00169554
-2.20627e-06
1.44678e-06
-0.00169625
-7.74966e-06
1.31611e-06
-0.00169576
-1.27103e-05
7.5672e-07
-0.00169407
-1.65609e-05
-2.20599e-07
-0.00169119
-1.86212e-05
-1.59695e-06
-0.00168718
-1.80877e-05
-3.2861e-06
-0.00168226
-1.40467e-05
-5.13992e-06
-0.00167688
-6.72591e-06
-0.00167227
-6.45174e-06
1.13192e-05
8.48714e-07
-0.00197877
4.50703e-06
1.70528e-06
-0.00198156
-2.57554e-06
2.0518e-06
-0.00198265
-9.55504e-06
1.9072e-06
-0.00198203
-1.59937e-05
1.24094e-06
-0.00197965
-2.13085e-05
4.59428e-08
-0.00197544
-2.46098e-05
-1.69882e-06
-0.00196933
-2.46919e-05
-3.92667e-06
-0.0019615
-1.98184e-05
-6.51746e-06
-0.00195236
-8.85842e-06
-0.00194406
-9.45597e-06
1.34189e-05
1.22764e-06
-0.00226326
5.39574e-06
2.19032e-06
-0.00226705
-2.87791e-06
2.56745e-06
-0.00226853
-1.11043e-05
2.41564e-06
-0.0022678
-1.88932e-05
1.68817e-06
-0.0022647
-2.56755e-05
3.6309e-07
-0.00225909
-3.04246e-05
-1.62926e-06
-0.00225064
-3.15583e-05
-4.27492e-06
-0.00223938
-2.63096e-05
-7.52987e-06
-0.00222538
-1.06711e-05
-0.00221196
-1.33376e-05
1.49473e-05
1.49249e-06
-0.00254878
6.07686e-06
2.41748e-06
-0.00255357
-3.01359e-06
2.77576e-06
-0.00255551
-1.21107e-05
2.60609e-06
-0.00255473
-2.0934e-05
1.87976e-06
-0.00255099
-2.89927e-05
5.51878e-07
-0.00254403
-3.5195e-05
-1.50029e-06
-0.00253317
-3.76503e-05
-4.33578e-06
-0.00251812
-3.24409e-05
-8.03354e-06
-0.00249823
-1.19118e-05
-0.00247821
-1.70763e-05
1.57521e-05
1.3637e-06
-0.00283514
6.33315e-06
2.14092e-06
-0.00284085
-3.22555e-06
2.41279e-06
-0.00284311
-1.28463e-05
2.25705e-06
-0.00284216
-2.23471e-05
1.6287e-06
-0.00283773
-3.13616e-05
4.81958e-07
-0.00282942
-3.88668e-05
-1.31978e-06
-0.00281621
-4.28115e-05
-3.94714e-06
-0.00279735
-3.83389e-05
-7.47132e-06
-0.00277122
-1.17999e-05
-0.00274329
-2.13095e-05
1.58174e-05
8.70975e-07