/*--------------------------------*- C++ -*----------------------------------*\
| =========                 |                                                 |
| \\      /  F ield         | foam-extend: Open Source CFD                    |
|  \\    /   O peration     | Version:     4.0                                |
|   \\  /    A nd           | Web:         http://www.foam-extend.org         |
|    \\/     M anipulation  |                                                 |
\*---------------------------------------------------------------------------*/
FoamFile
{
    version     2.0;
    format      ascii;
    class       volVectorField;
    location    "2850";
    object      Urel;
}
// * * * * * * * * * * * * * * * * * * * * * * * * * * * * * * * * * * * * * //

dimensions      [0 1 -1 0 0 0 0];

internalField   nonuniform List<vector> 
34480
(
(209.006 -9.79387 -19.0913)
(209.326 -9.29356 -21.5539)
(209.483 -8.56823 -23.9805)
(209.49 -7.64374 -26.414)
(209.34 -6.5589 -28.9928)
(208.998 -5.31651 -31.8924)
(208.382 -3.89687 -35.513)
(207.216 -2.18375 -40.1992)
(204.545 0.0514673 -48.1214)
(197.607 4.25579 -75.292)
(209.939 -12.8026 -26.8101)
(210.198 -11.6753 -29.5941)
(210.325 -10.3937 -32.2539)
(210.298 -8.97164 -34.8571)
(210.063 -7.44589 -37.5207)
(209.56 -5.83624 -40.4523)
(208.753 -4.16164 -44.1115)
(207.46 -2.36809 -49.2403)
(204.324 -0.294144 -58.0613)
(196.165 3.65909 -88.6315)
(210.628 -17.1 -33.7471)
(210.862 -15.5488 -36.8323)
(210.956 -13.8204 -39.7795)
(210.886 -11.9089 -42.6023)
(210.59 -9.87007 -45.4281)
(210.063 -7.73812 -48.5136)
(209.311 -5.54052 -52.3873)
(208.167 -3.20757 -58.078)
(204.866 -0.572364 -67.7765)
(195.656 4.13223 -101.291)
(210.635 -20.4952 -41.1594)
(210.87 -18.4132 -44.5391)
(210.979 -16.1555 -47.7258)
(210.942 -13.7039 -50.7507)
(210.708 -11.1151 -53.7484)
(210.293 -8.42636 -57.005)
(209.677 -5.67007 -61.0515)
(208.697 -2.76745 -67.1365)
(205.371 0.45448 -77.4584)
(195.357 5.84595 -112.88)
(210.794 -24.972 -48.0212)
(211.059 -22.4804 -51.6783)
(211.206 -19.7754 -55.1516)
(211.23 -16.8383 -58.4263)
(211.088 -13.7453 -61.6621)
(210.809 -10.5334 -65.1568)
(210.341 -7.22957 -69.4384)
(209.544 -3.7443 -75.9425)
(206.317 0.10247 -86.932)
(195.66 6.19702 -123.872)
(210.68 -28.2267 -55.6175)
(210.955 -25.235 -59.5114)
(211.122 -22.0156 -63.1532)
(211.181 -18.5473 -66.5715)
(211.106 -14.8976 -69.9185)
(210.943 -11.1092 -73.5164)
(210.628 -7.21096 -77.8771)
(210.047 -3.11586 -84.6084)
(207.066 1.37632 -96.0829)
(196.01 8.10824 -134.171)
(210.761 -33.0088 -62.4757)
(211.077 -29.628 -66.6098)
(211.273 -25.9841 -70.5012)
(211.37 -22.0659 -74.1262)
(211.354 -17.9487 -77.666)
(211.288 -13.6689 -81.4439)
(211.114 -9.23125 -85.9759)
(210.749 -4.53236 -92.9912)
(208.099 0.698957 -105.044)
(196.748 8.26174 -144.125)
(210.589 -36.1792 -70.3227)
(210.909 -32.3265 -74.664)
(211.084 -28.1647 -78.6834)
(211.14 -23.7085 -82.4175)
(211.083 -19.0116 -86.0104)
(211 -14.1313 -89.7905)
(210.87 -9.06508 -94.257)
(210.662 -3.70526 -101.229)
(208.421 2.37077 -113.47)
(197.104 10.8377 -153.055)
(210.534 -41.4427 -77.152)
(210.898 -37.2229 -81.6793)
(211.104 -32.6856 -85.8818)
(211.198 -27.8697 -89.7669)
(211.192 -22.8305 -93.5202)
(211.153 -17.5978 -97.4459)
(211.092 -12.1154 -102.078)
(211.024 -6.23072 -109.204)
(209.112 0.774879 -121.818)
(197.68 10.7323 -161.342)
(209.569 -44.6439 -85.1139)
(209.843 -40.0419 -89.9224)
(209.79 -35.0029 -94.3273)
(209.431 -29.6475 -98.3967)
(208.813 -23.9894 -102.257)
(208.027 -18.0692 -106.189)
(207.158 -11.8217 -110.662)
(206.371 -5.05623 -117.278)
(204.433 2.95958 -129.041)
(194.247 14.3052 -166.631)
(205.891 1.91221 3.00056)
(206.369 1.10968 1.5439)
(206.556 0.426575 -0.00997718)
(206.473 -0.117379 -1.61008)
(206.095 -0.546494 -3.31983)
(205.333 -0.861301 -5.1516)
(203.985 -1.0659 -7.15911)
(201.62 -1.17177 -9.31733)
(198.154 -1.25686 -11.245)
(193.579 -1.15903 -14.3934)
(207.19 2.86858 2.79792)
(207.621 2.16425 1.16179)
(207.793 1.5194 -0.492267)
(207.704 0.943886 -2.18912)
(207.292 0.416514 -3.99635)
(206.437 -0.0687736 -5.97184)
(204.943 -0.527093 -8.20874)
(202.358 -0.99337 -10.9582)
(198.189 -1.5838 -14.0068)
(192.505 -1.82408 -20.5815)
(208.139 2.57761 3.30712)
(208.548 1.77154 1.54473)
(208.705 1.04487 -0.25678)
(208.606 0.422723 -2.09024)
(208.169 -0.13348 -4.02985)
(207.295 -0.636263 -6.15937)
(205.811 -1.11494 -8.66772)
(203.233 -1.5862 -12.0868)
(198.689 -2.15707 -16.3332)
(192.07 -2.07113 -26.7166)
(208.382 3.17801 3.30356)
(208.797 2.40348 1.45615)
(208.976 1.69445 -0.403416)
(208.918 1.08828 -2.29704)
(208.545 0.546455 -4.31007)
(207.773 0.0572748 -6.56894)
(206.401 -0.412381 -9.29946)
(203.916 -0.855369 -13.2587)
(199.143 -1.36352 -18.4766)
(191.71 -0.933528 -32.4541)
(208.736 2.66844 3.8384)
(209.178 1.80903 1.93579)
(209.396 1.04217 -0.020369)
(209.403 0.408607 -2.00868)
(209.121 -0.1469 -4.14619)
(208.485 -0.63564 -6.58672)
(207.264 -1.0925 -9.57247)
(204.941 -1.48862 -14.063)
(200.089 -1.90226 -20.2309)
(191.949 -1.07297 -37.6931)
(208.771 3.3931 3.63432)
(209.228 2.54122 1.71994)
(209.472 1.7836 -0.206795)
(209.521 1.16373 -2.17561)
(209.313 0.634907 -4.29773)
(208.805 0.182713 -6.7731)
(207.75 -0.224108 -9.8435)
(205.648 -0.548 -14.6623)
(200.884 -0.830113 -21.5476)
(192.218 0.36466 -42.21)
(208.976 2.56685 4.16008)
(209.469 1.61607 2.23758)
(209.743 0.786408 0.259114)
(209.839 0.11421 -1.74956)
(209.699 -0.450704 -3.93585)
(209.306 -0.919929 -6.51577)
(208.412 -1.30999 -9.74447)
(206.556 -1.56823 -14.9178)
(201.998 -1.65621 -22.5677)
(192.908 0.00108542 -46.245)
(208.891 3.37382 3.69577)
(209.392 2.40956 1.80353)
(209.656 1.59812 -0.0882014)
(209.725 0.950777 -2.02436)
(209.569 0.441179 -4.12039)
(209.197 0.0372378 -6.62283)
(208.398 -0.263974 -9.78132)
(206.762 -0.418407 -15.0053)
(202.533 -0.208123 -23.0527)
(193.316 1.83443 -49.2174)
(208.903 2.05541 4.24516)
(209.436 0.977344 2.402)
(209.728 0.0661191 0.525999)
(209.834 -0.688955 -1.3777)
(209.735 -1.31844 -3.48069)
(209.437 -1.83477 -6.03047)
(208.759 -2.19007 -9.33541)
(207.35 -2.32163 -14.7937)
(203.46 -1.74188 -23.4885)
(193.992 1.00291 -51.498)
(207.981 2.86378 3.63696)
(208.458 1.69308 1.78959)
(208.575 0.796299 -0.0346824)
(208.362 0.0677806 -1.90547)
(207.834 -0.474206 -3.92988)
(207.026 -0.855638 -6.35387)
(205.826 -1.0133 -9.46977)
(204.024 -0.832118 -14.5641)
(200.282 0.222239 -23.038)
(191.635 4.03739 -51.3446)
(203.517 1.42791 2.33437)
(204.02 0.833569 1.21629)
(204.201 0.302537 -0.013274)
(204.097 -0.131744 -1.26342)
(203.697 -0.482349 -2.55463)
(202.95 -0.746702 -3.83245)
(201.764 -0.93458 -5.04907)
(199.989 -1.0715 -6.0548)
(197.434 -1.24287 -6.4985)
(194.217 -1.43224 -6.5169)
(204.912 2.41428 2.31325)
(205.407 1.87195 0.946132)
(205.587 1.34566 -0.448804)
(205.464 0.855017 -1.86579)
(205 0.389929 -3.33137)
(204.112 -0.0549509 -4.84816)
(202.638 -0.492935 -6.37975)
(200.31 -0.955655 -7.86299)
(196.687 -1.55449 -8.80245)
(191.847 -2.13657 -9.81071)
(205.947 2.21205 2.94809)
(206.447 1.52885 1.39544)
(206.627 0.890649 -0.208766)
(206.502 0.327194 -1.83808)
(206.014 -0.193559 -3.53884)
(205.061 -0.681532 -5.32776)
(203.445 -1.16148 -7.21465)
(200.801 -1.66357 -9.29203)
(196.299 -2.33215 -11.0028)
(189.857 -2.91117 -13.584)
(206.344 2.89696 2.99422)
(206.866 2.22033 1.3181)
(207.072 1.57956 -0.380874)
(206.982 1.01447 -2.11237)
(206.531 0.491551 -3.94034)
(205.615 0.00105374 -5.92308)
(203.983 -0.488914 -8.10651)
(201.17 -0.995785 -10.7406)
(195.931 -1.68091 -13.2006)
(187.995 -2.16623 -17.5586)
(206.846 2.42643 3.56884)
(207.4 1.64998 1.80547)
(207.643 0.940748 -0.0195655)
(207.609 0.340547 -1.87744)
(207.228 -0.201089 -3.86953)
(206.401 -0.692657 -6.08634)
(204.828 -1.16964 -8.60264)
(201.97 -1.63807 -11.8317)
(196.184 -2.28611 -15.1301)
(186.926 -2.57769 -21.5717)
(207.012 3.20019 3.38977)
(207.585 2.41739 1.59388)
(207.855 1.70782 -0.222487)
(207.863 1.11492 -2.08444)
(207.544 0.594121 -4.09229)
(206.815 0.133091 -6.38756)
(205.342 -0.303615 -9.06306)
(202.542 -0.715555 -12.7147)
(196.409 -1.2766 -16.715)
(186.061 -1.34001 -25.333)
(207.33 2.39049 3.93883)
(207.935 1.50288 2.11668)
(208.234 0.720185 0.231293)
(208.288 0.0785669 -1.68947)
(208.032 -0.470387 -3.78536)
(207.402 -0.934982 -6.22109)
(206.047 -1.33766 -9.12172)
(203.367 -1.66923 -13.2321)
(197.06 -2.06866 -18.0275)
(185.783 -1.79922 -28.9562)
(207.337 3.23553 3.47887)
(207.95 2.33244 1.68355)
(208.243 1.56579 -0.11761)
(208.28 0.948618 -1.97012)
(208.017 0.454338 -3.98472)
(207.414 0.0566668 -6.36734)
(206.145 -0.257226 -9.26058)
(203.617 -0.487871 -13.5544)
(197.326 -0.620564 -18.8722)
(185.387 -0.0696705 -31.8725)
(207.429 1.90357 4.0328)
(208.061 0.887432 2.27502)
(208.376 0.0349003 0.4727)
(208.441 -0.660691 -1.3616)
(208.22 -1.23124 -3.38785)
(207.68 -1.68699 -5.81521)
(206.521 -1.99264 -8.87653)
(204.188 -2.1267 -13.515)
(198.029 -1.86074 -19.6421)
(185.306 -0.799296 -34.2637)
(206.573 2.76958 3.39227)
(207.153 1.67667 1.66375)
(207.338 0.850636 -0.0526528)
(207.166 0.187342 -1.82458)
(206.629 -0.293665 -3.74854)
(205.717 -0.615382 -6.03824)
(204.201 -0.726516 -8.92242)
(201.63 -0.547162 -13.3058)
(195.609 0.217592 -19.5469)
(182.828 2.30022 -34.6944)
(201.781 0.949112 1.70179)
(202.218 0.54771 0.911411)
(202.369 0.165643 0.00790089)
(202.27 -0.157864 -0.896416)
(201.922 -0.428585 -1.80008)
(201.307 -0.641161 -2.62149)
(200.395 -0.807816 -3.29566)
(199.161 -0.952062 -3.68718)
(197.602 -1.12929 -3.58049)
(195.871 -1.36487 -2.75287)
(203.103 1.90749 1.7914)
(203.57 1.53201 0.718129)
(203.733 1.13484 -0.38772)
(203.602 0.741819 -1.49712)
(203.154 0.354138 -2.6017)
(202.344 -0.030986 -3.67095)
(201.095 -0.42421 -4.62883)
(199.303 -0.848002 -5.34701)
(196.838 -1.37056 -5.40303)
(194.04 -1.93788 -4.6197)
(204.092 1.7599 2.50355)
(204.602 1.22002 1.20607)
(204.778 0.690201 -0.150832)
(204.636 0.204641 -1.518)
(204.136 -0.260133 -2.91217)
(203.208 -0.712445 -4.31342)
(201.717 -1.17172 -5.65531)
(199.468 -1.66422 -6.84635)
(196.113 -2.29566 -7.29998)
(192.034 -2.9915 -6.92402)
(204.551 2.52658 2.58712)
(205.108 1.97218 1.13178)
(205.313 1.42081 -0.354577)
(205.19 0.916121 -1.8612)
(204.69 0.43289 -3.42373)
(203.723 -0.0381787 -5.05639)
(202.095 -0.526164 -6.71337)
(199.508 -1.05351 -8.37936)
(195.292 -1.75933 -9.29351)
(189.827 -2.52567 -9.54029)
(205.137 2.101 3.20277)
(205.738 1.43199 1.62536)
(205.978 0.80024 -0.0199737)
(205.897 0.249937 -1.68743)
(205.432 -0.261432 -3.45168)
(204.489 -0.741808 -5.35628)
(202.811 -1.22415 -7.38188)
(200.008 -1.72772 -9.61126)
(195.04 -2.44204 -11.1402)
(188.235 -3.18121 -12.3679)
(205.394 2.92936 3.0527)
(206.023 2.2393 1.41839)
(206.29 1.59624 -0.24383)
(206.243 1.04566 -1.94383)
(205.817 0.54877 -3.75866)
(204.923 0.093084 -5.7801)
(203.254 -0.359088 -8.01117)
(200.343 -0.826347 -10.6685)
(194.77 -1.5068 -12.7413)
(186.758 -2.1665 -15.1349)
(205.796 2.14606 3.63089)
(206.458 1.34319 1.94758)
(206.753 0.623359 0.194417)
(206.746 0.0242323 -1.58899)
(206.368 -0.498198 -3.52107)
(205.538 -0.951725 -5.71768)
(203.915 -1.36288 -8.22171)
(200.976 -1.74468 -11.3675)
(194.944 -2.30045 -14.1235)
(185.843 -2.77402 -17.9493)
(205.884 3.04182 3.18187)
(206.553 2.21934 1.51796)
(206.846 1.51089 -0.159341)
(206.828 0.933844 -1.88665)
(206.444 0.463295 -3.75591)
(205.631 0.0769948 -5.92617)
(204.048 -0.247008 -8.4676)
(201.147 -0.535986 -11.8565)
(194.857 -0.880727 -15.1101)
(184.869 -1.19392 -20.3181)
(206.044 1.7084 3.76452)
(206.724 0.770866 2.12356)
(207.033 -0.0164561 0.423875)
(207.039 -0.652883 -1.30799)
(206.689 -1.16974 -3.2103)
(205.919 -1.57419 -5.43811)
(204.393 -1.84576 -8.14337)
(201.582 -1.99543 -11.8892)
(195.221 -1.94755 -15.9862)
(184.257 -1.89923 -22.3805)
(205.256 2.64802 3.10259)
(205.889 1.6452 1.51469)
(206.107 0.893048 -0.0759254)
(205.943 0.293624 -1.72675)
(205.373 -0.131746 -3.51646)
(204.349 -0.403141 -5.61281)
(202.583 -0.481758 -8.16709)
(199.582 -0.316639 -11.7257)
(193.24 0.228206 -16.0578)
(181.785 1.20164 -22.863)
(200.571 0.55112 1.19394)
(200.913 0.294918 0.666108)
(201.028 0.0340565 0.0357598)
(200.953 -0.195281 -0.583089)
(200.694 -0.396655 -1.18743)
(200.256 -0.562395 -1.69751)
(199.643 -0.702063 -2.06661)
(198.881 -0.830797 -2.20479)
(198.016 -0.975074 -2.02032)
(197.164 -1.14158 -1.42912)
(201.727 1.43452 1.31136)
(202.121 1.20002 0.51025)
(202.258 0.920743 -0.321242)
(202.144 0.622175 -1.14562)
(201.771 0.313526 -1.93591)
(201.123 -0.00395248 -2.64897)
(200.178 -0.334773 -3.21066)
(198.934 -0.688743 -3.5126)
(197.411 -1.09412 -3.32757)
(195.914 -1.51127 -2.51764)
(202.577 1.29271 2.05043)
(203.048 0.890612 1.01564)
(203.209 0.470807 -0.0832984)
(203.076 0.0689943 -1.18038)
(202.623 -0.3296 -2.26758)
(201.814 -0.729616 -3.30342)
(200.583 -1.14427 -4.20336)
(198.865 -1.59106 -4.83741)
(196.582 -2.12526 -4.81326)
(194.193 -2.6942 -3.92696)
(203.017 2.11734 2.14837)
(203.559 1.69109 0.935482)
(203.755 1.23756 -0.315484)
(203.626 0.803258 -1.5742)
(203.135 0.372907 -2.8471)
(202.225 -0.0600194 -4.11447)
(200.775 -0.519657 -5.29414)
(198.642 -1.02521 -6.27061)
(195.552 -1.66461 -6.46641)
(192.083 -2.36904 -5.60752)
(203.616 1.72875 2.79424)
(204.221 1.17895 1.43094)
(204.453 0.635781 -0.00657167)
(204.349 0.145938 -1.45388)
(203.858 -0.322868 -2.95357)
(202.908 -0.776603 -4.50653)
(201.317 -1.24378 -6.04465)
(198.86 -1.74672 -7.49225)
(194.996 -2.42631 -8.08612)
(190.379 -3.19381 -7.53434)
(203.913 2.60713 2.66958)
(204.561 2.02454 1.22687)
(204.822 1.46014 -0.251865)
(204.742 0.962255 -1.75774)
(204.264 0.500797 -3.33669)
(203.308 0.0646053 -5.02976)
(201.637 -0.383708 -6.78409)
(198.952 -0.870427 -8.60571)
(194.393 -1.55924 -9.55977)
(188.652 -2.35305 -9.45945)
(204.362 1.85338 3.27561)
(205.05 1.15109 1.76109)
(205.338 0.505809 0.169064)
(205.29 -0.0419389 -1.44485)
(204.84 -0.529035 -3.16834)
(203.907 -0.962436 -5.06306)
(202.205 -1.37094 -7.11183)
(199.37 -1.77957 -9.39675)
(194.214 -2.37968 -10.8781)
(187.39 -3.09954 -11.5021)
(204.504 2.80595 2.83929)
(205.204 2.07976 1.3339)
(205.495 1.44067 -0.193553)
(205.439 0.912173 -1.76646)
(204.98 0.473526 -3.44903)
(204.044 0.106129 -5.34441)
(202.327 -0.218599 -7.4584)
(199.42 -0.543151 -9.9907)
(193.839 -0.991216 -11.8663)
(186.055 -1.65653 -13.2454)
(204.717 1.47464 3.45729)
(205.425 0.63049 1.95861)
(205.729 -0.0843261 0.386399)
(205.692 -0.659602 -1.21512)
(205.257 -1.12418 -2.95751)
(204.348 -1.48265 -4.93718)
(202.645 -1.72717 -7.22514)
(199.715 -1.89029 -10.0745)
(193.889 -1.98183 -12.6837)
(185.057 -2.39471 -14.8185)
(203.991 2.50146 2.77471)
(204.656 1.59933 1.34467)
(204.897 0.925128 -0.103768)
(204.741 0.389856 -1.61327)
(204.153 0.0174478 -3.24031)
(203.069 -0.20934 -5.10203)
(201.2 -0.264032 -7.27269)
(198.102 -0.118997 -10.0005)
(192.174 0.260006 -12.811)
(182.633 0.640324 -15.1308)
(199.739 0.251687 0.82488)
(199.993 0.0931325 0.488408)
(200.075 -0.0795471 0.0636012)
(200.023 -0.236487 -0.342712)
(199.848 -0.382074 -0.735395)
(199.56 -0.50732 -1.0465)
(199.175 -0.618471 -1.25087)
(198.724 -0.723002 -1.29412)
(198.247 -0.831641 -1.14383)
(197.791 -0.943192 -0.777497)
(200.717 1.04044 0.910866)
(201.019 0.91108 0.33673)
(201.126 0.728227 -0.260152)
(201.038 0.512481 -0.84517)
(200.754 0.277254 -1.38648)
(200.276 0.0267716 -1.84331)
(199.612 -0.237718 -2.15828)
(198.794 -0.516782 -2.25868)
(197.885 -0.815346 -2.03778)
(197.078 -1.10364 -1.43094)
(201.39 0.861574 1.63603)
(201.788 0.57504 0.842238)
(201.926 0.254818 -0.0152742)
(201.813 -0.0660492 -0.863778)
(201.436 -0.395741 -1.68088)
(200.784 -0.734749 -2.41795)
(199.839 -1.08965 -2.99864)
(198.61 -1.46913 -3.31459)
(197.136 -1.89524 -3.14387)
(195.749 -2.32525 -2.34647)
(201.758 1.71206 1.7204)
(202.246 1.40389 0.746226)
(202.423 1.04627 -0.26925)
(202.301 0.685485 -1.28317)
(201.86 0.31519 -2.28034)
(201.068 -0.0669852 -3.22109)
(199.87 -0.477705 -4.01849)
(198.23 -0.929457 -4.5453)
(196.096 -1.46849 -4.43725)
(193.954 -2.0407 -3.43905)
(202.316 1.34314 2.3775)
(202.884 0.910909 1.23664)
(203.097 0.459469 0.0179786)
(202.986 0.0360165 -1.20019)
(202.514 -0.381501 -2.43267)
(201.634 -0.795711 -3.64945)
(200.239 -1.22835 -4.76371)
(198.235 -1.69893 -5.64697)
(195.416 -2.29713 -5.7744)
(192.408 -2.96203 -4.76565)
(202.61 2.25827 2.26784)
(203.236 1.78729 1.03186)
(203.482 1.30765 -0.246577)
(203.383 0.869462 -1.54192)
(202.897 0.45209 -2.87082)
(201.964 0.0473282 -4.23245)
(200.423 -0.377626 -5.54366)
(198.122 -0.849216 -6.712)
(194.641 -1.48311 -7.0464)
(190.724 -2.22636 -6.09534)
(203.07 1.53071 2.89455)
(203.746 0.93676 1.56774)
(204.02 0.373374 0.156802)
(203.945 -0.116314 -1.26716)
(203.464 -0.560797 -2.76059)
(202.51 -0.965116 -4.33686)
(200.874 -1.35694 -5.93765)
(198.341 -1.76595 -7.50452)
(194.246 -2.34316 -8.22477)
(189.396 -3.07467 -7.55855)
(203.239 2.54059 2.46827)
(203.937 1.92022 1.14019)
(204.218 1.35844 -0.217929)
(204.135 0.885177 -1.61531)
(203.639 0.485199 -3.08705)
(202.659 0.144001 -4.6843)
(200.957 -0.168892 -6.36136)
(198.267 -0.501235 -8.14045)
(193.685 -0.973328 -9.13445)
(187.954 -1.71693 -8.79335)
(203.488 1.21048 3.12312)
(204.196 0.469751 1.78554)
(204.487 -0.167026 0.360795)
(204.418 -0.67945 -1.08806)
(203.935 -1.09254 -2.64478)
(202.963 -1.40836 -4.35252)
(201.236 -1.62841 -6.21898)
(198.442 -1.79477 -8.27892)
(193.523 -1.95811 -9.83221)
(186.815 -2.51403 -9.91441)
(202.813 2.33617 2.41847)
(203.482 1.54218 1.15875)
(203.733 0.949059 -0.134028)
(203.582 0.478214 -1.48548)
(202.994 0.15647 -2.92838)
(201.898 -0.0308392 -4.53214)
(200.048 -0.0680777 -6.30676)
(197.093 0.0555968 -8.29696)
(191.995 0.31371 -9.98369)
(184.568 0.412593 -10.0824)
(199.165 0.0421308 0.576358)
(199.35 -0.056571 0.369758)
(199.406 -0.170412 0.0876301)
(199.374 -0.2758 -0.172445)
(199.263 -0.379257 -0.425536)
(199.085 -0.471392 -0.616464)
(198.855 -0.556057 -0.736408)
(198.596 -0.635521 -0.752734)
(198.335 -0.712793 -0.658274)
(198.074 -0.784021 -0.451625)
(199.987 0.740708 0.599025)
(200.205 0.682387 0.20023)
(200.283 0.572078 -0.211216)
(200.22 0.423588 -0.609823)
(200.019 0.251727 -0.966817)
(199.689 0.0621833 -1.25029)
(199.247 -0.139703 -1.42133)
(198.73 -0.349571 -1.43692)
(198.196 -0.562289 -1.25227)
(197.759 -0.754268 -0.850817)
(200.485 0.495521 1.28423)
(200.799 0.296425 0.694332)
(200.909 0.0590791 0.0457464)
(200.82 -0.189333 -0.591076)
(200.528 -0.453063 -1.18891)
(200.034 -0.729381 -1.7022)
(199.348 -1.01955 -2.07147)
(198.506 -1.32478 -2.2226)
(197.579 -1.64854 -2.04286)
(196.775 -1.9576 -1.47323)
(200.757 1.34208 1.33065)
(201.169 1.13256 0.573951)
(201.319 0.861556 -0.222736)
(201.215 0.571862 -1.01234)
(200.845 0.263708 -1.76785)
(200.199 -0.0613136 -2.44286)
(199.265 -0.411785 -2.96163)
(198.062 -0.792667 -3.22039)
(196.637 -1.22216 -3.01373)
(195.324 -1.65797 -2.19301)
(201.238 0.972692 1.97818)
(201.741 0.646446 1.05178)
(201.928 0.283067 0.0480871)
(201.823 -0.0725479 -0.948049)
(201.401 -0.433703 -1.93193)
(200.638 -0.799309 -2.85721)
(199.486 -1.18346 -3.63817)
(197.931 -1.59947 -4.14865)
(195.952 -2.09689 -4.06604)
(194.019 -2.6278 -3.11849)
(201.497 1.90627 1.86994)
(202.07 1.54176 0.841988)
(202.292 1.14715 -0.231725)
(202.189 0.77218 -1.31392)
(201.731 0.404867 -2.39862)
(200.88 0.0407137 -3.4575)
(199.546 -0.345489 -4.39854)
(197.675 -0.775067 -5.09976)
(195.127 -1.31992 -5.10525)
(192.504 -1.94569 -4.03103)
(201.938 1.19697 2.50641)
(202.573 0.7111 1.3748)
(202.824 0.232237 0.155126)
(202.735 -0.195336 -1.06965)
(202.262 -0.591726 -2.32911)
(201.356 -0.959296 -3.60164)
(199.882 -1.32165 -4.80837)
(197.74 -1.70679 -5.82717)
(194.631 -2.22172 -6.09922)
(191.266 -2.86457 -5.07339)
(202.11 2.25996 2.08454)
(202.774 1.74816 0.943383)
(203.037 1.26777 -0.23365)
(202.94 0.854134 -1.44322)
(202.442 0.497868 -2.69431)
(201.488 0.188607 -3.9975)
(199.91 -0.102016 -5.27598)
(197.561 -0.417634 -6.45331)
(193.978 -0.857833 -6.88314)
(189.88 -1.53912 -5.9233)
(202.378 0.926454 2.77515)
(203.058 0.293489 1.60957)
(203.331 -0.262305 0.34588)
(203.243 -0.711175 -0.935482)
(202.747 -1.07367 -2.29248)
(201.781 -1.34941 -3.72572)
(200.147 -1.54597 -5.20101)
(197.646 -1.70589 -6.629)
(193.704 -1.88954 -7.46374)
(188.79 -2.41859 -6.70007)
(201.741 2.16027 2.04526)
(202.387 1.47794 0.962287)
(202.636 0.967422 -0.165709)
(202.492 0.560752 -1.34766)
(201.924 0.287417 -2.59386)
(200.867 0.134968 -3.93394)
(199.131 0.110293 -5.33125)
(196.475 0.213104 -6.71451)
(192.319 0.384837 -7.61552)
(186.787 0.372406 -6.78109)
(198.759 -0.0985018 0.417776)
(198.896 -0.162725 0.295557)
(198.934 -0.239686 0.10703)
(198.915 -0.31032 -0.0578444)
(198.848 -0.383475 -0.222985)
(198.743 -0.449997 -0.343346)
(198.609 -0.512446 -0.420361)
(198.463 -0.570404 -0.432977)
(198.317 -0.623681 -0.383267)
(198.15 -0.668239 -0.273328)
(199.463 0.5307 0.367254)
(199.611 0.516939 0.0967103)
(199.665 0.457862 -0.176583)
(199.623 0.360808 -0.43799)
(199.489 0.240387 -0.664909)
(199.271 0.102599 -0.835112)
(198.989 -0.0453564 -0.924324)
(198.671 -0.197154 -0.908709)
(198.359 -0.344792 -0.771815)
(198.117 -0.470626 -0.513377)
(199.805 0.204894 1.00205)
(200.038 0.0667172 0.574556)
(200.122 -0.106026 0.0960963)
(200.057 -0.293451 -0.37078)
(199.843 -0.498109 -0.800164)
(199.488 -0.715641 -1.15462)
(199.011 -0.943931 -1.39157)
(198.452 -1.17945 -1.46532)
(197.876 -1.4171 -1.32177)
(197.406 -1.63212 -0.94631)
(199.982 1.02644 0.994565)
(200.311 0.892918 0.424438)
(200.432 0.695113 -0.180677)
(200.349 0.470008 -0.776289)
(200.056 0.221824 -1.33176)
(199.557 -0.0450471 -1.8032)
(198.861 -0.332437 -2.13148)
(198.009 -0.639453 -2.24268)
(197.075 -0.967787 -2.02958)
(196.271 -1.28564 -1.4235)
(200.369 0.639167 1.61502)
(200.791 0.401529 0.883269)
(200.949 0.117552 0.0789823)
(200.858 -0.172789 -0.713866)
(200.502 -0.476221 -1.47949)
(199.876 -0.788491 -2.16742)
(198.969 -1.117 -2.70374)
(197.809 -1.46802 -2.98659)
(196.453 -1.86398 -2.83143)
(195.218 -2.26678 -2.08454)
(200.572 1.57168 1.49515)
(201.072 1.3016 0.664704)
(201.265 0.987243 -0.211054)
(201.168 0.67548 -1.08916)
(200.762 0.361281 -1.94901)
(200.029 0.0436814 -2.74881)
(198.93 -0.294042 -3.40237)
(197.471 -0.666031 -3.79556)
(195.657 -1.11 -3.64696)
(193.921 -1.60336 -2.7122)
(200.977 0.870666 2.12903)
(201.546 0.485729 1.18915)
(201.769 0.0894637 0.161011)
(201.677 -0.274848 -0.865978)
(201.24 -0.619876 -1.90117)
(200.428 -0.945112 -2.90244)
(199.168 -1.2687 -3.78746)
(197.434 -1.61285 -4.42103)
(195.149 -2.04658 -4.44745)
(192.849 -2.56756 -3.45688)
(201.127 1.97915 1.70435)
(201.734 1.57217 0.750236)
(201.971 1.17317 -0.242403)
(201.87 0.820974 -1.26113)
(201.401 0.511527 -2.29432)
(200.524 0.238294 -3.32552)
(199.138 -0.0225339 -4.26586)
(197.18 -0.305827 -5.00177)
(194.477 -0.68361 -5.08972)
(191.604 -1.24164 -4.02933)
(201.403 0.634424 2.42787)
(202.032 0.107768 1.43666)
(202.28 -0.367113 0.340275)
(202.184 -0.753149 -0.767087)
(201.705 -1.06635 -1.92179)
(200.799 -1.30417 -3.09464)
(199.335 -1.47734 -4.22895)
(197.207 -1.62394 -5.18396)
(194.167 -1.79831 -5.56507)
(190.666 -2.23199 -4.57255)
(200.79 1.98329 1.6678)
(201.391 1.41181 0.761357)
(201.627 0.983323 -0.198145)
(201.493 0.639595 -1.20546)
(200.962 0.412113 -2.2518)
(199.986 0.29028 -3.33739)
(198.433 0.274578 -4.39692)
(196.157 0.358303 -5.31039)
(192.901 0.468958 -5.695)
(188.926 0.424343 -4.59117)
(198.46 -0.19176 0.321277)
(198.567 -0.236985 0.252215)
(198.592 -0.291963 0.122489)
(198.582 -0.340128 0.0170249)
(198.543 -0.392368 -0.0945613)
(198.483 -0.440072 -0.174413)
(198.407 -0.485287 -0.229687)
(198.325 -0.526532 -0.245343)
(198.241 -0.56258 -0.226319)
(198.122 -0.590005 -0.173602)
(199.082 0.396301 0.199424)
(199.179 0.408974 0.0190412)
(199.215 0.38439 -0.155802)
(199.189 0.324873 -0.320392)
(199.102 0.244157 -0.458594)
(198.965 0.147908 -0.556188)
(198.789 0.0433922 -0.598977)
(198.598 -0.0628705 -0.574077)
(198.416 -0.163147 -0.477324)
(198.28 -0.244473 -0.311625)
(199.297 -0.012945 0.785433)
(199.463 -0.111521 0.48137)
(199.523 -0.236467 0.134748)
(199.478 -0.375122 -0.202078)
(199.328 -0.529746 -0.507351)
(199.083 -0.695853 -0.752841)
(198.764 -0.869588 -0.909793)
(198.402 -1.04537 -0.952066)
(198.047 -1.21542 -0.85431)
(197.771 -1.36179 -0.621802)
(199.394 0.772725 0.717081)
(199.644 0.693824 0.299584)
(199.738 0.554542 -0.145919)
(199.675 0.385103 -0.581619)
(199.454 0.191552 -0.978613)
(199.085 -0.0201828 -1.30019)
(198.587 -0.247582 -1.50354)
(198.001 -0.48623 -1.54014)
(197.395 -0.729939 -1.35772)
(196.902 -0.95507 -0.931544)
(199.685 0.356111 1.29887)
(200.023 0.187965 0.735197)
(200.15 -0.0281341 0.106956)
(200.076 -0.258862 -0.508554)
(199.791 -0.506559 -1.09112)
(199.301 -0.764896 -1.59404)
(198.615 -1.03642 -1.95892)
(197.777 -1.32146 -2.11244)
(196.862 -1.62674 -1.9542)
(196.077 -1.92105 -1.41125)
(199.825 1.26979 1.15768)
(200.241 1.07823 0.505679)
(200.402 0.835629 -0.187856)
(200.318 0.583897 -0.879834)
(199.976 0.322924 -1.54232)
(199.375 0.0544963 -2.13057)
(198.507 -0.230278 -2.57195)
(197.408 -0.539156 -2.77556)
(196.142 -0.886702 -2.57469)
(195.003 -1.25723 -1.84128)
(200.182 0.567743 1.77725)
(200.672 0.271714 1.01654)
(200.862 -0.0477036 0.171316)
(200.777 -0.350461 -0.668492)
(200.394 -0.643268 -1.49885)
(199.702 -0.923063 -2.2693)
(198.671 -1.20266 -2.90499)
(197.318 -1.49699 -3.28526)
(195.677 -1.84701 -3.1966)
(194.125 -2.24539 -2.37603)
(200.294 1.7122 1.3426)
(200.826 1.40098 0.567045)
(201.034 1.07964 -0.246116)
(200.937 0.788034 -1.07971)
(200.516 0.526436 -1.90799)
(199.749 0.29154 -2.69978)
(198.585 0.0652434 -3.36782)
(197.018 -0.178081 -3.80029)
(195.032 -0.485343 -3.70297)
(193.052 -0.910362 -2.75645)
(200.569 0.34611 2.09531)
(201.13 -0.0808706 1.27276)
(201.348 -0.477961 0.342412)
(201.253 -0.803555 -0.592756)
(200.815 -1.06952 -1.55273)
(200.007 -1.27151 -2.49086)
(198.754 -1.42127 -3.34289)
(197.018 -1.5501 -3.96244)
(194.741 -1.70149 -4.08203)
(192.304 -2.03016 -3.14717)
(199.969 1.81517 1.29872)
(200.506 1.34963 0.56205)
(200.721 1.00025 -0.231131)
(200.6 0.716966 -1.06539)
(200.123 0.532283 -1.91751)
(199.258 0.437126 -2.76897)
(197.924 0.42779 -3.54129)
(196.053 0.494875 -4.1095)
(193.583 0.562946 -4.17924)
(190.809 0.519247 -3.11544)
(198.232 -0.255804 0.265842)
(198.319 -0.290743 0.229541)
(198.337 -0.333197 0.135469)
(198.332 -0.367329 0.0658003)
(198.31 -0.405654 -0.0140064)
(198.276 -0.44014 -0.0711383)
(198.233 -0.472752 -0.115479)
(198.187 -0.501785 -0.135259)
(198.137 -0.525875 -0.13599)
(198.043 -0.542318 -0.116916)
(198.8 0.320923 0.0782179)
(198.862 0.348761 -0.0403004)
(198.886 0.346668 -0.147104)
(198.87 0.313618 -0.245248)
(198.816 0.262378 -0.324156)
(198.731 0.197926 -0.37533)
(198.625 0.126632 -0.390985)
(198.511 0.0543382 -0.363989)
(198.405 -0.0126042 -0.29527)
(198.326 -0.0646504 -0.185938)
(198.916 -0.167987 0.624923)
(199.028 -0.242239 0.411073)
(199.07 -0.333257 0.16249)
(199.04 -0.434576 -0.0787442)
(198.939 -0.548835 -0.295607)
(198.777 -0.672405 -0.468023)
(198.569 -0.800837 -0.577343)
(198.34 -0.92836 -0.609501)
(198.123 -1.04746 -0.552198)
(197.96 -1.14553 -0.417671)
(198.954 0.57984 0.495813)
(199.137 0.537825 0.19841)
(199.207 0.443186 -0.119647)
(199.161 0.319585 -0.4288)
(199.002 0.173362 -0.704642)
(198.739 0.0109896 -0.918877)
(198.393 -0.163028 -1.04216)
(198 -0.342749 -1.04428)
(197.611 -0.519502 -0.902054)
(197.308 -0.676243 -0.609706)
(199.156 0.129435 1.03352)
(199.416 0.0128602 0.608899)
(199.515 -0.1478 0.129485)
(199.457 -0.326544 -0.337737)
(199.239 -0.523129 -0.772493)
(198.87 -0.730468 -1.13574)
(198.37 -0.94786 -1.38416)
(197.78 -1.1719 -1.46911)
(197.172 -1.40165 -1.33823)
(196.674 -1.61138 -0.963667)
(199.235 1.00975 0.866133)
(199.568 0.879696 0.368467)
(199.697 0.698195 -0.164656)
(199.627 0.500849 -0.694165)
(199.353 0.290545 -1.19043)
(198.88 0.0708825 -1.61234)
(198.22 -0.160918 -1.90292)
(197.417 -0.408011 -1.99706)
(196.547 -0.671582 -1.79857)
(195.805 -0.940698 -1.25424)
(199.543 0.300167 1.46164)
(199.948 0.0784865 0.861088)
(200.106 -0.172547 0.183108)
(200.031 -0.417917 -0.487085)
(199.711 -0.660001 -1.13801)
(199.147 -0.893836 -1.71956)
(198.335 -1.12798 -2.16947)
(197.314 -1.37037 -2.3923)
(196.156 -1.64415 -2.2674)
(195.12 -1.93653 -1.63859)
(199.605 1.47062 1.01132)
(200.053 1.24248 0.399043)
(200.228 0.99204 -0.246685)
(200.141 0.757753 -0.908245)
(199.781 0.542984 -1.55198)
(199.139 0.346863 -2.14158)
(198.2 0.157244 -2.59941)
(196.989 -0.0438243 -2.83415)
(195.562 -0.284674 -2.65422)
(194.219 -0.594796 -1.88853)
(199.876 0.0717161 1.78968)
(200.359 -0.266194 1.12322)
(200.545 -0.591335 0.350731)
(200.458 -0.860556 -0.421498)
(200.075 -1.08225 -1.20235)
(199.386 -1.25078 -1.93802)
(198.356 -1.37755 -2.56668)
(196.99 -1.48632 -2.96)
(195.327 -1.60996 -2.94809)
(193.664 -1.84764 -2.17773)
(199.279 1.66538 0.949167)
(199.741 1.29739 0.369857)
(199.929 1.02194 -0.26485)
(199.823 0.795286 -0.933943)
(199.41 0.649785 -1.60485)
(198.672 0.577639 -2.24967)
(197.57 0.572807 -2.78836)
(196.088 0.625862 -3.11461)
(194.265 0.664536 -3.0109)
(192.377 0.633192 -2.10692)
(198.051 -0.304379 0.23755)
(198.126 -0.333756 0.220995)
(198.139 -0.369451 0.147726)
(198.137 -0.39515 0.0987494)
(198.125 -0.424543 0.037272)
(198.105 -0.450112 -0.00769666)
(198.081 -0.473914 -0.0468944)
(198.055 -0.49436 -0.0705257)
(198.024 -0.510289 -0.0839966)
(197.945 -0.519626 -0.0851089)
(198.587 0.289417 -0.0112701)
(198.626 0.326105 -0.087834)
(198.642 0.338386 -0.148355)
(198.632 0.323623 -0.201468)
(198.6 0.293649 -0.240953)
(198.549 0.25259 -0.261999)
(198.485 0.205677 -0.260763)
(198.418 0.157757 -0.23298)
(198.355 0.113644 -0.181739)
(198.308 0.0805422 -0.105151)
(198.624 -0.27312 0.509452)
(198.699 -0.33307 0.359344)
(198.726 -0.400729 0.181145)
(198.707 -0.474528 0.00779993)
(198.641 -0.557708 -0.147801)
(198.536 -0.647623 -0.272106)
(198.404 -0.740183 -0.353211)
(198.262 -0.830352 -0.384051)
(198.131 -0.911983 -0.357697)
(198.035 -0.976482 -0.288267)
(198.63 0.441142 0.324003)
(198.758 0.422566 0.118188)
(198.808 0.360651 -0.101763)
(198.777 0.27333 -0.314203)
(198.666 0.166401 -0.500175)
(198.485 0.0460164 -0.638974)
(198.252 -0.0829182 -0.71138)
(197.993 -0.214333 -0.699086)
(197.746 -0.339818 -0.593723)
(197.559 -0.447607 -0.395094)
(198.754 -0.0410499 0.817309)