/*--------------------------------*- C++ -*----------------------------------*\
| =========                 |                                                 |
| \\      /  F ield         | foam-extend: Open Source CFD                    |
|  \\    /   O peration     | Version:     4.0                                |
|   \\  /    A nd           | Web:         http://www.foam-extend.org         |
|    \\/     M anipulation  |                                                 |
\*---------------------------------------------------------------------------*/
FoamFile
{
    version     2.0;
    format      ascii;
    class       volScalarField;
    location    "200";
    object      alphat;
}
// * * * * * * * * * * * * * * * * * * * * * * * * * * * * * * * * * * * * * //

dimensions      [1 -1 -1 0 0 0 0];

internalField   nonuniform List<scalar> 
34480
(
0.00192559
0.00192373
0.00192269
0.00192258
0.00192524
0.00193393
0.00195461
0.00199296
0.00204449
0.00214348
0.0207162
0.0186659
0.0153808
0.0108743
0.00643829
0.00352137
0.00224672
0.00203344
0.00229983
0.00249193
0.052539
0.0471691
0.0389617
0.0281209
0.0167244
0.00840161
0.00440572
0.00329845
0.00345796
0.00356033
0.0642739
0.0587006
0.0497942
0.0372926
0.0229728
0.0115258
0.00571613
0.00402542
0.00420675
0.00431605
0.0694161
0.0643843
0.0558841
0.0430803
0.0272559
0.0137051
0.00660628
0.00456781
0.00489662
0.00505976
0.0712864
0.0669248
0.0589837
0.0461954
0.0295116
0.0147602
0.00704607
0.00497077
0.00557569
0.00580422
0.0694474
0.0660784
0.0591409
0.0469734
0.0302393
0.0150775
0.00716732
0.00518484
0.00610118
0.00641797
0.0575538
0.0560661
0.0514475
0.0416962
0.0270214
0.0134019
0.00639697
0.00486184
0.00616805
0.00671132
0.0187503
0.0193668
0.019322
0.0171696
0.0119666
0.0063401
0.00334966
0.00302065
0.00462256
0.00574893
0.00181282
0.00180503
0.00180018
0.00179848
0.00180131
0.0018084
0.00182241
0.00185918
0.00192076
0.00192324
0.00192862
0.00192791
0.00192869
0.00193091
0.00193536
0.00194296
0.00195672
0.00198222
0.00202665
0.0021022
0.0197909
0.0192704
0.0184029
0.0165947
0.0136039
0.00949407
0.00549149
0.00334461
0.00301346
0.00382559
0.0516297
0.0491808
0.0449445
0.0386486
0.0302478
0.0207983
0.0117507
0.00629253
0.00513218
0.00650633
0.0630418
0.060589
0.0560352
0.0489927
0.0390923
0.0273724
0.0156114
0.00799102
0.00641472
0.00845331
0.068023
0.0661123
0.0621463
0.0554257
0.0452414
0.0321577
0.0183927
0.00913549
0.00747215
0.0104179
0.0698892
0.0686688
0.0655117
0.0594434
0.049381
0.0354145
0.0201563
0.00987935
0.00849191
0.0124835
0.068125
0.067788
0.0657926
0.0608955
0.0516037
0.0375054
0.0212741
0.0102737
0.00926941
0.0142338
0.0561055
0.0569863
0.056913
0.0545639
0.0479835
0.0359334
0.0203857
0.00960274
0.00923043
0.0150253
0.0177283
0.018572
0.0197106
0.0209651
0.0215352
0.0192677
0.012027
0.00559608
0.00628723
0.0119815
0.00181304
0.00180426
0.00179758
0.00179367
0.00179421
0.00179863
0.00180409
0.00181905
0.00188194
0.00206505
0.00192818
0.00192819
0.00192941
0.00193214
0.00193703
0.00194453
0.00195559
0.00197205
0.00199667
0.00203177
0.0177875
0.0176739
0.0175629
0.0171112
0.0159732
0.0138409
0.0109124
0.00813718
0.00647174
0.00584256
0.0484705
0.0473652
0.0450799
0.0411943
0.0355353
0.0284155
0.0204383
0.0135784
0.00993291
0.00898407
0.059231
0.0582836
0.0559004
0.0516037
0.0447136
0.0356673
0.0251124
0.0158119
0.0113433
0.010955
0.0638763
0.0634648
0.061718
0.0579505
0.0510346
0.0408907
0.0282856
0.0169335
0.0121303
0.0127659
0.0656613
0.0658831
0.0649794
0.0620712
0.0556036
0.0447595
0.030324
0.0173322
0.0127332
0.0147695
0.0641042
0.0650214
0.0651922
0.0635684
0.0582027
0.047458
0.0316636
0.0172743
0.0130694
0.0165667
0.0527022
0.0542785
0.0557992
0.05634
0.0537537
0.0454277
0.0302955
0.015732
0.0123817
0.0172645
0.0166745
0.0173875
0.0184827
0.0200151
0.0217085
0.0219076
0.0169273
0.00896972
0.00784975
0.0130295
0.00180862
0.00180049
0.00179411
0.00179018
0.00179013
0.0017943
0.00180187
0.00181628
0.0018623
0.00201074
0.00192355
0.00192382
0.00192478
0.00192674
0.00193015
0.00193537
0.00194289
0.0019535
0.00196832
0.00198834
0.015883
0.0158802
0.0160388
0.016251
0.0163303
0.0160168
0.0151475
0.0138334
0.0124914
0.0113838
0.0448163
0.0443938
0.0432659
0.0410475
0.0376712
0.0332669
0.028137
0.0230117
0.0189881
0.0164687
0.0546134
0.0544218
0.0532766
0.0506747
0.0461646
0.0400639
0.0328459
0.0256884
0.0205508
0.0182237
0.0587296
0.059028
0.0584673
0.0563748
0.0517519
0.0446613
0.0356884
0.0266536
0.0207955
0.0193531
0.0603569
0.0611786
0.0613674
0.0601071
0.0558967
0.0481654
0.0375034
0.0266801
0.0205434
0.02051
0.0590914
0.0604104
0.0614747
0.061369
0.0582139
0.0505974
0.0386439
0.0261261
0.0199222
0.0214629
0.0487541
0.0503557
0.0522638
0.0538079
0.0530886
0.0477542
0.0365648
0.0236119
0.0180009
0.0212166
0.0157226
0.0162725
0.0171565
0.0184391
0.0200448
0.0210814
0.0191386
0.0133416
0.0108307
0.0150182
0.00180239
0.00179514
0.00178939
0.00178579
0.00178533
0.00178882
0.00179719
0.00181233
0.00184899
0.00195676
0.00191568
0.00191603
0.00191666
0.00191774
0.00191953
0.00192227
0.00192631
0.00193227
0.00194118
0.00195437
0.014418
0.0144239
0.0146094
0.0149948
0.0155577
0.0162051
0.0168014
0.0172184
0.0173479
0.0170108
0.0412726
0.0412928
0.0410013
0.0401191
0.038586
0.0364544
0.0339415
0.0313822
0.0290521
0.0267492
0.0499483
0.0502148
0.0499437
0.048691
0.0461761
0.0426009
0.0384287
0.0343604
0.0310822
0.0286433
0.0534017
0.0540651
0.0542601
0.0533795
0.0507082
0.0462805
0.0406815
0.0350947
0.0309832
0.0291
0.0548061
0.0558437
0.0566156
0.0564139
0.0540556
0.0491108
0.042132
0.0349302
0.0301006
0.0292861
0.0538563
0.055204
0.0566009
0.0573049
0.0558006
0.050991
0.0429886
0.0341473
0.0286244
0.029104
0.0448018
0.0461934
0.0480177
0.0498287
0.0502147
0.0473637
0.0402226
0.0309096
0.0253329
0.0273843
0.0149107
0.0153146
0.015983
0.0169504
0.0182253
0.0194449
0.0194487
0.0167852
0.0145103
0.0178588
0.00179527
0.00178893
0.00178392
0.00178079
0.00178018
0.00178301
0.00179072
0.00180518
0.00183567
0.00191098
0.00190516
0.00190553
0.00190591
0.00190638
0.00190707
0.00190812
0.00190976
0.00191256
0.00191769
0.00192699
0.0135117
0.0134987
0.0136174
0.0139211
0.0144518
0.0152293
0.0162492
0.0174616
0.0186621
0.0193153
0.0378031
0.0381034
0.0383852
0.0384961
0.0383581
0.0379729
0.0375006
0.0371893
0.0370789
0.0363989
0.045384
0.0459349
0.0462986
0.0461573
0.0452932
0.0437578
0.0419552
0.0405374
0.0398618
0.0390883
0.0482241
0.0490571
0.0497445
0.0498307
0.0488129
0.0465804
0.0436097
0.040978
0.0396275
0.0392218
0.049431
0.0504847
0.0515453
0.0520945
0.0513009
0.0486946
0.044648
0.0406651
0.038489
0.0387538
0.0488109
0.0500229
0.051462
0.0526077
0.0524186
0.0499542
0.0451683
0.0397811
0.0365747
0.0376385
0.0411149
0.0422356
0.0437894
0.0455258
0.0465785
0.0456329
0.0417363
0.0360095
0.0322135
0.0343493
0.0142546
0.0145399
0.0150247
0.0157109
0.0166283
0.0176833
0.0184836
0.0181334
0.0173128
0.020397
0.00178701
0.0017816
0.00177738
0.0017748
0.00177432
0.00177674
0.00178332
0.00179574
0.00182
0.00187082
0.00189253
0.00189292
0.00189314
0.00189324
0.00189331
0.00189342
0.00189374
0.00189477
0.00189769
0.00190477
0.0131223
0.0130981
0.0131588
0.0133541
0.0137264
0.0143135
0.0151558
0.0162829
0.017582
0.0185157
0.0345565
0.0349246
0.0354129
0.035986
0.0366134
0.0372932
0.0381271
0.0392996
0.0407873
0.0416059
0.0410577
0.0416803
0.0423377
0.0428838
0.0431723
0.0431573
0.0430966
0.043586
0.0450126
0.0461718
0.043441
0.0442572
0.0451317
0.0458161
0.0460004
0.04548
0.044508
0.0440468
0.0450986
0.0467848
0.0445391
0.0454659
0.0465474
0.047501
0.0478292
0.0470627
0.0452872
0.0437336
0.0441089
0.0463788
0.0442479
0.0452429
0.0465225
0.0478003
0.0484815
0.0478139
0.0455218
0.0428311
0.0421633
0.0449279
0.0378794
0.0387339
0.0399462
0.04141
0.0427015
0.0430043
0.0414861
0.0386232
0.0371183
0.0403934
0.0137665
0.0139598
0.0142989
0.0147601
0.0153657
0.0161166
0.0169612
0.0176201
0.0182033
0.0215037
0.00177738
0.00177289
0.00176945
0.00176745
0.00176722
0.00176942
0.00177492
0.0017849
0.00180286
0.00183627
0.00187825
0.00187862
0.00187876
0.00187866
0.00187838
0.00187799
0.00187763
0.00187771
0.00187939
0.00188502
0.0131087
0.013086
0.0131178
0.0132464
0.0135051
0.0139255
0.0145491
0.0154283
0.0165279
0.0174414
0.0320387
0.0323282
0.0327427
0.0333117
0.0340673
0.0350448
0.036326
0.0380352
0.0401108
0.0415893
0.0373995
0.0379089
0.038515
0.0392098
0.0399625
0.0407529
0.0417162
0.0432741
0.0457945
0.0481093
0.0393821
0.0400355
0.0408033
0.0416104
0.0423459
0.0428776
0.0432856
0.0442428
0.0467459
0.0499482
0.0403989
0.0411132
0.0419986
0.0429614
0.0437979
0.0442108
0.0441082
0.0442835
0.0463975
0.0504101
0.0403713
0.0411228
0.0421184
0.0432435
0.0442539
0.0447058
0.0442519
0.0435681
0.0448341
0.0493616
0.0351995
0.0358218
0.0366953
0.0377878
0.0389481
0.0398073
0.0398195
0.0390514
0.0394782
0.0441402
0.013448
0.0135719
0.0138017
0.0140973
0.0144673
0.0149274
0.0155127
0.0162332
0.0173102
0.0206983
0.00176618
0.00176256
0.00175986
0.00175839
0.00175843
0.00176044
0.00176501
0.00177276
0.00178536
0.0018069
0.00186255
0.00186292
0.001863
0.00186279
0.00186234
0.00186168
0.00186094
0.00186048
0.00186139
0.00186602
0.0133301
0.0133154
0.0133355
0.0134274
0.0136175
0.0139317
0.0144081
0.0151059
0.016027
0.0169014
0.030474
0.0306655
0.0309451
0.0313566
0.0319565
0.0328065
0.0339946
0.0356273
0.0376585
0.0392589
0.0347582
0.0351004
0.0355129
0.0360399
0.0367277
0.0376287
0.0388646
0.0407211
0.043468
0.0461241
0.0363039
0.0367536
0.0372822
0.037893
0.038602
0.0394183
0.0404288
0.0420611
0.0450788
0.0488412
0.0371813
0.0376754
0.0382817
0.0389941
0.0397838
0.0405839
0.0413694
0.0425924
0.0455336
0.0503375
0.0372923
0.0378207
0.0385073
0.0393173
0.0402009
0.0410179
0.0415962
0.0422628
0.0446537
0.0501342
0.033112
0.0335485
0.0341356
0.0348619
0.03569
0.0365306
0.0371916
0.0376979
0.0393732
0.0448382
0.013295
0.0133678
0.0135192
0.0137007
0.0139116
0.0141605
0.0144787
0.0149179
0.0157603
0.0187221
0.00175323
0.00175042
0.00174839
0.00174737
0.00174758
0.00174938
0.00175308
0.00175891
0.0017675
0.00178133
0.00184556
0.00184592
0.00184598
0.00184571
0.00184515
0.00184434
0.00184338
0.0018426
0.00184295
0.00184683
0.0136954
0.0136897
0.0137051
0.0137744
0.0139195
0.0141627
0.0145395
0.0151106
0.0159002
0.0167442
0.02967
0.0297945
0.029977
0.0302572
0.0306909
0.0313449
0.032312
0.0337059
0.0355272
0.0371071
0.0330784
0.0332898
0.033537
0.0338664
0.0343414
0.0350481
0.0361301
0.0378382
0.0403948
0.04304
0.0341941
0.0344785
0.0347951
0.0351618
0.0356292
0.0362771
0.0372576
0.0389343
0.0418758
0.0456215
0.0348745
0.0351936
0.0355614
0.0359896
0.0365032
0.0371542
0.0380523
0.0395824
0.0426554
0.0474615
0.035005
0.0353573
0.0357889
0.0362853
0.0368582
0.0375204
0.038308
0.0395308
0.0423313
0.0478806
0.0315945
0.0318913
0.032265
0.0327029
0.0331939
0.0337483
0.0343856
0.0352876
0.0374617
0.0429602
0.0133006
0.0133361
0.0134332
0.0135403
0.0136525
0.0137718
0.0139129
0.014089
0.0145617
0.0168903
0.00173841
0.00173633
0.00173486
0.00173419
0.00173449
0.00173599
0.00173885
0.00174304
0.00174876
0.00175773
0.00182726
0.00182764
0.00182768
0.00182738
0.00182677
0.00182587
0.00182478
0.00182377
0.00182369
0.00182693
0.0141618
0.0141642
0.0141771
0.01423
0.0143419
0.0145326
0.0148359
0.0153084
0.0159987
0.016811
0.029345
0.0294295
0.0295528
0.0297472
0.0300604
0.0305551
0.0313223
0.0324948
0.0341111
0.035654
0.0320882
0.0322164
0.0323612
0.0325585
0.0328633
0.0333611
0.0341999
0.0356322
0.0378971
0.0404532
0.0328464
0.0330199
0.0331992
0.0333981
0.0336616
0.0340739
0.0348048
0.0362161
0.0388319
0.0423807
0.033324
0.0335231
0.0337323
0.0339606
0.0342337
0.0346201
0.0352765
0.0366062
0.0393962
0.0438794
0.0334079
0.0336345
0.0338896
0.0341617
0.0344668
0.0348485
0.0354209
0.0365531
0.0392167
0.0443769
0.0305812
0.0307776
0.0310061
0.031251
0.0315019
0.0317807
0.0321595
0.032896
0.0349547
0.0400124
0.0134578
0.0134661
0.0135267
0.0135873
0.0136422
0.0136903
0.0137363
0.0137454
0.0139838
0.0157856
0.00172166
0.0017202
0.00171918
0.00171876
0.00171906
0.00172022
0.00172229
0.0017251
0.00172879
0.00173465
0.00180763
0.00180802
0.00180807
0.00180775
0.0018071
0.00180614
0.00180495
0.00180377
0.00180337
0.00180603
0.0147189
0.0147285
0.0147398
0.0147796
0.0148649
0.0150137
0.0152554
0.0156471
0.0162553
0.0170324
0.0292943
0.0293548
0.0294408
0.0295772
0.0298028
0.0301736
0.0307801
0.0317562
0.0331826
0.0346762
0.0315296
0.0316076
0.0316936
0.031813
0.032008
0.0323511
0.0329779
0.0341358
0.0361032
0.0385415
0.0320243
0.0321284
0.0322286
0.0323337
0.032476
0.0327234
0.033226
0.0343213
0.0365434
0.0398362
0.0323329
0.0324549
0.0325708
0.0326855
0.0328165
0.0330168
0.0334263
0.0344196
0.0367572
0.040818
0.0323556
0.0324971
0.0326419
0.0327807
0.0329237
0.0331053
0.0334328
0.0342558
0.0364909
0.0410998
0.0299838
0.0301099
0.0302457
0.0303748
0.0304865
0.0305953
0.0307637
0.0312238
0.0328908
0.0373131
0.0137618
0.0137503
0.0137867
0.0138194
0.013843
0.0138555
0.0138576
0.0137896
0.0139168
0.0153476
0.00170291
0.00170196
0.00170131
0.00170106
0.0017013
0.0017021
0.00170346
0.00170519
0.00170741
0.00171124
0.00178657
0.00178698
0.00178704
0.00178671
0.00178603
0.00178503
0.00178376
0.00178244
0.00178178
0.0017839
0.0153717
0.0153897
0.0154009
0.0154301
0.0154924
0.0156043
0.0157935
0.0161163
0.0166539
0.0173934
0.0294012
0.0294434
0.0295027
0.0295974
0.0297584
0.0300329
0.0305011
0.0312935
0.0325258
0.0339384
0.031226
0.0312734
0.0313249
0.0313976
0.0315223
0.0317564
0.0322143
0.0331229
0.0347899
0.0370622
0.0315409
0.0316024
0.0316579
0.0317134
0.0317907
0.0319396
0.0322798
0.0330997
0.0349223
0.0378971
0.031727
0.0318006
0.0318639
0.0319199
0.0319794
0.0320789
0.0323257
0.0330296
0.0348939
0.0384691
0.0317025
0.0317883
0.0318679
0.031935
0.0319958
0.0320728
0.0322469
0.0328005
0.0345491
0.0385287
0.0297098
0.0297879
0.0298667
0.0299311
0.0299724
0.0299987
0.0300553
0.030322
0.0315873
0.0353178
0.014213
0.0141871
0.0142078
0.0142243
0.0142317
0.0142283
0.0142141
0.0141323
0.0142183
0.0153957
0.00168215
0.00168161
0.00168124
0.00168109
0.00168124
0.0016817
0.00168247
0.00168339
0.00168454
0.00168702
0.00176398
0.00176444
0.0017645
0.00176417
0.00176348
0.00176244
0.00176112
0.00175969
0.0017588
0.00176041
0.0161317
0.0161594
0.0161728
0.0161938
0.0162364
0.0163161
0.0164591
0.0167261
0.0172046
0.0179096
0.0295995
0.029629
0.0296688
0.0297325
0.0298435
0.0300396
0.0303879
0.0310059
0.0320297
0.0333121
0.0310707
0.0310993
0.0311298
0.0311734
0.0312516
0.0314075
0.0317322
0.0324193
0.0337786
0.0358155
0.0312689
0.0313043
0.0313347
0.0313639
0.0314061
0.0314968
0.0317257
0.032323
0.0337626
0.0363484
0.0313747
0.0314184
0.0314527
0.0314793
0.031505
0.0315544
0.0317047
0.0321943
0.0336268
0.036662
0.031326
0.0313762
0.0314185
0.0314493
0.0314724
0.0315025
0.0315967
0.0319663
0.0332816
0.0365928
0.0296749
0.0297207
0.0297655
0.0297959
0.0298053
0.0297989
0.0298086
0.0299702
0.030912
0.0339674
0.0148206
0.0147838
0.0147946
0.0148022
0.014802
0.0147928
0.0147753
0.0147186
0.0147982
0.0158053
0.00165937
0.00165915
0.00165897
0.00165889
0.00165893
0.00165911
0.00165939
0.00165972
0.00166012
0.00166169
0.00173984
0.00174031
0.00174037
0.00174003
0.00173933
0.00173827
0.00173692
0.00173541
0.00173431
0.00173541
0.0170121
0.0170487
0.0170667
0.0170826
0.0171095
0.0171636
0.0172749
0.0175016
0.0179337
0.0186159
0.0298493
0.0298701
0.0298959
0.0299367
0.0300094
0.0301432
0.0303907
0.0308496
0.0316557
0.0327541
0.0310038
0.0310209
0.0310386
0.0310635
0.0311104
0.0312101
0.0314312
0.0319279
0.0329822
0.0347123
0.0311284
0.0311482
0.0311644
0.0311794
0.0312024
0.0312573
0.0314087
0.0318306
0.0329206
0.0350612
0.031186
0.0312115
0.0312299
0.0312421
0.0312525
0.031277
0.0313694
0.0317045
0.0327677
0.0352369
0.0311328
0.0311612
0.0311828
0.0311961
0.0312033
0.0312143
0.0312678
0.0315158
0.0324779
0.0351298
0.0298083
0.0298332
0.0298584
0.0298718
0.029869
0.0298534
0.0298477
0.0299553
0.0306522
0.033094
0.0156066
0.0155617
0.0155661
0.0155691
0.015566
0.0155559
0.01554
0.015522
0.0156129
0.0165114
0.00163455
0.00163457
0.00163453
0.00163448
0.00163442
0.00163437
0.00163429
0.00163418
0.00163404
0.001635
0.00171418
0.00171463
0.00171468
0.00171433
0.00171362
0.00171255
0.00171116
0.00170957
0.00170825
0.00170882
0.0180692
0.018111
0.0181302
0.0181424
0.0181598
0.0181978
0.0182852
0.0184804
0.018881
0.0195633
0.0301264
0.030141
0.0301572
0.0301818
0.0302267
0.030313
0.0304802
0.0308034
0.0314014
0.0322776
0.0309942
0.0310043
0.0310142
0.0310276
0.0310538
0.0311138
0.0312565
0.0315972
0.0323704
0.0337479
0.0310725
0.0310832
0.0310917
0.0310992
0.0311114
0.0311437
0.0312403
0.0315265
0.0323158
0.033995
0.0311034
0.0311182
0.0311281
0.0311336
0.0311373
0.0311493
0.0312054
0.0314284
0.03219
0.0341123
0.0310574
0.0310729
0.0310836
0.0310891
0.0310907
0.0310944
0.0311258
0.0312902
0.0319753
0.0340266
0.030054
0.0300659
0.03008
0.0300856
0.0300798
0.030065
0.0300566
0.030132
0.0306443
0.03256
0.016613
0.016562
0.0165626
0.0165635
0.0165597
0.0165508
0.0165377
0.0165352
0.016648
0.0174853
0.00160767
0.00160785
0.00160791
0.00160787
0.00160775
0.00160753
0.00160719
0.00160672
0.0016062
0.00160676
0.00168704
0.0016874
0.00168742
0.00168706
0.00168633
0.00168523
0.0016838
0.00168213
0.00168059
0.0016806
0.019371
0.0194171
0.019437
0.0194467
0.0194575
0.0194833
0.0195516
0.0197219
0.0201052
0.0208224
0.0304151
0.0304254
0.0304354
0.0304494
0.0304752
0.0305275
0.0306341
0.0308499
0.0312696
0.0319211
0.0310272
0.0310333
0.0310387
0.0310454
0.0310589
0.0310922
0.0311778
0.0313973
0.0319323
0.0329599
0.0310752
0.031081
0.0310855
0.0310895
0.031096
0.0311143
0.0311726
0.0313565
0.0319015
0.033154
0.0310928
0.0311013
0.0311069
0.0311097
0.0311112
0.0311172
0.03115
0.0312916
0.031816
0.0332551
0.0310572
0.0310654
0.0310708
0.0310734
0.0310738
0.0310754
0.0310941
0.0311989
0.0316706
0.0332144
0.0303676
0.0303721
0.0303801
0.0303825
0.0303778
0.0303674
0.030361
0.0304121
0.0307806
0.0322673
0.0179142
0.017859
0.0178575
0.0178575
0.0178542
0.0178472
0.0178366
0.0178343
0.0179312
0.0187141
0.00157874
0.00157903
0.00157916
0.00157914
0.00157896
0.00157862
0.00157811
0.00157742
0.00157661
0.00157681
0.00165883
0.00165874
0.00165871
0.00165833
0.00165758
0.00165646
0.00165499
0.00165323
0.00165145
0.00165086
0.0210335
0.0210828
0.0211026
0.0211101
0.0211159
0.0211318
0.0211829
0.0213292
0.0217018
0.0224967
0.0307054
0.0307126
0.0307188
0.0307267
0.0307408
0.0307703
0.0308334
0.0309689
0.0312497
0.0317099
0.0310971
0.0311008
0.031104
0.0311075
0.031114
0.031131
0.0311778
0.0313076
0.0316541
0.0323779
0.0311238
0.0311269
0.0311297
0.0311323
0.0311364
0.0311469
0.0311799
0.0312894
0.0316442
0.0325383
0.0311355
0.0311404
0.0311439
0.0311459
0.0311473
0.0311512
0.03117
0.0312542
0.0315959
0.0326356
0.0311073
0.0311115
0.0311146
0.0311164
0.0311174
0.0311195
0.0311312
0.0311942
0.031502
0.0326321
0.0307123
0.0307132
0.0307178
0.0307193
0.0307168
0.0307115
0.0307089
0.030743
0.0309978
0.0321343
0.0196417
0.0195843
0.0195819
0.0195816
0.0195792
0.0195741
0.019566
0.0195631
0.0196351
0.0203209
0.00154793
0.0015483
0.00154847
0.00154845
0.00154824
0.00154784
0.00154722
0.0015464
0.00154541
0.00154526
0.00162883
0.00162876
0.00162873
0.00162836
0.00162761
0.00162649
0.001625
0.00162317
0.00162119
0.00161993
0.0232703
0.0233207
0.0233383
0.0233433
0.0233449
0.0233521
0.0233846
0.0234981
0.023843
0.024746
0.0309915
0.0309962
0.0310001
0.0310047
0.0310126
0.0310281
0.0310619
0.0311387
0.0313134
0.031626
0.0312006
0.0312027
0.0312048
0.0312071
0.0312108
0.0312193
0.0312421
0.0313093
0.0315098
0.0319827
0.0312119
0.0312135
0.0312153
0.0312175
0.0312208
0.0312275
0.0312454
0.0313038
0.0315114
0.0321072
0.031221
0.0312237
0.031226
0.0312279
0.0312299
0.0312336
0.031245
0.031291
0.0314915
0.032192
0.0311962
0.0311983
0.0312002
0.0312019
0.0312037
0.0312068
0.0312153
0.0312509
0.0314317
0.0322007
0.0310522
0.0310521
0.0310549
0.0310562
0.0310558
0.0310545
0.0310557
0.0310788
0.0312424
0.0320679
0.0220398
0.0219837
0.0219812
0.0219809
0.0219791
0.0219754
0.0219695
0.0219658
0.0220091
0.0225312
0.00151565
0.00151606
0.00151625
0.00151622
0.00151599
0.00151554
0.00151488
0.00151399
0.00151291
0.00151237
0.00159646
0.00159689
0.00159691
0.00159655
0.00159582
0.00159471
0.00159324
0.00159141
0.00158929
0.00158742
0.0264994
0.0265429
0.0265547
0.0265568
0.0265555
0.0265554
0.0265674
0.0266285
0.0268736
0.027791
0.0312643
0.0312663
0.0312683
0.0312708
0.0312749
0.0312821
0.0312967
0.0313304
0.0314158
0.0315957
0.0313282
0.0313292
0.0313303
0.0313318
0.031334
0.0313381
0.0313474
0.0313736
0.0314594
0.0317011
0.031327
0.0313275
0.0313284
0.0313298
0.0313321
0.0313362
0.031345
0.0313697
0.0314613
0.0317739
0.0313334
0.0313344
0.0313355
0.0313368
0.0313387
0.0313419
0.0313488
0.0313697
0.031459
0.0318274
0.0313153
0.0313158
0.0313166
0.0313177
0.0313194
0.0313225
0.0313287
0.0313463
0.0314274
0.0318284
0.0313369
0.0313369
0.0313384
0.0313395
0.0313403
0.0313415
0.031345
0.0313597
0.0314433
0.0319229
0.0256164
0.0255707
0.0255689
0.0255684
0.0255672
0.0255648
0.025561
0.0255571
0.025571
0.0258279
0.0014819
0.0014823
0.00148249
0.00148246
0.0014822
0.00148173
0.00148103
0.00148011
0.00147899
0.00147803
0.00233682
0.00238578
0.00236007
0.00227008
0.00214812
0.00210167
0.00206114
0.00202449
0.00277925
0.00272199
0.00265466
0.0025634
0.0031939
0.0031402
0.00306399
0.00295139
0.0035322
0.00347266
0.00338686
0.00327413
0.00382144
0.00376411
0.003684
0.00358437
0.00403363
0.00398727
0.00392507
0.00385334
0.0040951
0.00405886
0.00401386
0.00396756
0.00365356
0.00361383
0.00356877
0.00352427
0.00264256
0.00268221
0.00270435
0.00270623
0.00205587
0.00209802
0.00211288
0.0020977
0.00442712
0.00442014
0.00426879
0.0039322
0.00745081
0.00729356
0.00694426
0.00637583
0.00980556
0.00963489
0.0092055
0.00853736
0.012407
0.0123122
0.0118726
0.0112449
0.0150959
0.0150674
0.0146761
0.0142329
0.017327
0.0173408
0.0169986
0.0167396
0.0185084
0.0185509
0.018252
0.0181208
0.015879
0.0159188
0.0156144
0.0153595
0.00253343
0.00253827
0.00251592
0.00247733
0.00194168
0.00196191
0.00196551
0.00195464
0.00542236
0.00542092
0.0053529
0.00546655
0.00835962
0.008222
0.00794143
0.00781111
0.0104424
0.0102725
0.00992916
0.00968934
0.0127438
0.0127123
0.0124763
0.0122733
0.0154902
0.0156261
0.0155191
0.01543
0.0180571
0.0183172
0.0182984
0.0182702
0.0195067
0.0198399
0.0198643
0.0198308
0.0158926
0.0161615
0.0161147
0.0158938
0.00226373
0.00226894
0.00225596
0.00223159
0.00188768
0.00189717
0.00189773
0.00189051
0.0100119
0.00963891
0.00972647
0.0104775
0.0142329
0.0136029
0.0135201
0.0143225
0.0158939
0.0152854
0.0151496
0.0158733
0.0173092
0.016849
0.016773
0.0174578
0.019116
0.0188869
0.0189525
0.019638
0.0208253
0.0207846
0.0209332
0.0215361
0.0214282
0.021526
0.0216984
0.0221456
0.0163096
0.0164368
0.0165143
0.0166211
0.00208613
0.00208768
0.0020823
0.00207467
0.00185364
0.0018597
0.00185929
0.00185312
0.0156579
0.0151909
0.0151948
0.0157792
0.0242888
0.0233909
0.0232993
0.0242385
0.0258493
0.0249502
0.0247944
0.0256335
0.0263851
0.0256577
0.0255311
0.0262067
0.0270231
0.0265599
0.0265426
0.027108
0.0274373
0.027197
0.0272479
0.0276759
0.0264906
0.0264254
0.0264906
0.0267372
0.0183532
0.0183765
0.018329
0.0182256
0.0019906
0.00199146
0.00198846
0.00198477
0.00182791
0.00183282
0.0018323
0.00182676
0.0177579
0.0172343
0.0170008
0.0171576
0.0344345
0.0334246
0.0330901
0.0335695
0.0366274
0.0354585
0.0349513
0.0353103
0.0365463
0.0354051
0.0347935
0.0349138
0.0361888
0.0352302
0.0346567
0.0346306
0.0353686
0.0346121
0.034097
0.0339468
0.0326608
0.0321113
0.031647
0.0313728
0.0203999
0.0201067
0.0196737
0.0192072
0.00192563
0.00192585
0.00192391
0.00192221
0.00180717
0.00181173
0.00181135
0.00180623
0.0167199
0.016253
0.0159757
0.0159906
0.0402079
0.0392687
0.0387158
0.038648
0.0443661
0.0431951
0.0424512
0.0423155
0.0446423
0.0433665
0.0424285
0.0420658
0.0441206
0.0428998
0.0419042
0.0413677
0.0427123
0.0416085
0.0406137
0.0399366
0.0385649
0.0376491
0.0367106
0.0359416
0.0215937
0.0211142
0.0203829
0.0195817
0.00187838
0.0018786
0.00187753
0.00187698
0.0017886
0.00179299
0.00179272
0.00178793
0.0156514
0.015311
0.015112
0.0151266
0.0404714
0.0396062
0.0389446
0.0385867
0.0467968
0.0457214
0.044874
0.0443926
0.0483688
0.0471644
0.0461402
0.0455061
0.048706
0.0474934
0.0463771
0.0456024
0.0476233
0.0464539
0.0452849
0.0443639
0.0426755
0.0416458
0.0405055
0.0394897
0.0211495
0.0206543
0.0198219
0.0188476
0.00184165
0.00184201
0.00184165
0.00184185
0.00177051
0.00177473
0.00177455
0.00177005
0.0151658
0.0149307
0.014806
0.0148371
0.0383386
0.0376103
0.037042
0.0367278
0.0451051
0.0441558
0.0433408
0.0427739
0.0476109
0.0465262
0.0455314
0.0447855
0.0490332
0.047926
0.0468437
0.0459842
0.0488274
0.0477416
0.0466059
0.0456382
0.0437724
0.0427977
0.0416788
0.0406284
0.0194552
0.0190459
0.0182758
0.0173256
0.00181141
0.00181182
0.00181187
0.00181247
0.00175208
0.00175609
0.00175598
0.00175176
0.0150283
0.0148635
0.0147886
0.0148315
0.0364079
0.0358581
0.0354649
0.0352971
0.0423059
0.0415506
0.0409131
0.0404846
0.0446744
0.0437667
0.0429251
0.04227
0.0463984
0.0454292
0.0444642
0.0436497
0.0467854
0.0458093
0.0447763
0.0438505
0.0421055
0.0412322
0.0402172
0.039225
0.0177933
0.0175128
0.016897
0.0160976
0.00178464
0.00178495
0.00178518
0.00178594
0.00173285
0.00173664
0.00173657
0.00173265
0.015077
0.0149579
0.0149141
0.0149627
0.0351698
0.0347821
0.0345349
0.0344724
0.040036
0.0395003
0.0390692
0.0388058
0.0417966
0.0411299
0.0405191
0.0400477
0.0431497
0.0424002
0.041649
0.0409974
0.0435593
0.0427701
0.0419251
0.0411373
0.0394374
0.0387382
0.037902
0.0370452
0.0167777
0.0166239
0.0161775
0.0155498
0.00175931
0.00175945
0.0017597
0.00176049
0.00171258
0.00171611
0.00171607
0.00171245
0.0152486
0.0151594
0.0151346
0.0151849
0.0343815
0.0341251
0.0339762
0.0339614
0.0384239
0.0380825
0.0378124
0.0376527
0.039638
0.0392097
0.0388092
0.0384886
0.0405202
0.0400249
0.039507
0.0390293
0.0407262
0.0401874
0.0395785
0.0389696
0.0371683
0.0366981
0.0360853
0.0354041
0.0163412
0.0162809
0.0159753
0.015497
0.00173428
0.00173424
0.00173445
0.0017352
0.00169104
0.00169428
0.00169426
0.00169097
0.0155317
0.0154617
0.0154485
0.0154984
0.0338041
0.033653
0.033566
0.0335589
0.0371976
0.0370121
0.0368505
0.0367354
0.0380328
0.0377997
0.0375531
0.0373224
0.0385782
0.0383052
0.0379756
0.0376243
0.0386154
0.0383115
0.0379121
0.0374553
0.0355923
0.0353331
0.0349223
0.0344013
0.0163136
0.0163077
0.016106
0.015751
0.0017089
0.00170869
0.00170885
0.00170955
0.00166812
0.00167105
0.00167104
0.00166807
0.0159428
0.0158852
0.0158788
0.0159273
0.0333018
0.0332328
0.033184
0.0331641
0.0361397
0.036072
0.0359795
0.0358741
0.0367263
0.0366367
0.0364924
0.0363083
0.0370703
0.0369614
0.0367638
0.0364938
0.0370221
0.0368944
0.0366493
0.0363038
0.0345239
0.0344188
0.0341603
0.0337667
0.0165969
0.0166123
0.0164829
0.0162296
0.00168275
0.00168239
0.00168249
0.00168314
0.00164366
0.00164626
0.00164625
0.00164364
0.0165175
0.0164688
0.0164662
0.0165118
0.0328183
0.0328063
0.0327805
0.0327453
0.0351395
0.0351501
0.0350999
0.0349942
0.0355632
0.0355648
0.035485
0.0353295
0.0357954
0.0357888
0.0356767
0.0354642
0.0357236
0.0357044
0.0355623
0.0353014
0.0337547
0.0337412
0.0335867
0.0332951
0.0171579
0.0171714
0.0170898
0.0169212
0.00165549
0.00165502
0.00165506
0.00165568
0.00161759
0.00161982
0.00161981
0.00161757
0.017308
0.0172696
0.0172688
0.0173069
0.0323569
0.0323733
0.0323608
0.0323213
0.034174
0.0342205
0.034195
0.0340992
0.0344878
0.034529
0.0344876
0.0343641
0.034658
0.0346947
0.0346347
0.0344768
0.0345989
0.0346248
0.0345468
0.0343619
0.0331565
0.0331782
0.0330899
0.0328877
0.0180019
0.018
0.0179493
0.0178508
0.00162688
0.00162632
0.00162632
0.00162692
0.00158984
0.00159166
0.00159166
0.00158982
0.0183861
0.0183672
0.0183671
0.0183863
0.0319625
0.0319788
0.0319736
0.0319471
0.0332878
0.033329
0.033317
0.0332515
0.0335201
0.033554
0.0335339
0.0334577
0.0336509
0.0336793
0.0336487
0.0335551
0.0336222
0.0336409
0.0335999
0.033493
0.0326727
0.0326828
0.0326339
0.0325184
0.0191507
0.0191286
0.0190978
0.0190564
0.00159673
0.00159612
0.00159609
0.00159669
0.00156047
0.00156185
0.00156185
0.00156046
0.0198598
0.0198843
0.0198842
0.0198598
0.0316884
0.0316846
0.0316827
0.0316827
0.0325551
0.0325618
0.0325564
0.0325378
0.0327185
0.0327129
0.0327033
0.0326872
0.0328166
0.0328022
0.0327867
0.0327654
0.0328196
0.0327984
0.0327769
0.0327485
0.0322908
0.0322564
0.0322288
0.0322003
0.0207005
0.020659
0.0206375
0.0206343
0.00156513
0.0015645
0.00156446
0.00156504
0.00152983
0.00153074
0.00153073
0.00152982
0.0219342
0.0220523
0.0220521
0.0219335
0.0315555
0.0315258
0.0315252
0.0315535
0.0320223
0.0319878
0.0319851
0.0320131
0.0321249
0.0320735
0.0320684
0.0321075
0.0321913
0.0321286
0.0321198
0.0321615
0.0322097
0.0321439
0.0321314
0.0321675
0.0320091
0.0319206
0.0319031
0.0319514
0.0228722
0.0228155
0.0227996
0.0228246
0.00153239
0.00153183
0.0015318
0.0015323
0.00149758
0.00149805
0.00149805
0.00149758
0.0251345
0.025428
0.0254277
0.0251336
0.0315316
0.031493
0.0314925
0.0315302
0.031674
0.0316237
0.0316217
0.0316677
0.0317256
0.0316599
0.0316561
0.0317137
0.0317608
0.0316848
0.0316783
0.0317404
0.0317713
0.0316946
0.0316854
0.0317428
0.031793
0.0316872
0.0316735
0.0317518
0.0260893
0.0260368
0.0260259
0.0260591
0.00149845
0.00149813
0.00149812
0.00149842
0.00223317
0.00212438
0.00205081
0.00200508
0.00198026
0.00196465
0.00195304
0.00194362
0.00193581
0.00192954
0.00289647
0.00305179
0.00588126
0.0104189
0.0153977
0.0194063
0.0218637
0.0228903
0.0228185
0.0220243
0.00490845
0.00721671
0.0130825
0.0221873
0.0323153
0.041409
0.0486621
0.0535491
0.0557741
0.0553953
0.00926756
0.0110856
0.0192232
0.0300551
0.0412236
0.0512386
0.0593533
0.0648991
0.0674241
0.0671471
0.0126754
0.0152363
0.0234989
0.0346337
0.0460764
0.0564348
0.0646663
0.0700563
0.0722698
0.0719718
0.015676
0.0187289
0.0261469
0.0374805
0.0490203
0.0593573
0.0671947
0.0720181
0.0737463
0.0734282
0.0182005
0.0208116
0.0266617
0.0380202
0.049384
0.0592816
0.0662382
0.0701318
0.0712297
0.0709489
0.0194068
0.0204306
0.0237923