/*--------------------------------*- C++ -*----------------------------------*\
| =========                 |                                                 |
| \\      /  F ield         | foam-extend: Open Source CFD                    |
|  \\    /   O peration     | Version:     4.0                                |
|   \\  /    A nd           | Web:         http://www.foam-extend.org         |
|    \\/     M anipulation  |                                                 |
\*---------------------------------------------------------------------------*/
FoamFile
{
    version     2.0;
    format      ascii;
    class       volScalarField;
    location    "200";
    object      divFlux;
}
// * * * * * * * * * * * * * * * * * * * * * * * * * * * * * * * * * * * * * //

dimensions      [1 -3 -1 0 0 0 0];

internalField   nonuniform List<scalar> 
34480
(
0.258491
0.0744448
0.0718677
0.0614558
0.0511286
0.0421592
0.0346858
4.73773
0.0242519
0.0209552
0.027968
0.00499711
0.00591717
0.00441096
0.00264118
0.00110212
5.22084e-05
0.000728051
0.000927091
0.000848718
0.0132734
0.0113493
0.0105683
0.0114364
0.0122761
0.0129202
0.0130517
0.0125606
0.0116109
0.0104517
0.0136473
0.0123083
0.010926
0.0117351
0.0123491
0.0129499
0.0131706
0.0127723
0.0119138
0.0107716
0.0102262
0.00957796
0.00827964
0.00892442
0.00930182
0.00980378
0.0100797
0.00987846
0.00929494
0.00847927
0.00762668
0.00670318
0.00606009
0.00638125
0.00662325
0.00701567
0.00726383
0.00718379
0.00680669
0.0062553
0.00560085
0.00495686
0.00446979
0.00465196
0.00480391
0.0050916
0.00530348
0.00529457
0.00505475
0.00469615
0.00484776
0.00384803
0.00375497
0.0036767
0.00379349
0.00396865
0.00412695
0.00414298
0.00400188
0.00373985
0.00494875
0.00409277
0.0038328
0.00362532
0.00354119
0.00352086
0.00352681
0.00351453
0.00340954
0.00321233
0.00494294
0.00421271
0.0038121
0.00355969
0.00337912
0.00322428
0.00317297
0.00312354
0.00310952
0.00295216
0.299304
0.0667993
0.0631988
0.0541624
0.0449529
0.03717
0.0310635
0.0267993
0.0244777
0.0261264
0.010892
0.00320385
0.00178247
0.000396934
0.00236302
0.00391982
0.00499913
0.00536688
0.00476545
0.0030312
0.0285544
0.0189864
0.0181461
0.0191957
0.0203829
0.0213695
0.0219278
0.021949
0.0211725
0.0210068
0.0229314
0.0221061
0.0194781
0.0204645
0.0215069
0.0226241
0.0233042
0.0235703
0.02308
0.023616
0.0144715
0.0198747
0.0162401
0.0172047
0.0179809
0.0190468
0.0197333
0.0202037
0.0197715
0.0198606
0.0115089
0.015846
0.013133
0.0138294
0.0143716
0.0153515
0.0159873
0.016498
0.0158729
0.0161822
0.00919897
0.0132413
0.0107434
0.0112741
0.011736
0.012618
0.0132119
0.0136724
0.0127537
0.0139674
0.0130667
0.0106211
0.0102208
0.00993903
0.010469
0.0111744
0.0116787
0.01196
0.0108742
0.0132577
0.0227774
0.011608
0.0117317
0.0110289
0.0109232
0.0110287
0.011198
0.0110556
0.010075
0.0137698
0.0163254
0.0137937
0.0126734
0.0120219
0.0116799
0.0113552
0.011174
0.0100402
0.0113409
0.0165417
0.26143
0.0456642
0.0426376
0.0359278
0.0296897
0.0246853
0.0208774
0.0181991
0.0167951
2.79543
0.00230611
0.00534818
0.00689689
0.00822615
0.00933228
0.0102716
0.0111022
0.0118592
0.012698
0.91593
0.0267266
0.0168258
0.0162942
0.0167051
0.0174131
0.0182309
0.0191421
0.020044
0.0210761
0.0234669
0.0205489
0.0169306
0.0147126
0.014971
0.0154219
0.0161905
0.0171501
0.0182014
0.0193296
0.0219267
0.0129991
0.0137569
0.0108731
0.0111688
0.0113486
0.0119706
0.0128388
0.0139085
0.0151274
0.0180823
0.0100847
0.00976887
0.00793388
0.00809428
0.00808331
0.00855876
0.00929775
0.0103124
0.0112157
0.0142241
0.0073808
0.00751916
0.00593294
0.0060288
0.00594307
0.00627533
0.00690422
0.00788282
0.00834735
0.0114302
0.00788899
0.0054949
0.00532137
0.00491938
0.00485266
0.00503664
0.0055654
0.00645453
0.00654648
0.00976921
0.00996612
0.00560334
0.00564656
0.00522203
0.0049813
0.00493509
0.00521601
0.00588695
0.00552994
0.00916673
0.00737328
0.00561248
0.00514859
0.00476891
0.00463416
0.0045225
0.00484311
0.00480059
0.00443677
0.0100976
0.173053
0.0231047
0.019646
0.0145808
0.0100339
0.00648148
0.00410961
0.00299259
0.00311921
1.83271
0.0151338
0.0102889
0.0123239
0.0134716
0.0141969
0.0146714
0.0149219
0.0149048
0.0147082
1.27756
0.0308937
0.0177244
0.0175437
0.017593
0.0179403
0.018483
0.019219
0.0200047
0.0208808
0.978284
0.0231613
0.0170101
0.0152457
0.0151767
0.0154153
0.0159148
0.0167071
0.0177066
0.0188543
0.4164
0.0150176
0.0138352
0.0113828
0.0113987
0.0114686
0.0118564
0.0125453
0.0134889
0.0144614
0.0161985
0.0115535
0.00990833
0.00830918
0.0083196
0.00822347
0.00853418
0.00912265
0.0100504
0.0106985
0.0119893
0.0083044
0.00770168
0.00624175
0.00621641
0.00609086
0.00630605
0.0068001
0.00775679
0.00809971
0.00913687
0.00848823
0.0056699
0.00556696
0.00511248
0.00500527
0.00510786
0.00550569
0.00643935
0.00656422
0.00750736
0.00963573
0.00592289
0.00582412
0.00539761
0.00518118
0.00508895
0.0052333
0.0060568
0.00587107
0.00676364
0.00763668
0.00560029
0.00529737
0.00488356
0.00479939
0.00464754
0.00494047
0.00531714
0.00478864
0.00637874
0.107377
0.00956552
0.00516947
0.00100727
0.00251986
0.00555731
0.00814828
0.0102702
0.0726266
0.957742
0.0342893
0.0147715
0.0169885
0.017957
0.0185086
0.0188466
0.0190215
0.019002
0.0186564
0.729913
0.0378338
0.0192783
0.0195754
0.0193583
0.0192609
0.0193646
0.0197173
0.0202547
0.0210044
0.609959
0.0258755
0.0170194
0.0157325
0.0153902
0.015374
0.0155761
0.0160503
0.0167703
0.0177175
0.470203
0.016674
0.0137216
0.0116471
0.0114412
0.0114176
0.0115966
0.0120395
0.0127778
0.0136505
0.231508
0.0127316
0.00995709
0.00850773
0.0084326
0.00830862
0.00844842
0.0088281
0.0096034
0.0103986
0.0535692
0.00900767
0.00779166
0.00644354
0.00634097
0.00621378
0.00631029
0.00662002
0.00744074
0.00811274
0.00924635
0.00906718
0.00570669
0.00571948
0.00525235
0.00513383
0.00516302
0.00539476
0.00620602
0.0067893
0.00797445
0.0094729
0.00599625
0.0058957
0.00546788
0.00529908
0.00519248
0.00519593
0.00595392
0.00641047
0.00782778
0.00786664
0.00542979
0.00533519
0.00488008
0.00485035
0.00468345
0.0048751
0.00548834
0.00565114
0.00843365
0.0128574
0.00508594
0.0099592
0.0130768
0.0151247
0.0164994
0.0174219
0.0180853
0.0186722
0.260245
0.0640588
0.0224077
0.0244158
0.0247547
0.0248061
0.0247917
0.0247365
0.0246738
0.0245986
0.279488
0.0452087
0.0197751
0.0205731
0.0203269
0.0199912
0.019738
0.0196152
0.0195721
0.0194318
0.206296
0.0299401
0.0173951
0.0166381
0.0160691
0.0157343
0.0155762
0.0156262
0.0158523
0.0162615
0.220583
0.0185419
0.0137743
0.0120912
0.0116449
0.0114459
0.0114094
0.0115553
0.0119019
0.0123545
0.164568
0.0137678
0.0100872
0.00870867
0.00853689
0.00834984
0.00834106
0.0084949
0.00891032
0.00935961
0.133264
0.00959659
0.00788198
0.00661941
0.00642956
0.00629441
0.00628899
0.00642261
0.0069111
0.00735517
0.0511651
0.0096603
0.00569487
0.00582386
0.00535434
0.00522435
0.00519508
0.00529041
0.00579896
0.006233
0.0367145
0.00947006
0.00594026
0.00591414
0.0054766
0.00534161
0.0052505
0.00517463
0.00566628
0.00605395
0.0067941
0.00814188
0.00518611
0.00532954
0.00482374
0.00483239
0.00468751
0.00477375
0.00532151
0.00543099
0.00728924
0.0821244
0.018313
0.0243596
0.0275183
0.0295277
0.0309093
0.031758
0.0320824
0.0318749
0.0315565
0.0804914
0.0257372
0.0280835
0.0282547
0.0280397
0.0277881
0.0275767
0.0274881
0.0276622
0.0285725
0.0522611
0.0196503
0.0206831
0.0204595
0.0200875
0.0197474
0.0194707
0.0192205
0.0186421
0.0168099
0.0331727
0.0166476
0.016492
0.0159524
0.0154912
0.0151519
0.0149493
0.0148279
0.0146892
0.048128
0.0203677
0.0135145
0.0123479
0.0117647
0.0113997
0.0111918
0.0111301
0.0111983
0.011349
0.0586752
0.014567
0.0101634
0.00886788
0.00859792
0.00833712
0.00820764
0.00821597
0.00838994
0.0085816
0.078258
0.0100365
0.00791788
0.00677314
0.0064688
0.00631418
0.00623192
0.00626181
0.00652807
0.00678907
0.0505222
0.0102202
0.00563847
0.00588297
0.00540657
0.00526222
0.00518989
0.00521735
0.00552914
0.00584829
0.0566506
0.00956516
0.00579573
0.00588862
0.00542974
0.00531396
0.00524422
0.00517214
0.00550182
0.00587323
0.041344
0.00846098
0.0048716
0.00528469
0.00471993
0.0047438
0.00464162
0.00467691
0.00516418
0.00535474
0.0234874
0.195705
0.0317796
0.0380669
0.0402736
0.0412459
0.0418501
0.0423189
0.0426797
0.0428321
0.0430485
0.0960312
0.0271189
0.029622
0.0297359
0.029378
0.0288877
0.0283168
0.0276905
0.0270153
0.026698
0.0632356
0.0217773
0.022659
0.022126
0.0214719
0.0209079
0.0204812
0.0202668
0.0201815
0.0187723
0.0367627
0.0159305
0.0161445
0.015672
0.0151725
0.0147474
0.0143981
0.0140547
0.0134322
0.0117641
0.0218725
0.0126655
0.0120773
0.0115286
0.0110895
0.0107796
0.0105831
0.010453
0.0103282
0.0101046
0.0149232
0.00994919
0.00878975
0.0084785
0.00818261
0.00796318
0.00786638
0.00787482
0.00788618
0.029139
0.0102226
0.0077277
0.00681763
0.00639865
0.00623023
0.00609121
0.00604373
0.00614241
0.00622952
0.0206582
0.0106062
0.00544553
0.0058403
0.00535762
0.00520931
0.00510436
0.00508276
0.00523828
0.00541183
0.0239729
0.00961894
0.00551687
0.00577611
0.00529143
0.00518845
0.0051278
0.00507363
0.00527369
0.00555961
0.0146803
0.00876752
0.00442962
0.00516425
0.00454738
0.00456337
0.00450226
0.00450431
0.00488821
0.00511753
0.0114358
0.232725
0.0304058
0.036505
0.0385861
0.0393793
0.039753
0.0400116
0.0402884
0.0406051
0.0413493
0.125752
0.0323958
0.0349322
0.0347557
0.0340946
0.0333184
0.0324304
0.0313588
0.0298918
0.0279003
0.0634425
0.0200605
0.0212231
0.020832
0.0202291
0.0196583
0.019174
0.0189396
0.019453
0.0208641
0.0412712
0.0159926
0.016239
0.0157044
0.0151314
0.0146389
0.0142381
0.0139144
0.0135005
0.0115601
0.0241017
0.0119556
0.0117689
0.0112899
0.0108106
0.0104273
0.0101275
0.0098313
0.00938723
0.00850476
0.0152006
0.00965036
0.00858634
0.0082488
0.00796052
0.00768727
0.00750954
0.00739703
0.00727656
0.00846943
0.0104134
0.0073123
0.00677033
0.00624782
0.0060709
0.00590344
0.00580139
0.00578537
0.00575655
0.00576365
0.0108905
0.00511653
0.00570615
0.00521769
0.00507188
0.00495354
0.00489753
0.00494343
0.00500095
0.00439117
0.00963219
0.00511117
0.00558498
0.00507173
0.00497517
0.00491979
0.00488008
0.00499007
0.00518425
0.00832954
0.00913151
0.00387069
0.00498262
0.0043376
0.00432086
0.00429539
0.00427846
0.00454376
0.00477726
0.000554083
0.380409
0.0457005
0.052523
0.0542535
0.054696
0.0549651
0.0554516
0.0563656
0.0578622
0.0607106
0.129071
0.0292182
0.0318947
0.0319628
0.0315949
0.0312224
0.0309076
0.0306498
0.0303816
0.0299044
0.0671396
0.0196509
0.0208837
0.0205018
0.0198198
0.0190512
0.018126
0.0168856
0.015386
0.0145305
0.0406808
0.014487
0.0148708
0.014451
0.013972
0.0135626
0.0132581
0.0131443
0.0135096
0.0142752
0.0255745
0.0109556
0.0110337
0.0106911
0.0102611
0.00988712
0.00959251
0.00930903
0.00885221
0.00749541
0.0149684
0.00917423
0.00816445
0.00778317
0.00754432
0.00727035
0.00704491
0.0068493
0.00658741
0.00610125
0.0106793
0.00657526
0.0065462
0.00595354
0.00576878
0.00560294
0.00547117
0.00539307
0.00530001
0.00503098
0.0111243
0.00462989
0.00545856
0.00497538
0.00482595
0.00471316
0.00463796
0.00462794
0.00461318
0.0169721
0.00963739
0.00458455
0.00532014
0.00478822
0.00468064
0.00463323
0.00460049
0.00466259
0.00480918
0.00523926
0.00962842
0.00319838
0.00472333
0.00409955
0.00401887
0.00401803
0.00399886
0.004167
0.00436666
0.00309646
0.378617
0.039078
0.0440687
0.0437014
0.0413507
0.0379307
0.0336587
0.0285207
0.0223891
0.0156632
0.140779
0.0287977
0.0314573
0.0316461
0.0315197
0.0315973
0.0320412
0.0330116
0.0348189
0.0382536
0.071577
0.0190547
0.0202848
0.0199697
0.0194195
0.0188981
0.018381
0.0175679
0.0156037
0.011234
0.0402341
0.0135615
0.0139052
0.0134444
0.0128914
0.0123418
0.0117668
0.0111135
0.0104166
0.0102444
0.0260135
0.00981599
0.00996198
0.00976448
0.00943812
0.00911771
0.00889868
0.00880912
0.00883725
0.0084459
0.0140046
0.00857124
0.00763413
0.00713957
0.0069513
0.00672972
0.00651582
0.00632357
0.00602677
0.00511399
0.0111791
0.00553028
0.00614627
0.00553439
0.00532533
0.00517896
0.00504022
0.00493795
0.00480083
0.00433548
0.0112747
0.00396434
0.00506054
0.00462205
0.00445404
0.00436064
0.00428432
0.00426089
0.00423164
0.012824
0.00957769
0.00390437
0.0049302
0.00442716
0.00428198
0.0042468
0.00422151
0.00425809
0.00439488
0.00450598
0.0102315
0.00239012
0.00430987
0.00380637
0.00363746
0.00364344
0.00364025
0.00375023
0.00381132
0.00433279
0.417079
0.0410708
0.0492049
0.0537717
0.0578693
0.0624246
0.067714
0.0737713
0.0804636
0.0882033
0.156406
0.0282901
0.029884
0.0284322
0.0260341
0.0231722
0.0198989
0.0160916
0.0114861
0.00613992
0.0645226
0.0150916
0.0165721
0.0166844
0.0166135
0.0167173
0.0172425
0.018511
0.0205908
0.0222284
0.0383527
0.0122743
0.0126508
0.0122542
0.0117716
0.0112967
0.0107623
0.00999328
0.00850587
0.0053402
0.0255864
0.00883981
0.00875199
0.0085907
0.00834473
0.00800547
0.00767153
0.00739876
0.00728016
0.00720296
0.0122818
0.00773025
0.00706698
0.00639889
0.00620818
0.00606285
0.0059125
0.00580167
0.00573091
0.00520499
0.0121801
0.00423472
0.00559399
0.00505492
0.00479786
0.00467758
0.00455859
0.00444933
0.00432746
0.00375761
0.0114557
0.00322498
0.00454262
0.00421994
0.00400819
0.00392877
0.00386098
0.00381928
0.00381791
0.0034933
0.00954351
0.00318296
0.00443297
0.00405179
0.00383442
0.00379784
0.00378354
0.00378653
0.00383993
0.0040127
0.0110433
0.00161187
0.00376676
0.00353343
0.00327389
0.00324822
0.00326023
0.00335593
0.00349237
0.00344361
0.47529
0.036043
0.0376932
0.0341973
0.0289312
0.023031
0.017019
0.0112312
0.00596076
0.00166063
0.132226
0.0224029
0.0264054
0.0285737
0.0303798
0.0322056
0.0341324
0.0361156
0.037884
0.0388845
0.0694454
0.0143947
0.0152562
0.0145913
0.0134748
0.0121477
0.0106416
0.00911968
0.00808041
0.00804048
0.0338304
0.0100288
0.0106712
0.0105502
0.0103621
0.0103043
0.0104655
0.0109027
0.0116155
0.0116968
0.0234668
0.00821672
0.00761565
0.00731522
0.00717963
0.00693059
0.00655614
0.00601937
0.00524232
0.00405845
0.0101784
0.00633459
0.0063955
0.00559523
0.00529015
0.00516241
0.00502869
0.00487809
0.00476971
0.00466391
0.0137047
0.00267016
0.0047835
0.00448384
0.00416781
0.00405986
0.00398484
0.0038943
0.0037972
0.00355056
0.0115148
0.00249157
0.00384405
0.00376191
0.00350323
0.00341791
0.00336745
0.00330171
0.00322439
0.00315729
0.00933297
0.00251481
0.00374446
0.00364752
0.00336496
0.00329863
0.00329717
0.00329404
0.00322511
0.00296964
0.0117835
0.000982503
0.00294019
0.00314447
0.00286634
0.00277366
0.00277019
0.00280832
0.00311595
0.00487455
0.446415
0.0343568
0.0411424
0.0444772
0.0466918
0.0483443
0.0494949
0.050034
0.0497377
0.049059
0.148527
0.0195886
0.0200352
0.0185585
0.0167827
0.0152149
0.0140748
0.0135547
0.0138997
0.0153254
0.0605882
0.0109796
0.0127268
0.0132655
0.0133891
0.0132927
0.0128788
0.0118436
0.0098102
0.00636749
0.0317074
0.00770671
0.00849499
0.00835856
0.00795034
0.00746586
0.00701962
0.00668972
0.00660822
0.00684108
0.0179436
0.00789619
0.00680833
0.00611519
0.00602
0.00607547
0.00613353
0.00617087
0.00603665
0.00527977
0.00943993
0.00416104
0.00554239
0.00489961
0.00441542
0.0042235
0.00408758
0.00390754
0.00355583
0.00284825
0.0161058
0.00116107
0.0037419
0.00390084
0.00354853
0.00338079
0.00330635
0.00325419
0.0031288
0.00282602
0.011176
0.00204448
0.0029572
0.00325692
0.00301421
0.00288913
0.00283983
0.00281328
0.00267775
0.00226798
0.00859279
0.002212
0.00282445
0.00315376
0.00289461
0.00276043
0.00273124
0.00277044
0.00284064
0.00287837
0.012008
0.00103524
0.00198182
0.00266755
0.00255358
0.00240948
0.00234816
0.00225948
0.00188779
0.00224338
0.391286
0.0300504
0.033328
0.0335032
0.0331654
0.0331053
0.0336173
0.0348237
0.0367591
0.0394514
0.112197
0.0159538
0.0179908
0.0182392
0.0176725
0.0165835
0.0150401
0.0130139
0.0104488
0.00746202
0.0573463
0.00844447
0.00921793
0.00936452
0.00955753
0.0100106
0.0108764
0.0122259
0.0138957
0.0150416
0.0328786
0.00498605
0.00624863
0.00649184
0.00637888
0.00604142
0.00548697
0.00470032
0.00355069
0.00181431
0.0081558
0.00714295
0.00636718
0.00513858
0.00451352
0.00430738
0.00426897
0.00436501
0.0045901
0.00463594
0.0122742
0.00106759
0.00409238
0.00425621
0.00379949
0.00353312
0.00342319
0.00340067
0.00338253
0.0030361
0.0184888
4.86762e-05
0.00227006
0.00311017
0.00295133
0.00274107
0.00260895
0.00253991
0.00246192
0.00210368
0.00949218
0.00228426
0.00186343
0.00252401
0.00246687
0.00233805
0.00226182
0.00225559
0.00228951
0.00205496
0.00635876
0.00274015
0.00178461
0.00246515
0.00243434
0.00230176
0.00222228
0.00219345
0.00223816
0.00255566
0.0100933
0.00212168
0.000962482
0.00171744
0.00193384
0.00191429
0.00192039
0.00205269
0.00184414
0.000528149
0.188742
0.00617384
0.00499425
0.00294328
0.000617346
0.00175222
0.00409885
0.00640368
0.00864587
0.0105405
0.103513
0.0130648
0.0148155
0.0159785
0.0171594
0.0184347
0.0198054
0.0212331
0.0225804
0.0235787
0.0448308
0.00803031
0.00767854
0.0065884
0.00548632
0.00438376
0.00323253
0.00208874
0.00105579
0.000263648
0.0390065
0.00300595
0.00470625
0.00517835
0.0053871
0.00567803
0.00606068
0.00651004
0.00696153
0.00687353
0.00259868
0.00369665
0.005107
0.00466748
0.00389536
0.00331023
0.00285818
0.00241368
0.0019326
0.00128524
0.0212598
0.00184765
0.00163318
0.00296942
0.00301365
0.00281294
0.00265542
0.00254424
0.00247256
0.00226604
0.0195217
0.00077884
0.000922217
0.002015
0.00225572
0.00219026
0.00209531
0.00200994
0.00194939
0.00175331
0.00500275
0.00400695
0.00126285
0.00173756
0.00188426
0.00183313
0.00176499
0.00169012
0.00165011
0.00165976
0.00120351
0.00454601
0.00123141
0.00163314
0.00180117
0.00175429
0.00170756
0.00165174
0.00146045
0.000468847
0.00425311
0.00493246
0.00141404
0.00136761
0.00153813
0.00151529
0.0014486
0.00164664
0.00294513
0.00629358
0.855733
0.0655624
0.0732186
0.072936
0.0706008
0.067802
0.0650859
0.0626193
0.0603693
0.0584778
0.0692219
0.00497158
0.00310605
0.000840752
0.00104678
0.00254146
0.00372064
0.00462272
0.00525357
0.00567014
0.00785832
0.00744933
0.00814337
0.00795289
0.0077412
0.00769991
0.00774588
0.00775613
0.00761683
0.00691336
0.0411107
0.0001337
0.00236057
0.00306893
0.00288101
0.00249644
0.00213789
0.00183395
0.00158677
0.00134335
0.0028598
0.00211437
0.000975821
0.0024343
0.0028342
0.00291512
0.00296655
0.00302291
0.00303853
0.0028045
0.0320277
0.00127576
0.000298873
0.00100958
0.00153642
0.00163664
0.0016056
0.00152953
0.00140357
0.00115276
0.0119663
0.00376482
0.000793526
0.00101784
0.00132707
0.00142713
0.00144278
0.00141986
0.00135548
0.00122258
0.00589422
0.00592952
0.00134074
0.00108643
0.00120649
0.00122842
0.00123118
0.00121756
0.00110816
0.000694726
0.0085828
0.00607572
0.00135154
0.00112866
0.00130928
0.00131544
0.0012817
0.00132185
0.00160661
0.0022498
0.00919353
0.00538577
0.00123636
0.000599592
0.000772296
0.000903998
0.000788744
0.00019151
0.000749814
0.000208881
1.92803
0.0816978
0.0841807
0.0752163
0.0650357
0.0559578
0.0483639
0.0420758
0.0367526
0.0321906
0.0550525
0.0223176
0.0229639
0.0223896
0.021629
0.0208928
0.0201879
0.0194717
0.0186658
0.0177067
0.0249044
0.00020903
0.000962155
0.00130664
0.00114115
0.000876288
0.000684215
0.000596244
0.000581011
0.00056547
0.0496168
0.00342809
0.000577913
0.00117133
0.00193023
0.00220525
0.00227229
0.00224585
0.00213037
0.00179102
0.032425
0.000234455
0.000374104
0.000968327
0.00119787
0.00121189
0.00115442
0.00109743
0.00103097
0.00086451
0.024442
0.00382023
0.00155377
0.00120824
0.00123716
0.00125795
0.00125077
0.00124498
0.00122507
0.00107501
0.00740685
0.00641272
0.00209537
0.00111415
0.000937986
0.000890094
0.000864327
0.000852757
0.000815881
0.000603981
0.0168493
0.00643135
0.00189276
0.00103984
0.000924337
0.000867992
0.000821215
0.000823601
0.000916583
0.000972349
0.0146439
0.00615513
0.00140974
0.000561807
0.000629613
0.000727682
0.000727492
0.00061834
0.00047477
0.000948266
0.0152575
0.00663699
0.0028314
0.00130903
0.000862448
0.000853136
0.0010761
0.00120534
0.000143706
0.00392653
4.31769
0.0500848
0.0507376
0.047577
0.0438311
0.0402769
0.0370687
0.0341637
0.0314205
0.0290829
0.0789663
0.01805
0.0162992
0.0144206
0.0127566
0.0113162
0.0100477
0.00888915
0.00775914
0.00663014
0.0267486
0.000112505
0.00146171
0.0024058
0.0028613
0.00303143
0.00305162
0.00299598
0.00286988
0.00250093
0.060259
0.000674223
0.000104416
0.000552968
0.000737187
0.000800964
0.000821728
0.000838037
0.000849877
0.000769466
0.00750293
0.000199365
0.00030377
0.000536523
0.000691618
0.00075745
0.000766476
0.000751764
0.000726434
0.000609263
0.0144354
0.00246005
0.00100229
0.000607401
0.000535464
0.00052149
0.000506948
0.000486299
0.000466604
0.000371392
0.025876
0.0036989
0.00138193
0.000738683
0.000582915
0.000531152
0.000502163
0.000484558
0.000503664
0.000487605
0.0210799
0.00360134
0.00108918
0.000497327
0.000423595
0.000422742
0.000405294
0.000344018
0.000273464
0.000317889
0.0155936
0.00460264
0.00177324
0.00076985
0.000497929
0.000450712
0.000475985
0.000468212
0.000152799
0.0011323
0.0253655
0.00110158
0.000669914
0.000443392
0.000289858
0.000161342
0.000230961
0.000983768
0.00309846
0.00728418
1.28954
0.409252
0.40872
0.404927
0.402216
0.400988
0.398637
0.419824
0.43397
0.590726
0.00177818
0.00619621
0.00620453
0.0060016
0.00571178
0.00539482
0.00506545
0.00471424
0.0042951
0.00369797
0.0257321
0.000352468
0.000235592
0.000206811
0.000230495
0.000262136
0.000283879
0.000287872
0.000265917
0.000197745
0.0147004
0.000775103
0.00017082
0.000154019
0.000300111
0.000356441
0.000368925
0.000359062
0.000336496
0.000271173
0.00856213
0.000281023
0.000217432
0.000222635
0.000236632
0.000245146
0.000247922
0.000242652
0.000233226
0.000194524
0.00223555
0.000984527
0.000462876
0.000293904
0.000244389
0.000228105
0.000222566
0.000214874
0.000206709
0.00018174
0.00818411
0.00112384
0.000438462
0.000239896
0.000188815
0.000173295
0.000166707
0.000150395
0.000121213
9.71233e-05
0.00662979
0.00108964
0.000404482
0.000209292
0.000165895
0.000161619
0.000176548
0.000194868
0.000171481
4.28394e-05
0.00527307
0.000973137
0.000461958
0.000264548
0.000191403
0.000154316
0.00014145
0.000207677
0.000475288
0.00109418
0.603114
0.576183
0.577714
0.576704
0.576341
0.57632
0.5768
0.579438
0.57794
0.592254
227.755
217.813
243.646
310.959
224.651
187.683
235.575
353.445
196.534
124.603
207.312
345.122
161.728
82.7717
178.269
313.477
130.308
58.0089
135.994
276.657
103.9
41.3846
104.958
235.982
83.4988
29.7544
81.4206
198.244
69.647
21.7066
64.8026
170.256
60.6621
15.4327
54.4349
156.036
47.9993
7.19621
43.3853
143.842
17.5198
5.00269
0.0683522
4.34314
28.3184
6.20988
0.00595116
1.27364
34.703
4.1876
0.0466768
5.8145
37.5301
2.4409
0.0584117
6.89994
35.1786
0.0407636
0.0492582
0.0554752
31.471
0.0328174
0.0385077
0.0432531
27.8273
0.0268374
0.030913
0.035671
25.5408
0.0235332
0.0269177
0.0322659
24.9895
0.0227676
0.0263302
0.0331733
24.131
0.0236671
0.0278625
0.0357777
15.7816
14.7781
12.994
14.7784
18.82
13.7318
11.3131
13.4951
20.7205
12.695
11.6577
14.4283
21.2903
11.4082
11.089
14.8754
20.9565
10.5617
10.4437
14.4183
19.2129
9.10595
8.26469
11.6566
17.0837
7.55642
5.91527
9.05522
15.663
6.45674
4.06244
7.20871
15.629
5.84024
2.76225
6.26152
18.0313
6.07492
2.99207
6.34757
3.43442
3.81858
3.67373
3.54427
4.48945
3.04753
2.68231
2.93198
5.95107
3.34955
2.70797
3.35711
6.88815
3.46911
2.53772
3.45776
7.15667
3.19173
1.88196
2.93918
6.95127
2.80808
1.15613
2.30537
6.46766
2.34433
0.397763
1.62381
6.14673
2.01691
0.0198431
1.12366
6.08701
1.64815
0.0216212
0.677873
5.9216
0.737675
0.0332264
0.255105
1.38303
1.61283
1.60375
1.54568
1.63888
1.22726
1.12561
1.22765
2.1449
1.35748
1.07395
1.17044
2.55456
1.4891
1.01703
1.12895
2.81204
1.53752
0.86895
1.00014
2.8868
1.49879
0.653112
0.827343
2.80143
1.36113
0.369184
0.600633
2.77077
1.27161
0.128911
0.440444
2.82054
1.15924
0.0186392
0.274813
2.88963
0.971639
0.0306418
0.337896
0.337412
0.44307
0.471807
0.462569
0.525304
0.349469
0.311357
0.366842
0.708248
0.397163
0.283859
0.278628
0.892485
0.4777
0.270546
0.224274
1.01429
0.523101
0.219236
0.16661
1.07641
0.550414
0.163046
0.120438
1.06046
0.523104
0.0710345
0.0525929
1.06888
0.517164
0.0117755
0.0180817
1.10006
0.492686
0.0153744
0.0145938
1.09527
0.443381
0.0262191
0.0935272
0.0379634
0.04115
0.0564005
0.0554516
0.103954
0.0302043
0.0290181
0.0276344
0.182302
0.0353573
0.0212194
0.0233669
0.283924
0.0956012
0.0149775
0.012951
0.358586
0.141787
0.0109177
0.01184
0.400873
0.185679
0.0239393
0.0115725
0.39304
0.189966
0.00959211
0.00930422
0.389143
0.197425
0.00963636
0.00937623
0.394976
0.196767
0.012812
0.0124729
0.394387
0.203911
0.0226867
0.0458178
0.0510556
0.043635
0.0424456
0.0407799
0.0426241
0.0320647
0.0336098
0.0351182
0.0239358
0.0117967
0.0120191
0.0141798
0.053296
0.0162102
0.0178691
0.0192442
0.105327
0.0107572
0.00986504
0.00950663
0.128112
0.0368839
0.00834126
0.00912267
0.117603
0.0468116
0.00822734
0.00853773
0.100656
0.0495005
0.00803154
0.00836975
0.086435
0.0472668
0.0106466
0.0101551
0.0965972
0.0618074
0.0213434
0.022005
0.0495214
0.0427122
0.0423763
0.0416889
0.0363041
0.0253246
0.0259847
0.0275396
0.0332919
0.0177631
0.0157103
0.0146052
0.0150042
0.00643793
0.00734198
0.0101652
0.0229444
0.010771
0.0109312
0.0115918
0.0336527
0.00687552
0.00641305
0.0069016
0.0186644
0.0069236
0.00587897
0.00676295
0.00791097
0.00106283
0.00571809
0.00637059
0.0352668
0.008816
0.00992973
0.00958977
0.0119656
0.00236156
0.0157655
0.0138201
0.0787889
0.0727996
0.0756921
0.0778366
0.0354319
0.02077
0.0187692
0.0176358
0.0284108
0.0199041
0.0212327
0.0227225
0.0224359
0.00925319
0.00740687
0.00662171
0.0123643
0.00596841
0.00627511
0.00757164
0.0118399
0.00699921
0.00660816
0.00679497
0.00395353
0.00507008
0.00452132
0.00472539
0.0376962
0.000114857
0.00485005
0.00482607
0.0677072
0.0146319
0.00828542
0.00854888
0.0316521
0.0131969
0.0123734
0.00855717
0.00742712
0.000312682
0.00333571
0.00563982
0.0625558
0.0461709
0.0468224
0.0471128
0.00938116
0.003275
0.00391216
0.00596497
0.0226773
0.0145202
0.0148897
0.0153629
0.0136389
0.00561553
0.00523848
0.00556156
0.00984349
0.00504639
0.00525682
0.0059504
0.00770664
0.00511454
0.00498522
0.00516739
0.0320899
0.0049889
0.0050332
0.00539033
0.0538439
0.00591918
0.00533765
0.00502829
0.0154246
0.00918292
0.0168103
0.0139477
0.11115
0.100605
0.101565
0.100135
0.00374951
0.00123528
0.00233359
0.00475248
0.0302356
0.01583
0.014386
0.0135643
0.00540413
0.00177756
0.0025139
0.004261
0.0143847
0.00743865
0.00719013
0.00733802
0.008909
0.0034238
0.00324572
0.00364661
0.00744879
0.00338246
0.00339586
0.00388366
0.00918679
0.00290181
0.00274831
0.00314733
0.0158744
0.00755967
0.00702661
0.0063987
0.00974473
0.00548529
0.00669094
0.00783592
0.00209929
0.000566592
0.00242142
0.00600479
0.044714
0.0303891
0.028563
0.0267885
0.0184312
0.0116248
0.0125457
0.0139952
0.0151708
0.00642519
0.00573986
0.00561918
0.00714389
0.00331733
0.00355071
0.00435495
0.00939243
0.00453763
0.00433591
0.00449162
0.00693729
0.0028198
0.00263309
0.0028667
0.00740089
0.00346541
0.00305909
0.00295501
0.00769369
0.00452
0.00503395
0.0060912
0.0173173
0.00464984
0.00282603
0.000568859
0.0503868
0.0424268
0.0393827
0.0354182
0.0277075
0.0186566
0.0197584
0.0215152
0.00207977
5.93606e-05
5.43771e-05
0.000689184
0.0139736
0.00754783
0.00759274
0.00805401
0.0070124
0.00258738
0.00244538
0.00272441
0.00514743
0.00207999
0.00210385
0.00249604
0.00578097
0.00254025
0.00238989
0.00248885
0.00488193
0.00259
0.00274264
0.00323688
0.00653754
0.000214847
0.000857627
0.00120908
0.020523
0.0177699
0.017266
0.014293
0.0516545
0.0451609
0.0467471
0.0481618
0.00419505
0.00281761
0.00262776
0.0028199
0.0206465
0.0113287
0.0109855
0.0111296
0.0010324
0.000110846
0.000133354
0.000771183
0.00822784
0.00391075
0.00379771
0.00392745
0.00484022
0.00192035
0.00185942
0.00203577
0.0038545
0.00164544
0.00168603
0.00196706
0.00342667
0.000402649
0.000237366
0.000331985
0.0103554
0.00819625
0.00731106
0.00621383
0.0130486
0.00633616
0.00415027
0.000362939
0.015781
0.0130878
0.0123813
0.0110582
0.0296665
0.0205675
0.0200481
0.0197062
0.00169651
0.000649096
0.00100691
0.001654
0.00878509
0.00417886
0.00398507
0.00407455
0.00195731
0.000562436
0.000675004
0.00105944
0.0039003
0.00162993
0.00159505
0.00174991
0.00293811
0.000877893
0.000810767
0.000930308
0.00439416
0.00249065
0.00216411
0.00194105
0.00282943
0.000800463
0.000418892
0.00225535
0.0148389
0.002324
0.000500712
0.00408266
0.0656051
0.0528659
0.0493156
0.0450472
0.0072726
0.00505669
0.00400244
0.00251895
0.0069518
0.00383721
0.00362729
0.00364723
0.00248546
0.00103172
0.00113477
0.00144774
0.00372795
0.00159641
0.00151346
0.00156402
0.00184931
0.000601908
0.000605819
0.000754441
0.00248715
0.00109412
0.00100203
0.00101286
0.000521867
0.000426025
0.000731328
0.00120888
0.00357101
0.00263582
0.0030608
0.00380583
0.0218491
0.0154092
0.0151472
0.0139526
0.032506
0.0227393
0.0176347
0.0118286
0.0191823
0.0130708
0.0114987
0.00976537
0.00104061
0.000451006
0.000679507
0.00109867
0.00191233
0.000840811
0.000804555
0.000865807
0.00127718
0.000500759
0.000535704
0.000678417
0.00159765
0.000656578
0.000621782
0.000659307
0.000706975
0.000300259
0.00035816
0.000493979
0.00116396
0.00047896
0.000521503
0.000592147
0.00928929
0.00753518
0.00678871
0.00628616
0.0300873
0.0156444
0.0140422
0.00917933
0.0286663
0.0219361
0.0184592
0.0142995
0.00567391
0.00329842
0.0017033
0.00027072
0.00211675
0.00119378
0.00102333
0.000876454
0.000836095
0.00041096
0.00044657
0.00055527
0.000707674
0.000284255
0.00027344
0.000303858
0.000409096
0.000167519
0.000184879
0.000243878
0.000617817
0.000133718
0.000124246
0.000135497
0.00173395
0.00114753
0.000974893
0.000910708
0.00864103
0.00464789
0.00390451
0.00295494
0.0222572
0.0126772
0.0110702
0.00535029
0.861101
0.256287
0.253781
0.852687
0.00264666
0.00177689
0.00117192
0.000458644
1.93409e-05
2.58125e-05
5.0357e-05
0.000166359
0.000195138
0.000110573
0.000109029
0.00012309
0.00014383
8.45987e-05
9.29352e-05
0.00011588
0.000166443
7.46625e-05
7.46116e-05
8.49881e-05
0.000155384
9.58886e-05
9.21885e-05
9.97794e-05
0.000488883
0.000312647
0.000221613
0.00012017
0.00390518
0.00174023
0.00145512
0.000939279
0.405604
0.435332
0.426669
0.387008
0.0285559
23.6992
12.7627
0.058883
0.0648833
0.0697079
0.0724751
0.0747054
0.0784095
0.35829
0.00386195
19.7685
0.00543235
0.00538068