/*--------------------------------*- C++ -*----------------------------------*\
| =========                 |                                                 |
| \\      /  F ield         | foam-extend: Open Source CFD                    |
|  \\    /   O peration     | Version:     4.0                                |
|   \\  /    A nd           | Web:         http://www.foam-extend.org         |
|    \\/     M anipulation  |                                                 |
\*---------------------------------------------------------------------------*/
FoamFile
{
    version     2.0;
    format      ascii;
    class       volScalarField;
    location    "200";
    object      epsilon;
}
// * * * * * * * * * * * * * * * * * * * * * * * * * * * * * * * * * * * * * //

dimensions      [0 2 -3 0 0 0 0];

internalField   nonuniform List<scalar> 
34480
(
4588.85
4586.61
4589.57
4597.18
4617.73
4672.92
4807.17
5093.39
5612.52
6502.43
5467.47
6902.42
9863.55
16777.9
35138.9
87512.3
232381
587270
1.27687e+06
2.21848e+06
7155.72
8979.75
12327.3
19462.7
37855.4
93054.7
266853
771756
1.96191e+06
3.9909e+06
6111.01
7723.69
10579.9
16527.4
31901.2
80305.1
247835
798156
2.28311e+06
5.20119e+06
5036.25
6430.06
8875.46
13927.1
27057.6
69964.6
229043
801060
2.50517e+06
6.19736e+06
3990.89
5106.59
7099.38
11302.5
22507.5
60707.8
210864
790292
2.65573e+06
7.03149e+06
3054.97
3906.04
5474.65
8887.51
18278
51525.7
188488
747631
2.66936e+06
7.5103e+06
2088.68
2645.51
3707.05
6135.21
13171.7
39423.8
153178
642942
2.43263e+06
7.25039e+06
1239.33
1453.59
1873.47
2933.39
6414.62
20808
87812.7
395281
1.59844e+06
5.03827e+06
5364.98
5364.84
5383.19
5425.96
5503.43
5619
5797.36
6199.36
7095.02
8319.05
4493.94
4496.12
4507.78
4528.19
4558.19
4601.55
4674.34
4811.12
5064.69
5536.06
3080.51
3614.84
4601.36
6493.83
10343.7
19594.4
46357.2
134599
405735
1.06615e+06
4221.37
5072.1
6479.82
8957.36
13862.1
25029.6
57493.5
177543
614046
1.82936e+06
3808.55
4652.87
6015.92
8375.98
13030.1
23637.3
55224.4
184923
729686
2.42028e+06
3274.65
4056.51
5323.37
7513.46
11805.1
21660.8
51555.9
185760
822472
2.97715e+06
2695.82
3345.11
4422.26
6327.79
10109.1
18952
46592.3
181814
891113
3.44466e+06
2143.04
2649.03
3515.62
5093.35
8290.45
15882.7
40234.2
168790
907467
3.71638e+06
1535.85
1867.84
2450.55
3553.76
5852.48
11414.9
29922.1
137676
827284
3.62802e+06
1026.44
1152.07
1368.84
1789.54
2710.33
5043.83
13568.2
73896.3
533727
2.64103e+06
5237.59
5229.75
5236.8
5265.94
5331.89
5434.88
5555.01
5771.47
6473.63
8259.6
4402.8
4404.15
4412.51
4429.37
4456.81
4496.64
4552.84
4636.2
4766.53
4970.54
1722.74
1953.23
2355.09
3043.78
4256.67
6602.25
11635.5
23646.9
52452.7
108142
2367.22
2787.39
3462
4570.12
6487
10141.6
18319.6
40230.6
102882
245621
2285.53
2745.37
3470.53
4660.58
6780.94
10869.3
20472.8
49230.6
145951
402439
2079.89
2535.44
3262.86
4464.11
6626.44
10870.2
21222.7
55564.7
188821
588676
1796.81
2193.05
2844.99
3954.49
5993.78
10114.2
20674.4
59746.6
232293
802632
1496.6
1817.61
2365.08
3326.72
5138.24
8883.18
18906.5
59932.5
263929
998051
1134.6
1351.54
1731.31
2427.26
3777.36
6629.84
14644.2
51501.5
260577
1.08726e+06
864.991
951.393
1100.55
1378.44
1945.91
3205.11
7018.35
27704.9
168967
818499
5136.31
5124.45
5123.8
5140.25
5185.58
5264.39
5368.83
5523.65
5936.26
7055.06
4312.64
4313.22
4318.33
4329.96
4350.35
4381.68
4426.38
4488.57
4577.49
4711.34
980.803
1072.64
1218.85
1449.9
1826.06
2462.66
3588.43
5688.8
9612.33
15565.2
1254.68
1445.93
1743.63
2208.47
2945.1
4195.06
6506.69
11242.2
21400.1
39470.2
1306.24
1538.88
1898.01
2467.06
3407.32
5039.22
8223.23
15377.1
33182.8
71140.4
1272.95
1521.99
1914.42
2544.61
3613.89
5503.58
9361.01
18836.8
46031.7
114007
1164.63
1393.75
1768.38
2393.41
3490.24
5495.73
9822.94
21597.1
60441.5
171245
1024.36
1219.67
1552.46
2127.52
3169.11
5130.84
9568.15
22867.6
72988.9
233488
829.791
967.341
1208.1
1643.27
2460.1
4046.35
7818.25
20405.6
75294
273489
731.883
790.203
890.764
1071.63
1425.27
2151.67
4003.25
10968
47503.7
204382
5020.95
5007.94
5003.57
5012.06
5041.22
5096.64
5183.38
5309.36
5562.79
6238.62
4219.66
4219.65
4222.44
4229.62
4242.75
4263.67
4294.71
4339.39
4404.55
4505.46
612.535
647.737
695.789
764.413
869.039
1033.34
1297.63
1731.54
2408.53
3215.62
659.447
738.954
856.754
1030.93
1291.23
1703.47
2391.79
3605.08
5691.7
8450.07
731.752
839.606
1000.2
1244.2
1622.65
2238
3317.72
5374.6
9417.71
15973.6
764.518
890.344
1083.66
1382.74
1859.26
2645.24
4081.63
7023.34
13617.7
26591.2
742.974
866.271
1064.36
1385.75
1919.7
2827.97
4576.42
8474.34
18444.1
41636.1
692.265
803.946
991.954
1308.48
1855.37
2811.72
4730.54
9358.12
22829.1
59174.9
603.654
686.713
829.961
1082.09
1535.75
2357.26
4081.53
8619.15
23869.5
71647.4
622.653
661.04
726.223
837.553
1041.62
1429.25
2297.63
4777.59
14613
52230.2
4901.6
4888.32
4881.76
4884.87
4902.13
4937.97
5000.62
5098.24
5270.26
5693.63
4121.85
4121.56
4123.16
4127.85
4136.59
4150.63
4171.8
4203.27
4251.68
4332.76
435.869
450.301
466.325
486.298
514.641
557.319
624.304
732.858
897.921
1075.36
370.039
401.758
445.678
507.367
596.868
733.728
952.029
1313.39
1873.02
2465.33
422.461
469.764
536.514
633.552
777.256
1002.44
1376.46
2035.92
3179.9
4677.2
466.071
526.182
614.827
745.61
942.43
1252.6
1783.75
2774.57
4698.95
7823.04
477.636
540.434
638.115
790.49
1029.76
1416.44
2107.92
3485
6471.91
12322.4
469.313
530.149
629.839
791.186
1055.07
1491.23
2295.74
3991.38
8092.17
17599
441.346
489.787
570.614
706.955
938.944
1335.47
2094.48
3800.8
8476.42
21327.9
534.136
559.05
600.175
666.156
777.935
973.129
1363.73
2283.01
5146.32
14991.5
4777.31
4764.52
4757.11
4757.2
4767.16
4789.93
4831.83
4901.34
5022.01
5286.07
4018.02
4017.61
4018.61
4022
4028.45
4038.78
4054.39
4077.98
4115.71
4182.69
348.386
354.96
360.781
366.845
374.87
387.264
408.253
446.018
510.064
584.666
236.402
249.194
265.421
287.119
318.444
366.583
444.193
574.5
777.267
978.674
265.588
285.981
312.614
349.431
402.294
484.136
618.841
855.58
1259.69
1742.54
300.559
328.549
367.323
421.135
497.778
614.822
809.488
1165.04
1832.36
2813.33
319.191
350.228
395.986
463.61
563.673
718.707
983.367
1487.09
2513.63
4324.47
326.596
358.82
409.168
486.127
604.469
790.317
1112.3
1744.29
3138.17
6053.44
329.286
357.06
400.872
470.352
580.713
758.65
1074.67
1719.88
3286.31
7205.53
463.774
479.814
505.132
542.942
601.833
695.581
863.026
1204.91
2102.45
4970.74
4647.18
4635.43
4628.11
4626.82
4632.87
4648
4675.93
4723.06
4805.2
4969.02
3907.97
3907.48
3908.16
3910.85
3916.04
3924.33
3936.81
3955.78
3986.86
4044.46
302.079
305.364
307.783
309.845
312.442
317.008
326.147
345.248
382.246
430.949
174.742
180.262
186.592
194.633
206.472
225.58
258.358
317.344
416.175
522.526
187.65
196.68
207.291
221.06
240.479
271.005
323.248
420.724
598.593
820.792
211.252
224.406
241.104
262.448
291.06
333.868
405.644
542.696
815.659
1224.76
227.362
242.682
263.561
292.238
331.831
390.732
489.041
678.553
1078.08
1778.85
238.019
254.993
279.705
314.664
364.609
438.849
561.387
797.068
1318.78
2387.8
253.904
269.829
293.017
326.946
376.43
450.92
574.535
814.429
1381.06
2766.33
408.431
418.743
434.002
455.074
485.246
528.873
598.225
724.471
1029.37
2000
4510.43
4500.05
4493.39
4491.75
4495.93
4506.93
4526.72
4559.08
4613.54
4716.09
3791.78
3791.21
3791.7
3793.97
3798.39
3805.4
3815.88
3831.75
3858.11
3908.87
275.121
276.838
278.006
278.882
279.992
282.301
287.625
299.89
325.917
363.31
145.092
147.726
150.473
153.794
158.885
167.789
184.484
217.296
277.547
351.024
148.334
152.593
157.001
162.279
169.622
181.706
204.237
250.911
345.868
479.469
163.038
169.481
176.814
185.2
195.612
210.986
238.189
296.083
426.545
644.182
174.599
182.361
191.914
203.816
218.847
240.181
275.95
350.192
525.402
860.371
183.901
192.977
205.033
220.472
240.592
268.548
313.005
401.218
615.41
1085.77
203.992
213.254
225.434
241.591
262.805
292.073
337.438
424.723
645.734
1220.78
365.056
371.721
380.744
392.182
407.283
427.132
455.293
502.287
617.733
1013.74
4366.42
4357.56
4351.87
4350.41
4353.74
4362.46
4377.53
4400.84
4437.24
4503.74
3669.56
3668.92
3669.29
3671.28
3675.16
3681.28
3690.31
3703.88
3726.6
3771.6
257.297
258.18
258.822
259.326
260.004
261.508
265.127
273.801
293.346
323.228
129.89
131.265
132.61
134.174
136.693
141.493
151.302
172.203
213.977
271.315
127.738
129.906
131.877
134.017
136.951
142.147
153.059
178.618
237.055
330.962
136.488
139.826
143.201
146.553
150.295
155.764
166.581
193.756
265.171
402.389
144.073
148.177
152.668
157.617
163.158
170.521
183.379
214.283
300.698
490.718
150.974
155.96
161.917
168.677
176.52
186.464
201.855
235.536
332.619
576.832
171.186
176.695
183.128
190.736
199.52
210.303
225.8
257.085
351.199
631.513
330.855
335.22
340.459
346.494
353.868
362.68
373.916
392.242
442.503
638.635
4214.81
4207.46
4202.81
4201.74
4204.64
4211.87
4223.85
4241.31
4266.37
4311.99
3541.46
3540.73
3541.01
3542.79
3546.26
3551.7
3559.61
3571.35
3591.05
3630.81
243.605
244.01
244.394
244.756
245.271
246.365
248.935
255.216
269.955
293.79
121.493
122.247
122.969
123.794
125.182
128.022
134.247
148.424
179.044
225.675
116.474
117.649
118.602
119.531
120.78
123.21
129.029
144.387
183.509
254.531
121.478
123.296
124.937
126.322
127.643
129.562
134.138
148.24
191.469
286.829
126.179
128.444
130.637
132.725
134.703
137.062
141.632
155.529
202.886
324.021
130.909
133.726
136.731
139.697
142.663
145.946
150.967
164.373
213.14
357.303
149.639
152.997
156.437
160
163.493
167.097
171.801
182.947
227.314
384.131
303.391
306.316
309.301
312.382
315.873
319.649
324.003
332.155
357.31
470.949
4055.52
4049.56
4045.88
4045.21
4047.81
4053.87
4063.53
4076.76
4094.71
4127.7
3407.56
3406.78
3407
3408.59
3411.73
3416.6
3423.59
3433.81
3450.9
3485.76
231.512
231.625
231.857
232.142
232.561
233.379
235.24
239.754
250.65
269.24
116.435
116.85
117.255
117.721
118.537
120.288
124.32
134.081
156.761
194.688
110.054
110.717
111.21
111.638
112.199
113.412
116.715
126.41
153.598
208.577
112.788
113.81
114.645
115.235
115.679
116.329
118.404
126.329
154.149
223.465
115.566
116.856
117.965
118.858
119.512
120.141
121.727
128.52
156.657
239.273
118.659
120.284
121.825
123.126
124.188
125.113
126.579
132.277
159.182
251.894
135.412
137.504
139.37
141.024
142.31
143.247
144.264
148.232
171.43
268.488
280.619
282.643
284.309
285.82
287.412
288.953
290.561
294.905
309.204
382.764
3888.72
3883.97
3881.14
3880.79
3883.1
3888.14
3895.92
3906.02
3919.41
3944.31
3268.07
3267.26
3267.44
3268.88
3271.71
3276.09
3282.29
3291.22
3306.01
3336.3
219.76
219.66
219.777
220.003
220.363
221.012
222.378
225.58
233.387
247.403
113.041
113.269
113.501
113.773
114.258
115.336
117.932
124.565
141.082
171.208
106.243
106.628
106.893
107.098
107.358
107.989
109.928
116.16
135.176
177.488
107.657
108.238
108.675
108.93
109.061
109.267
110.288
115.004
133.454
184.447
109.222
109.971
110.547
110.928
111.1
111.169
111.695
115.299
132.939
191.125
111.188
112.133
112.928
113.49
113.822
113.966
114.285
116.945
132.94
195.615
125.902
127.226
128.251
129.004
129.394
129.415
129.295
130.722
144.016
208.175
260.878
262.339
263.244
263.951
264.65
265.25
265.814
268.398
277.42
328.98
3714.85
3711.1
3708.96
3708.83
3710.83
3714.98
3721.23
3729.09
3739.44
3758.9
3123.2
3122.43
3122.6
3123.9
3126.45
3130.36
3135.85
3143.68
3156.41
3182.44
207.77
207.506
207.52
207.691
208.008
208.552
209.6
211.818
217.211
227.361
110.482
110.603
110.733
110.892
111.18
111.84
113.485
117.877
129.527
152.558
103.89
104.116
104.263
104.362
104.481
104.816
105.973
109.985
123.141
154.997
104.575
104.906
105.135
105.245
105.271
105.33
105.885
108.809
121.185
158.471
105.419
105.857
106.161
106.319
106.326
106.245
106.41
108.476
119.912
161.361
106.648
107.196
107.604
107.837
107.902
107.826
107.826
109.227
119.276
162.812
119.396
120.242
120.812
121.144
121.194
120.961
120.587
121.127
129.335
173.557
242.874
243.977
244.45
244.763
245.067
245.31
245.516
246.955
253.049
291.511
3534.53
3531.57
3529.96
3529.97
3531.67
3535.05
3540.06
3546.37
3554.63
3570.23
2973.24
2972.64
2972.82
2974
2976.29
2979.77
2984.66
2991.52
3002.41
3024.51
195.36
194.994
194.908
195.018
195.292
195.746
196.494
197.961
201.564
208.613
108.353
108.413
108.484
108.576
108.747
109.151
110.181
113.016
120.944
137.794
102.392
102.527
102.61
102.655
102.706
102.883
103.578
106.145
115.1
138.436
102.701
102.887
103.006
103.053
103.047
103.065
103.396
105.261
113.596
140.548
103.141
103.398
103.561
103.623
103.586
103.488
103.54
104.802
112.382
142.027
103.903
104.217
104.424
104.515
104.495
104.388
104.331
105.161
111.732
142.525
114.781
115.323
115.644
115.783
115.726
115.476
115.129
115.363
120.725
152.163
225.629
226.499
226.73
226.861
227.007
227.139
227.253
227.874
232.061
262.196
3348.52
3346.16
3344.95
3345.03
3346.45
3349.2
3353.22
3358.42
3365.16
3377.87
2818.82
2818.45
2818.63
2819.69
2821.74
2824.85
2829.18
2835.14
2844.37
2862.82
182.139
181.75
181.634
181.697
181.896
182.228
182.744
183.693
186.026
190.714
106.463
106.489
106.528
106.582
106.686
106.935
107.58
109.384
114.639
126.524
101.434
101.517
101.565
101.584
101.601
101.692
102.106
103.731
109.743
126.486
101.558
101.661
101.724
101.744
101.735
101.743
101.953
103.156
108.781
128.167
101.795
101.945
102.035
102.059
102.019
101.944
101.964
102.764
107.861
129.235
102.252
102.429
102.533
102.566
102.533
102.449
102.405
102.934
107.336
129.558
111.338
111.684
111.866
111.922
111.851
111.658
111.406
111.537
115.172
138.207
208.42
209.127
209.225
209.28
209.373
209.487
209.605
209.964
212.683
237.008
3157.65
3155.76
3154.83
3154.94
3156.13
3158.37
3161.62
3165.9
3171.48
3181.91
2660.65
2660.61
2660.79
2661.72
2663.54
2666.28
2670.07
2675.2
2682.89
2697.94
168.019
167.639
167.513
167.54
167.674
167.899
168.236
168.816
170.237
173.133
104.735
104.746
104.769
104.805
104.872
105.03
105.435
106.577
110.036
118.323
100.846
100.897
100.927
100.935
100.939
100.984
101.222
102.227
106.218
118.177
100.876
100.933
100.967
100.979
100.976
100.986
101.122
101.887
105.67
119.724
101.026
101.115
101.166
101.178
101.152
101.106
101.12
101.628
105.061
120.72
101.265
101.362
101.416
101.43
101.407
101.358
101.338
101.68
104.637
121.047
108.617
108.832
108.937
108.959
108.906
108.783
108.628
108.73
111.243
128.638
190.698
191.278
191.305
191.331
191.41
191.532
191.674
191.996
193.971
213.81
2962.86
2961.32
2960.6
2960.72
2961.71
2963.54
2966.19
2969.68
2974.23
2982.75
2499.09
2499.88
2500.05
2500.86
2502.44
2504.84
2508.11
2512.46
2518.72
2530.58
152.954
152.61
152.493
152.498
152.578
152.715
152.908
153.203
153.91
155.282
103.171
103.176
103.193
103.222
103.271
103.375
103.627
104.338
106.613
112.489
100.515
100.547
100.567
100.574
100.577
100.601
100.732
101.32
103.894
112.455
100.496
100.526
100.547
100.558
100.564
100.581
100.67
101.136
103.607
113.856
100.624
100.675
100.706
100.716
100.706
100.688
100.708
101.022
103.267
114.804
100.689
100.74
100.769
100.779
100.772
100.754
100.757
100.975
102.896
115.067
106.348
106.477
106.536
106.547
106.518
106.453
106.377
106.471
108.194
121.516
171.985
172.451
172.441
172.456
172.529
172.654
172.807
173.083
174.439
190.074
2765.21
2763.95
2763.38
2763.5
2764.32
2765.84
2768.02
2770.88
2774.56
2781.29
2337.16
2337.26
2337.32
2338
2339.37
2341.43
2344.23
2347.85
2352.81
2361.68
136.895
136.606
136.513
136.507
136.546
136.615
136.7
136.779
136.884
136.701
101.836
101.837
101.853
101.877
101.916
101.987
102.138
102.551
103.965
108.095
100.339
100.357
100.372
100.38
100.388
100.407
100.479
100.787
102.282
108.104
100.301
100.316
100.329
100.34
100.352
100.375
100.438
100.701
102.157
109.219
100.43
100.457
100.477
100.486
100.489
100.493
100.522
100.709
102.034
110.009
100.369
100.394
100.411
100.42
100.423
100.427
100.449
100.587
101.713
110.104
104.371
104.444
104.477
104.485
104.473
104.448
104.427
104.513
105.618
115.282
151.711
152.05
152.025
152.033
152.094
152.202
152.34
152.548
153.327
163.928
2565.95
2564.92
2564.46
2564.56
2565.24
2566.49
2568.3
2570.67
2573.65
2578.72
2173.77
2173.03
2173.01
2173.59
2174.77
2176.54
2178.92
2181.93
2185.79
2192.08
119.531
119.342
119.289
119.284
119.297
119.321
119.341
119.304
119.027
117.406
100.776
100.774
100.785
100.8
100.826
100.869
100.947
101.138
101.812
104.147
100.153
100.161
100.169
100.176
100.185
100.201
100.238
100.364
100.994
103.988
100.102
100.107
100.113
100.12
100.13
100.149
100.19
100.312
100.949
104.636
100.211
100.222
100.231
100.238
100.245
100.257
100.286
100.385
100.973
105.126
100.13
100.138
100.145
100.151
100.158
100.17
100.197
100.279
100.783
105.088
102.42
102.453
102.47
102.478
102.478
102.476
102.486
102.558
103.121
108.544
128.732
128.902
128.875
128.876
128.914
128.984
129.076
129.198
129.496
134.215
2366.1
2365.24
2364.85
2364.94
2365.5
2366.52
2368.01
2369.96
2372.4
2375.96
8605.41
8882.4
8636.93
7766.41
2.44325e+06
2.21024e+06
2.08447e+06
2.00705e+06
5.33037e+06
4.86935e+06
4.50627e+06
4.15617e+06
7.81582e+06
7.19858e+06
6.61266e+06
6.08711e+06
1.01214e+07
9.26351e+06
8.39841e+06
7.71267e+06
1.23959e+07
1.13692e+07
1.03384e+07
9.5898e+06
1.42473e+07
1.31952e+07
1.21632e+07
1.15156e+07
1.46359e+07
1.36845e+07
1.27781e+07
1.22979e+07
1.02995e+07
9.61129e+06
8.95892e+06
8.59247e+06
11496.9
11642.8
11516.5
11349.9
6459.43
6750.59
6856.31
6751.86
1.47694e+06
1.08405e+06
1.01493e+06
1.02858e+06
2.7083e+06
2.14031e+06
1.95378e+06
1.8075e+06
3.81866e+06
3.15447e+06
2.79294e+06
2.44229e+06
4.88766e+06
4.02751e+06
3.33379e+06
2.74334e+06
5.80864e+06
4.812e+06
3.88364e+06
3.03813e+06
6.45584e+06
5.42423e+06
4.37516e+06
3.38289e+06
6.54647e+06
5.57322e+06
4.51958e+06
3.48864e+06
5.09553e+06
4.31809e+06
3.46301e+06
2.6087e+06
11443.7
11304.6
10867.6
10274.7
5458.87
5589.07
5608.89
5523.88
155940
142129
122463
97971
360692
326808
275907
210912
610864
552202
459295
338112
928440
837723
686610
492644
1.30164e+06
1.17008e+06
949738
676139
1.6653e+06
1.49746e+06
1.21838e+06
877693
1.88786e+06
1.69797e+06
1.38815e+06
1.01123e+06
1.55543e+06
1.38031e+06
1.11557e+06
791000
8270.05
8215.96
8014.12
7710.28
5115.89
5173.65
5171.13
5115.35
17627.8
15580.4
13332.8
11313.2
46197.6
40412.8
33107.2
26076.4
86901.8
75399.8
60299.5
45355
146162
126373
99858.4
73728.6
230716
200280
158966
118291
330528
288845
231925
175322
410390
360050
292178
223605
339535
292245
235740
177550
6660.6
6619.37
6528.01
6403.97
4888.95
4926.48
4919.43
4872.26
3210.9
2818.46
2461.21
2253.12
8406.15
7255.16
6008.22
5045.59
16413.6
14126.9
11460.8
9239.53
28759.9
24940.3
20208.6
16072.5
48013.8
42248.6
34699.6
27806.3
72888.4
64975.6
54184.8
43904.2
95156.9
85544.3
72238.6
59023.8
78549.1
69806.1
59094.5
47817.1
5836.31
5809.67
5757.88
5690.21
4707.47
4739.07
4732.9
4691.45
1040.48
914.043
821.64
793.99
2237.73
1896.05
1585.99
1396.17
4310.74
3654.69
2996.25
2531.25
7510.61
6454.17
5298.88
4410.74
12578.6
11041.4
9214.8
7710.01
19215.1
17171
14568.1
12293.5
25217.9
22805.1
19596.9
16654.7
20251.8
18158.9
15674
13297.1
5318.09
5297.76
5263.12
5223.06
4550.61
4580.77
4576.58
4539.36
588.762
532.022
494.846
490.368
866.938
733.869
625.428
570.509
1532.96
1288.13
1065.71
926.441
2531.7
2149.44
1769.26
1503.25
4074.18
3532.23
2945.46
2501.8
6029.6
5327.77
4509.13
3852.11
7717.21
6913.11
5920.26
5091.69
6091.21
5434.39
4683.48
4067.27
4955.24
4942.49
4920.15
4896.53
4403.24
4432.42
4429.72
4395.83
453.329
421.75
402.801
403.489
470.636
405.759
357.636
338.92
720.616
609.028
515.185
463.459
1079.61
912.43
757.536
657.812
1608.06
1377.17
1145.32
982.288
2239.86
1946.4
1631.19
1396.41
2751.95
2421.16
2045.49
1757.9
2271.65
2008.49
1722.06
1520.72
4681.13
4674.79
4661.46
4648.07
4255.96
4283.77
4282.06
4251.16
393.661
374.068
363.576
366.138
326.816
289.793
265.303
259.915
432.777
373.931
328.248
307.546
577.783
494.549
421.789
379.192
777.98
667.58
562.4
492.911
1000.25
863.645
724.787
626.785
1176.16
1024.51
861.666
743.736
1107.2
984.138
854.528
772.288
4457.29
4455.24
4447.89
4440.53
4105.09
4131.09
4130.03
4102.04
356.869
343.981
338.059
341.334
261.188
238.009
224.741
225.038
310.889
276.649
252.518
244.89
376.025
330.465
292.93
273.718
459.25
401.682
348.955
316.341
543.972
475.106
407.321
361.425
616.359
541.138
462.571
407.422
687.437
622.736
556.399
517.075
4258.42
4258.69
4254.92
4250.97
3949.25
3973.09
3972.45
3947.36
328.363
319.631
316.303
319.624
223.325
208.108
200.795
203.449
248.38
227.294
214.118
212.448
280.484
253.977
233.655
225.242
318.224
286.296
258.18
242.176
352.961
316.031
280.477
257.335
389.893
350.17
309.163
280.877
502.701
465.558
429.104
409.117
4069.48
4070.71
4069.01
4067.07
3788.01
3809.42
3809.05
3786.86
303.434
297.476
295.632
298.579
196.668
186.486
182.489
185.83
209.672
196.292
189.088
190.079
226.675
210.689
199.546
196.456
245.114
226.694
211.314
203.591
260.16
239.464
220.116
208.184
283.207
261.263
238.91
223.771
404.468
381.571
360.917
351.211
3883.36
3884.77
3884.24
3883.51
3621.36
3640.19
3639.98
3620.71
280.448
276.438
275.432
277.791
175.31
168.488
166.361
169.554
181.868
173.226
169.365
171.383
191.376
181.484
175.447
175.019
200.958
190.014
181.621
178.299
207.662
195.654
185.058
179.169
224.469
211.94
199.617
191.617
343.528
328.417
316.629
312.84
3697.02
3698.22
3698.29
3698.25
3449.43
3465.61
3465.5
3449.08
258.822
256.208
255.666
257.385
157.21
152.65
151.564
154.273
160.116
154.402
152.403
154.682
165.712
159.366
156.188
157.082
170.995
164.215
159.732
158.849
174.024
166.719
161.002
158.574
187.594
180.129
173.414
169.563
300.888
290.153
283.431
283.104
3509.07
3509.91
3510.22
3510.53
3272.65
3286.18
3286.13
3272.48
238.278
236.649
236.36
237.504
141.898
138.796
138.271
140.474
142.703
138.723
137.731
139.991
146.216
141.842
140.231
141.806
149.343
144.773
142.454
142.993
150.793
145.933
142.928
142.576
162.305
157.448
153.871
152.558
268.048
259.801
255.949
257.62
3318.85
3319.31
3319.65
3320.09
3091.41
3102.35
3102.32
3091.34
218.498
217.519
217.365
218.082
129.477
127.222
126.984
128.826
129.137
126.085
125.613
127.825
131.526
128.137
127.348
129.327
133.545
130.01
128.843
130.284
134.41
130.687
129.143
130.094
144.202
140.512
138.639
138.973
240.63
233.815
231.56
234.357
3126.14
3126.28
3126.55
3126.98
2906.3
2914.72
2914.71
2906.26
198.949
198.314
198.233
198.73
120.016
118.178
118.078
119.736
119.182
116.562
116.341
118.549
120.933
117.952
117.57
119.834
122.356
119.197
118.611
120.666
123.075
119.784
118.987
120.779
131.121
127.776
126.783
128.258
216.043
210.111
208.736
212.129
2931.09
2930.97
2931.12
2931.52
2718.07
2724.12
2724.11
2718.05
178.826
178.197
178.155
178.711
113.196
111.529
111.488
113.077
112.313
109.898
109.789
111.99
113.649
110.833
110.638
113.071
114.717
111.668
111.356
113.793
115.392
112.25
111.816
114.107
121.629
118.258
117.694
119.966
191.8
186.607
185.762
189.386
2734.24
2733.95
2734
2734.36
2527.69
2531.56
2531.56
2527.69
157.034
156.042
156.02
156.972
108.258
106.718
106.7
108.203
107.529
105.365
105.304
107.347
108.532
105.965
105.853
108.199
109.328
106.506
106.321
108.78
109.851
106.962
106.7
109.08
114.379
111.076
110.718
113.332
165.328
161.206
160.684
163.87
2536.67
2536.29
2536.28
2536.62
2336.01
2338.09
2338.09
2336
131.858
130.421
130.41
131.826
104.219
103.101
103.089
104.185
103.599
102.121
102.083
103.488
104.218
102.446
102.374
104.012
104.698
102.732
102.611
104.356
104.939
102.932
102.762
104.462
107.798
105.326
105.08
107.114
134.675
132.435
132.127
133.863
2339.33
2339.01
2338.99
2339.25
6427.71
5649.05
5170.87
4917.6
4790.61
4719.33
4671.9
4636.32
4610.88
4596.03
1.40261e+06
353080
75675.9
27688.8
14186.2
8877.54
6454.49
5286.75
4790.39
4825.35
1.86592e+06
252429
68190.4
27620.3
15146.7
10080.9
7712.1
6554.11
6074.15
6242.47
1.71018e+06
242210
65644
26671
14330.1
9263.74
6885.71
5713.78
5183.96
5298.89
1.70553e+06
277785
71672
27615.2
13914.8
8522.72
6067.48
4877.36
4303.81
4349.76
1.95759e+06
341948
80985
29173.1
13680.8
7909.74
5355.66
4132.73
3517.75
3475.82
2.27634e+06
400759
85483
28693.4
12605.2
6954.13
4524
3378.15
2786.68
2690.48
2.41554e+06
407499
76512.5
23806.8
9827.96
5221.77
3303.25
2423.27
1972.17
1869.72
1.8373e+06
258717
38654.5
10952.1
4468.77
2536.24
1748.96
1389.95
1208.57
1154.36
11229.3
7106.28
6100.32
5792.42
5621.31
5520.25
5456.09
5411.76
5381.82
5365.54
5913.88
5345.94
5001.46
4794.12
4675.39
4605.4
4560.01
4529.11
4508.92
4498.13
466547
140560
45835.8
18144.3
9159.2
5662.17
4067.39
3286
2924.34
2856.96
648235
154899
46622.5
18665.4
10009
6565.83
4962.38
4169.21
3804.29
3809.19
733154
153880
45553.8
18455.9
9815.19
6290.63
4636.52
3817.78
3417.52
3403.08
888308
178248
50928.5
19803.3
9948.75
6051.5
4275.46
3415.75
2973.14
2917.01
1.14932e+06
225544
59853.1
21870.6
10249.8
5882.22
3950.52
3029.07
2539.85
2427.35
1.44113e+06
273643
65907.7
22407.2
9825.59
5377.6
3472.98
2581.75
2099.49
1956.48
1.62602e+06
289406
61720.2
19328.9
7943.02
4188.5
2636.36
1930.95
1555.18
1428.73
1.29879e+06
191784
33247.3
9370.73
3826.72
2184.67
1515.43
1207.37
1046.83
986.261
9646.54
6696.63
5893.46
5625.24
5479.12
5392.76
5337.2
5296.97
5268.45
5249.09
5117.37
4894.21
4730.49
4611.96
4529.66
4478.75
4445.91
4424.46
4411.47
4405.31
48992
22050.3
10953.9
6115.93
3859.31
2711.87
2100.94
1781.23
1635.02
1617.34
84212.5
31575.8
14477.6
7743.78
4839.62
3426.67
2695.75
2318.61
2146.86
2156.35
118312
38519.2
16824.4
8621.6
5172.31
3530.51
2696.76
2271.34
2063.84
2060.13
173005
51686.7
20707.8
9906.41
5557.61
3591.87
2630.89
2152.89
1904.34
1871.08
264936
73211.1
26003.3
11560.8
6028.59
3672.3
2555.8
2006.91
1710.12
1635.63
381598
95788.8
29755.3
12311.5
6010.74
3497.06
2343.58
1787.44
1480.13
1381.79
475898
105856
28240.8
10903.7
5015.93
2827.03
1854.55
1399.15
1152.92
1066.75
380150
66933.6
14368.3
5394.25
2594.38
1635.52
1199.93
988.174
876.928
836.797
7425.1
6100.41
5634.79
5453.23
5343.58
5277.09
5231.95
5197.36
5170.47
5150.64
4743.56
4613.6
4515.13
4441.43
4388.69
4355.46
4335.21
4322.74
4316.02
4313.68
8183.75
5163.51
3298.73
2219.64
1609.61
1261.14
1064.9
962.781
922.222
929.815
15665.6
8537.81
4955.84
3107.48
2150.9
1631.9
1346.37
1197.23
1134.87
1151.62
24278.1
11823.7
6385.38
3783.76
2492
1813.73
1449.7
1261.56
1174.78
1185.71
38650.6
17051.3
8340.79
4601.75
2834.87
1957.23
1504.43
1275.95
1160.52
1154.28
64414
25388.1
10984.4
5647.25
3237.59
2108.74
1541.73
1256.11
1102.55
1068.84
99592.1
34283.2
12947.1
6244.42
3362.1
2097.53
1480.31
1174.49
1004.91
953.016
131626
38524.3
12502.7
5723.83
2923.41
1779.34
1236.22
974.316
832.576
785.312
106305
23533.3
6426.19
3087.96
1731.66
1209.04
944.469
807.892
735.454
711.652
6333.41
5655.71
5388.59
5266.49
5189.63
5140.42
5105.08
5076.73
5053.29
5035
4489.32
4397.58
4334.31
4289.84
4259.5
4240.31
4229.14
4222.72
4219.96
4219.91
2005.19
1547.01
1162.36
908.621
751.128
655.765
602.562
578.098
574.026
586.822
3902.87
2642.36
1762
1239.55
938.298
763.337
664.022
613.73
597.182
611.904
6454.41
3972.26
2445.3
1614.96
1156.47
899.57
757.366
685.187
656.438
670.521
10654.5
5990.99
3347.37
2057.6
1381.45
1023.24
832.496
737.422
693.328
699.664
18312.2
9216.57
4608.98
2643.55
1654.72
1158.15
898.191
766.003
697.177
687.536
29034.4
12676.9
5608.49
3033.84
1790.06
1204.05
904.145
753.044
670.314
648.404
39284.2
14399.7
5582.57
2903.38
1639.86
1084.94
806.632
669.351
595.938
574.312
31858.7
8733.99
3137.85
1829.4
1187.07
909.962
753.897
668.044
621.544
608.086
5681.51
5314.69
5168.09
5089.5
5038.01
5001.96
4974.34
4951.35
4931.43
4914.96
4307.21
4234.96
4190.03
4160.78
4141.97
4130.75
4124.45
4121.2
4120.51
4121.66
755.061
659.783
561.228
492.824
448.899
422.088
409.123
406.214
410.781
421.809
1217.43
937.522
695.103
538.283
442.519
385.438
353.619
339.506
338.15
348.432
2008.69
1424.59
976.465
708.424
550.842
459.627
409.458
386.08
380.303
392.137
3293.9
2154.6
1355.47
918.416
673.735
539.131
467.477
434.123
422.005
431.475
5631.37
3349.25
1918.35
1214.28
833.514
632.288
524.595
470.696
444.779
446.117
8890.39
4640.54
2397.57
1435.77
933.966
683.425
550.796
483.924
448.575
442.584
12004.3
5317.81
2484.46
1445.42
911.333
660.858
529.207
463.34
429.131
421.885
9662.01
3401.3
1674.95
1148.92
852.777
706.75
615.451
561.664
531.241
523.618
5248
5050.24
4971.24
4922
4887.47
4860.67
4838.94
4820.4
4803.95
4789.53
4162.34
4100.58
4064.89
4042.85
4029.2
4021.4
4017.43
4015.66
4015.92
4017.63
459.999
420.266
380.44
354.338
338.285
328.96
325.658
327.101
332.082
340.176
524.472
427.399
340.079
283.612
249.606
230.067
220.274
217.502
219.76
226.288
779.58
592.28
441.063
347.877
292.865
261.696
245.914
240.459
241.981
250.455
1179.65
841.986
586.701
437.174
351.891
305.351
282.193
273.777
273.614
282.101
1901.74
1269.25
821.26
574.487
436.118
361.27
321.679
303.303
296.357
301.248
2881.14
1734.7
1034.45
687.501
498.483
400.153
347.392
321.658
309.275
310.242
3795.74
2006.8
1122.02
732.335
521.423
416.325
359.004
330.41
316.574
316.238
3164.19
1521.68
999.237
783.059
647.351
569.392
515.692
481.663
461.113
456.226
4941.25
4833.76
4790.53
4759.4
4735.47
4715.18
4698.04
4683.26
4670.13
4657.96
4030.49
3975.44
3945.1
3926.87
3915.68
3909.26
3906.15
3904.98
3905.61
3907.51
369.779
340.357
315.343
300.583
292.145
287.571
286.194
287.717
291.432
297.086
320.928
263.669
217.192
189.661
174.341
166.366
163.172
163.307
165.67
169.688
406.486
313.38
245.836
207.244
186.106
175.364
171.172
171.246
174.164
179.809
532.831
393.178
296.475
241.528
211.876
197.216
191.612
191.67
194.783
201.186
759.132
541.748
388.985
301.72
253.536
228.23
215.993
211.754
211.899
216.977
1051.08
704.645
477.868
355.591
288.655
253.507
235.174
227.336
224.725
227.907
1320.36
821.406
541.509
400.104
321.711
280.666
257.869
247.013
242.751
245.074
1267.24
836.002
672.729
581.54
518.206
475.523
443.425
421.475
407.141
403.094
4704.44
4643.39
4617.9
4597.34
4580.06
4564.53
4551.06
4539.44
4529.31
4519.58
3899.74
3850.18
3823.82
3808.16
3798.44
3792.68
3789.76
3788.77
3789.44
3791.32
330.239
304.181
284.874
274.439
268.789
265.807
264.761
265.637
268.105
272.023
249.915
203.35
169.896
152.07
143.038
138.823
137.538
138.157
139.91
142.376
279.124
212.616
171.438
151.031
141.296
137.276
136.573
137.86
140.406
144.052
317.985
233.73
185.963
162.449
151.607
147.605
147.477
149.631
152.894
157.355