/*--------------------------------*- C++ -*----------------------------------*\
| =========                 |                                                 |
| \\      /  F ield         | foam-extend: Open Source CFD                    |
|  \\    /   O peration     | Version:     4.0                                |
|   \\  /    A nd           | Web:         http://www.foam-extend.org         |
|    \\/     M anipulation  |                                                 |
\*---------------------------------------------------------------------------*/
FoamFile
{
    version     2.0;
    format      ascii;
    class       volScalarField;
    location    "200";
    object      k;
}
// * * * * * * * * * * * * * * * * * * * * * * * * * * * * * * * * * * * * * //

dimensions      [0 2 -2 0 0 0 0];

internalField   nonuniform List<scalar> 
34480
(
8.41094
8.40982
8.41341
8.42091
8.44217
8.50265
8.65371
8.97571
9.54678
10.491
30.166
32.2068
34.9799
38.3884
42.7654
49.902
64.8788
97.9284
153.684
210.843
55.0443
58.5122
62.3909
66.6841
71.7957
79.8289
97.8595
143.791
235.128
341.516
56.2913
60.5934
65.4292
70.8905
77.4227
87.1161
107.818
162.238
281.254
433.29
53.1281
57.9434
63.5485
70.0331
77.7935
88.8523
111.717
173.676
319.16
516.094
47.9204
52.6496
58.4039
65.3587
73.8757
85.9687
110.838
180.255
351.619
592.659
41.3902
45.7682
51.3735
58.466
67.4175
80.0851
105.752
179.215
369.425
647.745
31.1351
34.6709
39.3996
45.7286
54.0477
65.9726
89.9584
160.754
354.444
653.091
13.6909
15.1041
17.1613
20.2794
25.0758
32.9212
49.2084
99.1813
248.375
504.866
8.85957
8.86095
8.88149
8.92751
9.00973
9.13023
9.31344
9.72281
10.6313
11.8497
8.29344
8.29763
8.31193
8.33538
8.3691
8.41747
8.49968
8.65619
8.94522
9.47193
22.0462
23.5851
26.02
29.3667
33.563
38.5759
45.0693
59.7822
98.1067
177.847
41.7544
44.725
48.3769
52.7913
58.1385
64.7954
73.7657
94.6561
158.344
305.128
43.8479
47.591
52.1179
57.5795
64.2266
72.4458
83.6265
109.311
193.865
401.739
42.2433
46.4437
51.6752
58.075
65.8711
75.3254
87.9381
117.524
223.029
496.859
38.8389
42.9802
48.3652
55.2174
63.7288
74.0192
87.6498
121.172
248.25
587.558
34.1902
38.0095
43.2299
50.1643
59.0327
69.7886
83.771
119.25
262.41
654.459
26.2487
29.2442
33.5479
39.6403
47.7996
57.8798
70.6897
104.119
250.239
666.271
12.0642
13.1128
14.7561
17.4347
21.7848
28.158
36.541
58.2068
165.93
508.459
8.71845
8.71126
8.7194
8.75075
8.82115
8.92941
9.05089
9.26574
9.98611
11.7792
8.17981
8.18291
8.19324
8.21258
8.24347
8.28805
8.35132
8.44645
8.59628
8.82912
15.581
16.5459
18.1165
20.3302
23.2224
26.902
31.6677
38.8999
51.5063
69.9605
30.2097
32.433
35.2847
38.7687
42.9029
47.9503
54.5947
65.7992
89.6762
131.021
32.8395
35.7467
39.4005
43.9019
49.316
55.7648
64.1676
78.796
114.479
185.531
32.5439
35.8713
40.1812
45.591
52.1673
59.8295
69.4993
86.8536
134.998
242.663
30.663
33.9938
38.5105
44.4341
51.8306
60.4483
71.1294
91.2807
153.72
305.317
27.6546
30.7542
35.1862
41.2691
49.1363
58.3904
69.5921
91.4098
166.315
361.333
21.8197
24.2175
27.8396
33.1744
40.4757
49.344
59.9083
80.8838
160.957
385.458
10.7181
11.5019
12.7769
14.9029
18.463
23.8252
31.0007
44.7992
103.254
290.741
8.6054
8.59365
8.59326
8.61071
8.6588
8.74148
8.84759
9.00008
9.42611
10.5921
8.06659
8.06869
8.07508
8.08813
8.11058
8.14503
8.19455
8.26446
8.36572
8.51841
11.0807
11.5906
12.4184
13.6326
15.3312
17.6207
20.663
24.8252
30.605
37.0985
21.0926
22.5499
24.4558
26.8128
29.6588
33.2464
38.0383
45.1371
56.4238
71.1357
23.7785
25.7878
28.3561
31.5433
35.3869
40.0776
46.3104
55.8975
73.2156
100.519
24.3517
26.7276
29.8621
33.8302
38.643
44.2967
51.5997
63.1335
86.8686
131.19
23.6112
26.0427
29.4147
33.8987
39.5002
46.017
54.2516
67.7222
99.0396
165.568
21.915
24.2181
27.5995
32.3168
38.4442
45.6183
54.415
69.0456
107.3
197.89
17.9074
19.6837
22.4425
26.5892
32.3428
39.3566
47.8523
62.0192
103.617
212.919
9.55274
10.1159
11.0445
12.5735
15.1313
19.0736
24.7795
34.1886
63.8632
154.829
8.47576
8.46266
8.45816
8.46696
8.49757
8.55547
8.64424
8.76957
9.03239
9.75569
7.94913
7.95043
7.95396
7.96159
7.97521
7.99701
8.02991
8.0785
8.15122
8.26561
8.32547
8.56486
8.93418
9.48605
10.2994
11.4564
13.0628
15.2617
18.0479
20.6288
14.6404
15.5082
16.6436
18.0605
19.8188
22.1152
25.2648
29.7895
35.9578
41.9698
16.9802
18.2496
19.8741
21.8916
24.3452
27.4506
31.7154
38.1139
47.8838
59.7166
17.9533
19.5129
21.5812
24.1901
27.343
31.1485
36.2432
44.0832
57.5239
77.6428
17.9295
19.5652
21.8561
24.9097
28.7079
33.2059
39.0913
48.3479
66.0084
97.4205
17.1607
18.7483
21.1093
24.4136
28.6993
33.7708
40.1865
50.2801
71.6526
115.759
14.61
15.8457
17.7814
20.7006
24.769
29.8035
36.1118
45.9134
68.9137
123.456
8.56261
8.95465
9.59993
10.6264
12.2944
14.8756
18.8474
25.1977
40.8128
85.0648
8.34059
8.32711
8.32018
8.32313
8.34086
8.37789
8.44204
8.5403
8.72124
9.18074
7.82482
7.82571
7.82775
7.83234
7.84063
7.85408
7.87496
7.90738
7.95984
8.05092
6.78698
6.89598
7.04852
7.27701
7.62574
8.1435
8.89893
9.98954
11.4249
12.7141
10.4745
10.9606
11.5885
12.3823
13.4037
14.7808
16.722
19.5443
23.2848
26.4467
12.2721
13.0257
13.9797
15.1701
16.6429
18.5702
21.2924
25.4276
31.4708
37.7445
13.2919
14.2547
15.5239
17.1148
19.0438
21.4392
24.7346
29.8641
38.1495
48.8739
13.6234
14.6582
16.105
18.0276
20.4206
23.3258
27.2235
33.355
44.12
60.9248
13.4231
14.4582
15.9969
18.1371
20.9108
24.2621
28.5988
35.3279
48.0998
71.7165
11.9428
12.7665
14.0436
15.9483
18.5957
21.9461
26.2596
32.7963
46.1782
75.3349
7.73854
8.00576
8.44024
9.09877
10.1183
11.6673
14.1067
18.0418
26.3755
48.6266
8.19862
8.18561
8.17773
8.17741
8.18728
8.21039
8.25305
8.3234
8.45106
8.73998
7.69199
7.69265
7.69393
7.69695
7.70248
7.7115
7.72572
7.74862
7.78824
7.86322
5.97112
6.02213
6.08539
6.18129
6.33412
6.57282
6.94246
7.51924
8.35336
9.17637
7.99026
8.24881
8.57321
8.98843
9.54688
10.335
11.4988
13.2707
15.7183
17.8082
9.23724
9.66115
10.1824
10.8351
11.6634
12.7885
14.4408
17.064
21.0249
25.0281
10.1106
10.6755
11.4027
12.3034
13.402
14.8046
16.7937
20.0231
25.379
31.9934
10.5504
11.1736
12.0273
13.1497
14.5493
16.2905
18.6779
22.5439
29.3875
39.4595
10.6403
11.2871
12.2296
13.5166
15.1799
17.2311
19.9285
24.1719
32.1019
45.9208
9.88233
10.416
11.2157
12.3746
13.9639
16.0112
18.6992
22.7872
30.8028
47.4457
7.07264
7.25163
7.53595
7.94152
8.53174
9.39001
10.7188
12.8849
17.25
28.7253
8.04866
8.03673
8.02894
8.02715
8.03283
8.04785
8.07598
8.12353
8.2098
8.38928
7.55012
7.55061
7.55149
7.55368
7.55774
7.5644
7.57499
7.59248
7.62427
7.68846
5.55036
5.57591
5.60477
5.65079
5.72907
5.85919
6.07378
6.43419
7.00652
7.64228
6.6043
6.73892
6.90041
7.10835
7.40318
7.84701
8.54794
9.69146
11.3949
13.0007
7.39781
7.62699
7.8934
8.22465
8.65927
9.28059
10.251
11.9059
14.6025
17.5215
8.05613
8.375
8.76587
9.23631
9.81132
10.5705
11.7008
13.6732
17.2174
21.7957
8.46487
8.827
9.30054
9.90649
10.6576
11.6152
12.971
15.295
19.7118
26.3665
8.66048
9.05298
9.59977
10.3193
11.2366
12.3856
13.9264
16.4464
21.4279
30.2102
8.34986
8.69005
9.17026
9.83243
10.7108
11.8465
13.3625
15.7337
20.5616
30.7114
6.54802
6.66611
6.84761
7.08874
7.41525
7.86008
8.51363
9.56898
11.752
17.8665
7.88954
7.87909
7.87204
7.86991
7.87363
7.88431
7.90397
7.93629
7.99241
8.10388
7.39905
7.39939
7.40003
7.40174
7.40495
7.4102
7.41855
7.43255
7.45892
7.51527
5.33544
5.34926
5.36461
5.39142
5.44
5.52468
5.67066
5.92846
6.36586
6.90256
5.86092
5.93294
6.0153
6.12151
6.28083
6.53899
6.97869
7.75262
9.00747
10.3438
6.33099
6.45386
6.58532
6.74457
6.96035
7.2905
7.8532
8.90732
10.8023
13.1009
6.78395
6.96131
7.16237
7.39028
7.66511
8.04233
8.65058
9.83278
12.2121
15.6173
7.1044
7.3115
7.56244
7.8662
8.23236
8.7079
9.41886
10.7588
13.6153
18.309
7.30397
7.5386
7.84319
8.21924
8.68119
9.26113
10.0622
11.4728
14.5898
20.5155
7.24655
7.46224
7.7422
8.101
8.5482
9.11354
9.87663
11.1436
14.023
20.5493
6.14466
6.22146
6.33477
6.47351
6.64697
6.86468
7.16054
7.62448
8.67605
12.0919
7.7203
7.7115
7.70553
7.70365
7.70652
7.71481
7.72954
7.75241
7.78887
7.8601
7.23866
7.23886
7.23935
7.24074
7.24339
7.24771
7.25452
7.26599
7.28819
7.33805
5.22431
5.23227
5.24176
5.26005
5.29448
5.35577
5.46379
5.66032
6.01011
6.47482
5.46463
5.50529
5.55047
5.60909
5.70171
5.86206
6.15417
6.70523
7.67378
8.83252
5.72322
5.79063
5.85633
5.93255
6.03864
6.21433
6.5461
7.23553
8.61156
10.5041
6.01486
6.11441
6.21673
6.3222
6.44423
6.61856
6.93447
7.64263
9.26976
11.918
6.24042
6.35932
6.48965
6.63383
6.79675
7.00834
7.35218
8.10178
9.95788
13.4147
6.40152
6.54145
6.70723
6.89359
7.10672
7.36723
7.7414
8.48906
10.4314
14.6019
6.47403
6.6111
6.77154
6.95817
7.16902
7.41883
7.75483
8.37544
10.0761
14.4572
5.84152
5.89069
5.95998
6.03721
6.12564
6.22607
6.34971
6.53799
7.05093
9.1114
7.54021
7.53307
7.52827
7.52687
7.52932
7.53605
7.54751
7.56412
7.58842
7.63649
7.06876
7.06884
7.06923
7.07041
7.07265
7.07627
7.08193
7.09144
7.11024
7.15421
5.16378
5.16856
5.17501
5.18847
5.21426
5.26042
5.34261
5.49507
5.77777
6.17936
5.24951
5.27354
5.30025
5.33542
5.39331
5.49863
5.70077
6.10528
6.87065
7.88779
5.37549
5.41371
5.448
5.48591
5.53999
5.63718
5.8402
6.30539
7.33066
8.92133
5.5537
5.6106
5.66351
5.71186
5.76385
5.84167
6.00618
6.43933
7.57664
9.68844
5.70048
5.7697
5.83749
5.90392
5.9711
6.0559
6.21233
6.62919
7.85211
10.4715
5.81476
5.89847
5.98784
6.0769
6.16783
6.2713
6.42799
6.81035
8.02853
11.0545
5.94605
6.03362
6.12486
6.21894
6.31095
6.40646
6.53153
6.81256
7.82229
10.8738
5.61822
5.6491
5.69057
5.73202
5.77494
5.81771
5.86386
5.93472
6.20293
7.55991
7.34881
7.34321
7.33952
7.33859
7.34075
7.34623
7.35519
7.36721
7.38398
7.41826
6.88913
6.88916
6.88948
6.89049
6.8924
6.89547
6.9002
6.9081
6.92401
6.9625
5.12657
5.12951
5.13407
5.14415
5.16361
5.19848
5.26099
5.37904
5.60605
5.94824
5.12843
5.14297
5.15947
5.18168
5.21934
5.29025
5.43187
5.72984
6.33357
7.21695
5.173
5.19522
5.21396
5.23379
5.26282
5.31919
5.44775
5.76782
6.53861
7.87413
5.27692
5.30985
5.33783
5.36025
5.38211
5.41719
5.50639
5.77984
6.58746
8.28209
5.36639
5.40716
5.44283
5.47301
5.49867
5.52915
5.59878
5.83632
6.6574
8.67035
5.44052
5.49063
5.53856
5.57996
5.61573
5.65107
5.71054
5.90703
6.68572
8.92445
5.59281
5.64899
5.70075
5.74683
5.78303
5.81109
5.84566
5.96697
6.58274
8.77189
5.4561
5.47497
5.4992
5.52052
5.54002
5.55594
5.56955
5.59423
5.751
6.7159
7.14588
7.14163
7.1389
7.13835
7.14022
7.1446
7.15149
7.16017
7.1721
7.19768
6.69962
6.69964
6.69993
6.70081
6.70244
6.70503
6.70897
6.71552
6.72892
6.76225
5.09871
5.10054
5.10378
5.11124
5.12572
5.15177
5.19891
5.28951
5.46952
5.75573
5.05621
5.06503
5.07533
5.08956
5.11421
5.16189
5.26014
5.47588
5.94169
6.68741
5.05185
5.06497
5.07552
5.08626
5.10243
5.13619
5.2191
5.43997
6.01439
7.11467
5.10981
5.12888
5.14386
5.15441
5.16361
5.18022
5.23157
5.40917
5.98496
7.33078
5.16113
5.18526
5.20424
5.21775
5.2264
5.23564
5.26742
5.40881
5.96871
7.515
5.20605
5.23587
5.26133
5.27999
5.2924
5.3014
5.32217
5.42847
5.93873
7.60731
5.36079
5.39684
5.42618
5.44801
5.45958
5.46151
5.46276
5.5154
5.90666
7.50814
5.33896
5.35005
5.36375
5.37416
5.3822
5.38663
5.38808
5.39657
5.50084
6.23131
6.93145
6.9283
6.92635
6.92607
6.92762
6.93102
6.93621
6.94254
6.95125
6.97106
6.50006
6.50018
6.50048
6.50124
6.50261
6.50477
6.50802
6.51343
6.52461
6.5531
5.07294
5.07408
5.07635
5.08174
5.0923
5.11148
5.14673
5.21575
5.35697
5.5925
5.00929
5.01457
5.02092
5.02991
5.04581
5.07734
5.14408
5.2958
5.64259
6.24633
4.97696
4.98476
4.99077
4.99661
5.00567
5.02607
5.07967
5.23055
5.64959
6.52797
5.00798
5.0189
5.0269
5.03187
5.03575
5.04423
5.07555
5.19306
5.60108
6.64692
5.03575
5.05001
5.06017
5.06605
5.06813
5.06981
5.08536
5.17343
5.55857
6.73358
5.06169
5.07918
5.09249
5.10051
5.10369
5.10386
5.1108
5.17306
5.5151
6.75671
5.21045
5.23347
5.25012
5.26001
5.26163
5.25538
5.2472
5.27206
5.5315
6.71674
5.25351
5.25961
5.26699
5.27175
5.27464
5.27489
5.27289
5.27681
5.35446
5.93829
6.70568
6.7034
6.70205
6.70194
6.70317
6.70573
6.70955
6.71428
6.72075
6.73655
6.29042
6.29074
6.29108
6.29172
6.29287
6.29465
6.29735
6.30181
6.31098
6.33492
5.04547
5.04618
5.04773
5.05152
5.05903
5.07293
5.09908
5.1516
5.26226
5.45491
4.97528
4.97839
4.98221
4.98772
4.9977
5.0181
5.06237
5.16571
5.41347
5.87869
4.92935
4.93402
4.93745
4.94052
4.94543
4.95756
4.99179
5.09299
5.39051
6.06595
4.94533
4.95148
4.95569
4.958
4.95962
4.96427
4.98411
5.06233
5.34823
6.14036
4.95969
4.96808
4.97355
4.976
4.9758
4.97518
4.98349
5.04014
5.3058
6.18616
4.97427
4.98434
4.99115
4.99438
4.99434
4.99233
4.99482
5.03399
5.26703
6.18734
5.11353
5.12808
5.13757
5.14181
5.14008
5.13278
5.12396
5.13771
5.31582
6.20135
5.18952
5.1925
5.19613
5.19814
5.19903
5.19835
5.19629
5.1995
5.26145
5.75093
6.46887
6.46725
6.46634
6.46632
6.46725
6.46912
6.47186
6.47542
6.48029
6.49314
6.07114
6.07171
6.07204
6.07257
6.07351
6.07497
6.07716
6.08071
6.08803
6.10765
5.01439
5.01483
5.01588
5.01844
5.02362
5.03346
5.05269
5.09282
5.18047
5.33977
4.94776
4.94959
4.95183
4.95513
4.96121
4.97408
5.0028
5.07128
5.24204
5.58422
4.89897
4.9018
4.90376
4.90527
4.90774
4.91465
4.93587
5.00202
5.20767
5.70951
4.90678
4.91018
4.91239
4.91346
4.91415
4.91683
4.92943
4.98098
5.17869
5.76633
4.91428
4.91919
4.92219
4.92317
4.92244
4.92142
4.92615
4.96286
5.14561
5.79898
4.92221
4.92787
4.9313
4.93253
4.93174
4.92981
4.93095
4.95641
5.11617
5.79901
5.05038
5.05942
5.06486
5.06657
5.06431
5.05842
5.05161
5.06047
5.1854
5.85567
5.13961
5.14072
5.14217
5.14296
5.14333
5.14301
5.14195
5.14539
5.19569
5.62102
6.22134
6.22022
6.21962
6.21965
6.22033
6.22165
6.22356
6.2261
6.22976
6.24032
5.84264
5.84349
5.84378
5.84419
5.84491
5.84604
5.84772
5.85042
5.85598
5.87145
4.97965
4.97993
4.98061
4.98226
4.98563
4.9923
5.00608
5.03654
5.10678
5.24152
4.92366
4.92475
4.92611
4.92809
4.93175
4.93968
4.95782
5.00216
5.11733
5.3622
4.88042
4.88216
4.88331
4.88404
4.88517
4.88885
4.90132
4.94289
5.08137
5.44617
4.88369
4.88555
4.88675
4.88733
4.88772
4.88935
4.89713
4.93004
5.06427
5.49616
4.88828
4.89114
4.89286
4.89332
4.89274
4.892
4.89479
4.91807
5.04216
5.52653
4.89185
4.89494
4.8967
4.89722
4.89661
4.89541
4.89619
4.91251
5.02087
5.53096
5.00761
5.01308
5.01619
5.01689
5.01514
5.01124
5.00688
5.01315
5.10115
5.61702
5.09885
5.09892
5.09914
5.09945
5.0999
5.10029
5.10036
5.10394
5.14372
5.51726
5.96349
5.96274
5.96237
5.96241
5.96289
5.9638
5.96509
5.96679
5.96933
5.97785
5.60543
5.60652
5.60672
5.607
5.60751
5.60831
5.60949
5.61136
5.61525
5.62668
4.94335
4.94358
4.944
4.94495
4.94692
4.95102
4.96014
4.98209
5.03713
5.15177
4.90214
4.90282
4.90373
4.90501
4.90729
4.91208
4.92308
4.9508
5.02724
5.20239
4.8704
4.87147
4.8722
4.87261
4.87316
4.87503
4.88183
4.90624
4.99569
5.25723
4.87106
4.87205
4.87277
4.8732
4.87361
4.87475
4.87942
4.89921
4.98678
5.30165
4.87494
4.87659
4.87763
4.87797
4.87777
4.87754
4.87935
4.89342
4.97445
5.33124
4.87497
4.87659
4.87755
4.87789
4.87771
4.87731
4.87813
4.88816
4.95865
5.33758
4.97637
4.97953
4.98131
4.98165
4.98065
4.97852
4.97632
4.98103
5.04176
5.4408
5.06403
5.06357
5.06315
5.0633
5.06395
5.06493
5.06591
5.06929
5.09825
5.41428
5.69589
5.69542
5.6952
5.69525
5.69558
5.69617
5.69701
5.6981
5.69972
5.70612
5.36135
5.36144
5.36147
5.36163
5.36195
5.36245
5.36317
5.36428
5.3666
5.37409
4.91107
4.91121
4.91137
4.91178
4.91264
4.91463
4.91955
4.93292
4.97099
5.0612
4.88449
4.88486
4.88552
4.88642
4.88792
4.89078
4.89698
4.91287
4.96051
5.08367
4.86592
4.86654
4.86702
4.86737
4.86779
4.86885
4.87227
4.88492
4.93675
5.11372
4.86534
4.86583
4.86628
4.86666
4.86713
4.86809
4.87089
4.88168
4.93306
5.14916
4.86934
4.87024
4.87087
4.8712
4.87134
4.8716
4.87303
4.88096
4.92857
5.17456
4.86664
4.86744
4.86799
4.86829
4.86843
4.86863
4.86964
4.87557
4.91677
5.17812
4.95021
4.95198
4.95299
4.95325
4.95285
4.95198
4.95135
4.95497
4.99391
5.28615
5.03171
5.03098
5.03031
5.03038
5.03109
5.0323
5.0337
5.03647
5.05407
5.28761
5.4194
5.41915
5.41903
5.41908
5.41928
5.41964
5.42013
5.42078
5.42171
5.42584
5.10803
5.10787
5.10784
5.10792
5.10808
5.10833
5.10868
5.10918
5.11018
5.11417
4.88846
4.8886
4.88859
4.88866
4.8888
4.88927
4.89075
4.89561
4.9124
4.96164
4.8711
4.87119
4.87158
4.87212
4.873
4.87452
4.87745
4.88455
4.90732
4.97751
4.86195
4.86223
4.86249
4.86274
4.86308
4.86371
4.86523
4.87019
4.89197
4.98303
4.86052
4.86068
4.86088
4.86113
4.8615
4.86219
4.86372
4.86844
4.89076
5.00389
4.86399
4.86436
4.86466
4.86489
4.86514
4.86559
4.86669
4.87051
4.89142
5.02001
4.86128
4.86155
4.86177
4.86197
4.86221
4.86263
4.86361
4.86677
4.88498
5.01976
4.91824
4.91909
4.91964
4.91988
4.91987
4.91981
4.92013
4.92275
4.94246
5.10892
4.9894
4.9883
4.98763
4.98759
4.98813
4.98914
4.99039
4.99214
4.99899
5.11455
5.13473
5.13461
5.13456
5.13458
5.13468
5.13484
5.13507
5.13536
5.13579
5.13763
12.1307
12.3909
12.1699
11.3495
195.93
183.277
176.411
172.059
329.149
309.441
293.624
278.065
426.852
403.471
380.749
359.762
509.324
479.463
448.429
422.894
584.682
551.254
516.599
490.376
642.925
610.177
577.032
555.238
655.754
626.286
597.323
580.989
520.162
495.992
472.273
458.013
14.8528
14.9552
14.8209
14.6509
10.0744
10.371
10.4776
10.3719
223.517
190.63
180.999
174.959
392.767
343.977
320.036
294.898
534.683
479.406
439.74
395.713
679.985
611.795
544.937
480.622
816.76
738.827
652.923
567.734
921.542
840.608
744.915
648.472
957.517
879.921
783.239
683.632
781.893
717.146
633.758
543.645
14.7996
14.658
14.2511
13.6983
9.02742
9.16885
9.18956
9.09698
80.6312
76.8382
70.8209
64.0071
152.298
143.461
129.394
112.161
221.385
208.22
186.391
157.868
301.178
284.855
254.956
213.964
392.605
372.59
333.733
280.36
478.878
455.69
409.759
346.852
528.967
504.02
454.75
386.913
432.835
409.669
366.73
305.886
11.8962
11.831
11.6205
11.3096
8.64632
8.71058
8.70709
8.64431
36.9709
34.0775
31.6507
30.2528
71.3753
65.1944
58.7848
53.6722
103.386
94.313
83.8822
74.4118
139.784
128.03
113.411
99.316
184.304
170.368
151.818
133.127
229.964
214.321
192.406
169.389
259.437
243.024
219.396
193.505
205.607
191.071
171.684
149.14
10.2897
10.239
10.1358
10.0002
8.38749
8.42998
8.42154
8.36758
19.7648
18.2327
17.0351
16.6055
39.8456
36.3068
32.9601
30.7952
57.4071
52.2848
46.9163
42.8071
76.6942
70.3619
63.1291
56.9946
100.14
93.0213
84.1921
76.0886
124.163
116.562
106.423
96.427
139.13
131.564
120.898
109.63
105.069
98.966
90.8197
81.3341
9.42237
9.38871
9.32776
9.25151
8.17765
8.21397
8.20663
8.15869
11.9892
11.0687
10.4211
10.2891
24.497
22.2105
20.2058
19.0886
35.0507
31.7421
28.5229
26.3382
46.1708
42.1051
37.7999
34.5252
59.3778
54.8534
49.669
45.3808
72.4648
67.7119
61.8555
56.6442
79.6282
75.0164
68.976
63.2434
56.3174
52.8935
48.5645
44.1456
8.85772
8.83216
8.7908
8.74509
7.9943
8.0294
8.02441
7.98096
8.75061
8.20106
7.84071
7.80732
16.4758
14.9793
13.7282
13.0965
23.0061
20.8053
18.7554
17.4525
29.6325
26.9037
24.1349
22.1407
37.3257
34.2579
30.9045
28.2827
44.6304
41.3878
37.598
34.4365
47.8966
44.7668
40.8838
37.4865
31.8003
29.6836
27.0576
24.6935
8.45152
8.43521
8.40835
8.38145
7.82019
7.85453
7.8513
7.81137
7.42597
7.08455
6.87797
6.88606
12.1729
11.1814
10.4082
10.0832
16.193
14.7139
13.4046
12.6416
20.1358
18.2774
16.4683
15.2344
24.6347
22.5081
20.2776
18.6131
28.7244
26.4394
23.889
21.8658
30.0948
27.877
25.2596
23.1077
19.2269
17.8593
16.1929
14.829
8.13787
8.12934
8.11326
8.09832
7.64441
7.67749
7.67543
7.63867
6.80734
6.58455
6.46413
6.49278
9.86535
9.20165
8.73687
8.60923
12.3112
11.3229
10.5092
10.1031
14.6054
13.3575
12.2014
11.4702
17.184
15.7365
14.2769
13.2379
19.4305
17.8512
16.1538
14.8592
19.9236
18.3838
16.6331
15.2502
12.8754
12.0078
10.9572
10.1375
7.87714
7.87379
7.86491
7.85709
7.46243
7.49369
7.49241
7.45875
6.44669
6.29492
6.2246
6.26296
8.58648
8.13522
7.86141
7.8466
10.0966
9.43964
8.94848
8.76408
11.404
10.5822
9.86586
9.46136
12.8342
11.8771
10.9505
10.3273
14.0188
12.9637
11.8653
11.0571
14.1405
13.1107
11.9692
11.0898
9.70097
9.15912
8.50207
7.99704
7.64193
7.64135
7.63675
7.63293
7.2723
7.30129
7.30052
7.26999
6.18805
6.08159
6.0409
6.08172
7.7955
7.48442
7.32538
7.3658
8.77042
8.33438
8.04459
7.98457
9.5178
8.98512
8.55335
8.34716
10.2942
9.67951
9.10934
8.75109
10.8885
10.2098
9.52179
9.03203
10.8785
10.2178
9.49543
8.94523
8.05279
7.71371
7.30432
6.9905
7.41517
7.41573
7.41357
7.41203
7.0731
7.0995
7.09904
7.0717
5.97613
5.90036
5.87719
5.9156
7.22491
7.00988
6.9191
6.97965
7.88565
7.59677
7.42938
7.43182
8.32383
7.98227
7.72822
7.63499
8.74689
8.36096
8.01948
7.82224
9.03176
8.60814
8.18969
7.90138
8.99464
8.58472
8.13972
7.8011
7.12507
6.90775
6.65414
6.46361
7.18839
7.18918
7.18838
7.18816
6.86435
6.8879
6.88764
6.86354
5.79203
5.73802
5.72509
5.75827
6.7557
6.60885
6.55845
6.61953
7.21775
7.02741
6.93333
6.96258
7.48355
7.266
7.1206
7.08888
7.72
7.48098
7.28209
7.18047
7.85013
7.59041
7.34306
7.18029
7.82976
7.58088
7.31389
7.1108
6.55657
6.40984
6.2543
6.14674
6.95765
6.95822
6.95809
6.95861
6.64575
6.66631
6.66617
6.6453
5.63084
5.59267
5.5856
5.6124
6.34167
6.24321
6.21636
6.26906
6.66724
6.54183
6.49092
6.5288
6.83501
6.6954
6.61514
6.61635
6.97307
6.8241
6.71214
6.66791
7.02935
6.86902
6.72755
6.64402
7.04302
6.89152
6.73614
6.62137
6.18443
6.07629
5.98178
5.93132
6.72087
6.72102
6.72117
6.72207
6.4172
6.43469
6.43461
6.41697
5.49249
5.46604
5.46224
5.4826
5.97302
5.90688
5.89335
5.9363
6.19861
6.11315
6.08686
6.12662
6.31001
6.21573
6.17333
6.19348
6.39615
6.29762
6.23709
6.2294
6.42058
6.31519
6.23726
6.20582
6.47106
6.3728
6.2854
6.23044
5.92981
5.84059
5.78319
5.77257
6.47677
6.47648
6.47668
6.47773
6.17861
6.19298
6.19295
6.1785
5.37693
5.35929
5.35727
5.37163
5.6573
5.60974
5.60341
5.63994
5.80717
5.74264
5.72972
5.77121
5.8857
5.81344
5.792
5.82572
5.94416
5.86867
5.83716
5.85562
5.95857
5.87825
5.83677
5.84181
6.03845
5.96317
5.91533
5.90361
5.74931
5.66748
5.63205
5.64972
6.22457
6.22386
6.224
6.22509
5.93006
5.94132
5.9413
5.93
5.28071
5.26991
5.26882
5.27782
5.40513
5.36537
5.36265
5.39751
5.49807
5.44117
5.43501
5.48041
5.55612
5.49053
5.47995
5.52562
5.59898
5.5291
5.51294
5.55217
5.61358
5.54008
5.51823
5.55016
5.70893
5.63702
5.61083
5.63278
5.61289
5.5326
5.50995
5.54792
5.96377
5.96274
5.96277
5.96388
5.67177
5.67998
5.67997
5.67174
5.19532
5.18968
5.18907
5.19364
5.218
5.17948
5.17838
5.21479
5.26976
5.21378
5.21076
5.26076
5.3132
5.24696
5.24157
5.2971
5.34593
5.27373
5.26511
5.32016
5.36267
5.28793
5.27595
5.32687
5.45888
5.38032
5.36516
5.41374
5.49201
5.41224
5.39713
5.44849
5.69445
5.69323
5.69317
5.69427
5.40436
5.40969
5.40968
5.40435
5.1079
5.10571
5.10532
5.10681
5.08274
5.04437
5.04388
5.08126
5.1046
5.05061
5.04894
5.09952
5.13588
5.0711
5.06802
5.12658
5.1602
5.0886
5.08348
5.14482
5.17488
5.10159
5.09434
5.15326
5.26257
5.17927
5.16948
5.23364
5.35264
5.27943
5.26902
5.32338
5.41731
5.4161
5.416
5.41701
5.12811
5.13104
5.13104
5.1281
5.00125
5.0031
5.00286
5.00056
4.97473
4.94509
4.94477
4.97382
4.97241
4.9331
4.93201
4.96923
4.991
4.94346
4.94143
4.98511
5.00555
4.95261
4.94918
4.99573
5.01286
4.95894
4.95411
4.99918
5.08194
5.01519
5.00824
5.06246
5.15088
5.10308
5.09605
5.13229
5.13298
5.13215
5.13207
5.13276
10.4237
9.59623
9.06854
8.78313
8.64197
8.56288
8.50962
8.46873
8.43846
8.41943
174.91
90.8537
58.7592
47.5154
41.4771
36.9262
33.4877
31.0634
29.5657
29.1881
262.257
118.028
83.1762
69.2367
62.0912
57.4995
54.6463
52.9531
52.1179
52.7245
343.911
142.96
98.7276
79.0592
68.128
61.2591
56.9944
54.4171
52.9433
53.4964
400.39
179.058
113.829
86.2305
70.8959
61.6185
55.8187
52.2264
49.9483
50.1914
475.244
219.754
127.333
92.0416
72.4013
60.8082
53.4083
48.7084
45.5931
45.3034
550.289
250.411
131.879
91.8439
69.6963
56.9494
48.7187
43.4492
39.8798
39.182
583.049
249.741
117.614
78.9099
57.5947
45.7247
38.121
33.3792
30.2604
29.488
456.733
158.458
59.5132
36.8361
25.1311
19.3941
16.1446
14.338
13.2651
12.996
14.3822
10.6313
9.63054
9.31501
9.13703
9.03058
8.96212
8.9136
8.87993
8.8603
9.88634
9.26254
8.87341
8.63616
8.50285
8.42423
8.37276
8.33702
8.31275
8.29843
115.274
65.1291
45.8097
37.032
31.8707
28.0804
25.1963
23.1545
21.8803
21.4536
174.469
91.4755
65.9849
54.3714
48.1387
44.1318
41.6314
40.1897
39.5041
39.9227
225.244
111.217
78.7736
62.7535
53.6613
47.9221
44.3875
42.3458
41.214
41.5899
297.79
139.045
91.9284
69.603
56.9788
49.2685
44.4962
41.6551
39.8446
39.8927
380.206
173.226
105.006
76.0396
59.6383
49.8583
43.6681
39.8401
37.2454
36.7731
460.969
201.372
111.067
77.5097
58.6706
47.7769
40.8053
36.4383
33.3773
32.4952
504.965
205.584
101.362
68.1136
49.5884
39.2962
32.7531
28.7395
25.9975
25.0691
399.075
133.443
52.9607
32.7683
22.3795
17.3509
14.5159
12.9532
11.9786
11.6461
12.9763
10.2171
9.41025
9.13385
8.98129
8.89004
8.83067
8.78683
8.75448
8.73135
8.99564
8.74277
8.55485
8.41849
8.32587
8.26914
8.23216
8.20743
8.19162
8.18282
51.6929
39.8078
31.927
26.459
22.6022
19.757
17.6834
16.2835
15.4613
15.208
81.8674
59.6214
47.6324
39.8715
35.034
31.8966
29.9561
28.8821
28.4515
28.8286
107.178
73.4454
57.043
46.3464
39.6917
35.435
32.822
31.3749
30.6788
31.0701
140.537
91.1768
66.5663
51.9474
42.9072
37.2529
33.7497
31.7335
30.5418
30.6804
187.994
114.301
76.8417
57.8041
45.9196
38.626
33.9808
31.1594
29.3131
29.0143
238.942
133.796
82.1778
59.9869
46.0822
37.8308
32.5111
29.2232
26.9596
26.3018
271.595
137.399
75.7221
53.6841
39.7058
31.7999
26.7355
23.6642
21.6024
20.8998
210.613
86.7169
38.9423
26.0276
18.29
14.5869
12.482
11.328
10.622
10.4011
10.9113
9.61004
9.13572
8.94734
8.83238
8.76195
8.71358
8.67588
8.64539
8.62155
8.55303
8.40587
8.29396
8.21062
8.15181
8.11631
8.09428
8.08026
8.07197
8.06782
28.7646
24.6649
20.653
17.4337
15.0637
13.3523
12.1544
11.3843
10.9647
10.8633
47.2561
39.4335
32.6692
27.6787
24.3508
22.1765
20.8338
20.1111
19.8677
20.1685
61.6624
49.4749
39.6113
32.7217
28.201
25.2844
23.4978
22.5434
22.1626
22.5257
79.8294
61.1032
46.4641
37.1431
31.049
27.1863
24.8021
23.4802
22.7872
22.9982
106.009
76.1994
54.3204
42.0909
33.9525
28.865
25.6214
23.6929
22.5088
22.3962
134.234
88.8059
58.8199
44.4431
34.7432
28.8888
25.1069
22.8107
21.2976
20.907
152.511
90.7473
54.8564
40.4922
30.5455
24.8651
21.2214
19.0504
17.6537
17.22
115.055
54.995
27.9083
19.827
14.5648
12.0887
10.6639
9.88843
9.42795
9.31066
9.82863
9.14498
8.86994
8.74254
8.6618
8.60958
8.57159
8.54059
8.51398
8.49173
8.24376
8.1408
8.07102
8.02312
7.99144
7.97226
7.96105
7.95426
7.95075
7.9494
16.5749
14.8391
12.8478
11.248
10.0836
9.26434
8.71121
8.37417
8.21156
8.19961
28.8272
25.2238
21.3889
18.4885
16.4916
15.1733
14.362
13.9449
13.8408
14.066
38.1028
32.2029
26.4061
22.2829
19.4907
17.6747
16.5709
16.0106
15.8458
16.1502
48.9162
39.7424
31.2469
25.6011
21.8044
19.3799
17.9037
17.1301
16.7941
17.0256
64.1695
49.5266
37.084
29.5052
24.3151
21.0266
18.9425
17.7407
17.0652
17.0798
80.2525
57.6179
40.7548
31.6683
25.3561
21.4927
19.0061
17.5342
16.6212
16.4396
90.0541
58.613
38.6272
29.3931
22.8059
19.009
16.5847
15.1766
14.3227
14.1059
64.9938
33.98
19.7152
14.8178
11.5911
10.0727
9.17941
8.69796
8.42273
8.3774
9.15429
8.77905
8.62796
8.54606
8.49217
8.45394
8.42416
8.39887
8.37619
8.35589
8.0187
7.93838
7.89073
7.86139
7.84371
7.83391
7.82845
7.82545
7.82442
7.82457
10.4811
9.66959
8.70727
7.96241
7.43885
7.08542
6.86056
6.73548
6.69042
6.71197
18.2587
16.31
14.1325
12.4826
11.3492
10.6122
10.1756
9.97658
9.96337
10.131
24.0526
20.7962
17.4761
15.08
13.4576
12.415
11.804
11.5269
11.4986
11.7438
30.4136
25.4179
20.6552
17.3651
15.1559
13.7599
12.9438
12.5622
12.456
12.6794
39.2154
31.5286
24.7059
20.2042
17.1215
15.162
13.9463
13.2824
12.9575
13.0479
48.2258
36.556
27.4549
21.9514
18.1408
15.7854
14.2906
13.4411
12.9562
12.9182
53.1257
37.0591
26.4677
20.7664
16.7433
14.4009
12.925
12.0997
11.6385
11.5738
36.2498
20.8937
13.9647
11.2015
9.41432
8.54868
8.02493
7.74763
7.59759
7.59642
8.6912
8.48875
8.4085
8.35779
8.32201
8.29367
8.27017
8.2496
8.23075
8.21272
7.83748
7.76915
7.7325
7.71182
7.70027
7.69458
7.69178
7.69052
7.69064
7.69149
7.93465
7.41519
6.86719
6.47592
6.21667
6.051
5.95394
5.90756
5.90102
5.92604
12.6137
11.2919
9.9347
8.95793
8.3186
7.92452
7.71156
7.63879
7.66956
7.79078
16.0731
13.938
11.9289
10.5296
9.62249
9.06923
8.77494
8.67602
8.72056
8.91097
19.623
16.5618
13.8231
11.9472
10.7373
10.0105
9.62738
9.49562
9.51928
9.71669
24.5266
20.1946
16.4203
13.8463
12.1363
11.0747
10.4518
10.149
10.0429
10.1676
29.3801
23.1893
18.2897
15.1126
12.9793
11.6706
10.8704
10.4498
10.243
10.2896
31.5957
23.4511
17.9104
14.5825
12.3242
11.01
10.2068
9.78624
9.583
9.61052
20.6064
13.4326
10.2629
8.82402
7.91155
7.44666
7.15917
7.01293
6.94159
6.96392
8.35465
8.24629
8.20398
8.17273
8.14835
8.12704
8.10847
8.09189
8.0766
8.06118
7.6707
7.60988
7.5794
7.5631
7.55432
7.55013
7.54844
7.54787
7.54842
7.54954
6.93599
6.49504
6.09775
5.83863
5.67721
5.57932
5.52562
5.50334
5.50455
5.52335
9.78176
8.70099
7.72869
7.09181
6.70616
6.48694
6.38392
6.3662
6.40637
6.48967
11.7492
10.0937
8.74813
7.89868
7.39492
7.11878
6.99934
6.99062
7.05949
7.2002
13.5741
11.404
9.72335
8.66072
8.03504
7.70214
7.56707
7.56755
7.6462
7.8072
16.1405
13.4035
11.2391
9.81744
8.93681
8.42889
8.167
8.0753
8.08518
8.21266
18.5878
15.0725
12.3885
10.6481
9.54944
8.9045
8.5414
8.3823
8.33399
8.41798
19.4135
15.2024
12.297
10.4846
9.33113
8.67634
8.30003
8.12923
8.07638
8.149
12.5991
9.44547
8.05288
7.34998
6.91122
6.67466
6.52788
6.45964
6.43363
6.46562
8.08878
8.02928
8.00582
7.98601
7.96887
7.95274
7.93814
7.92495
7.91283
7.90026
7.50358
7.44883
7.42279
7.40931
7.40207
7.39851
7.39711
7.39673
7.39734
7.39849
6.49423
6.08078
5.75013
5.54964
5.43059
5.36065
5.32295
5.30735
5.30771
5.31947
8.41455
7.42932
6.63846
6.16725
5.90325
5.76441
5.70724
5.70611
5.7396
5.79425
9.51337
8.07046
7.06006
6.49946
6.20421
6.0654
6.02505
6.04821
6.11294
6.21176
10.3385
8.57809
7.44868
6.83065
6.51776
6.38696
6.36816
6.41905
6.50585
6.62789
11.5356
9.53774
8.22619
7.45911
7.04149
6.83704
6.76305
6.77192
6.82788
6.93908
12.6176
10.3594
8.85137
7.94837
7.43818
7.16984
7.04594
7.02173
7.04777
7.1374
12.7716
10.4102
8.88449
7.97099
7.44501
7.16653
7.02785
6.99082
7.01277
7.09864
8.79501
7.40789
6.78994
6.45911
6.25856
6.14568
6.0777
6.05252
6.04988
6.0831
7.85803
7.82187
7.8074