/*--------------------------------*- C++ -*----------------------------------*\
| =========                 |                                                 |
| \\      /  F ield         | foam-extend: Open Source CFD                    |
|  \\    /   O peration     | Version:     4.0                                |
|   \\  /    A nd           | Web:         http://www.foam-extend.org         |
|    \\/     M anipulation  |                                                 |
\*---------------------------------------------------------------------------*/
FoamFile
{
    version     2.0;
    format      ascii;
    class       volScalarField;
    location    "200";
    object      MaU;
}
// * * * * * * * * * * * * * * * * * * * * * * * * * * * * * * * * * * * * * //

dimensions      [0 0 0 0 0 0 0];

internalField   nonuniform List<scalar> 
34480
(
0.532698
0.538237
0.543711
0.549337
0.555655
0.562712
0.568863
0.568697
0.553802
0.502003
0.527536
0.534146
0.540582
0.546966
0.553757
0.561666
0.570284
0.575755
0.571175
0.532281
0.52164
0.529205
0.536923
0.544891
0.55341
0.563105
0.574203
0.583876
0.587104
0.56063
0.519029
0.527976
0.537139
0.546697
0.556823
0.568024
0.580836
0.593408
0.602736
0.586474
0.517314
0.52739
0.537628
0.548332
0.559594
0.571918
0.585978
0.60076
0.615441
0.608582
0.514365
0.525295
0.536266
0.547693
0.559635
0.572648
0.58751
0.603985
0.62352
0.625426
0.51247
0.523833
0.535042
0.546616
0.558612
0.571657
0.586683
0.604243
0.628143
0.638317
0.511442
0.522842
0.533866
0.545071
0.556501
0.568795
0.583048
0.600714
0.628324
0.646615
0.514532
0.525496
0.535903
0.546378
0.556938
0.568058
0.580779
0.597519
0.628207
0.653353
0.512242
0.523088
0.533286
0.543377
0.553194
0.562974
0.573402
0.587395
0.619567
0.652124
0.51233
0.515725
0.518111
0.519128
0.5186
0.515894
0.509875
0.499051
0.479783
0.435159
0.513262
0.518222
0.52235
0.525309
0.526726
0.526194
0.522472
0.513563
0.497035
0.453537
0.510691
0.516776
0.52247
0.52747
0.531426
0.533818
0.533487
0.527973
0.515459
0.475104
0.510035
0.517543
0.52484
0.531715
0.537829
0.542599
0.544969
0.542399
0.533779
0.497382
0.509448
0.518119
0.526616
0.534873
0.542544
0.549145
0.553697
0.553761
0.548938
0.516751
0.507357
0.516937
0.526291
0.535488
0.544207
0.552123
0.55839
0.560831
0.559951
0.533113
0.506084
0.516168
0.525894
0.535467
0.544611
0.553166
0.560523
0.564932
0.568049
0.547611
0.505416
0.515649
0.525366
0.534848
0.54386
0.55234
0.559961
0.565588
0.572561
0.559446
0.508377
0.518293
0.527591
0.536618
0.545191
0.553207
0.560402
0.56633
0.576984
0.571118
0.506286
0.516116
0.525332
0.534169
0.542346
0.549671
0.55585
0.560653
0.574179
0.577166
0.496288
0.498351
0.49915
0.498486
0.496116
0.491586
0.484224
0.473194
0.457096
0.433162
0.500595
0.504208
0.506734
0.507767
0.506873
0.503378
0.496238
0.483939
0.464292
0.433071
0.500429
0.505238
0.509334
0.51231
0.513629
0.512512
0.507521
0.496429
0.476323
0.440316
0.501375
0.507588
0.513293
0.518124
0.521558
0.522662
0.519848
0.510346
0.490686
0.451479
0.501779
0.509158
0.516115
0.522392
0.527484
0.53046
0.529683
0.522048
0.503723
0.46315
0.50048
0.508803
0.516696
0.524031
0.530334
0.534782
0.535772
0.530102
0.513793
0.473529
0.499778
0.508664
0.517044
0.524918
0.531872
0.537231
0.539554
0.53577
0.521998
0.483551
0.499471
0.508594
0.517108
0.525099
0.532216
0.537902
0.540961
0.538694
0.527744
0.49229
0.502454
0.511366
0.5196
0.527294
0.534195
0.539816
0.543116
0.541837
0.533883
0.501502
0.500792
0.509619
0.517808
0.52536
0.531936
0.537072
0.540083
0.538938
0.533715
0.504567
0.483883
0.485059
0.485075
0.483832
0.481221
0.477076
0.471256
0.463773
0.454661
0.44345
0.489504
0.491967
0.493295
0.493143
0.491194
0.487001
0.480008
0.469595
0.455103
0.436194
0.490978
0.494599
0.49731
0.498704
0.498284
0.495423
0.489135
0.478127
0.460969
0.43624
0.493175
0.498125
0.502336
0.505383
0.506694
0.505449
0.500338
0.489455
0.470566
0.440782
0.494448
0.500537
0.505981
0.510411
0.513242
0.513534
0.509784
0.499561
0.479863
0.446176
0.493901
0.500945
0.507357
0.512866
0.516903
0.518511
0.516084
0.506833
0.487115
0.450843
0.493757
0.50141
0.50839
0.514535
0.519324
0.521868
0.520559
0.512455
0.493454
0.455998
0.493787
0.501758
0.508987
0.515398
0.520542
0.523606
0.523086
0.516096
0.498412
0.460992
0.496705
0.504576
0.511657
0.517911
0.522992
0.526217
0.526207
0.520212
0.504508
0.467754
0.495312
0.50314
0.510247
0.51646
0.521387
0.524358
0.524349
0.518862
0.505565
0.470113
0.475232
0.475919
0.475722
0.474616
0.472597
0.469653
0.465848
0.461466
0.457048
0.452799
0.480476
0.48211
0.482744
0.482143
0.480123
0.476455
0.470914
0.463331
0.453671
0.44238
0.482645
0.485295
0.487014
0.487462
0.48628
0.483051
0.477216
0.468139
0.455312
0.438998
0.485574
0.48942
0.492427
0.494198
0.494241
0.491951
0.48644
0.476571
0.461217
0.44016
0.487447
0.492369
0.496513
0.499492
0.500749
0.499527
0.494676
0.484566
0.467338
0.442054
0.487497
0.493356
0.498444
0.502429
0.504737
0.504513
0.500424
0.490419
0.47189
0.443047
0.487816
0.494312
0.500007
0.504651
0.507692
0.508249
0.504894
0.495279
0.476109
0.444626
0.488138
0.495011
0.501036
0.506033
0.509508
0.510599
0.507859
0.498813
0.479675
0.446539
0.491015
0.497886
0.503872
0.508821
0.512327
0.513646
0.511402
0.50307
0.484857
0.451107
0.489881
0.496754
0.502824
0.507808
0.511277
0.512493
0.510335
0.502441
0.485833
0.45253
0.469435
0.469856
0.469669
0.468881
0.467536
0.465677
0.46342
0.461075
0.459253
0.458388
0.473399
0.474458
0.474725
0.474056
0.472366
0.469566
0.465595
0.460437
0.454132
0.446915
0.475571
0.477452
0.478495
0.478446
0.477076
0.474148
0.469385
0.462506
0.453315
0.442061
0.478775
0.481682
0.483757
0.484671
0.484057
0.481523
0.476543
0.468509
0.456881
0.441822
0.480984
0.484866
0.487924
0.489811
0.490063
0.488139
0.483275
0.474498
0.460781
0.442073
0.481463
0.486231
0.490158
0.492911
0.493977
0.492691
0.488085
0.478828
0.463317
0.44119
0.482142
0.48755
0.49208
0.495449
0.497135
0.4964
0.49212
0.482663
0.46581
0.440755
0.482694
0.488519
0.493423
0.497173
0.499278
0.498976
0.495051
0.485663
0.468066
0.440797
0.485528
0.491434
0.496386
0.500171
0.50235
0.502241
0.498644
0.489611
0.472206
0.44396
0.484623
0.490572
0.495653
0.49953
0.501754
0.501632
0.498107
0.48928
0.47271
0.444588
0.46563
0.465908
0.465791
0.465299
0.464485
0.463397
0.46214
0.460984
0.460518
0.461389
0.46799
0.468668
0.468768
0.468204
0.466944
0.464965
0.462264
0.458841
0.454656
0.449674
0.469735
0.471037
0.47165
0.471396
0.470141
0.467763
0.464133
0.459099
0.452484
0.444217
0.472853
0.474994
0.476386
0.476778
0.475924
0.473591
0.469494
0.463306
0.454674
0.443491
0.475158
0.478146
0.480341
0.481459
0.481155
0.479075
0.474762
0.467668
0.457176
0.443129
0.4759
0.479694
0.482642
0.484452
0.48471
0.482947
0.478528
0.470664
0.458393
0.441501
0.47683
0.481239
0.48475
0.48709
0.48781
0.486353
0.481926
0.473499
0.459691
0.440172
0.47754
0.482383
0.486278
0.48898
0.490045
0.488867
0.484534
0.47582
0.460945
0.439316
0.480326
0.485314
0.489321
0.492114
0.493261
0.492196
0.487986
0.479304
0.464228
0.441829
0.479627
0.48469
0.488856
0.491772
0.493005
0.491965
0.487774
0.479066
0.464236
0.441986
0.463073
0.463269
0.463214
0.462931
0.462467
0.461859
0.461189
0.460681
0.460895
0.462669
0.463865
0.464297
0.464332
0.463916
0.463041
0.461706
0.459914
0.457641
0.454761
0.451041
0.465006
0.465887
0.466237
0.465938
0.464915
0.463107
0.460446
0.456808
0.451945
0.445502
0.467805
0.469343
0.470253
0.470356
0.469503
0.467562
0.464386
0.45977
0.453363
0.444704
0.470023
0.472266
0.473801
0.474409
0.473858
0.471937
0.468392
0.462916
0.455034
0.444213
0.470881
0.473829
0.475985
0.477108
0.476897
0.475049
0.471186
0.464869
0.455464
0.44244
0.471956
0.475474
0.478125
0.479673
0.479762
0.478011
0.473911
0.46687
0.456032
0.440882
0.472748
0.476693
0.479712
0.481574
0.481907
0.480277
0.476063
0.46853
0.456607
0.439742
0.47548
0.479613
0.482782
0.484763
0.485168
0.483567
0.4793
0.471569
0.459305
0.442127
0.474968
0.479194
0.482535
0.484648
0.485145
0.483566
0.479254
0.471331
0.458938
0.442028
0.461231
0.461377
0.46136
0.461206
0.46095
0.46062
0.460276
0.460105
0.460646
0.462894
0.460653
0.460928
0.460941
0.460658
0.460078
0.459202
0.458027
0.456498
0.45443
0.451464
0.46119
0.461776
0.461972
0.461701
0.460925
0.45961
0.457707
0.455085
0.451419
0.446152
0.463562
0.464641
0.465224
0.465188
0.46445
0.46294
0.460582
0.457213
0.452432
0.445487
0.465577
0.467221
0.468267
0.468558
0.467953
0.466335
0.463577
0.459492
0.453627
0.445094
0.466438
0.468674
0.470211
0.470861
0.470423
0.468721
0.465554
0.460687
0.453632
0.443467
0.467572
0.470314
0.472268
0.473235
0.472958
0.471202
0.467674
0.462063
0.45381
0.442035
0.468371
0.471515
0.473799
0.475019
0.474889
0.473122
0.469344
0.463164
0.453963
0.440934
0.471045
0.474397
0.476847
0.478192
0.478112
0.47631
0.472359
0.465853
0.456311
0.443448
0.4707
0.474151
0.476769
0.478237
0.478233
0.476428
0.472378
0.465584
0.45572
0.443237
0.459762
0.459874
0.459878
0.459796
0.459657
0.459479
0.459308
0.459304
0.459986
0.462475
0.458045
0.45822
0.458227
0.458043
0.457669
0.457104
0.456334
0.455287
0.453744
0.451269
0.458075
0.458459
0.458568
0.458353
0.457793
0.456868
0.455533
0.453642
0.450811
0.446346
0.460014
0.460757
0.461125
0.461037
0.460451
0.459335
0.457644
0.455231
0.45164
0.44591
0.461772
0.462951
0.46365
0.463759
0.463202
0.461925
0.459871
0.45691
0.45258
0.445714
0.462565
0.464223
0.465293
0.465636
0.465129
0.463684
0.461212
0.457591
0.452391
0.444367
0.463695
0.465784
0.46719
0.467755
0.467307
0.465717
0.462842
0.458542
0.452408
0.443227
0.464436
0.466885
0.468573
0.469329
0.468947
0.467258
0.464065
0.459204
0.452314
0.442298
0.467053
0.469712
0.471561
0.47243
0.472074
0.470307
0.466885
0.461653
0.454475
0.44499
0.466855
0.469606
0.471609
0.472581
0.472276
0.470477
0.466918
0.461362
0.4538
0.44478
0.458465
0.458553
0.458564
0.458521
0.458444
0.458347
0.458265
0.458335
0.459058
0.461659
0.455812
0.455924
0.455931
0.455814
0.455576
0.455215
0.454711
0.453984
0.452797
0.450675
0.455465
0.455715
0.455777
0.455619
0.455231
0.4546
0.453681
0.452319
0.450097
0.446225
0.45704
0.457542
0.457772
0.457677
0.45724
0.45645
0.455276
0.453577
0.450869
0.446041
0.458537
0.459364
0.459823
0.459839
0.459377
0.458417
0.456943
0.454856
0.451682
0.446064
0.459228
0.460428
0.461158
0.461316
0.460834
0.459678
0.457825
0.455214
0.451442
0.44504
0.460317
0.461872
0.462861
0.463165
0.462676
0.461335
0.459093
0.455906
0.451445
0.444257
0.460947
0.462809
0.464028
0.464466
0.463987
0.462502
0.459931
0.456241
0.45121
0.443519
0.463514
0.465572
0.466936
0.467466
0.46699
0.465404
0.462592
0.458542
0.453284
0.446338
0.463436
0.465573
0.467069
0.467678
0.467227
0.465587
0.462622
0.458259
0.452638
0.44623
0.457223
0.457295
0.457307
0.457283
0.457238
0.457184
0.457145
0.457241
0.457947
0.460584
0.4538
0.453872
0.453879
0.453807
0.453658
0.453429
0.453101
0.452593
0.451665
0.449824
0.453202
0.453364
0.453401
0.453291
0.453033
0.452615
0.451997
0.451025
0.449271
0.445886
0.45452
0.454856
0.454999
0.454917
0.454606
0.454066
0.453276
0.452104
0.45006
0.445941
0.455784
0.456353
0.456649
0.456626
0.456267
0.455576
0.454553
0.453118
0.450808
0.446153
0.456371
0.457221
0.457709
0.457764
0.457353
0.456472
0.45513
0.453299
0.450601
0.445441
0.457405
0.458535
0.459216
0.459362
0.458909
0.457841
0.456158
0.453864
0.450679
0.445015
0.457885
0.459265
0.460126
0.460359
0.459881
0.458657
0.456672
0.453957
0.45036
0.444432
0.460416
0.461971
0.462952
0.463254
0.462763
0.461431
0.459221
0.456188
0.452416
0.44731
0.460424
0.462039
0.463127
0.463485
0.462998
0.461601
0.459242
0.455935
0.451868
0.447378
0.455968
0.456026
0.456037
0.456023
0.455995
0.455963
0.455944
0.45604
0.456697
0.459315
0.451915
0.451962
0.45197
0.451926
0.451834
0.451692
0.451483
0.451128
0.450397
0.448795
0.451168
0.451273
0.451296
0.451224
0.451058
0.450791
0.45039
0.449711
0.448334
0.445382
0.452355
0.452576
0.452666
0.452602
0.45239
0.452033
0.451517
0.450727
0.449187
0.445661
0.453425
0.45381
0.453999
0.453963
0.4537
0.453219
0.452528
0.451566
0.449892
0.446003
0.453928
0.454516
0.454836
0.454841
0.454515
0.453871
0.452928
0.451675
0.449761
0.445561
0.454912
0.455714
0.456174
0.45623
0.455851
0.455039
0.453817
0.452208
0.449962
0.445456
0.455213
0.45621
0.456803
0.456913
0.456492
0.455535
0.454057
0.452116
0.449582
0.444967
0.45773
0.458875
0.459563
0.459722
0.459277
0.458219
0.456549
0.454346
0.451681
0.447861
0.457774
0.458959
0.45973
0.459924
0.459471
0.458345
0.456545
0.45412
0.451247
0.44814
0.454644
0.454692
0.4547
0.454691
0.454673
0.454652
0.454641
0.454723
0.455308
0.457864
0.450109
0.450141
0.45015
0.450125
0.45007
0.449985
0.449855
0.44961
0.449031
0.447637
0.449282
0.44935
0.449367
0.449322
0.449218
0.449056
0.448807
0.448347
0.447282
0.444734
0.450465
0.450609
0.450666
0.450621
0.45048
0.45025
0.449924
0.449402
0.448246
0.44523
0.45138
0.451635
0.451755
0.451721
0.451535
0.451209
0.450755
0.45012
0.448905
0.445637
0.451829
0.452227
0.452434
0.452417
0.452174
0.451719
0.451074
0.450232
0.448873
0.445415
0.452778
0.453333
0.453638
0.45365
0.453354
0.452763
0.451903
0.450798
0.449219
0.445584
0.452881
0.453583
0.453982
0.454023
0.453682
0.452967
0.451905
0.450551
0.448776
0.445119
0.455416
0.456236
0.456708
0.456781
0.456414
0.455612
0.454397
0.452841
0.450978
0.448021
0.455425
0.456266
0.456799
0.456892
0.456508
0.455645
0.454324
0.452599
0.450618
0.44849
0.453191
0.453234
0.45324
0.453234
0.453222
0.453207
0.453198
0.453263
0.45376
0.456208
0.448369
0.448392
0.448401
0.448388
0.448357
0.448309
0.448231
0.44806
0.447596
0.446378
0.447493
0.447538
0.447551
0.447525
0.447463
0.447369
0.447223
0.446922
0.446111
0.443937
0.448785
0.448879
0.448917
0.448887
0.448797
0.448653
0.448452
0.44811
0.44724
0.444663
0.449573
0.449739
0.449816
0.449788
0.449662
0.449448
0.449154
0.448737
0.447842
0.445074
0.450003
0.450267
0.450399
0.450378
0.450205
0.449894
0.449463
0.448902
0.447922
0.445032
0.450938
0.451314
0.451512
0.451506
0.451288
0.450874
0.450286
0.44954
0.44842
0.445428
0.450834
0.451313
0.451575
0.451582
0.451323
0.45081
0.450072
0.449148
0.4479
0.444923
0.453425
0.453998
0.454312
0.45434
0.454056
0.453475
0.452623
0.451554
0.450261
0.447863
0.453299
0.453876
0.454233
0.45427
0.453967
0.453334
0.452398
0.451208
0.449875
0.448432
0.451536
0.451577
0.451583
0.451579
0.451569
0.451558
0.451551
0.451595
0.451993
0.45428
0.4467
0.446717
0.446727
0.446722
0.446706
0.446682
0.446636
0.446512
0.446128
0.445048
0.445767
0.445796
0.445808
0.445795
0.44576
0.445709
0.445628
0.445433
0.444817
0.44297
0.447261
0.447322
0.447348
0.447331
0.447276
0.447189
0.447066
0.44684
0.446173
0.443961
0.447937
0.448043
0.448091
0.448071
0.447989
0.447851
0.447664
0.447386
0.446707
0.444332
0.448384
0.448554
0.448637
0.448618
0.4485
0.448294
0.448011
0.447637
0.446911
0.444445
0.449324
0.44957
0.449697
0.449684
0.449532
0.449252
0.448862
0.448365
0.447556
0.44503
0.449008
0.449325
0.449492
0.449483
0.449294
0.44894
0.448442
0.447824
0.446936
0.444436
0.451712
0.4521
0.452304
0.452308
0.4521
0.451695
0.451117
0.450404
0.449513
0.447473
0.451305
0.451687
0.451919
0.451925
0.451698
0.451251
0.45061
0.449812
0.448936
0.447969
0.449559
0.449605
0.449611
0.449609
0.449603
0.449595
0.449588
0.449615
0.449905
0.451957
0.445119
0.445132
0.445142
0.445143
0.445137
0.445126
0.445099
0.445001
0.444668
0.443688
0.444072
0.44409
0.444101
0.444095
0.444077
0.44405
0.444004
0.443873
0.443393
0.441807
0.445829
0.445869
0.445887
0.445878
0.445846
0.445794
0.445719
0.445563
0.445037
0.443116
0.446404
0.446469
0.446498
0.446483
0.446428
0.44634
0.446219
0.446027
0.445494
0.443425
0.446902
0.447008
0.447057
0.44704
0.446959
0.446823
0.446639
0.446386
0.44583
0.443688
0.447857
0.448013
0.44809
0.448075
0.44797
0.447784
0.447529
0.447201
0.446606
0.44443
0.447345
0.447546
0.447647
0.44763
0.447496
0.447254
0.446922
0.446513
0.445871
0.443724
0.450235
0.450489
0.450617
0.450609
0.45046
0.450184
0.449801
0.449334
0.448725
0.446943
0.449314
0.449558
0.449701
0.449692
0.449526
0.449217
0.448788
0.448263
0.4477
0.447061
0.446985
0.447083
0.447091
0.44709
0.447087
0.447082
0.447077
0.447089
0.447272
0.448986
0.443672
0.443681
0.443688
0.443692
0.443691
0.443687
0.443668
0.443585
0.443286
0.44238
0.442387
0.442395
0.442401
0.442396
0.442382
0.442363
0.442329
0.442228
0.441836
0.440447
0.444406
0.444429
0.444439
0.444431
0.444409
0.444373
0.444321
0.444205
0.443782
0.442107
0.444899
0.444935
0.444947
0.44493
0.444888
0.444823
0.444735
0.444591
0.444165
0.442363
0.445476
0.445538
0.445562
0.445542
0.445481
0.445383
0.445252
0.445069
0.444636
0.442782
0.446448
0.446541
0.446582
0.446563
0.446485
0.446354
0.446179
0.445953
0.44551
0.443649
0.445817
0.445941
0.445997
0.445974
0.445872
0.4457
0.445468
0.445182
0.444706
0.442873
0.448976
0.449135
0.449211
0.449195
0.449087
0.448896
0.448638
0.448326
0.447907
0.446367
0.447077
0.44723
0.447313
0.447296
0.447174
0.446959
0.446667
0.446317
0.445952
0.44553
0.443522
0.443596
0.443598
0.443592
0.443581
0.443569
0.443554
0.443544
0.443615
0.444829
0.442504
0.442509
0.442511
0.442513
0.442512
0.442508
0.44249
0.44242
0.442162
0.44135
0.440729
0.440727
0.440723
0.440709
0.440686
0.440654
0.440608
0.440508
0.44018
0.438978
0.442854
0.442864
0.442864
0.442849
0.442822
0.442783
0.442727
0.442623
0.44229
0.4409
0.443293
0.443309
0.443307
0.443283
0.443237
0.443171
0.443082
0.44295
0.442608
0.441128
0.443952
0.443987
0.443992
0.443966
0.443907
0.443817
0.443698
0.443535
0.443189
0.441685
0.444927
0.444981
0.444998
0.444973
0.444904
0.444795
0.444649
0.44446
0.444115
0.44263
0.444412
0.444489
0.444518
0.44449
0.444405
0.444266
0.444077
0.443837
0.443449
0.441972
0.447913
0.448011
0.448053
0.448032
0.447948
0.447805
0.447613
0.447379
0.447071
0.445835
0.444085
0.444191
0.444239
0.444219
0.444125
0.443966
0.443752
0.443494
0.443227
0.442919
0.438885
0.438883
0.438868
0.438845
0.438814
0.438774
0.438725
0.438666
0.438607
0.439026
0.441667
0.441668
0.441667
0.441665
0.441662
0.441656
0.441642
0.441598
0.441438
0.44087
0.438978
0.43897
0.438955
0.438929
0.43889
0.438835
0.43876
0.438643
0.438388
0.437511
0.440834
0.440836
0.440827
0.440804
0.440766
0.440711
0.440633
0.440517
0.440273
0.439339
0.441214
0.441221
0.44121
0.44118
0.441127
0.441048
0.44094
0.440787
0.440512
0.439522
0.441884
0.441904
0.441901
0.44187
0.44181
0.441716
0.441586
0.441406
0.441109
0.440107
0.442805
0.442841
0.442847
0.442819
0.442754
0.442649
0.442503
0.442305
0.442001
0.441017
0.442714
0.442771
0.442787
0.44276
0.442685
0.44256
0.442382
0.442138
0.441771
0.44074
0.446613
0.44668
0.446707
0.446686
0.446616
0.446497
0.446334
0.446127
0.445862
0.44505
0.439767
0.439869
0.439907
0.439889
0.439814
0.439684
0.439506
0.439284
0.439034
0.438722
0.313906
0.226614
0.220844
0.308792
0.30516
0.215416
0.206076
0.287433
0.297086
0.204501
0.190285
0.251367
0.288887
0.194409
0.174395
0.220787
0.282858
0.191242
0.171203
0.218474
0.274584
0.186109
0.164768
0.206824
0.264635
0.179665
0.156971
0.192389
0.252306
0.170827
0.14672
0.175644
0.2398
0.162346
0.137151
0.16004
0.227895
0.155182
0.127014
0.140206
0.34004
0.305456
0.298658
0.318514
0.33744
0.296895
0.285324
0.302795
0.335661
0.289939
0.271277
0.282522
0.334026
0.283497
0.258732
0.26405
0.32958
0.274949
0.245453
0.245068
0.325004
0.267935
0.235764
0.232076
0.321099
0.262644
0.228386
0.220484
0.316493
0.257333
0.221352
0.208916
0.312254
0.252912
0.215755
0.198936
0.309198
0.248726
0.209463
0.185364
0.400926
0.388278
0.383883
0.388926
0.393866
0.376549
0.37033
0.375551
0.387381
0.367024
0.358252
0.361041
0.382755
0.359318
0.347994
0.348924
0.37809
0.352093
0.338883
0.338085
0.372048
0.343656
0.328396
0.324862
0.366177
0.335657
0.318315
0.311782
0.359766
0.327492
0.308179
0.298558
0.354628
0.321403
0.300636
0.287941
0.35251
0.319825
0.296607
0.277268
0.425511
0.420742
0.418607
0.41899
0.418324
0.409685
0.406267
0.407885
0.411172
0.400625
0.395763
0.396511
0.406633
0.394049
0.387638
0.387288
0.4016
0.387006
0.379046
0.377352
0.394877
0.378296
0.368682
0.365202
0.388208
0.369767
0.358507
0.353082
0.381207
0.361121
0.348298
0.340834
0.375966
0.354925
0.340947
0.331307
0.373207
0.353021
0.337163
0.321909
0.440455
0.438941
0.437718
0.436785
0.432927
0.428077
0.426029
0.426776
0.425349
0.419284
0.41638
0.416633
0.421246
0.413852
0.409938
0.409429
0.416958
0.408216
0.403211
0.401727
0.410824
0.400676
0.394457
0.39174
0.404614
0.393102
0.385661
0.381613
0.39823
0.385456
0.376843
0.371401
0.394403
0.380882
0.37139
0.364344
0.394101
0.381317
0.370171
0.358124
0.44812
0.448059
0.447368
0.446075
0.440803
0.437639
0.43643
0.437169
0.432994
0.428956
0.427195
0.42772
0.429343
0.424404
0.421965
0.422006
0.425647
0.419797
0.416608
0.416003
0.420184
0.413382
0.409353
0.40793
0.414651
0.406916
0.402038
0.399725
0.409136
0.400522
0.394827
0.391589
0.406773
0.397698
0.391441
0.387108
0.407857
0.399554
0.392086
0.383732
0.452053
0.452701
0.452312
0.450914
0.445142
0.44284
0.442136
0.443019
0.437282
0.434278
0.433213
0.434092
0.434095
0.430459
0.428942
0.429538
0.431026
0.426777
0.424757
0.424935
0.426333
0.421459
0.418873
0.418505
0.421616
0.416132
0.412973
0.412013
0.417066
0.411008
0.407304
0.405737
0.416176
0.409908
0.40589
0.403602
0.418345
0.412834
0.407926
0.402504
0.45381
0.454831
0.454616
0.453178
0.447319
0.445479
0.445071
0.446082
0.43969
0.437261
0.436622
0.437775
0.436955
0.434061
0.433121
0.434133
0.434449
0.43113
0.429853
0.430607
0.430489
0.426755
0.4251
0.425493
0.426573
0.422445
0.420411
0.420411
0.422924
0.418437
0.41605
0.415654
0.423369
0.41886
0.416328
0.41546
0.42623
0.422476
0.419304
0.416025
0.454331
0.455569
0.455453
0.453983
0.4482
0.446627
0.44639
0.447478
0.441004
0.43892
0.438539
0.439862
0.438736
0.436299
0.435721
0.436999
0.436749
0.434009
0.433206
0.434334
0.433469
0.430449
0.429393
0.430283
0.430308
0.427033
0.425726
0.426353
0.427453
0.423961
0.422426
0.422788
0.429015
0.425621
0.424032
0.424061
0.432269
0.429622
0.427584
0.425753
0.454146
0.45552
0.455459
0.453955
0.448301
0.4469
0.446762
0.447879
0.441629
0.439764
0.439537
0.440947
0.43982
0.437682
0.437326
0.438752
0.438313
0.435953
0.435449
0.436796
0.43566
0.43311
0.432437
0.43363
0.433195
0.430478
0.429639
0.430655
0.430998
0.428156
0.427169
0.427998
0.43337
0.430687
0.42968
0.43024
0.436845
0.434895
0.433587
0.4327
0.453558
0.455027
0.454996
0.453453
0.447933
0.446659
0.446579
0.447687
0.441829
0.440119
0.439984
0.44142
0.440434
0.438504
0.438285
0.439774
0.439344
0.437249
0.436932
0.438387
0.437255
0.435031
0.434601
0.435956
0.435419
0.433088
0.432547
0.433783
0.433738
0.431341
0.430702
0.431799
0.436619
0.434403
0.43375
0.434603
0.440237
0.438725
0.437887
0.437606
0.452736
0.454276
0.454262
0.452679
0.447281
0.446113
0.446066
0.447135
0.44177
0.440189
0.440108
0.441525
0.440734
0.438968
0.438832
0.440325
0.439977
0.438083
0.437882
0.439369
0.43837
0.436387
0.43611
0.437532
0.437081
0.43503
0.434678
0.436016
0.435777
0.433697
0.43328
0.434509
0.438924
0.437029
0.436597
0.437597
0.442655
0.44142
0.440884
0.44099
0.451772
0.453368
0.453361
0.45174
0.446442
0.445375
0.445347
0.446356
0.441548
0.440089
0.44004
0.441401
0.440825
0.439203
0.439119
0.44057
0.440307
0.438584
0.438456
0.439919
0.439093
0.437308
0.437128
0.438549
0.438263
0.436433
0.436203
0.437564
0.437203
0.435368
0.435092
0.436366
0.440429
0.438768
0.438477
0.439543
0.444272
0.443213
0.442871
0.443222
0.450698
0.452334
0.45233
0.45068
0.44547
0.4445
0.444482
0.445416
0.4412
0.439867
0.439838
0.441111
0.440762
0.439281
0.439229
0.440603
0.440395
0.43883
0.438747
0.440146
0.439493
0.437881
0.437764
0.439138
0.439036
0.437396
0.437243
0.438575
0.438099
0.436466
0.436282
0.437542
0.441262
0.439775
0.439578
0.440667
0.445227
0.444284
0.444068
0.444567
0.449516
0.451169
0.451167
0.449506
0.444385
0.443508
0.443497
0.44435
0.440716
0.439519
0.439501
0.440664
0.440562
0.439222
0.439189
0.440463
0.440264
0.43885
0.438798
0.440106
0.439606
0.438154
0.438077
0.439375
0.439447
0.437976
0.437875
0.439143
0.438524
0.437065
0.436942
0.438155
0.441539
0.440178
0.440045
0.441143
0.445629
0.444772
0.444637
0.445219
0.44819
0.449823
0.449822
0.448184
0.443204
0.442412
0.442404
0.44318
0.440054
0.438992
0.438982
0.440023
0.440203
0.439
0.43898
0.440141
0.439909
0.438636
0.438603
0.439808
0.439445
0.438136
0.438086
0.439296
0.439518
0.438192
0.438126
0.43932
0.438519
0.437202
0.437121
0.438277
0.441377
0.440095
0.440008
0.441118
0.445557
0.444774
0.444691
0.445304
0.446638
0.448194
0.448193
0.446636
0.441956
0.441232
0.441227
0.441939
0.439147
0.438207
0.438201
0.439129
0.439639
0.438557
0.438544
0.439601
0.439306
0.438151
0.43813
0.439243
0.439005
0.437811
0.437779
0.438911
0.439251
0.438036
0.437993
0.439123
0.438117
0.4369
0.436848
0.437961
0.440907
0.43966
0.439603
0.440742
0.445022
0.44432
0.44427
0.444869
0.444666
0.446052
0.446052
0.444666
0.440718
0.440046
0.440042
0.440706
0.43796
0.437114
0.43711
0.43795
0.438829
0.437839
0.437831
0.438805
0.438448
0.437379
0.437366
0.438409
0.438299
0.437181
0.437161
0.438239
0.438666
0.43752
0.437493
0.438586
0.437411
0.436244
0.436211
0.437313
0.440329
0.439079
0.439044
0.440225
0.443884
0.44328
0.443251
0.443792
0.441811
0.442879
0.442879
0.441812
0.439751
0.439128
0.439125
0.439744
0.436609
0.435827
0.435825
0.436604
0.4378
0.436883
0.436878
0.437786
0.43741
0.436406
0.436398
0.437386
0.43741
0.436346
0.436333
0.437373
0.437867
0.436763
0.436746
0.437816
0.436668
0.435517
0.435496
0.436605
0.440005
0.438755
0.438731
0.439936
0.441705
0.441231
0.441213
0.441649
0.437683
0.438178
0.438178
0.437683
0.439519
0.439021
0.43902
0.439515
0.435455
0.434787
0.434786
0.435451
0.436726
0.435954
0.435951
0.436716
0.43639
0.435531
0.435525
0.436374
0.436516
0.435593
0.435585
0.43649
0.437036
0.436067
0.436055
0.437
0.436205
0.435162
0.435147
0.43616
0.440323
0.439221
0.439203
0.44027
0.437929
0.43761
0.437596
0.437884
0.443184
0.471732
0.483164
0.490492
0.497309
0.504138
0.510417
0.516306
0.521906
0.527272
0.417459
0.439243
0.45854
0.471591
0.482538
0.491757
0.49998
0.507537
0.514559
0.521069
0.392568
0.418968
0.444107
0.460025
0.472926
0.483418
0.492559
0.500778
0.508203
0.514818
0.366181
0.398737
0.428564
0.447889
0.462979
0.475265
0.485861
0.49533
0.503841
0.511246
0.332664
0.381015
0.415018
0.437736
0.454828
0.468717
0.480566
0.491139
0.500619
0.508704
0.298001
0.363694
0.400993
0.427106
0.445902
0.46127
0.474255
0.485847
0.496227
0.504995
0.267541
0.349912
0.389907
0.419163
0.439338
0.455998
0.469934
0.482362
0.493401
0.502614
0.238678
0.337794
0.380065
0.412371
0.433872
0.451862
0.466734
0.479938
0.491555
0.501236
0.213471
0.33121
0.374853
0.410389
0.433439
0.453032
0.468865
0.482702
0.49452
0.504343
0.18249
0.323548
0.36618
0.403952
0.428385
0.449193
0.4659
0.480436
0.492704
0.502921
0.385766
0.422098
0.444974
0.461574
0.474011
0.483705
0.491535
0.498037
0.503557
0.508257
0.36836
0.408304
0.435755
0.454454
0.468068
0.4787
0.487545
0.495193
0.501928
0.507857
0.35609
0.399576
0.429346
0.448414
0.462549
0.473725
0.48312
0.491299
0.498494
0.504729
0.342374
0.387855
0.419488
0.440022
0.455534
0.468001
0.47856
0.487821
0.496033
0.503084
0.323702
0.374616
0.408979
0.431831
0.448974
0.4628
0.474476
0.484747
0.493896
0.501658
0.29893
0.35997
0.396859
0.422434
0.44113
0.4563
0.469046
0.480281
0.490317
0.498787
0.275192
0.347572
0.38678
0.415175
0.435231
0.451637
0.465308
0.477353
0.488053
0.497004
0.251461
0.336558
0.377643
0.408912
0.430243
0.447902
0.462458
0.475237
0.486505
0.495941
0.230743
0.330938
0.372593
0.407025
0.429753
0.448872
0.464304
0.47768
0.489172
0.498839
0.20794
0.324795
0.364051
0.400797
0.424717
0.445003
0.461271
0.47534
0.487286
0.497423
0.413595
0.429777
0.442964
0.454251
0.463912
0.472096
0.478968
0.484714
0.48947
0.493294
0.395513
0.416892
0.434587
0.448764
0.460368
0.470012
0.478164
0.485139
0.491134
0.496238
0.384218
0.408523
0.428572
0.44398
0.456424
0.466719
0.475472
0.483062
0.489674
0.495327
0.373044
0.398711
0.420734
0.437596
0.451287
0.462711
0.472515
0.481117
0.488731
0.495255
0.358318
0.387374
0.411739
0.430617
0.445807
0.45849
0.469364
0.478944
0.487497
0.494793
0.339149
0.374145
0.400739
0.422015
0.438723
0.452706
0.464643
0.475178
0.484629
0.492682
0.319852
0.362492
0.391241
0.415128
0.433245
0.448467
0.461354
0.472705
0.482847
0.491435
0.300244
0.352228
0.38265
0.40924
0.428645
0.445082
0.458837
0.470901
0.481604
0.490692
0.283662
0.347327
0.378019
0.407673
0.428382
0.446139
0.460683
0.473288
0.484208
0.493554
0.265979
0.342155
0.370432
0.402361
0.424002
0.442725
0.457944
0.47112
0.482392
0.49211
0.43308
0.438933
0.445853
0.453005
0.459737
0.465756
0.470978
0.4754
0.479031
0.481843
0.415338
0.426751
0.437931
0.448029
0.456929
0.464681
0.471396
0.477179
0.482102
0.486195
0.404619
0.418546
0.431889
0.443461
0.453459
0.462118
0.46966
0.476252
0.481977
0.486813
0.395139
0.410354
0.425251
0.438202
0.449441
0.459235
0.467841
0.475463
0.482214
0.487978
0.383678
0.400634
0.417275
0.431995
0.444683
0.455731
0.465428
0.474047
0.481764
0.488361
0.368445
0.388664
0.407086
0.42394
0.438156
0.450521
0.461318
0.470919
0.479565
0.486973
0.352681
0.377721
0.397985
0.417259
0.432964
0.446616
0.458418
0.46887
0.478249
0.486249
0.336409
0.367994
0.389704
0.411536
0.428595
0.443472
0.456158
0.467332
0.47729
0.485812
0.322771
0.363122
0.385104
0.40991
0.42826
0.444388
0.457835
0.469545
0.479757
0.488561
0.307893
0.35766
0.377941
0.404956
0.424144
0.441164
0.455227
0.467459
0.478
0.487163
0.447378
0.44822
0.451127
0.454995
0.459056
0.462931
0.466435
0.469476
0.471989
0.473899
0.430516
0.436827
0.443437
0.449937
0.456086
0.461728
0.466778
0.4712
0.474973
0.478069
0.420694
0.42886
0.437212
0.445172
0.45256
0.459299
0.46536
0.470742
0.47543
0.479367
0.413019
0.421975
0.431437
0.440618
0.449203
0.457082
0.464231
0.470668
0.476398
0.481289
0.404038
0.41373
0.424371
0.435011
0.444948
0.454061
0.462319
0.46978
0.4765
0.482266
0.391914
0.403095
0.415013
0.427446
0.438859
0.449288
0.45868
0.467158
0.474838
0.481459
0.379184
0.393077
0.406412
0.420965
0.433882
0.445625
0.456073
0.465445
0.473903
0.481169
0.366051
0.384046
0.398539
0.415377
0.429672
0.442642
0.454
0.464114
0.473181
0.480995
0.355674