/*--------------------------------*- C++ -*----------------------------------*\
| =========                 |                                                 |
| \\      /  F ield         | foam-extend: Open Source CFD                    |
|  \\    /   O peration     | Version:     4.0                                |
|   \\  /    A nd           | Web:         http://www.foam-extend.org         |
|    \\/     M anipulation  |                                                 |
\*---------------------------------------------------------------------------*/
FoamFile
{
    version     2.0;
    format      ascii;
    class       volScalarField;
    location    "200";
    object      p;
}
// * * * * * * * * * * * * * * * * * * * * * * * * * * * * * * * * * * * * * //

dimensions      [1 -1 -2 0 0 0 0];

internalField   nonuniform List<scalar> 
34480
(
113525
113229
112977
112778
112662
112661
112854
113246
113411
115185
113202
112782
112393
112031
111716
111489
111427
111597
111346
112033
113039
112504
111987
111477
110981
110532
110212
110121
109426
108862
113042
112377
111737
111085
110426
109786
109240
108905
107776
105960
113050
112282
111553
110797
110025
109250
108539
107998
106459
103499
113201
112361
111570
110745
109901
109040
108215
107500
105555
101451
113246
112364
111546
110698
109834
108948
108077
107246
104938
99706.3
113454
112569
111752
110921
110085
109230
108380
107510
104901
98525.4
113384
112538
111764
111007
110266
109504
108722
107875
105043
97636.5
113549
112706
111938
111212
110545
109909
109301
108686
105944
97662.7
114922
114746
114642
114624
114732
115009
115530
116395
117752
120039
114285
113987
113752
113584
113517
113619
113993
114779
116140
118873
113951
113539
113174
112865
112626
112524
112687
113306
114528
117456
113841
113304
112813
112362
111965
111676
111629
112057
113086
116034
113801
113161
112574
112014
111498
111062
110836
111069
111852
114619
113913
113198
112542
111903
111299
110754
110384
110428
110919
113316
113930
113167
112474
111797
111152
110550
110087
109976
110167
112058
114105
113329
112624
111943
111298
110685
110184
109965
109865
111155
114014
113257
112571
111930
111340
110781
110297
110027
109670
110455
114132
113380
112696
112070
111518
111039
110661
110503
110086
110719
116067
115973
115957
116032
116223
116553
117050
117745
118678
119884
115283
115087
114967
114934
115018
115266
115740
116512
117667
119358
114832
114532
114299
114147
114100
114218
114591
115342
116613
118729
114630
114214
113861
113585
113406
113384
113629
114313
115628
118093
114540
114025
113577
113197
112907
112762
112880
113467
114760
117452
114604
114014
113493
113032
112656
112408
112410
112880
114083
116845
114586
113943
113379
112870
112444
112131
112046
112406
113476
116170
114728
114062
113475
112948
112500
112155
112016
112285
113194
115715
114629
113965
113380
112866
112437
112109
111963
112183
112920
115323
114722
114060
113471
112957
112540
112244
112145
112421
113055
115553
116889
116839
116851
116934
117099
117352
117700
118143
118671
119241
116119
115991
115933
115955
116078
116325
116724
117299
118062
118960
115641
115422
115273
115206
115244
115431
115818
116468
117436
118702
115393
115072
114820
114653
114594
114697
115037
115719
116854
118487
115274
114861
114521
114263
114113
114129
114405
115081
116331
118286
115303
114816
114404
114071
113844
113779
113985
114625
115936
118137
115257
114715
114256
113873
113595
113472
113618
114212
115538
117901
115368
114796
114308
113899
113592
113432
113533
114077
115374
117826
115251
114674
114180
113771
113468
113310
113398
113913
115148
117714
115318
114740
114238
113827
113526
113381
113483
114018
115185
117961
117474
117446
117463
117527
117643
117810
118024
118280
118562
118844
116804
116722
116698
116738
116852
117049
117336
117712
118165
118641
116360
116205
116113
116093
116162
116345
116664
117141
117779
118510
116099
115858
115684
115590
115599
115746
116075
116633
117456
118477
115967
115642
115391
115225
115168
115267
115584
116196
117184
118498
115969
115574
115257
115026
114907
114954
115247
115888
117011
118595
115900
115451
115086
114809
114645
114649
114917
115569
116796
118611
115986
115504
115106
114799
114606
114580
114822
115472
116761
118767
115858
115364
114956
114642
114447
114418
114654
115305
116619
118828
115909
115410
114991
114671
114472
114446
114685
115346
116637
119081
117894
117878
117891
117932
118004
118103
118226
118366
118513
118655
117357
117305
117296
117333
117421
117561
117751
117984
118246
118501
116986
116878
116822
116825
116895
117045
117282
117605
118002
118421
116741
116563
116446
116399
116437
116584
116859
117274
117831
118459
116610
116361
116181
116079
116077
116206
116502
116998
117715
118573
116596
116282
116044
115891
115845
115949
116255
116815
117686
118780
116513
116147
115863
115669
115589
115670
115979
116588
117597
118918
116580
116179
115863
115640
115535
115596
115902
116544
117663
119191
116446
116029
115699
115466
115356
115417
115729
116400
117596
119340
116486
116062
115719
115478
115361
115420
115733
116419
117629
119582
118216
118206
118214
118238
118279
118334
118402
118476
118553
118625
117808
117775
117772
117799
117860
117952
118072
118213
118363
118504
117526
117452
117419
117429
117489
117602
117766
117978
118222
118465
117314
117186
117109
117089
117136
117263
117474
117770
118136
118523
117199
117011
116885
116827
116853
116982
117232
117610
118112
118670
117178
116935
116760
116663
116663
116787
117067
117522
118164
118909
117089
116796
116581
116451
116428
116545
116847
117370
118150
119089
117144
116817
116571
116416
116374
116485
116802
117377
118278
119404
117008
116663
116401
116235
116188
116302
116637
117258
118259
119579
117042
116688
116414
116238
116183
116295
116633
117276
118312
119799
118488
118482
118486
118499
118521
118551
118586
118626
118666
118703
118187
118167
118165
118183
118222
118279
118351
118434
118520
118599
117994
117944
117924
117936
117981
118061
118172
118308
118458
118601
117823
117733
117683
117678
117723
117823
117978
118183
118422
118664
117732
117594
117507
117478
117514
117629
117827
118105
118451
118814
117715
117529
117404
117346
117370
117493
117729
118082
118545
119050
117624
117395
117236
117153
117164
117293
117562
117986
118569
119227
117675
117414
117227
117124
117124
117255
117550
118034
118730
119542
117541
117260
117057
116943
116939
117077
117397
117934
118729
119700
117574
117284
117068
116945
116935
117072
117399
117961
118798
119894
118742
118738
118739
118746
118757
118773
118792
118812
118833
118852
118521
118509
118507
118519
118542
118575
118618
118666
118714
118759
118406
118374
118361
118371
118403
118456
118529
118615
118707
118793
118277
118215
118183
118184
118222
118296
118407
118546
118702
118854
118215
118115
118057
118043
118081
118174
118324
118524
118760
118999
118205
118067
117979
117948
117982
118091
118280
118546
118874
119217
118120
117944
117829
117779
117808
117930
118156
118487
118913
119373
118171
117967
117829
117763
117787
117918
118175
118565
119087
119666
118041
117817
117664
117589
117611
117751
118034
118475
119082
119783
118077
117844
117679
117597
117614
117756
118049
118515
119164
119954
118995
118992
118992
118996
119001
119009
119019
119029
119040
119050
118830
118822
118821
118828
118841
118860
118885
118912
118939
118964
118780
118759
118751
118758
118779
118813
118859
118913
118969
119021
118687
118645
118625
118628
118657
118710
118786
118878
118979
119076
118653
118583
118544
118539
118572
118644
118754
118894
119054
119211
118655
118554
118494
118478
118513
118603
118748
118943
119173
119406
118577
118446
118364
118336
118371
118477
118657
118908
119214
119534
118634
118479
118378
118339
118374
118492
118704
119006
119389
119797
118508
118333
118220
118174
118208
118337
118573
118920
119370
119866
118551
118368
118245
118193
118224
118357
118604
118975
119461
120020
119256
119255
119255
119256
119259
119263
119268
119273
119279
119284
119128
119123
119122
119126
119133
119144
119158
119173
119188
119202
119128
119115
119110
119114
119128
119149
119178
119210
119244
119275
119065
119037
119024
119027
119047
119084
119135
119195
119260
119321
119056
119007
118982
118981
119007
119060
119138
119234
119341
119444
119069
118998
118957
118950
118981
119051
119158
119297
119456
119613
119001
118904
118848
118833
118867
118953
119092
119275
119492
119711
119066
118951
118879
118858
118894
118994
119160
119387
119662
119945
118943
118811
118729
118702
118739
118850
119038
119300
119625
119970
118996
118856
118766
118735
118771
118886
119086
119370
119724
120114
119532
119531
119531
119532
119533
119535
119537
119540
119543
119545
119424
119421
119421
119423
119427
119433
119440
119448
119457
119464
119464
119455
119452
119454
119463
119476
119493
119513
119533
119551
119419
119401
119393
119396
119409
119434
119467
119505
119546
119585
119432
119399
119383
119384
119403
119441
119494
119558
119629
119696
119455
119405
119378
119376
119401
119453
119530
119626
119734
119838
119395
119327
119288
119281
119311
119377
119479
119610
119760
119909
119472
119388
119338
119327
119360
119440
119565
119729
119923
120116
119350
119252
119194
119180
119215
119304
119447
119639
119869
120104
119415
119311
119247
119229
119265
119359
119513
119723
119974
120242
119824
119824
119824
119824
119824
119825
119827
119828
119830
119830
119726
119724
119724
119724
119727
119730
119734
119738
119743
119747
119795
119790
119788
119789
119794
119802
119812
119824
119836
119847
119761
119749
119744
119746
119755
119771
119792
119816
119842
119866
119791
119769
119758
119760
119774
119799
119835
119877
119923
119966
119820
119787
119769
119769
119788
119825
119879
119944
120015
120084
119768
119720
119694
119692
119715
119764
119836
119927
120029
120128
119856
119796
119762
119758
119785
119845
119936
120052
120185
120314
119733
119662
119622
119615
119644
119713
119818
119955
120113
120271
119812
119737
119692
119683
119714
119787
119901
120052
120226
120407
120136
120135
120135
120135
120135
120136
120136
120137
120138
120137
120037
120036
120036
120036
120037
120039
120041
120043
120045
120047
120131
120127
120126
120127
120130
120134
120140
120147
120154
120161
120098
120091
120088
120089
120095
120105
120118
120133
120149
120164
120141
120127
120120
120121
120131
120147
120170
120198
120227
120255
120173
120151
120140
120140
120154
120179
120215
120258
120305
120350
120125
120092
120075
120075
120092
120127
120177
120238
120306
120371
120223
120183
120160
120159
120180
120224
120288
120367
120456
120540
120095
120045
120018
120015
120039
120089
120163
120258
120364
120468
120192
120139
120108
120105
120129
120184
120266
120370
120488
120608
120468
120467
120468
120467
120468
120468
120468
120468
120469
120468
120362
120362
120361
120362
120362
120363
120363
120364
120365
120366
120477
120475
120474
120475
120476
120479
120482
120486
120490
120494
120439
120435
120433
120433
120437
120443
120451
120460
120470
120480
120489
120481
120477
120478
120484
120494
120509
120526
120545
120562
120520
120506
120499
120500
120509
120526
120549
120577
120607
120636
120474
120452
120441
120442
120454
120478
120511
120551
120595
120637
120581
120554
120540
120540
120556
120586
120630
120682
120741
120794
120442
120407
120390
120389
120407
120442
120493
120556
120626
120693
120560
120524
120504
120503
120522
120561
120617
120688
120766
120844
120827
120826
120826
120826
120826
120826
120826
120826
120826
120825
120706
120706
120706
120706
120706
120706
120706
120706
120706
120706
120842
120841
120840
120840
120841
120843
120845
120847
120849
120852
120791
120789
120787
120788
120790
120793
120798
120803
120809
120815
120845
120839
120837
120838
120842
120849
120858
120869
120880
120891
120868
120859
120855
120856
120863
120874
120889
120907
120926
120943
120821
120808
120801
120802
120811
120826
120848
120874
120901
120928
120935
120918
120909
120910
120922
120942
120971
121005
121043
121075
120777
120754
120743
120744
120757
120781
120815
120856
120901
120943
120924
120900
120887
120888
120902
120929
120967
121014
121064
121113
121222
121221
121221
121221
121221
121220
121220
121219
121220
121218
121075
121075
121075
121075
121075
121074
121074
121073
121073
121073
121234
121233
121233
121233
121234
121235
121236
121237
121239
121240
121164
121162
121162
121162
121164
121166
121169
121172
121176
121179
121214
121211
121210
121211
121214
121219
121226
121233
121240
121246
121225
121220
121218
121219
121224
121233
121243
121255
121267
121278
121176
121167
121164
121165
121172
121183
121198
121214
121232
121248
121290
121279
121274
121276
121285
121300
121320
121343
121367
121385
121106
121092
121085
121087
121096
121113
121136
121164
121191
121217
121295
121280
121273
121274
121285
121304
121330
121360
121392
121423
121673
121672
121672
121672
121672
121671
121671
121671
121671
121668
121473
121473
121473
121473
121473
121473
121473
121472
121472
121471
121659
121659
121659
121660
121662
121664
121666
121668
121669
121671
121567
121566
121567
121568
121570
121573
121576
121579
121582
121585
121606
121604
121605
121607
121610
121616
121622
121628
121635
121640
121600
121597
121597
121599
121604
121612
121621
121631
121641
121649
121547
121543
121541
121544
121550
121559
121571
121584
121597
121608
121649
121643
121641
121643
121651
121663
121679
121697
121715
121727
121434
121425
121422
121424
121431
121444
121461
121480
121499
121518
121703
121694
121690
121692
121700
121714
121732
121754
121775
121795
122213
122213
122213
122214
122215
122216
122217
122218
122220
122219
121892
121892
121892
121893
121893
121894
121895
121896
121897
121897
122117
122118
122119
122121
122124
122129
122133
122139
122144
122150
122015
122015
122016
122018
122022
122026
122032
122038
122044
122049
122034
122033
122034
122037
122042
122049
122057
122067
122077
122086
122011
122010
122011
122014
122019
122027
122037
122050
122063
122075
121956
121954
121953
121956
121962
121971
121983
121997
122013
122027
122018
122013
122013
122015
122022
122033
122047
122066
122087
122105
121768
121763
121761
121763
121769
121779
121793
121810
121827
121846
122198
122191
122188
122190
122197
122207
122222
122239
122257
122274
122828
122829
122830
122832
122835
122839
122843
122849
122856
122863
122342
122342
122342
122343
122343
122344
122345
122347
122349
122350
122617
122618
122619
122622
122626
122631
122638
122647
122659
122675
122529
122529
122530
122532
122536
122541
122547
122557
122570
122586
122527
122527
122527
122530
122534
122540
122549
122561
122578
122601
122496
122495
122495
122497
122502
122509
122519
122533
122552
122580
122445
122442
122442
122444
122448
122456
122467
122482
122503
122533
122447
122443
122442
122443
122449
122457
122470
122488
122514
122552
122164
122160
122158
122159
122164
122172
122184
122198
122217
122244
122802
122794
122791
122792
122797
122806
122818
122833
122851
122874
128396
131457
131544
130077
128197
131570
131944
130797
128149
131746
132836
131918
128267
132125
133909
133231
128830
132961
135365
135353
129393
133657
136455
137008
129733
134001
137010
138001
130010
134190
137296
138643
129618
133642
136792
138457
128231
132001
135192
137289
122848
124161
124525
123938
122844
124364
124886
124516
122884
124600
125340
125216
123133
125038
126018
126105
123435
125440
126534
126735
123848
125910
127075
127490
124214
126293
127503
128123
124714
126772
128010
128825
124888
126881
128169
129178
124775
126710
128172
129376
121005
121588
121771
121603
121021
121741
122036
121964
121108
121987
122423
122452
121360
122404
122990
123137
121744
122937
123651
123918
122231
123545
124366
124772
122666
124071
124975
125526
123252
124709
125674
126368
123624
125070
126070
126887
123967
125338
126352
127224
119693
119963
120076
120040
119663
120013
120198
120223
119760
120208
120473
120568
120001
120555
120910
121090
120348
121001
121442
121718
120824
121571
122097
122487
121264
122091
122690
123195
121861
122746
123405
124022
122262
123166
123864
124573
122605
123497
124229
124981
119055
119187
119252
119252
118977
119159
119271
119314
119039
119286
119449
119536
119257
119575
119800
119947
119594
119985
120271
120485
120068
120532
120880
121171
120508
121037
121443
121813
121100
121681
122137
122585
121505
122110
122598
123112
121862
122466
122982
123530
118759
118826
118864
118871
118671
118768
118835
118873
118699
118839
118941
119009
118881
119068
119212
119323
119183
119419
119607
119765
119616
119904
120137
120347
120018
120353
120628
120893
120568
120945
121257
121576
120945
121345
121684
122047
121282
121692
122055
122443
118679
118714
118736
118743
118595
118649
118689
118715
118619
118699
118762
118811
118764
118876
118968
119046
119026
119172
119295
119405
119407
119589
119744
119889
119754
119970
120155
120337
120248
120495
120707
120925
120577
120843
121076
121323
120876
121154
121405
121669
118731
118750
118762
118767
118649
118679
118703
118721
118689
118735
118774
118807
118804
118871
118930
118983
119028
119119
119199
119274
119354
119469
119571
119670
119639
119778
119902
120025
120070
120231
120374
120522
120336
120513
120672
120838
120592
120780
120953
121130
118867
118877
118884
118887
118786
118803
118818
118829
118844
118872
118896
118917
118938
118979
119016
119052
119131
119188
119240
119290
119408
119481
119548
119615
119634
119724
119806
119890
120003
120108
120205
120304
120197
120316
120425
120535
120414
120541
120659
120778
119058
119064
119067
119070
118979
118988
118997
119004
119051
119067
119082
119095
119126
119151
119175
119198
119294
119330
119364
119398
119527
119574
119619
119664
119702
119761
119816
119873
120016
120086
120151
120218
120141
120221
120294
120368
120326
120412
120493
120573
119288
119291
119293
119295
119209
119215
119219
119224
119293
119303
119312
119320
119351
119366
119381
119396
119496
119519
119541
119563
119691
119722
119751
119782
119822
119860
119897
119935
120090
120136
120180
120225
120154
120208
120258
120308
120318
120376
120431
120484
119548
119550
119551
119552
119467
119470
119473
119476
119562
119568
119573
119578
119603
119612
119621
119631
119729
119743
119757
119772
119890
119909
119929
119949
119981
120007
120031
120057
120212
120243
120272
120303
120229
120264
120298
120331
120378
120417
120454
120490
119832
119833
119834
119834
119747
119748
119750
119752
119853
119856
119859
119863
119876
119882
119887
119894
119987
119996
120005
120014
120117
120130
120142
120156
120176
120192
120209
120226
120379
120399
120418
120438
120354
120378
120401
120423
120497
120523
120548
120572
120139
120139
120140
120140
120045
120046
120047
120048
120165
120166
120168
120170
120170
120172
120176
120180
120268
120273
120279
120285
120371
120379
120387
120396
120402
120413
120423
120434
120584
120596
120609
120622
120524
120539
120554
120569
120667
120684
120700
120716
120469
120469
120469
120470
120363
120363
120363
120365
120497
120498
120499
120500
120482
120483
120485
120488
120570
120573
120577
120581
120650
120654
120659
120665
120657
120663
120670
120677
120823
120831
120839
120848
120729
120739
120749
120758
120881
120893
120903
120913
120827
120826
120826
120827
120702
120701
120702
120703
120854
120854
120855
120855
120816
120816
120817
120819
120896
120897
120899
120902
120952
120954
120957
120961
120939
120943
120947
120952
121094
121099
121104
121109
120965
120971
120978
120984
121137
121144
121151
121157
121220
121219
121219
121220
121067
121066
121066
121068
121242
121242
121242
121243
121178
121178
121179
121180
121249
121249
121251
121253
121282
121284
121286
121288
121253
121255
121257
121261
121397
121400
121403
121406
121230
121234
121238
121242
121437
121441
121446
121450
121670
121669
121669
121670
121465
121464
121464
121465
121673
121673
121673
121673
121583
121583
121583
121584
121641
121642
121643
121644
121652
121653
121654
121656
121609
121610
121612
121614
121736
121738
121740
121742
121525
121527
121530
121532
121803
121805
121808
121811
122223
122221
122221
122223
121891
121890
121890
121891
122155
122156
122157
122155
122050
122051
122051
122051
122090
122092
122093
122092
122082
122084
122084
122084
122031
122032
122033
122034
122121
122125
122126
122125
121854
121857
121858
121859
122280
122281
122283
122285
122880
122879
122879
122880
122343
122342
122342
122343
122689
122696
122696
122690
122599
122604
122605
122600
122621
122628
122628
122622
122604
122612
122612
122606
122558
122565
122566
122560
122598
122608
122609
122601
122261
122266
122267
122265
122889
122893
122894
122893
122931
120344
118663
117376
116447
115732
115151
114663
114237
113862
124021
121113
119066
117682
116662
115855
115181
114598
114081
113629
124893
121742
119447
118028
116907
116009
115245
114574
113979
113507
126161
122737
120294
118723
117477
116461
115589
114816
114117
113588
127596
123726
121124
119362
117991
116857
115886
115024
114234
113660
129152
124698
122051
120079
118612
117371
116315
115377
114513
113880
130521
125418
122769
120580
119036
117695
116569
115565
114646
113974
131930
126191
123564
121169
119569
118144
116967
115914
114964
114229
132867
126581
123934
121370
119720
118227
117009
115919
114965
114182
133711
127154
124460
121773
120045
118479
117204
116067
115088
114262
122234
120554
119325
118349
117550
116887
116334
115873
115487
115172
122750
120916
119451
118315
117400
116650
116021
115485
115022
114628
123234
121317
119680
118452
117452
116627
115926
115316
114780
114347
123937
122113
120318
118976
117875
116952
116156
115455
114821
114320
124956
122972
121034
119539
118325
117297
116408
115622
114900
114347
126266
123883
121882
120208
118896
117768
116797
115937
115142
114528
127497
124603
122569
120695
119298
118073
117029
116104
115251
114594
128845
125378
123339
121269
119807
118500
117401
116424
115536
114820
129866
125781
123722
121482
119966
118586
117441
116421
115520
114758
130891
126227
124186
121828
120244
118801
117610
116553
115635
114847
121043
120224
119444
118744
118131
117603
117154
116779
116473
116236
121399
120429
119447
118588
117855
117233
116703
116250
115864
115543
121841
120762
119618
118645
117820
117118
116511
115984
115524
115152
122517
121408
120151
119076
118153
117354
116654
116036
115480
115034
123413
122183
120812
119597
118560
117656
116863
116160
115517
115011
124585
123067
121620
120237
119094
118089
117211
116433
115716
115145
125727
123803
122297
120720
119478
118373
117418
116572
115793
115177
127017
124599
123064
121291
119973
118781
117767
116865
116046
115371
128021
125044
123482
121539
120157
118887
117817
116867
116024
115305
128962
125482
123931
121868
120420
119088
117978
116993
116134
115391
119853
119500
119101
118698
118314
117962
117650
117384
117166
117000
120064
119634
119104
118572
118073
117618
117214
116860
116559
116311
120441
119937
119288
118642
118040
117495
117009
116579
116202
115895
121055
120517
119783
119032
118329
117686
117105
116583
116113
115729
121859
121234
120409
119530
118714
117966
117291
116683
116127
115678
122892
122082
121179
120149
119223
118373
117610
116925
116293
115776
123915
122814
121840
120632
119598
118646
117801
117044
116347
115781
125101
123616
122594
121201
120080
119037
118126
117311
116567
115944
126030
124094
123031
121468
120268
119139
118166
117298
116524
115860
126876
124540
123460
121770
120507
119320
118310
117410
116621
115935
119185
119030
118831
118610
118385
118168
117969
117796
117652
117544
119286
119101
118828
118516
118196
117887
117600
117342
117120
116939
119557
119340
118995
118593
118184
117790
117423
117090
116795
116555
120064
119839
119436
118946
118442
117952
117493
117071
116688
116370
120739
120481
120012
119416
118806
118216
117664
117156
116688
116304
121614
121262
120727
120006
119290
118600
117959
117371
116827
116374
122483
121954
121351
120478
119654
118861
118135
117474
116862
116357
123519
122729
122074
121039
120121
119237
118441
117718
117056
116494
124332
123214
122511
121314
120309
119334
118471
117695
116999
116398
125068
123645
122913
121596
120530
119502
118605
117799
117086
116464
118847
118779
118682
118566
118442
118317
118198
118092
118004
117937
118884
118808
118670
118493
118298
118098
117905
117728
117574
117449
119064
118985
118812
118575
118311
118040
117777
117531
117310
117130
119459
119393
119185
118883
118538
118183
117835
117506
117206
116953
120006
119945
119695
119312
118877
118430
117995
117584
117201
116884
120727
120637
120340
119859
119329
118788
118267
117777
117321
116935
121438
121259
120907
120305
119673
119034
118428
117866
117341
116902
122312
121981
121581
120845
120121
119394
118716
118090
117514
117019
122986
122442
121990
121113
120298
119482
118738
118060
117446
116915
123592
122841
122357
121376
120507
119642
118865
118158
117527
116975
118734
118704
118657
118598
118531
118462
118395
118334
118281
118242
118732
118701
118631
118532
118416
118292
118169
118053
117952
117868
118862
118841
118756
118620
118454
118274
118092
117917
117758
117628
119157
119159
119057
118876
118649
118399
118144
117897
117669
117474
119592
119616
119493
119255
118955
118627
118294
117972
117669
117415
120175
120206
120054
119746
119366
118956
118544
118147
117774
117455
120739
120740
120549
120149
119680
119182
118690
118222
117783
117412
121461
121389
121159
120655
120103
119521
118959
118430
117940
117515
121994
121798
121519
120898
120260
119598
118973
118395
117867
117408
122476
122156
121848
121145
120459
119752
119096
118490
117944
117464
118764
118751
118729
118699
118664
118627
118590
118556
118526
118503
118735
118722
118687
118632
118565
118491
118416
118343
118279
118226
118846
118846
118804
118726
118623
118506
118384
118264
118154
118064
119067
119089
119041
118934
118786
118614
118433
118253
118085
117941
119411
119461
119404
119259
119056
118821
118573
118327
118094
117897
119877
119950
119880
119686
119420
119116
118799
118486
118190
117933
120313
120388
120295
120035
119697
119317
118928
118550
118192
117887
120901
120952
120831
120496
120085
119633
119179
118743
118336
117981
121303
121291
121126
120701
120217
119695
119185
118704
118260
117874
121681
121605
121418
120932
120407
119845
119306
118799
118337
117929
118886
118881
118870
118855
118838
118818
118798
118780
118763
118750
118839
118835
118817
118788
118750
118707
118662
118618
118579
118545
118944
118949
118928
118883
118820
118746
118666
118586
118512
118452
119110
119134
119112
119048
118953
118837
118711
118585
118464
118361
119386
119435
119410
119321
119185
119020
118840
118658
118484
118337
119760
119835
119806
119685
119501
119280
119042
118803
118574
118374
120090
120182
120141
119975
119735
119452
119152
118855
118570
118327
120567
120661
120602
120384
120085
119741
119385
119036
118707
118418
120850
120918
120827
120545
120188
119787
119382
118993
118629
118312
121149
121190
121084
120758
120367
119933
119501
119088
118707
118369
119069
119068
119062
119055
119046
119036
119025
119015
119006
118999
119012
119010
119002
118986
118965
118941
118915
118889
118865
118845
119113
119118
119108
119082
119044
118998
118947
118895
118847
118809
119239
119257
119247
119209
119148
119072
118987
118900
118817
118745
119462
119501
119491
119436
119346
119232
119105
118974
118847
118741
119763
119825
119815
119739
119614
119456
119282
119104
118932
118781
120010
120092
120076
119971
119803
119597
119371
119144
118925
118737
120397
120492
120467
120327
120115
119860
119588
119316
119057
118828
120580
120670
120626
120442
120186
119886
119573
119267
118976
118723
120821
120905
120851
120638
120355
120028
119692
119364
119058
118785
119295
119295
119292
119288
119284
119279
119273
119268
119263
119259
119230
119230
119226
119218
119207
119193
119178
119163
119149
119137
119331
119335
119330
119315
119293
119264
119233
119200
119170
119146
119423
119437
119432
119409
119371
119322
119266
119208
119152
119104
119606
119634
119630
119596
119537
119460
119372
119281
119192
119117
119848
119894
119892
119844
119760
119650
119526
119397
119272
119161
120028
120092
120089
120022
119906
119759
119594
119425
119261
119120
120346
120426
120418
120329
120181
119997
119794
119588
119391
119215
120449
120536
120517
120401
120221
120003
119767
119532
119307
119109
120651
120739
120716
120580
120381
120140
119886
119632
119393
119179
119551
119552
119551
119549
119547
119544
119541
119538
119535
119533
119481
119481
119480
119476
119470
119462
119454
119445
119437
119430
119585
119588
119585
119577
119563
119546
119527
119506
119488
119474
119649
119658
119656
119642
119619
119588
119551
119513
119477
119445
119800
119819
119818
119797
119758
119707
119648
119586
119524
119473
119992
120025
120026
119996
119940
119866
119779
119688
119599
119520
120119
120166
120167
120125
120047
119944
119827
119705
119584
119482
120383
120446
120445
120390
120289
120159
120012
119861
119715
119582
120425
120498
120493
120420
120297
120142
119969
119794
119624
119475
120602
120678
120671
120586
120449
120277
120089
119899
119717
119554
119834
119834
119834
119833
119832
119830
119829
119827
119826
119825
119756
119757
119757
119755
119752
119748
119743
119738
119734
119729
119867
119868
119867
119862
119854
119844
119832
119819
119808
119801
119906
119912
119911
119903
119888
119869
119846
119822
119798
119778
120032
120045
120045
120032
120007
119974
119935
119893
119852
119818
120184
120206
120208
120189
120153
120103
120044
119982
119921
119866
120266
120299
120302
120276
120224
120154
120073
119987
119901
119829
120491
120537
120540
120506
120439
120349
120246
120137
120032
119935
120484
120540
120542
120498
120415
120307
120184
120057
119932
119823
120647
120706
120707
120655
120563
120443
120308
120170
120036
119915
120139
120140
120140
120140
120139
120138
120137
120137
120136
120135
120052
120053
120054
120053
120052
120050
120047
120045
120042
120039
120172
120173
120172
120170
120165
120159
120151
120143
120137
120133
120189
120192
120192
120187
120178
120166
120152
120137
120122
120109
120296
120304
120304
120296
120281
120259
120234
120207
120180
120158
120414
120429
120430
120419
120395
120363
120324
120282
120241
120204
120461
120483