/*--------------------------------*- C++ -*----------------------------------*\
| =========                 |                                                 |
| \\      /  F ield         | foam-extend: Open Source CFD                    |
|  \\    /   O peration     | Version:     4.0                                |
|   \\  /    A nd           | Web:         http://www.foam-extend.org         |
|    \\/     M anipulation  |                                                 |
\*---------------------------------------------------------------------------*/
FoamFile
{
    version     2.0;
    format      ascii;
    class       volScalarField;
    location    "200";
    object      T;
}
// * * * * * * * * * * * * * * * * * * * * * * * * * * * * * * * * * * * * * //

dimensions      [0 0 0 1 0 0 0];

internalField   nonuniform List<scalar> 
34480
(
284.324
283.922
283.503
283.055
282.536
281.94
281.367
281.164
281.794
284.533
284.51
284.046
283.573
283.076
282.516
281.831
281.029
280.352
280.153
281.821
284.985
284.473
283.927
283.337
282.664
281.845
280.833
279.801
278.957
279.537
285.285
284.686
284.043
283.341
282.549
281.601
280.419
279.099
277.683
277.214
285.532
284.856
284.129
283.335
282.444
281.386
280.062
278.499
276.547
275.018
285.837
285.096
284.304
283.442
282.479
281.34
279.91
278.15
275.705
273.137
286.06
285.274
284.441
283.542
282.544
281.367
279.88
277.977
275.087
271.506
286.206
285.394
284.546
283.639
282.643
281.48
280.004
278.039
274.76
270.165
286.103
285.292
284.451
283.552
282.562
281.421
279.989
278.021
274.352
268.781
286.675
285.872
285.035
284.141
283.167
282.064
280.719
278.865
274.871
268.127
285.3
285.119
284.988
284.933
284.966
285.122
285.468
286.084
287.158
289.487
285.016
284.743
284.516
284.354
284.281
284.318
284.536
285.051
286.005
288.377
285.15
284.817
284.505
284.231
284.017
283.893
283.925
284.265
285.048
287.412
285.175
284.764
284.362
283.983
283.647
283.387
283.268
283.449
284.051
286.343
285.198
284.722
284.253
283.795
283.369
283.004
282.758
282.792
283.206
285.395
285.305
284.78
284.264
283.753
283.266
282.824
282.478
282.376
282.586
284.587
285.37
284.818
284.28
283.747
283.236
282.757
282.345
282.128
282.119
283.838
285.411
284.849
284.31
283.78
283.274
282.797
282.368
282.074
281.836
283.167
285.273
284.722
284.2
283.687
283.197
282.737
282.323
281.996
281.487
282.301
285.794
285.249
284.731
284.227
283.756
283.33
282.968
282.688
281.887
281.751
286.168
286.065
286.024
286.061
286.191
286.436
286.832
287.419
288.262
289.482
285.71
285.515
285.379
285.325
285.377
285.572
285.965
286.63
287.666
289.241
285.72
285.46
285.238
285.078
285.01
285.077
285.36
285.977
287.071
288.939
285.666
285.329
285.018
284.755
284.569
284.514
284.682
285.226
286.333
288.438
285.641
285.24
284.859
284.514
284.235
284.075
284.13
284.58
285.646
287.903
285.709
285.256
284.823
284.419
284.071
283.827
283.782
284.128
285.109
287.431
285.743
285.26
284.8
284.365
283.979
283.683
283.562
283.803
284.663
286.961
285.76
285.263
284.794
284.35
283.954
283.638
283.473
283.626
284.334
286.522
285.604
285.115
284.657
284.225
283.835
283.517
283.334
283.423
283.943
285.948
286.083
285.599
285.143
284.717
284.343
284.049
283.877
283.945
284.247
285.888
286.821
286.769
286.77
286.837
286.975
287.193
287.497
287.886
288.358
288.944
286.302
286.172
286.102
286.112
286.219
286.445
286.818
287.365
288.11
289.053
286.225
286.032
285.887
285.814
285.84
285.998
286.341
286.931
287.829
289.075
286.107
285.842
285.615
285.452
285.384
285.457
285.743
286.339
287.35
288.879
286.038
285.71
285.416
285.176
285.024
285.013
285.229
285.801
286.878
288.641
286.066
285.687
285.339
285.039
284.82
284.737
284.881
285.407
286.505
288.442
286.071
285.659
285.279
284.943
284.682
284.547
284.629
285.097
286.173
288.214
286.069
285.638
285.244
284.892
284.61
284.445
284.483
284.889
285.903
287.977
285.915
285.487
285.098
284.751
284.468
284.29
284.297
284.645
285.548
287.594
286.367
285.942
285.551
285.205
284.929
284.761
284.762
285.073
285.81
287.696
287.265
287.24
287.253
287.311
287.416
287.569
287.765
287.991
288.222
288.459
286.776
286.692
286.66
286.692
286.8
286.993
287.283
287.676
288.168
288.732
286.662
286.523
286.433
286.41
286.475
286.648
286.959
287.435
288.095
288.911
286.508
286.304
286.144
286.051
286.051
286.177
286.476
287.003
287.805
288.869
286.408
286.146
285.925
285.766
285.7
285.771
286.039
286.587
287.501
288.793
286.405
286.093
285.82
285.606
285.483
285.5
285.729
286.279
287.273
288.762
286.386
286.039
285.733
285.483
285.32
285.294
285.485
286.018
287.058
288.701
286.369
286.001
285.676
285.405
285.218
285.163
285.32
285.825
286.87
288.615
286.22
285.849
285.524
285.253
285.061
284.99
285.12
285.585
286.584
288.369
286.646
286.275
285.945
285.671
285.479
285.412
285.532
285.966
286.86
288.573
287.556
287.545
287.557
287.598
287.668
287.763
287.879
287.999
288.097
288.161
287.144
287.09
287.077
287.112
287.201
287.346
287.552
287.816
288.136
288.499
287.029
286.931
286.877
286.881
286.954
287.108
287.357
287.713
288.182
288.745
286.862
286.709
286.601
286.553
286.587
286.723
286.988
287.409
288.009
288.766
286.746
286.541
286.38
286.281
286.269
286.374
286.636
287.102
287.817
288.764
286.72
286.469
286.261
286.115
286.06
286.132
286.382
286.879
287.693
288.818
286.683
286.397
286.156
285.977
285.889
285.932
286.167
286.678
287.568
288.848
286.655
286.346
286.084
285.883
285.772
285.792
286.009
286.518
287.452
288.851
286.51
286.195
285.929
285.724
285.607
285.614
285.813
286.305
287.232
288.686
286.911
286.594
286.32
286.109
285.988
285.995
286.187
286.662
287.535
288.953
287.741
287.738
287.746
287.772
287.814
287.87
287.934
287.993
288.021
287.995
287.421
287.388
287.384
287.413
287.478
287.58
287.718
287.893
288.106
288.356
287.329
287.262
287.231
287.245
287.31
287.434
287.621
287.88
288.216
288.629
287.167
287.056
286.984
286.964
287.01
287.133
287.347
287.668
288.11
288.671
287.048
286.892
286.777
286.719
286.736
286.847
287.075
287.446
287.987
288.695
287.009
286.811
286.656
286.561
286.549
286.644
286.879
287.293
287.929
288.782
286.96
286.728
286.544
286.42
286.384
286.463
286.701
287.147
287.865
288.852
286.923
286.669
286.463
286.32
286.265
286.33
286.563
287.026
287.801
288.896
286.784
286.52
286.307
286.157
286.096
286.155
286.382
286.845
287.633
288.77
287.159
286.891
286.669
286.513
286.446
286.502
286.727
287.188
287.956
289.066
287.861
287.862
287.867
287.882
287.906
287.937
287.971
287.998
287.991
287.917
287.631
287.611
287.61
287.631
287.676
287.744
287.836
287.952
288.098
288.285
287.57
287.526
287.508
287.524
287.576
287.669
287.806
287.991
288.238
288.56
287.426
287.347
287.3
287.295
287.34
287.441
287.605
287.842
288.168
288.603
287.312
287.196
287.116
287.085
287.115
287.215
287.4
287.683
288.087
288.631
287.267
287.115
287.002
286.944
286.956
287.054
287.256
287.584
288.067
288.722
287.211
287.028
286.89
286.809
286.806
286.899
287.115
287.482
288.039
288.802
287.171
286.966
286.808
286.71
286.693
286.781
287.003
287.397
288.011
288.859
287.036
286.819
286.652
286.548
286.527
286.612
286.838
287.244
287.877
288.743
287.386
287.165
286.988
286.876
286.85
286.934
287.161
287.575
288.209
289.049
287.944
287.947
287.95
287.959
287.972
287.989
288.006
288.016
287.991
287.892
287.794
287.781
287.781
287.796
287.825
287.87
287.93
288.008
288.112
288.262
287.764
287.734
287.725
287.739
287.778
287.845
287.942
288.076
288.261
288.525
287.642
287.587
287.557
287.559
287.598
287.675
287.796
287.968
288.211
288.559
287.539
287.455
287.401
287.386
287.418
287.501
287.643
287.853
288.152
288.581
287.495
287.38
287.3
287.267
287.29
287.379
287.542
287.793
288.152
288.663
287.436
287.294
287.193
287.144
287.158
287.25
287.433
287.723
288.144
288.735
287.396
287.233
287.115
287.052
287.059
287.152
287.348
287.667
288.137
288.79
287.265
287.091
286.963
286.893
286.897
286.992
287.198
287.535
288.023
288.67
287.59
287.411
287.274
287.197
287.197
287.291
287.503
287.853
288.354
288.973
288.008
288.012
288.014
288.019
288.026
288.035
288.044
288.044
288.013
287.9
287.925
287.917
287.917
287.927
287.946
287.975
288.014
288.067
288.145
288.27
287.921
287.902
287.896
287.907
287.936
287.983
288.051
288.146
288.289
288.513
287.822
287.784
287.765
287.77
287.8
287.857
287.943
288.066
288.248
288.535
287.732
287.672
287.636
287.631
287.66
287.725
287.83
287.981
288.201
288.546
287.691
287.607
287.552
287.535
287.561
287.635
287.762
287.946
288.21
288.614
287.633
287.526
287.454
287.425
287.449
287.531
287.679
287.898
288.21
288.671
287.597
287.471
287.384
287.345
287.365
287.453
287.617
287.865
288.215
288.717
287.47
287.333
287.237
287.192
287.211
287.302
287.479
287.748
288.113
288.589
287.769
287.627
287.523
287.473
287.489
287.582
287.766
288.05
288.432
288.879
288.063
288.066
288.068
288.071
288.075
288.08
288.084
288.081
288.047
287.928
288.037
288.032
288.032
288.038
288.05
288.069
288.094
288.131
288.192
288.299
288.052
288.039
288.036
288.044
288.064
288.096
288.143
288.211
288.324
288.518
287.971
287.946
287.934
287.939
287.962
288.002
288.061
288.147
288.284
288.527
287.895
287.854
287.83
287.83
287.853
287.902
287.977
288.083
288.243
288.526
287.86
287.799
287.762
287.754
287.779
287.838
287.932
288.064
288.255
288.577
287.805
287.726
287.675
287.66
287.685
287.753
287.868
288.029
288.255
288.616
287.774
287.679
287.617
287.594
287.619
287.695
287.826
288.013
288.267
288.653
287.65
287.545
287.475
287.448
287.472
287.554
287.698
287.904
288.17
288.519
287.924
287.815
287.738
287.706
287.73
287.814
287.966
288.188
288.47
288.788
288.114
288.117
288.118
288.12
288.122
288.125
288.127
288.123
288.089
287.967
288.137
288.134
288.134
288.138
288.146
288.157
288.174
288.2
288.247
288.34
288.165
288.157
288.155
288.161
288.174
288.195
288.226
288.275
288.364
288.533
288.098
288.081
288.074
288.078
288.093
288.121
288.161
288.22
288.323
288.53
288.034
288.005
287.99
287.991
288.01
288.045
288.096
288.169
288.286
288.52
288.004
287.961
287.937
287.934
287.955
287.999
288.067
288.159
288.296
288.555
287.952
287.895
287.86
287.853
287.876
287.93
288.015
288.131
288.292
288.576
287.928
287.858
287.815
287.803
287.827
287.889
287.99
288.127
288.308
288.605
287.807
287.728
287.678
287.663
287.688
287.756
287.868
288.022
288.212
288.469
288.056
287.974
287.918
287.9
287.925
287.996
288.116
288.283
288.488
288.71
288.164
288.167
288.168
288.169
288.171
288.173
288.174
288.169
288.138
288.016
288.231
288.229
288.229
288.231
288.236
288.243
288.254
288.272
288.309
288.39
288.266
288.261
288.26
288.263
288.272
288.285
288.305
288.34
288.409
288.557
288.206
288.195
288.19
288.193
288.204
288.222
288.248
288.288
288.366
288.543
288.152
288.133
288.123
288.125
288.138
288.163
288.197
288.246
288.33
288.526
288.127
288.097
288.081
288.081
288.097
288.13
288.177
288.24
288.337
288.548
288.077
288.037
288.014
288.011
288.03
288.071
288.132
288.213
288.326
288.553
288.063
288.012
287.983
287.977
287.998
288.047
288.121
288.218
288.346
288.577
287.943
287.885
287.85
287.842
287.864
287.918
288.002
288.114
288.248
288.439
288.168
288.108
288.069
288.059
288.082
288.139
288.23
288.352
288.496
288.65
288.215
288.219
288.221
288.222
288.223
288.224
288.224
288.22
288.192
288.072
288.321
288.319
288.319
288.321
288.323
288.328
288.334
288.347
288.376
288.446
288.36
288.356
288.355
288.358
288.363
288.371
288.384
288.407
288.46
288.588
288.3
288.293
288.29
288.292
288.299
288.311
288.327
288.354
288.412
288.563
288.254
288.242
288.236
288.237
288.247
288.263
288.286
288.318
288.379
288.543
288.232
288.212
288.202
288.202
288.215
288.237
288.27
288.312
288.38
288.554
288.184
288.157
288.141
288.141
288.156
288.185
288.228
288.284
288.363
288.545
288.18
288.145
288.125
288.122
288.14
288.175
288.229
288.296
288.385
288.568
288.059
288.017
287.994
287.99
288.008
288.049
288.11
288.188
288.282
288.43
288.263
288.22
288.193
288.188
288.208
288.251
288.318
288.404
288.503
288.609
288.267
288.276
288.279
288.279
288.28
288.281
288.281
288.278
288.254
288.138
288.407
288.406
288.405
288.406
288.408
288.41
288.414
288.423
288.446
288.507
288.448
288.446
288.445
288.447
288.45
288.454
288.462
288.477
288.518
288.626
288.384
288.379
288.377
288.379
288.383
288.39
288.4
288.418
288.461
288.59
288.345
288.336
288.333
288.334
288.34
288.351
288.366
288.386
288.431
288.57
288.323
288.31
288.304
288.305
288.313
288.329
288.35
288.378
288.427
288.572
288.277
288.258
288.248
288.248
288.259
288.28
288.309
288.347
288.403
288.552
288.283
288.258
288.245
288.245
288.258
288.284
288.32
288.366
288.429
288.577
288.158
288.129
288.114
288.112
288.127
288.156
288.199
288.252
288.317
288.436
288.344
288.315
288.297
288.295
288.31
288.342
288.389
288.449
288.515
288.586
288.326
288.341
288.345
288.346
288.346
288.346
288.347
288.345
288.325
288.217
288.489
288.488
288.488
288.488
288.489
288.49
288.493
288.499
288.518
288.572
288.534
288.532
288.532
288.532
288.534
288.537
288.541
288.55
288.581
288.673
288.46
288.457
288.455
288.456
288.459
288.463
288.469
288.481
288.514
288.624
288.426
288.421
288.419
288.42
288.424
288.431
288.44
288.454
288.488
288.606
288.404
288.396
288.392
288.393
288.399
288.409
288.423
288.442
288.478
288.6
288.358
288.346
288.339
288.34
288.347
288.361
288.381
288.406
288.446
288.572
288.374
288.358
288.35
288.35
288.36
288.377
288.402
288.433
288.477
288.601
288.244
288.224
288.214
288.214
288.224
288.244
288.273
288.309
288.353
288.455
288.417
288.397
288.386
288.386
288.397
288.419
288.451
288.491
288.535
288.583
288.396
288.421
288.426
288.427
288.427
288.427
288.427
288.426
288.412
288.313
288.567
288.567
288.566
288.566
288.566
288.567
288.568
288.573
288.59
288.638
288.618
288.617
288.616
288.616
288.617
288.619
288.621
288.627
288.651
288.73
288.531
288.529
288.528
288.529
288.53
288.533
288.537
288.544
288.57
288.665
288.503
288.5
288.498
288.499
288.502
288.506
288.512
288.522
288.548
288.65
288.479
288.473
288.471
288.472
288.476
288.482
288.492
288.504
288.532
288.638
288.432
288.424
288.42
288.421
288.426
288.435
288.448
288.464
288.493
288.601
288.458
288.447
288.442
288.443
288.45
288.462
288.478
288.498
288.53
288.636
288.317
288.304
288.298
288.298
288.306
288.32
288.339
288.362
288.392
288.481
288.488
288.475
288.468
288.469
288.477
288.492
288.514
288.54
288.568
288.599
288.491
288.526
288.532
288.533
288.533
288.533
288.533
288.532
288.523
288.441
288.639
288.638
288.638
288.638
288.638
288.638
288.639
288.643
288.658
288.702
288.701
288.701
288.7
288.701
288.701
288.702
288.704
288.709
288.728
288.796
288.602
288.601
288.6
288.601
288.602
288.604
288.606
288.612
288.633
288.715
288.578
288.576
288.576
288.577
288.579
288.582
288.586
288.593
288.614
288.703
288.55
288.547
288.546
288.547
288.55
288.555
288.561
288.57
288.591
288.682
288.502
288.498
288.496
288.496
288.5
288.507
288.515
288.527
288.548
288.64
288.534
288.528
288.525
288.526
288.531
288.539
288.551
288.565
288.588
288.679
288.38
288.372
288.368
288.369
288.374
288.384
288.396
288.412
288.433
288.509
288.569
288.561
288.557
288.558
288.564
288.575
288.589
288.606
288.624
288.645
288.671
288.682
288.685
288.685
288.686
288.686
288.687
288.687
288.684
288.625
288.697
288.696
288.696
288.696
288.696
288.696
288.697
288.701
288.713
288.753
288.783
288.783
288.784
288.784
288.785
288.787
288.789
288.794
288.81
288.868
288.68
288.679
288.679
288.68
288.681
288.683
288.686
288.691
288.707
288.775
288.658
288.657
288.658
288.659
288.661
288.664
288.669
288.675
288.692
288.764
288.626
288.624
288.624
288.625
288.628
288.633
288.639
288.646
288.663
288.737
288.578
288.576
288.575
288.576
288.579
288.585
288.592
288.601
288.618
288.691
288.604
288.6
288.599
288.6
288.604
288.611
288.62
288.632
288.651
288.723
288.432
288.427
288.425
288.426
288.43
288.438
288.447
288.459
288.474
288.535
288.685
288.679
288.677
288.678
288.683
288.691
288.701
288.714
288.727
288.742
288.893
288.895
288.895
288.896
288.898
288.9
288.902
288.905
288.908
288.887
288.738
288.738
288.738
288.738
288.738
288.739
288.739
288.742
288.749
288.777
288.87
288.87
288.871
288.872
288.874
288.877
288.881
288.886
288.898
288.941
288.78
288.779
288.78
288.781
288.783
288.786
288.789
288.795
288.807
288.852
288.761
288.761
288.761
288.763
288.766
288.769
288.775
288.782
288.795
288.843
288.729
288.728
288.728
288.729
288.732
288.737
288.743
288.752
288.766
288.815
288.684
288.682
288.682
288.683
288.686
288.691
288.698
288.708
288.723
288.771
288.688
288.686
288.685
288.686
288.69
288.696
288.705
288.716
288.734
288.785
288.497
288.493
288.492
288.493
288.496
288.502
288.51
288.521
288.534
288.573
288.863
288.858
288.856
288.857
288.86
288.867
288.875
288.886
288.898
288.914
293.921
297.943
298.996
297.3
293.33
297.627
298.978
298.114
293.17
297.74
299.487
299.494
292.873
297.652
299.727
300.263
292.429
297.235
299.366
299.871
292.112
296.897
299.105
299.838
291.909
296.642
298.925
299.93
291.795
296.438
298.78
300.044
291.552
296.105
298.522
300.046
291.279
295.745
298.279
300.129
293.708
294.972
295.199
294.48
293.627
295.048
295.414
294.799
293.877
295.436
295.998
295.591
294.097
295.787
296.496
296.263
294.425
296.195
296.973
296.873
294.747
296.541
297.33
297.283
295.006
296.799
297.598
297.634
295.213
296.991
297.802
297.932
295.194
296.971
297.82
298.073
294.889
296.803
297.825
298.357
291.04
291.612
291.8
291.563
291.088
291.836
292.092
291.865
291.433
292.29
292.638
292.508
291.698
292.666
293.102
293.039
291.973
293.029
293.521
293.512
292.315
293.445
293.991
294.07
292.642
293.833
294.432
294.604
292.955
294.189
294.839
295.104
293.093
294.35
295.046
295.417
293.155
294.406
295.223
295.858
289.858
290.095
290.193
290.158
289.912
290.309
290.463
290.387
290.267
290.741
290.953
290.914
290.504
291.061
291.333
291.34
290.765
291.401
291.732
291.792
291.107
291.816
292.205
292.333
291.443
292.218
292.663
292.861
291.777
292.606
293.1
293.369
291.971
292.831
293.369
293.719
292.252
293.086
293.71
294.285
289.118
289.205
289.263
289.292
289.196
289.428
289.524
289.487
289.568
289.851
289.984
289.97
289.777
290.118
290.294
290.313
289.996
290.394
290.615
290.677
290.301
290.757
291.027
291.14
290.607
291.116
291.434
291.6
290.91
291.468
291.829
292.049
291.067
291.655
292.053
292.339
291.32
291.883
292.361
292.861
288.725
288.741
288.775
288.824
288.803
288.957
289.015
288.978
289.185
289.378
289.46
289.433
289.37
289.602
289.715
289.71
289.556
289.829
289.974
289.999
289.826
290.139
290.321
290.382
290.096
290.448
290.665
290.764
290.358
290.746
290.996
291.134
290.461
290.869
291.145
291.331
290.681
291.061
291.398
291.768
288.516
288.497
288.515
288.571
288.584
288.698
288.732
288.688
288.969
289.113
289.164
289.12
289.129
289.302
289.373
289.342
289.282
289.483
289.577
289.566
289.514
289.742
289.86
289.875
289.743
289.998
290.141
290.182
289.961
290.239
290.406
290.474
290.001
290.29
290.473
290.575
290.18
290.438
290.668
290.92
288.414
288.376
288.387
288.445
288.474
288.565
288.585
288.534
288.846
288.964
288.994
288.938
288.982
289.122
289.166
289.116
289.108
289.266
289.326
289.288
289.302
289.479
289.556
289.535
289.493
289.687
289.78
289.778
289.668
289.878
289.987
290.004
289.649
289.861
289.979
290.018
289.792
289.971
290.124
290.282
288.374
288.325
288.33
288.391
288.428
288.506
288.518
288.463
288.779
288.88
288.898
288.833
288.891
289.009
289.036
288.974
288.99
289.122
289.16
289.104
289.151
289.296
289.345
289.301
289.305
289.461
289.521
289.49
289.443
289.608
289.679
289.661
289.373
289.534
289.609
289.607
289.487
289.614
289.714
289.807
288.369
288.311
288.314
288.378
288.421
288.491
288.498
288.442
288.746
288.837
288.848
288.779
288.835
288.939
288.956
288.886
288.91
289.024
289.048
288.982
289.04
289.163
289.195
289.136
289.16
289.29
289.33
289.28
289.268
289.403
289.449
289.409
289.158
289.288
289.336
289.308
289.249
289.343
289.408
289.455
288.382
288.319
288.321
288.387
288.438
288.501
288.505
288.45
288.735
288.819
288.825
288.755
288.803
288.898
288.908
288.835
288.857
288.959
288.974
288.903
288.96
289.068
289.088
289.021
289.049
289.162
289.187
289.127
289.132
289.247
289.277
289.224
288.997
289.105
289.136
289.095
289.065
289.138
289.18
289.197
288.406
288.339
288.34
288.409
288.469
288.527
288.529
288.476
288.737
288.814
288.818
288.748
288.787
288.874
288.88
288.807
288.825
288.917
288.927
288.854
288.903
289
289.013
288.943
288.966
289.066
289.082
289.017
289.031
289.131
289.151
289.091
288.883
288.975
288.996
288.947
288.927
288.986
289.013
289.011
288.436
288.366
288.366
288.438
288.509
288.562
288.563
288.513
288.747
288.818
288.821
288.754
288.782
288.861
288.865
288.794
288.807
288.891
288.898
288.826
288.867
288.954
288.962
288.893
288.907
288.996
289.007
288.94
288.96
289.049
289.062
289
288.807
288.888
288.902
288.85
288.826
288.877
288.894
288.88
288.47
288.396
288.397
288.471
288.556
288.604
288.605
288.558
288.763
288.828
288.829
288.767
288.784
288.856
288.859
288.791
288.802
288.878
288.882
288.814
288.846
288.925
288.93
288.863
288.868
288.948
288.955
288.89
288.915
288.994
289.003
288.941
288.764
288.837
288.846
288.793
288.757
288.802
288.813
288.79
288.508
288.433
288.433
288.508
288.608
288.651
288.652
288.609
288.785
288.844
288.845
288.788
288.792
288.858
288.86
288.797
288.807
288.876
288.879
288.815
288.839
288.91
288.914
288.851
288.847
288.919
288.924
288.862
288.893
288.964
288.97
288.91
288.749
288.815
288.822
288.768
288.713
288.754
288.761
288.734
288.551
288.476
288.476
288.551
288.664
288.703
288.704
288.665
288.817
288.869
288.869
288.818
288.809
288.868
288.869
288.812
288.824
288.886
288.888
288.829
288.846
288.91
288.913
288.854
288.843
288.908
288.911
288.852
288.892
288.956
288.96
288.904
288.755
288.818
288.822
288.768
288.692
288.729
288.734
288.704
288.604
288.532
288.532
288.604
288.725
288.76
288.76
288.725
288.86
288.906
288.907
288.861
288.836
288.889
288.89
288.838
288.852
288.909
288.91
288.856
288.867
288.925
288.927
288.872
288.855
288.914
288.916
288.861
288.911
288.97
288.973
288.918
288.777
288.837
288.84
288.785
288.692
288.725
288.728
288.699
288.676
288.611
288.611
288.675
288.784
288.817
288.817
288.785
288.918
288.959
288.959
288.918
288.875
288.923
288.924
288.876
288.894
288.946
288.947
288.896
288.901
288.956
288.957
288.904
288.883
288.939
288.94
288.887
288.945
289.001
289.003
288.95
288.804
288.865
288.867
288.809
288.72
288.749
288.75
288.724
288.788
288.738
288.738
288.788
288.831
288.861
288.862
288.832
288.983
289.021
289.021
288.984
288.925
288.97
288.97
288.926
288.945
288.993
288.993
288.946
288.945
288.996
288.997
288.946
288.922
288.976
288.977
288.925
288.981
289.036
289.037
288.984
288.82
288.88
288.881
288.823
288.797
288.82
288.821
288.8
288.96
288.938
288.938
288.96
288.843
288.867
288.867
288.843
289.04
289.072
289.072
289.04
288.978
289.015
289.016
288.979
288.995
289.036
289.036
288.996
288.989
289.033
289.034
288.99
288.963
289.01
289.011
288.965
289.004
289.054
289.055
289.006
288.804
288.857
288.858
288.807
288.951
288.966
288.967
288.953
291.094
288.883
287.876
287.273
286.776
286.307
285.882
285.482
285.096
284.714
292.16
290.238
288.944
288.11
287.427
286.85
286.332
285.849
285.39
284.953
293.397
291.227
289.777
288.82
288.058
287.426
286.868
286.355
285.879
285.445
294.518
292.251
290.674
289.593
288.743
288.031
287.402
286.824
286.286
285.807
295.998
293.2
291.501
290.298
289.362
288.574
287.878
287.238
286.637
286.116
297.36
294.149
292.349
291.038
290.026
289.168
288.409
287.708
287.047
286.48
298.432
294.975
293.072
291.664
290.579
289.653
288.833
288.073
287.357
286.753
299.288
295.735
293.725
292.23
291.066
290.066
289.178
288.358
287.589
286.935
299.872
296.327
294.203
292.609
291.331
290.227
289.25
288.358
287.541
286.844
300.516
297.326
295.144
293.511
292.14
290.965
289.924
288.976
288.114
287.362
291.703
289.991
288.857
288.012
287.368
286.858
286.44
286.091
285.791
285.527
292.196
290.39
289.073
288.139
287.44
286.884
286.414
286.003
285.638
285.313
292.734
290.794
289.382
288.437
287.716
287.134
286.638
286.201
285.813
285.475
293.3
291.318
289.847
288.844
288.063
287.421
286.867
286.376
285.935
285.553
294.041
291.893
290.331
289.235
288.383
287.678
287.071
286.53
286.041
285.622
294.967
292.51
290.876
289.676
288.762
287.999
287.345
286.758
286.226
285.771
295.789
293.012
291.315
290.008
289.042
288.226
287.531
286.906
286.342
285.863
296.528
293.438
291.703
290.293
289.281
288.414
287.68
287.021
286.43
285.925
297.076
293.653
291.933
290.406
289.337
288.4
287.618
286.924
286.315
285.794
297.821
294.203
292.644
291.066
289.967
288.989
288.176
287.452
286.822
286.277
290.389
289.591
288.936
288.37
287.879
287.458
287.1
286.797
286.545
286.333
290.972
289.978
289.124
288.422
287.834
287.337
286.911
286.542
286.221
285.946
291.488
290.375
289.42
288.663
288.036
287.508
287.052
286.651
286.299
285.995
291.987
290.831
289.798
288.978
288.295
287.713
287.204
286.752
286.347
285.997
292.626
291.346
290.223
289.318
288.568
287.926
287.365
286.864
286.41
286.018
293.428
291.933
290.731
289.73
288.916
288.216
287.606
287.058
286.559
286.129
294.198
292.433
291.156
290.052
289.18
288.425
287.771
287.184
286.651
286.193
294.926
292.854
291.526
290.32
289.399
288.592
287.899
287.278
286.717
286.233
295.467
293.04
291.722
290.397
289.42
288.549
287.815
287.163
286.587
286.087
296.214
293.537
292.376
290.99
289.992
289.092
288.334
287.661
287.071
286.553
289.435
289.127
288.779
288.421
288.082
287.775
287.507
287.278
287.089
286.932
290.037
289.494
288.949
288.449
288
287.604
287.257
286.955
286.696
286.478
290.541
289.888
289.246
288.678
288.177
287.737
287.348
287.004
286.703
286.446
290.98
290.277
289.569
288.939
288.38
287.885
287.442
287.046
286.69
286.384
291.5
290.73
289.951
289.243
288.618
288.063
287.567
287.119
286.714
286.363
292.173
291.275
290.427
289.631
288.94
288.325
287.777
287.281
286.829
286.436
292.844
291.759
290.842
289.946
289.191
288.518
287.923
287.386
286.896
286.472
293.503
292.173
291.205
290.209
289.4
288.672
288.036
287.464
286.946
286.495
294.012
292.37
291.406
290.288
289.421
288.632
287.957
287.355
286.821
286.353
294.8
292.903
292.048
290.861
289.974
289.155
288.458
287.837
287.289
286.804
288.718
288.657
288.506
288.312
288.107
287.911
287.732
287.577
287.447
287.338
289.305
288.997
288.671
288.346
288.037
287.75
287.491
287.262
287.066
286.903
289.776
289.384
288.977
288.584
288.214
287.873
287.563
287.285
287.041
286.834
290.142
289.717
289.26
288.81
288.383
287.986
287.621
287.289
286.991
286.734
290.564
290.109
289.602
289.086
288.596
288.14
287.72
287.336
286.986
286.682
291.121
290.605
290.046
289.453
288.897
288.379
287.905
287.471
287.072
286.724
291.69
291.061
290.444
289.761
289.139
288.561
288.036
287.558
287.12
286.738
292.255
291.458
290.798
290.021
289.341
288.708
288.141
287.626
287.157
286.747
292.682
291.66
290.995
290.104
289.366
288.675
288.069
287.525
287.039
286.611
293.434
292.218
291.618
290.658
289.898
289.178
288.551
287.988
287.489
287.044
288.301
288.348
288.299
288.2
288.084
287.967
287.856
287.758
287.675
287.602
288.839
288.638
288.436
288.231
288.027
287.831
287.65
287.487
287.347
287.231
289.271
288.997
288.73
288.464
288.203
287.952
287.718
287.504
287.316
287.158
289.557
289.266
288.967
288.657
288.345
288.042
287.754
287.488
287.247
287.04
289.883
289.588
289.261
288.902
288.535
288.175
287.834
287.516
287.224
286.971
290.331
290.02
289.663
289.242
288.814
288.395
287.999
287.63
287.289
286.99
290.793
290.43
290.033
289.536
289.044
288.565
288.117
287.703
287.32
286.986
291.253
290.798
290.368
289.79
289.24
288.706
288.215
287.763
287.348
286.985
291.573
290.99
290.552
289.874
289.269
288.682
288.152
287.671
287.237
286.855
292.257
291.559
291.152
290.411
289.78
289.163
288.613
288.113
287.666
287.267
288.07
288.165
288.166
288.12
288.058
287.992
287.927
287.869
287.819
287.771
288.558
288.407
288.274
288.145
288.014
287.886
287.765
287.654
287.558
287.479
288.95
288.729
288.54
288.359
288.18
288.003
287.833
287.677
287.539
287.422
289.166
288.933
288.727
288.516
288.297
288.074
287.857
287.652
287.465
287.304
289.408
289.184
288.97
288.726
288.461
288.189
287.921
287.667
287.432
287.227
289.758
289.547
289.32
289.032
288.714
288.387
288.067
287.763
287.48
287.23
290.121
289.9
289.651
289.304
288.928
288.544
288.174
287.824
287.499
287.214
290.479
290.225
289.957
289.544
289.114
288.679
288.265
287.878
287.52
287.205
290.689
290.394
290.117
289.625
289.144
288.66
288.209
287.793
287.415
287.08
291.295
290.952
290.686
290.139
289.632
289.119
288.648
288.213
287.822
287.47
287.957
288.073
288.097
288.079
288.047
288.011
287.974
287.941
287.912
287.88
288.404
288.278
288.184
288.099
288.016
287.934
287.856
287.784
287.721
287.669
288.754
288.557
288.413
288.288
288.166
288.044
287.926
287.816
287.718
287.636
288.913
288.703
288.552
288.408
288.257
288.098
287.94
287.788
287.648
287.527
289.086
288.89
288.742
288.579
288.393
288.194
287.991
287.795
287.611
287.45
289.355
289.184
289.037
288.845
288.616
288.369
288.119
287.876
287.647
287.444
289.632
289.476
289.321
289.086
288.808
288.51
288.212
287.925
287.656
287.419
289.902
289.752
289.59
289.306
288.981
288.636
288.297
287.973
287.672
287.406
290.013
289.886
289.721
289.376
289.007
288.619
288.246
287.895
287.572
287.286
290.544
290.416
290.251
289.863
289.467
289.052
288.659
288.29
287.954
287.651
287.914
288.038
288.072
288.068
288.053
288.033
288.013
287.995
287.978
287.956
288.332
288.22
288.148
288.091
288.038
287.986
287.937
287.891
287.851
287.818
288.642
288.458
288.342
288.252
288.169
288.087
288.007
287.932
287.865
287.808
288.752
288.554
288.437
288.338
288.235
288.125
288.014
287.905
287.803
287.715
288.871
288.686
288.579
288.471
288.343
288.2
288.052
287.905
287.766
287.643
289.074
288.917
288.819
288.692
288.532
288.35
288.16
287.972
287.792
287.633
289.28
289.149
289.052
288.896
288.697
288.471
288.239
288.01
287.794
287.602
289.478
289.376
289.281
289.09
288.852
288.586
288.316
288.054
287.807
287.587
289.51
289.471
289.379
289.146
288.87
288.567
288.266
287.978
287.71
287.472
289.973
289.961
289.864
289.598
289.299
288.972