/*--------------------------------*- C++ -*----------------------------------*\
| =========                 |                                                 |
| \\      /  F ield         | foam-extend: Open Source CFD                    |
|  \\    /   O peration     | Version:     4.0                                |
|   \\  /    A nd           | Web:         http://www.foam-extend.org         |
|    \\/     M anipulation  |                                                 |
\*---------------------------------------------------------------------------*/
FoamFile
{
    version     2.0;
    format      ascii;
    class       volScalarField;
    location    "1100";
    object      epsilon;
}
// * * * * * * * * * * * * * * * * * * * * * * * * * * * * * * * * * * * * * //

dimensions      [0 2 -3 0 0 0 0];

internalField   nonuniform List<scalar> 
34480
(
4926.95
4924.82
4924.63
4926.18
4929.56
4934.95
4947.67
5001.26
5190.92
5721.65
656.278
602.961
602.038
654.102
839.928
1578.44
5106.39
22871.9
103776
382507
615.805
520.96
507.604
567.578
809.019
1830.32
7051.13
35157.1
172639
699261
521.441
436.811
425.03
482.991
732.147
1883.67
8229.16
44460.6
232359
1.01092e+06
453.392
382.139
374.872
430.768
682.665
1927.07
9188.17
52650.5
289378
1.33355e+06
389.669
330.453
324.329
376.229
626.19
1955.64
10131.9
61108.7
350830
1.6983e+06
350.668
300.517
296.168
344.133
589.116
1961.5
10733
67241.7
400401
2.02131e+06
319.359
280.311
275.932
315.651
532.26
1819.27
10353.5
66988.5
412445
2.16462e+06
458.574
434.581
431.973
457.28
595.355
1408.03
6837.48
43663
275621
1.49527e+06
5708.01
5707.99
5713.25
5725.05
5741.79
5761.92
5785.86
5821.5
5887.57
5955.43
4852.82
4850.2
4849.62
4851.14
4855.28
4862.49
4873.72
4899.84
4962.5
5183.18
512.992
479.991
474.307
488.428
532.805
649.374
1004.48
2358.75
11823.3
103815
445.552
382.815
369.17
388.675
457.613
645.276
1230.28
3571.15
21383.5
197761
397.641
337.083
323.688
343.48
414.989
618.843
1293.65
4292.01
30269
294884
363.733
309.333
298.834
318.075
388.923
596.839
1319.54
4812.92
38770.6
396749
324.422
277.287
267.501
284.757
350.324
551.736
1290.85
5179.94
47426.1
508934
300.702
259.188
250.999
266.177
326.859
518.659
1251.83
5357.88
54299.9
608161
281.668
248.62
240.927
252.449
299.822
454.253
1070.81
4824.36
55065.7
652187
431.65
409.804
404.695
412.077
441.926
529.45
845.316
2977.62
36430.9
467470
5590.51
5585.99
5586.35
5592.85
5604.43
5619.1
5638.21
5670.89
5738.2
5910.82
4768.06
4765.58
4764.75
4765.59
4768.34
4772.65
4777.52
4788.34
4812.45
4867.58
400.627
387.053
384.357
389.099
404.163
439.516
527.894
760.224
1521.82
5783.59
307.552
276.362
269.477
278.672
309.126
378.915
550.535
1031.54
2865.59
15018.6
289.219
255.5
247.796
258.393
293.548
377.521
596.629
1280.56
4416.99
28957.8
279.568
246.72
240.246
251.205
288.241
378.922
627.657
1481.3
6152.49
47883.5
260.091
229.924
223.411
233.779
269.336
360.043
623.323
1625.03
8171.11
73307.3
249.277
221.321
215.694
225.118
259.003
347.267
614.665
1722.95
10192.6
101836
242.043
219.103
213.658
221.208
248.352
320.499
547.648
1592.95
11075.4
123195
401.73
385.404
381.646
387.231
407.45
459.771
604.968
1233.85
7701.95
92331
5480.91
5473.65
5471.22
5474.68
5483.38
5495.46
5511.72
5542.2
5614.35
5799.59
4672.4
4670.83
4670.33
4670.99
4672.89
4675.32
4676.33
4679.16
4686.58
4702.68
328.969
324.752
323.917
324.991
329.001
339.324
365.524
422.435
542.849
945.435
219.141
205.818
202.893
206.928
220.339
248.723
309.139
445.884
773.808
2091.28
213.925
197.181
193.188
198.711
216.666
256.2
345.211
565.91
1171.48
4147.12
216.809
198.771
195.137
201.337
221.907
268.425
378.767
675.978
1613.99
7165.08
209.918
191.977
187.904
194.278
215.432
265.398
391.026
761.356
2122.26
11624.8
207.639
189.864
186.18
192.292
213.573
264.906
399.605
826.497
2639.65
17170.5
209.249
193.967
190.214
195.46
213.415
257.762
378.402
794.243
2868.66
21923.1
374.864
362.884
360.049
364.198
378.996
415.512
507.113
781.225
2185.69
16611.2
5358.97
5351.75
5349.08
5352.03
5360.22
5372.67
5389.58
5420.18
5486.72
5629.86
4567.33
4566.6
4566.39
4566.81
4567.88
4568.67
4567.36
4566.24
4566.18
4567.87
285.83
285.022
284.92
284.671
284.606
286.34
293.707
307.912
330.567
377.492
167.878
162.775
161.666
163.075
168.121
178.406
198.367
237.843
308.896
485.653
166.224
158.439
156.419
158.913
167.176
184.455
219.419
294.507
444.032
891.039
173.469
164.121
162.14
165.233
175.677
198.032
245.642
356.596
602.604
1499.8
173.118
162.898
160.371
163.91
175.619
201.82
260.9
410.896
785.589
2439.49
175.506
164.586
162.18
165.787
178.368
207.098
274.547
457.213
968.521
3649.73
182.84
172.942
170.348
173.702
184.971
211.447
275.88
463.141
1061.03
4762.24
350.678
342.078
339.899
342.761
353.176
378.076
436.94
580.419
1010.15
3829.26
5229.36
5222.32
5219.5
5221.99
5229.54
5241.67
5258.15
5286.32
5341.79
5444.08
4453.81
4453.74
4453.75
4454
4454.45
4454.15
4452.14
4450.05
4448.27
4447.11
259.996
260.024
260.111
259.579
258.542
258.193
260.159
263.678
268.598
276.073
139.449
137.731
137.411
137.787
139.414
142.705
148.729
159.46
175.638
203.617
137.415
133.975
133.001
134.044
137.607
144.716
157.777
182.594
223.048
303.532
144.78
140.2
139.209
140.64
145.618
155.704
175.126
215.329
287.029
458.67
147.052
141.495
140.011
141.875
148.031
161.073
187.585
247.384
364.984
703.066
151.39
144.963
143.486
145.506
152.616
167.968
200.373
278.229
445.174
1016.34
161.919
155.795
154.099
156.166
162.97
178.201
211.69
297.317
501.518
1324.54
328.924
323.026
321.428
323.365
330.603
347.615
386.112
466.783
639.897
1294.1
5091.46
5084.85
5082.07
5084.19
5091.05
5102.37
5117.71
5142.46
5185.37
5252.57
4332.57
4332.94
4333.12
4333.23
4333.28
4332.33
4330.47
4328.46
4326.63
4325.2
243.936
243.832
243.864
243.382
242.426
242.029
242.447
243.298
244.532
246.408
123.984
123.519
123.489
123.521
123.918
124.803
126.429
129.153
132.781
137.473
120.599
119.116
118.655
119.067
120.551
123.406
128.245
136.424
147.898
164.019
126.499
124.357
123.902
124.517
126.783
131.155
138.857
153.062
174.804
210.872
129.313
126.401
125.565
126.501
129.615
135.897
147.519
170.812
209.852
286.349
134.011
130.357
129.496
130.566
134.44
142.389
157.602
190.058
248.444
382.374
145.932
142.31
141.251
142.473
146.428
154.936
172.108
210.915
287.594
491.254
309.694
305.844
304.698
305.982
310.977
322.77
348.423
395.712
479.801
668.503
4945.07
4939.07
4936.46
4938.26
4944.34
4954.41
4968.05
4988.92
5021.27
5065.07
4204.1
4204.75
4205.03
4205.08
4204.87
4203.8
4202.31
4200.71
4199.27
4198.11
233.04
232.539
232.44
232.087
231.485
231.334
231.392
231.629
232.113
233.14
115.59
115.53
115.584
115.53
115.546
115.685
116.014
116.612
117.37
118.136
111.01
110.372
110.152
110.309
110.925
112.082
113.933
116.767
120.299
123.958
115.181
114.223
114.037
114.283
115.281
117.134
120.188
125.267
132.194
140.549
117.63
116.156
115.703
116.156
117.689
120.665
125.779
134.939
148.596
167.858
121.909
119.894
119.417
119.958
122.014
126.063
133.223
146.809
168.312
202.828
134.071
132.035
131.406
132.104
134.33
138.982
147.815
165.527
196.275
252.81
292.799
290.437
289.623
290.474
293.953
302.387
319.809
348.534
393.937
462.94
4790.01
4784.79
4782.45
4783.96
4789.18
4797.72
4809.32
4826.22
4850.02
4878.92
4068.78
4069.57
4069.91
4069.91
4069.56
4068.69
4067.59
4066.43
4065.39
4064.51
224.606
223.76
223.524
223.294
223.059
223.007
223.014
223.141
223.5
224.417
110.986
111.024
111.083
111.024
110.956
110.901
110.887
110.951
111.061
111.146
105.674
105.389
105.279
105.339
105.602
106.09
106.841
107.908
109.126
110.083
108.367
107.959
107.895
107.985
108.414
109.19
110.414
112.293
114.652
116.825
110.181
109.461
109.223
109.436
110.176
111.57
113.851
117.573
122.691
128.292
113.759
112.675
112.424
112.686
113.76
115.81
119.234
125.096
133.537
143.63
125.497
124.425
124.071
124.46
125.675
128.18
132.757
141.014
154.085
172.215
277.896
276.575
275.985
276.566
279.055
285.329
297.346
315.352
341.36
371.415
4626.26
4621.9
4619.91
4621.15
4625.48
4632.38
4641.84
4655
4672.04
4691.01
3926.98
3927.66
3928.05
3928.02
3927.68
3927.07
3926.3
3925.5
3924.79
3924.14
217.016
216.114
215.757
215.623
215.56
215.535
215.553
215.675
216.03
216.944
108.367
108.414
108.455
108.413
108.346
108.263
108.189
108.145
108.134
108.126
102.789
102.65
102.59
102.615
102.735
102.957
103.289
103.736
104.217
104.506
104.391
104.223
104.208
104.238
104.422
104.749
105.252
105.978
106.835
107.469
105.595
105.256
105.135
105.234
105.585
106.233
107.261
108.824
110.864
112.773
108.454
107.88
107.753
107.877
108.437
109.479
111.152
113.784
117.313
120.733
119.426
118.91
118.725
118.938
119.586
120.922
123.296
127.22
133.006
139.764
264.545
263.922
263.473
263.893
265.76
270.58
278.955
290.519
305.999
320.304
4453.96
4450.49
4448.87
4449.86
4453.29
4458.64
4466.04
4475.89
4487.76
4500
3778.82
3779.36
3779.68
3779.66
3779.44
3779.03
3778.52
3777.98
3777.51
3777.01
209.566
208.682
208.348
208.242
208.199
208.188
208.219
208.346
208.705
209.617
106.765
106.799
106.826
106.798
106.747
106.681
106.618
106.573
106.56
106.561
101.282
101.205
101.17
101.181
101.242
101.352
101.514
101.726
101.948
102.051
102.153
102.084
102.082
102.091
102.174
102.321
102.541
102.844
103.181
103.39
102.881
102.728
102.668
102.714
102.879
103.179
103.644
104.317
105.166
105.914
105.121
104.816
104.755
104.815
105.111
105.654
106.494
107.73
109.287
110.607
115.174
114.962
114.875
114.993
115.332
116.044
117.259
119.136
121.727
124.558
252.267
252.095
251.723
252.055
253.543
257.28
263.138
270.675
280.155
287.048
4273.39
4270.76
4269.52
4270.27
4272.87
4276.84
4282.41
4289.51
4297.54
4305.28
3624.44
3624.88
3625.13
3625.12
3624.99
3624.73
3624.39
3624.04
3623.73
3623.33
201.905
201.051
200.75
200.658
200.623
200.617
200.653
200.777
201.132
202.027
105.67
105.688
105.704
105.686
105.652
105.609
105.567
105.54
105.543
105.564
100.522
100.476
100.456
100.462
100.494
100.553
100.638
100.749
100.868
100.913
100.946
100.912
100.911
100.915
100.957
101.033
101.143
101.288
101.441
101.526
101.346
101.28
101.25
101.272
101.349
101.488
101.7
101.995
102.361
102.692
103.102
102.934
102.904
102.936
103.102
103.398
103.839
104.453
105.18
105.754
112.181
112.123
112.09
112.157
112.335
112.711
113.316
114.203
115.332
116.622
240.599
240.705
240.365
240.651
241.92
244.738
248.813
253.747
259.673
262.758
4084.97
4083.09
4082.2
4082.74
4084.59
4087.46
4091.48
4096.41
4101.67
4106.46
3464.05
3464.41
3464.61
3464.61
3464.53
3464.37
3464.15
3463.93
3463.73
3463.39
193.85
193.033
192.763
192.682
192.651
192.645
192.679
192.795
193.137
194.005
104.821
104.827
104.834
104.823
104.803
104.778
104.754
104.742
104.758
104.792
100.157
100.129
100.117
100.12
100.138
100.169
100.214
100.274
100.343
100.369
100.326
100.303
100.3
100.302
100.329
100.377
100.444
100.528
100.611
100.66
100.523
100.494
100.48
100.49
100.527
100.593
100.69
100.822
100.983
101.15
101.918
101.818
101.803
101.824
101.924
102.097
102.344
102.672
103.038
103.326
110.009
110.023
110.018
110.058
110.155
110.345
110.629
111.031
111.478
112.112
229.129
229.392
229.052
229.317
230.436
232.413
235.207
238.417
242.165
243.209
3889.25
3888
3887.41
3887.78
3889.01
3891.04
3893.83
3897.11
3900.44
3903.35
3297.95
3298.25
3298.4
3298.41
3298.37
3298.27
3298.13
3297.98
3297.85
3297.56
185.293
184.516
184.275
184.205
184.174
184.168
184.196
184.298
184.622
185.456
104.089
104.089
104.09
104.083
104.072
104.059
104.049
104.047
104.07
104.112
99.9915
99.9758
99.9706
99.9721
99.9801
99.9944
100.016
100.047
100.088
100.105
100.029
100.009
100.003
100.005
100.025
100.06
100.108
100.164
100.219
100.255
100.108
100.096
100.088
100.094
100.112
100.144
100.189
100.25
100.323
100.418
101.238
101.173
101.164
101.181
101.247
101.356
101.506
101.697
101.899
102.071
108.33
108.382
108.39
108.417
108.468
108.555
108.674
108.838
108.966
109.307
217.296
217.81
217.482
217.74
218.554
219.905
221.773
223.83
226.201
226.148
3687
3686.15
3685.8
3686.04
3686.86
3688.24
3690.08
3692.18
3694.19
3695.92
3126.54
3126.79
3126.9
3126.91
3126.89
3126.84
3126.75
3126.65
3126.56
3126.3
176.149
175.416
175.204
175.145
175.114
175.105
175.127
175.214
175.515
176.31
103.416
103.411
103.409
103.405
103.4
103.395
103.393
103.398
103.425
103.47
99.9263
99.9193
99.9183
99.9187
99.9208
99.9246
99.9318
99.9447
99.9686
99.9821
99.9007
99.8833
99.8751
99.8769
99.8924
99.9199
99.9563
99.9977
100.037
100.067
99.9189
99.9121
99.9075
99.9102
99.9199
99.9365
99.9591
99.988
100.023
100.082
100.846
100.8
100.793
100.807
100.854
100.928
101.025
101.145
101.267
101.387
106.928
106.995
107.013
107.03
107.053
107.087
107.124
107.175
107.159
107.365
204.859
205.512
205.312
205.493
206.038
206.926
208.127
209.412
210.889
210.279
3478.97
3478.43
3478.21
3478.37
3478.9
3479.78
3480.95
3482.21
3483.36
3484.37
2950.34
2950.56
2950.64
2950.65
2950.65
2950.61
2950.55
2950.49
2950.42
2950.19
166.338
165.652
165.468
165.421
165.389
165.381
165.395
165.465
165.74
166.494
102.778
102.771
102.765
102.763
102.762
102.763
102.766
102.774
102.802
102.85
99.9112
99.9096
99.9108
99.9105
99.9091
99.907
99.9059
99.9087
99.9212
99.9333
99.8586
99.8432
99.8349
99.8361
99.8478
99.8687
99.896
99.9265
99.9553
99.9797
99.8476
99.8424
99.8391
99.8402
99.8458
99.8553
99.8674
99.8822
99.8991
99.9385
100.605
100.57
100.565
100.576
100.609
100.661
100.727
100.806
100.884
100.976
105.668
105.732
105.754
105.765
105.775
105.783
105.783
105.785
105.711
105.853
191.644
192.349
192.251
192.373
192.717
193.266
193.99
194.761
195.643
194.803
3266.05
3265.72
3265.59
3265.7
3266.02
3266.55
3267.24
3267.95
3268.56
3269.13
2770.1
2770.28
2770.34
2770.36
2770.35
2770.33
2770.29
2770.25
2770.2
2769.99
155.764
155.128
154.965
154.929
154.91
154.902
154.91
154.962
155.204
155.913
102.17
102.16
102.153
102.151
102.152
102.156
102.163
102.173
102.2
102.249
99.9205
99.9211
99.923
99.9224
99.9195
99.915
99.9103
99.908
99.9134
99.9251
99.8579
99.8451
99.8379
99.8384
99.8465
99.8612
99.8804
99.9019
99.9226
99.9418
99.8366
99.832
99.8293
99.8296
99.8328
99.8383
99.8451
99.8529
99.8613
99.8868
100.431
100.405
100.4
100.408
100.431
100.466
100.51
100.561
100.612
100.685
104.47
104.522
104.544
104.552
104.555
104.553
104.539
104.523
104.436
104.544
177.507
178.191
178.174
178.252
178.449
178.752
179.133
179.562
180.035
179.177
3049.31
3049.13
3049.05
3049.12
3049.3
3049.59
3049.97
3050.33
3050.61
3050.92
2586.82
2586.96
2587.01
2587.02
2587.02
2587.01
2586.98
2586.94
2586.9
2586.72
144.292
143.716
143.576
143.552
143.547
143.544
143.545
143.579
143.777
144.435
101.597
101.585
101.578
101.576
101.578
101.583
101.591
101.602
101.625
101.673
99.9386
99.9386
99.94
99.9391
99.9362
99.9318
99.9269
99.9235
99.9251
99.9363
99.877
99.8673
99.8619
99.8619
99.8669
99.8761
99.8883
99.9021
99.916
99.9302
99.8566
99.853
99.8508
99.8506
99.8522
99.855
99.8582
99.8617
99.8655
99.8802
100.275
100.256
100.252
100.257
100.271
100.292
100.319
100.349
100.381
100.437
103.303
103.34
103.357
103.362
103.362
103.356
103.339
103.319
103.241
103.325
162.289
162.897
162.945
162.991
163.079
163.2
163.331
163.526
163.699
162.964
2830.05
2829.95
2829.92
2829.95
2830.04
2830.18
2830.37
2830.52
2830.63
2830.78
2401.61
2401.73
2401.76
2401.77
2401.77
2401.76
2401.75
2401.72
2401.68
2401.55
131.694
131.203
131.112
131.103
131.101
131.096
131.09
131.103
131.237
131.82
101.079
101.064
101.057
101.055
101.056
101.061
101.068
101.078
101.096
101.141
99.9537
99.9519
99.952
99.9511
99.949
99.9462
99.9431
99.9409
99.9412
99.9509
99.9078
99.9014
99.8979
99.8977
99.9004
99.9054
99.9121
99.9199
99.9283
99.9376
99.8937
99.8915
99.8901
99.8897
99.8901
99.8909
99.8917
99.8924
99.8934
99.8998
100.121
100.109
100.106
100.108
100.115
100.126
100.139
100.154
100.171
100.208
102.179
102.198
102.209
102.21
102.207
102.198
102.182
102.163
102.109
102.17
145.521
145.997
146.031
146.067
146.127
146.207
146.289
146.348
146.28
145.755
2609.69
2609.64
2609.63
2609.65
2609.67
2609.72
2609.77
2609.81
2609.85
2609.91
2214.97
2215.04
2215.04
2215.05
2215.05
2215.04
2215.04
2215.03
2215.03
2214.96
117.418
117.082
117.052
117.057
117.059
117.053
117.042
117.033
117.074
117.494
100.619
100.604
100.596
100.593
100.594
100.597
100.603
100.612
100.627
100.662
99.9681
99.9658
99.9652
99.9645
99.9635
99.9624
99.9613
99.9606
99.9611
99.967
99.9503
99.9469
99.9451
99.945
99.9462
99.9485
99.9516
99.9553
99.9595
99.9643
99.9426
99.9417
99.9411
99.9408
99.9407
99.9405
99.9402
99.9397
99.9393
99.9406
100.011
100.005
100.004
100.004
100.007
100.011
100.016
100.021
100.027
100.045
101.131
101.133
101.135
101.134
101.128
101.119
101.107
101.094
101.076
101.117
125.806
126.088
126.105
126.126
126.158
126.201
126.243
126.267
126.216
125.875
2388.97
2388.95
2388.96
2388.96
2388.96
2388.96
2388.96
2388.95
2388.93
2388.97
7176.08
7285.97
7242.48
7036.82
658367
682955
688452
696689
1.49635e+06
1.58228e+06
1.58951e+06
1.56982e+06
2.52345e+06
2.70046e+06
2.69737e+06
2.61553e+06
3.75805e+06
4.05118e+06
4.02405e+06
3.86104e+06
5.30219e+06
5.74235e+06
5.69042e+06
5.47671e+06
6.85662e+06
7.45096e+06
7.38686e+06
7.18785e+06
7.86273e+06
8.58458e+06
8.52975e+06
8.39777e+06
5.60074e+06
6.15551e+06
6.09267e+06
6.05553e+06
7894.35
8141.24
7980.02
7564.33
5745.08
5797.4
5799.89
5761.07
308231
323880
344449
376611
688410
779038
822826
859761
1.17639e+06
1.39975e+06
1.46243e+06
1.48804e+06
1.76132e+06
2.17286e+06
2.24596e+06
2.25846e+06
2.45503e+06
3.10413e+06
3.20375e+06
3.23941e+06
3.12568e+06
4.0278e+06
4.18937e+06
4.30678e+06
3.56442e+06
4.68681e+06
4.92931e+06
5.16125e+06
2.79827e+06
3.80202e+06
3.99325e+06
4.30307e+06
7121.33
7352.11
7282.07
7061.56
4935.06
4945.86
4944.93
4935.23
21633.4
25882.7
24511.6
19909.3
61467.2
73201.6
68451.8
55546.8
128560
152474
140483
113658
228124
270023
245684
198816
372112
441247
400776
325660
544902
647440
590676
484199
702029
837616
768112
635007
583682
695054
628073
523058
6341.08
6428.16
6405.89
6310.61
4713.58
4715.66
4716.16
4715.32
1596.11
1709.81
1676.84
1542.7
4694.85
5161.57
4998.21
4421.36
11219.7
12480.4
11894.9
10182.3
22541.5
25218.8
23651.3
19690.8
41694
46892.2
43477.4
35464.7
68313.4
76946.7
70726.7
57013.3
97185.7
109845
100337
80252.2
83394.8
93689.3
84107.2
67116.9
5901.41
5943.01
5940.13
5902.32
4565.87
4566.77
4566.96
4566.38
424.371
436.904
438.87
431.885
710.624
756.853
760.815
730.395
1594.7
1735.23
1726.69
1607.14
3203.16
3527.01
3454.39
3113.05
6143.06
6823.85
6580.29
5751.62
10506.4
11697.5
11106.9
9462.47
15708
17563
16461.7
13709.5
13880.7
15404.1
14113
11574.8
5576.58
5598.56
5600.07
5584.57
4443.05
4443.8
4443.86
4443.19
276.249
279.018
279.639
278.33
226.816
231.809
233.518
232.375
385.961
403.31
407.358
400.395
674.454
718.115
722.091
695.764
1216.25
1317.46
1313.19
1233.44
2025.83
2213.47
2176.94
1991.47
3051.35
3364.32
3264.43
2905.07
2934.55
3187.25
3025.92
2665.03
5316.38
5327.13
5329.3
5323.83
4320.92
4321.63
4321.67
4321.01
242.207
244.073
244.434
243.35
140.364
141.086
141.4
141.348
176.075
178.739
179.815
179.499
243.411
250.414
252.596
250.817
369.342
386.965
390.644
383.41
549.806
583.286
585.865
566.227
796.722
856.193
853.224
808.041
986.186
1031.06
1011.35
963.413
5094.28
5099.13
5101.01
5099.84
4194
4194.68
4194.72
4194.1
228.408
230.106
230.425
229.399
118.306
118.428
118.465
118.426
125.953
126.383
126.586
126.591
146.121
147.334
147.861
147.821
183.55
187.048
188.309
187.745
233.972
240.516
242.281
240.515
315.025
327.596
329.555
324.042
543.476
549.123
546.589
542.9
4892.42
4894.39
4895.7
4895.95
4060.62
4061.25
4061.29
4060.73
219.735
221.378
221.694
220.708
110.95
110.998
110.998
110.951
110.399
110.457
110.483
110.482
117.809
118.005
118.107
118.135
131.79
132.584
132.935
132.913
149.965
151.305
151.853
151.841
187.567
190.495
191.36
190.746
400.293
397.31
396.569
399.248
4697.42
4698.08
4698.86
4699.4
3920.47
3921.05
3921.08
3920.57
212.398
213.989
214.301
213.354
107.901
107.944
107.944
107.899
104.513
104.51
104.505
104.5
107.597
107.607
107.615
107.628
113.711
113.917
114.015
114.017
122.018
122.253
122.395
122.493
144.719
145.408
145.68
145.65
335.295
330.2
329.423
332.857
4502.96
4503.02
4503.46
4503.96
3773.59
3774.1
3774.13
3773.68
205.231
206.765
207.069
206.161
106.355
106.401
106.403
106.362
102.007
101.996
101.988
101.985
103.369
103.352
103.345
103.348
106.241
106.307
106.337
106.332
110.805
110.804
110.831
110.898
126.833
126.951
127.008
127.022
297.486
291.957
291.051
294.384
4306.41
4306.24
4306.47
4306.85
3620.16
3620.6
3620.63
3620.23
197.815
199.287
199.581
198.713
105.38
105.425
105.43
105.392
100.867
100.858
100.852
100.85
101.493
101.479
101.47
101.471
102.85
102.88
102.891
102.883
105.741
105.701
105.698
105.737
118.079
118.047
118.03
118.031
271.292
265.816
264.86
267.992
4106.55
4106.34
4106.45
4106.71
3460.49
3460.86
3460.88
3460.54
189.977
191.384
191.667
190.84
104.629
104.673
104.678
104.643
100.33
100.324
100.32
100.319
100.637
100.628
100.621
100.621
101.25
101.269
101.274
101.266
103.302
103.266
103.258
103.28
113.257
113.192
113.151
113.137
250.679
245.408
244.459
247.4
3902.82
3902.65
3902.7
3902.84
3294.95
3295.26
3295.27
3294.98
181.626
182.965
183.237
182.452
103.969
104.01
104.015
103.983
100.076
100.072
100.069
100.068
100.243
100.237
100.233
100.231
100.491
100.504
100.507
100.5
102.075
102.052
102.045
102.056
110.295
110.231
110.185
110.158
232.858
227.845
226.933
229.696
3695
3694.93
3694.95
3694.98
3124.01
3124.26
3124.25
3124.01
172.692
173.963
174.223
173.483
103.35
103.389
103.394
103.364
99.9623
99.9602
99.9585
99.9579
100.061
100.057
100.055
100.053
100.137
100.147
100.149
100.142
101.421
101.411
101.406
101.409
108.248
108.197
108.153
108.114
216.362
211.637
210.778
213.368
3483.2
3483.26
3483.26
3483.2
2948.26
2948.44
2948.42
2948.23
163.105
164.307
164.557
163.864
102.757
102.794
102.798
102.771
99.9231
99.9229
99.922
99.9211
99.9779
99.976
99.974
99.9729
99.9792
99.9867
99.9871
99.9815
101.031
101.03
101.028
101.025
106.648
106.617
106.577
106.526
200.331
195.927
195.137
197.545
3267.81
3267.98
3267.99
3267.84
2768.46
2768.57
2768.54
2768.39
152.778
153.916
154.158
153.514
102.19
102.225
102.229
102.202
99.924
99.9256
99.9255
99.9242
99.9424
99.9415
99.9403
99.9396
99.9152
99.9204
99.9202
99.9156
100.75
100.756
100.756
100.749
105.247
105.24
105.207
105.145
184.202
180.176
179.471
181.673
3049.52
3049.78
3049.79
3049.6
2585.63
2585.68
2585.63
2585.52
141.607
142.69
142.929
142.332
101.649
101.681
101.684
101.659
99.9424
99.9455
99.9461
99.9443
99.9322
99.932
99.9315
99.9313
99.8975
99.9005
99.9001
99.8969
100.5
100.51
100.511
100.503
103.909
103.927
103.902
103.833
167.539
164.011
163.417
165.348
2829.38
2829.7
2829.71
2829.49
2400.97
2400.93
2400.87
2400.82
129.407
130.452
130.689
130.131
101.142
101.169
101.17
101.146
99.9598
99.9635
99.9644
99.9626
99.9398
99.9401
99.94
99.9402
99.9075
99.9087
99.9083
99.9069
100.26
100.269
100.271
100.264
102.578
102.607
102.593
102.531
149.642
146.685
146.242
147.889
2608.69
2609.05
2609.07
2608.83
2214.92
2214.76
2214.7
2214.75
115.747
116.725
116.933
116.406
100.666
100.681
100.679
100.663
99.9719
99.9742
99.9749
99.974
99.9658
99.966
99.9662
99.9667
99.9421
99.9421
99.942
99.9418
100.073
100.078
100.079
100.076
101.3
101.31
101.303
101.277
128.356
126.328
126.091
127.254
2388.18
2388.57
2388.57
2388.32
6102.09
5439.34
5169.74
5073.7
5018.83
4980.25
4954.6
4940.12
4932.15
4927.36
798278
192778
33356
11714.8
5290.87
2830.3
1745.42
1210.14
927.252
765.209
1.42231e+06
245844
44118.3
15078.3
6746.88
3617.43
2186.1
1449.89
1040.64
797.817
1.99114e+06
237730
46572.2
14948.2
6445.51
3367.23
1984.55
1286.46
905.174
683.205
2.44904e+06
251323
48700.6
14478.2
6056.55
3077.23
1776.34
1134.14
788.522
591.841
2.91759e+06
274872
50872.7
13886.4
5596.53
2744.94
1547.51
972.426
671.659
504.292
3.29386e+06
293059
51688.7
13070.2
5117.42
2446
1363.37
854.003
590.793
446.978
3.3727e+06
285265
47383.5
10922.4
4129.99
1929.88
1083.87
694.876
499.478
392.301
2.32256e+06
180666
27170.3
5668.98
2258.6
1230.01
853.428
668.525
565.952
504.869
6018.32
5993.4
5847.73
5822.97
5779.44
5755.02
5735.62
5725.21
5718.11
5711.84
5439.73
5171.73
5041.96
4969.49
4923.98
4893.97
4874.52
4862.94
4856.75
4852.8
180009
44818.7
13588.2
5312.4
2630.7
1564.59
1063.61
801.696
656.113
572.824
374681
86129.6
23388.2
8260.69
3873.05
2177.13
1376.15
950.481
706.646
562.96
592962
125726
30578.7
9610.61
4206.91
2248.03
1363.35
909.342
656.969
512.248
826896
164217
36260.6
10369.6
4294.01
2205.44
1300.91
851.249
605.991
468.855
1.1053e+06
206238
41567.3
10814.5
4223.74
2077.65
1190.17
763.344
538.369
415.819
1.38226e+06
243125
45130.2
10797.7
4032.53
1926.31
1087.98
694.708
490.009
380.595
1.55557e+06
257079
43755.6
9504.26
3376.22
1575.26
894.988
584.243
427.605
344.084
1.17507e+06
177500
26683.8
5220.81
1956.63
1086.32
768.514
612.934
524.843
474.917
6251.2
5952.3
5792.56
5733.67
5682.76
5651.94
5629.57
5615.87
5606.18
5597.65
4900.99
4866.18
4838.77
4816.01
4798.2
4785.29
4776.68
4771.53
4768.71
4766.66
9188.28
4167.84
2294.04
1430.32
984.174
735.234
590.955
504.991
452.508
421.022
23924.6
9530.46
4633.08
2537.48
1536.15
1006.03
709.497
535.915
429.336
363.592
45268.9
15901.2
6912.87
3398
1889.94
1153.15
767.275
552.561
426.236
351.092
73292.4
22814.4
8981.49
4041.4
2110.27
1225.78
787.18
553.352
419.14
341.482
111637
30938
11010.5
4534.26
2226.12
1230.75
762.897
523.305
391.395
317.375
155416
38731.1
12543.1
4780.38
2242.65
1200
730.782
497.849
371.529
302.017
190642
42702.4
12485.5
4372.32
1967.33
1032.06
633.264
441.019
340.311
285.019
140997
27631.9
7278.72
2538.73
1303.41
840.212
640.74
534.966
471.642
435.177
6016.48
5834.83
5710.51
5636.74
5583.71
5550.6
5527.56
5511.84
5500.19
5490.05
4710.32
4701.97
4692.85
4684.63
4678.39
4674.14
4671.48
4670.14
4669.85
4669.48
1207.54
905.521
708.163
570.179
479.201
420.828
383.334
358.72
342.124
331.991
3019.75
1912.84
1266.17
858.207
610.665
459.631
366.113
306.759
267.541
241.921
6198.73
3468.92
2051.01
1248.29
810.114
562.546
418.555
331.815
277.322
243.232
10707.8
5335.43
2871.5
1606.45
975.636
641.694
458.242
353.04
288.706
249.488
17292.5
7651.69
3756.68
1935.83
1102.25
686.658
470.695
352.285
283.291
242.678
25141.8
9931.39
4492.97
2162.9
1175.93
707.203
474.477
351.394
280.795
239.977
31996.7
11225.3
4656.34
2092.77
1098.31
650.826
440.115
331.855
271.892
237.319
23468.2
7354.83
2957.92
1440.91
904.248
662.069
541.321
471.484
426.829
400.524
5787.31
5659.38
5560.87
5497.09
5453.09
5424.26
5403.54
5388.66
5377.42
5367.81
4565.23
4564.02
4562.82
4561.87
4561.3
4561.05
4561.07
4561.45
4562.38
4563.27
413.046
383.092
356.825
335.103
318.684
306.629
297.786
291.188
286.171
282.941
636.6
511.412
410.982
334.074
279.432
241.66
215.797
197.933
185.062
176.093
1283.88
923.73
664.989
485.475
369.129
294.291
246.035
214.43
193.054
178.946
2270.37
1479.18
972.419
652.122
461.972
347.924
278.813
236.004
207.762
189.47
3807.3
2240.04
1347.28
830.454
548.118
389.356
298.598
244.983
211.52
190.702
5694.39
3045.14
1697.81
978.434
614.055
419.861
314.057
254.005
217.022
194.334
7449.79
3602.64
1863.61
1012.79
616.268
416.333
312.677
255.293
221.234
200.502
5657
2638.54
1436.36
903.523
665.039
538.482
465.96
420.311
389.102
370.334
5534.11
5458.43
5393.34
5347.07
5313.24
5289.05
5270.8
5257.1
5246.51
5237.6
4442.72
4442.86
4443.2
4443.69
4444.29
4444.93
4445.58
4446.39
4447.61
4449.09
278.238
275.165
271.699
268.273
265.226
262.635
260.468
258.629
257.032
255.722
225.886
210.775
194.939
180.679
169.16
160.357
153.811
148.92
145.007
142.073
372.689
321.504
273.14
233.29
203.517
182.102
166.904
156.06
148.119
142.618
612.46
487.886
382.235
302.952
248.646
212.321
188.16
171.94
160.252
152.185
1012.65
738.528
530.188
386.987
296.583
239.938
204.342
181.522
166.12
156.002
1521.98
1024.63
682.891
466.537
339.865
264.863
219.953
192.371
173.908
161.861
2046.3
1270.32
792.405
515.119
365.007
280.691
232.318
203.191
184.554
172.623
1815.9
1184.3
825.522
628.623
519.381
452.116
408.478
378.827
357.239
344.022
5301.94
5260.52
5220.83
5189.05
5163.71
5144.03
5128.48
5116.34
5106.73
5098.79
4320.7
4321
4321.49
4322.11
4322.8
4323.49
4324.15
4324.91
4326.06
4327.54
244.462
244.275
243.931
243.449
242.904
242.34
241.777
241.191
240.56
239.815
140.728
138.648
136.121
133.554
131.268
129.384
127.898
126.706
125.59
124.665
176.52
168.288
158.805
149.798
142.198
136.126
131.384
127.689
124.764
122.667
241.537
220.281
197.85
178.408
163.331
152.141
143.972
138.02
133.292
129.819
355.822
304.298
255.215
216.155
188.088
168.504
154.921
145.425
138.48
133.709
504.379
405.542
319.1
255.823
213.545
185.669
167.226
154.911
145.898
139.663
682.344
515.324
383.879
295.469
240.327
205.61
183.459
168.921
158.921
152.257
827.825
676.3
559.55
481.175
428.464
391.543
364.96
345.654
330.769
321.502
5090.55
5068.83
5045.14
5023.64
5005.01
4989.53
4976.74
4966.41
4958.03
4951.23
4193.84
4194.09
4194.46
4194.93
4195.45
4195.96
4196.43
4196.99
4197.93
4199.22
230.674
230.891
230.994
230.992
230.909
230.762
230.555
230.266
229.865
229.231
118.383
118.121
117.777
117.377
116.99
116.666
116.422
116.218
115.932
115.64
126.169
124.669
122.658
120.474
118.406
116.584
115.033
113.727
112.625
111.826
146.635
142.696
137.725
132.8
128.514
125.008
122.226
120.05
118.138
116.646
183.74
173.169
161.142
150.165
141.253
134.34
129.07
125.078
121.944
119.731
231.924
211.152
188.885
170.188
156.001
145.572
137.967
132.479
128.098
124.907
303.581
264.994
228.011
199.276
178.706
164.19
153.955
146.697
141.386
137.755
516.051
473.135
430.422
396.096
369.121
348.14
331.691
319.043
308.783
302.312
4891.49
4879.83
4865.52
4851.13
4837.77
4826.01
4815.89
4807.45
4800.43
4794.84
4060.5
4060.69
4060.94
4061.25
4061.59
4061.91
4062.19
4062.54
4063.26
4064.34
221.982
222.24
222.385
222.441
222.428
222.354
222.214
221.981
221.615
220.981
110.976
110.974
110.975
110.958
110.941
110.945
110.977
111.007
110.95
110.848
110.401
110.095
109.616
109.014
108.382
107.78
107.234
106.745
106.314
106.002
117.966
117.181
115.996
114.651
113.354
112.207
111.242
110.447
109.667
109.014
132.149
129.672
126.438
123.076
120.034
117.45
115.324
113.605
112.179
111.162
150.636
145.898
139.758
133.879
128.866
124.804
121.589
119.118