/*--------------------------------*- C++ -*----------------------------------*\
| =========                 |                                                 |
| \\      /  F ield         | foam-extend: Open Source CFD                    |
|  \\    /   O peration     | Version:     4.0                                |
|   \\  /    A nd           | Web:         http://www.foam-extend.org         |
|    \\/     M anipulation  |                                                 |
\*---------------------------------------------------------------------------*/
FoamFile
{
    version     2.0;
    format      ascii;
    class       volScalarField;
    location    "1100";
    object      k;
}
// * * * * * * * * * * * * * * * * * * * * * * * * * * * * * * * * * * * * * //

dimensions      [0 2 -2 0 0 0 0];

internalField   nonuniform List<scalar> 
34480
(
8.76273
8.76021
8.75999
8.76182
8.76581
8.77217
8.78723
8.85067
9.07324
9.68195
9.27646
8.66215
8.56745
8.84702
9.44758
10.338
11.9427
15.865
28.7761
67.105
14.9948
13.532
13.0884
13.2405
13.8154
14.8549
17.1999
22.9131
41.6724
101.458
14.4347
12.9151
12.4679
12.666
13.3796
14.7988
17.9813
25.4044
49.2903
127.833
13.3674
11.9586
11.6099
11.8794
12.7317
14.4439
18.2219
26.9445
55.3225
151.661
12.1622
10.8943
10.5834
10.866
11.7562
13.649
17.8963
27.8859
61.1307
176.788
11.2716
10.1555
9.90131
10.1756
11.0675
13.0303
17.5354
28.3944
65.5889
198.145
9.79835
8.96433
8.75938
8.97374
9.68333
11.3511
15.4479
26.1058
64.6127
205.69
6.86731
6.59889
6.54985
6.65913
6.98777
7.71318
9.71524
16.2705
43.4511
149.701
9.23735
9.2373
9.24294
9.25566
9.27368
9.29534
9.32109
9.35937
9.43012
9.50257
8.67458
8.67147
8.67079
8.67259
8.67751
8.68606
8.6994
8.73049
8.80484
9.06426
7.932
7.5087
7.41305
7.57028
8.0181
8.86356
10.3098
12.1175
15.4529
41.279
12.2095
11.1489
10.8564
11.0616
11.7438
13.0113
15.2174
18.1276
23.8107
66.4902
12.1024
10.9377
10.6193
10.8647
11.6726
13.2279
16.0153
20.0084
28.4108
86.2488
11.5558
10.4254
10.1587
10.4363
11.3301
13.0735
16.2663
21.0564
31.8653
104.4
10.7637
9.71604
9.46051
9.73455
10.6317
12.4573
15.9277
21.4273
34.8708
123.881
10.1738
9.22339
9.00543
9.25791
10.1283
11.9527
15.5576
21.512
37.1444
141.181
9.02332
8.30192
8.1169
8.30689
8.98148
10.4752
13.6204
19.2519
35.7483
147.622
6.63265
6.38497
6.33025
6.40371
6.66752
7.25306
8.59947
11.5513
22.5237
102.623
9.11019
9.10525
9.10562
9.11267
9.12523
9.14113
9.16186
9.19726
9.26992
9.45501
8.57326
8.57031
8.56931
8.57032
8.5736
8.57871
8.58451
8.59749
8.62635
8.6922
6.78597
6.57117
6.51519
6.59064
6.8224
7.27112
8.06894
9.36738
11.1523
16.4911
9.67844
9.05746
8.90244
9.07055
9.59213
10.5514
12.1735
14.576
17.5629
29.2206
9.86655
9.12901
8.94249
9.15723
9.8181
11.0773
13.2764
16.6409
21.1263
40.7847
9.7306
8.97615
8.81236
9.04971
9.78859
11.234
13.8422
17.9301
23.7904
52.283
9.30172
8.57482
8.40639
8.6441
9.3973
10.9424
13.8595
18.6
26.0406
64.9742
8.9858
8.30154
8.15408
8.37558
9.11446
10.6796
13.7643
18.927
27.7646
77.0471
8.17226
7.64342
7.51303
7.68205
8.2545
9.53404
12.2393
17.1376
26.6783
83.0594
6.36345
6.1707
6.13033
6.19072
6.40104
6.86445
7.91364
10.3607
16.7192
57.2788
8.99076
8.98279
8.98011
8.98389
8.99341
9.00657
9.02435
9.0576
9.13606
9.33595
8.45819
8.45633
8.45573
8.45652
8.4588
8.46167
8.46285
8.46627
8.47523
8.49466
6.0115
5.91811
5.88948
5.91995
6.02037
6.21399
6.55291
7.13808
8.00721
9.91012
7.80311
7.48826
7.41328
7.50859
7.81112
8.37684
9.33342
10.8276
12.6696
17.0974
8.1119
7.69321
7.58774
7.72538
8.15229
8.97697
10.4162
12.7292
15.6085
23.5631
8.22842
7.76904
7.67079
7.82885
8.32731
9.31633
11.1079
14.0813
17.8953
30.1304
8.06366
7.59461
7.48386
7.65061
8.17946
9.27845
11.3675
14.9865
19.8774
37.6575
7.95387
7.48893
7.38822
7.54897
8.08423
9.22822
11.4959
15.56
21.3794
45.0062
7.42825
7.05706
6.96398
7.0915
7.5138
8.45825
10.4576
14.3677
20.6698
48.8567
6.12315
5.97562
5.94526
5.99087
6.14796
6.48665
7.21601
8.98049
12.9926
33.1331
8.85693
8.84896
8.846
8.84924
8.85826
8.87193
8.89056
8.92419
8.99709
9.15288
8.3309
8.33005
8.32981
8.33032
8.33159
8.33249
8.33087
8.32951
8.32944
8.33151
5.5394
5.50303
5.48879
5.49838
5.5347
5.60416
5.72108
5.91566
6.18644
6.63561
6.56385
6.42376
6.39101
6.431
6.56807
6.82845
7.27186
7.989
8.89036
10.3722
6.86492
6.64644
6.58809
6.65877
6.88652
7.33094
8.11025
9.41301
11.0565
14.0276
7.08986
6.82874
6.77098
6.85842
7.14423
7.71372
8.75024
10.5612
12.8982
17.7803
7.08367
6.79597
6.72314
6.82356
7.14713
7.82002
9.103
11.4628
14.6285
22.2449
7.10512
6.80139
6.73221
6.83375
7.17784
7.90936
9.35597
12.124
15.996
26.6698
6.8011
6.54849
6.48153
6.56709
6.84845
7.46933
8.7643
11.4689
15.7082
29.0593
5.91141
5.80001
5.77687
5.80848
5.91939
6.15237
6.62354
7.73811
10.1135
19.2893
8.71356
8.70573
8.70258
8.70534
8.71372
8.72716
8.74544
8.77665
8.83796
8.95041
8.19229
8.19223
8.19227
8.19256
8.19309
8.19266
8.19019
8.18763
8.18544
8.18402
5.27104
5.25828
5.25109
5.25313
5.26455
5.28695
5.32373
5.38081
5.4529
5.54531
5.80839
5.75486
5.74356
5.75673
5.80828
5.90672
6.07268
6.3407
6.6839
7.14981
6.039
5.93353
5.90324
5.93561
6.04428
6.2542
6.61457
7.21702
7.99888
9.11463
6.27447
6.13636
6.10527
6.14899
6.29766
6.5887
7.10679
8.02443
9.25045
11.2091
6.34206
6.17529
6.13011
6.18632
6.36946
6.74275
7.4371
8.74245
10.5548
13.8134
6.43113
6.24218
6.19748
6.25745
6.46458
6.89419
7.71842
9.33895
11.6678
16.4085
6.28455
6.12068
6.07516
6.12988
6.30748
6.68876
7.4517
9.07642
11.6735
17.7964
5.72717
5.64554
5.62899
5.65022
5.72652
5.88238
6.17878
6.83382
8.10581
11.8703
8.55972
8.55229
8.54916
8.55153
8.55921
8.57187
8.58904
8.61671
8.66458
8.73927
8.04294
8.04343
8.04367
8.04381
8.04384
8.04262
8.04031
8.03783
8.03556
8.03379
5.12654
5.12218
5.1181
5.11787
5.12087
5.12772
5.13886
5.15515
5.17325
5.19033
5.37505
5.35851
5.35644
5.35912
5.37457
5.40497
5.45649
5.53819
5.63991
5.75726
5.52413
5.47575
5.46062
5.47429
5.52278
5.61468
5.76616
6.00828
6.31783
6.68689
5.72202
5.65335
5.63805
5.6581
5.73022
5.86746
6.10141
6.50236
7.04194
7.75644
5.80912
5.717
5.69031
5.71994
5.81796
6.01199
6.35653
6.98683
7.88031
9.1959
5.92135
5.80869
5.78134
5.81462
5.93325
6.17149
6.60585
7.44039
8.66737
10.6734
5.87766
5.77634
5.74693
5.78024
5.88701
6.10956
6.5317
7.40333
8.81738
11.4894
5.57341
5.51504
5.5038
5.5175
5.56866
5.67039
5.85466
6.22896
6.89362
8.33789
8.39485
8.38806
8.38509
8.38712
8.394
8.40536
8.42078
8.44434
8.48081
8.53005
7.88316
7.88401
7.88439
7.88443
7.88415
7.88279
7.88092
7.87892
7.87711
7.87566
5.05149
5.04959
5.04689
5.04626
5.04698
5.04937
5.05312
5.05839
5.06343
5.06633
5.13683
5.13404
5.13523
5.1347
5.13729
5.14362
5.15586
5.17621
5.20067
5.22388
5.21801
5.19628
5.18879
5.19431
5.21541
5.25469
5.31673
5.40945
5.52141
5.63142
5.36454
5.33227
5.32551
5.33401
5.36734
5.42893
5.52916
5.6906
5.90045
6.13198
5.44317
5.39448
5.3794
5.39433
5.44474
5.54166
5.70531
5.98642
6.37778
6.86353
5.55247
5.48781
5.47198
5.48946
5.55495
5.68237
5.90222
6.29921
6.87493
7.65732
5.57034
5.51093
5.49297
5.51238
5.57372
5.69827
5.92328
6.35944
7.05677
8.1489
5.44996
5.40905
5.40185
5.41044
5.44417
5.50958
5.62368
5.83624
6.1874
6.76528
8.21844
8.21246
8.20977
8.2115
8.21747
8.22721
8.24046
8.25976
8.28689
8.31976
7.71311
7.71413
7.71459
7.71457
7.7141
7.713
7.71161
7.71014
7.70882
7.70771
5.01293
5.01159
5.0096
5.00908
5.00945
5.01069
5.01252
5.01498
5.01709
5.01757
5.01024
5.01164
5.01355
5.01247
5.01138
5.01067
5.0114
5.01439
5.01828
5.02061
5.04362
5.03365
5.02982
5.03205
5.04139
5.05855
5.08471
5.12134
5.16253
5.19491
5.14286
5.12845
5.12584
5.12918
5.14409
5.17102
5.21323
5.27688
5.35528
5.42614
5.20274
5.17802
5.16984
5.1771
5.20229
5.24953
5.32609
5.44847
5.6121
5.78404
5.297
5.26104
5.25233
5.26109
5.29635
5.36307
5.47293
5.65677
5.91232
6.20032
5.34802
5.31529
5.305
5.31587
5.3495
5.41642
5.5332
5.74419
6.07048
6.50165
5.35474
5.32642
5.3221
5.32742
5.34955
5.39145
5.46215
5.58335
5.77056
6.02471
8.03006
8.02501
8.0227
8.02413
8.02912
8.0371
8.04803
8.06323
8.0829
8.10476
7.53289
7.53375
7.53427
7.53422
7.53378
7.533
7.53202
7.53099
7.53008
7.52924
4.99246
4.99137
4.98983
4.9895
4.98989
4.99082
4.99215
4.99387
4.99539
4.99558
4.94487
4.94702
4.94875
4.94789
4.94628
4.94426
4.94251
4.94157
4.94106
4.93993
4.94846
4.94354
4.94145
4.9424
4.9468
4.95481
4.96667
4.98244
4.99909
5.00933
5.01108
5.00484
5.004
5.00522
5.01187
5.02367
5.04166
5.06729
5.09713
5.11933
5.05167
5.03959
5.03528
5.03875
5.0511
5.07379
5.10949
5.16304
5.23182
5.29541
5.12773
5.10812
5.10354
5.10781
5.12659
5.1613
5.21639
5.30213
5.41534
5.52332
5.19414
5.17748
5.17206
5.17795
5.19547
5.22984
5.2886
5.38851
5.53749
5.71299
5.28414
5.26458
5.2622
5.26556
5.28024
5.30737
5.35143
5.42127
5.52115
5.64259
7.82942
7.82535
7.82345
7.8246
7.82861
7.83486
7.84354
7.85507
7.86894
7.88324
7.34224
7.34294
7.34336
7.34333
7.34304
7.34251
7.34184
7.34115
7.34054
7.33989
4.98065
4.97978
4.97867
4.97847
4.97884
4.97962
4.98073
4.98214
4.98348
4.98367
4.91186
4.91375
4.9151
4.91457
4.91329
4.91157
4.90987
4.90858
4.90771
4.90665
4.89889
4.89618
4.89496
4.89542
4.89769
4.90177
4.90769
4.91529
4.92303
4.92671
4.93608
4.93331
4.93308
4.93352
4.93662
4.9421
4.95022
4.96125
4.97337
4.98096
4.96109
4.95537
4.95315
4.95482
4.96082
4.97167
4.98835
5.01214
5.04171
5.06745
5.02057
5.00985
5.00752
5.00962
5.01975
5.03805
5.06617
5.10727
5.15867
5.20207
5.09228
5.08476
5.08227
5.08538
5.09396
5.11064
5.13886
5.18479
5.25076
5.32697
5.23372
5.2201
5.21894
5.2212
5.23123
5.24922
5.27705
5.31797
5.37116
5.43287
7.61634
7.61322
7.61174
7.61263
7.61571
7.62042
7.62703
7.63547
7.64498
7.65416
7.14091
7.14148
7.14181
7.14181
7.14163
7.14128
7.14084
7.14038
7.13997
7.13944
4.9729
4.97226
4.97151
4.97139
4.97171
4.97235
4.97326
4.97441
4.97563
4.97577
4.89541
4.89689
4.89788
4.89762
4.89678
4.89562
4.89446
4.89355
4.89308
4.89255
4.87439
4.87278
4.87206
4.87231
4.87356
4.87578
4.87896
4.88298
4.88711
4.88869
4.89534
4.89393
4.8938
4.894
4.89564
4.89852
4.90268
4.90806
4.91364
4.91679
4.90942
4.90678
4.90565
4.90646
4.9094
4.91462
4.92247
4.93324
4.94633
4.95791
4.95578
4.94974
4.94853
4.94968
4.95537
4.96542
4.98032
5.00097
5.02535
5.0446
5.02775
5.02507
5.02424
5.02586
5.02972
5.03717
5.04969
5.06965
5.09696
5.13266
5.19881
5.18915
5.18873
5.19042
5.19759
5.20992
5.22789
5.25245
5.28071
5.31392
7.39078
7.38851
7.38743
7.38809
7.39031
7.39376
7.39861
7.40456
7.41089
7.41667
6.92868
6.92916
6.92942
6.92943
6.92932
6.9291
6.92881
6.92851
6.92824
6.92779
4.96704
4.96666
4.96619
4.96613
4.96639
4.96687
4.96756
4.96848
4.96957
4.96961
4.88725
4.88838
4.8891
4.88901
4.88852
4.88784
4.88716
4.88667
4.88657
4.88644
4.8631
4.86214
4.86173
4.86187
4.86256
4.86377
4.8655
4.86771
4.87012
4.87093
4.87431
4.87339
4.87321
4.87334
4.87437
4.87619
4.87871
4.88181
4.88486
4.88662
4.88151
4.88028
4.8797
4.88011
4.88158
4.88415
4.8879
4.8929
4.89888
4.90474
4.91833
4.91468
4.91403
4.91478
4.91821
4.9241
4.9325
4.94361
4.95599
4.96577
4.98833
4.98799
4.98805
4.9889
4.9904
4.99327
4.99799
5.0057
5.01522
5.03366
5.17511
5.16809
5.16808
5.16949
5.1749
5.18363
5.1956
5.21079
5.22575
5.24492
7.15277
7.15123
7.15051
7.15096
7.15246
7.15496
7.15837
7.1624
7.16647
7.17004
6.7054
6.70581
6.70601
6.70602
6.70597
6.70583
6.70564
6.70544
6.70526
6.70486
4.9621
4.96197
4.96173
4.96173
4.96191
4.96224
4.96274
4.96343
4.96441
4.96433
4.88316
4.88405
4.88456
4.88456
4.88432
4.88398
4.88366
4.88346
4.88363
4.88376
4.85849
4.85796
4.85777
4.85784
4.85818
4.85877
4.85964
4.8608
4.86224
4.86274
4.86411
4.86338
4.86314
4.86324
4.86398
4.86529
4.86704
4.86911
4.87107
4.87232
4.86733
4.86673
4.86641
4.86663
4.86739
4.86871
4.87055
4.87294
4.87577
4.87911
4.89747
4.89507
4.89467
4.89524
4.8975
4.90123
4.90633
4.91282
4.91969
4.92558
4.96459
4.96523
4.96572
4.96619
4.9666
4.96733
4.96842
4.97057
4.97215
4.98301
5.15882
5.1537
5.15392
5.15521
5.15938
5.16583
5.1741
5.18386
5.19161
5.20372
6.90259
6.90153
6.90109
6.90138
6.90241
6.90412
6.90643
6.90904
6.91155
6.91372
6.471
6.47136
6.47151
6.47152
6.4715
6.47142
6.47129
6.47116
6.47103
6.47067
4.95765
4.95777
4.95771
4.95776
4.95788
4.95807
4.95839
4.95889
4.9598
4.95961
4.88105
4.88176
4.8821
4.88215
4.88207
4.88196
4.88189
4.88189
4.88223
4.88253
4.85711
4.85688
4.85684
4.85687
4.85698
4.85718
4.85752
4.85805
4.85887
4.85924
4.85959
4.85897
4.85869
4.85876
4.85933
4.86032
4.86162
4.8631
4.86448
4.86547
4.86066
4.86032
4.86013
4.86024
4.86067
4.86138
4.86234
4.86353
4.86492
4.867
4.88598
4.88427
4.88399
4.88446
4.88604
4.88857
4.89188
4.89597
4.90013
4.90427
4.94969
4.95058
4.95125
4.95153
4.95151
4.95138
4.95097
4.95083
4.94912
4.95652
5.14707
5.1433
5.14369
5.14489
5.14821
5.15315
5.1591
5.16562
5.16937
5.17782
6.64043
6.63974
6.63946
6.63966
6.64034
6.64146
6.64294
6.64455
6.64601
6.6473
6.22555
6.22586
6.22597
6.22599
6.22598
6.22593
6.22585
6.22576
6.22566
6.22533
4.95351
4.95387
4.95394
4.95404
4.95411
4.9542
4.95436
4.95468
4.95555
4.9553
4.87984
4.88039
4.88059
4.88066
4.88067
4.88071
4.8808
4.88095
4.8814
4.88184
4.85724
4.8572
4.85723
4.85723
4.85721
4.85719
4.85721
4.85737
4.85781
4.85813
4.85789
4.85737
4.85709
4.85714
4.85755
4.85829
4.85925
4.86032
4.86132
4.8621
4.8579
4.85766
4.85752
4.85758
4.85783
4.85824
4.85876
4.8594
4.86011
4.86146
4.87926
4.87798
4.87776
4.87814
4.87927
4.88103
4.88327
4.88596
4.88864
4.89184
4.93886
4.93966
4.94034
4.94055
4.94043
4.94006
4.93922
4.93835
4.93553
4.94123
5.13763
5.13487
5.13534
5.13647
5.13919
5.14309
5.14753
5.15204
5.15349
5.15992
6.36664
6.36621
6.36604
6.36617
6.3666
6.36729
6.36818
6.36911
6.3699
6.37064
5.96935
5.9696
5.96969
5.96971
5.96971
5.96967
5.96962
5.96955
5.96948
5.96918
4.94956
4.95013
4.95029
4.95043
4.95047
4.95048
4.9505
4.95067
4.95152
4.9513
4.87893
4.87932
4.8794
4.87944
4.8795
4.87963
4.87982
4.88007
4.88057
4.88119
4.85799
4.85802
4.85808
4.85806
4.85798
4.85786
4.85774
4.8577
4.8579
4.85822
4.85751
4.85708
4.85684
4.85686
4.85715
4.85765
4.85832
4.85906
4.85977
4.86036
4.85707
4.85688
4.85677
4.85679
4.85693
4.85717
4.85747
4.8578
4.85817
4.85903
4.87447
4.8735
4.87331
4.87359
4.87437
4.87556
4.87705
4.8788
4.88056
4.88307
4.92889
4.92943
4.93004
4.93022
4.93012
4.92977
4.92897
4.92804
4.92517
4.92983
5.12851
5.12656
5.12704
5.12811
5.13035
5.13347
5.13686
5.14003
5.14012
5.14524
6.08174
6.0815
6.0814
6.08148
6.08172
6.08211
6.08261
6.0831
6.08347
6.08389
5.70303
5.70325
5.70332
5.70333
5.70333
5.70331
5.70327
5.70321
5.70315
5.70289
4.94549
4.9462
4.94644
4.94663
4.94666
4.9466
4.94651
4.94652
4.94727
4.94724
4.87792
4.87809
4.87807
4.87808
4.87815
4.87832
4.87855
4.87885
4.87935
4.88017
4.85879
4.85881
4.85885
4.85882
4.85873
4.8586
4.85845
4.85836
4.85843
4.85875
4.85769
4.85737
4.85719
4.85719
4.85736
4.85767
4.85809
4.85856
4.85903
4.85946
4.85718
4.85703
4.85695
4.85695
4.85702
4.85714
4.85728
4.85744
4.8576
4.8581
4.86985
4.86916
4.869
4.86917
4.86965
4.87038
4.87128
4.87231
4.87341
4.87532
4.91761
4.91789
4.91837
4.91851
4.91843
4.91815
4.9175
4.91673
4.91431
4.91803
5.11693
5.11565
5.1161
5.11707
5.11887
5.12132
5.12388
5.12602
5.12529
5.12929
5.78657
5.78645
5.78639
5.78644
5.78656
5.78676
5.78701
5.78722
5.78737
5.78758
5.42745
5.42764
5.42768
5.42769
5.42769
5.42768
5.42765
5.42762
5.42756
5.42736
4.93986
4.94057
4.94097
4.94121
4.94126
4.94115
4.94093
4.94074
4.94112
4.94141
4.87645
4.87636
4.87627
4.87623
4.87629
4.87644
4.87666
4.87697
4.87742
4.87838
4.85926
4.8592
4.85921
4.85918
4.85911
4.85902
4.85892
4.85886
4.85887
4.85916
4.85816
4.85795
4.85783
4.85783
4.85791
4.85808
4.85831
4.85857
4.85885
4.85913
4.85776
4.85768
4.85763
4.85762
4.85764
4.85768
4.85771
4.85775
4.8578
4.85801
4.86485
4.86442
4.86431
4.86439
4.86463
4.86499
4.86543
4.86592
4.86651
4.86778
4.90384
4.90389
4.90418
4.90423
4.90411
4.90382
4.90329
4.90267
4.90106
4.90375
5.09576
5.09505
5.09542
5.09622
5.09755
5.09933
5.10112
5.10237
5.1012
5.10388
5.48214
5.48208
5.48206
5.48208
5.48212
5.48218
5.48225
5.48231
5.48236
5.48246
5.14246
5.14256
5.14257
5.14258
5.14258
5.14257
5.14257
5.14256
5.14255
5.14245
4.92498
4.9256
4.92625
4.92659
4.92666
4.92653
4.9262
4.92573
4.92522
4.92556
4.87347
4.87314
4.87294
4.87285
4.87286
4.87298
4.87318
4.87347
4.8739
4.87481
4.85946
4.85938
4.85936
4.85934
4.85931
4.85927
4.85923
4.85921
4.85923
4.85941
4.85896
4.85885
4.85879
4.85879
4.85883
4.8589
4.859
4.85913
4.85926
4.85941
4.85872
4.85869
4.85867
4.85866
4.85866
4.85865
4.85864
4.85863
4.85862
4.85865
4.8609
4.86072
4.86067
4.86069
4.86078
4.86091
4.86106
4.86122
4.86144
4.86204
4.88705
4.88689
4.88696
4.88691
4.88673
4.88642
4.88601
4.88559
4.88503
4.88671
5.04148
5.04117
5.04141
5.04191
5.0427
5.04373
5.04475
5.0453
5.04429
5.04532
5.16848
5.16845
5.16846
5.16846
5.16847
5.16847
5.16847
5.16846
5.16843
5.16849
11.2613
11.376
11.3307
11.1152
82.7639
84.8101
85.2638
85.9446
143.055
148.479
148.929
147.7
202.682
212.051
211.887
207.581
264.329
277.899
276.655
269.132
332.528
350.683
348.564
339.779
394.714
417.205
414.809
407.321
432.461
458.54
456.588
451.861
344.964
367.385
364.885
363.395
11.4684
11.7064
11.5513
11.1464
9.70925
9.76807
9.77083
9.7272
76.085
79.2518
79.9992
80.158
133.844
144.663
145.74
143.59
192.846
214.346
214.84
208.921
256.101
290.771
289.759
279.728
329.469
379.955
378.19
365.252
399.445
466.088
465.163
451.999
445.73
526.733
527.863
516.462
350.158
422.055
420.338
415.288
10.707
10.9372
10.8676
10.647
8.77343
8.7862
8.78509
8.77359
26.5435
28.9282
28.1797
25.6806
49.3291
53.693
52.0107
47.3412
74.5342
81.2461
78.1014
70.5777
103.419
112.903
107.688
96.5742
139.444
152.74
145.088
129.135
177.329
194.597
184.415
163.303
207.539
228.579
216.308
190.668
164.765
181.517
170.053
149.134
9.90966
10.0002
9.97708
9.87784
8.50882
8.51132
8.51192
8.5109
11.4847
11.7216
11.6852
11.4892
21.2112
21.921
21.8471
21.3031
31.9816
33.4501
33.1854
31.8637
44.4934
46.9085
46.2279
43.692
60.6353
64.3829
63.0417
58.7022
78.0748
83.1588
80.8636
74.3845
92.6197
99.1277
95.8072
87.0711
72.0061
77.0966
73.5597
65.9246
9.44605
9.49041
9.48734
9.44701
8.3301
8.3312
8.33142
8.3307
7.0509
7.13864
7.16108
7.13035
11.6838
11.974
12.052
11.9633
16.8699
17.4781
17.5727
17.3016
22.8328
23.8472
23.8766
23.2659
30.7163
32.3366
32.2161
31.0174
39.2346
41.4629
41.0347
39.0416
46.2912
49.2157
48.3853
45.3882
34.4459
36.6476
35.4454
32.5521
9.09614
9.12004
9.12168
9.10484
8.18004
8.18097
8.18104
8.18021
5.61312
5.62613
5.63021
5.6278
7.46409
7.53201
7.56253
7.56192
9.94257
10.1243
10.1889
10.1609
12.8365
13.181
13.2647
13.1608
16.8015
17.4173
17.5047
17.2332
21.0541
21.9501
21.9705
21.4372
24.4978
25.7474
25.6421
24.7014
17.506
18.3949
18.0362
17.0288
8.81095
8.82284
8.82523
8.81919
8.02946
8.03035
8.0304
8.02958
5.20082
5.20349
5.20385
5.20248
5.82859
5.84359
5.85127
5.85247
6.91917
6.97123
6.99519
6.99484
8.26276
8.37445
8.41775
8.4066
10.2385
10.4659
10.5352
10.4854
12.3645
12.7122
12.7822
12.6626
14.0657
14.5849
14.6312
14.367
10.2349
10.5699
10.4901
10.1985
8.56383
8.56927
8.57138
8.57006
7.87147
7.87233
7.87238
7.8716
5.06563
5.06652
5.06625
5.06509
5.23602
5.23798
5.23894
5.23912
5.68706
5.69889
5.70481
5.70554
6.26817
6.29805
6.31213
6.31316
7.19755
7.27272
7.30322
7.29754
8.21937
8.33995
8.38005
8.36208
9.07676
9.27688
9.32194
9.2578
7.34537
7.45779
7.45162
7.38582
8.33609
8.33834
8.33982
8.34011
7.70372
7.70452
7.70457
7.70385
5.01483
5.01558
5.01535
5.01427
5.02167
5.02154
5.02134
5.02114
5.20607
5.20799
5.2089
5.20898
5.45681
5.46299
5.4663
5.46729
5.88292
5.90538
5.91585
5.91601
6.36146
6.39672
6.41223
6.41334
6.81188
6.88265
6.90558
6.89215
6.20159
6.23536
6.23978
6.22964
8.11311
8.11386
8.11477
8.11539
7.52546
7.52619
7.52624
7.52559
4.99237
4.9931
4.99292
4.99191
4.93942
4.93918
4.93893
4.9387
5.0105
5.01039
5.01026
5.01019
5.12425
5.12477
5.12515
5.12554
5.3251
5.33161
5.33484
5.33507
5.56153
5.56942
5.57411
5.57682
5.81816
5.8425
5.8518
5.84847
5.69984
5.70722
5.70996
5.71105
7.88763
7.88771
7.88822
7.8888
7.33632
7.33699
7.33703
7.33644
4.98035
4.98102
4.98085
4.9799
4.90618
4.90606
4.90589
4.90569
4.92591
4.92552
4.92528
4.92523
4.98067
4.98021
4.98001
4.98012
5.07798
5.08013
5.08114
5.08109
5.20792
5.20854
5.2096
5.21143
5.3695
5.37877
5.38218
5.38011
5.45415
5.45299
5.45361
5.45618
7.65641
7.65621
7.65648
7.65693
7.13612
7.13671
7.13674
7.13622
4.97244
4.97303
4.97285
4.97194
4.89224
4.89222
4.89211
4.89192
4.88765
4.8873
4.88711
4.8871
4.91587
4.91542
4.91518
4.91519
4.96286
4.9638
4.96418
4.96401
5.04347
5.04264
5.04268
5.04375
5.15606
5.16058
5.16175
5.15958
5.32414
5.32059
5.3201
5.3223
7.41766
7.4174
7.41754
7.41785
6.92474
6.92525
6.92527
6.92481
4.96634
4.96681
4.9666
4.96574
4.88626
4.88627
4.88619
4.88601
4.87001
4.86974
4.8696
4.86961
4.88592
4.88561
4.88543
4.88541
4.90776
4.90832
4.90849
4.90832
4.96417
4.96336
4.9632
4.96378
5.05079
5.05378
5.05412
5.0518
5.25163
5.2478
5.24689
5.24846
7.17024
7.17004
7.1701
7.17027
6.70212
6.70254
6.70255
6.70216
4.96115
4.9615
4.96125
4.96044
4.88365
4.88369
4.88362
4.88344
4.86201
4.86181
4.86171
4.86173
4.87189
4.8717
4.87157
4.87153
4.88123
4.88162
4.88172
4.88155
4.92494
4.92444
4.92429
4.92457
4.99782
5.00031
5.00034
4.99791
5.20928
5.20592
5.20493
5.20587
6.91338
6.91331
6.91333
6.91337
6.46828
6.46862
6.46862
6.46829
4.95657
4.95679
4.95649
4.95574
4.88252
4.88258
4.88251
4.88233
4.85873
4.8586
4.85853
4.85855
4.86522
4.8651
4.86501
4.86497
4.86857
4.86885
4.8689
4.86875
4.90468
4.9045
4.90441
4.90447
4.97035
4.97271
4.97262
4.97008
5.18305
5.18045
5.17952
5.17985
6.6466
6.64668
6.64669
6.64661
6.22336
6.22361
6.22359
6.22332
4.95248
4.95256
4.95224
4.95155
4.88201
4.88211
4.88205
4.88184
4.85786
4.85779
4.85775
4.85776
4.86196
4.86188
4.86182
4.86179
4.8626
4.86281
4.86283
4.86269
4.89303
4.8931
4.89308
4.89297
4.95454
4.95696
4.95683
4.95414
5.16517
5.16346
5.16268
5.16239
6.36969
6.36991
6.36992
6.36973
5.96769
5.96786
5.96781
5.9676
4.94881
4.9488
4.94846
4.94784
4.88166
4.88181
4.88176
4.88151
4.85818
4.85818
4.85817
4.85816
4.8603
4.86025
4.86021
4.8602
4.85982
4.85995
4.85995
4.85984
4.88471
4.88496
4.88498
4.88478
4.94262
4.9452
4.94508
4.94224
5.15066
5.14997
5.14939
5.14847
6.08276
6.0831
6.08312
6.08286
5.70197
5.70204
5.70197
5.70182
4.94537
4.94536
4.94506
4.94451
4.88103
4.88127
4.88122
4.88089
4.8589
4.85896
4.85897
4.85895
4.85945
4.85943
4.85941
4.85941
4.85856
4.85864
4.85863
4.85855
4.87705
4.87738
4.87742
4.87719
4.92967
4.93241
4.93234
4.92943
5.13478
5.13533
5.13503
5.13339
5.78636
5.78679
5.78681
5.78652
5.42713
5.42708
5.42699
5.42691
4.94082
4.94103
4.94086
4.94031
4.8795
4.8798
4.87972
4.87931
4.85939
4.85948
4.8595
4.85947
4.85914
4.85914
4.85914
4.85915
4.8582
4.85822
4.85821
4.85818
4.86925
4.86956
4.86962
4.86942
4.91262
4.91512
4.9151
4.91255
5.10883
5.11095
5.111
5.10845
5.4814
5.48191
5.48193
5.4816
5.14301
5.14275
5.14267
5.14275
4.92662
4.92739
4.92742
4.92663
4.87555
4.87572
4.8756
4.87528
4.85951
4.85957
4.85959
4.85957
4.85942
4.85941
4.85942
4.85945
4.85867
4.85866
4.85865
4.85866
4.86285
4.86302
4.86306
4.86296
4.89104
4.89227
4.89225
4.89098
5.04768
5.05104
5.05134
5.04806
5.16796
5.16852
5.16853
5.16816
10.109
9.36284
9.0507
8.9382
8.87359
8.82802
8.79765
8.78044
8.771
8.76535
103.729
49.1173
35.7486
29.9421
24.537
19.9264
16.3403
13.6694
11.7668
10.4111
160.891
70.8114
51.0448
43.6722
37.1025
31.328
26.4946
22.6197
19.5871
17.2287
206.242
82.5553
55.9099
46.6198
39.2318
32.6353
27.1066
22.726
19.3495
16.779
241.622
88.8037
58.7367
47.8296
39.9209
32.5859
26.5444
21.8413
18.2731
15.6444
277.499
94.5128
60.8677
48.1464
39.6739
31.6305
25.2215
20.3579
16.7956
14.2601
306.304
97.9457
61.5739
47.6111
38.865
30.3619
23.8168
18.974
15.5157
13.1456
314.175
93.5238
56.5199
42.0732
33.7571
25.656
19.8246
15.7218
12.9888
11.1822
223.587
55.9791
30.4794
21.0412
16.216
12.1786
9.92478
8.5914
7.78769
7.26497
9.57169
9.54512
9.38981
9.36327
9.31655
9.29028
9.26939
9.25818
9.25052
9.24377
9.36318
9.05293
8.90078
8.81525
8.76132
8.72567
8.70251
8.6887
8.68134
8.67666
53.1085
28.6594
22.5429
19.4339
16.6538
14.1839
12.151
10.5912
9.4555
8.66817
89.8953
46.2054
35.7471
30.964
27.1201
23.4453
20.2277
17.573
15.4526
13.8449
122.064
58.515
42.801
35.5595
30.4654
25.6804
21.6156
18.3506
15.8104
13.9354
152.249
68.6562
47.7936
38.4402
32.2869
26.5804
21.889
18.2213
15.4205
13.4211
186.084
78.7656
52.092
40.395
33.1565
26.5701
21.3673
17.4231
14.5315
12.5412
216.712
86.3503
54.6648
41.1663
33.2479
26.0777
20.6139
16.5921
13.7153
11.8067
232.567
86.6169
51.88
37.4121
29.4872
22.4963
17.5092
14.0326
11.7238
10.2496
166.926
54.6583
29.0324
19.3403
14.6555
11.1979
9.25422
8.11409
7.42152
6.99142
9.81704
9.50145
9.33068
9.26733
9.21238
9.17904
9.15481
9.13995
9.12944
9.12019
8.73405
8.6926
8.6599
8.63271
8.61141
8.59594
8.58562
8.57944
8.57607
8.57365
19.941
16.5597
14.4857
12.6714
11.1051
9.80425
8.79193
8.04523
7.50917
7.13965
35.8594
28.6541
24.8747
21.6461
18.8741
16.4677
14.4746
12.8733
11.603
10.6482
50.9324
37.8616
31.4815
26.2956
22.2052
18.7874
16.0481
13.9039
12.2504
11.0436
65.9909
45.621
36.579
29.54
24.3199
20.0663
16.7591
14.2423
12.3374
10.9903
83.0783
53.2935
41.1126
32.0392
25.6787
20.6034
16.7891
13.974
11.9349
10.5467
98.9527
59.1555
44.1312
33.4161
26.2797
20.6475
16.5459
13.6098
11.5331
10.1664
108.236
59.7414
42.595
30.9686
23.719
18.1731
14.3858
11.8247
10.1438
9.07381
75.8394
36.6395
23.8576
16.2522
12.2058
9.66662
8.2771
7.4608
6.95351
6.63417
9.56965
9.37603
9.24238
9.1626
9.10505
9.06903
9.04392
9.02676
9.01403
9.00297
8.50594
8.49587
8.48486
8.47496
8.46742
8.46228
8.45908
8.45745
8.45712
8.45671
10.9388
10.1259
9.27684
8.43471
7.72922
7.18748
6.78956
6.50264
6.29561
6.15234
19.8364
17.9944
16.1475
14.2805
12.6679
11.3411
10.2807
9.44655
8.7901
8.29954
28.422
24.586
21.1543
17.9582
15.3716
13.3002
11.6784
10.428
9.47275
8.78136
37.1727
30.6249
25.4037
20.8363
17.3363
14.6073
12.532
10.981
9.81654
8.99526
47.3997
36.9514
29.5166
23.3431
18.8379
15.4086
12.8847
11.0584
9.74972
8.86125
56.9953
42.0771
32.5592
25.0018
19.7341
15.8003
12.9962
11.0333
9.65614
8.74636
62.735
43.2885
32.109
23.7094
18.218
14.2841
11.6578
9.92111
8.78514
8.05292
42.7225
26.2194
17.9757
12.7855
10.0152
8.3829
7.46506
6.91067
6.55237
6.32147
9.32506
9.18713
9.08021
9.01065
8.96251
8.9309
8.90815
8.89178
8.87941
8.86886
8.33035
8.32886
8.32739
8.32624
8.32554
8.32524
8.32527
8.32573
8.32686
8.32799
6.99987
6.75757
6.50482
6.26713
6.06894
5.91242
5.79211
5.70084
5.63226
5.58519
11.5997
10.9115
10.1405
9.36594
8.68019
8.10782
7.64854
7.28734
7.00002
6.78396
16.4163
14.9363
13.3612
11.8481
10.5601
9.50888
8.68078
8.04347
7.55658
7.20549
21.5075
18.9186
16.3506
14.0032
12.1001
10.5987
9.45604
8.60802
7.96915
7.5158
27.7441
23.4458
19.5167
16.0871
13.4343
11.407
9.91681
8.84749
8.08092
7.55763
33.7173
27.4024
22.0859
17.647
14.3709
11.9397
10.2131
9.01689
8.17221
7.6058
37.3907
28.8306
22.2942
17.1659
13.6337
11.1492
9.49706
8.40972
7.68884
7.21354
24.539
17.3571
12.8192
9.95829
8.3609
7.40042
6.8247
6.4613
6.21473
6.05257
9.05105
8.96836
8.89692
8.84597
8.80863
8.78187
8.76167
8.74648
8.73472
8.72486
8.18064
8.18081
8.18122
8.18182
8.18256
8.18334
8.18415
8.18514
8.18665
8.18849
5.61038
5.56614
5.5148
5.46259
5.41499
5.37407
5.34036
5.31346
5.29321
5.28064
7.50328
7.31069
7.0637
6.8054
6.56992
6.37093
6.21026
6.08224
5.9759
5.8936
9.97074
9.46604
8.8484
8.22593
7.67565
7.2197
6.85703
6.57471
6.35518
6.19598
12.7274
11.7722
10.6642
9.60038
8.70339
7.9888
7.44244
7.03486
6.72015
6.49232
16.3238
14.6202
12.7672
11.0681
9.6975
8.64218
7.86256
7.29987
6.88914
6.6046
19.8677
17.27
14.6062
12.2786
10.4871
9.15407
8.20275
7.54029
7.06005
6.72961
22.1346
18.4589
15.0292
12.2399
10.2422
8.83956
7.89619
7.26549
6.83472
6.54291
14.4107
11.5578
9.43796
8.05525
7.21551
6.67756
6.3292
6.09851
5.93387
5.82414
8.79611
8.75026
8.70619
8.67084
8.64259
8.62062
8.60324
8.58966
8.5789
8.57003
8.03019
8.03056
8.03116
8.03193
8.03279
8.03364
8.03446
8.03541
8.03683
8.03866
5.19859
5.19002
5.18034
5.16947
5.15838
5.14791
5.13874
5.13129
5.12633
5.12457
5.83975
5.79337
5.73182
5.66497
5.60201
5.54765
5.50304
5.4663
5.43239
5.4043
6.94917
6.79223
6.58638
6.37008
6.1716
6.002
5.86256
5.74988
5.6588
5.59193
8.29697
7.96659
7.55015
7.13577
6.77541
6.48235
6.25305
6.07727
5.93426
5.82706
10.2241
9.56563
8.78284
8.03994
7.42164
6.93694
6.5706
6.29866
6.09255
5.94683
12.1988
11.1465
9.94437
8.86002
7.99821
7.34743
6.87255
6.53317
6.2752
6.0915
13.538
11.9813
10.3651
9.01353
8.0104
7.29269
6.794
6.44855
6.20278
6.03191
9.43933
8.39981
7.51495
6.88786
6.4622
6.16688
5.96051
5.81747
5.71009
5.63816
8.56075
8.53639
8.50978
8.48559
8.46461
8.44714
8.43271
8.42103
8.41156
8.40388
7.87226
7.87257
7.87303
7.87362
7.87427
7.8749
7.8755
7.8762
7.87738
7.879
5.06422
5.06227
5.06024
5.05766
5.05465
5.05153
5.04873
5.0466
5.04585
5.04677
5.23643
5.22807
5.21689
5.20379
5.19086
5.17972
5.17096
5.16356
5.15444
5.14556
5.69482
5.653
5.59412
5.52773
5.46285
5.40424
5.35343
5.31016
5.27354
5.24645
6.28832
6.19136
6.05893
5.91947
5.79193
5.68352
5.59498
5.52415
5.46208
5.41334
7.22552
6.9983
6.71019
6.42364
6.17419
5.9703
5.80902
5.68365
5.58403
5.51238
8.23695
7.85184
7.37535
6.92809
6.55728
6.2664
6.04452
5.87903
5.74528
5.64634
8.99987
8.39075
7.71433
7.1251
6.6658
6.32236
6.07133
5.88922
5.75396
5.65811
7.19436
6.83201
6.47428
6.19049
5.97563
5.81455
5.69398
5.60691
5.53818
5.4923
8.3361
8.32286
8.3066
8.29022
8.27498
8.26157
8.25003
8.24038
8.23236
8.22597
7.70454
7.70478
7.70509
7.70549
7.70592
7.70632
7.70667
7.70712
7.70803
7.7094
5.01406
5.01318
5.01235
5.01129
5.00999
5.00861
5.00741
5.00666
5.00686
5.00807
5.02031
5.01946
5.01868
5.01745
5.01626
5.01576
5.01614
5.01662
5.01495
5.01221
5.20625
5.19592
5.17978
5.1595
5.13802
5.11738
5.09852
5.08162
5.06673
5.05572
5.46231
5.43765
5.39971
5.3559
5.3129
5.2743
5.24133
5.21381
5.18733
5.16526
5.89618
5.82509
5.72839
5.6247
5.52832
5.44482
5.37507
5.31809
5.27072
5.23639
6.38633
6.26291
6.09343
5.92333
5.77295
5.64794
5.54718
5.4684
5.40029
5.34782
6.81474
6.59579
6.3368
6.0957
5.89491
5.73564
5.61263
5.5192
5.44705
5.39545
6.18288
6.05183
5.90401
5.77299
5.664
5.5763
5.50649
5.45424
5.41082
5.38218
8.11328
8.10585