/*--------------------------------*- C++ -*----------------------------------*\
| =========                 |                                                 |
| \\      /  F ield         | foam-extend: Open Source CFD                    |
|  \\    /   O peration     | Version:     4.0                                |
|   \\  /    A nd           | Web:         http://www.foam-extend.org         |
|    \\/     M anipulation  |                                                 |
\*---------------------------------------------------------------------------*/
FoamFile
{
    version     2.0;
    format      ascii;
    class       volScalarField;
    location    "1100";
    object      MaU;
}
// * * * * * * * * * * * * * * * * * * * * * * * * * * * * * * * * * * * * * //

dimensions      [0 0 0 0 0 0 0];

internalField   nonuniform List<scalar> 
34480
(
0.62325
0.624254
0.624793
0.624908
0.624605
0.623813
0.62239
0.619655
0.61356
0.607713
0.626471
0.627326
0.627801
0.627844
0.627298
0.62602
0.624033
0.621084
0.614068
0.608491
0.628449
0.629244
0.629643
0.629577
0.628873
0.627562
0.625823
0.623562
0.616554
0.611471
0.628326
0.629143
0.629618
0.62969
0.629218
0.628317
0.627084
0.625546
0.618944
0.614387
0.628666
0.629591
0.630211
0.630507
0.630362
0.629943
0.629262
0.628504
0.622703
0.618681
0.628159
0.629145
0.629852
0.63028
0.630374
0.630363
0.630221
0.630296
0.625697
0.62254
0.628272
0.629403
0.630218
0.630786
0.63109
0.631421
0.631782
0.632688
0.629555
0.627242
0.627621
0.628794
0.629564
0.630016
0.630203
0.630489
0.631008
0.632466
0.630871
0.629778
0.627313
0.628648
0.629532
0.630117
0.630477
0.630923
0.631697
0.633668
0.633371
0.632212
0.623503
0.624583
0.624663
0.623824
0.622246
0.620315
0.618493
0.618062
0.617428
0.618515
0.613289
0.614758
0.615334
0.615088
0.613949
0.61164
0.607536
0.600281
0.589583
0.575719
0.617713
0.619048
0.619588
0.619337
0.618107
0.615526
0.611002
0.603171
0.590523
0.574363
0.620598
0.621853
0.62235
0.622078
0.620789
0.618179
0.613741
0.606089
0.592619
0.575326
0.6213
0.622568
0.623135
0.623004
0.62193
0.61967
0.615639
0.608425
0.59458
0.576905
0.622335
0.62368
0.624369
0.624448
0.623678
0.621877
0.618373
0.611811
0.598075
0.580593
0.62238
0.623771
0.624543
0.624759
0.624227
0.622844
0.61989
0.614126
0.600954
0.584297
0.622953
0.624453
0.62532
0.625682
0.625367
0.624359
0.621948
0.61705
0.604824
0.589276
0.622629
0.62416
0.624995
0.625272
0.624902
0.623958
0.621845
0.617675
0.606656
0.592828
0.622571
0.624213
0.62514
0.625531
0.625339
0.62463
0.622914
0.619505
0.609771
0.596769
0.61895
0.62041
0.620782
0.620156
0.618594
0.616254
0.61287
0.608169
0.598924
0.58907
0.605595
0.607168
0.607735
0.607417
0.60618
0.603866
0.60018
0.594621
0.586553
0.576343
0.610318
0.611875
0.612447
0.61208
0.61066
0.607923
0.603361
0.596111
0.584719
0.569531
0.613501
0.615061
0.615634
0.615275
0.613803
0.610899
0.605942
0.597802
0.583802
0.563987
0.614709
0.616331
0.616987
0.616745
0.615408
0.612652
0.607698
0.599141
0.583004
0.559114
0.616235
0.617948
0.618717
0.61866
0.617558
0.615114
0.610404
0.601839
0.584214
0.557064
0.61671
0.618482
0.619338
0.619416
0.618518
0.6164
0.612039
0.603762
0.585262
0.555769
0.617655
0.619522
0.620469
0.620693
0.619998
0.61821
0.614265
0.606474
0.587678
0.556546
0.617638
0.619532
0.620462
0.620631
0.619909
0.618209
0.614542
0.60729
0.588725
0.556776
0.617841
0.619803
0.620805
0.621064
0.620473
0.618969
0.615669
0.609095
0.591197
0.557869
0.61446
0.616253
0.616844
0.616346
0.614747
0.612055
0.607614
0.600277
0.582948
0.550058
0.599969
0.601349
0.601823
0.601517
0.600429
0.598502
0.595638
0.591739
0.586781
0.581229
0.60444
0.605927
0.60645
0.606051
0.60466
0.602133
0.598219
0.592567
0.584727
0.575755
0.607497
0.609106
0.60967
0.609247
0.607715
0.604846
0.600213
0.593184
0.582593
0.569636
0.608918
0.610664
0.61132
0.610967
0.609446
0.606485
0.601464
0.593442
0.580204
0.562993
0.610725
0.6126
0.613363
0.613147
0.611754
0.6089
0.603777
0.595174
0.579694
0.558506
0.611502
0.613462
0.614313
0.614208
0.612948
0.610264
0.605202
0.596349
0.579083
0.554434
0.61273
0.614787
0.615721
0.615746
0.614643
0.612185
0.607313
0.598471
0.579937
0.552362
0.612975
0.615059
0.61599
0.615978
0.614856
0.612452
0.607719
0.599057
0.579847
0.550031
0.613404
0.615527
0.616512
0.616576
0.615562
0.613298
0.608759
0.600444
0.581227
0.548891
0.610269
0.61224
0.612937
0.612462
0.610745
0.607667
0.602367
0.593452
0.574442
0.540928
0.596042
0.597129
0.597492
0.597257
0.596445
0.595065
0.593132
0.590715
0.58796
0.585218
0.599971
0.601233
0.601677
0.601329
0.600162
0.598124
0.595144
0.591193
0.586323
0.581481
0.6026
0.604095
0.604617
0.604213
0.602813
0.600291
0.596434
0.59102
0.583764
0.576106
0.603965
0.60568
0.60631
0.605926
0.604418
0.601598
0.597077
0.590391
0.580606
0.569539
0.605827
0.607727
0.608468
0.60817
0.606676
0.603759
0.598836
0.591196
0.579027
0.564386
0.606744
0.608773
0.609608
0.609389
0.607943
0.605024
0.599879
0.591579
0.577272
0.559158
0.608129
0.610279
0.611196
0.611082
0.609732
0.606906
0.601706
0.593013
0.576933
0.55557
0.608556
0.610747
0.611675
0.611536
0.61016
0.607328
0.602094
0.593223
0.575883
0.551686
0.609161
0.611382
0.612351
0.612273
0.610974
0.608233
0.603059
0.594166
0.576211
0.548954
0.606253
0.608334
0.609107
0.608651
0.606867
0.603565
0.59787
0.588459
0.57029
0.540972
0.593339
0.594147
0.594406
0.594245
0.593694
0.592785
0.591568
0.590135
0.588615
0.58714
0.596686
0.597663
0.598012
0.597743
0.596852
0.595343
0.593238
0.590626
0.587704
0.585068
0.598768
0.600039
0.600488
0.600143
0.59897
0.596925
0.59395
0.590057
0.58535
0.580879
0.599908
0.601461
0.602031
0.601664
0.600296
0.597825
0.594066
0.588889
0.582097
0.575229
0.601648
0.603442
0.604126
0.603799
0.602346
0.599617
0.595265
0.58898
0.580052
0.570449
0.602562
0.604534
0.605321
0.605037
0.603547
0.600662
0.595872
0.588684
0.577681
0.565199
0.603992
0.606117
0.606989
0.606781
0.605317
0.60239
0.597333
0.589469
0.57659
0.561206
0.604513
0.606705
0.607602
0.607372
0.60586
0.602855
0.597601
0.589275
0.574899
0.55678
0.60524
0.607466
0.608397
0.608213
0.606745
0.603771
0.598455
0.589839
0.574498
0.553393
0.602525
0.604625
0.605431
0.604987
0.603187
0.599821
0.594119
0.585013
0.569179
0.545877
0.591468
0.592058
0.592236
0.592136
0.591787
0.591225
0.590496
0.589675
0.58884
0.587987
0.594312
0.59502
0.595279
0.595088
0.594456
0.59341
0.592004
0.590345
0.588615
0.587161
0.595847
0.596855
0.597218
0.596948
0.596034
0.59448
0.592311
0.589632
0.586659
0.584049
0.596689
0.598006
0.598493
0.598176
0.597022
0.594996
0.592052
0.588238
0.583685
0.579456
0.598192
0.599785
0.60039
0.600075
0.598766
0.596386
0.592771
0.587869
0.58158
0.575386
0.598998
0.60081
0.601523
0.60122
0.599803
0.597153
0.592975
0.587091
0.579001
0.570609
0.600377
0.602379
0.603181
0.602923
0.601466
0.59866
0.594068
0.587363
0.577537
0.566805
0.600908
0.603004
0.603845
0.603562
0.602031
0.599077
0.594164
0.586824
0.575513
0.562456
0.601705
0.603852
0.604724
0.604473
0.60295
0.599966
0.594892
0.587102
0.574714
0.559117
0.599141
0.601179
0.601977
0.60155
0.599799
0.596528
0.59114
0.582873
0.56985
0.552337
0.590141
0.590581
0.590701
0.590643
0.590432
0.590099
0.589676
0.589213
0.588744
0.588192
0.592604
0.593092
0.593275
0.593149
0.592725
0.592035
0.591133
0.590106
0.589082
0.588253
0.593658
0.594413
0.594691
0.594493
0.593821
0.592701
0.591189
0.589403
0.587543
0.586001
0.594203
0.595257
0.595653
0.595398
0.594482
0.59291
0.59071
0.588001
0.585003
0.5824
0.595413
0.596756
0.597266
0.596989
0.595881
0.593919
0.591063
0.587393
0.58307
0.579103
0.596046
0.597631
0.598252
0.597961
0.596699
0.594404
0.590946
0.586337
0.580561
0.574991
0.597312
0.599113
0.599826
0.599555
0.5982
0.595669
0.591721
0.586264
0.579017
0.571664
0.59778
0.5997
0.600461
0.600161
0.598705
0.595972
0.59163
0.585474
0.576903
0.567718
0.598606
0.600598
0.601392
0.60111
0.599631
0.596813
0.592239
0.585563
0.57596
0.564803
0.596152
0.598051
0.598808
0.598407
0.596765
0.593727
0.588876
0.581745
0.571486
0.558846
0.58917
0.589511
0.589593
0.589562
0.589439
0.589247
0.589006
0.588746
0.588475
0.588079
0.591365
0.59169
0.591816
0.591738
0.591466
0.591027
0.590465
0.58984
0.589229
0.588741
0.592027
0.592567
0.59277
0.592633
0.592163
0.59139
0.590373
0.589212
0.588055
0.587132
0.592322
0.593127
0.593435
0.593242
0.59255
0.591385
0.589804
0.587935
0.585982
0.584372
0.593233
0.594312
0.594724
0.594496
0.593606
0.592065
0.589901
0.587242
0.584318
0.581786
0.593668
0.594992
0.595511
0.595254
0.594187
0.592296
0.589558
0.586075
0.582035
0.57837
0.594787
0.596341
0.596951
0.596695
0.595502
0.593335
0.590092
0.585821
0.580603
0.575632
0.595135
0.596823
0.597489
0.597198
0.595885
0.593484
0.589822
0.584872
0.578557
0.572216
0.595966
0.597745
0.598446
0.598163
0.596801
0.594275
0.590342
0.584869
0.577656
0.569872
0.593582
0.595284
0.595974
0.595609
0.594126
0.59142
0.587236
0.581348
0.573534
0.564695
0.588433
0.588712
0.58877
0.588755
0.588684
0.588576
0.58844
0.588294
0.588131
0.587818
0.590452
0.590665
0.590751
0.590705
0.590536
0.590266
0.589922
0.589544
0.589173
0.588872
0.590808
0.59118
0.591322
0.591232
0.590916
0.590401
0.589737
0.588997
0.588279
0.587717
0.590924
0.591514
0.591744
0.591605
0.591104
0.590273
0.589174
0.587915
0.586653
0.58565
0.591556
0.592387
0.592706
0.592529
0.591846
0.590685
0.589103
0.58723
0.585279
0.583662
0.591798
0.592858
0.593275
0.593062
0.592202
0.590711
0.588622
0.586072
0.583292
0.580895
0.592766
0.594053
0.594558
0.594332
0.593333
0.591559
0.588998
0.585766
0.582082
0.578756
0.592954
0.594379
0.594942
0.594678
0.59355
0.591533
0.588569
0.584732
0.580186
0.575877
0.593782
0.595314
0.595912
0.595649
0.594455
0.592291
0.589047
0.584729
0.579449
0.574132
0.591437
0.592904
0.593508
0.593187
0.591898
0.589582
0.586113
0.581432
0.575651
0.569629
0.587858
0.588098
0.588141
0.588135
0.588094
0.588034
0.587957
0.587874
0.587771
0.587508
0.589769
0.589908
0.589967
0.589941
0.58984
0.589676
0.589469
0.589239
0.589008
0.58881
0.589885
0.590133
0.590229
0.590172
0.589966
0.589634
0.589211
0.588746
0.588301
0.587951
0.589898
0.590315
0.590481
0.590387
0.590038
0.589464
0.588721
0.587889
0.587078
0.586446
0.590287
0.590902
0.591141
0.591009
0.590505
0.589662
0.588541
0.587254
0.585968
0.584936
0.590361
0.591176
0.5915
0.591332
0.590667
0.589535
0.587995
0.586178
0.584294
0.582735
0.591193
0.592219
0.592622
0.592436
0.591634
0.590239
0.588288
0.585915
0.583358
0.581155
0.591196
0.592353
0.592812
0.592586
0.591658
0.590032
0.58772
0.584842
0.581637
0.578752
0.592031
0.593303
0.593797
0.593568
0.592566
0.590789
0.588213
0.58492
0.581143
0.577572
0.5897
0.590913
0.591423
0.591151
0.590072
0.588166
0.585393
0.5818
0.57763
0.573621
0.587403
0.587616
0.587648
0.587647
0.587624
0.58759
0.587547
0.587499
0.58743
0.587198
0.589253
0.589345
0.589387
0.589374
0.589314
0.589216
0.589091
0.58895
0.588799
0.588658
0.58917
0.58933
0.589394
0.589359
0.589229
0.58902
0.588756
0.588468
0.588191
0.587968
0.589155
0.589441
0.589558
0.589496
0.589261
0.588877
0.588385
0.587844
0.587325
0.586921
0.589338
0.589777
0.589948
0.589854
0.589496
0.588903
0.588131
0.587267
0.586429
0.58577
0.58928
0.589883
0.590126
0.589999
0.589504
0.588676
0.587574
0.586312
0.585052
0.584044
0.590004
0.590793
0.591103
0.590957
0.590339
0.589283
0.587844
0.586149
0.584404
0.582955
0.589807
0.590711
0.59107
0.590886
0.590153
0.588893
0.58715
0.585056
0.582841
0.580936
0.590675
0.591694
0.592088
0.591899
0.591093
0.58969
0.587715
0.585282
0.582637
0.580274
0.588336
0.5893
0.589714
0.589492
0.588623
0.587111
0.584971
0.582301
0.579364
0.576752
0.587037
0.587231
0.587255
0.587257
0.587243
0.587225
0.5872
0.587172
0.587124
0.586915
0.588866
0.588929
0.58896
0.588954
0.588919
0.588861
0.588785
0.588696
0.588591
0.588481
0.5886
0.5887
0.588741
0.588719
0.588639
0.588511
0.58835
0.588174
0.588002
0.587854
0.588624
0.588816
0.588897
0.588858
0.588705
0.588454
0.588136
0.587789
0.587456
0.587193
0.588634
0.588935
0.589055
0.58899
0.588742
0.588339
0.587821
0.587254
0.586714
0.586295
0.588482
0.588913
0.589088
0.588996
0.588642
0.588054
0.587288
0.586432
0.585602
0.584954
0.58913
0.589716
0.589947
0.589838
0.58938
0.588608
0.587579
0.586399
0.585228
0.584283
0.588725
0.589403
0.589675
0.589531
0.588974
0.588032
0.58676
0.585281
0.583778
0.582539
0.589667
0.590456
0.590758
0.590611
0.589987
0.588921
0.587458
0.585713
0.583898
0.582354
0.587298
0.588031
0.588355
0.588181
0.587506
0.586351
0.584754
0.582832
0.580809
0.579145
0.586743
0.58692
0.586938
0.586941
0.586933
0.586923
0.586909
0.586892
0.586857
0.586668
0.588587
0.588633
0.588657
0.588655
0.588635
0.5886
0.588553
0.588494
0.588416
0.588323
0.588128
0.588189
0.588213
0.588199
0.588151
0.588074
0.587978
0.587873
0.587766
0.587665
0.588255
0.588382
0.588437
0.588414
0.588316
0.588156
0.587954
0.587734
0.587521
0.587344
0.588114
0.588315
0.588394
0.58835
0.588185
0.587918
0.58758
0.587215
0.586874
0.586608
0.587906
0.588204
0.588327
0.588263
0.588017
0.587613
0.587095
0.586527
0.585988
0.585575
0.588509
0.588928
0.589095
0.589016
0.588689
0.588143
0.587431
0.58663
0.585858
0.585246
0.587884
0.588373
0.588571
0.588464
0.588056
0.587376
0.586477
0.585461
0.584462
0.58367
0.588957
0.589548
0.589772
0.589661
0.589198
0.588417
0.587369
0.586153
0.584933
0.583935
0.586527
0.58706
0.587306
0.587174
0.58667
0.585818
0.584666
0.583324
0.581962
0.580927
0.586499
0.586659
0.586672
0.586675
0.586671
0.586665
0.586657
0.586647
0.586622
0.586452
0.58841
0.588445
0.588465
0.588465
0.588453
0.588432
0.588402
0.588361
0.588299
0.588212
0.587721
0.587754
0.587767
0.587758
0.587729
0.587684
0.587629
0.587568
0.587503
0.587432
0.588011
0.588093
0.58813
0.588117
0.588057
0.587957
0.58783
0.587692
0.587556
0.587434
0.587737
0.587865
0.587916
0.587888
0.58778
0.587608
0.587393
0.587164
0.586952
0.586785
0.587506
0.587706
0.587789
0.587746
0.587581
0.587312
0.58697
0.586602
0.586257
0.585997
0.588082
0.588372
0.588488
0.588433
0.588207
0.587835
0.587355
0.586827
0.586329
0.585937
0.587227
0.587565
0.587704
0.587627
0.587339
0.586865
0.586248
0.585569
0.584918
0.584424
0.588499
0.588927
0.589088
0.589009
0.588678
0.588126
0.5874
0.586575
0.585774
0.585133
0.585958
0.586328
0.586507
0.586411
0.586048
0.585443
0.584639
0.58373
0.582833
0.582209
0.586263
0.586406
0.586414
0.586417
0.586415
0.586412
0.586408
0.586402
0.586384
0.586236
0.588338
0.588368
0.588384
0.588385
0.588378
0.588364
0.588344
0.588313
0.588261
0.588176
0.587354
0.587369
0.587374
0.587367
0.58735
0.587324
0.587294
0.587262
0.587223
0.587174
0.587864
0.587916
0.587941
0.587934
0.587897
0.587836
0.587759
0.587673
0.587588
0.587501
0.587478
0.587556
0.587588
0.58757
0.587502
0.587394
0.587261
0.58712
0.586991
0.586888
0.587253
0.587383
0.587438
0.587411
0.587303
0.587129
0.586909
0.586675
0.586457
0.586295
0.587805
0.587997
0.588073
0.588036
0.587885
0.587639
0.587327
0.586989
0.586677
0.586431
0.586707
0.586932
0.587027
0.586974
0.586778
0.586457
0.586046
0.585604
0.585185
0.584889
0.588258
0.58856
0.58867
0.588616
0.588388
0.588012
0.587525
0.586982
0.586468
0.586059
0.585504
0.585748
0.585875
0.585808
0.585556
0.585142
0.584597
0.584001
0.58342
0.58306
0.585936
0.586057
0.586062
0.586064
0.586063
0.586062
0.586061
0.586058
0.586048
0.585923
0.588393
0.588421
0.588434
0.588437
0.588432
0.588422
0.588407
0.588383
0.588337
0.58825
0.587024
0.587028
0.587029
0.587024
0.587013
0.586999
0.586984
0.586967
0.586946
0.586914
0.587797
0.587828
0.587842
0.587838
0.587816
0.587779
0.587734
0.587683
0.587632
0.587573
0.587325
0.587372
0.587393
0.587382
0.58734
0.587274
0.587193
0.587108
0.58703
0.586968
0.587133
0.587216
0.587253
0.587236
0.587168
0.587058
0.586919
0.586773
0.586636
0.586536
0.587647
0.587766
0.587814
0.587788
0.58769
0.587533
0.587337
0.587128
0.586941
0.586793
0.586321
0.586467
0.586532
0.586498
0.586368
0.586158
0.58589
0.585606
0.585337
0.585165
0.588227
0.588433
0.588507
0.58847
0.588319
0.588071
0.587756
0.587409
0.587089
0.586824
0.585028
0.585182
0.58527
0.585225
0.585057
0.584781
0.584423
0.584043
0.583671
0.583477
0.585291
0.585386
0.585388
0.585389
0.58539
0.58539
0.585391
0.585391
0.585389
0.585293
0.58864
0.588668
0.588678
0.588679
0.588676
0.588668
0.588657
0.588638
0.588601
0.588512
0.586774
0.586775
0.586778
0.586777
0.586772
0.586763
0.586753
0.586742
0.586728
0.586705
0.587789
0.587804
0.587809
0.587804
0.58779
0.587769
0.587744
0.587718
0.587693
0.587658
0.587278
0.587307
0.587321
0.587315
0.58729
0.58725
0.587201
0.587149
0.587101
0.587063
0.587139
0.587192
0.587216
0.587206
0.587163
0.587095
0.587009
0.586918
0.586832
0.586769
0.587593
0.587661
0.587688
0.587669
0.587607
0.587509
0.587389
0.587265
0.587159
0.587079
0.586147
0.586244
0.58629
0.58627
0.586187
0.586051
0.585878
0.585694
0.585513
0.585411
0.58846
0.588593
0.58864
0.588614
0.588515
0.588356
0.588158
0.587943
0.587754
0.587582
0.584302
0.584396
0.584458
0.584429
0.584319
0.58414
0.583908
0.583668
0.583424
0.58333
0.584015
0.58408
0.584083
0.584086
0.584087
0.584087
0.584087
0.584086
0.584086
0.584019
0.589216
0.589234
0.589231
0.589226
0.589221
0.589217
0.589214
0.589209
0.589191
0.589116
0.586716
0.586728
0.58674
0.586746
0.586745
0.586738
0.586726
0.58671
0.586688
0.58666
0.58781
0.587811
0.587808
0.587801
0.587792
0.58778
0.587768
0.587758
0.587752
0.587742
0.587318
0.587338
0.587348
0.587345
0.58733
0.587305
0.587273
0.587239
0.587208
0.587184
0.587239
0.587274
0.587289
0.587283
0.587256
0.587212
0.587158
0.587099
0.587044
0.587004
0.587619
0.587655
0.587668
0.587654
0.587614
0.587551
0.587477
0.587403
0.587346
0.587311
0.586336
0.586412
0.586448
0.586437
0.586383
0.586293
0.586177
0.586052
0.585919
0.585836
0.589079
0.589153
0.589179
0.589158
0.589092
0.588989
0.588863
0.588735
0.588634
0.58854
0.583049
0.583113
0.583157
0.583138
0.583065
0.582946
0.582793
0.582637
0.582466
0.582419
0.582205
0.582245
0.582257
0.582265
0.582267
0.582264
0.582257
0.582244
0.582228
0.582173
0.590152
0.590123
0.590094
0.590075
0.590065
0.590065
0.590076
0.590097
0.590127
0.590126
0.586911
0.586946
0.58697
0.586981
0.586983
0.586976
0.58696
0.586934
0.586896
0.586846
0.587816
0.587806
0.587798
0.587791
0.587783
0.587775
0.587768
0.587766
0.587771
0.587782
0.587391
0.587407
0.587415
0.587414
0.587403
0.587384
0.587361
0.587336
0.587311
0.587293
0.587356
0.587381
0.587392
0.587387
0.587368
0.587336
0.587297
0.587255
0.587215
0.587186
0.587663
0.587684
0.587691
0.58768
0.58765
0.587605
0.587552
0.5875
0.587465
0.587454
0.58688
0.58695
0.586981
0.586974
0.586935
0.586868
0.586782
0.586686
0.586578
0.586482
0.590064
0.590091
0.590102
0.590083
0.590033
0.589957
0.589867
0.589783
0.589737
0.589738
0.581391
0.581449
0.581482
0.581468
0.581413
0.581324
0.581212
0.581095
0.580967
0.580926
0.438646
0.417912
0.424823
0.465774
0.390856
0.367632
0.37866
0.435877
0.347734
0.3206
0.337901
0.416788
0.309725
0.280329
0.304597
0.405874
0.278287
0.248203
0.279663
0.403427
0.251249
0.221667
0.261426
0.400152
0.229561
0.20181
0.250322
0.397383
0.209196
0.184929
0.24225
0.395176
0.191266
0.173054
0.238622
0.396704
0.171821
0.161722
0.234271
0.392141
0.498671
0.488458
0.488781
0.498506
0.468101
0.455465
0.456597
0.469273
0.437262
0.420527
0.422715
0.440266
0.408288
0.387308
0.390868
0.413546
0.383656
0.358174
0.363374
0.391374
0.36165
0.331265
0.337151
0.370371
0.343806
0.308419
0.31409
0.352379
0.327405
0.287203
0.292377
0.335635
0.313898
0.269643
0.274307
0.321947
0.298599
0.251893
0.254115
0.304289
0.565914
0.563674
0.563144
0.5643
0.54801
0.544284
0.543582
0.545898
0.528044
0.522127
0.521309
0.525643
0.505845
0.497562
0.496746
0.503564
0.484866
0.47413
0.473477
0.483177
0.4638
0.450472
0.450018
0.462699
0.444879
0.428875
0.428578
0.444186
0.426267
0.407704
0.40753
0.425887
0.410015
0.389752
0.389601
0.409873
0.391142
0.371341
0.370451
0.390244
0.578305
0.577195
0.576844
0.577217
0.568486
0.567041
0.566545
0.566928
0.556634
0.554124
0.553399
0.554307
0.541898
0.53809
0.537174
0.538894
0.527477
0.522225
0.521191
0.524026
0.511914
0.505086
0.503986
0.508198
0.497317
0.488837
0.487712
0.493503
0.482013
0.471955
0.470858
0.478309
0.467778
0.45676
0.4557
0.464447
0.449968
0.439979
0.438648
0.446932
0.585104
0.584489
0.584287
0.584494
0.579074
0.578562
0.578327
0.578356
0.57159
0.570624
0.570194
0.570277
0.561524
0.559871
0.55921
0.559478
0.551585
0.549069
0.548184
0.548805
0.540293
0.536769
0.535686
0.53684
0.529564
0.524941
0.523701
0.525577
0.517783
0.51208
0.510753
0.513499
0.506587
0.50022
0.498884
0.502413
0.491855
0.486616
0.485145
0.488121
0.587626
0.587128
0.58698
0.587182
0.583986
0.583747
0.583633
0.583641
0.578888
0.578445
0.578223
0.578215
0.5717
0.570923
0.57054
0.570533
0.564667
0.563426
0.562849
0.562896
0.556356
0.554524
0.553739
0.553917
0.548531
0.546011
0.545029
0.545449
0.539633
0.536403
0.535277
0.536062
0.531176
0.527489
0.526321
0.527515
0.519276
0.516698
0.515448
0.515976
0.588705
0.588254
0.588129
0.588331
0.586641
0.586525
0.586469
0.586472
0.583093
0.58288
0.582768
0.582755
0.577758
0.577375
0.577168
0.577131
0.572576
0.571949
0.571613
0.571557
0.566235
0.565276
0.564781
0.564725
0.560398
0.55903
0.558365
0.558353
0.553598
0.551788
0.550979
0.551084
0.5474
0.545273
0.544403
0.544699
0.53773
0.53671
0.53579
0.535327
0.588999
0.588568
0.588452
0.588652
0.587961
0.587895
0.587864
0.587867
0.585495
0.585383
0.585324
0.585316
0.581511
0.581311
0.581197
0.581169
0.577635
0.577302
0.57711
0.577057
0.572686
0.572166
0.57187
0.57179
0.568254
0.567496
0.567079
0.566986
0.562974
0.561952
0.561422
0.561351
0.558527
0.557295
0.556699
0.5567
0.550484
0.550379
0.549767
0.548971
0.588928
0.588505
0.588393
0.588592
0.588566
0.588526
0.588506
0.588507
0.586848
0.586786
0.586753
0.586747
0.583882
0.583772
0.583707
0.583687
0.580983
0.580801
0.580691
0.580651
0.577105
0.576815
0.57664
0.576576
0.573746
0.573318
0.573063
0.572977
0.5696
0.569016
0.568684
0.568592
0.56642
0.565704
0.565317
0.565245
0.559596
0.560016
0.559641
0.558775
0.588686
0.588267
0.588157
0.588354
0.58876
0.588734
0.58872
0.588719
0.58755
0.587515
0.587494
0.58749
0.585365
0.585302
0.585262
0.585247
0.583204
0.583101
0.583035
0.583007
0.580173
0.580007
0.579902
0.579856
0.577676
0.577428
0.577272
0.577208
0.574395
0.574057
0.573852
0.573777
0.572159
0.571738
0.571494
0.571423
0.566272
0.56698
0.566765
0.565922
0.58838
0.587964
0.587854
0.58805
0.588736
0.588717
0.588706
0.588703
0.587852
0.587831
0.587818
0.587813
0.586275
0.586237
0.586212
0.586199
0.584667
0.584607
0.584567
0.584546
0.58231
0.582213
0.582148
0.582115
0.580513
0.580366
0.58027
0.580225
0.57789
0.577691
0.577564
0.57751
0.576397
0.576146
0.575994
0.57594
0.571236
0.572087
0.571974
0.571181
0.588066
0.58765
0.587541
0.587736
0.588606
0.588591
0.588582
0.588577
0.587909
0.587896
0.587888
0.587883
0.586815
0.586792
0.586774
0.586764
0.58561
0.585575
0.58555
0.585535
0.583789
0.583731
0.58369
0.583667
0.582564
0.582475
0.582414
0.582383
0.580426
0.580308
0.58023
0.580191
0.579546
0.579395
0.5793
0.579263
0.574947
0.575853
0.575801
0.575064
0.587771
0.587355
0.587246
0.587442
0.58844
0.588428
0.588419
0.588413
0.587819
0.587811
0.587805
0.587801
0.587124
0.587108
0.587095
0.587086
0.586199
0.586179
0.586163
0.586152
0.5848
0.584765
0.584739
0.584722
0.58404
0.583985
0.583946
0.583925
0.582239
0.582169
0.58212
0.582094
0.581887
0.581795
0.581736
0.581712
0.577716
0.578621
0.578603
0.577924
0.587505
0.587087
0.586979
0.587177
0.588284
0.588272
0.588263
0.588257
0.587642
0.587636
0.587632
0.587629
0.587295
0.587283
0.587273
0.587266
0.586551
0.586539
0.586529
0.586522
0.585482
0.58546
0.585443
0.585432
0.585094
0.585061
0.585036
0.585022
0.583498
0.583458
0.583428
0.583409
0.583626
0.583569
0.583533
0.583518
0.579765
0.580632
0.580631
0.580015
0.58726
0.586841
0.586735
0.586936
0.588169
0.588156
0.588146
0.588141
0.587414
0.587409
0.587406
0.587405
0.587394
0.587384
0.587376
0.587371
0.586751
0.586743
0.586737
0.586733
0.58594
0.585927
0.585916
0.585908
0.585844
0.585824
0.585809
0.5858
0.584333
0.584311
0.584292
0.584279
0.584922
0.584886
0.584864
0.584856
0.581257
0.582055
0.582063
0.581513
0.587004
0.586584
0.586483
0.586688
0.588122
0.588106
0.588095
0.588091
0.587157
0.587152
0.58715
0.587151
0.587465
0.587456
0.58745
0.587448
0.586866
0.586861
0.586857
0.586856
0.58626
0.586251
0.586244
0.58624
0.586379
0.586368
0.586359
0.586354
0.584848
0.584836
0.584825
0.584814
0.585907
0.585885
0.585872
0.585869
0.582289
0.582996
0.583006
0.582529
0.586637
0.586222
0.586129
0.586337
0.58818
0.58816
0.588148
0.588147
0.586893
0.586887
0.586886
0.586891
0.58754
0.587531
0.587527
0.587529
0.586951
0.586947
0.586945
0.586946
0.586513
0.586506
0.586502
0.5865
0.586772
0.586769
0.586765
0.586762
0.585151
0.585145
0.585137
0.585129
0.586711
0.586695
0.586688
0.58669
0.582874
0.583468
0.583476
0.58308
0.58593
0.585531
0.585453
0.585662
0.588423
0.588398
0.588386
0.588388
0.586676
0.586668
0.586667
0.586673
0.587633
0.587625
0.587624
0.587629
0.587048
0.587044
0.587043
0.587045
0.586753
0.586747
0.586744
0.586743
0.587085
0.587088
0.587088
0.587086
0.585394
0.585388
0.58538
0.585374
0.587493
0.587482
0.587479
0.587485
0.582889
0.583347
0.583351
0.583046
0.584535
0.584184
0.584129
0.584322
0.589014
0.588986
0.588977
0.588986
0.586612
0.586599
0.586594
0.5866
0.587733
0.587729
0.587731
0.587739
0.58717
0.587166
0.587165
0.587167
0.586991
0.586986
0.586984
0.586984
0.587343
0.587351
0.587354
0.587352
0.585776
0.58576
0.585752
0.58575
0.588492
0.588486
0.588487
0.588497
0.582105
0.582396
0.582394
0.582198
0.582475
0.582256
0.58223
0.582353
0.590065
0.590049
0.590053
0.590075
0.586761
0.586741
0.586731
0.586732
0.5878
0.587802
0.587807
0.587814
0.58728
0.587277
0.587276
0.587277
0.587175
0.587172
0.58717
0.587171
0.587505
0.587517
0.58752
0.587517
0.586341
0.586308
0.586298
0.586307
0.589832
0.589849
0.589856
0.589856
0.580652
0.580726
0.580722
0.580677
0.594667
0.603156
0.607168
0.610265
0.613382
0.616133
0.618367
0.620112
0.62148
0.622635
0.595423
0.598772
0.60618
0.611205
0.615653
0.619027
0.621485
0.62325
0.624505
0.625474
0.599174
0.595521
0.606479
0.612158
0.617412
0.620982
0.623533
0.625348
0.626605
0.62752
0.602441
0.591496
0.606089
0.611633
0.617468
0.620998
0.623544
0.62532
0.626544
0.62743
0.606711
0.589289
0.606637
0.611929
0.618222
0.621617
0.624146
0.62585
0.626992
0.6278
0.609564
0.586421
0.606187
0.611018
0.617781
0.621007
0.623565
0.625232
0.62639
0.627244
0.613338
0.584958
0.606827
0.610959
0.618144
0.621124
0.623713
0.625334
0.626474
0.627309
0.614713
0.581747
0.605689
0.609068
0.616772
0.61957
0.622333
0.62405
0.625398
0.626475
0.616216
0.58014
0.606017
0.608068
0.615919
0.618257
0.621258
0.623132
0.624692
0.62597
0.600611
0.56427
0.592775
0.595178
0.604901
0.608823
0.613524
0.616693
0.619308
0.62138
0.537253
0.559326
0.575665
0.587279
0.595232
0.600768
0.604769
0.607757
0.610065
0.61199
0.523367
0.553901
0.575963
0.589884
0.598717
0.604695
0.608931
0.612006
0.614254
0.615935
0.51304
0.550677
0.576954
0.591925
0.601345
0.607583
0.611954
0.615087
0.617323
0.618935
0.504583
0.547549
0.577021
0.592311
0.602137
0.608455
0.612839
0.615938
0.618131
0.619699
0.500007
0.546587
0.578129
0.593482
0.603605
0.609883
0.614218
0.617227
0.619325
0.620805
0.496682
0.545359
0.578387
0.593512
0.603888
0.610056
0.614346
0.61728
0.619346
0.620832
0.496147
0.545635
0.579742
0.594352
0.604904
0.610864
0.615089
0.617934
0.619947
0.621399
0.495228
0.544556
0.579574
0.593495
0.60425
0.610007
0.614269
0.617141
0.619285
0.620914
0.495605
0.544765
0.580645
0.593312
0.603865
0.609155
0.613521
0.616521
0.61884
0.620662
0.486474
0.534701
0.571329
0.583512
0.59509
0.601402
0.606962
0.610895
0.613978
0.616287
0.56827
0.574565
0.580643
0.586014
0.590593
0.59442
0.597589
0.600207
0.602398
0.604295
0.554851
0.566254
0.576429
0.584743
0.5914
0.596642
0.600732
0.603914
0.60638
0.608271
0.541728
0.558879
0.573216
0.584074
0.592359
0.59859
0.603284
0.606825
0.60948
0.61144
0.528543
0.551396
0.569704
0.582662
0.592217
0.599108
0.604154
0.607878
0.610629
0.612631
0.518553
0.546443
0.56817
0.582711
0.593186
0.600466
0.605686
0.609462
0.612214
0.614189
0.509616
0.541797
0.566462
0.58213
0.593285
0.600776
0.606084
0.609871
0.612632
0.614632
0.503498
0.539162
0.566278
0.582634
0.594251
0.601785
0.607104
0.610854
0.613593
0.615575
0.497725
0.536031
0.565212
0.581885
0.593826
0.601318
0.606675
0.610459
0.613297
0.615417
0.493935
0.534602
0.565518
0.581855
0.593684
0.600896
0.606317
0.610208
0.613182
0.615457
0.483822
0.525684
0.5578
0.574081
0.586612
0.594552
0.600793
0.605351
0.60886
0.611415
0.578005
0.580437
0.583347
0.586292
0.589066
0.591575
0.593793
0.595733
0.597447
0.599011
0.569029
0.57382
0.579236
0.584375
0.588908
0.592765
0.595984
0.59864
0.6008
0.602519
0.558476
0.566551
0.574944
0.58235
0.588555
0.593612
0.597677
0.600912
0.603448
0.605391
0.546152
0.558225
0.569938
0.579596
0.587331
0.593379
0.59809
0.601742
0.604553
0.606665
0.535417
0.551757
0.566744
0.578404
0.587417
0.594214
0.599367
0.603273
0.606231
0.608419
0.524737
0.545367
0.563469
0.576835
0.586896
0.594241
0.599702
0.603774
0.606842
0.609112
0.516143
0.540879
0.561826
0.57654
0.587407
0.595102
0.600747
0.604901
0.60802
0.610315
0.507711
0.53619
0.559675
0.575374
0.58684
0.59474
0.600528
0.604779
0.608008
0.610428
0.501133
0.533236
0.558915
0.575013
0.586679
0.594563
0.600468
0.604832
0.608173
0.610717
0.490224
0.524912
0.552033
0.568517
0.580824
0.589276
0.595759
0.600598
0.604312
0.606983
0.584424
0.58521
0.586381
0.587747
0.58918
0.590595
0.591939
0.593191
0.594371
0.595529
0.578884
0.58077
0.583297
0.586023
0.588696
0.591179
0.593407
0.595355
0.597016
0.598388
0.571312
0.574725
0.579029
0.58341
0.587494
0.591115
0.594225
0.596837
0.59898
0.600686
0.561499
0.567098
0.573649
0.579894
0.585434
0.590139
0.594042
0.597227
0.599783
0.601775
0.552352
0.560608
0.569644
0.57776
0.58466
0.590301
0.59484
0.598451
0.601298
0.603473
0.542513
0.553757
0.565386
0.575284
0.58341
0.589831
0.594875
0.598814
0.601889
0.604229
0.53402
0.548436
0.562632
0.574123
0.583286
0.59031
0.595725
0.599886
0.603109
0.605538
0.525284
0.542901
0.559539
0.572363
0.582361
0.589826
0.595525