/*--------------------------------*- C++ -*----------------------------------*\
| =========                 |                                                 |
| \\      /  F ield         | foam-extend: Open Source CFD                    |
|  \\    /   O peration     | Version:     4.0                                |
|   \\  /    A nd           | Web:         http://www.foam-extend.org         |
|    \\/     M anipulation  |                                                 |
\*---------------------------------------------------------------------------*/
FoamFile
{
    version     2.0;
    format      ascii;
    class       volScalarField;
    location    "1100";
    object      p;
}
// * * * * * * * * * * * * * * * * * * * * * * * * * * * * * * * * * * * * * //

dimensions      [1 -1 -2 0 0 0 0];

internalField   nonuniform List<scalar> 
34480
(
107992
107892
107852
107867
107952
108133
108476
109156
110119
110463
107857
107758
107718
107729
107809
107984
108321
108988
110019
109988
107736
107633
107592
107594
107657
107802
108098
108697
109723
109140
107689
107583
107535
107523
107563
107663
107901
108400
109358
108195
107637
107518
107461
107430
107443
107498
107676
108070
108924
107216
107681
107560
107495
107454
107447
107464
107586
107871
108584
106348
107610
107475
107402
107348
107324
107311
107383
107568
108119
105421
107714
107583
107513
107474
107465
107462
107520
107631
107998
104830
107621
107485
107409
107366
107359
107367
107415
107468
107627
104084
107716
107592
107572
107631
107765
107952
108190
108418
108575
104545
108762
108638
108593
108618
108722
108925
109260
109787
110600
111665
108562
108431
108384
108410
108523
108747
109133
109784
110921
112520
108382
108245
108197
108217
108323
108539
108932
109635
111012
112992
108278
108136
108080
108087
108177
108367
108736
109429
110945
113177
108180
108024
107959
107948
108014
108169
108499
109147
110731
113106
108182
108023
107949
107926
107974
108095
108380
108958
110545
112949
108079
107907
107824
107786
107816
107905
108146
108648
110190
112563
108158
107989
107906
107877
107913
108002
108223
108658
110101
112353
108051
107878
107789
107752
107778
107861
108063
108449
109744
111913
108134
107972
107924
107965
108093
108300
108626
109115
110357
112319
109340
109227
109188
109216
109319
109504
109788
110188
110718
111328
109134
109002
108958
108993
109117
109346
109709
110251
111064
112068
108933
108790
108744
108779
108909
109155
109562
110209
111302
112726
108797
108643
108589
108616
108741
108986
109412
110117
111433
113238
108666
108498
108436
108447
108559
108787
109208
109932
111415
113546
108635
108462
108392
108393
108491
108698
109102
109813
111407
113787
108504
108319
108241
108229
108311
108494
108873
109555
111211
113786
108559
108377
108298
108291
108375
108556
108923
109571
111227
113909
108440
108254
108168
108153
108224
108390
108737
109360
110953
113748
108509
108331
108274
108313
108454
108702
109124
109812
111369
114162
109748
109660
109630
109653
109733
109872
110069
110322
110614
110895
109577
109461
109422
109454
109563
109756
110044
110434
110938
111456
109396
109258
109214
109250
109375
109603
109958
110470
111222
112058
109253
109098
109045
109077
109207
109454
109859
110471
111466
112648
109112
108938
108876
108898
109024
109272
109702
110381
111588
113112
109061
108880
108810
108823
108942
109184
109624
110339
111723
113556
108914
108719
108642
108643
108751
108980
109417
110147
111667
113784
108951
108757
108678
108683
108793
109022
109459
110192
111791
114133
108820
108623
108538
108536
108637
108855
109280
110014
111622
114191
108875
108684
108619
108656
108805
109079
109554
110334
111934
114644
110033
109971
109950
109967
110023
110116
110243
110395
110555
110693
109906
109814
109783
109809
109895
110043
110252
110515
110817
111092
109765
109644
109605
109637
109746
109938
110220
110597
111077
111548
109633
109490
109440
109472
109595
109820
110168
110655
111340
112060
109497
109331
109272
109298
109426
109668
110062
110639
111525
112517
109441
109262
109194
109215
109343
109592
110018
110661
111736
113001
109286
109092
109017
109029
109152
109400
109842
110533
111771
113309
109313
109117
109039
109054
109180
109434
109890
110614
111976
113756
109174
108974
108892
108901
109022
109271
109728
110477
111902
113940
109218
109023
108953
108990
109143
109430
109921
110713
112160
114395
110231
110191
110178
110188
110225
110283
110360
110447
110532
110599
110146
110079
110055
110074
110137
110242
110383
110552
110729
110877
110050
109952
109920
109946
110033
110182
110393
110657
110959
111226
109940
109816
109772
109801
109908
110097
110377
110744
111201
111635
109821
109671
109618
109644
109762
109980
110316
110778
111400
112029
109768
109602
109539
109563
109688
109925
110306
110848
111639
112480
109616
109431
109361
109379
109505
109751
110164
110772
111721
112788
109638
109449
109375
109396
109528
109785
110225
110885
111968
113253
109496
109300
109223
109240
109370
109629
110079
110781
111958
113487
109532
109341
109270
109306
109458
109744
110221
110962
112182
113899
110373
110349
110341
110347
110369
110404
110449
110498
110543
110578
110319
110273
110256
110269
110312
110382
110474
110578
110682
110763
110266
110191
110166
110185
110251
110361
110511
110689
110878
111034
110179
110078
110042
110066
110152
110303
110516
110782
111084
111349
110085
109956
109910
109934
110037
110220
110492
110845
111275
111675
110042
109895
109839
109863
109977
110187
110510
110945
111513
112067
109898
109730
109666
109688
109808
110036
110399
110907
111611
112339
109924
109748
109680
109704
109833
110077
110474
111043
111872
112777
109781
109597
109525
109547
109677
109928
110344
110962
111889
112997
109814
109633
109565
109599
109744
110015
110454
111110
112088
113347
110479
110465
110460
110464
110477
110497
110522
110549
110574
110591
110444
110414
110403
110412
110439
110484
110541
110604
110664
110709
110427
110373
110354
110368
110415
110492
110594
110711
110828
110919
110362
110284
110255
110273
110340
110454
110610
110796
110993
111157
110293
110188
110150
110171
110255
110402
110611
110872
111164
111421
110265
110140
110092
110115
110214
110390
110651
110986
111386
111752
110134
109986
109931
109952
110061
110260
110564
110970
111481
111977
110167
110011
109950
109974
110093
110313
110654
111121
111739
112368
110026
109859
109795
109818
109941
110171
110536
111054
111758
112541
110060
109894
109831
109863
109997
110243
110629
111181
111937
112831
110561
110553
110550
110552
110560
110571
110585
110600
110613
110622
110536
110517
110510
110516
110533
110561
110596
110633
110668
110693
110548
110510
110497
110506
110538
110590
110657
110732
110803
110857
110499
110441
110419
110432
110482
110564
110673
110800
110927
111029
110455
110372
110342
110359
110425
110537
110693
110878
111075
111238
110442
110340
110301
110320
110401
110543
110745
110994
111271
111513
110324
110200
110153
110173
110266
110432
110676
110988
111352
111687
110369
110235
110183
110206
110310
110498
110779
111148
111597
112029
110230
110084
110029
110052
110162
110363
110669
111085
111606
112146
110269
110123
110067
110096
110214
110429
110754
111201
111767
112386
110627
110622
110621
110622
110626
110633
110640
110648
110655
110660
110605
110594
110589
110592
110603
110620
110640
110663
110683
110697
110638
110613
110604
110610
110631
110665
110708
110755
110798
110830
110599
110558
110542
110551
110586
110644
110718
110803
110884
110947
110577
110515
110492
110505
110554
110637
110749
110878
111007
111111
110578
110498
110467
110483
110547
110656
110807
110987
111176
111333
110473
110373
110335
110352
110428
110561
110749
110982
111236
111460
110532
110422
110378
110399
110486
110640
110863
111144
111464
111755
110396
110273
110226
110247
110341
110509
110757
111078
111454
111820
110443
110319
110271
110296
110396
110576
110840
111188
111601
112021
110681
110678
110678
110678
110681
110684
110689
110693
110697
110699
110657
110650
110647
110649
110656
110666
110678
110691
110703
110711
110708
110691
110685
110689
110703
110724
110751
110779
110806
110824
110672
110643
110632
110638
110662
110701
110751
110806
110857
110896
110669
110624
110607
110616
110652
110711
110788
110876
110960
111026
110680
110620
110597
110609
110657
110738
110848
110974
111101
111202
110587
110508
110479
110492
110552
110654
110795
110963
111138
111286
110661
110574
110539
110556
110626
110748
110918
111125
111348
111541
110526
110425
110388
110405
110482
110617
110810
111050
111317
111561
110582
110481
110442
110462
110545
110690
110897
111159
111453
111733
110727
110725
110725
110725
110727
110729
110731
110733
110735
110737
110696
110692
110690
110691
110695
110701
110708
110716
110723
110728
110761
110751
110747
110750
110758
110771
110788
110805
110820
110830
110724
110704
110696
110700
110716
110742
110774
110810
110842
110867
110736
110704
110693
110699
110724
110765
110817
110875
110930
110971
110755
110711
110694
110703
110738
110797
110874
110960
111045
111109
110671
110611
110589
110600
110644
110720
110822
110941
111058
111155
110760
110694
110667
110681
110735
110827
110953
111101
111255
111380
110623
110544
110515
110529
110589
110694
110838
111013
111198
111358
110693
110613
110582
110598
110663
110776
110932
111124
111328
111512
110766
110765
110765
110765
110766
110767
110768
110769
110770
110771
110725
110723
110722
110722
110724
110728
110732
110737
110741
110745
110804
110798
110796
110797
110802
110810
110820
110830
110839
110844
110759
110747
110741
110744
110754
110770
110791
110814
110834
110850
110785
110763
110755
110760
110777
110804
110839
110876
110911
110936
110808
110778
110765
110772
110796
110837
110890
110948
111003
111044
110730
110687
110671
110679
110711
110766
110837
110918
110996
111059
110836
110788
110768
110778
110818
110886
110976
111079
111182
111262
110693
110633
110611
110621
110667
110745
110850
110974
111099
111204
110778
110718
110693
110706
110756
110840
110955
111090
111229
111348
110800
110799
110799
110799
110800
110800
110801
110802
110802
110802
110744
110743
110743
110743
110744
110746
110749
110752
110755
110757
110839
110836
110835
110836
110839
110843
110849
110855
110860
110862
110783
110775
110771
110773
110779
110789
110803
110817
110829
110839
110820
110806
110800
110803
110814
110832
110855
110878
110900
110915
110845
110824
110815
110820
110836
110864
110899
110937
110973
110998
110772
110741
110730
110735
110758
110796
110845
110899
110949
110990
110893
110859
110845
110853
110881
110929
110992
111062
111130
111180
110740
110695
110679
110687
110720
110776
110850
110935
111018
111086
110844
110800
110782
110791
110828
110888
110970
111062
111155
111230
110831
110830
110831
110831
110831
110831
110831
110832
110832
110832
110755
110755
110754
110754
110755
110756
110758
110760
110762
110765
110869
110868
110867
110868
110870
110872
110875
110878
110881
110881
110798
110792
110790
110791
110795
110801
110809
110818
110826
110832
110844
110835
110831
110833
110840
110852
110866
110880
110893
110903
110867
110854
110848
110851
110862
110880
110903
110927
110950
110966
110799
110779
110771
110775
110790
110815
110847
110883
110914
110941
110937
110914
110904
110909
110929
110962
111004
111050
111095
111125
110767
110735
110724
110730
110753
110792
110842
110898
110952
110996
110896
110866
110853
110859
110885
110927
110983
111045
111105
111152
110865
110864
110864
110864
110864
110864
110864
110864
110864
110864
110757
110756
110756
110756
110756
110757
110759
110760
110762
110765
110896
110895
110895
110895
110897
110898
110900
110901
110902
110901
110805
110801
110800
110801
110803
110807
110812
110817
110821
110826
110858
110852
110850
110851
110856
110863
110871
110880
110888
110893
110878
110869
110866
110867
110874
110886
110900
110916
110930
110940
110816
110803
110798
110800
110810
110827
110847
110869
110889
110905
110969
110954
110947
110951
110964
110986
111014
111043
111072
111089
110778
110756
110748
110752
110767
110793
110826
110863
110897
110926
110944
110924
110915
110919
110937
110965
111002
111042
111081
111109
110913
110912
110913
110913
110913
110913
110913
110912
110912
110911
110747
110746
110745
110745
110745
110746
110747
110749
110750
110754
110916
110917
110917
110917
110918
110918
110919
110920
110920
110918
110807
110805
110804
110804
110806
110808
110811
110814
110816
110819
110862
110859
110857
110858
110861
110865
110870
110876
110880
110883
110878
110872
110870
110871
110875
110882
110892
110901
110910
110916
110824
110816
110813
110815
110821
110832
110844
110858
110869
110878
110987
110977
110973
110975
110983
110998
111016
111035
111054
111063
110771
110756
110751
110753
110763
110780
110801
110824
110845
110865
111003
110990
110983
110986
110998
111016
111041
111066
111091
111107
111003
111002
111003
111003
111003
111003
111002
111002
111001
111000
110716
110715
110715
110715
110715
110716
110717
110718
110719
110723
110925
110925
110925
110924
110925
110925
110926
110927
110928
110926
110805
110804
110804
110805
110806
110807
110808
110810
110810
110812
110858
110856
110855
110855
110856
110859
110862
110866
110869
110871
110868
110864
110862
110863
110866
110870
110876
110882
110888
110892
110824
110820
110818
110820
110824
110830
110838
110846
110852
110857
110980
110973
110969
110970
110976
110985
110997
111010
111023
111029
110737
110728
110725
110727
110734
110744
110758
110772
110783
110797
111096
111088
111083
111085
111093
111105
111121
111137
111154
111162
111161
111161
111161
111161
111161
111161
111160
111160
111160
111160
110652
110652
110653
110654
110655
110655
110655
110654
110654
110656
110909
110907
110906
110905
110905
110905
110907
110908
110911
110912
110803
110804
110804
110805
110806
110807
110807
110807
110807
110807
110848
110846
110845
110845
110846
110848
110850
110853
110855
110857
110852
110850
110849
110849
110851
110854
110858
110862
110866
110869
110819
110817
110817
110818
110820
110825
110830
110835
110838
110840
110932
110925
110923
110923
110927
110933
110942
110951
110961
110968
110666
110661
110660
110661
110666
110673
110682
110691
110696
110702
111247
111241
111238
111239
111244
111253
111264
111275
111287
111292
111341
111339
111338
111337
111337
111337
111338
111339
111342
111346
110566
110572
110576
110578
110579
110579
110577
110575
110570
110564
110872
110869
110866
110865
110865
110866
110867
110870
110873
110879
110806
110807
110807
110808
110808
110809
110810
110810
110809
110808
110839
110837
110837
110837
110838
110839
110841
110843
110845
110847
110841
110839
110838
110838
110840
110843
110846
110849
110852
110855
110817
110816
110815
110816
110818
110822
110826
110830
110833
110834
110863
110857
110855
110856
110859
110864
110871
110879
110887
110896
110576
110575
110574
110576
110580
110586
110593
110600
110603
110599
111409
111404
111401
111402
111407
111414
111423
111432
111442
111446
122706
123919
123744
122472
125929
127334
126935
125317
128882
130468
129882
127896
131067
132770
131998
129734
132749
134533
133587
131121
134113
135957
135014
132430
135050
136928
136118
133469
135879
137764
137119
134432
135794
137650
137151
134474
135380
137223
136982
134459
113036
113226
113264
113144
115320
115690
115748
115459
117586
118138
118197
117690
119742
120462
120508
119756
121711
122568
122584
121576
123579
124546
124528
123307
125124
126177
126131
124753
126634
127747
127684
126198
127414
128558
128494
126958
128059
129238
129222
127735
111848
111937
111964
111938
113172
113339
113379
113312
114637
114903
114955
114826
116130
116501
116562
116350
117570
118046
118105
117789
119061
119639
119691
119260
120364
121034
121077
120528
121751
122498
122532
121870
122572
123367
123395
122639
123388
124220
124266
123455
111010
111032
111044
111044
111765
111818
111838
111831
112696
112800
112833
112808
113743
113911
113960
113906
114786
115027
115090
114993
115928
116248
116322
116168
116943
117341
117422
117201
118107
118577
118662
118367
118822
119343
119433
119073
119597
120160
120267
119868
110738
110748
110753
110754
111214
111238
111249
111248
111809
111858
111878
111874
112529
112613
112645
112635
113269
113395
113441
113418
114119
114296
114355
114312
114865
115097
115168
115095
115791
116076
116157
116048
116371
116697
116791
116650
117048
117410
117523
117359
110618
110621
110624
110624
110926
110935
110940
110941
111331
111351
111362
111364
111836
111875
111894
111897
112369
112434
112463
112464
113010
113107
113148
113144
113556
113688
113741
113728
114291
114460
114524
114495
114752
114951
115030
114987
115304
115530
115624
115569
110586
110588
110589
110589
110787
110792
110794
110795
111085
111094
111100
111101
111446
111466
111477
111480
111840
111874
111892
111896
112331
112383
112411
112416
112728
112803
112840
112844
113314
113413
113460
113460
113665
113786
113844
113839
114098
114237
114305
114294
110596
110597
110597
110597
110722
110724
110726
110726
110946
110951
110954
110955
111208
111218
111225
111227
111507
111525
111536
111540
111892
111921
111938
111943
112182
112225
112249
112256
112655
112713
112745
112752
112904
112977
113016
113021
113241
113325
113371
113374
110625
110625
110626
110626
110700
110701
110702
110703
110872
110875
110877
110877
111058
111064
111068
111070
111287
111298
111304
111307
111592
111609
111619
111624
111803
111828
111843
111849
112190
112224
112244
112251
112350
112394
112420
112426
112617
112668
112697
112703
110662
110662
110662
110662
110701
110702
110703
110703
110838
110840
110841
110841
110964
110968
110970
110972
111140
111146
111150
111152
111381
111391
111397
111400
111528
111543
111552
111557
111849
111870
111883
111888
111940
111967
111983
111988
112155
112186
112205
112210
110700
110700
110700
110700
110714
110714
110715
110715
110829
110830
110830
110831
110907
110910
110911
110912
111044
111047
111050
111051
111232
111238
111242
111244
111327
111336
111342
111345
111598
111611
111619
111623
111633
111650
111660
111664
111813
111832
111844
111847
110737
110737
110737
110737
110730
110730
110731
110731
110834
110834
110834
110834
110874
110875
110876
110877
110981
110984
110985
110986
111128
111132
111135
111136
111181
111186
111190
111192
111416
111424
111429
111431
111404
111415
111421
111424
111561
111573
111580
111582
110771
110771
110771
110771
110746
110746
110746
110746
110846
110846
110847
110846
110854
110855
110856
110856
110943
110944
110945
110945
111056
111059
111061
111061
111075
111079
111081
111083
111285
111290
111293
111294
111233
111240
111244
111245
111378
111385
111390
111392
110802
110802
110802
110802
110758
110758
110759
110759
110863
110863
110863
110863
110842
110843
110843
110844
110919
110920
110920
110921
111007
111008
111009
111010
111000
111002
111003
111004
111194
111197
111199
111200
111105
111110
111112
111113
111249
111253
111256
111257
110831
110831
110831
110831
110765
110765
110766
110766
110882
110882
110882
110881
110834
110834
110835
110835
110905
110905
110905
110906
110971
110973
110973
110974
110945
110947
110948
110948
111134
111136
111137
111138
111009
111012
111014
111014
111163
111165
111167
111168
110864
110864
110864
110863
110765
110765
110765
110766
110901
110901
110901
110901
110826
110827
110827
110827
110895
110895
110895
110895
110944
110945
110946
110946
110907
110907
110907
110908
111096
111097
111098
111098
110934
110936
110937
110938
111115
111116
111117
111118
110911
110911
110911
110911
110754
110754
110754
110755
110919
110919
110919
110919
110818
110818
110818
110818
110885
110885
110885
110885
110920
110920
110921
110921
110877
110877
110877
110878
111069
111070
111071
111071
110870
110871
110872
110872
111109
111109
111110
111111
110999
110999
110999
110999
110722
110722
110723
110723
110929
110929
110929
110928
110809
110809
110809
110809
110872
110872
110872
110872
110895
110895
110896
110895
110853
110853
110853
110853
111037
111038
111039
111039
110799
110799
110800
110800
111163
111162
111163
111164
111160
111160
111160
111159
110653
110652
110652
110653
110918
110919
110919
110919
110803
110802
110802
110802
110858
110858
110858
110858
110871
110871
110871
110871
110835
110834
110834
110834
110981
110984
110984
110983
110698
110697
110697
110697
111298
111298
111298
111299
111346
111347
111348
111348
110548
110544
110543
110543
110888
110890
110891
110891
110803
110803
110802
110802
110848
110848
110848
110848
110856
110856
110856
110856
110829
110827
110827
110828
110913
110917
110918
110916
110575
110568
110567
110571
111468
111471
111471
111468
116099
113588
111666
110380
109575
109056
108702
108452
108272
108136
117158
113981
111616
110217
109393
108868
108519
108278
108110
107985
117541
114040
111368
110049
109225
108706
108357
108115
107952
107845
117555
113967
111070
109917
109112
108627
108293
108064
107906
107799
117303
113780
110797
109773
108976
108526
108207
107990
107839
107743
116962
113686
110661
109771
108975
108564
108255
108050
107901
107795
116350
113458
110399
109650
108846
108475
108171
107975
107826
107726
115952
113504
110413
109807
108988
108651
108338
108137
107974
107847
115242
113184
110115
109687
108892
108601
108278
108071
107901
107764
115687
113883
110788
110385
109467
109072
108637
108341
108100
107894
112589
111845
111185
110633
110179
109810
109511
109270
109078
108928
114211
112848
111717
110864
110222
109740
109377
109101
108889
108730
115525
113577
112039
110967
110182
109618
109209
108908
108686
108537
116534
114090
112214
111012
110146
109550
109125
108818
108593
108438
117185
114384
112239
110961
110044
109439
109012
108709
108484
108337
117685
114660
112300
110992
110045
109448
109024
108726
108503
108347
117855
114716
112180
110879
109911
109331
108910
108619
108396
108244
118082
114937
112265
111005
110027
109465
109041
108745
108513
108339
117872
114751
112034
110882
109932
109401
108970
108667
108426
108243
118281
115266
112513
111382
110357
109752
109243
108876
108586
108352
111782
111467
111114
110775
110469
110201
109972
109779
109618
109488
112954
112315
111647
111069
110596
110215
109907
109658
109459
109304
114165
113118
112097
111277
110641
110153
109777
109487
109263
109105
115297
113817
112463
111452
110693
110133
109713
109395
109153
108980
116247
114337
112678
111513
110661
110054
109607
109276
109024
108851
117140
114834
112903
111625
110703
110069
109607
109270
109013
108829
117756
115096
112926
111570
110597
109950
109480
109141
108880
108698
118419
115475
113114
111722
110716
110065
109586
109238
108969
108769
118596
115437
112990
111636
110639
109998
109507
109150
108871
108661
119103
115858
113365
112006
110953
110258
109714
109310
108998
108752
111021
110925
110790
110638
110482
110330
110190
110063
109952
109859
111757
111530
111242
110949
110673
110422
110202
110013
109853
109724
112638
112205
111698
111221
110802
110446
110150
109906
109708
109561
113590
112905
112155
111497
110943
110494
110133
109844
109614
109442
114473
113499
112498
111669
110998
110475
110065
109745
109492
109310
115384
114105
112854
111876
111107
110527
110082
109740
109473
109274
116093
114504
113012
111907
111058
110437
109967
109611
109331
109130
116895
115017
113314
112115
111206
110556
110064
109693
109402
109183
117276
115152
113318
112085
111149
110484
109974
109590
109289
109062
117883
115583
113652
112371
111383
110676
110127
109711
109387
109134
110745
110705
110643
110568
110485
110400
110317
110239
110168
110107
111222
111126
110989
110832
110670
110513
110366
110233
110117
110020
111815
111624
111368
111096
110832
110590
110375
110187
110029
109907
112528
112204
111797
111389
111014
110683
110400
110161
109962
109808
113237
112746
112163
111614
111128
110717
110375
110093
109862
109690
114024
113339
112568
111879
111291
110810
110419
110104
109849
109654
114666
113764
112797
111977
111297
110757
110327
109987
109712
109509
115446
114322
113169
112236
111479
110892
110429
110065
109775
109552
115887
114560
113267
112258
111447
110827
110337
109957
109654
109424
116487
114982
113575
112498
111635
110976
110456
110050
109731
109481
110621
110604
110575
110538
110495
110449
110403
110357
110315
110277
110933
110890
110822
110739
110647
110552
110460
110373
110295
110227
111345
111258
111128
110976
110815
110657
110509
110374
110256
110162
111862
111708
111489
111246
111002
110772
110562
110377
110217
110089
112403
112158
111829
111481
111147
110842
110574
110342
110146
109995
113041
112683
112226
111767
111341
110967
110645
110373
110147
109969
113567
113072
112473
111900
111386
110948
110579
110274
110022
109830
114257
113613
112869
112190
111595
111101
110691
110358
110086
109872
114673
113881
113012
112242
111583
111044
110603
110250
109963
109741
115195
114266
113294
112455
111745
111170
110702
110327
110027
109789
110588
110579
110565
110546
110523
110499
110473
110447
110423
110401
110790
110769
110733
110688
110635
110579
110523
110469
110418
110374
111093
111048
110977
110889
110791
110691
110592
110499
110416
110348
111466
111387
111265
111119
110962
110806
110657
110520
110399
110299
111873
111745
111556
111338
111113
110895
110694
110513
110356
110231
112377
112186
111915
111616
111317
111037
110784
110563
110373
110219
112784
112512
112145
111757
111382
111041
110741
110484
110264
110093
113366
113001
112531
112053
111605
111209
110866
110577
110335
110141
113710
113243
112672
112113
111602
111160
110784
110473
110214
110010
114134
113577
112927
112307
111750
111274
110874
110543
110272
110055
110597
110592
110585
110575
110563
110549
110535
110521
110507
110495
110724
110713
110694
110668
110639
110606
110573
110539
110508
110480
110950
110926
110886
110834
110775
110712
110648
110587
110530
110485
111220
111177
111107
111018
110918
110815
110712
110616
110528
110453
111529
111459
111347
111210
111060
110909
110763
110629
110508
110410
111927
111821
111657
111463
111257
111054
110864
110692
110540
110414
112232
112079
111852
111593
111326
111071
110837
110629
110447
110302
112713
112504
112207
111878
111551
111246
110972
110733
110528
110359
112966
112692
112322
111929
111549
111202
110896
110634
110410
110231
113304
112974
112549
112107
111687
111311
110982
110702
110468
110276
110625
110623
110619
110614
110607
110600
110592
110584
110577
110570
110701
110695
110685
110671
110654
110635
110615
110595
110576
110559
110874
110861
110838
110807
110771
110732
110692
110652
110616
110586
111066
111041
110999
110945
110882
110815
110746
110680
110619
110565
111301
111260
111193
111106
111007
110905
110803
110706
110617
110544
111615
111553
111452
111326
111187
111044
110906
110777
110660
110561
111838
111748
111606
111433
111248
111062
110886
110725
110580
110463
112233
112110
111921
111699
111467
111240
111028
110838
110672
110532
112401
112238
112002
111732
111457
111195
110954
110743
110557
110406
112671
112475
112201
111895
111588
111301
111041
110814
110618
110456
110662
110661
110658
110656
110652
110648
110644
110640
110635
110632
110702
110699
110693
110685
110676
110665
110653
110641
110630
110619
110840
110832
110818
110800
110778
110754
110729
110704
110681
110663
110969
110955
110930
110897
110857
110814
110769
110725
110683
110646
111149
111125
111083
111028
110964
110895
110826
110758
110695
110643
111395
111358
111295
111214
111121
111023
110925
110831
110744
110669
111551
111496
111407
111293
111166
111034
110906
110785
110674
110584
111878
111804
111684
111536
111374
111210
111053
110907
110777
110665
111975
111878
111727
111545
111350
111158
110976
110811
110663
110541
112194
112077
111901
111694
111476
111264
111065
110887
110731
110598
110700
110699
110698
110697
110695
110693
110690
110688
110685
110684
110715
110713
110709
110705
110699
110693
110687
110680
110673
110666
110829
110825
110817
110806
110793
110778
110763
110747
110733
110722
110911
110902
110887
110867
110842
110815
110786
110757
110729
110704
111049
111034
111008
110974
110932
110887
110841
110794
110751
110715
111241
111219
111179
111127
111065
110999
110931
110865
110803
110748
111342
111308
111251
111177
111091
111000
110908
110821
110739
110671
111617
111572
111495
111397
111287
111171
111057
110950
110852
110765
111657
111597
111501
111379
111245
111108
110974
110850
110735
110640
111839
111768
111656
111518
111367
111214
111068
110933
110811
110707
110737
110737
110736
110735
110734
110733
110732
110730
110729
110728
110731
110730
110728
110726
110722
110719
110715
110711
110707
110702
110834
110831
110826
110819
110811
110803
110793
110784
110775
110770
110876
110871
110862
110850
110834
110817
110799
110780
110762
110745
110985
110976
110959
110938
110911
110882
110851
110820
110791
110767
111134
111120
111095
111062
111021
110977
110932
110886
110843
110804
111191
111170
111133
111085
111028
110966
110902
110840
110781
110732
111427
111399
111351
111287
111212
111133
111053
110975
110904
110839
111419
111382
111321
111241
111150
111054
110958
110867
110782
110711
111578
111535
111464
111372
111270
111163
111058
110959
110868
110789
110771
110771
110770
110770
110769
110769
110768
110767
110766
110766
110747
110746
110745
110744
110742
110740
110738
110735
110733
110729
110846
110844
110841
110837
110832
110827
110821
110815
110811
110808
110856
110853
110848
110840
110831
110820
110809
110797
110785
110774
110945
110939
110929
110915
110898
110880
110860
110840
110821
110805
111060
111051
111036
111014
110988
110960
110929
110899
110869
110842
111082
111068
111045
111014
110976
110935
110892
110849
110808
110774
111292
111275
111244
111202
111153
111100
111045
110991
110941
110893
111243
111220
111180
111128
111067
111002
110935
110871
110809
110757
111389
111363
111317
111258
111190
111117
111044
110974
110908
110850
110802
110802
110802
110801
110801
110801
110800
110800
110799
110800
110759
110759
110759
110758
110757
110756
110754
110753
110751
110748
110862
110861
110859
110857
110854
110851
110847
110844
110841
110841
110844
110842
110839
110834
110829
110822
110815
110808
110800
110793
110920
110917
110910
110902
110891
110880
110867
110854
110842
110833
111009
111004
110994
110980
110964
110945
110926
110906
110886
110868
111004
110995
110981