/*--------------------------------*- C++ -*----------------------------------*\
| =========                 |                                                 |
| \\      /  F ield         | foam-extend: Open Source CFD                    |
|  \\    /   O peration     | Version:     4.0                                |
|   \\  /    A nd           | Web:         http://www.foam-extend.org         |
|    \\/     M anipulation  |                                                 |
\*---------------------------------------------------------------------------*/
FoamFile
{
    version     2.0;
    format      ascii;
    class       surfaceScalarField;
    location    "1100";
    object      phi;
}
// * * * * * * * * * * * * * * * * * * * * * * * * * * * * * * * * * * * * * //

dimensions      [1 0 -1 0 0 0 0];

internalField   nonuniform List<scalar> 
97302
(
-0.000109793
9.18721e-07
-0.00086884
0.000878127
-0.000119586
1.10895e-06
-0.000869857
0.000878542
-0.00012949
1.17045e-06
-0.000870389
0.000879122
-0.000140075
1.11151e-06
-0.000870431
0.000879904
-0.000152168
9.23152e-07
-0.000869982
0.000881152
-0.00016725
5.94837e-07
-0.00086882
0.000883307
-0.000188407
9.95766e-08
-0.000866342
0.000887399
-0.000222635
-6.07489e-07
-0.000860725
0.00089556
-0.000271166
-1.64839e-06
-0.000850934
0.000901113
-4.39878e-06
-0.00082339
-0.000352761
0.000909383
-0.000150894
1.54243e-06
-0.00116477
0.00117486
-0.000161134
1.90713e-06
-0.00116578
0.00117522
-0.00017145
2.03127e-06
-0.0011664
0.00117586
-0.00018238
1.94534e-06
-0.00116645
0.00117654
-0.000194721
1.63419e-06
-0.00116567
0.0011773
-0.000210187
1.08572e-06
-0.00116368
0.00117865
-0.000232624
2.41361e-07
-0.0011601
0.0011824
-0.000271399
-9.9511e-07
-0.00115331
0.00119247
-0.000328123
-2.92635e-06
-0.00114099
0.00119899
-7.48441e-06
-0.00110304
-0.000432446
0.00121045
-0.000191193
1.8337e-06
-0.00145962
0.00147041
-0.000201716
2.33408e-06
-0.00146071
0.00147081
-0.000212196
2.52265e-06
-0.00146139
0.00147138
-0.000223143
2.4525e-06
-0.00146124
0.00147167
-0.000235485
2.10553e-06
-0.00145994
0.00147181
-0.000251359
1.47043e-06
-0.00145733
0.00147282
-0.000275237
4.67417e-07
-0.0014535
0.00147715
-0.000318202
-1.00344e-06
-0.00144696
0.00148993
-0.000381499
-3.39466e-06
-0.00143382
0.00149758
-9.178e-06
-0.00138512
-0.000500431
0.00150574
-0.000231452
2.02784e-06
-0.00175072
0.00176193
-0.00024227
2.66983e-06
-0.00175204
0.00176252
-0.000253046
2.93706e-06
-0.00175298
0.00176334
-0.000264308
2.90685e-06
-0.00175305
0.00176386
-0.000277051
2.55097e-06
-0.00175194
0.00176424
-0.0002936
1.86038e-06
-0.00174958
0.00176574
-0.000318757
7.32615e-07
-0.00174609
0.00177098
-0.000364869
-9.25774e-07
-0.00173993
0.00178596
-0.000432874
-3.72055e-06
-0.00172636
0.00179469
-1.06764e-05
-0.0016666
-0.000560617
0.00179584
-0.000271643
2.26812e-06
-0.00204303
0.00205443
-0.000282637
2.98011e-06
-0.00204472
0.00205541
-0.000293584
3.28404e-06
-0.00204618
0.00205678
-0.00030504
3.26906e-06
-0.00204672
0.00205781
-0.000318071
2.90504e-06
-0.00204614
0.00205882
-0.00033512
2.18329e-06
-0.00204443
0.00206115
-0.000361284
9.87245e-07
-0.0020416
0.00206751
-0.000409942
-7.6936e-07
-0.00203614
0.00208464
-0.000481905
-3.8437e-06
-0.00202297
0.00209505
-1.19023e-05
-0.00195147
-0.000615176
0.00208597
-0.000312425
2.3625e-06
-0.00233399
0.00234569
-0.000323527
3.09968e-06
-0.00233612
0.00234711
-0.000334545
3.38968e-06
-0.00233796
0.00234888
-0.000346058
3.34598e-06
-0.00233891
0.00235035
-0.000359186
2.94752e-06
-0.00233886
0.00235195
-0.000376457
2.19519e-06
-0.00233791
0.00235517
-0.000403244
9.7116e-07
-0.00233602
0.00236282
-0.000453801
-7.93345e-07
-0.0023317
0.00238228
-0.000529088
-3.92173e-06
-0.00232008
0.00239544
-1.28511e-05
-0.00223655
-0.000665953
0.00237436
-0.000353045
2.34882e-06
-0.00262479
0.00263663
-0.000364094
2.9937e-06
-0.00262751
0.00263866
-0.000375034
3.21165e-06
-0.00262989
0.00264101
-0.000386452
3.0815e-06
-0.0026313
0.00264298
-0.000399521
2.60926e-06
-0.00263182
0.00264523
-0.000416803
1.78949e-06
-0.00263169
0.00264938
-0.000443921
5.58776e-07
-0.00263096
0.00265849
-0.000495818
-1.10123e-06
-0.00262829
0.0026805
-0.000573896
-3.84507e-06
-0.00261938
0.00269739
-1.29782e-05
-0.0025236
-0.000712809
0.00266264
-0.00039493
1.99568e-06
-0.00291613
0.0029284
-0.000406034
2.45163e-06
-0.00291943
0.00293107
-0.000416972
2.48278e-06
-0.0029219
0.00293357
-0.000428338
2.14666e-06
-0.00292324
0.00293554
-0.000441264
1.48056e-06
-0.00292366
0.00293771
-0.00045826
4.84912e-07
-0.0029237
0.002942
-0.000485095
-8.10887e-07
-0.00292371
0.00295191
-0.00053718
-2.3381e-06
-0.00292254
0.00297586
-0.000616727
-4.11257e-06
-0.00291706
0.00299688
-1.21045e-05
-0.00281086
-0.000756067
0.00294932
-0.00043618
1.05432e-06
-0.00320365
0.00321606
-0.000446865
1.12631e-06
-0.00320783
0.00321984
-0.000457417
8.36881e-07
-0.00321093
0.00322313
-0.000468483
1.04931e-07
-0.00321288
0.00322599
-0.000481234
-9.51885e-07
-0.00321409
0.00322928
-0.000498064
-2.30673e-06
-0.00321516
0.00323478
-0.000524743
-3.77323e-06
-0.00321663
0.00324627
-0.000576547
-5.07629e-06
-0.00321784
0.00327239
-0.000656016
-5.47011e-06
-0.00321488
0.00329571
-1.01589e-05
-0.00309798
-0.00079284
0.00323286
-0.000477645
-0.00347193
0.00348491
-0.000488972
-0.00347561
0.00348807
-0.000500135
-0.00347636
0.00348836
-0.000511812
-0.00347385
0.00348563
-0.000525047
-0.00346877
0.00348105
-0.000541974
-0.00346222
0.00347684
-0.000567839
-0.0034554
0.00347749
-0.000616853
-0.00344983
0.00349377
-0.000689952
-0.00344673
0.00351435
-0.00333838
-0.0008191
0.00345737
1.43982e-05
8.55779e-07
-0.00086037
5.33229e-06
1.08092e-06
-0.000861872
-3.75687e-06
1.16373e-06
-0.000862463
-1.30534e-05
1.10874e-06
-0.000862243
-2.27574e-05
9.06113e-07
-0.000861184
-3.3088e-05
5.37161e-07
-0.000859027
-4.41938e-05
-3.26694e-08
-0.000855203
-5.54944e-05
-8.82848e-07
-0.000848541
-6.62014e-05
-2.20957e-06
-0.000838017
-3.9769e-06
-0.000821722
-6.38926e-05
1.54245e-05
1.45228e-06
-0.00115492
5.43575e-06
1.87021e-06
-0.00115658
-4.54732e-06
2.0292e-06
-0.00115729
-1.48421e-05
1.95588e-06
-0.001157
-2.57145e-05
1.62834e-06
-0.00115552
-3.75284e-05
1.0235e-06
-0.00115235
-5.11209e-05
7.84535e-08
-0.00114662
-6.75363e-05
-1.32457e-06
-0.00113645
-8.81717e-05
-3.57349e-06
-0.00111899
-6.6377e-06
-0.00108996
-9.8599e-05
1.67869e-05
1.75998e-06
-0.00144862
6.09846e-06
2.32756e-06
-0.00145048
-4.50542e-06
2.55832e-06
-0.00145132
-1.53573e-05
2.50307e-06
-0.00145093
-2.67967e-05
2.12892e-06
-0.001449
-3.95603e-05
1.41126e-06
-0.00144495
-5.53933e-05
2.56717e-07
-0.00143784
-7.70244e-05
-1.45871e-06
-0.0014252
-0.000108543
-4.32183e-06
-0.00140155
-8.43737e-06
-0.00135798
-0.000133883
1.80341e-05
1.97182e-06
-0.00173903
6.85833e-06
2.69917e-06
-0.00174123
-4.23377e-06
3.01786e-06
-0.00174235
-1.56391e-05
3.00852e-06
-0.00174215
-2.78159e-05
2.62456e-06
-0.00174026
-4.17592e-05
1.84358e-06
-0.00173607
-5.97792e-05
5.31385e-07
-0.00172835
-8.60008e-05
-1.42786e-06
-0.00171373
-0.000127985
-4.83076e-06
-0.00168386
-9.94851e-06
-0.001624
-0.00016907
1.91765e-05
2.22508e-06
-0.00203093
7.7057e-06
3.03249e-06
-0.00203359
-3.67284e-06
3.39434e-06
-0.00203517
-1.54177e-05
3.40657e-06
-0.00203537
-2.81257e-05
3.01893e-06
-0.00203383
-4.29785e-05
2.20896e-06
-0.00202994
-6.27536e-05
8.03366e-07
-0.00202209
-9.28762e-05
-1.30436e-06
-0.00200614
-0.000144858
-5.10087e-06
-0.00197072
-1.1096e-05
-0.00189363
-0.000201552
1.99017e-05
2.3518e-06
-0.00232146
8.24254e-06
3.1941e-06
-0.00232463
-3.27356e-06
3.54996e-06
-0.0023266
-1.51646e-05
3.54387e-06
-0.00232716
-2.81483e-05
3.13278e-06
-0.00232599
-4.3571e-05
2.30484e-06
-0.00232258
-6.46418e-05
8.66836e-07
-0.00231501
-9.79595e-05
-1.27778e-06
-0.00229841
-0.000159363
-5.21523e-06
-0.00225856
-1.18946e-05
-0.00216405
-0.000231059
2.03265e-05
2.33004e-06
-0.00261198
8.6806e-06
3.07879e-06
-0.00261575
-2.79e-06
3.36784e-06
-0.00261824
-1.46202e-05
3.28782e-06
-0.00261921
-2.76591e-05
2.83512e-06
-0.00261848
-4.33651e-05
1.98163e-06
-0.00261566
-6.53294e-05
5.50991e-07
-0.00260868
-0.000101196
-1.55323e-06
-0.00259215
-0.000171308
-5.22934e-06
-0.00254926
-1.22324e-05
-0.00243742
-0.00025715
2.0076e-05
2.00189e-06
-0.00290287
8.41992e-06
2.56524e-06
-0.00290726
-2.94827e-06
2.69755e-06
-0.00290987
-1.46112e-05
2.46376e-06
-0.00291075
-2.74741e-05
1.89592e-06
-0.00290985
-4.30704e-05
9.62888e-07
-0.00290709
-6.52945e-05
-4.2699e-07
-0.0029005
-0.00010263
-2.38485e-06
-0.00288437
-0.000180168
-5.18488e-06
-0.00283957
-1.18589e-05
-0.00271156
-0.000279838
1.95664e-05
1.05875e-06
-0.00319013
8.37053e-06
1.20895e-06
-0.00319528
-2.50095e-06
1.05091e-06
-0.00319842
-1.36595e-05
4.68306e-07
-0.00319973
-2.61636e-05
-4.07098e-07
-0.00319928
-4.16575e-05
-1.58322e-06
-0.00319712
-6.42451e-05
-3.00111e-06
-0.00319147
-0.000102906
-4.65496e-06
-0.00317691
-0.000186419
-6.11538e-06
-0.00313044
-1.00356e-05
-0.00298391
-0.000302319
1.84137e-05
-0.00345812
6.96227e-06
-0.00346295
-3.96168e-06
-0.00346439
-1.50461e-05
-0.00346229
-2.72363e-05
-0.00345699
-4.21461e-05
-0.00344889
-6.37141e-05
-0.00343683
-0.000101155
-0.00341704
-0.000186074
-0.00336792
-0.003214
-0.000320493
1.20325e-05
7.45307e-07
-0.000853681
4.44251e-06
9.85836e-07
-0.000855268
-3.26528e-06
1.0758e-06
-0.000855831
-1.1001e-05
1.01371e-06
-0.000855521
-1.86418e-05
7.93098e-07
-0.000854336
-2.59437e-05
3.97861e-07
-0.000852123
-3.23557e-05
-1.94319e-07
-0.000848597
-3.65736e-05
-1.02199e-06
-0.000843301
-3.67154e-05
-2.16937e-06
-0.000835706
-3.4451e-06
-0.000826019
-2.89733e-05
1.3895e-05
1.30289e-06
-0.00114642
4.89294e-06
1.74464e-06
-0.00114834
-4.17496e-06
1.9127e-06
-0.00114905
-1.33994e-05
1.82747e-06
-0.00114859
-2.27871e-05
1.4675e-06
-0.0011468
-3.21884e-05
8.07643e-07
-0.00114336
-4.12037e-05
-2.06535e-07
-0.00113759
-4.86818e-05
-1.64911e-06
-0.00112835
-5.21593e-05
-3.73647e-06
-0.00111395
-6.1577e-06
-0.00109464
-4.47587e-05
1.60283e-05
1.64627e-06
-0.0014385
5.86098e-06
2.24484e-06
-0.00144081
-4.30848e-06
2.48548e-06
-0.00144172
-1.46757e-05
2.41216e-06
-0.00144115
-2.53374e-05
1.98726e-06
-0.00143886
-3.63589e-05
1.17475e-06
-0.0014343
-4.78558e-05
-1.2167e-07
-0.00142643
-5.9362e-05
-2.00216e-06
-0.00141334
-6.84715e-05
-4.87909e-06
-0.0013913
-8.40328e-06
-0.00135921
-6.49948e-05
1.77062e-05
1.90867e-06
-0.00172788
6.74784e-06
2.67827e-06
-0.00173071
-4.20946e-06
3.00927e-06
-0.00173192
-1.54774e-05
2.9777e-06
-0.00173145
-2.73036e-05
2.53046e-06
-0.00172897
-4.00207e-05
1.62904e-06
-0.00172381
-5.41917e-05
1.23756e-07
-0.00171442
-7.00133e-05
-2.10874e-06
-0.00169781
-8.57867e-05
-5.73514e-06
-0.00166724
-1.03724e-05
-0.00161947
-8.83492e-05
1.91374e-05
2.20692e-06
-0.0020191
7.66376e-06
3.06366e-06
-0.0020225
-3.78638e-06
3.44217e-06
-0.00202416
-1.56333e-05
3.43369e-06
-0.00202398
-2.83045e-05
2.98065e-06
-0.00202161
-4.23863e-05
2.04077e-06
-0.00201627
-5.88954e-05
4.0909e-07
-0.00200587
-7.88298e-05
-2.06648e-06
-0.00198625
-0.000101957
-6.31981e-06
-0.001947
-1.19986e-05
-0.00188164
-0.000112317
2.00965e-05
2.38207e-06
-0.002309
8.2768e-06
3.27844e-06
-0.00231302
-3.46226e-06
3.65588e-06
-0.00231508
-1.56355e-05
3.63676e-06
-0.00231519
-2.88293e-05
3.16612e-06
-0.00231299
-4.38817e-05
2.21088e-06
-0.0023077
-6.22983e-05
5.35922e-07
-0.00229672
-8.59867e-05
-2.03442e-06
-0.00227475
-0.000116935
-6.63978e-06
-0.00222729
-1.31905e-05
-0.00214327
-0.000136529
2.06623e-05
2.38301e-06
-0.00259908
8.75362e-06
3.18588e-06
-0.00260375
-3.03193e-06
3.50257e-06
-0.0026063
-1.52554e-05
3.42294e-06
-0.00260677
-2.86707e-05
2.93516e-06
-0.00260484
-4.43279e-05
1.99424e-06
-0.00259978
-6.42208e-05
3.63387e-07
-0.00258862
-9.11984e-05
-2.18343e-06
-0.00256503
-0.000130071
-6.7473e-06
-0.00251028
-1.39353e-05
-0.00240708
-0.000159663
2.04954e-05
2.06574e-06
-0.00288948
8.54857e-06
2.67914e-06
-0.0028948
-3.1571e-06
2.85568e-06
-0.00289751
-1.52458e-05
2.66315e-06
-0.00289791
-2.85672e-05
2.11846e-06
-0.00289572
-4.43622e-05
1.17663e-06
-0.00289047
-6.50966e-05
-3.13883e-07
-0.00287909
-9.45201e-05
-2.621e-06
-0.00285451
-0.000140802
-6.36645e-06
-0.00279367
-1.37035e-05
-0.00267155
-0.00018104
1.9902e-05
1.13621e-06
-0.00317642
8.39945e-06
1.31903e-06
-0.00318242
-2.81279e-06
1.24123e-06
-0.00318559
-1.43621e-05
7.6841e-07
-0.00318628
-2.72554e-05
2.478e-08
-0.0031843
-4.29765e-05
-1.00943e-06
-0.00317921
-6.45009e-05
-2.32514e-06
-0.00316793
-9.63706e-05
-4.0686e-06
-0.0031436
-0.000149026
-6.33824e-06
-0.00307781
-1.14788e-05
-0.00293406
-0.000201095
1.87418e-05
-0.00344425
7.15381e-06
-0.00345005
-3.95287e-06
-0.00345204
-1.52882e-05
-0.00345019
-2.77495e-05
-0.0034445
-4.28316e-05
-0.00343482
-6.35515e-05
-0.00341844
-9.53415e-05
-0.00338932
-0.000150815
-0.00331879
-0.00316038
-0.000215909
9.3431e-06
5.77936e-07
-0.00084883
3.48161e-06
8.21961e-07
-0.000850229
-2.56351e-06
9.15879e-07
-0.000850702
-8.51889e-06
8.51862e-07
-0.000850417
-1.40782e-05
6.28572e-07
-0.000849405
-1.88194e-05
2.36861e-07
-0.000847619
-2.21004e-05
-3.30489e-07
-0.000844985
-2.28825e-05
-1.0762e-06
-0.000841443
-1.95817e-05
-1.99711e-06
-0.00083701
-2.87876e-06
-0.000832124
-1.05979e-05
1.17433e-05
1.06087e-06
-0.00113958
4.14285e-06
1.51286e-06
-0.00114143
-3.5908e-06
1.68578e-06
-0.00114209
-1.132e-05
1.59249e-06
-0.0011416
-1.8829e-05
1.2159e-06
-0.00113988
-2.57299e-05
5.37525e-07
-0.00113676
-3.12642e-05
-4.74894e-07
-0.00113191
-3.39145e-05
-1.84479e-06
-0.00112493
-3.08418e-05
-3.63329e-06
-0.00111538
-5.4462e-06
-0.00110474
-1.81816e-05
1.44781e-05
1.43012e-06
-0.00142976
5.32832e-06
2.04511e-06
-0.0014322
-3.89516e-06
2.28829e-06
-0.0014331
-1.31932e-05
2.19392e-06
-0.00143245
-2.24606e-05
1.72617e-06
-0.0014301
-3.14042e-05
8.49732e-07
-0.00142567
-3.93474e-05
-5.13991e-07
-0.00141845
-4.46823e-05
-2.41991e-06
-0.00140743
-4.34851e-05
-5.06426e-06
-0.00139106
-7.92384e-06
-0.00137144
-2.87723e-05
1.65905e-05
1.74527e-06
-0.00171782
6.32163e-06
2.54395e-06
-0.00172094
-4.01794e-06
2.87863e-06
-0.00172217
-1.45663e-05
2.81638e-06
-0.00172152
-2.53702e-05
2.30457e-06
-0.00171875
-3.63431e-05
1.30057e-06
-0.00171329
-4.7019e-05
-3.33079e-07
-0.00170392
-5.58175e-05
-2.69123e-06
-0.00168874
-5.78921e-05
-6.20021e-06
-0.00166402
-1.02031e-05
-0.00163208
-4.30001e-05
1.83652e-05
2.09425e-06
-0.00200805
7.30639e-06
2.98955e-06
-0.00201189
-3.79106e-06
3.37588e-06
-0.00201356
-1.52047e-05
3.33418e-06
-0.00201308
-2.71735e-05
2.80525e-06
-0.00201014
-3.98627e-05
1.73756e-06
-0.00200402
-5.31126e-05
-7.1142e-08
-0.00199288
-6.55624e-05
-2.76995e-06
-0.00197372
-7.19747e-05
-7.066e-06
-0.00193973
-1.22147e-05
-0.00189279
-5.88112e-05
1.96184e-05
2.32884e-06
-0.00229711
8.00204e-06
3.2701e-06
-0.00230169
-3.59286e-06
3.66051e-06
-0.00230377
-1.55702e-05
3.61451e-06
-0.00230349
-2.83469e-05
3.07054e-06
-0.00230047
-4.23653e-05
1.98119e-06
-0.00229392
-5.78707e-05
1.00576e-07
-0.00228139
-7.3935e-05
-2.77271e-06
-0.00225869
-8.56134e-05
-7.60375e-06
-0.00221508
-1.37746e-05
-0.00215125
-7.60666e-05
2.03892e-05
2.37285e-06
-0.00258654
8.53032e-06
3.22222e-06
-0.00259184
-3.25755e-06
3.55742e-06
-0.00259441
-1.54571e-05
3.46224e-06
-0.00259442
-2.86737e-05
2.91542e-06
-0.00259147
-4.36124e-05
1.86025e-06
-0.00258473
-6.09826e-05
3.58004e-08
-0.00257118
-8.04314e-05
-2.84445e-06
-0.00254551
-9.7989e-05
-7.83486e-06
-0.00249249
-1.48852e-05
-0.00241049
-9.34762e-05
2.03796e-05
2.08301e-06
-0.00287634
8.41103e-06
2.73937e-06
-0.00288235
-3.37118e-06
2.94667e-06
-0.00288512
-1.55351e-05
2.77398e-06
-0.00288505
-2.88001e-05
2.22003e-06
-0.00288176
-4.41218e-05
1.23166e-06
-0.00287452
-6.27402e-05
-3.84553e-07
-0.00286005
-8.50221e-05
-2.99206e-06
-0.00283208
-0.000108654
-7.29637e-06
-0.00277058
-1.48031e-05
-0.00266978
-0.000110508
1.98505e-05
1.18651e-06
-0.00316286
8.26921e-06
1.39713e-06
-0.00316949
-3.07993e-06
1.38455e-06
-0.00317268
-1.47643e-05
9.97123e-07
-0.00317282
-2.76424e-05
3.47192e-07
-0.00316955
-4.29034e-05
-6.01177e-07
-0.00316212
-6.2413e-05
-1.88159e-06
-0.00314692
-8.76545e-05
-3.7293e-06
-0.00311762
-0.000117221
-6.46471e-06
-0.00304907
-1.21886e-05
-0.00292677
-0.00012713
1.87645e-05
-0.00343059
7.21992e-06
-0.0034371
-3.9121e-06
-0.00343952
-1.53021e-05
-0.0034378
-2.7725e-05
-0.00343173
-4.24105e-05
-0.00342074
-6.13263e-05
-0.0034014
-8.70512e-05
-0.00336733
-0.000119858
-0.00329244
-0.00315249
-0.000139937
6.86056e-06
3.94931e-07
-0.000845463
2.59156e-06
6.26028e-07
-0.000846586
-1.87887e-06
7.18377e-07
-0.00084695
-6.22019e-06
6.57793e-07
-0.000846734
-1.00879e-05
4.47857e-07
-0.000845985
-1.30774e-05
8.74427e-08
-0.000844717
-1.4695e-05
-4.15299e-07
-0.000842953
-1.43359e-05
-1.03952e-06
-0.000840762
-1.13282e-05
-1.73982e-06
-0.000838278
-2.34658e-06
-0.000835724
-5.38108e-06
9.40686e-06
7.71876e-07
-0.00113437
3.32905e-06
1.21315e-06
-0.00113594
-2.92909e-06
1.38412e-06
-0.0011365
-9.08746e-06
1.2892e-06
-0.00113607
-1.48039e-05
9.17063e-07
-0.00113464
-1.96096e-05
2.60641e-07
-0.00113213
-2.27895e-05
-6.85729e-07
-0.00112846
-2.32399e-05
-1.90121e-06
-0.00112362
-1.9297e-05
-3.34339e-06
-0.00111772
-4.6587e-06
-0.00111192
-9.80437e-06
1.24987e-05
1.13709e-06
-0.00142261
4.65315e-06
1.74868e-06
-0.00142489
-3.33166e-06
1.98797e-06
-0.00142572
-1.12732e-05
1.8774e-06
-0.0014251
-1.88975e-05
1.38645e-06
-0.00142295
-2.57335e-05
4.90085e-07
-0.00141906
-3.09054e-05
-8.58914e-07
-0.00141311
-3.28351e-05
-2.66451e-06
-0.00140473
-2.86353e-05
-4.94825e-06
-0.00139366
-7.16377e-06
-0.00138212
-1.54563e-05
1.49559e-05
1.48697e-06
-0.00170916
5.72412e-06
2.29853e-06
-0.00171226
-3.65389e-06
2.63123e-06
-0.00171343
-1.31125e-05
2.54018e-06
-0.00171272
-2.2489e-05
1.97766e-06
-0.00170996
-3.14196e-05
9.07587e-07
-0.00170478
-3.90123e-05
-7.73722e-07
-0.00169642
-4.33365e-05
-3.1104e-06
-0.00168397
-4.00721e-05
-6.2857e-06
-0.00166595
-9.55767e-06
-0.00164581
-2.39497e-05
1.70597e-05
1.8786e-06
-0.00199816
6.77082e-06
2.80016e-06
-0.0020021
-3.62997e-06
3.18924e-06
-0.00200371
-1.42209e-05
3.11275e-06
-0.00200306
-2.50101e-05
2.51405e-06
-0.00199989
-3.58232e-05
1.34209e-06
-0.00199364
-4.58843e-05
-5.75103e-07
-0.00198302
-5.30638e-05
-3.34323e-06
-0.00196631
-5.17256e-05
-7.3816e-06
-0.00193997
-1.17849e-05
-0.0019085
-3.37952e-05
1.86226e-05
2.17278e-06
-0.00228616
7.54843e-06
3.15065e-06
-0.00229096
-3.57823e-06
3.54968e-06
-0.002293
-1.49799e-05
3.47266e-06
-0.00229245
-2.68366e-05
2.85537e-06
-0.00228896
-3.92193e-05
1.64392e-06
-0.00228184
-5.16057e-05
-3.88514e-07
-0.00226919
-6.18819e-05
-3.41741e-06
-0.00224834
-6.34671e-05
-8.11452e-06
-0.00221276
-1.35919e-05
-0.00216769
-4.5227e-05
1.96303e-05
2.27279e-06
-0.00257473
8.13363e-06
3.16456e-06
-0.00258036
-3.36191e-06
3.51524e-06
-0.00258288
-1.51842e-05
3.39983e-06
-0.00258253
-2.77078e-05
2.78905e-06
-0.00257888
-4.12641e-05
1.61719e-06
-0.00257114
-5.56871e-05
-3.71905e-07
-0.00255678
-6.90555e-05
-3.45519e-06
-0.0025321
-7.43457e-05
-8.46583e-06
-0.00248685
-1.49417e-05
-0.00242634
-5.71408e-05
1.98239e-05
2.02108e-06
-0.00286379
8.11335e-06
2.72091e-06
-0.0028702
-3.48523e-06
2.9545e-06
-0.00287296
-1.54125e-05
2.79302e-06
-0.00287252
-2.81698e-05
2.21822e-06
-0.00286843
-4.23446e-05
1.1681e-06
-0.0028599
-5.82476e-05
-5.69763e-07
-0.00284395
-7.44149e-05
-3.3796e-06
-0.00281599
-8.40286e-05
-7.87952e-06
-0.00276155
-1.49869e-05
-0.00268437
-6.93964e-05
1.94186e-05
1.1885e-06
-0.00314977
8.00934e-06
1.42756e-06
-0.00315679
-3.24744e-06
1.47205e-06
-0.00315994
-1.48003e-05
1.15397e-06
-0.00315963
-2.72988e-05
5.74443e-07
-0.0031554
-4.15374e-05
-3.18555e-07
-0.00314639
-5.8328e-05
-1.59161e-06
-0.00312911
-7.73173e-05
-3.51573e-06
-0.00309849
-9.17469e-05
-6.44729e-06
-0.00303608
-1.20574e-05
-0.00293954
-8.19036e-05
1.84409e-05
-0.00341741
7.14312e-06
-0.00342438
-3.82955e-06
-0.00342708
-1.50546e-05
-0.00342542
-2.71312e-05
-0.00341908
-4.09395e-05
-0.00340725
-5.74394e-05
-0.00338649
-7.71184e-05
-0.00335116
-9.43458e-05
-0.00328166
-0.00316758
-9.13179e-05
4.82902e-06
2.2434e-07
-0.000843182
1.8581e-06
4.29553e-07
-0.000844044
-1.29831e-06
5.15432e-07
-0.000844309
-4.33098e-06
4.62378e-07
-0.000844164
-6.93326e-06
2.77841e-07
-0.000843661
-8.78252e-06
-3.33633e-08
-0.000842834
-9.54928e-06
-4.53184e-07
-0.000841733
-8.91822e-06
-9.50005e-07
-0.000840443
-6.65849e-06
-1.46767e-06
-0.00083907
-1.88502e-06
-0.000837634
-2.86343e-06
7.19002e-06
4.77018e-07
-0.00113054
2.54758e-06
8.86868e-07
-0.00113175
-2.29055e-06
1.04879e-06
-0.00113219
-6.99269e-06
9.59142e-07
-0.00113187
-1.11863e-05
6.1219e-07
-0.00113078
-1.44304e-05
1.21061e-08
-0.00112893
-1.61657e-05
-8.25044e-07
-0.00112635
-1.57108e-05
-1.85176e-06
-0.00112317
-1.22834e-05
-2.98008e-06
-0.00111964
-3.93264e-06
-0.00111646
-5.69203e-06
1.0376e-05
8.05829e-07
-0.001417
3.92296e-06
1.39036e-06
-0.00141894
-2.71371e-06
1.61837e-06
-0.00141965
-9.22924e-06
1.49993e-06
-0.00141912
-1.52506e-05
1.01138e-06
-0.00141732
-2.02583e-05
1.42208e-07
-0.00141418
-2.34552e-05
-1.12046e-06
-0.00140961
-2.36659e-05
-2.7384e-06
-0.00140364
-1.91849e-05
-4.63314e-06
-0.00139649
-6.33077e-06
-0.00138974
-9.16201e-06
1.30149e-05
1.1619e-06
-0.00170202
5.02358e-06
1.96397e-06
-0.00170484
-3.17898e-06
2.28788e-06
-0.0017059
-1.13534e-05
2.1754e-06
-0.00170523
-1.91736e-05
1.58691e-06
-0.00170272
-2.61258e-05
5.00253e-07
-0.00169818
-3.12509e-05
-1.14387e-06
-0.00169127
-3.28953e-05
-3.33609e-06
-0.00168172
-2.80766e-05
-6.08486e-06
-0.00166932
-8.69814e-06
-0.00165687
-1.46437e-05
1.53637e-05
1.5775e-06
-0.00198964
6.10874e-06
2.50583e-06
-0.00199338
-3.33053e-06
2.89131e-06
-0.00199488
-1.28352e-05
2.78479e-06
-0.00199417
-2.22024e-05
2.1362e-06
-0.00199107
-3.10165e-05
9.04044e-07
-0.00198523
-3.82644e-05
-1.03585e-06
-0.00197588
-4.18943e-05
-3.72885e-06
-0.00196229
-3.74713e-05
-7.34616e-06
-0.00194313
-1.09927e-05
-0.00192267
-2.10076e-05
1.71994e-05
1.92113e-06
-0.00227642
6.95526e-06
2.9205e-06
-0.00228113
-3.42061e-06
3.32262e-06
-0.00228306
-1.39498e-05
3.21609e-06
-0.00228235
-2.45722e-05
2.53883e-06
-0.00227874
-3.50457e-05
1.23989e-06
-0.0022717
-4.44414e-05
-8.65065e-07
-0.00225996
-5.04745e-05
-3.89559e-06
-0.00224214
-4.73156e-05
-8.22831e-06
-0.00221503
-1.29083e-05
-0.00218439
-2.86987e-05
1.84377e-05
2.08211e-06
-0.00256397
7.59317e-06
3.00666e-06
-0.0025696
-3.33044e-06
3.36888e-06
-0.002572
-1.44713e-05
3.23327e-06
-0.0025714
-2.59514e-05
2.56652e-06
-0.00256742
-3.77441e-05
1.30154e-06
-0.00255941
-4.91228e-05
-7.88403e-07
-0.00254547
-5.77304e-05
-3.92667e-06
-0.00252346
-5.65753e-05
-8.66944e-06
-0.00248756
-1.43427e-05
-0.00244476
-3.67183e-05
1.88535e-05
1.87426e-06
-0.00285215
7.67488e-06
2.61411e-06
-0.00285863
-3.47832e-06
2.86919e-06
-0.00286131
-1.48784e-05
2.71347e-06
-0.0028606
-2.67784e-05
2.11531e-06
-0.00285608
-3.93797e-05
1.01079e-06
-0.00284701
-5.22992e-05
-8.05994e-07
-0.00283102
-6.33916e-05
-3.68244e-06
-0.00280514
-6.50201e-05
-8.07127e-06
-0.00276052
-1.44209e-05
-0.00270405
-4.52642e-05
1.86042e-05
1.13529e-06
-0.00313749
7.62254e-06
1.40108e-06
-0.0031446
-3.29943e-06
1.49402e-06
-0.00314764
-1.44497e-05
1.23056e-06
-0.003147
-2.62434e-05
7.02475e-07
-0.0031422
-3.90746e-05
-1.53697e-07
-0.0031324
-5.29064e-05
-1.42213e-06
-0.00311466
-6.63618e-05
-3.35696e-06
-0.00308536
-7.14498e-05
-6.2644e-06
-0.0030328
-1.12727e-05
-0.00296017
-5.39661e-05
1.77632e-05
-0.00340503
6.92329e-06
-0.00341214
-3.68953e-06
-0.00341497
-1.45194e-05
-0.00341336
-2.59602e-05
-0.00340694
-3.85222e-05
-0.00339484
-5.23572e-05
-0.00337408
-6.66226e-05
-0.00334025
-7.38907e-05
-0.00328066
-0.00319277
-5.99653e-05
3.30422e-06
8.30961e-08
-0.000841637
1.30234e-06
2.55408e-07
-0.000842298
-8.5303e-07
3.31665e-07
-0.000842485
-2.90915e-06
2.88237e-07
-0.000842396
-4.62542e-06
1.35193e-07
-0.00084208
-5.76856e-06
-1.19583e-07
-0.000841571
-6.13391e-06
-4.5367e-07
-0.000840914
-5.56935e-06
-8.34092e-07
-0.000840174
-4.02607e-06
-1.20899e-06
-0.000839404
-1.49437e-06
-0.000838503
-1.6627e-06
5.27061e-06
2.07861e-07
-0.00112777
1.85689e-06
5.70671e-07
-0.00112866
-1.74093e-06
7.17723e-07
-0.00112898
-5.2057e-06
6.38756e-07
-0.00112875
-8.19655e-06
3.32514e-07
-0.00112798
-1.03501e-05
-1.88469e-07
-0.00112671
-1.12725e-05
-8.94446e-07
-0.00112499
-1.05802e-05
-1.72653e-06
-0.00112297
-7.9727e-06
-2.58823e-06
-0.00112086
-3.27572e-06
-0.00111908
-3.57209e-06
8.32525e-06
4.73459e-07
-0.00141271
3.20324e-06
1.00831e-06
-0.00141425
-2.11866e-06
1.21761e-06
-0.00141483
-7.28546e-06
1.10007e-06
-0.00141442
-1.18969e-05
6.38666e-07
-0.00141302
-1.54669e-05
-1.63052e-07
-0.00141064
-1.73667e-05
-1.28978e-06
-0.00140732
-1.68374e-05
-2.67464e-06
-0.00140322
-1.30261e-05
-4.19483e-06
-0.00139869
-5.4836e-06
-0.00139472
-5.84202e-06
1.09581e-05
8.04819e-07
-0.00169633
4.27559e-06
1.57189e-06
-0.00169872
-2.66059e-06
1.87906e-06
-0.00169962
-9.4979e-06
1.75488e-06
-0.00169904
-1.58172e-05
1.16933e-06
-0.00169693
-2.10608e-05
1.17057e-07
-0.00169322
-2.43793e-05
-1.41771e-06
-0.00168782
-2.4568e-05
-3.38044e-06
-0.00168083
-1.9871e-05
-5.67451e-06
-0.00167254
-7.73051e-06
-0.00166487
-9.62739e-06
1.34233e-05
1.21924e-06
-0.00198254
5.36249e-06
2.12885e-06
-0.00198588
-2.94058e-06
2.5026e-06
-0.0019872
-1.12107e-05
2.37454e-06
-0.00198652
-1.9093e-05
1.70416e-06
-0.00198372
-2.60401e-05
4.65797e-07
-0.00197863
-3.10388e-05
-1.41116e-06
-0.00197089
-3.24371e-05
-3.91134e-06
-0.00196036
-2.72871e-05
-7.02707e-06
-0.00194693
-9.98408e-06
-0.00193376
-1.39338e-05
1.54515e-05
1.59377e-06
-0.00226804
6.25308e-06
2.59229e-06
-0.0022724
-3.14882e-06
2.98982e-06
-0.00227414
-1.25943e-05
2.85936e-06
-0.00227339
-2.18264e-05
2.14527e-06
-0.00226995
-3.03874e-05
8.08193e-07
-0.00226348
-3.72105e-05
-1.28033e-06
-0.00225327
-4.02901e-05
-4.17224e-06
-0.0022388
-3.53487e-05
-8.00104e-06
-0.002219
-1.18916e-05
-0.00219853
-1.93039e-05
1.6877e-05
1.81224e-06
-0.00255447
6.92926e-06
2.75265e-06
-0.00255981
-3.17687e-06
3.12017e-06
-0.00256203
-1.33902e-05
2.96757e-06
-0.0025613
-2.3606e-05
2.262e-06
-0.00255732
-3.35158e-05
9.43892e-07
-0.00254964
-4.2103e-05
-1.16602e-06
-0.002537
-4.71279e-05
-4.21255e-06
-0.0025184
-4.29941e-05
-8.49024e-06
-0.00249121
-1.32731e-05
-0.00246162
-2.47549e-05
1.75077e-05
1.64745e-06
-0.00284165
7.10785e-06
2.41758e-06
-0.00284789
-3.35537e-06
2.68768e-06
-0.00285041
-1.39733e-05
2.5348e-06
-0.00284955
-2.47628e-05
1.9183e-06
-0.00284494
-3.55967e-05
7.80107e-07
-0.00283601
-4.56519e-05
-1.05807e-06
-0.00282107
-5.26848e-05
-3.86355e-06
-0.00279846
-5.01398e-05
-7.89503e-06
-0.00276366
-1.32752e-05
-0.00272346
-3.07257e-05
1.74263e-05
1.02669e-06
-0.00312627
7.11299e-06
1.31381e-06
-0.00313318
-3.23751e-06
1.44591e-06
-0.00313605
-1.37333e-05
1.22451e-06
-0.00313519
-2.45596e-05
7.34749e-07
-0.00313019
-3.57608e-05
-9.16319e-08
-0.00312033
-4.67351e-05
-1.3421e-06
-0.00310341
-5.56283e-05
-3.21838e-06
-0.00307711
-5.52971e-05
-5.93391e-06
-0.00303509
-1.00956e-05
-0.00298222
-3.64287e-05
1.67429e-05
-0.00339369
6.56461e-06
-0.00340065
-3.48706e-06
-0.00340347
-1.37007e-05
-0.00340192
-2.42605e-05
-0.00339564
-3.53375e-05
-0.00338385
-4.65214e-05
-0.00336424
-5.62556e-05
-0.00333374
-5.75599e-05
-0.00328529
-0.00322043
-4.00011e-05
2.22529e-06
-2.25595e-08
-0.000840574
9.06737e-07
1.1586e-07
-0.000841095
-5.31772e-07
1.814e-07
-0.000841228
-1.89833e-06
1.47874e-07
-0.000841177
-3.01743e-06
2.69438e-08
-0.000840988
-3.72876e-06
-1.72819e-07
-0.000840687
-3.90799e-06
-4.28848e-07
-0.000840306
-3.48366e-06
-7.11889e-07
-0.000839886
-2.46525e-06
-9.79552e-07
-0.000839443
-1.17401e-06
-0.000838808
-9.85805e-07
3.71637e-06
-1.66283e-08
-0.00112578
1.2847e-06
2.91095e-07
-0.0011264
-1.30388e-06
4.19792e-07
-0.00112663
-3.78137e-06
3.54569e-07
-0.00112648
-5.86636e-06
9.72604e-08
-0.00112597
-7.28212e-06
-3.35088e-07
-0.00112513
-7.76622e-06
-9.07025e-07
-0.00112403
-7.11408e-06
-1.55909e-06
-0.00112278
-5.23839e-06
-2.20374e-06
-0.00112152
-2.69428e-06
-0.00112048
-2.32059e-06
6.48833e-06
1.69116e-07
-0.0014095
2.54408e-06
6.36986e-07
-0.00141065
-1.59077e-06
8.21526e-07
-0.00141109
-5.56899e-06
7.12061e-07
-0.0014108
-9.01601e-06
2.96854e-07
-0.00140977
-1.15195e-05
-4.10215e-07
-0.00140806
-1.26192e-05
-1.37523e-06
-0.00140575
-1.1858e-05
-2.51822e-06
-0.00140302
-8.86763e-06
-3.70673e-06
-0.00140018
-4.67002e-06
-0.00139781
-3.80211e-06
8.94705e-06
4.49277e-07
-0.00169191
3.53285e-06
1.15722e-06
-0.00169383
-2.15025e-06
1.43979e-06
-0.00169456
-7.70094e-06
1.31366e-06
-0.00169409
-1.26743e-05
7.58186e-07
-0.00169242
-1.65431e-05
-2.16367e-07
-0.00168954
-1.86258e-05
-1.59152e-06
-0.00168552
-1.81173e-05
-3.28238e-06
-0.00168057
-1.41016e-05
-5.14159e-06
-0.00167512
-6.72851e-06
-0.00167039
-6.52575e-06
1.1388e-05
8.3582e-07
-0.00197679
4.57947e-06
1.69909e-06
-0.00197961
-2.50573e-06
2.05201e-06
-0.00198072
-9.49409e-06
1.9126e-06
-0.00198013
-1.59483e-05
1.25096e-06
-0.00197776
-2.12859e-05
5.95558e-08
-0.00197357
-2.46163e-05
-1.68343e-06
-0.00196746
-2.47309e-05
-3.91298e-06
-0.00195961
-1.98883e-05
-6.51046e-06
-0.0019504
-8.85616e-06
-0.00194197
-9.55087e-06
1.35028e-05
1.21782e-06
-0.00226104
5.48104e-06
2.18828e-06
-0.00226487
-2.7974e-06
2.57194e-06
-0.00226638
-1.1035e-05
2.42578e-06
-0.00226567
-1.88425e-05
1.70352e-06
-0.00226259
-2.56522e-05
3.82773e-07
-0.002257
-3.04367e-05
-1.60708e-06
-0.00224856
-3.16115e-05
-4.2537e-06
-0.00223728
-2.64007e-05
-7.51605e-06
-0.00222321
-1.06655e-05
-0.00220966
-1.34595e-05
1.5043e-05
1.48266e-06
-0.00254633
6.17184e-06
2.4159e-06
-0.00255117
-2.92456e-06
2.7804e-06
-0.00255314
-1.20335e-05
2.61651e-06
-0.00255238
-2.08763e-05
1.89566e-06
-0.00254867
-2.89651e-05
5.72968e-07
-0.00254174
-3.52092e-05
-1.4756e-06
-0.00253089
-3.7716e-05
-4.31067e-06
-0.00251583
-3.25546e-05
-8.01582e-06
-0.00249587
-1.19053e-05
-0.00247571
-1.72288e-05
1.58575e-05
1.35319e-06
-0.00283244
6.43492e-06
2.13776e-06
-0.00283819
-3.13102e-06
2.41489e-06
-0.00284048
-1.27639e-05
2.26456e-06
-0.00283956
-2.22845e-05
1.64153e-06
-0.00283517
-3.13308e-05
5.00394e-07
-0.00282689
-3.88826e-05
-1.2969e-06
-0.0028137
-4.28885e-05
-3.92236e-06
-0.00279484
-3.84773e-05
-7.45198e-06
-0.00276863
-1.17935e-05
-0.00274055
-2.14982e-05
1.5935e-05
8.6812e-07
-0.00311632