/*--------------------------------*- C++ -*----------------------------------*\
| =========                 |                                                 |
| \\      /  F ield         | foam-extend: Open Source CFD                    |
|  \\    /   O peration     | Version:     4.0                                |
|   \\  /    A nd           | Web:         http://www.foam-extend.org         |
|    \\/     M anipulation  |                                                 |
\*---------------------------------------------------------------------------*/
FoamFile
{
    version     2.0;
    format      ascii;
    class       volScalarField;
    location    "1100";
    object      rho;
}
// * * * * * * * * * * * * * * * * * * * * * * * * * * * * * * * * * * * * * //

dimensions      [1 -3 0 0 0 0 0];

internalField   nonuniform List<scalar> 
34480
(
1.34614
1.34543
1.34533
1.34578
1.34699
1.3493
1.3535
1.36159
1.37227
1.3767
1.34706
1.34641
1.34636
1.34683
1.34798
1.35016
1.35426
1.36239
1.37421
1.37601
1.34603
1.34538
1.34539
1.34577
1.34676
1.34865
1.35246
1.36022
1.37244
1.36898
1.3452
1.34462
1.34466
1.34501
1.34587
1.34744
1.35084
1.35788
1.36986
1.36084
1.34444
1.34382
1.34388
1.34416
1.34488
1.34616
1.34915
1.35542
1.36689
1.35274
1.34462
1.3441
1.34417
1.34445
1.34509
1.34614
1.34875
1.35421
1.36485
1.34587
1.34358
1.343
1.34308
1.34332
1.3439
1.34479
1.34708
1.35185
1.3615
1.33851
1.34451
1.34409
1.34427
1.34473
1.34554
1.34664
1.34891
1.35318
1.36155
1.33463
1.34306
1.34267
1.34287
1.34337
1.34432
1.34568
1.34804
1.35198
1.35879
1.32874
1.34031
1.34014
1.34087
1.34231
1.3445
1.34742
1.35144
1.35688
1.36384
1.32993
1.35313
1.35204
1.35166
1.35189
1.35284
1.35466
1.35756
1.36189
1.36871
1.37763
1.35374
1.35251
1.35209
1.35234
1.35336
1.35535
1.35874
1.36442
1.37467
1.38943
1.35242
1.35111
1.35067
1.35082
1.35173
1.35361
1.3571
1.36348
1.37643
1.39545
1.35136
1.34997
1.34945
1.3495
1.35027
1.35193
1.35526
1.36163
1.37618
1.39808
1.35045
1.34892
1.34832
1.3482
1.34879
1.35014
1.35315
1.35916
1.37457
1.39821
1.3505
1.34895
1.34826
1.34804
1.34846
1.34952
1.35214
1.35753
1.37313
1.39727
1.3494
1.34771
1.34695
1.34658
1.34684
1.34763
1.34986
1.35457
1.3699
1.39391
1.35027
1.34864
1.34787
1.34758
1.34791
1.34872
1.35079
1.3549
1.36936
1.39233
1.34885
1.3472
1.34637
1.34603
1.34629
1.3471
1.34907
1.35279
1.36582
1.3882
1.34619
1.34461
1.34414
1.34444
1.34556
1.34742
1.35043
1.35506
1.36762
1.38871
1.35801
1.35708
1.35677
1.35702
1.35792
1.35952
1.36192
1.3652
1.36933
1.37382
1.35858
1.35741
1.35704
1.35736
1.35847
1.36048
1.36359
1.36809
1.37471
1.38256
1.3571
1.3558
1.35541
1.35573
1.35689
1.35906
1.36258
1.36811
1.3774
1.38904
1.35577
1.35436
1.3539
1.35415
1.35529
1.35749
1.36125
1.36738
1.37877
1.39385
1.35462
1.35306
1.35252
1.35265
1.35369
1.35577
1.35954
1.36589
1.3789
1.39699
1.35438
1.35278
1.35217
1.35221
1.35314
1.35506
1.35873
1.365
1.37911
1.39951
1.35304
1.35132
1.35065
1.35056
1.35136
1.35308
1.35657
1.36263
1.3774
1.39966
1.35372
1.35204
1.35134
1.35131
1.35214
1.35385
1.35727
1.36308
1.37791
1.40121
1.35223
1.35051
1.34976
1.34965
1.35035
1.35195
1.35523
1.36094
1.37519
1.39952
1.34954
1.34788
1.34735
1.34768
1.34895
1.3512
1.35509
1.36139
1.37541
1.40003
1.36141
1.36074
1.36051
1.3607
1.36136
1.36249
1.36408
1.36604
1.36817
1.36998
1.36228
1.3613
1.36097
1.36125
1.36218
1.36381
1.36619
1.3693
1.37318
1.37689
1.36102
1.3598
1.35943
1.35974
1.36082
1.36277
1.36576
1.36996
1.37607
1.38252
1.35968
1.35829
1.35783
1.35811
1.35927
1.36143
1.36491
1.37005
1.37836
1.38781
1.35847
1.3569
1.35636
1.35656
1.35769
1.3599
1.36367
1.36946
1.37971
1.39218
1.35809
1.35644
1.35582
1.35596
1.35704
1.35922
1.36313
1.36929
1.38118
1.39642
1.35663
1.35484
1.35417
1.35419
1.35519
1.35728
1.3612
1.36754
1.38074
1.39858
1.35716
1.3554
1.3547
1.35476
1.35578
1.35788
1.36186
1.36829
1.38224
1.40216
1.3556
1.35379
1.35305
1.35304
1.35398
1.35599
1.35987
1.36642
1.38049
1.40248
1.35289
1.35112
1.35053
1.35084
1.35216
1.35462
1.35889
1.36587
1.37994
1.40343
1.3638
1.36337
1.36321
1.36335
1.3638
1.36454
1.36554
1.36669
1.36785
1.36873
1.36502
1.36426
1.364
1.36422
1.36494
1.36615
1.36783
1.3699
1.37217
1.37412
1.3641
1.36306
1.36274
1.36301
1.36393
1.36554
1.36787
1.37089
1.37465
1.37818
1.36289
1.36163
1.36121
1.36149
1.36255
1.36448
1.36742
1.37142
1.37695
1.38254
1.36177
1.36029
1.35978
1.36002
1.36114
1.36325
1.36663
1.37146
1.37875
1.38663
1.36134
1.35975
1.35916
1.35936
1.36049
1.3627
1.3664
1.37185
1.38082
1.39103
1.35985
1.3581
1.35745
1.35756
1.35867
1.36089
1.36478
1.37069
1.38116
1.39376
1.36031
1.35855
1.35786
1.35801
1.35915
1.36143
1.36549
1.37175
1.38336
1.3981
1.3587
1.35689
1.35617
1.35626
1.35736
1.35961
1.3637
1.37027
1.38248
1.3995
1.356
1.35422
1.35359
1.35391
1.35526
1.35781
1.36218
1.36913
1.38158
1.4005
1.36551
1.36526
1.36516
1.36525
1.36553
1.36599
1.36657
1.36722
1.36782
1.36821
1.36699
1.36645
1.36627
1.36643
1.36693
1.36777
1.36889
1.37019
1.3715
1.37254
1.36648
1.36565
1.36538
1.3656
1.36632
1.36755
1.36927
1.37136
1.37368
1.37564
1.36546
1.36439
1.36402
1.36427
1.36517
1.36677
1.3691
1.37208
1.37569
1.37899
1.36451
1.3632
1.36275
1.36298
1.364
1.36586
1.36871
1.37252
1.37754
1.38244
1.36413
1.36267
1.36213
1.36235
1.36344
1.3655
1.36877
1.3733
1.37977
1.38643
1.36268
1.36103
1.36043
1.36059
1.36171
1.36387
1.36745
1.37259
1.38045
1.38904
1.36312
1.36144
1.36079
1.36098
1.36216
1.36443
1.36828
1.37392
1.383
1.39345
1.3615
1.35975
1.35907
1.35923
1.36039
1.3627
1.36666
1.37274
1.38267
1.39526
1.35886
1.35712
1.3565
1.35681
1.35814
1.36066
1.36484
1.37128
1.38162
1.39592
1.36677
1.36664
1.36659
1.36664
1.36682
1.36708
1.36742
1.36777
1.36809
1.36826
1.36842
1.36806
1.36793
1.36804
1.36838
1.36893
1.36964
1.37043
1.37119
1.37176
1.36827
1.36765
1.36744
1.3676
1.36814
1.36903
1.37023
1.37163
1.37307
1.37421
1.36745
1.3666
1.36629
1.36649
1.36722
1.36847
1.37022
1.37236
1.37473
1.37674
1.36673
1.36562
1.36523
1.36544
1.36631
1.36786
1.37013
1.37303
1.37645
1.37955
1.36645
1.36517
1.3647
1.36491
1.36589
1.36769
1.37042
1.37403
1.37862
1.38296
1.36509
1.3636
1.36306
1.36325
1.3643
1.36627
1.36937
1.37363
1.37938
1.38518
1.36556
1.36402
1.36343
1.36364
1.36477
1.3669
1.37033
1.37515
1.382
1.38928
1.36396
1.36233
1.36171
1.36191
1.36305
1.36526
1.36887
1.37416
1.38189
1.39094
1.36143
1.35979
1.3592
1.35949
1.36076
1.36312
1.36693
1.37256
1.38076
1.39113
1.36775
1.3677
1.36768
1.36771
1.36781
1.36796
1.36815
1.36834
1.3685
1.36856
1.36946
1.36923
1.36915
1.36922
1.36944
1.36978
1.37022
1.37069
1.37112
1.37143
1.36961
1.36916
1.36902
1.36913
1.3695
1.37012
1.37092
1.37183
1.37271
1.37338
1.36896
1.36831
1.36807
1.36823
1.36878
1.36971
1.37097
1.37246
1.374
1.37524
1.36848
1.36758
1.36726
1.36744
1.36814
1.36937
1.3711
1.37321
1.37554
1.37752
1.36832
1.36725
1.36685
1.36704
1.36788
1.36937
1.37155
1.37431
1.37752
1.38039
1.36707
1.36579
1.36532
1.36551
1.36644
1.36814
1.37071
1.37409
1.37823
1.38216
1.36763
1.36627
1.36575
1.36596
1.36699
1.36888
1.3718
1.37572
1.38078
1.38582
1.36607
1.3646
1.36405
1.36425
1.36532
1.36732
1.37045
1.37484
1.38067
1.38701
1.36368
1.3622
1.36165
1.36192
1.36308
1.36521
1.36852
1.37321
1.37949
1.38678
1.36855
1.36854
1.36854
1.36855
1.36861
1.36869
1.3688
1.3689
1.36899
1.36898
1.37023
1.37009
1.37004
1.37008
1.37022
1.37043
1.37069
1.37097
1.37121
1.37138
1.37061
1.3703
1.3702
1.37027
1.37053
1.37094
1.37146
1.37203
1.37257
1.37296
1.37009
1.36961
1.36943
1.36954
1.36995
1.37061
1.37149
1.37249
1.37348
1.37425
1.36982
1.36912
1.36888
1.36901
1.36956
1.37049
1.37176
1.37325
1.3748
1.37607
1.36979
1.36893
1.3686
1.36876
1.36944
1.37063
1.3723
1.37433
1.37655
1.37844
1.36867
1.3676
1.36721
1.36737
1.36816
1.36957
1.37161
1.37419
1.37712
1.37977
1.36933
1.36818
1.36773
1.36793
1.36882
1.37042
1.3728
1.37587
1.37953
1.38297
1.36781
1.36654
1.36606
1.36626
1.3672
1.36893
1.37153
1.37502
1.3793
1.38365
1.36561
1.36431
1.36383
1.36407
1.36508
1.36692
1.36969
1.37345
1.37811
1.38313
1.36922
1.36924
1.36925
1.36925
1.36929
1.36933
1.36939
1.36945
1.36948
1.36945
1.37081
1.37073
1.3707
1.37072
1.37081
1.37093
1.37109
1.37125
1.37138
1.37147
1.37136
1.37116
1.37109
1.37114
1.37131
1.37157
1.3719
1.37225
1.37257
1.37279
1.37091
1.37057
1.37045
1.37052
1.3708
1.37126
1.37186
1.37252
1.37315
1.37362
1.37083
1.37031
1.37013
1.37023
1.37063
1.37131
1.37221
1.37324
1.37426
1.37506
1.37091
1.37024
1.36999
1.37012
1.37065
1.37155
1.37279
1.37424
1.37575
1.37698
1.3699
1.36905
1.36874
1.36888
1.36951
1.37062
1.37219
1.37409
1.37613
1.3779
1.37069
1.36976
1.36939
1.36956
1.3703
1.3716
1.37346
1.37578
1.37837
1.38068
1.3692
1.36814
1.36774
1.36792
1.36872
1.37015
1.37223
1.37491
1.37797
1.3809
1.36722
1.36613
1.36572
1.36593
1.36679
1.36831
1.37054
1.37344
1.37681
1.38021
1.36981
1.36984
1.36985
1.36985
1.36987
1.3699
1.36993
1.36996
1.36997
1.36993
1.37125
1.37121
1.37119
1.3712
1.37125
1.37133
1.37142
1.37151
1.37158
1.37163
1.37194
1.37181
1.37176
1.3718
1.3719
1.37207
1.37227
1.37248
1.37267
1.37279
1.3715
1.37127
1.37118
1.37123
1.37142
1.37173
1.37212
1.37255
1.37295
1.37324
1.37158
1.37121
1.37107
1.37115
1.37143
1.37191
1.37253
1.37323
1.37389
1.37439
1.37174
1.37125
1.37105
1.37115
1.37155
1.37221
1.3731
1.37412
1.37513
1.37591
1.37084
1.37017
1.36993
1.37004
1.37054
1.37138
1.37254
1.37391
1.3753
1.37646
1.37175
1.37102
1.37073
1.37087
1.37146
1.37248
1.37389
1.37558
1.37738
1.3789
1.37028
1.36942
1.36911
1.36925
1.3699
1.37104
1.37264
1.37463
1.37679
1.37873
1.36856
1.36767
1.36733
1.36751
1.3682
1.36942
1.37115
1.37332
1.3757
1.37796
1.37033
1.37037
1.37038
1.37038
1.37039
1.3704
1.37042
1.37043
1.37044
1.37038
1.37158
1.37156
1.37155
1.37156
1.37159
1.37163
1.37168
1.37174
1.37178
1.3718
1.37239
1.37231
1.37228
1.3723
1.37236
1.37247
1.37259
1.37271
1.37282
1.37288
1.37192
1.37176
1.3717
1.37173
1.37186
1.37206
1.37231
1.37259
1.37283
1.37302
1.37213
1.37187
1.37177
1.37182
1.37202
1.37235
1.37277
1.37322
1.37365
1.37396
1.37234
1.37199
1.37185
1.37192
1.3722
1.37268
1.3733
1.37399
1.37465
1.37515
1.37152
1.37102
1.37084
1.37092
1.37129
1.37191
1.37274
1.3737
1.37463
1.37539
1.37256
1.37202
1.37179
1.37191
1.37236
1.37312
1.37415
1.37535
1.37658
1.37757
1.37109
1.37041
1.37017
1.37029
1.37079
1.37166
1.37286
1.37429
1.37577
1.37705
1.36965
1.36895
1.36869
1.36882
1.36937
1.37031
1.3716
1.37317
1.37482
1.3763
1.3708
1.37084
1.37085
1.37085
1.37085
1.37086
1.37087
1.37088
1.37087
1.37082
1.37182
1.37182
1.37181
1.37181
1.37183
1.37186
1.37189
1.37192
1.37194
1.37195
1.37275
1.3727
1.37268
1.3727
1.37274
1.3728
1.37287
1.37294
1.373
1.37302
1.3722
1.3721
1.37206
1.37208
1.37216
1.37229
1.37245
1.37262
1.37277
1.37289
1.37252
1.37235
1.37228
1.37232
1.37245
1.37267
1.37294
1.37323
1.3735
1.37369
1.37276
1.37251
1.37241
1.37246
1.37266
1.37299
1.37341
1.37387
1.37431
1.37462
1.37199
1.37164
1.37151
1.37157
1.37183
1.37227
1.37285
1.3735
1.37411
1.37461
1.37318
1.37278
1.37262
1.3727
1.37303
1.37359
1.37432
1.37515
1.37597
1.37659
1.37165
1.37115
1.37096
1.37105
1.37143
1.37207
1.37293
1.37393
1.37493
1.37577
1.37054
1.37001
1.36981
1.36991
1.37032
1.37102
1.37196
1.37306
1.37417
1.37514
1.37123
1.37127
1.37128
1.37128
1.37128
1.37129
1.37129
1.37129
1.37129
1.37123
1.37198
1.37198
1.37198
1.37198
1.37199
1.37201
1.37203
1.37205
1.37206
1.37207
1.37304
1.37301
1.37301
1.37302
1.37304
1.37307
1.37312
1.37315
1.37318
1.37318
1.37238
1.37232
1.37229
1.3723
1.37235
1.37243
1.37253
1.37264
1.37273
1.37281
1.37279
1.37268
1.37264
1.37266
1.37275
1.37289
1.37306
1.37325
1.37341
1.37352
1.37304
1.37287
1.3728
1.37284
1.37297
1.37319
1.37347
1.37377
1.37405
1.37424
1.37232
1.37207
1.37198
1.37202
1.37221
1.37251
1.3729
1.37333
1.37372
1.37404
1.37363
1.37336
1.37324
1.3733
1.37354
1.37393
1.37443
1.37499
1.37553
1.37591
1.37202
1.37165
1.37152
1.37158
1.37186
1.37231
1.37291
1.37359
1.37425
1.37479
1.37127
1.37089
1.37074
1.37082
1.37112
1.37161
1.37227
1.37302
1.37376
1.37438
1.37165
1.37169
1.3717
1.3717
1.3717
1.3717
1.3717
1.3717
1.3717
1.37164
1.37207
1.37207
1.37207
1.37207
1.37208
1.37209
1.3721
1.37212
1.37212
1.37213
1.37329
1.37328
1.37327
1.37328
1.3733
1.37332
1.37334
1.37335
1.37337
1.37335
1.37249
1.37245
1.37243
1.37243
1.37246
1.37251
1.37258
1.37264
1.3727
1.37275
1.37298
1.3729
1.37288
1.37289
1.37295
1.37304
1.37314
1.37326
1.37336
1.37342
1.3732
1.37309
1.37304
1.37307
1.37315
1.3733
1.37348
1.37367
1.37385
1.37396
1.37253
1.37236
1.3723
1.37233
1.37245
1.37265
1.37291
1.37318
1.37343
1.37363
1.37397
1.37379
1.37371
1.37375
1.37391
1.37418
1.37452
1.37488
1.37523
1.37545
1.37223
1.37197
1.37188
1.37192
1.37211
1.37242
1.37282
1.37327
1.3737
1.37405
1.37192
1.37165
1.37154
1.3716
1.3718
1.37214
1.37259
1.37309
1.37356
1.37396
1.37211
1.37214
1.37215
1.37215
1.37215
1.37215
1.37215
1.37215
1.37214
1.37209
1.37207
1.37207
1.37207
1.37207
1.37207
1.37208
1.37209
1.3721
1.37211
1.37212
1.3735
1.3735
1.3735
1.37351
1.37351
1.37352
1.37354
1.37354
1.37354
1.37351
1.37254
1.37251
1.3725
1.3725
1.37252
1.37255
1.37259
1.37263
1.37266
1.37269
1.37307
1.37303
1.37301
1.37302
1.37305
1.37311
1.37317
1.37324
1.3733
1.37333
1.37326
1.37319
1.37316
1.37317
1.37323
1.37332
1.37343
1.37355
1.37366
1.37374
1.37265
1.37255
1.37251
1.37253
1.37261
1.37274
1.3729
1.37307
1.37321
1.37334
1.37422
1.3741
1.37404
1.37407
1.37418
1.37435
1.37457
1.37481
1.37504
1.37516
1.3723
1.37211
1.37205
1.37208
1.37221
1.37241
1.37267
1.37297
1.37323
1.37347
1.37255
1.37237
1.37229
1.37233
1.37247
1.3727
1.37299
1.37331
1.37361
1.37385
1.37273
1.37276
1.37277
1.37277
1.37277
1.37277
1.37277
1.37276
1.37275
1.37271
1.37196
1.37196
1.37196
1.37196
1.37196
1.37197
1.37197
1.37199
1.37199
1.372
1.37366
1.37367
1.37366
1.37367
1.37367
1.37368
1.37368
1.37369
1.37369
1.37365
1.37254
1.37252
1.37252
1.37252
1.37253
1.37255
1.37257
1.37259
1.3726
1.37262
1.37308
1.37305
1.37304
1.37305
1.37307
1.3731
1.37314
1.37318
1.37322
1.37324
1.37322
1.37317
1.37315
1.37316
1.3732
1.37325
1.37332
1.3734
1.37347
1.37352
1.3727
1.37264
1.37262
1.37264
1.37269
1.37277
1.37286
1.37297
1.37305
1.37312
1.37432
1.37425
1.37421
1.37423
1.37429
1.37441
1.37455
1.3747
1.37485
1.37492
1.3722
1.37208
1.37204
1.37206
1.37214
1.37227
1.37244
1.37262
1.37278
1.37294
1.37331
1.37319
1.37314
1.37317
1.37326
1.3734
1.3736
1.37379
1.37399
1.37413
1.37378
1.37381
1.37381
1.37381
1.37381
1.37381
1.37381
1.3738
1.37379
1.37375
1.37166
1.37166
1.37166
1.37166
1.37166
1.37167
1.37167
1.37168
1.37169
1.37171
1.3737
1.3737
1.37369
1.37369
1.37369
1.37369
1.3737
1.37371
1.37371
1.37369
1.37251
1.37251
1.37251
1.37252
1.37252
1.37253
1.37254
1.37255
1.37255
1.37256
1.37301
1.373
1.37299
1.37299
1.373
1.37302
1.37305
1.37307
1.3731
1.37311
1.37309
1.37306
1.37305
1.37305
1.37308
1.37311
1.37316
1.3732
1.37325
1.37328
1.37269
1.37266
1.37265
1.37266
1.37269
1.37274
1.3728
1.37286
1.3729
1.37294
1.37418
1.37412
1.37409
1.3741
1.37415
1.37422
1.37431
1.37441
1.37453
1.37457
1.37187
1.37179
1.37177
1.37178
1.37184
1.37192
1.37203
1.37213
1.37222
1.37233
1.37444
1.37437
1.37433
1.37435
1.3744
1.3745
1.37463
1.37475
1.37489
1.37497
1.3755
1.37551
1.37551
1.37551
1.37551
1.37551
1.37551
1.37551
1.3755
1.37548
1.37104
1.37105
1.37106
1.37107
1.37108
1.37108
1.37108
1.37107
1.37106
1.37106
1.37348
1.37346
1.37345
1.37344
1.37344
1.37344
1.37345
1.37347
1.37349
1.3735
1.3725
1.3725
1.37251
1.37252
1.37252
1.37253
1.37253
1.37253
1.37253
1.37252
1.3729
1.37289
1.37288
1.37288
1.37289
1.3729
1.37292
1.37294
1.37296
1.37297
1.37293
1.37291
1.3729
1.37291
1.37292
1.37295
1.37298
1.37301
1.37304
1.37306
1.37264
1.37262
1.37262
1.37263
1.37265
1.37269
1.37273
1.37276
1.37279
1.3728
1.37364
1.37359
1.37357
1.37357
1.3736
1.37365
1.37372
1.3738
1.37388
1.37394
1.37117
1.37114
1.37113
1.37114
1.37118
1.37124
1.37131
1.37138
1.37142
1.37146
1.37614
1.37608
1.37605
1.37606
1.37611
1.37618
1.37626
1.37635
1.37646
1.3765
1.37733
1.37731
1.3773
1.37729
1.37729
1.37729
1.3773
1.37732
1.37734
1.37737
1.37027
1.37033
1.37037
1.37039
1.3704
1.3704
1.37038
1.37036
1.37031
1.37023
1.37308
1.37305
1.37303
1.37302
1.37301
1.37302
1.37303
1.37305
1.37309
1.37314
1.37253
1.37254
1.37254
1.37255
1.37256
1.37256
1.37257
1.37257
1.37256
1.37255
1.37281
1.3728
1.3728
1.3728
1.3728
1.37282
1.37283
1.37285
1.37287
1.37288
1.37283
1.37281
1.3728
1.37281
1.37282
1.37284
1.37287
1.3729
1.37292
1.37295
1.37263
1.37261
1.37261
1.37262
1.37264
1.37267
1.3727
1.37274
1.37276
1.37277
1.37296
1.37291
1.37289
1.37289
1.37292
1.37297
1.37303
1.37309
1.37317
1.37325
1.37036
1.37035
1.37035
1.37036
1.3704
1.37045
1.37051
1.37057
1.37059
1.37055
1.37786
1.37781
1.37779
1.3778
1.37784
1.3779
1.37797
1.37805
1.37814
1.37817
1.47329
1.47888
1.47545
1.46828
1.50593
1.51166
1.50482
1.49408
1.53251
1.53757
1.52789
1.51463
1.5517
1.55564
1.54311
1.52784
1.5666
1.56914
1.55389
1.53712
1.57871
1.57981
1.56377
1.54503
1.58681
1.58629
1.57083
1.54975
1.59402
1.59176
1.57714
1.55379
1.59188
1.58775
1.57372
1.54834
1.58405
1.5789
1.56654
1.54004
1.37285
1.37252
1.37307
1.37414
1.39424
1.3956
1.3966
1.39627
1.41378
1.41648
1.41772
1.41582
1.43258
1.43649
1.43788
1.43406
1.45028
1.45505
1.4564
1.45052
1.4674
1.4727
1.47377
1.46624
1.48168
1.48726
1.48793
1.47931
1.49603
1.50169
1.50206
1.49282
1.50302
1.50868
1.50889
1.49944
1.50663
1.5128
1.51301
1.5039
1.37716
1.3776
1.37778
1.3778
1.38984
1.39081
1.3911
1.39095
1.40206
1.40364
1.40406
1.40371
1.41403
1.41628
1.41681
1.41611
1.42577
1.42868
1.42925
1.42802
1.43816
1.4417
1.44225
1.44034
1.44891
1.45298
1.45348
1.4508
1.46087
1.46535
1.46578
1.46231
1.46689
1.47169
1.47206
1.46775
1.47038
1.47595
1.47632
1.471
1.37054
1.37049
1.37053
1.37064
1.37855
1.37878
1.37887
1.3789
1.38655
1.3871
1.3873
1.38726
1.39511
1.39609
1.39643
1.39627
1.40375
1.40522
1.4057
1.40532
1.4133
1.41531
1.41592
1.41521
1.4216
1.42414
1.42484
1.42372
1.43157
1.4346
1.43535
1.43376
1.43645
1.4399
1.44074
1.43866
1.43911
1.44342
1.44439
1.44163
1.36927
1.3692
1.3692
1.36927
1.37491
1.37505
1.37511
1.37511
1.38005
1.38037
1.38048
1.38046
1.38594
1.38649
1.38669
1.38665
1.39212
1.39295
1.39325
1.39315
1.39928
1.40044
1.40085
1.40065
1.40533
1.40686
1.40738
1.40703
1.4133
1.41519
1.41581
1.41526
1.41721
1.41944
1.42023
1.41948
1.41924
1.42224
1.42323
1.42203
1.36859
1.36848
1.36847
1.36853
1.37282
1.37286
1.37289
1.37291
1.37634
1.37646
1.37652
1.37654
1.38042
1.38068
1.3808
1.38083
1.38492
1.38534
1.38554
1.38556
1.39036
1.39101
1.39129
1.39129
1.39477
1.39566
1.39604
1.39599
1.40121
1.40235
1.40283
1.4027
1.40437
1.40577
1.4064
1.40622
1.40559
1.40764
1.40843
1.40791
1.36859
1.36847
1.36845
1.36851
1.3719
1.37192
1.37194
1.37195
1.37455
1.37461
1.37465
1.37466
1.37743
1.37756
1.37763
1.37766
1.38074
1.38097
1.3811
1.38114
1.38491
1.38528
1.38547
1.38552
1.38808
1.3886
1.38887
1.38892
1.39329
1.39399
1.39433
1.39436
1.39573
1.3966
1.39707
1.39709
1.39614
1.39755
1.39812
1.39786
1.36886
1.36874
1.36871
1.36877
1.3715
1.37151
1.37151
1.37152
1.37356
1.37359
1.37361
1.37362
1.37561
1.37568
1.37572
1.37575
1.37815
1.37827
1.37835
1.37838
1.38142
1.38162
1.38175
1.38179
1.38368
1.38398
1.38416
1.38422
1.38795
1.38836
1.38859
1.38866
1.38963
1.39017
1.39048
1.39054
1.38939
1.3904
1.39078
1.39059
1.36927
1.36915
1.36912
1.36918
1.37141
1.37142
1.37142
1.37143
1.37306
1.37307
1.37308
1.37309
1.37447
1.37451
1.37454
1.37455
1.37644
1.37651
1.37656
1.37658
1.37904
1.37916
1.37924
1.37927
1.38064
1.38082
1.38093
1.38098
1.38418
1.38443
1.38458
1.38464
1.38514
1.38548
1.38568
1.38573
1.38448
1.38523
1.38548
1.3853
1.36973
1.36961
1.36958
1.36964
1.37149
1.37149
1.37149
1.3715
1.37285
1.37286
1.37287
1.37287
1.37376
1.37378
1.3738
1.37381
1.37528
1.37533
1.37536
1.37537
1.37735
1.37742
1.37747
1.37749
1.37842
1.37853
1.3786
1.37863
1.3814
1.38156
1.38166
1.3817
1.38179
1.382
1.38213
1.38217
1.38087
1.38147
1.38163
1.38144
1.3702
1.37007
1.37004
1.3701
1.37164
1.37164
1.37164
1.37164
1.37283
1.37283
1.37283
1.37284
1.37333
1.37334
1.37335
1.37336
1.37453
1.37455
1.37457
1.37458
1.37615
1.3762
1.37623
1.37624
1.37678
1.37685
1.3769
1.37692
1.37935
1.37945
1.37951
1.37954
1.37928
1.37941
1.37949
1.37952
1.37825
1.37874
1.37885
1.37866
1.37065
1.37053
1.37049
1.37055
1.3718
1.3718
1.3718
1.37181
1.3729
1.3729
1.37291
1.3729
1.37307
1.37308
1.37309
1.37309
1.37404
1.37406
1.37407
1.37407
1.37531
1.37534
1.37536
1.37537
1.37559
1.37563
1.37566
1.37568
1.37785
1.37792
1.37795
1.37797
1.37739
1.37748
1.37753
1.37755
1.37637
1.37679
1.37687
1.37668
1.37108
1.37096
1.37092
1.37098
1.37195
1.37195
1.37195
1.37195
1.37303
1.37303
1.37303
1.37303
1.37292
1.37293
1.37293
1.37294
1.37374
1.37375
1.37375
1.37376
1.37472
1.37475
1.37476
1.37476
1.37473
1.37476
1.37477
1.37479
1.37678
1.37682
1.37685
1.37685
1.37599
1.37604
1.37608
1.37609
1.37509
1.37545
1.3755
1.37532
1.37149
1.37136
1.37133
1.37139
1.37206
1.37206
1.37206
1.37206
1.37319
1.37319
1.37318
1.37318
1.37282
1.37283
1.37283
1.37283
1.37355
1.37356
1.37356
1.37356
1.37431
1.37433
1.37434
1.37434
1.37411
1.37412
1.37414
1.37414
1.37604
1.37606
1.37608
1.37608
1.37494
1.37497
1.375
1.375
1.37426
1.37457
1.37461
1.37444
1.37189
1.37176
1.37173
1.37179
1.37212
1.37212
1.37212
1.37212
1.37335
1.37335
1.37335
1.37334
1.37275
1.37275
1.37275
1.37276
1.37344
1.37344
1.37344
1.37344
1.37402
1.37403
1.37403
1.37403
1.37367
1.37367
1.37368
1.37369
1.37554
1.37556
1.37557
1.37557
1.37414
1.37417
1.37419
1.37419
1.3738
1.37408
1.3741
1.37395
1.37232
1.3722
1.37216
1.37223
1.37211
1.3721
1.3721
1.37211
1.37352
1.37351
1.37351
1.37351
1.37268
1.37268
1.37268
1.37268
1.37334
1.37334
1.37334
1.37335
1.37378
1.37378
1.37379
1.37379
1.37335
1.37335
1.37335
1.37336
1.37523
1.37524
1.37524
1.37524
1.37352
1.37354
1.37355
1.37355
1.37369
1.37392
1.37394
1.3738
1.37292
1.37279
1.37277
1.37283
1.37199
1.37198
1.37198
1.37199
1.37366
1.37366
1.37365
1.37365
1.3726
1.3726
1.3726
1.3726
1.37325
1.37324
1.37324
1.37325
1.37355
1.37356
1.37356
1.37356
1.3731
1.3731
1.3731
1.3731
1.37499
1.375
1.375
1.375
1.37297
1.37298
1.37299
1.37299
1.37398
1.37416
1.37417
1.37406
1.37393
1.37381
1.37379
1.37385
1.37167
1.37167
1.37167
1.37168
1.37371
1.37371
1.3737
1.3737
1.37252
1.37252
1.37251
1.37252
1.37312
1.37312
1.37312
1.37312
1.37331
1.37332
1.37332
1.37332
1.3729
1.37289
1.37289
1.3729
1.37466
1.37468
1.37468
1.37468
1.37233
1.37234
1.37234
1.37235
1.37484
1.37497
1.37498
1.3749
1.37563
1.37553
1.37551
1.37557
1.37099
1.37098
1.37098
1.37098
1.37356
1.37356
1.37356
1.37356
1.37247
1.37246
1.37246
1.37246
1.37298
1.37298
1.37298
1.37299
1.37309
1.37309
1.37309
1.37309
1.37275
1.37274
1.37274
1.37274
1.37409
1.37411
1.37412
1.37411
1.37139
1.37138
1.37138
1.37139
1.37648
1.37657
1.37657
1.37653
1.37747
1.37742
1.37741
1.37746
1.37001
1.36996
1.36995
1.36995
1.37324
1.37325
1.37326
1.37326
1.3725
1.37249
1.37248
1.37248
1.37289
1.3729
1.3729
1.3729
1.37296
1.37296
1.37296
1.37296
1.37272
1.37271
1.37271
1.37271
1.37342
1.37345
1.37346
1.37344
1.37027
1.3702
1.37019
1.37024
1.37837
1.37842
1.37842
1.37838
1.42992
1.40547
1.38435
1.37011
1.36155
1.35626
1.35278
1.3504
1.34876
1.34757
1.44217
1.40924
1.38408
1.3693
1.36107
1.35603
1.35278
1.3506
1.34913
1.34809
1.44392
1.4074
1.37993
1.3667
1.35888
1.35409
1.35096
1.34886
1.34752
1.34675
1.44102
1.40379
1.37489
1.36403
1.35676
1.35251
1.34968
1.34781
1.34659
1.34587
1.43546
1.39916
1.37043
1.36141
1.35454
1.35083
1.34826
1.34661
1.34553
1.34498
1.42846
1.39551
1.36738
1.3602
1.35364
1.3505
1.34817
1.34673
1.34575
1.34517
1.41853
1.3907
1.36312
1.35779
1.3514
1.34883
1.34666
1.34541
1.34451
1.34405
1.41083
1.38882
1.36178
1.35829
1.35202
1.34997
1.34784
1.34665
1.34571
1.34506
1.39996
1.38297
1.35704
1.35563
1.34981
1.34834
1.34627
1.34516
1.34426
1.34363
1.39692
1.3831
1.35775
1.35691
1.35022
1.34808
1.34521
1.3435
1.34213
1.34099
1.37791
1.37515
1.37182
1.36846
1.36524
1.36233
1.35984
1.35776
1.35608
1.3548
1.39552
1.38757
1.38014
1.37379
1.36853
1.36438
1.36117
1.35868
1.35674
1.35529
1.4086
1.39558
1.38442
1.3757
1.36886
1.36378
1.36005
1.35727
1.35521
1.35385
1.41847
1.40092
1.38659
1.37637
1.36865
1.3632
1.35928
1.35642
1.3543
1.35286
1.42503
1.40422
1.38721
1.37609
1.36784
1.36227
1.3583
1.35546
1.35332
1.35193
1.43007
1.40721
1.38802
1.37648
1.36794
1.36243
1.35849
1.35569
1.35356
1.35207
1.43187
1.40794
1.38693
1.37532
1.36659
1.36122
1.35731
1.35456
1.35241
1.35097
1.43432
1.41033
1.38793
1.37663
1.36783
1.36264
1.35869
1.35589
1.35366
1.352
1.43194
1.40806
1.38532
1.37496
1.36644
1.36148
1.35748
1.35463
1.35236
1.35064
1.43236
1.40911
1.386
1.37568
1.3665
1.36092
1.3563
1.35293
1.35028
1.34807
1.37705
1.37502
1.37247
1.36988
1.36747
1.36531
1.36342
1.36182
1.36048
1.35945
1.38916
1.38464
1.37943
1.37478
1.37094
1.36781
1.36524
1.36313
1.3614
1.36006
1.40023
1.39237
1.38403
1.37716
1.3718
1.36765
1.36443
1.36192
1.35996
1.35859
1.41028
1.39874
1.38748
1.37888
1.37239
1.36756
1.3639
1.3611
1.35895
1.35742
1.419
1.40366
1.38965
1.37964
1.37228
1.36698
1.36305
1.36011
1.35783
1.35628
1.42733
1.40837
1.3919
1.38083
1.37283
1.36726
1.36318
1.36015
1.35782
1.35615
1.43307
1.4108
1.39211
1.3803
1.37181
1.3661
1.36191
1.35886
1.35646
1.35482
1.43949
1.41452
1.39411
1.38195
1.37315
1.36739
1.3631
1.35995
1.35748
1.35564
1.4406
1.4136
1.39262
1.38082
1.37209
1.36635
1.36193
1.35869
1.35615
1.35424
1.44177
1.41386
1.39256
1.38063
1.37138
1.36518
1.36032
1.35671
1.3539
1.35163
1.37059
1.37013
1.36933
1.36832
1.36722
1.3661
1.36502
1.36404
1.36318
1.36249
1.37861
1.37722
1.37529
1.3732
1.37115
1.36922
1.36747
1.36592
1.3646
1.36352
1.38637
1.38341
1.37965
1.37599
1.37267
1.3698
1.36736
1.36532
1.36365
1.36242
1.39448
1.38957
1.3838
1.37855
1.37404
1.37031
1.36728
1.36481
1.36282
1.36133
1.4022
1.39497
1.38705
1.38031
1.37474
1.37032
1.36682
1.36404
1.36181
1.36023
1.41028
1.40054
1.39046
1.38238
1.37592
1.37098
1.36713
1.36414
1.36176
1.36
1.41649
1.40411
1.39191
1.38268
1.37547
1.37012
1.36602
1.36288
1.36036
1.35858
1.4239
1.40903
1.39498
1.3849
1.37712
1.37148
1.36716
1.36386
1.36124
1.35927
1.42668
1.40979
1.39475
1.38435
1.3763
1.37047
1.36595
1.36252
1.35981
1.35778
1.42884
1.41038
1.3945
1.38357
1.37504
1.36884
1.364
1.36031
1.35742
1.3551
1.36915
1.36889
1.36847
1.36794
1.36735
1.36672
1.36609
1.36551
1.36498
1.36457
1.37494
1.37433
1.37339
1.37227
1.37107
1.36986
1.36872
1.36767
1.36673
1.36594
1.38005
1.3787
1.37682
1.37477
1.37274
1.37084
1.36911
1.36758
1.36627
1.36528
1.38593
1.38359
1.3805
1.37734
1.37436
1.3717
1.36937
1.36738
1.36569
1.36438
1.39196
1.38834
1.38383
1.37947
1.37554
1.37216
1.36929
1.36691
1.36491
1.36344
1.39876
1.39361
1.38755
1.382
1.37717
1.37316
1.36985
1.36715
1.36493
1.36323
1.40418
1.39727
1.38954
1.38285
1.3772
1.37265
1.36897
1.36602
1.36359
1.36182
1.41122
1.40251
1.3932
1.38552
1.37917
1.37418
1.37017
1.36699
1.36442
1.36244
1.41454
1.40425
1.39385
1.38548
1.37861
1.37326
1.36899
1.36565
1.36296
1.36092
1.4167
1.40489
1.39348
1.38445
1.3771
1.37141
1.36688
1.36332
1.36051
1.35824
1.36844
1.36831
1.36812
1.36786
1.36756
1.36722
1.36688
1.36655
1.36626
1.36604
1.37287
1.3726
1.37214
1.37155
1.37087
1.37017
1.36946
1.36879
1.36817
1.36764
1.37643
1.37583
1.3749
1.37378
1.37256
1.37134
1.37017
1.36909
1.36813
1.36738
1.3806
1.3795
1.37789
1.37605
1.37416
1.37233
1.37064
1.36911
1.36778
1.36671
1.38515
1.38337
1.38089
1.37819
1.37554
1.37308
1.37087
1.36893
1.36726
1.36599
1.3906
1.38795
1.38444
1.38082
1.3774
1.37433
1.37165
1.36935
1.36741
1.36588
1.39491
1.39119
1.38652
1.38194
1.37775
1.37411
1.371
1.36839
1.3662
1.36455
1.40109
1.3962
1.39034
1.38484
1.37994
1.37579
1.3723
1.36942
1.36705
1.36518
1.40424
1.39825
1.39137
1.38508
1.37956
1.37498
1.37119
1.36812
1.3656
1.36365
1.40577
1.39863
1.39087
1.38394
1.37797
1.37307
1.36904
1.36579
1.36317
1.36102
1.36842
1.36835
1.36825
1.36811
1.36795
1.36777
1.36758
1.36741
1.36725
1.36716
1.37193
1.37179
1.37154
1.37121
1.37083
1.37042
1.36999
1.36958
1.36919
1.36885
1.3746
1.37429
1.37378
1.37313
1.37239
1.37162
1.37084
1.37011
1.36944
1.36892
1.37756
1.377
1.3761
1.375
1.37379
1.37256
1.37137
1.37026
1.36927
1.36844
1.38097
1.38005
1.37863
1.37696
1.37519
1.37345
1.37181
1.37032
1.36899
1.36796
1.38524
1.38384
1.38179
1.37946
1.37709
1.37481
1.37273
1.37088
1.36927
1.36797
1.3885
1.38648
1.38366
1.3806
1.37758
1.37478
1.37227
1.3701
1.36821
1.36677
1.39372
1.39098
1.38733
1.38352
1.37986
1.37657
1.37368
1.37121
1.36913
1.36745
1.39629
1.39279
1.38832
1.38378
1.37956
1.37584
1.37265
1.36997
1.36772
1.36596
1.39704
1.3928
1.38767
1.38261
1.37798
1.37397
1.37056
1.36772
1.36537
1.36342
1.36868
1.36864
1.36859
1.36852
1.36843
1.36834
1.36823
1.36814
1.36806
1.36804
1.37152
1.37144
1.37131
1.37113
1.37092
1.37068
1.37043
1.37018
1.36995
1.36973
1.37359
1.37342
1.37313
1.37274
1.3723
1.37181
1.37132
1.37084
1.37039
1.37005
1.3757
1.37538
1.37486
1.37419
1.37342
1.37261
1.3718
1.37103
1.37032
1.36971
1.3783
1.37779
1.37695
1.3759
1.37472
1.37352
1.37234
1.37124
1.37024
1.36945
1.38167
1.38089
1.37966
1.37815
1.37652
1.37489
1.37333
1.37191
1.37064
1.36958
1.38405
1.38292
1.38119
1.37915
1.37702
1.37494
1.373
1.37126
1.36972
1.36851
1.38839
1.38683
1.38454
1.38194
1.37929
1.37678
1.37449
1.37247
1.37073
1.36928
1.3902
1.38814
1.38526
1.3821
1.37898
1.37609
1.37351
1.37129
1.36937
1.36783
1.39032
1.38781
1.38448
1.38091
1.37746
1.37432
1.37154
1.36916
1.36715
1.36545
1.36909
1.36906
1.36903
1.36899
1.36895
1.3689
1.36884
1.36879
1.36876
1.36878
1.37142
1.37138
1.37131
1.37122
1.3711
1.37096
1.37082
1.37067
1.37053
1.3704
1.37307
1.37297
1.3728
1.37258
1.37231
1.37201
1.3717
1.37139
1.37111
1.37089
1.37452
1.37434
1.37403
1.37362
1.37314
1.37261
1.37208
1.37155
1.37106
1.37063
1.37653
1.37623
1.37572
1.37505
1.37428
1.37346
1.37265
1.37186
1.37113
1.37055
1.3792
1.37874
1.37798
1.377
1.3759
1.37475
1.37363
1.37257
1.37161
1.37079
1.3809
1.38022
1.37914
1.37779
1.3763
1.3748
1.37335
1.37202
1.37081
1.36984
1.3845
1.38358
1.38213
1.38037
1.3785
1.37664
1.37489
1.37331
1.37191
1.37072
1.38557
1.38435
1.3825
1.38035
1.37811
1.37595
1.37394
1.37216
1.37058
1.3693
1.38526
1.38376
1.38162
1.37917
1.37667