/*--------------------------------*- C++ -*----------------------------------*\
| =========                 |                                                 |
| \\      /  F ield         | foam-extend: Open Source CFD                    |
|  \\    /   O peration     | Version:     4.0                                |
|   \\  /    A nd           | Web:         http://www.foam-extend.org         |
|    \\/     M anipulation  |                                                 |
\*---------------------------------------------------------------------------*/
FoamFile
{
    version     2.0;
    format      ascii;
    class       volVectorField;
    location    "1100";
    object      Urel;
}
// * * * * * * * * * * * * * * * * * * * * * * * * * * * * * * * * * * * * * //

dimensions      [0 1 -1 0 0 0 0];

internalField   nonuniform List<vector> 
34480
(
(208.831 -9.81104 -19.0848)
(209.154 -9.30886 -21.5444)
(209.312 -8.58155 -23.9682)
(209.32 -7.65535 -26.3996)
(209.172 -6.56867 -28.9764)
(208.832 -5.32452 -31.8745)
(208.22 -3.90316 -35.4937)
(207.057 -2.18851 -40.178)
(204.387 0.0480061 -48.0943)
(197.438 4.25351 -75.2445)
(209.703 -12.8418 -26.7893)
(209.971 -11.7113 -29.5694)
(210.103 -10.4255 -32.2267)
(210.08 -8.9995 -34.828)
(209.849 -7.46965 -37.49)
(209.351 -5.8564 -40.4209)
(208.55 -4.17922 -44.0796)
(207.263 -2.38474 -49.2073)
(204.129 -0.31129 -58.0223)
(195.967 3.64325 -88.5748)
(210.327 -17.1327 -33.7232)
(210.573 -15.5766 -36.8014)
(210.676 -13.8429 -39.7432)
(210.614 -11.9276 -42.5618)
(210.329 -9.88644 -45.3847)
(209.813 -7.75409 -48.4702)
(209.073 -5.55771 -52.3455)
(207.94 -3.22776 -58.038)
(204.65 -0.597511 -67.734)
(195.453 4.10407 -101.241)
(210.297 -20.5181 -41.134)
(210.544 -18.4311 -44.5072)
(210.664 -16.1688 -47.6878)
(210.638 -13.7147 -50.7079)
(210.417 -11.125 -53.7024)
(210.017 -8.43718 -56.9588)
(209.414 -5.68292 -61.0069)
(208.448 -2.78402 -67.0943)
(205.137 0.431795 -77.4149)
(195.151 5.81846 -112.837)
(210.418 -24.9858 -47.9948)
(210.696 -22.4898 -51.6468)
(210.856 -19.7812 -55.114)
(210.893 -16.8427 -58.3838)
(210.765 -13.7497 -61.6158)
(210.501 -10.5393 -65.1095)
(210.048 -7.23778 -69.3917)
(209.269 -3.75586 -75.8981)
(206.062 0.0854964 -86.8873)
(195.445 6.17503 -123.837)
(210.271 -28.2338 -55.5904)
(210.561 -25.2395 -59.4806)
(210.742 -22.0178 -63.1169)
(210.814 -18.5488 -66.5304)
(210.753 -14.8991 -69.8732)
(210.607 -11.1113 -73.4692)
(210.309 -7.21358 -77.8293)
(209.748 -3.11998 -84.5622)
(206.794 1.36849 -96.0374)
(195.789 8.09637 -134.143)
(210.324 -33.0096 -62.4498)
(210.654 -29.6272 -66.5813)
(210.864 -25.9822 -70.4676)
(210.975 -22.0636 -74.0874)
(210.973 -17.9464 -77.6217)
(210.925 -13.6668 -81.396)
(210.77 -9.22914 -85.9252)
(210.43 -4.53053 -92.941)
(207.813 0.69951 -104.995)
(196.524 8.26077 -144.1)
(210.132 -36.1785 -70.2962)
(210.467 -32.3249 -74.6362)
(210.656 -28.1624 -78.6515)
(210.725 -23.7056 -82.3803)
(210.682 -19.008 -85.967)
(210.616 -14.1267 -89.7418)
(210.508 -9.05845 -94.2038)
(210.329 -3.697 -101.175)
(208.128 2.37995 -113.419)
(196.882 10.8474 -153.032)
(210.058 -41.4357 -77.1235)
(210.44 -37.2158 -81.6508)
(210.66 -32.6787 -85.8508)
(210.766 -27.8624 -89.7314)
(210.773 -22.8225 -93.4779)
(210.751 -17.589 -97.3963)
(210.714 -12.1055 -102.022)
(210.681 -6.21964 -109.146)
(208.817 0.787039 -121.763)
(197.464 10.7454 -161.319)
(209.09 -44.6317 -85.0868)
(209.382 -40.031 -89.895)
(209.343 -34.9931 -94.2977)
(208.997 -29.6381 -98.3625)
(208.392 -23.9799 -102.216)
(207.625 -18.0599 -106.139)
(206.781 -11.8132 -110.605)
(206.032 -5.04918 -117.22)
(204.147 2.96535 -128.987)
(194.045 14.3113 -166.613)
(205.697 1.89606 3.00704)
(206.177 1.09474 1.55258)
(206.366 0.41312 0.000767424)
(206.283 -0.129608 -1.59803)
(205.906 -0.557355 -3.30667)
(205.147 -0.870903 -5.13808)
(203.803 -1.07421 -7.14601)
(201.441 -1.17881 -9.3058)
(197.979 -1.26256 -11.2359)
(193.4 -1.16274 -14.3856)
(206.937 2.83191 2.81652)
(207.377 2.12983 1.18352)
(207.553 1.48837 -0.468537)
(207.468 0.916076 -2.16433)
(207.06 0.392211 -3.97069)
(206.21 -0.0897797 -5.94621)
(204.721 -0.54551 -8.18384)
(202.141 -1.01064 -10.9352)
(197.975 -1.60151 -13.9866)
(192.288 -1.8394 -20.5666)
(207.827 2.54578 3.32818)
(208.247 1.74343 1.57156)
(208.412 1.02163 -0.225556)
(208.32 0.403152 -2.05602)
(207.892 -0.150109 -3.99336)
(207.028 -0.651283 -6.1226)
(205.554 -1.12998 -8.63256)
(202.987 -1.6033 -12.0557)
(198.452 -2.17857 -16.3073)
(191.844 -2.09309 -26.7041)
(208.037 3.15488 3.32598)
(208.463 2.38452 1.48399)
(208.651 1.68004 -0.370452)
(208.603 1.07667 -2.26052)
(208.241 0.536876 -4.27076)
(207.481 0.0484263 -6.52925)
(206.122 -0.421941 -9.26133)
(203.65 -0.867846 -13.225)
(198.891 -1.38176 -18.4486)
(191.48 -0.953411 -32.4469)
(208.357 2.65374 3.86198)
(208.81 1.79831 1.96369)
(209.039 1.03519 0.0127267)
(209.057 0.403557 -1.97187)
(208.788 -0.150691 -4.10611)
(208.166 -0.639387 -6.54575)
(206.959 -1.09745 -9.53241)
(204.653 -1.49636 -14.0275)
(199.819 -1.91528 -20.2013)
(191.71 -1.08705 -37.6922)
(208.363 3.38476 3.65905)
(208.833 2.53561 1.74777)
(209.088 1.78043 -0.174264)
(209.149 1.16177 -2.13945)
(208.954 0.634019 -4.25799)
(208.461 0.182475 -6.73195)
(207.421 -0.224178 -9.80247)
(205.339 -0.549401 -14.6255)
(200.598 -0.835337 -21.5172)
(191.972 0.359563 -42.2162)
(208.543 2.56476 4.18421)
(209.048 1.61585 2.26374)
(209.335 0.78762 0.289634)
(209.442 0.11618 -1.715)
(209.315 -0.447896 -3.89671)
(208.938 -0.916524 -6.47376)
(208.063 -1.30632 -9.70097)
(206.229 -1.56491 -14.8777)
(201.7 -1.65442 -22.5346)
(192.659 0.0051342 -46.2558)
(208.44 3.37362 3.72088)
(208.954 2.41049 1.82948)
(209.23 1.59983 -0.0587839)
(209.31 0.953203 -1.99085)
(209.167 0.444652 -4.08171)
(208.812 0.0421005 -6.58008)
(208.033 -0.25718 -9.73563)
(206.423 -0.410273 -14.9618)
(202.229 -0.199157 -23.0168)
(193.068 1.84736 -49.2309)
(208.434 2.0616 4.27201)
(208.982 0.983804 2.42868)
(209.286 0.0725157 0.554828)
(209.403 -0.682373 -1.3454)
(209.317 -1.31133 -3.443)
(209.036 -1.82708 -5.98729)
(208.38 -2.18154 -9.28732)
(207.002 -2.31201 -14.7463)
(203.156 -1.73061 -23.4498)
(193.75 1.01871 -51.5118)
(207.508 2.87504 3.66228)
(208 1.70316 1.81521)
(208.129 0.805384 -0.00720349)
(207.928 0.076315 -1.87448)
(207.413 -0.465908 -3.89322)
(206.622 -0.847713 -6.31111)
(205.446 -1.00623 -9.42175)
(203.677 -0.826325 -14.5166)
(199.984 0.227585 -22.9998)
(191.407 4.0469 -51.3609)
(203.302 1.41343 2.34122)
(203.807 0.819869 1.22459)
(203.99 0.289878 -0.00377955)
(203.886 -0.143564 -1.25337)
(203.487 -0.493219 -2.54422)
(202.742 -0.75672 -3.82234)
(201.559 -0.943726 -5.0399)
(199.785 -1.07983 -6.04744)
(197.232 -1.25043 -6.49368)
(194.008 -1.4385 -6.51487)
(204.642 2.38203 2.33024)
(205.145 1.84132 0.965238)
(205.329 1.3177 -0.428577)
(205.21 0.829517 -1.8453)
(204.749 0.367099 -3.31086)
(203.865 -0.0752334 -4.8284)
(202.395 -0.511108 -6.36152)
(200.069 -0.972794 -7.84757)
(196.444 -1.57202 -8.79089)
(191.593 -2.15198 -9.80614)
(205.627 2.18379 2.96686)
(206.135 1.50346 1.41848)
(206.322 0.869329 -0.1826)
(206.204 0.308987 -1.81007)
(205.724 -0.209087 -3.5096)
(204.779 -0.695243 -5.29881)
(203.171 -1.17454 -7.18766)
(200.533 -1.6777 -9.26945)
(196.035 -2.34954 -10.9869)
(189.592 -2.9287 -13.582)
(205.994 2.87632 3.01382)
(206.525 2.20318 1.34193)
(206.739 1.56643 -0.353106)
(206.657 1.00394 -2.08218)
(206.216 0.483215 -3.90838)
(205.311 -0.00592866 -5.89127)
(203.689 -0.495691 -8.07673)
(200.886 -1.00437 -10.7158)
(195.656 -1.69411 -13.1838)
(187.727 -2.18098 -17.562)
(206.466 2.41323 3.58922)
(207.03 1.64042 1.8294)
(207.282 0.93467 0.00858625)
(207.258 0.336403 -1.84658)
(206.888 -0.203679 -3.83639)
(206.073 -0.694551 -6.05295)
(204.512 -1.17188 -8.57097)
(201.667 -1.64207 -11.8057)
(195.893 -2.29456 -15.113)
(186.651 -2.58738 -21.5815)
(206.606 3.1926 3.4113)
(207.19 2.4125 1.61806)
(207.47 1.70534 -0.194369)
(207.488 1.11378 -2.0536)
(207.181 0.59436 -4.0589)
(206.465 0.134509 -6.35357)
(205.006 -0.301432 -9.03042)
(202.222 -0.714126 -12.6879)
(196.105 -1.27865 -16.6983)
(185.778 -1.34214 -25.3507)
(206.902 2.3885 3.96005)
(207.518 1.50297 2.13974)
(207.827 0.721849 0.258073)
(207.892 0.0811402 -1.65955)
(207.648 -0.466754 -3.75198)
(207.032 -0.930417 -6.18591)
(205.694 -1.33246 -9.08676)
(203.034 -1.66399 -13.2029)
(196.746 -2.06501 -18.0095)
(185.497 -1.79359 -28.9795)
(206.893 3.23518 3.50133)
(207.517 2.33344 1.70688)
(207.821 1.56773 -0.0913038)
(207.868 0.951353 -1.94061)
(207.617 0.458201 -3.95127)
(207.03 0.06205 -6.33119)
(205.779 -0.249898 -9.22364)
(203.275 -0.479177 -13.5227)
(197.008 -0.611355 -18.8527)
(185.103 -0.0568806 -31.9)
(206.968 1.90908 4.05668)
(207.613 0.893454 2.29903)
(207.938 0.0410367 0.49871)
(208.014 -0.654334 -1.33281)
(207.805 -1.22443 -3.35496)
(207.281 -1.67974 -5.77869)
(206.143 -1.98469 -8.83787)
(203.837 -2.11765 -13.4807)
(197.712 -1.84998 -19.6212)
(185.027 -0.784247 -34.2935)
(206.107 2.7795 3.41468)
(206.7 1.68573 1.6868)
(206.896 0.858891 -0.0277591)
(206.735 0.195064 -1.79678)
(206.211 -0.286282 -3.71641)
(205.316 -0.608488 -6.00202)
(203.821 -0.720459 -8.88379)
(201.281 -0.54209 -13.2712)
(195.297 0.222843 -19.5265)
(182.561 2.30986 -34.7258)
(201.545 0.936277 1.7087)
(201.984 0.535319 0.919121)
(202.136 0.153945 0.0161423)
(202.038 -0.169035 -0.888175)
(201.69 -0.439152 -1.79204)
(201.076 -0.651204 -2.61419)
(200.167 -0.817333 -3.28965)
(198.934 -0.961129 -3.68311)
(197.375 -1.13803 -3.57881)
(195.637 -1.37278 -2.75426)
(202.816 1.87995 1.80663)
(203.291 1.50557 0.734599)
(203.458 1.11045 -0.370855)
(203.33 0.71923 -1.48063)
(202.885 0.333477 -2.58586)
(202.078 -0.0498568 -3.65646)
(200.832 -0.441647 -4.61647)
(199.039 -0.864796 -5.33796)
(196.569 -1.38771 -5.39806)
(193.755 -1.95249 -4.62152)
(203.762 1.73599 2.52011)
(204.281 1.19823 1.22548)
(204.463 0.671704 -0.129446)
(204.326 0.188605 -1.49575)
(203.833 -0.274044 -2.88963)
(202.91 -0.724831 -4.2919)
(201.425 -1.18331 -5.63623)
(199.18 -1.67622 -6.83176)
(195.825 -2.30967 -7.29169)
(191.737 -3.00429 -6.92756)
(204.197 2.50928 2.60405)
(204.761 1.9577 1.15176)
(204.973 1.40972 -0.331763)
(204.858 0.907235 -1.83694)
(204.365 0.425938 -3.3987)
(203.407 -0.0437505 -5.03226)
(201.788 -0.531125 -6.6918)
(199.207 -1.0594 -8.36294)
(194.993 -1.76834 -9.28467)
(189.527 -2.53531 -9.54783)
(204.757 2.09011 3.22012)
(205.366 1.42429 1.64544)
(205.614 0.795635 0.00338414)
(205.542 0.247058 -1.66226)
(205.085 -0.262885 -3.42523)
(204.153 -0.742473 -5.33037)
(202.486 -1.22472 -7.3585)
(199.692 -1.72919 -9.59378)
(194.729 -2.44665 -11.1315)
(187.928 -3.18681 -12.3807)
(204.992 2.92318 3.07112)
(205.629 2.23564 1.439)
(205.906 1.59484 -0.220073)
(205.867 1.04554 -1.9182)
(205.452 0.54997 -3.73151)
(204.569 0.0955066 -5.75329)
(202.912 -0.355677 -7.98681)
(200.013 -0.823173 -10.6506)
(194.448 -1.50626 -12.7336)
(186.444 -2.16642 -15.1544)
(205.375 2.14469 3.64921)
(206.046 1.34395 1.96753)
(206.35 0.625706 0.217421)
(206.352 0.0274973 -1.5637)
(205.985 -0.49394 -3.49347)
(205.168 -0.946586 -5.68946)
(203.56 -1.35704 -8.19521)
(200.635 -1.7384 -11.3478)
(194.616 -2.29545 -14.1155)
(185.526 -2.7679 -17.9743)
(205.448 3.04168 3.20158)
(206.127 2.22065 1.53857)
(206.429 1.51318 -0.13626)
(206.42 0.936937 -1.86122)
(206.047 0.467424 -3.72779)
(205.248 0.0825168 -5.89681)
(203.681 -0.23976 -8.43931)
(200.798 -0.52739 -11.8351)
(194.525 -0.871792 -15.1015)
(184.553 -1.18254 -20.3481)
(205.592 1.71344 3.78543)
(206.283 0.776557 2.14482)
(206.602 -0.0105466 0.446893)
(206.618 -0.646754 -1.28289)
(206.279 -1.16326 -3.18236)
(205.524 -1.56744 -5.40831)
(204.016 -1.83851 -8.11381)
(201.228 -1.98715 -11.8663)
(194.889 -1.93772 -15.9779)
(183.946 -1.88614 -22.4148)
(204.799 2.6567 3.12217)
(205.443 1.65329 1.53517)
(205.671 0.90048 -0.053753)
(205.517 0.300533 -1.70232)
(204.959 -0.125251 -3.48896)
(203.95 -0.39721 -5.58303)
(202.203 -0.476628 -8.13724)
(199.227 -0.312253 -11.7023)
(192.912 0.233097 -16.05)
(181.484 1.21035 -22.8991)
(200.315 0.539883 1.20068)
(200.659 0.283882 0.673153)
(200.774 0.0234497 0.0428461)
(200.699 -0.205597 -0.576388)
(200.441 -0.406634 -1.18129)
(200.004 -0.572096 -1.69235)
(199.393 -0.711493 -2.06282)
(198.631 -0.840045 -2.20278)
(197.765 -0.984295 -2.02031)
(196.906 -1.15036 -1.43146)
(201.425 1.41169 1.32479)
(201.825 1.17786 0.524212)
(201.966 0.900105 -0.307434)
(201.855 0.602818 -1.13262)
(201.484 0.295499 -1.92399)
(200.838 -0.0208031 -2.63873)
(199.895 -0.35078 -3.20275)
(198.648 -0.70457 -3.50799)
(197.119 -1.11056 -3.32673)
(195.603 -1.52513 -2.52276)
(202.239 1.27342 2.06479)
(202.717 0.872832 1.03166)
(202.884 0.45561 -0.0662446)
(202.755 0.0556562 -1.16322)
(202.307 -0.341376 -2.25084)
(201.503 -0.740294 -3.28818)
(200.275 -1.15432 -4.19082)
(198.559 -1.60132 -4.82921)
(196.271 -2.13675 -4.81055)
(193.869 -2.70304 -3.93385)
(202.658 2.10375 2.16277)
(203.208 1.6797 0.951878)
(203.41 1.22894 -0.297222)
(203.286 0.796411 -1.55531)
(202.802 0.36762 -2.8282)
(201.899 -0.0641448 -4.09702)
(200.454 -0.523159 -5.27958)
(198.325 -1.02918 -6.26098)
(195.234 -1.67055 -6.46331)
(191.757 -2.37425 -5.61705)
(203.236 1.72058 2.80879)
(203.848 1.17347 1.44744)
(204.087 0.632951 0.0123119)
(203.99 0.144558 -1.43396)
(203.507 -0.323074 -2.93319)
(202.565 -0.776165 -4.48732)
(200.982 -1.24314 -6.02847)
(198.531 -1.74651 -7.48185)
(194.668 -2.42813 -8.08344)
(190.047 -3.1958 -7.54759)
(203.515 2.60275 2.68512)
(204.17 2.0224 1.24409)
(204.439 1.46 -0.232256)
(204.366 0.963255 -1.73702)
(203.897 0.502941 -3.31534)
(202.95 0.0678086 -5.00953)
(201.289 -0.379598 -6.76704)
(198.612 -0.866324 -8.59515)
(194.056 -1.55695 -9.55823)
(188.314 -2.35109 -9.47774)
(203.947 1.85296 3.29122)
(204.642 1.15271 1.77805)
(204.939 0.508924 0.188396)
(204.899 -0.0379764 -1.42402)
(204.458 -0.524236 -3.14624)
(203.536 -0.956966 -5.04136)
(201.846 -1.36492 -7.09293)
(199.022 -1.77298 -9.38504)
(193.871 -2.37396 -10.8769)
(187.049 -3.09328 -11.5251)
(204.077 2.80629 2.85638)
(204.785 2.08151 1.35182)
(205.084 1.44336 -0.173694)
(205.037 0.915598 -1.74504)
(204.587 0.477828 -3.42608)
(203.663 0.111591 -5.32148)
(201.959 -0.211784 -7.43796)
(199.066 -0.535216 -9.97782)
(193.494 -0.983064 -11.8653)
(185.715 -1.64697 -13.2734)
(204.275 1.4794 3.47537)
(204.993 0.635941 1.97715)
(205.305 -0.0786308 0.406377)
(205.277 -0.653731 -1.19374)
(204.852 -1.11808 -2.93444)
(203.956 -1.47644 -4.9137)
(202.268 -1.72066 -7.20363)
(199.356 -1.88298 -10.0609)
(193.544 -1.97325 -12.6839)
(184.72 -2.38397 -14.8517)
(203.543 2.50906 2.79166)
(204.217 1.60653 1.36262)
(204.468 0.931759 -0.0843622)
(204.321 0.395964 -1.59225)
(203.744 0.023081 -3.21738)
(202.673 -0.204308 -5.07833)
(200.82 -0.259742 -7.25066)
(197.742 -0.115264 -9.98601)
(191.831 0.264364 -12.8117)
(182.304 0.64767 -15.1655)
(199.464 0.241964 0.831262)
(199.719 0.0834544 0.494739)
(199.801 -0.0889826 0.0696394)
(199.75 -0.2458 -0.337298)
(199.575 -0.391239 -0.730751)
(199.288 -0.516375 -1.04293)
(198.904 -0.627429 -1.24864)
(198.452 -0.731944 -1.29347)
(197.974 -0.840705 -1.14483)
(197.511 -0.951987 -0.780262)
(200.399 1.02209 0.922475)
(200.708 0.893078 0.348367)
(200.818 0.711344 -0.249039)
(200.733 0.496476 -0.835117)
(200.451 0.262124 -1.37772)
(199.974 0.0123566 -1.83629)
(199.31 -0.251718 -2.15351)
(198.488 -0.530941 -2.25681)
(197.571 -0.83035 -2.039)
(196.746 -1.11658 -1.4369)
(201.045 0.846843 1.64818)
(201.449 0.561343 0.855151)
(201.592 0.243113 -0.0020228)
(201.483 -0.076394 -0.850937)
(201.11 -0.404994 -1.66889)
(200.46 -0.743292 -2.40766)
(199.518 -1.09783 -2.991)
(198.287 -1.47761 -3.31083)
(196.806 -1.90468 -3.14465)
(195.404 -2.33161 -2.35501)
(201.396 1.70226 1.73237)
(201.891 1.39575 0.759347)
(202.072 1.04034 -0.255049)
(201.955 0.68092 -1.26893)
(201.519 0.311821 -2.26664)
(200.733 -0.0694624 -3.20909)
(199.539 -0.479728 -4.00936)
(197.899 -0.931837 -4.54055)
(195.761 -1.47222 -4.4378)
(193.609 -2.04285 -3.44927)
(201.937 1.33783 2.38945)
(202.511 0.907801 1.24985)
(202.73 0.458558 0.0328021)
(202.625 0.0362696 -1.18495)
(202.159 -0.380337 -2.41758)
(201.285 -0.794101 -3.63588)
(199.896 -1.22659 -4.75327)
(197.895 -1.69747 -5.6417)
(195.073 -2.29704 -5.77548)
(192.059 -2.96138 -4.77834)
(202.216 2.25589 2.28072)
(202.848 1.78678 1.04595)
(203.1 1.30885 -0.230815)
(203.008 0.871626 -1.52568)
(202.529 0.455194 -2.85466)
(201.603 0.0512796 -4.21789)
(200.069 -0.373004 -5.53251)
(197.774 -0.844616 -6.70679)
(194.292 -1.47981 -7.04877)
(190.369 -2.22308 -6.11168)
(202.662 1.53144 2.90763)
(203.345 0.939318 1.58184)
(203.626 0.377272 0.172649)
(203.557 -0.111685 -1.2505)
(203.084 -0.555511 -2.7435)
(202.14 -0.959389 -4.3209)
(200.512 -1.35087 -5.92503)
(197.987 -1.75944 -7.4987)
(193.893 -2.33729 -8.22799)
(189.039 -3.06853 -7.57874)
(202.821 2.54158 2.48289)
(203.525 1.92247 1.1555)
(203.813 1.36153 -0.201206)
(203.738 0.888887 -1.59773)
(203.25 0.489611 -3.0689)
(202.28 0.149325 -4.66711)
(200.588 -0.162627 -6.34745)
(197.908 -0.494212 -8.13399)
(193.329 -0.966314 -9.13846)
(187.596 -1.70927 -8.81792)
(203.057 1.2151 3.13858)
(203.772 0.475016 1.80144)
(204.071 -0.161547 0.377771)
(204.01 -0.673864 -1.07031)
(203.535 -1.08686 -2.6263)
(202.574 -1.4027 -4.33473)
(200.859 -1.62262 -6.20421)
(198.078 -1.78842 -8.27208)
(193.166 -1.95091 -9.83776)
(186.459 -2.50558 -9.94417)
(202.375 2.34283 2.43299)
(203.052 1.54856 1.17427)
(203.311 0.954913 -0.11736)
(203.169 0.483542 -1.46781)
(202.59 0.161285 -2.90979)
(201.506 -0.0266273 -4.51394)
(199.668 -0.0645332 -6.29136)
(196.727 0.0587417 -8.28928)
(191.64 0.317487 -9.98942)
(184.216 0.418582 -10.113)
(198.872 0.0338283 0.582235)
(199.058 -0.0649186 0.375359)
(199.114 -0.178639 0.0927335)
(199.083 -0.28401 -0.16809)
(198.972 -0.387444 -0.422044)
(198.795 -0.47958 -0.614044)
(198.565 -0.564252 -0.735229)
(198.306 -0.643793 -0.752914)
(198.043 -0.721248 -0.659787)
(197.775 -0.792282 -0.454441)
(199.657 0.72646 0.608852)
(199.88 0.668279 0.209768)
(199.962 0.558785 -0.202411)
(199.901 0.41088 -0.602175)
(199.702 0.239561 -0.960501)
(199.372 0.0504062 -1.24563)
(198.929 -0.15135 -1.41866)
(198.408 -0.361578 -1.43661)
(197.865 -0.575235 -1.25429)
(197.409 -0.765567 -0.856308)
(200.133 0.485041 1.29419)
(200.453 0.286637 0.704466)
(200.568 0.0508116 0.0557613)
(200.482 -0.196632 -0.58177)
(200.192 -0.459631 -1.18065)
(199.701 -0.735528 -1.69562)
(199.015 -1.02555 -2.06727)
(198.17 -1.33121 -2.22157)
(197.234 -1.65594 -2.04526)
(196.415 -1.96236 -1.48149)
(200.393 1.3359 1.34033)
(200.811 1.12759 0.58414)
(200.965 0.858314 -0.212049)
(200.864 0.569638 -1.00202)
(200.498 0.262366 -1.75837)
(199.856 -0.0620085 -2.43511)
(198.925 -0.41222 -2.95647)
(197.721 -0.793497 -3.21883)
(196.289 -1.22413 -3.01619)
(194.964 -1.65838 -2.20256)
(200.861 0.970189 1.98773)
(201.368 0.645678 1.06202)
(201.561 0.284068 0.0593349)
(201.461 -0.0706535 -0.936839)
(201.043 -0.431136 -1.92125)
(200.285 -0.796477 -2.84818)
(199.136 -1.18056 -3.63206)
(197.583 -1.59689 -4.14682)
(195.6 -2.0954 -4.06911)
(193.657 -2.62562 -3.1297)
(201.108 1.90589 1.88039)
(201.685 1.54288 0.8532)
(201.913 1.14967 -0.219429)
(201.816 0.775474 -1.30163)
(201.363 0.408902 -2.38689)
(200.518 0.0454007 -3.44761)
(199.188 -0.340381 -4.39194)
(197.321 -0.770107 -5.09817)
(194.769 -1.31603 -5.10966)
(192.138 -1.94174 -4.0449)
(201.538 1.1989 2.51718)
(202.178 0.714589 1.38626)
(202.435 0.236868 0.167759)
(202.352 -0.190113 -1.05675)
(201.884 -0.586021 -2.31641)
(200.986 -0.953357 -3.59048)
(199.518 -1.31554 -4.80065)
(197.381 -1.70048 -5.82536)
(194.271 -2.21601 -6.10479)
(190.898 -2.85879 -5.09032)
(201.701 2.26167 2.09685)
(202.37 1.75092 0.956205)
(202.639 1.27121 -0.219896)
(202.548 0.858067 -1.42919)
(202.057 0.502332 -2.68043)
(201.111 0.193758 -3.98519)
(199.541 -0.0962835 -5.26726)
(197.199 -0.411502 -6.45125)
(193.616 -0.852003 -6.88989)
(189.511 -1.53322 -5.94401)
(201.957 0.931015 2.78819)
(202.643 0.298586 1.62297)
(202.922 -0.257058 0.359984)
(202.841 -0.705901 -0.92114)
(202.353 -1.0684 -2.27817)
(201.395 -1.34428 -3.71282)
(199.771 -1.54082 -5.19164)
(197.279 -1.70039 -6.62693)
(193.34 -1.88357 -7.4721)
(188.421 -2.41202 -6.72541)
(201.313 2.1661 2.05757)
(201.966 1.48354 0.975496)
(202.222 0.972528 -0.151676)
(202.086 0.565332 -1.33315)
(201.525 0.291469 -2.57924)
(200.478 0.138441 -3.92052)
(198.752 0.113185 -5.32121)
(196.106 0.215727 -6.71168)
(191.954 0.388063 -7.62391)
(186.422 0.37725 -6.80676)
(198.45 -0.105485 0.423053)
(198.589 -0.169794 0.300433)
(198.627 -0.246708 0.111304)
(198.608 -0.317382 -0.0543549)
(198.542 -0.390585 -0.220371)
(198.437 -0.457174 -0.341741)
(198.303 -0.519688 -0.419867)
(198.157 -0.577768 -0.433631)
(198.009 -0.631245 -0.385002)
(197.836 -0.675654 -0.276024)
(199.122 0.520089 0.37539)
(199.275 0.506357 0.104393)
(199.333 0.447876 -0.169717)
(199.293 0.351202 -0.432266)
(199.16 0.231091 -0.660454)
(198.942 0.0934714 -0.832131)
(198.659 -0.0545291 -0.92302)
(198.336 -0.20678 -0.909252)
(198.014 -0.355342 -0.774019)
(197.754 -0.479811 -0.518116)
(199.448 0.198195 1.00995)
(199.687 0.0604865 0.582268)
(199.775 -0.111103 0.103428)
(199.713 -0.297854 -0.364284)
(199.5 -0.502049 -0.79475)
(199.146 -0.719355 -1.15072)
(198.669 -0.947658 -1.38965)
(198.106 -1.18369 -1.46581)
(197.52 -1.42232 -1.32465)
(197.036 -1.63528 -0.953346)
(199.617 1.02352 1.0021)
(199.95 0.890869 0.432066)
(200.076 0.694378 -0.172945)
(199.995 0.470005 -0.769152)
(199.705 0.222443 -1.32559)
(199.208 -0.043985 -1.79861)
(198.514 -0.331272 -2.12909)
(197.66 -0.638728 -2.24306)
(196.718 -0.968118 -2.0328)
(195.902 -1.28482 -1.43162)
(199.994 0.639221 1.62239)
(200.42 0.402907 0.890923)
(200.582 0.120314 0.087173)
(200.494 -0.169373 -0.706007)
(200.142 -0.472337 -1.47238)
(199.52 -0.784482 -2.16189)
(198.615 -1.11299 -2.70077)
(197.455 -1.46437 -2.98695)
(196.093 -1.86131 -2.83536)
(194.848 -2.26367 -2.09386)
(200.188 1.57317 1.5034)
(200.692 1.30422 0.673354)
(200.889 0.990962 -0.201792)
(200.797 0.679789 -1.08025)
(200.395 0.366149 -1.94095)
(199.666 0.0490408 -2.74259)
(198.57 -0.28847 -3.3991)
(197.113 -0.660718 -3.79626)
(195.294 -1.10566 -3.6522)
(193.549 -1.59913 -2.7235)
(200.584 0.873731 2.13769)
(201.157 0.490054 1.1982)
(201.385 0.0947167 0.170765)
(201.298 -0.269149 -0.856363)
(200.866 -0.613852 -1.89216)
(200.059 -0.939021 -2.89514)
(198.803 -1.26256 -3.7834)
(197.072 -1.60671 -4.42179)
(194.784 -2.04108 -4.45395)
(192.475 -2.56224 -3.47058)
(200.727 1.98153 1.71454)
(201.338 1.57536 0.760745)
(201.581 1.17689 -0.231377)
(201.484 0.825049 -1.25027)
(201.02 0.515978 -2.28411)
(200.15 0.243244 -3.31719)
(198.769 -0.0172867 -4.26104)
(196.816 -0.300444 -5.00255)
(194.111 -0.678746 -5.09752)
(191.23 -1.2371 -4.0462)
(200.992 0.638937 2.43871)
(201.626 0.11268 1.44773)
(201.879 -0.36213 0.351714)
(201.789 -0.748216 -0.755832)
(201.317 -1.06152 -1.9111)
(200.418 -1.29955 -3.08578)
(198.96 -1.47278 -4.22368)
(196.838 -1.61917 -5.18501)
(193.798 -1.79332 -5.57447)
(190.29 -2.22673 -4.59346)
(200.373 1.98837 1.67812)
(200.979 1.41669 0.772417)
(201.221 0.987717 -0.186577)
(201.093 0.643469 -1.19386)
(200.569 0.415466 -2.24066)
(199.601 0.293098 -3.32795)
(198.054 0.276907 -4.39099)
(195.785 0.360468 -5.31078)
(192.531 0.471684 -5.70432)
(188.552 0.428271 -4.61205)
(198.139 -0.197537 0.325898)
(198.247 -0.242845 0.256389)
(198.273 -0.297815 0.126031)
(198.263 -0.346046 0.0198032)
(198.224 -0.398366 -0.0926159)
(198.163 -0.44617 -0.17338)
(198.087 -0.491477 -0.229624)
(198.005 -0.532861 -0.246238)
(197.92 -0.569104 -0.228093)
(197.795 -0.596421 -0.176081)
(198.733 0.38883 0.206002)
(198.835 0.401486 0.0251161)
(198.875 0.37735 -0.150538)
(198.85 0.318077 -0.316184)
(198.765 0.237511 -0.455528)
(198.627 0.141292 -0.554383)
(198.45 0.0366328 -0.598541)
(198.253 -0.0701103 -0.575033)
(198.062 -0.171236 -0.479422)
(197.908 -0.251433 -0.315528)
(198.937 -0.0164159 0.791443)
(199.108 -0.114657 0.487021)
(199.172 -0.238729 0.139905)
(199.129 -0.376929 -0.197763)
(198.98 -0.531281 -0.504048)
(198.736 -0.697292 -0.750828)
(198.415 -0.87114 -0.909342)
(198.05 -1.04746 -0.953345)
(197.685 -1.21846 -0.857121)
(197.395 -1.36326 -0.627429)
(199.029 0.772569 0.722678)
(199.283 0.694293 0.305035)
(199.38 0.555996 -0.140607)
(199.319 0.387062 -0.576992)
(199.101 0.193927 -0.974944)
(198.733 -0.0175441 -1.29788)
(198.235 -0.244944 -1.503)
(197.646 -0.484046 -1.54162)
(197.033 -0.72873 -1.3611)
(196.528 -0.953108 -0.938072)
(199.313 0.358344 1.3043)
(199.655 0.191173 0.740635)
(199.785 -0.0238727 0.112609)
(199.713 -0.254149 -0.503389)
(199.431 -0.501544 -1.08676)
(198.943 -0.759849 -1.5911)
(198.259 -1.03141 -1.95811)
(197.419 -1.31684 -2.1141)
(196.499 -1.62299 -1.95836)
(195.703 -1.91714 -1.4187)
(199.447 1.27288 1.16396)
(199.866 1.08212 0.512099)
(200.03 0.840348 -0.181175)
(199.949 0.589039 -0.873708)
(199.611 0.328468 -1.53716)
(199.012 0.0604037 -2.12713)
(198.146 -0.224319 -2.57101)
(197.048 -0.533508 -2.77765)
(195.777 -0.881929 -2.58009)
(194.628 -1.25275 -1.85026)
(199.797 0.571764 1.784)
(200.29 0.276706 1.02346)
(200.484 -0.0419891 0.178569)
(200.402 -0.344438 -0.661644)
(200.023 -0.637055 -1.49282)
(199.335 -0.916907 -2.26498)
(198.306 -1.19652 -2.90353)
(196.955 -1.49098 -3.28757)
(195.31 -1.84163 -3.20322)
(193.749 -2.24037 -2.38691)
(199.903 1.71515 1.35087)
(200.438 1.4045 0.575452)
(200.65 1.08353 -0.23752)
(200.557 0.792155 -1.07159)
(200.14 0.530803 -1.90082)
(199.378 0.296254 -2.69457)
(198.218 0.0700463 -3.3658)
(196.653 -0.173302 -3.80277)
(194.664 -0.481161 -3.71084)
(192.676 -0.906633 -2.76993)
(200.168 0.350536 2.10417)
(200.733 -0.0761887 1.28171)
(200.956 -0.473286 0.351452)
(200.866 -0.798994 -0.584199)
(200.433 -1.06513 -1.54508)
(199.63 -1.26737 -2.48519)
(198.381 -1.41722 -3.34056)
(196.648 -1.54594 -3.96534)
(194.37 -1.69724 -4.09134)
(191.925 -2.02572 -3.16413)
(199.562 1.81958 1.30726)
(200.104 1.35382 0.571148)
(200.323 1.00397 -0.221803)
(200.207 0.720183 -1.05636)
(199.736 0.535006 -1.90932)
(198.876 0.439369 -2.7627)
(197.547 0.429636 -3.53835)
(195.68 0.49664 -4.11182)
(193.21 0.565224 -4.18836)
(190.431 0.522443 -3.13202)
(197.902 -0.260486 0.26979)
(197.99 -0.295484 0.233048)
(198.008 -0.337947 0.138362)
(198.003 -0.372147 0.0679896)
(197.981 -0.410565 -0.0125732)
(197.947 -0.44516 -0.0705067)
(197.904 -0.477872 -0.115677)
(197.857 -0.507044 -0.136248)
(197.806 -0.531316 -0.137696)
(197.708 -0.547701 -0.119129)
(198.446 0.316086 0.0834018)
(198.513 0.343912 -0.0355943)
(198.54 0.342168 -0.143149)
(198.525 0.309272 -0.242226)
(198.473 0.25808 -0.322125)
(198.387 0.193576 -0.374347)
(198.28 0.12209 -0.391095)
(198.161 0.0493286 -0.365112)
(198.044 -0.0183666 -0.297136)
(197.95 -0.0695087 -0.189022)
(198.555 -0.168804 0.629266)
(198.672 -0.242796 0.41501)
(198.717 -0.333154 0.165917)
(198.689 -0.434173 -0.0760915)
(198.589 -0.548292 -0.293841)
(198.426 -0.671854 -0.467309)
(198.217 -0.80046 -0.577818)
(197.984 -0.928521 -0.611146)
(197.758 -1.0485 -0.554736)
(197.581 -1.14543 -0.421984)
(198.591 0.581901 0.499717)
(198.777 0.540338 0.202055)
(198.849 0.446423 -0.116262)
(198.806 0.323152 -0.426098)
(198.648 0.177188 -0.702809)
(198.386 0.0149362 -0.91816)
(198.04 -0.159153 -1.04282)
(197.644 -0.339315 -1.04635)
(197.247 -0.516944 -0.905309)
(196.932 -0.673233 -0.614782)
(198.788 0.13339 1.03727)
(199.051 0.0175075 0.612493)
(199.152 -0.142376 0.133094)
(199.096 -0.320829 -0.33467)
(198.88 -0.517241 -0.770207)
(198.513 -0.724588 -1.13466)
(198.013 -0.94206 -1.38477)
(197.422 -1.16647 -1.47149)
(196.808 -1.39698 -1.34231)
(196.3 -1.60674 -0.96948)
(198.862 1.01408 0.87069)
(199.197 0.884566 0.372992)
(199.329 0.703657 -0.160105)
(199.262 0.506595 -0.69026)
(198.99 0.296565 -1.1875)
(198.519 0.0771359 -1.6109)
(197.86 -0.154703 -1.90352)
(197.056 -0.402107 -1.99989)
(196.182 -0.666427 -1.80378)
(195.43 -0.935884 -1.2613)
(199.165 0.304898 1.46671)
(199.573 0.0839277 0.866158)
(199.733 -0.166567 0.188256)
(199.661 -0.411747 -0.482485)
(199.345 -0.653746 -1.13431)
(198.782 -0.887712 -1.71742)
(197.972 -1.12191 -2.16974)
(196.952 -1.36448 -2.39543)
(195.791 -1.63883 -2.2737)
(194.746 -1.93157 -1.64715)
(199.222 1.47396 1.01787)
(199.673 1.24617 0.405592)
(199.851 0.995973 -0.240189)
(199.768 0.761813 -0.902404)
(199.411 0.547187 -1.54722)
(198.772 0.351298 -2.13869)
(197.836 0.161625 -2.59926)
(196.625 -0.0395448 -2.83751)
(195.195 -0.280961 -2.6616)
(193.844 -0.591444 -1.8992)
(199.486 0.0759763 1.79679)
(199.971 -0.261808 1.13029)
(200.161 -0.587018 0.357679)
(200.078 -0.8564 -0.415216)
(199.699 -1.0783 -1.19713)
(199.013 -1.24709 -1.93474)
(197.986 -1.37397 -2.56633)
(196.621 -1.48268 -2.96381)
(194.957 -1.60628 -2.95666)
(193.287 -1.8437 -2.19132)
(198.883 1.66915 0.956137)
(199.348 1.30093 0.3772)
(199.54 1.02502 -0.257499)
(199.438 0.797898 -0.92711)
(199.029 0.651948 -1.59905)
(198.295 0.579381 -2.2458)
(197.196 0.574239 -2.78745)
(195.716 0.627275 -3.1179)
(193.892 0.666415 -3.01915)
(191.999 0.635792 -2.11985)
(197.715 -0.30808 0.24084)
(197.79 -0.337486 0.223881)
(197.804 -0.373189 0.150044)
(197.802 -0.398949 0.100447)
(197.789 -0.428434 0.0383052)
(197.77 -0.45411 -0.00735109)
(197.746 -0.47801 -0.0472448)
(197.719 -0.498588 -0.0715217)
(197.687 -0.514683 -0.0855732)
(197.604 -0.524024 -0.0870368)
(198.231 0.286733 -0.00729385)
(198.275 0.32344 -0.0842725)
(198.294 0.336002 -0.14546)
(198.285 0.321331 -0.199371)
(198.254 0.291345 -0.239697)
(198.202 0.250189 -0.261602)
(198.137 0.203066 -0.261227)
(198.065 0.154711 -0.234155)
(197.992 0.109943 -0.183355)
(197.93 0.0775176 -0.107489)
(198.265 -0.271842 0.512367)
(198.343 -0.33157 0.361882)
(198.374 -0.398734 0.183217)
(198.356 -0.472344 0.00920056)
(198.291 -0.555465 -0.147149)
(198.186 -0.645434 -0.272282)
(198.052 -0.7382 -0.354269)
(197.906 -0.828879 -0.385845)
(197.766 -0.91131 -0.359926)
(197.656 -0.97505 -0.291444)
(198.269 0.444858 0.326478)
(198.401 0.426618 0.120374)
(198.453 0.365225 -0.0998745)
(198.423 0.278104 -0.312935)
(198.313 0.171309 -0.499642)
(198.133 0.0509461 -0.639331)
(197.899 -0.0781012 -0.712788)
(197.637 -0.209926 -0.701424)
(197.382 -0.336178 -0.596762)
(197.184 -0.44374 -0.39894)
(198.391 -0.0358483 0.819621)