/*--------------------------------*- C++ -*----------------------------------*\
| =========                 |                                                 |
| \\      /  F ield         | foam-extend: Open Source CFD                    |
|  \\    /   O peration     | Version:     4.0                                |
|   \\  /    A nd           | Web:         http://www.foam-extend.org         |
|    \\/     M anipulation  |                                                 |
\*---------------------------------------------------------------------------*/
FoamFile
{
    version     2.0;
    format      ascii;
    class       volScalarField;
    location    "3300";
    object      divFlux;
}
// * * * * * * * * * * * * * * * * * * * * * * * * * * * * * * * * * * * * * //

dimensions      [1 -3 -1 0 0 0 0];

internalField   nonuniform List<scalar> 
34480
(
2.15515e-05
7.41998e-06
7.81391e-06
7.19764e-06
6.64452e-06
6.2257e-06
5.91157e-06
0.000299053
0.000207552
5.27453e-06
6.11658e-06
3.29223e-06
3.19017e-06
2.95466e-06
2.78707e-06
2.70987e-06
2.70483e-06
2.70792e-06
0.00345092
2.61697e-06
1.65849e-06
1.07854e-06
1.04037e-06
9.8397e-07
9.6917e-07
1.00239e-06
1.05545e-06
1.09352e-06
0.00333838
1.08106e-06
6.00968e-07
4.03363e-07
3.93588e-07
3.77818e-07
3.77207e-07
3.98093e-07
4.2444e-07
4.3746e-07
0.000802011
4.36429e-07
2.3547e-07
1.64819e-07
1.61677e-07
1.56506e-07
1.55589e-07
1.65604e-07
1.76797e-07
1.80463e-07
1.84455e-07
1.81903e-07
9.53256e-08
7.34254e-08
7.06763e-08
6.84426e-08
6.93017e-08
7.24518e-08
7.65755e-08
7.72055e-08
7.96683e-08
7.8981e-08
3.68527e-08
3.42117e-08
3.2379e-08
3.17171e-08
3.16662e-08
3.28881e-08
3.47209e-08
3.53318e-08
3.66045e-08
3.37026e-08
1.66668e-08
1.91525e-08
1.59451e-08
1.51204e-08
1.48913e-08
1.66324e-08
1.6495e-08
1.69073e-08
1.83277e-08
1.76863e-08
1.70677e-08
9.49709e-09
1.00386e-08
8.70567e-09
9.08055e-09
8.70567e-09
9.12221e-09
8.95559e-09
9.83032e-09
9.83032e-09
9.0684e-09
8.89658e-09
6.37652e-09
7.14018e-09
5.95651e-09
6.26197e-09
6.94926e-09
6.07106e-09
6.33834e-09
6.79653e-09
3.02342e-05
9.27064e-06
9.79541e-06
9.25481e-06
8.6703e-06
8.22858e-06
7.94763e-06
7.80529e-06
7.79383e-06
0.00106343
9.28895e-06
4.76966e-06
4.63899e-06
4.35366e-06
4.15101e-06
4.06486e-06
4.06614e-06
4.14585e-06
4.28237e-06
0.00345342
2.80514e-06
1.75377e-06
1.71574e-06
1.64247e-06
1.63655e-06
1.69951e-06
1.78657e-06
1.88748e-06
1.99503e-06
0.00431047
1.14134e-06
7.60822e-07
7.3743e-07
7.19647e-07
7.25717e-07
7.63591e-07
8.09381e-07
8.60389e-07
9.10225e-07
0.00149873
5.49297e-07
3.46847e-07
3.35711e-07
3.27314e-07
3.37294e-07
3.53601e-07
3.74473e-07
3.98144e-07
4.22119e-07
4.32604e-07
2.63378e-07
1.69689e-07
1.66441e-07
1.51799e-07
1.64684e-07
1.72138e-07
1.7693e-07
1.92424e-07
2.02061e-07
2.05698e-07
1.43731e-07
7.57722e-08
9.62653e-08
7.00928e-08
8.15462e-08
8.75096e-08
8.6989e-08
9.61233e-08
1.00288e-07
1.02868e-07
1.49962e-08
5.28607e-08
5.27755e-08
3.84209e-08
4.56621e-08
4.72807e-08
4.53639e-08
5.23922e-08
5.50757e-08
5.35369e-08
6.38009e-08
9.02245e-09
4.96815e-08
2.94682e-08
2.76869e-08
2.93133e-08
3.10171e-08
3.33017e-08
3.3263e-08
3.36115e-08
1.56889e-07
1.71801e-08
2.10492e-08
2.55217e-08
2.28949e-08
2.35339e-08
2.17591e-08
2.42793e-08
2.648e-08
2.74251e-08
2.89872e-05
6.79595e-06
7.52191e-06
7.23902e-06
6.81934e-06
6.50263e-06
6.32925e-06
6.30883e-06
3.13448e-05
0.000872235
8.14622e-06
3.40414e-06
3.39335e-06
3.18537e-06
3.00762e-06
2.88863e-06
2.8521e-06
2.91704e-06
8.10443e-05
0.0013524
2.30037e-06
1.1997e-06
1.18818e-06
1.11706e-06
1.07624e-06
1.0596e-06
1.07857e-06
1.15036e-06
0.000120374
0.00127431
8.23556e-07
4.85505e-07
4.7521e-07
4.55972e-07
4.39373e-07
4.31388e-07
4.43927e-07
4.75276e-07
5.30845e-07
6.65596e-07
3.543e-07
2.08851e-07
2.04948e-07
1.9799e-07
1.88034e-07
1.81698e-07
1.87525e-07
2.01554e-07
2.27151e-07
2.89488e-07
1.49433e-07
9.35504e-08
9.03825e-08
8.71157e-08
8.14235e-08
7.83546e-08
8.45418e-08
8.68187e-08
1.00183e-07
1.32022e-07
7.29298e-08
4.0874e-08
4.0566e-08
4.0698e-08
3.70462e-08
3.58142e-08
3.93341e-08
3.95541e-08
4.83976e-08
6.21359e-08
1.74231e-08
2.74414e-08
2.04722e-08
2.00366e-08
1.73439e-08
1.9601e-08
2.04326e-08
1.91655e-08
2.39172e-08
3.36757e-08
2.78429e-08
9.39554e-09
1.54072e-08
1.22034e-08
1.19514e-08
1.23114e-08
1.06195e-08
1.15194e-08
1.54432e-08
2.0582e-08
2.04415e-08
1.29024e-08
4.65277e-09
9.99851e-09
6.46768e-09
8.48058e-09
8.41459e-09
8.48058e-09
9.43754e-09
1.44842e-08
2.92432e-05
6.11415e-06
6.73296e-06
6.55467e-06
6.24161e-06
5.97991e-06
5.83659e-06
5.82521e-06
1.58338e-05
0.000373422
8.1186e-06
3.17662e-06
3.16995e-06
2.98474e-06
2.81794e-06
2.69844e-06
2.64023e-06
2.66131e-06
3.49476e-05
0.00114377
2.38168e-06
1.1881e-06
1.18022e-06
1.09762e-06
1.04188e-06
1.00537e-06
9.94948e-07
1.03253e-06
0.000121956
0.00229033
8.52687e-07
4.79565e-07
4.66251e-07
4.41189e-07
4.22906e-07
4.09531e-07
4.09684e-07
4.28795e-07
0.000113534
0.00210759
3.49074e-07
2.03622e-07
1.99414e-07
1.90422e-07
1.84637e-07
1.76223e-07
1.75171e-07
1.86215e-07
4.54572e-05
0.00157278
1.50117e-07
9.63087e-08
9.00967e-08
8.7658e-08
8.37007e-08
7.69366e-08
8.01116e-08
8.4713e-08
1.08914e-05
0.000990142
7.29997e-08
4.44195e-08
4.10655e-08
4.04111e-08
3.99203e-08
3.5053e-08
3.70572e-08
3.8366e-08
4.40923e-08
0.000416949
2.29498e-08
2.70934e-08
1.92894e-08
2.28969e-08
1.82218e-08
1.67862e-08
1.95102e-08
2.0136e-08
2.15349e-08
0.000157221
2.93014e-08
8.83482e-09
1.52601e-08
1.23821e-08
1.13782e-08
1.23487e-08
1.22148e-08
1.14786e-08
1.41893e-08
2.00101e-08
1.05048e-08
1.59518e-08
4.20267e-09
1.08901e-08
7.27032e-09
7.05559e-09
8.55873e-09
8.03723e-09
1.05834e-08
1.31429e-08
2.86555e-05
5.66933e-06
5.98414e-06
5.80476e-06
5.58096e-06
5.37925e-06
5.26053e-06
5.24499e-06
2.03367e-05
0.000143379
7.89011e-06
2.92068e-06
2.90767e-06
2.74542e-06
2.6016e-06
2.49287e-06
2.4305e-06
2.4219e-06
3.53115e-06
0.000579339
2.34876e-06
1.10156e-06
1.11918e-06
1.04646e-06
9.94169e-07
9.5413e-07
9.32296e-07
9.38525e-07
7.67514e-05
0.0013355
8.91962e-07
4.82979e-07
4.66182e-07
4.37151e-07
4.14052e-07
3.96057e-07
3.88842e-07
3.92863e-07
7.93945e-05
0.0014222
3.55677e-07
2.01174e-07
1.9736e-07
1.86214e-07
1.7805e-07
1.7189e-07
1.67588e-07
1.71156e-07
5.35543e-05
0.0012824
1.46941e-07
9.29541e-08
8.81204e-08
8.40138e-08
8.19605e-08
7.60573e-08
7.53729e-08
7.83672e-08
4.08309e-05
0.00101919
7.11189e-08
4.53245e-08
4.137e-08
3.9735e-08
3.94308e-08
3.62368e-08
3.58185e-08
3.67691e-08
6.00705e-06
0.000670064
2.68141e-08
2.61452e-08
2.09093e-08
2.04987e-08
2.06356e-08
1.74872e-08
1.86165e-08
1.93694e-08
8.89222e-06
0.000502917
3.15042e-08
1.05464e-08
1.33464e-08
1.36886e-08
1.13864e-08
1.20397e-08
1.22886e-08
1.2382e-08
1.24753e-08
0.000308502
2.79075e-09
1.89074e-08
3.36511e-09
1.1065e-08
7.61428e-09
6.90134e-09
8.21316e-09
8.15612e-09
9.04018e-09
0.000406757
2.6109e-05
5.53316e-06
5.42662e-06
5.08836e-06
4.87402e-06
4.72571e-06
4.63597e-06
4.61842e-06
4.68345e-06
2.47548e-05
7.46631e-06
2.65663e-06
2.62243e-06
2.47533e-06
2.35432e-06
2.26091e-06
2.20527e-06
2.18615e-06
1.54936e-05
0.000223171
2.33827e-06
1.00241e-06
1.03362e-06
9.6519e-07
9.19538e-07
8.84988e-07
8.60492e-07
8.55084e-07
3.53249e-05
0.000719188
8.51102e-07
4.47722e-07
4.41519e-07
4.15776e-07
3.95362e-07
3.78872e-07
3.6795e-07
3.64556e-07
4.21217e-05
0.000849435
3.65576e-07
1.99607e-07
1.95017e-07
1.82882e-07
1.73475e-07
1.66248e-07
1.61476e-07
1.60749e-07
3.75661e-05
0.000865625
1.48139e-07
9.08276e-08
8.701e-08
8.15221e-08
7.90168e-08
7.50004e-08
7.33302e-08
7.31711e-08
3.61465e-05
0.000782707
6.83772e-08
4.34078e-08
4.05799e-08
3.79641e-08
3.71158e-08
3.5207e-08
3.48181e-08
3.49242e-08
1.99862e-05
0.000597551
2.70676e-08
2.55463e-08
2.0138e-08
1.95653e-08
1.99789e-08
1.81655e-08
1.81973e-08
1.85473e-08
2.71442e-05
0.000528358
3.09958e-08
1.15396e-08
1.30435e-08
1.29568e-08
1.11058e-08
1.16842e-08
1.13661e-08
1.17421e-08
9.89727e-06
0.000451026
2.28805e-09
2.04667e-08
3.18135e-09
9.86219e-09
7.42315e-09
7.42315e-09
7.44967e-09
7.68827e-09
2.69682e-05
0.000528603
2.05487e-05
5.51551e-06
5.12342e-06
4.55706e-06
4.23878e-06
4.06841e-06
3.9838e-06
3.96997e-06
4.00913e-06
1.71356e-06
6.88155e-06
2.40141e-06
2.33834e-06
2.18633e-06
2.07823e-06
1.99768e-06
1.94718e-06
1.9281e-06
1.03809e-05
7.15875e-05
2.29094e-06
9.06147e-07
9.54355e-07
8.86155e-07
8.42887e-07
8.08964e-07
7.85245e-07
7.72764e-07
1.3708e-05
0.000378682
8.16428e-07
4.04832e-07
4.02318e-07
3.81345e-07
3.64093e-07
3.50833e-07
3.39693e-07
3.33704e-07
1.69041e-05
0.000491443
3.46295e-07
1.84252e-07
1.82055e-07
1.72591e-07
1.63803e-07
1.57592e-07
1.52438e-07
1.50241e-07
1.81581e-05
0.000544372
1.4893e-07
8.78746e-08
8.43996e-08
7.95567e-08
7.59707e-08
7.21999e-08
7.03145e-08
6.87988e-08
2.11263e-05
0.000538934
6.76741e-08
4.14378e-08
3.98933e-08
3.74616e-08
3.62786e-08
3.45699e-08
3.33869e-08
3.34197e-08
1.67134e-05
0.000444336
2.69641e-08
2.3453e-08
2.03476e-08
1.85139e-08
1.86618e-08
1.75084e-08
1.79224e-08
1.72422e-08
2.68586e-05
0.000436702
2.90658e-08
1.23677e-08
1.17224e-08
1.28248e-08
1.15074e-08
1.10772e-08
1.12385e-08
1.1588e-08
2.02123e-05
0.000412819
6.43159e-09
2.04067e-08
4.36231e-09
8.74926e-09
8.10847e-09
7.22122e-09
7.51697e-09
8.10847e-09
3.43374e-05
0.000473393
1.26932e-05
4.96435e-06
4.71134e-06
4.16075e-06
3.78241e-06
3.54626e-06
3.42183e-06
3.37795e-06
3.39761e-06
3.6062e-06
6.0803e-06
2.13394e-06
2.06672e-06
1.91413e-06
1.81319e-06
1.73971e-06
1.69064e-06
1.67005e-06
2.86738e-06
1.48176e-05
2.18561e-06
7.7258e-07
8.5212e-07
7.89736e-07
7.52757e-07
7.21688e-07
7.00051e-07
6.87981e-07
4.99903e-06
0.000181119
8.02626e-07
3.74811e-07
3.7268e-07
3.48211e-07
3.33204e-07
3.18723e-07
3.0878e-07
3.02548e-07
5.58716e-06
0.000267652
3.25769e-07
1.66967e-07
1.65867e-07
1.57187e-07
1.51138e-07
1.44815e-07
1.40062e-07
1.37941e-07
6.23307e-06
0.000322844
1.4074e-07
8.05229e-08
7.78422e-08
7.38212e-08
7.02814e-08
6.78413e-08
6.5848e-08
6.45764e-08
8.74115e-06
0.000351725
6.63635e-08
3.92552e-08
3.80333e-08
3.5345e-08
3.38175e-08
3.28094e-08
3.18319e-08
3.10987e-08
9.5107e-06
0.000304699
2.76668e-08
2.17477e-08
1.95482e-08
1.92733e-08
1.76236e-08
1.65788e-08
1.65514e-08
1.61389e-08
2.02408e-05
0.00032848
2.6119e-08
1.29721e-08
1.04477e-08
1.22973e-08
1.06477e-08
1.08726e-08
1.02227e-08
1.09226e-08
1.89769e-05
0.000314733
9.70557e-09
1.99331e-08
4.85726e-09
7.81286e-09
7.53792e-09
6.52981e-09
7.26298e-09
7.46919e-09
3.16635e-05
0.000370135
8.00827e-06
3.40859e-06
3.52148e-06
3.32755e-06
3.14201e-06
2.98859e-06
2.88424e-06
2.83736e-06
2.84512e-06
3.01125e-06
5.24052e-06
1.81615e-06
1.782e-06
1.63452e-06
1.54765e-06
1.48433e-06
1.44059e-06
1.41848e-06
1.40605e-06
3.51378e-07
2.09586e-06
6.22983e-07
7.47099e-07
6.87981e-07
6.52837e-07
6.27431e-07
6.08721e-07
5.96172e-07
1.61877e-06
7.99002e-05
7.2907e-07
3.24071e-07
3.32591e-07
3.10525e-07
2.96148e-07
2.85285e-07
2.74891e-07
2.68203e-07
1.73765e-06
0.000136006
3.14273e-07
1.53173e-07
1.50764e-07
1.43315e-07
1.36669e-07
1.31119e-07
1.26701e-07
1.24109e-07
1.26617e-06
0.000177554
1.32267e-07
7.18217e-08
7.07355e-08
6.78281e-08
6.44415e-08
6.13744e-08
6.01283e-08
1.2219e-05
1.95558e-06
0.000215899
6.27162e-08
3.53855e-08
3.48175e-08
3.29431e-08
3.19492e-08
3.0302e-08
2.89105e-08
2.89672e-08
4.01713e-06
0.000191361
2.83751e-08
1.93484e-08
1.81727e-08
1.73548e-08
1.6358e-08
1.60513e-08
1.60001e-08
1.00652e-05
1.3257e-05
0.000229161
2.22457e-08
1.44991e-08
8.75988e-09
1.13391e-08
1.01773e-08
9.75902e-09
1.04329e-08
9.38725e-09
1.42277e-05
0.000216044
1.0716e-08
1.81471e-08
4.96277e-09
7.19921e-09
6.98622e-09
6.36854e-09
6.36854e-09
4.74554e-06
2.53151e-05
0.000266768
1.4815e-05
2.61633e-06
2.60274e-06
2.47828e-06
2.40945e-06
2.34654e-06
2.29057e-06
2.25566e-06
2.24661e-06
2.34299e-06
4.49588e-06
1.45556e-06
1.49812e-06
1.36242e-06
1.28021e-06
1.22992e-06
1.19704e-06
1.17673e-06
1.17349e-06
1.09619e-06
2.04355e-06
4.45374e-07
6.39928e-07
5.88081e-07
5.54579e-07
5.33027e-07
5.16918e-07
5.05156e-07
1.07399e-07
3.17102e-05
6.69212e-07
2.71408e-07
2.88694e-07
2.67508e-07
2.55508e-07
2.46143e-07
2.37054e-07
2.30381e-07
5.15888e-07
6.44533e-05
2.83002e-07
1.34351e-07
1.33604e-07
1.25933e-07
1.20943e-07
1.15172e-07
1.11438e-07
1.09605e-07
2.73148e-07
9.13476e-05
1.25419e-07
6.46592e-08
6.34118e-08
6.03526e-08
5.7828e-08
5.58974e-08
5.32837e-08
1.75184e-05
1.01177e-06
0.0001262
5.89288e-08
3.08891e-08
3.1734e-08
2.94899e-08
2.81434e-08
2.73778e-08
2.66122e-08
2.54769e-08
1.07312e-06
0.000109654
2.7713e-08
1.70365e-08
1.60861e-08
1.55158e-08
1.54446e-08
1.39951e-08
1.45892e-08
1.8832e-05
7.98731e-06
0.000151268
1.62296e-08
1.52286e-08
8.3811e-09
1.01524e-08
9.67715e-09
9.30994e-09
8.81312e-09
9.11553e-09
9.21107e-06
0.000137459
1.17203e-08
1.62168e-08
5.06898e-09
6.37583e-09
6.27683e-09
5.90061e-09
6.01942e-09
1.00202e-05
1.85617e-05
0.000181733
1.66724e-05
3.03213e-06
2.61796e-06
2.21385e-06
2.08477e-06
2.04512e-06
2.02062e-06
2.00623e-06
2.00485e-06
2.09674e-06
3.89396e-06
1.03583e-06
1.24123e-06
1.13534e-06
1.049e-06
1.00604e-06
9.78568e-07
9.62884e-07
9.52972e-07
8.86662e-07
2.12306e-06
2.28223e-07
5.31968e-07
4.95411e-07
4.59119e-07
4.40961e-07
4.2921e-07
4.19226e-07
4.07696e-07
1.08379e-05
6.03225e-07
2.11925e-07
2.47727e-07
2.26559e-07
2.15146e-07
2.07912e-07
2.00568e-07
1.94364e-07
5.2314e-08
2.74402e-05
2.48398e-07
1.14137e-07
1.142e-07
1.07384e-07
1.02998e-07
9.93056e-08
9.58344e-08
9.24895e-08
5.04511e-07
4.41232e-05
1.1265e-07
5.61887e-08
5.50291e-08
5.24336e-08
5.02247e-08
4.83472e-08
4.61659e-08
1.68022e-05
2.06291e-06
7.16593e-05
5.53417e-08
2.6924e-08
2.79793e-08
2.60404e-08
2.47151e-08
2.44451e-08
2.30952e-08
2.30216e-08
9.2479e-08
5.69854e-05
2.72608e-08
1.40927e-08
1.46891e-08
1.41369e-08
1.32313e-08
1.27011e-08
9.13842e-07
2.09877e-05
4.45916e-06
9.68761e-05
9.88668e-09
1.52414e-08
7.42992e-09
9.11671e-09
7.95202e-09
7.5504e-09
8.31347e-09
7.67089e-09
5.09467e-06
8.04971e-05
9.82526e-09
1.36951e-08
5.17249e-09
5.44861e-09
6.01924e-09
4.85957e-09
5.77994e-09
1.10803e-05
1.27945e-05
0.000118573
5.52932e-07
2.94999e-06
2.02403e-06
1.1203e-06
7.71487e-07
7.15599e-07
7.73985e-07
8.4981e-07
9.11003e-07
9.68285e-07
4.0569e-06
4.6724e-07
9.49574e-07
9.09865e-07
8.13583e-07
7.61143e-07
7.40839e-07
7.32138e-07
7.30572e-07
6.87098e-07
2.43227e-06
6.19736e-08
4.14985e-07
4.13014e-07
3.70445e-07
3.50383e-07
3.40054e-07
3.34284e-07
3.26481e-07
3.36657e-06
5.60352e-07
1.42887e-07
2.07691e-07
1.88303e-07
1.7605e-07
1.69736e-07
1.63901e-07
1.59503e-07
1.53274e-07
8.95452e-06
2.13384e-07
9.39607e-08
9.63662e-08
8.94138e-08
8.58642e-08
8.208e-08
7.95865e-08
7.66236e-08
3.47593e-07
1.97995e-05
9.79895e-08
4.72297e-08
4.64853e-08
4.40725e-08
4.25067e-08
4.0787e-08
1.21452e-06
1.42603e-05
2.25145e-06
3.99922e-05
5.09129e-08
2.22687e-08
2.40256e-08
2.20633e-08
2.19265e-08
2.04434e-08
2.03293e-08
1.92113e-08
2.17074e-07
2.55188e-05
2.75772e-08
1.18485e-08
1.22797e-08
1.26904e-08
1.16021e-08
1.07602e-08
1.63912e-05
2.0157e-05
2.23458e-06
6.13486e-05
3.2609e-09
1.45796e-08
7.31781e-09
7.7285e-09
7.33647e-09
7.24313e-09
6.98178e-09
6.75777e-09
2.15877e-06
4.18193e-05
7.99368e-09
1.09347e-08
4.92832e-09
4.7572e-09
5.47591e-09
4.80853e-09
4.12404e-09
1.00534e-05
8.41959e-06
7.4768e-05
4.3552e-06
7.76816e-06
6.7431e-06
5.07229e-06
3.9018e-06
3.18243e-06
2.76268e-06
2.53042e-06
2.40618e-06
2.36702e-06
5.42081e-06
4.05395e-07
5.88298e-07
7.8194e-07
7.26579e-07
6.67043e-07
6.33636e-07
6.13855e-07
5.97485e-07
5.30489e-07
3.17955e-06
4.66038e-07
2.61339e-07
3.42069e-07
3.04329e-07
2.79073e-07
2.6886e-07
2.62198e-07
3.67707e-07
2.23134e-06
5.51286e-07
5.37217e-08
1.6519e-07
1.54309e-07
1.40946e-07
1.33246e-07
1.30256e-07
1.26517e-07
1.21872e-07
7.56893e-08
1.78679e-07
7.06048e-08
7.96315e-08
7.3141e-08
6.88322e-08
6.64869e-08
6.37052e-08
6.20144e-08
1.76253e-07
8.29265e-06
8.0916e-08
3.91101e-08
3.81795e-08
3.61035e-08
3.3932e-08
3.32877e-08
8.88955e-06
1.16812e-05
2.11366e-06
2.22598e-05
4.46239e-08
1.8008e-08
1.97685e-08
1.86231e-08
1.79656e-08
1.66929e-08
1.6502e-08
1.61414e-08
1.54203e-08
8.07727e-06
2.94551e-06
9.64032e-09
1.05184e-08
9.85031e-09
9.62123e-09
1.57122e-05
2.41761e-05
1.83469e-05
8.8166e-07
3.91553e-05
2.0312e-09
1.25992e-08
6.43845e-09
6.4211e-09
6.36903e-09
5.77899e-09
6.09136e-09
5.91782e-09
2.98859e-07
1.70127e-05
4.08168e-09
7.79498e-09
4.80425e-09
3.94521e-09
4.04066e-09
3.78613e-09
1.96171e-06
8.27041e-06
5.35289e-06
4.59153e-05
0.000109443
4.41261e-06
4.41499e-06
4.23109e-06
4.09574e-06
3.96133e-06
3.76953e-06
3.47185e-06
3.05215e-06
2.48514e-06
1.19833e-05
1.31923e-06
3.70236e-08
4.8022e-07
4.97124e-07
4.31085e-07
3.82459e-07
3.62827e-07
3.57215e-07
3.17111e-07
6.23994e-05
5.55441e-06
9.18981e-06
7.14421e-06
5.87005e-06
4.90645e-06
3.72401e-06
1.48957e-06
1.74956e-06
3.97285e-06
6.27579e-07
6.01458e-08
1.16077e-07
1.2532e-07
1.11197e-07
1.03078e-07
9.77536e-08
9.44114e-08
9.05219e-08
7.63197e-08
1.50694e-07
4.47719e-08
6.2493e-08
5.81325e-08
5.43296e-08
5.09832e-08
4.98423e-08
4.78902e-08
1.11397e-07
3.56877e-06
9.76186e-06
3.03243e-08
3.07458e-08
2.86828e-08
2.73074e-08
7.38294e-06
1.1925e-05
9.60272e-06
1.9081e-06
1.26139e-05
3.77365e-08
1.42958e-08
1.52817e-08
1.45324e-08
1.43549e-08
1.33493e-08
1.30535e-08
1.26197e-08
1.22254e-08
1.12286e-08
5.02818e-05
4.56722e-05
4.1092e-05
3.65011e-05
3.47183e-05
3.23115e-05
2.75488e-05
1.65438e-05
5.74454e-08
2.57952e-05
4.4295e-09
9.92191e-09
5.42075e-09
4.98515e-09
4.96902e-09
4.88835e-09
4.50116e-09
4.35596e-09
4.67862e-09
2.04739e-06
5.88488e-10
5.73804e-09
3.8155e-09
3.51972e-09
3.37184e-09
3.4162e-09
5.07982e-06
6.35872e-06
3.30091e-06
2.75405e-05
0.000141259
1.91231e-05
1.96648e-05
1.88204e-05
1.77853e-05
1.62959e-05
1.43232e-05
1.19846e-05
9.40319e-06
6.58438e-06
1.61519e-05
3.1984e-06
1.20225e-06
1.67308e-07
2.12677e-07
3.28161e-07
3.48515e-07
3.5796e-07
4.14651e-07
5.17293e-07
0.000207516
0.000126129
6.92973e-05
3.9773e-05
2.24485e-05
1.26276e-05
6.4945e-06
1.54792e-06
3.79815e-06
7.09481e-06
8.40042e-07
2.04724e-07
4.43103e-08
9.11777e-08
8.65446e-08
7.89968e-08
7.413e-08
7.13116e-08
6.84108e-08
5.70587e-08
1.38696e-07
1.39995e-08
4.47325e-08
4.43554e-08
4.03724e-08
3.85577e-08
3.63422e-08
1.68843e-07
1.51992e-07
2.10531e-06
3.93738e-05
3.00183e-05
1.96705e-05
1.5744e-05
1.50395e-05
1.43093e-05
1.23534e-05
7.95345e-06
1.72196e-06
7.39147e-06
2.89794e-08
1.06869e-08
1.22817e-08
1.13101e-08
1.09619e-08
1.02103e-08
9.84367e-09
9.66036e-09
9.1471e-09
8.70907e-09
0.000219216
4.35055e-05
7.99427e-05
7.01382e-05
5.46582e-05
4.07605e-05
2.86957e-05
1.51949e-05
4.88004e-07
1.80378e-05
4.57673e-09
7.64897e-09
4.31942e-09
3.7195e-09
3.80949e-09
3.79449e-09
3.89947e-09
3.65951e-09
3.64451e-09
3.77358e-09
2.78679e-09
2.9421e-09
3.06584e-09
2.73588e-09
2.48841e-09
2.41967e-09
5.26953e-06
4.37966e-06
1.90791e-06
1.57233e-05
0.000432209
5.0036e-05
5.61992e-05
5.3593e-05
4.64525e-05
3.75249e-05
2.84867e-05
2.00466e-05
1.2232e-05
4.68608e-06
3.74292e-05
2.36093e-07
3.51599e-07
7.05421e-07
8.30571e-07
8.08447e-07
6.43652e-07
3.10055e-07
2.43109e-07
1.07523e-06
0.000350935
0.000239472
0.000116601
6.09663e-05
3.07722e-05
1.50183e-05
6.2053e-06
3.2867e-08
6.67262e-06
1.12238e-05
1.20919e-06
3.40403e-07
4.26877e-08
4.68798e-08
5.85359e-08
5.61075e-08
5.33086e-08
5.08163e-08
4.97044e-08
3.93872e-08
1.84252e-05
1.85138e-08
2.4057e-08
2.08933e-07
1.59721e-06
2.41786e-06
2.47148e-06
1.63849e-06
2.41184e-07
1.83893e-06
3.98389e-05
4.5039e-05
3.52217e-05
2.63293e-05
2.00135e-05
1.51728e-05
1.09464e-05
6.36566e-06
1.52443e-06
4.37464e-06
1.99526e-08
8.21377e-09
8.92949e-09
8.19673e-09
7.61733e-09
7.3106e-09
7.37876e-09
6.47559e-09
6.88457e-09
5.82231e-09
0.000486667
1.64436e-05
8.40818e-05
8.31133e-05
6.35895e-05
4.44967e-05
2.8835e-05
1.4389e-05
9.25568e-07
1.36567e-05
4.11597e-09
5.46552e-09
3.58326e-09
3.0395e-09
2.98373e-09
2.71882e-09
2.59333e-09
2.66305e-09
2.35631e-09
3.19248e-09
5.60466e-09
1.31642e-09
2.0577e-09
2.18551e-09
1.87877e-09
3.65274e-08
2.91895e-06
2.19258e-06
8.92877e-07
7.55063e-06
0.00132721
0.00016881
0.000153818
0.000114052
7.915e-05
5.23637e-05
3.2402e-05
1.7195e-05
4.68801e-06
6.86867e-06
2.99726e-06
6.31894e-06
5.25629e-06
4.46488e-06
3.52508e-06
2.36978e-06
1.02723e-06
5.28231e-07
2.42629e-06
4.66881e-06
0.000501604
0.000363388
0.000158486
7.46557e-05
3.2951e-05
1.31392e-05
3.26089e-06
3.07969e-06
1.05326e-05
1.64877e-05
1.66546e-06
4.08437e-07
1.19254e-07
5.65557e-09
2.43807e-08
2.84917e-08
2.60917e-08
2.33708e-08
2.35966e-08
2.8423e-08
5.90883e-05
3.53124e-05
2.04299e-05
1.31884e-05
8.95394e-06
6.17364e-06
4.0481e-06
2.11467e-06
2.96907e-07
1.61134e-06
2.92725e-05
3.71754e-05
3.07353e-05
2.28953e-05
1.66285e-05
1.18131e-05
7.96309e-06
4.46511e-06
1.20758e-06
2.35949e-06
1.29549e-08
4.59416e-09
5.90904e-09
5.11694e-09
5.49715e-09
5.30705e-09
4.65753e-09
4.80011e-09
4.13474e-09
3.72678e-09
0.00083421
0.000119243
6.1793e-05
7.97557e-05
6.33213e-05
4.38182e-05
2.74992e-05
1.35243e-05
1.32203e-06
1.07968e-05
4.38886e-09
3.48667e-09
2.6312e-09
2.37197e-09
2.08681e-09
1.67204e-09
1.94424e-09
2.02201e-09
1.59427e-09
1.48418e-09
8.25308e-09
3.44562e-10
9.98042e-10
1.33072e-09
1.08121e-09
1.04557e-09
1.25943e-09
2.64588e-07
2.30251e-07
2.13033e-06
0.00451843
9.58413e-05
7.49444e-05
4.49929e-05
2.35004e-05
9.52666e-06
2.10625e-07
6.79269e-06
1.32417e-05
2.02616e-05
3.88114e-05
2.05624e-05
1.54548e-05
1.06606e-05
6.51856e-06
3.08303e-06
1.22124e-07
2.69847e-06
5.76483e-06
9.0131e-06
0.000568231
0.000458759
0.000177955
7.4818e-05
2.79646e-05
8.02349e-06
4.95241e-07
5.32925e-06
1.16771e-05
1.81545e-05
1.85171e-06
3.46097e-07
1.38057e-07
4.08018e-08
7.06907e-09
1.82249e-09
7.62134e-10
8.04106e-09
1.64245e-08
3.79514e-08
5.08035e-05
3.42304e-05
1.93643e-05
1.20646e-05
7.75708e-06
5.01194e-06
3.08807e-06
1.56236e-06
2.55831e-07
1.02365e-06
1.65941e-05
2.0026e-05
1.70002e-05
1.27141e-05
9.12342e-06
6.33911e-06
4.16649e-06
2.3321e-06
7.258e-07
9.51821e-07
7.96802e-09
2.06181e-09
2.4889e-09
3.34308e-09
3.1369e-09
2.70981e-09
2.90126e-09
3.00435e-09
2.60672e-09
2.49765e-09
0.00106748
0.00021523
2.0839e-05
5.79971e-05
5.00598e-05
3.52403e-05
2.20375e-05
1.0977e-05
1.5081e-06
7.57846e-06
5.82362e-09
1.69899e-09
1.59054e-09
1.25315e-09
1.30135e-09
1.3616e-09
9.03716e-10
7.9527e-10
1.00011e-09
1.18928e-09
1.24097e-06
7.93238e-07
6.62725e-10
7.17952e-10
8.83633e-10
4.99021e-07
8.14511e-07
3.92366e-07
1.74208e-07
1.22267e-06
0.00315912
0.000645328
0.000450176
0.000306091
0.000213373
0.000146021
9.32983e-05
5.11921e-05
6.70696e-06
2.99441e-05
6.48753e-06
1.23605e-05
6.52155e-06
2.20093e-06
4.54784e-07
2.13322e-06
3.37939e-06
4.54995e-06
5.84776e-06
6.80336e-06
0.000297079
0.000372338
0.000124927
4.62884e-05
1.3464e-05
9.46577e-07
3.65991e-06
6.09245e-06
9.80834e-06
1.45601e-05
1.44786e-06
1.69343e-07
6.2482e-08
7.98867e-09
1.89756e-08
3.45423e-08
4.29314e-08
4.96571e-08
5.39184e-08
5.5386e-08
2.08549e-05
1.52766e-05
8.38879e-06
5.07535e-06
3.16195e-06
1.98362e-06
1.19529e-06
6.08312e-07
1.23694e-07
3.60785e-07
6.2766e-06
5.85844e-06
4.97227e-06
3.72054e-06
2.65639e-06
1.82864e-06
1.19237e-06
6.78333e-07
2.47885e-07
1.98583e-07
4.8694e-09
7.11929e-10
1.39648e-09
1.61553e-09
1.28695e-09
1.64291e-09
1.04051e-09
1.43755e-09
1.17742e-09
1.41938e-09
0.000713615
0.00017789
7.82351e-06
2.42857e-05
2.39413e-05
1.74535e-05
1.10667e-05
5.68487e-06
1.09927e-06
3.28197e-06
2.92656e-09
5.37681e-10
4.36866e-10
7.28109e-10
5.26479e-10
2.91244e-10
5.15277e-10
9.52143e-10
6.83303e-10
4.49473e-10
9.14705e-05
0.000129436
8.56439e-05
5.07806e-05
2.91334e-05
1.6512e-05
8.95382e-06
3.74016e-06
5.68263e-07
5.29976e-06
0.00466483
0.000677941
0.000506586
0.000382198
0.000287179
0.000212731
0.000153154
0.000104611
6.37159e-05
3.05778e-05
1.32614e-05
2.10764e-05
1.47028e-05
9.80829e-06
6.49835e-06
4.31678e-06
2.83613e-06
1.71108e-06
6.10957e-07
9.08096e-07
9.55818e-05
8.3777e-05
1.99058e-05
5.72803e-06
4.5203e-07
1.06846e-06
1.36527e-06
1.48466e-06
2.00194e-06
3.25225e-06
3.20023e-07
6.15983e-08
2.91239e-08
1.30871e-08
2.07141e-09
3.87555e-09
9.24023e-09
1.47385e-08
1.70581e-08
2.12773e-08
1.76037e-06
1.78805e-06
9.44025e-07
5.57228e-07
3.39685e-07
2.08249e-07
1.26052e-07
6.75998e-08
2.06841e-08
3.30717e-08
8.05983e-07
4.58594e-07
3.76849e-07
2.7914e-07
1.97209e-07
1.35196e-07
8.86747e-08
5.26206e-08
2.54154e-08
5.16899e-09
1.9226e-09
1.27276e-10
5.47286e-10
1.52731e-10
7.382e-10
1.78186e-10
1.52731e-10
8.01838e-10
2.03641e-10
2.54552e-11
5.28045e-05
2.80761e-05
2.275e-06
2.8874e-06
3.17282e-06
2.41016e-06
1.58943e-06
8.89903e-07
2.96978e-07
2.89005e-07
7.09084e-10
2.18683e-10
2.81164e-10
2.49924e-10
1.56202e-10
7.28944e-10
1.04135e-11
9.37213e-11
7.28944e-11
0
0.000265457
0.000160991
9.58648e-05
5.51603e-05
3.14638e-05
1.79078e-05
9.86069e-06
4.52617e-06
1.78018e-07
4.45609e-06
0.525376
0.418534
0.529665
0.918858
0.685712
0.623531
0.738834
1.11514
0.84945
0.79138
0.93772
1.44104
0.616769
0.593293
0.702866
1.0999
0.450821
0.449349
0.533531
0.863745
0.298857
0.295319
0.366284
0.623247
0.199142
0.190052
0.253824
0.455957
0.128724
0.118668
0.17001
0.316625
0.0890093
0.0812794
0.122698
0.23208
0.0671122
0.0619237
0.0999319
0.189138
0.0357928
0.00179482
1.5286e-05
0.0190026
0.0784717
0.00651823
1.13767e-05
0.0409304
0.136602
0.0152006
6.12665e-06
0.0704128
0.125014
0.0170244
3.15016e-06
0.0603884
0.110373
0.0170017
1.61418e-06
0.048945
0.0854707
0.0142568
8.33781e-07
0.0376181
0.0645902
0.0110892
4.41561e-07
0.0305862
0.046637
0.00836925
2.54467e-07
0.0232719
0.0359281
0.00717961
0.00104562
0.0185179
0.0303008
0.00829552
0.00384357
0.0155899
0.0170907
0.0134392
0.0141183
0.0196685
0.0386996
0.0266548
0.0261676
0.0407987
0.074943
0.0486867
0.0492557
0.0796672
0.0710771
0.0430858
0.0446976
0.0750124
0.0651531
0.0370896
0.0395933
0.0699985
0.0520755
0.0280808
0.0307187
0.056758
0.0405271
0.020706
0.0232844
0.0452929
0.0300653
0.0145958
0.0167486
0.0337846
0.0236196
0.0105103
0.0124542
0.0261038
0.020212
0.00855847
0.0106317
0.0216466
0.00192352
0.0013896
0.00133848
0.00195017
0.00609346
0.00417357
0.00386276
0.00631438
0.016237
0.0110096
0.0104779
0.0165953
0.0190534
0.01256
0.0123987
0.0189752
0.0207356
0.0131803
0.0136126
0.0207428
0.018984
0.0116484
0.0124632
0.0190614
0.0164703
0.00969666
0.0107132
0.0167702
0.0134463
0.00763403
0.00863525
0.0137117
0.0112549
0.005867
0.00694736
0.0112847
0.0100082
0.00511331
0.00651867
0.0101289
0.000611822
0.000571008
0.000600824
0.00081854
0.00226777
0.00210408
0.00236537
0.00340791
0.00609406
0.0057435
0.00640427
0.0088936
0.00729787
0.00655152
0.00706149
0.00960347
0.00838932
0.00714112
0.00763834
0.0103555
0.00815191
0.00657002
0.00705041
0.009526
0.00747827
0.00569734
0.00619277
0.00842881
0.00651656
0.00471161
0.00519215
0.00707119
0.00586942
0.0038941
0.00447952
0.00607128
0.00562455
0.00371298
0.00458683
0.00585602
0.00011326
0.00010537
0.000105265
0.000164635
0.000767145
0.000722221
0.000846189
0.00123498
0.00245547
0.00248939
0.00298695
0.00410977
0.00302195
0.00305503
0.00354468
0.00471955
0.00358867
0.00355387
0.00404135
0.00531666
0.00362202
0.00345503
0.00387397
0.00504178
0.00343551
0.00313853
0.00350041
0.00452747
0.00316826
0.00274822
0.00305644
0.00390957
0.00307207
0.0024526
0.0028059
0.00348426
0.00304826
0.00239569
0.0029081
0.0033848
1.07414e-05
1.01019e-05
5.50362e-06
2.43358e-05
0.000271301
0.000251904
0.000301307
0.000460199
0.00117409
0.00119848
0.00148078
0.00206886
0.00149334
0.00157229
0.00189727
0.00252881
0.00180169
0.0019156
0.00227774
0.00297891
0.00184697
0.00193518
0.00226368
0.00291876
0.0017544
0.00180041
0.00208306
0.0026514
0.00167741
0.00164899
0.00188
0.00235809
0.00170529
0.00156313
0.00179639
0.00214685
0.00170469
0.00154098
0.00183881
0.002066
1.26272e-05
4.53939e-06
4.38709e-06
4.50642e-06
7.52211e-05
6.33143e-05
7.5545e-05
0.000129484
0.00053663
0.000529356
0.000659989
0.000947435
0.000756086
0.000796186
0.000972941
0.00130508
0.000956207
0.00103648
0.00125617
0.00164796
0.00102312
0.00110983
0.00132795
0.00171501
0.000974424
0.00105709
0.00125338
0.00158842
0.000963746
0.00101434
0.00118024
0.00147258
0.000966883
0.000970504
0.00111818
0.00131583
0.000981786
0.000984397
0.00115958
0.00129024
1.044e-05
3.64631e-06
3.53821e-06
3.61903e-06
1.1836e-05
6.06167e-06
5.90316e-06
2.00524e-05
0.000232837
0.000210214
0.000261995
0.000401018
0.000377353
0.000391241
0.000479744
0.000649637
0.000504257
0.000548824
0.000670682
0.0008842
0.000578888
0.000636227
0.000768774
0.000996891
0.000555847
0.000620323
0.000744212
0.000940775
0.000577014
0.000629699
0.000740819
0.00092385
0.000550787
0.000586395
0.000675331
0.000791761
0.000582602
0.000627062
0.000731008
0.000812949
7.72705e-06
2.58011e-06
2.47742e-06
2.59869e-06
2.40517e-06
9.63706e-07
9.36861e-07
1.04269e-06
8.76648e-05
6.05228e-05
7.364e-05
0.000138319
0.000181769
0.000182073
0.000222735
0.000305962
0.000256571
0.000277001
0.000340048
0.000452112
0.000322188
0.000354478
0.000430457
0.000562194
0.000308101
0.000349925
0.000422305
0.000532227
0.000344953
0.000383481
0.000453853
0.000567929
0.000315018
0.000347567
0.000400077
0.000469633
0.000351713
0.000395359
0.000457401
0.00050962
7.25209e-06
2.34897e-06
2.21335e-06
2.28334e-06
2.05156e-06
7.12831e-07
7.05307e-07
7.85553e-07
2.219e-05
3.05785e-07
2.93583e-07
2.17323e-05
8.33148e-05
7.8598e-05
9.51783e-05
0.000133389
0.000125349
0.000132544
0.000163205
0.000220227
0.000177229
0.000193283
0.000235505
0.000311284
0.000163674
0.000188243
0.000228139
0.00028607
0.000205329
0.0002295
0.000272849
0.000344188
0.000177973
0.000200208
0.000230443
0.000271038
0.000212976
0.000245228
0.000282669
0.000315257
2.24612e-06
8.03236e-07
8.59447e-07
1.01805e-06
1.48412e-06
4.88392e-07
4.81413e-07
5.36004e-07
5.93122e-07
2.21601e-07
2.11043e-07
2.37649e-07
3.48059e-05
2.94947e-05
3.47088e-05
4.97993e-05
5.74449e-05
5.84095e-05
7.20484e-05
9.97374e-05
9.63716e-05
0.00010327
0.000126131
0.000169735
8.13752e-05
9.49013e-05
0.000115441
0.000143107
0.000122225
0.000135848
0.000162218
0.000207499
9.59331e-05
0.000108958
0.000125385
0.000147494
0.000127704
0.000148791
0.000171631
0.000191127
8.87488e-06
2.18776e-06
1.75308e-06
1.46565e-06
1.29398e-06
4.69459e-07
4.80581e-07
5.64697e-07
4.44099e-07