/*--------------------------------*- C++ -*----------------------------------*\
| =========                 |                                                 |
| \\      /  F ield         | foam-extend: Open Source CFD                    |
|  \\    /   O peration     | Version:     4.0                                |
|   \\  /    A nd           | Web:         http://www.foam-extend.org         |
|    \\/     M anipulation  |                                                 |
\*---------------------------------------------------------------------------*/
FoamFile
{
    version     2.0;
    format      ascii;
    class       volVectorField;
    location    "3300";
    object      Urel;
}
// * * * * * * * * * * * * * * * * * * * * * * * * * * * * * * * * * * * * * //

dimensions      [0 1 -1 0 0 0 0];

internalField   nonuniform List<vector> 
34480
(
(209.006 -9.79387 -19.0913)
(209.326 -9.29356 -21.5539)
(209.483 -8.56823 -23.9805)
(209.49 -7.64374 -26.414)
(209.34 -6.5589 -28.9928)
(208.998 -5.31651 -31.8924)
(208.382 -3.89687 -35.513)
(207.216 -2.18375 -40.1992)
(204.545 0.0514668 -48.1214)
(197.607 4.25579 -75.292)
(209.939 -12.8026 -26.8101)
(210.198 -11.6753 -29.5941)
(210.325 -10.3937 -32.2539)
(210.298 -8.97163 -34.8571)
(210.063 -7.44589 -37.5207)
(209.56 -5.83624 -40.4523)
(208.753 -4.16164 -44.1115)
(207.46 -2.36809 -49.2403)
(204.324 -0.294143 -58.0613)
(196.165 3.65909 -88.6315)
(210.628 -17.1 -33.7471)
(210.862 -15.5488 -36.8323)
(210.956 -13.8204 -39.7795)
(210.886 -11.9089 -42.6023)
(210.59 -9.87008 -45.4281)
(210.063 -7.73813 -48.5136)
(209.311 -5.54052 -52.3874)
(208.167 -3.20757 -58.078)
(204.866 -0.572363 -67.7765)
(195.656 4.13223 -101.291)
(210.635 -20.4952 -41.1594)
(210.87 -18.4132 -44.5391)
(210.98 -16.1555 -47.7258)
(210.942 -13.7039 -50.7507)
(210.708 -11.1152 -53.7484)
(210.294 -8.42636 -57.005)
(209.677 -5.67008 -61.0515)
(208.697 -2.76745 -67.1365)
(205.371 0.454478 -77.4584)
(195.357 5.84595 -112.88)
(210.795 -24.9721 -48.0212)
(211.059 -22.4804 -51.6783)
(211.206 -19.7754 -55.1516)
(211.231 -16.8383 -58.4263)
(211.088 -13.7453 -61.6621)
(210.809 -10.5334 -65.1568)
(210.341 -7.22957 -69.4384)
(209.544 -3.74431 -75.9425)
(206.317 0.102466 -86.932)
(195.66 6.19702 -123.872)
(210.68 -28.2267 -55.6175)
(210.955 -25.2351 -59.5114)
(211.122 -22.0156 -63.1532)
(211.181 -18.5473 -66.5715)
(211.106 -14.8976 -69.9185)
(210.943 -11.1092 -73.5164)
(210.628 -7.21097 -77.8772)
(210.047 -3.11587 -84.6084)
(207.067 1.37632 -96.0829)
(196.01 8.10824 -134.171)
(210.761 -33.0088 -62.4757)
(211.077 -29.628 -66.6098)
(211.273 -25.9841 -70.5012)
(211.37 -22.0659 -74.1262)
(211.354 -17.9487 -77.666)
(211.288 -13.669 -81.4439)
(211.114 -9.23125 -85.9759)
(210.749 -4.53237 -92.9912)
(208.099 0.698951 -105.044)
(196.748 8.26174 -144.125)
(210.589 -36.1792 -70.3227)
(210.909 -32.3265 -74.664)
(211.084 -28.1647 -78.6834)
(211.14 -23.7085 -82.4175)
(211.083 -19.0116 -86.0105)
(211 -14.1314 -89.7905)
(210.871 -9.06509 -94.257)
(210.663 -3.70527 -101.229)
(208.421 2.37077 -113.47)
(197.105 10.8377 -153.055)
(210.534 -41.4427 -77.152)
(210.898 -37.2229 -81.6793)
(211.104 -32.6856 -85.8818)
(211.198 -27.8697 -89.7669)
(211.192 -22.8305 -93.5202)
(211.153 -17.5978 -97.4459)
(211.093 -12.1154 -102.078)
(211.024 -6.23072 -109.204)
(209.112 0.774874 -121.818)
(197.68 10.7322 -161.342)
(209.569 -44.6439 -85.1139)
(209.843 -40.0419 -89.9224)
(209.79 -35.0029 -94.3273)
(209.431 -29.6475 -98.3967)
(208.813 -23.9894 -102.257)
(208.027 -18.0692 -106.189)
(207.158 -11.8217 -110.662)
(206.371 -5.05624 -117.278)
(204.433 2.95958 -129.041)
(194.247 14.3052 -166.631)
(205.891 1.91221 3.00056)
(206.369 1.10968 1.5439)
(206.556 0.426577 -0.00997708)
(206.473 -0.117378 -1.61008)
(206.095 -0.546493 -3.31983)
(205.333 -0.8613 -5.1516)
(203.985 -1.0659 -7.15911)
(201.62 -1.17177 -9.31733)
(198.154 -1.25686 -11.245)
(193.579 -1.15903 -14.3934)
(207.19 2.86858 2.79792)
(207.621 2.16426 1.16179)
(207.793 1.5194 -0.492269)
(207.704 0.943888 -2.18912)
(207.292 0.416514 -3.99635)
(206.437 -0.0687744 -5.97184)
(204.943 -0.527094 -8.20875)
(202.358 -0.993371 -10.9582)
(198.189 -1.5838 -14.0068)
(192.505 -1.82408 -20.5815)
(208.139 2.57761 3.30713)
(208.548 1.77154 1.54473)
(208.706 1.04487 -0.256781)
(208.606 0.422718 -2.09024)
(208.169 -0.133486 -4.02985)
(207.295 -0.63627 -6.15937)
(205.811 -1.11494 -8.66773)
(203.233 -1.5862 -12.0869)
(198.689 -2.15707 -16.3332)
(192.07 -2.07113 -26.7166)
(208.382 3.178 3.30356)
(208.797 2.40347 1.45616)
(208.976 1.69444 -0.403414)
(208.918 1.08827 -2.29704)
(208.545 0.546445 -4.31008)
(207.773 0.0572654 -6.56894)
(206.401 -0.41239 -9.29946)
(203.916 -0.855376 -13.2587)
(199.143 -1.36353 -18.4766)
(191.71 -0.933529 -32.4541)
(208.736 2.66843 3.83841)
(209.178 1.80902 1.93579)
(209.396 1.04216 -0.0203653)
(209.403 0.408595 -2.00867)
(209.121 -0.146911 -4.14619)
(208.485 -0.635651 -6.58672)
(207.264 -1.09251 -9.57247)
(204.941 -1.48863 -14.063)
(200.089 -1.90226 -20.2309)
(191.949 -1.07297 -37.6931)
(208.771 3.39309 3.63433)
(209.228 2.54121 1.71995)
(209.472 1.78359 -0.20679)
(209.521 1.16372 -2.17561)
(209.313 0.634898 -4.29773)
(208.805 0.182703 -6.7731)
(207.75 -0.224117 -9.84351)
(205.648 -0.548009 -14.6623)
(200.884 -0.83012 -21.5476)
(192.218 0.364655 -42.21)
(208.977 2.56685 4.16009)
(209.469 1.61606 2.23759)
(209.744 0.786401 0.259121)
(209.839 0.114203 -1.74956)
(209.699 -0.450712 -3.93585)
(209.306 -0.919937 -6.51578)
(208.412 -1.30999 -9.74448)
(206.556 -1.56824 -14.9178)
(201.998 -1.65622 -22.5677)
(192.908 0.00108038 -46.245)
(208.891 3.37382 3.69577)
(209.392 2.40956 1.80354)
(209.656 1.59812 -0.0881957)
(209.725 0.950774 -2.02436)
(209.569 0.441175 -4.12039)
(209.198 0.0372323 -6.62283)
(208.398 -0.26398 -9.78133)
(206.762 -0.418414 -15.0053)
(202.533 -0.20813 -23.0527)
(193.316 1.83442 -49.2174)
(208.903 2.05541 4.24516)
(209.436 0.977345 2.402)
(209.728 0.0661197 0.526003)
(209.834 -0.688956 -1.3777)
(209.735 -1.31844 -3.48069)
(209.437 -1.83477 -6.03048)
(208.759 -2.19007 -9.33542)
(207.35 -2.32164 -14.7937)
(203.46 -1.74189 -23.4886)
(193.992 1.0029 -51.498)
(207.981 2.86378 3.63696)
(208.458 1.69308 1.78959)
(208.575 0.7963 -0.0346793)
(208.362 0.067781 -1.90547)
(207.834 -0.474206 -3.92989)
(207.026 -0.85564 -6.35387)
(205.826 -1.01331 -9.46978)
(204.024 -0.832119 -14.5641)
(200.282 0.222237 -23.038)
(191.635 4.03739 -51.3446)
(203.517 1.42791 2.33437)
(204.02 0.83357 1.21629)
(204.201 0.302538 -0.0132741)
(204.098 -0.131744 -1.26342)
(203.697 -0.482349 -2.55463)
(202.95 -0.746702 -3.83245)
(201.764 -0.93458 -5.04907)
(199.989 -1.0715 -6.0548)
(197.434 -1.24287 -6.4985)
(194.217 -1.43224 -6.5169)
(204.912 2.41429 2.31325)
(205.407 1.87195 0.946132)
(205.587 1.34566 -0.448805)
(205.464 0.855017 -1.86579)
(205 0.389928 -3.33137)
(204.112 -0.0549524 -4.84816)
(202.639 -0.492937 -6.37975)
(200.31 -0.955658 -7.86299)
(196.687 -1.5545 -8.80245)
(191.847 -2.13657 -9.81071)
(205.947 2.21205 2.94809)
(206.447 1.52885 1.39544)
(206.627 0.890644 -0.208766)
(206.502 0.327188 -1.83808)
(206.014 -0.193566 -3.53885)
(205.061 -0.681539 -5.32777)
(203.445 -1.16149 -7.21466)
(200.801 -1.66358 -9.29204)
(196.299 -2.33215 -11.0028)
(189.857 -2.91117 -13.584)
(206.344 2.89695 2.99423)
(206.866 2.22032 1.31811)
(207.072 1.57955 -0.380872)
(206.982 1.01446 -2.11237)
(206.531 0.491541 -3.94035)
(205.615 0.00104342 -5.92309)
(203.983 -0.488924 -8.10652)
(201.17 -0.995794 -10.7406)
(195.931 -1.68092 -13.2006)
(187.995 -2.16623 -17.5586)
(206.846 2.42642 3.56884)
(207.4 1.64997 1.80548)
(207.643 0.940737 -0.0195613)
(207.609 0.340535 -1.87744)
(207.228 -0.2011 -3.86953)
(206.401 -0.692668 -6.08635)
(204.828 -1.16965 -8.60264)
(201.97 -1.63808 -11.8317)
(196.184 -2.28611 -15.1301)
(186.926 -2.57769 -21.5717)
(207.012 3.20018 3.38978)
(207.585 2.41738 1.59389)
(207.855 1.70781 -0.222481)
(207.863 1.11491 -2.08443)
(207.545 0.594111 -4.09229)
(206.815 0.133081 -6.38756)
(205.342 -0.303625 -9.06306)
(202.542 -0.715566 -12.7147)
(196.409 -1.27661 -16.715)
(186.061 -1.34001 -25.333)
(207.33 2.39048 3.93884)
(207.935 1.50287 2.11669)
(208.234 0.720178 0.231299)
(208.288 0.0785594 -1.68947)
(208.032 -0.470395 -3.78536)
(207.402 -0.934991 -6.22109)
(206.047 -1.33767 -9.12172)
(203.367 -1.66924 -13.2321)
(197.06 -2.06866 -18.0275)
(185.783 -1.79923 -28.9562)
(207.337 3.23553 3.47888)
(207.95 2.33244 1.68355)
(208.244 1.56579 -0.117605)
(208.28 0.948615 -1.97012)
(208.017 0.454333 -3.98472)
(207.414 0.0566611 -6.36734)
(206.145 -0.257233 -9.26059)
(203.617 -0.487878 -13.5544)
(197.326 -0.620571 -18.8722)
(185.387 -0.0696765 -31.8725)
(207.429 1.90357 4.0328)
(208.061 0.887433 2.27503)
(208.376 0.0349003 0.472703)
(208.441 -0.660692 -1.36159)
(208.22 -1.23124 -3.38785)
(207.68 -1.68699 -5.81522)
(206.521 -1.99264 -8.87654)
(204.188 -2.12671 -13.515)
(198.029 -1.86074 -19.6421)
(185.306 -0.7993 -34.2637)
(206.573 2.76958 3.39227)
(207.153 1.67667 1.66375)
(207.338 0.850637 -0.0526502)
(207.166 0.187343 -1.82458)
(206.629 -0.293666 -3.74855)
(205.717 -0.615383 -6.03825)
(204.201 -0.726517 -8.92243)
(201.631 -0.547164 -13.3058)
(195.609 0.21759 -19.5469)
(182.828 2.30022 -34.6944)
(201.781 0.949113 1.70179)
(202.218 0.54771 0.911411)
(202.369 0.165643 0.00790072)
(202.27 -0.157864 -0.896417)
(201.922 -0.428585 -1.80008)
(201.307 -0.641161 -2.62149)
(200.395 -0.807817 -3.29566)
(199.161 -0.952062 -3.68718)
(197.602 -1.12929 -3.58049)
(195.871 -1.36487 -2.75287)
(203.103 1.90749 1.7914)
(203.57 1.53201 0.71813)
(203.733 1.13484 -0.387721)
(203.602 0.741818 -1.49712)
(203.154 0.354137 -2.6017)
(202.344 -0.0309884 -3.67095)
(201.095 -0.424213 -4.62883)
(199.303 -0.848005 -5.34701)
(196.838 -1.37056 -5.40303)
(194.04 -1.93789 -4.6197)
(204.092 1.75989 2.50355)
(204.602 1.22001 1.20607)
(204.778 0.690195 -0.150832)
(204.636 0.204634 -1.51801)
(204.136 -0.26014 -2.91217)
(203.208 -0.712453 -4.31343)
(201.717 -1.17172 -5.65532)
(199.468 -1.66423 -6.84636)
(196.114 -2.29567 -7.29998)
(192.034 -2.99151 -6.92402)
(204.551 2.52657 2.58713)
(205.108 1.97217 1.13179)
(205.313 1.4208 -0.354575)
(205.191 0.916111 -1.8612)
(204.69 0.43288 -3.42373)
(203.723 -0.0381893 -5.05639)
(202.095 -0.526175 -6.71337)
(199.508 -1.05352 -8.37937)
(195.292 -1.75934 -9.29351)
(189.827 -2.52567 -9.54029)
(205.137 2.10099 3.20277)
(205.738 1.43198 1.62536)
(205.978 0.800229 -0.0199693)
(205.897 0.249926 -1.68742)
(205.432 -0.261443 -3.45168)
(204.489 -0.74182 -5.35628)
(202.811 -1.22416 -7.38188)
(200.008 -1.72774 -9.61126)
(195.04 -2.44204 -11.1402)
(188.235 -3.18122 -12.3679)
(205.394 2.92935 3.05271)
(206.023 2.23929 1.4184)
(206.29 1.59623 -0.243825)
(206.243 1.04565 -1.94383)
(205.817 0.54876 -3.75866)
(204.923 0.0930732 -5.7801)
(203.254 -0.359099 -8.01117)
(200.343 -0.826358 -10.6685)
(194.77 -1.50681 -12.7413)
(186.758 -2.16651 -15.1349)
(205.797 2.14606 3.6309)
(206.458 1.34318 1.94759)
(206.753 0.623352 0.194423)
(206.746 0.0242245 -1.58899)
(206.368 -0.498207 -3.52107)
(205.538 -0.951733 -5.71768)
(203.916 -1.36289 -8.22172)
(200.976 -1.74469 -11.3675)
(194.945 -2.30046 -14.1235)
(185.843 -2.77402 -17.9493)
(205.884 3.04181 3.18187)
(206.553 2.21934 1.51796)
(206.846 1.51089 -0.159336)
(206.828 0.93384 -1.88664)
(206.444 0.46329 -3.75591)
(205.631 0.076989 -5.92617)
(204.048 -0.247015 -8.4676)
(201.147 -0.535993 -11.8565)
(194.857 -0.880734 -15.1101)
(184.869 -1.19392 -20.3181)
(206.044 1.7084 3.76452)
(206.724 0.770866 2.12357)
(207.034 -0.0164567 0.423878)
(207.039 -0.652884 -1.30799)
(206.689 -1.16975 -3.21031)
(205.919 -1.57419 -5.43812)
(204.393 -1.84576 -8.14337)
(201.582 -1.99543 -11.8892)
(195.221 -1.94755 -15.9862)
(184.257 -1.89923 -22.3805)
(205.256 2.64802 3.10259)
(205.889 1.6452 1.5147)
(206.107 0.893048 -0.0759232)
(205.943 0.293624 -1.72675)
(205.373 -0.131747 -3.51646)
(204.349 -0.403142 -5.61281)
(202.583 -0.48176 -8.16709)
(199.582 -0.31664 -11.7257)
(193.24 0.228205 -16.0578)
(181.785 1.20164 -22.863)
(200.571 0.55112 1.19394)
(200.914 0.294917 0.666108)
(201.028 0.034056 0.0357597)
(200.953 -0.195281 -0.58309)
(200.694 -0.396656 -1.18743)
(200.256 -0.562396 -1.69751)
(199.643 -0.702064 -2.06662)
(198.881 -0.830798 -2.20479)
(198.016 -0.975075 -2.02032)
(197.164 -1.14158 -1.42912)
(201.727 1.43452 1.31136)
(202.121 1.20002 0.510251)
(202.258 0.920741 -0.321242)
(202.144 0.622173 -1.14562)
(201.771 0.313523 -1.93591)
(201.123 -0.00395559 -2.64897)
(200.178 -0.334777 -3.21066)
(198.934 -0.688746 -3.5126)
(197.411 -1.09412 -3.32757)
(195.914 -1.51127 -2.51764)
(202.577 1.2927 2.05043)
(203.048 0.890607 1.01564)
(203.209 0.470801 -0.083297)
(203.076 0.0689876 -1.18038)
(202.623 -0.329608 -2.26759)
(201.814 -0.729623 -3.30342)
(200.583 -1.14428 -4.20336)
(198.865 -1.59106 -4.83741)
(196.582 -2.12527 -4.81326)
(194.193 -2.6942 -3.92696)
(203.017 2.11733 2.14837)
(203.559 1.69108 0.935487)
(203.755 1.23755 -0.315481)
(203.626 0.803248 -1.5742)
(203.135 0.372897 -2.8471)
(202.225 -0.06003 -4.11447)
(200.775 -0.519668 -5.29415)
(198.642 -1.02522 -6.27061)
(195.552 -1.66462 -6.46641)
(192.083 -2.36904 -5.60752)
(203.616 1.72874 2.79425)
(204.221 1.17894 1.43095)
(204.453 0.63577 -0.00656713)
(204.349 0.145927 -1.45388)
(203.858 -0.322879 -2.95357)
(202.908 -0.776615 -4.50654)
(201.317 -1.24379 -6.04465)
(198.86 -1.74674 -7.49225)
(194.996 -2.42632 -8.08612)
(190.379 -3.19382 -7.53434)
(203.913 2.60712 2.66959)
(204.561 2.02454 1.22687)
(204.822 1.46013 -0.25186)
(204.742 0.962245 -1.75773)
(204.264 0.500787 -3.33669)
(203.308 0.0645947 -5.02976)
(201.637 -0.383719 -6.78409)
(198.952 -0.870438 -8.60572)
(194.393 -1.55925 -9.55977)
(188.652 -2.35306 -9.45945)
(204.362 1.85337 3.27562)
(205.05 1.15108 1.7611)
(205.338 0.505801 0.169069)
(205.29 -0.0419467 -1.44485)
(204.84 -0.529043 -3.16834)
(203.907 -0.962445 -5.06306)
(202.205 -1.37095 -7.11184)
(199.37 -1.77958 -9.39676)
(194.214 -2.37969 -10.8781)
(187.39 -3.09955 -11.5021)
(204.504 2.80595 2.83929)
(205.204 2.07976 1.3339)
(205.495 1.44066 -0.193549)
(205.439 0.912169 -1.76645)
(204.98 0.473521 -3.44903)
(204.044 0.106124 -5.34441)
(202.327 -0.218605 -7.4584)
(199.42 -0.543158 -9.9907)
(193.839 -0.991223 -11.8663)
(186.055 -1.65653 -13.2454)
(204.717 1.47464 3.45729)
(205.425 0.630489 1.95861)
(205.729 -0.0843272 0.386402)
(205.692 -0.659603 -1.21511)
(205.257 -1.12418 -2.95751)
(204.348 -1.48265 -4.93718)
(202.645 -1.72718 -7.22515)
(199.715 -1.8903 -10.0745)
(193.889 -1.98183 -12.6837)
(185.057 -2.39472 -14.8185)
(203.991 2.50146 2.77471)
(204.656 1.59933 1.34467)
(204.897 0.925128 -0.103766)
(204.741 0.389856 -1.61327)
(204.154 0.017447 -3.24031)
(203.069 -0.209342 -5.10204)
(201.2 -0.264034 -7.2727)
(198.102 -0.118998 -10.0005)
(192.174 0.260004 -12.811)
(182.634 0.640323 -15.1308)
(199.739 0.251686 0.824881)
(199.993 0.0931317 0.488408)
(200.075 -0.079548 0.0636013)
(200.023 -0.236488 -0.342712)
(199.848 -0.382075 -0.735395)
(199.56 -0.507322 -1.0465)
(199.175 -0.618472 -1.25087)
(198.724 -0.723003 -1.29412)
(198.247 -0.831643 -1.14383)
(197.791 -0.943193 -0.777497)
(200.717 1.04044 0.910867)
(201.019 0.911078 0.336731)
(201.126 0.728224 -0.260151)
(201.038 0.512478 -0.845169)
(200.755 0.277251 -1.38648)
(200.276 0.0267678 -1.84332)
(199.612 -0.237722 -2.15828)
(198.794 -0.516786 -2.25868)
(197.885 -0.815349 -2.03778)
(197.078 -1.10364 -1.43094)
(201.39 0.861569 1.63603)
(201.788 0.575035 0.842241)
(201.926 0.254811 -0.0152721)
(201.813 -0.0660562 -0.863777)
(201.436 -0.395749 -1.68088)
(200.784 -0.734756 -2.41795)
(199.839 -1.08966 -2.99864)
(198.61 -1.46914 -3.31459)
(197.136 -1.89525 -3.14387)
(195.749 -2.32526 -2.34647)
(201.758 1.71205 1.7204)
(202.246 1.40388 0.746231)
(202.423 1.04626 -0.269247)
(202.301 0.685475 -1.28317)
(201.86 0.315179 -2.28034)
(201.068 -0.0669958 -3.22109)
(199.871 -0.477716 -4.01849)
(198.23 -0.929468 -4.5453)
(196.096 -1.4685 -4.43725)
(193.955 -2.04071 -3.43905)
(202.316 1.34313 2.37751)
(202.884 0.910899 1.23665)
(203.097 0.459458 0.0179831)
(202.986 0.0360057 -1.20019)
(202.514 -0.381512 -2.43267)
(201.634 -0.795722 -3.64945)
(200.239 -1.22836 -4.76371)
(198.235 -1.69894 -5.64698)
(195.416 -2.29714 -5.77441)
(192.408 -2.96203 -4.76566)
(202.61 2.25827 2.26785)
(203.236 1.78728 1.03187)
(203.482 1.30764 -0.246572)
(203.383 0.869452 -1.54192)
(202.897 0.45208 -2.87082)
(201.964 0.0473178 -4.23245)
(200.423 -0.377637 -5.54366)
(198.122 -0.849227 -6.712)
(194.641 -1.48312 -7.0464)
(190.724 -2.22637 -6.09534)
(203.07 1.53071 2.89455)
(203.747 0.936753 1.56774)
(204.02 0.373366 0.156807)
(203.945 -0.116322 -1.26716)
(203.464 -0.560805 -2.76058)
(202.511 -0.965124 -4.33686)
(200.874 -1.35695 -5.93766)
(198.341 -1.76595 -7.50453)
(194.246 -2.34317 -8.22478)
(189.396 -3.07468 -7.55856)
(203.24 2.54058 2.46828)
(203.937 1.92022 1.14019)
(204.218 1.35843 -0.217925)
(204.135 0.885172 -1.61531)
(203.639 0.485194 -3.08705)
(202.659 0.143996 -4.68431)
(200.957 -0.168898 -6.36136)
(198.267 -0.501241 -8.14046)
(193.685 -0.973334 -9.13445)
(187.954 -1.71694 -8.79334)
(203.488 1.21048 3.12312)
(204.196 0.469749 1.78554)
(204.487 -0.167027 0.360797)
(204.418 -0.679452 -1.08806)
(203.935 -1.09255 -2.64478)
(202.963 -1.40836 -4.35252)
(201.236 -1.62842 -6.21898)
(198.442 -1.79478 -8.27892)
(193.523 -1.95811 -9.83221)
(186.815 -2.51403 -9.91441)
(202.813 2.33617 2.41847)
(203.482 1.54218 1.15875)
(203.733 0.949059 -0.134027)
(203.582 0.478214 -1.48548)
(202.994 0.156469 -2.92838)
(201.899 -0.0308403 -4.53214)
(200.048 -0.0680789 -6.30677)
(197.093 0.0555957 -8.29696)
(191.995 0.313709 -9.98369)
(184.568 0.412592 -10.0824)
(199.165 0.0421295 0.576358)
(199.35 -0.0565722 0.369758)
(199.406 -0.170413 0.0876303)
(199.374 -0.275802 -0.172445)
(199.263 -0.379259 -0.425536)
(199.085 -0.471393 -0.616464)
(198.855 -0.556058 -0.736408)
(198.597 -0.635522 -0.752734)
(198.335 -0.712794 -0.658274)
(198.074 -0.784022 -0.451625)
(199.988 0.740705 0.599027)
(200.205 0.682384 0.200232)
(200.283 0.572074 -0.211214)
(200.22 0.423584 -0.609822)
(200.019 0.251723 -0.966817)
(199.689 0.0621789 -1.25029)
(199.247 -0.139708 -1.42133)
(198.73 -0.349576 -1.43692)
(198.196 -0.562293 -1.25227)
(197.759 -0.754271 -0.850816)
(200.485 0.495516 1.28423)
(200.799 0.296419 0.694335)
(200.909 0.0590724 0.0457489)
(200.82 -0.18934 -0.591074)
(200.528 -0.45307 -1.18891)
(200.034 -0.729389 -1.7022)
(199.348 -1.01956 -2.07147)
(198.506 -1.32479 -2.2226)
(197.579 -1.64855 -2.04286)
(196.775 -1.95761 -1.47323)
(200.757 1.34207 1.33066)
(201.169 1.13255 0.573956)
(201.319 0.861547 -0.222732)
(201.215 0.571853 -1.01234)
(200.845 0.263698 -1.76785)
(200.199 -0.0613239 -2.44286)
(199.266 -0.411795 -2.96163)
(198.062 -0.792677 -3.22039)
(196.637 -1.22217 -3.01373)
(195.324 -1.65798 -2.19301)
(201.238 0.972683 1.97819)
(201.741 0.646436 1.05178)
(201.928 0.283057 0.0480915)
(201.824 -0.0725584 -0.948046)
(201.401 -0.433713 -1.93192)
(200.638 -0.79932 -2.85721)
(199.486 -1.18347 -3.63817)
(197.931 -1.59948 -4.14865)
(195.952 -2.0969 -4.06604)
(194.019 -2.62781 -3.11849)
(201.497 1.90626 1.86995)
(202.07 1.54175 0.841994)
(202.292 1.14714 -0.23172)
(202.189 0.772171 -1.31392)
(201.732 0.404857 -2.39861)
(200.88 0.0407036 -3.4575)
(199.546 -0.3455 -4.39854)
(197.675 -0.775077 -5.09977)
(195.127 -1.31993 -5.10525)
(192.504 -1.9457 -4.03103)
(201.938 1.19696 2.50642)
(202.573 0.711093 1.3748)
(202.824 0.23223 0.155131)
(202.735 -0.195343 -1.06964)
(202.262 -0.591734 -2.32911)
(201.356 -0.959304 -3.60164)
(199.882 -1.32166 -4.80837)
(197.74 -1.7068 -5.82717)
(194.631 -2.22173 -6.09922)
(191.266 -2.86457 -5.0734)
(202.11 2.25996 2.08455)
(202.774 1.74816 0.943387)
(203.037 1.26776 -0.233647)
(202.94 0.854129 -1.44322)
(202.442 0.497863 -2.69431)
(201.488 0.188602 -3.9975)
(199.91 -0.102021 -5.27599)
(197.561 -0.41764 -6.45331)
(193.978 -0.857838 -6.88315)
(189.88 -1.53912 -5.9233)
(202.378 0.926453 2.77516)
(203.058 0.293487 1.60957)
(203.331 -0.262307 0.345882)
(203.243 -0.711177 -0.935481)
(202.747 -1.07367 -2.29248)
(201.781 -1.34942 -3.72572)
(200.147 -1.54597 -5.20101)
(197.646 -1.7059 -6.629)
(193.705 -1.88954 -7.46374)
(188.791 -2.41859 -6.70007)
(201.741 2.16027 2.04526)
(202.387 1.47794 0.962288)
(202.636 0.967421 -0.165707)
(202.492 0.560751 -1.34766)
(201.924 0.287416 -2.59386)
(200.867 0.134967 -3.93394)
(199.132 0.110292 -5.33125)
(196.475 0.213103 -6.71451)
(192.319 0.384836 -7.61551)
(186.787 0.372406 -6.78109)
(198.759 -0.0985033 0.417777)
(198.896 -0.162727 0.295557)
(198.934 -0.239688 0.10703)
(198.915 -0.310321 -0.0578442)
(198.848 -0.383476 -0.222985)
(198.743 -0.449999 -0.343345)
(198.609 -0.512448 -0.420361)
(198.463 -0.570406 -0.432977)
(198.317 -0.623682 -0.383267)
(198.15 -0.668241 -0.273328)
(199.463 0.530696 0.367256)
(199.611 0.516936 0.0967124)
(199.665 0.457858 -0.176582)
(199.623 0.360804 -0.437988)
(199.489 0.240383 -0.664908)
(199.271 0.102594 -0.835112)
(198.989 -0.0453614 -0.924324)
(198.671 -0.197159 -0.908709)
(198.359 -0.344796 -0.771815)
(198.117 -0.47063 -0.513377)
(199.805 0.204889 1.00205)
(200.038 0.0667111 0.574559)
(200.122 -0.106032 0.096099)
(200.057 -0.293458 -0.370778)
(199.843 -0.498117 -0.800163)
(199.488 -0.715649 -1.15462)
(199.011 -0.943939 -1.39157)
(198.452 -1.17946 -1.46532)
(197.876 -1.41711 -1.32178)
(197.406 -1.63213 -0.94631)
(199.982 1.02644 0.99457)
(200.311 0.89291 0.424443)
(200.432 0.695104 -0.180673)
(200.349 0.469998 -0.776286)
(200.056 0.221814 -1.33176)
(199.557 -0.0450571 -1.8032)
(198.861 -0.332448 -2.13148)
(198.01 -0.639463 -2.24268)
(197.075 -0.967796 -2.02958)
(196.271 -1.28564 -1.4235)
(200.369 0.639158 1.61502)
(200.791 0.40152 0.883274)
(200.949 0.117542 0.0789865)
(200.858 -0.172799 -0.713863)
(200.502 -0.476231 -1.47949)
(199.876 -0.788501 -2.16742)
(198.969 -1.11701 -2.70374)
(197.809 -1.46803 -2.98659)
(196.453 -1.86399 -2.83143)
(195.218 -2.26679 -2.08454)
(200.573 1.57167 1.49516)
(201.072 1.30159 0.664709)
(201.265 0.987234 -0.211049)
(201.168 0.675471 -1.08916)
(200.763 0.361271 -1.94901)
(200.029 0.0436718 -2.74881)
(198.93 -0.294051 -3.40237)
(197.472 -0.666041 -3.79556)
(195.657 -1.11001 -3.64697)
(193.921 -1.60337 -2.71221)
(200.977 0.870659 2.12904)
(201.546 0.485722 1.18915)
(201.769 0.0894565 0.161015)
(201.677 -0.274856 -0.865976)
(201.24 -0.619883 -1.90117)
(200.428 -0.94512 -2.90243)
(199.168 -1.26871 -3.78746)
(197.434 -1.61286 -4.42103)
(195.149 -2.04659 -4.44745)
(192.849 -2.56757 -3.45688)
(201.127 1.97914 1.70436)
(201.734 1.57217 0.75024)
(201.972 1.17317 -0.2424)
(201.87 0.82097 -1.26113)
(201.401 0.511522 -2.29432)
(200.524 0.238289 -3.32552)
(199.138 -0.0225392 -4.26586)
(197.18 -0.305832 -5.00177)
(194.477 -0.683614 -5.08972)
(191.604 -1.24165 -4.02933)
(201.403 0.634422 2.42787)
(202.032 0.107766 1.43666)
(202.28 -0.367115 0.340277)
(202.184 -0.753151 -0.767085)
(201.705 -1.06636 -1.92179)
(200.799 -1.30418 -3.09464)
(199.335 -1.47734 -4.22896)
(197.207 -1.62394 -5.18396)
(194.167 -1.79831 -5.56507)
(190.666 -2.23199 -4.57255)
(200.79 1.98328 1.6678)
(201.391 1.41181 0.761359)
(201.627 0.983323 -0.198144)
(201.493 0.639594 -1.20546)
(200.963 0.412112 -2.2518)
(199.986 0.290279 -3.33739)
(198.433 0.274577 -4.39692)
(196.157 0.358302 -5.31039)
(192.902 0.468957 -5.695)
(188.926 0.424343 -4.59117)
(198.46 -0.191761 0.321278)
(198.567 -0.236986 0.252215)
(198.593 -0.291965 0.12249)
(198.582 -0.34013 0.0170252)
(198.543 -0.392369 -0.0945611)
(198.483 -0.440074 -0.174413)
(198.407 -0.485288 -0.229687)
(198.325 -0.526534 -0.245343)
(198.241 -0.562582 -0.226319)
(198.122 -0.590007 -0.173602)
(199.082 0.396298 0.199427)
(199.179 0.40897 0.0190435)
(199.215 0.384386 -0.1558)
(199.189 0.324868 -0.320391)
(199.102 0.244152 -0.458593)
(198.965 0.147903 -0.556188)
(198.789 0.043387 -0.598977)
(198.598 -0.0628757 -0.574078)
(198.416 -0.163152 -0.477325)
(198.28 -0.244477 -0.311625)
(199.297 -0.0129503 0.785437)
(199.463 -0.111527 0.481373)
(199.523 -0.236473 0.134751)
(199.478 -0.375129 -0.202076)
(199.328 -0.529753 -0.50735)
(199.083 -0.69586 -0.752841)
(198.764 -0.869595 -0.909793)
(198.402 -1.04538 -0.952067)
(198.047 -1.21543 -0.854312)
(197.772 -1.36179 -0.621803)
(199.394 0.772718 0.717086)
(199.644 0.693816 0.299589)
(199.738 0.554533 -0.145916)
(199.675 0.385094 -0.581616)
(199.454 0.191543 -0.978611)
(199.085 -0.0201923 -1.30019)
(198.587 -0.247591 -1.50354)
(198.001 -0.486239 -1.54014)
(197.395 -0.729948 -1.35772)
(196.902 -0.955078 -0.931546)
(199.685 0.356103 1.29887)
(200.023 0.187956 0.735202)
(200.15 -0.0281433 0.10696)
(200.076 -0.258871 -0.508551)
(199.791 -0.506569 -1.09112)
(199.301 -0.764906 -1.59404)
(198.615 -1.03642 -1.95892)
(197.777 -1.32147 -2.11244)
(196.862 -1.62675 -1.9542)
(196.077 -1.92105 -1.41126)
(199.825 1.26979 1.15769)
(200.241 1.07822 0.505684)
(200.402 0.835621 -0.187852)
(200.318 0.583889 -0.879831)
(199.977 0.322915 -1.54232)
(199.375 0.0544872 -2.13057)
(198.507 -0.230287 -2.57195)
(197.408 -0.539165 -2.77556)
(196.142 -0.88671 -2.57469)
(195.003 -1.25724 -1.84128)
(200.182 0.567737 1.77725)
(200.672 0.271707 1.01655)
(200.862 -0.0477105 0.171319)
(200.777 -0.350469 -0.668489)
(200.394 -0.643275 -1.49885)
(199.702 -0.92307 -2.2693)
(198.671 -1.20267 -2.90499)
(197.318 -1.497 -3.28526)
(195.677 -1.84702 -3.1966)
(194.125 -2.2454 -2.37603)
(200.294 1.7122 1.3426)
(200.826 1.40097 0.567048)
(201.034 1.07964 -0.246113)
(200.937 0.788029 -1.07971)
(200.516 0.526431 -1.90799)
(199.749 0.291535 -2.69978)
(198.585 0.0652384 -3.36782)
(197.018 -0.178086 -3.80029)
(195.032 -0.485347 -3.70297)
(193.052 -0.910366 -2.75645)
(200.569 0.346108 2.09531)
(201.13 -0.0808728 1.27276)
(201.348 -0.477963 0.342414)
(201.253 -0.803557 -0.592755)
(200.815 -1.06953 -1.55273)
(200.007 -1.27151 -2.49086)
(198.754 -1.42127 -3.34289)
(197.018 -1.5501 -3.96244)
(194.741 -1.70149 -4.08203)
(192.304 -2.03017 -3.14717)
(199.969 1.81517 1.29872)
(200.506 1.34963 0.562051)
(200.721 1.00025 -0.23113)
(200.6 0.716966 -1.06539)
(200.123 0.532282 -1.91751)
(199.258 0.437125 -2.76897)
(197.924 0.427789 -3.54129)
(196.053 0.494874 -4.1095)
(193.583 0.562945 -4.17924)
(190.809 0.519247 -3.11544)
(198.232 -0.255806 0.265843)
(198.319 -0.290745 0.229541)
(198.337 -0.333199 0.13547)
(198.332 -0.367331 0.0658006)
(198.31 -0.405655 -0.0140061)
(198.276 -0.440142 -0.071138)
(198.233 -0.472754 -0.115479)
(198.187 -0.501787 -0.135258)
(198.137 -0.525877 -0.13599)
(198.043 -0.54232 -0.116915)
(198.8 0.320919 0.0782205)
(198.862 0.348757 -0.0402981)
(198.886 0.346664 -0.147102)
(198.87 0.313614 -0.245247)
(198.816 0.262373 -0.324155)
(198.731 0.197921 -0.37533)
(198.625 0.126627 -0.390985)
(198.511 0.0543331 -0.363989)
(198.405 -0.0126091 -0.295271)
(198.326 -0.0646546 -0.185939)
(198.916 -0.167992 0.624927)
(199.028 -0.242245 0.411076)
(199.07 -0.333263 0.162492)
(199.04 -0.434582 -0.0787423)
(198.939 -0.548842 -0.295606)
(198.777 -0.672413 -0.468023)
(198.569 -0.800845 -0.577343)
(198.34 -0.928367 -0.609502)
(198.123 -1.04747 -0.5522)
(197.96 -1.14554 -0.417672)
(198.954 0.579833 0.495817)
(199.137 0.537818 0.198414)
(199.207 0.443177 -0.119644)
(199.161 0.319576 -0.428797)
(199.002 0.173353 -0.70464)
(198.739 0.0109806 -0.918876)
(198.394 -0.163037 -1.04216)
(198 -0.342758 -1.04428)
(197.611 -0.51951 -0.902056)
(197.308 -0.67625 -0.609708)
(199.156 0.129428 1.03353)
(199.416 0.012852 0.608904)
(199.515 -0.147809 0.129489)
(199.457 -0.326552 -0.337735)
(199.239 -0.523138 -0.772492)
(198.87 -0.730477 -1.13574)
(198.37 -0.947869 -1.38416)
(197.781 -1.1719 -1.46911)
(197.172 -1.40165 -1.33823)
(196.674 -1.61139 -0.963669)
(199.235 1.00974 0.866138)
(199.568 0.879688 0.368472)
(199.697 0.698187 -0.164652)
(199.627 0.50084 -0.694162)
(199.353 0.290536 -1.19043)
(198.88 0.070874 -1.61234)
(198.22 -0.160927 -1.90292)
(197.417 -0.40802 -1.99707)
(196.547 -0.67159 -1.79858)
(195.805 -0.940704 -1.25425)
(199.543 0.300162 1.46164)
(199.948 0.0784803 0.861092)
(200.106 -0.172553 0.183111)
(200.031 -0.417924 -0.487082)
(199.711 -0.660007 -1.13801)
(199.147 -0.893842 -1.71956)
(198.335 -1.12798 -2.16947)
(197.314 -1.37038 -2.3923)
(196.157 -1.64415 -2.2674)
(195.12 -1.93654 -1.63859)
(199.605 1.47062 1.01132)
(200.053 1.24247 0.399046)
(200.228 0.992036 -0.246682)
(200.141 0.757749 -0.908243)
(199.781 0.54298 -1.55198)
(199.139 0.346858 -2.14158)
(198.2 0.157239 -2.59941)
(196.989 -0.0438288 -2.83415)
(195.562 -0.284678 -2.65422)
(194.219 -0.594799 -1.88853)
(199.876 0.0717139 1.78968)
(200.359 -0.266197 1.12322)
(200.545 -0.591337 0.350733)
(200.458 -0.860558 -0.421497)
(200.075 -1.08225 -1.20235)
(199.386 -1.25078 -1.93802)
(198.356 -1.37756 -2.56668)
(196.99 -1.48632 -2.96)
(195.327 -1.60996 -2.94809)
(193.664 -1.84764 -2.17773)
(199.279 1.66538 0.949168)
(199.741 1.29739 0.369857)
(199.929 1.02194 -0.264849)
(199.823 0.795286 -0.933943)
(199.41 0.649784 -1.60485)
(198.672 0.577638 -2.24967)
(197.57 0.572806 -2.78836)
(196.088 0.625861 -3.11461)
(194.265 0.664535 -3.0109)
(192.377 0.633191 -2.10692)
(198.051 -0.30438 0.237551)
(198.126 -0.333757 0.220996)
(198.14 -0.369453 0.147726)
(198.137 -0.395152 0.0987497)
(198.125 -0.424545 0.0372723)
(198.106 -0.450114 -0.00769644)
(198.081 -0.473916 -0.0468942)
(198.056 -0.494362 -0.0705255)
(198.024 -0.510291 -0.0839964)
(197.945 -0.519628 -0.0851089)
(198.587 0.289413 -0.0112676)
(198.626 0.326101 -0.0878318)
(198.642 0.338382 -0.148353)
(198.632 0.323619 -0.201466)
(198.6 0.293644 -0.240952)
(198.549 0.252585 -0.261998)
(198.485 0.205672 -0.260763)
(198.418 0.157752 -0.23298)
(198.355 0.11364 -0.18174)
(198.309 0.0805381 -0.105152)
(198.625 -0.273125 0.509455)
(198.699 -0.333076 0.359347)
(198.726 -0.400735 0.181148)
(198.707 -0.474535 0.00780177)
(198.641 -0.557715 -0.1478)
(198.536 -0.647629 -0.272105)
(198.404 -0.74019 -0.353212)
(198.262 -0.830359 -0.384052)
(198.131 -0.911989 -0.357699)
(198.035 -0.976487 -0.288269)
(198.63 0.441135 0.324007)
(198.758 0.422559 0.118192)
(198.808 0.360643 -0.10176)
(198.777 0.273322 -0.314201)
(198.666 0.166392 -0.500173)
(198.486 0.0460081 -0.638973)
(198.252 -0.0829265 -0.71138)
(197.993 -0.214342 -0.699087)
(197.746 -0.339826 -0.593725)
(197.559 -0.447613 -0.395097)