/*--------------------------------*- C++ -*----------------------------------*\
| =========                 |                                                 |
| \\      /  F ield         | foam-extend: Open Source CFD                    |
|  \\    /   O peration     | Version:     4.0                                |
|   \\  /    A nd           | Web:         http://www.foam-extend.org         |
|    \\/     M anipulation  |                                                 |
\*---------------------------------------------------------------------------*/
FoamFile
{
    version     2.0;
    format      ascii;
    class       volScalarField;
    location    "4800";
    object      divFlux;
}
// * * * * * * * * * * * * * * * * * * * * * * * * * * * * * * * * * * * * * //

dimensions      [1 -3 -1 0 0 0 0];

internalField   nonuniform List<scalar> 
34480
(
0.0569651
0.0181847
0.0186049
0.0171931
0.0156278
0.0141323
0.0127332
0.0114635
0.010366
0.0094395
0.0146471
0.00741394
0.00747476
0.00723731
0.00701317
0.00673851
0.0063591
0.00589611
0.00540865
0.00494621
0.00341701
0.00225019
0.00229815
0.00233617
0.00240712
0.00246547
0.00245248
0.00235131
0.00218915
0.00200111
0.000955781
0.000714742
0.000733641
0.000757581
0.000796683
0.000837198
0.000854313
0.000833937
0.000780564
0.000706814
0.000266544
0.00021743
0.000225708
0.000235869
0.000250917
0.000267121
0.000275846
0.000270724
0.000251447
0.000222237
6.07336e-05
5.46029e-05
5.92376e-05
6.39479e-05
6.96042e-05
7.50481e-05
7.75945e-05
7.51602e-05
6.73659e-05
5.66469e-05
8.41867e-07
2.31498e-06
5.43174e-06
8.00867e-06
1.02343e-05
1.16767e-05
1.17456e-05
1.00735e-05
6.69753e-06
2.64369e-06
1.91728e-05
1.41704e-05
1.16161e-05
9.75247e-06
8.6535e-06
8.47638e-06
9.12268e-06
1.03926e-05
1.19982e-05
1.37011e-05
2.92074e-05
2.28382e-05
1.98289e-05
1.74971e-05
1.60215e-05
1.54507e-05
1.55984e-05
1.62644e-05
1.70887e-05
1.80251e-05
3.16703e-05
2.55002e-05
2.24427e-05
1.99839e-05
1.81688e-05
1.70651e-05
1.66693e-05
1.69298e-05
1.75672e-05
1.85338e-05
0.0737644
0.0210973
0.0215426
0.0201637
0.018616
0.0172443
0.016081
0.0151737
0.0146114
0.0154154
0.0206602
0.00952371
0.00961479
0.00933189
0.00904533
0.00881495
0.00860936
0.00840225
0.00822142
0.00878419
0.00518471
0.00318537
0.00325763
0.00331225
0.00341301
0.00351634
0.00359408
0.00362064
0.00358904
0.0038348
0.0015872
0.00112549
0.00115269
0.00118514
0.00124463
0.00130948
0.00136216
0.00138765
0.00137383
0.00144858
0.000478627
0.000375059
0.000386851
0.000401124
0.000423625
0.000449745
0.000470072
0.000477878
0.000465842
0.000476972
0.000112606
9.89472e-05
0.000106741
0.000113768
0.000121737
0.000129661
0.000134068
0.000132523
0.000122431
0.000115472
9.85157e-06
1.35927e-06
5.19436e-06
9.46983e-06
1.22718e-05
1.3065e-05
1.13043e-05
6.50233e-06
1.11946e-06
1.06721e-05
5.31583e-05
3.90711e-05
3.26346e-05
2.89592e-05
2.75936e-05
2.90485e-05
3.27182e-05
3.83039e-05
4.39981e-05
5.26081e-05
8.7719e-05
6.67844e-05
5.81669e-05
5.22684e-05
4.88497e-05
4.84709e-05
5.06848e-05
5.51671e-05
5.93992e-05
6.71057e-05
0.000100366
7.90964e-05
6.98277e-05
6.30769e-05
5.82851e-05
5.6292e-05
5.68505e-05
5.983e-05
6.34952e-05
7.15162e-05
0.0743709
0.0182164
0.0189454
0.0179631
0.0168804
0.0159748
0.015297
0.0149092
0.014979
0.0240728
0.020138
0.0078726
0.00803339
0.00774208
0.00748622
0.0073611
0.00735064
0.00744175
0.00770847
0.00733344
0.00476644
0.00251102
0.00256046
0.0025589
0.00258904
0.00266789
0.00279473
0.0029499
0.00314631
0.0002559
0.00138838
0.000853579
0.000867146
0.000873896
0.000897214
0.000936505
0.000996388
0.00106894
0.00115228
0.00133723
0.000402801
0.000276676
0.000282195
0.0002858
0.000295169
0.000309525
0.000330445
0.000355628
0.000381796
0.00043685
9.60066e-05
7.41048e-05
7.83138e-05
8.12606e-05
8.50613e-05
8.96508e-05
9.51344e-05
0.000100644
0.000103896
0.000110158
4.83583e-07
4.56767e-06
8.44836e-06
1.11763e-05
1.3217e-05
1.43595e-05
1.44272e-05
1.28311e-05
8.25571e-06
1.18002e-06
2.91546e-05
1.89373e-05
1.52215e-05
1.2464e-05
1.08202e-05
1.06724e-05
1.22373e-05
1.60927e-05
2.29763e-05
3.68022e-05
4.46458e-05
3.06609e-05
2.67288e-05
2.34989e-05
2.13724e-05
2.0774e-05
2.20104e-05
2.57867e-05
3.29723e-05
4.88051e-05
4.4148e-05
3.08403e-05
2.74205e-05
2.46682e-05
2.28639e-05
2.23229e-05
2.31545e-05
2.61085e-05
3.29283e-05
5.14243e-05
0.0752509
0.0165612
0.0173948
0.0167029
0.0158945
0.0152313
0.0147679
0.0132666
0.00445554
0.0128389
0.0207662
0.00745314
0.00762712
0.00733178
0.00705288
0.00688333
0.0068382
0.00692597
0.00610254
0.00595209
0.00495103
0.00243387
0.00247731
0.00244685
0.00243796
0.00247483
0.00256487
0.00270622
0.00289993
0.00177286
0.00146233
0.000849881
0.000861379
0.000859408
0.000867396
0.000890733
0.000935189
0.0010002
0.00108403
0.000215353
0.000430836
0.000282669
0.000287604
0.000288892
0.00029417
0.000303311
0.000319304
0.00034205
0.000369741
0.000474259
0.00010532
7.80311e-05
8.20823e-05
8.45796e-05
8.74897e-05
9.08281e-05
9.52139e-05
0.000100448
0.000105133
0.00022785
2.74911e-06
6.08399e-06
9.95543e-06
1.26978e-05
1.47061e-05
1.58419e-05
1.5993e-05
1.47227e-05
1.10596e-05
3.88189e-06
2.91944e-05
1.86477e-05
1.49409e-05
1.2116e-05
1.03419e-05
9.89502e-06
1.11096e-05
1.4599e-05
2.1083e-05
3.25776e-05
4.44469e-05
3.04124e-05
2.66232e-05
2.35287e-05
2.14444e-05
2.07112e-05
2.17553e-05
2.53569e-05
3.25253e-05
4.64548e-05
4.36551e-05
3.04121e-05
2.71912e-05
2.46134e-05
2.29715e-05
2.24849e-05
2.34216e-05
2.65418e-05
3.35052e-05
5.02098e-05
0.074478
0.0147458
0.0156496
0.0151826
0.0145652
0.0140457
0.0117718
0.00813808
0.00350151
0.00488224
0.0209464
0.00690188
0.00710692
0.00684798
0.00657663
0.00637509
0.0062622
0.0062516
0.00377032
0.00277315
0.00508463
0.00232426
0.00236675
0.00231827
0.00228141
0.00227822
0.00231556
0.00239778
0.00241438
0.000610386
0.00152629
0.000834601
0.000845742
0.000836686
0.000833246
0.000841252
0.000865086
0.000906757
0.00096454
0.000469804
0.000456129
0.000284684
0.000289482
0.00028932
0.000290791
0.000295161
0.000304551
0.000319789
0.000340027
0.000592197
0.000113653
8.0748e-05
8.47592e-05
8.691e-05
8.90356e-05
9.11614e-05
9.39584e-05
9.75646e-05
0.000101357
0.000453131
4.65572e-06
7.41543e-06
1.12233e-05
1.39451e-05
1.58812e-05
1.69608e-05
1.7134e-05
1.61565e-05
1.34911e-05
0.000252674
2.92732e-05
1.8137e-05
1.45495e-05
1.17574e-05
9.94273e-06
9.27775e-06
1.00582e-05
1.27628e-05
1.79344e-05
0.000127026
4.41402e-05
2.9697e-05
2.61277e-05
2.32313e-05
2.12714e-05
2.04836e-05
2.12548e-05
2.42466e-05
3.03274e-05
2.45505e-06
4.31259e-05
2.9522e-05
2.65309e-05
2.41389e-05
2.26305e-05
2.21821e-05
2.31085e-05
2.60661e-05
3.23113e-05
4.63843e-05
0.0721375
0.0128399
0.0137589
0.0134574
0.0128339
0.0112546
0.00939487
0.00751018
0.00528669
0.00161844
0.0205711
0.00622798
0.00645926
0.0062521
0.00601508
0.00581961
0.00567908
0.00518797
0.00340167
4.44555e-05
0.00515104
0.00218187
0.00222587
0.00216846
0.00211479
0.00208375
0.00207979
0.00210613
0.00204698
0.000388024
0.00157505
0.000807405
0.000818786
0.000804562
0.000792713
0.000788692
0.000795315
0.000814154
0.000873439
0.000690794
0.000477362
0.000282461
0.000287492
0.000285758
0.000284381
0.000284852
0.000288581
0.000296302
0.000307152
0.000610615
0.000120987
8.22755e-05
8.62752e-05
8.81388e-05
8.94905e-05
9.06039e-05
9.19955e-05
9.38716e-05
9.59005e-05
0.000469882
6.46878e-06
8.63847e-06
1.23403e-05
1.49966e-05
1.68365e-05
1.78432e-05
1.80252e-05
1.7287e-05
1.53989e-05
0.000309772
2.91523e-05
1.73744e-05
1.39673e-05
1.12527e-05
9.43557e-06
8.61682e-06
9.0127e-06
1.09227e-05
1.46437e-05
0.000226193
4.36002e-05
2.86353e-05
2.53106e-05
2.26115e-05
2.07738e-05
1.99699e-05
2.05069e-05
2.28478e-05
2.75728e-05
0.000144975
4.2468e-05
2.83372e-05
2.5582e-05
2.33602e-05
2.19579e-05
2.15214e-05
2.23547e-05
2.49646e-05
3.01838e-05
0.000110451
0.0680713
0.0105136
0.0113174
0.0108869
0.0100221
0.00918219
0.00812847
0.00720447
0.00603433
0.00439004
0.0196696
0.00547521
0.00571831
0.00556123
0.00536607
0.00519707
0.00504573
0.0045497
0.00344456
0.00158631
0.00512537
0.00200806
0.00205602
0.00199906
0.00194025
0.00189579
0.00186849
0.00185994
0.00181294
0.000852525
0.00160066
0.000767256
0.000779799
0.000763256
0.0007468
0.000735292
0.000730447
0.00073308
0.000862803
0.000737554
0.00049218
0.000275334
0.000280762
0.000278066
0.000274887
0.00027269
0.0002724
0.000274465
0.00027779
0.000552825
0.000126885
8.23686e-05
8.63922e-05
8.79748e-05
8.87715e-05
8.9161e-05
8.95145e-05
9.0019e-05
9.0394e-05
0.000413381
8.29069e-06
9.74033e-06
1.32951e-05
1.58501e-05
1.75829e-05
1.85239e-05
1.87134e-05
1.8151e-05
1.6761e-05
0.000277502
2.86411e-05
1.631e-05
1.31269e-05
1.05272e-05
8.74112e-06
7.82591e-06
7.92589e-06
9.19267e-06
1.1728e-05
0.00021747
4.26612e-05
2.72118e-05
2.4143e-05
2.163e-05
1.99041e-05
1.91013e-05
1.94516e-05
2.12406e-05
2.47795e-05
0.000158597
4.1535e-05
2.68568e-05
2.4337e-05
2.22734e-05
2.09532e-05
2.05052e-05
2.11899e-05
2.33657e-05
2.75436e-05
0.000132908
0.0625493
0.0079532
0.00882627
0.00873577
0.00824272
0.00779828
0.00716869
0.00673002
0.00602656
0.00532236
0.0183586
0.00469928
0.00493882
0.00482234
0.00466419
0.00452323
0.00437083
0.00403635
0.00340183
0.00241534
0.00497699
0.0018047
0.00185674
0.00180688
0.00175187
0.00170619
0.00167187
0.00168626
0.00162046
0.00104879
0.00159234
0.000712971
0.000727233
0.000711113
0.000693789
0.00067956
0.00066945
0.000663816
0.000793582
0.000696942
0.000497649
0.000262662
0.000268596
0.000265647
0.000261782
0.000258334
0.000255883
0.000254665
0.000295249
0.000467074
0.000130717
8.07673e-05
8.47973e-05
8.61855e-05
8.66908e-05
8.66879e-05
8.64398e-05
8.60862e-05
8.97525e-05
0.000338018
1.01218e-05
1.0655e-05
1.40243e-05
1.64406e-05
1.80666e-05
1.89592e-05
1.91691e-05
1.87381e-05
1.76482e-05
0.000221767
2.76144e-05
1.49365e-05
1.20071e-05
9.56398e-06
7.8413e-06
6.88773e-06
6.78105e-06
7.57967e-06
9.27423e-06
0.000178288
4.11983e-05
2.54105e-05
2.26059e-05
2.02758e-05
1.86558e-05
1.78597e-05
1.8053e-05
1.93984e-05
2.20346e-05
0.000127435
4.02011e-05
2.50625e-05
2.27784e-05
2.08644e-05
1.96154e-05
1.91437e-05
1.96508e-05
2.13751e-05
2.46187e-05
0.000107041
0.0573793
0.00632967
0.00713143
0.00719021
0.00688637
0.00664236
0.00622914
0.00602506
0.00553665
0.00526372
0.0167742
0.00394763
0.00417187
0.00408653
0.00395869
0.00385429
0.00371826
0.00349476
0.00312932
0.00259121
0.00470294
0.00157966
0.00163324
0.00159232
0.00154463
0.00150357
0.00147095
0.00149789
0.0014295
0.00109494
0.00154334
0.000645232
0.000660765
0.000646475
0.000630437
0.000616543
0.00060548
0.000597415
0.000693924
0.000626048
0.000491422
0.000244312
0.000250598
0.00024782
0.000244013
0.000240372
0.000237262
0.000234798
0.000282779
0.000380948
0.000131862
7.73285e-05
8.12741e-05
8.25156e-05
8.28991e-05
8.27727e-05
8.23155e-05
8.16196e-05
0.000117847
0.00026603
1.18889e-05
1.13014e-05
1.44363e-05
1.66706e-05
1.81809e-05
1.90336e-05
1.92815e-05
1.8973e-05
1.8098e-05
0.000167236
2.60109e-05
1.3293e-05
1.06397e-05
8.38222e-06
6.76345e-06
5.82046e-06
5.5847e-06
6.06292e-06
4.08916e-06
0.000136862
3.91343e-05
2.32524e-05
2.07168e-05
1.85764e-05
1.70601e-05
1.62767e-05
1.63322e-05
1.73135e-05
1.92731e-05
8.74144e-05
3.83783e-05
2.2959e-05
2.09082e-05
1.91479e-05
1.79681e-05
1.74705e-05
1.77978e-05
1.90987e-05
2.15491e-05
7.41315e-05
0.0521925
0.00514617
0.00582138
0.00593562
0.00572981
0.00558807
0.00528978
0.00520165
0.00482588
0.00475206
0.015032
0.00325138
0.00345261
0.0033908
0.00330363
0.00321682
0.00309968
0.002948
0.00273054
0.00241916
0.00432945
0.00134679
0.00139854
0.00136564
0.00132524
0.00128973
0.0012609
0.00128414
0.00122699
0.00103149
0.00145558
0.000567731
0.000583474
0.000571237
0.000557032
0.000544467
0.000534093
0.000526012
0.000585058
0.000542508
0.000472879
0.000221055
0.000227338
0.000224818
0.000221298
0.000217874
0.000214796
0.000212125
0.000245767
0.000303261
0.000129911
7.21071e-05
7.58315e-05
7.69005e-05
7.71996e-05
7.70499e-05
7.65767e-05
7.58413e-05
0.000115551
0.000202507
1.34605e-05
1.16063e-05
1.44488e-05
1.64565e-05
1.78214e-05
1.86174e-05
1.88937e-05
1.86962e-05
1.80018e-05
0.000118526
2.38495e-05
1.1455e-05
9.09498e-06
7.05312e-06
5.57212e-06
4.67571e-06
4.36882e-06
4.6369e-06
1.04871e-05
9.938e-05
3.64511e-05
2.07937e-05
1.85318e-05
1.65846e-05
1.51878e-05
1.44263e-05
1.43612e-05
1.50393e-05
1.64703e-05
5.28398e-05
3.60202e-05
2.05807e-05
1.87633e-05
1.71598e-05
1.60605e-05
1.55495e-05
1.57141e-05
1.66464e-05
1.79738e-05
4.59639e-05
0.0469119
0.00418399
0.00472192
0.00484899
0.00469845
0.00461162
0.00437971
0.00435286
0.00404322
0.00406029
0.0132168
0.00267413
0.00280999
0.00277946
0.0027078
0.00262301
0.00252971
0.00242556
0.00229201
0.00209872
0.00388908
0.00111941
0.00116668
0.00114046
0.00110655
0.00107616
0.00107885
0.00106855
0.00102244
0.000902315
0.00133629
0.000485589
0.000500516
0.00049014
0.000477701
0.000466529
0.00045713
0.000449578
0.000480488
0.000453905
0.000442948
0.000194325
0.000200239
0.000197927
0.000194685
0.000191513
0.000188606
0.000186002
0.000204405
0.000237534
0.000124742
6.53551e-05
6.87254e-05
6.95768e-05
6.976e-05
6.95697e-05
6.91021e-05
6.83992e-05
0.000101652
0.00015087
1.46746e-05
1.15152e-05
1.40187e-05
1.57583e-05
1.69427e-05
1.76486e-05
1.79197e-05
1.77976e-05
1.72439e-05
7.8745e-05
2.12157e-05
9.52583e-06
7.47231e-06
5.67083e-06
4.35282e-06
3.5305e-06
3.1951e-06
3.3236e-06
1.49334e-05
6.89194e-05
3.31797e-05
1.81188e-05
1.61352e-05
1.43958e-05
1.31339e-05
1.2408e-05
1.22508e-05
1.26807e-05
1.36889e-05
2.77562e-05
3.31268e-05
1.7991e-05
1.64091e-05
1.49726e-05
1.39709e-05
1.34615e-05
1.34959e-05
1.41264e-05
1.21001e-05
2.55111e-05
0.0415262
0.00335343
0.00376267
0.00388513
0.0037712
0.00371752
0.00352989
0.00354149
0.00327514
0.00333524
0.011386
0.0021509
0.00225278
0.0022192
0.00215588
0.00208593
0.00201606
0.00194509
0.00186172
0.00173345
0.00340832
0.000906666
0.000947726
0.000927041
0.000900869
0.000898204
0.000887943
0.000865466
0.000828148
0.000748631
0.00119355
0.000403434
0.000416796
0.000408092
0.000397333
0.000387539
0.000379178
0.000372314
0.000384502
0.000367197
0.000403317
0.000165717
0.000170986
0.000168857
0.000165874
0.000162944
0.000160228
0.000157754
0.00016597
0.000183506
0.000116458
5.74415e-05
6.03619e-05
6.09756e-05
6.10193e-05
6.07609e-05
6.02752e-05
5.95964e-05
8.54828e-05
0.000111356
1.53671e-05
1.1006e-05
1.31376e-05
1.45864e-05
1.55682e-05
1.61539e-05
1.63873e-05
1.62998e-05
1.58477e-05
4.92999e-05
1.82533e-05
7.6166e-06
5.87707e-06
4.33337e-06
3.19542e-06
2.46836e-06
2.1363e-06
2.17354e-06
1.55695e-05
4.67256e-05
2.94081e-05
1.5335e-05
1.36326e-05
1.21158e-05
1.10036e-05
1.03327e-05
1.0116e-05
1.0356e-05
1.10327e-05
1.11165e-05
2.97434e-05
1.52802e-05
1.39341e-05
1.26785e-05
1.17884e-05
1.13011e-05
1.12426e-05
1.16405e-05
9.12546e-06
1.22161e-05
0.0361399
0.00263315
0.00292725
0.0030352
0.002945
0.00290846
0.00274902
0.00278439
0.00254166
0.00261951
0.00957776
0.00163704
0.00172585
0.00170317
0.00165872
0.00160882
0.00156118
0.00151556
0.00146499
0.00137663
0.00293813
0.000749885
0.00078399
0.000768787
0.000748756
0.000728593
0.000707106
0.000682071
0.000651434
0.000594447
0.00103465
0.000324741
0.000336067
0.0003289
0.0003198
0.000311418
0.000304183
0.000298152
0.000298401
0.000286919
0.000355924
0.000136689
0.000141146
0.000139215
0.000136521
0.000133869
0.000131394
0.000129116
0.000132116
0.000139485
0.000105323
4.87825e-05
5.12042e-05
5.15931e-05
5.15073e-05
5.11836e-05
5.06808e-05
5.24712e-05
7.00123e-05
8.16582e-05
1.53997e-05
1.00929e-05
1.18394e-05
1.29957e-05
1.37695e-05
1.4225e-05
1.44002e-05
1.43235e-05
1.39434e-05
2.88508e-05
1.51376e-05
5.83364e-06
4.40501e-06
3.12727e-06
2.17853e-06
1.56147e-06
1.25685e-06
3.3738e-06
1.50959e-05
3.17585e-05
2.52713e-05
1.25587e-05
1.11359e-05
9.8508e-06
8.90154e-06
8.30478e-06
8.06315e-06
8.1695e-06
8.59886e-06
9.24174e-07
2.59644e-05
1.25523e-05
1.14404e-05
1.0375e-05
9.60922e-06
9.16499e-06
9.05152e-06
9.28066e-06
7.20592e-06
4.47879e-06
0.0306098
0.00201512
0.00222063
0.00232527
0.00226783
0.00225316
0.00212516
0.00218693
0.00196033
0.002051
0.00781902
0.00120608
0.00129339
0.00127665
0.00123788
0.00119825
0.00116351
0.00113453
0.00110666
0.0010454
0.0024094
0.000589821
0.0006254
0.000613319
0.0005916
0.000568498
0.000545261
0.000521492
0.000495933
0.000452218
0.000866117
0.000251983
0.000261044
0.000255306
0.000247856
0.000240926
0.000234895
0.000229807
0.000224045
0.000215374
0.000302863
0.000108492
0.000112059
0.000110366
0.000108019
0.000105705
0.000103537
0.00010153
0.000102985
0.000103814
9.17518e-05
3.98099e-05
4.17232e-05
4.19263e-05
4.17461e-05
4.13837e-05
4.08876e-05
4.97366e-05
5.60426e-05
5.92819e-05
1.46858e-05
8.82541e-06
1.01972e-05
1.10776e-05
1.16552e-05
1.19856e-05
1.20998e-05
1.20218e-05
1.17015e-05
1.52382e-05
1.20523e-05
4.26066e-06
3.1287e-06
2.11345e-06
1.35576e-06
8.55387e-07
3.43455e-06
9.62741e-06
1.4476e-05
2.21324e-05
2.09392e-05
9.90472e-06
8.75308e-06
7.70332e-06
6.92252e-06
6.41605e-06
6.17879e-06
6.20033e-06
6.45526e-06
4.66291e-06
2.19201e-05
9.9158e-06
9.03223e-06
8.16102e-06
7.52915e-06
7.14424e-06
7.00842e-06
7.12391e-06
5.65348e-06
5.32646e-07
0.0249492
0.00138779
0.00147611
0.00154476
0.00149653
0.00148728
0.00138477
0.00147395
0.00125928
0.00137246
0.00613722
0.000875457
0.000940171
0.000930107
0.000903201
0.000874912
0.000849655
0.00082825
0.000808294
0.000774809
0.00186178
0.00041966
0.000467038
0.000464868
0.000448497
0.000428015
0.000406528
0.00038507
0.000363166
0.000327676
0.000694396
0.000186955
0.000193735
0.000189313
0.000183479
0.000178004
0.000173209
0.000169124
0.000164454
0.000153731
0.000246461
8.21929e-05
8.48705e-05
8.34596e-05
8.15142e-05
7.95949e-05
7.77904e-05
7.61145e-05
7.81985e-05
7.51115e-05
7.6337e-05
3.09572e-05
3.23853e-05
3.24563e-05
3.22272e-05
3.38081e-05
4.03656e-05
4.30807e-05
4.36098e-05
4.22704e-05
1.32143e-05
7.29796e-06
8.31974e-06
8.95465e-06
9.36127e-06
9.58286e-06
9.64469e-06
9.56558e-06
9.29745e-06
8.3489e-06
0.000196921
6.77998e-05
2.26566e-05
1.34043e-05
1.20409e-05
1.24593e-05
1.33001e-05
1.32717e-05
1.40457e-05
1.6225e-05
1.65992e-05
7.47539e-06
6.57732e-06
5.75575e-06
5.14296e-06
4.73623e-06
4.5262e-06
4.5024e-06
4.64088e-06
4.9273e-06
1.77775e-05
7.47278e-06
6.8033e-06
6.12637e-06
5.62878e-06
5.31586e-06
5.18366e-06
5.23316e-06
4.34497e-06
1.22173e-06
0.0230909
0.00147665
0.00154042
0.00157405
0.00150526
0.00145276
0.00132291
0.00133616
0.00110636
0.00119004
0.00451607
0.000578414
0.000617297
0.000607169
0.000586894
0.000566999
0.000550315
0.000537098
0.000525352
0.000511243
0.00132139
0.000255457
0.000325338
0.000336628
0.000328549
0.000312653
0.000293898
0.000274673
0.000255263
0.000225271
0.000526097
0.000130889
0.000135562
0.000132347
0.000128054
0.000123991
0.000120405
0.000117318
0.000113744
0.000103963
0.000189367
5.86819e-05
6.05392e-05
5.94397e-05
5.79334e-05
5.71044e-05
5.82894e-05
5.81846e-05
5.70703e-05
5.2158e-05
0.000127829
6.05786e-05
4.50093e-05
3.96319e-05
3.78921e-05
3.70762e-05
3.61306e-05
3.43444e-05
3.23796e-05
2.91052e-05
1.10751e-05
5.63209e-06
6.34591e-06
6.77604e-06
7.04116e-06
7.17697e-06
7.20053e-06
7.12462e-06
6.90806e-06
6.11797e-06
0.000628247
0.000274468
0.000121046
6.21983e-05
3.72239e-05
2.54769e-05
1.94929e-05
1.55253e-05
1.38744e-05
1.28099e-05
1.24436e-05
5.34497e-06
4.68132e-06
4.06988e-06
3.6166e-06
3.30999e-06
3.1423e-06
3.10109e-06
3.16949e-06
3.30423e-06
1.37155e-05
5.31138e-06
4.83289e-06
4.3393e-06
3.97205e-06
3.73592e-06
3.62417e-06
3.66851e-06
3.305e-06
1.99479e-06
0.00272006
1.17163e-05
7.24441e-05
0.000178853
0.000270332
0.000344541
0.000404761
0.000454746
0.000381262
0.000541263
0.0032415
0.000445317
0.000470531
0.000461355
0.000442658
0.000422198
0.000402754
0.000385133
0.000368276
0.000351442
0.000813585
9.10056e-05
0.000199865
0.000228156
0.000230229
0.000219821
0.00020412
0.000186971
0.0001694
0.000143913
0.000369079
8.47253e-05
8.75878e-05
8.54125e-05
8.25004e-05
7.97266e-05
7.72582e-05
7.51072e-05
7.25653e-05
6.55025e-05
0.00014872
5.28417e-05
5.23196e-05
4.98852e-05
4.75194e-05
4.53566e-05
4.3265e-05
4.10778e-05
3.87542e-05
3.38272e-05
0.000137614
7.52992e-05
5.29421e-05
4.14284e-05
3.48013e-05
3.04343e-05
2.71747e-05
2.43149e-05
2.19409e-05
1.86312e-05
8.46407e-06
3.97391e-06
4.43153e-06
4.69752e-06
4.85674e-06
4.93101e-06
4.93035e-06
4.86575e-06
4.70002e-06
4.08694e-06
0.00106904
0.000468629
0.000204415
9.93193e-05
5.43105e-05
3.33498e-05
2.27527e-05
1.65048e-05
1.34761e-05
1.07076e-05
8.65192e-06
3.55677e-06
3.10362e-06
2.68206e-06
2.36926e-06
2.15745e-06
2.03646e-06
1.99691e-06
2.02615e-06
2.07458e-06
9.90779e-06
3.49575e-06
3.17559e-06
2.84505e-06
2.59759e-06
2.4353e-06
2.3541e-06
2.34875e-06
2.39112e-06
2.2161e-06
0.0360643
0.000925397
0.000955415
0.000887219
0.000800758
0.000717676
0.00064406
0.00058088
0.000421119
0.000486424
0.00170096
9.81068e-05
0.000125858
0.00013965
0.000148771
0.000156006
0.00016241
0.000168437
0.000173777
0.000176695
0.000364654
7.22926e-05
9.11769e-05
0.000138925
0.000152308
0.000148054
0.000135806
0.000120741
0.000104516
8.2697e-05
0.00023029
4.87329e-05
5.01823e-05
4.889e-05
4.71788e-05
4.55426e-05
4.40811e-05
4.28003e-05
4.12419e-05
3.67297e-05
0.000100284
3.75908e-05
3.68077e-05
3.41415e-05
3.14373e-05
2.89922e-05
2.68209e-05
2.48457e-05
2.29147e-05
1.93416e-05
9.12997e-05
5.18035e-05
3.60584e-05
2.73851e-05
2.20977e-05
1.85753e-05
1.6045e-05
1.40476e-05
1.24714e-05
1.02841e-05
5.67422e-06
2.46438e-06
2.72331e-06
2.86974e-06
2.95303e-06
2.98595e-06
2.97617e-06
2.92694e-06
2.81211e-06
2.38322e-06
0.00131192
0.000567578
0.000238958
0.000110626
5.69407e-05
3.27632e-05
2.0953e-05
1.4488e-05
1.12539e-05
8.28638e-06
5.39758e-06
2.12088e-06
1.852e-06
1.59452e-06
1.40337e-06
1.27353e-06
1.19759e-06
1.16939e-06
1.17921e-06
1.18579e-06
6.48755e-06
2.05665e-06
1.86025e-06
1.66415e-06
1.5182e-06
1.42189e-06
1.37204e-06
1.45658e-06
1.35338e-06
1.32626e-06
0.010632
0.000665503
0.000488397
0.000345996
0.000233869
0.000147914
7.77169e-05
7.11455e-06
0.000122327
4.23572e-05
0.00101936
0.000170809
0.000165317
0.000151885
0.000137559
0.000124312
0.00011257
0.000102175
9.23829e-05
8.23934e-05
0.000163423
0.000158208
9.57594e-06
5.70648e-05
7.44645e-05
7.62747e-05
7.10929e-05
6.33188e-05
5.44397e-05
4.25863e-05
0.000117859
2.28713e-05
2.33185e-05
2.2642e-05
2.17813e-05
2.09486e-05
2.01853e-05
1.94862e-05
1.85933e-05
1.60872e-05
5.0893e-05
1.70692e-05
1.67429e-05
1.55584e-05
1.4326e-05
1.32012e-05
1.22027e-05
1.13147e-05
1.04125e-05
8.63619e-06
3.45212e-05
1.92285e-05
1.37687e-05
1.06716e-05
8.7175e-06
7.40284e-06
6.46743e-06
5.75077e-06
5.17379e-06
4.25752e-06
3.0616e-06
1.21607e-06
1.33264e-06
1.39788e-06
1.43342e-06
1.44385e-06
1.43293e-06
1.4033e-06
1.33601e-06
1.08382e-06
0.000860856
0.000387749
0.000157623
7.03925e-05
3.46582e-05
1.90237e-05
1.16302e-05
7.79433e-06
5.8754e-06
4.24643e-06
2.83189e-06
1.03566e-06
9.09005e-07
7.86199e-07
6.9334e-07
6.30901e-07
5.94053e-07
5.80375e-07
5.83028e-07
5.74299e-07
9.12413e-05
8.79192e-05
5.92244e-05
3.4434e-05
1.89559e-05
1.00047e-05
4.98205e-06
2.15948e-06
3.91277e-07
8.80747e-07
0.00324316
0.000409034
0.000307575
0.000245986
0.000200786
0.0001663
0.000138331
0.000122117
0.000119975
0.000141448
0.000251941
2.14439e-05
2.33584e-05
2.43239e-05
2.50815e-05
2.5862e-05
2.67587e-05
2.7794e-05
2.8826e-05
2.92145e-05
0.000158246
4.25164e-05
7.78956e-06
1.74502e-05
2.06249e-05
2.03439e-05
1.8667e-05
1.65301e-05
1.41387e-05
1.08552e-05
3.50624e-05
7.32141e-06
7.33443e-06
7.10725e-06
6.84681e-06
6.60088e-06
6.37508e-06
6.16615e-06
5.86728e-06
4.93118e-06
1.42023e-05
4.18137e-06
4.12882e-06
3.93418e-06
3.72272e-06
3.52072e-06
3.33433e-06
3.16073e-06
2.94909e-06
2.4066e-06
5.53185e-06
2.67581e-06
2.22748e-06
1.9557e-06
1.76322e-06
1.62102e-06
1.51006e-06
1.4173e-06
1.31817e-06
1.07789e-06
9.52788e-07
3.83978e-07
4.17097e-07
4.37183e-07
4.47341e-07
4.49289e-07
4.44501e-07
4.32844e-07
4.06556e-07
3.0856e-07
7.45371e-05
5.73383e-05
2.34334e-05
1.0608e-05
5.1711e-06
2.77416e-06
1.64637e-06
1.07327e-06
7.84963e-07
5.90692e-07
9.53673e-07
3.58532e-07
3.12361e-07
2.72229e-07
2.42749e-07
2.23656e-07
2.122e-07
2.08228e-07
2.0905e-07
1.98896e-07
0.000205009
0.000119467
7.0893e-05
3.97716e-05
2.13801e-05
1.10077e-05
5.2905e-06
2.11321e-06
1.95885e-07
1.22342e-06
1.24853
1.26338
1.45749
1.88679
0.946217
1.00013
1.19688
1.76653
0.522174
0.505797
0.705539
1.1636
0.218806
0.185829
0.329757
0.584192
0.0622961
0.0480009
0.106692
0.195763
0.00225909
0.000137682
0.00199382
0.00406198
0.0250272
0.0141015
0.0353386
0.0782012
0.0312632
0.0171103
0.0456885
0.107802
0.0319221
0.0166852
0.0484354
0.121013
0.0289992
0.0143134
0.0473915
0.124946
0.110473
0.0285658
0.0169116
0.0672338
0.122869
0.0354888
0.0169154
0.0480642
0.0838416
0.0245357
0.00936735
0.0286974
0.0426643
0.0117411
0.000853102
0.0217169
0.0142464
0.00308354
0.00124261
0.00997126
0.0014295
0.000223493
0.00024524
5.80977e-05
0.00868386
0.000460385
9.2487e-05
1.98026e-05
0.0117392
0.000171195
0.000228485
0.00022837
0.0134445
0.000262376
0.000298872
0.000297247
0.0137444
0.000331614
0.000393321
0.000388083
0.111669
0.107146
0.103931
0.133246
0.0936996
0.0849415
0.0815505
0.115303
0.0573272
0.0496784
0.050053
0.0718666
0.0268686
0.0224448
0.025142
0.0368542
0.00825097
0.00705848
0.0091481
0.0141946
0.00142947
7.51569e-05
0.000602795
0.00154512
0.00626191
0.00343966
0.00364802
0.00509956
0.00858309
0.00489675
0.00529814
0.00768436
0.0102904
0.00566328
0.00599832
0.0087663
0.0121722
0.00637344
0.00668009
0.00870814
0.0235471
0.0301632
0.0323158
0.0355644
0.0220985
0.0238244
0.0260674
0.0333546
0.0151205
0.0151317
0.0174169
0.0236134
0.00745165
0.0073486
0.00886635
0.0130612
0.00216078
0.00240974
0.00310805
0.00518993
0.000938267
0.000139672
0.000198944
0.000698858
0.00262528
0.00133394
0.00101409
0.00143924
0.0035317
0.00182964
0.0013336
0.00224131
0.00413696
0.00190794
0.0011384
0.00236991
0.00426366
0.00146344
0.000485395
0.0018754
0.00638134
0.0114669
0.0127167
0.0143277
0.00718466
0.0105701
0.0130015
0.0169746
0.00495775
0.00698286
0.00889541
0.0120882
0.00227286
0.00351761
0.00462733
0.00665631
0.000428292
0.00115698
0.00166965
0.00267386
0.00070001
0.000140677
0.000139345
0.000462314
0.00138783
0.000844549
0.000603366
0.00070173
0.00182638
0.00120846
0.000881922
0.00121266
0.00218776
0.00137532
0.000866088
0.00136886
0.00234118
0.00132509
0.0006678
0.00129539
0.00300219
0.000261164
0.00109685
0.00207834
0.000564271
0.00349638
0.00515076
0.00727437
0.000991333
0.00276233
0.00401137
0.00578363
0.000328999
0.00146017
0.00222428
0.0033186
0.00017585
0.000458418
0.000828542
0.00137345
0.000517211
0.000131614
6.92375e-05
0.000269792
0.000752365
0.000478857
0.000321496
0.000331416
0.000930514
0.000677002
0.000478522
0.000605326
0.00109018
0.000780063
0.000462112
0.000686506
0.00106194
0.000720102
0.000340142
0.000689046
0.00616929
0.0039615
0.00344743
0.00284664
0.00235311
5.16107e-05
0.000970819
0.00205849
0.000484727
0.000909075
0.00165409
0.00260511
0.000342294
0.000542485
0.00103328
0.00159982
0.000349939
0.000144649
0.000400488
0.000686526
0.000400214
0.00011785
2.72955e-05
0.000147474
0.000463353
0.000296748
0.000193313
0.000172823
0.000534373
0.000414435
0.000298418
0.000333102
0.00060241
0.000484341
0.000296785
0.000383996
0.000524789
0.000437793
0.000240944
0.000418542
0.00697059
0.0053744
0.00507926
0.00473359
0.00362345
0.00172039
0.00125096
0.000739197
0.00116045
5.73379e-05
0.00035458
0.000843841
0.00061259
7.10729e-05
0.000361496
0.000637963
0.000393288
1.44926e-05
0.000148958
0.000293788
0.000316279
0.000104821
5.15147e-06
6.3853e-05
0.000301465
0.000186887
0.000118086
9.42391e-05
0.000320321
0.000252363
0.000182164
0.000183019
0.0003354
0.000291159
0.00018025
0.000211687
0.000249247
0.000250757
0.000155795
0.000250812
0.0066423
0.00542993
0.00526555
0.00506817
0.00381424
0.00229781
0.00206192
0.00185411
0.00141401
0.000522235
0.000305077
6.80519e-05
0.0007107
0.000166923
4.03864e-06
0.000116869
0.000391175
9.36257e-05
5.37184e-06
7.52811e-05
0.000256353
9.35764e-05
2.68826e-05
1.19246e-05
0.000205616
0.000122413
7.58225e-05
5.63168e-05
0.000199595
0.000157224
0.000112708
0.000103659
0.000182793
0.000170032
0.000103812
0.000113588
0.000109673
0.000138404
9.42943e-05
0.000147562
0.00585446
0.00490896
0.00481842
0.00470494
0.00349033
0.00227466
0.00215643
0.00210417
0.00139875
0.000678401
0.000567594
0.000461873
0.000703115
0.000268284
0.000182005
0.000143299
0.000363387
0.000127732
7.14151e-05
4.27932e-05
0.000209041
8.25442e-05
3.98021e-05
1.95255e-05
0.000142417
8.12974e-05
5.01226e-05
3.6444e-05
0.000124392
9.74354e-05
6.8196e-05
5.8231e-05
9.27111e-05
9.30516e-05
5.27577e-05
5.43459e-05
3.62555e-05
7.02663e-05
5.00752e-05
8.15364e-05
0.00491795
0.00417177
0.00412196
0.00405668
0.00297195
0.00200327
0.0019457
0.00197203
0.00123614
0.000659031
0.000602138
0.000558048
0.0006285
0.000282953
0.000239006
0.000239319
0.000316788
0.000131252
0.00010084
9.35192e-05
0.000167995
7.02481e-05
4.40173e-05
3.49121e-05
9.81362e-05
5.36482e-05
3.36857e-05
2.51491e-05
7.57061e-05
5.88021e-05
3.97485e-05
3.15503e-05
4.16881e-05
4.69792e-05
2.21559e-05
2.0737e-05
1.0935e-06
3.05644e-05
2.12266e-05
4.03762e-05
0.00399413
0.00340481
0.00337695
0.00334372
0.00241249
0.00165308
0.00162775
0.00169305
0.00101777
0.00056374
0.000533909
0.000516749
0.000523526
0.00025303
0.000231532
0.000247608
0.000261309
0.000117013
0.000101234
0.000103262
0.000131753
5.71232e-05
4.15566e-05
3.85274e-05
6.6806e-05
3.49674e-05
2.29452e-05
1.82857e-05
4.48074e-05
3.43925e-05
2.24089e-05
1.65204e-05
1.39423e-05
2.06015e-05
5.33638e-06
3.0978e-06
1.79942e-05
8.81372e-06
4.35279e-06
1.60568e-05
0.00311117
0.0026506
0.00263452
0.00262627
0.00188668
0.0013056
0.00129825
0.00138325
0.00079327
0.000445849
0.000429607
0.000422887
0.000412234
0.000205876
0.000196231
0.000216872
0.000205164
9.52601e-05
8.73898e-05
9.24541e-05
0.000100329
4.43696e-05
3.5358e-05
3.51694e-05
4.47444e-05
2.25073e-05
1.57991e-05
1.37564e-05
2.59938e-05
1.97018e-05
1.25113e-05
8.76505e-06
1.84536e-07
6.24194e-06
2.98227e-06
5.1275e-06
2.32192e-05
1.83231e-06
4.05546e-06
2.95884e-06
0.00243566
0.00206624
0.00205281
0.00205766
0.00137971