/*--------------------------------*- C++ -*----------------------------------*\
| =========                 |                                                 |
| \\      /  F ield         | foam-extend: Open Source CFD                    |
|  \\    /   O peration     | Version:     4.0                                |
|   \\  /    A nd           | Web:         http://www.foam-extend.org         |
|    \\/     M anipulation  |                                                 |
\*---------------------------------------------------------------------------*/
FoamFile
{
    version     2.0;
    format      ascii;
    class       volScalarField;
    location    "200";
    object      alphat;
}
// * * * * * * * * * * * * * * * * * * * * * * * * * * * * * * * * * * * * * //

dimensions      [1 -1 -1 0 0 0 0];

internalField   nonuniform List<scalar> 
34480
(
0.00199077
0.00197886
0.00197128
0.00196863
0.0019717
0.00198844
0.00204464
0.00219117
0.00245949
0.00277419
0.0194854
0.0168249
0.0147155
0.0124886
0.00854162
0.00478882
0.00332761
0.00323703
0.00393332
0.0047453
0.0466023
0.0444046
0.0403106
0.031874
0.0180382
0.00741717
0.00370042
0.00306119
0.00371552
0.00473312
0.0540678
0.0510571
0.0465397
0.0372872
0.0211709
0.00825747
0.00366151
0.00278379
0.00346356
0.00463994
0.0541382
0.0507305
0.0466966
0.0383614
0.0223418
0.0086439
0.00362815
0.00260922
0.00334102
0.004649
0.0525418
0.0491711
0.0456081
0.0379908
0.0222784
0.00856378
0.00353634
0.00250619
0.00334669
0.00480127
0.0500095
0.0469691
0.043979
0.0372072
0.0221516
0.00854727
0.00349828
0.00244611
0.00339689
0.00501149
0.0409701
0.0388481
0.0369399
0.0322839
0.0200447
0.00781535
0.0031644
0.00221615
0.00323522
0.00500693
0.0134327
0.0131143
0.013026
0.0125749
0.00994433
0.00470766
0.00182463
0.00125403
0.0020551
0.003755
0.00195603
0.00195573
0.00195371
0.00194897
0.00194292
0.00193607
0.00193041
0.00193137
0.0019535
0.0019282
0.00197755
0.00196592
0.00195793
0.00195482
0.00195619
0.00196654
0.00200365
0.0021068
0.00231415
0.00259359
0.019142
0.0167025
0.014949
0.0142451
0.0142329
0.0137255
0.0124159
0.0109809
0.00930137
0.0111406
0.0452405
0.0433235
0.0411091
0.038397
0.033511
0.0253785
0.0173064
0.0119462
0.00877066
0.0107804
0.0523095
0.0496436
0.0471972
0.0445287
0.0394483
0.0301187
0.0196226
0.011775
0.00791572
0.0102376
0.0524259
0.0493341
0.0470919
0.0451376
0.0411207
0.0323552
0.0210321
0.0114446
0.00733443
0.0100609
0.0511183
0.047966
0.045924
0.0444349
0.0411378
0.0330109
0.0215813
0.0110091
0.00705871
0.0103707
0.0489167
0.0459856
0.0442437
0.043124
0.0404591
0.0331354
0.0219718
0.0106486
0.00692148
0.010905
0.0403611
0.0382275
0.0370497
0.0365142
0.035067
0.0300094
0.0206991
0.0097063
0.0063577
0.0108859
0.0133643
0.0129989
0.012956
0.013082
0.0132702
0.0132042
0.0114739
0.00555944
0.00355942
0.00742185
0.00194905
0.00194653
0.00194221
0.00193549
0.00192748
0.0019183
0.00190943
0.00190378
0.00192508
0.00201155
0.00196296
0.00195235
0.00194493
0.0019422
0.00194365
0.00195302
0.00198573
0.00207531
0.00224709
0.00243574
0.0183718
0.0162365
0.0146557
0.0140901
0.0145633
0.015617
0.0168511
0.018797
0.0195127
0.0185076
0.0432551
0.0412495
0.0393874
0.0380711
0.0363783
0.0323713
0.0269258
0.0236405
0.0204552
0.0184395
0.0496955
0.0470738
0.0450627
0.0440339
0.0430493
0.0396037
0.032499
0.0252244
0.0189447
0.0173275
0.049799
0.0468935
0.0450163
0.0444824
0.044538
0.0426913
0.0357661
0.0252882
0.0170142
0.0165152
0.0487867
0.045828
0.0440574
0.0437774
0.0443481
0.0435623
0.0371435
0.02428
0.0152955
0.0164159
0.0469865
0.0442001
0.0426465
0.0425186
0.0433422
0.0433203
0.0376649
0.0229284
0.0138518
0.0167128
0.03917
0.0371072
0.0360017
0.0360022
0.0368479
0.0376999
0.0344597
0.0203129
0.0118878
0.0162308
0.0132366
0.0128799
0.0128312
0.0129569
0.0132533
0.0138362
0.0145251
0.0105121
0.00629098
0.0106624
0.0019359
0.00193269
0.00192795
0.00192136
0.00191391
0.0019058
0.00189885
0.00189629
0.00191836
0.00200667
0.00194812
0.00193844
0.0019315
0.00192898
0.00193023
0.00193833
0.00196661
0.00204437
0.00219351
0.00234636
0.0176871
0.0158647
0.0144393
0.0138955
0.0143453
0.0156652
0.0177725
0.0215907
0.0259686
0.0280281
0.0409788
0.0389578
0.0371894
0.0362227
0.0355364
0.0334614
0.0303878
0.0305071
0.0321819
0.0316622
0.0466989
0.0441916
0.0422936
0.0415937
0.0417271
0.0408764
0.0374962
0.0350402
0.0331878
0.0305998
0.0468133
0.0441668
0.0424027
0.0420559
0.0429344
0.0436533
0.0413635
0.0367669
0.0315897
0.0285407
0.0460896
0.043405
0.0417293
0.0415518
0.0427045
0.0442165
0.0427989
0.0363363
0.0288557
0.0270963
0.0446902
0.0421367
0.0406584
0.0405827
0.0417993
0.0436876
0.0429693
0.0347515
0.0257385
0.0262147
0.0377236
0.0358099
0.0347519
0.0347391
0.0356819
0.037533
0.0382463
0.0306918
0.0215962
0.0244729
0.0130963
0.0127638
0.0127169
0.0128165
0.0130488
0.0135285
0.0144933
0.0141854
0.0111128
0.015724
0.00192015
0.00191654
0.00191174
0.00190564
0.00189911
0.00189245
0.00188753
0.00188759
0.00190945
0.00198589
0.00193309
0.00192412
0.00191752
0.00191509
0.00191608
0.00192307
0.00194779
0.00201614
0.00214786
0.00227843
0.0172118
0.0156566
0.0143596
0.0138263
0.014202
0.0155086
0.0177602
0.0218101
0.027052
0.0305524
0.0387448
0.0368369
0.0351637
0.0343062
0.0340044
0.0329849
0.031309
0.0329474
0.0376087
0.040412
0.0437192
0.0414343
0.0396289
0.0389501
0.0393215
0.0396754
0.0387701
0.0396841
0.0429074
0.0435388
0.0438579
0.0415322
0.0398734
0.0394635
0.0402919
0.0418324
0.0424957
0.0429869
0.044067
0.0425497
0.043386
0.0410279
0.0394626
0.0391966
0.0401516
0.0421169
0.0436817
0.0435393
0.0424009
0.0403949
0.0423467
0.0400845
0.0387103
0.0385469
0.0395099
0.0415615
0.0435365
0.0423508
0.0389388
0.0380975
0.0362505
0.0345372
0.0335604
0.0334797
0.0341802
0.0358466
0.0381708
0.0373641
0.0330137
0.03447
0.0129909
0.0126916
0.0126489
0.0127227
0.0128878
0.0132253
0.0140061
0.0152668
0.0157804
0.0207724
0.00190281
0.00189902
0.00189435
0.00188888
0.00188333
0.00187812
0.00187498
0.00187659
0.00189595
0.00195606
0.00191774
0.00190929
0.00190297
0.00190061
0.00190137
0.00190749
0.00192951
0.00199081
0.00210938
0.00222438
0.0169696
0.0156168
0.0144165
0.0138915
0.0142031
0.0154433
0.0176541
0.021498
0.0265403
0.0300258
0.0368248
0.035103
0.0335515
0.0327525
0.0326141
0.0321959
0.0313007
0.0332647
0.0385023
0.0423808
0.0410675
0.0390553
0.0373715
0.0366727
0.0370126
0.0378551
0.0383049
0.0407149
0.0463089
0.0498462
0.0411923
0.0391969
0.0376742
0.0371968
0.0377818
0.0393744
0.041429
0.044648
0.0500783
0.052486
0.0408924
0.0388717
0.0374555
0.037115
0.0377507
0.0394829
0.0422407
0.0458112
0.0504743
0.051952
0.0401362
0.0381896
0.0369585
0.0367255
0.0373644
0.0390368
0.0419032
0.0450685
0.048128
0.0495127
0.0348662
0.0333806
0.0325135
0.0323854
0.0328443
0.0340899
0.0366064
0.0396201
0.0415213
0.044153
0.0129354
0.0126735
0.0126362
0.0126874
0.0127974
0.0130203
0.0135575
0.0148977
0.0175997
0.0236982
0.00188392
0.00188012
0.00187575
0.00187099
0.00186643
0.00186256
0.00186086
0.00186336
0.00187929
0.0019245
0.00190184
0.0018938
0.00188777
0.00188549
0.00188608
0.00189153
0.00191144
0.00196722
0.00207542
0.00217833
0.0169259
0.0157166
0.0145863
0.0140679
0.0143303
0.0155044
0.0176537
0.0212863
0.0260247
0.0292839
0.035345
0.0338198
0.0323953
0.0316448
0.031582
0.0315181
0.0311029
0.0330395
0.0380239
0.0417379
0.0389062
0.0371567
0.0356133
0.0349163
0.0351625
0.0361308
0.0372195
0.040072
0.0461084
0.0503629
0.0389511
0.0372566
0.0358931
0.0353926
0.0357461
0.0370897
0.0395018
0.0436194
0.0506154
0.0552349
0.0387283
0.037027
0.0357877
0.0354199
0.0357861
0.0370861
0.0398923
0.0447583
0.0522198
0.0570576
0.0381638
0.0365321
0.0354704
0.0352076
0.0355814
0.0367667
0.0394514
0.0442157
0.0511245
0.0560761
0.0336348
0.0323861
0.0316464
0.0314965
0.0317686
0.0326104
0.0346747
0.0387907
0.0446206
0.0500991
0.0129385
0.0127142
0.0126824
0.0127147
0.0127821
0.012921
0.0132628
0.0142523
0.0170787
0.0233348
0.00186348
0.00185985
0.0018559
0.00185187
0.00184825
0.00184554
0.00184491
0.00184783
0.00186051
0.00189425
0.00188508
0.00187745
0.00187176
0.00186961
0.00187009
0.00187498
0.00189306
0.00194406
0.00204341
0.00213632
0.0170321
0.0159193
0.0148403
0.0143284
0.0145526
0.0156682
0.0177638
0.0212432
0.025745
0.0287992
0.0343016
0.0329475
0.031639
0.0309354
0.0309148
0.0310737
0.0309909
0.0328721
0.0375455
0.0409615
0.0372515
0.0357261
0.0343291
0.0336639
0.0338305
0.0347793
0.0361344
0.0390258
0.0448704
0.0490472
0.0371564
0.0357219
0.0345304
0.0340509
0.0342429
0.0352934
0.0375766
0.0416577
0.0486523
0.0537174
0.036932
0.0355222
0.034474
0.0341212
0.0343052
0.0352079
0.0375802
0.0423231
0.0501334
0.0561088
0.0364783
0.035147
0.0342667
0.0340091
0.034201
0.0349737
0.0370772
0.0417175
0.04951
0.0561901
0.0325908
0.0315754
0.0309694
0.0308192
0.0309628
0.0314937
0.0329761
0.036709
0.0434649
0.0504628
0.0130074
0.0128179
0.0127914
0.0128085
0.0128445
0.0129267
0.0131356
0.0137935
0.0160611
0.0213899
0.00184151
0.00183818
0.00183472
0.0018314
0.00182864
0.00182685
0.00182694
0.00182993
0.00183989
0.0018654
0.00186712
0.00185998
0.00185474
0.00185276
0.00185317
0.00185754
0.00187388
0.00192034
0.00201156
0.00209599
0.0172412
0.0161909
0.0151533
0.01465
0.0148435
0.0159041
0.0179492
0.0213162
0.0256424
0.0285082
0.0336155
0.0323955
0.0311867
0.0305285
0.0305358
0.0308432
0.0310074
0.0328569
0.0373089
0.0404923
0.0360261
0.0346831
0.0334318
0.0328211
0.0329369
0.0338225
0.035272
0.0380795
0.0436534
0.0477204
0.0357594
0.0345488
0.0335333
0.0331048
0.0332023
0.0340134
0.0360277
0.0397612
0.0462762
0.0513016
0.0354886
0.0343415
0.0334856
0.0331753
0.0332537
0.0338669
0.0357412
0.0398629
0.0470005
0.0529469
0.0350897
0.0340358
0.033335
0.0331062
0.0331887
0.0336717
0.0352009
0.0390831
0.046217
0.0529084
0.0317497
0.0309526
0.0304766
0.0303411
0.0304042
0.030723
0.0317257
0.0346542
0.0407497
0.0475677
0.0131487
0.0129891
0.0129669
0.012972
0.0129878
0.0130336
0.0131596
0.0135887
0.0153279
0.0197495
0.001818
0.00181507
0.00181215
0.0018095
0.00180742
0.00180634
0.00180687
0.00180965
0.00181734
0.00183676
0.00184766
0.00184113
0.00183646
0.00183471
0.00183507
0.00183892
0.00185347
0.00189534
0.00197864
0.00205589
0.0175155
0.016506
0.0155085
0.0150193
0.0151872
0.0161908
0.0181784
0.0214495
0.0256437
0.0283398
0.0331831
0.0320623
0.0309399
0.0303271
0.0303539
0.0307622
0.0311136
0.0329364
0.0372393
0.0402611
0.0351166
0.0339238
0.0328165
0.0322739
0.0323607
0.0331723
0.0346333
0.0373127
0.0426398
0.0466822
0.0346798
0.0336665
0.032824
0.0324619
0.0325109
0.0331458
0.0348877
0.0382276
0.0442098
0.0492247
0.0343538
0.0334416
0.0327675
0.0325125
0.0325377
0.0329596
0.0344204
0.0378885
0.0441834
0.0499947
0.0339809
0.0331747
0.0326396
0.0324515
0.0324763
0.032776
0.0338682
0.0369631
0.0430889
0.049449
0.0311108
0.0305078
0.0301495
0.0300364
0.0300551
0.0302402
0.0309069
0.0331015
0.0381923
0.0444408
0.0133694
0.0132341
0.0132151
0.0132132
0.013214
0.0132392
0.0133157
0.0136007
0.0149419
0.0187185
0.00179295
0.00179047
0.00178807
0.00178601
0.00178448
0.0017839
0.00178467
0.00178707
0.00179287
0.00180745
0.00182646
0.00182068
0.00181667
0.00181519
0.00181551
0.00181883
0.00183151
0.00186856
0.00194387
0.00201502
0.0178277
0.0168498
0.0158993
0.0154333
0.0155795
0.0165194
0.0184309
0.0215997
0.0256919
0.0282498
0.0329052
0.0318581
0.0308173
0.0302532
0.0302943
0.0307678
0.0312589
0.0330327
0.0372211
0.0401529
0.0344132
0.0333513
0.0323879
0.0319212
0.0319921
0.0327246
0.0341488
0.0366683
0.0417505
0.0458374
0.033836
0.033001
0.032323
0.0320313
0.0320588
0.0325634
0.0340581
0.0370255
0.0424955
0.0475799
0.0334725
0.0327669
0.0322555
0.0320574
0.0320602
0.0323589
0.0335002
0.0364046
0.0419274
0.0477175
0.0331184
0.0325247
0.0321329
0.0319878
0.0319872
0.032177
0.0329618
0.0354072
0.0406056
0.046754
0.0306606
0.0302208
0.0299623
0.0298734
0.0298717
0.0299777
0.0304225
0.0320531
0.0362335
0.0420408
0.0136775
0.0135603
0.0135434
0.0135349
0.0135315
0.0135453
0.0135938
0.0137889
0.0148282
0.0180904
0.00176633
0.00176431
0.00176242
0.00176082
0.00175975
0.0017595
0.00176032
0.00176229
0.00176653
0.00177713
0.00180332
0.00179842
0.00179516
0.00179397
0.00179425
0.00179703
0.00180775
0.00183973
0.00190674
0.00197261
0.0181617
0.0172186
0.0163301
0.0158992
0.0160271
0.0168923
0.0186986
0.0217363
0.0257429
0.0282119
0.0326976
0.0317128
0.0307591
0.030252
0.0303041
0.0308129
0.0314022
0.0330832
0.0371559
0.0400793
0.0338281
0.0328906
0.0320734
0.0316865
0.0317485
0.0323965
0.0337476
0.0360767
0.0408791
0.0450739
0.0331607
0.032489
0.0319621
0.0317378
0.0317576
0.0321611
0.0334297
0.0360487
0.0410077
0.0462146
0.0327915
0.0322628
0.0318892
0.0317428
0.0317393
0.0319568
0.032848
0.0352719
0.0400992
0.0459194
0.0324611
0.0320413
0.031766
0.03166
0.031652
0.0317775
0.0323461
0.0342699
0.0386668
0.0446572
0.030376
0.0300651
0.0298854
0.02982
0.0298112
0.0298732
0.0301732
0.031381
0.0347895
0.0402212
0.0140837
0.0139787
0.0139644
0.0139512
0.0139475
0.0139554
0.0139895
0.0141275
0.0149273
0.0177088
0.00173812
0.00173655
0.00173509
0.00173388
0.00173317
0.00173311
0.00173388
0.00173541
0.00173841
0.00174576
0.00177817
0.00177424
0.00177173
0.00177084
0.00177107
0.00177331
0.00178204
0.00180874
0.00186701
0.00192807
0.0185135
0.0176215
0.0168161
0.0164335
0.0165457
0.0173224
0.0189864
0.0218418
0.0257607
0.02821
0.0324951
0.0315776
0.0307267
0.0302881
0.0303489
0.0308652
0.0315162
0.0330477
0.0369665
0.0399765
0.0333018
0.0324923
0.0318238
0.0315176
0.0315739
0.0321315
0.0333769
0.0354895
0.0399441
0.0443145
0.0326059
0.0320833
0.0316902
0.031526
0.0315444
0.0318646
0.0329203
0.0352054
0.0396298
0.0449772
0.0322652
0.0318822
0.0316194
0.0315159
0.0315135
0.0316749
0.0323631
0.0343615
0.0385368
0.0443488
0.0319672
0.0316822
0.0314961
0.0314225
0.0314157
0.0315032
0.0319155
0.0334074
0.0370877
0.0428506
0.0302282
0.030013
0.029892
0.0298457
0.0298364
0.0298761
0.0300806
0.0309657
0.0337029
0.0387075
0.0146023
0.0145046
0.0144888
0.0144771
0.0144744
0.0144796
0.0145055
0.0146064
0.0152087
0.0175073
0.00170831
0.00170714
0.00170602
0.00170515
0.00170469
0.00170473
0.00170538
0.00170652
0.00170856
0.00171336
0.001751
0.00174805
0.00174626
0.00174564
0.00174584
0.00174756
0.00175433
0.00177567
0.00182471
0.0018809
0.0188954
0.0180815
0.0173832
0.0170613
0.0171597
0.0178337
0.019314
0.021915
0.0257159
0.0282361
0.0322548
0.0314251
0.0306988
0.0303404
0.0304075
0.0309042
0.0315849
0.0329121
0.0365953
0.0398001
0.0328029
0.0321303
0.03161
0.0313813
0.0314328
0.031895
0.0330029
0.0348828
0.0388946
0.043497
0.0321423
0.0317524
0.0314725
0.0313585
0.0313775
0.0316265
0.0324774
0.034433
0.0382887
0.0437346
0.0318572
0.0315885
0.0314101
0.0313399
0.031341
0.0314616
0.0319802
0.0335857
0.03713
0.042808
0.0315987
0.0314121
0.0312907
0.0312418
0.0312391
0.0313034
0.0315989
0.0327216
0.035733
0.0411138
0.0301872
0.030038
0.0299584
0.0299257
0.0299198
0.0299478
0.0300897
0.0307228
0.0328584
0.0373238
0.0152518
0.0151607
0.0151417
0.0151335
0.0151319
0.0151359
0.0151537
0.0152298
0.0156669
0.017478
0.00167688
0.00167602
0.00167519
0.00167459
0.00167429
0.00167437
0.00167487
0.00167571
0.00167704
0.00167992
0.00172186
0.00171983
0.00171866
0.00171826
0.00171842
0.00171967
0.00172461
0.00174073
0.00178012
0.00183078
0.0193416
0.0186394
0.01807
0.0178176
0.017903
0.0184619
0.0197192
0.0219788
0.0255859
0.028286
0.0319605
0.0312496
0.0306683
0.030397
0.0304667
0.0309177
0.031599
0.0326911
0.0360058
0.0395112
0.0323255
0.0317972
0.0314174
0.0312583
0.0313043
0.0316688
0.0326085
0.0342502
0.0377129
0.042544
0.0317542
0.0314771
0.0312876
0.0312128
0.031232
0.0314194
0.0320739
0.0336936
0.0369549
0.0423578
0.0315391
0.0313553
0.0312377
0.0311918
0.0311963
0.0312859
0.0316614
0.0328957
0.0358192
0.0411543
0.0313233
0.0312043
0.0311271
0.0310961
0.0310976
0.0311464
0.0313527
0.032157
0.0345244
0.0393244
0.0302234
0.0301179
0.0300645
0.030043
0.0300408
0.0300629
0.0301613
0.0305972
0.0321879
0.0359902
0.0160645
0.0159718
0.0159569
0.015951
0.0159501
0.0159537
0.0159661
0.0160186
0.0163176
0.0176511
0.00164375
0.00164313
0.00164255
0.00164216
0.00164198
0.00164205
0.00164242
0.00164299
0.00164386
0.00164539
0.00169084
0.00168958
0.0016889
0.00168867
0.00168879
0.00168962
0.00169297
0.00170424
0.00173383
0.00177763
0.0199149
0.0193576
0.0189305
0.0187502
0.0188222
0.0192586
0.0202631
0.0220938
0.0253612
0.0283447
0.0316265
0.0310647
0.0306381
0.0304517
0.0305186
0.0309004
0.031551
0.032425
0.0351926
0.0390467
0.0318827
0.0314972
0.0312408
0.0311392
0.0311782
0.0314477
0.0321927
0.0335922
0.0364241
0.0413407
0.0314337
0.0312461
0.0311239
0.0310777
0.031096
0.0312305
0.0317019
0.0329715
0.0356343
0.0407267
0.0312887
0.0311645
0.0310886
0.0310597
0.0310664
0.0311317
0.0313887
0.0322749
0.0345793
0.039307
0.0311152
0.0310401
0.030992
0.0309731
0.0309775
0.0310148
0.031153
0.0316886
0.0334304
0.0374481
0.0303108
0.0302321
0.0301966
0.0301827
0.0301836
0.0302023
0.0302699
0.0305539
0.0316592
0.0346954
0.0170798
0.0169918
0.0169806
0.0169762
0.0169758
0.0169788
0.0169871
0.0170176
0.017197
0.0181074
0.00160888
0.00160847
0.00160809
0.00160783
0.00160773
0.00160779
0.00160804
0.00160841
0.00160892
0.00160965
0.00165805
0.00165738
0.00165703
0.00165692
0.001657
0.00165751
0.00165954
0.00166664
0.0016868
0.00172188
0.0207155
0.0203262
0.0200412
0.0199279
0.0199854
0.020299
0.021038
0.0223801
0.0250734
0.0283561
0.0312942
0.0308968
0.0306156
0.0305013
0.0305591
0.0308549
0.031433
0.0321585
0.0342104
0.0382785
0.0314963
0.0312387
0.0310803
0.0310215
0.0310525
0.0312359
0.0317723
0.032906
0.0350999
0.039744
0.0311749
0.0310528
0.0309775
0.0309506
0.0309667
0.0310579
0.0313682
0.0322763
0.0343479
0.0387681
0.0310885
0.0310048
0.0309566
0.0309392
0.0309469
0.0309931
0.0311564
0.0317315
0.0334095
0.037269
0.0309541
0.0309069
0.0308775
0.0308665
0.0308721
0.0309
0.0309873
0.0313093
0.03246
0.0355298
0.0304231
0.030364
0.0303401
0.0303312
0.030334
0.0303501
0.0303962
0.0305685
0.0312626
0.0334768
0.0183791
0.0182928
0.0182841
0.0182807
0.0182802
0.0182824
0.0182873
0.0183019
0.0183947
0.0189597
0.00157227
0.00157201
0.00157177
0.00157161
0.00157155
0.00157161
0.00157177
0.00157199
0.00157229
0.00157257
0.00162377
0.00162348
0.00162334
0.0016233
0.00162335
0.00162361
0.00162467
0.00162851
0.00164034
0.00166495
0.0218928
0.0216747
0.0215152
0.0214561
0.021498
0.0216983
0.0221813
0.0230397
0.0248777
0.0282006
0.0310185
0.0307723
0.0306072
0.0305451
0.0305889
0.0307921
0.0312466
0.031892
0.0332124
0.0370097
0.0311847
0.0310279
0.0309385
0.030908
0.030931
0.0310441
0.0313811
0.0321994
0.0338251
0.0376637
0.0309717
0.0308945
0.0308498
0.0308351
0.0308484
0.0309063
0.0310882
0.0316495
0.0331137
0.0365242
0.0309261
0.0308706
0.0308409
0.0308311
0.0308387
0.0308704
0.0309654
0.0312886
0.0323463
0.0351387
0.0308252
0.0307962
0.0307791
0.0307732
0.0307787
0.0307985
0.0308497
0.0310182
0.0316594
0.0336814
0.0305371
0.0304937
0.0304777
0.0304724
0.0304759
0.0304894
0.0305204
0.0306166
0.0309942
0.0323981
0.0200728
0.0199878
0.019981
0.0199783
0.0199776
0.0199787
0.0199807
0.0199843
0.0200196
0.0203321
0.00153398
0.00153381
0.00153366
0.00153357
0.00153355
0.00153359
0.0015337
0.00153385
0.00153403
0.00153412
0.00158827
0.00158821
0.00158817
0.00158817
0.0015882
0.00158832
0.00158877
0.00159042
0.00159589
0.00160947
0.0236678
0.0235981
0.0235323
0.02351
0.0235362
0.0236425
0.0239034
0.0243616
0.0252186
0.027796
0.0308407
0.0307049
0.0306163
0.0305849
0.0306131
0.0307319
0.0310226
0.0315522
0.0323899
0.0351251
0.0309536
0.0308657
0.0308189
0.0308044
0.0308202
0.030883
0.0310592
0.0315306
0.0326159
0.0352221
0.0308193
0.0307722
0.0307466
0.0307392
0.0307493
0.0307841
0.030877
0.0311552
0.0319874
0.0341817
0.0307959
0.0307616
0.0307444
0.0307394
0.0307459
0.030767
0.0308178
0.0309677
0.031486
0.0331067
0.0307213
0.0307051
0.0306959
0.0306932
0.0306978
0.0307112
0.0307392
0.0308134
0.0310878
0.0321033
0.0306266
0.030598
0.030588
0.0305852
0.0305888
0.0305994
0.0306199
0.0306693
0.0308371
0.0315445
0.0223517
0.0222712
0.0222662
0.0222642
0.0222633
0.0222636
0.0222636
0.022261
0.0222642
0.022419
0.00149409
0.00149396
0.00149386
0.00149381
0.0014938
0.00149386
0.00149396
0.00149408
0.00149423
0.00149429
0.00155086
0.0015508
0.00155075
0.00155074
0.00155076
0.00155083
0.00155101
0.00155152
0.00155316
0.00155779
0.0264031
0.0264264
0.0264126
0.0264084
0.0264204
0.0264602
0.0265554
0.0267284
0.0269229
0.0277442
0.0307603
0.0306843
0.0306386
0.0306232
0.0306373
0.0306915
0.0308225
0.0311095
0.0316472
0.0329247
0.0307948
0.0307484
0.0307248
0.030718
0.0307272
0.0307575
0.0308293
0.0310112
0.0314974
0.0327609
0.0307154
0.0306887
0.030675
0.0306714
0.0306779
0.0306968
0.0307374
0.030837
0.0311379
0.0320749
0.0306993
0.0306806
0.0306713
0.030669
0.0306736
0.0306864
0.0307115
0.0307668
0.0309333
0.0315236
0.0306467
0.0306385
0.0306336
0.0306325
0.0306357
0.0306441
0.030659
0.0306871
0.0307658
0.0310733
0.030669
0.0306535
0.0306479
0.0306467
0.0306497
0.0306573
0.0306703
0.0306942
0.0307518
0.0309917
0.0255878
0.0255239
0.0255206
0.0255192
0.0255187
0.0255191
0.0255193
0.0255166
0.0255104
0.0255844
0.00145188
0.00145175
0.00145166
0.00145162
0.00145164
0.00145171
0.00145183
0.00145198
0.00145216
0.00145229
0.00321416
0.00323472
0.00321585
0.00315852
0.00252229
0.00251699
0.00249053
0.00246982
0.00282278
0.00282956
0.00279639
0.00274187
0.00305682
0.00307266
0.00303387
0.00295207
0.00325634
0.00327935
0.00323895
0.00314057
0.00345305
0.0034842
0.0034485
0.00334397
0.00361859
0.00365799
0.00363101
0.00352755
0.00369704
0.00374487
0.00372986
0.00363465
0.00331274
0.00336006
0.00335301
0.00329016
0.00246005
0.00248379
0.00247811
0.00241725
0.00270843
0.0027039
0.0026915
0.00266901
0.0101471
0.00992191
0.00958827
0.0091795
0.00989257
0.00970401
0.00926415
0.00865531
0.0097591
0.00961288
0.00910167
0.00833041
0.00995314
0.00983224
0.00926666
0.00835594
0.0105543
0.010458
0.00985694
0.00881957
0.0112944
0.0112136
0.0105806
0.00941955
0.0117586
0.0117268
0.0110857
0.00982202
0.009556
0.00961369
0.00906506
0.00791983
0.00234206
0.00237311
0.00235792
0.00229295
0.00243899
0.00242797
0.00241425
0.00239779
0.0158508
0.0153825
0.0149264
0.0146201
0.014576
0.0140219
0.0134187
0.013004
0.0133276
0.0127909
0.0121308
0.0116481
0.0128216
0.0122988
0.0115841
0.0110261
0.0131318
0.0126069
0.0118204
0.0111698
0.0137935
0.0132279
0.0123269
0.0115334
0.0141078
0.013549
0.0125483
0.0115781
0.0107434
0.0103363
0.00946903
0.00858639
0.00217586
0.00218707
0.00217481
0.00214276
0.00231909
0.00230484
0.0022914
0.00227798
0.0260154
0.02537
0.0249583
0.0248638
0.0271095
0.0261157
0.0256182
0.0257794
0.0243559
0.0233185
0.0228844
0.0232985
0.0218069
0.0208725
0.0204948
0.0210162
0.0205951
0.0197854
0.0194172
0.0199418
0.020135
0.0193825
0.018924
0.0193252
0.0193438
0.0186847
0.0180946
0.0182525
0.0135319
0.0130877
0.0124721
0.0123613
0.00206722
0.00207198
0.00206652
0.00205495
0.00224413
0.00222966
0.00221684
0.00220457
0.0296676
0.0292212
0.0288325
0.0285419
0.038423
0.0377349
0.0372092
0.0369081
0.0396949
0.0387975
0.038315
0.0383273
0.0368446
0.0358674
0.0355568
0.0360438
0.0337131
0.0328339
0.0327292
0.0336178
0.0311331
0.030374
0.0303563
0.0314127
0.0280842
0.027519
0.0274802
0.0284081
0.0176683
0.0173791
0.017196
0.0175362
0.00199809
0.00200103
0.00199926
0.00199491
0.00218527
0.00217023
0.00215776
0.00214672
0.0292128
0.0287771
0.0283788
0.0280485
0.0409385
0.0402697
0.0396386
0.0391056
0.047667
0.0468172
0.0460754
0.0455338
0.0491817
0.0481958
0.0475187
0.0472595
0.0474037
0.0463959
0.0459477
0.0461661
0.0439427
0.0430031
0.0427968
0.0434469
0.0384748
0.0377706
0.0377282
0.0385164
0.0213314
0.0210249
0.0208381
0.0209455
0.00194764
0.00194939
0.001949
0.00194761
0.00213535
0.00211969
0.00210747
0.00209763
0.0284439
0.0280088
0.027612
0.0272761
0.0402143
0.039521
0.0388648
0.0382947
0.0484495
0.0475793
0.0467465
0.0460499
0.0532053
0.0522883
0.0514332
0.0507825
0.0547822
0.0538813
0.0531287
0.0526669
0.053125
0.052218
0.0516156
0.0514316
0.0467497
0.0459834
0.0455575
0.045558
0.0222906
0.0219899
0.0215807
0.0211948
0.00190843
0.00190958
0.00190966
0.00190942
0.00209031
0.00207409
0.00206208
0.00205336
0.0278985
0.0274507
0.0270467
0.0267055
0.0393226
0.0386084
0.0379494
0.037388
0.0471788
0.0463149
0.0454882
0.0447958
0.0521529
0.0513169
0.0504603
0.0497286
0.0548516
0.0541015
0.0532887
0.0525698
0.0548148
0.0540759
0.0533096
0.0526577
0.0488597
0.0481815
0.0474885
0.0469004
0.020797
0.0205678
0.0201377
0.0196578
0.00187546
0.00187635
0.00187652
0.00187653
0.00204801
0.00203142
0.00201968
0.00201202
0.0275149
0.0270414
0.0266206
0.0262714
0.0387366
0.0379937
0.0373279
0.0367834
0.0459705
0.045144
0.0443594
0.043716
0.050107
0.0493887
0.048607
0.0478957
0.0521255
0.0515052
0.0507338
0.0499511
0.052
0.0513683
0.0505866
0.0497938
0.0464444
0.0458325
0.0450862
0.0443467
0.0193569
0.0192525
0.0189229
0.0184999
0.00184497
0.0018458
0.0018459
0.00184574
0.00200724
0.00199058
0.00197921
0.00197256
0.027232
0.0267223
0.0262782
0.0259221
0.0383932
0.0376139
0.0369363
0.0364145
0.045092
0.0443147
0.0435828
0.043003
0.0483735
0.0477774
0.0470909
0.0464342
0.0494953
0.0489899
0.0482931
0.0475248
0.048795
0.0482446
0.0475036
0.0467042
0.0435548
0.0430134
0.0423128
0.0416039
0.0186455
0.0186879
0.0184519
0.0180485
0.00181461
0.0018155
0.00181552
0.00181511
0.00196722
0.00195086
0.00194
0.00193434
0.0270203
0.0264688
0.0259994
0.0256426
0.0382068
0.037395
0.0367099
0.0362226
0.0444239
0.0437051
0.0430345
0.0425261
0.0470062
0.0465128
0.0459163
0.0453243
0.0474965
0.0470822
0.0464638
0.0457503
0.0464304
0.0459711
0.0453042
0.0445622
0.0415799
0.0411599
0.0405533
0.0399153
0.0183798
0.0185679
0.0184073
0.0179927
0.00178342
0.0017844
0.00178436
0.00178373
0.00192736
0.00191171
0.00190156
0.00189686
0.0268696
0.0262766
0.025786
0.0254407
0.0381177
0.0372924
0.0366167
0.0361834
0.0438454
0.0431949
0.0425962
0.0421663
0.0458594
0.0454429
0.0449233
0.0443991
0.0459613
0.0456168
0.0450708
0.0444334
0.044746
0.0443913
0.043816
0.0431596
0.0403243
0.0400641
0.0395744
0.0390101
0.0183127
0.0186312
0.0185316
0.0180955
0.00175107
0.00175211
0.00175206
0.00175128
0.00188716
0.00187268
0.00186345
0.00185968
0.0267804
0.0261539
0.0256538
0.0253384
0.0380789
0.0372723
0.0366356
0.0362811
0.0432802
0.0427039
0.0421863
0.0418399
0.0448276
0.0444675
0.0440123
0.0435591
0.0446907
0.0444128
0.0439379
0.043388
0.0434275
0.0431988
0.0427275
0.0421613
0.0394278
0.0393499
0.0389852
0.0384815
0.0183201
0.0187428
0.0186908
0.0182351
0.00171755
0.00171859
0.00171854
0.0017177
0.0018461
0.00183328
0.00182517
0.00182229
0.0267621
0.0261181
0.0256284
0.0253665
0.0380508
0.0373007
0.0367394
0.0364883
0.0426894
0.0421874
0.0417534
0.041492
0.0438443
0.0435366
0.0431403
0.0427619
0.0435347
0.0433442
0.0429491
0.0424873
0.0422368
0.0421632
0.0418066
0.0413172
0.0386406
0.0387528
0.03851
0.0380444
0.0183552
0.0188461
0.0188287
0.0183653
0.00168293
0.00168387
0.00168383
0.00168304
0.00180367
0.00179294
0.00178616
0.00178408
0.0268357
0.0261973
0.0257444
0.025562
0.0380061
0.0373451
0.0368909
0.0367589
0.0420504
0.0416252
0.0412718
0.0410917
0.0428419
0.0426085
0.0422776
0.0419722
0.0423563
0.0422924
0.0419931
0.0416052
0.0409903
0.0410949
0.0408579
0.0404188
0.0377988
0.0380868
0.0379514
0.0374998
0.0184269
0.0189611
0.0189751
0.0185179
0.00164728
0.00164806
0.00164804
0.00164737
0.00175927
0.00175099
0.00174569
0.0017443
0.0270368
0.026434
0.0260469
0.0259652
0.037927
0.0373797
0.0370486
0.0370336
0.0413156
0.040988
0.0407149
0.0406041
0.0417092
0.0415965
0.0413487
0.0411006
0.0410037
0.0411043
0.0409133
0.0405688
0.0395375
0.0398157
0.0396895
0.039271
0.0367984
0.0372183
0.0371644
0.0367119
0.0186644
0.019212
0.0192482
0.0188139
0.00161063
0.00161122
0.00161121
0.00161072
0.00171241
0.00170673
0.00170298
0.00170212
0.0273994
0.0268751
0.0265818
0.026608
0.0377616
0.0373575
0.0371497
0.0372257
0.040349
0.0401658
0.0399819
0.0399122
0.0402669
0.0403213
0.0401731
0.0399486
0.0393171
0.0395838
0.0394956
0.0391599
0.0377786
0.0381755
0.0381318
0.0377212
0.0355971
0.0360713
0.0360644
0.0356198
0.0191883
0.0197228
0.0197736
0.0193788
0.00157294
0.00157333
0.00157334
0.00157303
0.00166298
0.00165975
0.00165747
0.00165697
0.0278957
0.027513
0.0273379
0.0274519
0.0373109
0.037097
0.0370055
0.0371149
0.0388774
0.0388826
0.0387962
0.0387205
0.0383034
0.0385189
0.0384636
0.0382287
0.0371937
0.0375555
0.0375371
0.0372023
0.0357153
0.0361235
0.0361203
0.0357429
0.0342144
0.0346457
0.0346523
0.0342552
0.0201922
0.0207004
0.0207599
0.0204129
0.00153418
0.00153442
0.00153443
0.00153427
0.00161173
0.00161039
0.00160931
0.00160905
0.028337
0.0281535
0.0281033
0.0282478
0.0361065
0.0361037
0.0361041
0.0361634
0.0365849
0.0367373
0.0367253
0.0366103
0.0357388
0.0360037
0.0359974
0.0357651
0.0347126
0.035029
0.0350303
0.034745
0.0335188
0.0338164
0.0338159
0.0335335
0.0327581
0.0330592
0.0330585
0.0327685
0.0219737
0.0224574
0.0225196
0.022214
0.00149436
0.00149451
0.00149453
0.00149445
0.00156002
0.00155966
0.00155935
0.0015593
0.0285546
0.0284901
0.0285151
0.0286483
0.0336581
0.033724
0.0337421
0.0337369
0.0335441
0.0336524
0.033646
0.0335539
0.0328956
0.0330298
0.0330138
0.0328737
0.0322738
0.0324137
0.032399
0.0322501
0.031626
0.0317402
0.0317275
0.0316024
0.031485
0.0316112
0.0316011
0.0314681
0.02505
0.0254856
0.0255362
0.0252716
0.00145266
0.00145279
0.00145281
0.00145274
0.00293509
0.00262189
0.00237484
0.00223064
0.00213581
0.00207463
0.00203746
0.00201631
0.00200482
0.00199815
0.00492874
0.00717241
0.0106954
0.0146242
0.0177819
0.0199101
0.0212905
0.0220742
0.0221066
0.0213003
0.0052024
0.00766376
0.0121402
0.017981
0.0236847
0.0290842
0.0346315
0.0399312
0.0439141
0.0460326
0.00538606
0.00760089
0.0130241
0.0203804
0.0281629
0.035848
0.0433975
0.0496306
0.0533928
0.0546863
0.005643
0.00768542
0.0139307
0.0226222
0.0322982
0.0415473
0.0495406
0.0547306
0.0566577
0.05622
0.00619374
0.00808855
0.0151428
0.0249626
0.0359895
0.0457791
0.0530869
0.05666
0.0569322
0.0553085
0.00689631
0.00839917
0.0159153
0.0265589
0.0383287
0.0478525
0.0538464
0.0558028
0.0549556
0.0528083
0.00741188
0.00799696
0.0150718