/*--------------------------------*- C++ -*----------------------------------*\
| =========                 |                                                 |
| \\      /  F ield         | foam-extend: Open Source CFD                    |
|  \\    /   O peration     | Version:     4.0                                |
|   \\  /    A nd           | Web:         http://www.foam-extend.org         |
|    \\/     M anipulation  |                                                 |
\*---------------------------------------------------------------------------*/
FoamFile
{
    version     2.0;
    format      ascii;
    class       volScalarField;
    location    "200";
    object      divFlux;
}
// * * * * * * * * * * * * * * * * * * * * * * * * * * * * * * * * * * * * * //

dimensions      [1 -3 -1 0 0 0 0];

internalField   nonuniform List<scalar> 
34480
(
0.120901
0.0656653
0.0243801
0.0094723
7.3672e-05
0.00242131
0.00743735
20.7991
100.859
0.0151008
0.191275
0.153464
0.0535544
0.0212865
0.0054887
0.00684097
0.00853678
7.55655
80.2591
0.000812831
0.131309
0.0941863
0.0402862
0.0216027
0.00893244
0.0110053
0.00215631
0.0123985
48.6003
0.00174993
0.372126
0.0259889
0.0178825
0.00760716
0.00283945
0.00499975
0.00313005
0.00750438
24.3971
0.000401293
1.68814
0.803928
1.06647
0.354876
8.13784e-07
0.00138744
0.00230657
0.00340952
9.32271
0.000877448
2.09516
1.76838
1.95152
1.34042
0.36781
0.000310712
0.0014308
0.00124896
2.2365
0.00193087
0.748358
1.10482
1.41045
1.10519
0.49094
0.000194993
0.000646135
0.000336986
0.000298381
0.00234496
1.60443
0.551402
0.0849457
0.366377
0.337572
0.000615367
0.000142835
0.000225584
0.00074096
0.0023624
2.14888
1.59979
1.06979
0.431898
0.08445
0.000530521
0.000117095
3.12081e-05
0.000879547
0.00255532
0.925758
1.33708
1.2867
0.746664
0.307867
0.0495202
3.75475e-05
2.65532e-05
0.00100669
0.00236239
0.162596
0.000364153
0.0429303
0.0511301
0.0471441
0.0503885
0.0528709
0.050632
0.377967
18.8209
0.117472
0.040754
0.0262372
0.0400324
0.0358004
0.0348132
0.0411707
0.0372239
12.1333
12.6819
0.12117
0.0188451
0.0366877
0.0388116
0.0302825
0.0218031
0.0263061
0.0231471
10.219
8.38754
0.0849366
0.0444265
0.0365286
0.0323378
0.0249301
0.0149251
0.0154328
0.0144386
4.79843
0.443182
0.034169
0.0319833
0.0211915
0.0190003
0.0158978
0.00870153
0.00768628
0.00734877
0.320484
0.00294337
0.921532
0.389827
0.338273
0.00939246
0.00874486
0.00425805
0.00421477
0.00407104
0.00112273
0.00110931
0.519609
0.532157
0.564363
0.140177
0.0042438
0.00155389
0.00242616
0.00285408
0.000309313
0.000701069
0.891469
0.182458
0.162945
0.187754
0.00232383
0.000409576
0.000544543
0.00162391
0.00104566
0.000586925
1.79629
0.990601
0.471875
0.0786445
0.000505248
0.00164526
0.000993346
0.000775055
0.000494608
0.000101909
1.64155
1.21217
0.805099
0.305764
0.0222875
0.000460361
0.000833089
0.00063042
0.00105301
0.000342852
0.063294
0.00239703
0.00240993
0.00136696
0.00517907
0.0116826
0.0104786
0.0121122
3.79798
9.68629
0.268633
0.142621
0.091165
0.0629348
0.041688
0.0205641
0.00964199
0.00275483
6.09206
5.33146
0.34796
0.203875
0.132787
0.0925724
0.0642201
0.0363124
0.0203986
0.013037
5.12041
0.0032461
0.189335
0.122814
0.0784465
0.0548225
0.0385093
0.0200249
0.0108231
0.0079429
2.65268
0.00490253
0.0752522
0.0544893
0.034348
0.0252193
0.018795
0.00848275
0.00453613
0.00358803
0.403186
0.00374474
0.330705
0.0249172
0.0150195
0.0119303
0.00937808
0.00353864
0.00244895
0.00258954
0.0022407
0.00419345
0.33099
0.236222
0.248724
0.00435786
0.00445742
0.00156623
0.00165404
0.0020943
0.00228078
0.00553189
0.422266
0.0113462
0.19731
0.179978
0.0558903
0.000593557
0.000201078
0.00108765
0.000873082
0.00355291
1.21718
0.628529
0.261628
0.0242832
0.000941323
0.00176495
0.000777977
0.000187606
0.00107806
5.70631e-06
1.39604
0.955391
0.574558
0.206332
0.0336783
0.000940395
0.000628558
0.000695179
0.000988889
0.000360659
0.0377741
0.00885216
0.0138028
0.0191504
0.022791
0.0191541
0.0145979
0.0195557
0.840213
5.10447
0.00865962
0.00260919
0.0136769
0.0211225
0.0278388
0.0266037
0.0227093
0.0233165
1.5999
4.32398
0.0405927
0.0237311
0.0306619
0.0317287
0.0338839
0.0291037
0.0226456
0.0212789
2.11513
3.73169
0.115588
0.0602167
0.0491936
0.0385564
0.0334194
0.0257127
0.0176674
0.0144861
1.67777
2.08652
0.0751841
0.0425518
0.0329579
0.0241594
0.0204194
0.0152764
0.0100231
0.00767211
0.853646
0.338503
0.222951
0.0220075
0.0163792
0.011766
0.0103252
0.00757319
0.00493837
0.00461016
0.220362
0.00296978
0.297252
0.169798
0.127237
0.0045464
0.00447863
0.00304198
0.00216625
0.00327983
0.0033592
0.00421034
0.1956
0.0917254
0.227036
0.157617
0.0023536
0.00130198
0.00051281
0.0016908
0.00299146
0.00267171
0.870661
0.383976
0.0912799
0.0328058
0.00074324
0.00117701
0.000611315
0.000886864
0.00121821
0.00183742
1.16907
0.698388
0.330331
0.073622
0.00886617
0.00028908
0.000289154
0.000980132
0.00146439
5.39045e-05
0.120202
0.0254485
0.030722
0.0263455
0.0222129
0.0189646
0.0175606
0.0147707
0.0898613
2.31727
0.220971
0.0899068
0.0755066
0.0574304
0.041853
0.0305347
0.0206904
0.0119951
0.570665
2.95243
0.304932
0.151225
0.11475
0.0828191
0.0566792
0.0395373
0.0267431
0.0146034
0.979689
3.10381
0.207067
0.107905
0.0763218
0.0519373
0.0329551
0.0212646
0.0138637
0.00683463
0.880987
2.42512
0.0866152
0.0492589
0.0340583
0.0228623
0.0135232
0.00789771
0.00482067
0.00204419
0.563104
1.36864
0.248017
0.0220305
0.0152825
0.0104647
0.00596491
0.00333381
0.00207911
0.000771324
0.297567
0.441251
0.293546
0.140033
0.0762182
0.00508446
0.0029416
0.00189406
0.00137019
0.000632003
0.00137155
0.00201547
0.00908622
0.169319
0.244633
0.158467
0.0116333
0.000774508
0.000872449
0.000490954
0.000505744
0.00173062
0.531531
0.16712
0.0359805
0.077064
0.00287228
0.000133176
5.70588e-05
0.00016619
0.000540046
0.000380242
0.836493
0.422501
0.125653
0.0270953
0.0416276
0.000421621
9.34427e-05
7.70051e-05
0.000683299
0.000265783
0.0784122
0.0168251
0.0245493
0.0230091
0.0222982
0.023244
0.0224761
0.0220964
0.0224287
0.296193
0.00437611
0.000315904
0.0116203
0.0163033
0.0177074
0.0202256
0.0195569
0.0172757
0.0135708
1.04467
0.0413774
0.00962041
0.00397129
0.0117184
0.0137836
0.0159887
0.0159978
0.0131968
0.334422
1.77916
0.0566736
0.033052
0.0315771
0.0280335
0.0226347
0.0189459
0.0155728
0.0108087
0.53366
1.85029
0.0592687
0.0337432
0.0281661
0.0228102
0.0172007
0.0131223
0.00975614
0.0060329
0.46909
1.41569
0.250155
0.0205273
0.0169421
0.0135946
0.0100879
0.00757542
0.00531878
0.00293279
0.363115
0.796732
0.282442
0.12513
0.0578274
0.00646407
0.00484234
0.00375792
0.00258551
0.00140112
0.0657946
0.152611
0.124661
0.222185
0.25511
0.167037
0.042563
0.00158208
0.00119037
0.000565292
0.00592994
0.0906493
0.256524
0.00351928
0.121506
0.108522
0.020492
0.000872854
0.000485136
0.000149101
0.000674414
0.00145031
0.506654
0.178964
0.031174
0.102101
0.0708358
0.000855876
0.000465011
0.000337048
0.000705545
0.120524
0.0229049
0.0062332
0.0043133
0.00463534
0.00447002
0.00234969
0.00213022
0.000849502
0.00912967
0.00480237
0.107026
0.0395508
0.0322405
0.0243394
0.0187377
0.01174
0.0079748
0.00555085
0.00435495
0.0801748
0.181502
0.0781491
0.0620528
0.0457631
0.0338059
0.0223593
0.0147053
0.0103431
0.000257851
0.766206
0.170252
0.0772933
0.0557251
0.0379572
0.0259455
0.0161755
0.0099766
0.00702316
0.287265
1.13744
0.087425
0.0427643
0.0295337
0.0190963
0.0122527
0.00705697
0.00417936
0.00324096
0.393241
1.11573
0.189651
0.0229174
0.0152151
0.00948816
0.00580807
0.00293409
0.00186152
0.00184365
0.407243
0.834833
0.24492
0.105452
0.0460355
0.00494418
0.00301867
0.00140983
0.00113374
0.00110939
0.150995
0.300655
0.212067
0.254094
0.259369
0.179524
0.0803011
0.000471991
0.000378394
0.000242403
0.0531585
0.0707015
0.0519398
0.107062
0.171725
0.129263
0.0424449
0.000267495
0.000216974
0.000316335
0.00350069
0.24778
0.228987
0.00796611
0.138275
0.153624
0.098812
0.00573814
0.000380385
0.000589567
0.00118016
0.397892
0.0186813
0.00228519
0.0028515
0.00161981
0.00111596
0.00251386
0.00221446
0.00173591
0.00715426
0.00895856
0.0450973
0.0112424
0.00735123
0.00311252
2.1525e-05
0.000123928
0.00059271
0.00154788
0.00562733
0.00855617
0.07511
0.0306777
0.0198119
0.011285
0.00501559
0.00284283
0.00106407
3.86958e-05
0.00561425
0.222955
0.0193245
0.00674025
0.000471101
0.00255264
0.00424483
0.00337955
0.00280395
0.0018251
0.12328
0.61087
0.0138361
0.00785037
0.00870474
0.00786543
0.00671211
0.00457466
0.0032401
0.00199666
0.303784
0.77987
0.231217
0.0363868
0.0085512
0.00713196
0.00562938
0.00344718
0.00243193
0.0163743
0.410005
0.75162
0.254286
0.117807
0.0613459
0.00408574
0.00322715
0.00180776
0.00147692
0.00104992
0.214344
0.39404
0.283772
0.284692
0.270527
0.201097
0.124
0.0417437
0.0332566
0.0172715
0.131632
0.0762835
0.0901294
0.175901
0.198172
0.143181
0.0662357
0.000123454
0.000151028
5.6785e-05
0.00750336
0.182777
0.0173293
0.138182
0.205612
0.188103
0.126364
0.0449544
0.00500808
0.000247527
0.0203632
0.334867
0.0722342
0.0119202
0.0146277
0.0129552
0.0119175
0.0117783
0.00961171
0.00565
0.00291092
0.0213423
0.0633268
0.0173929
0.0180347
0.0143726
0.0113523
0.010092
0.00819917
0.0059071
0.00262076
0.0387154
0.0698992
0.0270085
0.02351
0.018022
0.0132225
0.0105511
0.00750118
0.0055616
0.00343282
0.0337927
0.0816979
0.0355647
0.0274409
0.0198502
0.0137077
0.0102284
0.00699158
0.00552093
0.028997
0.328698
0.0593703
0.0262651
0.018902
0.0130396
0.00867856
0.00643451
0.00449727
0.00380128
0.220359
0.527517
0.285537
0.112092
0.0531079
0.00819827
0.00518549
0.00405374
0.0377897
0.124532
0.376981
0.632133
0.271848
0.136937
0.0847798
0.0120191
0.00309383
0.00252895
0.00149839
0.0382895
0.240883
0.426226
0.33754
0.309651
0.283924
0.225857
0.167317
0.114143
0.115792
0.11504
0.210519
0.230606
0.185637
0.213255
0.207779
0.150758
0.0875939
0.0247432
0.0131072
0.0154501
0.0589205
0.0202319
0.139124
0.22377
0.245777
0.211637
0.15317
0.0884103
0.057147
0.0433679
0.0217246
0.155334
0.0201108
0.00272374
0.00458359
0.00324094
0.00313157
0.00454481
0.00523459
0.00370893
0.00315681
0.0104827
0.0204117
0.00533858
0.00155647
0.000515249
0.000352529
0.00149138
0.00163637
0.00318106
0.00768179
0.0146704
0.0539089
0.0174755
0.0115708
0.00762181
0.0049513
0.00235793
0.00164314
0.000446216
0.0103071
0.0202981
0.0359916
0.0130698
0.00788476
0.00471386
0.00305583
0.00151068
0.00173227
0.00218814
0.00724546
0.161222
0.0159031
0.00507402
0.00223314
0.000853008
0.000444802
7.99906e-05
0.000382936
0.00106399
0.150341
0.348218
0.235276
0.123398
0.0831692
0.0497935
0.0326604
0.0420296
0.095837
0.164482
0.325006
0.509104
0.225801
0.120486
0.0813685
0.03152
0.0012741
0.00070766
0.0320673
0.0893454
0.231816
0.404478
0.35229
0.313472
0.284799
0.240193
0.198597
0.167067
0.175171
0.186412
0.266364
0.334832
0.233832
0.220112
0.199604
0.14742
0.0994284
0.0587705
0.0571192
0.0667911
0.112521
0.121934
0.235011
0.267871
0.262165
0.223447
0.174311
0.127293
0.107297
0.0998961
0.090051
0.0227195
0.00286001
0.00106398
0.00169859
0.000581549
0.000271887
0.00112366
0.00293235
0.00680136
0.00623086
0.0151691
0.00493684
0.00117003
0.000504758
0.000847525
0.000488974
0.000234458
0.000275593
0.00275652
0.0108863
0.0368352
0.0107536
0.00153726
0.00119676
0.00134614
0.00132362
0.000298847
2.56355e-06
0.00171389
0.0113379
0.0338918
0.0188451
0.00623717
0.00500523
0.00404274
0.0032885
0.0019239
0.00160785
0.00180308
0.00389082
0.0422531
0.026509
0.00668616
0.00521753
0.00407163
0.00335195
0.0023903
0.00229859
0.0151636
0.106582
0.218329
0.206682
0.130304
0.100089
0.0801697
0.0708588
0.0818121
0.120026
0.170412
0.273653
0.397447
0.186609
0.102059
0.0715685
0.037598
0.0194422
0.0206047
0.0525189
0.10337
0.201808
0.348937
0.351444
0.309351
0.280796
0.247748
0.219268
0.202106
0.213432
0.231142
0.296211
0.381504
0.233816
0.200486
0.175795
0.132387
0.0988476
0.0757188
0.0825035
0.100446
0.147425
0.206103
0.270905
0.275294
0.257112
0.22213
0.185188
0.154688
0.146236
0.148856
0.154224
0.151796
0.0267088
0.00519084
0.00639676
0.00510359
0.00400587
0.00247971
0.000354263
0.00207978
0.0101795
0.011467
0.0235017
0.00438797
0.0045992
0.00306219
0.00269241
0.00304432
0.00135651
0.00070811
0.0133695
0.00866743
0.0252998
0.00675996
0.00595037
0.00407895
0.00285318
0.00286523
0.00235014
0.00141325
0.0143237
0.0126439
0.0181019
0.0066382
0.00536569
0.00373886
0.00290044
0.00348408
0.00385638
0.0043478
0.0108427
0.000170776
0.0546931
0.00487489
0.0037343
0.0025556
0.00189766
0.00228226
0.00236791
0.0237607
0.0756064
0.14441
0.203223
0.139622
0.114478
0.100545
0.0937895
0.102164
0.127207
0.162429
0.225105
0.311488
0.16354
0.0884066
0.0629419
0.0383585
0.0263667
0.0302021
0.0539338
0.0953473
0.158903
0.280928
0.337975
0.29903
0.273214
0.249508
0.230432
0.221743
0.233522
0.252306
0.302416
0.383751
0.20425
0.162986
0.139785
0.105943
0.0844123
0.0737619
0.0861892
0.10936
0.154723
0.228743
0.276168
0.263167
0.240542
0.211938
0.186219
0.168617
0.169337
0.179924
0.197504
0.222144
0.00452088
0.000525412
0.00241384
0.00247066
0.00330606
0.00369026
0.000993517
0.00348353
0.000683461
0.0226817
0.000941567
0.000201351
0.00164549
0.00105903
0.00102744
0.00177969
0.00110544
0.00458721
0.0122064
0.0339878
0.00161164
0.0016097
2.06833e-05
0.000192217
0.000140934
5.31403e-05
0.00144217
0.00476873
0.0148485
0.029247
0.000478983
0.000224424
0.000527642
0.000343293
0.000294071
0.000537963
0.000691753
0.00143271
0.00849201
0.0127484
0.0377481
0.000250437
0.000809849
0.000742413
0.000811376
0.00126848
0.000383193
0.0174858
0.0361038
0.100043
0.166181
0.125299
0.107895
0.100019
0.0960859
0.101868
0.116659
0.139013
0.170093
0.242543
0.111104
0.0564325
0.0387188
0.0230885
0.016225
0.0205826
0.0367439
0.0674299
0.102816
0.208739
0.305981
0.275887
0.255008
0.239432
0.22761
0.223712
0.234106
0.249779
0.285982
0.355922
0.159818
0.114903
0.0950917
0.0695875
0.0565544
0.0532294
0.0674755
0.0912204
0.131533
0.202178
0.257721
0.238933
0.217605
0.195886
0.178713
0.169122
0.174357
0.187455
0.209119
0.240733
0.0373662
0.00056979
0.00331348
0.00382342
0.00450713
0.006073
0.00605491
0.000552698
0.00915117
0.00692209
0.000316166
0.000120183
0.00100606
0.000575987
0.000459197
0.00142476
0.00365124
0.00549265
0.00741119
0.00139638
0.00216201
0.00128617
0.00031462
0.000313518
0.000364468
0.000105514
0.000264437
0.00168166
0.00700509
0.00172068
0.00470693
0.00124109
0.000656011
0.00113523
0.00165605
0.00183214
0.00320715
0.00271909
0.00485075
0.000194581
0.0242112
0.0020141
0.000809241
0.00104223
0.0015018
0.00151507
0.00114909
0.00903364
0.0155723
0.0572077
0.127847
0.103665
0.0921548
0.0878687
0.0854192
0.08894
0.0973217
0.110878
0.126671
0.179311
0.0602395
0.0217514
0.00974354
0.000147341
0.00124593
1.19403e-05
0.0106042
0.0318289
0.0501676
0.136708
0.273183
0.250695
0.234326
0.224154
0.216714
0.214841
0.222994
0.233558
0.259714
0.312381
0.0991593
0.060106
0.0460562
0.0279868
0.0204662
0.0204329
0.0329486
0.0527848
0.084174
0.144708
0.219848
0.203602
0.187046
0.172411
0.161735
0.156639
0.16251
0.173082
0.19048
0.222171
0.00186405
0.0245699
0.0164656
0.00870318
0.00397242
0.000432355
0.00616431
0.0113854
0.0078598
0.0132221
0.00899482
0.000432319
0.000922302
0.00079128
0.000575047
0.00052412
0.00146846
0.00697754
0.0137142
0.0263506
0.00759689
0.000174003
0.000612301
0.000583779
0.00138267
0.00318024
0.0043867
0.00671452
0.0161728
0.0194432
0.00163789
0.00102522
0.00112413
0.000543406
0.000990163
0.00293662
0.00410814
0.00426396
0.0118183
0.0089653
0.0222872
0.00680633
0.00204927
0.00076288
0.000382232
0.0027176
0.00581683
0.0105868
0.0125965
0.0340926
0.102877
0.0850424
0.0771696
0.0743685
0.0731695
0.07651
0.0819951
0.0895225
0.0971345
0.131487
0.0252349
6.43137e-05
0.000520903
0.000199501
0.000235866
0.00140129
0.000843488
0.00257374
0.0101475
0.0754709
0.241559
0.227705
0.216109
0.210005
0.205737
0.205221
0.210823
0.215828
0.234465
0.266889
0.0343199
0.0037443
0.000238608
0.000378654
0.000403856
0.000398311
0.000915364
0.00529832
0.0257814
0.0731306
0.180331
0.167092
0.154834
0.145633
0.139538
0.137605
0.143819
0.151623
0.165544
0.188937
0.578627
0.0362234
0.0299704
0.0214737
0.0166659
0.0144379
0.0114511
0.0049123
0.00420469
0.00473634
0.0091316
0.0034018
0.000979912
0.000225547
0.000435069
0.00206717
0.00422763
0.00570811
0.00364212
0.00928685
0.00725059
6.59529e-05
0.000491981
0.000117437
0.000561369
0.00207439
0.00294314
0.0053857
0.00230583
0.00625549
0.00160657
6.06647e-05
0.00105112
0.00089552
0.000483469
0.000692153
0.00129336
0.00255507
0.0034351
0.00514161
0.0171102
0.00827238
0.0063616
0.00575833
0.00439132
0.00364396
0.00349941
0.00489143
0.00291804
0.0323351
0.0788164
0.0664071
0.0622854
0.0606644
0.0589762
0.0596669
0.0617289
0.0655696
0.0648781
0.10011
0.00286803
0.000537755
0.000585228
0.000670384
6.36427e-06
0.000791981
0.000164029
0.000270623
0.000695895
0.0332134
0.218309
0.211208
0.203842
0.200488
0.197603
0.197729
0.20131
0.202373
0.216149
0.231832
0.000437396
0.00117338
0.000623183
0.000649387
0.000523431
0.000764195
0.000378343
8.22504e-05
0.000415505
0.0090392
0.144565
0.134762
0.126322
0.121091
0.118106
0.118834
0.125043
0.129052
0.142586
0.152397
1.03533
0.000736729
0.00715851
0.0109524
0.0117071
0.00865931
0.00430733
0.000526084
0.00260215
0.0177714
0.00196956
0.00592572
0.00372861
0.00240912
0.000926518
0.000524027
0.000316704
0.00194794
0.00781676
0.013916
0.00760261
0.0102293
0.0103823
0.00977881
0.00915638
0.00676267
0.00523349
0.00271151
0.00655201
0.00712702
0.00292878
0.00114866
0.000402445
0.00166443
0.00104877
0.00104449
0.00109397
7.9518e-05
0.00456148
0.0029313
0.0131009
0.0082041
0.00756813
0.00556708
0.00486546
0.00427237
0.00299058
0.00275499
0.002826
0.0218745
0.057318
0.0486738
0.046808
0.0446398
0.0436201
0.0440503
0.0442328
0.0449069
0.0441619
0.0680076
0.00234047
0.00116451
0.000385917
0.000831869
0.0010969
0.000308952
0.000173798
0.000369344
0.000599314
0.00486626
0.212078
0.208396
0.203579
0.200945
0.1984
0.198204
0.199762
0.197729
0.210232
0.210314
0.00239589
0.000228888
0.000536956
0.000211916
0.000332165
0.00124139
0.00206675
0.00209035
0.00290768
0.000891962
0.106813
0.101422
0.096563
0.0939939
0.0900315
0.088014
0.090938
0.0907762
0.100543
0.107676
0.240087
0.0472054
0.0410435
0.0282114
0.0176967
0.0110538
0.00631431
0.00435563
0.00594328
0.00246341
0.00897544
0.00050567
0.00134509
0.00392943
0.00432136
0.00303723
0.00331657
0.0050711
0.00134771
0.0122476
0.00618247
0.0120329
0.0137512
0.0165112
0.0165143
0.0141185
0.0110876
0.00947322
0.00708508
0.0071734
0.00742835
0.000210369
0.000811774
0.00203109
0.00222471
0.0021613
0.00164804
0.00188193
0.00596754
0.0057673
0.00760772
0.00315325
0.00501631
0.00537206
0.00440774
0.00308025
0.0013661
0.00102772
0.00458455
0.00139689
0.0350314
0.0276481
0.029179
0.0288402
0.0277221
0.0268533
0.0252214
0.0222663
0.0236296
0.0300056
0.00370517
0.000828736
0.000765431
0.000392591
3.33163e-05
0.000490016
0.000199079
0.000223474
0.000966043
0.00024045
0.202548
0.200937
0.199574
0.197322
0.194976
0.193214
0.192288
0.188056
0.196543
0.186062
0.000505251
0.000488605
0.000245618
0.000526057
0.00119995
0.00171847
0.00186224
0.00189652
0.00172429
0.000283113
0.0900489
0.0877593
0.0842476
0.0828508
0.081933
0.0808039
0.0814842
0.080023
0.0845044
0.0853139
1.16622
0.00856647
0.00270861
0.00264737
0.00218021
0.000784025
0.000305471
0.000701436
0.000192732
0.0098951
0.00739504
0.0058124
0.00841027
0.00563651
0.00414877
0.00381303
0.00358676
0.00150441
0.00429315
0.00184124
4.7308e-05
0.00191536
0.00157988
0.000291381
3.54497e-05
0.000157238
0.00117973
0.00287992
0.00068774
0.000362533
0.00155229
0.00101217
0.00206285
0.00159905
0.00164776
0.00155795
0.00142116
0.00242791
0.000855065
0.000732752
0.00293208
0.000141823
0.0014698
0.00125386
0.0012378
0.00119521
0.00112753
0.00148344
0.00152241
0.000617569
0.0102943
0.00776479
0.00833017
0.00841303
0.00823821
0.00743837
0.0060131
0.0038992
0.00101996
0.000527365
0.00241314
0.000633531
0.00023546
0.000266481
0.000127666
6.83838e-05
0.000212945
0.000152093
0.000805162
0.000278014
0.145386
0.146027
0.148299
0.1474
0.146291
0.143585
0.139953
0.134314
0.133243
0.118007
0.000389661
0.000894708
0.00151799
0.000554492
0.000641913
0.000574124
0.000393593
0.000648321
0.000204192
0.00100967
0.158251
0.158665
0.160346
0.160385
0.158851
0.156346
0.153483
0.148787
0.152964
0.139837
0.33702
0.165407
0.163679
0.159624
0.157214
0.156433
0.156703
0.158214
0.150561
0.161135
0.00660811
0.00211626
0.00118937
0.00141973
0.00134433
0.00119501
0.00064407
0.000648655
0.000438114
0.00475801
0.0152332
0.0106426
0.0115101
0.0110876
0.0112694
0.0117698
0.0127509
0.0134332
0.00998922
0.00937846
0.00235577
0.00118394
0.000919218
0.000980732
0.000904194
0.000825755
0.00110517
0.00129417
0.00179623
0.00550848
0.00141921
0.000690298
0.000685159
0.000649942
0.000668629
0.00063087
0.0006716
0.0013208
0.00134744
0.0042435
0.000431571
0.000405733
0.000789969
0.000762716
0.000832125
0.000732215
0.000487341
0.000960669
0.000780095
0.00232055
0.000620801
0.000334993
6.47496e-05
0.000100391
1.87382e-05
4.32134e-05
5.7975e-05
0.000345838
8.25718e-05
0.00115376
0.0348807
0.0355483
0.037097
0.0371928
0.0368058
0.0356397
0.033649
0.0306469
0.0276282
0.0205905
0.000661664
0.00110415
0.000592811
0.000456133
0.000367393
0.000326553
0.000337347
0.000414143
0.000287836
0.00108723
0.234263
0.237542
0.239202
0.239472
0.237598
0.233697
0.228048
0.218888
0.21419
0.19399
1747.84
1107.15
1298.34
2177.1
1470.43
1037.08
1258.27
2001.08
1091.4
757.787
1009.74
1657.68
715.37
477.21
707.087
1210.45
391.431
246.349
400.976
705.719
150.285
83.7998
140.341
234.758
1.99646
12.3224
47.174
133.669
92.4737
66.9987
182.181
419.827
134.96
91.4314
263.591
634.152
109.547
79.2071
245.834
612.037
138.187
3.40032
0.0429942
18.2523
169.947
10.2297
0.0135979
0.0308975
178.654
13.0868
0.00767927
11.9128
153.114
14.4289
0.00113783
22.4901
102.963
11.7758
0.0054123
20.9255
44.1392
5.52623
0.0161456
8.96081
8.16538
1.97002
0.0398622
7.05627
46.1509
8.40528
0.0391856
21.2275
65.3763
10.9903
0.00600704
15.0616
61.3571
14.1462
0.830224
0.0206005
83.3254
54.1773
46.9087
55.7948
83.1293
52.1177
40.1535
52.1598
92.872
54.4183
41.511
56.1787
84.6735
45.3424
35.3643
50.2708
60.1248
29.2505
23.5643
35.0527
26.7468
11.434
9.15279
13.5848
5.70752
3.62474
4.20504
8.73401
30.9303
14.0173
14.4867
27.8786
45.2358
19.413
21.9874
41.8983
47.8831
22.3293
27.524
49.0631
12.1939
6.87692
4.94352
5.73572
16.6668
10.318
7.88054
8.60195
22.6675
13.6737
9.9829
11.6156
24.7092
13.6484
9.50958
11.6979
20.7044
10.2697
7.1074
9.08593
10.9972
4.76381
3.29621
4.17944
1.54002
1.11449
1.21199
2.12934
13.5269
5.93682
5.49589
8.58377
21.1044
7.68383
8.07905
12.8663
22.7465
7.25539
10.6078
15.8464
4.81209
3.44796
2.70865
2.81258
6.25354
3.94417
3.2486
3.34585
8.44941
5.92362
4.9488
5.08451
9.62812
6.74143
5.46728
5.76399
8.71816
5.67144
4.35207
4.72632
5.31181
3.02965
2.15978
2.36181
0.0226572
0.25666
0.385866
0.65826
5.76648
3.23587
2.78784
3.76712
10.1338
4.69278
4.46412
6.12029
12.2999
5.31799
7.20545
8.94056
1.03811
0.637772
0.320446
0.20604
1.90361
0.877884
0.552713
0.331249
3.09402
1.96546
1.53592
1.26251
3.95734
2.78271
2.27369
2.07371
3.91883
2.79944
2.27687
2.22616
2.75995
1.83809
1.40299
1.39187
0.519661
0.193959
0.0261705
0.104389
2.20604
1.52409
1.3604
1.75374
4.51129
2.54269
2.32187
2.98632
5.78053
3.01691
3.84974
4.44272
0.0175574
0.0206918
0.0148711
0.00565465
0.389103
0.0632799
0.118919
0.181009
1.04999
0.683816
0.635929
0.709548
1.74698
1.2672
1.12153
1.11357
1.98287
1.49137
1.29369
1.27839
1.64035
1.20685
0.999384
0.991011
0.623398
0.38211
0.237934
0.169468
0.728977
0.629192
0.640236
0.830693
1.99171
1.37571
1.28428
1.58301
2.6656
1.76068
2.10482
2.38796
0.0672592
0.0211153
0.0429232
0.0662356
0.0969365
0.022411
0.110328
0.241831
0.225767
0.117922
0.204293
0.440305
0.730993
0.596196
0.639791
0.834705
1.0373
0.850569
0.817581
0.917049
1.04723
0.840443
0.757947
0.809387
0.594012
0.447085
0.355946
0.345606
0.090946
0.133602
0.191405
0.269185
0.798717
0.649971
0.634765
0.75262
1.17409
0.950693
1.09563
1.22971
0.0160725
0.0183713
0.00366892
0.0108425
0.0508963
0.076127
0.118482
0.168634
0.0848068
0.0773168
0.135828
0.212257
0.386123
0.215175
0.179953
0.160282
0.609227
0.50013
0.468926
0.454545
0.727495
0.614976
0.562389
0.551573
0.531967
0.447285
0.384629
0.361355
0.197445
0.135526
0.0783564
0.0544712
0.214602
0.208102
0.224966
0.251783
0.453314
0.43056
0.494541
0.549415
0.0775369
0.0306989
0.0419679
0.0585385
0.0838458
0.0384623
0.0965415
0.182145
0.0812361
0.067323
0.159743
0.316066
0.182846
0.0162027
0.0527004
0.181957
0.348553
0.262608
0.226131
0.138986
0.508454
0.435392
0.393947
0.333751
0.445956
0.394755
0.346951
0.295119
0.319285
0.26306
0.212339
0.187975
0.0755698
0.0452537
0.0131039
0.0088593
0.0810394
0.0998831
0.128845
0.166969
0.0736571
0.025571
0.013708
0.00418471
0.00592442
0.0769298
0.117482
0.164803
0.029635
0.0803281
0.143751
0.227466
0.00263415
0.0414944
0.0964726
0.170489
0.145559
0.172098
0.211519
0.258584
0.325681
0.322873
0.331976
0.353387
0.340374
0.334515
0.319105
0.305056
0.347608
0.309095
0.272077
0.246839
0.211288
0.172174
0.134524
0.0927118
0.11599
0.0952072
0.0820237
0.0529934
0.0204299
0.0324721
0.0394177
0.0520381
0.0348115
0.0264083
0.0531691
0.0926695
0.0251799
0.0421103
0.0816322
0.150058
0.00307738
0.0449322
0.0860946
0.163793
0.0821189
0.129601
0.166492
0.215649
0.229737
0.252042
0.268458
0.297707
0.256893
0.278699
0.276765
0.269366
0.329057
0.309523
0.286065
0.267623
0.251553
0.221892
0.192298
0.173113
0.209746
0.196383
0.189617
0.192458
0.0489983
0.0147928
0.00728222
0.00244885
0.00726488
0.0668962
0.0984036
0.136213
0.0125505
0.0714469
0.120935
0.188541
0.0233369
0.0376547
0.0777891
0.133401
0.0562069
0.0480304
0.036377
0.017302
0.176196
0.16902
0.157905
0.115085
0.193752
0.204616
0.1917
0.140389
0.292034
0.275118
0.255587
0.236838
0.243306
0.221843
0.196015
0.194816
0.237817
0.22602
0.219713
0.221312
0.0109158
0.0225091
0.0261358
0.0345992
0.0268329
0.00598137
0.00530866
0.0013308
0.00632984
0.000107122
0.0019855
0.0057723
0.0106146
0.00702635
0.00250284
0.00832804
0.00867225
0.0288125
0.0460961
0.0316516
0.103496
0.118401
0.123023
0.102796
0.123317
0.141026
0.136346
0.096992
0.247143
0.230684
0.21527
0.204637
0.208253
0.179228
0.150273
0.123208
0.212306
0.201443
0.206841
0.190378
0.0748406
0.0235862
0.0203342
0.0203209
0.0084706
0.0393998
0.057947
0.0792063
0.00162051
0.039707
0.0649065
0.0989146
0.00767414
0.0255989
0.0478365
0.0820633
0.0113911
0.0288036
0.0525207
0.0649845
0.0659857
0.0910437
0.098912
0.0990692
0.0748346
0.100338
0.0988835
0.0750038
0.208889
0.19069
0.175757
0.163206
0.142931
0.120498
0.104444
0.0717824
0.176096
0.16726
0.177938
0.179462
0.046918
0.00349841
0.00847659
0.0148768
0.0260705
0.0253778
0.0312722
0.0351338
0.00618308
0.0237847
0.0346487
0.0435843
0.00596273
0.0179568
0.0291576
0.0398135
0.00718998
0.0101077
0.0197427
0.0322626
0.0645134
0.0496031
0.0351071
0.00398918
0.0564889
0.0571713
0.0436627
0.00266244
0.183643
0.149048
0.132919
0.118512
0.0846198
0.0723411
0.0645323
0.0556243
0.14753
0.123038
0.121175
0.130755
0.0242819
0.0150468
0.0132708
0.0142148
0.0105368
0.00988967
0.0135225
0.0188093
0.00640371
0.00647729
0.00970514
0.0169816
0.00621461
0.0028612
0.00499743
0.0126227
0.00407213
0.00133593
0.00214452
0.00943785
0.0560193
0.0390594
0.0290051
0.00786824
0.0393266
0.0330327
0.0255856
0.000395819
0.169983
0.12589
0.116746
0.125767
0.0437962
0.0250075
0.0143476
0.0104271
0.0828011
0.0670385
0.0745693
0.0729202
0.0717741
0.00900578
0.00732964
0.00730852
0.0236986
0.0156015
0.0156764
0.016292
0.0121544
0.0151442
0.0153252
0.0173138
0.00545676
0.0123185
0.0122845
0.0151338
0.0094925
0.0087314
0.00887998
0.012552
0.0478744
0.0273699
0.0181128
0.0178437
0.0315075
0.0170281
0.0114558
0.0073552
0.168369
0.112221
0.102447
0.124154
0.00230393
0.00407123
0.0020361
0.00394928
0.0487448
0.0294681
0.043688
0.0491868
0.0131063
0.0026113
0.000540372
0.0021277
0.0168426
0.00154926
4.02449e-05
0.000304949
0.0206261
0.000537949
0.00251626
0.00335472
0.0190317
0.000820888
0.00243898
0.00296107
0.0134658
0.00128944
0.00227986
0.00251674
0.00675986
0.00207572
0.00211741
0.00210326
0.00213994
0.00268461
0.00181649
0.00162674
0.113852
0.0674614
0.0609649
0.0788156
0.00408389
0.0013079
0.00205025
0.000749154
0.109874
0.0689398
0.0760639
0.0929418
0.156147
0.0773101
0.0680633
0.0917121
0.0112725
0.000117808
0.000292884
0.00122201
0.00883498
0.00124644
0.000952267
4.2569e-05
0.00643169
0.00123566
0.000976073
0.000195438
0.00350405
0.00104286
0.000937149
0.000328005
0.000820824
0.000670668
0.000805988
0.00036469
0.00178559
0.000245474
0.000595045
0.00028232
0.0152963
0.00202847
0.000800409
0.00655036
0.00319078
0.000469112
0.000385753
0.000882226
0.18167
0.187797
0.187556
0.173989
0.0150323
255.414
67.6161
16.8139
9.70471
3.6297
0.0116223
0.0783264
0.276182
0.0459312
0.0948267
187.11
22.5375
14.5622
4.85133
1.98159
0.04113
0.0200364
0.168284
0.126927
0.0869781
138.447
3.01397
8.27878
0.659948
0.448361
0.0231604
0.0826502
0.187808
0.234367
0.0323383
85.0321
0.00154651
3.83174
0.025856
0.0473716
0.0583757
0.0844718
0.143814
0.166014
0.00223977
38.7783
0.00784247
0.845463
0.019026
0.0282613
0.0315237
0.436902
0.428798
1.0364
0.00584126
6.67371
0.00963882
0.00908348
0.00843473
0.0140044
0.115984
0.637643
0.942013
1.50813
0.0124852
9.50881
0.0168465
0.0142224
0.00889836
0.0131158
0.014086
0.0481455
0.120271
0.382464
0.0125629
13.0792
0.0235923
0.0190772
0.0127145
0.014604
0.0181534
0.2396
0.994067
1.53367
0.00646576
9.52845
0.0250128
0.018546
0.0127622
0.0122102
0.0205198
0.0158847
0.00422644
0.3763
0.0046382
6.6685
0.0226255
0.0143299
0.00738576
0.00792504
0.0195044
0.0163209
0.00353783
0.0132694
0.018932
0.043584
0.0456092
0.0464074
0.0365774
0.00107213
0.0871608
0.260103
0.539482
0.365794
0.0436814
0.00294511
0.0327729
0.0780612
0.123047
0.182089
0.251799
0.403123
0.888614
0.153995
0.0115887
0.0651176
0.0969441
0.14769
0.188144
0.242105
0.295973
0.376961
0.691881
0.230885
0.0130809
0.0570382
0.0726457
0.100706
0.11852
0.143109
0.164651
0.185387
0.320589
0.222011
0.00942519
0.459896
0.0250752
0.0341346
0.0397939
0.0477496
0.0527157
0.0528064
0.101418