/*--------------------------------*- C++ -*----------------------------------*\
| =========                 |                                                 |
| \\      /  F ield         | foam-extend: Open Source CFD                    |
|  \\    /   O peration     | Version:     4.0                                |
|   \\  /    A nd           | Web:         http://www.foam-extend.org         |
|    \\/     M anipulation  |                                                 |
\*---------------------------------------------------------------------------*/
FoamFile
{
    version     2.0;
    format      ascii;
    class       volScalarField;
    location    "200";
    object      epsilon;
}
// * * * * * * * * * * * * * * * * * * * * * * * * * * * * * * * * * * * * * //

dimensions      [0 2 -3 0 0 0 0];

internalField   nonuniform List<scalar> 
34480
(
4717.43
4660.03
4628.72
4622.39
4645.73
4741.76
5053.59
5946.82
8082.81
11958.1
1170.71
860.183
744.409
847.933
1570.43
5350.77
25081.7
121767
530253
1.81285e+06
839.922
635.423
566.23
679.525
1342.45
4815.44
23978.9
124897
585881
2.18061e+06
647.315
510.167
471.577
581.588
1174.32
4354.48
22691.5
124285
614871
2.42828e+06
531.817
432.024
411.625
515.899
1052.01
3985.2
21457.2
122077
629915
2.60345e+06
456.19
376.453
363.227
458.424
949.167
3702.83
20547.3
120652
645079
2.77005e+06
411.209
344.231
335.395
420.869
867.965
3425.12
19399.6
116998
646481
2.87732e+06
402.68
344.002
334.292
403.689
784.421
3021.12
17266
106465
607009
2.80405e+06
571.909
519.455
504.07
538.669
762.376
2114.74
10897.9
67520.8
399173
1.9301e+06
5536.18
5511.1
5493.39
5480
5471.55
5470.17
5485.91
5555.6
5812.58
6323.15
4645.35
4589.69
4556.32
4545.68
4555.49
4608.27
4795.69
5369.81
6809.55
9566.3
1043.59
759.27
620.051
599.727
713.878
1245.87
3723.22
16124.3
88052.8
531636
733.607
543.66
450.228
451.27
576.658
1047.87
3104.08
14576.4
96633.9
671020
577.492
444.3
381.885
394.651
511.821
921.176
2685.1
13379.7
104257
789703
484.606
383.378
340.988
360.397
469.762
835.837
2413.43
12608
111933
896053
423.555
339.994
307.038
326.958
425.959
757.031
2204.27
12169.4
120746
1.0039e+06
386.165
314.423
288.302
306.965
396.581
698.295
2029.35
11631
126666
1.08894e+06
381.196
317.802
293.869
307.125
377.394
621.185
1717.86
10077.7
120998
1.09335e+06
549.236
493.239
469.555
470.602
504.077
617.953
1130.08
5633.39
77440.9
787002
5413.25
5385.95
5365.63
5349.15
5336.37
5328.32
5332.04
5366.99
5561.11
6304.79
4559.29
4508.58
4477.1
4466.62
4473.67
4516.12
4671.68
5152.48
6311.54
8141.62
867.918
643.938
524.651
495.843
552.756
834.327
2006.23
6456.16
21733.7
74695
591.194
441.798
359.71
345.538
403.204
625.384
1500.21
5231.3
21650.9
98384.8
479.296
370.042
312.063
308.712
362.744
544.693
1252.2
4576.95
22853.3
128701
413.574
327.622
286.408
290.65
343.282
502.378
1116.93
4263.84
25375.1
167204
369.953
296.993
264.056
270.66
319.719
463.227
1023.14
4162.1
29366.6
217182
342.72
278.898
252.323
259.56
305.384
437.968
957.338
4091.29
33493.1
270564
343.626
286.433
262.479
267.323
303.824
412.178
842.419
3655.5
34241.8
302498
511.823
460.93
438.53
436.613
456.597
517.448
739.395
2257.69
22029.3
223838
5303.76
5277.39
5256.93
5240.01
5226.4
5216.89
5217.99
5248.49
5415.26
6073.75
4468.57
4421.94
4392.04
4381.81
4386.89
4421.4
4551.11
4957.48
5936.48
7399.04
725.649
549.753
449.45
420.237
453.709
637.332
1373.98
3856.48
10225.8
22714.1
467.982
354.812
287.249
270.049
302.003
436.957
943.052
2779.13
8345.33
23470.3
388.472
302.988
253.735
245.447
275.046
380.957
771.746
2293.04
7753.83
27546.7
343.878
274.813
239.003
237.615
267.583
358.925
689.36
2064.05
7946.69
34812
314.449
254.42
225.396
226.814
255.937
339.394
639.037
1974.59
8829.31
46516.6
295.885
242.527
218.934
221.664
250.038
329.091
609.34
1923.75
9950.71
61248.9
302.281
253.668
232.524
234.239
257.602
324.236
560.315
1729.94
10154.4
72082.9
471.249
426.975
407.294
404.329
417.728
458.57
588.315
1201.65
6355.34
52600.1
5180.02
5156.41
5138.03
5123.06
5111.38
5104.02
5106.76
5136.14
5274.86
5789.75
4373.46
4329.71
4300.79
4290.56
4294.03
4322.51
4432.41
4779.66
5616.22
6825.56
621.323
479.225
393.627
365.858
386.524
515.597
1029.62
2692.34
6580.93
12306.2
374.969
288.775
233.638
216.388
234.112
321.209
644.808
1736.17
4519.03
9415.34
315.275
249.029
208.369
198.375
213.804
277.156
510.862
1344.86
3688.96
8867.66
284.383
230.186
200.435
196.313
212.309
264.549
451.874
1161.61
3422.45
9793.51
264.912
217.11
192.861
191.45
207.75
255.508
421.229
1083.4
3529.88
12294.5
252.793
209.898
190.124
190.212
206.934
253.18
407.15
1038.36
3759.61
15910.1
263.467
223.828
206.14
206.007
220.312
260.513
391.393
941.123
3700.64
18792.1
432.253
395.226
378.554
375.098
383.514
409.809
485.509
772.57
2369.33
13552.5
5050.78
5030.01
5013.78
5000.8
4991.05
4985.72
4989.66
5015.06
5124.89
5505.32
4273.84
4232.02
4203.71
4193.45
4195.79
4220.01
4315.56
4618.99
5347.83
6373.82
547.847
428.435
353.634
327.879
341.671
439.089
826.795
2065.17
4920.32
8916.93
310.041
242.346
196.751
180.774
190.966
251.033
475.791
1210.38
2983.05
5599.3
260.995
208.984
175.695
165.818
173.512
212.653
361.815
876.77
2182.45
4271.17
237.547
195.292
171.222
166.215
174.111
203.567
313.332
718.892
1838.89
3928.09
224.092
186.785
167.265
164.607
173.053
199.336
291.434
648.978
1753.21
4332.05
216.126
182.666
166.78
165.502
174.712
200.521
283.919
610.401
1747.04
5160.74
229.512
198.316
184.128
183.026
191.286
214.529
285.712
563.192
1653.58
5847.47
396.205
366.424
352.806
349.362
354.384
370.874
414.931
563.105
1174.61
4304.44
4915.95
4898.05
4884.01
4873.04
4865.17
4861.7
4866.62
4888.04
4970.4
5244.32
4169.17
4128.76
4101.01
4090.79
4092.38
4113.52
4198.25
4468.08
5113.02
5994.78
495.164
391.31
324.637
300.893
310.78
388.473
697.414
1678.41
3940.95
7123.44
266.223
210.831
172.288
157.952
164.225
208.641
376.662
918.266
2208.31
4041.23
222.578
180.684
153.338
144.407
148.164
173.786
276.173
627.957
1495.17
2706.66
202.512
169.404
150.221
145.349
148.931
165.783
233.468
487.038
1160.23
2142.3
192.212
163.422
148.13
145.19
149.201
163.363
215.608
422.348
1025.56
2048.23
186.559
161.072
148.739
146.935
151.64
165.523
210.481
387.939
957.124
2169.04
201.166
177.399
166.436
164.959
169.416
182.359
220.566
366.631
879.823
2295.63
363.757
340.778
330.064
326.959
329.783
339.835
365.394
446.512
735.915
1847.64
4775.27
4760.2
4748.34
4739.28
4733.14
4731.22
4736.69
4754.72
4816.24
5019.19
4058.74
4019.64
3992.64
3982.66
3983.77
4002.51
4078.38
4320.56
4896.29
5658.92
455.348
362.795
302.644
280.803
288.251
352.443
607.35
1412.96
3269.96
5897.37
236.561
189.442
156.19
143.478
147.658
182.427
315.309
740.887
1751.26
3181.77
195.723
161.072
138.475
130.764
132.618
150.561
225.812
486.982
1133.09
2006.54
176.907
150.766
135.638
131.377
132.837
142.92
187.51
360.546
827.431
1457.36
168.091
146.055
134.345
131.64
133.343
141.012
172.043
300.905
684.683
1251.61
163.569
144.561
135.277
133.453
135.657
142.982
167.716
269.727
601.536
1186.25
178.304
160.76
152.592
151.116
153.338
160.34
180.945
261.182
541.907
1169.4
335.161
318.218
310.113
307.527
309.037
314.993
329.827
375.983
536.889
1066.98
4628.48
4616.15
4606.37
4599.09
4594.45
4593.71
4599.23
4614.21
4660.82
4819.99
3941.78
3904.23
3878.38
3868.86
3869.66
3886.32
3954.29
4171.9
4687.32
5348.99
422.825
339.234
284.808
264.836
270.592
324.579
538.859
1213.3
2762.43
4944.41
215.674
174.412
145.364
134.169
137.144
165.389
274.393
622.702
1447.66
2607.81
176.584
147.376
128.668
122.195
123.148
136.452
194.661
400.352
917.521
1617.05
158.217
137.5
125.708
122.207
122.698
129.112
160.396
287.332
644.118
1133.24
150.14
133.434
124.663
122.41
123.002
127.269
146.818
233.371
506.61
915.074
146.142
132.267
125.484
123.895
124.806
128.658
142.834
205.493
423.415
801.721
160.358
147.819
141.954
140.676
141.673
145.367
156.686
203.118
376.078
746.337
310.324
298.467
292.592
290.601
291.351
294.798
303.394
330.339
428.653
747.819
4475.3
4465.52
4457.69
4451.97
4448.68
4448.71
4453.81
4465.91
4501.33
4630.81
3817.55
3782.02
3757.86
3749.05
3749.66
3764.36
3824.72
4019.11
4479.64
5055.3
393.904
318.184
269.257
251.237
255.726
301.319
482.579
1052.04
2354.55
4164.73
199.815
163.103
137.689
127.936
130.15
153.506
244.632
536.423
1227
2184.13
162.277
137.486
122.095
116.788
117.316
127.547
173.927
341.694
773.833
1365.48
144.359
128.017
118.97
116.223
116.315
120.646
143.611
241.256
530.271
949.34
136.857
124.372
117.956
116.199
116.308
118.786
131.775
193.359
402.368
742.554
133.167
123.281
118.474
117.21
117.509
119.557
128.073
168.956
324.166
618.725
146.563
137.901
133.848
132.841
133.215
135.117
141.475
169.738
285.413
551.904
288.884
281.091
277.027
275.561
275.978
277.909
282.877
298.813
361.623
579.419
4315.48
4308.02
4301.94
4297.63
4295.4
4295.85
4300.19
4309.61
4336.2
4441.93
3685.45
3652.63
3630.75
3622.87
3623.36
3636.1
3688.84
3860.26
4269.02
4771.53
366.206
298.105
254.826
238.933
242.433
280.671
433.397
914.48
2013.76
3514.55
186.5
153.788
131.799
123.472
125.168
144.514
220.997
467.832
1054.75
1854.79
150.862
129.959
117.506
113.271
113.602
121.587
158.896
297.689
667.066
1185.11
133.821
121.121
114.336
112.265
112.227
115.293
132.545
209.32
450.137
827.096
127.024
117.879
113.31
112.009
111.946
113.466
122.418
167.668
333.416
635.2
123.629
116.782
113.484
112.546
112.592
113.717
119.05
146.812
262.261
511.162
136.111
130.339
127.648
126.911
126.999
127.961
131.606
149.456
230.431
441.136
270.29
265.584
262.915
261.95
262.133
263.205
266.053
275.509
316.191
472.061
4148.84
4143.42
4138.84
4135.77
4134.32
4134.92
4138.35
4145.35
4164.85
4249.6
3545.19
3515.81
3496.75
3490.01
3490.41
3501.18
3546.13
3694.31
4052.76
4493.02
338.276
278.095
240.816
227.254
229.975
261.505
388.46
792.13
1720.92
2970.13
174.168
145.425
126.87
119.989
121.314
137.144
200.733
409.092
911.921
1591.68
141.158
123.897
114.103
110.839
111.082
117.294
147.06
261.469
579.32
1044.73
125.599
115.978
111.043
109.543
109.495
111.735
124.729
185.062
386.711
733.201
119.725
113.199
110.041
109.118
109.026
110.021
116.302
149.79
282.236
555.013
116.688
112.098
109.911
109.253
109.223
109.886
113.334
132.479
219.349
434.231
128.243
124.538
122.822
122.311
122.296
122.786
124.92
136.404
193.933
365.109
253.892
251.41
249.735
249.169
249.232
249.836
251.441
257.001
283.154
395.063
3975.33
3971.59
3968.33
3966.23
3965.31
3965.89
3968.41
3973.33
3987.15
4052.83
3396.81
3371.58
3355.75
3350.26
3350.61
3359.4
3396.47
3520.95
3829.37
4215.95
309.388
257.737
226.824
215.755
217.866
243.173
346.224
679.821
1462.66
2513.29
161.976
137.487
122.447
117.024
118.079
130.709
182.379
355.738
786.568
1376.49
132.56
118.8
111.405
109.002
109.21
113.953
137.129
229.543
500.759
926.202
119.074
112.043
108.586
107.546
107.536
109.199
118.836
165.301
331.661
650.78
114.295
109.779
107.663
107.034
106.97
107.669
112.08
136.498
240.679
485.165
111.674
108.707
107.305
106.865
106.838
107.276
109.557
122.661
187.061
370.16
122.296
119.999
118.944
118.608
118.577
118.846
120.132
127.528
167.962
305.495
239.024
238.047
237.114
236.758
236.777
237.136
238.034
241.214
257.599
335.981
3795
3792.58
3790.41
3789.03
3788.47
3788.92
3790.64
3793.85
3803.19
3851.77
3240.75
3220.2
3207.8
3203.6
3203.89
3210.76
3240.05
3340.64
3598.59
3937.13
279.482
237.002
212.649
204.123
205.761
225.313
306.011
574.532
1228.38
2126.13
149.701
129.843
118.329
114.319
115.169
124.864
165.297
305.425
670.486
1193.93
124.877
114.438
109.147
107.476
107.672
111.182
128.508
200.395
426.046
816.635
113.881
108.967
106.649
105.962
106
107.238
114.165
148.58
281.208
570.06
110.256
107.23
105.853
105.438
105.418
105.941
108.999
126.196
205.146
417.676
108.071
106.223
105.35
105.07
105.072
105.399
106.932
115.653
161.591
311.716
117.721
116.331
115.699
115.49
115.473
115.653
116.459
121.159
148.655
255.129
225.087
225.009
224.584
224.345
224.355
224.584
225.132
226.843
236.645
289.044
3608.01
3606.64
3605.28
3604.42
3604.08
3604.38
3605.44
3607.31
3613.24
3647.04
3077.87
3062.2
3053.16
3050.17
3050.42
3055.5
3077.38
3154.52
3361.47
3654.14
249.112
216.157
198.216
192.12
193.388
207.736
267.78
475.047
1009.56
1788.7
137.662
122.646
114.471
111.74
112.425
119.482
149.428
257.468
558.234
1029.09
118.169
110.738
107.194
106.109
106.3
108.788
121.012
173.799
353.094
705.917
109.797
106.532
105.048
104.615
104.691
105.609
110.363
134.393
234.38
485.541
107.256
105.285
104.409
104.142
104.163
104.574
106.642
118.111
174.467
349.526
105.489
104.374
103.843
103.671
103.701
103.969
105.006
110.544
141.331
256.877
114.084
113.243
112.869
112.738
112.744
112.893
113.431
116.347
134.056
211.685
211.479
211.98
211.765
211.609
211.62
211.774
212.114
213.009
218.472
251.208
3414.83
3414.16
3413.37
3412.87
3412.66
3412.81
3413.38
3414.32
3417.69
3439.41
2909.3
2898.33
2892.31
2890.36
2890.57
2894.07
2909.25
2964.34
3120.58
3365.82
219.311
195.641
183.517
179.556
180.525
190.358
231.954
381.962
800.572
1478.62
126.558
116.199
110.916
109.233
109.775
114.569
135.115
212.654
447.527
867.168
112.59
107.687
105.486
104.835
105.017
106.692
114.677
150.373
282.739
586.998
106.661
104.598
103.685
103.424
103.523
104.195
107.268
122.726
192.11
395.819
105.029
103.772
103.22
103.052
103.099
103.429
104.785
111.88
148.777
281.561
103.636
102.978
102.658
102.555
102.603
102.828
103.527
106.821
125.694
206.785
111.063
110.539
110.307
110.224
110.249
110.387
110.771
112.531
123.097
175.129
197.765
198.458
198.35
198.247
198.255
198.361
198.568
199.021
201.829
220.215
3215.95
3215.71
3215.31
3215.03
3214.9
3214.94
3215.17
3215.52
3217.16
3229.69
2736.43
2729.55
2725.96
2724.84
2725
2727.19
2736.73
2772.35
2880.09
3073.2
191.271
175.87
168.539
166.268
166.982
173.134
199.203
297.645
600.654
1173.16
117.176
110.791
107.729
106.802
107.212
110.204
122.909
172.978
340.286
695.643
108.241
105.265
104.004
103.644
103.808
104.878
109.605
131.12
218.471
458.232
104.324
103.074
102.528
102.375
102.479
102.961
104.814
113.72
156.458
304.426
103.375
102.582
102.236
102.132
102.192
102.456
103.313
107.296
128.705
217.95
102.301
101.917
101.724
101.663
101.716
101.899
102.362
104.164
114.397
164.345
108.439
108.09
107.938
107.884
107.919
108.048
108.333
109.366
115.064
146.206
183.309
184.053
184.001
183.929
183.931
183.999
184.115
184.295
185.466
194.172
3012.07
3012.05
3011.89
3011.76
3011.67
3011.65
3011.67
3011.68
3012.27
3018.48
2560.66
2556.99
2555.17
2554.63
2554.74
2555.94
2561.13
2581.03
2645.64
2781.13
165.88
157.032
153.202
152.106
152.595
155.991
170.134
225.707
416.511
856.449
110.049
106.566
104.967
104.501
104.792
106.488
113.323
140.999
243.409
510.374
105.076
103.415
102.741
102.555
102.694
103.345
105.831
116.877
165.507
327.063
102.64
101.905
101.582
101.495
101.588
101.926
102.963
107.405
129.562
220.124
102.148
101.66
101.446
101.384
101.443
101.646
102.171
104.156
114.651
164.858
101.334
101.117
101.003
100.969
101.015
101.153
101.447
102.338
107.024
132.545
106.08
105.845
105.742
105.709
105.745
105.856
106.069
106.659
109.354
125.363
167.606
168.299
168.274
168.223
168.218
168.254
168.304
168.319
168.578
171.512
2804.14
2804.23
2804.2
2804.15
2804.1
2804.04
2803.96
2803.82
2803.85
2806.27
2383.66
2381.99
2381.26
2381.06
2381.13
2381.67
2383.92
2392.72
2423.43
2499.9
143.251
138.923
137.295
136.888
137.182
138.74
144.886
169.475
263.064
535.088
105.198
103.471
102.683
102.453
102.64
103.507
106.568
118.667
167.377
325.515
102.89
102.032
101.685
101.591
101.697
102.079
103.23
107.766
128.541
211.823
101.467
101.051
100.865
100.816
100.889
101.113
101.656
103.505
112.416
154.666
101.251
100.97
100.844
100.81
100.859
101.004
101.312
102.182
106.237
127.782
100.651
100.539
100.478
100.461
100.495
100.588
100.762
101.156
102.847
112.695
103.955
103.808
103.745
103.727
103.758
103.843
103.993
104.317
105.399
112.042
149.87
150.432
150.423
150.389
150.378
150.389
150.393
150.323
150.168
150.309
2593.43
2593.52
2593.56
2593.55
2593.52
2593.46
2593.36
2593.19
2593.02
2593.59
2205.48
2205.06
2204.87
2204.82
2204.86
2205.03
2205.67
2208.1
2217.13
2243.8
122.299
120.646
120.16
120.067
120.202
120.722
122.504
129.359
157.229
258.666
102.186
101.362
100.985
100.871
100.969
101.352
102.412
105.991
120.645
178.762
101.389
100.987
100.816
100.768
100.832
101.033
101.497
102.853
108.55
135.113
100.678
100.47
100.375
100.35
100.395
100.522
100.778
101.395
103.799
116.295
100.61
100.476
100.412
100.396
100.428
100.514
100.676
101.006
102.108
108.075
100.229
100.185
100.157
100.15
100.171
100.224
100.314
100.469
100.898
103.305
102.077
102.001
101.97
101.965
101.987
102.04
102.129
102.289
102.648
104.618
128.496
128.837
128.835
128.816
128.806
128.805
128.791
128.712
128.488
127.881
2380.79
2380.85
2380.89
2380.9
2380.88
2380.85
2380.78
2380.67
2380.52
2380.5
16607.6
16769.4
16524.8
15768.8
3.57735e+06
3.51218e+06
3.46176e+06
3.52645e+06
4.81648e+06
4.80001e+06
4.7201e+06
4.64213e+06
5.86722e+06
5.90231e+06
5.77744e+06
5.54087e+06
6.76897e+06
6.8463e+06
6.67496e+06
6.31348e+06
7.6808e+06
7.80233e+06
7.60144e+06
7.15986e+06
8.45712e+06
8.62693e+06
8.4195e+06
7.94388e+06
8.70071e+06
8.90387e+06
8.68761e+06
8.2085e+06
6.15708e+06
6.27206e+06
6.00352e+06
5.50188e+06
8125.44
8264.7
8049.85
7634.36
11708.9
11783.3
11647.5
11303.3
928021
880357
857699
851684
1.47634e+06
1.47569e+06
1.47143e+06
1.4454e+06
2.05394e+06
2.14194e+06
2.16563e+06
2.10563e+06
2.60745e+06
2.80864e+06
2.87215e+06
2.77461e+06
3.15256e+06
3.48545e+06
3.61373e+06
3.48109e+06
3.61936e+06
4.09281e+06
4.31536e+06
4.16639e+06
3.8737e+06
4.4739e+06
4.78277e+06
4.62313e+06
3.14905e+06
3.69634e+06
3.90788e+06
3.69119e+06
7861.24
8063.48
7955.1
7456.03
8662.95
8655.55
8542.58
8328.96
110595
110690
102968
90879.5
188022
193776
178326
149311
298219
312250
283963
227879
438231
461271
416095
324406
614927
647968
584294
448746
808315
850617
770930
588348
967861
1.02005e+06
932523
706979
829811
870946
798539
592201
6750.83
6781.02
6667.89
6450.51
7606.1
7579.86
7485.53
7321.83
23355.4
21846.7
19900.8
18234.8
28811.8
27463.5
24673.4
21650.1
41263
39998.5
35369.4
29608.6
61640.1
60312.6
52421.2
42023.4
93675.7
92089.9
78974
61286.3
135688
133120
112814
85402.1
177130
173378
145497
107614
152226
145149
118347
85105.9
6097.15
6091.12
6026.33
5949.55
6926.88
6898.19
6817.14
6677.63
11704
10934.4
10072.9
9380.12
9500.57
8918.29
8124.99
7396.99
9891.03
9365.52
8445.26
7501.79
12447.1
11907.2
10598.6
9124.92
17964.3
17356.5
15238
12691.5
26217.9
25360.3
21854.4
17585.8
35249.7
34067.7
28790.8
22363.9
30121
28209.5
22916.9
17190.1
5650.22
5640.93
5609.73
5578.7
6400.52
6364.89
6291.35
6172.28
8504.93
7987.85
7407.18
6927.53
5464.81
5141.83
4723.4
4337.45
4229.46
3969.15
3612.58
3275.93
4047.18
3802.33
3437.39
3084.38
4872.75
4624.55
4165.93
3688.52
6453.69
6166.34
5493.88
4752.31
8355.29
8028.6
7039.08
5901.59
7133.16
6639.23
5625.47
4626.58
5319.53
5309.3
5294.05
5284.16
5957.73
5913.43
5844.62
5743.28
6866.73
6480.16
6034.9
5652.99
3972.65
3761.79
3478.32
3203.3
2606.48
2448.15
2239.38
2039.14
2016.38
1876.62
1702.96
1545.23
1965.89
1832.91
1664.61
1513.99
2202.28
2065.55
1874.34
1698.37
2593.46
2459.83
2223.11
1987.97
2382.96
2212.6
1973.21
1784.28
5064.01
5054.4
5046.64
5046.3
5566.34
5513.29
5447.76
5361.88
5711.51
5400.88
5036.77
4716.07
3144.21
2988.11
2772.84
2556.87
1914.69
1800.31
1652.19
1508.48
1325.22
1228.25
1116.23
1017.11
1115.89
1028.05
933.266
855.946
1069.23
985.161
896.529
828.748
1131.52
1054.42
965.203
896.31
1204.36
1119.97
1033.7
987.36
4853.81
4845.18
4840.58
4843.63
5209.92
5149.21
5086.45
5014.3
4776
4514.69
4206.92
3931.3
2564.7
2437.44
2263
2085.95
1523.55
1430.12
1313.88
1202.72
1013.29
936.698
852.854
781.312
795.714
729.666
663.027
611.946
693.357
634.052
577.531
538.942
680.603
628.766
578.336
546.522
817.606
766.606
720.201
701.266
4662.32
4654.83
4651.32
4654.82
4879.97
4813.35
4753.43
4693.58
3980.73
3752.24
3486.76
3248.74
2113.35
2000.75
1853.02
1705.38
1260.3
1176.67
1079.33
990.456
838.251
772.275
704.061
649.423
644.627
590.834
538.679
501.437
538.195
493.105
451.229
424.803
507.279
470.257
435.154
415.051
642.497
609.611
579.08
566.714
4473.56
4467.42
4464.39
4467.33
4571.3
4501.01
4444.32
4395.55
3296.38
3089.56
2857.54
2653.61
1746.71
1640.75
1511.85
1388.67
1065.48
986.292
901.369
829.636
723.568
663.882
605.694
563.239
557.981
512.365
469.425
441.516
458.626
423.321
390.37
371.118
423.004
396.42
370.103
355.543
538.316
517.34
496.02
486.084
4281.12
4276.53
4273.89
4275.96
4280.25
4208.83
4155.98
4117.16
2711
2518.37
2313.82
2142.13
1446.26
1342.72
1228.04
1126.47
914.298
837.52
761.79
704.415
639.988
585.107
534.426
501.802
499.384
460.416
424.475
403.827
408.281
380.837
354.551
340.454
371.329
353.007
333.095
322.012
462.894
450.312
435.484
427.072
4082.95
4079.94
4077.71
4078.83
4003.72
3933.97
3885.71
3855.76
2217.65
2035.1
1854.06
1713.16
1201.6
1099.08
996.124
914.209
793.748
719.559
651.759
607.133
573.737
523.893
479.867
455.772
453.394
420.893
391.127
376.518
369.273
348.88
328.284
318.175
332.02
320.639
305.986
297.314
401.054
394.326
384.343
377.24
3878.86
3877.27
3875.45
3875.69
3738.76
3673.58
3630.77
3608.62
1809.15
1635.91
1476.19
1364.5
1004.22
903.729
811.56
747.779
694.764
625.015
565.212
532.315
516.469
472.969
435.716
419.234
411.727
386.161
362.414
352.82
333.094
319.337
303.955
296.875
296.414
290.9
280.725
273.659
346.94
344.005
337.585
331.744
3669.58
3669.08
3667.64
3667.19
3482.29
3424.57
3388.06
3372.64
1475.11
1313.67
1174.77
1090.42
844.836
749.495
668.539
621.614
609.184
546.962
496.179
474.177
461.727
426.382
396.523
386.671
368.884
350.808
333.128
327.39
295.113
287.5
276.934
271.919
260.612
259.81
253.346
247.205
298.632
297.486
293.42
288.972
3456.33
3456.49
3455.37
3454.52
3231.14
3183.45
3154.01
3144.16
1200.22
1055.98
939.079
880.023
712.167
626.881
558.776
527.544
528.626
477.634
437.429
425.222
403.87
378.32
356.476
351.834
321.077
310.583
298.803
295.498
253.312
250.914
244.547
240.653
223.592
226.091
222.452
216.768
254.966
254.144
251.588
248.696
3240.61
3241.02
3240.2
3239.28
2982.27
2946.5
2924.61
2919.12
963.759
844.298
752.112
716.119
592.639
523.375
470.589
453.567
444.613
408.108
379.857
375.512
338.57
323.424
309.612
308.145
266.845
263.039
256.418
254.032
208.554
209.793
206.632
203.171
186.706
190.84
189.045
183.746
216.612
215.201
213.553
212.291
3024.02
3024.38
3023.81
3023.07
2733.58
2710.34
2696
2693.58
741.282
654.722
590.601
574.498
471.531
423.643
388.352
382.688
350.643
329.839
313.596
313.886
265.023
258.99
252.029
251.425
208.759
209.456
206.533
204.065
165.086
167.833
166.607
163.492
153.122
157.185
156.342
151.853
183.864
181.554
180.453
180.692
2807.86
2808.04
2807.68
2807.25
2485.59
2473.58
2465.99
2465.38
511.299
462.564
427.744
425.393
337.95
313.003
294.717
294.969
247.855
240.117
233.359
234.334
189.948
189.442
186.83
185.666
154.932
157.011
155.96
153.581
129.648
131.857
131.413
129.172
126.51
129.203
128.741
125.746
155.845
152.974
152.264
153.535
2593.07
2593.14
2592.95
2592.76
2243.71
2239.51
2236.89
2237.13
273.95
257.741
245.963
247.085
198.887
190.399
183.382
183.392
154.195
152.391
150.106
149.962
129.953
130.144
129.065
128.108
117.033
117.844
117.305
116.159
108.105
108.785
108.521
107.679
109.341
110.289
110.016
108.834
129.738
127.301
126.948
128.362
2379.6
2379.74
2379.67
2379.53
13053.1
9521.14
7292.93
6239.91
5602.3
5213.06
4986.26
4862
4796.62
4757
2.22481e+06
452715
105476
34701.6
14082.6
6708.02
3709.57
2409.1
1821.56
1492.94
2.59317e+06
373005
82193.9
25473.3
9948.93
4627.94
2557.07
1684.1
1285.48
1058.97
2.64157e+06
309359
64955.5
18978.8
7192.66
3299.25
1836.12
1228.82
951.493
795.216
2.54544e+06
263271
53706
14948.4
5562.22
2546.89
1439.18
979.434
765.666
643.653
2.41826e+06
235670
46861.1
12556.2
4624.1
2121.75
1214.35
835.11
656.17
550.786
2.26705e+06
214922
41308.5
10687
3924.79
1826.34
1070.08
749.343
593.447
496.731
1.9967e+06
186007
33893.2
8404.26
3114.47
1509.37
935.762
688.419
565.353
481.007
1.24789e+06
110479
17924.3
4295.1
1871.04
1169.88
909.071
777.804
702.227
639.906
6493.3
6025.38
5775.26
5671.01
5613.88
5586.18
5570.83
5562.15
5556.08
5548.74
9883.48
8073.37
6830.54
5989.31
5433.63
5082.85
4875.6
4762.59
4706.19
4677.41
532516
175014
61083.9
23484.6
10356.5
5179.75
2945.76
1947.64
1504.78
1289.79
714052
188159
55785.6
19025.7
7764.85
3690.39
2057.06
1365.95
1060.47
905.444
849013
191770
50155.9
15587.7
6023.8
2783.57
1548.21
1039
813.683
699.806
955110
192770
45776.2
13242.7
4941.49
2258.77
1267.29
861.668
678.138
583.168
1.06278e+06
196270
43079.1
11797.4
4308.15
1962.1
1109.72
759.741
598.595
511.933
1.15654e+06
196841
39950.1
10416.8
3760.59
1730.55
1000.17
696.698
552.395
469.973
1.18163e+06
184176
34042.7
8373.43
3022.01
1445.17
883.549
646.2
531.383
460.137
869244
118082
18598.5
4283.29
1795.05
1114.56
862.715
737.784
668.763
620.738
6501.35
5966.81
5692.53
5566.54
5503.05
5472.49
5455.29
5444.46
5436.37
5428.13
7732.26
6873.05
6118.56
5533.31
5125.17
4865.56
4714.28
4634.49
4597.46
4580.39
61064.2
31928.5
17050.1
9247.9
5142.69
2984.19
1884.14
1356.64
1124.93
1017.71
79791.4
34121
15967.3
7748.45
3930.25
2134.05
1307.17
938.295
776.794
696.663
99528.8
36439.7
15429.8
6865.17
3268.47
1712.31
1040.28
750.146
622.497
558.993
121008
39181.5
15306.3
6348.89
2892.74
1486.21
902.668
653.949
541.209
482.789
148952
43405.4
15767.5
6158.54
2715
1375.34
833.239
602.004
494.654
436.356
177536
46660
15714.3
5811.38
2509.29
1273.62
782.055
570.492
468.443
409.126
193101
45233.2
13935.9
4885.46
2109.58
1110.59
718.052
546.018
461.483
408.493
135512
26808.8
7267.67
2587.64
1365.09
940.219
759.838
664.49
610.724
573.869
6151.65
5793.38
5563.13
5445.45
5389.37
5362.28
5346.48
5335.47
5326.72
5318.26
6892.37
6239.99
5647.84
5188.23
4872.79
4676.75
4565.93
4510.73
4488.59
4480.85
15327.6
11190
7511.57
4745.44
2922.18
1836.17
1249.78
968.87
857.002
813.562
15972.2
10191.1
6186.97
3566.33
2030.77
1210.12
808.265
629.22
558.096
526.949
18794.3
10579.1
5890.27
3150.48
1702.08
989.727
660.946
518.82
461.478
435.336
23069.5
11693.9
6057.44
3041.34
1578
901.404
600.572
471.606
416.261
388.125
29654.3
13698.6
6640.63
3148.7
1577.31
884.149
582.844
452.273
392.987
360.291
36816.9
15492.6
7011.58
3153.24
1543.26
862.579
571.606
443.575
381.737
344.529
41197.3
15591.9
6527.21
2804.65
1378.94
799.73
554.132
443.087
387.755
352.181
28379.3
9404.22
3602.62
1673.94
1040.91
784.155
660.522
590.84
550.348
523.178
5848.13
5570.67
5385.69
5295.54
5253.56
5232.29
5218.8
5208.7
5200.54
5193.1
6318.61
5773.87
5286.07
4914.11
4664.05
4512.4
4429.66
4391.6
4380.03
4379.12
8197.5
6354.91
4493.7
2972.13
1909.24
1256.62
903.152
740.691
687.039
674.32
6137
4489.1
3007.53
1879.05
1147.1
733.041
526.742
439.54
413.026
406.618
5856.63
4026.65
2570.2
1538.76
915.821
584.988
428.163
364.742
346.171
341.169
6590.08
4245.46
2578.62
1476.49
855.125
541.971
397.994
339.764
319.819
310.927
8418.34
5070.49
2915.75
1588.56
890.132
553.349
400.452
335.806
309.395
294.74
10650.1
5960.38
3220.85
1669.66
913.551
564.664
407.856
338.926
306.82
286.446
12233.7
6279.34
3165.87
1582.84
875.598
561.667
420.02
354.481
321.93
300.131
8746.65
4090
1973.67
1134.97
807.271
655.072
572.596
523.248
493.911
474.63
5535.28
5330.4
5202.04
5142.05
5113.08
5096.73
5085.23
5076.06
5068.58
5062.13
5871.5
5411.9
5000.75
4690.66
4485.93
4364.78
4301.3
4275.06
4270.87
4274.84
6045.06
4638.87
3268.73
2168.38
1409.24
951.035
709.641
605.77
580.271
581.773
3637.89
2694.34
1837.68
1176.2
741.647
495.403
375.113
329.203
322.409
326.985
2695.62
1981.03
1344.94
858.068
546.504
376.291
297.11
270.378
269.952
275.051
2502
1829.3
1230.38
775.437
493.068
343.801
276.061
253.445
251.657
253.08
2913.28
2083.33
1359.16
829.399
516.303
355.978
282.476
254.428
246.757
242.959
3578.96
2452.22
1521.56
891.401
544.596
373.828
294.84
261.473
247.871
238.638
4163.39
2681.82
1569.73
898.882
559.813
398.014
321.002
284.961
267.756
255.695
3281.69
2008.17
1184.42
811.373
640.9
551.329
497.463
463.482
443.027
429.994
5264.31
5111.12
5026.07
4987.71
4967.92
4955.34
4945.61
4937.49
4930.83
4925.4
5493.78
5106.47
4756.96
4494.73
4324.14
4225.5
4176.06
4158.38
4159.54
4167.03
4907.7
3708.92
2582.96
1704.17
1113.62
766.926
590.514
520.226
509.972
518.397
2670.48
1944.92
1313.51
841.071
538.125
370.272
291.106
264.645
266.472
275.54
1679.44
1238.44
853.524
559.845
371.83
270.103
225.251
214.52
221.469
230.526
1288.03
985.794
698.713
467.9
319.284
240.311
206.727
199.891
205.825
211.777
1284.26
1009.42
717.649
477.812
326.19
246.68
211.435
201.097
202.419
204.152
1440.57
1128.69
780.165
507.474
344.437
261.054
222.429
207.825
204.155
201.365
1650
1250.51
829.589
536.671
374.482
292.694
252.09
233.3
225.339
219.478
1559.33
1138.75
787.886
612.218
521.747
469.174
434.728
411.998
398.317
390.047
5036.88
4915.39
4856.42
4831.19
4817.47
4807.82
4799.77
4792.82
4787.12
4782.73
5158.12
4833.82
4536.55
4313.74
4170.46
4089.43
4050.75
4039.52
4044.64
4054.65
4072.39
3044.65
2103.16
1384.34
912.332
642.228
509.463
461.155
460.305
472.396
2121.65
1524.75
1019.43
651.81
422.126
297.901
241.42
225.317
231.222
242.021
1242.27
911.247
628.056
416.63
284.037
214.075
185.152
181.292
190.721
200.781
854.816
662.462
477.913
329.679
235.283
186.526
167.736
167.111
175.472
182.804
744.734
609.676
451.924
317.348
231.798
187.806
169.801
167.055
171.845
175.841
743.432
626.346
462.254
324.308
239.909
196.824
177.567
171.873
172.787
173.252
815.611
680.891
492.605
350.67
269.022
226.808
205.443
196.066
193.17
190.901
943.112
750.141
575.101
484.807
435.549
404.837
383.321
368.593
359.874
355.117
4836.08
4733.12
4688.45
4671
4661.39
4654.11
4647.68
4641.95
4637.28
4633.93
4851.39
4582.32
4330.19
4140.77
4020.11
3953.32
3923.16
3916.92
3924.98
3936.7
3375.7
2507.48
1726.68
1139.94
761.581
549.699
449.105
416.569
422.118
436.253
1725.42
1232.92
821.832
527.754
347.302
251.537
209.542
199.839
207.964
219.329
996.032
732.533
505.801
338.466
235.457
182.409
161.706
160.864
170.71
180.459
665.395
519.79
376.034
262.399
192.234
157.451
145.259
146.728
155.165
162.359
541.964
449.199
335.434
240.962
183.497
155.488
145.189
145.33
150.885
155.387
496.743
427.396