/*--------------------------------*- C++ -*----------------------------------*\
| =========                 |                                                 |
| \\      /  F ield         | foam-extend: Open Source CFD                    |
|  \\    /   O peration     | Version:     4.0                                |
|   \\  /    A nd           | Web:         http://www.foam-extend.org         |
|    \\/     M anipulation  |                                                 |
\*---------------------------------------------------------------------------*/
FoamFile
{
    version     2.0;
    format      ascii;
    class       volScalarField;
    location    "200";
    object      k;
}
// * * * * * * * * * * * * * * * * * * * * * * * * * * * * * * * * * * * * * //

dimensions      [0 2 -2 0 0 0 0];

internalField   nonuniform List<scalar> 
34480
(
8.54553
8.47202
8.43047
8.42103
8.44905
8.56963
8.96388
10.0482
12.3866
16.0252
13.3344
10.6234
9.24322
9.08845
10.2287
14.1354
25.502
55.3657
127.193
259.375
17.4529
14.8237
13.3335
12.9884
13.7326
16.6768
26.2782
54.5073
129.895
284.742
16.4599
14.2079
13.0446
12.9696
13.8901
16.7099
25.4038
51.8269
128.458
298.276
14.8752
12.9888
12.1698
12.3559
13.4742
16.3262
24.5604
49.7008
127.708
310.046
13.5179
11.8909
11.2576
11.5541
12.7459
15.6308
23.6934
48.3936
129.387
326.075
12.4801
11.078
10.5918
10.9283
12.1286
14.9956
22.8776
47.0782
130.643
340.883
11.1504
10.0444
9.66522
9.94445
10.9427
13.4396
20.4944
42.706
123.578
337.366
7.61265
7.17039
7.04462
7.16538
7.59426
8.72221
12.3588
25.5806
79.9438
243.12
9.05275
9.02936
9.01283
8.99996
8.99178
8.99102
9.00969
9.09123
9.3876
9.96237
8.45555
8.38373
8.33895
8.32407
8.33581
8.40377
8.64819
9.37408
11.0445
13.8329
12.483
9.94838
8.50614
8.16665
8.90565
11.5508
18.9839
37.1277
79.7204
214.076
16.0729
13.5461
12.0101
11.6212
12.2719
14.3935
20.4484
36.7867
80.9669
235.983
15.2926
13.0758
11.8244
11.6791
12.5213
14.6807
20.2291
34.9629
79.8083
249.079
13.9738
12.0677
11.1263
11.2059
12.2188
14.4674
19.8295
33.4358
79.5529
262.899
12.8484
11.1628
10.3891
10.5564
11.6059
13.8775
19.1681
32.1961
81.0525
282.726
11.9609
10.477
9.8518
10.0505
11.0822
13.3325
18.5413
30.9566
82.284
302.607
10.7646
9.57557
9.07607
9.22619
10.0409
11.9431
16.5333
27.492
77.111
303.532
7.4339
6.95178
6.77871
6.83039
7.13385
7.89777
9.982
15.5595
46.217
213.115
8.9222
8.89597
8.87599
8.8591
8.84552
8.83657
8.84047
8.88011
9.1024
9.92357
8.34826
8.2818
8.23891
8.22415
8.23286
8.28913
8.49615
9.11415
10.486
12.39
11.1543
9.0336
7.74738
7.3848
7.92587
10.0807
16.2307
30.7341
57.3995
103.573
14.1097
11.9154
10.5074
10.1249
10.6896
12.5539
17.7226
30.984
58.531
118.277
13.5817
11.6214
10.445
10.2717
11.0099
12.9389
17.764
29.8966
57.7612
130.772
12.5867
10.8797
9.97233
9.99129
10.8693
12.8771
17.5731
28.857
57.5965
145.23
11.739
10.2039
9.44135
9.53634
10.4401
12.464
17.112
27.9066
58.6964
164.866
11.0535
9.68174
9.05497
9.18111
10.0665
12.0674
16.6526
26.88
59.6689
185.78
10.0777
8.96438
8.46208
8.55186
9.23707
10.9002
14.9206
23.8965
55.8905
193.69
7.14591
6.69382
6.52355
6.55077
6.78655
7.39581
9.07473
13.5134
32.6448
135.204
8.80381
8.77829
8.75787
8.74023
8.72547
8.71458
8.71512
8.74883
8.93755
9.65707
8.23508
8.17309
8.13184
8.11733
8.12386
8.17086
8.34684
8.8777
10.0583
11.614
10.0075
8.24997
7.11645
6.75014
7.12545
8.82288
13.7938
25.464
45.4647
70.4155
12.2176
10.3751
9.12168
8.72859
9.14129
10.6661
14.9242
25.6533
45.6124
75.8294
11.8527
10.1876
9.123
8.89974
9.43627
10.9894
14.9729
24.9298
44.5389
80.4915
11.1299
9.67125
8.84165
8.7836
9.42042
11.0022
14.8374
24.1885
43.8971
87.1367
10.524
9.19461
8.49179
8.50641
9.16592
10.745
14.5061
23.4861
44.1527
97.944
10.0235
8.82067
8.24007
8.29205
8.94627
10.5019
14.1789
22.6583
44.2508
110.478
9.28337
8.2937
7.83051
7.86751
8.37193
9.64478
12.81
20.1745
40.9256
115.74
6.82465
6.4179
6.26307
6.27292
6.44266
6.88352
8.07989
11.4337
23.2411
79.2751
8.66855
8.64555
8.62698
8.61117
8.5983
8.58953
8.59154
8.62342
8.77937
9.34201
8.11606
8.05721
8.01699
8.00245
8.00713
8.04695
8.19881
8.65964
9.68705
11.0022
9.13398
7.65027
6.63965
6.28077
6.54206
7.89434
11.9359
21.3876
37.2476
54.1673
10.6318
9.09868
7.9964
7.60095
7.87017
9.07674
12.524
21.0724
36.3078
54.329
10.3303
8.94114
8.00034
7.73997
8.07339
9.2312
12.383
20.314
34.9481
54.5458
9.7976
8.58299
7.85101
7.73249
8.12673
9.24295
12.1705
19.6118
34.0306
56.4906
9.37539
8.26003
7.64008
7.59087
8.00662
9.09607
11.8918
19.0291
33.832
61.5132
9.02438
8.00787
7.49584
7.48817
7.91313
8.98227
11.6596
18.3588
33.4294
67.8704
8.5026
7.65651
7.25
7.24649
7.57924
8.44764
10.6897
16.3998
30.5101
70.0788
6.51435
6.16172
6.02601
6.02286
6.13657
6.43319
7.21129
9.4992
16.8839
46.1889
8.52566
8.50528
8.48869
8.47482
8.46387
8.4572
8.46037
8.48749
8.61073
9.02933
7.99079
7.93409
7.8946
7.88004
7.88341
7.91805
8.0522
8.46066
9.37081
10.5099
8.51465
7.22224
6.3037
5.95781
6.14908
7.26798
10.6626
18.5982
31.9107
45.7341
9.42249
8.13364
7.16485
6.78526
6.95837
7.92499
10.7546
17.6795
29.8598
42.9397
9.10803
7.94992
7.13162
6.86383
7.05348
7.89539
10.3557
16.6124
27.9381
40.5444
8.67851
7.67966
7.05236
6.90618
7.12446
7.86342
10.0031
15.72
26.6006
39.774
8.37403
7.45895
6.93254
6.84919
7.08479
7.77688
9.72335
15.1012
26.0175
41.4422
8.12829
7.29518
6.8625
6.81938
7.07115
7.74575
9.54836
14.5122
25.3299
44.0858
7.78875
7.09018
6.74828
6.72064
6.9244
7.47514
8.94068
13.0549
22.8609
44.245
6.22817
5.93321
5.81852
5.8075
5.87985
6.07211
6.5563
8.00477
12.5447
27.796
8.37476
8.35706
8.34255
8.33069
8.3217
8.31706
8.32127
8.34381
8.43609
8.73988
7.85827
7.80327
7.76459
7.75018
7.75266
7.78344
7.90393
8.2717
9.08929
10.0877
8.08229
6.92191
6.07293
5.74132
5.88865
6.84777
9.79081
16.6823
28.2813
40.3744
8.5515
7.4435
6.58524
6.23155
6.34724
7.146
9.53653
15.3461
25.5362
36.2168
8.18529
7.20813
6.50163
6.24777
6.35059
6.97073
8.91637
13.947
23.0814
32.4638
7.79224
6.97272
6.44666
6.29823
6.40754
6.88536
8.42955
12.788
21.2495
30.1564
7.54979
6.8106
6.37768
6.28393
6.40434
6.82199
8.12582
12.0398
20.2459
29.8873
7.36811
6.70316
6.35114
6.29265
6.42906
6.82906
7.97542
11.4563
19.3259
30.436
7.1674
6.60965
6.33334
6.29474
6.4104
6.74076
7.64401
10.4187
17.2859
29.5434
5.9732
5.73544
5.64204
5.62721
5.67049
5.79056
6.08399
6.96895
9.77903
18.0759
8.21533
8.20031
8.18792
8.17802
8.17089
8.16798
8.17286
8.19165
8.26037
8.48621
7.71728
7.66403
7.62656
7.61258
7.61448
7.64212
7.7511
8.08465
8.82457
9.70483
7.77225
6.70526
5.91211
5.59523
5.71287
6.55464
9.16267
15.2876
25.6189
36.4265
7.93865
6.96153
6.19379
5.86969
5.95223
6.63245
8.70746
13.7478
22.5976
31.8401
7.50938
6.67167
6.06421
5.8358
5.89137
6.36394
7.94267
12.1203
19.8256
27.5959
7.11355
6.44066
6.00758
5.87218
5.92158
6.23499
7.36711
10.7526
17.5991
24.5443
6.89662
6.30758
5.96181
5.87293
5.92758
6.17501
7.04463
9.88239
16.2145
23.1854
6.74891
6.23156
5.95532
5.89541
5.96236
6.19042
6.90145
9.27878
15.082
22.5476
6.64731
6.2169
6.00235
5.96218
6.02239
6.21219
6.75173
8.55401
13.3926
21.1763
5.75368
5.56928
5.49609
5.48048
5.5046
5.57701
5.75247
6.29048
8.10108
13.1595
8.04678
8.03438
8.02407
8.01603
8.01055
8.00902
8.01409
8.02964
8.08151
8.2583
7.5665
7.51547
7.47984
7.46661
7.46813
7.49292
7.59126
7.89359
8.56441
9.34324
7.53259
6.53635
5.79304
5.49223
5.58796
6.33506
8.67263
14.1865
23.4934
33.1756
7.50145
6.62098
5.93003
5.63635
5.69893
6.28952
8.12282
12.5984
20.4788
28.6588
7.01342
6.28646
5.76712
5.56872
5.60013
5.97314
7.28484
10.855
17.5986
24.442
6.60005
6.04879
5.69887
5.58361
5.60318
5.81698
6.67143
9.37863
15.148
21.1618
6.39139
5.92917
5.66083
5.58464
5.6053
5.75361
6.34683
8.44763
13.5102
19.2714
6.26022
5.86841
5.65925
5.60592
5.63465
5.76244
6.20641
7.84045
12.231
18.0008
6.22675
5.90622
5.74627
5.71019
5.7381
5.84336
6.16352
7.33063
10.8075
16.4379
5.5712
5.43389
5.37877
5.36436
5.37668
5.41892
5.52308
5.85325
7.07425
10.5945
7.86852
7.85861
7.85026
7.8439
7.83986
7.83929
7.84412
7.85667
7.89596
8.03905
7.40465
7.35662
7.32361
7.31147
7.31273
7.33472
7.42251
7.69448
8.30093
8.99245
7.32514
6.38904
5.69597
5.41416
5.49264
6.15628
8.25646
13.2467
21.6827
30.3463
7.17145
6.36742
5.74633
5.48363
5.53316
6.04941
7.68062
11.7045
18.8324
26.1484
6.63704
6.00393
5.56476
5.39733
5.41673
5.7181
6.82247
9.92629
15.9739
22.2176
6.20904
5.76155
5.48493
5.39169
5.39798
5.55058
6.2121
8.42735
13.4372
18.9802
6.00581
5.65018
5.44805
5.38716
5.39213
5.48411
5.9016
7.49839
11.6788
16.8795
5.88406
5.59607
5.44334
5.40005
5.40974
5.48163
5.76596
6.91601
10.3388
15.2995
5.89715
5.66721
5.55284
5.52346
5.53411
5.59076
5.78226
6.55168
9.11995
13.6746
5.42496
5.32704
5.2872
5.27504
5.28066
5.30462
5.36627
5.57139
6.41898
9.08712
7.67994
7.67232
7.66577
7.66091
7.65799
7.65804
7.66229
7.67206
7.70147
7.81752
7.23068
7.1866
7.157
7.14627
7.14734
7.16647
7.24342
7.48464
8.02885
8.64548
7.12273
6.24572
5.60839
5.35009
5.41453
5.99932
7.87563
12.3888
20.0632
27.8211
6.89712
6.16113
5.60902
5.37873
5.4191
5.86825
7.3151
10.9437
17.4521
24.0585
6.33423
5.787
5.42257
5.28544
5.29899
5.54434
6.47458
9.18424
14.6755
20.5112
5.90559
5.54884
5.33592
5.26377
5.26519
5.37821
5.89693
7.72631
12.1405
17.4229
5.71335
5.44648
5.29897
5.25292
5.25189
5.3117
5.61286
6.8464
10.3605
15.2605
5.60025
5.39558
5.28813
5.25536
5.25687
5.2985
5.486
6.31228
9.0325
13.5319
5.6459
5.48721
5.40884
5.38663
5.38911
5.41901
5.53516
6.05243
7.98675
11.9009
5.31222
5.24555
5.21795
5.2084
5.21055
5.22397
5.26056
5.38926
5.98343
8.07089
7.4805
7.4749
7.46993
7.46631
7.46433
7.46467
7.46815
7.47542
7.4969
7.58916
7.04387
7.00474
6.97924
6.97016
6.97108
6.98727
7.053
7.26248
7.74468
8.29695
6.90681
6.09577
5.52332
5.29391
5.34682
5.85371
7.50735
11.5623
18.558
25.5474
6.64209
5.97572
5.49623
5.30058
5.3343
5.71921
6.9857
10.2387
16.2089
22.2606
6.07428
5.61067
5.31685
5.20852
5.2193
5.41768
6.19161
8.53721
13.5324
19.097
5.66462
5.38794
5.22937
5.1759
5.17644
5.26205
5.66791
7.16932
11.056
16.1709
5.49202
5.29764
5.19355
5.16032
5.158
5.19897
5.41873
6.37168
9.32577
14.0002
5.38956
5.24942
5.17662
5.15322
5.15218
5.17781
5.30447
5.90184
8.06548
12.1975
5.45872
5.35326
5.30174
5.28595
5.28532
5.30126
5.37299
5.72418
7.18423
10.5986
5.22889
5.18573
5.16738
5.16032
5.16095
5.16861
5.1906
5.27171
5.68531
7.31181
7.2697
7.26581
7.2622
7.25959
7.25829
7.25871
7.26136
7.26649
7.28164
7.35246
6.84392
6.81063
6.7897
6.7824
6.7832
6.79642
6.85068
7.02735
7.44639
7.94225
6.66644
5.93448
5.43772
5.24238
5.28588
5.71427
7.1393
10.7332
17.1079
23.4898
6.38362
5.79626
5.39522
5.23637
5.26516
5.58667
6.669
9.53998
15.011
20.6687
5.84001
5.46027
5.23274
5.15099
5.1605
5.31773
5.94563
7.93327
12.4361
17.8281
5.46991
5.26314
5.14961
5.11176
5.11305
5.1784
5.49068
6.69692
10.0669
15.0322
5.32469
5.18775
5.11676
5.09375
5.09215
5.12163
5.28154
6.00537
8.44555
12.8691
5.2351
5.14285
5.09531
5.07944
5.07844
5.09572
5.18263
5.60966
7.29855
11.0383
5.32131
5.25345
5.2208
5.2101
5.20892
5.2181
5.26347
5.50108
6.58495
9.51768
5.17024
5.14384
5.13216
5.12713
5.12727
5.13194
5.14548
5.19635
5.4777
6.71036
7.04718
7.04464
7.04212
7.04034
7.03951
7.03987
7.04173
7.04512
7.05531
7.10712
6.63101
6.60415
6.58795
6.58243
6.58311
6.59344
6.63633
6.77958
7.13343
7.5773
6.39872
5.76257
5.35136
5.19395
5.22973
5.57922
6.76729
9.88007
15.6582
21.6058
6.11246
5.61768
5.29993
5.17867
5.20361
5.46243
6.3543
8.8191
13.7853
19.2008
5.62528
5.32889
5.16174
5.10347
5.11232
5.23306
5.72312
7.34845
11.3183
16.5839
5.31182
5.16419
5.08647
5.06097
5.06341
5.11302
5.346
6.27994
9.1125
13.8749
5.19836
5.10508
5.05818
5.04282
5.04251
5.06459
5.17904
5.71054
7.65615
11.7352
5.12284
5.06441
5.03435
5.02407
5.02402
5.03686
5.09681
5.39335
6.6618
9.92734
5.22058
5.17766
5.15747
5.15049
5.14981
5.15604
5.18567
5.3438
6.12057
8.54656
5.13153
5.11641
5.10924
5.10577
5.10586
5.109
5.11761
5.1489
5.33261
6.22389
6.81264
6.81115
6.80946
6.80832
6.80779
6.80803
6.8092
6.81125
6.81766
6.85327
6.40574
6.38546
6.37378
6.3699
6.37046
6.3781
6.41014
6.52036
6.80693
7.19878
6.10979
5.58577
5.26602
5.14787
5.17717
5.44909
6.39449
8.9939
14.1537
19.8264
5.83304
5.44309
5.20897
5.12349
5.14505
5.3433
6.04143
8.06769
12.4728
17.7553
5.43181
5.21456
5.09954
5.06078
5.06906
5.15784
5.52019
6.78074
10.1451
15.2469
5.18474
5.08458
5.03384
5.01751
5.0209
5.05793
5.22405
5.90878
8.17372
12.6025
5.1031
5.04137
5.01115
5.0012
5.00209
5.01905
5.09858
5.46917
6.93677
10.5285
5.04154
5.00569
4.98714
4.98075
4.98167
4.99189
5.03301
5.22944
6.12671
8.81747
5.14535
5.11796
5.10548
5.10102
5.10109
5.10619
5.12629
5.22858
5.75586
7.64897
5.10838
5.10046
5.09613
5.09374
5.09388
5.09616
5.10175
5.12018
5.23269
5.83524
6.56598
6.56519
6.56417
6.56347
6.56314
6.56325
6.56387
6.56493
6.5686
6.59113
6.16901
6.15492
6.14721
6.14472
6.14516
6.15041
6.17267
6.25164
6.46998
6.80478
5.815
5.41379
5.18473
5.10383
5.1274
5.32602
6.03103
8.08295
12.5432
18.0367
5.56187
5.281
5.12366
5.06904
5.08716
5.22958
5.73897
7.29998
11.037
16.1961
5.26523
5.11766
5.04432
5.02053
5.02802
5.08985
5.33911
6.24586
8.9206
13.7027
5.08483
5.02023
4.98851
4.97856
4.9824
5.00932
5.12085
5.58615
7.26696
11.1572
5.0312
4.99113
4.97192
4.96565
4.96734
4.98045
5.0335
5.27391
6.29543
9.23683
4.98254
4.96097
4.94965
4.94579
4.94734
4.95565
4.98334
5.10505
5.6878
7.72287
5.08667
5.06846
5.06052
5.05767
5.05836
5.063
5.07715
5.14086
5.47277
6.83422
5.09695
5.09329
5.09066
5.08896
5.08908
5.09076
5.09432
5.1042
5.16648
5.53729
6.30718
6.30687
6.30632
6.30593
6.30571
6.30571
6.30596
6.30633
6.30808
6.32087
5.92186
5.91308
5.90853
5.90712
5.90744
5.91073
5.92472
5.97596
6.12787
6.39619
5.53666
5.25814
5.11086
5.06182
5.07999
5.21325
5.69315
7.17875
10.7982
16.0612
5.3219
5.14129
5.04638
5.01515
5.02952
5.12391
5.46187
6.55467
9.48516
14.3559
5.13074
5.03869
4.99559
4.9822
4.98863
5.02906
5.18515
5.77188
7.69631
11.8675
5.0085
4.96856
4.94937
4.94355
4.94733
4.96623
5.03564
5.32068
6.43872
9.54568
4.97673
4.95099
4.93887
4.93502
4.93708
4.94709
4.98071
5.12232
5.75674
7.91426
4.93936
4.92649
4.91963
4.91738
4.9191
4.92567
4.94367
5.01264
5.34871
6.70817
5.03786
5.02514
5.01985
5.01801
5.01906
5.0233
5.03351
5.07146
5.26031
6.13634
5.09341
5.09215
5.09049
5.08921
5.08921
5.09034
5.09238
5.09654
5.12523
5.32377
6.03646
6.03643
6.03619
6.03598
6.03583
6.03577
6.03577
6.03575
6.03632
6.04251
5.66544
5.66077
5.65848
5.6578
5.65801
5.65981
5.66744
5.69619
5.78806
5.97921
5.29866
5.12912
5.04731
5.02224
5.03519
5.1146
5.40073
6.34037
8.95243
13.6772
5.13306
5.03071
4.97929
4.96314
4.97359
5.0303
5.22745
5.89123
7.90069
12.0839
5.02951
4.97688
4.95341
4.94646
4.95161
4.97634
5.06307
5.38978
6.57448
9.75653
4.95203
4.92808
4.91672
4.91344
4.91672
4.92945
4.96897
5.12057
5.7529
7.87752
4.93539
4.91923
4.91173
4.90947
4.91148
4.91886
4.93899
5.01258
5.34722
6.68413
4.90741
4.89995
4.89592
4.89467
4.89621
4.90105
4.91211
4.94692
5.11083
5.86695
4.99447
4.98558
4.98202
4.98087
4.982
4.98564
4.99299
5.0145
5.10839
5.59217
5.09289
5.09287
5.09181
5.0908
5.09063
5.09122
5.09203
5.09246
5.10059
5.18451
5.75425
5.75434
5.75428
5.7542
5.7541
5.754
5.75388
5.75367
5.75363
5.75591
5.4011
5.39902
5.39812
5.39788
5.398
5.39881
5.40212
5.41489
5.45891
5.56813
5.11789
5.03227
4.99562
4.9858
4.99387
5.03342
5.17195
5.64712
7.15931
10.7249
5.00256
4.95027
4.92425
4.9162
4.92289
4.95313
5.04942
5.37359
6.46648
9.39439
4.95752
4.92977
4.91763
4.91419
4.91794
4.93207
4.97378
5.12014
5.68746
7.58888
4.91166
4.89789
4.89138
4.8896
4.89211
4.90018
4.92057
4.98722
5.26631
6.38632
4.90432
4.89489
4.89052
4.8893
4.89095
4.89603
4.90735
4.94012
5.07897
5.71209
4.88409
4.8802
4.87805
4.87744
4.87859
4.8818
4.88806
4.90331
4.96589
5.28251
4.95416
4.94853
4.94633
4.94573
4.94673
4.9495
4.95452
4.96598
5.005
5.21906
5.08534
5.08588
5.08528
5.08452
5.08422
5.08433
5.08421
5.08248
5.07998
5.09979
5.46125
5.46137
5.46141
5.46139
5.46133
5.46124
5.46109
5.46085
5.46058
5.461
5.12824
5.12774
5.1275
5.12745
5.12751
5.12777
5.12871
5.13225
5.14528
5.18371
4.99235
4.9608
4.9496
4.9473
4.95112
4.96536
5.01057
5.16516
5.71463
7.4411
4.9219
4.89625
4.88369
4.87973
4.88316
4.89652
4.93216
5.04036
5.42303
6.73265
4.90699
4.89379
4.88788
4.88622
4.8884
4.89548
4.91209
4.95885
5.13348
5.84036
4.88383
4.87691
4.87362
4.87277
4.87429
4.87868
4.88781
4.91023
4.99168
5.36182
4.88157
4.87703
4.87487
4.87433
4.87539
4.87833
4.88395
4.89595
4.93537
5.12511
4.86897
4.86741
4.86647
4.86625
4.86696
4.86875
4.87185
4.87749
4.89372
4.97594
4.91529
4.91246
4.9114
4.91123
4.91196
4.91368
4.91661
4.92202
4.93481
5.00082
5.04154
5.04209
5.04184
5.04138
5.04109
5.04096
5.04047
5.03836
5.03306
5.02822
5.15756
5.15763
5.15768
5.15769
5.15767
5.1576
5.1575
5.15734
5.15711
5.15701
19.7891
19.9058
19.7214
19.1318
255.823
252.63
249.918
251.929
311.719
310.843
307.014
302.623
355.846
357.052
351.622
341.173
392.639
395.5
388.63
373.983
429.346
433.973
426.51
409.727
460.561
467.123
459.943
442.788
471.759
479.932
473.06
456.584
376.066
381.951
372.816
355.377
11.7914
11.934
11.7332
11.3299
15.6707
15.7071
15.5756
15.27
268.896
258.794
251.028
244.784
332.608
328.948
320.798
307.409
387.087
391.657
383.002
361.474
437.831
450.719
442.252
413.041
493.346
515.207
509.069
473.026
545.105
576.242
574.558
533.244
573.879
614.489
617.599
572.273
466.274
505.597
504.804
459.39
11.5288
11.7266
11.6107
11.1101
12.7867
12.7514
12.6305
12.4266
116.347
114.614
108.875
101.225
144.684
143.953
135.055
121.653
173.286
173.523
161.088
141.404
205
205.709
189.524
163.274
244.725
245.757
225.855
192.442
286.782
287.604
264.177
223.312
316.581
317.938
292.412
244.705
255.611
256.391
234.862
192.746
10.3667
10.3947
10.2721
10.0383
11.7152
11.6608
11.5539
11.3909
68.7985
65.712
62.2041
59.4212
77.6464
74.3894
69.8242
65.602
87.6397
84.3881
78.5918
72.5431
100.881
97.5565
90.0902
81.6691
120.376
116.875
107.173
95.6674
142.875
138.7
126.103
110.873
159.618
155.028
139.689
120.67
123.678
118.631
104.512
88.251
9.66894
9.66117
9.58959
9.50442
11.0081
10.952
10.8562
10.7128
52.0917
49.9793
47.6516
45.7453
53.2153
51.0959
48.4266
46.0115
54.9516
52.8531
49.8679
46.9989
59.1353
57.043
53.5696
50.0353
67.6998
65.6334
61.3791
56.7601
78.3986
76.1074
70.6045
64.4156
86.1394
83.7632
76.9193
68.9183
63.113
60.5282
54.2426
47.4351
9.18696
9.17663
9.14133
9.10521
10.4474
10.3847
10.2951
10.1693
44.0986
42.4283
40.5765
39.0072
41.717
40.1399
38.1697
36.325
39.4534
37.8776
35.8458
33.9274
39.0502
37.4624
35.3617
33.3984
41.9165
40.385
38.1349
35.9605
46.3322
44.7822
42.1558
39.4952
49.2171
47.7775
44.6973
41.3433
33.8362
32.3914
29.6723
26.9719
8.82462
8.81357
8.79567
8.78249
9.96489
9.89356
9.80773
9.69796
39.1068
37.7087
36.1349
34.7561
35.2729
34.0337
32.4549
30.9124
31.2572
30.0222
28.4602
26.9508
28.7095
27.4555
25.9364
24.5449
28.6697
27.4492
25.9704
24.6548
29.8127
28.6165
27.0956
25.7408
30.2815
29.2382
27.6595
26.1505
20.0281
19.1615
17.9208
16.884
8.53914
8.52901
8.5195
8.5169
9.52852
9.44829
9.36505
9.26974
35.3181
34.0767
32.6683
31.4084
31.0366
29.9867
28.6405
27.2955
26.4517
25.4167
24.1302
22.878
23.0651
22.0267
20.8207
19.7271
21.6399
20.6263
19.5015
18.5467
21.1298
20.1412
19.0737
18.2227
20.4777
19.6255
18.6375
17.8452
13.7728
13.205
12.55
12.1157
8.29991
8.29117
8.28533
8.28656
9.12182
9.03373
8.9528
8.87075
32.0636
30.9127
29.6103
28.4333
27.8201
26.8655
25.6601
24.4534
23.2991
22.3726
21.2572
20.1879
19.7822
18.884
17.875
16.981
17.8307
16.9721
16.0553
15.3029
16.5914
15.7677
14.9315
14.3084
15.5034
14.8006
14.0765
13.5691
10.9618
10.5841
10.1688
9.91956
8.07856
8.07139
8.06693
8.06863
8.7363
8.64225
8.56396
8.49422
29.1097
28.0031
26.7714
25.664
25.1372
24.2138
23.0933
21.9954
20.9908
20.1097
19.1007
18.1735
17.6874
16.8734
15.9943
15.252
15.6511
14.9072
14.1315
13.5238
14.1742
13.4901
12.8038
12.3167
12.9762
12.4148
11.8434
11.4678
9.54822
9.31035
9.01557
8.81931
7.85725
7.85184
7.84803
7.84909
8.36682
8.26933
8.19441
8.13617
26.3743
25.2774
24.0952
23.0581
22.7917
21.8579
20.7899
19.7907
19.1582
18.2855
17.3463
16.5417
16.2052
15.4422
14.6549
14.0391
14.274
13.6188
12.9492
12.4602
12.7752
12.2127
11.6416
11.2563
11.5898
11.1625
10.705
10.4082
8.68692
8.55904
8.34369
8.16502
7.62846
7.62492
7.62165
7.62178
8.00964
7.91175
7.84119
7.79368
23.8401
22.7275
21.5823
20.6252
20.709
19.7405
18.7079
17.8099
17.6315
16.7518
15.8658
15.1781
15.058
14.334
13.6206
13.1198
13.2914
12.7153
12.1353
11.7513
11.8426
11.3927
10.9205
10.6197
10.7039
10.4028
10.0427
9.80248
8.04896
8.00742
7.85285
7.68367
7.38957
7.38779
7.38506
7.38428
7.66147
7.5666
7.50162
7.46406
21.5164
20.3735
19.2606
18.3989
18.8612
17.8498
16.8483
16.0613
16.3216
15.4387
14.6044
14.0364
14.0993
13.4205
12.7784
12.388
12.4946
12.0021
11.5078
11.2189
11.1035
10.7648
10.3849
10.1548
10.0169
9.83438
9.56209
9.36357
7.50061
7.52281
7.4163
7.25655
7.13999
7.13965
7.13746
7.13594
7.3189
7.23077
7.17271
7.14422
19.4188
18.2457
17.1699
16.4219
17.2311
16.1872
15.2245
14.5629
15.1647
14.3009
13.5298
13.0879
13.2319
12.6197
12.0575
11.7742
11.7564
11.362
10.9569
10.7516
10.4063
10.1812
9.89088
9.71666
9.37645
9.30292
9.10994
8.93913
6.98883
7.05183
6.98225
6.83524
6.88013
6.88077
6.87905
6.8771
6.97816
6.9005
6.85072
6.83032
17.5512
16.3679
15.3449
14.7302
15.7903
14.7454
13.8421
13.3226
14.092
13.2876
12.6024
12.2918
12.3683
11.855
11.3883
11.2041
10.9797
10.7007
10.3909
10.2523
9.65413
9.54207
9.33813
9.2024
8.70088
8.72124
8.59671
8.44037
6.5015
6.58263
6.53975
6.41082
6.61089
6.61197
6.61066
6.60865
6.63503
6.57123
6.53096
6.51746
15.884
14.7348
13.7939
13.3312
14.4772
13.4869
12.6774
12.3146
13.01
12.3198
11.7511
11.5691
11.4136
11.0337
10.6789
10.5762
10.0807
9.92826
9.71581
9.62017
8.78753
8.77768
8.65199
8.53658
7.95556
8.04613
7.97536
7.824
6.04987
6.12829
6.10304
5.99864
6.3334
6.33444
6.3335
6.33179
6.28521
6.23775
6.20779
6.19981
14.3219
13.2787
12.465
12.1681
13.1718
12.3143
11.645
11.4432
11.7881
11.2704
10.849
10.7763
10.267
10.0433
9.80893
9.75727
8.99987
8.96709
8.84393
8.76431
7.79595
7.86103
7.79727
7.6892
7.15265
7.28003
7.24506
7.09805
5.65723
5.71694
5.70227
5.62809
6.04875
6.04947
6.04883
6.04764
5.92556
5.89517
5.87557
5.87159
12.6666
11.8247
11.1956
11.0639
11.672
11.034
10.5521
10.4894
10.2717
9.96505
9.70634
9.70032
8.85747
8.78221
8.65755
8.61982
7.74228
7.79391
7.73766
7.65618
6.74495
6.84036
6.81515
6.7152
6.35238
6.47698
6.46025
6.32984
5.34964
5.3825
5.37385
5.3321
5.75767
5.75802
5.75763
5.75698
5.5568
5.54146
5.53114
5.52969
10.5943
10.0462
9.6527
9.64984
9.71234
9.34855
9.07196
9.08234
8.37189
8.25882
8.14083
8.14419
7.24035
7.25851
7.20792
7.16151
6.44266
6.51594
6.49435
6.41783
5.79089
5.86637
5.85653
5.78171
5.6518
5.73808
5.72777
5.63565
5.14111
5.14936
5.14449
5.13066
5.46048
5.46064
5.46043
5.46016
5.18748
5.18222
5.17868
5.1787
7.77362
7.53291
7.36233
7.39557
7.18321
7.03609
6.9073
6.90629
6.31528
6.28905
6.24128
6.22924
5.74098
5.75734
5.73213
5.69834
5.39679
5.42746
5.41385
5.37472
5.13548
5.16109
5.15385
5.12353
5.15259
5.18526
5.17803
5.13921
5.01165
5.00744
5.00546
5.00704
5.15625
5.15649
5.15642
5.15621
16.901
13.7159
11.4805
10.328
9.59708
9.13801
8.86646
8.71711
8.63907
8.59282
285.522
156.508
92.7922
62.45
43.9674
32.1602
24.7601
20.3357
17.7067
15.7402
315.731
146.512
87.1292
59.2248
42.5789
32.2359
26.184
22.8442
20.9472
19.4726
323.491
132.625
80.0884
54.3117
39.3916
30.1474
24.7784
21.7015
19.8221
18.3446
324.673
122.902
75.2362
50.6975
37.0209
28.4457
23.3726
20.2823
18.2557
16.6748
331.634
119.318
73.2673
48.7657
35.5785
27.1935
22.1623
18.9921
16.878
15.2394
339.573
116.358
70.6429
46.4461
33.8304
25.775
20.9204
17.8144
15.7271
14.0978
331.234
105.877
62.3972
40.2955
29.2416
22.2335
18.0921
15.5011
13.8305
12.4836
222.643
62.6111
33.0114
20.167
14.5861
11.4989
9.95011
9.07777
8.56412
8.11128
10.0828
9.57802
9.30114
9.18433
9.12158
9.09295
9.07879
9.0724
9.06931
9.0652
14.0003
12.2608
10.971
10.0408
9.39834
8.98116
8.73096
8.59418
8.52668
8.49346
189.187
111.943
75.4144
52.809
38.0182
28.1015
21.7338
17.9379
15.8008
14.4384
208.651
111.16
73.7508
51.679
37.6063
28.4961
23.1092
20.2199
18.7119
17.7194
218.541
108.349
70.9775
49.374
35.9393
27.3894
22.4
19.6248
18.0249
16.9234
227.25
107.385
69.5451
47.8329
34.767
26.4952
21.603
18.7194
16.9004
15.6212
242.2
110.429
70.3318
47.5004
34.2549
25.8929
20.8955
17.8529
15.8885
14.4972
256.603
112.389
69.7111
46.1289
33.0352
24.8603
19.9785
16.9654
14.9947
13.5715
257.519
105.952
62.8429
40.4411
28.7258
21.5734
17.3917
14.8611
13.2827
12.1187
185.98
65.2775
33.6528
20.0681
14.1673
11.1027
9.58017
8.74392
8.28226
7.94143
10.0975
9.51686
9.21383
9.07338
9.00394
8.9724
8.95635
8.94769
8.94228
8.93679
11.8621
10.9946
10.1798
9.51352
9.03137
8.71756
8.53284
8.43584
8.39201
8.37319
84.7916
66.402
51.4322
38.858
29.0647
22.0188
17.4304
14.7617
13.3528
12.5147
93.7329
69.7144
53.0773
39.5169
29.4502
22.7132
18.7799
16.7851
15.8515
15.277
101.25
71.7631
53.731
39.2994
29.0619
22.4484
18.6357
16.6088
15.519
14.7966
109.971
74.5825
54.9332
39.4613
28.9616
22.273
18.3493
16.1249
14.7865
13.8678
123.216
79.839
57.5168
40.402
29.3002
22.2812
18.1073
15.6538
14.1291
13.0725
135.925
83.5565
58.4214
40.0607
28.7795
21.7606
17.59
15.1033
13.5263
12.4034
139.446
79.9958
53.4833
35.5674
25.3221
19.1325
15.5381
13.4349
12.1606
11.2363
97.4104
48.2354
28.0951
17.3599
12.5008
10.0746
8.86562
8.20416
7.84543
7.58639
9.71765
9.3295
9.07499
8.94423
8.88316
8.85512
8.84014
8.83083
8.82424
8.81805
10.9748
10.2971
9.64086
9.10614
8.72676
8.48638
8.34972
8.2825
8.257
8.24968
54.8276
47.1007
38.0516
29.4016
22.3399
17.2464
13.9967
12.1975
11.3518
10.9132
58.3979
48.8049
38.7222
29.4509
22.307
17.5764
14.91
13.6744
13.2199
12.9903
62.0761
50.5639
39.4996
29.6013
22.2866
17.5917
14.9531
13.6523
13.0552
12.6896
67.1085
53.4159
41.1414
30.3664
22.6654
17.759
14.9271
13.4177
12.5955
12.0484
75.5258
58.4845
44.1673
31.9347
23.4996
18.149
14.9995
13.2386
12.2179
11.5228
83.7007
62.4715
45.877
32.3989
23.5725
18.0715
14.8311
12.9834
11.8682
11.0768
86.102
60.7944
42.7536
29.317
21.1518
16.2373
13.4089
11.8173
10.8876
10.216
58.7079
35.9666
21.9798
14.3172
10.7866
9.04298
8.14679
7.6507
7.38268
7.1937
9.39224
9.08861
8.88336
8.78313
8.73741
8.71536
8.70241
8.69359
8.68711
8.68152
10.3548
9.77347
9.22
8.77851
8.4726
8.28394
8.1808
8.13441
8.12194
8.12303
42.3694
36.4246
29.5563
23.0575
17.7713
13.9983
11.6477
10.4185
9.93027
9.73769
41.7933
35.3766
28.37
21.9421
16.9851
13.7459
11.9877
11.2697
11.1278
11.1202
42.0996
35.3551
28.1961
21.6841
16.7784
13.6394
11.9339
11.195
10.9717
10.8709
44.1786
36.9301
29.2969
22.3227
17.1329
13.8056
11.9376
11.0444
10.6563
10.4114
49.2277
40.7618
31.9127
23.8915
18.048
14.3033
12.143
11.0275
10.4604
10.0772
54.4309
44.1801
33.777
24.7358
18.4475
14.4959
12.2063
10.9788
10.2945
9.79979
55.9777
43.671
32.0989
22.905
16.9797
13.4048
11.3723
10.2766
9.66752
9.21973
36.7114
25.2253
16.4187
11.5947
9.29207
8.1267
7.49542
7.13855
6.94791
6.81546
9.05431
8.82724
8.68354
8.61642
8.58474
8.56775
8.55659
8.54835
8.54212
8.53714
9.86242
9.36035
8.88387
8.50884
8.25408
8.10102
8.02088
7.98887
7.9855
7.99256
36.0085
30.6315
24.7191
19.289
14.9675
11.9571
10.1436
9.25758
8.98053
8.93052
32.8855
27.6095
22.1292
17.2561
13.5732
11.2226
10.0017
9.57969
9.60911
9.72538
30.5573
25.7932
20.8144
16.331
12.9601
10.8344
9.73987
9.36419
9.37791
9.44498
30.1725
25.8011
20.9603
16.4345
12.9966
10.8071
9.64392
9.19291
9.10726
9.07135
32.5185
28.0124
22.6612
17.5521
13.6873
11.2134
9.84611
9.23074
9.00104
8.84779
35.3966
30.3475
24.1231
18.3447
14.139
11.4975
10.016
9.29111
8.94169
8.6772
36.2265
30.2956
23.3006
17.3791
13.386
10.983
9.63992
8.94995
8.59439
8.32353
23.1706
17.4665
12.3426
9.51937
8.10747
7.36088
6.93224
6.68455
6.55576
6.4675
8.75748
8.58596
8.4897
8.44642
8.42475
8.41166
8.40213
8.39465
8.38889
8.38459
9.43849
9.00618
8.59291
8.26984
8.0538
7.92711
7.86378
7.84221
7.84542
7.85665
31.9801
26.9526
21.6071
16.8273
13.119
10.608
9.15002
8.48991
8.34721
8.38267
27.8629
23.1395
18.4473
14.4186
11.4599
9.62305
8.70913
8.44803
8.56322
8.74118
24.1806
20.2986
16.4294
13.042
10.5449
9.01063
8.27277
8.1015
8.24161
8.39754
22.2233
19.1148
15.7459
12.6098
10.2406
8.7707
8.05409
7.87054
7.95812
8.04212
22.6204
19.8841
16.4854
13.1489
10.6018
9.00646
8.18534
7.89622
7.87503
7.86497
23.7682
21.0866
17.3258
13.6559
10.9358
9.25823
8.36463
7.98531
7.85657
7.74716
24.0019
21.0487
16.8917
13.1834
10.6313
9.11411
8.28369
7.88224
7.70228
7.55654
15.6096
12.6282
9.69226
8.05813
7.2102
6.74266
6.4603
6.29452
6.21267
6.15747
8.50359
8.3673
8.30012
8.27155
8.25655
8.24652
8.23857
8.23202
8.22693
8.22339
9.05413
8.6845
8.32596
8.04627
7.86153
7.75559
7.70522
7.69153
7.6996
7.71372
28.8141
24.1395
19.2763
15.013
11.7784
9.6457
8.45285
7.95888
7.91169
8.00238
24.5522
20.2594
16.093
12.6041
10.1045
8.59002
7.8645
7.69688
7.85615
8.06297
20.5187
17.1606
13.8856
11.0874
9.07439
7.87299
7.33247
7.26498
7.46047
7.65314
17.8777
15.3895
12.738
10.3218
8.54501
7.4874
7.02184
6.9744
7.14002
7.27862
17.1025
15.1735
12.7452
10.3795
8.61751
7.56241
7.06936
6.96014
7.04411
7.10846
17.0866
15.4678
12.9936
10.5525
8.77724
7.72586
7.20462
7.02982
7.02486
7.00694
16.8725
15.264
12.6637
10.3034
8.70094
7.77268
7.27913
7.06127
6.98987
6.9244
11.6677
9.85393
8.04639
7.05778
6.54514
6.25637
6.07585
5.9694
5.92151
5.89009
8.27545
8.16053
8.10968
8.08998
8.07951
8.07195
8.06554
8.06006
8.05577
8.05302
8.69557
8.38238
8.07208
7.82969
7.67115
7.58218
7.54214
7.53454
7.54615
7.56216
26.0101
21.7237
17.3352
13.5445
10.7212
8.90427
7.92696
7.56608
7.59325
7.72183
21.9811
18.1113
14.3942
11.3265
9.16655
7.88294
7.28961
7.18577
7.37183
7.5915
18.17
15.2202
12.3279
9.88526
8.16171
7.15853
6.73063
6.71306
6.92514
7.12454
15.4714
13.343
11.0409
8.98749
7.52976
6.70068
6.36748
6.37771
6.56453
6.71764
14.1883
12.6206
10.6162
8.7359
7.40719
6.6596
6.34603
6.32163
6.44456
6.538
13.537
12.3284
10.4292
8.63805
7.41056
6.7291
6.42127
6.35332
6.40591
6.43438
13.043
11.9298
10.0691
8.45625
7.42053
6.84937
6.56021
6.45036
6.43899
6.42003
9.64248
8.26669
7.01515
6.37538
6.05949
5.88335
5.77179
5.70687
5.6823
5.66736
8.05552
7.95517
7.91455
7.9005
7.89323