/*--------------------------------*- C++ -*----------------------------------*\
| =========                 |                                                 |
| \\      /  F ield         | foam-extend: Open Source CFD                    |
|  \\    /   O peration     | Version:     4.0                                |
|   \\  /    A nd           | Web:         http://www.foam-extend.org         |
|    \\/     M anipulation  |                                                 |
\*---------------------------------------------------------------------------*/
FoamFile
{
    version     2.0;
    format      ascii;
    class       volScalarField;
    location    "200";
    object      MaU;
}
// * * * * * * * * * * * * * * * * * * * * * * * * * * * * * * * * * * * * * //

dimensions      [0 0 0 0 0 0 0];

internalField   nonuniform List<scalar> 
34480
(
0.542427
0.545676
0.54772
0.549196
0.550295
0.551088
0.551408
0.550111
0.543579
0.534745
0.531734
0.536939
0.540113
0.541818
0.542366
0.541823
0.539436
0.533754
0.521164
0.514243
0.526662
0.531735
0.534946
0.53685
0.537953
0.538762
0.53857
0.535836
0.525855
0.523658
0.522653
0.527794
0.531264
0.533708
0.535601
0.537532
0.53905
0.539167
0.532565
0.535113
0.517609
0.523062
0.527055
0.530313
0.533254
0.536477
0.539706
0.54257
0.539659
0.546599
0.510243
0.516223
0.520961
0.525189
0.529305
0.533954
0.538984
0.544521
0.545538
0.556609
0.502562
0.509374
0.515073
0.520414
0.525748
0.531816
0.538643
0.546761
0.551812
0.566442
0.494911
0.502554
0.509153
0.515463
0.521756
0.528873
0.537123
0.547444
0.556506
0.574384
0.488748
0.496984
0.504469
0.512033
0.519701
0.528191
0.538135
0.550953
0.56396
0.58319
0.484978
0.492658
0.499737
0.506663
0.51339
0.520533
0.528852
0.540473
0.555199
0.577824
0.53676
0.54009
0.54183
0.542653
0.542651
0.541637
0.538974
0.533038
0.522417
0.505168
0.526323
0.531772
0.534927
0.536341
0.53625
0.534434
0.529625
0.519327
0.501001
0.479572
0.522039
0.5274
0.530689
0.5324
0.532858
0.532174
0.529194
0.521172
0.504404
0.486456
0.518909
0.524287
0.5278
0.530017
0.53124
0.531611
0.530108
0.524354
0.509877
0.49594
0.51471
0.520316
0.524274
0.527234
0.529455
0.531087
0.531168
0.52778
0.51605
0.506222
0.50812
0.51416
0.518776
0.522637
0.525979
0.529026
0.530856
0.529949
0.521383
0.515759
0.501155
0.507909
0.513391
0.518299
0.522816
0.527297
0.530934
0.53256
0.52747
0.525801
0.493959
0.501449
0.50776
0.513593
0.519072
0.524691
0.529867
0.533817
0.532442
0.534759
0.488098
0.496086
0.503218
0.51021
0.51697
0.523969
0.530911
0.537529
0.540201
0.54493
0.484268
0.491777
0.498712
0.505376
0.511603
0.517806
0.523861
0.530201
0.535436
0.544965
0.531976
0.535087
0.536547
0.537023
0.536621
0.535205
0.532387
0.527309
0.518175
0.502707
0.521365
0.526777
0.529797
0.530972
0.530563
0.528302
0.522992
0.51266
0.494762
0.471059
0.517512
0.522948
0.526203
0.527761
0.527898
0.526499
0.522355
0.513055
0.494534
0.46968
0.515079
0.520543
0.52401
0.526025
0.526841
0.526333
0.523248
0.515172
0.496712
0.471449
0.511653
0.517306
0.521159
0.523831
0.525545
0.526176
0.524397
0.517881
0.500122
0.475013
0.505854
0.511877
0.516315
0.519805
0.522548
0.52449
0.524255
0.519623
0.503238
0.478901
0.499698
0.506325
0.511533
0.515989
0.519829
0.523134
0.524565
0.522038
0.507639
0.484443
0.493196
0.500445
0.506396
0.511707
0.516459
0.520889
0.523835
0.523429
0.511605
0.489989
0.488009
0.495629
0.502312
0.508659
0.514535
0.520221
0.524844
0.526997
0.51848
0.497163
0.484298
0.491483
0.498094
0.504302
0.509894
0.51509
0.519245
0.521621
0.515805
0.496484
0.527865
0.530564
0.531731
0.531996
0.531481
0.530128
0.52774
0.523888
0.517484
0.506114
0.516751
0.521939
0.524779
0.525775
0.525209
0.522902
0.517904
0.508683
0.493551
0.473374
0.513204
0.518519
0.521637
0.522998
0.522867
0.521122
0.516748
0.507843
0.491644
0.470042
0.511347
0.516724
0.520034
0.521772
0.522175
0.521063
0.517281
0.508808
0.491767
0.468885
0.508631
0.51418
0.517821
0.520116
0.521269
0.521071
0.518205
0.510553
0.49304
0.468993
0.503616
0.509488
0.513646
0.516665
0.518715
0.519623
0.517955
0.511517
0.494072
0.46922
0.498301
0.504686
0.509524
0.513418
0.516454
0.518558
0.51826
0.513335
0.496563
0.471255
0.492569
0.499472
0.504972
0.509649
0.513523
0.516641
0.517653
0.514418
0.499061
0.47378
0.488078
0.49524
0.501376
0.506974
0.511851
0.516064
0.518461
0.517407
0.504564
0.478508
0.48453
0.491291
0.497451
0.503061
0.507865
0.511876
0.514103
0.513336
0.502925
0.477587
0.524463
0.526701
0.527607
0.52777
0.527328
0.526279
0.524549
0.521912
0.517568
0.509
0.512767
0.517618
0.520255
0.521145
0.520599
0.518518
0.51417
0.506345
0.493845
0.476796
0.509358
0.514422
0.517354
0.518559
0.518316
0.516549
0.512476
0.504639
0.4912
0.473246
0.507924
0.513082
0.51618
0.517669
0.517798
0.516406
0.512555
0.504666
0.49016
0.471115
0.505795
0.511119
0.514495
0.516437
0.51715
0.516418
0.513114
0.505515
0.490035
0.469626
0.501482
0.507097
0.510929
0.513499
0.51496
0.515085
0.512607
0.505671
0.489528
0.467745
0.496954
0.503014
0.507448
0.510794
0.513113
0.514221
0.512761
0.506791
0.49043
0.467389
0.491987
0.49848
0.503503
0.507557
0.510629
0.512603
0.512165
0.507409
0.491543
0.46761
0.488209
0.494867
0.500433
0.505292
0.509241
0.512166
0.512828
0.50971
0.495548
0.470294
0.484855
0.491142
0.496797
0.501768
0.505782
0.50869
0.509375
0.506499
0.494226
0.469062
0.521503
0.523331
0.524026
0.524144
0.523822
0.523086
0.52191
0.520133
0.517037
0.509953
0.509349
0.513846
0.516288
0.51712
0.516676
0.51492
0.511254
0.504626
0.494005
0.478976
0.506038
0.510785
0.513506
0.514589
0.514332
0.512723
0.509169
0.502489
0.491327
0.476032
0.504941
0.509783
0.512625
0.513893
0.513857
0.512421
0.508863
0.501938
0.489898
0.474016
0.503296
0.508282
0.511344
0.512959
0.513346
0.512333
0.50904
0.502106
0.489088
0.472175
0.499602
0.504847
0.508305
0.510448
0.511426
0.511021
0.50822
0.501556
0.487661
0.46947
0.495788
0.501424
0.505412
0.508229
0.509922
0.510268
0.508138
0.501991
0.487465
0.467885
0.491538
0.497538
0.502049
0.505494
0.507842
0.508883
0.507468
0.502083
0.48751
0.466761
0.488428
0.494524
0.499492
0.503629
0.506729
0.508565
0.507979
0.503709
0.490226
0.468162
0.485257
0.491016
0.496115
0.500425
0.503673
0.5056
0.505124
0.501021
0.488894
0.466981
0.518789
0.520288
0.520827
0.520925
0.520713
0.520228
0.519451
0.518239
0.515898
0.509738
0.506417
0.510599
0.512871
0.513673
0.513358
0.511925
0.508853
0.503157
0.493839
0.480184
0.503235
0.507653
0.510166
0.511156
0.510946
0.509572
0.506566
0.5009
0.491413
0.477966
0.502441
0.506911
0.509477
0.510557
0.51045
0.509117
0.506014
0.500101
0.490047
0.476451
0.501197
0.505762
0.50848
0.509808
0.50998
0.508885
0.505871
0.499844
0.489044
0.474827
0.498043
0.502824
0.505876
0.507631
0.508246
0.50754
0.50476
0.498776
0.487192
0.472019
0.494862
0.499985
0.503498
0.505824
0.507008
0.506831
0.504425
0.498636
0.486341
0.469974
0.491253
0.496685
0.50066
0.50353
0.50526
0.505606
0.503639
0.49824
0.485663
0.46822
0.48874
0.494221
0.498579
0.502034
0.504389
0.505369
0.503993
0.499292
0.487419
0.46901
0.485725
0.490908
0.495418
0.499075
0.501617
0.502735
0.50148
0.496858
0.485907
0.468086
0.516196
0.517444
0.517869
0.517957
0.517828
0.517516
0.517001
0.51614
0.514267
0.508757
0.503891
0.507817
0.509947
0.510732
0.510535
0.509377
0.50677
0.501759
0.493339
0.480653
0.500903
0.505018
0.507336
0.508254
0.508115
0.506984
0.504465
0.499606
0.491299
0.479117
0.500412
0.504491
0.50678
0.507704
0.507586
0.506435
0.503823
0.498825
0.490259
0.478238
0.499509
0.503601
0.505966
0.507048
0.507098
0.506059
0.503457
0.498374
0.489378
0.477101
0.496826
0.501076
0.50371
0.505126
0.505487
0.504666
0.502128
0.496996
0.487459
0.474595
0.494202
0.498742
0.501769
0.503654
0.504448
0.503964
0.501578
0.496441
0.48631
0.472578
0.491146
0.495947
0.499377
0.501722
0.50295
0.502829
0.500659
0.49565
0.485209
0.47068
0.489147
0.493972
0.49772
0.500549
0.502279
0.502634
0.500849
0.496237
0.486312
0.471343
0.486249
0.490818
0.494727
0.497763
0.499684
0.500179
0.498482
0.493865
0.484544
0.470676
0.513666
0.514722
0.515064
0.515144
0.51507
0.51487
0.51452
0.513879
0.51232
0.507352
0.501716
0.505438
0.507449
0.508216
0.508113
0.507169
0.504915
0.500408
0.492633
0.480693
0.498991
0.502836
0.504977
0.505835
0.505768
0.504853
0.502732
0.498489
0.491012
0.47972
0.498819
0.502507
0.504527
0.505321
0.505227
0.504282
0.502133
0.497908
0.490437
0.47949
0.498204
0.501803
0.503821
0.504697
0.504691
0.503788
0.50164
0.497437
0.489857
0.478943
0.495937
0.499621
0.501842
0.502967
0.503167
0.502361
0.500185
0.495934
0.488104
0.476956
0.493798
0.497716
0.500265
0.501765
0.502276
0.501657
0.499484
0.495134
0.486919
0.475263
0.491203
0.495339
0.498233
0.500111
0.500951
0.500556
0.498438
0.494054
0.485619
0.473522
0.489639
0.493787
0.496943
0.499215
0.500441
0.500379
0.498476
0.494284
0.486296
0.474336
0.486819
0.490754
0.494067
0.496533
0.497933
0.497988
0.496124
0.491861
0.484261
0.473806
0.511189
0.512092
0.512372
0.512445
0.512403
0.512272
0.512026
0.511528
0.510206
0.505739
0.499858
0.503408
0.505309
0.506052
0.506017
0.505236
0.503255
0.499136
0.491856
0.480522
0.497454
0.501056
0.503029
0.503829
0.503821
0.503087
0.501283
0.497511
0.490634
0.479987
0.497606
0.500915
0.50268
0.503362
0.503304
0.50256
0.500816
0.497229
0.490578
0.480368
0.497233
0.50034
0.502031
0.502735
0.502713
0.50198
0.500269
0.496843
0.490376
0.480426
0.495331
0.498446
0.500275
0.501158
0.501263
0.500549
0.498775
0.495356
0.488923
0.479053
0.493618
0.496907
0.499001
0.500175
0.500493
0.499858
0.498002
0.49446
0.487874
0.47785
0.491396
0.49486
0.497243
0.498717
0.499271
0.498753
0.496846
0.493191
0.486521
0.476426
0.4902
0.493675
0.496273
0.49806
0.498898
0.498592
0.49677
0.493173
0.486935
0.477513
0.48742
0.490722
0.493467
0.495424
0.496407
0.496185
0.494356
0.490645
0.484657
0.476973
0.508779
0.509556
0.509786
0.509851
0.509828
0.50974
0.50956
0.509165
0.508038
0.504064
0.498302
0.501687
0.503474
0.504182
0.504192
0.50354
0.501785
0.497994
0.491126
0.480305
0.496251
0.499617
0.501424
0.50216
0.502195
0.501607
0.500062
0.496672
0.490261
0.480097
0.496717
0.499657
0.501179
0.501762
0.501741
0.501173
0.499775
0.496723
0.490722
0.481039
0.496534
0.499167
0.500555
0.501117
0.501102
0.500538
0.499218
0.496458
0.490896
0.48166
0.494952
0.497518
0.498989
0.499673
0.499728
0.499142
0.497756
0.495075
0.489793
0.480914
0.493612
0.496295
0.497973
0.498875
0.499068
0.498492
0.496985
0.4942
0.488975
0.480266
0.491681
0.494496
0.496409
0.497544
0.497896
0.497359
0.495743
0.492819
0.487646
0.479209
0.490804
0.493635
0.495723
0.497101
0.497652
0.497234
0.495613
0.492667
0.487918
0.480592
0.488033
0.490729
0.492948
0.494466
0.495128
0.494761
0.4931
0.490023
0.485439
0.479915
0.506463
0.50713
0.507318
0.507373
0.507361
0.507301
0.507167
0.506851
0.505901
0.502421
0.497038
0.500242
0.501899
0.502556
0.502595
0.502052
0.500503
0.497024
0.490533
0.480153
0.495343
0.498461
0.500092
0.500754
0.500817
0.500349
0.499029
0.49598
0.489973
0.480185
0.496094
0.498668
0.499958
0.500449
0.500457
0.500038
0.498934
0.496348
0.490913
0.481641
0.49604
0.498224
0.499341
0.499784
0.499783
0.499371
0.498382
0.496192
0.491405
0.482752
0.494733
0.496792
0.497946
0.498468
0.498501
0.498048
0.497005
0.494954
0.49064
0.482588
0.493723
0.495846
0.497156
0.497839
0.497954
0.497472
0.4963
0.494178
0.490086
0.482488
0.492006
0.494223
0.495719
0.496575
0.496791
0.496298
0.494994
0.492739
0.488804
0.481771
0.491422
0.493663
0.4953
0.49634
0.496688
0.496248
0.494887
0.492567
0.489034
0.483417
0.488637
0.490774
0.492522
0.493672
0.494101
0.493685
0.492262
0.489814
0.486395
0.482503
0.504262
0.504831
0.504981
0.505026
0.50502
0.504979
0.504879
0.50463
0.503846
0.500862
0.496053
0.499039
0.500542
0.501135
0.501191
0.500745
0.499403
0.49625
0.490141
0.480148
0.494689
0.497525
0.498962
0.49954
0.499616
0.499252
0.498142
0.495432
0.489826
0.480351
0.495674
0.497881
0.498948
0.499352
0.499381
0.499083
0.498229
0.49607
0.491183
0.482282
0.495686
0.497453
0.498327
0.498671
0.498684
0.498398
0.497679
0.495975
0.491897
0.48379
0.494613
0.496216
0.497098
0.49749
0.497514
0.497181
0.496422
0.494892
0.491415
0.484128
0.493894
0.495521
0.496516
0.497023
0.497093
0.496712
0.495834
0.494264
0.491117
0.484521
0.492321
0.494008
0.495148
0.495779
0.495907
0.49549
0.494478
0.492795
0.489868
0.48406
0.492026
0.493748
0.494999
0.495767
0.495978
0.495572
0.494478
0.492713
0.490141
0.485913
0.489203
0.490846
0.492189
0.493039
0.493305
0.492903
0.491743
0.489865
0.487372
0.484685
0.502188
0.502666
0.502782
0.502819
0.502817
0.502788
0.502716
0.502526
0.5019
0.499408
0.495328
0.498043
0.499365
0.49988
0.499943
0.499591
0.498465
0.495674
0.489986
0.480348
0.494236
0.496743
0.497964
0.498448
0.498527
0.498254
0.497351
0.495004
0.489846
0.480669
0.495395
0.497231
0.498085
0.498406
0.498445
0.498242
0.497602
0.495851
0.491541
0.483043
0.495407
0.496793
0.497458
0.497718
0.497739
0.497548
0.497043
0.495755
0.492358
0.484839
0.494532
0.49574
0.496394
0.496683
0.496703
0.496466
0.495929
0.494821
0.492083
0.485577
0.49407
0.495274
0.49601
0.496379
0.496421
0.496133
0.495493
0.494365
0.492004
0.486375
0.492579
0.493818
0.494661
0.495116
0.495189
0.494855
0.494094
0.492874
0.490749
0.486052
0.49259
0.493875
0.494806
0.495361
0.495483
0.495137
0.494291
0.492986
0.491152
0.488046
0.489704
0.490928
0.491933
0.492547
0.492703
0.492351
0.491442
0.490047
0.488267
0.486448
0.500236
0.50063
0.500716
0.500744
0.500744
0.500726
0.500676
0.500539
0.50006
0.498051
0.494829
0.497216
0.49833
0.498755
0.498818
0.498556
0.497654
0.495276
0.49009
0.48081
0.493914
0.496043
0.497032
0.497416
0.49749
0.497297
0.496598
0.49465
0.49003
0.481199
0.49519
0.496658
0.497311
0.497555
0.497595
0.497462
0.497004
0.495643
0.491972
0.483984
0.49515
0.496195
0.496681
0.496872
0.496894
0.49677
0.496424
0.495488
0.492762
0.485948
0.494446
0.49532
0.49579
0.495997
0.496013
0.495847
0.495474
0.494693
0.492615
0.486969
0.49421
0.495066
0.495594
0.495856
0.49588
0.495667
0.495209
0.494417
0.492707
0.488058
0.492741
0.493615
0.494222
0.494544
0.494582
0.494323
0.493763
0.492898
0.491398
0.487732
0.4931
0.494031
0.494706
0.495098
0.495165
0.494886
0.49425
0.493308
0.492022
0.489816
0.490108
0.490993
0.491726
0.492159
0.492245
0.491955
0.491267
0.490259
0.489007
0.4878
0.498376
0.498693
0.498753
0.498774
0.498776
0.498765
0.498733
0.49864
0.498298
0.496752
0.494509
0.496513
0.4974
0.49773
0.497787
0.497605
0.496932
0.495018
0.490458
0.481608
0.493644
0.495355
0.496105
0.49639
0.496451
0.496325
0.495822
0.494303
0.490347
0.482004
0.494997
0.496111
0.496582
0.496756
0.496789
0.496704
0.496391
0.495397
0.492435
0.485157
0.494876
0.495626
0.495964
0.496098
0.496115
0.496031
0.495798
0.495148
0.49308
0.487152
0.494329
0.494935
0.49526
0.495404
0.495413
0.495293
0.49503
0.494493
0.492993
0.488324
0.494289
0.494871
0.495237
0.495417
0.495427
0.495269
0.49494
0.494392
0.493205
0.48957
0.492792
0.493385
0.49381
0.494032
0.494047
0.493849
0.493439
0.492832
0.491799
0.489098
0.493563
0.494218
0.494695
0.494966
0.494997
0.494779
0.494312
0.493643
0.492752
0.491253
0.490388
0.491009
0.491532
0.491829
0.491872
0.491643
0.491135
0.490421
0.489548
0.488761
0.496523
0.496765
0.496805
0.49682
0.496822
0.496816
0.496798
0.496741
0.49652
0.495409
0.494315
0.495895
0.496547
0.496782
0.496827
0.496713
0.496255
0.49484
0.491073
0.482851
0.493342
0.494619
0.495141
0.495332
0.495375
0.495297
0.494965
0.493883
0.490736
0.48316
0.494768
0.495557
0.49587
0.495983
0.496001
0.495942
0.495735
0.495065
0.492864
0.486597
0.494576
0.495084
0.495306
0.495393
0.495398
0.495332
0.495166
0.494733
0.493284
0.488469
0.494194
0.494595
0.494812
0.494906
0.494903
0.494807
0.494611
0.494242
0.493227
0.489654
0.494317
0.494693
0.494937
0.495054
0.495051
0.494927
0.494685
0.494305
0.493519
0.490909
0.492768
0.493156
0.493448
0.493596
0.493595
0.49344
0.493136
0.492704
0.492002
0.490175
0.494027
0.494476
0.494806
0.494986
0.494995
0.494826
0.494485
0.494012
0.493399
0.492437
0.490495
0.490922
0.491287
0.491485
0.491501
0.491323
0.490952
0.490451
0.48984
0.489333
0.494431
0.494605
0.494627
0.494636
0.494638
0.494634
0.494625
0.494596
0.494475
0.493765
0.4942
0.495342
0.495768
0.495911
0.495935
0.495863
0.495582
0.494661
0.491872
0.484691
0.492948
0.493812
0.494135
0.494245
0.494261
0.494202
0.493992
0.493305
0.491083
0.484737
0.494464
0.494975
0.49516
0.495219
0.495214
0.495153
0.495004
0.494583
0.493141
0.488273
0.494265
0.494589
0.494727
0.494774
0.49476
0.494687
0.494546
0.494251
0.493334
0.489854
0.494083
0.494338
0.494477
0.494532
0.494512
0.494419
0.494252
0.49398
0.493336
0.490924
0.494343
0.494574
0.49473
0.494799
0.49478
0.494671
0.494477
0.494199
0.493699
0.492062
0.492801
0.493056
0.493255
0.49335
0.493334
0.493204
0.492965
0.492642
0.492156
0.491062
0.494617
0.494918
0.495142
0.495256
0.495247
0.495112
0.494857
0.494518
0.494095
0.493519
0.490298
0.490591
0.490845
0.490974
0.49097
0.490829
0.490553
0.490193
0.489752
0.489423
0.491688
0.491791
0.491805
0.491809
0.491805
0.491794
0.491779
0.491754
0.491697
0.49133
0.494168
0.494889
0.495121
0.495183
0.495169
0.495094
0.494908
0.494388
0.492696
0.487274
0.492433
0.492959
0.493141
0.493192
0.493169
0.493082
0.492902
0.492478
0.491169
0.486678
0.494005
0.494308
0.49441
0.49443
0.49439
0.494294
0.494132
0.493834
0.49302
0.489912
0.493921
0.494128
0.494218
0.494238
0.494196
0.494092
0.493925
0.493668
0.493119
0.491065
0.493993
0.494161
0.494256
0.494283
0.494241
0.49413
0.493952
0.493703
0.493282
0.491952
0.49439
0.494536
0.494638
0.494674
0.494637
0.494524
0.494341
0.4941
0.49376
0.492927
0.493112
0.493297
0.49344
0.4935
0.49347
0.493348
0.493138
0.492862
0.492492
0.491919
0.495535
0.495734
0.495885
0.495954
0.49593
0.495812
0.495607
0.495346
0.495045
0.494729
0.489553
0.489769
0.489951
0.490035
0.490018
0.489897
0.489677
0.489396
0.48905
0.488813
0.48827
0.488357
0.48839
0.4884
0.488386
0.48835
0.488295
0.488224
0.488145
0.487973
0.494165
0.494555
0.494675
0.494692
0.494634
0.494501
0.494283
0.493928
0.493133
0.49027
0.491737
0.492089
0.492234
0.492269
0.492209
0.492051
0.491786
0.491383
0.490649
0.488381
0.493275
0.493491
0.493583
0.493593
0.493522
0.493367
0.493122
0.492774
0.492241
0.490805
0.493469
0.49365
0.493741
0.493756
0.49369
0.493541
0.493305
0.492977
0.492524
0.491568
0.493854
0.494008
0.494098
0.494116
0.494056
0.493916
0.493693
0.493391
0.492999
0.492357
0.494431
0.49456
0.494648
0.494671
0.49462
0.49449
0.494285
0.494015
0.493688
0.493279
0.493806
0.493981
0.494103
0.494147
0.494105
0.493977
0.493766
0.493483
0.493127
0.492762
0.496896
0.497035
0.497149
0.497195
0.49716
0.497043
0.496852
0.496613
0.496363
0.496191
0.488403
0.488595
0.488742
0.488804
0.488776
0.488659
0.488459
0.488202
0.487895
0.487665
0.375492
0.353702
0.358368
0.396899
0.322469
0.295396
0.301314
0.352465
0.289115
0.257397
0.267771
0.330608
0.261615
0.22568
0.2408
0.312644
0.239235
0.199814
0.219877
0.298782
0.21941
0.177137
0.202568
0.287214
0.203082
0.159407
0.190915
0.280564
0.187084
0.14353
0.182336
0.27666
0.173069
0.131445
0.178602
0.280904
0.159022
0.121029
0.174683
0.282172
0.424316
0.412026
0.411009
0.420467
0.386831
0.370591
0.366962
0.374692
0.36268
0.341565
0.337084
0.348518
0.342541
0.316233
0.310208
0.325084
0.326355
0.294533
0.286305
0.304237
0.312479
0.274778
0.263786
0.284538
0.301903
0.258367
0.244492
0.268142
0.292028
0.242819
0.225995
0.252805
0.282283
0.227123
0.206448
0.236468
0.272205
0.211845
0.185997
0.217325
0.482517
0.478264
0.477185
0.479181
0.441582
0.435093
0.432614
0.434072
0.427465
0.418647
0.415477
0.417879
0.41357
0.40201
0.398093
0.401742
0.399803
0.385176
0.380379
0.385346
0.385408
0.367392
0.36156
0.367848
0.372574
0.351021
0.344108
0.351822
0.360201
0.335253
0.327359
0.336628
0.349149
0.321737
0.313605
0.324908
0.339097
0.312144
0.304426
0.315566
0.492935
0.489741
0.488991
0.490609
0.456051
0.451828
0.450062
0.450738
0.448355
0.443256
0.441002
0.441504
0.44044
0.434066
0.431244
0.431752
0.431628
0.423587
0.420094
0.42076
0.421001
0.410934
0.40667
0.407644
0.410793
0.398473
0.393436
0.39494
0.400259
0.385688
0.379993
0.382236
0.390153
0.373926
0.368091
0.371429
0.380891
0.36581
0.360085
0.363013
0.498692
0.495968
0.495412
0.497017
0.463651
0.460343
0.459064
0.459842
0.459128
0.455591
0.454019
0.454413
0.454825
0.45084
0.448853
0.448816
0.449579
0.444803
0.442253
0.441817
0.442143
0.436194
0.432958
0.432234
0.434612
0.427197
0.42325
0.422451
0.426471
0.417499
0.412935
0.4123
0.418794
0.408612
0.403909
0.403996
0.412857
0.403999
0.399276
0.399127
0.500434
0.497824
0.497349
0.499021
0.467099
0.464108
0.463052
0.463968
0.464505
0.461563
0.460362
0.460934
0.462287
0.459293
0.457843
0.457949
0.459304
0.456037
0.454191
0.453753
0.454132
0.450274
0.447887
0.446913
0.448692
0.443945
0.440941
0.439561
0.442573
0.436773
0.43319
0.431608
0.437024
0.430311
0.426581
0.425437
0.433773
0.428385
0.424667
0.423136
0.500706
0.498167
0.49774
0.499444
0.46895
0.466133
0.46519
0.466159
0.467653
0.465022
0.46403
0.464716
0.466822
0.46434
0.463222
0.463499
0.465304
0.462823
0.461455
0.461219
0.461657
0.458938
0.457181
0.456389
0.457688
0.454472
0.452234
0.450948
0.453049
0.449157
0.446435
0.444811
0.449237
0.444676
0.44185
0.440548
0.448038
0.444787
0.441979
0.440081
0.500137
0.497665
0.497275
0.49899
0.469861
0.467164
0.466281
0.467246
0.469462
0.467006
0.466124
0.466851
0.469635
0.467423
0.466495
0.466884
0.469191
0.467125
0.466055
0.46601
0.466695
0.464595
0.463263
0.462726
0.463848
0.461501
0.45982
0.458821
0.460331
0.457575
0.455532
0.454201
0.457928
0.454703
0.45263
0.451599
0.458073
0.456201
0.454151
0.452346
0.499166
0.496776
0.496424
0.498131
0.470326
0.467739
0.466893
0.467819
0.470537
0.468205
0.467383
0.468101
0.471449
0.469389
0.468566
0.469012
0.471816
0.469967
0.469075
0.469172
0.470254
0.468481
0.467424
0.467117
0.468344
0.466481
0.465186
0.464494
0.465751
0.463662
0.462121
0.46116
0.464539
0.462148
0.460651
0.459992
0.465506
0.464545
0.463082
0.461512
0.498034
0.495743
0.49543
0.497115
0.470574
0.468093
0.467272
0.468141
0.471184
0.468951
0.468162
0.468845
0.472647
0.470677
0.469912
0.470382
0.47364
0.471894
0.471105
0.471308
0.472857
0.471238
0.470354
0.470244
0.471766
0.47015
0.469116
0.468711
0.469973
0.468256
0.467076
0.466481
0.469836
0.467967
0.466893
0.466584
0.471253
0.470898
0.469869
0.468539
0.496896
0.49472
0.494449
0.496094
0.470756
0.468372
0.46757
0.468373
0.471602
0.469447
0.468676
0.469314
0.473484
0.471563
0.470828
0.471311
0.474959
0.473249
0.472521
0.472812
0.474837
0.47327
0.472496
0.472563
0.474472
0.472961
0.472107
0.471967
0.473375
0.471853
0.470933
0.470675
0.474247
0.472717
0.471949
0.471928
0.475822
0.475869
0.475154
0.474026
0.495848
0.493803
0.493571
0.495158
0.470955
0.468657
0.467865
0.468604
0.471912
0.469814
0.469052
0.46965
0.474126
0.472221
0.471503
0.472006
0.475971
0.474251
0.473562
0.473946
0.47641
0.474835
0.474138
0.474378
0.476691
0.475205
0.474485
0.474596
0.476193
0.474764
0.474041
0.474087
0.478011
0.476713
0.476165
0.476369
0.479497
0.479806
0.479315
0.478348
0.49494
0.49304
0.492845
0.494355
0.471225
0.468992
0.468205
0.468892
0.472195
0.470129
0.46937
0.469946
0.474693
0.472776
0.47207
0.472613
0.476817
0.475058
0.4744
0.474894
0.477732
0.476116
0.475486
0.475908
0.478591
0.477091
0.476482
0.47684
0.47859
0.477206
0.47664
0.476961
0.481268
0.480145
0.47976
0.480123
0.482442
0.482914
0.482581
0.481744
0.49419
0.492446
0.492283
0.493693
0.471597
0.469406
0.468622
0.469278
0.47251
0.470448
0.469692
0.470277
0.475282
0.47333
0.472639
0.473256
0.47761
0.475798
0.475177
0.47581
0.478934
0.477268
0.476708
0.477329
0.48031
0.478789
0.478287
0.478882
0.480698
0.479347
0.478916
0.479473
0.48411
0.483138
0.482874
0.483335
0.484764
0.485326
0.485104
0.484374
0.493578
0.492001
0.491864
0.493153
0.472108
0.469931
0.469154
0.469815
0.472915
0.470831
0.470087
0.470726
0.475985
0.473985
0.473322
0.474056
0.478464
0.4766
0.476034
0.476837
0.480146
0.478446
0.47797
0.478796
0.481983
0.480464
0.480071
0.480879
0.48263
0.481333
0.481022
0.481759
0.486601
0.485777
0.485603
0.486099
0.486538
0.487132
0.486987
0.486353
0.493052
0.491651
0.491533
0.492682
0.472822
0.470632
0.469874
0.470596
0.473495
0.471368
0.470655
0.471408
0.476918
0.474871
0.474264
0.475162
0.479514
0.477623
0.477138
0.478134
0.481519
0.479827
0.479452
0.480468
0.483745
0.48228
0.481998
0.482966
0.484486
0.48329
0.483083
0.483919
0.488793
0.488128
0.488018
0.488488
0.487827
0.488405
0.488312
0.487768
0.492496
0.491279
0.491176
0.492169
0.473872
0.47165
0.470938
0.471791
0.474396
0.472226
0.471579
0.472513
0.478244
0.476184
0.475669
0.476768
0.48094
0.479082
0.478708
0.479885
0.483223
0.481615
0.481354
0.482502
0.485719
0.48439
0.484215
0.485247
0.486349
0.48532
0.485199
0.486028
0.490746
0.490254
0.490189
0.490578
0.48866
0.489182
0.489123
0.488671
0.49164
0.490618
0.49053
0.491355
0.475527
0.473283
0.472662
0.473722
0.475878
0.473705
0.473173
0.474341
0.480179
0.478189
0.47781
0.479099
0.482937
0.481217
0.480973
0.482259
0.485391
0.483978
0.48383
0.48499
0.487957
0.486865
0.486781
0.487741
0.488287
0.487495
0.487435
0.48814
0.492563
0.492248
0.492213
0.492483
0.488963
0.489389
0.489349
0.488996
0.489984
0.489186
0.48912
0.48975
0.47832
0.476143
0.47568
0.476977
0.478333
0.476288
0.475928
0.477297
0.482881
0.481131
0.480916
0.482275
0.485537
0.484122
0.484006
0.485223
0.487929
0.486851
0.486793
0.487784
0.490293
0.489539
0.489515
0.490248
0.49031
0.489802
0.489777
0.490257
0.494419
0.494275
0.494258
0.494393
0.488496
0.488779
0.488749
0.488511
0.487302
0.486804
0.486764
0.487136
0.482981
0.481194
0.480951
0.482271
0.482018
0.480429
0.480259
0.481522
0.486053
0.484823
0.484749
0.48584
0.48819
0.487274
0.487242
0.488099
0.490158
0.48952
0.489507
0.490125
0.492078
0.491687
0.491686
0.492083
0.49205
0.491797
0.49178
0.492006
0.496355
0.496347
0.496343
0.496357
0.487361
0.487432
0.487405
0.487327
0.500097
0.508788
0.516371
0.520984
0.525006
0.528412
0.531281
0.533834
0.536372
0.539309
0.463884
0.469422
0.483584
0.493408
0.501786
0.508417
0.513871
0.518554
0.52283
0.526991
0.463043
0.463338
0.480052
0.49006
0.498715
0.50517
0.510353
0.514675
0.518527
0.522238
0.461564
0.457372
0.476406
0.486325
0.495268
0.501672
0.506852
0.511141
0.514899
0.51843
0.459501
0.451682
0.47235
0.481729
0.490743
0.496961
0.502139
0.506464
0.510205
0.513592
0.455769
0.445099
0.466564
0.475079
0.483865
0.489712
0.494814
0.499156
0.502953
0.506319
0.453998
0.440728
0.462064
0.469425
0.477505
0.48262
0.487362
0.49151
0.495237
0.498568
0.452925
0.43719
0.458125
0.464147
0.471188
0.475324
0.47951
0.48335
0.487059
0.49058
0.453997
0.437639
0.458844
0.463163
0.46887
0.471579
0.474758
0.477693
0.480699
0.484032
0.443563
0.430571
0.452238
0.457155
0.463621
0.466998
0.470661
0.473793
0.476803
0.48015
0.45567
0.478953
0.495702
0.506889
0.514362
0.519649
0.523625
0.52683
0.529715
0.53282
0.409252
0.440334
0.464449
0.480417
0.491701
0.500041
0.506505
0.511775
0.516387
0.520704
0.399451
0.435216
0.461828
0.478094
0.489411
0.497552
0.503723
0.508645
0.512887
0.516842
0.392295
0.43113
0.45933
0.475569
0.486956
0.495032
0.501162
0.506046
0.510205
0.513987
0.386393
0.427161
0.456283
0.472087
0.483381
0.491276
0.497357
0.502255
0.506405
0.510058
0.380122
0.422035
0.451473
0.466436
0.47738
0.484905
0.49086
0.495757
0.499964
0.503611
0.376141
0.418621
0.447744
0.461483
0.471687
0.478509
0.484096
0.488816
0.492986
0.496634
0.373092
0.415833
0.444374
0.456633
0.465777
0.471626
0.476658
0.481092
0.485263
0.489113
0.373198
0.416706
0.445118
0.455588
0.463351
0.467804
0.471891
0.475518
0.479073
0.482811
0.369455
0.41345
0.441122
0.451219
0.459263
0.464008
0.468345
0.472029
0.475473
0.479019
0.486086
0.49572
0.503181
0.508825
0.513288
0.516942
0.520016
0.522715
0.525324
0.52824
0.44194
0.455994
0.469118
0.480016
0.488914
0.496104
0.501953
0.506887
0.511348
0.51562
0.430276
0.447661
0.463346
0.475707
0.485431
0.492962
0.498863
0.503699
0.507989
0.512048
0.420214
0.440677
0.458707
0.472235
0.482644
0.490519
0.496619
0.501576
0.505896
0.50985
0.410872
0.434039
0.45408
0.46835
0.479157
0.487176
0.49339
0.49845
0.502821
0.506685
0.40108
0.426504
0.448109
0.462626
0.473491
0.481408
0.487606
0.492713
0.497164
0.501032
0.393391
0.420697
0.44335
0.45761
0.468129
0.47561
0.481559
0.486555
0.49101
0.494896
0.386853
0.415827
0.439121
0.45268
0.462482
0.469243
0.474767
0.479561
0.484043
0.488118
0.383726
0.414974
0.438836
0.451207
0.459892
0.465558
0.470332
0.474495
0.478492
0.482522
0.379745
0.412348
0.435799
0.447723
0.456479
0.462279
0.467184
0.471358
0.475204
0.478937
0.49557
0.502293
0.507029
0.510544
0.513393
0.515832
0.517993
0.520004
0.522092
0.524607
0.454848
0.464074
0.47333
0.48151
0.48844
0.494202
0.499022
0.503233
0.507207
0.511182
0.445891
0.456452
0.467237
0.476598
0.484326
0.490544
0.495584
0.499881
0.503858
0.507765
0.437221
0.449495
0.462
0.472579
0.481165
0.487964
0.493419
0.49801
0.502151
0.50605
0.428111
0.442348
0.456634
0.468271
0.47754
0.484762
0.490531
0.495361
0.499652
0.50353
0.417658
0.43395
0.449885
0.462257
0.471922
0.479332
0.485263
0.490253
0.494695
0.498622
0.408479
0.426905
0.444251
0.456953
0.466655
0.473948
0.479821
0.484822
0.48934
0.49332
0.400049
0.420735
0.43921
0.451795
0.461165
0.468052
0.473689
0.478601
0.483189
0.487346
0.394801
0.418605
0.438072
0.450003
0.458595
0.464696
0.469768
0.474187
0.478373
0.482487
0.391095
0.416386
0.435513
0.447085
0.455689
0.461845
0.466978
0.471376
0.475384
0.479115
0.501546
0.506953
0.510187
0.512317
0.513979
0.515433
0.516791
0.518153
0.519714
0.521787
0.463606
0.470819
0.477725
0.483809
0.489006
0.493389
0.497148
0.500568
0.503968
0.50755
0.457433
0.464724
0.472231
0.478973
0.484699
0.489442
0.493437
0.49702
0.500527
0.504145
0.45122
0.45883
0.467227
0.474884
0.481405
0.486794
0.491309
0.495296
0.499065
0.50276
0.443979
0.452271
0.461813
0.470445
0.477728
0.483692
0.488662
0.493
0.497006
0.500751
0.434691
0.444003
0.454795
0.464273
0.472136
0.478499
0.483792
0.488406
0.492642
0.496489
0.425901
0.436599
0.448644
0.458728
0.466907
0.473424
0.478855
0.483612
0.488005
0.491947
0.417424
0.429872
0.443043
0.453373
0.46154
0.467952
0.473346
0.478137