/*--------------------------------*- C++ -*----------------------------------*\
| =========                 |                                                 |
| \\      /  F ield         | foam-extend: Open Source CFD                    |
|  \\    /   O peration     | Version:     4.0                                |
|   \\  /    A nd           | Web:         http://www.foam-extend.org         |
|    \\/     M anipulation  |                                                 |
\*---------------------------------------------------------------------------*/
FoamFile
{
    version     2.0;
    format      ascii;
    class       volScalarField;
    location    "200";
    object      p;
}
// * * * * * * * * * * * * * * * * * * * * * * * * * * * * * * * * * * * * * //

dimensions      [1 -1 -2 0 0 0 0];

internalField   nonuniform List<scalar> 
34480
(
116647
116443
116291
116184
116132
116156
116306
116733
117358
117157
116522
116325
116206
116130
116099
116114
116222
116553
117147
116187
116849
116615
116498
116427
116383
116344
116364
116541
117022
115210
117591
117307
117139
116996
116857
116687
116556
116516
116788
114078
118602
118248
117999
117742
117468
117129
116807
116509
116486
112867
119778
119366
119024
118639
118214
117693
117154
116565
116158
111608
120792
120328
119897
119383
118811
118115
117362
116483
115638
110208
121622
121184
120720
120136
119476
118676
117769
116651
115358
109091
121693
121401
120990
120397
119695
118845
117845
116561
114849
107922
121606
121442
121139
120656
120064
119344
118483
117346
115581
108145
116631
116449
116332
116271
116275
116364
116569
116953
117611
118471
116498
116314
116213
116168
116186
116280
116491
116902
117733
118623
116841
116613
116499
116446
116450
116510
116684
117063
118030
119087
117550
117271
117106
116986
116906
116856
116916
117174
118161
119260
118499
118156
117916
117695
117498
117299
117195
117263
118155
119146
119605
119210
118888
118553
118221
117853
117551
117372
118047
118765
120572
120128
119725
119271
118800
118262
117753
117305
117677
118024
121413
120984
120543
120015
119451
118796
118125
117437
117456
117364
121598
121275
120857
120297
119665
118933
118149
117298
116967
116555
121611
121385
121043
120559
119995
119340
118625
117840
117393
116797
116675
116530
116446
116417
116450
116556
116755
117067
117516
118057
116576
116415
116331
116306
116348
116470
116698
117075
117713
118395
116928
116719
116613
116575
116608
116723
116960
117377
118222
119171
117598
117337
117181
117084
117051
117088
117263
117642
118623
119800
118475
118152
117930
117746
117615
117536
117597
117867
118890
120206
119496
119124
118829
118546
118300
118078
117985
118079
119030
120353
120389
119973
119605
119215
118843
118469
118201
118084
118867
120099
121208
120798
120388
119926
119463
118972
118553
118234
118781
119849
121463
121126
120721
120216
119676
119090
118549
118090
118375
119385
121545
121281
120926
120466
119963
119413
118892
118451
118610
119642
116721
116618
116562
116548
116583
116671
116817
117022
117278
117538
116677
116547
116483
116470
116516
116628
116821
117104
117505
117894
117049
116869
116775
116745
116784
116907
117139
117502
118111
118733
117689
117453
117310
117230
117218
117293
117504
117890
118686
119555
118500
118202
117998
117844
117754
117743
117887
118235
119162
120246
119437
119091
118820
118580
118393
118269
118304
118550
119519
120737
120251
119860
119523
119188
118893
118638
118536
118636
119560
120843
121027
120634
120255
119852
119471
119108
118876
118824
119626
120921
121310
120966
120579
120130
119677
119221
118873
118704
119336
120735
121435
121145
120789
120365
119926
119483
119130
118952
119469
121022
116780
116712
116676
116670
116699
116762
116858
116983
117124
117254
116792
116696
116649
116644
116684
116775
116919
117115
117357
117579
117184
117037
116959
116937
116975
117084
117279
117562
117965
118353
117795
117591
117466
117401
117404
117489
117691
118027
118600
119186
118543
118277
118096
117969
117912
117941
118113
118458
119184
119967
119398
119083
118840
118641
118504
118449
118554
118856
119681
120624
120130
119769
119466
119184
118956
118796
118802
119019
119879
120942
120850
120481
120135
119791
119487
119234
119138
119252
120079
121228
121137
120797
120436
120045
119675
119339
119146
119172
119910
121222
121289
120986
120641
120260
119890
119551
119340
119352
120002
121514
116856
116813
116792
116790
116810
116850
116909
116980
117054
117117
116916
116849
116817
116816
116848
116914
117013
117139
117279
117400
117320
117207
117146
117129
117162
117250
117399
117603
117861
118097
117900
117731
117627
117576
117585
117666
117839
118105
118500
118884
118589
118359
118203
118101
118067
118116
118286
118589
119122
119668
119365
119085
118873
118710
118615
118606
118741
119042
119690
120386
120016
119690
119422
119189
119019
118930
119002
119265
119986
120816
120676
120335
120026
119737
119501
119337
119336
119540
120284
121223
120948
120620
120291
119959
119664
119431
119354
119501
120217
121324
121112
120809
120485
120153
119850
119606
119507
119640
120301
121591
116951
116927
116915
116915
116927
116951
116984
117023
117061
117092
117045
117002
116982
116983
117006
117050
117114
117191
117270
117337
117453
117369
117323
117312
117337
117402
117509
117648
117810
117953
117997
117863
117778
117739
117750
117819
117955
118155
118421
118670
118628
118436
118305
118225
118206
118260
118410
118658
119040
119415
119328
119087
118906
118776
118711
118729
118869
119140
119630
120133
119901
119613
119382
119193
119070
119032
119136
119403
119977
120608
120500
120192
119921
119684
119506
119411
119468
119709
120333
121076
120746
120439
120146
119869
119642
119491
119495
119703
120336
121230
120913
120621
120326
120043
119804
119639
119622
119822
120427
121461
117066
117052
117046
117046
117054
117067
117085
117105
117124
117139
117179
117153
117141
117143
117158
117186
117225
117270
117314
117350
117580
117520
117487
117479
117497
117542
117614
117705
117805
117891
118082
117979
117912
117883
117892
117946
118048
118191
118368
118527
118655
118500
118393
118331
118321
118372
118495
118688
118956
119210
119283
119081
118930
118827
118784
118815
118944
119173
119534
119894
119781
119534
119338
119188
119101
119096
119210
119454
119898
120371
120321
120049
119817
119626
119496
119450
119538
119780
120283
120857
120534
120255
120000
119774
119604
119516
119569
119798
120327
121027
120698
120427
120166
119930
119747
119646
119683
119908
120429
121227
117195
117187
117185
117185
117190
117197
117206
117216
117224
117231
117314
117299
117293
117295
117305
117322
117345
117370
117393
117413
117699
117658
117635
117629
117641
117671
117717
117774
117834
117886
118153
118076
118025
118003
118010
118050
118122
118221
118336
118438
118669
118547
118462
118415
118410
118452
118548
118692
118877
119048
119226
119062
118939
118860
118832
118866
118976
119159
119421
119675
119654
119447
119286
119168
119109
119122
119231
119440
119775
120125
120137
119905
119711
119560
119468
119454
119552
119773
120167
120603
120313
120068
119852
119671
119549
119506
119583
119804
120230
120765
120471
120229
120005
119814
119679
119624
119692
119914
120344
120945
117333
117329
117329
117329
117332
117335
117339
117344
117347
117349
117447
117440
117437
117439
117445
117455
117467
117481
117492
117503
117810
117783
117767
117763
117769
117788
117817
117851
117887
117916
118211
118155
118117
118100
118104
118132
118182
118248
118322
118386
118670
118577
118511
118475
118472
118506
118577
118680
118807
118920
119158
119029
118931
118871
118853
118885
118974
119114
119301
119479
119521
119352
119223
119132
119093
119114
119209
119379
119627
119882
119952
119759
119601
119483
119420
119426
119521
119709
120010
120334
120089
119880
119702
119561
119475
119461
119547
119744
120077
120477
120241
120032
119845
119694
119598
119575
119656
119858
120200
120644
117474
117473
117473
117474
117475
117476
117478
117479
117480
117480
117575
117572
117572
117574
117577
117582
117588
117594
117599
117604
117911
117894
117884
117880
117884
117895
117911
117931
117951
117967
118257
118217
118189
118176
118178
118196
118229
118272
118319
118359
118660
118590
118541
118514
118512
118536
118587
118659
118744
118819
119083
118983
118908
118863
118851
118878
118946
119050
119182
119305
119383
119250
119148
119080
119054
119077
119156
119288
119468
119651
119767
119612
119486
119397
119355
119370
119455
119608
119831
120068
119866
119693
119551
119443
119384
119388
119470
119636
119890
120184
120012
119837
119686
119570
119504
119502
119583
119755
120019
120342
117615
117614
117615
117615
117616
117617
117617
117617
117616
117615
117696
117696
117696
117697
117699
117701
117704
117705
117706
117707
118004
117994
117987
117984
117985
117991
117999
118009
118019
118027
118291
118264
118243
118233
118234
118245
118266
118293
118322
118346
118641
118591
118555
118535
118533
118550
118584
118633
118689
118738
119002
118928
118871
118838
118830
118852
118902
118976
119067
119152
119244
119143
119065
119015
118998
119019
119081
119180
119308
119439
119587
119466
119369
119303
119276
119294
119365
119483
119647
119817
119648
119509
119398
119318
119280
119292
119365
119497
119687
119899
119790
119650
119531
119444
119400
119409
119483
119622
119822
120053
117751
117751
117752
117752
117753
117752
117752
117751
117750
117749
117808
117809
117809
117810
117811
117811
117811
117810
117808
117807
118089
118083
118078
118076
118076
118078
118081
118085
118089
118090
118317
118298
118284
118276
118276
118282
118294
118311
118328
118342
118617
118582
118556
118542
118540
118551
118574
118606
118641
118673
118920
118866
118825
118801
118796
118811
118847
118899
118961
119020
119109
119034
118976
118940
118929
118947
118993
119066
119155
119248
119416
119325
119252
119205
119187
119205
119261
119350
119467
119587
119439
119331
119247
119189
119164
119180
119240
119342
119480
119631
119582
119473
119382
119318
119290
119304
119367
119475
119622
119784
117882
117883
117884
117884
117884
117884
117883
117882
117880
117878
117911
117912
117913
117913
117913
117912
117910
117908
117904
117901
118168
118165
118161
118160
118159
118159
118159
118159
118158
118155
118338
118325
118315
118309
118308
118311
118318
118328
118337
118344
118592
118569
118550
118540
118538
118545
118560
118580
118602
118623
118840
118803
118773
118756
118753
118764
118789
118825
118866
118907
118982
118927
118886
118860
118854
118868
118902
118953
119014
119080
119258
119192
119139
119105
119095
119110
119153
119218
119300
119384
119243
119162
119100
119059
119044
119059
119106
119183
119281
119387
119391
119309
119242
119197
119180
119195
119245
119326
119432
119544
118011
118011
118013
118013
118012
118012
118011
118009
118008
118006
118005
118007
118008
118008
118007
118005
118003
117999
117995
117990
118243
118242
118240
118239
118237
118236
118234
118232
118229
118223
118356
118348
118341
118337
118336
118337
118341
118346
118351
118355
118569
118554
118541
118534
118533
118537
118547
118560
118573
118588
118767
118741
118721
118709
118707
118715
118732
118757
118785
118814
118866
118828
118799
118782
118778
118788
118813
118849
118890
118937
119117
119071
119033
119010
119004
119017
119049
119095
119153
119210
119063
119004
118960
118931
118922
118936
118972
119027
119096
119170
119224
119164
119116
119085
119075
119088
119127
119186
119260
119337
118141
118141
118142
118142
118142
118142
118140
118139
118137
118136
118095
118097
118097
118097
118096
118094
118091
118087
118082
118078
118320
118320
118318
118317
118316
118314
118312
118309
118305
118299
118377
118371
118367
118364
118363
118364
118366
118369
118372
118375
118551
118541
118533
118528
118527
118530
118537
118545
118555
118566
118701
118684
118670
118662
118661
118667
118680
118697
118717
118739
118764
118739
118719
118707
118706
118713
118731
118756
118785
118819
118995
118963
118937
118921
118918
118928
118952
118984
119026
119065
118899
118857
118826
118807
118803
118813
118840
118879
118927
118978
119083
119041
119007
118987
118981
118992
119021
119063
119115
119167
118285
118285
118286
118286
118286
118285
118284
118282
118280
118279
118183
118184
118184
118184
118183
118182
118179
118176
118172
118168
118400
118400
118400
118399
118398
118397
118395
118393
118390
118386
118402
118398
118395
118394
118394
118395
118397
118400
118402
118408
118537
118530
118525
118522
118522
118525
118531
118538
118546
118557
118642
118630
118621
118616
118616
118621
118631
118644
118660
118678
118674
118658
118645
118638
118638
118644
118657
118674
118695
118720
118884
118863
118845
118835
118834
118842
118860
118884
118914
118941
118746
118717
118696
118684
118682
118691
118710
118737
118771
118806
118975
118947
118923
118910
118907
118917
118938
118967
119004
119038
118471
118471
118472
118472
118472
118471
118470
118469
118467
118465
118271
118270
118270
118271
118271
118271
118270
118269
118267
118267
118486
118485
118484
118484
118484
118485
118486
118488
118488
118490
118435
118432
118431
118431
118433
118435
118440
118444
118449
118458
118527
118521
118518
118517
118519
118523
118530
118538
118548
118560
118586
118577
118571
118569
118570
118576
118585
118597
118612
118628
118592
118581
118573
118569
118571
118577
118588
118602
118618
118635
118770
118755
118743
118737
118737
118745
118759
118778
118802
118822
118589
118569
118556
118548
118548
118556
118571
118590
118614
118639
118915
118895
118879
118870
118870
118878
118895
118916
118944
118966
118741
118740
118740
118740
118741
118742
118743
118743
118743
118742
118356
118353
118352
118353
118356
118361
118367
118373
118380
118388
118577
118571
118568
118567
118571
118577
118587
118599
118612
118626
118489
118484
118482
118483
118487
118495
118506
118519
118533
118549
118528
118521
118517
118517
118521
118529
118542
118557
118574
118592
118539
118530
118525
118524
118528
118536
118549
118565
118584
118601
118518
118509
118503
118502
118505
118513
118525
118541
118558
118573
118632
118619
118609
118606
118608
118616
118631
118649
118673
118691
118409
118396
118386
118382
118384
118391
118405
118422
118440
118457
118922
118906
118894
118889
118890
118898
118913
118932
118956
118973
119060
119054
119050
119049
119050
119054
119060
119067
119076
119087
118462
118448
118441
118440
118445
118457
118477
118504
118543
118597
118694
118671
118659
118656
118661
118675
118699
118734
118784
118853
118583
118567
118559
118558
118564
118577
118599
118630
118672
118731
118559
118544
118536
118534
118540
118553
118573
118602
118641
118693
118519
118505
118497
118495
118500
118512
118531
118557
118592
118635
118465
118453
118446
118444
118448
118459
118476
118499
118528
118560
118486
118471
118461
118458
118461
118472
118489
118512
118542
118575
118217
118207
118198
118195
118197
118207
118222
118242
118262
118276
118958
118943
118932
118927
118930
118939
118955
118975
118999
119019
127979
129200
129175
128228
130152
131622
131523
130414
132443
134127
134063
132771
134231
136092
136150
134751
135535
137520
137739
136268
136372
138435
138834
137304
136693
138785
139342
137744
136890
138983
139701
138038
136458
138653
139725
138232
135993
138385
139945
138884
119748
119955
120043
120013
121466
121899
122025
121850
123605
124227
124390
124115
125630
126443
126643
126273
127426
128409
128637
128174
128905
130028
130271
129719
129890
131114
131357
130714
130724
132011
132245
131509
130905
132215
132425
131543
131127
132511
132762
131800
118571
118673
118723
118726
119616
119852
119937
119915
121228
121582
121703
121657
122854
123335
123496
123421
124379
124986
125184
125067
125713
126436
126661
126486
126643
127463
127700
127452
127499
128392
128630
128297
127859
128800
129044
128631
128322
129319
129598
129150
117666
117696
117718
117732
118239
118314
118356
118378
119490
119645
119723
119748
120851
121095
121213
121239
122178
122515
122672
122693
123381
123806
123996
123999
124237
124740
124952
124921
125046
125610
125833
125753
125399
126001
126240
126117
125833
126484
126777
126644
117307
117321
117331
117338
117695
117718
117735
117750
118653
118722
118768
118796
119771
119903
119984
120026
120917
121116
121231
121286
121995
122258
122403
122465
122766
123086
123255
123314
123505
123873
124056
124098
123830
124227
124430
124456
124230
124664
124913
124939
117139
117145
117149
117153
117430
117432
117434
117442
118209
118233
118255
118277
119143
119206
119257
119296
120135
120248
120330
120388
121109
121272
121383
121456
121816
122025
122159
122242
122503
122748
122897
122980
122796
123062
123228
123310
123134
123427
123624
123706
117102
117105
117107
117108
117344
117339
117336
117338
118001
118009
118019
118032
118797
118830
118861
118890
119661
119727
119784
119831
120535
120639
120722
120785
121181
121320
121425
121503
121822
121989
122109
122194
122088
122270
122400
122489
122365
122564
122714
122804
117143
117144
117145
117146
117349
117342
117337
117336
117912
117914
117919
117926
118595
118613
118634
118654
119349
119390
119431
119467
120129
120198
120260
120310
120713
120807
120888
120952
121310
121426
121518
121590
121549
121674
121773
121851
121779
121917
122027
122107
117233
117233
117233
117233
117409
117403
117397
117395
117896
117896
117899
117903
118478
118490
118504
118519
119132
119160
119190
119218
119822
119869
119915
119954
120338
120404
120465
120515
120888
120970
121040
121097
121097
121186
121259
121320
121297
121393
121474
121538
117350
117350
117350
117349
117498
117493
117488
117486
117922
117921
117923
117927
118411
118419
118431
118443
118973
118993
119017
119038
119573
119607
119642
119673
120020
120066
120112
120151
120521
120579
120631
120676
120698
120761
120815
120861
120877
120945
121003
121052
117480
117480
117480
117479
117600
117596
117593
117592
117970
117970
117972
117975
118374
118380
118391
118401
118853
118867
118886
118903
119367
119391
119418
119442
119741
119775
119809
119839
120193
120234
120274
120307
120335
120380
120420
120454
120501
120549
120591
120628
117615
117615
117614
117614
117704
117701
117700
117700
118027
118028
118031
118035
118354
118360
118369
118378
118758
118769
118784
118798
119192
119209
119230
119248
119497
119520
119546
119568
119900
119930
119959
119983
120005
120037
120065
120090
120162
120196
120226
120253
117748
117748
117747
117747
117804
117803
117803
117804
118089
118090
118094
118098
118345
118349
118357
118365
118683
118691
118703
118714
119043
119056
119070
119084
119283
119299
119317
119333
119643
119663
119684
119701
119706
119729
119749
119767
119860
119883
119905
119924
117878
117878
117877
117877
117898
117898
117899
117902
118152
118153
118157
118161
118343
118346
118353
118360
118626
118630
118639
118647
118919
118927
118937
118946
119100
119110
119121
119132
119421
119435
119448
119460
119440
119456
119470
119482
119596
119612
119627
119640
118005
118005
118005
118004
117986
117986
117989
117992
118218
118219
118222
118226
118349
118351
118355
118360
118584
118586
118590
118595
118819
118822
118828
118833
118947
118952
118958
118965
119235
119244
119252
119259
119208
119218
119227
119235
119372
119382
119392
119402
118135
118135
118134
118134
118072
118072
118074
118077
118291
118291
118293
118295
118366
118365
118366
118368
118559
118558
118559
118560
118740
118741
118742
118744
118822
118824
118826
118829
119084
119088
119092
119096
119005
119012
119018
119023
119190
119196
119203
119209
118278
118278
118277
118277
118160
118159
118160
118161
118377
118374
118373
118373
118396
118392
118390
118390
118550
118547
118544
118543
118680
118678
118676
118676
118722
118721
118721
118721
118958
118961
118962
118963
118826
118831
118834
118837
119053
119057
119061
119066
118464
118464
118463
118463
118258
118255
118253
118253
118482
118477
118473
118470
118448
118443
118437
118434
118558
118554
118549
118546
118634
118632
118628
118626
118639
118637
118635
118634
118842
118844
118843
118843
118654
118656
118658
118659
118976
118978
118981
118984
118741
118741
118740
118740
118381
118377
118373
118370
118628
118624
118617
118612
118546
118541
118534
118529
118597
118593
118588
118584
118611
118608
118604
118601
118576
118573
118570
118568
118713
118715
118714
118713
118461
118462
118462
118463
118985
118986
118989
118991
119094
119096
119096
119096
118611
118609
118604
118600
118894
118896
118892
118888
118762
118763
118759
118754
118728
118730
118728
118723
118666
118669
118667
118663
118580
118580
118578
118576
118610
118615
118615
118612
118262
118257
118257
118261
119046
119051
119053
119052
123443
121536
120003
118990
118335
117874
117529
117257
117038
116853
124736
122290
120369
119247
118475
117920
117493
117154
116894
116705
125716
123057
120907
119800
118992
118401
117921
117524
117221
117030
126488
123733
121476
120441
119647
119081
118613
118225
117931
117760
126955
124181
121898
121011
120298
119830
119441
119123
118879
118754
127094
124341
122109
121430
120867
120577
120336
120142
119985
119912
126703
123977
121850
121394
121030
120969
120924
120901
120871
120885
126213
123528
121492
121217
121031
121174
121313
121457
121563
121657
125198
122697
120695
120522
120405
120624
120854
121125
121380
121588
125256
122856
120844
120555
120334
120472
120669
120944
121230
121449
119709
119242
118765
118348
117986
117674
117406
117177
116980
116817
121014
120191
119385
118734
118197
117757
117393
117092
116849
116674
122689
121505
120383
119546
118874
118335
117889
117515
117216
117026
124158
122679
121306
120370
119636
119069
118605
118222
117917
117733
125302
123600
122050
121104
120384
119860
119442
119102
118826
118671
126056
124207
122556
121686
121057
120652
120341
120094
119883
119765
126231
124281
122589
121846
121362
121131
120975
120862
120748
120696
126239
124208
122497
121877
121536
121473
121468
121490
121486
121494
125847
123678
121969
121431
121160
121172
121249
121374
121488
121576
126226
123838
122098
121474
121128
121092
121155
121294
121442
121544
118644
118441
118189
117935
117694
117475
117279
117106
116955
116827
119680
119257
118766
118320
117934
117602
117319
117078
116880
116736
121244
120568
119824
119194
118668
118226
117851
117531
117273
117106
122783
121854
120884
120121
119505
119005
118589
118242
117962
117788
124146
122974
121818
120984
120336
119835
119431
119101
118829
118667
125222
123835
122546
121713
121103
120669
120331
120060
119828
119685
125788
124202
122823
122048
121530
121215
120988
120814
120650
120553
126191
124407
122962
122258
121843
121655
121546
121476
121395
121341
126146
124141
122662
122007
121647
121525
121486
121502
121515
121522
126554
124318
122788
122059
121645
121497
121460
121494
121543
121566
117737
117686
117597
117486
117366
117244
117126
117017
116916
116829
118367
118234
118040
117827
117613
117409
117221
117052
116909
116801
119682
119418
119068
118714
118377
118068
117789
117541
117337
117202
121099
120692
120182
119702
119267
118884
118551
118262
118024
117868
122449
121895
121236
120661
120167
119751
119401
119105
118855
118695
123614
122915
122135
121517
121017
120622
120301
120033
119799
119642
124348
123503
122627
122011
121552
121224
120971
120764
120571
120444
124950
123943
122982
122385
121984
121741
121568
121435
121302
121201
125110
123920
122893
122303
121930
121732
121615
121549
121488
121432
125563
124151
123035
122374
121962
121753
121644
121597
121568
121527
117342
117322
117284
117230
117168
117101
117033
116967
116904
116849
117760
117715
117630
117522
117403
117280
117162
117051
116954
116881
118802
118700
118535
118339
118133
117929
117735
117556
117405
117305
120019
119847
119588
119303
119016
118745
118496
118272
118081
117952
121257
121005
120651
120284
119936
119619
119338
119090
118873
118727
122397
122065
121626
121207
120830
120505
120225
119979
119760
119604
123182
122763
122251
121808
121439
121142
120894
120679
120479
120336
123869
123346
122760
122308
121963
121711
121511
121343
121180
121052
124135
123485
122830
122357
122018
121793
121633
121514
121403
121305
124566
123737
122989
122457
122089
121859
121708
121606
121521
121434
117155
117148
117131
117106
117075
117040
117002
116965
116929
116897
117453
117440
117404
117351
117287
117218
117148
117079
117018
116973
118299
118265
118188
118083
117961
117833
117705
117583
117478
117409
119329
119267
119141
118979
118800
118618
118442
118277
118132
118030
120427
120328
120147
119927
119696
119469
119255
119057
118879
118753
121494
121354
121122
120857
120591
120341
120111
119899
119705
119559
122269
122085
121805
121511
121233
120985
120762
120559
120366
120222
122977
122734
122404
122088
121813
121582
121382
121203
121030
120888
123280
122961
122571
122225
121943
121725
121550
121405
121266
121143
123649
123210
122748
122356
122052
121830
121662
121529
121409
121292
117109
117106
117098
117086
117070
117052
117032
117012
116991
116974
117343
117338
117321
117294
117260
117222
117181
117141
117105
117079
118048
118035
117997
117939
117868
117790
117708
117627
117558
117514
118921
118899
118838
118746
118637
118519
118399
118281
118175
118099
119877
119844
119754
119625
119476
119318
119162
119010
118869
118766
120843
120795
120678
120516
120335
120150
119969
119795
119631
119503
121569
121503
121359
121171
120971
120775
120586
120406
120232
120095
122257
122164
121989
121780
121571
121375
121192
121020
120852
120709
122556
122422
122203
121965
121746
121554
121384
121232
121083
120950
122862
122660
122394
122123
121886
121689
121522
121377
121241
121109
117146
117144
117140
117134
117127
117117
117107
117097
117086
117077
117338
117335
117327
117314
117296
117275
117253
117230
117209
117197
117937
117931
117911
117879
117838
117791
117740
117689
117645
117618
118678
118672
118641
118590
118524
118449
118369
118288
118213
118158
119506
119499
119455
119380
119286
119179
119067
118954
118847
118767
120363
120355
120298
120201
120081
119948
119811
119673
119540
119432
121019
121008
120938
120821
120681
120531
120378
120226
120077
119955
121665
121646
121559
121424
121272
121114
120957
120803
120650
120516
121938
121898
121783
121628
121465
121306
121154
121009
120864
120731
122195
122123
121980
121803
121627
121462
121309
121166
121028
120894
117233
117232
117230
117227
117224
117219
117214
117209
117203
117199
117395
117394
117389
117382
117373
117362
117350
117337
117327
117322
117910
117906
117895
117878
117854
117826
117795
117762
117736
117722
118536
118535
118520
118492
118452
118405
118353
118298
118247
118208
119248
119250
119229
119186
119126
119055
118977
118896
118816
118756
119997
120004
119978
119920
119840
119747
119646
119541
119437
119349
120573
120583
120551
120479
120382
120271
120152
120030
119907
119804
121164
121177
121136
121052
120943
120821
120693
120562
120431
120311
121400
121405
121349
121251
121134
121008
120879
120750
120618
120495
121622
121615
121545
121434
121306
121174
121042
120912
120783
120656
117349
117348
117347
117346
117344
117342
117340
117338
117335
117334
117486
117484
117482
117478
117474
117468
117462
117455
117450
117449
117931
117929
117922
117912
117899
117882
117863
117843
117828
117822
118456
118457
118449
118433
118410
118381
118348
118311
118276
118250
119062
119066
119057
119032
118994
118948
118894
118836
118779
118735
119707
119717
119706
119671
119620
119555
119482
119404
119325
119257
120198
120214
120201
120156
120091
120011
119921
119826
119728
119644
120731
120752
120736
120683
120608
120517
120417
120311
120202
120100
120925
120947
120923
120862
120780
120684
120579
120470
120356
120248
121123
121143
121113
121046
120956
120854
120745
120633
120518
120405
117479
117478
117478
117477
117477
117476
117475
117474
117473
117474
117591
117590
117589
117587
117584
117582
117578
117575
117573
117574
117978
117976
117973
117967
117959
117950
117939
117926
117918
117917
118411
118412
118409
118401
118387
118370
118348
118324
118301
118284
118922
118927
118923
118909
118886
118855
118819
118779
118739
118707
119468
119479
119475
119454
119421
119377
119326
119269
119211
119159
119876
119891
119887
119860
119817
119760
119694
119622
119547
119481
120350
120372
120367
120335
120283
120217
120142
120058
119972
119888
120503
120527
120520
120483
120426
120354
120272
120183
120089
119999
120683
120711
120701
120661
120599
120522
120436
120344
120248
120152
117613
117613
117613
117612
117612
117612
117612
117612
117612
117613
117700
117699
117698
117697
117696
117695
117693
117692
117692
117694
118037
118036
118034
118031
118027
118022
118015
118008
118004
118006
118387
118388
118388
118383
118376
118365
118352
118336
118322
118310
118813
118818
118817
118809
118795
118775
118752
118724
118697
118675
119269
119278
119278
119266
119245
119215
119180
119140
119098
119059
119597
119610
119610
119594
119565
119526
119479
119426
119370
119320
120016
120035
120035
120016
119981
119934
119878
119816
119749
119683
120127
120148
120147
120125
120086
120033
119971
119902
119826
119755
120294
120321
120321
120297
120254
120198
120132
120059
119982
119904
117746
117746
117746
117746
117746
117746
117747
117747
117747
117749
117805
117804
117804
117803
117803
117803
117803
117802
117803
117805
118100
118099
118099
118097
118096
118093
118090
118086
118085
118088
118373
118375
118376
118375
118371
118365
118357
118347
118338
118330
118726
118731
118732
118728
118719
118707
118692
118674
118656
118641
119100
119108
119110
119103
119090
119071
119047
119019
118990
118962
119356
119366
119369
119359
119340
119314
119281
119243
119202
119166
119725
119741
119743
119732
119708
119676
119636
119590
119540
119490
119793
119809
119811
119797
119771
119733
119687
119635
119577
119521
119954
119976
119979
119965
119936
119896
119847
119791
119732
119671
117876
117876
117876
117876
117876
117877
117877
117878
117878
117880
117903
117902
117902
117903
117903
117904
117904
117904
117906
117908
118164
118164
118164
118164
118164
118163
118162
118160
118161
118166
118367
118369
118371
118371
118370
118367
118362
118357
118351
118347
118657
118661
118663
118662
118657
118650
118641
118629
118618
118609
118958
118966
118968
118965
118957
118945
118929
118910
118891
118871
119150
119158
119161