/*--------------------------------*- C++ -*----------------------------------*\
| =========                 |                                                 |
| \\      /  F ield         | foam-extend: Open Source CFD                    |
|  \\    /   O peration     | Version:     4.0                                |
|   \\  /    A nd           | Web:         http://www.foam-extend.org         |
|    \\/     M anipulation  |                                                 |
\*---------------------------------------------------------------------------*/
FoamFile
{
    version     2.0;
    format      ascii;
    class       surfaceScalarField;
    location    "200";
    object      phi;
}
// * * * * * * * * * * * * * * * * * * * * * * * * * * * * * * * * * * * * * //

dimensions      [1 0 -1 0 0 0 0];

internalField   nonuniform List<scalar> 
97302
(
-0.00011281
-4.82098e-07
-0.000809919
0.000819032
-0.000121285
-2.71609e-07
-0.000813956
0.000822702
-0.000130187
-1.11244e-07
-0.000816166
0.000825179
-0.000140089
-3.10093e-08
-0.000817507
0.000827441
-0.000151825
-3.52669e-08
-0.000818237
0.000830009
-0.00016689
-1.43328e-07
-0.000818288
0.000833496
-0.000188231
-3.9684e-07
-0.000816969
0.000838707
-0.000222359
-8.14792e-07
-0.000811708
0.000846591
-0.000268898
-1.45405e-06
-0.000799433
0.000847139
-3.40973e-06
-0.000763862
-0.000347391
0.000845766
-0.000155733
-2.40437e-06
-0.00105692
0.00106805
-0.000164611
-1.93025e-06
-0.00106658
0.00107712
-0.000173751
-1.48288e-06
-0.0010724
0.00108292
-0.000183629
-1.21338e-06
-0.00107527
0.00108633
-0.000194998
-1.15274e-06
-0.00107577
0.00108825
-0.000209455
-1.3337e-06
-0.00107375
0.0010894
-0.000230302
-1.86428e-06
-0.00106716
0.00108948
-0.000266391
-2.78667e-06
-0.00105138
0.00108941
-0.000318496
-4.25249e-06
-0.00102241
0.00107701
-7.65706e-06
-0.000966632
-0.000420938
0.00107332
-0.000196367
-4.82999e-06
-0.00131179
0.00132337
-0.000205141
-4.01313e-06
-0.00132327
0.00133412
-0.000214183
-3.19139e-06
-0.00133081
0.00134156
-0.00022402
-2.63674e-06
-0.0013351
0.00134636
-0.000235634
-2.40941e-06
-0.00133712
0.00134999
-0.000251144
-2.52599e-06
-0.00133756
0.00135426
-0.000274336
-3.1504e-06
-0.00133431
0.00135879
-0.000315697
-4.35614e-06
-0.00132113
0.00136406
-0.00037496
-6.46099e-06
-0.00129207
0.00135331
-1.1287e-05
-0.00122865
-0.000492809
0.00135013
-0.000237046
-7.27939e-06
-0.00157114
0.00158257
-0.000245845
-5.96461e-06
-0.00158465
0.0015954
-0.000255045
-4.68106e-06
-0.00159402
0.00160471
-0.000265149
-3.74503e-06
-0.00160008
0.00161129
-0.000277189
-3.2266e-06
-0.00160395
0.0016168
-0.000293639
-3.10949e-06
-0.00160649
0.00162352
-0.000318985
-3.62633e-06
-0.00160611
0.00163194
-0.000365341
-4.90815e-06
-0.00159668
0.00164359
-0.000431312
-7.45923e-06
-0.00157073
0.00163756
-1.37712e-05
-0.00150113
-0.000561029
0.00163333
-0.000278173
-9.38714e-06
-0.00182898
0.00183999
-0.000287037
-7.5379e-06
-0.00184517
0.00185561
-0.000296404
-5.78048e-06
-0.00185708
0.00186754
-0.000306746
-4.42298e-06
-0.00186567
0.00187669
-0.000319095
-3.549e-06
-0.00187227
0.00188494
-0.000336137
-3.10588e-06
-0.00187768
0.00189471
-0.000363041
-3.36621e-06
-0.00188073
0.00190737
-0.000413464
-4.50592e-06
-0.00187599
0.00192601
-0.00048512
-7.22561e-06
-0.00185534
0.0019267
-1.49803e-05
-0.00177885
-0.000623494
0.00191843
-0.000320251
-1.08891e-05
-0.00207832
0.00208859
-0.000329116
-8.55846e-06
-0.0020985
0.00210837
-0.00033855
-6.4025e-06
-0.00211404
0.00212408
-0.000348971
-4.66968e-06
-0.0021261
0.00213675
-0.00036139
-3.46764e-06
-0.00213632
0.00214865
-0.000378616
-2.70686e-06
-0.00214561
0.00216244
-0.000406406
-2.65655e-06
-0.0021531
0.00218018
-0.000459722
-3.51601e-06
-0.00215401
0.00220634
-0.000535723
-6.07729e-06
-0.00214059
0.00221542
-1.50974e-05
-0.00205568
-0.000679993
0.00220007
-0.000362751
-1.11369e-05
-0.0023193
0.00232803
-0.000371425
-8.61776e-06
-0.00234544
0.00235416
-0.000380735
-6.28165e-06
-0.0023663
0.00237548
-0.00039101
-4.34316e-06
-0.00238311
0.00239305
-0.000403246
-2.94369e-06
-0.00239794
0.00240965
-0.00042027
-2.00769e-06
-0.00241209
0.00242842
-0.000448335
-1.70925e-06
-0.0024251
0.00245222
-0.000503419
-2.23299e-06
-0.00243291
0.00248671
-0.000582452
-4.28427e-06
-0.00242844
0.00250568
-1.42143e-05
-0.00233322
-0.000730035
0.00247992
-0.000406598
-9.62648e-06
-0.00255296
0.00255974
-0.000415198
-7.48361e-06
-0.00258712
0.0025946
-0.000424473
-5.49918e-06
-0.00261464
0.00262313
-0.000434682
-3.80533e-06
-0.00263731
0.00264698
-0.000446739
-2.56121e-06
-0.00265732
0.00266899
-0.00046332
-1.79717e-06
-0.00267672
0.00269309
-0.000490956
-1.5568e-06
-0.00269577
0.00272326
-0.000546326
-1.95302e-06
-0.00271149
0.00276658
-0.000626689
-3.09202e-06
-0.00271837
0.00279754
-1.28172e-05
-0.00261363
-0.000775424
0.00276097
-0.00044942
-5.75855e-06
-0.00277477
0.00277764
-0.000457114
-4.61006e-06
-0.00281815
0.00282299
-0.000465782
-3.69025e-06
-0.0028545
0.00286137
-0.000475694
-3.10421e-06
-0.00288635
0.00289556
-0.000487815
-2.86122e-06
-0.00291512
0.00292754
-0.000504624
-2.99764e-06
-0.0029432
0.00296121
-0.000532683
-3.39008e-06
-0.00297198
0.00300187
-0.000588539
-3.91411e-06
-0.00300082
0.00305864
-0.00066948
-3.86221e-06
-0.00302202
0.00310373
-1.08218e-05
-0.00290504
-0.000818591
0.00305216
-0.000494377
-0.00299975
0.00300083
-0.000502473
-0.00304629
0.0030498
-0.000511513
-0.00308613
0.00309149
-0.000521775
-0.00312003
0.0031272
-0.000534178
-0.00314888
0.00315842
-0.000551041
-0.00317522
0.00318909
-0.000578586
-0.0032012
0.00322536
-0.000632595
-0.00323135
0.00328145
-0.000708798
-0.00326688
0.00333923
-0.00317054
-0.000856651
0.00330758
1.82863e-05
-7.49947e-07
-0.000801385
1.04359e-05
-5.45345e-07
-0.00080556
2.18558e-06
-3.73711e-07
-0.000807542
-6.67635e-06
-2.92023e-07
-0.000808353
-1.6394e-05
-3.13075e-07
-0.000808207
-2.73035e-05
-4.72827e-07
-0.000806906
-3.96901e-05
-8.31779e-07
-0.00080375
-5.29612e-05
-1.45994e-06
-0.000796977
-6.61758e-05
-2.51778e-06
-0.000783701
-3.50894e-06
-0.000757839
-6.87477e-05
1.99275e-05
-2.86718e-06
-0.001046
1.12971e-05
-2.43538e-06
-0.00105606
2.32573e-06
-1.96426e-06
-0.00106184
-7.25593e-06
-1.65615e-06
-0.00106432
-1.76823e-05
-1.56904e-06
-0.00106408
-2.94535e-05
-1.77446e-06
-0.00106068
-4.33491e-05
-2.41031e-06
-0.00105169
-5.99727e-05
-3.56291e-06
-0.00103265
-8.09219e-05
-5.55991e-06
-0.00099847
-7.59081e-06
-0.000948593
-9.4931e-05
2.39057e-05
-5.4538e-06
-0.00130006
1.50583e-05
-4.68882e-06
-0.00131217
5.87525e-06
-3.81175e-06
-0.00131978
-3.99858e-06
-3.16104e-06
-0.00132372
-1.50428e-05
-2.84388e-06
-0.0013248
-2.83681e-05
-2.95109e-06
-0.00132306
-4.56836e-05
-3.69238e-06
-0.00131571
-6.90595e-05
-5.16071e-06
-0.00129616
-0.000103237
-7.92657e-06
-0.00125558
-1.09715e-05
-0.00119229
-0.000136261
2.87699e-05
-8.10251e-06
-0.0015593
1.96629e-05
-6.80333e-06
-0.00157343
1.00284e-05
-5.41683e-06
-0.00158278
-5.277e-07
-4.32867e-06
-0.00158835
-1.25716e-05
-3.66088e-06
-0.00159109
-2.74986e-05
-3.49994e-06
-0.00159101
-4.79263e-05
-4.15228e-06
-0.00158523
-7.78057e-05
-5.74083e-06
-0.00156622
-0.000125904
-9.07846e-06
-0.00152151
-1.31734e-05
-0.00144525
-0.000179592
3.41221e-05
-1.03827e-05
-0.00181738
2.47036e-05
-8.50643e-06
-0.00183405
1.4555e-05
-6.60654e-06
-0.00184575
3.26121e-06
-5.05077e-06
-0.00185366
-9.80108e-06
-3.97559e-06
-0.0018589
-2.61468e-05
-3.45072e-06
-0.00186138
-4.91523e-05
-3.86488e-06
-0.00185801
-8.47552e-05
-5.35928e-06
-0.00184077
-0.000146395
-8.9474e-06
-0.00179383
-1.40226e-05
-0.00170402
-0.000220379
3.93498e-05
-1.19775e-05
-0.0020674
2.96875e-05
-9.57368e-06
-0.00208777
1.90873e-05
-7.24495e-06
-0.00210281
7.16609e-06
-5.28063e-06
-0.00211395
-6.74853e-06
-3.84071e-06
-0.00212254
-2.42457e-05
-2.95644e-06
-0.00212861
-4.93259e-05
-3.05398e-06
-0.00212883
-8.97407e-05
-4.30266e-06
-0.00211465
-0.000164016
-7.74861e-06
-0.00206751
-1.36855e-05
-0.00196325
-0.000256786
4.40074e-05
-1.22415e-05
-0.00231001
3.4354e-05
-9.61293e-06
-0.00233575
2.35168e-05
-7.10014e-06
-0.00235561
1.12292e-05
-4.93352e-06
-0.00237117
-3.24378e-06
-3.28254e-06
-0.00238402
-2.15153e-05
-2.17867e-06
-0.0023946
-4.81139e-05
-1.99758e-06
-0.00239956
-9.24185e-05
-2.94968e-06
-0.00238996
-0.000178034
-5.83966e-06
-0.00234474
-1.25969e-05
-0.00222504
-0.000287297
4.71669e-05
-1.04809e-05
-0.00254619
3.76641e-05
-8.20414e-06
-0.00257903
2.67685e-05
-6.04533e-06
-0.0026048
1.43109e-05
-4.14411e-06
-0.00262565
-4.42478e-07
-2.66047e-06
-0.00264319
-1.90693e-05
-1.67461e-06
-0.0026586
-4.64383e-05
-1.41626e-06
-0.00266899
-9.32501e-05
-2.17681e-06
-0.00266545
-0.000188351
-4.03929e-06
-0.00262507
-1.14308e-05
-0.00249096
-0.000312196
4.87253e-05
-6.12241e-06
-0.00277281
4.0616e-05
-4.88485e-06
-0.00281335
3.06188e-05
-3.81557e-06
-0.00284672
1.86858e-05
-3.05883e-06
-0.0028755
3.98553e-06
-2.60986e-06
-0.00290047
-1.51348e-05
-2.52194e-06
-0.00292323
-4.37765e-05
-2.80619e-06
-0.00294195
-9.33404e-05
-3.63741e-06
-0.0029498
-0.000196536
-4.23853e-06
-0.00291863
-9.67903e-06
-0.00276703
-0.000336301
4.71422e-05
-0.00300024
3.93391e-05
-0.00304336
2.96251e-05
-0.00308022
1.79603e-05
-0.00311142
3.64625e-06
-0.00313717
-1.49689e-05
-0.00315913
-4.28402e-05
-0.00317614
-9.2038e-05
-0.00318579
-0.000198233
-0.00316493
-0.00301718
-0.000361279
1.4748e-05
-1.0391e-06
-0.00079421
8.15754e-06
-8.38422e-07
-0.000798131
1.10622e-06
-6.61855e-07
-0.000799829
-6.35754e-06
-5.87158e-07
-0.000800302
-1.416e-05
-6.32813e-07
-0.000799771
-2.21279e-05
-8.37346e-07
-0.000798101
-2.97666e-05
-1.25316e-06
-0.000794859
-3.57669e-05
-1.92638e-06
-0.00078905
-3.81475e-05
-2.92199e-06
-0.000778411
-3.67673e-06
-0.000758766
-3.35759e-05
1.73299e-05
-3.25919e-06
-0.0010362
9.53433e-06
-2.86106e-06
-0.00104624
1.2768e-06
-2.3973e-06
-0.00105185
-7.53261e-06
-2.10034e-06
-0.001054
-1.68887e-05
-2.04226e-06
-0.00105332
-2.67065e-05
-2.31118e-06
-0.00104939
-3.65647e-05
-3.03815e-06
-0.00104005
-4.52206e-05
-4.28277e-06
-0.00102164
-5.04179e-05
-6.19863e-06
-0.000990023
-7.70286e-06
-0.000946402
-4.86061e-05
2.20771e-05
-5.87895e-06
-0.00128918
1.36837e-05
-5.1512e-06
-0.00130148
4.74982e-06
-4.27932e-06
-0.00130896
-4.92932e-06
-3.62968e-06
-0.00131251
-1.55617e-05
-3.32494e-06
-0.00131289
-2.75558e-05
-3.49704e-06
-0.00130988
-4.11312e-05
-4.36956e-06
-0.0013008
-5.55016e-05
-6.02786e-06
-0.00128004
-6.85789e-05
-8.86455e-06
-0.00123986
-1.13214e-05
-0.00118269
-7.45582e-05
2.73762e-05
-8.55732e-06
-0.00154802
1.84525e-05
-7.25789e-06
-0.0015624
8.77274e-06
-5.85696e-06
-0.00157152
-1.95067e-06
-4.75847e-06
-0.0015765
-1.40648e-05
-4.09103e-06
-0.00157821
-2.82828e-05
-4.00009e-06
-0.00157629
-4.55263e-05
-4.82925e-06
-0.00156752
-6.60392e-05
-6.7283e-06
-0.00154501
-8.89952e-05
-1.04041e-05
-0.00149703
-1.39752e-05
-0.00142582
-0.000105767
3.30553e-05
-1.08216e-05
-0.00180616
2.36419e-05
-8.90938e-06
-0.00182299
1.32679e-05
-6.97918e-06
-0.00183425
1.55321e-06
-5.40476e-06
-0.0018413
-1.19695e-05
-4.3181e-06
-0.00184515
-2.82107e-05
-3.85931e-06
-0.00184528
-4.87447e-05
-4.48569e-06
-0.00183782
-7.51517e-05
-6.41134e-06
-0.00181468
-0.000108944
-1.06647e-05
-0.00175978
-1.53389e-05
-0.00167334
-0.000138263
3.85688e-05
-1.23455e-05
-0.00205675
2.8789e-05
-9.87831e-06
-0.00207702
1.78433e-05
-7.5094e-06
-0.00209133
5.32018e-06
-5.52032e-06
-0.00210131
-9.35874e-06
-4.06086e-06
-0.00210811
-2.73099e-05
-3.23031e-06
-0.00211129
-5.07277e-05
-3.54988e-06
-0.00210635
-8.256e-05
-5.30902e-06
-0.00208392
-0.000127553
-9.72862e-06
-0.00202345
-1.54272e-05
-0.00192056
-0.000170154
4.34076e-05
-1.25068e-05
-0.00230088
3.35589e-05
-9.79594e-06
-0.00232599
2.2322e-05
-7.2423e-06
-0.00234464
9.34289e-06
-5.05487e-06
-0.00235866
-6.07689e-06
-3.37612e-06
-0.00236929
-2.52448e-05
-2.28355e-06
-0.00237638
-5.09782e-05
-2.28109e-06
-0.00237509
-8.75795e-05
-3.76164e-06
-0.0023549
-0.00014354
-7.87577e-06
-0.00229063
-1.47315e-05
-0.00217023
-0.000199051
4.66583e-05
-1.05787e-05
-0.00253957
3.69151e-05
-8.20854e-06
-0.00257087
2.56232e-05
-5.99537e-06
-0.00259476
1.24797e-05
-4.0596e-06
-0.0026135
-3.26504e-06
-2.54077e-06
-0.00262828
-2.30783e-05
-1.5195e-06
-0.00263955
-5.03253e-05
-1.33446e-06
-0.00264269
-9.05401e-05
-2.4799e-06
-0.00262652
-0.000156492
-5.54033e-06
-0.00256146
-1.37314e-05
-0.00242395
-0.000224499
4.81396e-05
-6.01065e-06
-0.00277071
3.96084e-05
-4.73006e-06
-0.00280829
2.91431e-05
-3.58516e-06
-0.00283867
1.65479e-05
-2.73474e-06
-0.00286423
9.96027e-07
-2.1728e-06
-0.00288529
-1.92197e-05
-1.94451e-06
-0.00290259
-4.81197e-05
-2.11261e-06
-0.00291227
-9.21966e-05
-3.02085e-06
-0.00290518
-0.000166972
-4.51505e-06
-0.00284488
-1.13759e-05
-0.00268717
-0.000249188
4.66151e-05
-0.00300034
3.84844e-05
-0.00303995
2.84063e-05
-0.00307372
1.61814e-05
-0.00310193
1.12796e-06
-0.00312429
-1.84339e-05
-0.00314151
-4.6549e-05
-0.00315013
-9.11111e-05
-0.00314425
-0.000169457
-0.0030911
-0.00292909
-0.000268926
1.11923e-05
-1.36552e-06
-0.000788419
6.10113e-06
-1.18311e-06
-0.000791857
5.34453e-07
-1.01225e-06
-0.00079325
-5.27678e-06
-9.49807e-07
-0.000793541
-1.10666e-05
-1.0164e-06
-0.000792965
-1.64436e-05
-1.24727e-06
-0.000791476
-2.07528e-05
-1.67915e-06
-0.00078887
-2.28563e-05
-2.32698e-06
-0.00078462
-2.09135e-05
-3.15749e-06
-0.0007772
-3.65338e-06
-0.000762582
-1.34616e-05
1.41834e-05
-3.66856e-06
-0.00102782
7.59681e-06
-3.31559e-06
-0.00103752
4.77733e-07
-2.87343e-06
-0.00104287
-7.0771e-06
-2.6031e-06
-0.00104479
-1.48735e-05
-2.58266e-06
-0.00104396
-2.25159e-05
-2.89935e-06
-0.00104009
-2.91055e-05
-3.66054e-06
-0.00103147
-3.29771e-05
-4.88201e-06
-0.00101521
-3.12936e-05
-6.53072e-06
-0.000988341
-7.45887e-06
-0.000951352
-2.2558e-05
1.95216e-05
-6.26634e-06
-0.00127954
1.19773e-05
-5.57892e-06
-0.00129167
3.752e-06
-4.73518e-06
-0.00129887
-5.18547e-06
-4.1284e-06
-0.00130205
-1.48173e-05
-3.88236e-06
-0.00130196
-2.50461e-05
-4.13101e-06
-0.00129842
-3.52168e-05
-5.07981e-06
-0.00128921
-4.34477e-05
-6.78001e-06
-0.00126991
-4.55016e-05
-9.37248e-06
-0.00123498
-1.11275e-05
-0.0011869
-3.7647e-05
2.5209e-05
-8.89222e-06
-0.00153776
1.68324e-05
-7.59591e-06
-0.00155201
7.52065e-06
-6.21523e-06
-0.00156073
-2.85313e-06
-5.17235e-06
-0.00156508
-1.44196e-05
-4.5894e-06
-0.00156593
-2.73375e-05
-4.6172e-06
-0.00156289
-4.13306e-05
-5.58469e-06
-0.00155303
-5.47687e-05
-7.63423e-06
-0.00153072
-6.26812e-05
-1.12266e-05
-0.00148728
-1.41463e-05
-0.00142714
-5.83568e-05
3.11963e-05
-1.10558e-05
-0.00179577
2.20989e-05
-9.1176e-06
-0.00181237
1.18483e-05
-7.20182e-06
-0.00182301
1.90132e-07
-5.69198e-06
-0.00182912
-1.31703e-05
-4.70714e-06
-0.00183167
-2.86237e-05
-4.40129e-06
-0.00183004
-4.63116e-05
-5.22862e-06
-0.00182049
-6.51652e-05
-7.43437e-06
-0.00179602
-8.04236e-05
-1.18747e-05
-0.00174388
-1.60685e-05
-0.00166985
-8.19914e-05
3.69715e-05
-1.24246e-05
-0.0020468
2.7328e-05
-9.91715e-06
-0.00206658
1.63247e-05
-7.56209e-06
-0.00207997
3.62672e-06
-5.64057e-06
-0.00208866
-1.12144e-05
-4.28797e-06
-0.00209369
-2.88813e-05
-3.62656e-06
-0.00209439
-5.0015e-05
-4.19152e-06
-0.00208625
-7.42491e-05
-6.34076e-06
-0.00206078
-9.79695e-05
-1.12618e-05
-0.00200035
-1.671e-05
-0.00191064
-0.000107247
4.19704e-05
-1.24124e-05
-0.0022923
3.21243e-05
-9.65916e-06
-0.0023164
2.07176e-05
-7.12561e-06
-0.00233367
7.41678e-06
-5.01032e-06
-0.00234599
-8.38552e-06
-3.43713e-06
-0.00235434
-2.76883e-05
-2.49843e-06
-0.0023582
-5.1748e-05
-2.7335e-06
-0.00235249
-8.10311e-05
-4.64623e-06
-0.00232731
-0.00011381
-9.55225e-06
-0.00225956
-1.64586e-05
-0.00215269
-0.000131599
4.53208e-05
-1.03305e-05
-0.00253332
3.54943e-05
-7.91673e-06
-0.00256279
2.39801e-05
-5.71012e-06
-0.00258466
1.04493e-05
-3.81558e-06
-0.00260116
-5.78155e-06
-2.3659e-06
-0.00261312
-2.60032e-05
-1.44019e-06
-0.00262039
-5.21533e-05
-1.43146e-06
-0.00261784
-8.56407e-05
-2.94757e-06
-0.00259473
-0.000127444
-6.88638e-06
-0.00252232
-1.55048e-05
-0.00239809
-0.000154259
4.68683e-05
-5.7131e-06
-0.00276848
3.80571e-05
-4.41979e-06
-0.00280297
2.72491e-05
-3.23773e-06
-0.00283033
1.4197e-05
-2.33894e-06
-0.00285265
-1.82577e-06
-1.72433e-06
-0.00286991
-2.23747e-05
-1.44781e-06
-0.00288204
-5.02729e-05
-1.61814e-06
-0.00288418
-8.82805e-05
-2.65459e-06
-0.00286746
-0.00013888
-4.75032e-06
-0.00279642
-1.23379e-05
-0.00265244
-0.000176777
4.54904e-05
-0.00299999
3.71543e-05
-0.00303602
2.68151e-05
-0.00306661
1.42067e-05
-0.00309166
-1.27005e-06
-0.00311054
-2.11313e-05
-0.0031231
-4.82828e-05
-0.0031246
-8.7239e-05
-0.00310795
-0.000141883
-0.0030412
-0.0028899
-0.00019341
8.13053e-06
-1.69386e-06
-0.00078368
4.4137e-06
-1.54507e-06
-0.000786595
2.64075e-07
-1.38893e-06
-0.000787712
-4.02304e-06
-1.33955e-06
-0.000787915
-8.12831e-06
-1.41736e-06
-0.000787443
-1.16479e-05
-1.64939e-06
-0.000786307
-1.40405e-05
-2.05435e-06
-0.000784423
-1.45782e-05
-2.62525e-06
-0.000781457
-1.23482e-05
-3.27468e-06
-0.000776155
-3.54761e-06
-0.000764316
-7.07515e-06
1.10257e-05
-4.05683e-06
-0.00102081
5.74833e-06
-3.763e-06
-0.00103003
-7.68931e-08
-3.35368e-06
-0.00103508
-6.22704e-06
-3.11567e-06
-0.00103687
-1.23805e-05
-3.12778e-06
-0.00103609
-1.80354e-05
-3.46394e-06
-0.00103263
-2.23003e-05
-4.19854e-06
-0.00102507
-2.38451e-05
-5.30552e-06
-0.00101099
-2.08576e-05
-6.61707e-06
-0.000987989
-7.03799e-06
-0.000955518
-1.32161e-05
1.66585e-05
-6.6003e-06
-0.0012713
1.01856e-05
-5.9568e-06
-0.00128301
2.94935e-06
-5.15258e-06
-0.00128984
-4.91006e-06
-4.60394e-06
-0.0012927
-1.31761e-05
-4.43073e-06
-0.00129239
-2.14649e-05
-4.74908e-06
-0.00128885
-2.8826e-05
-5.7204e-06
-0.00128033
-3.33943e-05
-7.34549e-06
-0.0012633
-3.17842e-05
-9.53012e-06
-0.00123368
-1.05466e-05
-0.00119258
-2.26156e-05
2.26045e-05
-9.11512e-06
-0.00152878
1.50399e-05
-7.82604e-06
-0.00154257
6.40525e-06
-6.48369e-06
-0.00155076
-3.22781e-06
-5.52381e-06
-0.00155453
-1.37515e-05
-5.06153e-06
-0.00155478
-2.49248e-05
-5.23056e-06
-0.00155123
-3.58616e-05
-6.30178e-06
-0.00154151
-4.44324e-05
-8.3688e-06
-0.00152112
-4.57513e-05
-1.15994e-05
-0.0014839
-1.37046e-05
-0.00143335
-3.64069e-05
2.88273e-05
-1.11196e-05
-0.00178651
2.03067e-05
-9.16746e-06
-0.00180251
1.04727e-05
-7.29321e-06
-0.00181237
-7.29772e-07
-5.88672e-06
-0.00181755
-1.33642e-05
-5.0583e-06
-0.00181904
-2.73884e-05
-4.95687e-06
-0.00181629
-4.20607e-05
-5.97776e-06
-0.00180614
-5.51879e-05
-8.32887e-06
-0.00178294
-6.08124e-05
-1.25754e-05
-0.00173729
-1.60434e-05
-0.0016754
-5.29359e-05
3.48048e-05
-1.22802e-05
-0.00203783
2.55353e-05
-9.75562e-06
-0.00205672
1.47374e-05
-7.45042e-06
-0.00206901
2.2458e-06
-5.6438e-06
-0.00207641
-1.21739e-05
-4.46327e-06
-0.00207987
-2.8781e-05
-4.04416e-06
-0.0020787
-4.71501e-05
-4.87724e-06
-0.00206898
-6.51789e-05
-7.29661e-06
-0.00204379
-7.64398e-05
-1.22738e-05
-0.00198939
-1.71886e-05
-0.00191411
-7.18297e-05
3.9919e-05
-1.20572e-05
-0.0022845
3.02842e-05
-9.29668e-06
-0.00230723
1.89349e-05
-6.82466e-06
-0.00232295
5.65807e-06
-4.82975e-06
-0.00233352
-9.96402e-06
-3.42787e-06
-0.00233975
-2.85555e-05
-2.73142e-06
-0.00234092
-5.02094e-05
-3.26028e-06
-0.00233245
-7.31184e-05
-5.51014e-06
-0.00230619
-9.10046e-05
-1.07362e-05
-0.00224321
-1.73183e-05
-0.00215268
-9.08876e-05
4.33565e-05
-9.84914e-06
-0.00252759
3.36288e-05
-7.43117e-06
-0.00255493
2.2084e-05
-5.27432e-06
-0.00257467
8.46143e-06
-3.46484e-06
-0.00258891
-7.75338e-06
-2.1363e-06
-0.0025982
-2.75251e-05
-1.38366e-06
-0.00260196
-5.16372e-05
-1.62594e-06
-0.00259536
-7.88802e-05
-3.47577e-06
-0.00256952
-0.000104015
-7.9046e-06
-0.00250001
-1.6321e-05
-0.0023936
-0.000109496
4.4992e-05
-5.29159e-06
-0.00276619
3.60733e-05
-4.00947e-06
-0.00279747
2.50951e-05
-2.82026e-06
-0.00282181
1.18428e-05
-1.90716e-06
-0.00284096
-4.25112e-06
-1.27959e-06
-0.00285467
-2.4383e-05
-1.00781e-06
-0.00286228
-5.01796e-05
-1.24581e-06
-0.00285877
-8.20021e-05
-2.43937e-06
-0.00283668
-0.000115034
-4.88103e-06
-0.00276641
-1.23718e-05
-0.00264277
-0.000128652
4.37714e-05
-0.0029992
3.53696e-05
-0.00303162
2.491e-05
-0.00305897
1.21375e-05
-0.0030808
-3.41937e-06
-0.00309626
-2.29574e-05
-0.00310457
-4.81955e-05
-0.00310061
-8.10244e-05
-0.00307756
-0.000117843
-0.00300927
-0.00287883
-0.000141284
5.73614e-06
-1.99329e-06
-0.000779656
3.13333e-06
-1.88802e-06
-0.000782105
1.68114e-07
-1.75164e-06
-0.000782995
-2.87533e-06
-1.71278e-06
-0.000783158
-5.70234e-06
-1.79056e-06
-0.000782825
-7.97491e-06
-2.00357e-06
-0.000782031
-9.3064e-06
-2.35563e-06
-0.000780736
-9.26415e-06
-2.8271e-06
-0.000778672
-7.42317e-06
-3.31177e-06
-0.000774685
-3.40672e-06
-0.000764486
-3.84797e-06
8.17795e-06
-4.38027e-06
-0.00101501
4.13971e-06
-4.1553e-06
-0.00102372
-4.16678e-07
-3.78532e-06
-0.00102849
-5.21529e-06
-3.5778e-06
-0.0010302
-9.8877e-06
-3.60945e-06
-0.0010296
-1.39348e-05
-3.93656e-06
-0.00102665
-1.66105e-05
-4.60121e-06
-0.00102014
-1.69699e-05
-5.55015e-06
-0.00100791
-1.40019e-05
-6.54875e-06
-0.00098772
-6.59191e-06
-0.000958333
-8.00761e-06
1.38173e-05
-6.832e-06
-0.00126444
8.48563e-06
-6.23795e-06
-0.00127559
2.36272e-06
-5.481e-06
-0.00128202
-4.28228e-06
-4.99269e-06
-0.00128464
-1.10987e-05
-4.88536e-06
-0.00128429
-1.75767e-05
-5.25008e-06
-0.00128106
-2.27717e-05
-6.19597e-06
-0.00127354
-2.51824e-05
-7.6797e-06
-0.00125876
-2.2598e-05
-9.45139e-06
-0.00123337
-9.88282e-06
-0.00119723
-1.46618e-05
1.98357e-05
-9.18158e-06
-0.00152119
1.32331e-05
-7.91197e-06
-0.0015343
5.47816e-06
-6.62361e-06
-0.00154187
-3.16915e-06
-5.7572e-06
-0.00154512
-1.23946e-05
-5.41836e-06
-0.00154502
-2.17058e-05
-5.7169e-06
-0.00154146
-3.00111e-05
-6.84965e-06
-0.00153255
-3.53448e-05
-8.84723e-06
-0.00151462
-3.40752e-05
-1.16327e-05
-0.00148299
-1.29958e-05
-0.00143956
-2.47658e-05
2.61552e-05
-1.0982e-05
-0.00177854
1.83966e-05
-9.04002e-06
-0.00179362
9.21423e-06
-7.23347e-06
-0.00180258
-1.23148e-06
-5.95096e-06
-0.00180691
-1.27636e-05
-5.29384e-06
-0.00180763
-2.5009e-05
-5.39997e-06
-0.00180436
-3.67972e-05
-6.58371e-06
-0.00179462
-4.57523e-05
-8.9787e-06
-0.00177385
-4.67713e-05
-1.28473e-05
-0.00173506
-1.55441e-05
-0.00168274
-3.68922e-05
3.22206e-05
-1.19038e-05
-0.00203003
2.35202e-05
-9.39732e-06
-0.00204766
1.31675e-05
-7.17716e-06
-0.00205872
1.20929e-06
-5.5156e-06
-0.00206489
-1.23375e-05
-4.53345e-06
-0.00206708
-2.73464e-05
-4.37463e-06
-0.00206472
-4.27713e-05
-5.46073e-06
-0.00205468
-5.59464e-05
-8.04553e-06
-0.00203154
-6.04579e-05
-1.27972e-05
-0.00198493
-1.70303e-05
-0.00192184
-5.12548e-05
3.73648e-05
-1.14611e-05
-0.00227767
2.81339e-05
-8.73639e-06
-0.00229866
1.70718e-05
-6.36484e-06
-0.0023127
4.1445e-06
-4.52336e-06
-0.00232159
-1.08195e-05
-3.3234e-06
-0.002326
-2.80337e-05
-2.89781e-06
-0.00232519
-4.68202e-05
-3.72371e-06
-0.0023154
-6.44392e-05
-6.21833e-06
-0.0022904
-7.34781e-05
-1.1413e-05
-0.00223556
-1.7409e-05
-0.00215977
-6.6013e-05
4.08468e-05
-9.17322e-06
-0.00252252
3.13993e-05
-6.79325e-06
-0.00254743
2.00347e-05
-4.72595e-06
-0.00256495
6.6238e-06
-3.03639e-06
-0.00257699
-9.11927e-06
-1.86154e-06
-0.00258392
-2.7733e-05
-1.31401e-06
-0.00258493
-4.91214e-05
-1.81557e-06
-0.00257588
-7.08671e-05
-3.92791e-06
-0.00255007
-8.53443e-05
-8.51364e-06
-0.00248844
-1.62885e-05
-0.0023992
-8.08679e-05
4.25453e-05
-4.77577e-06
-0.00276393
3.37053e-05
-3.52917e-06
-0.0027919
2.27608e-05
-2.36163e-06
-0.00281323
9.59428e-06
-1.46611e-06
-0.00282936
-6.16557e-06
-8.60955e-07
-0.00283991
-2.5267e-05
-6.32905e-07
-0.00284386
-4.82612e-05
-9.65925e-07
-0.00283662
-7.41528e-05
-2.28537e-06
-0.00281243
-9.50957e-05
-4.87307e-06
-0.00274911
-1.16663e-05
-0.00264634
-9.61489e-05
4.14787e-05
-0.00299805
3.31679e-05
-0.00302684
2.27607e-05
-0.00305093
1.00738e-05
-0.00306958
-5.20088e-06
-0.00308185
-2.38602e-05
-0.00308654
-4.65873e-05
-0.00307885
-7.3439e-05
-0.00305299
-9.75125e-05
-0.00299006
-0.00288357
-0.00010443
4.01321e-06
-2.24208e-06
-0.000776076
2.2333e-06
-2.18193e-06
-0.000778143
1.64135e-07
-2.06576e-06
-0.00077886
-1.95605e-06
-2.03324e-06
-0.000779005
-3.88818e-06
-2.10197e-06
-0.000778791
-5.37603e-06
-2.28397e-06
-0.00077826
-6.16049e-06
-2.57314e-06
-0.000777379
-5.98914e-06
-2.94433e-06
-0.000775899
-4.65994e-06
-3.291e-06
-0.000772723
-3.24978e-06
-0.000763621
-2.2756e-06
5.84285e-06
-4.60222e-06
-0.00101022
2.86782e-06
-4.448e-06
-0.00101848
-5.7276e-07
-4.11904e-06
-0.00102299
-4.20388e-06
-3.93642e-06
-0.00102467
-7.66846e-06
-3.97316e-06
-0.00102427
-1.05275e-05
-4.26867e-06
-0.0010218
-1.22047e-05
-4.83862e-06
-0.0010162
-1.20568e-05
-5.61503e-06
-0.00100538
-9.54716e-06
-6.34267e-06
-0.000987178
-6.10533e-06
-0.000959951
-5.07414e-06
1.12609e-05
-6.91425e-06
-0.00125884
7.01291e-06
-6.37474e-06
-0.00126942
1.98725e-06
-5.67105e-06
-0.00127544
-3.47171e-06
-5.2393e-06
-0.00127788
-8.94651e-06
-5.18113e-06
-0.00127761
-1.39069e-05
-5.56181e-06
-0.0012748
-1.75387e-05
-6.44261e-06
-0.0012683
-1.87282e-05
-7.74951e-06
-0.00125544
-1.61495e-05
-9.15312e-06
-0.00123313
-9.15712e-06
-0.00120046
-9.87518e-06
1.7146e-05
-9.04612e-06
-0.00151498
1.15404e-05
-7.81554e-06
-0.00152725
4.75332e-06
-6.59786e-06
-0.00153415
-2.80764e-06
-5.82781e-06
-0.00153697
-1.06834e-05
-5.59718e-06
-0.00153673
-1.82568e-05
-5.99013e-06
-0.00153345
-2.44561e-05
-7.1335e-06
-0.00152566
-2.76776e-05
-9.00269e-06
-0.00151015
-2.55425e-05
-1.13567e-05
-0.00148292
-1.21456e-05
-0.00144449
-1.763e-05
2.3375e-05
-1.06094e-05
-0.00177192
1.64765e-05
-8.71382e-06
-0.00178582
8.1035e-06
-7.00354e-06
-0.0017938
-1.39175e-06
-5.8571e-06
-0.00179739
-1.16321e-05
-5.36342e-06
-0.00179762
-2.20291e-05
-5.64386e-06
-0.00179431
-3.12879e-05
-6.93159e-06
-0.00178556
-3.72593e-05
-9.28503e-06
-0.0017676
-3.62057e-05
-1.27174e-05
-0.00173476
-1.47501e-05
-0.00168941
-2.6945e-05
2.93659e-05
-1.12837e-05
-0.00202347
2.13732e-05
-8.84339e-06
-0.00203954
1.16647e-05
-6.74531e-06
-0.00204926
4.95626e-07
-5.2502e-06
-0.00205433
-1.18819e-05
-4.46936e-06
-0.0020556
-2.50391e-05
-4.54612e-06
-0.00205266
-3.76437e-05
-5.82545e-06
-0.00204318
-4.70789e-05
-8.47041e-06
-0.00202292
-4.80889e-05
-1.28443e-05
-0.0019838
-1.63959e-05
-0.00193005
-3.82367e-05
3.44167e-05
-1.06405e-05
-0.0022719
2.57521e-05
-8.00383e-06
-0.00229084
1.5194e-05
-5.77146e-06
-0.00230312
2.90369e-06
-4.10833e-06
-0.00231044
-1.10401e-05
-3.12102e-06
-0.0023134
-2.6477e-05
-2.95371e-06
-0.00231134
-4.22762e-05
-4.0254e-06
-0.0023014
-5.55522e-05
-6.65203e-06
-0.00227894
-5.95404e-05
-1.15749e-05
-0.00223284
-1.68605e-05
-0.00216901
-4.9836e-05
3.78737e-05
-8.34045e-06
-0.00251816
2.88753e-05
-6.04448e-06
-0.00254039
1.7906e-05
-4.10379e-06
-0.00255565
4.99824e-06
-2.56244e-06
-0.00256563
-9.89086e-06
-1.56151e-06
-0.00257059
-2.68731e-05
-1.22422e-06
-0.00256968
-4.52245e-05
-1.94819e-06
-0.0025596
-6.21822e-05
-4.20649e-06
-0.00253555
-7.01006e-05
-8.66594e-06
-0.00248343
-1.5537e-05
-0.00240891
-6.17113e-05
3.9586e-05
-4.1968e-06
-0.00276178
3.10116e-05
-3.01073e-06
-0.00278636
2.03206e-05
-1.89164e-06
-0.00280475
7.5296e-06
-1.04206e-06
-0.0028181
-7.52208e-06
-4.88355e-07
-0.00282593
-2.51385e-05
-3.29471e-07
-0.00282714
-4.50397e-05
-7.60967e-07
-0.00281791
-6.54844e-05
-2.14287e-06
-0.00279405
-7.83249e-05
-4.69645e-06
-0.00274023
-1.04613e-05
-0.00265633
-7.34045e-05
3.86639e-05
-0.00299662
3.06059e-05
-0.00302179
2.04432e-05
-0.00304266
8.10293e-06
-0.00305828
-6.54129e-06
-0.00306769
-2.38734e-05
-0.00306954
-4.37755e-05
-0.00305971
-6.51395e-05
-0.00303377
-8.04308e-05
-0.00297947
-0.00289594
-7.85217e-05
2.86063e-06
-2.42777e-06
-0.000772764
1.6501e-06
-2.40622e-06
-0.000774526
2.09786e-07
-2.30653e-06
-0.000775113
-1.27302e-06
-2.27576e-06
-0.000775246
-2.61583e-06
-2.33009e-06
-0.000775118
-3.63122e-06
-2.47732e-06
-0.000774767
-4.14625e-06
-2.70585e-06
-0.000774158
-4.00526e-06
-2.98917e-06
-0.000773051
-3.09015e-06
-3.22771e-06
-0.00077041
-3.08853e-06
-0.000762176
-1.44658e-06
4.10481e-06
-4.69976e-06
-0.00100627
1.97672e-06
-4.60801e-06
-0.00101415
-5.64587e-07
-4.31658e-06
-0.00101844
-3.27146e-06
-4.15192e-06
-0.00102009
-5.825e-06
-4.18243e-06
-0.00101986
-7.85934e-06
-4.43375e-06
-0.00101781
-8.93805e-06
-4.90296e-06
-0.00101293
-8.61803e-06
-5.51615e-06
-0.00100318
-6.60162e-06
-6.0227e-06
-0.000986399
-5.58597e-06
-0.000960803
-3.25196e-06
9.16618e-06
-6.81383e-06
-0.00125436
5.85872e-06
-6.32963e-06
-0.00126439
1.80965e-06
-5.68281e-06
-0.00127003
-2.60605e-06
-5.30171e-06
-0.00127231
-6.95572e-06
-5.27468e-06
-0.00127217
-1.07439e-05
-5.64376e-06
-0.0012698
-1.33121e-05
-6.43318e-06
-0.00126421
-1.38557e-05
-7.55187e-06
-0.00125286
-1.15966e-05
-8.64465e-06
-0.00123277
-8.3462e-06
-0.00120254
-6.75938e-06
1.4729e-05
-8.6777e-06
-0.00151005
1.00597e-05
-7.50828e-06
-0.0015214
4.22489e-06
-6.37789e-06
-0.00152762
-2.27114e-06
-5.70351e-06
-0.00153007
-8.89197e-06
-5.5589e-06
-0.00152982
-1.49882e-05
-6.00303e-06
-0.001527
-1.96047e-05
-7.10597e-06
-0.00152037
-2.14919e-05
-8.80526e-06
-0.00150701
-1.91785e-05
-1.07732e-05
-0.00148311
-1.11449e-05
-0.00144813
-1.27492e-05
2.06621e-05
-9.98255e-06
-0.00176657
1.46384e-05
-8.17617e-06
-0.00177913
7.15038e-06
-6.59106e-06
-0.0017861
-1.30658e-06
-5.58718e-06
-0.00178905
-1.02213e-05
-5.2371e-06
-0.00178903
-1.8898e-05
-5.64051e-06
-0.001786
-2.60898e-05
-6.95835e-06
-0.00177852
-2.99855e-05
-9.19118e-06
-0.00176331
-2.80367e-05
-1.21864e-05
-0.00173529
-1.3703e-05
-0.00169489
-2.00116e-05
2.63908e-05
-1.04207e-05
-0.00201812
1.91822e-05
-8.10214e-06
-0.00203241
1.02616e-05
-6.16255e-06
-0.00204077
5.54645e-08
-4.84777e-06
-0.00204486
-1.10029e-05
-4.25605e-06
-0.00204552
-2.22876e-05
-4.51902e-06
-0.00204249
-3.24054e-05
-5.90432e-06
-0.00203412
-3.90332e-05
-8.49752e-06
-0.00201699
-3.82446e-05
-1.24184e-05
-0.00198436
-1.5369e-05
-0.00193756
-2.90861e-05
3.11998e-05
-9.62043e-06
-0.00226717
2.32236e-05
-7.12885e-06
-0.00228383
1.33552e-05
-5.07193e-06
-0.00229434
1.93336e-06
-3.60413e-06
-0.00230026
-1.07507e-05
-2.82531e-06
-0.00230215
-2.4252e-05
-2.87784e-06
-0.00229948
-3.72323e-05
-4.1109e-06
-0.00229022
-4.70249e-05
-6.73922e-06
-0.00227091
-4.81491e-05
-1.1233e-05
-0.0022329
-1.57813e-05
-0.00217841
-3.83371e-05
3.45433e-05
-7.39185e-06
-0.00251451
2.61382e-05
-5.22706e-06
-0.00253389
1.57656e-05