/*--------------------------------*- C++ -*----------------------------------*\
| =========                 |                                                 |
| \\      /  F ield         | foam-extend: Open Source CFD                    |
|  \\    /   O peration     | Version:     4.0                                |
|   \\  /    A nd           | Web:         http://www.foam-extend.org         |
|    \\/     M anipulation  |                                                 |
\*---------------------------------------------------------------------------*/
FoamFile
{
    version     2.0;
    format      ascii;
    class       volScalarField;
    location    "200";
    object      rho;
}
// * * * * * * * * * * * * * * * * * * * * * * * * * * * * * * * * * * * * * //

dimensions      [1 -3 0 0 0 0 0];

internalField   nonuniform List<scalar> 
34480
(
1.42891
1.42754
1.42647
1.4258
1.42573
1.42654
1.42883
1.43396
1.43967
1.43533
1.42551
1.42488
1.42461
1.42446
1.42454
1.42491
1.42593
1.42873
1.43244
1.42079
1.4278
1.42671
1.42653
1.42656
1.42672
1.42693
1.42773
1.42986
1.43351
1.41443
1.43535
1.43372
1.43308
1.43245
1.43177
1.43084
1.43048
1.4312
1.43399
1.40713
1.44577
1.44344
1.44204
1.44035
1.43844
1.43598
1.43398
1.43276
1.43378
1.39899
1.45745
1.45462
1.4524
1.44954
1.44625
1.44211
1.43818
1.4346
1.43286
1.38985
1.46702
1.46385
1.46091
1.45689
1.45226
1.44655
1.44073
1.43474
1.42963
1.3788
1.47435
1.47178
1.46878
1.46429
1.459
1.45245
1.44534
1.43742
1.42882
1.37061
1.47292
1.4722
1.4701
1.46591
1.4606
1.454
1.44651
1.43774
1.42621
1.3624
1.46819
1.4689
1.46803
1.46508
1.46093
1.45566
1.44956
1.44248
1.43163
1.36496
1.42764
1.42637
1.42543
1.42492
1.42498
1.42577
1.42751
1.43048
1.43542
1.4407
1.42442
1.42374
1.42341
1.42327
1.42346
1.42407
1.42522
1.42719
1.43189
1.43596
1.42744
1.42619
1.42573
1.42557
1.42574
1.42627
1.4275
1.42973
1.4365
1.44333
1.43524
1.43337
1.43235
1.43151
1.43088
1.43035
1.43061
1.43202
1.43966
1.44792
1.44565
1.44305
1.44126
1.4394
1.43761
1.43562
1.43434
1.43411
1.44134
1.44928
1.45728
1.45417
1.45156
1.44857
1.44546
1.44181
1.43861
1.43607
1.44153
1.44719
1.46709
1.4636
1.46024
1.4561
1.45163
1.44633
1.44112
1.43602
1.43874
1.44089
1.47529
1.47218
1.46858
1.46382
1.4585
1.45211
1.44536
1.43801
1.43749
1.43539
1.4758
1.47411
1.47103
1.46621
1.46045
1.45351
1.44591
1.43738
1.43385
1.42894
1.47263
1.47196
1.46974
1.46573
1.46065
1.45444
1.44745
1.43969
1.43568
1.43094
1.42684
1.42596
1.42534
1.42512
1.4254
1.4263
1.42792
1.43029
1.43316
1.43535
1.42398
1.42355
1.4234
1.42344
1.42383
1.42466
1.42591
1.42751
1.43019
1.43188
1.42722
1.42622
1.42585
1.42583
1.42627
1.42727
1.42896
1.43136
1.43636
1.4409
1.43472
1.43309
1.43218
1.43157
1.43139
1.43169
1.43292
1.4352
1.44186
1.44893
1.44446
1.44213
1.44052
1.43904
1.43792
1.43712
1.43733
1.43871
1.44605
1.45471
1.45528
1.45246
1.45012
1.44766
1.44543
1.44327
1.44203
1.4418
1.44861
1.45742
1.46443
1.46123
1.45822
1.45473
1.45129
1.44766
1.44476
1.44255
1.44785
1.45573
1.47256
1.4696
1.4663
1.46218
1.45788
1.45315
1.44886
1.44479
1.44791
1.45414
1.47414
1.47217
1.46912
1.46477
1.45987
1.45435
1.44906
1.44403
1.44493
1.45066
1.47191
1.47068
1.46821
1.46438
1.45984
1.45463
1.44946
1.44476
1.44501
1.45211
1.42628
1.42577
1.42541
1.42532
1.4256
1.4263
1.42741
1.42882
1.43012
1.43009
1.42392
1.42382
1.42383
1.42397
1.42436
1.42507
1.42599
1.4268
1.42742
1.42663
1.4275
1.4268
1.42655
1.42657
1.42701
1.428
1.42959
1.43147
1.43432
1.43595
1.43479
1.43344
1.43264
1.43215
1.43212
1.43271
1.4342
1.43648
1.44136
1.44559
1.44393
1.44187
1.44041
1.43918
1.43841
1.43821
1.43914
1.44117
1.4475
1.45395
1.45394
1.45138
1.44926
1.44719
1.44548
1.44422
1.44416
1.44529
1.45211
1.45989
1.46236
1.4594
1.45667
1.45368
1.45094
1.44842
1.44707
1.44685
1.45329
1.46166
1.47018
1.46734
1.46427
1.4607
1.45715
1.45361
1.45105
1.44945
1.45478
1.46321
1.4723
1.47012
1.46714
1.46326
1.45912
1.45476
1.4512
1.4488
1.45279
1.46229
1.47072
1.46906
1.46644
1.46286
1.45889
1.45464
1.45096
1.44858
1.45194
1.46383
1.42608
1.42587
1.42568
1.42566
1.42588
1.42635
1.42704
1.42783
1.42832
1.4275
1.42423
1.42443
1.4246
1.42479
1.42513
1.42564
1.42616
1.42632
1.42577
1.42381
1.42809
1.42772
1.4276
1.42767
1.42806
1.42889
1.43012
1.43134
1.43249
1.43232
1.43514
1.43411
1.43346
1.43309
1.43315
1.4338
1.43517
1.43702
1.43995
1.44185
1.44367
1.44193
1.44067
1.43967
1.43917
1.43931
1.44047
1.44251
1.447
1.45091
1.45288
1.45062
1.44874
1.44703
1.44578
1.44514
1.44571
1.4474
1.45291
1.45834
1.46052
1.45783
1.45539
1.4529
1.45077
1.44913
1.44877
1.4497
1.45555
1.46207
1.46789
1.46521
1.46242
1.45937
1.45653
1.454
1.45269
1.45271
1.45828
1.46555
1.47026
1.46797
1.46514
1.46176
1.45836
1.4551
1.45293
1.45235
1.45732
1.46619
1.46912
1.46716
1.46454
1.46131
1.45794
1.45464
1.45227
1.4516
1.45609
1.46761
1.42622
1.4262
1.42614
1.42614
1.42629
1.42658
1.42697
1.42734
1.42737
1.42616
1.4248
1.42525
1.42555
1.42577
1.42603
1.42633
1.4265
1.42616
1.4249
1.42229
1.42885
1.42879
1.42881
1.42891
1.42924
1.42985
1.43067
1.43128
1.43131
1.43002
1.43562
1.43491
1.43443
1.43417
1.43427
1.43485
1.43595
1.43725
1.43871
1.43905
1.44355
1.44214
1.4411
1.44031
1.44
1.44031
1.44144
1.44318
1.44604
1.44806
1.45197
1.45003
1.44841
1.44703
1.44614
1.44591
1.44677
1.44855
1.45255
1.45602
1.45882
1.45643
1.45429
1.45224
1.45064
1.44966
1.44991
1.45138
1.45609
1.4608
1.46566
1.46317
1.46068
1.45813
1.45592
1.45422
1.45379
1.45474
1.45971
1.46541
1.46804
1.46574
1.46313
1.46025
1.45754
1.45521
1.45411
1.45468
1.45961
1.46698
1.46717
1.46507
1.46255
1.45971
1.45694
1.45451
1.45318
1.45365
1.45834
1.46809
1.42668
1.42678
1.42679
1.4268
1.4269
1.42706
1.42725
1.42739
1.42719
1.42585
1.42558
1.42622
1.42661
1.42684
1.42703
1.42717
1.42708
1.42641
1.42477
1.42188
1.42971
1.42991
1.43005
1.43019
1.43043
1.43084
1.4313
1.43141
1.43074
1.42883
1.43612
1.43572
1.43541
1.43523
1.43533
1.4358
1.43659
1.43736
1.43782
1.43715
1.44345
1.44238
1.44155
1.44094
1.44076
1.44111
1.44209
1.44342
1.44506
1.44575
1.4511
1.44949
1.44814
1.44704
1.44642
1.44644
1.44737
1.44899
1.45172
1.4537
1.45718
1.4551
1.45327
1.45162
1.45044
1.44993
1.45052
1.45214
1.45571
1.45891
1.46345
1.4612
1.45902
1.45693
1.45525
1.4542
1.45434
1.45575
1.45984
1.46409
1.46568
1.46347
1.46112
1.45871
1.45661
1.45505
1.45471
1.45593
1.46032
1.46614
1.46498
1.46285
1.46052
1.45809
1.45589
1.4542
1.45365
1.4548
1.45915
1.4669
1.42741
1.42757
1.42761
1.42764
1.42769
1.42777
1.42785
1.42786
1.42756
1.42621
1.42652
1.42729
1.42774
1.42798
1.42811
1.42813
1.42787
1.42701
1.42519
1.4222
1.43061
1.43102
1.43127
1.43142
1.4316
1.43183
1.43201
1.43176
1.43067
1.42841
1.4366
1.43646
1.43629
1.43619
1.43627
1.43661
1.43712
1.43746
1.43724
1.43592
1.44332
1.44256
1.44192
1.44147
1.44136
1.44169
1.44246
1.44339
1.44415
1.44391
1.45021
1.44893
1.44782
1.44697
1.44655
1.4467
1.44756
1.44891
1.45066
1.45153
1.45555
1.45379
1.45226
1.45095
1.45011
1.44991
1.45063
1.45218
1.45477
1.45677
1.46124
1.45927
1.4574
1.45573
1.45449
1.4539
1.45436
1.4559
1.45913
1.46215
1.46322
1.46117
1.45911
1.45715
1.45557
1.4546
1.45474
1.45624
1.45993
1.46435
1.4626
1.46056
1.45847
1.45645
1.45477
1.45367
1.45365
1.45511
1.4589
1.46486
1.42834
1.42852
1.42859
1.42861
1.42864
1.42867
1.42869
1.42864
1.4283
1.427
1.42757
1.42842
1.4289
1.42914
1.42923
1.42917
1.42882
1.42786
1.42598
1.423
1.43155
1.43211
1.43242
1.43258
1.4327
1.43281
1.43279
1.4323
1.43097
1.42854
1.43703
1.43711
1.43705
1.43699
1.43705
1.43728
1.43756
1.43758
1.43693
1.4352
1.44313
1.44264
1.44217
1.44183
1.44177
1.44204
1.44261
1.44318
1.44335
1.44246
1.44928
1.4483
1.44742
1.44677
1.44648
1.44668
1.44741
1.44845
1.44948
1.44954
1.4539
1.45246
1.4512
1.45019
1.4496
1.44959
1.45032
1.45165
1.45346
1.45454
1.45903
1.45736
1.4558
1.45448
1.45359
1.45332
1.45392
1.45539
1.45785
1.45985
1.46069
1.45886
1.45711
1.45554
1.45439
1.45385
1.45427
1.45579
1.45877
1.462
1.46012
1.45825
1.45644
1.4548
1.45355
1.4529
1.45321
1.45474
1.45789
1.46237
1.42941
1.42959
1.42965
1.42967
1.42969
1.4297
1.42969
1.4296
1.42927
1.42807
1.42869
1.42958
1.43007
1.4303
1.43036
1.43026
1.42986
1.42887
1.42699
1.42407
1.43248
1.43314
1.43349
1.43365
1.43374
1.43376
1.4336
1.43297
1.43151
1.429
1.43741
1.43763
1.43765
1.43763
1.43767
1.4378
1.43792
1.43773
1.4368
1.43482
1.44288
1.4426
1.44227
1.44203
1.44198
1.44219
1.44258
1.44288
1.44264
1.44132
1.44829
1.44758
1.4469
1.44641
1.44622
1.44641
1.447
1.44775
1.44826
1.44773
1.45223
1.45108
1.45009
1.44931
1.44892
1.449
1.44965
1.45074
1.45194
1.4523
1.45684
1.45545
1.45418
1.45317
1.45255
1.45247
1.45311
1.45439
1.4562
1.45739
1.45814
1.45655
1.45511
1.45389
1.45307
1.45282
1.45336
1.45477
1.4571
1.45938
1.4576
1.45596
1.45444
1.45315
1.45225
1.45192
1.4524
1.45383
1.45636
1.45968
1.43054
1.4307
1.43077
1.43078
1.4308
1.43079
1.43076
1.43067
1.43036
1.42927
1.42983
1.43072
1.43121
1.43143
1.43147
1.43135
1.43093
1.42995
1.42811
1.42526
1.43339
1.4341
1.43447
1.43463
1.43468
1.43465
1.43442
1.43372
1.4322
1.42965
1.43772
1.43804
1.43811
1.43811
1.43814
1.4382
1.43821
1.43789
1.43681
1.43468
1.44257
1.44245
1.44223
1.44206
1.44202
1.44216
1.44242
1.44253
1.44203
1.44044
1.44727
1.44677
1.44626
1.4459
1.44577
1.44594
1.44638
1.4469
1.44705
1.44613
1.45055
1.44968
1.4489
1.44833
1.44806
1.44818
1.44872
1.44956
1.45031
1.45017
1.45467
1.45357
1.45257
1.4518
1.45138
1.45142
1.452
1.45305
1.45435
1.45493
1.45561
1.45428
1.45312
1.45219
1.45164
1.45156
1.45212
1.45332
1.45511
1.45667
1.45511
1.45372
1.45249
1.4515
1.45088
1.45075
1.45128
1.45253
1.4545
1.45693
1.43168
1.43183
1.43189
1.4319
1.43191
1.4319
1.43187
1.43178
1.43151
1.43054
1.43096
1.43183
1.43229
1.43249
1.43252
1.4324
1.43199
1.43105
1.42927
1.4265
1.43428
1.435
1.43536
1.43551
1.43554
1.43548
1.43521
1.43449
1.43296
1.43042
1.43797
1.43834
1.43844
1.43845
1.43846
1.43848
1.43843
1.43804
1.4369
1.43469
1.44221
1.4422
1.44206
1.44194
1.44192
1.44201
1.44216
1.44214
1.44151
1.43976
1.44623
1.4459
1.44553
1.44527
1.44518
1.44532
1.44564
1.44598
1.44589
1.44474
1.44891
1.44825
1.44767
1.44725
1.44707
1.4472
1.44763
1.44825
1.44868
1.4482
1.45258
1.45173
1.45096
1.45039
1.45012
1.45021
1.4507
1.45153
1.45243
1.45258
1.45313
1.45207
1.45117
1.45047
1.45011
1.45014
1.45065
1.45162
1.45295
1.45399
1.45271
1.45158
1.45061
1.44987
1.44946
1.44946
1.44997
1.45099
1.45249
1.45424
1.43282
1.43294
1.43299
1.433
1.43301
1.43299
1.43296
1.43289
1.43265
1.43182
1.43206
1.43288
1.4333
1.43348
1.4335
1.43338
1.433
1.43212
1.43042
1.42772
1.43513
1.43583
1.43616
1.4363
1.43632
1.43624
1.43597
1.43527
1.43377
1.43124
1.43817
1.43855
1.43866
1.43868
1.43868
1.43868
1.43859
1.43819
1.43706
1.43482
1.44182
1.44188
1.4418
1.44172
1.4417
1.44176
1.44184
1.44176
1.44107
1.43926
1.44521
1.44499
1.44473
1.44455
1.44449
1.44459
1.44482
1.44503
1.44482
1.44355
1.44731
1.44684
1.44641
1.44611
1.446
1.44611
1.44644
1.44689
1.4471
1.44643
1.4506
1.44996
1.44938
1.44898
1.44881
1.44891
1.44931
1.44993
1.45055
1.45042
1.45077
1.44994
1.44926
1.44876
1.44852
1.4486
1.44903
1.44979
1.45076
1.45144
1.45046
1.44958
1.44884
1.44831
1.44804
1.4481
1.44855
1.44935
1.45046
1.4517
1.43393
1.43404
1.43408
1.43409
1.43409
1.43408
1.43405
1.43398
1.43379
1.43309
1.43312
1.43387
1.43424
1.43439
1.4344
1.43429
1.43396
1.43316
1.43156
1.42893
1.43597
1.43661
1.4369
1.43702
1.43703
1.43695
1.4367
1.43605
1.43463
1.43212
1.43835
1.4387
1.4388
1.43882
1.43882
1.4388
1.43871
1.43834
1.43727
1.43506
1.44145
1.44154
1.4415
1.44144
1.44143
1.44146
1.4415
1.44139
1.44073
1.43894
1.44422
1.4441
1.44391
1.44379
1.44375
1.44383
1.44398
1.44411
1.44386
1.44258
1.44582
1.44549
1.44518
1.44497
1.44491
1.445
1.44524
1.44555
1.44564
1.4449
1.44876
1.44829
1.44788
1.4476
1.44749
1.44759
1.4479
1.44835
1.44877
1.4485
1.44856
1.44793
1.44743
1.44708
1.44693
1.44702
1.44737
1.44793
1.44863
1.44907
1.44842
1.44776
1.44722
1.44684
1.44668
1.44676
1.44712
1.44773
1.44853
1.44941
1.43505
1.43514
1.43517
1.43518
1.43518
1.43516
1.43514
1.43509
1.43493
1.43437
1.43414
1.43481
1.43512
1.43524
1.43525
1.43515
1.43487
1.43417
1.43269
1.43015
1.4368
1.43736
1.43761
1.4377
1.4377
1.43763
1.43742
1.43685
1.43554
1.4331
1.43852
1.43882
1.43891
1.43893
1.43893
1.43891
1.43883
1.43852
1.43756
1.43545
1.4411
1.4412
1.44118
1.44114
1.44113
1.44115
1.44117
1.44107
1.44049
1.43881
1.44331
1.44324
1.44312
1.44303
1.44301
1.44306
1.44317
1.44326
1.44302
1.44183
1.44446
1.44423
1.44402
1.44388
1.44384
1.44391
1.44408
1.4443
1.44433
1.44363
1.4471
1.44677
1.44648
1.44629
1.44623
1.44631
1.44654
1.44687
1.44716
1.44686
1.44652
1.44606
1.44571
1.44546
1.44538
1.44546
1.44573
1.44614
1.44663
1.44692
1.44665
1.44617
1.44578
1.44552
1.44542
1.44551
1.44579
1.44623
1.4468
1.44741
1.43621
1.43629
1.43631
1.43632
1.43632
1.43631
1.43629
1.43624
1.43613
1.43569
1.43515
1.43571
1.43596
1.43605
1.43605
1.43598
1.43576
1.43518
1.43387
1.43143
1.43766
1.43812
1.43831
1.43838
1.43838
1.43832
1.43816
1.4377
1.43656
1.43424
1.43872
1.43896
1.43903
1.43904
1.43904
1.43903
1.43897
1.43873
1.43795
1.43602
1.44081
1.44089
1.44088
1.44086
1.44086
1.44087
1.44089
1.44081
1.44035
1.43888
1.44249
1.44244
1.44236
1.44231
1.4423
1.44234
1.44242
1.44248
1.44231
1.4413
1.44324
1.44309
1.44295
1.44286
1.44284
1.44289
1.44302
1.44317
1.44319
1.44261
1.44563
1.4454
1.4452
1.44508
1.44504
1.44511
1.44528
1.44552
1.44574
1.44547
1.44467
1.44434
1.44409
1.44393
1.44389
1.44396
1.44415
1.44444
1.44479
1.445
1.44518
1.44484
1.44457
1.44439
1.44434
1.44442
1.44463
1.44494
1.44534
1.44575
1.43755
1.43761
1.43763
1.43764
1.43764
1.43763
1.43761
1.43758
1.43749
1.43717
1.43617
1.43661
1.4368
1.43686
1.43686
1.43681
1.43665
1.43622
1.43513
1.43287
1.43856
1.43891
1.43904
1.43908
1.43908
1.43905
1.43894
1.43861
1.43771
1.43561
1.43896
1.43914
1.43919
1.4392
1.43921
1.4392
1.43917
1.43902
1.43844
1.4368
1.44056
1.44062
1.44061
1.4406
1.44061
1.44062
1.44064
1.44061
1.44031
1.43913
1.44173
1.4417
1.44165
1.44161
1.44162
1.44165
1.44172
1.44177
1.44168
1.44093
1.44216
1.44206
1.44197
1.44192
1.44192
1.44196
1.44205
1.44216
1.4422
1.44178
1.44429
1.44413
1.444
1.44392
1.44391
1.44396
1.44409
1.44426
1.44445
1.44426
1.44294
1.44271
1.44255
1.44245
1.44243
1.44249
1.44263
1.44283
1.44307
1.44324
1.44406
1.44383
1.44364
1.44354
1.44351
1.44358
1.44374
1.44396
1.44424
1.44451
1.43935
1.4394
1.43942
1.43942
1.43942
1.43941
1.4394
1.43937
1.43932
1.4391
1.43721
1.43752
1.43764
1.43768
1.43769
1.43766
1.43758
1.43731
1.43653
1.43458
1.43949
1.43972
1.43979
1.43982
1.43983
1.43983
1.43979
1.43961
1.43901
1.4373
1.43929
1.4394
1.43943
1.43945
1.43947
1.43949
1.43949
1.43944
1.4391
1.43787
1.44036
1.44038
1.44037
1.44037
1.44039
1.44042
1.44047
1.44049
1.44035
1.43955
1.44102
1.44099
1.44095
1.44094
1.44095
1.441
1.44107
1.44114
1.44114
1.44067
1.44117
1.4411
1.44105
1.44102
1.44103
1.44108
1.44116
1.44125
1.44131
1.44107
1.44292
1.4428
1.44271
1.44266
1.44266
1.44272
1.44283
1.44297
1.44313
1.44306
1.44121
1.44105
1.44094
1.44088
1.44088
1.44094
1.44105
1.4412
1.44136
1.44151
1.44345
1.44328
1.44316
1.44309
1.44309
1.44315
1.44327
1.44344
1.44366
1.44384
1.44199
1.44203
1.44204
1.44204
1.44205
1.44205
1.44206
1.44206
1.44204
1.44193
1.43824
1.4384
1.43846
1.43849
1.43852
1.43856
1.43858
1.43852
1.43813
1.43675
1.44047
1.44054
1.44055
1.44056
1.44059
1.44065
1.44072
1.44075
1.44055
1.43949
1.43983
1.43985
1.43985
1.43987
1.43991
1.43998
1.44007
1.44015
1.4401
1.43943
1.44028
1.44025
1.44023
1.44023
1.44027
1.44034
1.44045
1.44056
1.44062
1.44027
1.44043
1.44037
1.44034
1.44033
1.44037
1.44044
1.44054
1.44067
1.44079
1.44063
1.44029
1.44022
1.44018
1.44017
1.4402
1.44026
1.44037
1.44049
1.44061
1.44055
1.44133
1.44122
1.44114
1.44112
1.44114
1.4412
1.44132
1.44147
1.44165
1.44172
1.43927
1.43917
1.43909
1.43906
1.43907
1.43914
1.43925
1.43938
1.43952
1.43964
1.44352
1.44339
1.44329
1.44325
1.44326
1.44332
1.44344
1.4436
1.44379
1.44394
1.4451
1.44504
1.44501
1.445
1.44501
1.44504
1.4451
1.44517
1.44526
1.44534
1.43954
1.43948
1.43942
1.43941
1.43947
1.43958
1.43975
1.43999
1.44024
1.44011
1.4417
1.44152
1.44142
1.44139
1.44143
1.44157
1.44178
1.4421
1.4425
1.44272
1.44077
1.44064
1.44057
1.44055
1.44061
1.44073
1.44093
1.44121
1.44158
1.44189
1.44054
1.44041
1.44033
1.44032
1.44037
1.44048
1.44067
1.44093
1.44128
1.44164
1.44015
1.44003
1.43996
1.43994
1.43999
1.44009
1.44026
1.4405
1.44081
1.44115
1.43966
1.43956
1.43949
1.43947
1.43951
1.43961
1.43976
1.43997
1.44022
1.4405
1.43975
1.43961
1.43953
1.4395
1.43953
1.43962
1.43977
1.43998
1.44024
1.44054
1.43732
1.43723
1.43716
1.43713
1.43715
1.43724
1.43737
1.43754
1.43772
1.43785
1.44385
1.44371
1.44362
1.44358
1.4436
1.44368
1.44382
1.444
1.44421
1.44438
1.51454
1.52108
1.51814
1.51192
1.53191
1.53902
1.53373
1.52476
1.55467
1.56183
1.55593
1.54425
1.57375
1.58063
1.5752
1.5614
1.58863
1.59481
1.59052
1.57518
1.59864
1.60383
1.60113
1.58466
1.60305
1.60692
1.60569
1.58808
1.60593
1.60847
1.60886
1.59017
1.60248
1.60509
1.60919
1.5926
1.59741
1.60149
1.61002
1.59733
1.43488
1.4349
1.43581
1.4376
1.44706
1.44912
1.45007
1.44974
1.46686
1.47045
1.47177
1.47094
1.48641
1.49145
1.493
1.4916
1.50425
1.51041
1.51199
1.50997
1.51896
1.52581
1.52722
1.52458
1.52859
1.53573
1.5368
1.53354
1.53673
1.54381
1.5445
1.54059
1.53791
1.54458
1.54463
1.53914
1.53914
1.54617
1.54602
1.53895
1.43588
1.43608
1.43644
1.43699
1.4389
1.44019
1.44066
1.44079
1.45467
1.45688
1.45767
1.45774
1.47068
1.47383
1.47497
1.47499
1.48558
1.4896
1.49102
1.49085
1.49812
1.50282
1.50439
1.50385
1.50629
1.51144
1.51299
1.51191
1.51377
1.51916
1.52059
1.51885
1.51607
1.52162
1.52312
1.52078
1.51868
1.52507
1.52703
1.52408
1.42804
1.42758
1.42767
1.42826
1.42632
1.42618
1.42628
1.42673
1.43948
1.44011
1.44053
1.44098
1.45385
1.45526
1.45603
1.4565
1.46757
1.4697
1.4708
1.47125
1.47935
1.48207
1.48341
1.48374
1.4871
1.49025
1.4917
1.49177
1.49426
1.49766
1.49913
1.49881
1.4963
1.49983
1.50149
1.50087
1.49801
1.50238
1.5047
1.5038
1.42533
1.42477
1.42475
1.42527
1.4218
1.42125
1.42114
1.42153
1.43227
1.43222
1.43239
1.43285
1.44468
1.44528
1.44576
1.44629
1.45716
1.45835
1.45912
1.4597
1.46823
1.46991
1.47088
1.47148
1.47557
1.47761
1.4787
1.47926
1.48242
1.48466
1.4858
1.4862
1.48451
1.48683
1.4882
1.48858
1.48626
1.48934
1.49125
1.49153
1.42383
1.4232
1.42313
1.42363
1.41955
1.41881
1.41858
1.41892
1.42836
1.42791
1.42788
1.4283
1.4391
1.43911
1.43936
1.43988
1.45033
1.45086
1.45139
1.45199
1.46074
1.46173
1.46247
1.46312
1.46786
1.46918
1.47005
1.47073
1.47456
1.47606
1.47699
1.47762
1.47671
1.47825
1.47935
1.48007
1.47825
1.48043
1.4819
1.48252
1.42352
1.42287
1.42278
1.42326
1.41903
1.41826
1.41799
1.41826
1.42671
1.42614
1.42601
1.42636
1.43616
1.43592
1.43601
1.43645
1.44621
1.44638
1.44672
1.44724
1.45583
1.45639
1.45695
1.45752
1.4626
1.46346
1.46416
1.46479
1.46913
1.47016
1.47092
1.47154
1.47135
1.47239
1.47326
1.47402
1.47265
1.47424
1.47533
1.47594
1.42392
1.42327
1.42318
1.42365
1.41936
1.4186
1.41831
1.41856
1.42614
1.42553
1.42537
1.42566
1.43448
1.43413
1.43414
1.4345
1.4435
1.44346
1.44368
1.44412
1.45229
1.45258
1.45298
1.45347
1.45861
1.45914
1.45969
1.46021
1.4649
1.46559
1.46618
1.46672
1.46713
1.46782
1.46849
1.46916
1.46825
1.46944
1.47024
1.47074
1.42481
1.42418
1.42409
1.42455
1.42025
1.41951
1.41923
1.41946
1.42626
1.42566
1.42548
1.42573
1.43356
1.43317
1.43314
1.43344
1.44159
1.44144
1.44158
1.44195
1.44953
1.44964
1.44993
1.45033
1.45529
1.4556
1.456
1.45644
1.46126
1.4617
1.46215
1.4626
1.46344
1.46389
1.46439
1.46496
1.46447
1.46538
1.46597
1.46633
1.42599
1.42538
1.4253
1.42576
1.42142
1.42073
1.42047
1.42067
1.42676
1.42618
1.426
1.42623
1.43308
1.43267
1.43262
1.4329
1.44017
1.43995
1.44003
1.44036
1.44724
1.44722
1.44742
1.44777
1.45236
1.4525
1.45279
1.45316
1.45795
1.4582
1.45853
1.45892
1.46002
1.46029
1.46067
1.46114
1.46101
1.46174
1.46217
1.46241
1.42734
1.42676
1.42669
1.42713
1.42273
1.42208
1.42184
1.42204
1.42747
1.42691
1.42674
1.42696
1.43287
1.43245
1.43239
1.43265
1.43907
1.4388
1.43884
1.43913
1.44527
1.44516
1.44529
1.44559
1.44972
1.44973
1.44992
1.45025
1.45489
1.455
1.45523
1.45557
1.45681
1.45696
1.45723
1.45764
1.45778
1.45838
1.4587
1.45884
1.42877
1.42823
1.42816
1.42859
1.42407
1.42345
1.42324
1.42343
1.42827
1.42773
1.42758
1.42778
1.43282
1.43239
1.43232
1.43257
1.4382
1.43789
1.43789
1.43817
1.44358
1.44338
1.44345
1.44374
1.44736
1.44725
1.44737
1.44767
1.45211
1.45209
1.45225
1.45256
1.45383
1.45387
1.45408
1.45443
1.45478
1.45527
1.45551
1.45557
1.43023
1.42972
1.42966
1.43007
1.42537
1.42479
1.4246
1.42479
1.4291
1.42859
1.42844
1.42864
1.43286
1.43242
1.43234
1.43259
1.43753
1.43717
1.43714
1.43741
1.44214
1.44187
1.44188
1.44216
1.44528
1.44508
1.44514
1.44543
1.44964
1.44952
1.44962
1.44991
1.45109
1.45107
1.45121
1.45152
1.45204
1.45245
1.45262
1.45262
1.43169
1.43122
1.43118
1.43155
1.42662
1.42606
1.42589
1.42609
1.42996
1.42945
1.42931
1.42951
1.43301
1.43254
1.43245
1.43269
1.43705
1.43664
1.43658
1.43684
1.44097
1.44062
1.44059
1.44087
1.44352
1.44324
1.44325
1.44354
1.44752
1.44732
1.44737
1.44766
1.44864
1.44857
1.44867
1.44894
1.44959
1.44994
1.45006
1.45002
1.43317
1.43274
1.4327
1.43304
1.42784
1.42729
1.42713
1.42734
1.43088
1.43036
1.43021
1.43042
1.43328
1.43278
1.43266
1.43291
1.43678
1.43632
1.43622
1.43649
1.44007
1.43967
1.43961
1.43989
1.44212
1.44178
1.44175
1.44204
1.44578
1.44554
1.44556
1.44584
1.4465
1.4464
1.44647
1.4467
1.4475
1.44779
1.44787
1.44781
1.4347
1.43432
1.43428
1.43458
1.42908
1.42852
1.42836
1.42858
1.43193
1.43138
1.43122
1.43144
1.43373
1.43319
1.43305
1.43331
1.43676
1.43625
1.43613
1.43642
1.43949
1.43905
1.43896
1.43926
1.44108
1.44071
1.44066
1.44096
1.44445
1.44419
1.44418
1.44445
1.44465
1.44455
1.44459
1.44478
1.44579
1.44603
1.44609
1.44601
1.43639
1.43606
1.43602
1.43629
1.43043
1.42985
1.42968
1.42992
1.4332
1.43262
1.43244
1.43268
1.43445
1.43387
1.43371
1.43399
1.43704
1.43651
1.43637
1.43667
1.43921
1.43877
1.43868
1.43897
1.4404
1.44004
1.43998
1.44026
1.44343
1.44319
1.44317
1.44341
1.44301
1.44293
1.44295
1.44309
1.44452
1.44471
1.44474
1.44467
1.43852
1.43825
1.43822
1.43843
1.43206
1.43145
1.43127
1.43154
1.43487
1.43426
1.43407
1.43434
1.4356
1.43501
1.43485
1.43515
1.43767
1.43716
1.43704
1.43734
1.43924
1.43884
1.43876
1.43904
1.44
1.43968
1.43963
1.43988
1.44255
1.44236
1.44233
1.44252
1.44142
1.44136
1.44137
1.44146
1.44383
1.44397
1.444
1.44394
1.44156
1.44134
1.44131
1.44148
1.4343
1.43368
1.43351
1.43381
1.4373
1.43671
1.43654
1.43684
1.43751
1.43698
1.43684
1.43715
1.43884
1.43842
1.43832
1.4386
1.43965
1.43933
1.43927
1.4395
1.43986
1.43962
1.43958
1.43976
1.44154
1.44142
1.44141
1.44152
1.43959
1.43956
1.43956
1.43961
1.444
1.44409
1.44411
1.44408
1.44524
1.44513
1.44513
1.44523
1.43833
1.43784
1.43771
1.438
1.4415
1.44111
1.44102
1.4413
1.44098
1.44067
1.4406
1.44083
1.44115
1.44093
1.44089
1.44107
1.44093
1.44079
1.44076
1.44089
1.4404
1.4403
1.44027
1.44036
1.44076
1.44075
1.44075
1.44078
1.43771
1.43765
1.43764
1.4377
1.44463
1.44471
1.44472
1.44469
1.49029
1.47439
1.46006
1.44989
1.44347
1.43909
1.43589
1.43346
1.43165
1.43037
1.49454
1.4729
1.45574
1.44582
1.43932
1.43479
1.4314
1.42882
1.42707
1.42614
1.50369
1.47967
1.46049
1.45094
1.44415
1.4392
1.43515
1.43181
1.42947
1.42844
1.51066
1.48537
1.46549
1.45698
1.4505
1.4459
1.44204
1.43885
1.43664
1.43583
1.51404
1.48837
1.46859
1.46188
1.45643
1.45304
1.45017
1.44787
1.4463
1.44604
1.5132
1.48772
1.46878
1.46446
1.46078
1.45945
1.45835
1.45758
1.4571
1.45747
1.5065
1.48142
1.46377
1.46193
1.46044
1.46165
1.46281
1.46404
1.46506
1.46648
1.49875
1.47436
1.45782
1.45789
1.45823
1.46161
1.46479
1.46793
1.47058
1.47301
1.48505
1.46379
1.44784
1.44885
1.44969
1.45365
1.45763
1.46201
1.46621
1.46992
1.47987
1.46101
1.44511
1.44497
1.44483
1.44804
1.45175
1.45623
1.46077
1.46462
1.44274
1.44329
1.4421
1.44014
1.43783
1.43552
1.43338
1.43149
1.4299
1.42879
1.44785
1.44581
1.4424
1.43882
1.4354
1.43236
1.42974
1.42755
1.42588
1.42497
1.46563
1.46043
1.45386
1.44812
1.44306
1.43877
1.43506
1.43187
1.42942
1.42822
1.48154
1.47359
1.46441
1.45747
1.4517
1.44704
1.44311
1.4398
1.43724
1.43607
1.49388
1.4837
1.47262
1.46546
1.45983
1.45565
1.45225
1.44948
1.44728
1.44643
1.50146
1.48974
1.47749
1.47101
1.46638
1.46355
1.46142
1.45978
1.45838
1.45795
1.5027
1.48982
1.47694
1.47165
1.46856
1.46763
1.46727
1.4672
1.46696
1.46734
1.5022
1.48829
1.47495
1.47074
1.46907
1.46989
1.4712
1.47268
1.47377
1.47492
1.49772
1.48215
1.46872
1.46498
1.46376
1.46511
1.46714
1.46964
1.47198
1.47407
1.49995
1.48143
1.46724
1.46228
1.46016
1.46095
1.46285
1.46551
1.46822
1.4704
1.43793
1.43814
1.43718
1.43568
1.43401
1.43237
1.43084
1.4295
1.42838
1.42764
1.44002
1.43859
1.43617
1.43371
1.43145
1.42941
1.42758
1.42602
1.42486
1.42429
1.45598
1.45234
1.44751
1.44321
1.43948
1.43619
1.43325
1.43069
1.42874
1.42784
1.47202
1.4661
1.45914
1.45354
1.44891
1.445
1.44163
1.43877
1.43657
1.43556
1.48613
1.47794
1.46923
1.46297
1.45807
1.45419
1.45099
1.44838
1.44629
1.44539
1.49669
1.48642
1.47647
1.47027
1.46584
1.46274
1.46035
1.45847
1.45689
1.45622
1.50168
1.48941
1.47859
1.47301
1.46958
1.46779
1.46668
1.46594
1.46518
1.46508
1.50501
1.49072
1.47919
1.47425
1.47185
1.4714
1.47158
1.47204
1.47229
1.47276
1.50387
1.48734
1.4755
1.4708
1.46874
1.46878
1.4696
1.47091
1.47216
1.47334
1.50625
1.487
1.47429
1.46851
1.46575
1.46547
1.46631
1.46782
1.46944
1.47071
1.42967
1.4309
1.43113
1.43076
1.4301
1.42929
1.42846
1.42768
1.42703
1.42667
1.42767
1.42847
1.42857
1.42819
1.42749
1.42659
1.42563
1.42474
1.42408
1.42388
1.44133
1.44087
1.43948
1.43769
1.43571
1.43365
1.43163
1.4298
1.4284
1.42784
1.45624
1.45449
1.45161
1.44861
1.44567
1.44288
1.44031
1.43806
1.43631
1.4355
1.47022
1.46717
1.46294
1.45909
1.45561
1.45254
1.44987
1.44759
1.44574
1.44488
1.48164
1.47734
1.47205
1.46786
1.4644
1.46163
1.45936
1.45747
1.45585
1.45504
1.48824
1.48265
1.47653
1.47243
1.46947
1.46748
1.46601
1.46486
1.46377
1.46332
1.49346
1.48644
1.47952
1.4756
1.47324
1.47214
1.47158
1.47129
1.47093
1.47086
1.49419
1.48565
1.47816
1.47411
1.47187
1.47109
1.47103
1.47142
1.47181
1.47226
1.49703
1.48604
1.47729
1.47223
1.46946
1.46852
1.46855
1.46915
1.46987
1.47037
1.42656
1.42782
1.42825
1.42819
1.4279
1.42748
1.42703
1.4266
1.42626
1.42617
1.42264
1.424
1.42482
1.42516
1.42512
1.42484
1.42442
1.42401
1.42376
1.42386
1.43372
1.4344
1.43439
1.43383
1.43288
1.43169
1.43042
1.42921
1.42834
1.42811
1.44685
1.44676
1.44585
1.44444
1.44273
1.4409
1.4391
1.43747
1.43618
1.43562
1.45994
1.45906
1.45729
1.45516
1.4529
1.45068
1.44862
1.44679
1.44526
1.44452
1.47134
1.46973
1.46723
1.46468
1.46223
1.46002
1.45806
1.45634
1.45484
1.454
1.4786
1.47627
1.47319
1.4705
1.46821
1.46636
1.46483
1.46352
1.46229
1.46164
1.48478
1.4816
1.47789
1.47513
1.47311
1.47178
1.47081
1.47007
1.46932
1.46889
1.48669
1.48262
1.47829
1.47517
1.47308
1.47193
1.47132
1.47108
1.47086
1.47078
1.48951
1.48332
1.47768
1.47373
1.47127
1.47004
1.46954
1.46947
1.46951
1.46944
1.42492
1.42621
1.42675
1.42687
1.42678
1.42659
1.42637
1.42617
1.42603
1.42611
1.4201
1.42164
1.42276
1.42346
1.42382
1.42391
1.42386
1.42379
1.42384
1.42416
1.42939
1.43057
1.43119
1.43129
1.43098
1.43039
1.42967
1.42897
1.42852
1.42857
1.44084
1.44158
1.44169
1.44124
1.44038
1.43928
1.43812
1.43701
1.43615
1.43584
1.45278
1.45304
1.45263
1.45166
1.45033
1.44885
1.44736
1.44596
1.44478
1.44421
1.46371
1.46353
1.46268
1.46133
1.45975
1.45811
1.45653
1.45507
1.45377
1.453
1.47115
1.47057
1.46934
1.4678
1.46618
1.46464
1.46322
1.46193
1.46071
1.45999
1.47776
1.47673
1.47509
1.47337
1.47181
1.47051
1.4694
1.46842
1.46749
1.46684
1.48029
1.47884
1.47662
1.47445
1.47273
1.4715
1.47062
1.46999
1.46939
1.46895
1.48263
1.47954
1.47624
1.47345
1.47145
1.47017
1.46938
1.46888
1.46846
1.46797
1.42454
1.42581
1.42636
1.42654
1.42655
1.42648
1.42639
1.42631
1.42629
1.42646
1.41938
1.42092
1.4221
1.42293
1.42345
1.42375
1.4239
1.42403
1.42427
1.42475
1.42739
1.42866
1.4295
1.42991
1.42995
1.42973
1.42939
1.42905
1.42891
1.42918
1.4374
1.43841
1.43895
1.43901
1.43867
1.43808
1.43738
1.43669
1.43618
1.43609
1.4481
1.44884
1.44909
1.4488
1.4481
1.44717
1.44614
1.44513
1.44428
1.4439
1.45825
1.45874
1.45874
1.45818
1.45722
1.45607
1.45486
1.45368
1.45263
1.45198
1.46545
1.46574
1.46554
1.46477
1.4637
1.46249
1.46127
1.4601
1.45899
1.45829
1.47212
1.47222
1.47176
1.4708
1.46967
1.46853
1.46743
1.46641
1.46543
1.46469
1.47491
1.47485
1.47389
1.4725
1.47117
1.47004
1.46908
1.46826
1.46745
1.46681
1.47676
1.47548
1.47369
1.47186
1.47033
1.46916
1.46824
1.4675
1.46681
1.46606
1.42492
1.42613
1.42668
1.42688
1.42694
1.42693
1.4269
1.42688
1.42693
1.42714
1.41962
1.4211
1.42228
1.42315
1.42374
1.42412
1.42439
1.42464
1.425
1.42557
1.42663
1.42788
1.4288
1.42935
1.42959
1.4296
1.4295
1.4294
1.42949
1.42991
1.43539
1.43648
1.43721
1.43754
1.43753
1.43727
1.43689
1.43651
1.43627
1.43636
1.44493
1.44585
1.44642
1.44653
1.44624
1.44569
1.44502
1.44433
1.44375
1.44355
1.45418
1.45498
1.45541
1.45531
1.45479
1.45401
1.45312
1.45222
1.45141
1.45091
1.46089
1.46161
1.46193
1.46166
1.46098
1.46008
1.45909
1.4581
1.45715
1.45653
1.46739
1.46806
1.46823
1.46777
1.46698
1.46605
1.46507
1.46411
1.46318
1.46244
1.47019
1.47081
1.47056
1.46974
1.46878
1.46782
1.46689
1.46603
1.46515
1.46442
1.47169
1.47137
1.4705
1.46936
1.46825
1.46724
1.46633
1.4655
1.46468
1.46382
1.42578
1.42694
1.42745
1.42765
1.42773
1.42775
1.42775
1.42777
1.42784
1.42806
1.42046
1.42186
1.423
1.42385
1.42446
1.42488
1.4252
1.42551
1.42593
1.42656
1.42663
1.42783
1.42875
1.42937
1.4297
1.42985
1.4299
1.42997
1.4302
1.43072
1.43427
1.43535
1.43617
1.43665
1.43682
1.43678
1.43662
1.43645
1.43641
1.43663
1.4427
1.44369
1.44442
1.44474
1.44471
1.44443
1.44401
1.44357
1.44323
1.44318
1.451
1.45193
1.45258
1.45275
1.45251
1.45202
1.45139
1.45073
1.45014
1.44978
1.45709
1.458
1.45859
1.4586
1.45821
1.45756
1.45679
1.456
1.45523
1.45472
1.46326
1.46419
1.46467
1.46452
1.464
1.46327
1.46246
1.46162
1.4608
1.46012
1.46594
1.46684
1.46697
1.46653
1.46585
1.46507
1.46425
1.46344
1.46259
1.46186
1.46721
1.46733
1.46697
1.4663