/*--------------------------------*- C++ -*----------------------------------*\
| =========                 |                                                 |
| \\      /  F ield         | foam-extend: Open Source CFD                    |
|  \\    /   O peration     | Version:     4.0                                |
|   \\  /    A nd           | Web:         http://www.foam-extend.org         |
|    \\/     M anipulation  |                                                 |
\*---------------------------------------------------------------------------*/
FoamFile
{
    version     2.0;
    format      ascii;
    class       volScalarField;
    location    "200";
    object      T;
}
// * * * * * * * * * * * * * * * * * * * * * * * * * * * * * * * * * * * * * //

dimensions      [0 0 0 1 0 0 0];

internalField   nonuniform List<scalar> 
34480
(
283.746
283.522
283.365
283.237
283.125
283.021
282.933
282.954
283.342
283.713
284.117
283.764
283.526
283.372
283.28
283.243
283.302
283.553
284.259
284.242
284.458
284.106
283.855
283.678
283.539
283.4
283.293
283.299
283.743
283.12
284.76
284.395
284.116
283.892
283.689
283.459
283.213
282.973
283.083
281.793
285.138
284.747
284.422
284.134
283.85
283.518
283.132
282.649
282.392
280.422
285.657
285.227
284.845
284.484
284.111
283.67
283.141
282.421
281.779
279.12
286.196
285.715
285.264
284.824
284.363
283.814
283.144
282.195
281.15
277.827
286.729
286.196
285.682
285.171
284.635
284.003
283.22
282.075
280.629
276.654
287.177
286.628
286.066
285.476
284.844
284.103
283.173
281.795
279.902
275.338
287.894
287.368
286.819
286.252
285.655
284.971
284.107
282.761
280.618
275.39
283.959
283.769
283.67
283.623
283.623
283.681
283.835
284.178
284.794
285.823
284.276
283.963
283.781
283.7
283.706
283.815
284.1
284.708
285.792
287.135
284.511
284.205
284.017
283.92
283.895
283.938
284.117
284.593
285.594
286.789
284.682
284.378
284.179
284.054
283.986
283.969
284.063
284.409
285.283
286.293
284.914
284.599
284.377
284.21
284.086
283.998
284.001
284.212
284.935
285.751
285.278
284.942
284.685
284.469
284.282
284.113
284.017
284.086
284.638
285.249
285.66
285.288
284.985
284.712
284.459
284.21
284.011
283.935
284.295
284.708
286.055
285.647
285.301
284.977
284.671
284.357
284.071
283.861
284.009
284.2
286.39
285.958
285.568
285.181
284.803
284.41
284.019
283.649
283.544
283.516
287.037
286.636
286.26
285.894
285.548
285.2
284.86
284.502
284.213
283.708
284.225
284.049
283.967
283.94
283.963
284.043
284.204
284.493
285.013
285.887
284.556
284.247
284.073
284.005
284.029
284.161
284.469
285.066
286.084
287.401
284.768
284.458
284.272
284.183
284.176
284.257
284.497
285.033
286.085
287.473
284.901
284.592
284.395
284.281
284.235
284.266
284.446
284.912
285.962
287.39
285.09
284.772
284.555
284.404
284.308
284.275
284.381
284.76
285.774
287.218
285.409
285.074
284.826
284.631
284.477
284.37
284.388
284.661
285.605
287.035
285.746
285.381
285.092
284.844
284.63
284.446
284.37
284.524
285.365
286.762
286.103
285.707
285.38
285.085
284.82
284.573
284.412
284.445
285.145
286.477
286.396
285.984
285.619
285.268
284.94
284.622
284.364
284.248
284.757
286.053
287.022
286.639
286.28
285.94
285.63
285.339
285.107
284.974
285.305
286.383
284.45
284.299
284.234
284.22
284.249
284.325
284.46
284.677
285.039
285.678
284.813
284.518
284.356
284.299
284.332
284.464
284.751
285.278
286.13
287.238
285.005
284.705
284.528
284.45
284.458
284.558
284.808
285.315
286.222
287.403
285.106
284.804
284.617
284.519
284.497
284.561
284.777
285.259
286.212
287.464
285.255
284.945
284.741
284.612
284.548
284.561
284.726
285.162
286.141
287.463
285.53
285.205
284.974
284.806
284.692
284.642
284.739
285.108
286.086
287.462
285.821
285.47
285.203
284.987
284.818
284.702
284.722
285.006
285.952
287.368
286.135
285.759
285.457
285.198
284.983
284.81
284.757
284.946
285.817
287.246
286.39
286.003
285.668
285.359
285.088
284.854
284.721
284.786
285.516
286.985
286.996
286.635
286.301
285.994
285.728
285.505
285.381
285.424
286.001
287.366
284.633
284.509
284.46
284.451
284.476
284.534
284.631
284.779
285.024
285.505
285.032
284.759
284.61
284.559
284.59
284.709
284.957
285.401
286.103
287.037
285.216
284.932
284.766
284.698
284.712
284.812
285.043
285.485
286.234
287.211
285.293
285.005
284.831
284.748
284.741
284.82
285.038
285.482
286.286
287.319
285.409
285.114
284.925
284.817
284.777
284.819
285.006
285.434
286.291
287.397
285.645
285.336
285.124
284.981
284.9
284.894
285.035
285.425
286.319
287.499
285.893
285.56
285.316
285.131
285.003
284.943
285.026
285.364
286.27
287.523
286.165
285.812
285.537
285.313
285.143
285.034
285.06
285.33
286.212
287.518
286.381
286.021
285.718
285.45
285.232
285.07
285.034
285.211
285.999
287.376
286.963
286.627
286.321
286.05
285.828
285.667
285.629
285.788
286.458
287.79
284.79
284.69
284.652
284.646
284.664
284.705
284.77
284.869
285.043
285.44
285.22
284.968
284.831
284.784
284.809
284.908
285.116
285.492
286.086
286.909
285.396
285.132
284.98
284.919
284.933
285.024
285.224
285.599
286.219
287.05
285.455
285.186
285.028
284.957
284.959
285.04
285.24
285.627
286.292
287.151
285.544
285.269
285.099
285.01
284.988
285.045
285.23
285.617
286.334
287.246
285.746
285.458
285.268
285.149
285.095
285.118
285.275
285.647
286.41
287.388
285.954
285.646
285.427
285.272
285.179
285.161
285.28
285.623
286.42
287.472
286.188
285.862
285.615
285.426
285.296
285.239
285.318
285.619
286.419
287.533
286.367
286.038
285.767
285.54
285.369
285.268
285.301
285.538
286.279
287.464
286.925
286.618
286.342
286.107
285.928
285.821
285.848
286.072
286.728
287.879
284.931
284.85
284.822
284.816
284.828
284.855
284.897
284.965
285.096
285.44
285.38
285.147
285.02
284.976
284.993
285.074
285.248
285.569
286.09
286.836
285.548
285.304
285.164
285.109
285.12
285.197
285.366
285.682
286.208
286.939
285.59
285.344
285.202
285.142
285.148
285.222
285.395
285.724
286.278
287.013
285.658
285.407
285.257
285.184
285.174
285.235
285.403
285.737
286.33
287.096
285.83
285.569
285.401
285.304
285.271
285.31
285.464
285.795
286.429
287.242
286.003
285.724
285.532
285.404
285.339
285.349
285.483
285.802
286.474
287.349
286.202
285.908
285.69
285.533
285.438
285.419
285.528
285.826
286.511
287.441
286.348
286.052
285.815
285.626
285.497
285.443
285.519
285.777
286.424
287.406
286.883
286.606
286.362
286.163
286.024
285.962
286.03
286.282
286.87
287.804
285.063
284.998
284.976
284.971
284.978
284.995
285.023
285.071
285.176
285.483
285.517
285.3
285.182
285.138
285.149
285.214
285.361
285.643
286.112
286.804
285.674
285.448
285.32
285.269
285.276
285.339
285.48
285.751
286.21
286.871
285.7
285.476
285.35
285.299
285.306
285.369
285.514
285.791
286.262
286.912
285.749
285.525
285.395
285.336
285.333
285.39
285.534
285.815
286.307
286.969
285.896
285.664
285.519
285.442
285.422
285.467
285.607
285.889
286.41
287.099
286.038
285.791
285.626
285.523
285.479
285.506
285.637
285.919
286.47
287.204
286.207
285.947
285.76
285.631
285.564
285.571
285.69
285.964
286.531
287.304
286.325
286.064
285.86
285.706
285.611
285.591
285.689
285.941
286.479
287.276
286.836
286.592
286.381
286.216
286.111
286.083
286.176
286.426
286.925
287.651
285.191
285.138
285.12
285.116
285.12
285.131
285.15
285.185
285.272
285.548
285.635
285.431
285.319
285.277
285.282
285.335
285.462
285.715
286.147
286.796
285.777
285.567
285.449
285.402
285.405
285.456
285.574
285.81
286.223
286.835
285.786
285.585
285.474
285.43
285.435
285.487
285.606
285.84
286.25
286.841
285.819
285.623
285.513
285.465
285.465
285.515
285.633
285.864
286.279
286.867
285.943
285.743
285.621
285.56
285.549
285.593
285.712
285.945
286.372
286.97
286.059
285.847
285.708
285.626
285.598
285.632
285.751
285.988
286.434
287.057
286.203
285.979
285.822
285.719
285.673
285.694
285.81
286.049
286.506
287.15
286.296
286.072
285.901
285.777
285.71
285.713
285.817
286.045
286.477
287.114
286.786
286.575
286.396
286.263
286.186
286.183
286.284
286.514
286.92
287.468
285.315
285.27
285.257
285.253
285.255
285.262
285.275
285.302
285.376
285.623
285.736
285.541
285.436
285.395
285.397
285.441
285.552
285.782
286.185
286.8
285.86
285.664
285.556
285.512
285.512
285.553
285.653
285.862
286.241
286.816
285.851
285.671
285.575
285.537
285.54
285.581
285.678
285.875
286.24
286.791
285.872
285.703
285.61
285.572
285.573
285.613
285.707
285.895
286.249
286.785
285.976
285.806
285.707
285.658
285.653
285.692
285.789
285.976
286.326
286.856
286.068
285.89
285.776
285.712
285.695
285.729
285.831
286.024
286.381
286.918
286.191
286.004
285.875
285.794
285.764
285.792
285.896
286.095
286.455
286.994
286.264
286.076
285.935
285.838
285.792
285.809
285.908
286.103
286.44
286.943
286.732
286.555
286.407
286.301
286.248
286.26
286.359
286.558
286.878
287.282
285.433
285.397
285.386
285.383
285.384
285.388
285.398
285.419
285.482
285.7
285.819
285.635
285.536
285.497
285.497
285.533
285.631
285.842
286.221
286.806
285.925
285.742
285.643
285.603
285.601
285.634
285.719
285.907
286.259
286.807
285.899
285.74
285.656
285.625
285.626
285.657
285.734
285.902
286.231
286.753
285.909
285.766
285.691
285.66
285.661
285.692
285.764
285.915
286.219
286.717
285.996
285.856
285.776
285.739
285.736
285.768
285.844
285.99
286.278
286.755
286.068
285.923
285.832
285.782
285.772
285.803
285.885
286.037
286.32
286.788
286.175
286.023
285.919
285.857
285.838
285.867
285.955
286.114
286.393
286.845
286.229
286.076
285.963
285.888
285.858
285.881
285.969
286.128
286.384
286.777
286.676
286.532
286.412
286.33
286.294
286.314
286.404
286.569
286.813
287.105
285.545
285.515
285.507
285.504
285.505
285.508
285.514
285.532
285.584
285.775
285.887
285.713
285.622
285.586
285.584
285.614
285.7
285.893
286.25
286.81
285.974
285.805
285.716
285.68
285.676
285.702
285.775
285.943
286.273
286.8
285.933
285.793
285.723
285.696
285.696
285.719
285.779
285.922
286.219
286.719
285.936
285.817
285.756
285.732
285.732
285.755
285.809
285.929
286.191
286.657
286.007
285.895
285.833
285.804
285.802
285.827
285.884
285.996
286.231
286.664
286.061
285.946
285.875
285.838
285.832
285.858
285.922
286.037
286.259
286.668
286.157
286.037
285.956
285.909
285.897
285.924
285.995
286.117
286.33
286.707
286.194
286.073
285.984
285.928
285.909
285.932
286.006
286.132
286.322
286.624
286.619
286.505
286.411
286.349
286.326
286.348
286.424
286.556
286.738
286.944
285.65
285.625
285.619
285.617
285.617
285.619
285.624
285.637
285.68
285.843
285.94
285.777
285.695
285.663
285.66
285.684
285.759
285.934
286.269
286.807
286.009
285.855
285.777
285.745
285.741
285.761
285.823
285.972
286.279
286.788
285.955
285.836
285.777
285.755
285.754
285.77
285.817
285.936
286.203
286.683
285.955
285.859
285.811
285.792
285.792
285.807
285.846
285.94
286.163
286.6
286.013
285.926
285.878
285.857
285.855
285.873
285.915
285.998
286.188
286.581
286.051
285.963
285.909
285.882
285.878
285.899
285.946
286.031
286.202
286.558
286.138
286.047
285.985
285.951
285.944
285.967
286.022
286.113
286.271
286.584
286.159
286.066
285.998
285.957
285.945
285.967
286.026
286.122
286.26
286.489
286.563
286.475
286.403
286.357
286.343
286.364
286.426
286.527
286.66
286.802
285.747
285.726
285.722
285.72
285.72
285.721
285.725
285.735
285.769
285.905
285.978
285.83
285.758
285.73
285.727
285.746
285.809
285.963
286.275
286.792
286.033
285.897
285.831
285.804
285.8
285.815
285.865
285.994
286.276
286.769
285.97
285.87
285.824
285.806
285.804
285.815
285.851
285.947
286.183
286.641
285.969
285.894
285.858
285.844
285.842
285.853
285.88
285.951
286.137
286.543
286.017
285.951
285.915
285.9
285.899
285.911
285.941
286.001
286.15
286.502
286.041
285.976
285.936
285.916
285.913
285.929
285.964
286.025
286.153
286.458
286.123
286.056
286.011
285.986
285.982
286
286.041
286.107
286.222
286.476
286.126
286.057
286.007
285.977
285.97
285.989
286.034
286.105
286.204
286.372
286.508
286.443
286.389
286.356
286.347
286.366
286.415
286.49
286.585
286.681
285.836
285.819
285.816
285.814
285.814
285.815
285.817
285.825
285.851
285.96
286.004
285.874
285.814
285.79
285.787
285.801
285.851
285.983
286.266
286.765
286.05
285.935
285.881
285.86
285.856
285.867
285.905
286.012
286.265
286.739
285.981
285.901
285.865
285.852
285.85
285.857
285.882
285.957
286.158
286.589
285.982
285.926
285.899
285.889
285.888
285.894
285.913
285.964
286.114
286.482
286.02
285.973
285.947
285.936
285.935
285.944
285.964
286.007
286.12
286.426
286.033
285.986
285.957
285.943
285.942
285.953
285.978
286.021
286.114
286.366
286.113
286.066
286.033
286.016
286.014
286.028
286.058
286.105
286.186
286.384
286.097
286.046
286.01
285.989
285.985
286
286.035
286.085
286.155
286.275
286.457
286.41
286.371
286.347
286.343
286.358
286.395
286.449
286.516
286.58
285.92
285.905
285.902
285.901
285.901
285.902
285.903
285.908
285.926
286.01
286.02
285.911
285.863
285.845
285.842
285.852
285.889
285.994
286.244
286.72
286.064
285.971
285.931
285.915
285.912
285.919
285.946
286.03
286.246
286.694
285.99
285.93
285.904
285.895
285.893
285.898
285.915
285.969
286.131
286.525
285.997
285.956
285.937
285.93
285.929
285.934
285.946
285.982
286.095
286.416
286.026
285.993
285.975
285.967
285.967
285.973
285.988
286.017
286.099
286.352
286.027
285.996
285.976
285.966
285.966
285.974
285.992
286.022
286.086
286.284
286.109
286.077
286.054
286.042
286.041
286.052
286.074
286.107
286.163
286.31
286.07
286.034
286.009
285.994
285.992
286.004
286.029
286.065
286.114
286.195
286.411
286.378
286.35
286.334
286.332
286.344
286.371
286.409
286.456
286.498
286.001
285.988
285.986
285.986
285.986
285.986
285.987
285.99
286.001
286.061
286.029
285.943
285.908
285.895
285.893
285.899
285.924
286.002
286.208
286.651
286.08
286.01
285.982
285.972
285.969
285.973
285.992
286.051
286.223
286.631
286.002
285.959
285.942
285.936
285.935
285.938
285.949
285.986
286.107
286.446
286.012
285.984
285.972
285.967
285.967
285.971
285.98
286.003
286.083
286.344
286.032
286.01
285.998
285.993
285.993
285.999
286.009
286.029
286.085
286.279
286.025
286.004
285.991
285.985
285.985
285.992
286.005
286.025
286.068
286.211
286.109
286.088
286.073
286.065
286.065
286.073
286.089
286.113
286.151
286.25
286.043
286.019
286.001
285.991
285.991
286
286.018
286.044
286.077
286.129
286.373
286.35
286.331
286.32
286.319
286.329
286.348
286.375
286.408
286.435
286.091
286.082
286.081
286.081
286.081
286.081
286.081
286.083
286.089
286.127
286.034
285.972
285.949
285.941
285.94
285.944
285.959
286.01
286.162
286.55
286.1
286.053
286.035
286.03
286.029
286.032
286.043
286.081
286.202
286.545
286.018
285.99
285.98
285.976
285.977
285.98
285.988
286.011
286.09
286.355
286.028
286.01
286.003
286
286.001
286.005
286.012
286.028
286.079
286.268
286.037
286.023
286.016
286.013
286.014
286.019
286.028
286.043
286.078
286.209
286.023
286.01
286.001
285.998
285.999
286.005
286.015
286.03
286.058
286.147
286.106
286.092
286.082
286.077
286.077
286.084
286.097
286.115
286.141
286.201
286.009
285.993
285.981
285.975
285.975
285.982
285.996
286.015
286.037
286.069
286.349
286.333
286.32
286.313
286.313
286.321
286.335
286.355
286.378
286.396
286.219
286.21
286.209
286.209
286.209
286.209
286.21
286.211
286.214
286.234
286.035
285.995
285.983
285.979
285.98
285.984
285.994
286.023
286.115
286.409
286.127
286.098
286.088
286.085
286.087
286.091
286.101
286.124
286.196
286.439
286.042
286.025
286.019
286.018
286.02
286.026
286.034
286.051
286.095
286.264
286.046
286.034
286.029
286.028
286.03
286.036
286.045
286.059
286.089
286.201
286.041
286.032
286.027
286.025
286.028
286.034
286.043
286.057
286.08
286.153
286.019
286.011
286.006
286.004
286.006
286.012
286.022
286.035
286.053
286.099
286.088
286.078
286.07
286.067
286.069
286.075
286.087
286.102
286.122
286.153
285.958
285.947
285.939
285.935
285.937
285.943
285.954
285.968
285.985
286.002
286.353
286.341
286.331
286.327
286.328
286.334
286.346
286.361
286.379
286.392
286.371
286.367
286.366
286.365
286.366
286.368
286.371
286.374
286.379
286.388
286.033
286.012
286.006
286.005
286.008
286.015
286.027
286.046
286.09
286.245
286.163
286.144
286.136
286.134
286.138
286.146
286.16
286.182
286.222
286.345
286.08
286.068
286.063
286.063
286.067
286.075
286.088
286.107
286.136
286.214
286.069
286.059
286.054
286.053
286.057
286.065
286.078
286.096
286.12
286.173
286.048
286.039
286.035
286.034
286.037
286.044
286.056
286.073
286.094
286.129
286.016
286.009
286.004
286.003
286.006
286.013
286.024
286.039
286.057
286.079
286.05
286.04
286.034
286.031
286.033
286.04
286.052
286.067
286.086
286.107
285.883
285.875
285.869
285.867
285.869
285.875
285.885
285.898
285.912
285.921
286.375
286.365
286.357
286.354
286.355
286.362
286.372
286.386
286.402
286.415
293.712
295.239
295.752
294.791
295.31
297.265
298.065
297.292
296.11
298.499
299.489
298.846
296.468
299.269
300.43
299.972
296.544
299.723
301.009
300.693
296.506
300.019
301.391
301.169
296.389
300.199
301.634
301.482
296.283
300.338
301.817
301.727
295.983
300.255
301.806
301.691
295.91
300.348
302.126
302.216
290.076
290.575
290.604
290.169
291.763
292.385
292.497
292.143
292.893
293.647
293.77
293.285
293.777
294.678
294.837
294.25
294.441
295.503
295.718
295.048
294.976
296.208
296.49
295.744
295.357
296.753
297.097
296.27
295.679
297.218
297.613
296.707
295.859
297.53
297.993
297.064
296.125
297.891
298.483
297.68
287.028
287.234
287.283
287.179
288.949
289.258
289.368
289.29
289.669
290.073
290.204
290.08
290.358
290.87
291.025
290.844
291.013
291.645
291.828
291.588
291.672
292.431
292.646
292.348
292.236
293.126
293.37
293.011
292.757
293.762
294.03
293.606
293.14
294.219
294.485
293.994
293.695
294.736
294.991
294.544
286.398
286.564
286.601
286.514
288.139
288.35
288.435
288.396
288.526
288.775
288.88
288.85
288.928
289.233
289.361
289.329
289.371
289.749
289.904
289.862
289.894
290.359
290.543
290.484
290.384
290.943
291.154
291.068
290.873
291.522
291.753
291.632
291.298
292.008
292.238
292.074
291.973
292.629
292.855
292.722
286.068
286.214
286.242
286.155
287.727
287.895
287.958
287.915
287.948
288.127
288.203
288.18
288.165
288.364
288.46
288.458
288.433
288.669
288.79
288.807
288.81
289.1
289.252
289.28
289.186
289.542
289.724
289.753
289.583
290.009
290.215
290.233
289.937
290.412
290.621
290.607
290.531
290.943
291.153
291.156
285.959
286.1
286.125
286.033
287.534
287.688
287.741
287.691
287.655
287.806
287.866
287.834
287.764
287.917
287.988
287.98
287.916
288.081
288.172
288.191
288.181
288.374
288.491
288.536
288.457
288.692
288.837
288.901
288.764
289.049
289.219
289.291
289.034
289.359
289.535
289.585
289.528
289.789
289.964
290.037
285.932
286.069
286.091
285.998
287.428
287.574
287.621
287.569
287.482
287.618
287.668
287.63
287.519
287.646
287.702
287.686
287.594
287.721
287.79
287.799
287.781
287.92
288.008
288.045
287.984
288.146
288.257
288.319
288.22
288.416
288.549
288.627
288.414
288.64
288.778
288.84
288.814
288.974
289.112
289.205
285.951
286.084
286.104
286.011
287.373
287.512
287.557
287.505
287.381
287.508
287.553
287.513
287.365
287.48
287.526
287.504
287.384
287.491
287.545
287.545
287.512
287.62
287.687
287.713
287.658
287.777
287.862
287.911
287.839
287.979
288.081
288.146
287.966
288.128
288.232
288.283
288.292
288.386
288.489
288.58
285.991
286.119
286.138
286.045
287.341
287.475
287.518
287.468
287.319
287.44
287.481
287.442
287.265
287.372
287.413
287.389
287.242
287.338
287.383
287.376
287.321
287.413
287.467
287.481
287.418
287.514
287.58
287.614
287.553
287.66
287.738
287.786
287.622
287.744
287.819
287.853
287.894
287.942
288.017
288.098
286.039
286.162
286.178
286.086
287.322
287.45
287.491
287.445
287.28
287.396
287.435
287.398
287.198
287.3
287.339
287.313
287.143
287.233
287.273
287.261
287.181
287.265
287.31
287.315
287.236
287.32
287.372
287.392
287.33
287.418
287.478
287.508
287.344
287.44
287.495
287.511
287.576
287.593
287.647
287.716
286.086
286.202
286.216
286.127
287.307
287.43
287.47
287.427
287.253
287.365
287.404
287.369
287.15
287.25
287.288
287.261
287.07
287.159
287.196
287.18
287.075
287.156
287.196
287.191
287.092
287.17
287.214
287.221
287.15
287.228
287.276
287.289
287.111
287.19
287.23
287.231
287.316
287.312
287.35
287.409
286.128
286.237
286.249
286.163
287.291
287.409
287.449
287.409
287.233
287.342
287.38
287.348
287.114
287.213
287.249
287.222
287.015
287.104
287.139
287.118
286.99
287.072
287.107
287.094
286.973
287.051
287.088
287.081
287
287.074
287.112
287.109
286.911
286.979
287.007
286.996
287.099
287.082
287.108
287.159
286.16
286.262
286.272
286.19
287.272
287.387
287.426
287.39
287.215
287.322
287.36
287.329
287.081
287.181
287.217
287.187
286.968
287.059
287.093
287.067
286.918
287.003
287.035
287.013
286.872
286.95
286.982
286.963
286.872
286.945
286.974
286.957
286.737
286.796
286.816
286.797
286.918
286.892
286.91
286.955
286.184
286.276
286.285
286.209
287.248
287.361
287.4
287.365
287.196
287.302
287.34
287.309
287.048
287.149
287.185
287.152
286.924
287.019
287.051
287.017
286.854
286.941
286.97
286.937
286.78
286.86
286.886
286.854
286.76
286.831
286.853
286.824
286.584
286.635
286.649
286.625
286.768
286.738
286.749
286.789
286.198
286.282
286.289
286.22
287.218
287.33
287.369
287.334
287.172
287.279
287.317
287.283
287.01
287.113
287.147
287.108
286.878
286.975
287.004
286.962
286.788
286.877
286.902
286.859
286.69
286.77
286.791
286.748
286.657
286.725
286.741
286.702
286.449
286.493
286.502
286.476
286.645
286.613
286.621
286.655
286.207
286.282
286.288
286.226
287.178
287.29
287.329
287.291
287.139
287.249
287.285
287.246
286.959
287.065
287.096
287.049
286.821
286.92
286.945
286.893
286.715
286.804
286.823
286.77
286.596
286.674
286.688
286.637
286.557
286.621
286.631
286.587
286.33
286.366
286.371
286.346
286.546
286.515
286.52
286.549
286.216
286.281
286.286
286.233
287.12
287.235
287.271
287.226
287.09
287.203
287.235
287.187
286.888
286.995
287.022
286.964
286.745
286.842
286.862
286.8
286.623
286.708
286.722
286.661
286.49
286.561
286.57
286.515
286.457
286.512
286.518
286.474
286.223
286.25
286.253
286.232
286.47
286.441
286.445
286.469
286.24
286.295
286.299
286.255
287.031
287.148
287.179
287.124
287.011
287.124
287.151
287.09
286.784
286.889
286.909
286.841
286.638
286.729
286.742
286.674
286.507
286.582
286.59
286.528
286.37
286.428
286.433
286.381
286.352
286.395
286.398
286.36
286.123
286.14
286.142
286.127
286.42
286.397
286.399
286.418
286.305
286.348
286.352
286.318
286.883
286.996
287.02
286.952
286.881
286.988
287.006
286.935
286.64
286.733
286.744
286.672
286.498
286.574
286.58
286.515
286.37
286.428
286.431
286.378
286.243
286.284
286.285
286.246
286.242
286.27
286.271
286.245
286.021
286.029
286.03
286.022
286.409
286.393
286.395
286.408
286.424
286.45
286.452
286.433
286.634
286.728
286.741
286.671
286.684
286.768
286.777
286.71
286.47
286.535
286.539
286.481
286.355
286.404
286.406
286.36
286.249
286.284
286.285
286.251
286.146
286.167
286.167
286.146
286.147
286.161
286.162
286.149
285.914
285.915
285.915
285.914
286.431
286.427
286.428
286.433
287.911
286.52
285.68
285.258
284.949
284.703
284.501
284.325
284.152
283.958
290.099
288.59
287.404
286.679
286.11
285.668
285.307
284.998
284.714
284.437
290.6
289.069
287.751
286.99
286.395
285.952
285.598
285.3
285.03
284.772
291.034
289.542
288.117
287.332
286.713
286.262
285.9
285.597
285.326
285.073
291.456
290.005
288.507
287.723
287.096
286.649
286.283
285.973
285.699
285.451
291.939
290.505
288.97
288.21
287.598
287.169
286.81
286.5
286.221
285.972
292.333
290.886
289.343
288.623
288.052
287.667
287.334
287.038
286.765
286.522
292.708
291.221
289.671
289.001
288.491
288.162
287.867
287.593
287.325
287.072
293.033
291.351
289.754
289.137
288.687
288.425
288.188
287.969
287.747
287.514
294.195
292.284
290.66
289.994
289.489
289.179
288.911
288.68
288.462
288.224
288.405
287.169
286.258
285.639
285.222
284.926
284.702
284.522
284.359
284.184
290.518
288.948
287.691
286.834
286.217
285.756
285.396
285.101
284.841
284.597
290.967
289.183
287.808
286.94
286.326
285.879
285.538
285.265
285.028
284.806
291.287
289.372
287.926
287.064
286.449
286.008
285.672
285.403
285.172
284.96
291.544
289.557
288.076
287.241
286.634
286.205
285.874
285.606
285.377
285.175
291.816
289.799
288.318
287.532
286.948
286.542
286.221
285.955
285.727
285.527
291.98
289.956
288.504
287.786
287.244
286.879
286.58
286.327
286.103
285.907
292.098
290.084
288.674
288.037
287.555
287.246
286.979
286.744
286.522
286.317
292.059
290.043
288.65
288.111
287.706
287.471
287.255
287.062
286.873
286.674
292.505
290.56
289.246
288.746
288.34
288.097
287.873
287.682
287.501
287.315
286.794
286.261
285.843
285.526
285.275
285.07
284.898
284.747
284.601
284.437
288.879
288.142
287.442
286.853
286.366
285.97
285.645
285.371
285.122
284.882
289.446
288.552
287.728
287.068
286.542
286.131
285.807
285.541
285.303
285.076
289.926
288.893
287.96
287.245
286.686
286.258
285.925
285.653
285.415
285.195
290.361
289.215
288.192
287.444
286.867
286.435
286.097
285.821
285.581
285.367
290.811
289.577
288.493
287.74
287.165
286.741
286.406
286.13
285.887
285.675
291.155
289.85
288.73
287.996
287.444
287.046
286.728
286.46
286.219
286.008
291.441
290.076
288.94
288.248
287.738
287.382
287.09
286.835
286.596
286.377
291.558
290.111
288.957
288.331
287.883
287.587
287.337
287.117
286.905
286.69
292.038
290.592
289.49
288.905
288.466
288.171
287.919
287.702
287.501
287.305
286.245
285.875
285.612
285.417
285.258
285.122
285.002
284.89
284.775
284.634
288.179
287.695
287.202
286.76
286.382
286.065
285.799
285.567
285.347
285.125
288.621
288.075
287.509
287.009
286.592
286.254
285.98
285.745
285.526
285.31
289.047
288.423
287.775
287.216
286.757
286.39
286.094
285.844
285.617
285.402
289.49
288.779
288.048
287.439
286.946
286.559
286.247
285.985
285.751
285.538
289.991
289.193
288.39
287.75
287.242
286.847
286.529
286.26
286.019
285.805
290.421
289.533
288.672
288.021
287.515
287.13
286.818
286.551
286.308
286.093
290.807
289.826
288.922
288.284
287.8
287.44
287.144
286.884
286.64
286.417
291.038
289.925
288.981
288.381
287.942
287.626
287.361
287.129
286.908
286.69
291.536
290.389
289.485
288.919
288.489
288.177
287.914
287.686
287.477
287.281
285.907
285.607
285.427
285.308
285.215
285.134
285.059
284.985
284.899
284.785
287.715
287.331
286.959
286.628
286.343
286.102
285.896
285.708
285.521
285.323
288.019
287.635
287.236
286.874
286.564
286.307
286.09
285.895
285.704
285.505
288.329
287.933
287.492
287.086
286.736
286.446
286.202
285.986
285.781
285.579
288.69
288.265
287.77
287.316
286.929
286.61
286.343
286.109
285.891
285.687
289.149
288.68
288.129
287.637
287.223
286.886
286.603
286.355
286.127
285.918
289.574
289.045
288.439
287.921
287.496
287.153
286.865
286.612
286.376
286.164
289.976
289.372
288.719
288.195
287.774
287.441
287.158
286.905
286.666
286.446
290.224
289.497
288.806
288.302
287.91
287.605
287.345
287.113
286.892
286.677
290.682
289.953
289.3
288.82
288.434
288.131
287.872
287.644
287.435
287.244
285.781
285.504
285.356
285.271
285.213
285.164
285.117
285.068
285.005
284.912
287.481
287.135
286.82
286.55
286.324
286.136
285.974
285.822
285.664
285.488
287.669
287.348
287.036
286.761
286.528
286.335
286.168
286.01
285.846
285.666
287.868
287.568
287.245
286.944
286.683
286.461
286.268
286.089
285.909
285.724
288.128
287.839
287.489
287.155
286.861
286.611
286.392
286.192
285.998
285.809
288.508
288.213
287.831
287.464
287.143
286.869
286.631
286.413
286.205
286.008
288.883
288.561
288.14
287.746
287.406
287.118
286.867
286.638
286.419
286.217
289.254
288.885
288.427
288.02
287.675
287.384
287.129
286.895
286.669
286.459
289.471
289.006
288.523
288.13
287.803
287.529
287.287
287.067
286.856
286.65
289.88
289.454
289.014
288.637
288.311
288.037
287.794
287.577
287.376
287.195
285.745
285.482
285.352
285.286
285.246
285.215
285.186
285.153
285.106
285.03
287.355
287.032
286.751
286.519
286.331
286.179
286.048
285.924
285.787
285.628
287.46
287.172
286.91
286.688
286.508
286.36
286.231
286.103
285.961
285.799
287.569
287.315
287.058
286.826
286.628
286.46
286.31
286.163
286.008
285.84
287.741
287.513
287.248
286.996
286.775
286.583
286.41
286.244
286.075
285.903
288.038
287.827
287.547
287.273
287.029
286.815
286.622
286.438
286.254
286.074
288.346
288.131
287.83
287.535
287.272
287.041
286.831
286.632
286.436
286.249
288.663
288.424
288.101
287.794
287.523
287.282
287.063
286.855
286.649
286.455
288.823
288.518
288.19
287.9
287.641
287.409
287.195
286.996
286.801
286.611
289.18
288.956
288.677
288.399
288.138
287.903
287.686
287.487
287.301
287.134
285.759
285.51
285.392
285.337
285.307
285.286
285.267
285.244
285.209
285.144
287.294
286.989
286.731
286.523
286.361
286.233
286.124
286.018
285.897
285.75
287.342
287.075
286.843
286.655
286.508
286.391
286.287
286.181
286.057
285.909
287.382
287.151
286.93
286.74
286.584
286.454
286.336
286.215
286.082
285.93
287.478
287.277
287.059
286.859
286.688
286.541
286.406
286.27
286.126
285.972
287.699
287.522
287.3
287.088
286.903
286.739
286.586
286.435
286.277
286.117
287.938
287.769
287.538
287.314
287.114
286.934
286.765
286.598
286.428
286.261
288.192
288.015
287.776
287.547
287.34
287.149
286.968
286.79
286.61
286.436
288.286
288.074
287.85
287.642
287.445
287.257
287.077
286.904
286.731
286.56
288.6
288.495
288.328
288.132
287.933
287.739
287.554
287.379
287.213
287.064
285.798
285.564
285.456
285.409
285.385
285.37
285.357
285.34
285.313
285.259
287.265
286.978
286.738
286.549
286.404
286.293
286.199
286.105
285.995
285.858
287.275
287.026
286.814
286.648
286.523
286.425
286.339
286.247
286.137
285.999
287.264
287.045
286.845
286.681
286.551
286.447
286.352
286.252
286.135
285.998
287.299
287.108
286.913
286.745
286.608
286.493
286.388
286.278
286.156
286.02
287.452
287.284
287.092
286.921
286.777
286.651
286.533
286.411
286.279
286.139
287.624
287.468
287.276
287.101
286.949
286.812
286.679
286.544
286.4
286.255
287.815
287.662
287.473
287.301
287.145
286.998
286.854
286.707
286.554
286.403
287.848
287.683
287.525
287.38
287.235
287.089
286.942
286.797
286.648
286.5
288.126
288.087
287.991
287.859
287.711
287.559
287.407
287.258
287.114
286.986