/*--------------------------------*- C++ -*----------------------------------*\
| =========                 |                                                 |
| \\      /  F ield         | foam-extend: Open Source CFD                    |
|  \\    /   O peration     | Version:     4.0                                |
|   \\  /    A nd           | Web:         http://www.foam-extend.org         |
|    \\/     M anipulation  |                                                 |
\*---------------------------------------------------------------------------*/
FoamFile
{
    version     2.0;
    format      ascii;
    class       volVectorField;
    location    "200";
    object      Urel;
}
// * * * * * * * * * * * * * * * * * * * * * * * * * * * * * * * * * * * * * //

dimensions      [0 1 -1 0 0 0 0];

internalField   nonuniform List<vector> 
34480
(
(183.318 -9.95571 -18.3294)
(184.376 -9.32689 -20.421)
(185.034 -8.52792 -22.5494)
(185.494 -7.5576 -24.7454)
(185.812 -6.42906 -27.1355)
(185.996 -5.13573 -29.9003)
(185.958 -3.64314 -33.413)
(185.279 -1.81668 -37.9575)
(182.535 0.565497 -45.3766)
(174.743 4.99464 -71.4422)
(179.813 -14.4616 -25.1587)
(181.497 -13.2175 -27.6248)
(182.515 -11.7859 -30.1109)
(183.046 -10.2005 -32.5501)
(183.186 -8.50005 -35.0643)
(182.944 -6.72005 -37.8531)
(182.046 -4.89897 -41.297)
(179.945 -2.95477 -46.0503)
(175.183 -0.671282 -53.7989)
(166.516 3.94114 -83.994)
(178.171 -19.4694 -31.2126)
(179.821 -17.7471 -33.9655)
(180.858 -15.7885 -36.7534)
(181.459 -13.6834 -39.4279)
(181.78 -11.5171 -42.1646)
(181.968 -9.31807 -45.2427)
(181.755 -7.11619 -49.1054)
(180.525 -4.79917 -54.7201)
(176.427 -2.1528 -63.5652)
(167.952 3.0025 -97.1633)
(176.875 -23.3666 -37.6773)
(178.557 -21.0304 -40.7278)
(179.685 -18.4843 -43.8145)
(180.463 -15.7982 -46.7448)
(181.04 -13.0563 -49.7183)
(181.585 -10.273 -53.0531)
(181.905 -7.50332 -57.2306)
(181.519 -4.66684 -63.5712)
(178.304 -1.54095 -73.5357)
(170.118 4.10218 -109.814)
(175.23 -27.7955 -43.7743)
(177.024 -24.9583 -47.1296)
(178.332 -21.9237 -50.5589)
(179.379 -18.7214 -53.8009)
(180.295 -15.4485 -57.0694)
(181.252 -12.1074 -60.7045)
(182.109 -8.75383 -65.2014)
(182.54 -5.31508 -72.2076)
(180.301 -1.54031 -83.3291)
(172.421 4.70614 -121.842)
(172.858 -31.0223 -50.5456)
(174.833 -27.6052 -54.1649)
(176.389 -24.0278 -57.8381)
(177.753 -20.265 -61.3056)
(179.049 -16.4051 -64.7627)
(180.464 -12.4452 -68.5759)
(181.892 -8.43982 -73.2393)
(183.135 -4.34295 -80.6711)
(181.971 0.108867 -92.7547)
(174.468 6.89623 -133.058)
(170.361 -35.116 -56.9752)
(172.616 -31.2598 -60.7956)
(174.493 -27.2655 -64.7232)
(176.224 -23.0553 -68.4255)
(177.918 -18.7281 -72.0973)
(179.792 -14.2718 -76.1105)
(181.794 -9.70863 -80.9743)
(183.832 -4.9786 -88.7985)
(183.789 0.285342 -101.869)
(176.65 7.82684 -143.671)
(167.914 -37.6531 -64.4982)
(170.439 -33.3296 -68.4296)
(172.608 -28.8681 -72.4651)
(174.652 -24.1553 -76.2933)
(176.655 -19.2775 -80.0578)
(178.865 -14.254 -84.1136)
(181.324 -9.07794 -88.969)
(184.057 -3.69558 -96.8341)
(185.178 2.3523 -110.498)
(178.548 10.5511 -153.275)
(165.931 -41.5484 -71.6306)
(168.644 -36.8852 -75.4233)
(171.102 -32.1624 -79.4233)
(173.558 -27.2145 -83.2922)
(176.01 -22.1058 -87.1912)
(178.666 -16.8562 -91.4334)
(181.663 -11.3985 -96.5635)
(185.172 -5.61105 -104.743)
(187.401 1.31275 -119.259)
(180.819 10.86 -162.615)
(164.889 -43.2723 -80.4357)
(167.416 -38.3613 -84.2041)
(169.737 -33.3747 -88.1343)
(171.982 -28.1812 -91.9797)
(174.128 -22.7652 -95.8681)
(176.348 -17.1223 -100.078)
(178.822 -11.1542 -105.129)
(181.966 -4.65239 -112.948)
(184.75 3.2135 -127.083)
(179.607 14.3011 -169.03)
(181.484 1.53057 3.55308)
(182.572 0.833164 2.40863)
(183.143 0.218284 1.09852)
(183.409 -0.285794 -0.329757)
(183.398 -0.680841 -1.93144)
(183.044 -0.963395 -3.74197)
(182.137 -1.124 -5.82768)
(180.146 -1.14918 -8.19591)
(176.626 -1.08996 -10.376)
(170.813 -0.566856 -14.1743)
(178.042 1.04812 4.21691)
(179.816 0.405301 2.87107)
(180.843 -0.111723 1.3484)
(181.3 -0.540941 -0.265542)
(181.258 -0.899703 -2.01788)
(180.645 -1.21669 -3.97383)
(179.042 -1.54358 -6.23392)
(175.618 -1.89547 -9.05163)
(169.554 -2.34376 -11.7648)
(161.857 -1.80615 -19.926)
(176.631 0.0456331 5.56177)
(178.388 -0.653314 4.12393)
(179.47 -1.16078 2.45122)
(180.03 -1.56882 0.704801)
(180.171 -1.94752 -1.19797)
(179.921 -2.34094 -3.39174)
(178.89 -2.80474 -6.10053)
(176.142 -3.29143 -9.90063)
(170.452 -3.86603 -14.0381)
(163.141 -3.05681 -26.6453)
(175.592 0.122776 6.47109)
(177.368 -0.448153 4.94997)
(178.534 -0.865549 3.16346)
(179.266 -1.20276 1.30644)
(179.659 -1.52715 -0.740071)
(179.75 -1.86802 -3.14426)
(179.188 -2.30186 -6.16409)
(177.122 -2.79501 -10.7547)
(172.036 -3.397 -16.2524)
(165.086 -2.30405 -33.2053)
(174.188 -0.35595 7.75114)
(176.052 -0.906745 6.15493)
(177.378 -1.33327 4.22503)
(178.361 -1.66212 2.21384)
(179.084 -1.96884 -0.02631)
(179.584 -2.27461 -2.68966)
(179.527 -2.66172 -6.01666)
(178.182 -3.09127 -11.314)
(173.84 -3.56295 -18.1477)
(167.166 -2.07901 -39.3053)
(172.035 0.390214 8.34669)
(174.053 -0.057667 6.72228)
(175.602 -0.441579 4.75884)
(176.886 -0.73025 2.69283)
(177.977 -0.988247 0.384685)
(178.938 -1.22231 -2.409)
(179.444 -1.5059 -5.89389)
(178.873 -1.81948 -11.6639)
(175.431 -2.1214 -19.6043)
(169.029 -0.331078 -44.6175)
(169.737 0.242018 9.27709)
(171.997 -0.2432 7.69329)
(173.841 -0.705634 5.68851)
(175.475 -1.05477 3.56442)
(176.956 -1.3596 1.16999)
(178.388 -1.61606 -1.76451)
(179.479 -1.86903 -5.43341)
(179.709 -2.09243 -11.6286)
(177.275 -2.09448 -20.6786)
(171.122 0.119534 -49.1978)
(167.41 1.6763 9.09993)
(169.911 1.19045 7.64495)
(172.025 0.696889 5.76148)
(173.961 0.323202 3.71234)
(175.758 0.0226354 1.38414)
(177.561 -0.212269 -1.51296)
(179.154 -0.384537 -5.16414)
(180.134 -0.492874 -11.452)
(178.824 -0.205985 -21.2334)
(173.09 2.16028 -52.6218)
(165.505 1.7417 9.27166)
(168.157 1.119 8.17746)
(170.537 0.409624 6.54073)
(172.854 -0.212266 4.66036)
(175.074 -0.771075 2.39778)
(177.335 -1.26329 -0.539141)
(179.505 -1.61746 -4.40368)
(181.342 -1.80572 -11.0249)
(181.241 -1.1467 -21.8363)
(175.601 1.69111 -55.4121)
(164.424 3.99945 7.81062)
(166.918 3.16771 7.00416)
(169.23 2.25194 5.67703)
(171.44 1.38172 4.03462)
(173.489 0.611459 1.98167)
(175.496 -0.0365699 -0.748048)
(177.388 -0.450897 -4.44363)
(179.156 -0.503244 -10.7326)
(179.856 0.530164 -21.6804)
(175.561 4.45005 -55.6334)
(179.967 0.910785 2.80189)
(180.978 0.388285 1.90989)
(181.454 -0.091219 0.841022)
(181.607 -0.491345 -0.308503)
(181.471 -0.812884 -1.55768)
(181 -1.05341 -2.87344)
(180.07 -1.21381 -4.2128)
(178.408 -1.30628 -5.45052)
(175.45 -1.40512 -6.20178)
(170.447 -1.34352 -6.72591)
(176.467 0.55634 3.58295)
(178.223 0.0313562 2.44339)
(179.202 -0.393873 1.11869)
(179.581 -0.761072 -0.28954)
(179.44 -1.08281 -1.79285)
(178.691 -1.38451 -3.40052)
(176.947 -1.70723 -5.07254)
(173.568 -2.07924 -6.77916)
(167.745 -2.56379 -7.82831)
(159.936 -2.53682 -10.0078)
(175.194 -0.317845 4.97735)
(176.968 -0.944453 3.70716)
(178.034 -1.39474 2.18323)
(178.543 -1.76138 0.563954)
(178.58 -2.10309 -1.18674)
(178.104 -2.46875 -3.12488)
(176.717 -2.91394 -5.31356)
(173.622 -3.41447 -7.91763)
(167.525 -4.0529 -9.96943)
(159.12 -3.93106 -14.4128)
(174.382 -0.148215 5.87956)
(176.178 -0.658903 4.48731)
(177.324 -1.03172 2.81926)
(177.987 -1.3411 1.05019)
(178.248 -1.63924 -0.896836)
(178.057 -1.96528 -3.11432)
(176.999 -2.3979 -5.7011)
(174.255 -2.93032 -9.09626)
(168.09 -3.67692 -12.2038)
(159.204 -3.47937 -19.2242)
(173.23 -0.582569 7.14624)
(175.102 -1.07948 5.65109)
(176.387 -1.46761 3.8217)
(177.273 -1.7759 1.87692)
(177.83 -2.06132 -0.304917)
(178.007 -2.35399 -2.84382)
(177.359 -2.74448 -5.83669)
(175.072 -3.22747 -10.0062)
(169.029 -3.92477 -14.2523)
(159.712 -3.51126 -24.1314)
(171.336 0.223091 7.71183)
(173.34 -0.178379 6.17133)
(174.824 -0.530054 4.29988)
(175.982 -0.806638 2.28948)
(176.877 -1.05511 0.0137696)
(177.479 -1.29051 -2.70736)
(177.323 -1.59835 -5.95624)
(175.609 -1.99335 -10.7197)
(169.912 -2.59589 -15.9803)
(160.26 -1.99107 -28.7624)
(169.303 0.0802394 8.62448)
(171.513 -0.364464 7.10722)
(173.259 -0.794296 5.18742)
(174.741 -1.12903 3.11154)
(176 -1.41962 0.732461)
(177.048 -1.66673 -2.17166)
(177.428 -1.93178 -5.69275)
(176.364 -2.22783 -11.0283)
(171.203 -2.5763 -17.3744)
(161.279 -1.65156 -33.0503)
(167.202 1.53517 8.41863)
(169.616 1.09115 7.01416)
(171.604 0.632137 5.21741)
(173.365 0.269348 3.22347)
(174.922 -0.0253465 0.916007)
(176.337 -0.254208 -1.96932)
(177.208 -0.43945 -5.54261)
(176.817 -0.619357 -11.1418)
(172.409 -0.697513 -18.3045)
(162.382 0.271052 -36.5297)
(165.515 1.568 8.59299)
(168.042 0.969118 7.49124)
(170.268 0.30848 5.90494)
(172.37 -0.272244 4.05872)
(174.298 -0.788278 1.81985)
(176.13 -1.22573 -1.08438)
(177.548 -1.52561 -4.86605)
(177.972 -1.68563 -10.9042)
(174.527 -1.30689 -19.2358)
(164.085 -0.0816876 -39.4147)
(164.465 3.78133 7.17017)
(166.848 2.98797 6.35962)
(169.046 2.14667 5.08634)
(171.101 1.34725 3.48381)
(172.939 0.647708 1.46514)
(174.615 0.0756008 -1.21946)
(175.89 -0.265674 -4.81518)
(176.404 -0.273419 -10.566)
(173.78 0.528775 -19.3244)
(163.817 2.76731 -39.8581)
(178.658 0.334112 2.12985)
(179.531 -0.0267662 1.49171)
(179.91 -0.376829 0.678901)
(179.995 -0.676751 -0.179772)
(179.826 -0.928179 -1.0874)
(179.383 -1.12785 -1.9773)
(178.606 -1.28227 -2.78332)
(177.358 -1.40726 -3.37794)
(175.297 -1.55272 -3.51301)
(171.645 -1.65275 -2.97415)
(174.997 0.059124 2.92302)
(176.675 -0.340629 2.01873)
(177.594 -0.666183 0.929917)
(177.914 -0.961503 -0.226024)
(177.725 -1.23517 -1.43277)
(176.969 -1.50872 -2.66646)
(175.341 -1.81263 -3.83556)
(172.348 -2.17074 -4.81288)
(167.451 -2.59588 -5.10658)
(160.913 -2.67554 -4.90489)
(173.823 -0.69737 4.3217)
(175.552 -1.22729 3.25288)
(176.57 -1.60576 1.92704)
(177.013 -1.92503 0.504564)
(176.965 -2.23155 -1.01679)
(176.384 -2.56722 -2.64075)
(174.939 -2.97874 -4.33192)
(172.015 -3.44919 -6.04443)
(166.735 -4.01242 -6.96951)
(159.685 -4.07004 -7.71971)
(173.201 -0.419932 5.193)
(174.962 -0.844815 3.96658)
(176.051 -1.1617 2.46787)
(176.622 -1.44411 0.859313)
(176.749 -1.72735 -0.899904)
(176.368 -2.0435 -2.84789)
(175.102 -2.46009 -4.97194)
(172.282 -2.98346 -7.38044)
(166.683 -3.70573 -9.0122)
(159.115 -3.84826 -11.0673)
(172.282 -0.796039 6.43451)
(174.112 -1.21663 5.07556)
(175.322 -1.55817 3.39329)
(176.082 -1.85115 1.58327)
(176.456 -2.13387 -0.445082)
(176.368 -2.42906 -2.75832)
(175.382 -2.8152 -5.34941)
(172.787 -3.30511 -8.50761)
(166.969 -4.04685 -10.9857)
(158.848 -4.15518 -14.7231)
(170.645 0.0779417 6.96207)
(172.591 -0.260071 5.53762)
(173.976 -0.574193 3.79849)
(174.977 -0.844091 1.9058)
(175.645 -1.09983 -0.245116)
(175.914 -1.3521 -2.77975)
(175.305 -1.67958 -5.69496)
(173.066 -2.11592 -9.47776)
(167.203 -2.85015 -12.7564)
(158.573 -2.93055 -18.3663)
(168.888 -0.0538993 7.85526)
(171.01 -0.446718 6.43187)
(172.627 -0.841372 4.63017)
(173.921 -1.16816 2.65662)
(174.916 -1.46269 0.378951)
(175.574 -1.72128 -2.37409)
(175.402 -2.00255 -5.62835)
(173.616 -2.33802 -10.0518)
(167.89 -2.88227 -14.2653)
(158.796 -2.78519 -21.9245)
(167.038 1.42782 7.62406)
(169.329 1.03105 6.2962)
(171.162 0.606928 4.61154)
(172.711 0.25233 2.71491)
(173.979 -0.0477882 0.500015)
(174.968 -0.287531 -2.25428)
(175.219 -0.494485 -5.60996)
(173.959 -0.726127 -10.3969)
(168.624 -1.05642 -15.3759)
(159.202 -1.0189 -24.9633)
(165.575 1.40326 7.84128)
(167.947 0.836361 6.76283)
(169.987 0.22231 5.2463)
(171.839 -0.32046 3.46474)
(173.438 -0.801621 1.29708)
(174.79 -1.19943 -1.47923)
(175.494 -1.46853 -5.02075)
(174.926 -1.61916 -10.2762)
(170.307 -1.45596 -16.4348)
(160.327 -1.27698 -27.5713)
(164.57 3.55281 6.4834)
(166.808 2.80811 5.6917)
(168.852 2.04002 4.48304)
(170.707 1.31008 2.94259)
(172.283 0.677764 0.995337)
(173.573 0.174651 -1.56801)
(174.228 -0.108102 -4.92714)
(173.767 -0.0901097 -9.93595)
(169.88 0.525109 -16.6299)
(160.044 1.6451 -27.9814)
(177.57 -0.133179 1.61422)
(178.292 -0.374539 1.17918)
(178.585 -0.621359 0.585008)
(178.638 -0.838763 -0.0277638)
(178.493 -1.03164 -0.664499)
(178.152 -1.19461 -1.25326)
(177.592 -1.33423 -1.74249)
(176.741 -1.46186 -2.04212)
(175.344 -1.59834 -2.03502)
(172.589 -1.68022 -1.60641)
(173.723 -0.364658 2.32763)
(175.289 -0.660176 1.64332)
(176.141 -0.896513 0.785787)
(176.427 -1.12318 -0.122491)
(176.247 -1.34588 -1.04922)
(175.57 -1.57995 -1.95537)
(174.159 -1.84536 -2.7503)
(171.628 -2.1565 -3.31222)
(167.589 -2.48475 -3.37503)
(162.074 -2.48647 -2.84443)
(172.597 -1.03958 3.67608)
(174.24 -1.4695 2.8125)
(175.194 -1.77289 1.6997)
(175.585 -2.04096 0.499712)
(175.503 -2.3091 -0.763199)
(174.921 -2.60881 -2.06182)
(173.586 -2.97492 -3.32287)
(171.029 -3.38926 -4.43618)
(166.666 -3.82437 -4.87973)
(160.848 -3.78774 -4.64226)
(172.116 -0.661461 4.48614)
(173.8 -0.98996 3.44224)
(174.816 -1.24436 2.13745)
(175.304 -1.49452 0.727468)
(175.343 -1.7608 -0.793855)
(174.877 -2.06452 -2.42469)
(173.603 -2.4557 -4.09386)
(171.006 -2.94151 -5.7516)
(166.274 -3.5538 -6.62186)
(160.074 -3.66926 -6.90297)
(171.392 -0.981253 5.68544)
(173.142 -1.31381 4.48535)
(174.258 -1.60233 2.97757)
(174.901 -1.87532 1.34308)
(175.131 -2.15503 -0.469328)
(174.875 -2.45559 -2.48372)
(173.763 -2.8344 -4.62907)
(171.23 -3.30665 -6.94324)
(166.143 -3.982 -8.39362)
(159.441 -4.18394 -9.52302)
(169.986 -0.0436337 6.16532)
(171.839 -0.308308 4.88162)
(173.111 -0.579847 3.30142)
(173.962 -0.838941 1.56638)
(174.437 -1.10083 -0.394052)
(174.456 -1.37216 -2.65267)
(173.6 -1.71634 -5.14884)
(171.25 -2.16833 -8.04485)
(165.908 -2.90681 -10.067)
(158.664 -3.22393 -12.24)
(168.488 -0.168232 7.03479)
(170.495 -0.500468 5.72988)
(171.972 -0.856083 4.07003)
(173.082 -1.1718 2.23549)
(173.84 -1.47019 0.122662)
(174.179 -1.74567 -2.38203)
(173.643 -2.04698 -5.25369)
(171.572 -2.40456 -8.78761)
(166.102 -3.01408 -11.5506)
(158.311 -3.28862 -14.9983)
(166.886 1.33741 6.78027)
(169.034 0.993803 5.55339)
(170.702 0.607096 4.00046)
(172.043 0.265125 2.23175)
(173.047 -0.0366773 0.16366)
(173.667 -0.289172 -2.36582)
(173.459 -0.521676 -5.36911)
(171.76 -0.79224 -9.29609)
(166.403 -1.2576 -12.6926)
(158.161 -1.67899 -17.4277)
(165.654 1.23362 7.05443)
(167.855 0.708178 6.0269)
(169.701 0.141896 4.59892)
(171.306 -0.361755 2.91068)
(172.6 -0.808011 0.85911)
(173.534 -1.17143 -1.71495)
(173.685 -1.42066 -4.89408)
(172.501 -1.5749 -9.25835)
(167.621 -1.55944 -13.714)
(158.786 -1.88948 -19.5927)
(164.702 3.31315 5.76734)
(166.78 2.62653 5.01423)
(168.652 1.93211 3.88226)
(170.293 1.27186 2.42626)
(171.608 0.705855 0.587333)
(172.539 0.267996 -1.79256)
(172.702 0.0351647 -4.81619)
(171.607 0.0659283 -8.9821)
(167.297 0.530626 -13.9074)
(158.456 1.0408 -19.8461)
(176.618 -0.479905 1.25176)
(177.207 -0.641766 0.963836)
(177.432 -0.814356 0.535558)
(177.47 -0.969496 0.107961)
(177.365 -1.11608 -0.334581)
(177.127 -1.24678 -0.726673)
(176.747 -1.36615 -1.03718)
(176.173 -1.47993 -1.20945)
(175.177 -1.59162 -1.19194)
(172.898 -1.63556 -0.922303)
(172.626 -0.678861 1.82961)
(174.077 -0.897247 1.33125)
(174.865 -1.06128 0.677703)
(175.133 -1.22796 -0.0131198)
(174.987 -1.40198 -0.704797)
(174.418 -1.5925 -1.35587)
(173.232 -1.80999 -1.89269)
(171.091 -2.06026 -2.22235)
(167.66 -2.29512 -2.21029)
(162.798 -2.21707 -1.72171)
(171.535 -1.30319 3.08608)
(173.073 -1.64306 2.41074)
(173.956 -1.87648 1.50345)
(174.308 -2.09371 0.52202)
(174.222 -2.32144 -0.493143)
(173.695 -2.58098 -1.50097)
(172.536 -2.89531 -2.42444)
(170.365 -3.24449 -3.15499)
(166.748 -3.56369 -3.38428)
(161.798 -3.42669 -2.9675)
(171.169 -0.839126 3.80385)
(172.746 -1.07518 2.94074)
(173.675 -1.26764 1.83587)
(174.09 -1.48146 0.637304)
(174.076 -1.7249 -0.633871)
(173.601 -2.00957 -1.9501)
(172.432 -2.36815 -3.22109)
(170.168 -2.80378 -4.34448)
(166.254 -3.29693 -4.8187)
(161.106 -3.31352 -4.55125)
(170.608 -1.11454 4.93956)
(172.241 -1.36054 3.90629)
(173.25 -1.59487 2.5867)
(173.783 -1.84226 1.14991)
(173.908 -2.11162 -0.419003)
(173.566 -2.41048 -2.11003)
(172.471 -2.77653 -3.82393)
(170.182 -3.21948 -5.48166)
(165.929 -3.79535 -6.34593)
(160.427 -3.94303 -6.4506)
(169.405 -0.128686 5.35858)
(171.13 -0.320621 4.22934)
(172.274 -0.54801 2.82535)
(172.982 -0.790493 1.27403)
(173.299 -1.05049 -0.457888)
(173.152 -1.33227 -2.39648)
(172.205 -1.6843 -4.44783)
(169.982 -2.13491 -6.59833)
(165.421 -2.81639 -7.85461)
(159.468 -3.16115 -8.4668)
(168.143 -0.258397 6.19682)
(170.003 -0.5285 5.0271)
(171.327 -0.842834 3.52713)
(172.26 -1.14213 1.85875)
(172.813 -1.43735 -0.0469176)
(172.907 -1.72314 -2.24657)
(172.169 -2.03942 -4.67672)
(170.085 -2.40829 -7.40943)
(165.282 -3.00648 -9.23767)
(158.821 -3.39928 -10.57)
(166.773 1.26035 5.91833)
(168.752 0.971919 4.81069)
(170.246 0.624917 3.40566)
(171.383 0.30145 1.79)
(172.149 0.00584899 -0.0907183)
(172.469 -0.251819 -2.33657)
(171.959 -0.50165 -4.90996)
(170.103 -0.798345 -8.01006)
(165.255 -1.31387 -10.3255)
(158.343 -1.91181 -12.4385)
(165.758 1.05499 6.25394)
(167.768 0.578602 5.30048)
(169.412 0.062072 3.97858)
(170.777 -0.400404 2.40964)
(171.791 -0.810238 0.513306)
(172.372 -1.1407 -1.80657)
(172.131 -1.37246 -4.56341)
(170.624 -1.53034 -8.04571)
(166.078 -1.6056 -11.2219)
(158.66 -2.11944 -14.117)
(164.857 3.06488 5.03628)
(166.756 2.44471 4.33986)
(168.44 1.82488 3.29738)
(169.86 1.23477 1.94738)
(170.923 0.734333 0.250599)
(171.536 0.357864 -1.89807)
(171.333 0.168005 -4.52977)
(169.886 0.205131 -7.87191)
(165.751 0.551164 -11.3839)
(158.374 0.76257 -14.2237)
(175.743 -0.71717 1.01444)
(176.227 -0.829979 0.824957)
(176.401 -0.953083 0.511752)
(176.432 -1.06418 0.211812)
(176.364 -1.17578 -0.102135)
(176.206 -1.27921 -0.373997)
(175.955 -1.37707 -0.589057)
(175.564 -1.47084 -0.713127)
(174.811 -1.55533 -0.723984)
(172.828 -1.56401 -0.582303)
(171.683 -0.872864 1.43675)
(173.032 -1.03847 1.08376)
(173.765 -1.14819 0.59624)
(174.023 -1.26629 0.0805052)
(173.921 -1.3974 -0.428907)
(173.457 -1.54614 -0.895734)
(172.464 -1.71549 -1.26583)
(170.626 -1.90447 -1.47492)
(167.616 -2.05847 -1.45576)
(163.198 -1.91452 -1.09361)
(170.637 -1.46549 2.576)
(172.067 -1.73144 2.06)
(172.881 -1.90559 1.33556)
(173.202 -2.0767 0.549527)
(173.133 -2.26488 -0.250795)
(172.685 -2.48297 -1.02202)
(171.707 -2.74372 -1.69808)
(169.87 -3.02606 -2.19336)
(166.798 -3.24965 -2.32883)
(162.447 -3.03962 -1.97482)
(170.374 -0.931211 3.17593)
(171.827 -1.08859 2.4786)
(172.664 -1.22611 1.56481)
(173.016 -1.40335 0.571149)
(172.98 -1.6191 -0.463911)
(172.542 -1.87749 -1.50005)
(171.528 -2.19716 -2.44991)
(169.602 -2.57667 -3.20899)
(166.34 -2.9659 -3.46861)
(161.938 -2.89892 -3.11243)
(169.948 -1.17945 4.22665)
(171.439 -1.35046 3.35598)
(172.333 -1.53495 2.22599)
(172.77 -1.75368 0.992718)
(172.825 -2.00479 -0.330989)
(172.461 -2.29104 -1.71269)
(171.466 -2.63513 -3.04872)
(169.489 -3.0404 -4.22157)
(165.972 -3.51906 -4.73963)
(161.362 -3.59192 -4.5197)
(168.924 -0.167794 4.57069)
(170.491 -0.296163 3.59953)
(171.497 -0.481817 2.37967)
(172.076 -0.703278 1.02558)
(172.275 -0.952407 -0.463135)
(172.034 -1.23167 -2.07784)
(171.107 -1.57718 -3.71121)
(169.13 -2.01021 -5.26964)
(165.346 -2.6126 -6.04587)
(160.411 -2.91295 -6.02621)
(167.871 -0.320605 5.3685)
(169.557 -0.533509 4.34265)
(170.719 -0.806732 3.014)
(171.487 -1.08476 1.52968)
(171.874 -1.3685 -0.145406)
(171.803 -1.65333 -2.02161)
(170.989 -1.9718 -4.01142)
(169.053 -2.33845 -6.06534)
(165.015 -2.88732 -7.27977)
(159.669 -3.27929 -7.62885)
(166.709 1.19498 5.0639)
(168.495 0.959628 4.087)
(169.807 0.653494 2.84144)
(170.753 0.353952 1.39755)
(171.316 0.0725168 -0.268828)
(171.414 -0.180676 -2.20452)
(170.738 -0.434293 -4.33333)
(168.917 -0.737842 -6.69485)
(164.77 -1.24593 -8.26169)
(159.046 -1.86561 -9.04071)
(165.887 0.866611 5.46149)
(167.691 0.443718 4.59904)
(169.129 -0.0212485 3.39774)
(170.267 -0.440493 1.96908)
(171.037 -0.812255 0.257468)
(171.342 -1.11016 -1.77894)
(170.857 -1.32382 -4.10188)
(169.251 -1.47776 -6.7951)
(165.299 -1.59498 -9.01402)
(159.227 -2.11153 -10.2904)
(165.029 2.81337 4.30686)
(166.735 2.26541 3.68125)
(168.22 1.7209 2.74007)
(169.423 1.20111 1.51477)
(170.254 0.765227 -0.0127313)
(170.606 0.446075 -1.89992)
(170.161 0.293032 -4.12001)
(168.582 0.332716 -6.71908)
(164.913 0.588734 -9.14674)
(159.033 0.675784 -10.3177)
(174.906 -0.866662 0.865962)
(175.308 -0.94969 0.738961)
(175.446 -1.04105 0.500628)
(175.474 -1.12211 0.283241)
(175.432 -1.20809 0.0498876)
(175.331 -1.28952 -0.15138)
(175.165 -1.36773 -0.316371)
(174.887 -1.4418 -0.424157)
(174.283 -1.50294 -0.463583)
(172.509 -1.48623 -0.403472)
(170.87 -0.955273 1.13914)
(172.136 -1.08495 0.893561)
(172.824 -1.15572 0.53306)
(173.076 -1.23673 0.149531)
(173.013 -1.33273 -0.226503)
(172.638 -1.44545 -0.566118)
(171.796 -1.57283 -0.830968)
(170.179 -1.70915 -0.977506)
(167.46 -1.80057 -0.97023)
(163.353 -1.61521 -0.713703)
(169.889 -1.52275 2.15318)
(171.22 -1.73096 1.76365)
(171.971 -1.85861 1.1917)
(172.268 -1.99123 0.568438)
(172.223 -2.14381 -0.0583904)
(171.855 -2.32269 -0.649143)
(171.037 -2.53297 -1.15197)
(169.463 -2.75341 -1.50542)
(166.775 -2.9019 -1.60219)
(162.833 -2.64909 -1.34616)
(169.728 -0.930993 2.61925)
(171.052 -1.02767 2.06504)
(171.797 -1.12119 1.32322)
(172.098 -1.2652 0.514951)
(172.059 -1.45139 -0.313089)
(171.682 -1.6785 -1.11752)
(170.831 -1.95521 -1.82304)
(169.208 -2.2767 -2.34114)
(166.432 -2.58016 -2.48189)
(162.54 -2.45912 -2.16282)
(169.417 -1.16995 3.568)
(170.752 -1.28304 2.84687)
(171.527 -1.42589 1.89771)
(171.882 -1.61593 0.860546)
(171.898 -1.84317 -0.233945)
(171.555 -2.10676 -1.34264)
(170.701 -2.41894 -2.37026)
(169.04 -2.77857 -3.19944)
(166.117 -3.17114 -3.5084)
(162.139 -3.1881 -3.21886)
(168.549 -0.157676 3.82546)
(169.938 -0.236879 3.0075)
(170.804 -0.386239 1.97056)
(171.269 -0.584371 0.815499)
(171.387 -0.815252 -0.433715)
(171.112 -1.07952 -1.74753)
(170.273 -1.40299 -3.01948)
(168.588 -1.80184 -4.13124)
(165.482 -2.31932 -4.59935)
(161.308 -2.56595 -4.35227)
(167.681 -0.353348 4.57396)
(169.17 -0.518441 3.69297)
(170.169 -0.752901 2.53978)
(170.79 -1.0061 1.24764)
(171.049 -1.27108 -0.190139)
(170.882 -1.54349 -1.75263)
(170.085 -1.84882 -3.34278)
(168.384 -2.19638 -4.85506)
(165.071 -2.67798 -5.65556)
(160.605 -3.02647 -5.57793)
(166.697 1.1407 4.24068)
(168.272 0.952995 3.39909)
(169.4 0.687556 2.31886)
(170.171 0.416248 1.0577)
(170.571 0.155848 -0.381282)
(170.52 -0.0837924 -2.00585)
(169.791 -0.327559 -3.71797)
(168.123 -0.617367 -5.4661)
(164.701 -1.0805 -6.50251)
(159.967 -1.64579 -6.63678)
(166.043 0.670477 4.69829)
(167.626 0.302169 3.93709)
(168.861 -0.110289 2.86636)
(169.791 -0.484775 1.59248)
(170.356 -0.817051 0.083556)
(170.461 -1.08232 -1.66097)
(169.854 -1.27587 -3.57046)
(168.306 -1.41779 -5.60842)
(165.031 -1.54107 -7.1282)
(160.139 -1.97527 -7.56878)
(165.215 2.56599 3.59613)
(166.715 2.0929 3.05072)
(168 1.62354 2.22015)
(168.997 1.17354 1.13372)
(169.624 0.800519 -0.206147)
(169.775 0.534396 -1.81898)
(169.197 0.412952 -3.63715)
(167.648 0.452665 -5.60358)
(164.56 0.641931 -7.22749)
(160.028 0.686442 -7.55049)
(174.087 -0.950605 0.775441)
(174.429 -1.0147 0.686324)
(174.54 -1.0858 0.49432)
(174.566 -1.14671 0.327615)
(174.541 -1.21433 0.142631)
(174.476 -1.2788 -0.0185676)
(174.363 -1.34082 -0.157651)
(174.156 -1.39833 -0.261369)
(173.654 -1.44156 -0.3217)
(172.053 -1.40907 -0.311819)
(170.169 -0.943623 0.920062)
(171.37 -1.04691 0.749904)
(172.019 -1.09028 0.481642)
(172.266 -1.14436 0.192835)
(172.233 -1.21354 -0.0899926)
(171.928 -1.29791 -0.344416)
(171.2 -1.39236 -0.542969)
(169.746 -1.48821 -0.654917)
(167.234 -1.53533 -0.659049)
(163.368 -1.33111 -0.477481)
(169.276 -1.48467 1.81304)
(170.519 -1.64844 1.51846)
(171.212 -1.74198 1.06701)
(171.49 -1.84499 0.57181)
(171.468 -1.96803 0.0776544)
(171.171 -2.11281 -0.381741)
(170.483 -2.27946 -0.766939)
(169.11 -2.44771 -1.03482)
(166.691 -2.54099 -1.11627)
(163.036 -2.2721 -0.945057)
(169.22 -0.844677 2.13894)
(170.416 -0.898539 1.70258)
(171.073 -0.960317 1.10811)
(171.331 -1.07675 0.458841)
(171.3 -1.23448 -0.197205)
(170.992 -1.42867 -0.819578)
(170.293 -1.66181 -1.34711)
(168.923 -1.92751 -1.70984)
(166.503 -2.16213 -1.78642)
(162.958 -2.01296 -1.52909)
(169.007 -1.08987 2.97584)
(170.179 -1.16331 2.38616)
(170.839 -1.27441 1.60169)
(171.126 -1.43808 0.743822)
(171.124 -1.63873 -0.14773)
(170.827 -1.87295 -1.02839)
(170.124 -2.14598 -1.81708)
(168.755 -2.45429 -2.41184)
(166.295 -2.7714 -2.59873)
(162.76 -2.75206 -2.32529)
(168.275 -0.101349 3.14046)
(169.477 -0.147533 2.46455)
(170.205 -0.267673 1.60141)
(170.574 -0.442079 0.637178)
(170.638 -0.649725 -0.38934)
(170.371 -0.889461 -1.43937)
(169.656 -1.17851 -2.4168)
(168.267 -1.52928 -3.20703)
(165.722 -1.96094 -3.48232)
(162.108 -2.15779 -3.17413)
(167.568 -0.357679 3.833)
(168.851 -0.486416 3.0913)
(169.689 -0.68601 2.11041)
(170.182 -0.912317 1.00912)
(170.349 -1.15305 -0.198397)
(170.141 -1.40362 -1.4744)
(169.421 -1.68263 -2.72421)
(167.99 -1.99514 -3.82698)
(165.311 -2.40057 -4.35209)
(161.528 -2.6909 -4.10756)
(166.734 1.09742 3.46916)
(168.087 0.949819 2.761)
(169.036 0.723555 1.84564)
(169.652 0.483379 0.769897)
(169.925 0.249288 -0.441662)
(169.789 0.0307007 -1.77237)
(169.085 -0.192085 -3.11794)
(167.638 -0.451842 -4.38712)
(164.885 -0.848555 -5.0532)
(160.956 -1.32514 -4.89686)
(166.221 0.470515 3.98356)
(167.579 0.154801 3.32718)
(168.616 -0.205522 2.39152)
(169.362 -0.534695 1.27946)
(169.762 -0.826779 -0.0206721)
(169.734 -1.05919 -1.48218)
(169.097 -1.23021 -3.01868)
(167.706 -1.35387 -4.53857)
(165.086 -1.46116 -5.56785)
(161.195 -1.78402 -5.6188)
(165.411 2.33132 2.92026)
(166.7 1.93254 2.45938)
(167.787 1.53677 1.74498)
(168.595 1.15491 0.805885)
(169.051 0.842212 -0.337813)
(169.062 0.624532 -1.67895)
(168.438 0.530211 -3.12583)
(167.024 0.568609 -4.57657)
(164.525 0.709323 -5.62391)
(161.125 0.745048 -5.55144)
(173.285 -0.988442 0.720496)
(173.578 -1.03921 0.653311)
(173.669 -1.09702 0.488806)
(173.692 -1.14444 0.351775)
(173.679 -1.19915 0.194837)
(173.636 -1.25111 0.0556757)
(173.556 -1.30076 -0.070122)
(173.396 -1.34568 -0.173805)
(172.969 -1.37626 -0.2474)
(171.529 -1.33588 -0.267946)
(169.569 -0.85831 0.761379)
(170.716 -0.939272 0.641347)
(171.33 -0.963237 0.436948)
(171.569 -0.998629 0.212969)
(171.558 -1.04876 -0.00719744)
(171.306 -1.11265 -0.205771)
(170.666 -1.1837 -0.36192)
(169.337 -1.25135 -0.451685)
(166.985 -1.26999 -0.459538)
(163.313 -1.06465 -0.324464)
(168.782 -1.36846 1.5443)
(169.947 -1.49783 1.31736)
(170.586 -1.5681 0.95673)
(170.845 -1.6503 0.557554)
(170.842 -1.75083 0.160442)
(170.604 -1.86825 -0.206737)
(170.02 -1.99998 -0.513552)
(168.799 -2.12786 -0.728004)
(166.575 -2.18426 -0.800031)
(163.127 -1.92176 -0.686404)
(168.833 -0.687368 1.73142)
(169.906 -0.713943 1.3887)
(170.478 -0.755631 0.915508)
(170.7 -0.851014 0.396959)
(170.681 -0.98348 -0.121861)
(170.439 -1.14615 -0.606241)
(169.873 -1.33833 -1.00794)
(168.711 -1.55392 -1.27158)
(166.558 -1.73561 -1.31298)
(163.251 -1.58103 -1.10551)
(168.703 -0.950518 2.45434)
(169.713 -1.0008 1.97623)
(170.264 -1.08993 1.33601)
(170.495 -1.23082 0.635197)
(170.488 -1.40468 -0.0840542)
(170.247 -1.60655 -0.78144)
(169.689 -1.83743 -1.3916)
(168.575 -2.09304 -1.83123)
(166.478 -2.34514 -1.95147)
(163.255 -2.30661 -1.71386)
(168.089 -0.00711646 2.52664)
(169.104 -0.0353765 1.97775)
(169.701 -0.133657 1.27328)
(169.991 -0.285331 0.484033)
(170.024 -0.467089 -0.344512)
(169.789 -0.676382 -1.17284)
(169.208 -0.923669 -1.92005)
(168.094 -1.21817 -2.48786)
(166.007 -1.56669 -2.65094)
(162.808 -1.7193 -2.34623)
(167.524 -0.336971 3.15987)
(168.598 -0.44071 2.54688)
(169.285 -0.610089 1.72872)
(169.67 -0.808928 0.808773)
(169.773 -1.02184 -0.185688)
(169.563 -1.24403 -1.21141)
(168.951 -1.4878 -2.18393)
(167.791 -1.75434 -2.99037)
(165.648 -2.0812 -3.34246)
(162.397 -2.30806 -3.05094)
(166.809 1.06506 2.76534)
(167.94 0.949217 2.18326)
(168.719 0.75946 1.42622)
(169.202 0.551804 0.530674)
(169.382 0.34753 -0.464394)
(169.208 0.155465 -1.53021)
(168.579 -0.0384998 -2.56739)
(167.38 -0.257898 -3.47946)
(165.209 -0.579357 -3.89974)
(161.936 -0.956079 -3.63447)
(166.417 0.271498 3.33308)
(167.552 0.0039668 2.77917)
(168.404 -0.306112 1.97727)
(168.99 -0.590709 1.02653)
(169.262 -0.84279 -0.0696209)
(169.158 -1.04241 -1.26977)
(168.554 -1.1888 -2.48429)
(167.369 -1.29004 -3.60872)
(165.331 -1.36987 -4.30636)
(162.273 -1.58141 -4.20901)
(165.612 2.11821 2.29302)
(166.692 1.79032 1.91624)
(167.59 1.46493 1.31915)
(168.231 1.14832 0.529596)
(168.551 0.892289 -0.418982)
(168.473 0.718227 -1.50353)
(167.868 0.647077 -2.62258)
(166.646 0.683659 -3.66742)
(164.686 0.789649 -4.31408)
(162.194 0.828975 -4.08342)
(172.504 -0.996177 0.686907)
(172.757 -1.03655 0.631558)
(172.831 -1.08533 0.482698)
(172.852 -1.12379 0.362026)
(172.845 -1.16963 0.220812)
(172.816 -1.21285 0.0932507)
(172.758 -1.25378 -0.0259173)
(172.63 -1.28999 -0.130581)
(172.267 -1.3126 -0.211954)
(170.985 -1.27068 -0.251025)
(169.067 -0.718854 0.646502)
(170.161 -0.778425 0.557212)
(170.738 -0.788366 0.394769)
(170.967 -0.811472 0.213221)
(170.97 -0.849203 0.0336393)
(170.76 -0.899733 -0.129109)
(170.193 -0.955948 -0.257855)
(168.969 -1.0062 -0.331397)
(166.749 -1.00902 -0.335494)
(163.243 -0.815077 -0.22611)
(168.396 -1.19441 1.33314)
(169.485 -1.29713 1.15171)
(170.07 -1.35319 0.856548)
(170.308 -1.42246 0.52638)
(170.319 -1.50737 0.197531)
(170.129 -1.6045 -0.10699)
(169.629 -1.71018 -0.362554)
(168.532 -1.80916 -0.542393)
(166.458 -1.84396 -0.604646)
(163.166 -1.60467 -0.523576)
(168.55 -0.479137 1.38794)
(169.502 -0.490935 1.11775)
(169.996 -0.522425 0.741264)
(170.185 -0.603006 0.32678)
(170.178 -0.71438 -0.0857969)
(169.993 -0.848874 -0.468145)
(169.54 -1.00474 -0.782601)
(168.552 -1.17752 -0.983263)
(166.61 -1.32004 -1.00423)
(163.473 -1.17807 -0.826052)
(168.483 -0.767871 2.00161)
(169.338 -0.808094 1.61572)
(169.791 -0.883642 1.09781)
(169.974 -1.0056 0.529871)
(169.969 -1.15418 -0.0478144)
(169.785 -1.32377 -0.601825)
(169.354 -1.51322 -1.08153)
(168.458 -1.71868 -1.42035)
(166.656 -1.91622 -1.50752)
(163.664 -1.8728 -1.30097)
(167.974 0.11297 1.98892)
(168.808 0.0904069 1.5502)