/*--------------------------------*- C++ -*----------------------------------*\
| =========                 |                                                 |
| \\      /  F ield         | foam-extend: Open Source CFD                    |
|  \\    /   O peration     | Version:     4.0                                |
|   \\  /    A nd           | Web:         http://www.foam-extend.org         |
|    \\/     M anipulation  |                                                 |
\*---------------------------------------------------------------------------*/
FoamFile
{
    version     2.0;
    format      ascii;
    class       volScalarField;
    location    "600";
    object      divFlux;
}
// * * * * * * * * * * * * * * * * * * * * * * * * * * * * * * * * * * * * * //

dimensions      [1 -3 -1 0 0 0 0];

internalField   nonuniform List<scalar> 
34480
(
0.0662901
0.0218866
0.0239218
0.0234317
0.0224531
0.0212948
0.0199885
0.0185959
0.0172152
0.0158852
0.0308396
0.0157634
0.0165616
0.0166183
0.016633
0.016435
0.0158619
0.0149399
0.0138221
0.0126498
0.0149389
0.009667
0.00996368
0.010213
0.0106228
0.0109811
0.0110063
0.0106037
0.00989826
0.00905343
0.00907417
0.00651524
0.00653759
0.00661921
0.00686411
0.00715881
0.00728665
0.00712133
0.00670664
0.00615056
0.00576598
0.00439903
0.00431925
0.0043062
0.00442184
0.00461291
0.00473708
0.00468415
0.0044508
0.0041022
0.00379206
0.00300342
0.00290109
0.00285569
0.00290689
0.0030276
0.00312518
0.00311805
0.0029855
0.00278103
0.00262038
0.00212166
0.00201939
0.00196378
0.0019818
0.0020589
0.00213434
0.0021497
0.00207772
0.00196152
0.00203418
0.00165996
0.00155221
0.00148467
0.00147705
0.00151978
0.00157159
0.00159294
0.0015557
0.00148923
0.00205994
0.00167396
0.00152478
0.00140786
0.00133735
0.00130844
0.00130185
0.00129962
0.00127523
0.00123872
0.00198685
0.00163311
0.00147956
0.00135022
0.00125053
0.00118139
0.00114183
0.00112741
0.00111872
0.001113
0.0928716
0.0285014
0.0309466
0.0305186
0.0294786
0.0284034
0.027353
0.0264349
0.0258497
0.0273906
0.0462175
0.0219564
0.0229927
0.023026
0.0229359
0.0228536
0.0226963
0.0223642
0.0219157
0.0232051
0.0238803
0.0145768
0.0150139
0.0153589
0.0159414
0.0165166
0.0169516
0.017106
0.0169177
0.0179056
0.015909
0.0108874
0.0109085
0.011029
0.0114385
0.0119594
0.0124065
0.0126571
0.0125797
0.013292
0.0111212
0.00814662
0.00797542
0.00794747
0.00816616
0.00856656
0.00895492
0.0092261
0.00921736
0.009725
0.00803628
0.00614908
0.00591572
0.00582392
0.0059343
0.00623593
0.00656006
0.00681863
0.00684139
0.00719865
0.00609116
0.00479039
0.0045397
0.00441816
0.00446772
0.00470157
0.00498003
0.00522775
0.00527176
0.00554065
0.00522523
0.00416351
0.00387965
0.00371785
0.00371313
0.0038736
0.00410244
0.00433379
0.00438638
0.00459987
0.00601592
0.00478724
0.00435544
0.00403042
0.00383267
0.00378146
0.00384419
0.00398362
0.00401675
0.00421112
0.00629283
0.00507469
0.00461203
0.00423577
0.00395382
0.00379864
0.00376265
0.00382787
0.00387207
0.0041008
0.103001
0.0272994
0.0300552
0.0298872
0.0292637
0.0286894
0.0282609
0.0281045
0.0285358
0.199168
0.0484219
0.0195942
0.0206732
0.0204922
0.0202772
0.0203243
0.0205787
0.0209817
0.0217065
0.125007
0.0228213
0.0119316
0.0122411
0.0122929
0.0125045
0.0129413
0.0136005
0.0143661
0.0152765
0.0535988
0.0139619
0.00825354
0.00821159
0.00810959
0.00822062
0.00850991
0.00902747
0.00970183
0.0105193
0.0123411
0.00896666
0.00573596
0.00556159
0.00539264
0.00539528
0.00556764
0.00593653
0.00647915
0.00716682
0.00862859
0.00595251
0.00402113
0.00382198
0.00364438
0.00359816
0.00370111
0.00396628
0.00439408
0.00495439
0.00610026
0.00414752
0.002911
0.00272128
0.00255529
0.00249024
0.00255299
0.00275072
0.00309563
0.00355974
0.00447872
0.00325259
0.00233532
0.00215107
0.0019902
0.00190652
0.00193388
0.00207969
0.00236261
0.00276156
0.00355114
0.00326805
0.00234857
0.00214911
0.00196764
0.00184017
0.00179699
0.00185418
0.00204527
0.00238606
0.00316864
0.00289437
0.00207133
0.00190321
0.00175441
0.0016497
0.00160864
0.00163108
0.0017543
0.00206149
0.0029697
0.115015
0.0273386
0.0303234
0.0304521
0.0301092
0.029807
0.0296596
0.0297553
0.0749404
0.167437
0.0536269
0.0199084
0.0210269
0.0207233
0.0203523
0.0202027
0.020315
0.0207067
0.0223357
0.131868
0.0247399
0.0120684
0.0123491
0.0122399
0.0122392
0.0124611
0.0129444
0.0136668
0.0146211
0.109005
0.0149968
0.00838658
0.00832518
0.00814534
0.00810511
0.00824184
0.00862022
0.00923384
0.0100707
0.0814733
0.00957953
0.00586524
0.0056803
0.00546376
0.00538639
0.00545253
0.00572205
0.00620918
0.00690344
0.0470654
0.00633147
0.00413431
0.00392709
0.0037226
0.00362968
0.00366147
0.00385824
0.00424459
0.00481127
0.0132276
0.00439082
0.00300477
0.00280976
0.00262821
0.0025349
0.00254868
0.00269934
0.0030157
0.00348971
0.00427366
0.00341208
0.0024089
0.00222439
0.00205506
0.00195585
0.00194932
0.00206259
0.00232721
0.00274052
0.003424
0.00333831
0.00238134
0.00219385
0.00201996
0.00189661
0.00184252
0.00188633
0.00207038
0.00242876
0.00313112
0.00291485
0.00207677
0.00192094
0.00178214
0.00168961
0.00165195
0.00168166
0.00181767
0.0021425
0.00297381
0.126779
0.0270486
0.0302446
0.0306059
0.0304295
0.0302437
0.0342638
0.0552839
0.0827573
0.133131
0.0584522
0.0199044
0.0211129
0.0208128
0.0203688
0.0200503
0.0199159
0.0200097
0.0462264
0.109399
0.0266542
0.0120884
0.0123645
0.0121373
0.0119677
0.0119705
0.0121832
0.0126221
0.0132647
0.0953041
0.0160389
0.00843864
0.00837874
0.00813007
0.00797315
0.00796169
0.00814283
0.00853561
0.00912871
0.0853693
0.0101957
0.00593661
0.00575641
0.00550919
0.00536281
0.00533016
0.00546349
0.00578624
0.00629653
0.0697848
0.00670848
0.00420425
0.00400215
0.00378358
0.00365337
0.00362014
0.00372278
0.00398904
0.00442111
0.0568808
0.00462796
0.00306424
0.00287481
0.00268873
0.00257559
0.00254655
0.00263139
0.00285945
0.00323563
0.0361011
0.00355844
0.00244942
0.00227363
0.00210729
0.00200017
0.00196662
0.00203362
0.00223268
0.00257414
0.0217719
0.00338766
0.00237351
0.00220176
0.00204182
0.00192719
0.00186944
0.00189477
0.00204259
0.00235171
0.00291391
0.00292333
0.00204692
0.00190443
0.00177757
0.00169372
0.00165957
0.00169141
0.00182364
0.00212052
0.00283417
0.138036
0.0263793
0.0297086
0.0302305
0.030143
0.032315
0.0430039
0.0546473
0.0686289
0.0934837
0.0624304
0.0195014
0.0207945
0.0205501
0.0201141
0.0197376
0.0194661
0.0225466
0.04706
0.0813682
0.0284541
0.0119518
0.0122358
0.0119285
0.0116376
0.0114704
0.0114527
0.0115993
0.0209535
0.0700933
0.0170081
0.00838417
0.00833243
0.00802861
0.00778291
0.00764994
0.00765976
0.00782652
0.00812694
0.0683454
0.0107575
0.00593191
0.00576213
0.00549189
0.00528716
0.00517599
0.00519021
0.00534608
0.00563297
0.0631227
0.00704616
0.00422017
0.00402972
0.00380195
0.00364044
0.00355385
0.00357317
0.0037163
0.00397988
0.0610265
0.00483588
0.00308439
0.00290613
0.00271977
0.00259038
0.00252631
0.00255194
0.00268759
0.00293535
0.0516196
0.00367881
0.00245743
0.00229441
0.00213459
0.0020228
0.00196856
0.00199423
0.00212315
0.00236417
0.0485774
0.00341439
0.00233673
0.00218106
0.00203466
0.00192862
0.00187084
0.00188223
0.00199176
0.00222966
0.0371832
0.00291922
0.00199504
0.0018658
0.00174973
0.00167269
0.00164081
0.00167065
0.00178912
0.0020395
0.0299459
0.148618
0.0253734
0.0287398
0.0293524
0.0328315
0.0368049
0.0430608
0.0487074
0.056211
0.0687175
0.0652974
0.0187054
0.0200441
0.0198613
0.0194631
0.0190939
0.0187919
0.0252652
0.0400463
0.0592225
0.0299485
0.0116225
0.0119301
0.0115912
0.0112376
0.0109693
0.0108034
0.0107476
0.0215608
0.0506079
0.0177964
0.00819481
0.00816198
0.00782935
0.00752996
0.00731555
0.00720412
0.00720183
0.0095619
0.0511225
0.0111943
0.0058265
0.00567563
0.00539161
0.0051522
0.00498637
0.00491351
0.00494098
0.00504885
0.0500803
0.00729991
0.00416453
0.00399067
0.00376193
0.00357805
0.00345468
0.00341165
0.00345764
0.00358148
0.0530882
0.00498689
0.00305335
0.00289013
0.00270735
0.00256768
0.0024789
0.00245942
0.00252028
0.00265665
0.0494989
0.00375628
0.00242618
0.00227808
0.00212687
0.00201381
0.00194618
0.0019409
0.00201227
0.00216283
0.0529403
0.00340932
0.00227014
0.00213013
0.00199599
0.00189752
0.00184145
0.00184366
0.00192249
0.00209524
0.0475746
0.00289537
0.0019218
0.00180541
0.00169891
0.00162709
0.00159612
0.00162074
0.00172025
0.00192104
0.0422263
0.160851
0.0264383
0.030446
0.0318061
0.0341526
0.0358854
0.0395097
0.0416778
0.0461852
0.0521318
0.066968
0.0175787
0.0189139
0.0187754
0.0184083
0.0180559
0.0177586
0.0229257
0.0312521
0.0422678
0.0308496
0.0110605
0.0113971
0.0110677
0.0107047
0.0104032
0.0101757
0.010026
0.0190118
0.0362651
0.0182541
0.00784007
0.00783571
0.00750431
0.00719004
0.00694076
0.00676678
0.00666963
0.0107568
0.0372619
0.0114265
0.00560135
0.00547577
0.00519506
0.00494538
0.00475363
0.00463076
0.00457863
0.00457365
0.037735
0.00742462
0.00402343
0.00387086
0.00364828
0.0034581
0.00331665
0.00323522
0.00321684
0.00324625
0.0426697
0.00505426
0.00296173
0.00281621
0.00264215
0.00249985
0.00239856
0.00235004
0.00235881
0.00241589
0.0414048
0.00377506
0.00235007
0.00221798
0.00207709
0.00196686
0.00189343
0.00186842
0.00189891
0.00198197
0.0481692
0.00336318
0.00217147
0.00204648
0.00192348
0.00183177
0.00177796
0.00177373
0.00182955
0.00195307
0.0448106
0.00284415
0.00182557
0.0017216
0.00162374
0.00155616
0.00152511
0.00154248
0.00162115
0.00177622
0.040929
0.171016
0.0264827
0.0303064
0.0309652
0.032428
0.032851
0.0350562
0.0353172
0.0385321
0.0409745
0.067427
0.0162
0.0174873
0.017376
0.0170293
0.0166867
0.0166037
0.0197436
0.0242727
0.0308642
0.0309698
0.0102605
0.0106143
0.0103137
0.00996904
0.0096732
0.00943772
0.00926469
0.0154554
0.0257001
0.0182543
0.00730711
0.00733143
0.00702149
0.00671956
0.00647043
0.00628045
0.00614926
0.00942655
0.0265435
0.0113876
0.00524847
0.00515039
0.00488654
0.00464591
0.00445277
0.00431282
0.00422532
0.00425673
0.0274861
0.00738377
0.00379168
0.00366214
0.00345341
0.00327022
0.00312707
0.00302983
0.00297837
0.0032672
0.0331401
0.0050167
0.00280573
0.00267895
0.0025171
0.00238024
0.00227767
0.00221545
0.00219441
0.00220375
0.0325337
0.00372313
0.00222713
0.00211108
0.00198195
0.0018777
0.00180482
0.00176998
0.00177558
0.00181537
0.0408658
0.00326868
0.00204
0.00192938
0.00181675
0.00173138
0.00167979
0.00167017
0.00170817
0.00179596
0.0365228
0.0027591
0.00170549
0.00161352
0.00152379
0.0014601
0.00142855
0.00143793
0.00149629
0.00161203
0.0347654
0.177353
0.0245151
0.0281914
0.0284006
0.0293771
0.0290634
0.0305499
0.0297487
0.0324442
0.0329392
0.0666527
0.0146395
0.0158428
0.0157479
0.015418
0.0150839
0.014918
0.0165124
0.0189312
0.0231326
0.0302945
0.00926838
0.00962076
0.0093523
0.00903354
0.00875505
0.00852914
0.00835726
0.0122474
0.0181538
0.0177585
0.00661826
0.00666387
0.00638384
0.00610592
0.00587278
0.00568912
0.00555407
0.00727231
0.0183293
0.0110496
0.00477994
0.00470693
0.00446699
0.00424538
0.00406417
0.00392632
0.00383022
0.003755
0.0191237
0.00715931
0.00347605
0.00336881
0.00317851
0.00300965
0.00287484
0.0027768
0.00271404
0.00435282
0.0247807
0.00486249
0.00258867
0.00248041
0.00233297
0.00220678
0.00210979
0.00204482
0.00201087
0.00199705
0.0239023
0.00359371
0.00205981
0.00195924
0.00184209
0.00174617
0.00167754
0.00163946
0.00163195
0.00346029
0.0329493
0.0031212
0.00187737
0.00178037
0.00167806
0.00159892
0.00154956
0.00153507
0.00155833
0.00161893
0.0270573
0.00263557
0.00156239
0.00148203
0.00140036
0.00134071
0.00130887
0.00131068
0.00135093
0.00143415
0.0273742
0.180422
0.0216648
0.0252091
0.0251254
0.0258437
0.0251282
0.0262878
0.0248492
0.0274166
0.0267706
0.064599
0.0129529
0.0140443
0.0139605
0.0136492
0.0133279
0.0130458
0.0134293
0.0146814
0.0176065
0.0288877
0.0081514
0.00848523
0.00824892
0.00795858
0.00770103
0.00748942
0.00747731
0.00976811
0.0130076
0.0167985
0.00582042
0.00587825
0.00563109
0.00538126
0.00516921
0.00499917
0.00487024
0.00523698
0.0123782
0.0104236
0.00422455
0.0041723
0.00395941
0.00376068
0.00359634
0.00346808
0.00337421
0.00329614
0.0127909
0.00675385
0.00309376
0.00300681
0.00283725
0.00268577
0.00256342
0.00247129
0.00240761
0.00416181
0.0179521
0.00459108
0.00232095
0.00223019
0.0020985
0.00198509
0.00189665
0.00183431
0.00179645
0.00177316
0.0161671
0.00338604
0.00185463
0.00176882
0.00166399
0.00157756
0.00151451
0.00147632
0.00146205
0.00505252
0.0255819
0.00291934
0.0016876
0.00160376
0.00151167
0.0014395
0.0013927
0.00137418
0.00138523
0.00142422
0.0185552
0.00247114
0.00139904
0.00132978
0.00125633
0.00120146
0.00117006
0.00116561
0.00119084
0.00138145
0.0205302
0.180431
0.018485
0.0218891
0.0216092
0.0221892
0.0212724
0.0223265
0.0204434
0.023134
0.0217585
0.0612116
0.0111856
0.0121452
0.012071
0.0117838
0.0114824
0.0112156
0.0109898
0.0111164
0.0133998
0.0268218
0.00697063
0.00727277
0.00706889
0.00681021
0.00657753
0.00638432
0.00656967
0.0078953
0.00948558
0.0154349
0.00496457
0.00502674
0.00481408
0.00459492
0.00440685
0.00425398
0.00413553
0.00402769
0.00813606
0.0095442
0.00361761
0.0035818
0.00339778
0.00322398
0.00307875
0.00296325
0.00287596
0.00280033
0.00830531
0.00618577
0.00266783
0.00259893
0.00245155
0.00231894
0.0022107
0.00212715
0.00206665
0.00364783
0.012831
0.00421194
0.00201733
0.00194284
0.00182784
0.00172819
0.00164949
0.00159195
0.00155396
0.00152686
0.00987059
0.00310522
0.00162132
0.00154956
0.00145759
0.0013812
0.00132435
0.00128752
0.00126948
0.00561021
0.0196
0.00266525
0.00147688
0.00140575
0.00132446
0.00126001
0.00121646
0.00119534
0.00119699
0.00121915
0.0114746
0.00226604
0.00121999
0.0011615
0.0010967
0.00104746
0.00101739
0.00100846
0.00102212
0.00216356
0.0148994
0.177561
0.015333
0.0185591
0.0181227
0.0185993
0.0176037
0.0186711
0.0164014
0.0194268
0.0175026
0.0564548
0.00938111
0.0101955
0.0101315
0.00987545
0.00960259
0.00935923
0.00915279
0.00895944
0.0100019
0.0241691
0.0057763
0.00603729
0.00586614
0.00564256
0.00543892
0.00534129
0.00572472
0.00649998
0.00705197
0.0137369
0.0040958
0.00415595
0.00397856
0.00379213
0.00363053
0.00349773
0.0033931
0.00329569
0.00503862
0.0084584
0.00299339
0.00297011
0.00281601
0.00266857
0.00254418
0.00244374
0.00236594
0.00229628
0.00524104
0.00548378
0.0022225
0.00216941
0.00204518
0.00193242
0.00183945
0.00176622
0.00171129
0.00315309
0.00917791
0.00374221
0.0016945
0.00163499
0.00153738
0.00145222
0.00138407
0.00133272
0.00129671
0.00126859
0.00502613
0.00276156
0.00137135
0.00131287
0.00123429
0.0011685
0.00111852
0.00108428
0.00109643
0.00592626
0.0152339
0.00236492
0.00125318
0.00119435
0.00112443
0.00106835
0.00102902
0.00100707
0.00100236
0.00101221
0.00571482
0.00202349
0.00103145
0.000983318
0.000927701
0.000884755
0.000857056
0.000845573
0.000850994
0.00222903
0.0106223
0.16941
0.0124336
0.0154109
0.0148124
0.0151573
0.014181
0.0153361
0.0128878
0.0163272
0.0139249
0.0503352
0.00759167
0.00825313
0.00819941
0.00797978
0.00774204
0.007528
0.00734554
0.00717527
0.00710213
0.0212693
0.00461144
0.0048296
0.00476467
0.00471443
0.00475321
0.00487784
0.00504264
0.00550788
0.005388
0.0117819
0.0032521
0.00330533
0.0031628
0.00301017
0.00287662
0.00276589
0.00267751
0.00259361
0.00268279
0.00722096
0.00238228
0.00236799
0.00224378
0.00212336
0.00202085
0.00193705
0.0018709
0.00180999
0.00323922
0.00468358
0.00178057
0.00174099
0.00164013
0.00154772
0.00147079
0.00140917
0.00136166
0.00279203
0.00665364
0.00320477
0.00136917
0.00132317
0.00124326
0.00117299
0.00111607
0.00107208
0.0010398
0.00101291
0.00136017
0.00236982
0.00111681
0.00107069
0.00100582
0.000951035
0.000908622
0.00087822
0.00320415
0.00639767
0.012353
0.00202812
0.00102547
0.000978343
0.000920187
0.000873032
0.00083889
0.000817855
0.000809565
0.000811259
0.00100859
0.00174983
0.000840671
0.000802294
0.000756206
0.000720103
0.000695752
0.000683524
0.000683659
0.00206703
0.00756142
0.150919
0.0103589
0.0125816
0.011697
0.0116942
0.0106733
0.0117997
0.00981665
0.013217
0.0102676
0.0429617
0.00587697
0.00638513
0.00634571
0.00617261
0.00598244
0.00580969
0.00566142
0.00552243
0.00538924
0.0187673
0.00454868
0.00470251
0.00464738
0.00456687
0.00454162
0.00457017
0.00462934
0.00492122
0.00434273
0.00965944
0.00246546
0.00250848
0.0023991
0.00227992
0.00217475
0.00208687
0.00201598
0.00194742
0.00179473
0.00589373
0.00181007
0.00180167
0.00170612
0.00161225
0.00153171
0.00146519
0.00141185
0.0013615
0.00205069
0.00382609
0.00136212
0.00133369
0.00125549
0.00118315
0.0011224
0.00107306
0.00146507
0.00259449
0.00497793
0.00262676
0.00105675
0.00102258
0.00096005
0.000904604
0.000859196
0.000823374
0.000796142
0.000772305
0.000712145
0.00297153
0.0014669
0.00105361
0.00108793
0.00154162
0.00241211
0.00374467
0.00517324
0.00732901
0.0108389
0.00166814
0.000803144
0.000766871
0.000720525
0.000682568
0.000654357
0.000635754
0.00062618
0.000623198
0.000621527
0.00145446
0.00065531
0.000625898
0.000589383
0.000560415
0.00054017
0.000528689
0.000525976
0.00178021
0.00535895
0.110626
0.00942512
0.0105075
0.0102651
0.00976948
0.00920393
0.00937528
0.00821784
0.0112937
0.00760891
0.0347122
0.00428397
0.00461571
0.00456312
0.00441764
0.00426635
0.00413488
0.00402713
0.00392964
0.00382858
0.0162062
0.00480397
0.00485545
0.00481678
0.0047357
0.0046884
0.00467462
0.00469167
0.00488094
0.00395471
0.00747433
0.00176223
0.00179352
0.00171441
0.00162689
0.00154901
0.00148346
0.00143003
0.00137731
0.00125665
0.00454511
0.00129767
0.00129264
0.00122333
0.00115441
0.00109483
0.00104519
0.00100484
0.000965804
0.00147134
0.00295605
0.000983797
0.000964171
0.000906983
0.000853562
0.000894431
0.00131914
0.00179168
0.00250451
0.0038916
0.00203813
0.000770515
0.000746317
0.000700112
0.000658811
0.000624664
0.000597268
0.000575845
0.000556275
0.000506152
0.00598291
0.00511959
0.0049844
0.00506514
0.00539513
0.00596223
0.00681949
0.00760693
0.00913437
0.0107723
0.00130115
0.00059527
0.000568713
0.000533779
0.000504929
0.000483044
0.000467828
0.000458765
0.000453772
0.000444087
0.00114937
0.000482812
0.000461358
0.000434072
0.000412195
0.000396483
0.000386825
0.000383112
0.00109901
0.00340262
0.0294911
0.00203742
0.00309519
0.00401276
0.00461322
0.004957
0.00512964
0.00519985
0.00796815
0.00524394
0.0270667
0.00313004
0.00335084
0.00329649
0.00315851
0.00300669
0.0028671
0.00274684
0.00263758
0.00252681
0.0142229
0.00580206
0.00573198
0.00570282
0.00563893
0.0055945
0.005571
0.0055853
0.00569684
0.0044724
0.00534776
0.0011633
0.00118301
0.0011302
0.00107109
0.00101807
0.000973088
0.000935989
0.000898474
0.000810193
0.00324804
0.000860764
0.000857289
0.000810818
0.000764135
0.000723502
0.000689361
0.000661241
0.000869366
0.00124175
0.00273089
0.00118363
0.00112276
0.00111271
0.0011961
0.00135993
0.00159831
0.00185635
0.0023105
0.00306104
0.00147005
0.000520898
0.000504734
0.000473135
0.000444688
0.000420978
0.000401681
0.000386217
0.000371502
0.000332944
0.00962719
0.00932948
0.00943534
0.00955122
0.00979231
0.0101561
0.0106923
0.0110831
0.0122576
0.0123647
0.000944873
0.000409758
0.000391564
0.000367158
0.000346862
0.000331219
0.00031993
0.000312556
0.00030744
0.000294837
0.000848458
0.00032969
0.00031501
0.000296197
0.000280998
0.000269865
0.000262641
0.000259189
0.000259161
0.00124702
0.196272
0.00196631
0.00154666
0.000623088
0.000196171
0.000830682
0.00130539
0.00166093
0.00514106
0.00217853
0.0180954
0.00126392
0.00158888
0.00173257
0.00178101
0.00177889
0.00175208
0.00171495
0.0016701
0.00161197
0.0130462
0.0076486
0.0074722
0.007439
0.00740703
0.00738751
0.00738588
0.00743087
0.00745931
0.00602955
0.00340695
0.000682654
0.000692343
0.000661085
0.000625985
0.000594324
0.000567303
0.000544801
0.000521298
0.000463573
0.00213665
0.000565371
0.000556656
0.000547303
0.000563114
0.000601146
0.00065652
0.000715892
0.0008477
0.000974822
0.00209446
0.00105757
0.00103514
0.00102322
0.00106073
0.00113871
0.00125404
0.0013778
0.00165497
0.00205263
0.000952697
0.000315016
0.000304997
0.000285736
0.000268312
0.000253692
0.000241637
0.000231751
0.000221905
0.000195173
0.0135991
0.0136819
0.0139473
0.0140761
0.014246
0.0144737
0.0147998
0.0150072
0.016008
0.0149887
0.000617459
0.000252759
0.000241402
0.000226195
0.000213503
0.000203611
0.000196279
0.00019118
0.000187096
0.000175369
0.000566299
0.000200884
0.000191696
0.000180223
0.000170932
0.000164044
0.000159424
0.000156948
0.000166128
0.00085785
0.319406
0.00640676
0.00689822
0.00718752
0.00729986
0.00737627
0.00730636
0.00609108
0.0151929
0.00871964
0.00745665
0.000371355
0.000112427
8.82983e-05
0.000239435
0.000352951
0.00043949
0.000507237
0.000560036
0.000589513
0.0111025
0.00849296
0.00834927
0.00832054
0.00834281
0.00838036
0.00844741
0.0085644
0.00853745
0.0073052
0.00177604
0.000325666
0.000327432
0.000312258
0.000295572
0.000280523
0.000267617
0.000256768
0.000244839
0.000213446
0.00109324
0.000246076
0.00024299
0.000229454
0.000215884
0.000203939
0.000217281
0.000245702
0.00030593
0.000320686
0.000774229
0.000192392
0.000187387
0.000175957
0.000183999
0.000208044
0.000247985
0.00029644
0.000443766
0.000662631
0.000512567
0.000155903
0.000150346
0.000140825
0.000132225
0.00012497
0.000118913
0.000113819
0.000108399
9.26972e-05
0.0143346
0.0143585
0.0145752
0.0146561
0.0147426
0.0148561
0.0150285
0.015188
0.0160315
0.0149043
0.000335588
0.000127817
0.000121767
0.000114098
0.000107714
0.000102714
9.89468e-05
9.62093e-05
9.37145e-05
8.52879e-05
0.010725
0.0102162
0.0103142
0.0102434
0.0102815
0.0103666
0.0104766
0.010761
0.0106956
0.0111496
0.0503788
0.0299561
0.0303585
0.0307158
0.0310356
0.0313492
0.0315394
0.0327369
0.0357027
0.0444343
0.0024517
0.000262257
0.00028639
0.000287891
0.000278899
0.000265052
0.000249075
0.000232029
0.000212706
0.000186562
0.0059593
0.00515713
0.00521176
0.00520488
0.00525574
0.00532379
0.00542395
0.0055469
0.00555151
0.00519042
0.000540637
0.000107366
0.000105581
0.000100073
9.4447e-05
8.93973e-05
8.4986e-05
8.11294e-05
7.6514e-05
6.40534e-05
0.00033941
8.19038e-05
7.9346e-05
7.46744e-05
7.02306e-05
6.6344e-05
6.2986e-05
6.00587e-05
5.6598e-05
9.0436e-05
0.000229839
6.47102e-05
6.19679e-05
5.80596e-05
5.45084e-05
5.14519e-05
4.88275e-05
4.65365e-05
4.38561e-05
9.1704e-05
0.000165478
5.2982e-05
5.03531e-05
4.71151e-05
4.42746e-05
4.18755e-05
3.98427e-05
3.80724e-05
3.5998e-05
2.94342e-05
0.00715201
0.00703989
0.00706962
0.00707823
0.00709087
0.00711411
0.0071642
0.00725171
0.00766379
0.00786161
0.000110473
4.41287e-05
4.15952e-05
3.90012e-05
3.68887e-05
3.5243e-05
3.39957e-05
3.30597e-05
3.20695e-05
2.80379e-05
0.0397523
0.0385534
0.0385597
0.0384919
0.038481
0.038501
0.0385478
0.0386762
0.0386903
0.0397892
2.99117
2.63614
3.02173
4.34465
3.07193
2.75495
3.16061
5.04144
2.54179
1.92009
3.10407
5.51158
2.09718
1.36396
2.78979
5.2214
1.74722
1.00905
2.49903
4.84861
1.67059
0.877078
2.24812
5.51517
1.365
0.64533
1.66611
4.48497
1.01131
0.423817
1.07891
3.21418
0.716819
0.257385
0.644047
2.17983
0.298201
0.0637938
0.100212
0.872605
0.509934
0.219863
0.0839611
0.307946
0.720668
0.255835
0.0553486
0.237262
0.813281
0.252739
0.0475279
0.250819
0.882446
0.216413
0.0714832
0.354904
0.928758
0.17557
0.115688
0.406056
0.900165
0.0925798
0.0238978
0.115137
0.865893
0.0298125
0.0191022
0.0195919
0.832574
0.0146277
0.0165791
0.0167128
0.803437
0.014858
0.0167564
0.0167996
0.693643
0.0174934
0.0206215
0.0205238
0.599655
0.554456
0.519438
0.599842
0.683709
0.547529
0.481264
0.587266
0.732452
0.521881
0.470858
0.575594
0.775389
0.495544
0.478665
0.595934
0.806806
0.467049
0.472677
0.616212
0.853848
0.47374
0.491253
0.658033
0.863543
0.457349
0.464467
0.63381
0.86728
0.441321
0.424265
0.587975
0.888094
0.426473
0.391791
0.552947
0.924088
0.423304
0.387328
0.489008
0.240637
0.255838
0.256292
0.254648
0.274308
0.232357
0.223098
0.235746
0.315986
0.233527
0.222092
0.243911
0.359269
0.238733
0.220169
0.257349
0.401151
0.242131
0.213518
0.26695
0.440088
0.242761
0.197347
0.262725
0.469731
0.237463
0.172325
0.250154
0.497532
0.233337
0.144905
0.234529
0.518733
0.213449
0.102136
0.207619
0.488689
0.155916
0.0385828
0.153414
0.161204
0.17289
0.173209
0.170929
0.167983
0.150202
0.149643
0.155942
0.183563
0.148282
0.142435
0.150969
0.207837
0.157177
0.143064
0.154267
0.234467
0.166024
0.141538
0.158309
0.267146
0.179723
0.142366
0.164695
0.297275
0.189081
0.136015
0.164811
0.330332
0.200124
0.127901
0.164223
0.363203
0.203726
0.108073
0.157093
0.365251
0.190224
0.0843925
0.145798
0.104216
0.109331
0.11084
0.11002
0.107937
0.0965479
0.097542
0.101111
0.111274
0.0900474
0.0874291
0.0923185
0.124434
0.0965785
0.088428
0.0926647
0.140445
0.104392
0.0887669
0.0943084
0.160801
0.115683
0.0904622
0.0975685
0.180727
0.124618
0.0876836
0.0974901
0.205476
0.136782
0.0853928
0.0992748
0.231091
0.145886
0.0742291
0.0975545
0.224772
0.139296
0.0635245
0.102057
0.0747781
0.0760099
0.0772224
0.0768036
0.0743759
0.0656419
0.0658739
0.0673647
0.0739652
0.0584262
0.0566117
0.0591664
0.0812072
0.0622506
0.0569402
0.0575264
0.0916905
0.0681986
0.0579457
0.0578394
0.106047
0.0781078
0.0614913
0.0608389
0.120165
0.086606
0.0620767
0.0617466
0.139049
0.0987994
0.0641872
0.0653368
0.159231
0.110787
0.0602772
0.067285
0.151079
0.109887
0.0607623
0.0796559
0.0564756
0.0556803
0.0564014
0.0560143
0.0517015
0.0441239
0.0438759
0.0441289
0.0511848
0.0386395
0.0371006
0.0384958
0.0550907
0.0406008
0.0367168
0.0358539
0.0623353
0.0448196
0.0376513
0.0357001
0.0725584
0.0525291
0.0411633
0.0378727
0.08228
0.0591388
0.0425762
0.0385382
0.0965492
0.0697178
0.0463638
0.0425133
0.111359
0.0811233
0.0461888
0.0460648
0.102815
0.08228
0.0524322
0.0608441
0.0446021
0.0428118
0.0431758
0.0427715
0.0370215
0.0303473
0.0299408
0.029554
0.0362085
0.0258632
0.0245776
0.0253413
0.0382428
0.0268065
0.0238175
0.0224715
0.043622
0.0299067
0.0245905
0.0223173
0.0514541
0.0361382
0.0279331
0.0241979
0.0583043
0.0410777
0.029402
0.0245608
0.0694841
0.0500417
0.0337942
0.0286249
0.0787485
0.0584491
0.0342892
0.0315139
0.0719335
0.0607526
0.0429096
0.0459075
0.0361254
0.033904
0.0340541
0.0336648
0.0270967
0.0213739
0.0209778
0.020274
0.0258364
0.0173185
0.016308
0.0167989
0.0263843
0.0174106
0.0151431
0.0136843
0.0304384
0.0196297
0.015647
0.0135401
0.0366737
0.0247611
0.0186618
0.0152489
0.0414797
0.0283008
0.0197405
0.0152306
0.0505451
0.0358894
0.0241948
0.0193037
0.0552215
0.0407034
0.0238252
0.0204284
0.0506636
0.0439034
0.03312
0.0336126
0.0295451
0.0272327
0.02726
0.0269024
0.0198957
0.0151734
0.0148463
0.0139615
0.01869
0.01173
0.0109844
0.0114416
0.017972
0.0110664
0.00940957
0.00804321
0.0209282
0.0124935
0.00957705
0.00781591
0.0258021
0.0165878
0.0120996
0.00921717
0.0288805
0.0188346
0.0125405
0.0086461
0.0364749
0.0253097
0.0168288
0.0126886
0.0383813
0.0274928
0.0155564
0.0123239
0.035538
0.0310879
0.024375
0.0237672
0.0240522
0.0218762
0.021848
0.021498
0.0143854
0.0106069
0.0103588
0.010156
0.0136667
0.00802227
0.0075007
0.00803334
0.0119922
0.00681756
0.00564781
0.00445377
0.0141645
0.00767948
0.0056052
0.00426254
0.0178776
0.0108351
0.00761213
0.00532706
0.0194061
0.0118696
0.00732742
0.00408329
0.025963
0.0174414
0.0113662
0.00807035
0.0262011
0.017832
0.00934637
0.00658623
0.0245876
0.0215351
0.0172018
0.0161449
0.0191711
0.0173049
0.0172605
0.0168519
0.0116597
0.0081149
0.00808886
0.00821772
0.0100659
0.00552016
0.00517026
0.00581768
0.00766578
0.00393506
0.00313312
0.00270812
0.00940466
0.00450744
0.00307112
0.00213004
0.0122145
0.00691419
0.00465783
0.00295599
0.012417
0.00691118
0.00370832
0.001245
0.0183279
0.0118265
0.00755557
0.00510449
0.0172486
0.0107925
0.00478928
0.00258686
0.0166489
0.0145724
0.0116808
0.0104726
0.014857
0.0134333
0.0133872
0.0128486
0.00907686
0.00629509
0.00628125
0.00640748
0.00746581
0.00382217
0.00359636
0.00437128
0.00446673
0.00193661
0.00187099
0.00201298
0.00610912
0.00248544
0.00151664
0.00145951
0.00823896
0.00432074
0.00277905
0.00159012
0.0072981
0.0034488
0.00124186
0.000918282
0.012945
0.00797932
0.00503896
0.00338377
0.0105767
0.00566565
0.00147959
0.00109498
0.0109038
0.00957732
0.00760181
0.00638089
0.0110115
0.00950316
0.00951256
0.00949683
0.00677669
0.00470213
0.00469384
0.00480302
0.00564032
0.00271052
0.00257096
0.00348588
0.00268535
0.00132163
0.0013133
0.00142606
0.00391437
0.00128797
0.000948075
0.00102641
0.00553736
0.00269176
0.00166413
0.000901344
0.00357706
0.00108451
0.000607005
0.000645267
0.00937666
0.00553667
0.00355775
0.00263607
0.00553371
0.00192427
0.000777577
0.000766944
0.00662115
0.00589404
0.00452929
0.00335842
0.00850748
0.00718011
0.00708011
0.0069773
0.00469127
0.00327868
0.00328695
0.00338659
0.00455499
0.00214542
0.00206309
0.00314346
0.00179534
0.000867799
0.000865427
0.000949309
0.00255321
0.000680546
0.000620232
0.000679152
0.00378892
0.00174785
0.00107946
0.000660021
0.000975719
0.000412459
0.000396915
0.000427043
0.00744736
0.00434326
0.00304244
0.00282609
0.00164652
0.000533906
0.000506536
0.000508277
0.002947
0.00269065
0.00174784
0.000727272
0.00601427
0.00516501
0.00517487
0.00518564
0.00290853
0.00205045
0.00203667
0.0020841
0.00440183
0.00229563
0.00225103
0.00355438
0.00109275
0.000521467
0.000522382
0.000579898
0.00176241
0.000431859
0.000372644
0.000413378
0.00266656
0.00120146
0.000775376
0.000625287
0.000606882
0.000246866
0.000238863
0.00026054
0.00724623
0.00443803
0.00360009
0.00416229
0.000704472
0.000320677
0.000305594
0.000312274
0.000987682
0.000570613
0.000563315
0.000461335
0.00256548
0.00243282
0.00257778
0.00271327
0.00176795
0.00129778
0.00129337
0.00132978
0.0053862
0.00334716
0.0033218
0.00493312
0.000576432
0.000274975
0.000277465
0.000313013
0.00119632
0.000236449
0.000196513
0.000259444
0.00176011
0.000688612
0.000415781
0.00045711
0.000329359
0.000129712
0.000126549
0.000140368
0.0087104
0.00564873
0.00510779
0.00667257
0.000383496
0.000170728
0.000163895
0.000170759
0.000541202
0.000324559
0.000322334
0.000262454
0.00495366
0.00155414
0.00153092
0.0046785
0.000664207
0.000541824
0.000594992
0.000676548
0.00667177
0.00458658
0.00456644
0.00645722
0.000229394
0.000113925
0.00011687
0.000135273
0.000427826
8.03391e-05
8.16549e-05
9.44267e-05
0.000635763
6.3019e-05
6.34557e-05
7.29285e-05
0.000135144
5.31987e-05
5.29166e-05
6.01642e-05
0.0100462
0.00632651
0.00594793
0.008622
0.00015984
7.23098e-05
7.05699e-05
7.5149e-05