/*--------------------------------*- C++ -*----------------------------------*\
| =========                 |                                                 |
| \\      /  F ield         | foam-extend: Open Source CFD                    |
|  \\    /   O peration     | Version:     4.0                                |
|   \\  /    A nd           | Web:         http://www.foam-extend.org         |
|    \\/     M anipulation  |                                                 |
\*---------------------------------------------------------------------------*/
FoamFile
{
    version     2.0;
    format      ascii;
    class       volScalarField;
    location    "600";
    object      epsilon;
}
// * * * * * * * * * * * * * * * * * * * * * * * * * * * * * * * * * * * * * //

dimensions      [0 2 -3 0 0 0 0];

internalField   nonuniform List<scalar> 
34480
(
4800.92
4794.79
4792.52
4791.87
4794.74
4812.4
4876.25
5047.89
5418.16
6197.51
5387.04
6665.47
9299.66
15412.2
31770.2
79349.1
215700
563951
1.27442e+06
2.30714e+06
7004.63
8441.6
11179.8
16986.6
31603.8
75298.7
215353
638250
1.6899e+06
3.60018e+06
5843.46
7110.53
9445.83
14213.8
25886.6
61505.1
185589
609039
1.82017e+06
4.37018e+06
4721.43
5846.53
7898.11
12010.9
21933.6
52553.8
165906
590613
1.94437e+06
5.14373e+06
3724.83
4658.7
6387.03
9912.63
18574.2
46160.7
154681
594568
2.12379e+06
6.07049e+06
2901.71
3644.96
5052.26
7996.26
15441.9
40022.8
141787
581281
2.22193e+06
6.77813e+06
2041.87
2546.97
3524.58
5658.34
11342.3
31280.3
118956
521202
2.12284e+06
6.86538e+06
1167.33
1357.58
1732.79
2619.43
5297.16
15946.3
67094
318330
1.3879e+06
4.73109e+06
5593.57
5578.79
5582.29
5610.16
5670.47
5758.5
5855.99
5972.62
6201.85
6528.61
4727.27
4725.82
4733.29
4749.82
4774.97
4810.18
4867.98
4975.03
5176.06
5569.36
2938.72
3400.81
4279.06
5946.66
9443.37
17904.5
42851.2
127252
398477
1.10343e+06
4035.87
4672.47
5804.88
7858.02
11832.2
20909
46734.6
142147
509056
1.63387e+06
3572.71
4199.29
5294.42
7247.85
10946.6
19137.6
42359.6
135114
547527
1.97671e+06
3024.58
3622.62
4670.33
6528.66
10050.5
17675.6
39192.5
130417
587826
2.33501e+06
2483.85
3001.13
3925.54
5605.84
8874.08
15982.3
36358.5
128741
645838
2.79239e+06
2008.62
2433.54
3212
4663.71
7570.65
14015.9
32846.6
123164
678465
3.14603e+06
1473.61
1766.77
2313.51
3370.98
5563.91
10596.5
25896.1
105333
646208
3.22156e+06
952.249
1062.61
1267.65
1673.6
2566.41
4760.62
12089.4
57168.4
416386
2.32838e+06
5469.74
5448.3
5440.88
5454.59
5503.13
5589.68
5686.78
5770.8
6041.38
6722.31
4646.66
4645.09
4650.54
4664.38
4687.37
4719.97
4765.38
4833.2
4942.16
5119.35
1589.31
1771.78
2100.9
2675.58
3725.55
5764.04
10150.7
20610.2
46316.5
101554
2164.2
2460.09
2971.55
3830.35
5307.47
8108.68
14138
29597.9
74282
189087
2061.18
2379.59
2929.29
3864.67
5453.46
8446.66
14988.1
33090.5
93898.3
275762
1856.83
2182.32
2751.98
3727.07
5410.67
8564.05
15536.3
36133.4
115171
383941
1604.75
1900.3
2430.78
3369.8
5056.83
8271.4
15601.7
38986.2
140752
526613
1359.52
1613.35
2081.71
2934.08
4528.72
7648.19
15011.4
40259.7
163329
675352
1051.3
1232.7
1573.52
2218.81
3478.35
6042.3
12413.1
36379.4
168267
769636
785.666
858.052
993.694
1252.7
1789.05
2971.5
6186.04
19940.4
108333
567906
5363.58
5339.85
5326.78
5329.89
5359.08
5421.27
5506.56
5580.56
5722.27
6166.82
4557.72
4556.36
4560.05
4570.07
4587.2
4612.15
4646.2
4692.74
4761.62
4877.51
899.833
965.75
1074.09
1256.42
1561.46
2079.23
2991.04
4653.99
7732.3
12935.7
1093.89
1218.3
1425.76
1756.89
2287.1
3171.75
4733.51
7725.85
13970.7
26535.8
1127.24
1275.28
1525.99
1937.08
2592.15
3697.89
5692.91
9741.83
19315.1
42096.8
1094.34
1258.23
1543.33
2017.63
2787.46
4101.44
6519.52
11684.2
25429.2
63423.3
1005.77
1163.58
1447.2
1938.91
2776.52
4250.51
7076.1
13540.2
32970.1
94147.4
900.645
1044.02
1309.88
1784.5
2632.42
4176.97
7268.21
14829.7
40330
130344
743.47
850.847
1053.22
1429.91
2136.2
3486.01
6352.82
14001.7
43238
158548
654.543
700.73
787.516
946.714
1258.11
1901.64
3410.61
7871.56
27343.1
115728
5242.14
5219.53
5205.58
5204.24
5221.61
5264.73
5335.91
5416.58
5515.79
5802.46
4458.55
4457.14
4459.27
4465.73
4476.84
4493.03
4515.16
4545.6
4591.42
4674.45
573.049
596.332
628.627
679.785
757.918
877.857
1063.84
1347.6
1757.17
2309.5
553.636
600.223
673.954
786.008
954.813
1212.12
1612.43
2245.59
3242.77
4760.35
607.328
669.068
770.116
929.306
1169.8
1543.39
2140.02
3132.87
4862.15
7945.49
635.782
710.928
838.998
1044.47
1359.36
1858.46
2673.92
4090.84
6821.39
12543.9
623.322
700.747
838.354
1070.13
1444.31
2061.8
3118.62
5073.54
9286.7
19532
591.81
667.096
805.755
1045.94
1454
2154.54
3409.49
5872.43
11787.1
28266.4
525.758
585.724
697.387
898.942
1258.78
1909.77
3152.15
5794.89
12957.7
35682.1
550.752
579.274
632.378
724.822
892.801
1214.36
1889.69
3473.74
8261
25784.2
5116.08
5095.23
5081.63
5078.08
5088.19
5117.15
5170.03
5242.51
5327.89
5511.9
4349.72
4348.3
4349.53
4353.89
4361.47
4372.37
4387.08
4407.44
4439.72
4503.75
417.767
426.862
436.746
450.889
469.963
495.927
531.452
578.037
632.044
690.351
305.879
322.246
346.354
381.21
430.734
500.595
599.169
735.277
910.119
1115.88
342.579
366.318
403.374
459.679
540.731
658.076
828.745
1076.09
1419.77
1885.54
379.532
411.654
464.471
545.557
663.813
839.14
1100.78
1495.68
2091.37
3048.35
393.291
428.85
490.415
590.563
744.067
983.44
1360.23
1966.29
2976.33
4883.98
393.496
430.844
498.178
610.247
790.881
1084.82
1570.28
2395.85
3908.9
7237.11
376.435
408.547
466.607
567.03
736.364
1026.78
1538.79
2480.45
4411.53
9307.26
469.009
486.28
517.785
569.625
656.859
810.196
1100.23
1683.24
2993.32
6789.88
4984.18
4965.61
4953.28
4949.31
4955.93
4976.63
5015.48
5073.46
5144.89
5260.53
4232.13
4230.71
4231.41
4234.57
4240.2
4248.36
4259.33
4274.61
4299.72
4352.62
338.67
342.738
346.038
349.994
354.377
359.344
364.961
370.452
373.142
371.939
197.473
203.164
210.711
220.964
234.626
252.562
275.979
305.351
338.025
368.798
215.666
224.334
237.012
255.658
281.226
315.948
362.753
424.267
497.326
574.498
244.272
257.401
277.85
307.659
348.952
406.278
485.457
593.621
731.334
905.258
262.018
277.653
303.518
343.801
402.401
488.636
615.035
799.758
1057.34
1442.15
272.129
289.972
320.898
369.77
444.157
558.589
734.659
1006.25
1416.57
2136.21
277.91
294.671
323.505
370.724
445.205
565.539
763.072
1092.44
1644.42
2766.31
405.812
416.108
434.249
462.417
506.496
577.56
698.405
914.057
1306.33
2201
4845.59
4829.54
4818.95
4815.52
4820.76
4836.96
4866.77
4911.87
4968.6
5040.04
4106.99
4105.58
4105.98
4108.44
4112.99
4119.65
4128.68
4141.34
4162.52
4208.56
294.14
296.182
297.46
298.584
299.352
299.731
299.581
298.179
293.724
284.909
149.673
151.766
154.151
157.098
160.721
165.152
170.625
177.142
183.801
189
155.974
159.105
163.284
169.262
177.05
187.017
199.67
215.304
232.223
246.627
174.641
179.952
187.629
198.127
211.827
229.59
252.462
281.594
315.125
350.086
189.131
195.896
206.362
221.816
243.056
272.403
312.658
367.57
436.345
521.265
199.948
208.341
222.067
242.388
271.442
313.383
373.587
459.887
575.102
741.971
214.443
223.121
237.021
258.351
289.559
336.601
408.381
519.417
682.903
957.205
357.41
363.494
373.642
388.518
410.426
443.086
493.396
574.801
706.366
949.957
4699.54
4686.04
4677.35
4674.84
4679.6
4693.18
4717.16
4752.67
4795.95
4841.73
3975.2
3973.82
3974.04
3976.09
3979.99
3985.77
3993.66
4004.72
4023.31
4064.32
266.019
267.101
267.706
268.064
268.05
267.623
266.652
264.517
259.729
250.514
127.605
128.457
129.254
130.087
130.99
132.016
133.283
134.858
136.509
137.678
127.496
128.659
130.024
131.939
134.304
137.181
140.72
145.052
149.678
152.989
138.729
140.93
143.817
147.463
151.886
157.212
163.664
171.61
180.537
188.795
148.939
151.894
156.084
161.898
169.377
179.029
191.474
207.715
227.243
248.495
157.592
161.555
167.573
175.81
186.826
201.628
221.434
248.246
281.777
324.211
174.132
178.657
185.258
194.666
207.365
225.068
250.116
286.52
336.666
409.85
320.448
324.046
329.55
337.177
347.934
362.977
384.358
416.577
468.137
550.928
4545.48
4534.41
4527.51
4525.94
4530.46
4542.1
4561.72
4589.9
4622.55
4653.76
3837.33
3835.99
3836.13
3837.92
3841.4
3846.6
3853.7
3863.63
3880.23
3917.06
246.068
246.624
246.976
247.157
247.087
246.726
245.952
244.201
240.108
231.614
116.803
117.188
117.477
117.699
117.877
118.057
118.329
118.785
119.393
119.912
113.562
114.015
114.461
115.083
115.807
116.658
117.731
119.156
120.838
121.979
119.94
120.891
122.001
123.271
124.672
126.223
128.026
130.334
133.193
135.846
126.682
128.008
129.697
131.881
134.478
137.592
141.41
146.376
152.631
159.227
132.844
134.741
137.385
140.699
144.825
149.969
156.41
164.841
175.387
188.071
148.708
151.114
154.232
158.321
163.386
169.878
178.423
190.309
206.748
229.381
292.028
294.192
297.073
300.855
306.086
313.068
322.439
336.005
359.949
395.91
4383.08
4374.18
4368.87
4368.05
4372.26
4382.15
4398.1
4420.27
4444.82
4467.24
3693.74
3692.45
3692.53
3694.14
3697.31
3702.07
3708.58
3717.59
3732.49
3765.55
230.369
230.607
230.842
231
231.022
230.869
230.42
229.156
225.795
218.16
111.179
111.365
111.48
111.528
111.529
111.517
111.562
111.748
112.107
112.527
106.638
106.824
106.969
107.172
107.392
107.648
108.012
108.595
109.426
110.055
110.013
110.44
110.877
111.318
111.744
112.162
112.649
113.401
114.598
115.881
114.316
114.93
115.619
116.437
117.316
118.281
119.429
121.041
123.442
126.203
118.436
119.355
120.52
121.847
123.377
125.146
127.244
130.026
133.842
138.71
132.724
134.038
135.509
137.258
139.217
141.499
144.313
148.201
154.177
162.834
269.729
271.091
272.534
274.34
276.873
280.177
284.461
290.586
303.39
322.181
4212.22
4205.21
4201.2
4200.91
4204.68
4212.89
4225.63
4242.85
4261.29
4277.99
3544.62
3543.4
3543.45
3544.92
3547.83
3552.22
3558.2
3566.41
3579.76
3609.26
216.95
216.985
217.148
217.311
217.42
217.437
217.246
216.368
213.608
206.791
108.024
108.114
108.165
108.168
108.14
108.104
108.11
108.227
108.508
108.913
103.201
103.284
103.331
103.396
103.459
103.535
103.675
103.967
104.472
104.927
104.788
104.984
105.158
105.309
105.426
105.517
105.638
105.93
106.577
107.415
107.484
107.778
108.061
108.362
108.638
108.9
109.212
109.765
110.874
112.386
110.127
110.572
111.081
111.604
112.159
112.753
113.433
114.419
116.062
118.5
122.672
123.414
124.108
124.835
125.542
126.258
127.079
128.294
130.706
134.829
251.589
252.515
253.195
254.026
255.272
256.912
259.01
262.022
269.537
280.444
4033.08
4027.61
4024.62
4024.65
4027.9
4034.54
4044.55
4057.76
4071.7
4084.49
3390.17
3389.01
3389.05
3390.39
3393.07
3397.1
3402.59
3410.05
3421.95
3448.03
204.742
204.644
204.754
204.914
205.073
205.196
205.169
204.56
202.265
196.19
106.076
106.116
106.139
106.135
106.114
106.091
106.1
106.195
106.436
106.831
101.519
101.56
101.577
101.597
101.611
101.63
101.69
101.856
102.194
102.556
102.093
102.181
102.251
102.301
102.327
102.336
102.365
102.51
102.921
103.545
103.771
103.917
104.035
104.141
104.211
104.253
104.309
104.506
105.096
106.07
105.422
105.632
105.847
106.048
106.243
106.437
106.659
107.049
107.883
109.361
116.302
116.738
117.067
117.354
117.57
117.726
117.87
118.176
119.218
121.534
236.051
236.749
237.04
237.412
238.059
238.956
240.107
241.758
246.353
252.967
3846.01
3841.78
3839.56
3839.74
3842.44
3847.72
3855.48
3865.56
3876.23
3886.28
3230.58
3229.49
3229.52
3230.75
3233.2
3236.89
3241.91
3248.65
3259.16
3281.92
193.11
192.923
192.988
193.134
193.31
193.483
193.544
193.107
191.164
185.747
104.731
104.743
104.754
104.752
104.743
104.736
104.753
104.835
105.044
105.422
100.713
100.739
100.747
100.752
100.751
100.75
100.776
100.874
101.107
101.402
100.752
100.79
100.817
100.835
100.839
100.836
100.848
100.937
101.218
101.699
101.804
101.879
101.93
101.964
101.971
101.955
101.942
102.013
102.354
103.029
102.827
102.92
103.004
103.079
103.148
103.215
103.298
103.483
103.963
104.953
112.168
112.435
112.592
112.696
112.734
112.711
112.652
112.662
113.112
114.553
221.919
222.5
222.6
222.768
223.144
223.707
224.436
225.456
228.238
232.25
3651.6
3648.32
3646.66
3646.9
3649.08
3653.22
3659.21
3666.91
3675.22
3683.31
3066.13
3065.11
3065.13
3066.24
3068.47
3071.83
3076.38
3082.42
3091.61
3111.16
181.638
181.396
181.422
181.544
181.712
181.894
181.989
181.653
179.971
175.101
103.699
103.696
103.701
103.703
103.703
103.708
103.73
103.8
103.978
104.329
100.338
100.357
100.364
100.364
100.358
100.35
100.358
100.414
100.573
100.813
100.125
100.14
100.15
100.157
100.16
100.161
100.172
100.232
100.426
100.795
100.794
100.833
100.857
100.867
100.86
100.837
100.813
100.838
101.041
101.52
101.441
101.475
101.503
101.531
101.561
101.594
101.64
101.748
102.044
102.733
109.344
109.513
109.59
109.621
109.606
109.546
109.449
109.381
109.553
110.505
208.298
208.813
208.825
208.907
209.158
209.562
210.088
210.788
212.364
214.711
3450.6
3448.05
3446.8
3447.02
3448.76
3451.99
3456.61
3462.54
3469.15
3475.8
2897.18
2896.25
2896.26
2897.26
2899.27
2902.3
2906.38
2911.75
2919.68
2936.14
170.038
169.763
169.754
169.847
169.991
170.156
170.249
169.966
168.475
164.046
102.842
102.833
102.835
102.839
102.846
102.857
102.881
102.939
103.084
103.4
100.17
100.186
100.192
100.191
100.183
100.173
100.171
100.199
100.304
100.496
99.8664
99.8702
99.8736
99.8776
99.8814
99.8863
99.8982
99.9392
100.068
100.344
100.296
100.317
100.329
100.332
100.325
100.308
100.289
100.297
100.416
100.754
100.724
100.731
100.736
100.748
100.766
100.792
100.829
100.902
101.087
101.564
107.252
107.36
107.397
107.403
107.381
107.33
107.25
107.18
107.217
107.869
194.522
194.989
194.963
195.01
195.198
195.515
195.925
196.441
197.221
198.489
3243.96
3241.94
3240.98
3241.18
3242.55
3245.07
3248.67
3253.29
3258.62
3264.17
2724.3
2723.46
2723.46
2724.35
2726.14
2728.83
2732.46
2737.17
2743.92
2757.45
158.092
157.802
157.764
157.826
157.936
158.067
158.136
157.876
156.526
152.427
102.099
102.088
102.089
102.094
102.104
102.118
102.141
102.187
102.3
102.571
100.096
100.109
100.115
100.113
100.107
100.097
100.09
100.101
100.164
100.311
99.79
99.79
99.791
99.7938
99.7979
99.8037
99.8139
99.84
99.9204
100.116
100.066
100.078
100.084
100.086
100.082
100.072
100.06
100.06
100.126
100.355
100.359
100.355
100.352
100.359
100.374
100.396
100.427
100.477
100.589
100.904
105.547
105.615
105.632
105.63
105.615
105.583
105.531
105.481
105.457
105.916
180.08
180.497
180.456
180.488
180.637
180.892
181.219
181.612
181.959
182.536
3032.78
3031.17
3030.42
3030.58
3031.66
3033.64
3036.48
3040.14
3044.45
3049.13
2548.29
2547.54
2547.54
2548.32
2549.89
2552.26
2555.44
2559.53
2565.17
2575.95
145.631
145.341
145.281
145.309
145.379
145.464
145.496
145.248
144.021
140.154
101.449
101.439
101.439
101.445
101.455
101.47
101.491
101.526
101.606
101.823
100.059
100.069
100.074
100.073
100.068
100.06
100.053
100.054
100.087
100.189
99.8005
99.7996
99.8
99.8019
99.8052
99.8098
99.8168
99.8315
99.8763
100.003
99.9764
99.9834
99.9873
99.9882
99.9861
99.9807
99.9732
99.9705
100.002
100.146
100.164
100.157
100.154
100.158
100.169
100.187
100.209
100.24
100.3
100.491
104.046
104.088
104.094
104.092
104.084
104.067
104.037
104.007
103.965
104.289
164.506
164.86
164.815
164.839
164.955
165.155
165.407
165.701
165.915
166.18
2818.42
2817.12
2816.53
2816.66
2817.51
2819.09
2821.35
2824.28
2827.78
2831.71
2370.07
2369.43
2369.43
2370.11
2371.48
2373.55
2376.31
2379.83
2384.48
2392.79
132.559
132.288
132.211
132.202
132.221
132.246
132.227
131.989
130.925
127.306
100.899
100.892
100.892
100.897
100.906
100.919
100.937
100.963
101.015
101.165
100.032
100.038
100.041
100.041
100.038
100.033
100.028
100.025
100.038
100.095
99.8504
99.8498
99.85
99.8511
99.8531
99.8559
99.8597
99.8666
99.8874
99.9569
99.9602
99.9646
99.967
99.9677
99.9665
99.9634
99.9586
99.9547
99.9655
100.042
100.043
100.038
100.035
100.038
100.045
100.055
100.067
100.082
100.108
100.205
102.678
102.703
102.706
102.705
102.7
102.689
102.672
102.652
102.617
102.834
147.177
147.441
147.402
147.416
147.499
147.64
147.817
148.013
148.12
148.269
2602.35
2601.3
2600.82
2600.92
2601.6
2602.86
2604.68
2607.06
2609.93
2613.24
2190.22
2189.63
2189.63
2190.22
2191.41
2193.19
2195.56
2198.56
2202.33
2208.67
117.795
117.622
117.583
117.58
117.59
117.604
117.6
117.484
116.83
113.757
100.466
100.462
100.463
100.467
100.474
100.484
100.497
100.516
100.546
100.622
100.012
100.014
100.016
100.016
100.015
100.014
100.011
100.009
100.011
100.03
99.9197
99.9194
99.9195
99.9201
99.9211
99.9224
99.9241
99.9268
99.9339
99.9613
99.9817
99.9842
99.9856
99.986
99.9854
99.9837
99.9809
99.9779
99.9792
100.008
99.98
99.9776
99.9767
99.978
99.9811
99.9854
99.9899
99.9943
100.002
100.034
101.427
101.44
101.444
101.443
101.439
101.43
101.418
101.405
101.391
101.51
126.776
126.912
126.883
126.888
126.934
127.013
127.111
127.214
127.245
127.299
2385.41
2384.53
2384.13
2384.21
2384.76
2385.78
2387.26
2389.2
2391.58
2394.4
8438.79
8880.82
8655.77
7620.02
2.58178e+06
2.46687e+06
2.40118e+06
2.31723e+06
4.85917e+06
4.67107e+06
4.50108e+06
4.18586e+06
6.66452e+06
6.43491e+06
6.12899e+06
5.6511e+06
8.7347e+06
8.4528e+06
7.97454e+06
7.37141e+06
1.12493e+07
1.07527e+07
9.94231e+06
9.11756e+06
1.35664e+07
1.28775e+07
1.18283e+07
1.08811e+07
1.46117e+07
1.3792e+07
1.26209e+07
1.16141e+07
1.012e+07
9.41091e+06
8.47093e+06
7.65733e+06
9667.09
9849.21
9745.81
9585.73
6390.86
6725.58
6866.26
6706.83
1.67934e+06
1.332e+06
1.28799e+06
1.30039e+06
2.73109e+06
2.27534e+06
2.19305e+06
2.06293e+06
3.59398e+06
3.13114e+06
2.98411e+06
2.68037e+06
4.60037e+06
4.15425e+06
3.877e+06
3.37047e+06
5.85089e+06
5.24773e+06
4.56663e+06
3.75606e+06
6.89827e+06
6.15708e+06
5.16807e+06
4.13032e+06
7.37952e+06
6.56475e+06
5.4005e+06
4.16187e+06
5.7833e+06
5.07614e+06
4.05351e+06
2.9657e+06
9328.68
9374.19
9148.5
8752.69
5574
5717.47
5758.06
5669.8
170533
169484
153033
122160
337924
332037
294346
225654
519143
505129
442226
334499
760882
736265
636730
472857
1.10525e+06
1.06802e+06
912196
661849
1.48898e+06
1.43104e+06
1.20686e+06
863147
1.78223e+06
1.69768e+06
1.4114e+06
992793
1.45399e+06
1.36107e+06
1.10295e+06
736264
7080.06
7153.72
7121.96
7011.93
5306.36
5373.76
5384.81
5327.12
16987.2
16950.1
15715.3
13225.2
37579
37040
33184.3
27013.6
63362.5
61276.4
53673.5
42578.4
101274
96513.4
82858.9
63831.8
159183
149821
126382
95593.4
232645
216908
181033
136027
299859
277150
229814
172297
240407
216429
176422
128256
6114.79
6160.29
6179.63
6178.6
5103.88
5149.82
5152.15
5104.53
2663.84
2679.5
2556.63
2340.95
5771.02
5786.91
5382.52
4727.05
10106.5
9995.65
9127.77
7842.51
16827.2
16450.2
14772.5
12413.4
27836.7
27036.9
24083.6
20067.9
42839.7
41415.8
36751.4
30533
58006.3
55906.4
49622
41224.7
46612.7
44319.6
39277.2
31989
5586.98
5618.19
5643.75
5663.87
4927.99
4967.06
4967.1
4926.09
742.96
734.535
717.723
698.968
1205.37
1200.91
1150.47
1073.04
2101.66
2082.04
1972.58
1815.46
3548.28
3503.18
3286.35
2980.2
6021.79
5953.39
5574.85
5034.16
9498.12
9404.35
8806.04
7931.56
13150
13052.1
12259.7
11036.4
10502.7
10364.7
9813.9
8757.58
5232.65
5249.87
5269.99
5294.31
4765.95
4801.2
4801.04
4764.4
402.877
395.392
390.445
389.286
375.413
371.248
361.569
349.24
592.478
584.471
565.523
541.866
962.416
950.467
914.46
866.508
1608.54
1598.78
1541.06
1456.64
2518.4
2518.34
2433.14
2294.68
3489.32
3512.99
3411.07
3216.81
2934.93
2955.89
2911.51
2755.14
4967.01
4976.1
4990.99
5014.33
4607.52
4639.84
4639.62
4606.31
315.092
309.64
307.096
307.858
188.95
186.576
183.367
180.157
245.239
241.175
235.839
230.818
353.435
347.67
338.214
327.882
543.169
537.44
523.761
506.741
805.251
802.102
783.839
757
1095.15
1099.86
1081.03
1045.25
1105.8
1113.28
1111.93
1090.17
4749.83
4754.03
4764.61
4784.82
4446.82
4476.37
4476.15
4445.91
281.138
277.26
275.725
276.67
137.808
136.525
134.988
133.598
150.85
148.659
146.419
144.819
186.746
183.63
179.855
176.554
249.204
245.519
240.358
235.438
332.466
328.833
322.274
315.111
435.051
433.257
426.673
417.87
586.632
586.926
586.442
584.022
4555.29
4556.54
4563.76
4580.2
4281.7
4308.41
4308.2
4281.01
262.264
259.554
258.625
259.449
120.518
119.824
118.95
118.133
120.57
119.301
118.12
117.417
134.084
132.284
130.333
128.858
157.548
155.258
152.645
150.623
187.434
184.781
181.49
178.774
232.813
230.439
226.929
223.753
403.421
401.97
400.688
400.763
4368.27
4367.78
4372.53
4385.37
4111.24
4135
4134.79
4110.71
248.449
246.697
246.19
246.711
113.417
113.057
112.528
111.975
109.211
108.44
107.751
107.382
114.766
113.674
112.532
111.727
124.805
123.373
121.845
120.787
137.181
135.424
133.496
132.145
162.347
160.542
158.373
156.783
321.946
320.362
319.032
319.319
4181.59
4180.16
4183.18
4192.98
3935.03
3955.77
3955.62
3934.63
236.476
235.656
235.365
235.448
109.938
109.775
109.448
109.048
104.433
103.95
103.532
103.327
106.752
106.069
105.365
104.888
111.461
110.55
109.601
108.978
117.293
116.142
114.936
114.16
133.888
132.649
131.243
130.29
277.675
276.3
275.23
275.528
3992.44
3990.57
3992.43
3999.79
3753.01
3770.93
3770.84
3752.68
225.114
224.908
224.748
224.59
107.9
107.855
107.654
107.353
102.275
101.968
101.711
101.598
103.164
102.732
102.292
102.005
105.496
104.911
104.311
103.931
108.542
107.788
107.017
106.549
120.767
119.943
119.024
118.413
249.217
248.071
247.301
247.644
3799.69
3797.72
3798.82
3804.26
3565.33
3580.65
3580.59
3565.14
213.855
213.918
213.818
213.524
106.479
106.505
106.383
106.149
101.252
101.055
100.898
100.839
101.492
101.217
100.945
100.776
102.689
102.313
101.936
101.707
104.431
103.939
103.449
103.17
114.027
113.492
112.896
112.5
228.069
227.104
226.585
226.994
3602.92
3601.06
3601.69
3605.64
3372.47
3385.23
3385.2
3372.36
202.128
202.363
202.301
201.92
105.339
105.407
105.335
105.145
100.747
100.62
100.526
100.497
100.693
100.52
100.354
100.26
101.33
101.09
100.858
100.726
102.419
102.103
101.798
101.638
110.183
109.848
109.47
109.212
210.355
209.525
209.192
209.657
3402.11
3400.48
3400.82
3403.63
3174.84
3185.14
3185.12
3174.79
189.744
190.06
190.024
189.621
104.337
104.428
104.388
104.229
100.482
100.403
100.346
100.334
100.304
100.195
100.097
100.049
100.658
100.507
100.367
100.296
101.391
101.192
101.009
100.923
107.706
107.51
107.277
107.107
194.137
193.417
193.211
193.703
3197.51
3196.19
3196.35
3198.3
2973.11
2981.06
2981.05
2973.08
176.53
176.801
176.782
176.463
103.413
103.513
103.492
103.357
100.33
100.282
100.249
100.244
100.11
100.042
99.986
99.9651
100.315
100.222
100.141
100.106
100.824
100.704
100.599
100.556
105.873
105.774
105.634
105.513
178.388
177.783
177.659
178.125
2989.68
2988.68
2988.75
2990.04
2768.24
2774.02
2774.01
2768.22
162.231
162.264
162.255
162.2
102.538
102.636
102.626
102.512
100.223
100.197
100.179
100.175
100.011
99.9693
99.9388
99.9322
100.134
100.077
100.032
100.016
100.465
100.398
100.34
100.319
104.325
104.293
104.21
104.109
162.539
162.112
162.039
162.38
2779.53
2778.85
2778.87
2779.66
2561.52
2565.36
2565.36
2561.51
146.312
145.826
145.822
146.302
101.705
101.784
101.779
101.694
100.128
100.116
100.106
100.103
99.9653
99.9407
99.9248
99.9245
100.038
100.005
99.9801
99.9742
100.204
100.17
100.141
100.13
102.882
102.886
102.834
102.747
145.361
145.109
145.076
145.298
2568.37
2568
2568
2568.4
2353.64
2355.94
2355.94
2353.64
127.176
126.044
126.042
127.171
100.922
100.96
100.959
100.918
100.045
100.039
100.035
100.033
99.9621
99.9487
99.941
99.9426
100.001
99.9826
99.9697
99.968
100.035
100.021
100.007
100.002
101.499
101.491
101.457
101.41
125.395
125.346
125.338
125.386
2356.83
2356.72
2356.71
2356.82
6108.26
5457.87
5153.31
5034.41
4980.25
4936.62
4893.86
4856.52
4828.81
4811.52
1.70299e+06
498935
113386
34407.6
16711.9
10049.7
7033.56
5559.51
4922.94
4861.3
2.17424e+06
353403
80531
31282.9
16829.9
10990.1
8273.09
6928.32
6341.88
6351.39
2.08034e+06
243266
65572.8
26173.7
14230.4
9301.53
6975.51
5801.71
5258.35
5259.88
1.89483e+06
230973
61373.4
24238.3
12778
8097.52
5899.4
4791.1
4246.39
4215.95
1.88649e+06
260625
65147.5
24418.2
12121.9
7300.02
5081.42
3977.49
3416.77
3333.43
2.03674e+06
296411
67273.4
23708.4
11080.3
6387.63
4282.81
3255.93
2722.55
2610.39
2.09008e+06
303243
60706
19917.1
8743.54
4853.19
3166.7
2371.63
1963.63
1858.51
1.48156e+06
187324
30252.1
9120.57
3949.41
2319.23
1629.74
1309.45
1148.13
1096.5
9423.15
6968.49
6328.31
6064.07
5900.17
5793.15
5722.76
5673.91
5634.13
5606.52
5736.95
5286.06
5076.99
4966.1
4897.49
4846.21
4804.35
4771.23
4748.05
4734.56
598240
180250
57202
21773
10548.6
6251.99
4320.54
3362.52
2914.52
2784.22
750604
182946
54316
21143.4
11019.2
7039.22
5198.16
4277.59
3849.12
3769.5
788723
163727
46707.6
18304.5
9682.13
6218.9
4595.84
3775.36
3376.69
3306.32
843143
159127
44504.2
17328.8
8977.91
5624.78
4059.12
3271.71
2868.1
2781.77
994672
180018
48323.6
18010.1
8850.53
5285.65
3652.59
2842.04
2414.98
2295.86
1.18726e+06
207261
51403.4
18047
8378.21
4796.74
3198.15
2421.69
2004.41
1869.55
1.31126e+06
217557
48159.7
15700.2
6852.63
3778.92
2454.11
1832.3
1504.46
1388.97
975406
139367
25365.5
7576.62
3304.47
1956.15
1382.32
1111.07
973.126
919.687
8165.22
6648.59
6133.55
5903.85
5763.02
5669.5
5606.15
5560.67
5522.31
5492.06
5184.45
4991.05
4893.87
4828.09
4776.57
4734.67
4701.5
4676.79
4660.46
4651.67
58571.9
25870.5
12653.1
6939.23
4245.61
2879.54
2157.51
1768.1
1580.44
1525.37
90220.1
34951.2
16143.5
8516.49
5188.76
3568.13
2729.72
2287.1
2078.27
2038.88
113352
38600.1
16801.8
8490.69
5058.23
3435.26
2609.66
2176.39
1964.69
1925.36
142965
43667.2
18086.1
8727.86
5004.07
3298.35
2447.15
2006.46
1779.13
1726.47
195269
55427.5
21202.1
9609.36
5196.62
3260.5
2316.91
1835.1
1578.71
1501.41
264225
68917.5
23607.7
10036.2
5125.53
3083.8
2116
1633.56
1371.39
1280.8
322294
76248.3
22672.8
9024.27
4348.53
2527.15
1693.4
1292.2
1079.54
1001.94
236748
47212.8
11578.2
4527.12
2282.08
1466.82
1085.87
896.092
800.743
764.612
6928.59
6247.6
5915.22
5741.4
5628.85
5552.05
5497.29
5455.84
5418.66
5388.19
4892.28
4783.43
4722.53
4677.28
4641.23
4612.57
4590.62
4574.83
4565
4560.5
9005.64
5605.89
3571.06
2375.2
1687.15
1292.76
1068.65
942.318
882.569
869.686
15961.9
8858.71
5222.51
3251.31
2203.37
1628.16
1307.5
1131.1
1048.7
1037.41
22650.9
11329
6192.87
3646.73
2388.17
1726.01
1366.02
1170.27
1075.45
1061.25
31246.7
14291.6
7272.81
4048.02
2539.01
1778.09
1375.1
1160.33
1050.22
1027.03
46319
19524.6
9062.26
4727
2793.23
1860.97
1379.1
1125.4
990.267
950.322
66792.9
25307
10503.3
5160.71
2883.64
1843.84
1321.25
1053.16
906.944
856.493
86703.8
28733.1
10392.2
4836.71
2561.6
1589.18
1116.74
882.783
758.846
714.351
65359.8
17605.1
5496.85
2684.61
1554.67
1091.78
852.922
726.353
663.971
641.008
6245.15
5883.77
5678.2
5553.64
5469.27
5408.26
5362.62
5326.73
5293.08
5265.14
4671.25
4598.86
4558.83
4530.32
4508.04
4490.39
4476.89
4467.34
4461.8
4460.03
1961.2
1509.33
1157.54
914.483
758.136
661.152
603.147
569.477
555.481
557.149
3596.08
2459.19
1689.37
1199.83
902.48
723.65
617.691
557.533
530.505
529.881
5608.11
3529.33
2234.22
1492.86
1074.34
833.999
695.492
617.638
580.62
577.601
8369.14
4861.44
2836.2
1784.66
1226.25
921.281
751.052
658.017
610.957
603.114
13211.3
7069.61
3757
2212.12
1429.38
1020.73
797.89
677.032
612.801
594.992
19854.3
9503.18
4552.71
2530.38
1547.05
1061
803.248
667.268
592.925
567.865
26693.6
11034.2
4695.71
2493
1453.02
972.122
724.914
598.728
532.013
508.876
20421
6843.04
2769.56
1636.07
1082.16
825.817
679.353
596.324
556.622
542.255
5762.28
5570.03
5454.6
5370.08
5308.56
5260.48
5222.66
5191.96
5162.07
5137.04
4498.49
4442.41
4413.67
4394.55
4379.92
4368.36
4359.59
4353.61
4350.61
4350.44
637.499
582.254
524.041
477.4
444.68
423.529
410.945
404.083
403.249
408.275
940.443
751.576
592.131
477.088
399.399
349.423
318.633
300.995
293.989
295.987
1532.75
1138.64
826.586
624.316
496.404
417.3
369.442
341.748
329.092
329.743
2408.92
1652.58
1104.91
785.079
595.417
484.382
419.57
383.491
365.718
364.292
3975.6
2513.58
1535.51
1018.46
725.405
560.783
466.437
413.783
385.946
379.266
6136.43
3481.29
1937.31
1212.7
818.015
607.818
490.473
426.833
391.921
380.788
8401.27
4149.13
2101.72
1263.76
818.702
596.246
475.149
411.256
377.62
366.701
6552.11
2806.97
1515.55
1051.28
783.6
641.751
552.185
497.65
472.721
463.746
5406.12
5309.92
5247.25
5190.57
5145.47
5107.5
5076.33
5050.45
5024.47
5002.66
4348.44
4300.54
4277.46
4262.88
4251.98
4243.52
4237.27
4233.29
4231.71
4232.44
353.76
352.876
344.925
336.674
330.611
327.045
325.533
325.469
327.62
332.574
328.888
295.13
262.096
235.872
216.875
204.253
196.469
192.216
191.216
193.173
500.222
422.96
350.101
297.224
260.608
236.596
221.517
212.569
208.835
210.134
771.797
606.352
466.169
373.976
314.26
277.255
254.906
242.391
236.595
237.23
1270.33
924.073
653.659
489.696
387.493
326.053
289.167
268.004
256.969
255.115
1957.11
1289.81
841.026
594.807
447.098
362.457
312.735
285.015
269.763
265.411
2693.38
1579.64
961.362
656.001
477.019
379.808
323.584
292.832
276.85
272.255
2310.29
1320.6
921.531
725.05
594.895
515.252
460.063
423.899
408.338
402.632
5130.73
5085.64
5050.5
5011.98
4978.48
4948.58
4923.19
4901.79
4879.81
4861.37
4205.58
4162.6
4142.55
4130.26
4121.26
4114.43
4109.57
4106.7
4105.9
4107.08
274.72
281.742
282.767
282.054
281.497
281.633
282.401
283.654
285.992
290.089
174.945
168.224
161.165
155.216
150.814
147.987
146.425
145.818
146.23
147.637
223.58
208.146
191.144
177.495
167.37
160.446
155.991
153.296
152.412
153.483
309.07
272.502
237.546
211.894
194.149
182.695
175.661
171.817
170.326
171.307
469.784
389.049
316.824
266.757
232.927
211.279
197.714
189.747
185.751
185.662
688.282
525.551
400.249
320.062
267.684
235.392
215.424
204.017
197.766
196.358
937.041
656.7
476.747
369.301
300.37
259.405
234.172
219.879
212.709
211.099
1008.4
752.324
625.304
538.702
473.743
427.955
393.44
369.11
359.348
355.567
4900.52
4880.05
4858.57
4831.79
4806.66
4783.3
4762.94
4745.66
4727.65
4712.6
4062.31
4023.12
4005.16
3994.27
3986.39
3980.52
3976.45
3974.2
3973.81
3975.19
244.086
251.951
254.526
255.184
255.556
256.181
257.076
258.229
260.093
263.3
130.974
129.324
127.681
126.294
125.35
124.891
124.826
125.053
125.627
126.555
143.319
140.258
136.131
132.497
129.666
127.693
126.425
125.657
125.565
126.296
171.812
163.619
154.867
147.803
142.705
139.371
137.377
136.411
136.266
137.079
226.82
208.284
189.076
173.974
163.027
155.627
150.836
148.003
146.727
147.126
299.464