/*--------------------------------*- C++ -*----------------------------------*\
| =========                 |                                                 |
| \\      /  F ield         | foam-extend: Open Source CFD                    |
|  \\    /   O peration     | Version:     4.0                                |
|   \\  /    A nd           | Web:         http://www.foam-extend.org         |
|    \\/     M anipulation  |                                                 |
\*---------------------------------------------------------------------------*/
FoamFile
{
    version     2.0;
    format      ascii;
    class       volScalarField;
    location    "600";
    object      k;
}
// * * * * * * * * * * * * * * * * * * * * * * * * * * * * * * * * * * * * * //

dimensions      [0 2 -2 0 0 0 0];

internalField   nonuniform List<scalar> 
34480
(
8.66333
8.65737
8.65465
8.65245
8.65304
8.66995
8.74063
8.93702
9.35932
10.2244
28.3111
30.1594
32.6615
35.6325
39.2489
45.032
58.1397
89.0622
144.921
209.928
54.8192
57.384
60.559
64.0494
67.7189
72.6408
83.9871
117.755
194.968
302.043
55.8243
59.249
63.5964
68.5824
73.8068
79.8629
91.1703
125.525
215.609
356.389
52.2439
56.421
61.8995
68.4176
75.4474
83.1757
95.4905
131.223
233.872
409.205
47.0137
51.3815
57.3206
64.7483
73.1654
82.6198
97.004
136.684
256.461
472.643
41.0752
45.3151
51.2988
59.1085
68.4499
79.39
95.7935
138.915
273.462
526.798
31.609
35.1245
40.2482
47.2985
56.2383
67.3975
84.6067
128.81
270.017
546.418
13.5744
14.9385
17.1073
20.489
25.5318
32.9655
45.4779
77.6388
184.591
412.109
9.11249
9.09842
9.10314
9.13324
9.1973
9.28986
9.39088
9.5104
9.74598
10.0776
8.57453
8.57419
8.58324
8.6018
8.62931
8.6674
8.73096
8.8512
9.07904
9.52223
20.0546
21.3831
23.5578
26.5941
30.4587
34.7869
40.2217
53.051
88.435
168.141
40.7242
42.8724
45.8505
49.5937
54.1128
59.4529
65.2418
78.1696
125.778
253.632
42.5898
45.3803
49.239
54.134
59.9099
66.6576
73.7295
87.0056
142.387
306.597
40.7061
44.0538
48.7837
54.8905
62.1729
70.5317
79.186
93.3271
156.972
359.48
37.3371
40.818
45.8992
52.747
61.2301
71.0825
81.5218
97.7506
173.474
426.996
33.2317
36.6023
41.7071
48.8442
58.0755
69.1101
81.1977
99.3976
186.003
487.679
26.0751
28.8151
33.1251
39.5091
48.2316
59.172
71.7459
90.832
182.721
514.124
11.8276
12.7744
14.4008
17.1536
21.7172
28.5851
37.4283
50.9847
117.798
380.047
8.97752
8.956
8.94875
8.9636
9.01545
9.10738
9.20912
9.29503
9.5774
10.2764
8.47679
8.47629
8.48293
8.49836
8.52346
8.55873
8.60787
8.68221
8.80353
9.00233
13.8176
14.5711
15.8728
17.8064
20.4311
23.7156
27.842
33.8154
44.2367
61.7926
28.6477
30.2083
32.4323
35.2888
38.7553
42.8488
47.5802
54.4517
69.7521
102.575
31.0144
33.0657
36.0074
39.8417
44.4062
49.7124
55.5053
63.3207
83.3167
133.352
30.5234
33.002
36.6532
41.4983
47.3669
54.1346
61.2816
70.1451
95.3545
166.588
28.711
31.3113
35.2809
40.7997
47.7851
55.9972
64.7602
75.2998
107.57
206.429
26.1833
28.7283
32.7672
38.6001
46.3412
55.7207
65.9815
78.0941
117.399
246.321
21.1203
23.1774
26.576
31.804
39.1836
48.6043
59.4258
72.4732
116.617
269.504
10.3733
11.0459
12.2454
14.305
17.8238
23.3506
30.9312
40.6884
73.0482
194.947
8.86099
8.83676
8.82321
8.82647
8.85743
8.92352
9.0135
9.08963
9.23724
9.70254
8.3683
8.36802
8.37255
8.38343
8.4016
8.4279
8.46375
8.51319
8.58781
8.71655
9.77794
10.1306
10.7511
11.7472
13.1825
15.1047
17.5888
20.7723
24.9631
30.3791
19.452
20.4233
21.8212
23.6592
25.9503
28.7087
31.9802
36.0829
42.1972
52.3254
21.8172
23.1448
25.0732
27.6299
30.7371
34.4235
38.6332
43.7374
52.0588
68.7051
22.2308
23.8762
26.355
29.6837
33.7607
38.5749
43.9206
50.0992
60.9917
86.5994
21.559
23.3181
26.0803
29.9751
34.9586
40.9662
47.6997
55.4021
70.0399
108.476
20.2534
22.0126
24.8914
29.1055
34.7625
41.7774
49.788
58.8683
77.3154
130.596
16.9458
18.3763
20.8082
24.6096
30.057
37.1923
45.7444
55.7093
77.1864
143.683
9.16675
9.62472
10.4578
11.8634
14.2396
18.0739
23.7712
31.3109
47.3439
100.673
8.72673
8.70352
8.68887
8.68721
8.70532
8.75092
8.82631
8.91069
9.01373
9.31668
8.24646
8.24609
8.24873
8.25534
8.26631
8.28214
8.30385
8.33428
8.38192
8.4729
7.46161
7.60464
7.84778
8.25899
8.86841
9.71759
10.8499
12.2728
13.9001
15.6326
13.1922
13.724
14.4876
15.5056
16.7948
18.3685
20.252
22.4683
25.0141
28.1218
15.1794
15.9477
17.0634
18.5604
20.409
22.6359
25.2516
28.3144
32.0352
37.4349
16.0081
16.9995
18.5056
20.5397
23.0466
26.0609
29.5397
33.5341
38.6657
47.6189
16.0326
17.1197
18.8541
21.3187
24.4866
28.3904
32.9648
38.2557
45.5322
60.1866
15.5498
16.6715
18.541
21.2876
24.9877
29.6751
35.2677
41.7444
51.2032
72.8762
13.5782
14.5078
16.1064
18.61
22.2096
27.0349
33.0876
40.3501
51.6893
80.1815
8.17328
8.47265
9.02262
9.91984
11.3839
13.7414
17.418
22.6304
31.1385
53.8463
8.58627
8.56481
8.5504
8.54625
8.55639
8.58662
8.64244
8.71875
8.80787
9.00306
8.11171
8.11129
8.11284
8.11693
8.12367
8.1332
8.14607
8.16453
8.19625
8.26535
6.23575
6.29052
6.37618
6.52752
6.74977
7.05674
7.46444
7.97393
8.53609
9.07883
9.32805
9.59175
9.9635
10.4633
11.1016
11.883
12.8131
13.8688
14.9449
15.9646
10.7793
11.1844
11.7672
12.5609
13.5542
14.7591
16.1807
17.804
19.511
21.3655
11.6632
12.2158
13.0515
14.1834
15.5927
17.3024
19.3038
21.5815
24.0634
27.3201
12.015
12.6397
13.6394
15.0696
16.9188
19.2371
22.0208
25.2634
29.0037
34.7686
12.0001
12.6718
13.7967
15.4466
17.6745
20.5494
24.0794
28.2417
33.2656
42.2607
10.9572
11.5321
12.5152
14.0426
16.2307
19.2193
23.0949
27.8791
34.0559
46.4066
7.36621
7.55596
7.90614
8.45425
9.30775
10.6455
12.7443
15.8453
20.2852
29.8332
8.43806
8.41893
8.40582
8.40116
8.40749
8.42871
8.46935
8.53032
8.60502
8.72724
7.96485
7.9644
7.96529
7.96794
7.97239
7.97867
7.98714
7.99965
8.02302
8.07938
5.61125
5.63162
5.65961
5.71309
5.79064
5.89465
6.02804
6.18908
6.35922
6.51584
7.14739
7.26589
7.42448
7.63604
7.90548
8.23505
8.62712
9.06698
9.49321
9.8311
8.0906
8.28382
8.55458
8.92811
9.39933
9.9732
10.6518
11.4201
12.1826
12.8468
8.83657
9.12165
9.54349
10.1119
10.8231
11.6878
12.7049
13.8611
15.0417
16.274
9.27165
9.60736
10.1361
10.8924
11.8742
13.117
14.6287
16.4074
18.3192
20.6609
9.46602
9.84665
10.4758
11.3878
12.6166
14.2199
16.22
18.6189
21.2833
25.0799
9.00935
9.35093
9.91969
10.7856
12.0077
13.6909
15.9166
18.7359
22.0788
27.458
6.73019
6.84653
7.06174
7.38295
7.8576
8.56852
9.65006
11.2568
13.4078
17.2744
8.28091
8.26442
8.25316
8.24908
8.25392
8.27028
8.30111
8.34823
8.40731
8.48163
7.80705
7.80657
7.80708
7.80892
7.81212
7.8167
7.82297
7.8325
7.85143
7.90011
5.29826
5.30562
5.31398
5.33305
5.36116
5.39843
5.44535
5.50065
5.55717
5.60728
6.00321
6.05357
6.11423
6.19176
6.28815
6.40481
6.54424
6.70213
6.85309
6.95679
6.55973
6.6441
6.75559
6.91034
7.10469
7.34078
7.6211
7.94109
8.2561
8.49135
7.10463
7.24228
7.43671
7.69248
8.00906
8.39092
8.8401
9.35521
9.87891
10.354
7.49379
7.66422
7.92195
8.28519
8.7537
9.34601
10.0715
10.9381
11.8655
12.8458
7.73888
7.94506
8.27418
8.73805
9.35502
10.1592
11.1691
12.4011
13.75
15.3908
7.6164
7.81328
8.12536
8.58384
9.21145
10.0685
11.2084
12.6837
14.4052
16.7755
6.24242
6.31109
6.43889
6.62002
6.87436
7.23521
7.75604
8.50934
9.46669
10.9773
8.11368
8.0999
8.09069
8.08763
8.09201
8.10557
8.13011
8.16686
8.2114
8.25765
7.63912
7.63863
7.63893
7.6403
7.64279
7.64642
7.65146
7.65927
7.67537
7.71855
5.14136
5.14376
5.14575
5.15288
5.16418
5.17959
5.19961
5.22393
5.24972
5.27271
5.42758
5.44929
5.47138
5.49684
5.52679
5.56261
5.60694
5.66022
5.71338
5.74595
5.73144
5.76647
5.80823
5.86614
5.93732
6.02276
6.12519
6.2458
6.36831
6.44909
6.09085
6.15484
6.23856
6.34313
6.46781
6.61398
6.78452
6.98443
7.19589
7.37495
6.38901
6.47228
6.59004
6.75038
6.9514
7.20063
7.50503
7.87618
8.28802
8.69398
6.60713
6.71528
6.8785
7.0974
7.38023
7.74127
8.19181
8.74993
9.37597
10.079
6.654
6.76529
6.92933
7.15815
7.45655
7.85144
8.3702
9.05062
9.8628
10.894
5.87904
5.91761
5.99084
6.0891
6.22117
6.39864
6.6406
6.97714
7.38875
7.98344
7.93538
7.92422
7.91697
7.91497
7.91915
7.93067
7.95052
7.97931
8.01226
8.04251
7.46145
7.46097
7.46115
7.46225
7.46431
7.46736
7.47164
7.47831
7.4923
7.53096
5.06112
5.06163
5.06174
5.06471
5.07015
5.07816
5.08943
5.10425
5.12154
5.13792
5.14259
5.15256
5.16072
5.16834
5.17634
5.1861
5.20011
5.22031
5.24382
5.25899
5.29644
5.31086
5.3256
5.34605
5.37032
5.39915
5.43513
5.48126
5.53295
5.56519
5.51538
5.54487
5.57967
5.61972
5.66423
5.71365
5.7708
5.84211
5.92651
5.99893
5.724
5.76403
5.81563
5.88222
5.96131
6.05537
6.1688
6.31202
6.48462
6.65445
5.88962
5.94514
6.02312
6.12072
6.241
6.3883
6.56801
6.79406
7.06188
7.35954
6.00967
6.07198
6.15543
6.26416
6.39682
6.56292
6.77449
7.05357
7.4047
7.8463
5.61654
5.63664
5.67695
5.72811
5.79479
5.88013
5.99082
6.13993
6.32186
6.58013
7.74522
7.73643
7.73093
7.72981
7.73372
7.74337
7.75924
7.78149
7.80554
7.82616
7.27413
7.27366
7.27378
7.2747
7.27647
7.27912
7.28285
7.28865
7.30089
7.33548
5.01821
5.01803
5.01771
5.01923
5.02251
5.02782
5.03598
5.04768
5.06269
5.07807
5.00229
5.0072
5.01041
5.01238
5.01391
5.0162
5.02131
5.03135
5.04576
5.05723
5.07274
5.0788
5.08382
5.09084
5.09882
5.1084
5.12174
5.1419
5.16848
5.18649
5.19626
5.20992
5.22418
5.23888
5.25346
5.2683
5.28583
5.31175
5.35017
5.38749
5.33416
5.35339
5.37546
5.40192
5.43084
5.46306
5.50159
5.55458
5.62973
5.70982
5.44812
5.47613
5.51233
5.55403
5.60232
5.65825
5.7245
5.81085
5.92478
6.05986
5.59117
5.62599
5.66738
5.71682
5.77186
5.83545
5.91297
6.01694
6.16296
6.36099
5.43308
5.44223
5.46334
5.48881
5.52168
5.56224
5.61291
5.68011
5.76563
5.89518
7.54262
7.53589
7.53184
7.53135
7.53482
7.54268
7.55505
7.57184
7.58917
7.60352
7.07701
7.07657
7.07665
7.07745
7.079
7.08134
7.08462
7.08968
7.10034
7.13108
4.99361
4.99323
4.99294
4.99394
4.99631
5.00045
5.00728
5.0178
5.03234
5.04835
4.93342
4.93597
4.93734
4.9377
4.93764
4.93811
4.9407
4.94729
4.95828
4.96886
4.96042
4.96311
4.96481
4.96716
4.9697
4.97294
4.97851
4.98894
5.00522
5.0182
5.02369
5.03002
5.03582
5.04101
5.04532
5.0491
5.05419
5.06495
5.08622
5.1109
5.11171
5.12104
5.13033
5.14041
5.15005
5.15968
5.17142
5.19125
5.22781
5.27317
5.18472
5.19851
5.21481
5.23192
5.25035
5.27041
5.29369
5.32698
5.37972
5.45149
5.32753
5.34708
5.3672
5.38858
5.4093
5.43025
5.45422
5.48884
5.55015
5.65035
5.30927
5.31219
5.3225
5.3346
5.35065
5.37023
5.39413
5.42589
5.46928
5.54354
7.32721
7.32219
7.31929
7.31918
7.32211
7.32828
7.33764
7.35
7.36236
7.37247
6.86991
6.86949
6.86956
6.87025
6.87161
6.87366
6.87654
6.88092
6.8901
6.9171
4.97823
4.97785
4.97769
4.97848
4.98038
4.98384
4.98987
4.99975
5.01429
5.03139
4.89965
4.90099
4.90165
4.90165
4.90142
4.90164
4.90351
4.90862
4.9178
4.92794
4.90575
4.9071
4.90773
4.90849
4.90922
4.91031
4.91291
4.91898
4.92993
4.94028
4.93332
4.93619
4.93852
4.9403
4.94142
4.94214
4.94374
4.94926
4.96291
4.98145
4.98858
4.99319
4.9971
5.00073
5.00343
5.00546
5.00828
5.01599
5.03591
5.06541
5.03297
5.03948
5.04647
5.0532
5.05993
5.06686
5.07502
5.08892
5.11658
5.16101
5.16637
5.17747
5.18711
5.19575
5.20221
5.20677
5.21101
5.21979
5.24592
5.30385
5.22863
5.22824
5.23269
5.23819
5.24628
5.25646
5.26881
5.28534
5.30925
5.3562
7.09885
7.09519
7.09316
7.09324
7.09558
7.10026
7.10714
7.11603
7.1248
7.13198
6.65258
6.6522
6.65225
6.65285
6.65403
6.65581
6.6583
6.66204
6.66981
6.69311
4.96768
4.96738
4.96736
4.96804
4.96959
4.97252
4.97788
4.98718
5.00172
5.01997
4.88309
4.88379
4.88415
4.88416
4.88408
4.88442
4.88603
4.89025
4.89817
4.90789
4.8802
4.88103
4.88135
4.88157
4.88168
4.88196
4.88322
4.88689
4.89449
4.90297
4.88799
4.88921
4.89012
4.89075
4.89104
4.89118
4.89194
4.89536
4.90472
4.91916
4.9227
4.92504
4.92671
4.92793
4.92838
4.92823
4.92837
4.93152
4.94319
4.96376
4.94901
4.95181
4.95456
4.95711
4.95958
4.96212
4.96536
4.97215
4.98835
5.0185
5.07031
5.07669
5.08128
5.08442
5.0855
5.08459
5.08255
5.08249
5.0933
5.13034
5.17782
5.17585
5.17724
5.17969
5.18422
5.1904
5.19793
5.20791
5.22216
5.25371
6.85756
6.85495
6.85356
6.85371
6.8555
6.85892
6.86384
6.87009
6.8763
6.88144
6.42485
6.42451
6.42455
6.42505
6.42605
6.42757
6.42968
6.4328
6.43922
6.45889
4.95979
4.95962
4.95971
4.9603
4.96155
4.96397
4.96863
4.97723
4.99156
5.01085
4.87502
4.87536
4.8756
4.87569
4.87579
4.87626
4.87771
4.88126
4.88811
4.89735
4.86892
4.86954
4.86978
4.86982
4.86971
4.86965
4.87017
4.87234
4.87759
4.88455
4.86664
4.86709
4.86742
4.86768
4.86784
4.868
4.8686
4.8709
4.87739
4.88855
4.88869
4.88991
4.89067
4.89106
4.89093
4.89039
4.88994
4.89127
4.8983
4.91296
4.9046
4.90557
4.90646
4.90743
4.9085
4.90977
4.91156
4.91555
4.92567
4.94686
5.01347
5.01716
5.01934
5.02027
5.01969
5.0176
5.01435
5.0119
5.01569
5.04097
5.14655
5.14398
5.14384
5.14498
5.148
5.15253
5.15807
5.16513
5.17411
5.196
6.60355
6.60172
6.60079
6.60095
6.60225
6.60467
6.60809
6.6124
6.61679
6.62048
6.18662
6.18633
6.18636
6.18677
6.18759
6.18884
6.19058
6.19309
6.19821
6.21432
4.95348
4.95345
4.95361
4.95411
4.95506
4.95697
4.96086
4.96855
4.98231
5.0024
4.87115
4.87132
4.8715
4.87166
4.8719
4.87244
4.87374
4.87668
4.88253
4.89121
4.86434
4.86486
4.86508
4.86507
4.86488
4.86466
4.86476
4.86594
4.86945
4.87507
4.85764
4.85775
4.85787
4.85801
4.85817
4.8584
4.85892
4.86047
4.86482
4.87321
4.87181
4.87246
4.87284
4.87296
4.87279
4.87236
4.87193
4.87249
4.87666
4.88704
4.88219
4.8823
4.88244
4.88285
4.88352
4.88446
4.88581
4.88846
4.89486
4.90967
4.97858
4.98069
4.9817
4.98184
4.98104
4.97924
4.9765
4.97401
4.97455
4.99255
5.1272
5.12456
5.12371
5.12434
5.12671
5.13051
5.13513
5.14072
5.14647
5.16181
6.3372
6.33595
6.33533
6.33546
6.33637
6.33802
6.34034
6.34323
6.34631
6.34894
5.93799
5.93777
5.93778
5.9381
5.93874
5.93972
5.94108
5.94301
5.94689
5.95955
4.94814
4.94824
4.94844
4.94884
4.9495
4.95088
4.95391
4.96042
4.97307
4.99348
4.86938
4.86947
4.86962
4.86982
4.87012
4.87068
4.8718
4.87418
4.87903
4.88697
4.86269
4.86313
4.86332
4.86329
4.8631
4.86283
4.86271
4.86324
4.86543
4.86978
4.85476
4.85474
4.85478
4.85488
4.85503
4.85525
4.85565
4.85663
4.85936
4.86534
4.86387
4.86423
4.86444
4.86449
4.86438
4.86412
4.86383
4.86402
4.86635
4.87342
4.87122
4.871
4.8709
4.87112
4.87164
4.87243
4.87351
4.87529
4.87918
4.88907
4.95464
4.95579
4.95621
4.95614
4.95555
4.95439
4.95255
4.95073
4.94988
4.96311
5.11416
5.11173
5.1106
5.11103
5.11306
5.11641
5.12043
5.12504
5.12859
5.13921
6.05909
6.05827
6.05787
6.05796
6.05856
6.05965
6.06115
6.06304
6.0651
6.06694
5.67939
5.67923
5.67924
5.67947
5.67993
5.68064
5.68162
5.683
5.68573
5.69509
4.94319
4.94339
4.94362
4.94389
4.94427
4.94512
4.94723
4.95226
4.96307
4.98293
4.86857
4.86863
4.86876
4.86896
4.86927
4.86979
4.87072
4.87256
4.87634
4.88325
4.86202
4.86234
4.86249
4.86247
4.86232
4.86209
4.8619
4.86204
4.86322
4.86629
4.85472
4.85469
4.8547
4.85477
4.85488
4.85505
4.85531
4.85585
4.85738
4.86126
4.86054
4.86075
4.86088
4.86091
4.86085
4.86071
4.86051
4.86051
4.86164
4.86607
4.86554
4.86526
4.86514
4.86528
4.86567
4.86626
4.86701
4.86809
4.8702
4.87624
4.935
4.93561
4.93577
4.93568
4.93534
4.93469
4.93361
4.93246
4.93121
4.94099
5.10253
5.10043
5.09926
5.09959
5.10132
5.1042
5.10761
5.1113
5.11315
5.12018
5.7701
5.76959
5.76936
5.76942
5.76978
5.77045
5.77137
5.77253
5.77379
5.77499
5.41142
5.41133
5.41134
5.41149
5.4118
5.41227
5.41291
5.4138
5.41549
5.42182
4.93706
4.93727
4.93748
4.93761
4.93774
4.93811
4.93927
4.94254
4.95063
4.96842
4.86818
4.8682
4.8683
4.86847
4.86875
4.86919
4.8699
4.87119
4.87385
4.8792
4.86134
4.86155
4.86165
4.86165
4.86156
4.86141
4.86125
4.86122
4.86169
4.86343
4.85594
4.85592
4.85593
4.85597
4.85604
4.85613
4.85627
4.85651
4.85722
4.85934
4.85957
4.85971
4.85979
4.85981
4.85978
4.85969
4.85954
4.85945
4.85985
4.86218
4.86186
4.86167
4.8616
4.86169
4.86192
4.86226
4.86266
4.86316
4.86407
4.86714
4.91599
4.91637
4.91645
4.91641
4.9162
4.9158
4.91514
4.91438
4.9133
4.92005
5.08432
5.08256
5.08154
5.08176
5.08311
5.08534
5.08792
5.09054
5.09092
5.09493
5.4713
5.47101
5.47088
5.47091
5.47111
5.47147
5.47197
5.47261
5.47331
5.474
5.13406
5.134
5.13401
5.13409
5.13425
5.1345
5.13483
5.13527
5.13607
5.14
4.92197
4.92213
4.92228
4.92232
4.9223
4.92234
4.9227
4.92408
4.92853
4.94112
4.86748
4.86749
4.86756
4.86768
4.86789
4.86821
4.86869
4.86947
4.87096
4.8741
4.86066
4.86075
4.86081
4.86082
4.86079
4.86073
4.86065
4.86059
4.86068
4.86124
4.85778
4.85777
4.85778
4.8578
4.85783
4.85787
4.85793
4.85802
4.85826
4.85908
4.85983
4.85991
4.85996
4.85997
4.85995
4.85989
4.85981
4.85971
4.85976
4.86061
4.85972
4.85964
4.85961
4.85965
4.85975
4.85989
4.86004
4.86018
4.86043
4.86146
4.89511
4.89538
4.89549
4.89547
4.89531
4.89501
4.89457
4.8941
4.89365
4.89738
5.0355
5.03402
5.03328
5.03336
5.03418
5.03557
5.03717
5.03863
5.03817
5.03941
5.16283
5.16269
5.16263
5.16264
5.16271
5.16286
5.16306
5.16332
5.16362
5.16396
12.0722
12.4902
12.2782
11.2782
205.815
199.666
196.107
191.515
313.732
305.588
298.132
284.047
387.279
378.338
366.257
346.961
463.81
453.785
436.509
414.21
549.034
532.77
505.662
477.293
622.059
600.831
567.742
537.012
653.624
628.953
592.824
560.848
511.649
487.459
454.426
424.824
13.2172
13.3827
13.2888
13.1427
10.0309
10.3781
10.5223
10.3588
229.905
207.843
202.871
196.663
362.914
333.084
323.157
302.152
458.715
428.778
413.145
379.083
563.536
536.415
511.537
463.284
702.738
670.024
619.334
550.534
830.831
791.607
719.837
634.69
906.286
862.777
777.825
676.903
734.38
694.543
615.835
520.628
12.9067
12.9487
12.7401
12.37
9.15723
9.31366
9.35768
9.26181
79.2665
80.5875
77.1927
69.8914
135.841
136.619
128.923
113.915
182.487
181.959
170.364
149.078
236.464
234.788
218.398
188.983
307.774
306.659
285.054
244.965
384.713
383.348
355.009
303.485
441.756
439.066
404.281
343.136
353.132
348.363
316.516
260.873
10.7394
10.8137
10.7817
10.6704
8.86178
8.93664
8.94888
8.88485
33.076
33.0523
32.3613
30.8856
58.7523
58.3731
56.1886
52.7013
79.7709
78.7289
75.0358
69.5238
104.361
102.535
96.8309
88.3885
136.245
133.491
125.219
113.388
171.167
167.426
156.403
141
197.75
193.175
180.045
161.767
151.075
146.182
135.147
118.909
9.74001
9.78822
9.80868
9.80761
8.63487
8.68661
8.68923
8.6356
16.2267
16.2714
16.0623
15.7276
29.7499
29.735
29.0477
27.9718
40.4525
40.2778
39.1127
37.3785
52.908
52.5577
50.7378
48.03
69.3794
68.9984
66.5315
62.7706
87.3527
86.961
83.8065
78.8671
100.677
100.362
96.7727
90.8326
73.0966
72.5983
69.8415
64.3748
9.17131
9.2054
9.23326
9.25522
8.43533
8.47985
8.4799
8.43316
9.09506
9.06292
9.00434
8.96282
16.2392
16.1569
15.8971
15.5475
21.993
21.8433
21.4214
20.8732
28.672
28.4816
27.8465
26.9775
37.5752
37.4507
36.6604
35.4846
47.1953
47.1806
46.2412
44.6991
53.9656
54.125
53.1512
51.291
36.8586
36.9059
36.2814
34.5689
8.77942
8.79864
8.82108
8.84821
8.24938
8.29
8.28982
8.24759
6.47495
6.43994
6.41914
6.42895
9.82618
9.75209
9.63111
9.49634
12.9099
12.7955
12.6065
12.3993
16.5526
16.4184
16.1434
15.8084
21.4719
21.384
21.0707
20.6348
26.7346
26.7275
26.3878
25.8266
30.2508
30.3715
30.0648
29.4025
19.8639
19.9506
19.8166
19.2514
8.47977
8.49008
8.50699
8.53349
8.06552
8.1032
8.10294
8.06411
5.59406
5.56926
5.55836
5.56926
6.9095
6.85488
6.78973
6.73061
8.4365
8.35294
8.2523
8.16301
10.3507
10.2477
10.0995
9.9469
13.0215
12.9307
12.763
12.5703
15.8786
15.8198
15.6411
15.3996
17.7397
17.746
17.5913
17.3184
11.8727
11.8915
11.8441
11.6581
8.23076
8.2356
8.2478
8.27111
7.87687
7.91172
7.91146
7.87579
5.28248
5.26763
5.2611
5.26733
5.70974
5.67436
5.63689
5.60703
6.38934
6.33362
6.27662
6.2351
7.31773
7.24484
7.15758
7.08068
8.68571
8.60897
8.50597
8.40917
10.1741
10.1035
9.98945
9.86952
11.183
11.1406
11.0365
10.9049
8.26412
8.24788
8.21262
8.14666
8.00446
8.00591
8.01437
8.03359
7.68065
7.71256
7.7123
7.67983
5.15963
5.15176
5.14784
5.15049
5.23799
5.2161
5.1935
5.17623
5.52244
5.48682
5.45332
5.43243
5.94824
5.89968
5.84648
5.80473
6.60813
6.55096
6.48505
6.43233
7.33705
7.27542
7.19864
7.13344
7.89943
7.84773
7.77205
7.70013
6.65401
6.62773
6.59522
6.56544
7.78385
7.78326
7.78889
7.80413
7.47541
7.50419
7.50394
7.47477
5.10521
5.10202
5.09976
5.09994
5.04668
5.03336
5.01936
5.00851
5.15925
5.13673
5.11647
5.10512
5.35322
5.32186
5.28871
5.26437
5.66869
5.62928
5.58673
5.55589
6.01699
5.9708
5.91927
5.88126
6.34724
6.30338
6.24921
6.20561
5.90356
5.87856
5.85092
5.83354
7.56047
7.55874
7.56237
7.57418
7.26025
7.28574
7.28556
7.25976
5.07762
5.07774
5.07646
5.07474
4.96462
4.95661
4.94786
4.9408
5.00146
4.98714
4.97469
4.96833
5.08979
5.06971
5.0488
5.03402
5.24447
5.21824
5.1907
5.17178
5.41559
5.38336
5.34911
5.32585
5.62665
5.59427
5.55648
5.52817
5.53177
5.51113
5.48961
5.47851
7.33071
7.32842
7.33069
7.33969
7.0346
7.05697
7.05685
7.03419
5.06126
5.06375
5.06306
5.05979
4.92751
4.92285
4.91742
4.91273
4.9302
4.92103
4.91337
4.90985
4.96907
4.95626
4.9431
4.9341
5.04708
5.02991
5.0122
5.00044
5.13588
5.11414
5.09168
5.07726
5.28503
5.26268
5.23697
5.21809
5.33866
5.32248
5.30674
5.30002
7.09282
7.09036
7.09173
7.0985
6.79807
6.81753
6.81746
6.79783
5.04993
5.05429
5.05391
5.04918
4.90985
4.90735
4.90404
4.90085
4.89713
4.89123
4.88654
4.8847
4.9123
4.90418
4.89601
4.89066
4.95267
4.94158
4.93037
4.92321
5.00227
4.98792
4.97349
4.96473
5.11841
5.10364
5.0866
5.07404
5.23486
5.22235
5.2114
5.20805
6.84578
6.84342
6.84421
6.84922
6.55064
6.56716
6.56712
6.55051
5.04094
5.04706
5.04685
5.04053
4.90092
4.89988
4.89792
4.89561
4.88144
4.87766
4.87483
4.87394
4.88508
4.87998
4.87503
4.87201
4.90665
4.89959
4.89267
4.88848
4.93706
4.92781
4.9188
4.91372
5.03485
5.02554
5.01459
5.0063
5.17706
5.16734
5.16005
5.1593
6.58898
6.58688
6.58731
6.59095
6.29217
6.30576
6.30574
6.29209
5.03314
5.04111
5.04098
5.03288
4.89597
4.89596
4.89485
4.89298
4.87378
4.8714
4.86972
4.86932
4.87175
4.86858
4.86566
4.86408
4.88375
4.87933
4.87518
4.87288
4.90425
4.89848
4.89305
4.89028
4.9908
4.98535
4.97854
4.97304
5.14296
5.13527
5.13066
5.13183
6.32208
6.32034
6.32055
6.32312
6.02272
6.03345
6.03344
6.02268
5.02588
5.03585
5.03576
5.02569
4.89265
4.8934
4.89281
4.89108
4.8697
4.86826
4.86728
4.8671
4.86498
4.86303
4.86137
4.86064
4.87195
4.86923
4.86682
4.86565
4.88651
4.88305
4.87993
4.87851
4.96446
4.9617
4.95761
4.95375
5.12035
5.11417
5.11142
5.11386
6.04507
6.04373
6.04383
6.04556
5.74276
5.75075
5.75074
5.74274
5.01822
5.03013
5.03006
5.01805
4.88947
4.89078
4.8905
4.88874
4.8669
4.86611
4.86557
4.86543
4.86139
4.8602
4.85929
4.85902
4.86554
4.8639
4.86254
4.86199
4.87533
4.8734
4.87169
4.87099
4.94417
4.94328
4.94083
4.93774
5.10136
5.09645
5.09494
5.09794
5.75836
5.75742
5.75745
5.75855
5.45318
5.45864
5.45863
5.45317
5.00663
5.01985
5.0198
5.00649
4.88516
4.88666
4.88655
4.88486
4.86417
4.86381
4.86352
4.8634
4.85951
4.85881
4.85833
4.85828
4.86194
4.86097
4.86022
4.85999
4.867
4.86603
4.86515
4.86478
4.92314
4.92324
4.9217
4.91908
5.07675
5.07339
5.07266
5.07526
5.4629
5.46238
5.46238
5.46294
5.154
5.15737
5.15736
5.154
4.97558
4.98765
4.98761
4.97548
4.8783
4.87933
4.87928
4.8782
4.86156
4.86139
4.86125
4.8612
4.85902
4.85861
4.85838
4.85842
4.86029
4.85972
4.85933
4.85927
4.86136
4.86092
4.86051
4.86034
4.89788
4.89761
4.89658
4.89516
5.02333
5.02236
5.02215
5.02305
5.15866
5.1585
5.15849
5.15865
10.1261
9.40519
9.06119
8.92872
8.87044
8.82292
8.77478
8.73153
8.69827
8.67607
190.19
100.218
60.8019
49.0911
42.8408
37.6194
33.3894
30.2197
28.2854
27.6134
259.316
120.999
86.652
73.1797
66.2928
61.1359
57.4633
54.967
53.5526
53.4244
303.564
132.106
96.6458
79.7394
70.504
63.7623
59.091
55.9481
54.0788
53.9598
373.857
149.894
106.222
84.3879
71.7207
62.9605
56.9593
52.9392
50.3974
50.091
439.504
181.549
118.128
89.2324
72.5094
61.4774
53.9571
48.937
45.6729
44.9746
503.959
208.279
123.301
89.604
70.1155
57.7811
49.4103
43.886
40.2235
39.2452
531.748
212.324
112.475
78.5972
58.9288
47.0955
39.2752
34.3332
31.148
30.1949
398.611
132.05
56.317
35.8423
24.7134
19.0592
15.9187
14.2716
13.2694
12.971
12.8703
10.5335
9.88432
9.61199
9.44157
9.32946
9.25503
9.20247
9.15849
9.12656
9.71197
9.20712
8.97169
8.84787
8.77196
8.71492
8.66751
8.62903
8.60105
8.58334
126.615
69.4086
47.4981
38.0282
32.4409
28.094
24.6465
22.0591
20.4334
19.7356
177.309
94.1299
69.0387
57.577
51.1414
46.5223
43.2487
41.0512
39.8351
39.6602
209.189
106.753
78.2067
63.6744
55.3688
49.5324
45.5306
42.8987
41.3731
41.1866
250.187
121.744
86.78
68.1287
57.2407
49.8715
44.88
41.6075
39.5474
39.1395
323.784
147.092
97.9124
73.3339
59.1298
49.84
43.5594
39.4263
36.7118
35.9102
397.022
169.807
103.939
74.9808
58.3548
47.8673
40.8043
36.2026
33.0895
31.9962
436.64
175.758
96.7943
67.1449
50.1092
39.8825
33.1755
28.9863
26.2255
25.1791
328.661
111.066
49.6746
31.4203
21.7393
16.842
14.1226
12.709
11.822
11.489
11.698
10.2087
9.68051
9.44196
9.29471
9.19625
9.12889
9.07963
9.03692
9.00193
9.07836
8.86146
8.75471
8.68322
8.62701
8.58071
8.54338
8.51481
8.49498
8.48289
53.8943
40.8698
32.6653
26.912
22.6104
19.3272
16.8881
15.1557
14.1085
13.6579
82.9919
61.603
49.9987
42.0448
36.773
33.0595
30.4998
28.8318
27.9612
27.8706
104.121
73.2522
57.7849
47.3327
40.7275
36.1832
33.1131
31.1407
30.0666
29.9761
127.363
84.8502
64.708
51.2494
42.8971
37.2882
33.5179
31.0944
29.6391
29.3714
160.32
102.169
73.5918
56.0847
45.2929
38.1814
33.3793
30.2578
28.2694
27.6732
197.575
117.921
78.9769
58.3413
45.6062
37.4692
31.992
28.4665
26.1343
25.2886
223.719
122.586
74.4182
53.1766
39.911
31.8695
26.6116
23.3711
21.2838
20.4817
163.617
75.355
37.6753
25.026
17.7488
14.1131
12.0845
11.028
10.3698
10.1345
10.4855
9.79414
9.44945
9.26799
9.14991
9.06882
9.01034
8.96517
8.9235
8.88808
8.7341
8.61401
8.54917
8.50146
8.46328
8.43256
8.40854
8.39063
8.37858
8.37169
28.3935
24.243
20.3929
17.1546
14.63
12.7408
11.3895
10.4618
9.92034
9.6951
46.3627
39.067
33.103
28.312
24.8406
22.3613
20.652
19.5484
18.9944
18.957
59.2696
48.2538
39.4887
32.9264
28.444
25.3252
23.2116
21.8649
21.1655
21.1334
72.9391
57.3397
45.0661
36.4309
30.7121
26.8281
24.2143
22.5569
21.6089
21.4615
92.7424
70.0135
52.1976
40.7735
33.2439
28.2034
24.7924
22.598
21.2524
20.8648
114.389
81.278
56.9719
43.2756
34.203
28.3149
24.3519
21.8335
20.2232
19.6492
129.905
84.517
54.5107
40.1837
30.5506
24.6594
20.8249
18.4975
17.0484
16.5101
92.146
49.8242
27.2533
19.1472
14.2037
11.7411
10.3422
9.60734
9.15073
8.99973
9.78439
9.41021
9.19535
9.06483
8.97616
8.91158
8.86259
8.82318
8.7851
8.75225
8.46903
8.39097
8.35044
8.32244
8.30059
8.28299
8.26909
8.25867
8.25184
8.24828
15.33
13.7796
12.1268
10.6941
9.57169
8.73728
8.14521
7.73825
7.50523
7.41542
26.1882
23.326
20.4703
18.0482
16.1745
14.7936
13.8281
13.2059
12.9066
12.9061
34.3896
29.8485
25.297
21.7529
19.147
17.2783
15.995
15.1769
14.7682
14.769
43.2289
36.3505
29.5742
24.6936
21.2257
18.8145
17.1823
16.1587
15.5989
15.5329
55.7929
45.2202
35.0854
28.3369
23.5673
20.3003
18.0793
16.6631
15.8256
15.5989
69.2047
53.0984
39.1156
30.7281
24.7903
20.8581
18.2088
16.5465
15.5184
15.163
78.4899
55.4382
38.1696
29.1211
22.6768
18.6872
16.0997
14.5517
13.6195
13.2907
53.0848
31.3138
19.2244
14.4487
11.405
9.85324
8.9415
8.45478
8.15097
8.05878
9.27347
9.0727
8.95237
8.864
8.79947
8.7485
8.70771
8.67373
8.63954
8.60972
8.25891
8.19957
8.17223
8.15532
8.14256
8.13224
8.12401
8.11791
8.11416
8.1126
9.02249
8.52832
7.94238
7.42499
7.01518
6.70665
6.48296
6.32382
6.23435
6.20683
15.0114
13.9079
12.6724
11.5748
10.6878
10.0263
9.56589
9.27469
9.14724
9.17039
19.9348
18.0533
15.9327
14.1937
12.8403
11.8493
11.1657
10.7316
10.5257
10.5471
25.3482
22.2456
18.923
16.3952
14.4966
13.1542
12.2469
11.6875
11.3969
11.3843
33.0491
28.0275
22.8801
19.1797
16.4161
14.4847
13.1703
12.3407
11.8673
11.7551
41.155
33.2294
25.9883
21.1809
17.6073
15.1931
13.5678
12.5611
11.9567
11.7599
46.5077
34.9176
25.9004
20.522
16.5616
14.0709
12.4594
11.5065
10.9498
10.7698
30.0003
19.4362
13.6946
11.0844
9.35306
8.42223
7.85068
7.53863
7.34217
7.28855
8.8874
8.78803
8.72404
8.66535
8.61831
8.57806
8.54431
8.51541
8.48533
8.45891
8.07422
8.02405
8.00321
7.99158
7.98321
7.97654
7.97133
7.96764
7.96565
7.96523
6.50461
6.36797
6.18385
6.01616
5.87919
5.77198
5.6904
5.62933
5.59662
5.59239
9.31385
8.89683
8.41266
7.97307
7.61562
7.35352
7.17635
7.06958
7.03376
7.06369
12.0636
11.2933
10.3842
9.60611
8.98537
8.52981
8.21796
8.02149
7.93659
7.96551
15.1625
13.7851
12.2834
11.0745
10.1461
9.48963
9.052
8.78963
8.66385
8.67934
19.6555
17.3391
14.9072
13.0117
11.5565
10.5294
9.83371
9.39953
9.16133
9.12013
24.3567
20.6016
17.0924
14.5088
12.5427
11.1952
10.2909
9.73771
9.41394
9.31941
27.3618
21.8034
17.3823
14.3906
12.1654
10.7415
9.81984
9.27909
8.97248
8.88738
17.3587
12.6868
10.1947
8.84801
7.91535
7.37488
7.02715
6.83211
6.7082
6.67843
8.58301
8.53881
8.50458
8.46545
8.43083
8.39919
8.37159
8.34748
8.32167
8.29889
7.89638
7.85152
7.83403
7.82496
7.81874
7.81395
7.81036
7.80799
7.80697
7.80716
5.59905
5.56117
5.49928
5.44051
5.3911
5.35115
5.31943
5.29483
5.28308
5.28593
6.66637
6.52719
6.36453
6.2156
6.09649
6.01297
5.96048
5.9332
5.93329
5.95913
8.04332
7.76467
7.41992
7.11498
6.87007
6.6914
6.57043
6.49467
6.46788
6.49422
9.67708
9.11741
8.50119
7.98661
7.59227
7.31703
7.13786
7.03543
6.99405
7.01819
12.1612
11.1715
10.1001
9.21488
8.53024
8.04544
7.71871
7.5167
7.41173
7.40669
14.7767
13.1142
11.5062
10.2302
9.25249
8.57492
8.12031
7.8449
7.6876
7.65052
16.4486
13.9583
11.9035
10.3748
9.23589
8.49076
8.0055
7.72225
7.56782
7.53678
10.9508
9.11228
8.09207
7.4232
6.93611
6.62863
6.42149
6.30163
6.22483
6.20886
8.32433
8.30711
8.28774
8.26131
8.23572
8.21112
8.18894
8.16928
8.14778
8.1287
7.716
7.67513
7.65983
7.65225
7.64721
7.64346
7.64076
7.63912
7.63862
7.6391
5.26672
5.25173
5.22411
5.19786
5.17611
5.15866
5.14463
5.13373
5.12944
5.13341
5.57967
5.53627
5.487
5.44187
5.40775
5.38681
5.37706
5.37613
5.38534
5.40396
6.19598
6.11419
6.00081
5.89602
5.81091
5.74917
5.70796
5.68236
5.67745
5.69711
6.96777
6.77296
6.55294
6.3634
6.21924
6.12074
6.05945
6.0281
6.02163
6.04372
8.239
7.86986
7.44702
7.08044
6.79474
6.59084
6.45349
6.36958
6.33016
6.33902
9.60718
8.94917
8.27632
7.71198
7.27538
6.96705
6.75849
6.63335
6.56415
6.55452
10.5379
9.53035
8.64984
7.94229
7.40934
7.04926
6.81217
6.67525
6.6057
6.60171
7.91225
7.26352
6.85603
6.53156
6.28133
6.10888
5.98722
5.91421
5.86685
5.85819
8.08663
8.0809
8.06909