/*--------------------------------*- C++ -*----------------------------------*\
| =========                 |                                                 |
| \\      /  F ield         | foam-extend: Open Source CFD                    |
|  \\    /   O peration     | Version:     4.0                                |
|   \\  /    A nd           | Web:         http://www.foam-extend.org         |
|    \\/     M anipulation  |                                                 |
\*---------------------------------------------------------------------------*/
FoamFile
{
    version     2.0;
    format      ascii;
    class       volScalarField;
    location    "600";
    object      MaU;
}
// * * * * * * * * * * * * * * * * * * * * * * * * * * * * * * * * * * * * * //

dimensions      [0 0 0 0 0 0 0];

internalField   nonuniform List<scalar> 
34480
(
0.613009
0.618272
0.623389
0.62858
0.634161
0.640044
0.644421
0.641589
0.622026
0.559173
0.618675
0.624953
0.63084
0.636432
0.642254
0.648795
0.655433
0.658284
0.649453
0.598283
0.621115
0.628227
0.635058
0.64173
0.648651
0.656571
0.665547
0.672724
0.671961
0.63148
0.62134
0.629934
0.638342
0.6467
0.65526
0.664735
0.675586
0.685976
0.69151
0.659259
0.621466
0.631345
0.641082
0.650884
0.66093
0.671839
0.684296
0.697375
0.708266
0.682495
0.620544
0.631415
0.642122
0.652976
0.664146
0.676178
0.689879
0.705137
0.720638
0.700491
0.620141
0.63163
0.642867
0.654283
0.666053
0.678733
0.693266
0.710415
0.730344
0.715725
0.619156
0.630898
0.64227
0.653771
0.665568
0.678229
0.692856
0.711213
0.735298
0.726604
0.619304
0.631054
0.642377
0.65384
0.665591
0.678103
0.692489
0.71146
0.739395
0.73588
0.615309
0.627092
0.638443
0.649828
0.661207
0.672892
0.685981
0.70401
0.734998
0.737745
0.589077
0.59206
0.593805
0.594016
0.592266
0.587765
0.579245
0.565018
0.540699
0.488133
0.600627
0.605091
0.608485
0.610391
0.610489
0.608116
0.601778
0.589289
0.567298
0.514586
0.606762
0.612315
0.616991
0.620557
0.62265
0.622786
0.619582
0.610366
0.592046
0.540788
0.609427
0.61649
0.622855
0.628344
0.632559
0.635013
0.634458
0.628158
0.613376
0.564461
0.611189
0.619562
0.627349
0.634441
0.640481
0.644934
0.646671
0.64307
0.631713
0.585637
0.611496
0.620924
0.629799
0.638099
0.645554
0.651602
0.655224
0.654013
0.645755
0.602089
0.611995
0.622122
0.631668
0.640729
0.649093
0.656276
0.661411
0.662476
0.65752
0.617089
0.611629
0.622122
0.631981
0.641389
0.650179
0.657966
0.664077
0.667046
0.665585
0.629487
0.611916
0.622468
0.632398
0.641965
0.651082
0.659393
0.666284
0.670797
0.672929
0.641297
0.608335
0.618922
0.628963
0.638593
0.647646
0.655783
0.662592
0.667593
0.673186
0.647218
0.571148
0.572795
0.573003
0.571566
0.568101
0.562085
0.55282
0.539489
0.52069
0.493551
0.585408
0.588474
0.590232
0.590292
0.588174
0.583107
0.573957
0.559173
0.536459
0.50182
0.593769
0.598029
0.60112
0.602721
0.602354
0.59919
0.591758
0.577818
0.554114
0.513742
0.598229
0.603957
0.60867
0.612091
0.613657
0.612512
0.606959
0.594192
0.570173
0.525201
0.601302
0.608322
0.614453
0.619454
0.622769
0.623503
0.619833
0.608544
0.584907
0.536688
0.602639
0.610742
0.618014
0.624273
0.629027
0.63135
0.629375
0.619645
0.596831
0.546559
0.603908
0.612767
0.620805
0.627932
0.633728
0.637299
0.636834
0.628837
0.607485
0.556489
0.604133
0.613439
0.621916
0.629553
0.636004
0.640442
0.641189
0.634915
0.615569
0.565055
0.604765
0.614177
0.622786
0.630655
0.637559
0.642755
0.644675
0.640167
0.623215
0.573189
0.601788
0.611219
0.61995
0.627902
0.634798
0.63995
0.642248
0.638956
0.624707
0.575423
0.558311
0.55913
0.558675
0.556823
0.553392
0.548188
0.541092
0.532212
0.521803
0.50951
0.572974
0.574937
0.575583
0.574636
0.571741
0.566433
0.558151
0.546375
0.530652
0.511146
0.582399
0.585501
0.587329
0.587566
0.585789
0.581353
0.573343
0.560633
0.541992
0.516553
0.58805
0.592508
0.595773
0.597522
0.597212
0.594048
0.586772
0.573646
0.552597
0.521405
0.592134
0.597822
0.602404
0.605575
0.606718
0.604934
0.598681
0.585654
0.5629
0.526705
0.594338
0.601098
0.606798
0.611169
0.613594
0.61309
0.607901
0.595246
0.571276
0.530778
0.596289
0.603832
0.610337
0.615599
0.619038
0.619643
0.615543
0.60362
0.579185
0.535499
0.597054
0.605103
0.612122
0.617976
0.622148
0.623644
0.620572
0.609629
0.585446
0.539654
0.597958
0.606169
0.613377
0.61951
0.62416
0.626425
0.624478
0.614898
0.591726
0.544091
0.595389
0.603643
0.611017
0.617295
0.622062
0.624436
0.622913
0.61437
0.592992
0.543916
0.550265
0.550684
0.550157
0.548642
0.546091
0.542487
0.537923
0.53278
0.52786
0.523607
0.563617
0.564848
0.564955
0.563775
0.561121
0.556784
0.550586
0.542497
0.532773
0.522375
0.572927
0.575133
0.576143
0.575715
0.573554
0.569273
0.562426
0.552637
0.539806
0.524877
0.57905
0.58244
0.584621
0.585298
0.584051
0.580301
0.573287
0.56217
0.546316
0.526457
0.583708
0.588225
0.591549
0.593384
0.593185
0.590228
0.58344
0.571476
0.553002
0.528317
0.586494
0.592034
0.59639
0.599275
0.600085
0.597973
0.591587
0.579089
0.55833
0.529035
0.588942
0.595265
0.600411
0.604133
0.605813
0.604524
0.598705
0.586086
0.563648
0.53036
0.590137
0.596999
0.602692
0.607019
0.609392
0.608848
0.603697
0.591323
0.567863
0.531296
0.591308
0.598382
0.604306
0.608933
0.611754
0.611857
0.607541
0.595929
0.572295
0.532835
0.589082
0.596229
0.602351
0.607162
0.610163
0.610439
0.606464
0.595433
0.572521
0.530743
0.545768
0.546001
0.545598
0.544559
0.542896
0.540652
0.537965
0.535218
0.533271
0.532922
0.557007
0.557767
0.557666
0.556619
0.554554
0.551421
0.547221
0.542077
0.536315
0.530641
0.565419
0.566948
0.567462
0.566802
0.564797
0.561263
0.556051
0.54915
0.540831
0.532021
0.571431
0.573941
0.57534
0.575398
0.573828
0.570281
0.564385
0.555867
0.544791
0.532304
0.576263
0.579761
0.582096
0.583005
0.582082
0.578815
0.572579
0.562753
0.549016
0.532624
0.579354
0.583792
0.587024
0.588779
0.588552
0.585697
0.579323
0.568418
0.552122
0.531689
0.582114
0.587306
0.591265
0.593743
0.594176
0.591813
0.585524
0.573905
0.555429
0.531177
0.58361
0.589351
0.59385
0.596887
0.597893
0.596045
0.59003
0.578076
0.557918
0.530232
0.584997
0.590988
0.595746
0.599086
0.60047
0.599086
0.593543
0.581775
0.560713
0.529955
0.583028
0.58912
0.594096
0.59764
0.59923
0.598024
0.592689
0.581071
0.559928
0.526696
0.543678
0.543828
0.543578
0.542944
0.541953
0.540654
0.539164
0.537801
0.537383
0.539027
0.552646
0.553118
0.552982
0.552199
0.550754
0.548661
0.54598
0.542845
0.539487
0.536311
0.559742
0.560782
0.561025
0.560379
0.558762
0.55611
0.552416
0.547786
0.542512
0.537205
0.565222
0.567038
0.567909
0.567671
0.566155
0.563183
0.558618
0.55246
0.544976
0.537059
0.569889
0.572536
0.57413
0.574462
0.573259
0.570208
0.565
0.557439
0.547653
0.536799
0.573029
0.576506
0.578838
0.579795
0.579001
0.576014
0.57032
0.561467
0.549308
0.53524
0.575919
0.580094
0.58306
0.584593
0.584236
0.581439
0.575472
0.565593
0.551243
0.53395
0.577578
0.582287
0.585754
0.587763
0.587822
0.585295
0.579267
0.568687
0.552476
0.532129
0.579116
0.584101
0.587835
0.590129
0.590481
0.588229
0.582348
0.571529
0.554089
0.531002
0.577329
0.58243
0.586388
0.588883
0.589428
0.587316
0.581508
0.570529
0.552544
0.527301
0.543043
0.543154
0.54302
0.542663
0.542106
0.541389
0.540596
0.539984
0.540318
0.542985
0.549968
0.550265
0.55016
0.549634
0.548695
0.547373
0.545726
0.543854
0.541898
0.540065
0.555639
0.556337
0.556446
0.555918
0.554722
0.552855
0.550358
0.547344
0.544024
0.540748
0.56035
0.561637
0.562167
0.561834
0.56055
0.558244
0.554901
0.550611
0.545633
0.540534
0.564604
0.566563
0.567624
0.567636
0.566431
0.563845
0.559762
0.554191
0.54738
0.540145
0.567583
0.570246
0.571888
0.572323
0.571298
0.568544
0.563808
0.556963
0.54816
0.538487
0.570443
0.573727
0.575894
0.576755
0.575971
0.573175
0.567953
0.559993
0.549243
0.537023
0.572128
0.57591
0.578518
0.579754
0.579231
0.576496
0.570978
0.562148
0.549651
0.534938
0.573753
0.577818
0.580682
0.582165
0.581847
0.579228
0.573623
0.564306
0.550545
0.53362
0.572076
0.576263
0.579341
0.581004
0.580841
0.578299
0.572648
0.56299
0.548498
0.529872
0.543193
0.543282
0.54322
0.54303
0.54273
0.542347
0.54194
0.541718
0.542402
0.545592
0.54846
0.548651
0.548587
0.548261
0.547684
0.546882
0.545897
0.544793
0.543645
0.542549
0.552796
0.55326
0.553311
0.552925
0.552096
0.55084
0.549205
0.547278
0.545188
0.543117
0.556661
0.557557
0.557878
0.557558
0.556558
0.554865
0.552511
0.549598
0.546314
0.542981
0.560352
0.561772
0.562466
0.562331
0.561273
0.559221
0.556163
0.552184
0.547513
0.542655
0.563019
0.565015
0.566146
0.566272
0.565236
0.562894
0.559155
0.554047
0.547801
0.541146
0.565724
0.568252
0.5698
0.570215
0.569268
0.566738
0.562426
0.556263
0.548411
0.539822
0.567315
0.570287
0.572203
0.572893
0.572076
0.569456
0.564721
0.557669
0.548323
0.537805
0.568966
0.572212
0.574358
0.575247
0.574554
0.571932
0.56697
0.559335
0.548853
0.536663
0.567339
0.570701
0.573039
0.574076
0.573488
0.570877
0.565782
0.55773
0.546509
0.533066
0.543698
0.543771
0.543749
0.543653
0.543496
0.543295
0.543092
0.543063
0.543886
0.547329
0.547713
0.547837
0.547806
0.547615
0.547274
0.546801
0.546223
0.545573
0.544889
0.544206
0.550898
0.551205
0.551234
0.550974
0.550427
0.549612
0.548568
0.547348
0.546022
0.544674
0.553958
0.554572
0.554768
0.554508
0.553778
0.552588
0.55098
0.549036
0.546875
0.544659
0.557026
0.558035
0.558484
0.558306
0.557454
0.555908
0.553699
0.550923
0.547749
0.544461
0.559295
0.560759
0.561525
0.561491
0.560568
0.558692
0.555857
0.552152
0.547787
0.543202
0.561762
0.563664
0.564747
0.564893
0.563958
0.561822
0.558419
0.5538
0.548175
0.542162
0.563158
0.565442
0.566819
0.567149
0.566247
0.563933
0.56007
0.554637
0.547812
0.540359
0.564792
0.567326
0.568897
0.569376
0.568529
0.566136
0.561983
0.555976
0.548208
0.539547
0.563163
0.565799
0.567533
0.568122
0.567334
0.564899
0.560565
0.554135
0.545719
0.536187
0.544309
0.544371
0.544368
0.544321
0.54424
0.544136
0.544038
0.544095
0.544946
0.548487
0.547425
0.547506
0.547495
0.547389
0.547193
0.546919
0.546581
0.546196
0.545778
0.545329
0.549672
0.549873
0.549894
0.549728
0.549382
0.548869
0.548213
0.547444
0.546592
0.545683
0.552038
0.552453
0.552576
0.552384
0.551877
0.55107
0.549999
0.54872
0.547295
0.545791
0.554487
0.555191
0.555481
0.555314
0.55467
0.553553
0.552006
0.550107
0.547966
0.545716
0.556331
0.557381
0.557892
0.557793
0.557037
0.555606
0.553531
0.550908
0.547894
0.544725
0.558517
0.559918
0.560661
0.560662
0.559836
0.55813
0.555548
0.552179
0.548216
0.544017
0.559646
0.56136
0.562328
0.562442
0.561587
0.559667
0.556647
0.552591
0.547706
0.542463
0.561237
0.563171
0.564294
0.564509
0.563659
0.561617
0.558298
0.553734
0.54811
0.542024
0.559565
0.56158
0.562836
0.563126
0.562296
0.56018
0.556666
0.551719
0.545574
0.538919
0.544897
0.54495
0.544954
0.544932
0.54489
0.544836
0.54479
0.544879
0.545697
0.54924
0.547393
0.547447
0.547446
0.547389
0.547279
0.547121
0.546923
0.54669
0.546425
0.54611
0.548896
0.549027
0.549044
0.548944
0.548731
0.548415
0.548008
0.547524
0.546965
0.546326
0.550714
0.55099
0.551069
0.550938
0.550599
0.550067
0.549369
0.548536
0.547594
0.546547
0.552592
0.553074
0.553261
0.553126
0.552663
0.551885
0.55083
0.549554
0.548117
0.546558
0.554025
0.554763
0.5551
0.554988
0.554406
0.553358
0.551886
0.55007
0.548013
0.545813
0.555925
0.556934
0.557435
0.557371
0.556696
0.555395
0.553501
0.551107
0.548356
0.545427
0.556739
0.557994
0.55866
0.558658
0.55792
0.556407
0.554133
0.551191
0.547759
0.544093
0.558287
0.559727
0.560511
0.560572
0.559807
0.558157
0.55561
0.552247
0.54826
0.544025
0.556537
0.558036
0.558923
0.55903
0.558259
0.556522
0.55379
0.550109
0.54573
0.541151
0.5454
0.545446
0.545452
0.545443
0.54542
0.545392
0.545371
0.545462
0.546211
0.549688
0.547493
0.547528
0.547532
0.547502
0.54744
0.547349
0.547231
0.547086
0.546908
0.546671
0.548405
0.548489
0.548503
0.548445
0.548317
0.548126
0.547876
0.547568
0.547192
0.546723
0.549829
0.55001
0.550061
0.549976
0.549757
0.549415
0.548968
0.54843
0.547802
0.547053
0.551202
0.551526
0.551646
0.551546
0.551227
0.550702
0.549999
0.549156
0.548197
0.547101
0.55227
0.552778
0.552997
0.552897
0.552471
0.551732
0.550716
0.549484
0.548096
0.546561
0.553904
0.554614
0.554946
0.554864
0.554345
0.553392
0.552045
0.550383
0.548502
0.54646
0.554376
0.555272
0.555721
0.555666
0.555073
0.553931
0.552277
0.5502
0.547833
0.545284
0.555904
0.55695
0.557485
0.557466
0.55683
0.555558
0.553672
0.551264
0.548494
0.545574
0.554047
0.555129
0.555741
0.555747
0.555091
0.553732
0.551688
0.549031
0.545982
0.542877
0.545795
0.545836
0.545842
0.545838
0.545826
0.54581
0.545799
0.54588
0.546538
0.549889
0.547654
0.547677
0.547682
0.547667
0.547632
0.547578
0.547506
0.547411
0.547284
0.547094
0.548079
0.548132
0.548143
0.54811
0.548036
0.547921
0.547768
0.547571
0.547311
0.546949
0.549255
0.549373
0.549406
0.549353
0.549215
0.549001
0.548719
0.548374
0.547952
0.547398
0.550195
0.550408
0.550485
0.550416
0.550204
0.549859
0.549402
0.548854
0.548216
0.547433
0.550961
0.551302
0.551443
0.551364
0.551066
0.55056
0.549878
0.54906
0.548134
0.547056
0.552364
0.552851
0.553068
0.552992
0.552611
0.551938
0.551009
0.549883
0.548616
0.547192
0.552482
0.553105
0.553401
0.553332
0.55288
0.552052
0.550887
0.549458
0.547857
0.546095
0.554037
0.554778
0.555135
0.555083
0.554586
0.553646
0.552296
0.550619
0.548732
0.546736
0.55204
0.552798
0.55321
0.553168
0.552645
0.551629
0.550153
0.54829
0.546215
0.544145
0.546074
0.54611
0.546115
0.546114
0.546106
0.546097
0.546091
0.546154
0.546707
0.549869
0.547843
0.547859
0.547863
0.547855
0.547835
0.547802
0.547756
0.547691
0.547595
0.547436
0.547835
0.547868
0.547876
0.547858
0.547815
0.547748
0.547654
0.547527
0.547341
0.547052
0.548898
0.548973
0.548996
0.548964
0.548879
0.548747
0.548572
0.548353
0.548067
0.547646
0.549473
0.54961
0.549658
0.549613
0.549476
0.549255
0.548964
0.548614
0.548192
0.547623
0.550005
0.550229
0.550318
0.550261
0.550059
0.549723
0.549276
0.548744
0.548135
0.547374
0.551215
0.551541
0.551681
0.551619
0.551353
0.550893
0.550271
0.549524
0.548687
0.547694
0.550978
0.551398
0.551589
0.551524
0.551196
0.550617
0.549821
0.548864
0.547802
0.546593
0.552628
0.55314
0.553372
0.553314
0.552947
0.552278
0.551344
0.550205
0.548947
0.547593
0.550443
0.550957
0.551227
0.551172
0.550777
0.550047
0.549018
0.547749
0.54637
0.545013
0.546217
0.546249
0.546253
0.546253
0.546249
0.546243
0.546238
0.546283
0.546719
0.549622
0.548056
0.548066
0.54807
0.548065
0.548052
0.548032
0.548002
0.547956
0.547881
0.547742
0.547617
0.547637
0.547643
0.547633
0.547608
0.547569
0.547512
0.547429
0.547295
0.547059
0.548688
0.548736
0.548751
0.548732
0.548682
0.548603
0.548497
0.548359
0.548165
0.54784
0.548961
0.549047
0.549077
0.549048
0.548962
0.548824
0.548642
0.548422
0.548146
0.547728
0.549328
0.549471
0.549527
0.549488
0.549355
0.549139
0.548853
0.548514
0.548119
0.54758
0.550376
0.550588
0.550677
0.550631
0.550452
0.550148
0.549743
0.549261
0.548719
0.548029
0.549789
0.550065
0.550184
0.55013
0.549902
0.54951
0.548981
0.548357
0.547666
0.546847
0.551622
0.551967
0.552115
0.552064
0.551804
0.551345
0.550719
0.549966
0.549146
0.548234
0.549161
0.549498
0.54967
0.549617
0.549334
0.548829
0.548134
0.547294
0.5464
0.545529
0.546149
0.546177
0.546181
0.546182
0.54618
0.546177
0.546174
0.546203
0.546517
0.549072
0.548309
0.548316
0.548318
0.548316
0.548308
0.548296
0.548276
0.548244
0.548185
0.548065
0.547399
0.54741
0.547413
0.547407
0.547393
0.547369
0.547334
0.547281
0.547184
0.54699
0.548575
0.548606
0.548616
0.548606
0.548577
0.548531
0.548469
0.548386
0.548257
0.548007
0.548615
0.548667
0.548685
0.548667
0.548613
0.548528
0.548416
0.54828
0.548102
0.547796
0.54888
0.54897
0.549004
0.548978
0.548893
0.548756
0.548577
0.548365
0.548113
0.547734
0.549782
0.549916
0.549971
0.549939
0.549822
0.549628
0.549371
0.549069
0.548727
0.548254
0.548877
0.549052
0.549125
0.549083
0.548929
0.54867
0.548327
0.547927
0.547486
0.546942
0.550986
0.551212
0.551305
0.551264
0.551088
0.550784
0.550376
0.549891
0.549369
0.548757
0.548047
0.548261
0.548367
0.548324
0.548128
0.54779
0.547334
0.546791
0.546227
0.545678
0.545671
0.545696
0.545699
0.5457
0.5457
0.545699
0.545697
0.545712
0.545907
0.547994
0.548665
0.548671
0.548673
0.548672
0.548668
0.548663
0.548653
0.548632
0.548589
0.548491
0.547203
0.547208
0.547208
0.547203
0.547192
0.547175
0.547151
0.547115
0.547045
0.54689
0.548519
0.548539
0.548546
0.548542
0.548526
0.5485
0.548466
0.548418
0.548338
0.548155
0.548405
0.548436
0.548446
0.548434
0.548399
0.548346
0.548277
0.548193
0.54808
0.547861
0.548626
0.548682
0.548702
0.548684
0.54863
0.548543
0.548431
0.548299
0.54814
0.547879
0.549389
0.549473
0.549505
0.549484
0.549409
0.549286
0.549126
0.54894
0.548732
0.548419
0.548282
0.548393
0.548436
0.548405
0.548302
0.548132
0.547908
0.547651
0.547366
0.547012
0.550747
0.55089
0.550947
0.550917
0.5508
0.550603
0.550343
0.550036
0.549712
0.5493
0.546855
0.546989
0.547053
0.54702
0.546888
0.546666
0.546371
0.546024
0.545671
0.545328
0.544493
0.544509
0.544507
0.544503
0.544496
0.544485
0.544473
0.544466
0.544539
0.545982
0.549271
0.549277
0.54928
0.549282
0.549285
0.549287
0.549289
0.549285
0.549264
0.549198
0.547126
0.547126
0.547123
0.547116
0.547104
0.547087
0.547065
0.547034
0.546982
0.546861
0.548475
0.548488
0.548493
0.548491
0.548482
0.548467
0.548448
0.548422
0.548379
0.548261
0.548297
0.548316
0.548321
0.548311
0.548288
0.548251
0.548205
0.548149
0.548078
0.547932
0.548515
0.54855
0.548562
0.548549
0.548513
0.548455
0.54838
0.548293
0.548191
0.54802
0.549155
0.549208
0.549227
0.549212
0.549162
0.549081
0.548978
0.54886
0.548733
0.548539
0.548139
0.548212
0.548238
0.548216
0.548144
0.548028
0.547875
0.547697
0.547496
0.547257
0.551011
0.5511
0.551135
0.551113
0.551034
0.550905
0.550737
0.550542
0.550346
0.550074
0.54526
0.545357
0.545397
0.545375
0.545284
0.545134
0.544937
0.544704
0.54447
0.544233
0.542709
0.542709
0.542698
0.542679
0.542652
0.542617
0.542573
0.542518
0.54246
0.542958
0.550193
0.5502
0.550206
0.550213
0.550224
0.550238
0.550257
0.550279
0.5503
0.550305
0.547232
0.547229
0.547224
0.547214
0.547199
0.547179
0.547154
0.547121
0.547075
0.546983
0.548381
0.54839
0.548393
0.548391
0.548384
0.548373
0.548358
0.548342
0.54832
0.548264
0.548223
0.548236
0.548239
0.54823
0.548211
0.548181
0.548143
0.548099
0.548046
0.547958
0.548452
0.548477
0.548485
0.548474
0.548445
0.5484
0.548342
0.548274
0.548197
0.548089
0.548995
0.549033
0.549046
0.549033
0.548995
0.548934
0.548856
0.548767
0.548676
0.548561
0.548433
0.548489
0.548509
0.548491
0.548436
0.548346
0.548228
0.548084
0.547917
0.547723
0.551755
0.551817
0.551842
0.551824
0.551764
0.551668
0.551546
0.551411
0.551289
0.551146
0.54331
0.543406
0.543442
0.543426
0.543358
0.543244
0.543092
0.542912
0.542721
0.542502
0.348617
0.255431
0.251783
0.348474
0.342193
0.247279
0.2419
0.345278
0.333704
0.237844
0.230785
0.31974
0.322503
0.225223
0.214318
0.284721
0.309926
0.212116
0.197312
0.253839
0.298878
0.204732
0.191617
0.252056
0.288269
0.198752
0.186875
0.245858
0.275803
0.190782
0.179483
0.234834
0.263279
0.183026
0.171797
0.22217
0.251222
0.175917
0.162623
0.204438
0.382996
0.346769
0.340423
0.363443
0.386234
0.344651
0.336439
0.359094
0.385516
0.339368
0.325506
0.344545
0.382707
0.331944
0.31186
0.325181
0.378749
0.323826
0.298405
0.306551
0.369779
0.310663
0.280426
0.283132
0.361902
0.30013
0.266852
0.26583
0.353854
0.290608
0.255606
0.252405
0.34638
0.282118
0.245339
0.238879
0.339206
0.272947
0.232736
0.22058
0.457325
0.444117
0.439773
0.445805
0.460429
0.442984
0.43721
0.444221
0.458338
0.438176
0.430499
0.435203
0.453553
0.430453
0.42023
0.422391
0.447666
0.421762
0.409139
0.409445
0.439841
0.411599
0.397381
0.396624
0.432274
0.401949
0.38617
0.383732
0.424047
0.391995
0.374692
0.36999
0.416592
0.383535
0.364751
0.357212
0.410536
0.37762
0.356399
0.343459
0.489113
0.484498
0.482381
0.482716
0.493734
0.485688
0.482541
0.484044
0.492378
0.482622
0.478132
0.478559
0.488384
0.476647
0.470584
0.46988
0.483475
0.469789
0.462218
0.460429
0.476098
0.460481
0.451453
0.44847
0.468671
0.451234
0.44079
0.436441
0.460399
0.441336
0.429507
0.423521
0.452358
0.432272
0.419212
0.41116
0.443823
0.424115
0.409604
0.397484
0.50938
0.508304
0.507085
0.505687
0.514543
0.510548
0.508564
0.50856
0.513714
0.508679
0.505795
0.505031
0.510606
0.50428
0.500329
0.498678
0.506767
0.499114
0.494085
0.491521
0.500779
0.49176
0.485613
0.482027
0.494607
0.484238
0.47696
0.472267
0.487488
0.475843
0.467433
0.46149
0.480757
0.468242
0.458822
0.451259
0.47372
0.461447
0.450963
0.440006
0.521011
0.52154
0.520841
0.518901
0.526608
0.524444
0.52323
0.522959
0.526143
0.523321
0.521495
0.520681
0.523751
0.520082
0.517515
0.516045
0.520737
0.516166
0.512818
0.510648
0.515732
0.510194
0.50601
0.503074
0.510539
0.50403
0.499003
0.495257
0.504443
0.497005
0.491141
0.486513
0.498859
0.490797
0.484225
0.478447
0.492635
0.484764
0.477567
0.469372
0.528188
0.52951
0.529106
0.526978
0.534057
0.53282
0.532086
0.531848
0.533811
0.532133
0.530986
0.530384
0.53202
0.52978
0.528121
0.527057
0.529702
0.526853
0.524642
0.523066
0.525607
0.522098
0.519291
0.517154
0.521373
0.517198
0.513787
0.511068
0.516295
0.511482
0.507481
0.504149
0.511872
0.506648
0.502176
0.498065
0.506508
0.501368
0.496508
0.490791
0.532735
0.534482
0.53425
0.532039
0.538707
0.537966
0.537524
0.537376
0.538645
0.537599
0.536881
0.536501
0.537354
0.535924
0.534857
0.534161
0.535622
0.533778
0.532325
0.531268
0.532312
0.530018
0.528148
0.526693
0.528936
0.526189
0.523898
0.522036
0.524761
0.521588
0.518895
0.516618
0.521403
0.517971
0.51498
0.512206
0.516769
0.513374
0.510141
0.50635
0.535745
0.537739
0.537607
0.535343
0.54167
0.541204
0.540939
0.540868
0.541749
0.541074
0.540627
0.540411
0.540879
0.53994
0.539255
0.538829
0.539643
0.538416
0.537464
0.536788
0.53702
0.535483
0.53424
0.533286
0.534417
0.532571
0.531037
0.529802
0.531033
0.528905
0.5271
0.525587
0.528626
0.526335
0.524343
0.522524
0.524618
0.52235
0.520206
0.517749
0.537825
0.539973
0.539898
0.537591
0.543595
0.543287
0.543128
0.543113
0.543735
0.543283
0.543005
0.542903
0.543211
0.542575
0.542136
0.541896
0.542383
0.541547
0.540924
0.540513
0.540354
0.539303
0.538477
0.537875
0.538437
0.537172
0.536146
0.53535
0.535721
0.534268
0.533059
0.532077
0.534107
0.532548
0.53122
0.530054
0.530644
0.529116
0.527691
0.526117
0.539323
0.541572
0.54153
0.539186
0.544874
0.544659
0.544563
0.544585
0.545004
0.544688
0.544515
0.544487
0.544749
0.544304
0.544022
0.543906
0.544232
0.543648
0.54324
0.543009
0.542702
0.541967
0.54142
0.541058
0.541381
0.540498
0.539813
0.53932
0.539207
0.538197
0.537388
0.53677
0.538241
0.537162
0.536274
0.535545
0.535243
0.534206
0.533256
0.532254
0.540446
0.542762
0.542737
0.540367
0.545748
0.545587
0.545529
0.545574
0.545807
0.545574
0.545468
0.545488
0.545762
0.545439
0.54526
0.545225
0.545459
0.545039
0.544774
0.544664
0.544331
0.543805
0.543444
0.543245
0.54351
0.542881
0.542424
0.542137
0.54175
0.541036
0.540495
0.540123
0.541326
0.540564
0.539972
0.539532
0.538701
0.537993
0.53736
0.536727
0.54132
0.543671
0.543657
0.541274
0.546367
0.546239
0.546204
0.546262
0.546303
0.546123
0.546058
0.546108
0.546433
0.546189
0.546076
0.546094
0.546256
0.545944
0.545773
0.545742
0.54544
0.545055
0.544818
0.544728
0.545025
0.544568
0.544266
0.544117
0.543555
0.54304
0.54268
0.542473
0.543596
0.543049
0.542655
0.542406
0.541246
0.540762
0.540341
0.539945
0.542024
0.544378
0.54437
0.541998
0.546827
0.546719
0.546698
0.546764
0.546594
0.546447
0.546408
0.546476
0.546887
0.546694
0.546623
0.546675
0.546757
0.546518
0.546408
0.546429
0.546179
0.545889
0.545735
0.545718
0.546086
0.545745
0.545546
0.545491
0.544785
0.544406
0.544169
0.544073
0.545244
0.544843
0.544583
0.544462
0.543065
0.542732
0.542455
0.542213
0.54261
0.544926
0.544921
0.542594
0.547195
0.547101
0.547088
0.547156
0.54674
0.546615
0.546592
0.54667
0.547209
0.54705
0.547006
0.547078
0.547064
0.546873
0.546804
0.546858
0.546665
0.546439
0.546341
0.54637
0.546815
0.546554
0.546426
0.546431
0.545575
0.545289
0.545135
0.545112
0.546434
0.546131
0.545962
0.545925
0.544305
0.544077
0.543897
0.543754
0.5431
0.545321
0.545319
0.543092
0.547523
0.547438
0.54743
0.547499
0.546778
0.546669
0.546655
0.546737
0.547456
0.54732
0.547293
0.547376
0.547252
0.547094
0.547052
0.547124
0.546991
0.546809
0.546748
0.546806
0.547314
0.547108
0.547027
0.54707
0.546037
0.545817
0.545718
0.545741
0.547304
0.547069
0.54696
0.546978
0.545071
0.544915
0.544799
0.544719
0.543461
0.545507
0.545506
0.543457
0.547866
0.547789
0.547784
0.54785
0.546737
0.546639
0.546631
0.546713
0.547666
0.547548
0.547532
0.547618
0.547383
0.54725
0.547224
0.547305
0.547235
0.547085
0.547047
0.54712
0.547665
0.5475
0.547449
0.547513
0.546286
0.546112
0.54605
0.5461
0.54799
0.547801
0.547733
0.547784
0.545389
0.545283
0.545211
0.545169
0.543524
0.545278
0.545278
0.543522
0.548313
0.548245
0.548241
0.548302
0.546663
0.546575
0.546571
0.546649
0.547857
0.547755
0.547746
0.547828
0.547506
0.547392
0.547377
0.547459
0.547458
0.547333
0.54731
0.547387
0.547938
0.547804
0.547773
0.547844
0.546474
0.546332
0.546294
0.546358
0.548656
0.548501
0.548459
0.548528
0.545151
0.54508
0.545035
0.545015
0.542942
0.544234
0.544234
0.542941
0.549046
0.548991
0.548989
0.549039
0.546662
0.546585
0.546583
0.546654
0.548019
0.547936
0.54793
0.548001
0.547639
0.547546
0.547536
0.54761
0.547678
0.547577
0.547563
0.547634
0.54817
0.548065
0.548045
0.54811
0.546802
0.546684
0.546659
0.546728
0.549548
0.54942
0.549392
0.549465
0.544119
0.544071
0.544042
0.544032
0.541691
0.542256
0.542255
0.54169
0.55022
0.550198
0.550197
0.550215
0.546822
0.54676
0.546758
0.546816
0.5481
0.548044
0.54804
0.548087
0.547746
0.547678
0.547672
0.547726
0.547844
0.547771
0.54776
0.547813
0.548318
0.548245
0.548231
0.548276
0.547323
0.547223
0.547205
0.547269
0.550836
0.550746
0.550726
0.550776
0.542383
0.542343
0.542322
0.54232
0.507836
0.544744
0.55924
0.568041
0.575649
0.583066
0.590035
0.596343
0.602166
0.607648
0.498988
0.523251
0.542739
0.5579
0.570417
0.580718
0.589705
0.597754
0.605159
0.612063
0.480821
0.505857
0.53422
0.551916
0.566817
0.578792
0.589135
0.5983
0.606558
0.613977
0.455903
0.487552
0.520634
0.541535
0.55872
0.57254
0.58449
0.59508
0.604609
0.613051
0.432205
0.470993
0.508164
0.532436
0.551676
0.567217
0.580579
0.592394
0.602989
0.612231
0.400669
0.45409
0.495386
0.523064
0.54427
0.56144
0.576069
0.588975
0.600518
0.610491
0.370892
0.44071
0.485245
0.516232
0.539019
0.557583
0.573223
0.586976
0.59918
0.609581
0.34102
0.428551
0.475578
0.509828
0.533945
0.553787
0.570269
0.584707
0.597427
0.608231
0.312647
0.419825
0.468195
0.505611
0.530898
0.552039
0.569257
0.584224
0.597168
0.608183
0.278081
0.409822
0.457486
0.497475
0.523968
0.546319
0.564398
0.580126
0.593598
0.605023
0.443294
0.4866
0.51337
0.532788
0.547281
0.558425
0.567283
0.574469
0.58035
0.585159
0.43759
0.483233
0.514164
0.53592
0.551803
0.563942
0.573768
0.582015
0.589099
0.595251
0.431218
0.480094
0.514348
0.536655
0.553207
0.566095
0.57675
0.585849
0.593757
0.600613
0.419606
0.471028
0.507342
0.530789
0.548662
0.562839
0.574767
0.5851
0.594202
0.602103
0.406688
0.460359
0.498999
0.524345
0.54379
0.559371
0.572543
0.584005
0.594148
0.602896
0.388158
0.446995
0.488762
0.51663
0.537804
0.554842
0.569205
0.581718
0.592815
0.602345
0.367702
0.435428
0.480123
0.51074
0.533428
0.551772
0.567124
0.580471
0.592257
0.602286
0.344052
0.424548
0.471536
0.505022
0.528997
0.548531
0.564695
0.578705
0.59102
0.601492
0.320718
0.416827
0.464748
0.501129
0.526167
0.546862
0.563711
0.578229
0.590787
0.601542
0.293587
0.408544
0.454765
0.49354
0.519614
0.541425
0.55906
0.574282
0.587338
0.598561
0.475484
0.495107
0.510845
0.524228
0.535573
0.545057
0.552896
0.559292
0.5644
0.568322
0.467322
0.491774
0.512049
0.528562
0.542002
0.552987
0.562063
0.569623
0.575928
0.581163
0.461066
0.488809
0.512202
0.530345
0.544962
0.556872
0.566815
0.575253
0.582462
0.588577
0.451024
0.480866
0.506688
0.526415
0.542391
0.555526
0.566659
0.576272
0.584654
0.59185
0.439968
0.471414
0.4998
0.521389
0.538884
0.553346
0.565677
0.576394
0.585827
0.593931
0.424129
0.459435
0.490762
0.514668
0.533845
0.549718
0.563235
0.575006
0.58542
0.594367
0.406999
0.448656
0.48283
0.509274
0.530002
0.547181
0.561717
0.574346
0.585499
0.595024
0.387555
0.438441
0.474878
0.503977
0.526034
0.544383
0.559743
0.573045
0.584752
0.594766
0.368226
0.431393
0.468701
0.500553
0.52367
0.543087
0.559089
0.572866
0.584817
0.595136
0.346504
0.424397
0.459981
0.494041
0.517981
0.538304
0.554926
0.569265
0.581606
0.59231
0.499821
0.507
0.515282
0.523811
0.531753
0.538751
0.544711
0.549639
0.55354
0.556418
0.491416
0.503732
0.516318
0.527883
0.538053
0.546796
0.55423
0.560482
0.565644
0.56981
0.486092
0.500784
0.515989
0.529459
0.541101
0.551053
0.559573
0.56686
0.573049
0.578217
0.477167
0.493679
0.511107
0.526325
0.539471
0.550765
0.560542
0.569042
0.576422
0.5827
0.467216
0.485288
0.50495
0.522036
0.536763
0.549438
0.560455
0.57009
0.578551
0.585785
0.453866
0.474446
0.496615
0.515914
0.532357
0.546479
0.558725
0.569452
0.578932
0.587063
0.439597
0.464362
0.489064
0.510787
0.528865
0.544348
0.557675
0.569309
0.579582
0.588362
0.423347
0.454593
0.48143
0.505692
0.525193
0.541881
0.556078
0.568419
0.579288
0.588601
0.407093
0.447639
0.47544
0.502385
0.523017
0.540757
0.555608
0.568437
0.579586
0.589224
0.389302
0.440674
0.467327
0.496365
0.517772
0.536337
0.551744
0.565071
0.576577
0.586589
0.518474
0.519496
0.523016
0.527685
0.532505
0.537016
0.541014
0.544399
0.547092
0.549042
0.510892
0.516628
0.523618
0.530827
0.537705
0.543976
0.549514
0.55427
0.558207
0.561344
0.506721
0.513765
0.522654
0.531647
0.540106
0.547766
0.554554
0.560463
0.565497
0.56967
0.499392
0.507459
0.518082
0.52878
0.538806
0.547896
0.55601
0.563172
0.569407
0.574687
0.491008
0.500033
0.512417
0.524887
0.536508
0.547025
0.556427
0.564763
0.572103
0.578364
0.479769
0.490322
0.504682
0.519178
0.532498
0.544488
0.555162
0.564632
0.573023
0.58022
0.467879
0.481078
0.49751
0.514229
0.529211
0.542604
0.554419
0.56485
0.574085
0.581988
0.454465
0.471938
0.490213
0.509268
0.525722
0.540349
0.553085