/*--------------------------------*- C++ -*----------------------------------*\
| =========                 |                                                 |
| \\      /  F ield         | foam-extend: Open Source CFD                    |
|  \\    /   O peration     | Version:     4.0                                |
|   \\  /    A nd           | Web:         http://www.foam-extend.org         |
|    \\/     M anipulation  |                                                 |
\*---------------------------------------------------------------------------*/
FoamFile
{
    version     2.0;
    format      ascii;
    class       volScalarField;
    location    "600";
    object      mut;
}
// * * * * * * * * * * * * * * * * * * * * * * * * * * * * * * * * * * * * * //

dimensions      [1 -1 -1 0 0 0 0];

internalField   nonuniform List<scalar> 
34480
(
0.00191483
0.00191252
0.00191123
0.00191121
0.00191351
0.00192047
0.00193711
0.00196882
0.00201522
0.00212874
0.0181567
0.0166171
0.0139439
0.0100022
0.00588651
0.00310768
0.00191381
0.0017293
0.00203039
0.00237476
0.0522155
0.04733
0.0396903
0.0291484
0.0174823
0.00844064
0.00395501
0.00263834
0.00273417
0.00309061
0.0647972
0.0597456
0.0516235
0.0397543
0.0251993
0.0123922
0.00535501
0.00310642
0.003064
0.00347605
0.0701631
0.0657721
0.0583438
0.0466649
0.030942
0.0156394
0.006522
0.00346885
0.0033373
0.00382573
0.0720058
0.0684093
0.0617988
0.0505564
0.0342793
0.0175076
0.00718426
0.00371505
0.00364375
0.00426656
0.0704743
0.0679076
0.0624679
0.0521285
0.0360064
0.0185907
0.00761408
0.00390486
0.00393175
0.00468949
0.0593248
0.058403
0.0551345
0.0471852
0.033103
0.0171487
0.00707906
0.00374034
0.00400009
0.00493935
0.0190967
0.0197783
0.0202215
0.0190965
0.0145961
0.00804644
0.00362673
0.00222352
0.00285238
0.00404547
0.0017928
0.00178199
0.00177368
0.00176814
0.00176651
0.00176825
0.00177237
0.00178017
0.0017807
0.00174541
0.00192643
0.00192528
0.00192587
0.00192855
0.00193378
0.00194232
0.0019568
0.00198208
0.00202535
0.00210039
0.016864
0.0165398
0.0159369
0.0146071
0.0120723
0.0083226
0.0046692
0.00275636
0.0024761
0.00329844
0.0504532
0.0481766
0.0442619
0.0381943
0.0301758
0.0206268
0.0111487
0.00530004
0.00388061
0.00503644
0.0621913
0.059866
0.0557331
0.0490807
0.0397206
0.0281033
0.0155596
0.00683476
0.00457368
0.00603366
0.0670187
0.0652593
0.0618371
0.055809
0.0463665
0.0338566
0.019248
0.0080728
0.0051259
0.00696199
0.0686385
0.0675665
0.0650295
0.0598896
0.0507805
0.0378747
0.0218695
0.00890822
0.00564989
0.00814359
0.0671657
0.0668991
0.0654937
0.061581
0.0533902
0.0406728
0.023899
0.00956665
0.00613317
0.00934154
0.0563829
0.0571156
0.0573537
0.0557273
0.050081
0.0394019
0.0236278
0.00931287
0.00618244
0.0100657
0.0179189
0.018627
0.0197413
0.0211134
0.0219689
0.0204307
0.013747
0.00539024
0.00396742
0.0075606
0.00179385
0.00178216
0.00177231
0.00176499
0.00176176
0.00176304
0.00176673
0.00177257
0.00180309
0.00191144
0.0019308
0.00193057
0.00193183
0.00193505
0.00194058
0.00194873
0.00196021
0.00197654
0.00200041
0.00203464
0.0149129
0.0148617
0.0148677
0.0146979
0.0139164
0.0121514
0.0095514
0.00698349
0.00536506
0.00483054
0.0468616
0.0457631
0.0436233
0.0400514
0.0348838
0.0279677
0.0198589
0.0125094
0.00826543
0.00713195
0.0574854
0.0564577
0.0542837
0.0503124
0.0442784
0.0358687
0.0252847
0.0150065
0.00926289
0.00823575
0.0616825
0.0611536
0.0596621
0.0563565
0.0505173
0.041697
0.0295284
0.0167408
0.00982534
0.0091964
0.0630908
0.0631236
0.0624518
0.0600866
0.054821
0.0459963
0.0326683
0.0177757
0.0101738
0.010261
0.061843
0.0624656
0.0627508
0.0615905
0.0573728
0.0490521
0.0350736
0.0184098
0.0103817
0.0113423
0.0520384
0.0532021
0.0545811
0.0552461
0.0533442
0.0471669
0.034329
0.0174923
0.00990599
0.0118769
0.0167698
0.0173274
0.0183108
0.01975
0.0214063
0.0220785
0.0186087
0.0100239
0.0060094
0.00839036
0.00178898
0.00177841
0.00176954
0.0017631
0.00176037
0.00176276
0.0017706
0.00178294
0.00181289
0.00191019
0.00192775
0.0019279
0.001929
0.00193136
0.00193518
0.00194061
0.00194785
0.00195736
0.00197024
0.00198867
0.0132619
0.0132565
0.0134238
0.0137089
0.0139101
0.0137458
0.0129991
0.0117032
0.0102284
0.00910796
0.0429762
0.0424889
0.0414231
0.0395213
0.0365595
0.0323333
0.0269812
0.0211582
0.0161203
0.0131638
0.052279
0.0519101
0.0508499
0.0486184
0.0449814
0.0396162
0.0325269
0.0245092
0.0176727
0.0142892
0.05578
0.0558211
0.0553466
0.0536435
0.0502158
0.0446085
0.036499
0.0266656
0.0183508
0.0150509
0.0570082
0.0574682
0.0576617
0.0567562
0.0538653
0.048349
0.0394872
0.0280145
0.0186018
0.0158974
0.0560879
0.0569513
0.0578759
0.0579597
0.0559766
0.050959
0.0416943
0.0287443
0.0184579
0.0166158
0.047558
0.0486785
0.0502615
0.0516547
0.0514942
0.0483032
0.0401775
0.0271935
0.0171198
0.0165268
0.0157807
0.0161834
0.016942
0.0180866
0.0195721
0.0208514
0.0201472
0.0152291
0.0101495
0.011098
0.0017822
0.00177294
0.00176533
0.00176002
0.00175796
0.00176082
0.00177033
0.00178717
0.00181768
0.00189338
0.00191899
0.0019193
0.00192006
0.00192145
0.00192353
0.00192633
0.00192992
0.00193458
0.00194125
0.00195246
0.0121737
0.012147
0.0122726
0.0125767
0.0130207
0.0135201
0.0139389
0.0141173
0.0139314
0.013448
0.039222
0.0391237
0.0388179
0.0381374
0.036869
0.0348036
0.0318907
0.0282902
0.0243947
0.0211062
0.0471725
0.0472013
0.0469105
0.0459906
0.0442074
0.0412905
0.0371723
0.0320719
0.0266182
0.0223995
0.0499918
0.05032
0.050465
0.0499096
0.0482968
0.0452422
0.0405289
0.0343192
0.0275747
0.0229563
0.0510738
0.0516737
0.052295
0.052326
0.0511445
0.0482233
0.0431193
0.0358997
0.0280376
0.0235645
0.0505071
0.0513545
0.0524736
0.0532118
0.0527182
0.0502262
0.0449669
0.0367971
0.0278675
0.0238679
0.0433372
0.0442658
0.0457085
0.0472592
0.0480327
0.0469442
0.0427259
0.0347745
0.0258071
0.0229107
0.0149649
0.0152365
0.0157843
0.0166135
0.0177458
0.0190199
0.0196933
0.0181958
0.014655
0.0142944
0.0017743
0.00176636
0.00176002
0.00175584
0.00175455
0.00175766
0.00176708
0.00178448
0.00181288
0.00186797
0.00190588
0.00190624
0.00190671
0.00190739
0.00190827
0.00190933
0.0019106
0.00191232
0.00191549
0.00192285
0.0116924
0.0116427
0.0116924
0.0118748
0.0121913
0.012642
0.0132181
0.0138911
0.014584
0.0151286
0.0356082
0.0357193
0.0358548
0.0359388
0.0358355
0.0353767
0.0344308
0.0329513
0.0309989
0.0289303
0.0423194
0.0425669
0.0427708
0.0427696
0.0423688
0.0413422
0.0395511
0.0369992
0.0338148
0.0306615
0.0446136
0.0450574
0.0455458
0.0457843
0.0455033
0.0443914
0.0422364
0.0390102
0.0348712
0.0310201
0.0456212
0.0462142
0.0469993
0.0476171
0.0476537
0.0466821
0.0443555
0.0405758
0.0355678
0.031389
0.0453973
0.0461253
0.0472117
0.0482688
0.0487673
0.0481262
0.0457923
0.0415014
0.0355735
0.0313078
0.0395509
0.0402605
0.0414373
0.0428813
0.0441057
0.0444066
0.0429195
0.0390168
0.0330312
0.0294035
0.0143232
0.0144937
0.0148708
0.0154358
0.0162197
0.0172208
0.0182317
0.0185305
0.0172449
0.0166622
0.00176503
0.00175837
0.00175325
0.00175013
0.00174962
0.00175292
0.00176156
0.00177717
0.00180129
0.0018394
0.00188961
0.00188999
0.00189026
0.00189048
0.00189064
0.00189072
0.00189074
0.00189094
0.00189229
0.0018976
0.0116976
0.0116414
0.011646
0.0117365
0.0119142
0.012184
0.0125564
0.0130526
0.0136943
0.0144364
0.0324583
0.0325927
0.0328107
0.033106
0.0334387
0.0337411
0.0339325
0.0339281
0.0336544
0.0331332
0.0379747
0.0382467
0.0385955
0.0389802
0.0393022
0.039433
0.0392468
0.0386589
0.0376285
0.0363155
0.0399095
0.0403141
0.0408583
0.0414255
0.0418679
0.0419934
0.0416168
0.0406302
0.0389778
0.0369986
0.040902
0.0413845
0.0421023
0.0429121
0.0435932
0.0438711
0.0434607
0.0421969
0.0399777
0.0374731
0.0409737
0.0415308
0.0424271
0.0434891
0.0444571
0.0449703
0.0446114
0.0430996
0.0402398
0.0372971
0.0363312
0.0368341
0.0377024
0.0388675
0.040124
0.0411214
0.0413126
0.0401753
0.037319
0.034587
0.013862
0.0139578
0.0142055
0.0145686
0.0150673
0.0157343
0.0165547
0.0173006
0.0173066
0.017214
0.00175413
0.0017487
0.00174469
0.00174249
0.00174263
0.00174599
0.00175364
0.00176671
0.00178576
0.00181131
0.00187103
0.00187142
0.00187156
0.00187151
0.00187127
0.00187082
0.00187019
0.0018696
0.00187001
0.00187419
0.0120191
0.0119685
0.0119552
0.011998
0.0120975
0.0122559
0.0124825
0.0128043
0.0132744
0.0139397
0.0302613
0.0303399
0.0304715
0.0306693
0.0309323
0.0312505
0.0316064
0.0319616
0.0322396
0.0323382
0.0345906
0.0347717
0.0350228
0.0353575
0.0357495
0.0361638
0.036554
0.0368623
0.0370032
0.036914
0.0361725
0.0364503
0.0368476
0.0373393
0.0378796
0.0384036
0.0388273
0.039068
0.0390241
0.0386791
0.0371131
0.0374391
0.0379478
0.0386129
0.0393582
0.0400816
0.0406349
0.0408797
0.0406573
0.0400247
0.0373727
0.0377506
0.0383801
0.0392062
0.040148
0.0410662
0.041735
0.0419333
0.0413989
0.0403835
0.0337428
0.0340723
0.0346508
0.0354648
0.0364538
0.0375193
0.0384219
0.038832
0.038292
0.0372572
0.0135785
0.0136213
0.0137767
0.0139977
0.014293
0.0146868
0.0151983
0.0157702
0.0159764
0.0160819
0.00174139
0.00173709
0.00173405
0.00173261
0.00173318
0.0017364
0.00174294
0.00175342
0.00176767
0.00178453
0.00185067
0.00185106
0.00185114
0.00185095
0.00185049
0.00184975
0.00184878
0.00184777
0.00184764
0.00185109
0.0125207
0.012481
0.0124628
0.0124819
0.0125396
0.0126378
0.0127858
0.0130139
0.0133891
0.0140071
0.0290478
0.0290818
0.0291372
0.0292248
0.0293489
0.0295122
0.0297155
0.0299474
0.030162
0.0302637
0.0323566
0.0324469
0.0325698
0.0327448
0.0329668
0.0332323
0.0335367
0.0338631
0.0341527
0.0342999
0.0335332
0.0336882
0.0339079
0.0341907
0.0345289
0.0349134
0.0353311
0.035763
0.036143
0.0363597
0.0343301
0.0345178
0.0348104
0.0352138
0.0357112
0.0362891
0.0369167
0.0375538
0.0380972
0.0384216
0.034642
0.0348703
0.0352516
0.0357693
0.0364146
0.0371667
0.0379667
0.0387347
0.0393009
0.0395919
0.0317922
0.0319914
0.0323413
0.0328381
0.033467
0.0342303
0.0350816
0.0359121
0.0364291
0.0366506
0.0134659
0.0134722
0.013565
0.0136927
0.0138573
0.0140703
0.0143448
0.0146603
0.0146939
0.0146459
0.00172663
0.00172333
0.00172111
0.00172024
0.00172103
0.00172392
0.00172926
0.00173734
0.00174755
0.00175854
0.0018288
0.0018292
0.00182924
0.00182897
0.0018284
0.00182751
0.00182636
0.00182512
0.00182463
0.00182754
0.01312
0.0130927
0.0130748
0.0130813
0.0131145
0.013177
0.0132794
0.0134549
0.0137794
0.0143782
0.0285116
0.0285253
0.0285451
0.028578
0.0286284
0.0287005
0.028799
0.0289225
0.0290452
0.0290958
0.0310582
0.0310969
0.0311459
0.0312194
0.0313151
0.0314349
0.0315828
0.0317578
0.0319305
0.0320206
0.0318514
0.0319275
0.0320302
0.0321601
0.0323157
0.032498
0.0327121
0.0329649
0.0332318
0.033417
0.0324528
0.0325488
0.0326936
0.0328945
0.0331462
0.0334525
0.0338187
0.0342542
0.0347256
0.0351055
0.0327167
0.0328413
0.0330463
0.033322
0.0336725
0.0341028
0.0346131
0.035207
0.0358254
0.0363599
0.0304289
0.0305395
0.0307338
0.0310048
0.0313441
0.0317659
0.0322799
0.032882
0.0334443
0.0339372
0.0135147
0.0134966
0.0135489
0.013619
0.0137061
0.0138137
0.013948
0.0140956
0.0139932
0.0138282
0.0017097
0.00170727
0.00170571
0.00170524
0.00170608
0.00170848
0.00171263
0.00171856
0.00172558
0.00173255
0.00180552
0.00180591
0.00180594
0.00180563
0.001805
0.00180404
0.00180279
0.00180141
0.00180066
0.00180311
0.0137792
0.0137638
0.0137481
0.0137474
0.0137649
0.0138042
0.0138772
0.01402
0.0143147
0.0149067
0.0283571
0.0283636
0.0283703
0.0283819
0.0284023
0.0284358
0.0284879
0.0285605
0.0286383
0.0286658
0.0303656
0.0303809
0.0303985
0.030427
0.0304655
0.0305161
0.0305837
0.0306719
0.0307672
0.0308158
0.0308592
0.0308937
0.0309375
0.0309907
0.0310528
0.0311253
0.0312152
0.0313342
0.0314789
0.0315857
0.0312742
0.0313193
0.0313841
0.0314731
0.0315828
0.0317161
0.0318815
0.0320972
0.0323641
0.0325948
0.0314496
0.0315114
0.031612
0.0317437
0.0319092
0.0321125
0.0323608
0.0326739
0.0330471
0.0334037
0.0295606
0.0296159
0.0297161
0.0298513
0.030013
0.0302086
0.0304501
0.030753
0.0310709
0.0313962
0.0137158
0.0136817
0.013709
0.0137454
0.0137891
0.0138402
0.0139013
0.0139626
0.0138097
0.0136257
0.0016905
0.0016888
0.00168776
0.00168754
0.00168829
0.00169016
0.00169318
0.0016973
0.00170187
0.00170607
0.00178081
0.0017812
0.00178123
0.0017809
0.00178023
0.00177923
0.00177792
0.00177644
0.00177549
0.00177751
0.0144892
0.0144845
0.014472
0.0144672
0.0144741
0.0144975
0.0145507
0.0146719
0.0149483
0.0155399
0.028398
0.0284025
0.0284049
0.0284089
0.0284178
0.0284353
0.0284668
0.0285155
0.0285714
0.0285887
0.0300209
0.0300269
0.0300329
0.0300439
0.0300598
0.0300824
0.0301161
0.030165
0.0302231
0.0302544
0.0303083
0.0303229
0.0303404
0.0303611
0.0303848
0.0304128
0.0304509
0.0305097
0.0305933
0.0306617
0.0305782
0.0305978
0.0306247
0.0306616
0.0307058
0.0307591
0.0308282
0.0309289
0.0310737
0.0312091
0.0306688
0.030696
0.0307415
0.0307999
0.0308727
0.0309614
0.0310716
0.0312207
0.0314219
0.0316306
0.0290782
0.0291015
0.0291497
0.0292121
0.0292812
0.0293597
0.0294552
0.0295817
0.029726
0.0299025
0.0140625
0.014018
0.0140304
0.0140482
0.014069
0.0140918
0.0141173
0.0141391
0.0139872
0.0138316
0.00166896
0.00166786
0.0016672
0.00166713
0.00166772
0.00166905
0.00167109
0.00167376
0.0016765
0.0016788
0.0017546
0.00175499
0.00175501
0.00175467
0.00175399
0.00175296
0.00175161
0.00175006
0.00174893
0.00175052
0.0152591
0.0152641
0.015255
0.015248
0.015248
0.0152604
0.0152998
0.0154065
0.0156723
0.016268
0.0285334
0.0285376
0.0285389
0.0285403
0.0285445
0.0285549
0.0285761
0.028612
0.0286558
0.0286683
0.0298624
0.029865
0.0298671
0.0298716
0.0298785
0.0298895
0.0299079
0.0299375
0.0299759
0.0299988
0.0300196
0.0300249
0.0300315
0.0300396
0.030049
0.0300609
0.0300793
0.0301124
0.030166
0.0302154
0.0301895
0.0301974
0.0302079
0.0302225
0.0302397
0.0302605
0.0302897
0.030339
0.0304222
0.0305088
0.0302189
0.0302285
0.0302471
0.0302717
0.0303032
0.0303421
0.0303922
0.0304663
0.0305801
0.030711
0.028876
0.0288819
0.0289034
0.02893
0.0289559
0.0289818
0.0290124
0.0290577
0.0291179
0.0292199
0.0145532
0.0145019
0.0145059
0.014514
0.0145234
0.0145328
0.0145423
0.0145476
0.0144209
0.0143075
0.00164506
0.00164441
0.00164404
0.00164404
0.00164445
0.0016453
0.00164654
0.00164807
0.00164951
0.0016505
0.00172679
0.00172718
0.00172719
0.00172684
0.00172615
0.0017251
0.00172373
0.00172212
0.00172083
0.00172198
0.0161102
0.0161238
0.0161183
0.0161106
0.0161061
0.0161109
0.0161408
0.016238
0.0164988
0.017104
0.0287119
0.0287163
0.0287175
0.0287182
0.0287205
0.0287273
0.0287427
0.0287709
0.0288075
0.028818
0.0297981
0.0297996
0.0298006
0.0298025
0.0298056
0.0298112
0.0298216
0.0298402
0.0298665
0.0298843
0.0298778
0.0298792
0.0298815
0.0298848
0.0298892
0.0298954
0.0299059
0.0299266
0.029963
0.0300004
0.0299842
0.0299871
0.0299909
0.0299966
0.0300034
0.0300117
0.0300248
0.0300506
0.030101
0.0301599
0.029979
0.0299803
0.0299867
0.0299968
0.030011
0.0300298
0.0300553
0.030096
0.0301652
0.0302539
0.0288634
0.0288608
0.0288695
0.0288798
0.0288874
0.0288925
0.0288974
0.0289095
0.0289333
0.0290002
0.0151943
0.0151386
0.0151379
0.0151414
0.0151455
0.0151492
0.0151519
0.0151511
0.0150589
0.0149878
0.00161877
0.00161847
0.00161831
0.00161833
0.00161856
0.00161901
0.00161962
0.00162032
0.00162083
0.00162093
0.00169726
0.00169764
0.00169766
0.0016973
0.0016966
0.00169554
0.00169415
0.00169249
0.00169103
0.00169173
0.0170737
0.0170953
0.0170936
0.0170862
0.017079
0.0170787
0.017102
0.0171931
0.0174538
0.0180779
0.0289085
0.0289129
0.0289144
0.028915
0.0289165
0.0289212
0.028933
0.028956
0.028988
0.0289991
0.0297785
0.0297798
0.0297805
0.0297813
0.0297826
0.0297853
0.029791
0.0298026
0.0298208
0.0298351
0.0298145
0.0298143
0.0298149
0.0298165
0.029819
0.029823
0.0298298
0.0298433
0.0298682
0.0298967
0.0298818
0.0298827
0.029884
0.0298863
0.0298892
0.0298929
0.0298992
0.0299134
0.0299446
0.0299856
0.0298631
0.0298611
0.0298623
0.0298665
0.0298739
0.0298846
0.0298997
0.0299243
0.0299684
0.0300306
0.0289698
0.0289634
0.0289664
0.0289698
0.0289708
0.028969
0.0289656
0.0289653
0.0289741
0.0290231
0.016004
0.0159454
0.0159423
0.0159436
0.0159455
0.0159469
0.0159469
0.0159444
0.0158883
0.0158544
0.00159011
0.00159007
0.00159004
0.00159006
0.00159014
0.00159027
0.00159041
0.00159051
0.00159039
0.00158991
0.00166594
0.00166631
0.00166632
0.00166596
0.00166525
0.00166418
0.00166277
0.00166107
0.00165945
0.00165968
0.0181924
0.0182217
0.0182239
0.0182176
0.0182092
0.0182057
0.0182243
0.0183113
0.0185758
0.0192311
0.0291097
0.0291141
0.0291157
0.0291164
0.0291176
0.0291212
0.0291304
0.0291495
0.0291783
0.0291917
0.0297784
0.0297796
0.0297802
0.0297806
0.0297809
0.0297819
0.0297848
0.0297917
0.029804
0.0298157
0.0297905
0.0297899
0.0297899
0.0297908
0.0297926
0.0297953
0.0297999
0.0298087
0.0298253
0.0298464
0.0298336
0.0298337
0.0298342
0.0298353
0.0298367
0.0298386
0.029842
0.0298499
0.0298689
0.0298973
0.0298149
0.0298119
0.0298113
0.0298133
0.0298179
0.0298249
0.0298349
0.0298506
0.0298787
0.0299225
0.0291422
0.0291348
0.0291354
0.0291362
0.0291354
0.0291324
0.0291276
0.029124
0.029127
0.0291654
0.0170173
0.0169568
0.0169526
0.0169531
0.016954
0.0169547
0.0169537
0.0169507
0.0169262
0.0169229
0.00155911
0.00155925
0.00155931
0.00155932
0.00155928
0.00155918
0.00155899
0.00155868
0.00155813
0.00155726
0.00163281
0.00163319
0.00163319
0.00163283
0.00163211
0.00163103
0.0016296
0.00162785
0.00162609
0.0016258
0.0195248
0.0195616
0.019568
0.0195635
0.0195551
0.0195499
0.0195652
0.019649
0.0199196
0.0206231
0.0293068
0.0293109
0.0293126
0.0293134
0.0293145
0.0293173
0.0293244
0.0293401
0.0293661
0.0293828
0.0297851
0.0297862
0.0297868
0.0297869
0.0297868
0.0297868
0.0297879
0.0297916
0.0297996
0.0298089
0.0297848
0.0297841
0.0297841
0.0297847
0.0297859
0.0297878
0.0297907
0.0297961
0.0298066
0.0298216
0.029812
0.029812
0.0298122
0.0298127
0.0298136
0.0298148
0.0298166
0.0298209
0.0298319
0.0298511
0.0297995
0.0297967
0.0297957
0.0297968
0.0297999
0.0298049
0.0298117
0.0298216
0.0298388
0.0298684
0.0293414
0.0293344
0.0293342
0.0293342
0.0293333
0.0293312
0.0293275
0.029324
0.0293249
0.0293565
0.0182945
0.0182333
0.0182288
0.018229
0.0182296
0.0182298
0.0182283
0.0182248
0.0182185
0.0182392
0.00152587
0.00152613
0.00152626
0.00152625
0.00152612
0.00152586
0.00152545
0.00152486
0.00152403
0.00152291
0.00159806
0.00159843
0.00159844
0.00159807
0.00159735
0.00159626
0.00159481
0.00159303
0.00159112
0.0015903
0.0211517
0.0211956
0.0212063
0.0212045
0.0211976
0.0211926
0.0212059
0.0212853
0.0215603
0.0223324
0.0294903
0.0294938
0.0294953
0.0294962
0.0294972
0.0294995
0.0295049
0.0295172
0.0295396
0.0295596
0.0297924
0.0297932
0.0297937
0.0297937
0.0297934
0.0297931
0.0297933
0.0297949
0.0297994
0.0298062
0.0297862
0.0297858
0.0297858
0.0297862
0.029787
0.0297882
0.02979
0.0297931
0.0297991
0.0298088
0.0298026
0.0298025
0.0298027
0.0298031
0.0298036
0.0298043
0.0298053
0.0298074
0.0298133
0.0298252
0.0297957
0.0297936
0.0297928
0.0297935
0.0297957
0.029799
0.0298033
0.0298092
0.0298188
0.029837
0.0295355
0.0295299
0.0295294
0.0295294
0.029529
0.0295279
0.0295257
0.0295235
0.0295234
0.0295499
0.0199373
0.0198771
0.0198729
0.0198729
0.0198733
0.0198732
0.0198712
0.0198668
0.0198578
0.0198829
0.00149062
0.00149096
0.00149112
0.0014911
0.00149091
0.00149055
0.00148999
0.00148923
0.00148822
0.00148695
0.00156183
0.00156221
0.00156221
0.00156186
0.00156114
0.00156007
0.00155863
0.00155685
0.00155484
0.00155348
0.0231739
0.0232232
0.0232388
0.0232415
0.0232393
0.0232383
0.0232524
0.0233249
0.0235913
0.024436
0.0296477
0.0296502
0.0296514
0.0296522
0.0296532
0.029655
0.0296588
0.0296673
0.0296846
0.0297057
0.0297978
0.0297983
0.0297986
0.0297986
0.0297985
0.0297982
0.0297981
0.0297985
0.0298005
0.0298044
0.0297903
0.02979
0.02979
0.0297903
0.0297908
0.0297916
0.0297927
0.0297943
0.0297974
0.0298027
0.029799
0.0297989
0.0297991
0.0297993
0.0297997
0.0298002
0.0298008
0.0298018
0.0298045
0.0298108
0.0297929
0.0297916
0.0297911
0.0297916
0.029793
0.029795
0.0297976
0.0298007
0.0298053
0.0298147
0.0296957
0.0296922
0.0296919
0.029692
0.0296919
0.0296915
0.0296906
0.0296895
0.0296891
0.0297093
0.0221213
0.0220656
0.0220623
0.0220623
0.0220623
0.0220616
0.0220592
0.0220542
0.0220432
0.0220574
0.00145355
0.00145392
0.00145409
0.00145407
0.00145384
0.00145342
0.00145278
0.00145193
0.00145084
0.00144951
0.00152332
0.0015237
0.00152371
0.00152337
0.00152268
0.00152163
0.00152022
0.00151848
0.00151642
0.00151463
0.0259101
0.0259499
0.0259599
0.0259608
0.0259583
0.0259554
0.0259595
0.0259993
0.0261913
0.0270347
0.0297659
0.029767
0.0297677
0.0297682
0.029769
0.0297703
0.0297726
0.0297772
0.0297872
0.0298036
0.0298023
0.0298025
0.0298027
0.0298027
0.0298028
0.0298028
0.0298028
0.029803
0.0298036
0.0298048
0.0297967
0.0297965
0.0297965
0.0297967
0.0297971
0.0297977
0.0297984
0.0297994
0.029801
0.0298035
0.0297999
0.0297998
0.0297998
0.0298001
0.0298004
0.0298009
0.0298015
0.0298022
0.0298036
0.0298065
0.0297915
0.0297907
0.0297904
0.0297908
0.0297916
0.0297929
0.0297945
0.0297963
0.0297985
0.0298024
0.0297997
0.0297982
0.0297982
0.0297984
0.0297986
0.0297986
0.0297986
0.0297988
0.0297999
0.0298131
0.0251813
0.0251388
0.0251368
0.0251367
0.0251366
0.025136
0.025134
0.0251298
0.0251204
0.0251228
0.00141398
0.00141435
0.00141453
0.0014145
0.00141426
0.00141381
0.00141314
0.00141226
0.00141115
0.00140984
0.00238647
0.00245405
0.00242535
0.00230817
0.00228692
0.00228134
0.0022509
0.00220957
0.00283638
0.00283666
0.00279799
0.00271011
0.00315784
0.00316471
0.0031227
0.00301261
0.00346356
0.00347615
0.00343173
0.00331181
0.00379432
0.00379946
0.00374371
0.00362278
0.00406252
0.00406266
0.00400567
0.00389468
0.00418693
0.0041808
0.00412394
0.00402033
0.00369723
0.00367269
0.00360637
0.00350182
0.00255693
0.00261594
0.002653
0.00265618
0.00205274
0.00210363
0.00212291
0.00209908
0.00412577
0.00428879
0.0042396
0.00393607
0.00633716
0.00647207
0.0063456
0.00589133
0.00771122
0.00781926
0.00765645
0.00717983
0.00911986
0.00925874
0.00908072
0.00858187
0.0111814
0.0114678
0.0113382
0.0109111
0.013286
0.0136741
0.0135704
0.0132337
0.0148267
0.0152822
0.0152136
0.0150091
0.0124216
0.012801
0.0127032
0.0124741
0.00237343
0.00240249
0.00240356
0.0023832
0.00194254
0.0019656
0.00197184
0.00195965
0.00477807
0.0049888
0.00507645
0.00521164
0.0070957
0.00734002
0.00738945
0.00752589
0.00835029
0.00858221
0.00862023
0.00873184
0.00958967
0.00983571
0.00988008
0.00997412
0.0112257
0.011619
0.0118105
0.0120455
0.0130601
0.0136009
0.0139054
0.0142472
0.0144452
0.0151056
0.0154932
0.0159209
0.0113314
0.0118784
0.0121724
0.0124356
0.00215314
0.00217778
0.00218673
0.00218358
0.00189042
0.00190173
0.00190417
0.00189638
0.00825332
0.00827559
0.00856522
0.00927189
0.0117887
0.011836
0.0122594
0.013255
0.0129074
0.0130409
0.013552
0.014681
0.01385
0.0140807
0.014665
0.0158866
0.0150623
0.0154274
0.0161413
0.0175358
0.0163067
0.0168107
0.0176383
0.0191312
0.0169483
0.0175847
0.0184925
0.0199792
0.0123545
0.0129138
0.0135959
0.0145337
0.00201818
0.00203369
0.00204422
0.00205182
0.00185564
0.00186314
0.00186406
0.00185766
0.0125858
0.0125942
0.0128704
0.0134792
0.0195442
0.0194986
0.0200243
0.0211531
0.0206567
0.0207434
0.0214484
0.0228182
0.0212595
0.0215074
0.0223571
0.0238712
0.0221585
0.0226229
0.023661
0.0253175
0.0228773
0.0235218
0.0246762
0.0263579
0.0225242
0.0232999
0.0244702
0.026014
0.0147994
0.0154061
0.0161334
0.0168762
0.00194393
0.00195444
0.00196287
0.00197024
0.00182752
0.00183365
0.00183402
0.00182838
0.0141209
0.0141897
0.0143403
0.0145926
0.0277577
0.0276009
0.0279085
0.0286322
0.0292206
0.0291273
0.0295927
0.0305494
0.0294571
0.0294817
0.0300744
0.0311556
0.0298785
0.0300713
0.0308141
0.0320096
0.0299414
0.0302788
0.0311108
0.0323255
0.0283687
0.028812
0.0296339
0.0307114
0.0165947
0.0168974
0.0172808
0.0176158
0.00189002
0.0018967
0.00190293
0.00190932
0.00180335
0.00180879
0.00180897
0.00180377
0.0131674
0.0132759
0.0133604
0.0134432
0.0325468
0.0324327
0.0324919
0.0327135
0.0356117
0.0354859
0.0356192
0.0359794
0.0360795
0.0359745
0.0361757
0.036634
0.0363933
0.036355
0.0366536
0.0372228
0.0360905
0.0361178
0.0364788
0.0370928
0.0334473
0.0335357
0.0338864
0.0344119
0.0171686
0.0172228
0.017275
0.0172532
0.00184887
0.00185309
0.00185756
0.00186277
0.00178073
0.00178574
0.00178583
0.00178092
0.012548
0.0126581
0.0127147
0.0127345
0.0319253
0.0318311
0.0317828
0.0317946
0.0366759
0.0365737
0.0365186
0.0365218
0.0383381
0.0382232
0.0381828
0.0382224
0.0395406
0.0394344
0.0394462
0.0395736
0.0397039
0.0395981
0.0396406
0.0398189
0.0365289
0.036434
0.036457
0.0365777
0.0162214
0.0161806
0.0160868
0.0159121
0.00181484
0.00181745
0.00182061
0.00182475
0.00175832
0.00176299
0.00176303
0.00175839
0.0125289
0.0126339
0.0126737
0.0126614
0.0298643
0.0297772
0.0297243
0.0297203
0.0341619
0.0340717
0.0339811
0.0339112
0.0362195
0.0361165
0.0360036
0.0359046
0.0382835
0.0381918
0.0381003
0.0380324
0.0394029
0.0393088
0.0392291
0.0391843
0.0364572
0.0363548
0.0362507
0.0361601
0.0147745
0.0147198
0.0146161
0.0144516
0.00178463
0.00178619
0.00178838
0.00179159
0.00173542
0.00173978
0.00173979
0.00173543
0.0128057
0.0129005
0.0129278
0.0129007
0.0287235
0.0286515
0.028615
0.0286245
0.0319082
0.0318378
0.0317695
0.0317205
0.033303
0.0332146
0.0331137
0.0330236
0.035013
0.0349274
0.0348243
0.0347306
0.0362975
0.0362157
0.0361114
0.0360124
0.0339353
0.0338522
0.0337303
0.0335935
0.0138994
0.0138464
0.0137612
0.013641
0.00175607
0.00175694
0.00175842
0.00176087
0.00171161
0.00171565
0.00171564
0.00171159
0.0132295
0.0133069
0.0133228
0.0132963
0.0283246
0.0282663
0.0282431
0.0282618
0.0307333
0.0306849
0.0306411
0.0306136
0.0314976
0.0314328
0.0313621
0.0313028
0.0325013
0.0324291
0.0323473
0.0322784
0.0333214
0.0332453
0.0331539
0.0330727
0.0313806
0.0313054
0.0312
0.0310878
0.0136888
0.0136446
0.0135773
0.0134891
0.00172795
0.00172838
0.00172937
0.00173122
0.00168662
0.00169032
0.00169032
0.00168659
0.0137466
0.013795
0.0138053
0.0137917
0.0282749
0.0282263
0.0282116
0.0282356
0.030197
0.0301652
0.030138
0.030123
0.0306026
0.0305594
0.0305133
0.0304763
0.0311347
0.0310818
0.0310247
0.0309797
0.0315491
0.0314882
0.0314203
0.0313652
0.0298761
0.0298146
0.029734
0.0296534
0.0139196
0.0138876
0.013836
0.0137683
0.00169962
0.00169977
0.00170041
0.0017018
0.00166023
0.00166362
0.00166361
0.0016602
0.0143458
0.0143729
0.0143794
0.0143714
0.0283796
0.0283378
0.0283287
0.0283551
0.029959
0.0299381
0.0299215
0.0299137
0.0301786
0.0301509
0.0301218
0.0300991
0.0304573
0.0304213
0.0303837
0.0303551
0.0306488
0.0306053
0.0305588
0.0305234
0.0292061
0.0291617
0.0291044
0.0290483
0.0144339
0.0144147
0.0143763
0.0143224
0.00167063
0.00167061
0.00167102
0.00167205
0.00163229
0.00163537
0.00163536
0.00163227
0.0150328
0.015054
0.0150589
0.0150519
0.0285544
0.0285183
0.0285127
0.0285395
0.0298564
0.0298427
0.0298325
0.0298289
0.0299785
0.0299611
0.0299431
0.0299296
0.0301265
0.0301031
0.0300791
0.0300616
0.0302119
0.0301826
0.0301525
0.0301307
0.0290035
0.028974
0.0289354
0.0288972
0.015157
0.0151499
0.0151224
0.0150776
0.00164064
0.00164053
0.00164078
0.00164154
0.00160268
0.00160541
0.00160541
0.00160266
0.0158481
0.0158678
0.0158714
0.015862
0.0287623
0.0287313
0.028728
0.0287535
0.0298155
0.0298064
0.0298003
0.029799
0.0298841
0.0298733
0.0298626
0.0298549
0.0299649
0.02995
0.0299352
0.0299249
0.0300042
0.0299854
0.0299666
0.0299539
0.0290394
0.0290213
0.0289964
0.028971
0.0160671
0.0160709
0.0160521
0.0160132
0.00160936
0.00160921
0.00160936
0.00160991
0.00157127
0.00157365
0.00157364
0.00157126
0.0168302
0.0168551
0.0168575
0.0168395
0.028985
0.0289593
0.0289575
0.02898
0.0298023
0.0297963
0.0297927
0.0297924
0.0298394
0.0298329
0.0298266
0.0298226
0.0298849
0.0298756
0.0298668
0.0298612
0.0299067
0.029895
0.0298838
0.029877
0.0291895
0.0291792
0.0291639
0.0291474
0.017177
0.0171898
0.0171779
0.0171431
0.00157657
0.00157642
0.00157651
0.0015769
0.00153806
0.00154004
0.00154004
0.00153805
0.0180376
0.018081
0.0180824
0.0180431
0.0292108
0.0291911
0.0291901
0.0292082
0.0298004
0.0297965
0.0297944
0.0297945
0.0298178
0.0298138
0.0298103
0.0298084
0.0298438
0.0298381
0.029833
0.0298301
0.0298592
0.0298522
0.0298459
0.0298426
0.0293839
0.0293789
0.0293698
0.0293591
0.0185267
0.018545
0.0185384
0.0185084
0.00154218
0.00154205
0.0015421
0.00154236
0.00150321
0.00150476
0.00150476
0.00150321
0.0195658
0.0196543
0.0196549
0.0195684
0.0294279
0.0294152
0.0294148
0.0294267
0.0298014
0.0297991
0.0297979
0.0297981
0.0298067
0.0298042
0.0298023
0.0298016
0.0298209
0.0298173
0.0298145
0.0298132
0.0298318
0.0298276
0.0298242
0.0298228
0.0295773
0.0295756
0.0295704
0.0295628
0.0201786
0.0201928
0.0201902
0.0201722
0.00150625
0.00150615
0.00150617
0.00150635
0.00146705
0.00146812
0.00146812
0.00146704
0.021588
0.0217741
0.0217741
0.0215884
0.0296199
0.0296151
0.029615
0.0296195
0.0298019
0.0298006
0.0297999
0.0298001
0.0298011
0.0297995
0.0297985
0.0297985
0.0298079
0.0298056
0.029804
0.0298036
0.0298114
0.029809
0.0298073
0.0298069
0.0297335
0.0297339
0.0297305
0.0297245
0.0223371
0.0223461
0.0223449
0.0223344
0.00146893
0.00146887
0.00146888
0.00146898
0.00142894
0.00142954
0.00142954
0.00142894
0.0245177
0.0248569
0.0248569
0.0245177
0.0297667
0.0297681
0.029768
0.0297666
0.0298033
0.0298024
0.0298021
0.0298024
0.0298021
0.029801
0.0298005
0.0298009
0.0298043
0.0298028
0.0298019
0.029802
0.0297999
0.0297986
0.0297978
0.029798
0.0298252
0.0298247
0.0298224
0.0298189
0.0253376
0.0253369
0.0253367
0.0253374
0.00142947
0.00142947
0.00142948
0.00142951
0.00220801
0.00209384
0.00203124
0.00199589
0.00197531
0.00196011
0.00194711
0.00193597
0.00192685
0.00191956
0.00281988
0.00261095
0.0041591
0.00883199
0.0137339
0.0175019
0.0196021
0.0202312
0.019947
0.019192
0.00412378
0.00538776
0.0119018
0.0216063
0.0326751
0.0422726
0.0493379
0.0536548
0.0554129
0.0548705
0.00593917
0.00936848
0.0182363
0.0307421
0.0437943
0.054401
0.0619184
0.0663823
0.0681053
0.0675149
0.00995494
0.0127593
0.0236213
0.0372777
0.0505652
0.0610013
0.0680674
0.0719759
0.0732078
0.0725342
0.0139132
0.0166736
0.0276401
0.0415037
0.0546163
0.0646336
0.0710085
0.0741517
0.074759
0.0739656
0.0170548
0.0193559
0.0292478
0.0431683
0.0559259
0.0652739
0.070643
0.072817
0.0727104
0.0718525
0.0186461
0.019725