/*--------------------------------*- C++ -*----------------------------------*\
| =========                 |                                                 |
| \\      /  F ield         | foam-extend: Open Source CFD                    |
|  \\    /   O peration     | Version:     4.0                                |
|   \\  /    A nd           | Web:         http://www.foam-extend.org         |
|    \\/     M anipulation  |                                                 |
\*---------------------------------------------------------------------------*/
FoamFile
{
    version     2.0;
    format      ascii;
    class       volScalarField;
    location    "600";
    object      p;
}
// * * * * * * * * * * * * * * * * * * * * * * * * * * * * * * * * * * * * * //

dimensions      [1 -1 -2 0 0 0 0];

internalField   nonuniform List<scalar> 
34480
(
109439
109145
108915
108770
108746
108891
109302
109986
110569
113406
108816
108383
107996
107671
107441
107358
107529
108035
108288
110314
108511
107955
107431
106938
106496
106162
106050
106286
106131
107132
108375
107679
107009
106348
105704
105127
104738
104683
104098
104055
108311
107497
106714
105920
105115
104334
103702
103362
102352
101340
108366
107469
106604
105716
104794
103860
103034
102439
101028
99194
108299
107345
106435
105495
104511
103485
102524
101705
99903.5
97281.9
108390
107420
106498
105552
104562
103517
102497
101510
99328.5
95867.8
108190
107223
106310
105395
104464
103481
102474
101369
98810.2
94518.6
108310
107331
106401
105487
104600
103719
102837
101811
99037.8
93839.6
111207
111043
110976
111033
111256
111696
112444
113617
115405
118307
110230
109940
109733
109633
109690
109977
110618
111785
113717
117334
109677
109265
108927
108671
108538
108613
109045
110072
111961
116013
109354
108805
108322
107907
107586
107442
107639
108467
110227
114532
109163
108495
107892
107343
106865
106527
106499
107102
108672
113067
109120
108362
107667
107017
106415
105920
105697
106071
107406
111728
108987
108163
107409
106692
106010
105404
105026
105179
106244
110352
109031
108176
107391
106643
105926
105263
104780
104739
105496
109261
108831
107962
107160
106405
105694
105035
104514
104325
104747
108197
108906
108030
107211
106442
105735
105112
104635
104446
104627
107897
112533
112455
112480
112628
112923
113392
114069
114986
116187
117697
111423
111243
111162
111207
111416
111839
112547
113624
115170
117329
110712
110424
110231
110151
110229
110533
111167
112278
114043
116791
110249
109835
109513
109294
109224
109379
109889
110959
112854
116125
109950
109422
108985
108644
108436
108444
108812
109793
111743
115433
109817
109197
108667
108228
107906
107783
108013
108879
110827
114832
109620
108930
108334
107821
107416
107191
107299
108033
109918
114109
109621
108889
108249
107692
107235
106938
106948
107546
109304
113554
109427
108670
108000
107413
106927
106597
106548
107033
108603
112911
109478
108712
108021
107414
106910
106570
106510
106964
108349
112756
113385
113348
113393
113530
113769
114118
114581
115156
115826
116536
112333
112221
112201
112292
112517
112900
113469
114246
115237
116364
111586
111384
111276
111282
111436
111782
112380
113295
114579
116171
111057
110746
110531
110430
110484
110754
111328
112320
113855
115929
110696
110278
109962
109758
109707
109884
110400
111419
113152
115682
110503
109997
109592
109298
109153
109237
109681
110691
112574
115512
110263
109684
109212
108847
108625
108628
108997
109969
111944
115222
110228
109602
109081
108666
108389
108326
108625
109534
111536
115075
110024
109370
108816
108367
108053
107948
108194
109037
110990
114782
110049
109386
108810
108341
108005
107881
108099
108902
110758
114797
113887
113870
113909
114010
114174
114400
114683
115012
115368
115719
112990
112923
112929
113022
113211
113504
113903
114404
114986
115580
112289
112150
112096
112140
112305
112612
113086
113743
114575
115484
111750
111520
111383
111355
111466
111755
112269
113054
114138
115409
111361
111038
110816
110709
110751
110999
111520
112398
113715
115362
111132
110726
110426
110243
110217
110412
110920
111863
113391
115412
110864
110387
110022
109776
109688
109829
110312
111289
112990
115361
110803
110278
109863
109568
109430
109523
109970
110952
112774
115456
110594
110038
109591
109261
109087
109144
109558
110525
112397
115385
110601
110034
109565
109215
109019
109055
109445
110391
112241
115510
114146
114137
114163
114227
114328
114461
114623
114802
114988
115164
113437
113395
113408
113482
113620
113822
114083
114390
114724
115042
112831
112736
112711
112764
112907
113147
113491
113931
114447
114968
112323
112157
112072
112082
112206
112464
112876
113450
114173
114949
111940
111694
111543
111497
111584
111838
112295
112986
113922
114981
111698
111378
111160
111057
111100
111337
111822
112612
113759
115120
111417
111031
110756
110600
110599
110810
111307
112173
113514
115179
111342
110908
110586
110387
110347
110530
111023
111939
113439
115394
111129
110664
110311
110080
110010
110168
110653
111595
113199
115437
111125
110648
110273
110024
109934
110075
110545
111491
113125
115612
114254
114248
114264
114301
114358
114433
114522
114617
114714
114804
113721
113696
113707
113759
113851
113980
114142
114326
114517
114692
113231
113168
113157
113204
113315
113489
113725
114011
114328
114632
112782
112664
112612
112638
112750
112959
113268
113670
114143
114621
112428
112245
112144
112134
112233
112461
112831
113346
113991
114675
112192
111946
111791
111741
111818
112053
112472
113095
113922
114836
111912
111606
111404
111312
111363
111595
112050
112766
113772
114929
111834
111484
111239
111113
111137
111358
111834
112623
113789
115187
111621
111240
110967
110814
110816
111025
111511
112351
113640
115275
111612
111218
110926
110756
110742
110940
111423
112284
113629
115462
114278
114274
114282
114302
114333
114373
114421
114471
114521
114567
113891
113875
113882
113915
113973
114052
114149
114256
114365
114463
113518
113475
113470
113507
113586
113706
113862
114044
114238
114419
113138
113055
113024
113052
113143
113301
113522
113797
114104
114403
112829
112695
112628
112636
112729
112916
113200
113572
114011
114455
112614
112428
112320
112302
112388
112596
112937
113409
113994
114607
112346
112108
111962
111915
111989
112210
112598
113163
113898
114696
112274
111997
111815
111741
111801
112025
112448
113092
113968
114955
112064
111757
111552
111457
111502
111725
112169
112874
113868
115041
112056
111737
111514
111405
111439
111657
112108
112843
113899
115220
114261
114258
114262
114272
114289
114310
114334
114361
114387
114411
113984
113974
113978
113998
114032
114079
114135
114197
114259
114314
113717
113688
113686
113711
113764
113843
113943
114057
114176
114285
113406
113349
113330
113354
113423
113536
113689
113873
114071
114260
113150
113054
113010
113024
113102
113247
113455
113718
114014
114304
112964
112827
112753
112752
112833
113005
113268
113615
114023
114435
112716
112536
112433
112413
112492
112684
112998
113428
113955
114505
112658
112444
112312
112274
112348
112553
112907
113412
114055
114746
112454
112213
112062
112008
112074
112286
112667
113231
113974
114804
112453
112199
112033
111969
112028
112241
112634
113231
114031
114968
114230
114228
114229
114234
114243
114253
114266
114280
114294
114306
114031
114025
114027
114038
114058
114084
114116
114151
114186
114217
113851
113833
113831
113847
113881
113931
113994
114064
114136
114202
113604
113565
113553
113571
113620
113698
113800
113920
114048
114168
113401
113333
113305
113319
113380
113486
113634
113814
114012
114202
113248
113149
113099
113106
113175
113309
113505
113753
114034
114311
113025
112891
112820
112816
112889
113046
113288
113606
113978
114355
112988
112826
112732
112716
112790
112965
113247
113630
114093
114572
112790
112605
112496
112469
112542
112727
113038
113472
114014
114593
112799
112603
112482
112448
112517
112707
113032
113498
114088
114743
114198
114196
114197
114199
114203
114209
114216
114222
114230
114236
114051
114047
114048
114054
114065
114080
114099
114118
114138
114155
113942
113930
113929
113939
113960
113990
114029
114071
114115
114154
113745
113720
113712
113725
113758
113809
113876
113954
114034
114110
113593
113546
113528
113540
113584
113659
113761
113883
114013
114136
113474
113404
113371
113380
113434
113534
113675
113848
114038
114223
113277
113180
113131
113135
113196
113318
113499
113727
113986
114242
113264
113144
113079
113076
113142
113283
113499
113780
114106
114435
113074
112934
112858
112848
112916
113069
113311
113636
114022
114421
113096
112948
112862
112848
112915
113075
113331
113683
114106
114559
114172
114171
114172
114172
114175
114177
114181
114184
114188
114191
114058
114056
114056
114059
114065
114074
114084
114095
114106
114116
114004
113996
113995
114001
114014
114032
114055
114081
114107
114130
113845
113829
113824
113832
113854
113887
113930
113979
114029
114077
113738
113706
113694
113704
113735
113786
113854
113934
114019
114099
113650
113601
113579
113588
113629
113700
113798
113916
114044
114165
113478
113409
113376
113383
113432
113522
113652
113812
113988
114161
113491
113405
113361
113364
113419
113527
113686
113887
114113
114335
113307
113205
113152
113151
113210
113330
113512
113747
114017
114288
113346
113237
113177
113174
113234
113361
113556
113813
114110
114418
114156
114155
114155
114156
114157
114158
114160
114161
114164
114165
114059
114057
114057
114059
114062
114067
114073
114079
114085
114091
114049
114044
114043
114047
114054
114065
114078
114094
114109
114123
113916
113905
113902
113907
113921
113942
113969
113999
114031
114060
113847
113826
113818
113825
113846
113880
113924
113976
114031
114081
113784
113751
113737
113745
113774
113823
113890
113968
114052
114131
113636
113588
113566
113573
113609
113675
113765
113874
113992
114107
113675
113615
113586
113592
113634
113714
113827
113967
114120
114268
113495
113421
113386
113389
113436
113527
113659
113824
114009
114191
113554
113475
113435
113437
113486
113583
113726
113907
114112
114318
114150
114149
114150
114150
114150
114151
114152
114152
114154
114154
114057
114056
114057
114058
114059
114062
114065
114069
114072
114076
114085
114082
114081
114083
114087
114093
114101
114110
114119
114127
113966
113959
113957
113960
113969
113981
113998
114017
114036
114054
113928
113915
113910
113915
113928
113950
113979
114012
114046
114078
113886
113864
113856
113861
113881
113914
113958
114010
114064
114115
113758
113725
113711
113717
113743
113788
113849
113922
114000
114075
113824
113783
113764
113769
113801
113858
113936
114030
114132
114229
113641
113590
113567
113571
113607
113673
113765
113879
114003
114123
113724
113669
113642
113647
113684
113755
113856
113981
114118
114255
114155
114154
114154
114154
114154
114154
114155
114155
114156
114155
114055
114055
114055
114055
114056
114058
114060
114062
114064
114066
114117
114115
114114
114115
114118
114121
114126
114131
114136
114141
114002
113997
113996
113998
114003
114011
114021
114032
114044
114055
113991
113982
113979
113982
113991
114004
114022
114043
114064
114084
113963
113949
113943
113947
113960
113982
114010
114043
114077
114109
113851
113830
113821
113825
113843
113873
113914
113961
114011
114059
113942
113915
113903
113908
113931
113969
114022
114084
114151
114212
113753
113718
113703
113707
113733
113778
113841
113917
113999
114077
113863
113827
113809
113814
113842
113891
113960
114044
114134
114222
114173
114172
114172
114172
114172
114172
114172
114172
114173
114171
114052
114052
114052
114052
114053
114054
114055
114056
114058
114059
114148
114147
114146
114147
114148
114150
114153
114156
114159
114162
114029
114026
114025
114026
114029
114034
114039
114046
114053
114060
114037
114032
114030
114032
114038
114046
114057
114070
114083
114095
114019
114010
114006
114009
114017
114031
114049
114070
114091
114111
113923
113909
113904
113907
113918
113938
113964
113994
114025
114056
114037
114019
114012
114016
114031
114057
114092
114132
114174
114212
113833
113810
113800
113804
113822
113852
113894
113943
113995
114046
113982
113958
113948
113952
113971
114005
114050
114105
114162
114218
114214
114213
114213
114213
114213
114212
114212
114211
114212
114210
114045
114045
114046
114046
114046
114047
114047
114048
114049
114050
114179
114178
114178
114178
114179
114181
114182
114184
114186
114188
114051
114049
114048
114049
114050
114053
114056
114060
114064
114067
114072
114069
114068
114069
114072
114078
114085
114092
114100
114108
114057
114051
114049
114051
114057
114065
114077
114089
114103
114115
113977
113968
113965
113967
113975
113987
114003
114022
114041
114060
114107
114096
114092
114095
114105
114122
114145
114170
114197
114219
113884
113869
113863
113866
113877
113897
113924
113956
113988
114022
114096
114081
114074
114078
114091
114113
114143
114178
114213
114248
114302
114301
114301
114300
114300
114300
114299
114299
114299
114296
114028
114028
114029
114029
114029
114029
114029
114029
114029
114029
114204
114204
114204
114205
114205
114207
114208
114210
114212
114213
114070
114069
114068
114068
114069
114071
114072
114074
114076
114078
114096
114094
114094
114095
114097
114100
114105
114110
114115
114120
114081
114078
114077
114078
114081
114087
114094
114102
114111
114119
114016
114011
114009
114011
114015
114023
114033
114045
114056
114068
114145
114138
114136
114138
114145
114156
114171
114188
114207
114220
113899
113890
113886
113888
113896
113909
113926
113946
113966
113989
114230
114220
114217
114219
114228
114243
114262
114285
114307
114329
114460
114460
114460
114461
114462
114463
114464
114466
114468
114465
113985
113984
113984
113984
113983
113983
113982
113981
113980
113979
114212
114212
114212
114213
114214
114216
114218
114220
114222
114225
114092
114091
114090
114091
114091
114092
114093
114094
114095
114096
114114
114113
114112
114113
114115
114117
114121
114124
114128
114132
114097
114094
114094
114095
114097
114101
114107
114113
114119
114125
114045
114042
114041
114042
114045
114051
114058
114066
114073
114081
114137
114131
114130
114131
114136
114145
114156
114168
114183
114194
113868
113862
113860
113861
113867
113876
113887
113900
113913
113928
114412
114405
114402
114403
114410
114420
114434
114450
114466
114483
114645
114646
114647
114649
114652
114656
114661
114667
114674
114681
113923
113922
113921
113921
113920
113918
113916
113913
113909
113902
114205
114205
114205
114206
114207
114209
114212
114214
114218
114223
114121
114120
114120
114120
114121
114121
114123
114124
114125
114127
114133
114132
114132
114132
114134
114136
114139
114143
114147
114152
114114
114113
114112
114113
114115
114119
114123
114129
114135
114141
114073
114070
114069
114070
114073
114078
114084
114091
114098
114105
114101
114096
114095
114096
114101
114107
114117
114128
114142
114157
113810
113805
113803
113804
113809
113816
113826
113836
113845
113852
114604
114596
114593
114594
114599
114608
114620
114634
114649
114668
129135
132599
132645
130705
129933
133827
133810
132047
130512
134630
135165
133644
130758
135068
136344
135061
131048
135529
137458
136365
131887
136626
139266
138873
132602
137474
140567
140761
133288
138193
141579
142260
132907
137733
141303
142424
131491
136112
139817
141467
121707
123250
123628
122805
122178
123975
124514
123806
122553
124576
125282
124820
122932
125150
126097
125916
123432
125805
126990
127037
124004
126430
127713
127838
124486
126931
128281
128547
125075
127498
128877
129340
125126
127488
128926
129609
124877
127196
128790
129720
119048
119725
119910
119651
119343
120177
120460
120276
119643
120645
121060
120967
119976
121151
121728
121750
120416
121747
122474
122607
121057
122524
123373
123618
121621
123195
124143
124501
122307
123950
124968
125448
122615
124267
125331
125932
122850
124452
125527
126217
117079
117393
117509
117433
117201
117605
117793
117773
117407
117916
118190
118237
117670
118292
118666
118801
118029
118759
119226
119448
118549
119377
119928
120245
119016
119931
120560
120977
119641
120627
121324
121847
119961
120981
121731
122353
120221
121246
122033
122727
115971
116124
116190
116173
115979
116188
116303
116328
116096
116374
116547
116619
116296
116649
116889
117024
116589
117019
117324
117524
117045
117551
117921
118190
117460
118037
118469
118811
118047
118686
119174
119594
118381
119056
119586
120075
118693
119376
119933
120468
115288
115365
115404
115403
115244
115356
115426
115456
115293
115451
115561
115624
115432
115642
115799
115908
115667
115929
116134
116292
116048
116364
116617
116827
116391
116760
117059
117323
116913
117329
117671
117990
117219
117666
118040
118405
117527
117987
118382
118777
114867
114908
114930
114933
114801
114864
114907
114930
114816
114909
114978
115025
114903
115031
115133
115212
115084
115249
115386
115499
115398
115602
115773
115924
115672
115914
116119
116308
116125
116402
116639
116866
116384
116683
116944
117200
116665
116975
117251
117526
114601
114622
114635
114639
114523
114559
114585
114601
114528
114584
114628
114660
114574
114654
114720
114774
114709
114815
114906
114984
114960
115093
115209
115313
115167
115326
115467
115599
115552
115736
115899
116057
115751
115952
116132
116309
115997
116207
116397
116585
114429
114440
114447
114450
114347
114368
114383
114394
114351
114386
114413
114434
114367
114417
114460
114496
114466
114535
114595
114648
114664
114751
114829
114901
114811
114918
115013
115104
115135
115258
115370
115478
115269
115405
115529
115649
115480
115622
115752
115880
114316
114322
114326
114328
114236
114247
114257
114264
114243
114264
114281
114294
114234
114267
114294
114318
114307
114352
114392
114427
114461
114519
114571
114620
114558
114629
114694
114756
114829
114913
114989
115062
114903
114995
115080
115161
115084
115180
115269
115355
114241
114245
114247
114248
114165
114171
114177
114182
114179
114192
114203
114211
114152
114172
114190
114206
114205
114234
114260
114284
114322
114360
114396
114428
114377
114425
114469
114510
114607
114663
114715
114765
114629
114691
114749
114804
114786
114851
114912
114970
114194
114196
114198
114198
114120
114124
114127
114130
114146
114154
114161
114166
114103
114116
114127
114137
114143
114162
114179
114194
114230
114256
114279
114301
114250
114282
114312
114340
114449
114487
114522
114556
114428
114470
114509
114546
114569
114613
114654
114693
114167
114168
114169
114169
114092
114094
114096
114098
114133
114138
114142
114145
114076
114084
114091
114098
114110
114122
114133
114143
114174
114190
114205
114220
114166
114187
114206
114225
114344
114369
114392
114414
114285
114313
114339
114364
114418
114448
114475
114501
114155
114156
114156
114156
114075
114075
114077
114078
114134
114137
114139
114141
114064
114069
114073
114077
114096
114104
114111
114117
114142
114152
114162
114171
114113
114126
114139
114151
114278
114295
114310
114325
114186
114205
114222
114238
114320
114339
114357
114374
114157
114157
114157
114157
114064
114064
114064
114066
114145
114147
114149
114150
114060
114063
114066
114068
114095
114100
114105
114109
114127
114134
114140
114146
114083
114092
114100
114108
114244
114255
114265
114274
114119
114131
114143
114153
114264
114276
114288
114299
114172
114172
114172
114173
114055
114055
114055
114057
114165
114167
114167
114168
114062
114064
114066
114067
114102
114105
114108
114110
114122
114126
114130
114134
114070
114076
114081
114086
114232
114239
114245
114251
114074
114082
114089
114096
114244
114252
114259
114267
114211
114210
114210
114211
114045
114044
114045
114046
114191
114192
114192
114192
114068
114069
114070
114071
114112
114114
114116
114117
114122
114125
114127
114129
114068
114071
114074
114077
114233
114238
114241
114245
114040
114045
114049
114053
114263
114268
114273
114277
114297
114296
114296
114297
114024
114023
114023
114025
114216
114217
114217
114217
114078
114078
114079
114080
114123
114124
114125
114126
114124
114126
114127
114128
114071
114073
114075
114078
114231
114234
114237
114239
114001
114004
114007
114010
114337
114340
114343
114346
114471
114468
114468
114471
113972
113970
113971
113973
114229
114230
114231
114230
114095
114095
114096
114096
114135
114136
114136
114137
114129
114130
114131
114132
114082
114083
114084
114086
114208
114211
114213
114213
113934
113936
113938
113940
114489
114491
114493
114495
114702
114700
114700
114702
113890
113885
113885
113890
114228
114230
114230
114228
114126
114126
114127
114127
114155
114156
114157
114157
114146
114147
114148
114148
114107
114108
114109
114110
114176
114180
114182
114180
113840
113839
113840
113845
114677
114679
114681
114682
121075
117746
115664
114036
112870
111991
111289
110708
110219
109798
122374
118605
116030
114251
112951
111959
111147
110458
109858
109311
123443
119354
116364
114553
113160
112072
111164
110382
109693
109082
124735
120304
117090
115171
113646
112443
111421
110530
109732
109042
126101
121270
117876
115771
114112
112788
111663
110679
109786
109048
127701
122353
118769
116448
114661
113220
112002
110936
109966
109169
129198
123131
119445
116883
114992
113439
112141
111005
109972
109145
130797
123903
120214
117404
115438
113786
112425
111229
110155
109275
131821
124157
120534
117529
115523
113788
112374
111128
110033
109109
132871
124634
121104
117932
115853
114029
112547
111240
110109
109144
120499
118258
116644
115379
114358
113524
112840
112280
111828
111471
121188
118649
116721
115213
114023
113071
112290
111639
111094
110622
121910
119115
116871
115244
113951
112914
112053
111324
110698
110153
122696
119803
117357
115615
114215
113081
112122
111293
110562
109930
123497
120610
117952
116065
114548
113308
112252
111332
110507
109814
124653
121562
118712
116647
115008
113658
112510
111509
110603
109843
125838
122304
119317
117043
115294
113837
112607
111534
110561
109760
127277
123067
120037
117540
115710
114158
112862
111728
110709
109853
128337
123346
120359
117686
115808
114175
112824
111638
110592
109693
129507
123703
120842
118020
116080
114374
112971
111739
110669
109742
118868
117764
116733
115819
115030
114360
113801
113343
112981
112710
119401
118016
116690
115542
114579
113779
113111
112554
112097
111715
119991
118377
116788
115477
114389
113488
112732
112092
111552
111091
120686
118941
117163
115726
114527
113523
112666
111925
111282
110728
121461
119625
117671
116093
114774
113661
112704
111870
111130
110507
122515
120492
118365
116615
115167
113942
112890
111970
111147
110450
123587
121217
118941
116987
115418
114082
112942
111948
111052
110307
124916
122005
119645
117476
115811
114378
113168
112110
111163
110360
125915
122361
120006
117664
115938
114421
113149
112036
111054
110209
126954
122741
120463
117976
116189
114604
113287
112133
111129
110258
117160
116673
116141
115611
115114
114666
114276
113950
113691
113501
117498
116861
116125
115404
114741
114150
113637
113199
112840
112546
117968
117191
116259
115368
114562
113853
113238
112709
112262
111884
118582
117705
116619
115588
114655
113832
113108
112474
111924
111452
119302
118331
117100
115924
114864
113925
113097
112366
111717
111169
120264
119135
117757
116414
115221
114166
113238
112416
111682
111055
121229
119832
118313
116778
115456
114287
113265
112364
111553
110872
122426
120624
119003
117265
115836
114565
113466
112498
111632
110891
123334
121043
119385
117472
115962
114601
113436
112412
111508
110727
124254
121456
119809
117753
116182
114759
113555
112495
111570
110765
116068
115848
115579
115287
114994
114718
114469
114255
114085
113960
116250
115961
115568
115138
114709
114304
113938
113619
113355
113141
116578
116215
115694
115125
114567
114046
113576
113163
112812
112515
117067
116651
116020
115324
114642
114005
113424
112906
112454
112065
117674
117202
116464
115637
114829
114076
113388
112770
112220
111753
118489
117924
117071
116096
115160
114289
113499
112787
112149
111602
119299
118564
117594
116449
115383
114397
113509
112714
111998
111392
120327
119323
118255
116930
115752
114662
113693
112828
112053
111387
121108
119762
118638
117148
115876
114693
113655
112735
111919
111214
121884
120175
119029
117409
116076
114836
113761
112808
111971
111243
115362
115262
115128
114974
114812
114652
114503
114373
114268
114191
115444
115314
115108
114861
114597
114335
114090
113871
113688
113539
115650
115489
115208
114862
114495
114132
113791
113485
113220
112997
116010
115832
115480
115033
114558
114087
113642
113235
112877
112568
116489
116295
115869
115315
114727
114146
113597
113092
112641
112256
117152
116919
116411
115736
115030
114338
113688
113091
112553
112088
117801
117479
116880
116065
115238
114435
113687
113006
112388
111864
118655
118176
117496
116531
115594
114689
113859
113106
112429
111844
119285
118593
117853
116741
115708
114712
113814
113007
112287
111666
119907
118980
118208
116986
115896
114847
113912
113074
112332
111687
114917
114871
114805
114725
114637
114548
114464
114389
114327
114281
114935
114875
114767
114628
114470
114308
114151
114009
113889
113789
115059
114992
114842
114636
114402
114158
113921
113702
113512
113350
115305
115240
115048
114770
114449
114113
113785
113477
113205
112967
115667
115608
115370
115011
114596
114164
113740
113342
112983
112676
116189
116127
115835
115383
114869
114336
113818
113332
112891
112509
116687
116592
116236
115676
115055
114420
113809
113241
112724
112283
117380
117209
116791
116113
115391
114662
113971
113333
112756
112256
117862
117574
117100
116300
115488
114676
113920
113231
112611
112076
118347
117923
117418
116531
115666
114805
114014
113295
112653
112094
114632
114611
114578
114538
114492
114444
114397
114355
114320
114294
114610
114582
114526
114448
114357
114260
114164
114075
114000
113935
114688
114661
114581
114460
114313
114154
113995
113845
113713
113600
114845
114829
114725
114554
114342
114110
113875
113651
113450
113274
115109
115110
114979
114751
114465
114152
113835
113532
113255
113018
115510
115525
115363
115068
114702
114304
113903
113519
113169
112863
115879
115892
115690
115314
114859
114372
113887
113427
113005
112645
116433
116421
116175
115711
115171
114599
114041
113516
113037
112621
116782
116714
116421
115863
115245
114602
113984
113410
112890
112441
117157
117021
116703
116079
115415
114728
114077
113474
112932
112459
114447
114438
114422
114402
114378
114353
114328
114305
114285
114270
114402
114390
114361
114318
114267
114210
114154
114100
114054
114013
114454
114445
114401
114330
114240
114139
114036
113937
113848
113772
114547
114548
114492
114388
114250
114094
113931
113774
113631
113504
114737
114757
114686
114542
114348
114128
113898
113673
113467
113290
115041
115082
114994
114803
114548
114257
113956
113663
113393
113156
115302
115357
115245
114997
114671
114306
113932
113572
113237
112951
115744
115799
115659
115348
114954
114519
114080
113660
113274
112936
115977
116012
115839
115460
115003
114508
114016
113552
113126
112759
116271
116278
116086
115659
115163
114630
114109
113618
113171
112782
114327
114323
114315
114305
114293
114279
114266
114254
114243
114235
114270
114265
114250
114228
114199
114167
114134
114103
114075
114050
114308
114306
114282
114241
114187
114124
114059
113995
113938
113888
114353
114360
114329
114266
114179
114076
113967
113859
113761
113672
114488
114511
114473
114382
114254
114102
113940
113779
113630
113502
114717
114760
114713
114591
114416
114209
113990
113772
113570
113392
114893
114954
114894
114732
114504
114238
113958
113683
113425
113205
115247
115320
115244
115039
114758
114435
114100
113773
113471
113205
115386
115458
115360
115109
114779
114407
114027
113662
113323
113031
115620
115685
115575
115290
114930
114527
114121
113732
113374
113061
114248
114247
114243
114238
114231
114225
114218
114211
114205
114201
114187
114185
114178
114166
114150
114132
114114
114096
114080
114063
114220
114220
114208
114184
114152
114114
114073
114034
113997
113966
114229
114236
114220
114182
114128
114062
113990
113919
113853
113792
114324
114344
114324
114268
114184
114082
113971
113859
113754
113664
114494
114531
114506
114429
114312
114169
114013
113856
113709
113578
114604
114657
114626
114522
114365
114176
113972
113768
113576
113411
114891
114960
114920
114787
114592
114358
114110
113863
113633
113429
114956
115032
114979
114816
114584
114312
114026
113746
113484
113258
115149
115226
115167
114981
114726
114430
114122
113822
113544
113300
114198
114198
114196
114193
114190
114187
114183
114180
114176
114174
114135
114134
114131
114124
114116
114106
114096
114086
114076
114066
114171
114172
114165
114152
114133
114110
114086
114061
114038
114019
114153
114159
114150
114128
114094
114053
114007
113961
113918
113877
114221
114236
114226
114191
114138
114070
113996
113920
113848
113786
114345
114373
114361
114313
114235
114138
114031
113921
113817
113724
114403
114445
114429
114363
114257
114126
113981
113834
113694
113575
114641
114698
114679
114594
114460
114296
114116
113935
113766
113613
114648
114713
114687
114582
114422
114228
114019
113811
113614
113444
114814
114884
114855
114735
114559
114347
114120
113896
113685
113500
114169
114169
114168
114167
114165
114164
114162
114160
114158
114157
114102
114102
114101
114098
114093
114088
114082
114077
114071
114064
114147
114149
114145
114138
114127
114113
114098
114083
114069
114058
114108
114113
114108
114095
114075
114049
114020
113991
113964
113937
114160
114171
114166
114145
114111
114067
114018
113968
113920
113879
114249
114269
114263
114233
114183
114119
114046
113971
113900
113836
114267
114297
114290
114249
114179
114090
113989
113886
113788
113704
114472
114515
114506
114453
114364
114251
114125
113996
113874
113764
114431
114481
114470
114403
114295
114160
114012
113861
113717
113594
114582
114638
114625
114550
114431
114282
114120
113957
113802
113666
114156
114157
114156
114156
114155
114154
114153
114152
114151
114150
114082
114083
114082
114080
114078
114075
114072
114069
114066
114061
114142
114143
114141
114137
114130
114123
114114
114105
114096
114090
114084
114087
114085
114077
114065
114050
114032
114014
113997
113980
114128
114136
114133
114120
114099
114071
114040
114008
113977
113950
114190
114205
114202
114184
114152
114110
114062
114012
113965
113921
114180
114200