/*--------------------------------*- C++ -*----------------------------------*\
| =========                 |                                                 |
| \\      /  F ield         | foam-extend: Open Source CFD                    |
|  \\    /   O peration     | Version:     4.0                                |
|   \\  /    A nd           | Web:         http://www.foam-extend.org         |
|    \\/     M anipulation  |                                                 |
\*---------------------------------------------------------------------------*/
FoamFile
{
    version     2.0;
    format      ascii;
    class       surfaceScalarField;
    location    "600";
    object      phi;
}
// * * * * * * * * * * * * * * * * * * * * * * * * * * * * * * * * * * * * * //

dimensions      [1 0 -1 0 0 0 0];

internalField   nonuniform List<scalar> 
97302
(
-0.000108055
4.95752e-06
-0.000601146
0.000617603
-0.000132113
5.441e-06
-0.000604913
0.00062353
-0.000160056
5.8887e-06
-0.000607947
0.000630002
-0.00019372
6.33142e-06
-0.000610206
0.000637538
-0.000235609
6.78654e-06
-0.00061158
0.000646683
-0.000288754
7.23523e-06
-0.000611341
0.000657251
-0.00035585
7.5843e-06
-0.000607434
0.000666945
-0.000436124
7.61009e-06
-0.000595235
0.000667898
-0.000525515
6.92205e-06
-0.000564288
0.000646757
4.503e-06
-0.000481618
-0.000660532
0.000612131
-0.00013677
7.26007e-06
-0.000839254
0.000854294
-0.000156336
8.18208e-06
-0.000845363
0.000862188
-0.000178977
8.89681e-06
-0.000850533
0.000870166
-0.000206476
9.46051e-06
-0.000854555
0.000878925
-0.000241847
9.91159e-06
-0.0008577
0.000889945
-0.000289453
1.02472e-05
-0.000859839
0.000904434
-0.000354732
1.03754e-05
-0.000859139
0.000921626
-0.000440657
1.00242e-05
-0.000850323
0.000933834
-0.000542609
8.59553e-06
-0.000820362
0.00092064
4.38228e-06
-0.000712047
-0.000713553
0.000883112
-0.000167341
7.62654e-06
-0.00107608
0.00109012
-0.000183668
8.91149e-06
-0.00108455
0.00110015
-0.000202714
9.88823e-06
-0.00109215
0.0011102
-0.000226106
1.06173e-05
-0.00109872
0.00112096
-0.000256976
1.11373e-05
-0.00110445
0.0011341
-0.000300494
1.14603e-05
-0.00110985
0.00115216
-0.000363881
1.15019e-05
-0.0011138
0.00117606
-0.000453125
1.09528e-05
-0.00111069
0.001199
-0.000563438
9.01143e-06
-0.0010854
0.0011953
3.21887e-06
-0.000956485
-0.000760328
0.00115454
-0.00019919
7.65492e-06
-0.00130987
0.00132315
-0.000214359
9.16356e-06
-0.00132205
0.00133697
-0.000232119
1.02989e-05
-0.00133342
0.00135077
-0.000253896
1.11157e-05
-0.0013438
0.00136508
-0.000282646
1.16356e-05
-0.00135311
0.00138136
-0.00032379
1.18611e-05
-0.00136201
0.00140275
-0.000385755
1.17118e-05
-0.00137015
0.00143191
-0.000476951
1.08613e-05
-0.00137257
0.00146386
-0.00059254
8.27302e-06
-0.00135301
0.00146934
6.25369e-07
-0.0012054
-0.000805785
0.00142124
-0.000233417
7.5883e-06
-0.00154387
0.00155666
-0.00024798
9.14811e-06
-0.00156022
0.00157479
-0.000265063
1.02876e-05
-0.00157578
0.00159287
-0.000285929
1.10633e-05
-0.00159036
0.00161128
-0.000313345
1.14858e-05
-0.00160369
0.00163125
-0.000352783
1.15403e-05
-0.00161631
0.00165607
-0.000413524
1.11476e-05
-0.00162853
0.00168983
-0.000505976
9.97953e-06
-0.00163644
0.00172977
-0.00062538
6.72654e-06
-0.00162311
0.00174406
-2.92711e-06
-0.00145674
-0.000848924
0.00168384
-0.00027031
7.48607e-06
-0.00177618
0.00178859
-0.000284443
8.92997e-06
-0.00179684
0.00181119
-0.00030103
9.92741e-06
-0.00181658
0.00183353
-0.00032123
1.05424e-05
-0.0018353
0.00185602
-0.000347643
1.07761e-05
-0.00185264
0.00187976
-0.000385712
1.06101e-05
-0.00186893
0.00190793
-0.00044535
9.98676e-06
-0.00188493
0.00194573
-0.000538812
8.63443e-06
-0.00189788
0.00199269
-0.000662259
5.03714e-06
-0.00189027
0.0020154
-6.13112e-06
-0.00170177
-0.000897985
0.0019407
-0.000309183
7.45361e-06
-0.00200789
0.00201994
-0.000322956
8.57687e-06
-0.00203248
0.00204661
-0.000339086
9.28087e-06
-0.00205595
0.00207273
-0.000358616
9.60436e-06
-0.00207828
0.00209875
-0.000383962
9.53957e-06
-0.00209915
0.00212573
-0.000420416
9.08053e-06
-0.00211875
0.00215674
-0.000478267
8.24629e-06
-0.00213835
0.00219794
-0.000571389
6.9159e-06
-0.00215664
0.00225148
-0.000697083
3.51203e-06
-0.00215606
0.00228328
-8.28841e-06
-0.0019466
-0.000941759
0.00219343
-0.000351139
6.92178e-06
-0.00224004
0.00225208
-0.000364392
7.5592e-06
-0.0022681
0.00228237
-0.000379958
7.91655e-06
-0.0022946
0.00231153
-0.000398784
7.95331e-06
-0.00231984
0.00234032
-0.00042303
7.63051e-06
-0.00234347
0.00236963
-0.000457639
6.93472e-06
-0.00236559
0.00240235
-0.000512924
5.99712e-06
-0.00238794
0.00244547
-0.000604143
4.93961e-06
-0.00241124
0.00250443
-0.000730125
2.47406e-06
-0.00241943
0.00254645
-8.62712e-06
-0.0021922
-0.000981004
0.00244342
-0.000393906
4.92122e-06
-0.00247076
0.00248307
-0.000406205
4.88442e-06
-0.00250135
0.00251632
-0.000420996
4.78039e-06
-0.00253017
0.00254809
-0.000439335
4.49171e-06
-0.00255816
0.00257996
-0.000463117
3.97917e-06
-0.00258517
0.00261261
-0.000496543
3.20363e-06
-0.00261084
0.002648
-0.000549225
2.37304e-06
-0.00263632
0.00269263
-0.000637339
1.838e-06
-0.00266431
0.00275552
-0.000761486
9.75847e-07
-0.00268241
0.00280806
-7.79463e-06
-0.00244244
-0.00101218
0.00269231
-0.000437166
-0.0026863
0.00269959
-0.000447973
-0.00271962
0.00273531
-0.00046141
-0.00275106
0.00276927
-0.000478663
-0.00278147
0.00280321
-0.000501565
-0.00281047
0.00283735
-0.000533823
-0.0028378
0.00287327
-0.000583744
-0.00286487
0.00291717
-0.000667044
-0.00289714
0.00298228
-0.000785777
-0.00293063
0.00305034
-0.00269878
-0.00103441
0.00293962
1.42123e-05
5.01869e-06
-0.000586262
-7.6635e-06
5.49974e-06
-0.000588537
-3.1956e-05
5.91293e-06
-0.000589568
-5.92822e-05
6.26128e-06
-0.000589141
-9.05713e-05
6.53888e-06
-0.00058683
-0.000126722
6.71132e-06
-0.000581902
-0.000167632
6.70497e-06
-0.000573229
-0.000210059
6.37393e-06
-0.000559181
-0.000243834
5.46056e-06
-0.000535973
3.4383e-06
-0.000494356
-0.000234535
2.49536e-05
7.32019e-06
-0.000824263
5.59711e-06
8.30051e-06
-0.000828807
-1.61467e-05
9.05391e-06
-0.00083193
-4.08785e-05
9.60368e-06
-0.000833165
-6.98999e-05
9.94833e-06
-0.000832088
-0.000105343
1.00593e-05
-0.000827743
-0.000149365
9.86481e-06
-0.000818278
-0.00020188
9.17982e-06
-0.000800613
-0.000255659
7.64792e-06
-0.000768771
4.40737e-06
-0.00070477
-0.000263905
3.50125e-05
7.66403e-06
-0.00106121
1.78392e-05
9.09281e-06
-0.00106817
-1.79154e-06
1.01952e-05
-0.00107366
-2.46384e-05
1.1003e-05
-0.00107727
-5.21291e-05
1.1508e-05
-0.00107852
-8.70892e-05
1.16804e-05
-0.00107651
-0.000133543
1.14453e-05
-0.00106893
-0.000194565
1.0578e-05
-0.00105106
-0.000266816
8.58007e-06
-0.00101408
4.15221e-06
-0.000926874
-0.000296172
4.45817e-05
7.53487e-06
-0.00129521
2.79934e-05
9.29948e-06
-0.00130567
8.80877e-06
1.06749e-05
-0.00131471
-1.37924e-05
1.16871e-05
-0.00132188
-4.12703e-05
1.23174e-05
-0.00132644
-7.66344e-05
1.25102e-05
-0.00132747
-0.000125154
1.21772e-05
-0.00132236
-0.000193053
1.10754e-05
-0.00130517
-0.000281684
8.5628e-06
-0.00126436
2.82627e-06
-0.00115327
-0.000332491
5.2094e-05
7.25298e-06
-0.00152932
3.56633e-05
9.20341e-06
-0.00154369
1.65472e-05
1.07173e-05
-0.0015567
-6.11936e-06
1.18227e-05
-0.00156783
-3.38081e-05
1.24985e-05
-0.00157618
-6.95934e-05
1.26626e-05
-0.00158068
-0.00011962
1.22064e-05
-0.00157853
-0.000193016
1.08832e-05
-0.00156285
-0.000295947
7.89497e-06
-0.00151951
8.38951e-07
-0.00138413
-0.000366573
5.72262e-05
6.88189e-06
-0.00176165
4.08616e-05
8.8641e-06
-0.00178014
2.17717e-05
1.03849e-05
-0.00179716
-9.48163e-07
1.14825e-05
-0.00181224
-2.87693e-05
1.21312e-05
-0.00182445
-6.4807e-05
1.22423e-05
-0.00183247
-0.000115832
1.16985e-05
-0.0018334
-0.000193451
1.02815e-05
-0.00181966
-0.000308269
7.07179e-06
-0.00177463
-1.01976e-06
-0.00161406
-0.000394127
5.99856e-05
6.48395e-06
-0.00199338
4.37194e-05
8.29656e-06
-0.00201565
2.4764e-05
9.68238e-06
-0.0020363
2.21598e-06
1.06636e-05
-0.00205491
-2.53752e-05
1.12078e-05
-0.00207063
-6.11334e-05
1.1229e-05
-0.00208198
-0.00011227
1.06343e-05
-0.00208615
-0.000192672
9.30149e-06
-0.00207526
-0.000317539
6.29783e-06
-0.00203042
-2.39819e-06
-0.00184581
-0.00041695
6.01051e-05
5.5594e-06
-0.00222531
4.4231e-05
7.00048e-06
-0.00225093
2.57174e-05
8.16901e-06
-0.00227457
3.66791e-06
9.02326e-06
-0.00229615
-2.33134e-05
9.515e-06
-0.0023148
-5.82319e-05
9.53498e-06
-0.00232898
-0.000108505
9.04685e-06
-0.00233608
-0.000190041
8.06424e-06
-0.00232846
-0.000323234
5.94118e-06
-0.00228588
-2.61858e-06
-0.00207964
-0.000435582
5.81383e-05
3.24794e-06
-0.00245554
4.32279e-05
4.06966e-06
-0.00248351
2.5683e-05
4.84594e-06
-0.0025093
4.42594e-06
5.44715e-06
-0.00253332
-2.20231e-05
5.86386e-06
-0.00255507
-5.64141e-05
5.96475e-06
-0.00257288
-0.000105696
5.76851e-06
-0.00258376
-0.000187157
5.40909e-06
-0.00258019
-0.000327344
4.91805e-06
-0.0025412
-1.78823e-06
-0.00231543
-0.000455184
5.51934e-05
-0.00267148
4.14994e-05
-0.00270186
2.53163e-05
-0.00273003
5.48208e-06
-0.00275619
-1.95319e-05
-0.00277959
-5.25667e-05
-0.0027988
-9.98378e-05
-0.00281183
-0.00017909
-0.00281248
-0.000324123
-0.00278068
-0.0025446
-0.000480093
8.28335e-06
4.95816e-06
-0.000574281
-1.00819e-05
5.3835e-06
-0.000575555
-2.98323e-05
5.70934e-06
-0.000575526
-5.08586e-05
5.93163e-06
-0.000574046
-7.28858e-05
6.02982e-06
-0.000570832
-9.52225e-05
5.9562e-06
-0.000565521
-0.000116371
5.6386e-06
-0.000557719
-0.000133437
4.98268e-06
-0.000547097
-0.000140138
3.87681e-06
-0.000533149
2.22684e-06
-0.000514666
-0.000122054
1.81571e-05
7.37209e-06
-0.000810742
3.51128e-07
8.27765e-06
-0.000813895
-1.93662e-05
8.93702e-06
-0.000815441
-4.09802e-05
9.3568e-06
-0.000814976
-6.45667e-05
9.51452e-06
-0.000811986
-9.00452e-05
9.34617e-06
-0.000805655
-0.000116587
8.75802e-06
-0.000794855
-0.000141665
7.61431e-06
-0.000778167
-0.000158667
5.74784e-06
-0.00075364
2.99458e-06
-0.00071912
-0.000145084
2.82209e-05
7.92186e-06
-0.00104694
1.14301e-05
9.28481e-06
-0.00105238
-7.5779e-06
1.03025e-05
-0.00105601
-2.91372e-05
1.09904e-05
-0.00105735
-5.36949e-05
1.13132e-05
-0.00105576
-8.19107e-05
1.11948e-05
-0.00105015
-0.000114004
1.05091e-05
-0.00103859
-0.000148287
9.04998e-06
-0.00101821
-0.000178281
6.51843e-06
-0.000984859
2.55618e-06
-0.000931727
-0.00017299
3.80168e-05
7.89135e-06
-0.0012807
2.13685e-05
9.6159e-06
-0.00128936
2.15488e-06
1.09323e-05
-0.00129613
-2.01362e-05
1.18554e-05
-0.00130046
-4.61983e-05
1.23297e-05
-0.00130139
-7.71646e-05
1.22531e-05
-0.00129756
-0.00011424
1.14602e-05
-0.00128624
-0.000157121
9.6785e-06
-0.00126292
-0.000200592
6.45666e-06
-0.00122083
1.18926e-06
-0.00114622
-0.000206271
4.60904e-05
7.65446e-06
-0.00151466
2.93529e-05
9.60044e-06
-0.00152694
9.82905e-06
1.10942e-05
-0.00153734
-1.31162e-05
1.21516e-05
-0.00154518
-4.04204e-05
1.27127e-05
-0.00154926
-7.35647e-05
1.26461e-05
-0.00154793
-0.000114696
1.1747e-05
-0.00153768
-0.000165211
9.68116e-06
-0.00151234
-0.000221895
5.80671e-06
-0.00146218
-8.22381e-07
-0.00136426
-0.000239755
5.19451e-05
7.26986e-06
-0.00174686
3.51375e-05
9.2842e-06
-0.00176302
1.54164e-05
1.08268e-05
-0.00177717
-7.95173e-06
1.19226e-05
-0.00178864
-3.61015e-05
1.25099e-05
-0.0017961
-7.08222e-05
1.24454e-05
-0.00179755
-0.000115149
1.15029e-05
-0.00178883
-0.000172357
9.31467e-06
-0.00176208
-0.000241819
5.0521e-06
-0.00170441
-2.68633e-06
-0.0015816
-0.00027241
5.54774e-05
6.77532e-06
-0.00197849
3.87182e-05
8.64937e-06
-0.00199826
1.90367e-05
1.00946e-05
-0.00201588
-4.37636e-06
1.11257e-05
-0.0020307
-3.27858e-05
1.16832e-05
-0.0020414
-6.82453e-05
1.16174e-05
-0.00204569
-0.000114615
1.071e-05
-0.00203899
-0.00017718
8.61656e-06
-0.00201199
-0.000258469
4.38757e-06
-0.00194847
-4.15487e-06
-0.0018009
-0.000301911
5.62862e-05
5.71821e-06
-0.00221015
3.99279e-05
7.22106e-06
-0.00223314
2.0698e-05
8.44801e-06
-0.0022537
-2.28505e-06
9.36616e-06
-0.00227141
-3.03481e-05
9.92223e-06
-0.00228498
-6.57119e-05
9.95445e-06
-0.00229195
-0.000112903
9.29317e-06
-0.00228747
-0.000179223
7.66337e-06
-0.00226119
-0.000271159
4.23368e-06
-0.00219379
-4.52302e-06
-0.0020226
-0.000327829
5.46886e-05
3.38699e-06
-0.00243987
3.9273e-05
4.23752e-06
-0.00246511
2.10722e-05
5.0415e-06
-0.00248769
-9.85933e-07
5.67144e-06
-0.00250757
-2.84618e-05
6.14197e-06
-0.00252382
-6.36779e-05
6.30566e-06
-0.00253401
-0.000111275
6.08727e-06
-0.00253296
-0.000179961
5.30826e-06
-0.00250915
-0.000280816
3.62398e-06
-0.00243974
-3.50477e-06
-0.00224534
-0.00035193
5.20975e-05
-0.00265587
3.77914e-05
-0.00268332
2.09214e-05
-0.00270811
3.32206e-07
-0.00272993
-2.55096e-05
-0.00274761
-5.91579e-05
-0.00275885
-0.000105412
-0.00275949
-0.000173949
-0.00273864
-0.00028017
-0.00267083
-0.00245834
-0.000369934
5.00985e-06
4.63041e-06
-0.00056582
-8.99058e-06
4.98423e-06
-0.000566539
-2.35674e-05
5.21443e-06
-0.000566164
-3.83096e-05
5.31885e-06
-0.000564623
-5.26152e-05
5.2781e-06
-0.000561805
-6.55861e-05
5.05634e-06
-0.000557607
-7.58825e-05
4.60964e-06
-0.000552032
-8.15193e-05
3.89236e-06
-0.000545353
-7.93654e-05
2.87265e-06
-0.000538175
1.60964e-06
-0.000530591
-6.50502e-05
1.29512e-05
7.09437e-06
-0.000799574
-2.17119e-06
7.89609e-06
-0.000801685
-1.85694e-05
8.43061e-06
-0.000802259
-3.58899e-05
8.70189e-06
-0.000801039
-5.3607e-05
8.68339e-06
-0.000797674
-7.08051e-05
8.31312e-06
-0.000791713
-8.58991e-05
7.51637e-06
-0.000782668
-9.62254e-05
6.22213e-06
-0.00077017
-9.7241e-05
4.40024e-06
-0.000754151
2.18702e-06
-0.000735518
-8.14195e-05
2.21427e-05
7.90639e-06
-0.00103409
6.68777e-06
9.15813e-06
-0.00103819
-1.05362e-05
1.00433e-05
-0.0010404
-2.94462e-05
1.05655e-05
-0.0010403
-4.98388e-05
1.06803e-05
-0.00103737
-7.11931e-05
1.03014e-05
-0.00103078
-9.21288e-05
9.30936e-06
-0.00101944
-0.000109578
7.56146e-06
-0.0010021
-0.000117305
4.93527e-06
-0.000977666
1.54426e-06
-0.000946324
-0.000102065
3.15527e-05
8.0488e-06
-0.00126698
1.55865e-05
9.68066e-06
-0.00127391
-2.65199e-06
1.08793e-05
-0.00127873
-2.33275e-05
1.16495e-05
-0.00128086
-4.64815e-05
1.19152e-05
-0.00127947
-7.19777e-05
1.15571e-05
-0.00127332
-9.88155e-05
1.03999e-05
-0.00126049
-0.000123957
8.21603e-06
-0.00123843
-0.000140159
4.75328e-06
-0.00120444
7.68818e-08
-0.00115693
-0.000127978
3.97557e-05
7.91838e-06
-0.0015004
2.3297e-05
9.80331e-06
-0.0015106
4.19423e-06
1.12122e-05
-0.00151857
-1.78927e-05
1.21517e-05
-0.00152359
-4.32976e-05
1.25281e-05
-0.00152447
-7.22731e-05
1.21875e-05
-0.00151958
-0.000104372
1.08944e-05
-0.00150608
-0.000137013
8.32718e-06
-0.00147981
-0.000162629
4.05178e-06
-0.00143586
-1.99412e-06
-0.00136946
-0.000155349
4.6038e-05
7.56868e-06
-0.0017322
2.92503e-05
9.55786e-06
-0.00174598
9.57793e-06
1.1056e-05
-0.00175734
-1.34747e-05
1.20779e-05
-0.00176551
-4.0535e-05
1.25245e-05
-0.00176903
-7.22376e-05
1.22191e-05
-0.00176588
-0.000108806
1.08821e-05
-0.00175225
-0.000148481
8.11069e-06
-0.00172219
-0.000184051
3.26287e-06
-0.00166805
-3.96062e-06
-0.00158042
-0.000183269
5.01662e-05
7.02527e-06
-0.00196353
3.32776e-05
8.90416e-06
-0.00198071
1.3416e-05
1.034e-05
-0.00199531
-1.00481e-05
1.13425e-05
-0.0020065
-3.79991e-05
1.18196e-05
-0.00201274
-7.14508e-05
1.15793e-05
-0.0020116
-0.000111392
1.03242e-05
-0.00199849
-0.000157248
7.60698e-06
-0.00196563
-0.00020293
2.59318e-06
-0.00190212
-5.57711e-06
-0.0017922
-0.000210011
5.1606e-05
5.87443e-06
-0.0021948
3.50505e-05
7.39437e-06
-0.00221508
1.5538e-05
8.61763e-06
-0.00223246
-7.68957e-06
9.51863e-06
-0.00224636
-3.57121e-05
1.00271e-05
-0.00225516
-6.98751e-05
9.95116e-06
-0.00225616
-0.000111939
9.03302e-06
-0.00224411
-0.000162805
6.83112e-06
-0.00220955
-0.000218462
2.49023e-06
-0.00213803
-6.04669e-06
-0.0020057
-0.000234892
5.0613e-05
3.51432e-06
-0.00242396
3.49357e-05
4.37784e-06
-0.00244641
1.64187e-05
5.17996e-06
-0.00246574
-5.86259e-06
5.7911e-06
-0.00248156
-3.33207e-05
6.2243e-06
-0.00249256
-6.7665e-05
6.32508e-06
-0.00249604
-0.000111208
5.96855e-06
-0.00248635
-0.000166105
4.80643e-06
-0.00245223
-0.000230965
2.27686e-06
-0.00237466
-4.76251e-06
-0.00221953
-0.000258054
4.85239e-05
-0.00263978
3.38715e-05
-0.00266429
1.66333e-05
-0.0026857
-4.20536e-06
-0.0027033
-3.00098e-05
-0.00271558
-6.27313e-05
-0.0027198
-0.000105398
-0.00271086
-0.000161763
-0.00267746
-0.000233019
-0.0025973
-0.00242212
-0.000274005
3.25216e-06
4.12623e-06
-0.000560518
-6.73153e-06
4.40841e-06
-0.000560964
-1.68664e-05
4.55984e-06
-0.000560589
-2.66948e-05
4.5816e-06
-0.000559376
-3.56518e-05
4.46271e-06
-0.00055731
-4.30399e-05
4.18499e-06
-0.000554404
-4.80253e-05
3.73206e-06
-0.000550779
-4.9643e-05
3.09282e-06
-0.000546828
-4.66698e-05
2.26987e-06
-0.000543418
1.32638e-06
-0.000541127
-3.74599e-05
9.18115e-06
6.55159e-06
-0.00079106
-2.87147e-06
7.23576e-06
-0.000792459
-1.56582e-05
7.64532e-06
-0.000792557
-2.86867e-05
7.78641e-06
-0.000791215
-4.12776e-05
7.6398e-06
-0.00078826
-5.24541e-05
7.16395e-06
-0.000783516
-6.08539e-05
6.3199e-06
-0.000776856
-6.46973e-05
5.09299e-06
-0.000768327
-6.17922e-05
3.53018e-06
-0.000758317
1.82748e-06
-0.000747845
-4.99658e-05
1.70843e-05
7.60941e-06
-0.0010232
3.60974e-06
8.7197e-06
-0.0010262
-1.11416e-05
9.45283e-06
-0.00102746
-2.67992e-05
9.80526e-06
-0.00102666
-4.28003e-05
9.73699e-06
-0.00102346
-5.81999e-05
9.17419e-06
-0.00101739
-7.1394e-05
8.03571e-06
-0.00100797
-7.98109e-05
6.25891e-06
-0.000994853
-7.95994e-05
3.85201e-06
-0.0009782
1.07656e-06
-0.000959417
-6.57547e-05
2.56678e-05
7.95636e-06
-0.00125462
1.10287e-05
9.45503e-06
-0.00126001
-5.4644e-06
1.0502e-05
-0.00126328
-2.36494e-05
1.10929e-05
-0.00126397
-4.31132e-05
1.11477e-05
-0.00126142
-6.30392e-05
1.05529e-05
-0.00125478
-8.17192e-05
9.16817e-06
-0.00124294
-9.59302e-05
6.85571e-06
-0.00122482
-0.000100206
3.54136e-06
-0.00119986
-4.43399e-07
-0.0011697
-8.59189e-05
3.36098e-05
7.97266e-06
-0.00148705
1.80159e-05
9.74964e-06
-0.0014953
9.36378e-08
1.1029e-05
-0.00150118
-2.01874e-05
1.18074e-05
-0.00150403
-4.26308e-05
1.19734e-05
-0.00150285
-6.66747e-05
1.13719e-05
-0.00149636
-9.07185e-05
9.79047e-06
-0.00148266
-0.000111167
6.99196e-06
-0.00145949
-0.000121167
2.75882e-06
-0.00142508
-2.56389e-06
-0.00138072
-0.000107793
4.00161e-05
7.69849e-06
-0.00171811
2.37646e-05
9.61402e-06
-0.00172959
4.8391e-06
1.10171e-05
-0.00173841
-1.69751e-05
1.19121e-05
-0.0017438
-4.17662e-05
1.21723e-05
-0.00174444
-6.92814e-05
1.16103e-05
-0.0017386
-9.82296e-05
9.94894e-06
-0.00172346
-0.000124979
6.84738e-06
-0.0016953
-0.000141705
1.90051e-06
-0.00165047
-4.6161e-06
-0.00158925
-0.000130824
4.45313e-05
7.15041e-06
-0.00194888
2.79564e-05
8.98956e-06
-0.00196351
8.53037e-06
1.03651e-05
-0.00197523
-1.41367e-05
1.12803e-05
-0.0019832
-4.04368e-05
1.16142e-05
-0.00198588
-7.04858e-05
1.11552e-05
-0.0019811
-0.00010349
9.58219e-06
-0.00196512
-0.000136169
6.46294e-06
-0.00193257
-0.000160297
1.18058e-06
-0.00187727
-6.33533e-06
-0.00179744
-0.000153345
4.64923e-05
5.9388e-06
-0.0021796
3.01121e-05
7.44574e-06
-0.00219715
1.08412e-05
8.62755e-06
-0.00221145
-1.18842e-05
9.46275e-06
-0.00222182
-3.87329e-05
9.85799e-06
-0.00222656
-7.02076e-05
9.6063e-06
-0.00222314
-0.000106153
8.4088e-06
-0.00220699
-0.000144031
5.78471e-06
-0.00217099
-0.00017605
1.02528e-06
-0.00210586
-6.89335e-06
-0.00200644
-0.000174753
4.61289e-05
3.57758e-06
-0.00240812
3.05088e-05
4.4418e-06
-0.00242779
1.21101e-05
5.22512e-06
-0.00244393
-9.78132e-06
5.79512e-06
-0.002456
-3.62068e-05
6.15244e-06
-0.00246242
-6.81679e-05
6.13526e-06
-0.00246061
-0.000106235
5.58268e-06
-0.00244546
-0.000148744
4.08963e-06
-0.00240802
-0.000188784
1.11827e-06
-0.00233472
-5.41262e-06
-0.00221497
-0.000194828
4.45264e-05
-0.00262357
2.98327e-05
-0.00264515
1.26113e-05
-0.00266325
-7.96305e-06
-0.00267693
-3.2923e-05
-0.00268446
-6.3508e-05
-0.00268308
-0.000101045
-0.00266774
-0.000145521
-0.0026289
-0.000191491
-0.00255021
-0.00241165
-0.000207371
2.32554e-06
3.53755e-06
-0.000557634
-4.4385e-06
3.75741e-06
-0.000557957
-1.11865e-05
3.85401e-06
-0.000557695
-1.7536e-05
3.83077e-06
-0.000556857
-2.30659e-05
3.6849e-06
-0.000555465
-2.73198e-05
3.41173e-06
-0.000553561
-2.98372e-05
3.01234e-06
-0.000551274
-3.01985e-05
2.49196e-06
-0.000548958
-2.79846e-05
1.85906e-06
-0.000547491
1.14644e-06
-0.00054783
-2.24277e-05
6.52869e-06
5.83285e-06
-0.000785043
-2.58146e-06
6.40009e-06
-0.000785992
-1.20632e-05
6.70202e-06
-0.000785923
-2.14235e-05
6.74851e-06
-0.000784772
-3.00523e-05
6.53137e-06
-0.000782478
-3.71802e-05
6.03159e-06
-0.000779008
-4.18744e-05
5.24096e-06
-0.00077439
-4.3115e-05
4.17883e-06
-0.000768773
-3.99867e-05
2.91889e-06
-0.000762505
1.6345e-06
-0.00075624
-3.20802e-05
1.30465e-05
7.07439e-06
-0.00101447
1.8627e-06
8.02827e-06
-0.00101664
-1.01756e-05
8.61042e-06
-0.00101733
-2.25737e-05
8.81659e-06
-0.00101633
-3.46619e-05
8.61752e-06
-0.00101346
-4.54846e-05
7.96234e-06
-0.0010085
-5.37108e-05
6.81115e-06
-0.00100131
-5.76062e-05
5.16274e-06
-0.000991941
-5.51532e-05
3.09612e-06
-0.00098083
8.79384e-07
-0.000969106
-4.47092e-05
2.05456e-05
7.6213e-06
-0.001244
7.6946e-06
8.95851e-06
-0.00124809
-6.57761e-06
9.83983e-06
-0.00125024
-2.18844e-05
1.02541e-05
-0.0012501
-3.7579e-05
1.01317e-05
-0.00124724
-5.26207e-05
9.38019e-06
-0.00124115
-6.53322e-05
7.90887e-06
-0.00123133
-7.31874e-05
5.66642e-06
-0.00121746
-7.27952e-05
2.70072e-06
-0.00119985
-5.99615e-07
-0.00118031
-6.07108e-05
2.79148e-05
7.80252e-06
-0.00147502
1.36811e-05
9.43322e-06
-0.00148154
-2.4733e-06
1.05544e-05
-0.00148574
-2.03246e-05
1.11537e-05
-0.00148707
-3.93378e-05
1.11205e-05
-0.00148483
-5.85291e-05
1.03157e-05
-0.0014781
-7.60269e-05
8.5782e-06
-0.00146583
-8.85986e-05
5.77349e-06
-0.00144703
-9.13477e-05
1.86002e-06
-0.00142149
-2.68196e-06
-0.00139163
-7.83503e-05
3.41628e-05
7.63389e-06
-0.00170501
1.89356e-05
9.43287e-06
-0.00171437
1.37074e-06
1.07021e-05
-0.00172099
-1.84773e-05
1.14366e-05
-0.00172424
-4.02676e-05
1.14987e-05
-0.00172303
-6.31921e-05
1.07104e-05
-0.00171607
-8.53701e-05
8.83632e-06
-0.00170154
-0.000103063
5.64081e-06
-0.00167747
-0.000109955
9.41264e-07
-0.00164266
-4.74107e-06
-0.00159998
-9.71624e-05
3.88426e-05
7.12318e-06
-0.00193496
2.30323e-05
8.8823e-06
-0.00194715
4.63343e-06
1.01567e-05
-0.00195628
-1.64852e-05
1.09423e-05
-0.00196159
-4.0256e-05
1.11013e-05
-0.00196171
-6.61439e-05
1.04242e-05
-0.00195492
-9.24721e-05
8.6129e-06
-0.00193857
-0.000115286
5.31987e-06
-0.00190944
-0.000127104
1.70034e-07
-0.00186468
-6.48382e-06
-0.00180721
-0.000115589
4.11733e-05
5.8908e-06
-0.00216491
2.5366e-05
7.35593e-06
-0.00217982
6.87107e-06
8.46553e-06
-0.00219127
-1.4639e-05
9.1999e-06
-0.00219857
-3.93881e-05
9.44605e-06
-0.00220015
-6.71904e-05
8.99821e-06
-0.00219391
-9.67786e-05
7.55867e-06
-0.00217635
-0.000124347
4.69366e-06
-0.0021428
-0.000141804
-8.15941e-08
-0.00208815
-7.10488e-06
-0.00201454
-0.000133075
4.13708e-05
3.56834e-06
-0.00239271
2.61544e-05
4.41776e-06
-0.00240963
8.32858e-06
5.16511e-06
-0.00242281
-1.25709e-05
5.67475e-06
-0.00243158
-3.71282e-05
5.93233e-06
-0.00243435
-6.56574e-05
5.77506e-06
-0.00242886
-9.75702e-05
5.02979e-06
-0.00241101
-0.000129554
3.30633e-06
-0.00237465
-0.000153208
2.08454e-07
-0.00231135
-5.52363e-06
-0.00222088
-0.000148878
4.02086e-05
-0.00260763
2.57993e-05
-0.00262632
9.0037e-06
-0.00264129
-1.07804e-05
-0.00265147
-3.41828e-05
-0.00265513
-6.17564e-05
-0.00264973
-9.35082e-05
-0.00263096
-0.000127365
-0.00259174
-0.000155623
-0.00252175
-0.00241538
-0.000157414
1.78214e-06
2.94185e-06
-0.000556378
-2.64123e-06
3.11175e-06
-0.000556645
-7.01365e-06
3.17487e-06
-0.000556497
-1.10542e-05
3.13572e-06
-0.000555952
-1.44784e-05
2.99701e-06
-0.000555038
-1.70076e-05
2.76163e-06
-0.000553794
-1.83994e-05
2.43879e-06
-0.00055232
-1.84836e-05
2.03832e-06
-0.000550912
-1.71339e-05
1.56316e-06
-0.000550404
1.01193e-06
-0.00055209
-1.38856e-05
4.6584e-06
5.03038e-06
-0.000781096
-1.941e-06
5.49081e-06
-0.000781771
-8.71069e-06
5.70939e-06
-0.000781688
-1.52263e-05
5.6991e-06
-0.00078082
-2.10098e-05
5.46125e-06
-0.000779158
-2.55249e-05
4.99344e-06
-0.000776724
-2.81977e-05
4.30681e-06
-0.000773585
-2.84927e-05
3.43587e-06
-0.000769875
-2.60661e-05
2.45449e-06
-0.000765823
1.49504e-06
-0.00076178
-2.10083e-05
9.88386e-06
6.37138e-06
-0.00100786
9.95946e-07
7.16795e-06
-0.00100943
-8.43314e-06
7.61444e-06
-0.0010098
-1.79059e-05
7.70999e-06
-0.00100887
-2.68009e-05
7.43806e-06
-0.00100654
-3.43255e-05
6.77107e-06
-0.00100275
-3.95158e-05
5.70079e-06
-0.000997513
-4.1309e-05
4.26109e-06
-0.000990973
-3.87307e-05
2.55532e-06
-0.000983509
8.09435e-07
-0.000975809
-3.13413e-05
1.62049e-05
7.08347e-06
-0.00123527
5.37189e-06
8.24469e-06
-0.00123833
-6.49842e-06
8.96181e-06
-0.00123972
-1.89177e-05
9.22281e-06
-0.00123919
-3.11836e-05
8.97503e-06
-0.00123651
-4.22986e-05
8.1543e-06
-0.00123142
-5.08899e-05
6.71585e-06
-0.00122375
-5.52171e-05
4.67029e-06
-0.00121355
-5.33856e-05
2.12955e-06
-0.00120126
-5.50246e-07
-0.00118817
-4.41584e-05
2.2793e-05
7.42411e-06
-0.00146461
1.02668e-05
8.88109e-06
-0.00146965
-3.76869e-06
9.8313e-06
-0.00147257
-1.89171e-05
1.02562e-05
-0.00147296
-3.44879e-05
1.00604e-05
-0.00147034
-4.93863e-05
9.13267e-06
-0.00146418
-6.18973e-05
7.3691e-06
-0.00145397
-6.95486e-05
4.7227e-06
-0.00143943
-6.92475e-05
1.26736e-06
-0.00142093
-2.5199e-06
-0.00140046
-5.84452e-05
2.86479e-05
7.37552e-06
-0.00169324
1.48365e-05
9.02293e-06
-0.0017007
-9.13216e-07
1.01336e-05
-0.00170554
-1.83375e-05
1.06948e-05
-0.00170725
-3.68357e-05
1.05762e-05
-0.00170505
-5.53404e-05
9.62441e-06
-0.00169806
-7.19218e-05
7.66443e-06
-0.00168525
-8.34453e-05
4.56616e-06
-0.00166579
-8.55016e-05
3.18232e-07
-0.00163965
-4.50477e-06
-0.00160967
-7.38278e-05
3.32817e-05
6.93618e-06
-0.0019221
1.86348e-05
8.57956e-06
-0.00193206
1.75238e-06
9.72259e-06
-0.00193899
-1.72632e-05
1.03544e-05
-0.00194223
-3.8006e-05
1.03359e-05
-0.00194073
-5.95595e-05
9.47897e-06
-0.00193322
-7.99622e-05
7.5383e-06
-0.00191804
-9.55826e-05
4.27444e-06
-0.00189352
-0.000100687
-4.76921e-07
-0.00185878
-6.1871e-06
-0.00181741
-8.87989e-05
3.58164e-05
5.72103e-06
-0.00215108
2.09566e-05
7.11609e-06
-0.0021635
3.71199e-06
8.12858e-06
-0.00217243
-1.60044e-05
8.73958e-06
-0.00217723
-3.80368e-05
8.82623e-06
-0.00217661
-6.17283e-05
8.20002e-06
-0.00216894
-8.5302e-05
6.59932e-06
-0.00215184
-0.000104904
3.68165e-06
-0.0021226
-0.000113769
-8.15451e-07
-0.00207894
-6.83384e-06
-0.00202484
-0.000102824
3.64696e-05
3.48112e-06
-0.00237804
2.19985e-05
4.29793e-06
-0.00239235
5.17097e-06
4.99287e-06
-0.00240284
-1.42209e-05
5.42742e-06
-0.00240887
-3.63278e-05
5.57548e-06
-0.002409
-6.09005e-05
5.28211e-06
-0.00240137
-8.66675e-05
4.38675e-06
-0.00238303
-0.000109982
2.56096e-06
-0.00235022
-0.000123251
-4.21744e-07
-0.00229848
-5.25534e-06
-0.00223112
-0.000114592
3.5686e-05
-0.00259232
2.1886e-05
-0.00260822
5.91235e-06
-0.00262032
-1.2602e-05
-0.00262753
-3.38948e-05
-0.00262826
-5.79505e-05
-0.0026204
-8.39085e-05
-0.00260061
-0.000108861
-0.00256422
-0.000125379
-0.00250565
-0.00242577
-0.000120246
1.41058e-06
2.39056e-06
-0.000556099
-1.41662e-06
2.52198e-06
-0.00055634
-4.20695e-06
2.56655e-06
-0.000556273
-6.76746e-06
2.52868e-06
-0.000555921
-8.91446e-06
2.41397e-06
-0.000555305
-1.04811e-05
2.22848e-06
-0.000554455
-1.13397e-05
1.98374e-06
-0.000553445
-1.14245e-05
1.68852e-06
-0.000552516
-1.07079e-05
1.3375e-06
-0.000552458
8.99217e-07
-0.000554839
-8.85841e-06
3.32359e-06
4.22179e-06
-0.000778712
-1.29434e-06
4.58986e-06
-0.000779221
-5.98852e-06
4.74831e-06
-0.000779176
-1.04256e-05
4.71154e-06
-0.000778566
-1.42564e-05
4.48728e-06
-0.000777401
-1.71234e-05
4.08274e-06
-0.000775711
-1.86851e-05
3.51783e-06
-0.000773557
-1.867e-05
2.82973e-06
-0.000771032
-1.69727e-05
2.08216e-06
-0.000768264
1.37112e-06
-0.000765424
-1.38007e-05
7.43102e-06
5.57784e-06
-0.00100311
6.2089e-07
6.22661e-06
-0.00100426
-6.51608e-06
6.55979e-06
-0.00100448
-1.35425e-05
6.5808e-06
-0.00100371
-1.99492e-05
6.28451e-06
-0.00100193
-2.51442e-05
5.66203e-06
-0.000999136
-2.84793e-05
4.72508e-06
-0.000995385
-2.93285e-05
3.52183e-06
-0.000990816
-2.72293e-05
2.15254e-06
-0.000985678
7.92269e-07
-0.000980342
-2.21176e-05
1.25995e-05
6.40085e-06
-0.00122841
3.79581e-06
7.38443e-06
-0.00123068
-5.73383e-06
7.95058e-06
-0.00123158
-1.54911e-05
8.09071e-06
-0.00123094
-2.48286e-05
7.77091e-06
-0.00122866
-3.2914e-05
6.95491e-06
-0.00122463
-3.87289e-05
5.63352e-06
-0.00121885
-4.11474e-05
3.85287e-06
-0.00121146
-3.91559e-05
1.7447e-06
-0.00120284
-3.96314e-07
-0.00119377
-3.23721e-05
1.8298e-05
6.87401e-06
-0.00145591
7.64482e-06
8.14251e-06
-0.00145976
-4.14253e-06
8.92281e-06
-0.00146176
-1.65848e-05
9.19431e-06
-0.00146162
-2.89706e-05
8.88383e-06
-0.00145907
-4.02872e-05
7.91376e-06
-0.00145382
-4.91431e-05
6.23124e-06
-0.00144571
-5.3795e-05
3.85032e-06
-0.00143478
-5.24019e-05
9.02379e-07
-0.00142148
-2.19715e-06
-0.00140714
-4.39206e-05
2.359e-05
6.94226e-06
-0.00168299
1.14524e-05
8.41333e-06
-0.00168883
-2.22003e-06
9.35507e-06
-0.0016923
-1.7024e-05
9.74955e-06
-0.001693
-3.22535e-05
9.48637e-06
-0.00169042
-4.68074e-05
8.44711e-06
-0.00168404
-5.89855e-05
6.51944e-06
-0.00167336
-6.64096e-05
3.65894e-06
-0.00165818
-6.6228e-05
-3.8855e-08
-0.00163889
-4.04236e-06
-0.00161758
-5.64654e-05
2.79977e-05
6.59574e-06
-0.00191058
1.48184e-05
8.09447e-06
-0.00191856
-2.04226e-07
9.08814e-06
-0.0019237
-1.67861e-05
9.5605e-06
-0.00192546
-3.43246e-05
9.38535e-06
-0.00192309
-5.17553e-05
8.4087e-06
-0.00191576
-6.71993e-05
6.4525e-06
-0.00190253
-7.77065e-05
3.38039e-06
-0.00188274
-7.9268e-05
-8.20974e-07
-0.00185644
-5.59542e-06
-0.00182657
-6.85619e-05
3.05769e-05
5.42832e-06
-0.00213839
1.69789e-05
6.72749e-06
-0.00214853
1.35382e-06
7.62542e-06
-0.00215534
-1.61721e-05
8.10434e-06
-0.00215825
-3.51723e-05
8.04301e-06
-0.00215627
-5.4736e-05
7.28234e-06
-0.00214825
-7.29959e-05
5.61925e-06
-0.00213275
-8.66118e-05
2.8161e-06
-0.00210842
-9.05326e-05
-1.21199e-06
-0.00207463
-6.22402e-06
-0.00203501
-7.97335e-05
3.15654e-05
3.31495e-06
-0.00236441
1.81477e-05
4.08112e-06
-0.00237628
2.6801e-06
4.70983e-06
-0.00238446
-1.48126e-05
5.06114e-06
-0.00238834
-3.41388e-05
5.10336e-06
-0.00238673
-5.46644e-05