/*--------------------------------*- C++ -*----------------------------------*\
| =========                 |                                                 |
| \\      /  F ield         | foam-extend: Open Source CFD                    |
|  \\    /   O peration     | Version:     4.0                                |
|   \\  /    A nd           | Web:         http://www.foam-extend.org         |
|    \\/     M anipulation  |                                                 |
\*---------------------------------------------------------------------------*/
FoamFile
{
    version     2.0;
    format      ascii;
    class       volScalarField;
    location    "600";
    object      rho;
}
// * * * * * * * * * * * * * * * * * * * * * * * * * * * * * * * * * * * * * //

dimensions      [1 -3 0 0 0 0 0];

internalField   nonuniform List<scalar> 
34480
(
1.36096
1.35944
1.35874
1.35923
1.36149
1.36613
1.37376
1.38257
1.38498
1.40224
1.35591
1.35301
1.35063
1.34905
1.3489
1.35112
1.35694
1.3661
1.36895
1.38137
1.35231
1.34815
1.34438
1.34107
1.33868
1.33832
1.34163
1.34935
1.35057
1.35515
1.35001
1.34463
1.33962
1.33483
1.33054
1.32778
1.3285
1.33415
1.33298
1.32891
1.34856
1.34219
1.33629
1.33042
1.32473
1.32004
1.3185
1.32198
1.31818
1.30577
1.34828
1.34129
1.3348
1.32821
1.32156
1.31549
1.3122
1.31368
1.3073
1.28823
1.34674
1.33932
1.33255
1.32562
1.31853
1.31169
1.3072
1.30692
1.29802
1.27264
1.3471
1.33966
1.3329
1.32604
1.31905
1.31212
1.30711
1.3055
1.29408
1.26195
1.34422
1.33689
1.3303
1.32396
1.31787
1.31191
1.30724
1.30472
1.29092
1.25217
1.34185
1.33435
1.32759
1.3213
1.31575
1.31097
1.30767
1.30613
1.29187
1.24669
1.37626
1.37513
1.37482
1.37558
1.37779
1.38185
1.38845
1.39853
1.41311
1.43346
1.36914
1.36688
1.36534
1.36467
1.36538
1.36819
1.37418
1.38475
1.40178
1.43043
1.3642
1.36077
1.35798
1.35586
1.35482
1.35574
1.3601
1.36993
1.38745
1.42131
1.36105
1.35637
1.35229
1.34877
1.34603
1.34494
1.34718
1.35546
1.37243
1.40976
1.35925
1.35349
1.34835
1.34367
1.33951
1.33662
1.33675
1.34307
1.35872
1.39775
1.35884
1.35229
1.34635
1.34077
1.33551
1.33113
1.3294
1.33361
1.34727
1.3858
1.35736
1.3502
1.34373
1.33755
1.33158
1.32616
1.32294
1.3251
1.33638
1.373
1.3578
1.35037
1.34362
1.33717
1.3309
1.32496
1.32075
1.32108
1.32958
1.36311
1.35527
1.34771
1.34078
1.33432
1.32826
1.32259
1.31817
1.31717
1.32277
1.35423
1.35269
1.34505
1.33796
1.33137
1.32537
1.32014
1.31631
1.31551
1.31952
1.35194
1.38731
1.38684
1.3872
1.38859
1.39119
1.39518
1.40077
1.40811
1.41736
1.42807
1.37931
1.37801
1.37753
1.37809
1.38003
1.38371
1.38971
1.39857
1.41092
1.42751
1.37307
1.37079
1.36932
1.3688
1.36964
1.37242
1.378
1.38749
1.40214
1.42412
1.36869
1.36529
1.36271
1.36103
1.36061
1.36216
1.36676
1.37609
1.39219
1.41904
1.36593
1.3615
1.35794
1.35522
1.35362
1.35392
1.35733
1.36599
1.38282
1.41368
1.36469
1.35947
1.3551
1.35153
1.34896
1.34811
1.35033
1.35803
1.37504
1.40896
1.36265
1.35677
1.35181
1.34761
1.34432
1.34258
1.34374
1.35033
1.36698
1.40278
1.36273
1.35648
1.35112
1.34653
1.3428
1.34044
1.34075
1.34618
1.36185
1.39835
1.36046
1.35394
1.34825
1.34337
1.33944
1.33692
1.33688
1.34148
1.3556
1.39309
1.35785
1.35124
1.34533
1.34023
1.33609
1.33346
1.33343
1.33807
1.35087
1.39036
1.39406
1.39385
1.39426
1.3954
1.39734
1.40011
1.40374
1.40822
1.41341
1.4185
1.38686
1.38606
1.386
1.38684
1.38875
1.39188
1.39644
1.40255
1.41019
1.41847
1.38049
1.37891
1.37812
1.37826
1.37961
1.38255
1.38752
1.39501
1.40534
1.41758
1.37564
1.37312
1.37144
1.37072
1.37127
1.37364
1.37852
1.38682
1.39948
1.41591
1.3724
1.36894
1.36641
1.36483
1.36453
1.36616
1.37062
1.37926
1.39381
1.41429
1.37068
1.36645
1.36316
1.36083
1.35975
1.36061
1.36451
1.37313
1.38912
1.41326
1.36831
1.36341
1.35952
1.35659
1.35487
1.35505
1.35835
1.36671
1.38368
1.41094
1.36811
1.36279
1.35846
1.35509
1.3529
1.35255
1.35528
1.36317
1.38051
1.41026
1.36581
1.3602
1.35552
1.35181
1.34933
1.34871
1.35115
1.35863
1.3757
1.40804
1.36307
1.35736
1.35247
1.34857
1.34587
1.34506
1.34729
1.35464
1.37111
1.40632
1.39794
1.39785
1.39818
1.39897
1.40025
1.40198
1.40414
1.40669
1.40961
1.41256
1.39221
1.39174
1.39185
1.39264
1.39419
1.39651
1.39961
1.40342
1.40777
1.4121
1.38636
1.3853
1.38493
1.38534
1.38672
1.38924
1.39305
1.39825
1.40475
1.41163
1.38153
1.3797
1.37865
1.37851
1.37949
1.38194
1.38617
1.39255
1.40123
1.41112
1.37812
1.37547
1.37373
1.37294
1.3734
1.37555
1.37994
1.38719
1.39794
1.41102
1.37612
1.37276
1.37036
1.36896
1.36886
1.37062
1.37496
1.38283
1.39548
1.41177
1.37354
1.36954
1.36658
1.36465
1.36405
1.36539
1.36957
1.37782
1.39209
1.41147
1.37316
1.36872
1.36531
1.36296
1.36195
1.36292
1.36686
1.37523
1.39066
1.41285
1.37087
1.36612
1.36237
1.35969
1.35839
1.35911
1.36292
1.37134
1.38734
1.41243
1.36809
1.36322
1.35927
1.35641
1.35489
1.35543
1.35905
1.36741
1.38338
1.41139
1.39988
1.39983
1.40004
1.40052
1.40128
1.40227
1.40348
1.40489
1.40658
1.40849
1.39578
1.39549
1.39562
1.39622
1.39732
1.39888
1.40087
1.40316
1.4056
1.40788
1.39083
1.39012
1.38996
1.39042
1.39158
1.3935
1.39619
1.39959
1.40352
1.40739
1.38635
1.38505
1.38441
1.38455
1.38561
1.38773
1.39106
1.39561
1.40128
1.40721
1.38306
1.38107
1.37989
1.3796
1.38039
1.38254
1.38631
1.39191
1.3994
1.40767
1.38099
1.37837
1.37664
1.37589
1.37635
1.3784
1.38247
1.38895
1.39827
1.40907
1.37834
1.37512
1.37291
1.37172
1.37184
1.37372
1.37795
1.38516
1.3962
1.40962
1.37786
1.37423
1.3716
1.37004
1.36985
1.37154
1.37581
1.38351
1.396
1.41195
1.37559
1.37165
1.36871
1.36686
1.36641
1.36794
1.37225
1.38035
1.39385
1.41238
1.37283
1.36876
1.36563
1.36362
1.36299
1.36437
1.36857
1.37677
1.39063
1.41159
1.40066
1.40063
1.40075
1.40102
1.40144
1.40199
1.40264
1.40342
1.40446
1.40591
1.39801
1.39784
1.39794
1.39834
1.39905
1.40004
1.40125
1.4026
1.40399
1.40523
1.39411
1.39363
1.39357
1.39396
1.39484
1.39621
1.39803
1.4002
1.40256
1.40477
1.39019
1.38927
1.38889
1.38913
1.39007
1.39176
1.39422
1.39736
1.40099
1.40459
1.3872
1.38573
1.38495
1.38493
1.38579
1.38769
1.3907
1.39482
1.3999
1.40516
1.38522
1.38321
1.382
1.38166
1.38237
1.38437
1.38784
1.39289
1.39951
1.40666
1.38262
1.38009
1.37847
1.3778
1.37832
1.38033
1.38416
1.39005
1.39822
1.40742
1.38215
1.37923
1.37724
1.37628
1.37659
1.37856
1.38263
1.3892
1.39877
1.41005
1.37992
1.3767
1.37446
1.37325
1.37337
1.37528
1.37951
1.38665
1.39737
1.41076
1.37724
1.37389
1.37147
1.37012
1.37011
1.37193
1.37615
1.3835
1.39477
1.41002
1.40084
1.40082
1.40088
1.40102
1.40125
1.40153
1.40188
1.40232
1.40301
1.40423
1.39933
1.39922
1.39928
1.39953
1.39996
1.40056
1.40127
1.40205
1.40282
1.4035
1.39644
1.39612
1.39609
1.39638
1.397
1.39793
1.39912
1.40049
1.40192
1.4032
1.39314
1.3925
1.39227
1.39252
1.39326
1.39453
1.39627
1.3984
1.40073
1.40293
1.39059
1.38952
1.38901
1.3891
1.38989
1.39143
1.39372
1.39667
1.40009
1.40345
1.38881
1.38731
1.38647
1.38637
1.38713
1.38887
1.39167
1.39546
1.40009
1.40482
1.38635
1.3844
1.38324
1.38291
1.38359
1.38548
1.38871
1.39331
1.39921
1.40548
1.38596
1.38367
1.3822
1.38166
1.38223
1.38419
1.38776
1.39308
1.40019
1.40806
1.3838
1.38123
1.37955
1.37881
1.37928
1.38124
1.38506
1.39098
1.39916
1.40868
1.38126
1.37856
1.37673
1.37588
1.37625
1.37819
1.38206
1.38826
1.39701
1.40789
1.40074
1.40073
1.40076
1.40083
1.40095
1.40109
1.40128
1.40153
1.40203
1.40314
1.40005
1.39998
1.40001
1.40016
1.40041
1.40075
1.40116
1.4016
1.40203
1.40239
1.39806
1.39784
1.39783
1.39803
1.39843
1.39904
1.39979
1.40064
1.40149
1.40224
1.39537
1.39493
1.39479
1.39499
1.39554
1.39644
1.39763
1.39904
1.40053
1.40189
1.39329
1.39253
1.39219
1.39233
1.39297
1.39415
1.39582
1.39788
1.40017
1.40233
1.39179
1.39068
1.39011
1.39013
1.39082
1.39225
1.39439
1.39716
1.40036
1.4035
1.38953
1.38806
1.38724
1.38712
1.38781
1.38943
1.39202
1.39551
1.3997
1.40396
1.38928
1.38752
1.38646
1.3862
1.38686
1.38862
1.39157
1.39572
1.4009
1.40634
1.3872
1.38519
1.38396
1.38356
1.38417
1.386
1.38923
1.39392
1.39999
1.40666
1.38484
1.38272
1.38136
1.38088
1.38144
1.38328
1.38662
1.3916
1.39817
1.40582
1.40058
1.40057
1.40059
1.40062
1.40068
1.40075
1.40085
1.401
1.40139
1.40244
1.40041
1.40037
1.40039
1.40047
1.40061
1.4008
1.40103
1.40127
1.4015
1.40169
1.39916
1.39902
1.39901
1.39914
1.39939
1.39977
1.40023
1.40075
1.40125
1.40167
1.39701
1.39671
1.39662
1.39677
1.39716
1.39776
1.39856
1.39947
1.40041
1.40124
1.39541
1.39487
1.39465
1.39478
1.39527
1.39613
1.3973
1.39871
1.40022
1.4016
1.3942
1.3934
1.39302
1.39309
1.39367
1.39476
1.39634
1.39831
1.4005
1.40257
1.39218
1.39108
1.39052
1.39051
1.39114
1.39244
1.39442
1.39698
1.39992
1.40281
1.39212
1.39079
1.39005
1.38995
1.3906
1.39207
1.3944
1.39752
1.40122
1.40495
1.39012
1.38858
1.3877
1.38751
1.38815
1.38974
1.39233
1.39592
1.40031
1.40492
1.388
1.38636
1.38538
1.38514
1.38575
1.38738
1.3901
1.39395
1.39875
1.40406
1.40044
1.40044
1.40044
1.40046
1.40049
1.40052
1.40058
1.40067
1.401
1.40201
1.40058
1.40056
1.40057
1.40061
1.40069
1.40079
1.40092
1.40105
1.40117
1.40125
1.39992
1.39983
1.39982
1.3999
1.40005
1.40028
1.40056
1.40086
1.40115
1.40137
1.39819
1.398
1.39794
1.39804
1.3983
1.3987
1.39921
1.39979
1.40037
1.40086
1.39703
1.39666
1.39652
1.39662
1.39698
1.39758
1.39838
1.39932
1.4003
1.40116
1.39611
1.39555
1.39529
1.39538
1.39582
1.39663
1.39775
1.39912
1.40059
1.40194
1.39433
1.39354
1.39315
1.3932
1.39371
1.39472
1.39618
1.39801
1.40003
1.40196
1.39449
1.39352
1.393
1.393
1.39356
1.39473
1.3965
1.39877
1.40136
1.40389
1.39257
1.39142
1.39081
1.39075
1.39133
1.39262
1.39463
1.39728
1.40039
1.40353
1.39072
1.38949
1.3888
1.3887
1.38929
1.39063
1.39276
1.39564
1.39906
1.4027
1.40038
1.40038
1.40038
1.40039
1.4004
1.40042
1.40045
1.40051
1.40079
1.40177
1.40066
1.40065
1.40065
1.40067
1.40071
1.40077
1.40084
1.40091
1.40097
1.401
1.40046
1.4004
1.40039
1.40044
1.40053
1.40067
1.40083
1.401
1.40116
1.40126
1.39904
1.39891
1.39888
1.39894
1.39911
1.39936
1.39969
1.40004
1.40039
1.40067
1.39826
1.39801
1.39792
1.398
1.39824
1.39865
1.39918
1.39979
1.40042
1.40094
1.39759
1.39721
1.39704
1.39712
1.39745
1.39802
1.3988
1.39972
1.40069
1.40155
1.39604
1.39548
1.39523
1.39529
1.39569
1.39643
1.39747
1.39874
1.40011
1.40138
1.39643
1.39574
1.39539
1.39543
1.39589
1.39678
1.39807
1.39968
1.40146
1.40313
1.39458
1.39374
1.39332
1.39333
1.39383
1.39483
1.39632
1.39823
1.40038
1.40249
1.39304
1.39214
1.39166
1.39165
1.39216
1.39322
1.39481
1.39689
1.39928
1.40174
1.40041
1.40041
1.40042
1.40042
1.40042
1.40043
1.40045
1.40049
1.40073
1.40168
1.4007
1.40069
1.4007
1.40071
1.40073
1.40076
1.4008
1.40083
1.40086
1.40086
1.40087
1.40083
1.40083
1.40085
1.4009
1.40098
1.40108
1.40117
1.40125
1.40129
1.39965
1.39957
1.39954
1.39958
1.39969
1.39985
1.40005
1.40027
1.40047
1.40062
1.39919
1.39903
1.39897
1.39903
1.39919
1.39946
1.3998
1.40019
1.40058
1.40089
1.39874
1.39848
1.39837
1.39843
1.39867
1.39906
1.39958
1.40019
1.40082
1.40135
1.39739
1.39701
1.39684
1.3969
1.39719
1.39772
1.39844
1.3993
1.4002
1.40101
1.39801
1.39753
1.3973
1.39736
1.39771
1.39836
1.39927
1.40037
1.40157
1.40265
1.3962
1.3956
1.39532
1.39536
1.39575
1.39649
1.39756
1.3989
1.40036
1.40175
1.395
1.39435
1.39403
1.39406
1.39447
1.39527
1.39642
1.39788
1.39951
1.40115
1.40055
1.40055
1.40055
1.40055
1.40055
1.40055
1.40056
1.40059
1.40079
1.40171
1.40073
1.40073
1.40073
1.40074
1.40075
1.40077
1.40079
1.4008
1.40081
1.4008
1.40122
1.40119
1.40118
1.4012
1.40123
1.40127
1.40133
1.40138
1.40142
1.40141
1.40009
1.40004
1.40003
1.40005
1.40012
1.40021
1.40033
1.40046
1.40058
1.40064
1.39991
1.3998
1.39977
1.3998
1.39991
1.40008
1.4003
1.40054
1.40078
1.40094
1.39961
1.39944
1.39937
1.39942
1.39958
1.39984
1.40018
1.40057
1.40097
1.40128
1.39844
1.39818
1.39807
1.39812
1.39833
1.39869
1.39917
1.39974
1.40033
1.40083
1.39928
1.39896
1.39881
1.39886
1.39912
1.39958
1.4002
1.40094
1.40173
1.40241
1.39746
1.39705
1.39686
1.39691
1.3972
1.39773
1.39848
1.39938
1.40036
1.40126
1.39665
1.3962
1.39599
1.39603
1.39634
1.39692
1.39773
1.39873
1.39981
1.40089
1.40078
1.40078
1.40078
1.40078
1.40078
1.40078
1.40078
1.4008
1.40097
1.40183
1.40076
1.40076
1.40077
1.40077
1.40078
1.40079
1.4008
1.4008
1.4008
1.40078
1.40154
1.40152
1.40151
1.40152
1.40154
1.40157
1.4016
1.40162
1.40163
1.4016
1.40043
1.4004
1.40039
1.4004
1.40044
1.4005
1.40057
1.40065
1.40071
1.40072
1.40046
1.40039
1.40037
1.40039
1.40046
1.40057
1.40071
1.40086
1.40099
1.40107
1.40027
1.40016
1.40012
1.40015
1.40026
1.40042
1.40064
1.40089
1.40114
1.40131
1.39926
1.39909
1.39902
1.39905
1.39919
1.39943
1.39975
1.40011
1.40048
1.40079
1.40031
1.40009
1.4
1.40004
1.40022
1.40053
1.40095
1.40143
1.40194
1.40235
1.39843
1.39814
1.39803
1.39807
1.39827
1.39864
1.39914
1.39974
1.40038
1.40095
1.39806
1.39776
1.39762
1.39766
1.39789
1.39829
1.39883
1.3995
1.4002
1.40089
1.40115
1.40115
1.40115
1.40114
1.40114
1.40114
1.40114
1.40115
1.40128
1.40207
1.40079
1.40079
1.4008
1.4008
1.4008
1.40081
1.40081
1.40081
1.40081
1.40078
1.40185
1.40184
1.40184
1.40185
1.40186
1.40187
1.40189
1.4019
1.4019
1.40186
1.4007
1.40068
1.40068
1.40068
1.40071
1.40074
1.40078
1.40082
1.40085
1.40084
1.40089
1.40085
1.40084
1.40085
1.40089
1.40096
1.40104
1.40113
1.40121
1.40124
1.40076
1.40069
1.40067
1.40069
1.40075
1.40086
1.401
1.40116
1.40131
1.40139
1.39989
1.39979
1.39974
1.39977
1.39986
1.40001
1.40021
1.40044
1.40067
1.40084
1.40112
1.40099
1.40093
1.40096
1.40108
1.40129
1.40156
1.40187
1.40219
1.40242
1.39912
1.39894
1.39886
1.3989
1.39904
1.39928
1.39961
1.4
1.4004
1.40076
1.39931
1.39912
1.39903
1.39907
1.39922
1.39949
1.39985
1.40028
1.40072
1.40116
1.40175
1.40174
1.40174
1.40174
1.40173
1.40173
1.40172
1.40172
1.40182
1.40251
1.40079
1.40079
1.4008
1.4008
1.4008
1.4008
1.4008
1.4008
1.4008
1.40077
1.40217
1.40217
1.40216
1.40217
1.40218
1.40219
1.4022
1.40221
1.4022
1.40216
1.40094
1.40092
1.40092
1.40092
1.40093
1.40095
1.40097
1.40099
1.401
1.40098
1.40121
1.40119
1.40118
1.40119
1.40122
1.40126
1.40131
1.40137
1.40141
1.40141
1.40111
1.40106
1.40105
1.40106
1.4011
1.40117
1.40126
1.40135
1.40145
1.40149
1.40038
1.40032
1.40029
1.40031
1.40037
1.40046
1.40059
1.40073
1.40086
1.40096
1.40172
1.40164
1.4016
1.40163
1.40171
1.40184
1.40202
1.40222
1.40243
1.40254
1.39957
1.39945
1.3994
1.39943
1.39952
1.39968
1.39989
1.40014
1.40039
1.40062
1.40056
1.40044
1.40039
1.40041
1.40052
1.40069
1.40093
1.4012
1.40147
1.40174
1.4028
1.4028
1.40279
1.40279
1.40279
1.40278
1.40277
1.40277
1.40283
1.40337
1.40069
1.40068
1.40069
1.40069
1.40069
1.40069
1.40069
1.40068
1.40068
1.40065
1.40243
1.40243
1.40243
1.40243
1.40244
1.40245
1.40246
1.40247
1.40247
1.40244
1.40116
1.40115
1.40115
1.40115
1.40115
1.40116
1.40117
1.40118
1.40119
1.40116
1.40145
1.40143
1.40143
1.40144
1.40146
1.40148
1.40152
1.40155
1.40158
1.40158
1.40133
1.4013
1.40129
1.4013
1.40133
1.40137
1.40143
1.40149
1.40155
1.40157
1.40075
1.40071
1.4007
1.40071
1.40075
1.40081
1.40089
1.40097
1.40105
1.40111
1.40202
1.40196
1.40194
1.40196
1.40201
1.40211
1.40222
1.40236
1.4025
1.40257
1.3997
1.39962
1.3996
1.39961
1.39968
1.39978
1.39991
1.40007
1.40022
1.40038
1.40205
1.40197
1.40194
1.40196
1.40203
1.40214
1.4023
1.40247
1.40265
1.40282
1.40453
1.40453
1.40453
1.40454
1.40455
1.40456
1.40457
1.40458
1.40463
1.40501
1.40033
1.40032
1.40032
1.40032
1.40031
1.40031
1.4003
1.40028
1.40027
1.40023
1.4025
1.4025
1.40251
1.40251
1.40252
1.40254
1.40256
1.40257
1.40259
1.40258
1.40141
1.40141
1.4014
1.4014
1.40141
1.40141
1.40142
1.40143
1.40143
1.40141
1.40163
1.40162
1.40162
1.40163
1.40164
1.40167
1.40169
1.40172
1.40175
1.40175
1.40149
1.40147
1.40146
1.40147
1.40149
1.40153
1.40157
1.40162
1.40166
1.40169
1.40104
1.40101
1.401
1.40101
1.40104
1.40109
1.40114
1.40121
1.40126
1.4013
1.40187
1.40183
1.40181
1.40183
1.40187
1.40193
1.40202
1.40213
1.40225
1.40232
1.3994
1.39935
1.39933
1.39934
1.39939
1.39946
1.39955
1.39966
1.39975
1.39986
1.40402
1.40395
1.40393
1.40394
1.40399
1.40408
1.40419
1.40432
1.40445
1.40459
1.40642
1.40642
1.40643
1.40645
1.40648
1.40652
1.40656
1.40662
1.40669
1.40692
1.39983
1.39983
1.39982
1.39982
1.3998
1.39979
1.39977
1.39974
1.3997
1.39961
1.40244
1.40244
1.40245
1.40245
1.40247
1.40248
1.4025
1.40253
1.40256
1.40259
1.40174
1.40174
1.40173
1.40174
1.40174
1.40175
1.40176
1.40177
1.40178
1.40178
1.40185
1.40184
1.40184
1.40184
1.40186
1.40188
1.4019
1.40194
1.40197
1.402
1.40169
1.40167
1.40167
1.40167
1.40169
1.40172
1.40176
1.40181
1.40186
1.40191
1.40133
1.40131
1.4013
1.40131
1.40133
1.40137
1.40143
1.40149
1.40155
1.4016
1.40151
1.40147
1.40146
1.40147
1.40151
1.40157
1.40165
1.40175
1.40187
1.40199
1.3989
1.39886
1.39884
1.39885
1.39889
1.39896
1.39904
1.39913
1.3992
1.39924
1.40601
1.40594
1.40591
1.40592
1.40597
1.40604
1.40614
1.40626
1.4064
1.40656
1.5354
1.55224
1.54729
1.53639
1.54873
1.56851
1.56152
1.55106
1.55584
1.57656
1.57436
1.56224
1.55908
1.58079
1.58528
1.57134
1.5626
1.58546
1.59584
1.58101
1.57333
1.59926
1.61743
1.61105
1.58254
1.61026
1.63325
1.63281
1.5911
1.6196
1.64555
1.64935
1.58808
1.61621
1.64374
1.65086
1.57215
1.59845
1.62683
1.63783
1.44867
1.45956
1.46281
1.45775
1.45647
1.46935
1.4742
1.47045
1.4601
1.47482
1.48064
1.47912
1.46343
1.47965
1.48729
1.48798
1.46789
1.48525
1.49493
1.49739
1.47194
1.48946
1.49985
1.50242
1.47525
1.49283
1.50387
1.50764
1.48013
1.49749
1.5089
1.51477
1.48002
1.49671
1.5086
1.51648
1.4768
1.49246
1.50529
1.51469
1.43471
1.43951
1.44068
1.43917
1.44092
1.4466
1.44861
1.44815
1.44381
1.45084
1.45401
1.45411
1.44639
1.45483
1.45937
1.46026
1.44994
1.45964
1.46547
1.46729
1.45535
1.46619
1.4732
1.47616
1.45988
1.47159
1.47951
1.48353
1.46582
1.47806
1.48656
1.4916
1.46802
1.48023
1.489
1.49485
1.46862
1.48032
1.4886
1.49418
1.41929
1.42179
1.42264
1.42192
1.4239
1.42668
1.42813
1.42829
1.426
1.42958
1.43174
1.43244
1.42803
1.43248
1.43544
1.43693
1.43096
1.43623
1.43996
1.44223
1.43517
1.44117
1.44558
1.44871
1.43872
1.44535
1.45039
1.45441
1.44401
1.45113
1.45669
1.46162
1.44592
1.45326
1.45918
1.46481
1.44537
1.4529
1.4589
1.46441
1.41137
1.41285
1.41333
1.41284
1.41478
1.41622
1.41709
1.41739
1.41599
1.41799
1.41931
1.41998
1.41752
1.42009
1.42194
1.42314
1.41998
1.42313
1.42549
1.42724
1.42382
1.42753
1.4304
1.43274
1.42711
1.43135
1.43468
1.43762
1.43226
1.43693
1.44067
1.44424
1.43454
1.43944
1.44344
1.44743
1.43467
1.43976
1.4438
1.44749
1.40633
1.40733
1.40761
1.40717
1.4092
1.40996
1.41049
1.41078
1.4097
1.41084
1.41167
1.41223
1.41071
1.41225
1.41345
1.41438
1.4127
1.41463
1.41621
1.41754
1.41592
1.41825
1.42019
1.42195
1.41863
1.42134
1.42361
1.42582
1.42327
1.42631
1.42889
1.43153
1.42545
1.42871
1.4315
1.4344
1.42565
1.42913
1.43201
1.43462
1.40328
1.40406
1.40422
1.40376
1.40591
1.40632
1.40664
1.40686
1.40607
1.40673
1.40725
1.40765
1.40661
1.40755
1.40833
1.40899
1.40815
1.40937
1.41042
1.41137
1.41081
1.41232
1.41364
1.41488
1.41295
1.41474
1.41631
1.41786
1.41705
1.41909
1.42088
1.42273
1.41893
1.42115
1.4231
1.4251
1.41903
1.42141
1.42343
1.4252
1.40139
1.40206
1.40215
1.40166
1.40384
1.40406
1.40426
1.40441
1.40393
1.40432
1.40465
1.40493
1.40412
1.40469
1.40519
1.40566
1.40527
1.40604
1.40674
1.4074
1.40739
1.40836
1.40926
1.41013
1.40895
1.41013
1.41121
1.41229
1.41247
1.41383
1.41507
1.41637
1.41391
1.41541
1.41678
1.41816
1.41382
1.41544
1.41686
1.41808
1.40022
1.40085
1.4009
1.40038
1.40253
1.40265
1.40277
1.40288
1.40266
1.40288
1.40309
1.40328
1.40259
1.40294
1.40327
1.40359
1.40346
1.40395
1.40441
1.40487
1.40512
1.40576
1.40636
1.40696
1.40618
1.40696
1.40769
1.40845
1.40917
1.41008
1.41094
1.41183
1.41008
1.4111
1.41205
1.413
1.4098
1.41091
1.41189
1.41273
1.39953
1.40014
1.40017
1.39961
1.40172
1.40178
1.40185
1.40193
1.4019
1.40203
1.40216
1.40229
1.40164
1.40186
1.40207
1.40229
1.4023
1.40261
1.40292
1.40323
1.40359
1.40401
1.40441
1.40483
1.40423
1.40474
1.40525
1.40578
1.40678
1.40738
1.40798
1.4086
1.40717
1.40785
1.40851
1.40918
1.40676
1.40751
1.40819
1.40878
1.39915
1.39976
1.39978
1.3992
1.40123
1.40124
1.40128
1.40135
1.40149
1.40155
1.40163
1.40173
1.40108
1.4012
1.40134
1.40149
1.40158
1.40177
1.40197
1.40219
1.40257
1.40283
1.40311
1.4034
1.40286
1.40319
1.40354
1.40391
1.40506
1.40546
1.40586
1.4063
1.405
1.40546
1.40591
1.40637
1.40454
1.40505
1.40551
1.40592
1.399
1.39962
1.39963
1.39903
1.40093
1.40093
1.40095
1.40101
1.40131
1.40134
1.40139
1.40146
1.40077
1.40083
1.40092
1.40103
1.40117
1.40128
1.40142
1.40157
1.40192
1.40208
1.40226
1.40247
1.40192
1.40213
1.40237
1.40263
1.40386
1.40412
1.40439
1.4047
1.40343
1.40373
1.40404
1.40436
1.403
1.40333
1.40365
1.40393
1.39903
1.39966
1.39967
1.39905
1.40077
1.40076
1.40077
1.40082
1.40129
1.4013
1.40133
1.40138
1.40063
1.40066
1.40072
1.4008
1.40099
1.40105
1.40114
1.40125
1.40154
1.40163
1.40175
1.4019
1.40132
1.40145
1.4016
1.40179
1.40308
1.40324
1.40342
1.40364
1.40234
1.40253
1.40273
1.40296
1.402
1.40223
1.40244
1.40263
1.39921
1.39985
1.39985
1.39922
1.4007
1.40068
1.40068
1.40073
1.40139
1.40138
1.4014
1.40144
1.40061
1.40061
1.40065
1.40071
1.40097
1.401
1.40105
1.40113
1.40136
1.40141
1.40149
1.4016
1.40098
1.40105
1.40115
1.40128
1.40263
1.40273
1.40285
1.403
1.4016
1.40172
1.40185
1.40201
1.40145
1.4016
1.40174
1.40187
1.39953
1.40016
1.40016
1.39954
1.40067
1.40065
1.40065
1.40069
1.40157
1.40156
1.40157
1.4016
1.40066
1.40065
1.40067
1.40072
1.40105
1.40106
1.40109
1.40115
1.40132
1.40134
1.40139
1.40147
1.40083
1.40086
1.40092
1.40102
1.40244
1.40249
1.40257
1.40268
1.40113
1.40119
1.40128
1.4014
1.40127
1.40136
1.40145
1.40154
1.40001
1.40061
1.40061
1.40001
1.40067
1.40064
1.40065
1.40068
1.40183
1.40181
1.40182
1.40184
1.40076
1.40074
1.40075
1.4008
1.40119
1.40118
1.4012
1.40125
1.40136
1.40136
1.40139
1.40145
1.40081
1.40082
1.40086
1.40093
1.40243
1.40245
1.4025
1.40258
1.40084
1.40086
1.40092
1.40101
1.4014
1.40146
1.40152
1.40158
1.40073
1.40129
1.40129
1.40073
1.40065
1.40062
1.40062
1.40066
1.40213
1.40211
1.40211
1.40214
1.40089
1.40087
1.40088
1.40092
1.40135
1.40134
1.40135
1.40139
1.40143
1.40142
1.40144
1.40149
1.40088
1.40088
1.4009
1.40096
1.40252
1.40252
1.40255
1.40261
1.40062
1.40063
1.40066
1.40073
1.40189
1.40192
1.40196
1.402
1.40197
1.40244
1.40244
1.40197
1.40052
1.40049
1.40049
1.40053
1.40242
1.4024
1.40241
1.40242
1.40107
1.40104
1.40105
1.40108
1.40152
1.4015
1.40151
1.40154
1.40151
1.4015
1.40151
1.40155
1.40101
1.40099
1.40101
1.40106
1.40255
1.40254
1.40256
1.40261
1.40034
1.40034
1.40036
1.40041
1.4029
1.40292
1.40294
1.40297
1.4041
1.40443
1.40443
1.4041
1.4001
1.40007
1.40007
1.40011
1.40258
1.40257
1.40257
1.40258
1.40132
1.4013
1.4013
1.40133
1.4017
1.40168
1.40169
1.40172
1.40164
1.40162
1.40163
1.40166
1.4012
1.40118
1.40119
1.40123
1.40236
1.40236
1.40238
1.4024
1.39978
1.39977
1.39979
1.39983
1.40465
1.40466
1.40468
1.4047
1.40677
1.4069
1.4069
1.40677
1.39944
1.39938
1.39938
1.39944
1.40261
1.40261
1.40262
1.40261
1.40173
1.40171
1.40172
1.40174
1.40198
1.40198
1.40198
1.402
1.4019
1.40189
1.4019
1.40192
1.40155
1.40154
1.40155
1.40158
1.40212
1.40214
1.40215
1.40215
1.39901
1.39896
1.39898
1.39905
1.40665
1.40667
1.40668
1.40669
1.46147
1.43545
1.41656
1.40044
1.38917
1.38116
1.37508
1.37025
1.3664
1.36331
1.47511
1.44114
1.41737
1.40109
1.38951
1.38093
1.3741
1.36847
1.36375
1.35954
1.48151
1.44501
1.41833
1.40237
1.39035
1.3811
1.37349
1.36707
1.36153
1.35671
1.48976
1.45098
1.4225
1.40608
1.39304
1.3829
1.37439
1.36708
1.36061
1.35517
1.49953
1.45739
1.42761
1.40977
1.39567
1.38456
1.37523
1.36718
1.35993
1.35418
1.50978
1.46493
1.43379
1.41421
1.39914
1.38711
1.37707
1.3684
1.36057
1.35439
1.51967
1.46951
1.43801
1.41635
1.40054
1.3876
1.37696
1.36777
1.35947
1.3531
1.53143
1.47424
1.44354
1.41968
1.40347
1.38978
1.37873
1.36911
1.36056
1.35376
1.53776
1.47351
1.44426
1.41871
1.40252
1.3883
1.37697
1.36703
1.35841
1.35123
1.54317
1.47288
1.44513
1.41801
1.40145
1.38655
1.37473
1.36434
1.35553
1.34809
1.44868
1.43309
1.42092
1.411
1.40269
1.39571
1.3899
1.38514
1.38132
1.37834
1.45728
1.43857
1.42363
1.41137
1.40138
1.39324
1.38653
1.38096
1.37635
1.37237
1.46427
1.44335
1.42552
1.412
1.40096
1.39201
1.38457
1.37829
1.37293
1.36826
1.47083
1.44929
1.42951
1.4149
1.40293
1.39315
1.38488
1.37773
1.37143
1.36598
1.47729
1.45627
1.43449
1.41863
1.40566
1.39498
1.38587
1.37793
1.37076
1.36482
1.48673
1.46432
1.44097
1.4236
1.40962
1.39801
1.38811
1.37946
1.37159
1.36505
1.49622
1.47035
1.44602
1.42682
1.4119
1.39934
1.3887
1.37942
1.37091
1.36402
1.5083
1.47686
1.45248
1.43132
1.41573
1.40234
1.39113
1.38128
1.37236
1.36492
1.51639
1.47832
1.45449
1.43186
1.41594
1.40188
1.39019
1.37987
1.3707
1.36281
1.52362
1.47849
1.45543
1.43146
1.415
1.40031
1.38818
1.37749
1.36817
1.36008
1.43759
1.4296
1.42144
1.41405
1.40762
1.40214
1.39754
1.39378
1.39083
1.38865
1.44354
1.43326
1.42269
1.41332
1.40538
1.39874
1.3932
1.38857
1.3848
1.38166
1.44897
1.43681
1.42391
1.41302
1.40391
1.39633
1.38995
1.38457
1.38006
1.3762
1.45471
1.44148
1.42694
1.41495
1.40485
1.39636
1.38909
1.38282
1.37738
1.3727
1.46118
1.44723
1.4312
1.41802
1.40687
1.39743
1.38928
1.38219
1.37586
1.37059
1.46983
1.45454
1.43717
1.4225
1.41026
1.39983
1.39086
1.38302
1.37596
1.37003
1.47846
1.46048
1.44201
1.42554
1.41223
1.40083
1.39107
1.38255
1.37483
1.36848
1.48976
1.46738
1.44844
1.43004
1.41593
1.40366
1.39327
1.38417
1.37598
1.36906
1.49747
1.46994
1.45117
1.43134
1.41675
1.40374
1.39278
1.38314
1.37459
1.36724
1.50359
1.47076
1.45225
1.43112
1.41593
1.40229
1.39092
1.38092
1.37221
1.36465
1.42351
1.41969
1.41553
1.41146
1.40762
1.40413
1.40106
1.39848
1.39643
1.39493
1.42694
1.42253
1.41705
1.41149
1.40627
1.40155
1.3974
1.39385
1.39094
1.38855
1.4312
1.42574
1.41858
1.41151
1.40497
1.39915
1.39407
1.38971
1.38604
1.38292
1.43622
1.43002
1.4216
1.41329
1.40563
1.39879
1.39276
1.38746
1.38287
1.37891
1.44228
1.43534
1.42574
1.41618
1.4074
1.39955
1.39259
1.38643
1.38095
1.37635
1.45039
1.44215
1.43143
1.42043
1.41051
1.40165
1.39382
1.38687
1.38063
1.37532
1.45835
1.44792
1.43613
1.42343
1.41239
1.40252
1.39384
1.38618
1.37924
1.37345
1.46868
1.45494
1.44246
1.42796
1.416
1.40522
1.39587
1.38758
1.38013
1.37377
1.47572
1.45824
1.44547
1.42954
1.41689
1.40529
1.39531
1.38648
1.37864
1.37188
1.48076
1.4594
1.44632
1.42912
1.41586
1.40371
1.39336
1.38422
1.37623
1.36928
1.41544
1.41316
1.41089
1.40864
1.40643
1.40432
1.40241
1.40077
1.39945
1.39849
1.41711
1.41517
1.41232
1.4091
1.40581
1.40265
1.39975
1.39721
1.39512
1.39339
1.41995
1.41748
1.4136
1.4092
1.40478
1.4006
1.3968
1.39345
1.39061
1.38819
1.42388
1.42103
1.41629
1.41081
1.40532
1.40012
1.39535
1.39108
1.38735
1.38412
1.42895
1.42569
1.42012
1.41352
1.40695
1.40073
1.39502
1.38986
1.38526
1.38136
1.43579
1.4318
1.42537
1.41752
1.40984
1.40262
1.39601
1.39004
1.38466
1.38005
1.44243
1.43707
1.42975
1.42043
1.41163
1.40339
1.39592
1.3892
1.38311
1.37798
1.45136
1.44383
1.43581
1.42493
1.41517
1.406
1.3978
1.39044
1.38381
1.37811
1.45744
1.44739
1.43891
1.42665
1.41606
1.40604
1.39719
1.3893
1.38226
1.37619
1.4613
1.44851
1.43952
1.42613
1.41496
1.40443
1.39524
1.38706
1.37986
1.37361
1.41015
1.40857
1.40728
1.40608
1.40487
1.40368
1.40257
1.4016
1.4008
1.40021
1.41087
1.41004
1.4086
1.4068
1.40481
1.4028
1.4009
1.39919
1.39777
1.39658
1.41259
1.41156
1.40954
1.40694
1.40409
1.40124
1.39853
1.39608
1.39397
1.39216
1.4154
1.41428
1.41172
1.40828
1.40453
1.40075
1.39714
1.39382
1.39091
1.38836
1.41939
1.41817
1.41506
1.41072
1.40601
1.40129
1.39677
1.3926
1.38885
1.38566
1.42495
1.42344
1.41971
1.41438
1.40867
1.403
1.39761
1.39263
1.38813
1.38424
1.43022
1.42802
1.4236
1.41708
1.41034
1.40368
1.39744
1.39172
1.3865
1.38209
1.43768
1.43424
1.42922
1.42143
1.41374
1.4062
1.39922
1.39284
1.38708
1.38211
1.44258
1.43764
1.43213
1.4231
1.41455
1.40617
1.39855
1.39167
1.3855
1.38018
1.44517
1.43845
1.43249
1.42252
1.41344
1.40459
1.39665
1.38949
1.38315
1.37764
1.40687
1.40559
1.40479
1.40414
1.40349
1.40285
1.40223
1.40167
1.40121
1.40086
1.40703
1.40668
1.40594
1.40493
1.40376
1.40254
1.40134
1.40025
1.39933
1.39855
1.40803
1.40766
1.40663
1.40512
1.40333
1.40144
1.39958
1.39785
1.39634
1.39505
1.40987
1.40955
1.40821
1.40612
1.40362
1.40096
1.39832
1.39584
1.39363
1.39169
1.41288
1.41265
1.41096
1.4082
1.40492
1.40144
1.39799
1.39472
1.39176
1.38923
1.41725
1.41701
1.41492
1.41141
1.4073
1.40297
1.39871
1.39469
1.39103
1.38784
1.42124
1.42076
1.41819
1.41378
1.40876
1.40355
1.39849
1.39375
1.3894
1.38571
1.42734
1.42629
1.42325
1.41785
1.41198
1.40595
1.40017
1.39481
1.38993
1.3857
1.43107
1.42923
1.42572
1.4193
1.41262
1.40584
1.39946
1.39362
1.38833
1.38378
1.43256
1.42969
1.42583
1.41868
1.41153
1.40432
1.39764
1.39153
1.38607
1.38134
1.40479
1.40365
1.4031
1.40274
1.4024
1.40206
1.40172
1.40142
1.40115
1.40095
1.40459
1.40445
1.40408
1.40353
1.40286
1.40214
1.40142
1.40075
1.40018
1.39967
1.40524
1.40516
1.40463
1.40375
1.40265
1.40143
1.40019
1.39902
1.39798
1.39709
1.40634
1.40637
1.40568
1.40441
1.40278
1.40095
1.39908
1.39729
1.39568
1.39425
1.40854
1.40872
1.40784
1.40611
1.40387
1.40137
1.3988
1.39633
1.39406
1.39213
1.41189
1.41221
1.41109
1.40883
1.40593
1.40271
1.39944
1.39629
1.3934
1.39087
1.41478
1.41511
1.41369
1.41077
1.40713
1.40316
1.39916
1.39535
1.39183
1.38883
1.41971
1.41987
1.41812
1.41447
1.41011
1.40542
1.40078
1.39638
1.39237
1.38886
1.42237
1.42217
1.42002
1.41558
1.41053
1.40519
1.40001
1.39518
1.39077
1.38697
1.42304
1.42231
1.41991
1.41493
1.40948
1.40377
1.3983
1.39322
1.38863
1.38466
1.40346
1.4024
1.40198
1.40177
1.40159
1.40141
1.40124
1.40107
1.40093
1.40081
1.40304
1.40301
1.40283
1.40253
1.40216
1.40175
1.40133
1.40094
1.40059
1.40027
1.40353
1.40355
1.40328
1.40278
1.40211
1.40134
1.40054
1.39977
1.39909
1.39849
1.40411
1.40424
1.40389
1.40312
1.40207
1.40085
1.39957
1.39832
1.39718
1.39616
1.4057
1.40601
1.40555
1.40446
1.40296
1.4012
1.39935
1.39754
1.39586
1.39443
1.40824
1.40873
1.40815
1.4067
1.40469
1.40235
1.39991
1.39752
1.39531
1.39336
1.41023
1.41085
1.41009
1.40818
1.40559
1.40264
1.39957
1.3966
1.39383
1.39146
1.4142
1.41486
1.41389
1.41147
1.4083
1.40474
1.40112
1.39763
1.39442
1.39159
1.41592
1.41643
1.41518
1.41219
1.40847
1.40439
1.4003
1.39642
1.39283
1.38975
1.41602