/*--------------------------------*- C++ -*----------------------------------*\
| =========                 |                                                 |
| \\      /  F ield         | foam-extend: Open Source CFD                    |
|  \\    /   O peration     | Version:     4.0                                |
|   \\  /    A nd           | Web:         http://www.foam-extend.org         |
|    \\/     M anipulation  |                                                 |
\*---------------------------------------------------------------------------*/
FoamFile
{
    version     2.0;
    format      ascii;
    class       volScalarField;
    location    "600";
    object      T;
}
// * * * * * * * * * * * * * * * * * * * * * * * * * * * * * * * * * * * * * //

dimensions      [0 0 0 1 0 0 0];

internalField   nonuniform List<scalar> 
34480
(
279.504
279.065
278.619
278.149
277.626
277.053
276.552
276.51
277.491
281.111
278.949
278.435
277.928
277.417
276.853
276.185
275.441
274.881
274.95
277.575
278.906
278.333
277.759
277.167
276.515
275.722
274.753
273.789
273.142
274.786
279.032
278.348
277.652
276.926
276.137
275.2
274.033
272.728
271.442
272.163
279.168
278.383
277.575
276.727
275.805
274.727
273.38
271.767
269.889
269.759
279.366
278.497
277.6
276.653
275.62
274.423
272.925
271.041
268.611
267.642
279.514
278.585
277.626
276.614
275.507
274.225
272.613
270.49
267.522
265.698
279.673
278.708
277.718
276.674
275.535
274.22
272.56
270.268
266.792
264.054
279.754
278.776
277.769
276.698
275.521
274.169
272.472
270.052
266.05
262.371
280.561
279.587
278.575
277.498
276.324
274.996
273.346
270.938
266.467
261.63
280.861
280.678
280.571
280.56
280.672
280.956
281.492
282.38
283.864
286.87
279.843
279.565
279.355
279.239
279.238
279.393
279.798
280.59
281.971
285.115
279.445
279.099
278.807
278.586
278.46
278.461
278.675
279.278
280.485
283.713
279.269
278.825
278.425
278.081
277.819
277.672
277.72
278.146
279.164
282.385
279.149
278.621
278.128
277.679
277.298
277.021
276.922
277.178
278.001
281.169
279.123
278.527
277.963
277.434
276.96
276.578
276.355
276.458
277.101
280.234
279.087
278.445
277.836
277.256
276.721
276.263
275.94
275.893
276.335
279.364
279.11
278.444
277.813
277.208
276.642
276.141
275.752
275.578
275.793
278.607
279.117
278.443
277.803
277.18
276.584
276.039
275.588
275.301
275.243
277.704
279.843
279.168
278.52
277.892
277.296
276.755
276.301
275.969
275.605
277.404
281.947
281.849
281.837
281.925
282.135
282.497
283.05
283.837
284.931
286.467
280.784
280.597
280.49
280.488
280.621
280.936
281.497
282.389
283.726
285.685
280.262
279.998
279.807
279.71
279.737
279.94
280.407
281.271
282.707
285.054
279.983
279.626
279.332
279.12
279.025
279.104
279.462
280.27
281.761
284.44
279.788
279.349
278.964
278.65
278.444
278.404
278.648
279.376
280.876
283.818
279.702
279.193
278.734
278.339
278.04
277.898
278.036
278.674
280.149
283.286
279.62
279.062
278.553
278.1
277.732
277.51
277.551
278.084
279.49
282.743
279.604
279.017
278.478
277.991
277.579
277.298
277.261
277.685
278.978
282.258
279.575
278.979
278.429
277.923
277.476
277.141
277.022
277.329
278.465
281.72
280.242
279.646
279.088
278.574
278.126
277.789
277.639
277.857
278.788
281.887
282.705
282.658
282.685
282.795
282.999
283.305
283.719
284.235
284.838
285.558
281.537
281.419
281.381
281.439
281.616
281.937
282.433
283.128
284.039
285.14
280.957
280.767
280.656
280.643
280.755
281.03
281.521
282.288
283.389
284.847
280.61
280.335
280.134
280.028
280.05
280.251
280.705
281.512
282.778
284.59
280.357
280.005
279.72
279.524
279.456
279.573
279.971
280.785
282.175
284.307
280.22
279.799
279.443
279.17
279.021
279.059
279.394
280.196
281.681
284.097
280.097
279.626
279.218
278.887
278.673
278.641
278.911
279.675
281.208
283.848
280.048
279.544
279.102
278.732
278.47
278.381
278.587
279.294
280.825
283.623
280.001
279.485
279.029
278.639
278.342
278.2
278.332
278.954
280.428
283.349
280.627
280.109
279.642
279.242
278.935
278.782
278.881
279.43
280.777
283.729
283.169
283.145
283.177
283.266
283.415
283.625
283.889
284.187
284.476
284.747
282.096
282.023
282.017
282.088
282.247
282.505
282.871
283.344
283.906
284.497
281.528
281.395
281.334
281.361
281.493
281.754
282.166
282.748
283.499
284.356
281.157
280.95
280.817
280.777
280.856
281.087
281.517
282.188
283.127
284.275
280.872
280.595
280.391
280.279
280.294
280.48
280.902
281.634
282.741
284.179
280.701
280.36
280.09
279.912
279.865
280.001
280.402
281.176
282.433
284.15
280.55
280.158
279.839
279.607
279.505
279.591
279.961
280.751
282.121
284.086
280.475
280.049
279.694
279.424
279.277
279.316
279.647
280.427
281.87
284.042
280.413
279.973
279.601
279.31
279.133
279.129
279.406
280.141
281.602
283.951
281.001
280.557
280.173
279.869
279.679
279.661
279.914
280.607
282.015
284.467
283.421
283.408
283.431
283.492
283.589
283.719
283.875
284.034
284.152
284.199
282.487
282.442
282.448
282.51
282.633
282.817
283.064
283.363
283.696
284.021
281.976
281.885
281.854
281.895
282.015
282.227
282.538
282.945
283.431
283.938
281.615
281.464
281.379
281.377
281.473
281.689
282.044
282.553
283.204
283.927
281.323
281.111
280.969
280.914
280.972
281.173
281.554
282.147
282.962
283.914
281.135
280.864
280.666
280.559
280.575
280.753
281.147
281.811
282.784
283.974
280.967
280.648
280.404
280.252
280.227
280.377
280.769
281.482
282.593
284.011
280.875
280.522
280.244
280.056
279.995
280.113
280.491
281.229
282.447
284.07
280.8
280.431
280.136
279.928
279.842
279.93
280.278
281.008
282.285
284.09
281.356
280.981
280.671
280.45
280.35
280.426
280.759
281.476
282.752
284.679
283.53
283.522
283.536
283.573
283.631
283.706
283.793
283.872
283.902
283.831
282.742
282.715
282.723
282.769
282.854
282.977
283.133
283.316
283.51
283.693
282.313
282.251
282.237
282.276
282.372
282.53
282.748
283.02
283.328
283.635
281.986
281.878
281.826
281.84
281.932
282.11
282.383
282.748
283.187
283.646
281.707
281.547
281.451
281.431
281.505
281.69
282.004
282.456
283.033
283.664
281.517
281.307
281.165
281.107
281.157
281.34
281.686
282.219
282.939
283.758
281.342
281.088
280.907
280.814
280.837
281.01
281.376
281.974
282.829
283.836
281.242
280.954
280.742
280.619
280.616
280.774
281.145
281.789
282.758
283.944
281.159
280.854
280.624
280.483
280.462
280.602
280.965
281.625
282.67
284.017
281.685
281.373
281.13
280.975
280.941
281.072
281.429
282.098
283.17
284.626
283.554
283.548
283.556
283.576
283.609
283.65
283.697
283.733
283.718
283.585
282.898
282.881
282.887
282.918
282.973
283.05
283.146
283.255
283.369
283.474
282.555
282.514
282.508
282.539
282.61
282.72
282.867
283.044
283.238
283.428
282.276
282.199
282.168
282.188
282.265
282.402
282.6
282.853
283.145
283.441
282.022
281.905
281.842
281.841
281.914
282.069
282.313
282.644
283.044
283.465
281.844
281.684
281.585
281.559
281.621
281.788
282.073
282.481
283
283.563
281.672
281.474
281.343
281.291
281.339
281.509
281.825
282.303
282.939
283.65
281.571
281.342
281.183
281.109
281.141
281.308
281.644
282.175
282.916
283.772
281.484
281.237
281.062
280.972
280.991
281.152
281.494
282.056
282.874
283.859
281.984
281.729
281.541
281.44
281.45
281.605
281.949
282.53
283.388
284.46
283.531
283.526
283.53
283.541
283.559
283.581
283.605
283.618
283.583
283.417
282.985
282.974
282.978
282.997
283.031
283.077
283.135
283.199
283.266
283.329
282.723
282.695
282.692
282.715
282.764
282.838
282.934
283.047
283.169
283.289
282.494
282.441
282.422
282.441
282.5
282.601
282.74
282.911
283.103
283.297
282.275
282.191
282.149
282.158
282.221
282.343
282.525
282.76
283.034
283.317
282.117
281.997
281.93
281.922
281.984
282.125
282.348
282.651
283.018
283.406
281.955
281.803
281.71
281.685
281.743
281.895
282.154
282.521
282.983
283.484
281.86
281.681
281.566
281.524
281.574
281.732
282.017
282.438
282.99
283.602
281.772
281.576
281.446
281.392
281.434
281.593
281.893
282.35
282.969
283.679
282.247
282.044
281.903
281.84
281.876
282.034
282.341
282.822
283.482
284.257
283.487
283.483
283.484
283.49
283.499
283.511
283.523
283.525
283.481
283.298
283.028
283.02
283.022
283.033
283.053
283.081
283.115
283.153
283.192
283.232
282.834
282.816
282.814
282.83
282.862
282.909
282.971
283.042
283.12
283.198
282.654
282.617
282.606
282.621
282.664
282.734
282.829
282.943
283.07
283.199
282.472
282.413
282.386
282.397
282.447
282.539
282.669
282.833
283.019
283.211
282.338
282.251
282.205
282.207
282.262
282.374
282.542
282.761
283.017
283.285
282.191
282.078
282.013
282.004
282.06
282.188
282.391
282.664
282.995
283.346
282.109
281.972
281.889
281.87
281.924
282.063
282.293
282.616
283.017
283.451
282.021
281.869
281.775
281.746
281.797
281.941
282.19
282.547
283.005
283.51
282.474
282.316
282.212
282.176
282.224
282.37
282.629
283.011
283.505
284.055
283.436
283.432
283.433
283.435
283.44
283.446
283.452
283.449
283.403
283.212
283.043
283.039
283.039
283.046
283.057
283.073
283.093
283.115
283.14
283.166
282.906
282.894
282.893
282.902
282.923
282.953
282.991
283.036
283.086
283.139
282.767
282.742
282.735
282.746
282.776
282.823
282.886
282.961
283.045
283.133
282.622
282.581
282.564
282.573
282.612
282.677
282.769
282.88
283.006
283.137
282.513
282.451
282.421
282.427
282.472
282.556
282.679
282.833
283.01
283.195
282.384
282.301
282.256
282.256
282.306
282.407
282.56
282.759
282.992
283.237
282.317
282.215
282.158
282.151
282.202
282.316
282.496
282.735
283.022
283.328
282.232
282.117
282.05
282.037
282.088
282.21
282.407
282.678
283.009
283.364
282.664
282.544
282.469
282.451
282.501
282.627
282.836
283.129
283.489
283.873
283.385
283.382
283.382
283.383
283.386
283.389
283.392
283.387
283.342
283.149
283.044
283.041
283.041
283.045
283.051
283.06
283.072
283.086
283.101
283.119
282.951
282.943
282.942
282.948
282.961
282.979
283.003
283.031
283.064
283.101
282.844
282.828
282.823
282.831
282.851
282.882
282.923
282.972
283.027
283.088
282.734
282.705
282.694
282.702
282.73
282.775
282.838
282.912
282.997
283.088
282.649
282.606
282.586
282.593
282.627
282.689
282.776
282.882
283.003
283.131
282.537
282.478
282.448
282.452
282.492
282.569
282.681
282.822
282.983
283.154
282.49
282.415
282.376
282.376
282.42
282.509
282.644
282.817
283.018
283.232
282.406
282.321
282.274
282.271
282.316
282.414
282.565
282.764
282.998
283.246
282.817
282.728
282.675
282.669
282.715
282.818
282.98
283.197
283.453
283.718
283.338
283.336
283.335
283.336
283.337
283.339
283.34
283.335
283.294
283.103
283.038
283.036
283.035
283.037
283.041
283.046
283.053
283.062
283.072
283.086
282.98
282.975
282.974
282.977
282.985
282.996
283.011
283.029
283.051
283.078
282.896
282.886
282.883
282.888
282.9
282.92
282.947
282.978
283.015
283.059
282.816
282.797
282.789
282.795
282.814
282.845
282.886
282.936
282.992
283.056
282.753
282.723
282.71
282.716
282.741
282.784
282.844
282.916
282.998
283.087
282.657
282.615
282.595
282.6
282.631
282.687
282.766
282.864
282.974
283.094
282.629
282.576
282.55
282.553
282.588
282.655
282.753
282.875
283.014
283.163
282.546
282.485
282.453
282.454
282.492
282.567
282.678
282.82
282.983
283.154
282.936
282.872
282.836
282.836
282.875
282.955
283.076
283.232
283.41
283.59
283.296
283.294
283.294
283.294
283.295
283.296
283.297
283.292
283.255
283.07
283.028
283.026
283.026
283.027
283.029
283.032
283.036
283.042
283.049
283.06
282.999
282.996
282.995
282.997
283.001
283.008
283.017
283.028
283.044
283.065
282.93
282.923
282.921
282.924
282.932
282.945
282.961
282.981
283.006
283.039
282.875
282.862
282.858
282.862
282.874
282.894
282.921
282.953
282.991
283.036
282.83
282.81
282.801
282.806
282.824
282.853
282.893
282.941
282.995
283.058
282.747
282.719
282.706
282.71
282.733
282.772
282.827
282.893
282.967
283.051
282.741
282.704
282.686
282.691
282.717
282.766
282.834
282.918
283.012
283.115
282.656
282.612
282.591
282.594
282.623
282.679
282.758
282.857
282.968
283.085
283.025
282.98
282.956
282.958
282.989
283.049
283.136
283.245
283.367
283.487
283.26
283.258
283.258
283.258
283.259
283.259
283.26
283.256
283.225
283.049
283.016
283.015
283.015
283.015
283.016
283.018
283.021
283.025
283.03
283.04
283.013
283.011
283.011
283.012
283.014
283.018
283.024
283.031
283.042
283.059
282.951
282.946
282.945
282.947
282.952
282.96
282.97
282.983
282.999
283.024
282.917
282.909
282.906
282.909
282.917
282.93
282.947
282.967
282.992
283.025
282.886
282.873
282.867
282.871
282.883
282.902
282.929
282.96
282.995
283.04
282.815
282.796
282.787
282.791
282.807
282.834
282.87
282.914
282.963
283.021
282.829
282.804
282.793
282.797
282.816
282.85
282.897
282.953
283.015
283.086
282.737
282.707
282.694
282.697
282.719
282.758
282.813
282.88
282.954
283.033
283.087
283.057
283.041
283.044
283.067
283.11
283.171
283.245
283.326
283.405
283.23
283.229
283.229
283.229
283.229
283.23
283.23
283.228
283.203
283.04
283.003
283.002
283.002
283.002
283.003
283.004
283.006
283.008
283.013
283.021
283.026
283.025
283.024
283.025
283.026
283.029
283.032
283.037
283.045
283.058
282.963
282.96
282.959
282.96
282.963
282.968
282.974
282.982
282.994
283.013
282.947
282.942
282.94
282.942
282.947
282.955
282.966
282.979
282.995
283.019
282.926
282.917
282.914
282.916
282.924
282.937
282.953
282.973
282.996
283.028
282.864
282.852
282.846
282.849
282.86
282.877
282.901
282.929
282.961
283.002
282.899
282.882
282.875
282.879
282.892
282.915
282.946
282.983
283.023
283.071
282.796
282.775
282.767
282.77
282.785
282.812
282.849
282.893
282.941
282.994
283.129
283.109
283.099
283.102
283.119
283.148
283.189
283.238
283.291
283.341
283.212
283.211
283.211
283.211
283.211
283.211
283.211
283.21
283.192
283.048
282.987
282.987
282.987
282.987
282.987
282.988
282.989
282.991
282.994
283.001
283.038
283.038
283.038
283.038
283.039
283.04
283.042
283.045
283.051
283.062
282.97
282.968
282.967
282.968
282.969
282.972
282.976
282.981
282.988
283.003
282.967
282.964
282.963
282.964
282.967
282.972
282.979
282.987
282.997
283.015
282.952
282.946
282.944
282.946
282.951
282.959
282.97
282.982
282.997
283.019
282.899
282.891
282.888
282.89
282.897
282.908
282.923
282.941
282.961
282.988
282.952
282.942
282.938
282.94
282.949
282.964
282.984
283.008
283.033
283.065
282.832
282.818
282.813
282.815
282.826
282.844
282.868
282.896
282.927
282.963
283.159
283.146
283.14
283.142
283.154
283.174
283.2
283.232
283.265
283.297
283.216
283.215
283.215
283.215
283.215
283.215
283.216
283.215
283.204
283.085
282.966
282.965
282.965
282.965
282.965
282.966
282.966
282.968
282.97
282.976
283.05
283.05
283.05
283.05
283.051
283.052
283.053
283.055
283.059
283.068
282.973
282.972
282.971
282.972
282.972
282.974
282.976
282.979
282.983
282.994
282.98
282.978
282.977
282.978
282.98
282.983
282.987
282.992
282.999
283.011
282.967
282.963
282.962
282.963
282.966
282.971
282.978
282.986
282.995
283.01
282.922
282.917
282.915
282.916
282.921
282.928
282.937
282.948
282.96
282.979
282.987
282.98
282.978
282.98
282.986
282.996
283.009
283.024
283.04
283.061
282.845
282.836
282.833
282.835
282.842
282.853
282.868
282.886
282.905
282.93
283.191
283.183
283.179
283.181
283.189
283.202
283.219
283.24
283.26
283.28
283.259
283.259
283.26
283.26
283.26
283.261
283.262
283.262
283.258
283.176
282.93
282.929
282.929
282.929
282.929
282.929
282.929
282.929
282.93
282.934
283.054
283.054
283.055
283.055
283.056
283.057
283.058
283.06
283.063
283.07
282.975
282.975
282.974
282.975
282.975
282.976
282.977
282.979
282.981
282.988
282.986
282.985
282.984
282.985
282.986
282.989
282.991
282.995
282.999
283.007
282.973
282.971
282.97
282.971
282.973
282.977
282.981
282.986
282.992
283.002
282.936
282.933
282.931
282.932
282.935
282.94
282.946
282.953
282.96
282.972
282.995
282.991
282.989
282.991
282.995
283.002
283.011
283.021
283.033
283.047
282.828
282.823
282.821
282.822
282.827
282.834
282.844
282.856
282.867
282.883
283.245
283.239
283.237
283.238
283.243
283.252
283.263
283.277
283.291
283.305
283.337
283.337
283.338
283.339
283.341
283.343
283.345
283.349
283.352
283.324
282.875
282.875
282.874
282.874
282.873
282.872
282.871
282.87
282.869
282.868
283.048
283.048
283.049
283.049
283.05
283.051
283.053
283.055
283.057
283.063
282.981
282.98
282.98
282.98
282.981
282.981
282.982
282.983
282.985
282.988
282.99
282.989
282.989
282.99
282.991
282.993
282.995
282.998
283.001
283.006
282.977
282.975
282.975
282.976
282.977
282.98
282.983
282.987
282.992
282.998
282.945
282.943
282.942
282.943
282.945
282.949
282.953
282.958
282.964
282.97
282.978
282.975
282.974
282.975
282.978
282.983
282.99
282.998
283.008
283.02
282.784
282.78
282.779
282.78
282.783
282.789
282.796
282.804
282.811
282.819
283.316
283.311
283.309
283.31
283.314
283.32
283.329
283.34
283.351
283.363
292.336
296.923
297.976
295.7
291.611
296.562
297.851
295.911
291.572
296.819
298.416
297.347
291.515
296.989
298.946
298.758
291.505
297.123
299.394
299.799
291.369
296.946
299.283
299.621
291.244
296.748
299.153
299.645
291.175
296.578
299.054
299.799
290.895
296.213
298.8
299.872
290.713
295.977
298.731
300.225
292.017
293.513
293.758
292.815
291.576
293.272
293.578
292.654
291.746
293.601
294.102
293.32
291.981
293.991
294.692
294.133
292.277
294.415
295.265
294.888
292.823
295.041
295.97
295.754
293.302
295.54
296.491
296.365
293.721
295.937
296.877
296.789
293.86
296.071
297.048
297.07
293.916
296.232
297.389
297.678
288.414
289.087
289.299
288.979
287.884
288.758
289.037
288.686
288.031
289.034
289.397
289.155
288.317
289.451
289.925
289.801
288.665
289.917
290.488
290.443
289.123
290.464
291.087
291.078
289.568
290.982
291.651
291.702
290.022
291.486
292.197
292.33
290.318
291.802
292.566
292.819
290.755
292.22
293.104
293.613
286.728
286.99
287.101
287.061
286.095
286.525
286.691
286.61
286.178
286.698
286.932
286.906
286.411
287.03
287.343
287.374
286.695
287.41
287.793
287.876
287.114
287.917
288.364
288.501
287.534
288.416
288.922
289.119
287.986
288.934
289.495
289.762
288.375
289.359
289.971
290.332
289.108
290.063
290.745
291.299
285.608
285.685
285.751
285.807
284.939
285.161
285.27
285.269
284.984
285.263
285.421
285.462
285.166
285.514
285.728
285.817
285.389
285.807
286.078
286.213
285.732
286.22
286.546
286.732
286.084
286.638
287.019
287.259
286.481
287.095
287.528
287.827
286.835
287.488
287.969
288.346
287.562
288.196
288.731
289.279
284.942
284.931
284.97
285.058
284.253
284.376
284.444
284.459
284.273
284.433
284.536
284.581
284.413
284.62
284.763
284.845
284.589
284.845
285.031
285.151
284.878
285.186
285.415
285.575
285.176
285.534
285.807
286.009
285.519
285.925
286.24
286.486
285.829
286.265
286.615
286.919
286.539
286.961
287.345
287.779
284.52
284.463
284.485
284.587
283.825
283.896
283.938
283.951
283.83
283.926
283.992
284.026
283.935
284.063
284.157
284.217
284.071
284.233
284.358
284.446
284.308
284.506
284.664
284.783
284.552
284.786
284.976
285.126
284.841
285.109
285.33
285.512
285.096
285.385
285.63
285.854
285.765
286.046
286.314
286.63
284.243
284.16
284.173
284.282
283.556
283.598
283.624
283.632
283.549
283.61
283.651
283.673
283.625
283.707
283.768
283.808
283.726
283.832
283.915
283.975
283.918
284.049
284.156
284.238
284.114
284.27
284.399
284.504
284.353
284.533
284.684
284.811
284.553
284.746
284.914
285.068
285.176
285.365
285.547
285.763
284.052
283.954
283.961
284.075
283.383
283.41
283.425
283.429
283.369
283.408
283.434
283.446
283.419
283.474
283.513
283.538
283.492
283.562
283.617
283.656
283.644
283.733
283.804
283.858
283.795
283.901
283.989
284.059
283.991
284.112
284.215
284.3
284.139
284.269
284.382
284.485
284.715
284.842
284.964
285.108
283.913
283.804
283.808
283.926
283.27
283.288
283.297
283.298
283.253
283.279
283.295
283.301
283.283
283.32
283.345
283.359
283.332
283.38
283.416
283.44
283.45
283.511
283.558
283.593
283.561
283.634
283.693
283.739
283.719
283.802
283.872
283.928
283.823
283.912
283.988
284.055
284.351
284.436
284.519
284.613
283.805
283.69
283.692
283.813
283.195
283.207
283.213
283.211
283.179
283.197
283.207
283.209
283.193
283.219
283.236
283.242
283.224
283.258
283.281
283.295
283.313
283.355
283.387
283.408
283.39
283.441
283.481
283.509
283.516
283.575
283.621
283.657
283.582
283.645
283.696
283.738
284.064
284.122
284.178
284.239
283.718
283.597
283.598
283.723
283.143
283.152
283.155
283.153
283.132
283.145
283.152
283.15
283.134
283.153
283.163
283.165
283.152
283.176
283.192
283.198
283.218
283.248
283.269
283.281
283.266
283.302
283.329
283.345
283.368
283.41
283.441
283.463
283.402
283.446
283.48
283.506
283.84
283.88
283.917
283.956
283.644
283.519
283.52
283.647
283.106
283.113
283.115
283.112
283.103
283.113
283.117
283.114
283.095
283.109
283.116
283.115
283.105
283.123
283.133
283.135
283.153
283.175
283.189
283.194
283.177
283.204
283.221
283.23
283.263
283.293
283.314
283.326
283.269
283.3
283.323
283.338
283.667
283.694
283.718
283.744
283.578
283.451
283.452
283.58
283.078
283.084
283.085
283.081
283.086
283.094
283.097
283.093
283.068
283.08
283.084
283.081
283.076
283.09
283.096
283.095
283.11
283.127
283.136
283.137
283.115
283.135
283.147
283.15
283.191
283.213
283.227
283.233
283.171
283.195
283.21
283.217
283.533
283.551
283.568
283.584
283.517
283.391
283.391
283.518
283.055
283.061
283.062
283.058
283.077
283.084
283.086
283.081
283.05
283.059
283.061
283.057
283.058
283.069
283.073
283.07
283.081
283.094
283.1
283.099
283.073
283.088
283.095
283.095
283.145
283.162
283.171
283.172
283.101
283.118
283.128
283.13
283.432
283.444
283.455
283.464
283.46
283.338
283.338
283.461
283.035
283.04
283.041
283.037
283.075
283.081
283.082
283.077
283.035
283.043
283.045
283.04
283.047
283.056
283.059
283.054
283.062
283.073
283.076
283.073
283.043
283.055
283.06
283.058
283.118
283.131
283.137
283.135
283.048
283.062
283.069
283.068
283.356
283.364
283.371
283.376
283.409
283.295
283.295
283.409
283.014
283.019
283.019
283.015
283.077
283.083
283.083
283.079
283.023
283.03
283.031
283.026
283.039
283.047
283.049
283.044
283.048
283.057
283.059
283.055
283.023
283.033
283.036
283.032
283.104
283.114
283.117
283.114
283.007
283.018
283.022
283.019
283.304
283.31
283.314
283.317
283.373
283.274
283.274
283.373
282.987
282.991
282.991
282.988
283.081
283.087
283.087
283.082
283.012
283.018
283.018
283.013
283.032
283.039
283.04
283.035
283.035
283.042
283.044
283.039
283.007
283.015
283.017
283.012
283.093
283.101
283.103
283.099
282.967
282.976
282.979
282.975
283.283
283.287
283.289
283.291
283.372
283.299
283.299
283.372
282.943
282.946
282.947
282.944
283.081
283.086
283.086
283.082
283.002
283.007
283.007
283.003
283.024
283.03
283.03
283.026
283.022
283.028
283.029
283.025
282.993
282.999
283.001
282.997
283.073
283.08
283.082
283.078
282.914
282.921
282.923
282.919
283.306
283.309
283.31
283.311
283.407
283.375
283.375
283.407
282.874
282.875
282.875
282.874
283.072
283.076
283.076
283.072
282.997
283.001
283.001
282.998
283.018
283.022
283.022
283.019
283.012
283.017
283.017
283.014
282.985
282.989
282.99
282.987
283.043
283.049
283.05
283.046
282.838
282.843
282.844
282.841
283.368
283.37
283.371
283.371
287.954
285.115
283.809
283.035
282.413
281.839
281.31
280.827
280.374
279.938
288.353
286.06
284.544
283.438
282.545
281.804
281.153
280.558
280.002
279.469
289.616
287.097
285.17
283.924
282.897
282.056
281.319
280.652
280.036
279.466
291.026
288.192
286.106
284.705
283.563
282.619
281.786
281.027
280.324
279.68
292.297
289.226
286.997
285.439
284.19
283.148
282.226
281.384
280.602
279.898
293.995
290.308
287.923
286.206
284.849
283.71
282.704
281.786
280.929
280.167
295.508
291.244
288.713
286.842
285.387
284.158
283.076
282.091
281.174
280.371
296.868
292.13
289.459
287.444
285.895
284.58
283.429
282.384
281.415
280.569
297.96
292.874
290.086
287.947
286.299
284.889
283.662
282.556
281.548
280.667
299.28
294.123
291.279
289.075
287.336
285.853
284.563
283.4
282.344
281.41
289.116
286.827
285.334
284.223
283.378
282.719
282.189
281.755
281.397
281.102
289.053
286.68
284.98
283.741
282.812
282.089
281.495
280.993
280.557
280.177
289.387
286.849
284.968
283.691
282.718
281.946
281.3
280.742
280.254
279.828
289.954
287.325
285.353
284.02
282.975
282.131
281.41
280.778
280.217
279.726
290.569
287.874
285.805
284.378
283.25
282.328
281.535
280.837
280.212
279.668
291.429
288.551
286.353
284.805
283.589
282.588
281.729
280.97
280.289
279.696
292.333
289.122
286.807
285.126
283.833
282.762
281.849
281.042
280.319
279.696
293.307
289.643
287.253
285.438
284.085
282.952
281.995
281.151
280.398
279.747
294.172
290.012
287.626
285.684
284.284
283.089
282.091
281.213
280.441
279.771
295.446
290.82
288.593
286.574
285.142
283.9
282.867
281.954
281.156
280.458
287.402
286.323
285.448
284.694
284.045
283.495
283.036
282.657
282.353
282.117
287.502
286.204
285.09
284.158
283.383
282.738
282.199
281.744
281.363
281.044
287.839
286.371
285.086
284.057
283.209
282.505
281.909
281.398
280.958
280.582
288.364
286.802
285.396
284.283
283.359
282.584
281.918
281.335
280.822
280.378
288.931
287.306
285.777
284.568
283.562
282.712
281.975
281.326
280.748
280.247
289.723
287.935
286.272
284.947
283.852
282.924
282.119
281.408
280.771
280.217
290.552
288.49
286.698
285.247
284.071
283.071
282.208
281.446
280.764
280.174
291.449
289
287.115
285.537
284.295
283.233
282.325
281.524
280.809
280.189
292.267
289.337
287.439
285.734
284.441
283.322
282.377
281.547
280.817
280.178
293.481
290.073
288.32
286.537
285.222
284.068
283.099
282.244
281.494
280.834
286.074
285.653
285.185
284.704
284.252
283.85
283.505
283.217
282.988
282.817
286.211
285.54
284.841
284.187
283.603
283.094
282.657
282.286
281.978
281.728
286.502
285.704
284.86
284.096
283.424
282.841
282.336
281.899
281.526
281.212
286.984
286.097
285.137
284.278
283.521
282.86
282.279
281.769
281.322
280.938
287.514
286.554
285.481
284.523
283.679
282.938
282.285
281.706
281.192
280.749
288.211
287.136
285.942
284.87
283.933
283.112
282.388
281.744
281.168
280.669
288.939
287.668
286.352
285.157
284.134
283.237
282.45
281.752
281.128
280.588
289.739
288.17
286.758
285.438
284.341
283.379
282.543
281.805
281.145
280.572
290.496
288.517
287.078
285.627
284.474
283.454
282.581
281.813
281.136
280.543
291.667
289.27
287.929
286.396
285.219
284.166
283.271
282.481
281.786
281.172
285.026
284.943
284.739
284.473
284.198
283.939
283.708
283.512
283.355
283.241
285.136
284.816
284.422
284.012
283.617
283.254
282.93
282.65
282.418
282.231
285.367
284.975
284.474
283.962
283.474
283.027
282.627
282.276
281.975
281.724
285.775
285.329
284.735
284.128
283.551
283.021
282.542
282.116
281.741
281.422
286.236
285.742
285.055
284.352
283.685
283.073
282.519
282.021
281.579
281.199
286.845
286.274
285.487
284.676
283.917
283.222
282.594
282.03
281.524
281.086
287.477
286.773
285.882
284.955
284.106
283.333
282.638
282.016
281.459
280.977
288.171
287.256
286.276
285.231
284.304
283.463
282.716
282.051
281.455
280.938
288.83
287.604
286.585
285.416
284.429
283.53
282.745
282.048
281.433
280.894
289.913
288.373
287.406
286.156
285.142
284.21
283.403
282.687
282.054
281.494
284.353
284.425
284.356
284.218
284.061
283.905
283.761
283.637
283.537
283.465
284.411
284.256
284.04
283.794
283.541
283.298
283.074
282.877
282.711
282.579
284.572
284.383
284.096
283.769
283.433
283.11
282.812
282.545
282.314
282.123
284.89
284.679
284.327
283.919
283.501
283.097
282.721
282.38
282.079
281.823
285.263
285.031
284.612
284.121
283.619
283.135
282.684
282.272
281.904
281.588
285.767
285.499
285.006
284.422
283.833
283.267
282.742
282.262
281.83
281.456
286.291
285.948
285.374
284.688
284.011
283.367
282.774
282.235
281.75
281.331
286.87
286.396
285.747
284.956
284.202
283.49
282.842
282.257
281.731
281.275
287.414
286.729
286.037
285.135
284.319
283.552
282.864
282.247
281.699
281.22
288.395
287.501
286.826
285.851
285.005
284.204
283.494
282.857
282.292
281.792
283.916
284.061
284.059
283.993
283.907
283.818
283.734
283.66
283.6
283.557
283.93
283.853
283.736
283.593
283.439
283.284
283.138
283.005
282.893
282.804
284.035
283.942
283.78
283.577
283.356
283.134
282.922
282.728
282.559
282.418
284.27
284.173
283.969
283.705
283.415
283.12
282.837
282.576
282.343
282.144
284.554
284.457
284.211
283.881
283.517
283.149
282.795
282.466
282.17
281.916
284.958
284.853
284.556
284.152
283.711
283.267
282.841
282.446
282.089
281.779
285.376
285.239
284.884
284.396
283.875
283.357
282.865
282.411
282.001
281.645
285.844
285.637
285.226
284.649
284.056
283.473
282.927
282.426
281.973
281.58
286.271
285.937
285.485
284.817
284.167
283.53
282.944
282.411
281.934
281.518
287.147
286.693
286.239
285.508
284.824
284.156
283.547
282.994
282.499
282.062
283.632
283.81
283.841
283.813
283.768
283.719
283.671
283.629
283.594
283.57
283.618
283.578
283.514
283.433
283.341
283.246
283.154
283.069
282.996
282.938
283.68
283.631
283.539
283.416
283.275
283.127
282.983
282.848
282.729
282.629
283.846
283.8
283.683
283.516
283.321
283.114
282.909
282.715
282.541
282.392
284.055
284.019
283.876
283.66
283.405
283.135
282.866
282.612
282.382
282.183
284.369
284.341
284.167
283.895
283.575
283.238
282.905
282.59
282.302
282.052
284.693
284.659
284.447
284.109
283.721
283.317
282.922
282.55
282.212
281.918
285.062
284.999
284.747
284.341
283.889
283.426
282.978
282.561
282.182
281.851
285.381
285.254
284.97
284.493
283.99
283.477
282.991
282.542
282.137
281.784
286.163
285.977
285.682
285.155
284.619
284.076
283.567
283.099
282.676
282.302
283.443
283.636
283.681
283.672
283.649
283.623
283.597
283.573
283.554
283.541
283.416
283.393
283.357
283.311
283.258
283.202
283.145
283.093
283.047
283.011
283.448
283.419
283.365
283.291
283.203
283.108
283.013
282.922
282.841
282.773
283.559
283.536
283.468
283.364
283.235
283.094
282.95
282.812
282.686
282.578
283.707
283.696
283.613
283.474
283.3
283.108
282.91
282.72
282.546
282.396
283.947
283.949
283.849
283.67
283.444
283.196
282.942
282.698
282.473
282.277
284.19
284.199
284.076
283.849
283.567
283.261
282.952
282.657
282.385
282.15
284.477
284.481
284.332
284.054
283.72
283.361
283.005
282.667
282.357
282.087
284.706
284.687
284.515
284.186
283.807
283.405
283.013
282.645
282.31
282.017