/*--------------------------------*- C++ -*----------------------------------*\
| =========                 |                                                 |
| \\      /  F ield         | foam-extend: Open Source CFD                    |
|  \\    /   O peration     | Version:     4.0                                |
|   \\  /    A nd           | Web:         http://www.foam-extend.org         |
|    \\/     M anipulation  |                                                 |
\*---------------------------------------------------------------------------*/
FoamFile
{
    version     2.0;
    format      ascii;
    class       volVectorField;
    location    "600";
    object      Urel;
}
// * * * * * * * * * * * * * * * * * * * * * * * * * * * * * * * * * * * * * //

dimensions      [0 1 -1 0 0 0 0];

internalField   nonuniform List<vector> 
34480
(
(205.544 -5.29661 -19.4956)
(207.214 -6.01966 -23.9469)
(208.718 -6.52653 -29.0885)
(210.067 -6.8 -35.1727)
(211.247 -6.84156 -42.615)
(212.036 -6.63346 -51.8885)
(211.577 -6.1448 -63.341)
(207.576 -5.43309 -77.4447)
(195.218 -4.82249 -96.7674)
(163.951 -4.28272 -117.552)
(207.089 -5.81295 -26.2864)
(209.077 -5.42444 -30.2426)
(210.869 -5.0098 -34.6021)
(212.46 -4.54696 -39.6316)
(213.934 -4.04753 -45.7944)
(215.276 -3.54417 -53.7881)
(215.978 -3.04177 -64.4012)
(214.283 -2.55081 -78.4374)
(205.717 -2.39318 -99.6209)
(176.232 -2.81647 -128.183)
(207.869 -10.3358 -31.2754)
(210.128 -9.26541 -35.0042)
(212.249 -8.23222 -39.0302)
(214.244 -7.21901 -43.6166)
(216.18 -6.22795 -49.1919)
(218.148 -5.30481 -56.5666)
(219.854 -4.47485 -66.8234)
(219.824 -3.72638 -81.0818)
(214.045 -3.35943 -103.779)
(186.343 -3.73055 -138.83)
(207.92 -14.0025 -36.8161)
(210.653 -12.4717 -40.5983)
(213.283 -10.9997 -44.6655)
(215.828 -9.55421 -49.2257)
(218.316 -8.14929 -54.6895)
(220.842 -6.82838 -61.8456)
(223.248 -5.63253 -71.9361)
(224.342 -4.55499 -86.4127)
(220.549 -3.91727 -110.27)
(193.995 -4.19182 -150.184)
(207.97 -18.6137 -42.3443)
(211.121 -16.811 -46.2445)
(214.181 -15.0735 -50.4742)
(217.19 -13.3396 -55.1486)
(220.16 -11.6482 -60.6895)
(223.165 -10.043 -67.8298)
(226.124 -8.57977 -77.897)
(228.092 -7.25504 -92.6673)
(225.851 -6.41988 -117.629)
(199.985 -6.69866 -161.446)
(207.683 -22.2674 -48.9397)
(211.149 -20.178 -52.945)
(214.517 -18.1588 -57.2937)
(217.857 -16.1144 -62.0548)
(221.179 -14.0906 -67.6624)
(224.542 -12.1185 -74.7955)
(227.908 -10.2555 -84.8163)
(230.543 -8.51043 -99.8098)
(229.525 -7.30159 -125.788)
(203.987 -7.42893 -172.959)
(207.599 -27.1887 -55.3705)
(211.262 -24.9133 -59.5159)
(214.798 -22.6832 -64.0361)
(218.313 -20.3912 -68.9334)
(221.82 -18.098 -74.6414)
(225.386 -15.8221 -81.7894)
(229.025 -13.5999 -91.7331)
(232.247 -11.4028 -106.844)
(232.425 -9.60488 -133.647)
(207.429 -9.07279 -183.601)
(207.332 -30.8786 -63.0833)
(211.065 -28.3405 -67.2837)
(214.633 -25.8113 -71.8498)
(218.165 -23.1925 -76.7797)
(221.673 -20.5351 -82.4751)
(225.233 -17.8346 -89.5004)
(228.928 -15.0803 -99.1508)
(232.571 -12.207 -113.993)
(233.981 -9.57465 -141.111)
(209.996 -8.11734 -193.17)
(207.467 -36.7086 -70.0881)
(211.19 -33.9418 -74.3455)
(214.728 -31.0932 -79.0089)
(218.234 -28.1196 -84.0626)
(221.71 -25.095 -89.9097)
(225.208 -22.0034 -97.0118)
(228.832 -18.7797 -106.542)
(232.71 -15.2558 -121.069)
(235.265 -11.5291 -148.372)
(212.38 -8.4134 -201.817)
(206.469 -41.105 -78.0901)
(210.192 -38.0222 -82.2185)
(213.733 -34.8422 -86.7835)
(217.214 -31.5074 -91.7788)
(220.577 -28.0345 -97.5838)
(223.83 -24.3775 -104.618)
(227.094 -20.4324 -113.914)
(230.83 -15.9806 -127.678)
(234.565 -11.0868 -154.267)
(213.887 -6.36137 -207.86)
(198.029 5.97537 1.92998)
(199.012 4.49355 -1.36721)
(199.523 3.17847 -5.1738)
(199.445 2.07639 -9.50997)
(198.598 1.17561 -14.5552)
(196.662 0.489937 -20.4293)
(193.136 0.0170261 -27.1901)
(187.372 -0.267049 -34.6536)
(177.962 -0.42179 -41.8914)
(159.824 -0.572133 -44.5731)
(201.423 9.24077 2.16614)
(202.871 8.34988 -0.738057)
(203.931 7.43722 -4.03936)
(204.45 6.55198 -7.80159)
(204.292 5.69869 -12.2111)
(203.181 4.85695 -17.5662)
(200.515 4.00734 -24.2623)
(195.383 3.14444 -32.5683)
(186.39 2.23453 -42.4675)
(167.148 1.14748 -49.683)
(203.326 8.78595 4.3156)
(205.129 8.12437 1.67018)
(206.62 7.38797 -1.30793)
(207.709 6.59185 -4.80326)
(208.251 5.76497 -8.96391)
(208.029 4.88281 -14.1878)
(206.465 3.91849 -21.0839)
(202.431 2.85466 -30.3241)
(194.334 1.65694 -42.7798)
(174.296 0.223204 -55.1334)
(204.095 9.16158 6.07226)
(206.388 8.56489 3.52192)
(208.429 7.86467 0.614437)
(210.148 7.08097 -2.82972)
(211.39 6.23217 -7.00351)
(211.94 5.305 -12.2944)
(211.261 4.2698 -19.4295)
(208.159 3.10119 -29.4081)
(200.913 1.73153 -43.975)
(180.219 0.0523445 -61.3154)
(204.604 8.58829 7.94324)
(207.327 7.88914 5.44764)
(209.837 7.07203 2.51849)
(212.082 6.18413 -0.950636)
(213.919 5.21711 -5.22275)
(215.124 4.1629 -10.6509)
(215.194 2.98047 -18.0379)
(212.938 1.64548 -28.6706)
(206.522 0.0815633 -45.0769)
(185.249 -1.79656 -67.2287)
(204.645 9.0109 8.78389)
(207.71 8.22526 6.37374)
(210.574 7.30223 3.48755)
(213.209 6.32543 0.0585503)
(215.504 5.27704 -4.23238)
(217.223 4.16717 -9.71307)
(217.901 2.95546 -17.2313)
(216.387 1.61679 -28.3189)
(210.739 0.0342021 -46.1481)
(188.814 -1.92194 -72.5409)
(204.788 8.13251 9.83838)
(208.083 7.16374 7.48668)
(211.169 6.07299 4.59909)
(214.053 4.96061 1.17066)
(216.643 3.79121 -3.1442)
(218.729 2.58492 -8.66471)
(219.896 1.30886 -16.2496)
(219.096 -0.0394452 -27.6643)
(214.325 -1.53765 -46.6988)
(192.067 -3.36635 -77.111)
(204.669 8.51013 9.62166)
(208.076 7.42622 7.42166)
(211.258 6.24531 4.67565)
(214.251 5.06653 1.3741)
(216.978 3.86089 -2.81997)
(219.261 2.66263 -8.20878)
(220.755 1.47248 -15.6302)
(220.585 0.319292 -27.0065)
(216.844 -0.876307 -46.7696)
(194.785 -2.5128 -80.7343)
(204.81 6.74613 10.0953)
(208.228 5.48752 8.05767)
(211.426 4.21891 5.42535)
(214.465 2.99319 2.2057)
(217.293 1.75985 -1.98398)
(219.741 0.552066 -7.40729)
(221.485 -0.59729 -14.8462)
(221.828 -1.59049 -26.149)
(219.155 -2.29592 -46.5474)
(197.499 -3.32973 -83.5656)
(203.909 6.54471 9.48522)
(207.33 5.17006 7.72628)
(210.556 3.82024 5.39243)
(213.615 2.52318 2.44031)
(216.431 1.28587 -1.49001)
(218.844 0.162948 -6.68888)
(220.596 -0.77134 -13.9418)
(221.187 -1.34418 -24.7579)
(219.687 -1.39502 -45.1789)
(199.318 -1.29993 -84.1033)
(192.409 4.75123 0.74425)
(192.948 3.61778 -1.84407)
(192.981 2.62128 -4.71561)
(192.434 1.78596 -7.86022)
(191.172 1.12202 -11.2517)
(189.021 0.639983 -14.7876)
(185.76 0.324519 -18.2761)
(181.149 0.124021 -21.398)
(174.828 -0.0375558 -23.4323)
(166.113 -0.262532 -22.6343)
(196.707 7.88711 0.893802)
(197.697 7.15457 -1.57873)
(198.235 6.38543 -4.34638)
(198.187 5.62905 -7.39954)
(197.385 4.89315 -10.7874)
(195.565 4.17447 -14.4993)
(192.346 3.46212 -18.469)
(187.217 2.74089 -22.4829)
(179.479 1.99544 -25.8996)
(168.106 1.1864 -26.7431)
(199.326 7.64047 2.88814)
(200.705 7.05513 0.493652)
(201.686 6.38714 -2.19206)
(202.154 5.66155 -5.2594)
(201.939 4.90101 -8.76372)
(200.748 4.09109 -12.8226)
(198.07 3.21865 -17.518)
(193.131 2.27065 -22.7813)
(184.849 1.23527 -28.1245)
(171.208 0.0818783 -31.4657)
(200.676 8.12108 4.52873)
(202.533 7.58184 2.15016)
(204.042 6.93681 -0.549588)
(205.102 6.20208 -3.72076)
(205.515 5.40459 -7.43011)
(204.972 4.52952 -11.8623)
(202.873 3.56221 -17.217)
(198.222 2.48804 -23.6051)
(189.588 1.2858 -30.7968)
(173.883 -0.0765976 -36.9557)
(201.609 7.60369 6.38915)
(203.891 6.96579 4.01401)
(205.867 6.21401 1.23748)
(207.444 5.38103 -2.05217)
(208.423 4.47327 -5.99138)
(208.48 3.47689 -10.781)
(206.961 2.3658 -16.7304)
(202.696 1.12182 -24.1582)
(193.919 -0.276505 -33.1424)
(176.42 -1.83166 -42.412)
(201.978 8.10735 7.26589)
(204.611 7.39201 4.94674)
(206.957 6.54584 2.17991)
(208.942 5.63146 -1.12445)
(210.385 4.64809 -5.17151)
(210.948 3.59666 -10.1728)
(209.95 2.44894 -16.5315)
(206.108 1.18175 -24.7885)
(197.341 -0.254649 -35.3478)
(178.323 -1.89412 -47.7667)
(202.362 7.25734 8.42041)
(205.244 6.37364 6.14135)
(207.843 5.37762 3.35109)
(210.111 4.34705 0.0145794)
(211.89 3.26197 -4.12788)
(212.851 2.13391 -9.29357)
(212.324 0.935906 -15.9642)
(208.972 -0.346526 -24.9209)
(200.437 -1.74012 -36.9426)
(180.246 -3.29664 -52.6021)
(202.42 7.69311 8.31194)
(205.442 6.70276 6.17564)
(208.178 5.62527 3.5208)
(210.608 4.54149 0.301384)
(212.597 3.43579 -3.75949)
(213.837 2.3313 -8.88528)
(213.696 1.22262 -15.6041)
(210.868 0.114721 -24.9104)
(202.805 -1.02437 -38.0344)
(181.869 -2.47735 -56.7091)
(202.657 5.96031 8.87805)
(205.706 4.79021 6.88437)
(208.481 3.61734 4.3345)
(210.982 2.48403 1.20462)
(213.115 1.36137 -2.83997)
(214.595 0.274164 -8.03258)
(214.822 -0.751782 -14.9205)
(212.536 -1.66562 -24.5346)
(205.081 -2.34824 -38.7019)
(183.509 -3.35754 -59.9404)
(201.922 5.93085 8.32428)
(204.973 4.62723 6.56502)
(207.781 3.37089 4.29483)
(210.309 2.16193 1.42126)
(212.448 1.02657 -2.35963)
(213.934 0.0160738 -7.29968)
(214.31 -0.799817 -14.0092)
(212.459 -1.30006 -23.4454)
(205.821 -1.32324 -38.1701)
(184.116 -1.24397 -60.7675)
(188.36 3.69034 0.121315)
(188.626 2.90009 -1.70871)
(188.464 2.20179 -3.67442)
(187.83 1.61422 -5.73602)
(186.666 1.14864 -7.81489)
(184.916 0.808834 -9.78715)
(182.552 0.57917 -11.4726)
(179.63 0.41068 -12.6299)
(176.272 0.225938 -12.8558)
(172.406 -0.0566925 -11.5692)
(192.834 6.53206 0.0900447)
(193.463 5.98169 -1.86107)
(193.653 5.38466 -3.9749)
(193.311 4.77876 -6.23651)
(192.318 4.18065 -8.61008)
(190.527 3.59388 -10.9859)
(187.765 3.01203 -13.1836)
(183.887 2.42382 -14.9093)
(178.796 1.82493 -15.6062)
(172.607 1.22529 -14.5284)
(195.801 6.46927 1.79231)
(196.802 5.98282 -0.250382)
(197.378 5.40859 -2.51231)
(197.422 4.77858 -5.0122)
(196.79 4.11127 -7.74415)
(195.268 3.40181 -10.6735)
(192.56 2.64362 -13.6711)
(188.315 1.8279 -16.4341)
(182.195 0.95066 -18.2625)
(174.029 0.0244852 -18.0653)
(197.542 7.06507 3.21144)
(198.983 6.60104 1.09423)
(200.026 6.02781 -1.28624)
(200.558 5.36639 -4.02101)
(200.395 4.64322 -7.10672)
(199.265 3.84988 -10.5773)
(196.753 2.98227 -14.3595)
(192.293 2.03227 -18.1842)
(185.273 0.990834 -21.2699)
(175.111 -0.130739 -22.3211)
(198.806 6.60677 4.97956)
(200.653 6.04102 2.8008)
(202.127 5.36483 0.276974)
(203.122 4.60427 -2.68447)
(203.424 3.77423 -6.11631)
(202.723 2.86092 -10.0987)
(200.498 1.85313 -14.6312)
(195.979 0.739911 -19.5266)
(188.244 -0.488624 -23.9826)
(176.214 -1.79756 -26.6979)
(199.455 7.1897 5.82917)
(201.649 6.55188 3.66335)
(203.487 5.79031 1.10249)
(204.87 4.9527 -1.94689)
(205.581 4.0507 -5.57969)
(205.28 3.07965 -9.90619)
(203.362 2.02543 -15.007)
(198.878 0.872672 -20.8134)
(190.58 -0.40892 -26.5558)
(176.821 -1.8118 -31.1093)
(200.056 6.3676 7.03742)
(202.509 5.57104 4.88157)
(204.612 4.67242 2.26246)
(206.284 3.73042 -0.872036)
(207.322 2.74035 -4.6788)
(207.368 1.70404 -9.29115)
(205.772 0.606546 -14.875)
(201.444 -0.564845 -21.5212)
(192.807 -1.83271 -28.572)
(177.571 -3.19548 -35.2462)
(200.28 6.87639 7.00282)
(202.892 5.98057 4.97132)
(205.158 5.00573 2.46865)
(207.02 4.01623 -0.577085)
(208.292 3.01266 -4.35417)
(208.622 2.00546 -9.02259)
(207.343 0.9929 -14.8185)
(203.28 -0.0278347 -22.0105)
(194.569 -1.08797 -30.1546)
(178.174 -2.39154 -38.9425)
(200.593 5.18678 7.68694)
(203.254 4.11277 5.77481)
(205.578 3.03751 3.3545)
(207.528 1.9941 0.384796)
(208.955 0.975838 -3.38139)
(209.531 -0.00142101 -8.14114)
(208.602 -0.908077 -14.2036)
(204.931 -1.71704 -21.9403)
(196.382 -2.35739 -31.2467)
(178.923 -3.29173 -41.9586)
(199.967 5.32787 7.19197)
(202.64 4.11654 5.48307)
(205.013 2.96377 3.32069)
(207.011 1.85263 0.587939)
(208.482 0.827688 -2.932)
(209.11 -0.0694214 -7.44568)
(208.341 -0.765019 -13.3418)
(205.023 -1.169 -21.0922)
(196.955 -1.15432 -31.2044)
(178.787 -1.08295 -42.925)
(185.812 2.79133 -0.157432)
(185.948 2.27651 -1.35761)
(185.772 1.81296 -2.61788)
(185.271 1.41752 -3.88875)
(184.43 1.09823 -5.09893)
(183.249 0.856316 -6.15561)
(181.763 0.680753 -6.94073)
(180.101 0.532242 -7.33722)
(178.534 0.344532 -7.17561)
(177.212 0.041833 -6.2662)
(189.908 5.26787 -0.354369)
(190.301 4.8902 -1.79584)
(190.325 4.45731 -3.30342)
(189.928 3.99877 -4.86222)
(189.049 3.53553 -6.41071)
(187.625 3.0749 -7.8391)
(185.608 2.61643 -8.99103)
(182.999 2.1549 -9.65945)
(179.899 1.69379 -9.54286)
(176.623 1.2573 -8.4146)
(192.849 5.33078 1.02344)
(193.558 4.9489 -0.627685)
(193.875 4.4794 -2.42314)
(193.717 3.95542 -4.34194)
(192.991 3.39419 -6.34255)
(191.57 2.79741 -8.33321)
(189.32 2.16294 -10.149)
(186.134 1.48713 -11.5178)
(182.013 0.77261 -11.9701)
(177.288 0.0471512 -11.0297)
(194.753 6.03108 2.16715)
(195.845 5.65181 0.366262)
(196.54 5.16317 -1.63191)
(196.737 4.59091 -3.8625)
(196.296 3.95925 -6.28451)
(195.028 3.26732 -8.84237)
(192.691 2.51672 -11.3724)
(189.032 1.70523 -13.5562)
(183.894 0.831817 -14.7463)
(177.57 -0.0724458 -14.235)
(196.209 5.62652 3.7842)
(197.672 5.14156 1.86054)
(198.741 4.54983 -0.343241)
(199.312 3.87622 -2.88189)
(199.202 3.13871 -5.72223)
(198.17 2.32804 -8.85263)
(195.866 1.44212 -12.1314)
(191.869 0.475649 -15.232)
(185.808 -0.575786 -17.3458)
(177.862 -1.6617 -17.6113)
(197.051 6.28293 4.55463)
(198.845 5.73011 2.59762)
(200.248 5.05991 0.30946)
(201.157 4.3119 -2.38566)
(201.367 3.50476 -5.49656)
(200.591 2.6336 -9.04479)
(198.382 1.69374 -12.932)
(194.146 0.6749 -16.8596)
(187.257 -0.444606 -19.8924)
(177.716 -1.63662 -21.1079)
(197.813 5.48789 5.77255)
(199.866 4.78391 3.78975)
(201.528 3.98601 1.40363)
(202.709 3.14058 -1.43372)
(203.196 2.2536 -4.78764)
(202.672 1.32342 -8.70823)
(200.612 0.343364 -13.1586)
(196.267 -0.697404 -17.9112)
(188.718 -1.82147 -21.965)
(177.704 -3.00021 -24.4348)
(198.171 6.07675 5.7763)
(200.395 5.28183 3.89204)
(202.232 4.41309 1.59436)
(203.606 3.52383 -1.1932)
(204.314 2.62646 -4.57195)
(204.024 1.72593 -8.62814)
(202.162 0.822864 -13.3886)
(197.845 -0.0918765 -18.7335)
(189.862 -1.05287 -23.6837)
(177.577 -2.19488 -27.4772)
(198.562 4.42859 6.56678)
(200.853 3.46069 4.77415)
(202.763 2.48985 2.52647)
(204.235 1.54505 -0.215151)
(205.089 0.634488 -3.60949)
(205.007 -0.229364 -7.78639)
(203.4 -1.01917 -12.8665)
(199.28 -1.72479 -18.8355)
(191.115 -2.30752 -24.8474)
(177.655 -3.12325 -29.9899)
(198.029 4.73982 6.1047)
(200.342 3.63831 4.49061)
(202.313 2.59867 2.47572)
(203.844 1.59774 -0.0564386)
(204.761 0.691449 -3.24072)
(204.747 -0.0852652 -7.21883)
(203.266 -0.662148 -12.18)
(199.342 -0.970949 -18.2235)
(191.329 -0.925778 -24.9842)
(176.986 -0.858283 -30.8154)
(184.385 2.05414 -0.24008)
(184.46 1.73631 -0.98122)
(184.329 1.44162 -1.74937)
(183.991 1.18453 -2.49881)
(183.45 0.969383 -3.18137)
(182.724 0.796793 -3.73913)
(181.858 0.66099 -4.10263)
(180.977 0.532742 -4.22808)
(180.361 0.358188 -4.03902)
(180.269 0.0558002 -3.49804)
(187.837 4.15401 -0.554725)
(188.078 3.92058 -1.56169)
(188.04 3.62776 -2.57785)
(187.697 3.29851 -3.59204)
(187.026 2.95399 -4.54791)
(186.012 2.60355 -5.36522)
(184.662 2.25188 -5.94088)
(183.018 1.89959 -6.15678)
(181.189 1.55511 -5.86718)
(179.4 1.24231 -5.03613)
(190.5 4.27164 0.524072)
(190.99 3.98837 -0.745624)
(191.15 3.62225 -2.09876)
(190.928 3.20332 -3.50094)
(190.269 2.74774 -4.90018)
(189.117 2.26086 -6.20183)
(187.429 1.74423 -7.26891)
(185.211 1.19906 -7.91569)
(182.56 0.633442 -7.88411)
(179.78 0.0757114 -6.99631)
(192.38 5.05228 1.38)
(193.186 4.7593 -0.0859556)
(193.63 4.36135 -1.68581)
(193.636 3.88484 -3.42131)
(193.11 3.35243 -5.23448)
(191.94 2.76837 -7.0381)
(190.013 2.13768 -8.66746)
(187.255 1.4634 -9.8684)
(183.71 0.752214 -10.2282)
(179.762 0.0398703 -9.40232)
(193.901 4.68908 2.81171)
(195.031 4.28842 1.17695)
(195.78 3.78616 -0.674384)
(196.059 3.20839 -2.75426)
(195.733 2.57105 -5.00604)
(194.637 1.87143 -7.36213)
(192.572 1.11223 -9.64605)
(189.355 0.293454 -11.5542)
(184.921 -0.581792 -12.5007)
(179.707 -1.46003 -11.986)
(194.847 5.40806 3.46492)
(196.282 4.94427 1.75601)
(197.321 4.36972 -0.217203)
(197.871 3.72005 -2.50213)
(197.763 3.01614 -5.05586)
(196.785 2.25531 -7.83938)
(194.649 1.43863 -10.6828)
(191.043 0.560438 -13.2581)
(185.744 -0.390784 -14.8105)
(179.207 -1.37655 -14.7101)
(195.713 4.63735 4.65377)
(197.396 4.0297 2.88358)
(198.673 3.33481 0.775473)
(199.457 2.59205 -1.69967)
(199.558 1.81325 -4.54135)
(198.724 0.996755 -7.73478)
(196.586 0.141026 -11.1404)
(192.697 -0.762126 -14.4397)
(186.63 -1.72877 -16.7369)
(178.797 -2.714 -17.3093)
(196.167 5.30854 4.66074)
(198.025 4.61959 2.95953)
(199.475 3.86034 0.908255)
(200.438 3.07765 -1.55742)
(200.72 2.29058 -4.46853)
(200.046 1.50283 -7.84545)
(197.978 0.715894 -11.5912)
(193.943 -0.0837524 -15.4344)
(187.274 -0.928155 -18.3945)
(178.257 -1.89058 -19.7048)
(196.622 3.69657 5.53445)
(198.561 2.84171 3.89393)
(200.094 1.98059 1.85467)
(201.156 1.14194 -0.605448)
(201.562 0.342188 -3.57047)
(201.035 -0.406768 -7.09814)
(199.107 -1.08225 -11.1762)
(195.093 -1.68745 -15.6104)
(188.051 -2.20074 -19.4368)
(177.934 -2.86794 -21.6195)
(196.156 4.17874 5.07971)
(198.127 3.19873 3.59626)
(199.728 2.27887 1.76291)
(200.856 1.39677 -0.519335)
(201.332 0.612969 -3.31732)
(200.87 -0.0419052 -6.70551)
(199.018 -0.505964 -10.7257)
(195.053 -0.730863 -15.2499)
(187.933 -0.666702 -19.6348)
(176.957 -0.593225 -22.2136)
(183.72 1.46752 -0.227933)
(183.768 1.27841 -0.664833)
(183.687 1.09641 -1.11762)
(183.483 0.933775 -1.54781)
(183.164 0.791932 -1.92806)
(182.746 0.671725 -2.22509)
(182.268 0.571254 -2.39771)
(181.833 0.467821 -2.43918)
(181.703 0.316125 -2.30097)
(182.239 0.0249481 -2.00932)
(186.468 3.21895 -0.609445)
(186.617 3.09389 -1.28141)
(186.571 2.91063 -1.93521)
(186.318 2.68647 -2.56521)
(185.853 2.44066 -3.12959)
(185.181 2.18303 -3.57697)
(184.324 1.92133 -3.84768)
(183.326 1.66021 -3.88201)
(182.262 1.41036 -3.61357)
(181.259 1.19047 -3.06121)
(188.718 3.32578 0.224004)
(189.051 3.12674 -0.709834)
(189.126 2.85326 -1.68529)
(188.915 2.5304 -2.66891)
(188.39 2.17248 -3.61359)
(187.534 1.78634 -4.44388)
(186.347 1.37604 -5.06375)
(184.868 0.946099 -5.36078)
(183.192 0.507036 -5.20483)
(181.515 0.0827749 -4.5454)
(190.439 4.15592 0.810238)
(191.02 3.94335 -0.334692)
(191.296 3.63383 -1.56084)
(191.212 3.25168 -2.85607)
(190.715 2.81802 -4.16152)
(189.749 2.34008 -5.39219)
(188.274 1.825 -6.41586)
(186.298 1.27963 -7.05799)
(183.915 0.715554 -7.08511)
(181.415 0.165449 -6.34807)
(191.914 3.81759 2.04565)
(192.767 3.49861 0.706182)
(193.277 3.08595 -0.791123)
(193.376 2.60452 -2.43136)
(192.973 2.06868 -4.15175)
(191.97 1.48044 -5.86745)
(190.27 0.845377 -7.41778)
(187.824 0.167896 -8.56946)
(184.689 -0.542707 -8.95377)
(181.249 -1.23816 -8.31246)
(192.884 4.58359 2.55963)
(194.005 4.20781 1.11703)
(194.754 3.72907 -0.526686)
(195.051 3.18075 -2.38968)
(194.775 2.58242 -4.40951)
(193.781 1.93489 -6.51525)
(191.908 1.24251 -8.53001)
(189.024 0.504118 -10.1739)
(185.112 -0.282448 -10.93)
(180.643 -1.0786 -10.4199)
(193.796 3.83251 3.68929)
(195.146 3.32106 2.15545)
(196.101 2.72875 0.348892)
(196.585 2.09069 -1.73569)
(196.445 1.42085 -4.06016)
(195.499 0.719311 -6.57018)
(193.516 -0.0120754 -9.09323)
(190.268 -0.777732 -11.3243)
(185.617 -1.58471 -12.602)
(180.092 -2.38365 -12.4241)
(194.304 4.58391 3.66918)
(195.824 4.00218 2.17557)
(196.94 3.35315 0.396151)
(197.576 2.67997 -1.71286)
(197.567 2.00425 -4.13446)
(196.702 1.33031 -6.84239)
(194.686 0.660616 -9.68412)
(191.187 -0.0190962 -12.3606)
(185.91 -0.736205 -14.0917)
(179.381 -1.52239 -14.2746)
(194.804 3.00056 4.60198)
(196.414 2.26137 3.13768)
(197.617 1.51202 1.33176)
(198.345 0.783007 -0.81427)
(198.432 0.0937793 -3.32942)
(197.654 -0.543271 -6.21195)
(195.674 -1.10962 -9.37058)
(192.071 -1.61544 -12.5475)
(186.351 -2.04874 -14.9331)
(178.894 -2.57036 -15.6535)
(194.383 3.655 4.13091)
(196.031 2.8027 2.80463)
(197.305 2.00577 1.17835)
(198.098 1.24632 -0.820681)
(198.248 0.58406 -3.20849)
(197.519 0.0462782 -6.00254)
(195.566 -0.315796 -9.15185)
(191.91 -0.470512 -12.4206)
(185.985 -0.396773 -15.1787)
(177.809 -0.3197 -16.0843)
(183.516 1.01287 -0.17761)
(183.552 0.902357 -0.425591)
(183.509 0.791418 -0.688056)
(183.394 0.690797 -0.931955)
(183.216 0.599573 -1.14474)
(182.986 0.518879 -1.30786)
(182.732 0.449226 -1.39453)
(182.537 0.371667 -1.41562)
(182.646 0.246076 -1.327)
(183.506 -0.0293042 -1.18615)
(185.627 2.46605 -0.587446)
(185.72 2.41545 -1.01909)
(185.685 2.31191 -1.42283)
(185.517 2.16803 -1.79831)
(185.216 2.0004 -2.11829)
(184.794 1.81837 -2.352)
(184.269 1.63068 -2.4669)
(183.674 1.4437 -2.43429)
(183.054 1.26864 -2.22502)
(182.474 1.11895 -1.86577)
(187.428 2.51394 0.0614996)
(187.65 2.3803 -0.599914)
(187.684 2.18329 -1.27801)
(187.513 1.94256 -1.94511)
(187.129 1.66999 -2.56466)
(186.529 1.37242 -3.08382)
(185.731 1.05494 -3.44168)
(184.77 0.723368 -3.57482)
(183.716 0.387995 -3.41912)
(182.679 0.0674283 -2.96968)
(188.91 3.36249 0.413891)
(189.321 3.21883 -0.447041)
(189.489 2.98869 -1.35016)
(189.378 2.6932 -2.28069)
(188.963 2.35151 -3.18795)
(188.22 1.9723 -4.0034)
(187.147 1.56377 -4.63328)
(185.777 1.1347 -4.96744)
(184.195 0.698318 -4.88074)
(182.584 0.281717 -4.31377)
(190.26 3.03133 1.46009)
(190.889 2.78625 0.399071)
(191.229 2.45772 -0.770209)
(191.228 2.06751 -2.02041)
(190.833 1.62886 -3.29278)
(189.992 1.14671 -4.50824)
(188.672 0.628274 -5.54089)
(186.882 0.0808114 -6.22886)
(184.708 -0.483263 -6.35494)
(182.416 -1.02411 -5.7959)
(191.186 3.82571 1.82826)
(192.042 3.53203 0.649632)
(192.568 3.14491 -0.674188)
(192.702 2.69495 -2.13995)
(192.361 2.19955 -3.68384)
(191.459 1.66269 -5.22686)
(189.92 1.09053 -6.61723)
(187.71 0.485497 -7.64337)
(184.895 -0.148158 -7.9787)
(181.83 -0.777588 -7.41354)
(192.091 3.08817 2.87844)
(193.151 2.66858 1.58785)
(193.848 2.17506 0.0847615)
(194.119 1.63943 -1.61403)
(193.851 1.07532 -3.4557)
(192.927 0.485381 -5.36832)
(191.216 -0.126326 -7.18855)
(188.629 -0.760299 -8.66566)
(185.171 -1.41596 -9.35613)
(181.283 -2.04726 -8.93973)
(192.611 3.91384 2.80808)
(193.829 3.43627 1.53374)
(194.667 2.89475 0.0345697)
(195.057 2.32978 -1.71164)
(194.871 1.76274 -3.66071)
(193.962 1.19935 -5.75957)
(192.147 0.643347 -7.84689)
(189.267 0.0827237 -9.65583)
(185.238 -0.504655 -10.631)
(180.549 -1.13004 -10.3533)
(193.137 2.34966 3.77823)
(194.448 1.72434 2.50427)
(195.37 1.08537 0.944205)
(195.84 0.465194 -0.876551)
(195.72 -0.117211 -2.95208)
(194.845 -0.648903 -5.24047)
(192.994 -1.1145 -7.61646)
(189.94 -1.52592 -9.82301)
(185.48 -1.87509 -11.2643)
(180.062 -2.26743 -11.3062)
(192.741 3.17809 3.26959)
(194.091 2.45445 2.11706)
(195.08 1.7798 0.713094)
(195.609 1.14196 -0.987015)
(195.539 0.595932 -2.96576)
(194.691 0.165877 -5.19937)
(192.826 -0.108272 -7.59041)
(189.659 -0.208116 -9.87677)
(184.948 -0.132055 -11.5501)
(178.976 -0.0579175 -11.6414)
(183.561 0.666921 -0.11743)
(183.59 0.601786 -0.253627)
(183.57 0.533585 -0.406516)
(183.509 0.472314 -0.545517)
(183.413 0.415097 -0.667684)
(183.291 0.363134 -0.762557)
(183.16 0.318188 -0.810235)
(183.09 0.263395 -0.830425)
(183.31 0.162043 -0.776455)
(184.334 -0.0973744 -0.72367)
(185.153 1.88181 -0.533169)
(185.213 1.87836 -0.801586)
(185.192 1.82928 -1.04105)
(185.088 1.74343 -1.25509)
(184.904 1.63478 -1.42786)
(184.648 1.51181 -1.54178)
(184.335 1.38309 -1.57966)
(183.985 1.25515 -1.52775)
(183.62 1.1385 -1.37333)
(183.273 1.04219 -1.13834)
(186.532 1.84196 -0.0120756)
(186.68 1.7548 -0.466736)
(186.695 1.61667 -0.925648)
(186.571 1.44218 -1.36731)
(186.306 1.2405 -1.76568)
(185.904 1.01757 -2.0861)
(185.383 0.778397 -2.29194)
(184.769 0.528551 -2.34898)
(184.105 0.276599 -2.22577)
(183.448 0.0360358 -1.93153)
(187.75 2.68335 0.149604)
(188.035 2.59436 -0.476179)
(188.137 2.43069 -1.11847)
(188.033 2.2101 -1.76473)
(187.712 1.94944 -2.37531)
(187.169 1.65765 -2.90015)
(186.417 1.34305 -3.27767)
(185.489 1.01482 -3.44238)
(184.446 0.685686 -3.32963)
(183.391 0.376893 -2.91743)
(188.924 2.34333 1.02556)
(189.379 2.16115 0.210445)
(189.601 1.90717 -0.674837)
(189.555 1.59929 -1.59993)
(189.212 1.24949 -2.51491)
(188.551 0.864223 -3.35543)
(187.568 0.451359 -4.03155)
(186.294 0.0193997 -4.43862)
(184.806 -0.418867 -4.4537)
(183.265 -0.832614 -4.02191)
(189.757 3.14653 1.25395)
(190.397 2.92543 0.320721)
(190.759 2.62198 -0.711438)
(190.796 2.26277 -1.82839)
(190.457 1.86353 -2.97168)
(189.699 1.43026 -4.06933)
(188.493 0.970018 -5.00452)
(186.854 0.487465 -5.63)
(184.863 -0.00996511 -5.74959)
(182.754 -0.497604 -5.25394)
(190.616 2.41633 2.21384)
(191.43 2.08066 1.1584)
(191.927 1.67902 -0.057374)
(192.056 1.23981 -1.40065)
(191.744 0.774996 -2.81843)
(190.918 0.289852 -4.23596)
(189.519 -0.210361 -5.51864)
(187.531 -0.72296 -6.47911)
(185.016 -1.24271 -6.83799)
(182.287 -1.73048 -6.40264)
(191.108 3.30745 2.07789)
(192.064 2.92706 1.0221)
(192.678 2.48696 -0.204076)
(192.895 2.02495 -1.60496)
(192.623 1.56043 -3.12581)
(191.765 1.10069 -4.70209)
(190.225 0.650648 -6.18949)
(187.946 0.201816 -7.3766)
(184.95 -0.262537 -7.89405)
(181.609 -0.747246 -7.47782)
(191.642 1.7516 3.0679)
(192.687 1.23429 1.98793)
(193.377 0.700857 0.673665)
(193.658 0.184811 -0.829884)
(193.425 -0.297422 -2.49884)
(192.564 -0.732748 -4.26975)
(190.945 -1.1084 -6.01515)
(188.468 -1.43535 -7.51194)
(185.095 -1.70533 -8.3533)
(181.21 -1.99061 -8.12554)
(191.251 2.75589 2.5032)
(192.334 2.15714 1.53109)
(193.085 1.60034 0.353707)
(193.413 1.07864 -1.04877)
(193.214 0.639941 -2.64037)
(192.358 0.305263 -4.37238)
(190.695 0.103836 -6.13432)
(188.082 0.0441714 -7.68438)
(184.464 0.116519 -8.6567)
(180.175 0.181275 -8.39575)
(183.718 0.405446 -0.0591982)
(183.742 0.365314 -0.131562)
(183.735 0.321745 -0.223801)
(183.704 0.284658 -0.305391)
(183.654 0.249561 -0.379485)
(183.59 0.217576 -0.439879)
(183.525 0.191032 -0.469836)
(183.516 0.154291 -0.49411)
(183.78 0.0733003 -0.461799)
(184.883 -0.172154 -0.460564)
(184.919 1.44356 -0.472207)
(184.958 1.46769 -0.634276)
(184.948 1.45381 -0.769718)
(184.887 1.40793 -0.884361)
(184.778 1.34176 -0.970262)
(184.628 1.26278 -1.01772)
(184.444 1.1789 -1.01787)
(184.238 1.09612 -0.963883)
(184.021 1.02393 -0.850199)
(183.804 0.967955 -0.692008)
(185.933 1.30225 -0.031886)
(186.03 1.24549 -0.337348)
(186.039 1.1502 -0.642389)
(185.956 1.02656 -0.930795)
(185.781 0.881095 -1.18498)
(185.521 0.71843 -1.38299)
(185.188 0.542785 -1.5032)
(184.8 0.358654 -1.5273)
(184.378 0.172311 -1.43948)
(183.95 -0.00714316 -1.25192)
(186.898 2.11986 -0.018317)
(187.093 2.07132 -0.459216)
(187.155 1.96024 -0.901801)
(187.072 1.80126 -1.33732)
(186.838 1.60868 -1.73685)
(186.458 1.39089 -2.06578)
(185.946 1.15559 -2.28536)
(185.327 0.911366 -2.35794)
(184.641 0.669384 -2.25124)
(183.939 0.445908 -1.95783)
(187.875 1.7592 0.712466)
(188.198 1.62774 0.103388)
(188.342 1.4367 -0.549003)
(188.284 1.20005 -1.21674)
(188.009 0.92822 -1.86014)
(187.513 0.628077 -2.43068)
(186.806 0.307348 -2.86753)
(185.919 -0.0254806 -3.10611)
(184.909 -0.35888 -3.07881)
(183.865 -0.670054 -2.76349)
(188.587 2.55297 0.816096)
(189.055 2.39297 0.0993575)
(189.299 2.16253 -0.680921)
(189.287 1.88377 -1.50741)
(188.989 1.5708 -2.33032)
(188.385 1.23052 -3.09051)
(187.475 0.870307 -3.70384)
(186.291 0.495815 -4.0736)
(184.902 0.115428 -4.08626)
(183.448 -0.254443 -3.68816)
(189.372 1.82528 1.6829)
(189.983 1.56316 0.843195)
(190.33 1.24416 -0.113564)
(190.375 0.892215 -1.14808)
(190.071 0.517992 -2.21194)
(189.38 0.128146 -3.23786)
(188.283 -0.271496 -4.12336)
(186.799 -0.676194 -4.7374)
(185.002 -1.07886 -4.91283)
(183.092 -1.44753 -4.53709)
(189.805 2.77139 1.4737)
(190.538 2.47818 0.625104)
(190.979 2.13057 -0.347637)
(191.082 1.76297 -1.43725)
(190.787 1.39208 -2.58941)
(190.037 1.02627 -3.73903)
(188.791 0.67115 -4.76869)
(187.045 0.321501 -5.52384)
(184.865 -0.0343127 -5.76983)
(182.5 -0.400993 -5.35503)
(190.332 1.21215 2.47127)
(191.147 0.793599 1.57918)
(191.651 0.357796 0.499242)
(191.802 -0.0620705 -0.710409)
(191.525 -0.453135 -2.02035)
(190.747 -0.802576 -3.36007)
(189.403 -1.10011 -4.61798)
(187.467 -1.35504 -5.6172)
(184.978 -1.5574 -6.09493)
(182.222 -1.75975 -5.80081)
(189.932 2.39444 1.83497)
(190.779 1.91278 1.04075)
(191.335 1.46595 0.0837222)
(191.522 1.05133 -1.03689)
(191.263 0.708487 -2.27837)
(190.472 0.455397 -3.58081)
(189.069 0.311973 -4.84133)
(186.996 0.280069 -5.85904)
(184.296 0.344568 -6.39277)
(181.262 0.396466 -6.01526)
(183.908 0.205948 -0.00624505)
(183.928 0.179031 -0.0431938)
(183.927 0.149043 -0.103208)
(183.912 0.126324 -0.154323)
(183.886 0.105102 -0.203604)
(183.853 0.0863939 -0.24704)
(183.822 0.0727753 -0.269299)
(183.84 0.0494903 -0.298554)
(184.113 -0.0149987 -0.27918)
(185.247 -0.248759 -0.309431)
(184.829 1.1256 -0.417577)
(184.855 1.16453 -0.512407)
(184.851 1.17227 -0.583712)
(184.817 1.15278 -0.638349)
(184.755 1.11597 -0.673535)
(184.668 1.06837 -0.684075)
(184.56 1.01704 -0.665529)
(184.438 0.967309 -0.61428)
(184.305 0.927796 -0.52789)
(184.163 0.901673 -0.415648)
(185.545 0.878928 -0.0217771)
(185.609 0.840394 -0.223739)
(185.615 0.774763 -0.424572)
(185.562 0.688524 -0.612143)
(185.452 0.585793 -0.774945)
(185.288 0.469791 -0.899344)
(185.079 0.343648 -0.972582)
(184.835 0.210493 -0.984617)
(184.564 0.0742736 -0.926831)
(184.274 -0.0595413 -0.810774)
(186.292 1.66515 -0.118935)
(186.424 1.64462 -0.420235)
(186.463 1.57316 -0.715893)
(186.401 1.46274 -1.00081)
(186.239 1.32508 -1.25515)
(185.982 1.16749 -1.45587)
(185.641 0.996644 -1.57918)
(185.235 0.819926 -1.60368)
(184.783 0.646618 -1.51362)
(184.305 0.489132 -1.30642)
(187.073 1.27789 0.493073)
(187.298 1.18542 0.0493848)
(187.391 1.04532 -0.419952)
(187.337 0.867954 -0.891843)
(187.13 0.662022 -1.33645)
(186.773 0.433984 -1.71911)
(186.279 0.190838 -2.00002)
(185.673 -0.0597615 -2.14039)
(184.991 -0.308291 -2.10343)
(184.276 -0.538352 -1.8818)
(187.652 2.04653 0.492519)
(187.988 1.93564 -0.0414742)
(188.151 1.76632 -0.613791)
(188.118 1.55636 -1.2084)
(187.875 1.31795 -1.78549)
(187.417 1.05807 -2.2997)
(186.753 0.783783 -2.69298)
(185.917 0.500828 -2.90419)
(184.958 0.217229 -2.8691)
(183.953 -0.0574268 -2.5636)
(188.35 1.31928 1.26922)
(188.799 1.11921 0.6187)
(189.037 0.871869 -0.114724)
(189.036 0.596403 -0.892441)
(188.77 0.302232 -1.67316)
(188.22 -0.00369592 -2.40164)
(187.391 -0.315583 -3.00387)