/*--------------------------------*- C++ -*----------------------------------*\
| =========                 |                                                 |
| \\      /  F ield         | foam-extend: Open Source CFD                    |
|  \\    /   O peration     | Version:     4.0                                |
|   \\  /    A nd           | Web:         http://www.foam-extend.org         |
|    \\/     M anipulation  |                                                 |
\*---------------------------------------------------------------------------*/
FoamFile
{
    version     2.0;
    format      ascii;
    class       volScalarField;
    location    "1200";
    object      alphat;
}
// * * * * * * * * * * * * * * * * * * * * * * * * * * * * * * * * * * * * * //

dimensions      [1 -1 -1 0 0 0 0];

internalField   nonuniform List<scalar> 
34480
(
0.00190319
0.00190095
0.00189982
0.00190015
0.00190293
0.00191044
0.00192758
0.00195949
0.00200615
0.00212296
0.0178629
0.0163815
0.0137771
0.00990688
0.00583119
0.00306857
0.00188279
0.00170046
0.00200545
0.00236969
0.0516937
0.0469359
0.0394443
0.0290537
0.0174525
0.00838818
0.00388326
0.0025619
0.00265987
0.00305251
0.0642297
0.0593075
0.0513767
0.0397101
0.0252778
0.0124155
0.00529075
0.00300389
0.00294788
0.0034015
0.0695794
0.0653104
0.058106
0.0466939
0.0311678
0.0157983
0.006504
0.00335595
0.0031833
0.00371234
0.0714613
0.0679927
0.0616521
0.0507585
0.0347546
0.0178842
0.00725341
0.0036011
0.00344066
0.00409444
0.0700775
0.0676295
0.0624732
0.0525283
0.0367079
0.0191505
0.00775674
0.00379092
0.00368741
0.00447212
0.0593548
0.0585026
0.0554611
0.0478738
0.034058
0.0178751
0.00729696
0.00365008
0.00374612
0.00470272
0.0192129
0.0199063
0.0204205
0.0194622
0.0151336
0.0084678
0.00376339
0.0021715
0.00266985
0.00384743
0.0017753
0.00176401
0.00175529
0.0017494
0.0017474
0.00174888
0.00175281
0.0017596
0.00175906
0.00172769
0.00191634
0.00191526
0.00191602
0.00191907
0.00192485
0.00193415
0.0019496
0.00197593
0.00202032
0.0020964
0.0165663
0.0162658
0.0156868
0.0144082
0.0119247
0.00822595
0.00461691
0.00272357
0.00244425
0.00326591
0.0498043
0.0475896
0.0437429
0.0378243
0.0299426
0.0204871
0.0110507
0.00520719
0.00377661
0.00492277
0.0614446
0.0591701
0.0551391
0.0486066
0.0394576
0.0279882
0.0154997
0.0067296
0.00441457
0.00583886
0.0662337
0.0645033
0.0611851
0.055279
0.0460901
0.0337875
0.0192741
0.00799286
0.0049211
0.00667815
0.067882
0.0668252
0.064395
0.0593921
0.0505687
0.0379267
0.0220574
0.0088938
0.00539286
0.00771037
0.0665584
0.066289
0.0649732
0.0612047
0.0532559
0.0408298
0.0242195
0.00960338
0.00582102
0.00877736
0.0562472
0.0569514
0.0572218
0.0556754
0.0501698
0.039724
0.0240991
0.009428
0.0058662
0.00944908
0.0179925
0.0186937
0.019816
0.0212016
0.0220708
0.0206037
0.0140453
0.00548364
0.00376064
0.00708062
0.00177697
0.00176485
0.00175466
0.00174708
0.00174359
0.00174485
0.00174903
0.00175543
0.00178639
0.0018959
0.00192151
0.00192135
0.00192278
0.00192632
0.0019323
0.00194104
0.00195324
0.0019704
0.00199519
0.00203032
0.0146579
0.0146189
0.0146448
0.0145097
0.0137714
0.0120583
0.00950648
0.00696285
0.00534221
0.00480473
0.0462251
0.0451552
0.0430603
0.0396111
0.0345835
0.0278066
0.0198025
0.012473
0.00817909
0.00701763
0.0567071
0.055693
0.0535679
0.049708
0.0438764
0.0356748
0.0252637
0.0150045
0.00913627
0.00803603
0.0608386
0.0603008
0.0588539
0.0556285
0.050022
0.04147
0.0295654
0.0168122
0.00967395
0.00890917
0.0622569
0.0622637
0.061625
0.0593241
0.0542973
0.0457952
0.0328376
0.0179832
0.0100118
0.00986871
0.0611394
0.0617207
0.0620148
0.0608862
0.0568577
0.0488723
0.0353505
0.018734
0.01019
0.0108129
0.0517999
0.0529163
0.0542666
0.0548963
0.0530592
0.0471229
0.0347431
0.0179452
0.00973176
0.0112855
0.016806
0.0173552
0.018337
0.0197666
0.0213984
0.0220916
0.0188262
0.0103243
0.005911
0.00795799
0.00177267
0.00176176
0.00175267
0.00174611
0.0017433
0.00174587
0.00175439
0.00176798
0.00179965
0.00189859
0.00191865
0.00191886
0.0019201
0.00192269
0.00192682
0.00193262
0.0019403
0.00195027
0.00196365
0.00198263
0.0130534
0.0130577
0.0132393
0.0135477
0.0137772
0.0136454
0.0129298
0.0116561
0.0101875
0.00906708
0.0424225
0.0419464
0.040913
0.0391018
0.0362533
0.0321476
0.0268928
0.021107
0.0160325
0.0130369
0.0515564
0.0511842
0.0501468
0.0480186
0.0445455
0.0393694
0.0324521
0.0245044
0.0175732
0.0140829
0.0549659
0.0549856
0.0545258
0.0528913
0.049655
0.0442916
0.0364456
0.0267448
0.0182642
0.0147674
0.0561836
0.0566081
0.0568029
0.0559388
0.0532389
0.0480129
0.0395229
0.0282623
0.0185737
0.015547
0.055364
0.0561811
0.0570848
0.0571689
0.0553299
0.0506068
0.0418017
0.0291527
0.0184753
0.0161853
0.0472628
0.0483406
0.0498815
0.0512184
0.0510863
0.0480891
0.0404072
0.0277726
0.017218
0.0160883
0.015793
0.0161872
0.0169402
0.0180718
0.0195309
0.0208105
0.0202367
0.0155588
0.0102409
0.0108105
0.00176645
0.00175695
0.00174922
0.00174388
0.0017419
0.00174507
0.00175529
0.00177346
0.00180595
0.00188311
0.00190968
0.00191003
0.00191089
0.00191243
0.0019147
0.00191773
0.00192156
0.00192647
0.00193339
0.00194491
0.0120064
0.0119872
0.0121224
0.0124402
0.0128985
0.0134115
0.0138402
0.0140229
0.0138365
0.0133535
0.0387515
0.0386544
0.0383699
0.0377492
0.0365615
0.0345835
0.0317396
0.0281613
0.024231
0.020902
0.0465258
0.0465436
0.0462668
0.0454229
0.0437601
0.0409886
0.0370023
0.0319608
0.0264425
0.0221159
0.0492398
0.0495434
0.049685
0.0491908
0.0477167
0.0448508
0.0403425
0.0342607
0.0274283
0.0226054
0.050297
0.0508632
0.0514714
0.0515319
0.0504894
0.0477917
0.0429786
0.0359844
0.0280016
0.0231874
0.0498011
0.0506084
0.0516975
0.0524281
0.0520348
0.0497646
0.0448634
0.0370305
0.027951
0.0234714
0.0430111
0.0439063
0.0453089
0.0468093
0.0475898
0.0466325
0.0427402
0.0351842
0.0260494
0.0225749
0.0149624
0.0152257
0.0157658
0.0165815
0.0176902
0.0189521
0.0196776
0.0183633
0.0148154
0.0141013
0.00175905
0.00175094
0.00174456
0.00174043
0.00173934
0.00174285
0.00175296
0.0017715
0.00180158
0.00185774
0.00189611
0.0018965
0.00189703
0.00189779
0.00189879
0.00189998
0.00190139
0.00190324
0.00190654
0.0019141
0.0115601
0.0115163
0.0115732
0.0117641
0.012087
0.0125392
0.0131089
0.0137679
0.0144468
0.0149919
0.0351938
0.0352982
0.0354413
0.035556
0.0355
0.0350955
0.0341946
0.0327293
0.0307512
0.0286524
0.041733
0.0419635
0.0421697
0.0422113
0.0418872
0.0409604
0.0392633
0.0367534
0.0335244
0.0302893
0.0439261
0.0443432
0.044819
0.0450914
0.0448964
0.0439144
0.0419043
0.0387723
0.0345883
0.0305821
0.0449052
0.0454677
0.0462293
0.0468599
0.0469805
0.0461608
0.0440379
0.0404312
0.0353908
0.030948
0.0447277
0.0454228
0.046476
0.047518
0.0480725
0.0475784
0.0454905
0.0414648
0.0355354
0.0308889
0.0392104
0.0398947
0.0410366
0.0424385
0.0436532
0.0440277
0.0427462
0.0391452
0.0331916
0.0290987
0.0143125
0.0144753
0.0148441
0.0153966
0.0161607
0.0171439
0.0181585
0.0185274
0.0172895
0.0164832
0.0017502
0.00174344
0.00173833
0.00173532
0.00173506
0.0017388
0.00174809
0.00176463
0.00178996
0.00182886
0.00187925
0.00187965
0.00187995
0.00188022
0.00188045
0.00188061
0.00188071
0.00188098
0.0018824
0.00188787
0.0115921
0.0115403
0.0115506
0.0116471
0.0118282
0.0120963
0.0124584
0.0129351
0.0135546
0.0142917
0.0320966
0.0322196
0.0324332
0.0327345
0.0330799
0.0333953
0.0335926
0.0335807
0.03329
0.0327749
0.0374449
0.0376949
0.0380318
0.038425
0.0387752
0.0389487
0.0388047
0.0382328
0.037176
0.0358395
0.0392899
0.0396662
0.0401877
0.0407554
0.0412289
0.0414162
0.041117
0.0401813
0.0385047
0.0364559
0.0402551
0.0407094
0.0413968
0.0421952
0.0429036
0.0432564
0.0429623
0.0418038
0.0395812
0.0369336
0.0403531
0.0408827
0.0417441
0.0427795
0.0437588
0.0443439
0.0441277
0.0427839
0.0399653
0.036797
0.0359905
0.0364736
0.0373115
0.0384394
0.0396711
0.0406909
0.0409861
0.0400259
0.0372465
0.03423
0.0138486
0.0139376
0.0141776
0.0145299
0.0150135
0.0156635
0.0164681
0.0172092
0.0171934
0.0169639
0.00173964
0.00173415
0.00173019
0.00172814
0.00172854
0.00173232
0.00174054
0.00175435
0.00177424
0.00180035
0.00186004
0.00186044
0.0018606
0.00186059
0.00186038
0.00185998
0.00185939
0.00185884
0.00185929
0.0018636
0.0119319
0.0118844
0.0118753
0.0119222
0.0120235
0.0121794
0.0123965
0.0127012
0.0131512
0.0138109
0.0299598
0.0300283
0.0301533
0.0303483
0.0306075
0.0309141
0.0312435
0.0315564
0.031793
0.0318964
0.0341316
0.0342926
0.0345276
0.0348533
0.0352407
0.0356478
0.0360171
0.0362793
0.0363581
0.0362575
0.0356316
0.0358839
0.0362562
0.0367294
0.0372608
0.037783
0.0382015
0.0384125
0.0383036
0.037926
0.0365436
0.0368454
0.0373247
0.0379632
0.0386939
0.0394198
0.0399904
0.0402408
0.0399717
0.0392712
0.0368116
0.0371667
0.0377641
0.0385564
0.0394765
0.0403978
0.0411048
0.041354
0.0408142
0.0396887
0.0334142
0.0337276
0.0342807
0.035062
0.0360187
0.0370675
0.0379882
0.0384499
0.0379237
0.0367384
0.0135665
0.0136034
0.0137522
0.0139649
0.01425
0.0146317
0.0151272
0.0156712
0.0158035
0.0157777
0.00172715
0.00172283
0.00171986
0.00171857
0.00171939
0.00172298
0.00172999
0.00174103
0.00175584
0.00177309
0.00183905
0.00183944
0.00183954
0.00183936
0.00183892
0.00183821
0.00183727
0.00183629
0.00183618
0.00183975
0.0124453
0.0124075
0.0123921
0.0124138
0.012472
0.0125673
0.0127072
0.0129214
0.0132808
0.0138967
0.0287956
0.0288231
0.0288743
0.0289594
0.029079
0.0292295
0.0294052
0.0295927
0.0297603
0.0298549
0.0319688
0.0320454
0.0321571
0.0323242
0.032537
0.0327843
0.0330487
0.0333021
0.0334986
0.0336072
0.0330719
0.0332083
0.0334094
0.0336752
0.0339965
0.0343575
0.0347308
0.0350763
0.0353296
0.0354736
0.0338388
0.0340085
0.0342792
0.0346586
0.0351313
0.0356804
0.0362642
0.0368171
0.0372209
0.0374392
0.0341452
0.0343557
0.0347124
0.0352007
0.0358159
0.0365374
0.037303
0.0380105
0.0384584
0.0386248
0.0314841
0.0316703
0.0320006
0.032472
0.0330724
0.0338054
0.0346255
0.0354094
0.035827
0.0359026
0.0134579
0.0134592
0.013547
0.0136687
0.0138274
0.0140337
0.0142987
0.01459
0.0145481
0.0143831
0.00171256
0.00170926
0.00170712
0.00170639
0.0017074
0.00171058
0.00171629
0.00172477
0.00173534
0.00174658
0.00181658
0.00181697
0.00181702
0.00181676
0.0018162
0.00181534
0.0018142
0.00181298
0.00181251
0.00181553
0.0130523
0.0130258
0.0130095
0.0130174
0.0130504
0.0131099
0.0132053
0.0133697
0.0136825
0.014284
0.0282888
0.0282985
0.028316
0.0283478
0.0283953
0.0284585
0.0285373
0.0286279
0.0287143
0.0287559
0.0307243
0.0307547
0.0307981
0.0308681
0.0309593
0.0310674
0.0311856
0.0313023
0.0313955
0.0314436
0.031456
0.0315201
0.031612
0.0317326
0.0318785
0.0320445
0.0322219
0.032397
0.0325421
0.0326425
0.0320295
0.0321133
0.0322449
0.0324314
0.0326671
0.0329504
0.0332725
0.0336143
0.033924
0.034164
0.0322803
0.0323918
0.0325808
0.0328375
0.0331668
0.0335699
0.0340358
0.0345371
0.0349813
0.0353358
0.0301441
0.0302444
0.030425
0.0306792
0.0309997
0.0313987
0.0318781
0.0324071
0.0328151
0.0331173
0.013512
0.0134899
0.0135385
0.0136048
0.0136889
0.0137939
0.0139244
0.0140561
0.0138919
0.0136378
0.00169572
0.00169331
0.00169182
0.00169147
0.00169249
0.00169512
0.00169953
0.00170574
0.00171297
0.0017201
0.00179272
0.00179311
0.00179314
0.00179284
0.00179222
0.00179127
0.00179004
0.00178867
0.00178794
0.00179049
0.0137165
0.013701
0.0136862
0.0136861
0.0137029
0.0137393
0.0138064
0.0139402
0.0142267
0.0148266
0.0281468
0.0281507
0.028156
0.0281669
0.0281855
0.0282131
0.0282516
0.0283016
0.0283536
0.0283734
0.030065
0.0300755
0.0300906
0.0301181
0.0301552
0.0301997
0.0302489
0.0302976
0.0303355
0.0303494
0.0305102
0.0305374
0.0305755
0.030625
0.0306836
0.0307488
0.0308172
0.0308842
0.03094
0.0309774
0.0309024
0.0309397
0.0309973
0.0310796
0.0311824
0.0313048
0.0314444
0.0315951
0.0317375
0.0318483
0.0310632
0.0311159
0.031207
0.0313286
0.0314838
0.0316733
0.0318945
0.0321393
0.0323672
0.0325566
0.0292968
0.0293442
0.0294354
0.0295609
0.0297129
0.0298973
0.0301187
0.0303672
0.0305519
0.0306992
0.0137185
0.0136812
0.013706
0.0137403
0.0137829
0.0138339
0.0138945
0.0139454
0.0137421
0.0134915
0.00167655
0.00167487
0.00167389
0.00167377
0.00167466
0.00167669
0.00167989
0.0016842
0.00168889
0.00169319
0.00176748
0.00176787
0.00176789
0.00176757
0.00176691
0.00176592
0.00176463
0.00176316
0.00176223
0.00176434
0.0144297
0.0144246
0.0144123
0.0144076
0.0144136
0.0144343
0.0144824
0.0145964
0.0148674
0.0154715
0.0281887
0.0281915
0.028193
0.0281964
0.0282038
0.0282173
0.0282395
0.0282726
0.0283105
0.0283219
0.0297376
0.0297406
0.0297454
0.0297565
0.0297722
0.0297917
0.029814
0.0298367
0.0298545
0.0298586
0.0299884
0.0299985
0.0300132
0.0300327
0.0300559
0.0300813
0.0301078
0.0301339
0.0301565
0.0301725
0.0302411
0.0302559
0.0302791
0.0303133
0.0303557
0.0304054
0.0304617
0.0305228
0.0305826
0.0306283
0.0303192
0.0303403
0.0303805
0.0304344
0.0305035
0.0305877
0.0306855
0.0307939
0.0308951
0.0309763
0.0288294
0.028847
0.0288895
0.0289468
0.0290121
0.0290872
0.0291745
0.0292687
0.0293183
0.0293571
0.0140698
0.0140229
0.0140337
0.0140505
0.0140713
0.0140952
0.0141219
0.0141359
0.013941
0.0137341
0.00165498
0.00165389
0.00165329
0.00165329
0.00165399
0.00165543
0.0016576
0.00166038
0.0016632
0.00166554
0.00174078
0.00174116
0.00174118
0.00174084
0.00174017
0.00173915
0.00173782
0.00173629
0.00173517
0.00173685
0.0152015
0.0152056
0.0151964
0.0151892
0.0151882
0.0151981
0.0152332
0.0153341
0.0155965
0.0162086
0.028318
0.028321
0.0283216
0.0283226
0.0283257
0.0283332
0.0283481
0.0283733
0.0284043
0.0284124
0.0295854
0.0295862
0.0295878
0.0295924
0.0295996
0.0296089
0.0296202
0.0296325
0.0296426
0.0296442
0.0297157
0.0297184
0.0297236
0.0297314
0.0297414
0.0297527
0.0297649
0.0297776
0.0297899
0.0298002
0.0298735
0.0298784
0.029887
0.0299008
0.0299181
0.0299386
0.0299618
0.0299876
0.0300144
0.0300356
0.0298938
0.0298994
0.0299152
0.0299381
0.029969
0.0300077
0.0300532
0.0301044
0.0301527
0.030191
0.0286348
0.0286367
0.0286548
0.028679
0.0287041
0.0287303
0.0287589
0.0287865
0.0287827
0.0287837
0.0145634
0.0145105
0.0145136
0.0145214
0.0145313
0.0145423
0.0145535
0.0145517
0.0143871
0.0142331
0.00163099
0.00163036
0.00163003
0.00163009
0.00163057
0.00163149
0.00163281
0.00163443
0.0016359
0.00163691
0.00171252
0.0017129
0.00171291
0.00171257
0.00171188
0.00171085
0.00170949
0.0017079
0.00170661
0.00170785
0.0160527
0.0160654
0.0160596
0.0160515
0.016046
0.0160486
0.0160748
0.0161671
0.0164258
0.0170499
0.0284864
0.02849
0.0284907
0.028491
0.0284925
0.0284973
0.0285084
0.0285291
0.0285565
0.0285638
0.0295206
0.0295211
0.0295217
0.0295238
0.0295272
0.0295319
0.029538
0.0295452
0.0295518
0.0295529
0.0295812
0.029581
0.0295825
0.029586
0.029591
0.0295973
0.0296047
0.0296128
0.0296216
0.0296298
0.0296792
0.0296801
0.029683
0.0296886
0.0296961
0.0297051
0.0297157
0.0297278
0.0297413
0.0297529
0.0296681
0.029667
0.0296718
0.0296815
0.0296964
0.0297164
0.0297407
0.0297688
0.0297962
0.0298187
0.0286225
0.0286172
0.0286239
0.0286331
0.0286412
0.0286479
0.0286536
0.0286561
0.0286373
0.0286315
0.0152052
0.0151485
0.0151474
0.0151509
0.0151557
0.015161
0.0151653
0.0151572
0.0150317
0.0149277
0.00160459
0.00160431
0.00160417
0.00160423
0.00160451
0.00160501
0.00160567
0.00160642
0.00160695
0.00160707
0.00168258
0.00168295
0.00168296
0.00168262
0.00168192
0.00168088
0.0016795
0.00167785
0.00167641
0.00167719
0.0170144
0.017035
0.0170329
0.017025
0.0170169
0.0170147
0.0170348
0.0171217
0.0173809
0.0180235
0.0286705
0.0286744
0.0286754
0.0286757
0.0286766
0.02868
0.0286888
0.0287066
0.028732
0.0287405
0.0294967
0.0294973
0.0294978
0.0294987
0.0295003
0.0295025
0.0295057
0.02951
0.0295146
0.0295159
0.0295194
0.0295182
0.0295185
0.0295202
0.0295233
0.0295276
0.0295328
0.0295389
0.0295456
0.0295524
0.0295808
0.0295805
0.0295813
0.0295837
0.0295873
0.0295919
0.0295974
0.0296038
0.0296114
0.0296185
0.029559
0.0295555
0.029556
0.0295603
0.0295685
0.0295805
0.0295957
0.0296138
0.0296319
0.0296478
0.0287228
0.0287148
0.0287166
0.0287196
0.0287214
0.0287214
0.0287195
0.0287143
0.0286954
0.0286925
0.0160125
0.0159534
0.0159502
0.0159518
0.0159544
0.0159572
0.0159587
0.0159489
0.015864
0.0158027
0.0015758
0.00157576
0.00157575
0.0015758
0.00157591
0.00157608
0.00157626
0.00157639
0.00157628
0.0015758
0.00165089
0.00165126
0.00165126
0.00165091
0.00165021
0.00164915
0.00164776
0.00164607
0.00164447
0.00164477
0.0181288
0.0181571
0.0181589
0.0181522
0.0181429
0.0181378
0.0181538
0.0182372
0.0185003
0.019173
0.0288578
0.0288618
0.0288631
0.0288635
0.0288643
0.028867
0.0288742
0.0288896
0.0289136
0.0289247
0.0294899
0.0294907
0.0294912
0.0294916
0.0294922
0.029493
0.0294945
0.0294969
0.0295002
0.0295019
0.0294934
0.0294922
0.029492
0.0294931
0.0294952
0.0294983
0.0295021
0.0295066
0.0295117
0.029517
0.0295322
0.0295316
0.0295318
0.0295329
0.0295349
0.0295376
0.0295408
0.0295446
0.029549
0.0295536
0.0295125
0.0295086
0.0295077
0.0295098
0.029515
0.0295231
0.0295336
0.0295462
0.0295589
0.0295711
0.0288845
0.0288761
0.028876
0.0288767
0.0288765
0.028875
0.0288717
0.0288656
0.0288515
0.0288533
0.0170192
0.0169587
0.0169547
0.0169555
0.0169571
0.0169588
0.0169591
0.016954
0.0169031
0.0168765
0.00154467
0.00154481
0.00154488
0.00154491
0.00154489
0.00154481
0.00154465
0.00154435
0.00154381
0.00154295
0.00161746
0.00161783
0.00161783
0.00161747
0.00161676
0.00161569
0.00161428
0.00161255
0.0016108
0.00161058
0.0194542
0.0194901
0.0194961
0.0194913
0.0194822
0.0194758
0.019489
0.0195696
0.0198387
0.0205573
0.02904
0.0290438
0.0290452
0.0290458
0.0290466
0.0290488
0.0290546
0.0290677
0.02909
0.0291047
0.0294887
0.0294895
0.0294899
0.0294901
0.0294901
0.0294902
0.0294907
0.0294919
0.0294942
0.0294964
0.0294833
0.0294824
0.0294822
0.0294829
0.0294843
0.0294864
0.0294891
0.0294922
0.0294958
0.0294995
0.0295074
0.0295069
0.0295069
0.0295075
0.0295087
0.0295103
0.0295123
0.0295146
0.0295172
0.0295201
0.0294951
0.0294919
0.0294907
0.029492
0.0294955
0.0295011
0.0295083
0.0295169
0.0295258
0.0295351
0.0290695
0.029062
0.0290613
0.0290613
0.0290609
0.0290597
0.0290571
0.0290526
0.0290437
0.0290497
0.0182837
0.0182229
0.0182187
0.0182192
0.0182203
0.0182213
0.0182208
0.018218
0.0181969
0.0181971
0.00151132
0.00151158
0.00151171
0.00151172
0.0015116
0.00151135
0.00151096
0.00151038
0.00150956
0.00150845
0.00158247
0.00158284
0.00158284
0.00158248
0.00158176
0.00158069
0.00157926
0.0015775
0.00157561
0.00157485
0.0210711
0.0211143
0.0211248
0.0211227
0.0211155
0.0211098
0.0211217
0.0211986
0.0214716
0.0222548
0.0292076
0.0292109
0.0292122
0.0292129
0.0292137
0.0292155
0.02922
0.0292305
0.0292501
0.0292681
0.0294873
0.029488
0.0294883
0.0294883
0.0294882
0.029488
0.0294879
0.0294884
0.0294899
0.0294922
0.0294789
0.0294783
0.0294782
0.0294786
0.0294795
0.0294808
0.0294825
0.0294845
0.0294867
0.0294891
0.029493
0.0294926
0.0294926
0.029493
0.0294937
0.0294946
0.0294957
0.029497
0.0294984
0.0295001
0.029487
0.0294847
0.0294839
0.0294846
0.0294869
0.0294905
0.0294951
0.0295005
0.0295061
0.0295126
0.0292472
0.0292414
0.0292407
0.0292406
0.0292404
0.0292398
0.0292383
0.0292359
0.0292309
0.0292393
0.0199035
0.019844
0.0198402
0.0198405
0.0198413
0.0198417
0.0198404
0.0198369
0.0198274
0.0198469
0.00147599
0.00147633
0.00147649
0.00147648
0.0014763
0.00147594
0.0014754
0.00147465
0.00147366
0.0014724
0.00154605
0.00154642
0.00154643
0.00154608
0.00154538
0.00154431
0.0015429
0.00154114
0.00153915
0.00153784
0.0230791
0.0231281
0.0231435
0.0231462
0.0231442
0.0231434
0.0231571
0.0232282
0.0234926
0.0243427
0.0293483
0.0293506
0.0293516
0.0293523
0.0293531
0.0293545
0.0293577
0.0293651
0.0293802
0.0293992
0.0294837
0.0294841
0.0294843
0.0294843
0.0294842
0.029484
0.0294838
0.0294839
0.0294847
0.0294865
0.0294759
0.0294756
0.0294755
0.0294757
0.0294762
0.029477
0.0294779
0.0294791
0.0294803
0.0294817
0.0294831
0.0294829
0.0294829
0.0294831
0.0294835
0.029484
0.0294846
0.0294852
0.0294859
0.0294867
0.0294783
0.0294769
0.0294763
0.0294768
0.0294781
0.0294802
0.0294827
0.0294856
0.0294886
0.0294926
0.0293901
0.0293866
0.0293861
0.0293861
0.0293861
0.0293858
0.029385
0.0293837
0.0293806
0.0293894
0.0220455
0.0219908
0.0219879
0.0219881
0.0219883
0.0219881
0.0219861
0.0219817
0.0219712
0.0219834
0.00143887
0.00143923
0.00143941
0.00143939
0.00143917
0.00143875
0.00143812
0.00143728
0.0014362
0.00143489
0.00150734
0.00150773
0.00150774
0.00150741
0.00150672
0.00150568
0.00150429
0.00150257
0.00150054
0.00149879
0.0257314
0.0257705
0.0257802
0.0257811
0.0257787
0.025776
0.0257801
0.0258188
0.0260075
0.0268462
0.0294491
0.0294502
0.0294507
0.0294511
0.0294517
0.0294527
0.0294546
0.0294584
0.029467
0.0294817
0.0294792
0.0294794
0.0294795
0.0294795
0.0294794
0.0294793
0.0294793
0.0294792
0.0294795
0.0294803
0.0294743
0.0294741
0.029474
0.0294741
0.0294744
0.0294749
0.0294754
0.0294761
0.0294768
0.0294776
0.0294768
0.0294766
0.0294766
0.0294767
0.029477
0.0294773
0.0294777
0.0294782
0.0294787
0.0294792
0.0294694
0.0294686
0.0294683
0.0294685
0.0294693
0.0294705
0.0294719
0.0294734
0.0294749
0.0294768
0.0294781
0.0294765
0.0294764
0.0294765
0.0294765
0.0294765
0.0294764
0.0294763
0.0294759
0.0294823
0.0250239
0.0249824
0.0249807
0.0249807
0.0249808
0.0249803
0.0249786
0.0249749
0.0249661
0.0249691
0.00139922
0.00139959
0.00139976
0.00139973
0.0013995
0.00139905
0.0013984
0.00139752
0.00139642
0.00139512
0.0023924
0.00246192
0.0024321
0.00231089
0.00232249
0.00232254
0.0022935
0.00225236
0.00287597
0.00288405
0.00284525
0.00275536
0.00319119
0.00320657
0.00316671
0.00305243
0.00348902
0.0035104
0.00346778
0.00334218
0.0038142
0.00383115
0.00377898
0.00364814
0.00408388
0.00409474
0.00403978
0.00392065
0.0042167
0.00421964
0.0041631
0.00404959
0.00372707
0.00370933
0.00364196
0.00352672
0.00255876
0.0026206
0.00265863
0.00265911
0.00204836
0.00210001
0.00211937
0.00209394
0.00411324
0.00429152
0.00424929
0.00394098
0.0062787
0.00645085
0.00634464
0.0058976
0.00758824
0.00773308
0.00759184
0.00711333
0.00891009
0.00908463
0.0089292
0.00843168
0.010768
0.011078
0.0109662
0.0105204
0.0127507
0.0131683
0.0130706
0.0126691
0.0142742
0.0147686
0.0147091
0.0144427
0.0119548
0.0123679
0.0122856
0.0120319
0.00235928
0.00239157
0.00239527
0.00237601
0.00193825
0.00196128
0.00196743
0.00195474
0.00476047
0.00497913
0.00507316
0.00518769
0.00701615
0.00729283
0.00737096
0.00752344
0.00820528
0.00847733
0.00854244
0.00868395
0.00936551
0.00964991
0.00971416
0.00979964
0.0108585
0.0112652
0.0114515
0.0116658
0.0125218
0.0130674
0.0133595
0.0136541
0.0138324
0.0145034
0.0148894
0.0152909
0.0108495
0.0114072
0.0117093
0.0119785
0.0021425
0.00216879
0.00217928
0.00217707
0.0018852
0.00189632
0.00189863
0.00189056
0.00821626
0.00824721
0.00853251
0.00921848
0.0116783
0.0117661
0.0122212
0.0132371
0.0127306
0.0129195
0.013474
0.014623
0.0136005
0.0138874
0.01451
0.0157318
0.0147372
0.0151555
0.0159052
0.0173089
0.015872
0.0164136
0.0172594
0.0187598
0.0164859
0.0171588
0.0180966
0.0196291
0.0120446
0.012634
0.0133471
0.0143436
0.00200894
0.00202536
0.00203664
0.00204465
0.00184883
0.00185655
0.00185734
0.00185074
0.0124993
0.0125176
0.012795
0.0133903
0.0193591
0.01936
0.0199243
0.0210751
0.0204025
0.0205585
0.0213256
0.0227289
0.020936
0.0212591
0.0221768
0.0237357
0.0217957
0.0223369
0.0234542
0.0251875
0.0224911
0.0232176
0.0244652
0.0262559
0.0222041
0.0230683
0.0243466
0.0260234
0.0146357
0.0153085
0.0161112
0.0169426
0.00193443
0.00194548
0.00195436
0.00196197
0.00181945
0.00182575
0.00182616
0.00182037
0.01401
0.014098
0.0142551
0.0144958
0.0275079
0.0274049
0.027765
0.0285224
0.0288921
0.0288805
0.0294293
0.0304411
0.0290741
0.0291986
0.0298982
0.0310616
0.0294999
0.0298061
0.0306779
0.031986
0.0296017
0.0300664
0.0310493
0.0324076
0.0281568
0.0287297
0.0297061
0.0309334
0.0165104
0.0168946
0.0173634
0.0177701
0.00187994
0.00188695
0.00189345
0.00189999
0.00179426
0.00179985
0.00180006
0.00179472
0.0130586
0.0131899
0.0132847
0.0133588
0.0322476
0.0321952
0.0323121
0.0325712
0.0352204
0.0351798
0.0353984
0.0358173
0.0356458
0.0356491
0.0359629
0.0365028
0.0359831
0.0360714
0.036507
0.0371819
0.0357483
0.0359199
0.0364404
0.0371836
0.0332617
0.033493
0.0340019
0.0346569
0.0170685
0.0172039
0.0173363
0.0173701
0.00183817
0.0018426
0.00184722
0.0018525
0.0017708
0.00177594
0.00177605
0.00177102
0.012453
0.012583
0.0126478
0.0126581
0.0315616
0.0315363
0.0315516
0.0316054
0.0361404
0.0361304
0.036165
0.0362336
0.0377369
0.0377303
0.0377975
0.0379154
0.0389629
0.0389785
0.0391143
0.0393324
0.0392147
0.039246
0.0394307
0.0397147
0.0362297
0.0362708
0.0364364
0.0366647
0.0160648
0.0161005
0.0160847
0.0159647
0.00180352
0.00180627
0.00180951
0.00181366
0.00174765
0.00175245
0.0017525
0.00174775
0.0124495
0.0125737
0.0126195
0.0125945
0.029521
0.0294905
0.0294898
0.0295202
0.0335835
0.0335799
0.0335761
0.0335722
0.0354886
0.0354916
0.0354865
0.0354713
0.037486
0.0375105
0.0375383
0.0375631
0.0386537
0.0386854
0.0387349
0.0387891
0.0359432
0.0359652
0.03599
0.0359986
0.0146249
0.0146364
0.0146028
0.0144884
0.00177272
0.00177437
0.0017766
0.00177979
0.0017241
0.00172858
0.0017286
0.00172413
0.012742
0.0128584
0.0128909
0.0128458
0.0284292
0.0283961
0.028395
0.0284271
0.0314145
0.0314085
0.0314055
0.0314062
0.0326529
0.0326516
0.0326409
0.0326216
0.0342301
0.0342467
0.0342517
0.0342448
0.0354665
0.035498
0.0355137
0.0355112
0.033323
0.0333511
0.0333473
0.0333049
0.0137931
0.0137925
0.0137633
0.0136827
0.00174361
0.00174455
0.00174606
0.00174847
0.00169971
0.00170387
0.00170388
0.00169972
0.0131813
0.0132868
0.0133093
0.0132556
0.0280634
0.0280307
0.02803
0.0280623
0.0303219
0.0303166
0.0303162
0.0303212
0.0309762
0.0309733
0.0309666
0.030957
0.0318726
0.0318779
0.0318786
0.0318753
0.0326239
0.0326383
0.032644
0.0326408
0.0308455
0.0308605
0.030852
0.0308171
0.0136173
0.0136126
0.0135876
0.0135288
0.00171502
0.0017155
0.00171651
0.00171831
0.00167419
0.00167802
0.00167802
0.00167419
0.0137135
0.0138018
0.0138158
0.0137656
0.0280305
0.0279987
0.0279981
0.0280295
0.0298365
0.0298325
0.029833
0.0298385
0.0301708
0.0301688
0.0301651
0.0301605
0.0306345
0.0306355
0.0306352
0.0306347
0.0310005
0.0310047
0.0310063
0.0310063
0.0294474
0.0294523
0.0294429
0.0294183
0.0138687
0.0138658
0.0138453
0.013799
0.00168628
0.00168647
0.00168713
0.00168848
0.00164734
0.00165081
0.00165081
0.00164733
0.0143249
0.0143837
0.0143924
0.01436
0.0281407
0.0281102
0.0281097
0.0281397
0.029627
0.029624
0.0296247
0.0296292
0.0298002
0.0297994
0.0297974
0.0297951
0.0300372
0.0300371
0.0300368
0.0300371
0.0301996
0.0302002
0.0302006
0.0302017
0.0288495
0.0288513
0.0288432
0.0288251
0.0143938
0.0143958
0.0143797
0.0143409
0.00165694
0.00165696
0.00165739
0.00165838
0.00161897
0.00162209
0.00162209
0.00161895
0.0150242
0.0150648
0.0150702
0.0150446
0.0283138
0.0282854
0.028285
0.0283129
0.0295395
0.0295373
0.0295378
0.0295412
0.0296312
0.029631
0.0296301
0.0296288
0.0297536
0.0297536
0.0297534
0.0297538
0.0298224
0.0298223
0.0298225
0.0298238
0.0286871
0.0286885
0.0286825
0.0286691
0.0151217
0.0151298
0.015118
0.0150835
0.00162665
0.00162657
0.00162684
0.00162757
0.00158894
0.00159172
0.00159172
0.00158893
0.0158355
0.0158734
0.0158773
0.0158502
0.0285151
0.0284896
0.0284893
0.0285144
0.0295058
0.0295042
0.0295045
0.0295067
0.0295543
0.0295545
0.0295541
0.0295534
0.0296192
0.0296192
0.0296192
0.0296195
0.02965
0.0296498
0.0296501
0.0296514
0.0287418
0.0287437
0.0287397
0.0287298
0.016033
0.0160475
0.0160394
0.0160073
0.00159512
0.001595
0.00159516
0.00159568
0.00155717
0.00155959
0.00155959
0.00155717
0.0168116
0.0168539
0.0168565
0.0168215
0.0287277
0.028706
0.0287059
0.0287273
0.0294949
0.0294939
0.029494
0.0294953
0.0295188
0.0295191
0.029519
0.0295186
0.0295543
0.0295544
0.0295544
0.0295546
0.0295727
0.0295727
0.0295731
0.0295742
0.0288969
0.0288993
0.0288968
0.0288896
0.0171427
0.0171629
0.017158
0.0171274
0.00156212
0.00156199
0.00156209
0.00156245
0.00152366
0.00152567
0.00152567
0.00152365
0.0180098
0.0180694
0.0180709
0.0180157
0.0289407
0.028924
0.0289239
0.0289406
0.0294924
0.0294919
0.0294919
0.0294923
0.0295011
0.0295014
0.0295013
0.0295011
0.0295207
0.0295208
0.0295208
0.0295208
0.0295362
0.0295363
0.0295366
0.0295375
0.0290876
0.0290902
0.0290887
0.0290832
0.0184929
0.0185161
0.0185139
0.0184862
0.00152757
0.00152745
0.00152751
0.00152776
0.00148858
0.00149016
0.00149016
0.00148858
0.0195223
0.0196247
0.0196254
0.0195252
0.0291427
0.0291322
0.0291322
0.0291428
0.0294907
0.0294907
0.0294906
0.0294904
0.0294903
0.0294905
0.0294905
0.0294902
0.0295005
0.0295005
0.0295004
0.0295003
0.0295134
0.0295136
0.0295139
0.0295144
0.0292714
0.029274
0.029273
0.0292684
0.0201487
0.0201662
0.0201662
0.020149
0.00149153
0.00149144
0.00149147
0.00149163
0.00145225
0.00145335
0.00145335
0.00145225
0.0215136
0.0217088
0.0217089
0.0215143
0.0293178
0.0293144
0.0293144
0.029318
0.0294866
0.0294869
0.0294868
0.0294863
0.0294824
0.0294825
0.0294825
0.0294824
0.0294868
0.0294868
0.0294866
0.0294865
0.0294932
0.0294934
0.0294936
0.0294938
0.0294149
0.0294176
0.0294166
0.0294121
0.0222671
0.0222785
0.0222788
0.0222681
0.00145412
0.00145407
0.00145409
0.00145418
0.00141399
0.0014146
0.0014146
0.00141399
0.0243676
0.0247117
0.0247118
0.0243678
0.0294469
0.029449
0.029449
0.0294471
0.0294805
0.0294807
0.0294807
0.0294805
0.0294779
0.029478
0.029478
0.029478
0.0294791
0.029479
0.0294789
0.0294789
0.029477
0.0294772
0.0294774
0.0294776
0.0294956
0.0294967
0.0294956
0.0294926
0.0251849
0.0251859
0.0251864
0.0251866
0.00141455
0.00141456
0.00141457
0.00141459
0.00219762
0.00208405
0.00202257
0.00198682
0.00196566
0.00194988
0.00193636
0.0019248
0.00191542
0.00190797
0.00280859
0.002532
0.00387404
0.00835031
0.0134002
0.0171777
0.0192572
0.0198708
0.0195933
0.0188608
0.0040392
0.00501564
0.0114939
0.0211691
0.0322667
0.0418447
0.0488402
0.0530816
0.0548061
0.0542779
0.00560235
0.00900523
0.0177143
0.0303026
0.0434936
0.0540914
0.0615166
0.0658564
0.0675032
0.0668928
0.0088587
0.0121743
0.0231172
0.0370428
0.0505451
0.0609332
0.0678107
0.0715244
0.0726396
0.0719164
0.0133005
0.0160284
0.0274965
0.0416952
0.0549416
0.064803
0.0709111
0.073798
0.0742605
0.073398
0.0167721
0.0188951
0.029483
0.0436597
0.0564796
0.0656202
0.0707046
0.0726145
0.0723703
0.0714437
0.0185458
0.019492