/*--------------------------------*- C++ -*----------------------------------*\
| =========                 |                                                 |
| \\      /  F ield         | foam-extend: Open Source CFD                    |
|  \\    /   O peration     | Version:     4.0                                |
|   \\  /    A nd           | Web:         http://www.foam-extend.org         |
|    \\/     M anipulation  |                                                 |
\*---------------------------------------------------------------------------*/
FoamFile
{
    version     2.0;
    format      ascii;
    class       volScalarField;
    location    "1200";
    object      divFlux;
}
// * * * * * * * * * * * * * * * * * * * * * * * * * * * * * * * * * * * * * //

dimensions      [1 -3 -1 0 0 0 0];

internalField   nonuniform List<scalar> 
34480
(
0.0941808
0.0306115
0.0321954
0.03052
0.0284167
0.0262764
0.0241438
0.0220868
0.0202034
0.0185168
0.0316278
0.0161464
0.0166112
0.0163761
0.0161358
0.015737
0.0150365
0.0140682
0.0129712
0.0118714
0.0110745
0.00723815
0.00742273
0.00757472
0.00784188
0.00807405
0.00807087
0.00776662
0.00724882
0.00663535
0.00527726
0.00383678
0.00386006
0.00391711
0.00406645
0.0042431
0.00432157
0.00422684
0.00398136
0.0036488
0.00285544
0.0022024
0.00217089
0.00217092
0.00223294
0.00233169
0.00239654
0.00237132
0.00225216
0.00207076
0.00168363
0.00134468
0.00130224
0.00128367
0.00130684
0.00136098
0.00140536
0.00140287
0.00134289
0.0012503
0.00107516
0.000875724
0.000834205
0.000810796
0.00081696
0.000847797
0.000878911
0.000886
0.000857118
0.000811311
0.000785312
0.000643355
0.000601292
0.000574071
0.000569761
0.000585576
0.000606062
0.000615682
0.000603223
0.000581111
0.000762072
0.000620511
0.000564657
0.000520478
0.000493589
0.000482874
0.000481349
0.000482209
0.000475769
0.000466604
0.000720596
0.000592675
0.000536252
0.000488717
0.000452214
0.000427251
0.000413557
0.00040968
0.000409068
0.000411766
0.126274
0.0373589
0.0391876
0.0375627
0.0354399
0.0334691
0.0317187
0.030298
0.0294124
0.0311158
0.0460585
0.0216459
0.0222601
0.0219574
0.0215929
0.0213048
0.0210069
0.0206208
0.0202073
0.0215053
0.0173639
0.0106627
0.0109343
0.0111487
0.0115273
0.0119156
0.0122139
0.0123261
0.0122145
0.0129992
0.00910355
0.00629858
0.00632601
0.00640149
0.00665138
0.00695672
0.00722503
0.00737953
0.00734645
0.00779303
0.00541983
0.00401079
0.00393797
0.00392886
0.0040446
0.00424423
0.00444067
0.00457888
0.00457988
0.00484861
0.00350842
0.00270514
0.00260582
0.00256402
0.00261346
0.00274469
0.00288861
0.00300556
0.00302233
0.00319599
0.00245559
0.00194091
0.00183822
0.00178531
0.00180347
0.00189523
0.00200842
0.00211283
0.00214055
0.00226876
0.00198162
0.00158355
0.00147289
0.00140745
0.00140248
0.00146334
0.00155235
0.00164671
0.00167992
0.00178308
0.00219114
0.00174588
0.00158552
0.00146396
0.00138983
0.00137341
0.00140009
0.00145903
0.00148662
0.00158281
0.00225248
0.00181739
0.00164897
0.00151224
0.00140993
0.00135638
0.00134716
0.00137795
0.00140879
0.00151822
0.132977
0.0338798
0.0361539
0.0350625
0.0336258
0.0323936
0.0314737
0.031001
0.0313236
0.0148879
0.0467378
0.0187031
0.0194196
0.018996
0.0186073
0.0184944
0.0186142
0.0189254
0.019598
0.00017361
0.0164197
0.00865971
0.00885302
0.00886625
0.00899102
0.00928386
0.00974087
0.0102879
0.0109604
0.00643677
0.00800607
0.00480531
0.00479151
0.00474863
0.00481653
0.00498747
0.00529046
0.0056864
0.00617008
0.00724247
0.00440483
0.00286105
0.00278332
0.00270751
0.00271616
0.002802
0.00298504
0.00325489
0.00359906
0.00432841
0.00262486
0.00179679
0.00171163
0.00163579
0.00161798
0.00166177
0.00177709
0.00196595
0.00221739
0.0027317
0.00168904
0.00119836
0.00112114
0.00105377
0.00102769
0.00105096
0.00112937
0.00126989
0.00146423
0.00185035
0.00124488
0.000901544
0.000830083
0.000767464
0.000735872
0.000744855
0.000799661
0.000909512
0.00106982
0.00138803
0.00119798
0.000866637
0.000791999
0.000723922
0.000677668
0.000661661
0.000683533
0.000757206
0.00089194
0.00119968
0.00104174
0.000750278
0.000688079
0.000632824
0.000595417
0.000580779
0.00059057
0.000639235
0.00075939
0.00110781
0.140958
0.0322961
0.0347989
0.0341521
0.0331332
0.0322847
0.0317275
0.0300983
0.0191334
0.00176016
0.0501737
0.0184377
0.0191891
0.018704
0.0182084
0.0179446
0.0179517
0.0182491
0.0172731
0.000488656
0.0175683
0.00864744
0.00882191
0.00872533
0.00870526
0.0088473
0.00917681
0.0096837
0.0103668
0.000764164
0.00856791
0.00486439
0.0048412
0.00475045
0.00473262
0.00481639
0.00503615
0.00539159
0.00587757
0.000994402
0.00470622
0.00292561
0.00284348
0.0027443
0.00271275
0.00274613
0.00287853
0.00311773
0.0034605
0.00109186
0.00279512
0.00184948
0.00176143
0.00167409
0.0016353
0.00164768
0.00173182
0.00189994
0.0021506
0.00147718
0.00179029
0.00123852
0.00115954
0.00108604
0.00104844
0.00105197
0.00111048
0.00123735
0.00143265
0.00176014
0.00130745
0.000931079
0.000859675
0.000794389
0.000756408
0.000752606
0.000794374
0.000895502
0.00105864
0.00133249
0.00122481
0.00087963
0.00080937
0.000744571
0.000699233
0.000679361
0.000696025
0.000766028
0.000905112
0.00117941
0.00104948
0.000752771
0.000694973
0.000643821
0.00061017
0.000596853
0.000609138
0.000661945
0.000787114
0.00110407
0.147059
0.0303376
0.0330204
0.0327157
0.0319675
0.0313167
0.0284888
0.0237671
0.0178699
0.00756359
0.0529244
0.0178591
0.0186919
0.0182461
0.0177183
0.0173317
0.0171374
0.0171732
0.0129446
0.00355761
0.0186504
0.0085366
0.00870871
0.00853501
0.00840329
0.00839522
0.00853504
0.00883704
0.00869984
0.00144818
0.00911672
0.00486912
0.00484676
0.00471562
0.00463298
0.00463159
0.00473721
0.00496256
0.00530151
0.000190005
0.00500301
0.00295764
0.00287696
0.00276504
0.00269624
0.00268239
0.00274729
0.00290385
0.00315214
0.000624441
0.00296181
0.00188092
0.00179534
0.00170161
0.0016461
0.00163009
0.00167275
0.00178678
0.00197489
0.00113603
0.00188785
0.00126361
0.00118706
0.00111174
0.0010658
0.00105213
0.00108393
0.00117387
0.00132622
0.000802262
0.00136464
0.000947463
0.000879434
0.000815254
0.000774046
0.000759995
0.000784048
0.000859043
0.000991444
0.00042483
0.00124407
0.000877576
0.000813076
0.000753327
0.00071099
0.000689705
0.000699452
0.000755237
0.000873304
0.000639108
0.00105317
0.000742546
0.000689564
0.000642697
0.000612089
0.000599934
0.000612687
0.000663348
0.000776315
0.00104619
0.151164
0.0280453
0.0308072
0.0307458
0.0300858
0.0279532
0.0254087
0.0228641
0.0199427
0.0153939
0.054625
0.0169333
0.0178381
0.0174744
0.0169846
0.0165727
0.0162768
0.0151446
0.0118967
0.0067637
0.0195962
0.00830918
0.00848774
0.00826584
0.00805781
0.00793708
0.00791979
0.00801748
0.0071052
0.00274368
0.00961052
0.00480907
0.00479114
0.00462914
0.00449724
0.0044271
0.00443495
0.00452996
0.00461885
0.000621106
0.00526836
0.0029491
0.00287458
0.00274921
0.00265317
0.00260096
0.00260753
0.00268169
0.00281882
0.000707284
0.00310891
0.00188677
0.0018062
0.0017093
0.00163875
0.00160002
0.00160636
0.00166604
0.00177861
0.00169386
0.00197232
0.00127161
0.00119967
0.00112414
0.00107149
0.00104389
0.00105196
0.00110415
0.00120255
0.0018792
0.00141125
0.000950772
0.000887612
0.00082585
0.000782661
0.00076082
0.00076922
0.000816985
0.000908803
0.00208436
0.00125464
0.000864459
0.000805846
0.000750998
0.000711606
0.000690185
0.000694644
0.000735739
0.000825404
0.00151204
0.00105212
0.000724108
0.000675919
0.000632934
0.000604662
0.000593165
0.000604821
0.000649663
0.000743914
0.0010918
0.152987
0.0250982
0.0276987
0.0274332
0.0262556
0.0250312
0.0234928
0.022173
0.0205534
0.0185145
0.0551634
0.0157095
0.0166501
0.0163697
0.0159415
0.0155594
0.0151824
0.0138826
0.0117868
0.00891289
0.0202833
0.00794936
0.00814457
0.00790852
0.00766555
0.00748178
0.00736752
0.00732867
0.00625145
0.00351483
0.00999036
0.00467002
0.00466265
0.00448551
0.00432494
0.00420989
0.00414991
0.00414919
0.00380576
0.00109454
0.00546837
0.00288934
0.00282385
0.00269177
0.00257938
0.00250094
0.00246544
0.00247706
0.00252634
0.000366865
0.003217
0.00185948
0.00178632
0.00168836
0.00160855
0.00155435
0.00153381
0.0015512
0.00160217
0.0015222
0.00203245
0.00125778
0.0011919
0.00111811
0.00106096
0.00102377
0.00101396
0.00103605
0.00108877
0.00194733
0.00144069
0.000938366
0.000880891
0.000822342
0.000778563
0.00075173
0.000748483
0.000774235
0.000830487
0.00248371
0.00125294
0.000839853
0.000786977
0.000736585
0.000699798
0.000678853
0.000679712
0.000709068
0.000773574
0.0022223
0.00104354
0.000697571
0.000654045
0.000614506
0.000588004
0.000576664
0.000586045
0.000623259
0.00069811
0.00189505
0.15232
0.021448
0.0240805
0.0242273
0.0234998
0.0227743
0.021769
0.0210811
0.0200274
0.0191757
0.0546151
0.0142804
0.0152145
0.014999
0.0146245
0.0142793
0.0137287
0.0128707
0.0116003
0.0100076
0.0205365
0.00743975
0.00765374
0.007431
0.00718856
0.00698796
0.00683689
0.00665504
0.00577583
0.00402223
0.0101747
0.00443679
0.00444489
0.0042696
0.00410228
0.00396916
0.00387562
0.0038229
0.00336066
0.00149437
0.00556487
0.00276929
0.00271578
0.00258544
0.00246862
0.00237824
0.0023193
0.00229307
0.00215278
3.58097e-05
0.00326647
0.00179324
0.00172928
0.00163395
0.00155194
0.00149029
0.00145362
0.00144356
0.0014501
0.00113751
0.00205742
0.00121837
0.00115955
0.00108922
0.00103116
0.000989435
0.000968327
0.000969836
0.000990537
0.00162076
0.00144688
0.000908109
0.00085668
0.000802215
0.000759301
0.000730431
0.00071984
0.000730173
0.00076054
0.00231685
0.00123552
0.000802908
0.00075556
0.000709225
0.000674809
0.000654552
0.000652793
0.00067332
0.000719053
0.00213611
0.00102461
0.000662328
0.000623326
0.000586916
0.000561857
0.000550333
0.00055675
0.000585804
0.000643102
0.00190015
0.151288
0.0187716
0.0212481
0.0215773
0.0210789
0.020609
0.0198699
0.0194915
0.0186817
0.0183805
0.0531133
0.0127391
0.0136307
0.0134622
0.0131298
0.0127722
0.0122644
0.0116889
0.010906
0.00997676
0.0202646
0.00678826
0.00701235
0.00681393
0.00658877
0.00639619
0.00624334
0.00598767
0.00538291
0.00426616
0.0100997
0.00410533
0.0041283
0.00396553
0.00380595
0.00367389
0.00357264
0.0035023
0.0030829
0.0017958
0.00552709
0.00258602
0.00254525
0.00242299
0.00231081
0.0022202
0.00215375
0.00211137
0.00189262
0.000401605
0.00324178
0.00168628
0.00163215
0.00154282
0.00146407
0.00140204
0.0013591
0.00133541
0.00111922
0.000738792
0.00203877
0.00115201
0.00110074
0.00103524
0.00097969
0.000937682
0.000911474
0.000901522
0.000903545
0.00119761
0.00142526
0.000859345
0.000814001
0.000763923
0.000723363
0.000694862
0.000680673
0.000681754
0.000661604
0.00196118
0.00119971
0.000753434
0.000711334
0.000668954
0.000636703
0.000617194
0.000613241
0.000626906
0.000659074
0.00169678
0.000992998
0.000618114
0.000583506
0.000550088
0.000526352
0.000514547
0.000517811
0.000539069
0.000581462
0.00160456
0.149193
0.0165163
0.0187392
0.0191278
0.0187438
0.018405
0.0178
0.0175776
0.0168809
0.0168336
0.050768
0.0111585
0.0119802
0.0118455
0.0115411
0.0111712
0.0107761
0.0103702
0.00985987
0.00925884
0.0194935
0.0060345
0.00625573
0.00608219
0.00587784
0.00569976
0.00555561
0.0052932
0.00488331
0.00416955
0.00975272
0.00369152
0.00372474
0.00357851
0.0034324
0.00330937
0.003212
0.00314001
0.00281763
0.00193482
0.00534386
0.00234671
0.00231724
0.0022062
0.00210305
0.0020182
0.00195302
0.00190696
0.00171691
0.000679584
0.00313584
0.00154206
0.00149734
0.00141592
0.00134341
0.00128512
0.00124214
0.00121403
0.000942102
0.000378739
0.00197209
0.00106047
0.00101663
0.000956942
0.000905761
0.000866119
0.000839065
0.000824304
0.000817521
0.00075785
0.00137341
0.000793164
0.000753757
0.000708246
0.00067098
0.00064411
0.000628764
0.000625003
0.00035711
0.00154399
0.00114391
0.000692146
0.000655129
0.000616485
0.000586632
0.000567908
0.000562018
0.000570048
0.000591927
0.00117897
0.000947092
0.000565318
0.000534937
0.000504486
0.000482242
0.000470307
0.000470662
0.000485072
0.000510593
0.00122648
0.145221
0.0143652
0.0162836
0.0166672
0.0163428
0.0160773
0.0155492
0.0154236
0.0147948
0.0148805
0.0476375
0.00959488
0.0103191
0.0102062
0.00991759
0.00960135
0.00928831
0.00898735
0.00863523
0.00819737
0.0182915
0.00522675
0.00543388
0.00528388
0.0051009
0.00493882
0.00476589
0.0045525
0.00426556
0.00379309
0.00915902
0.00322367
0.00326191
0.00313343
0.00300254
0.00289095
0.00280099
0.00273234
0.00250095
0.0018853
0.00502268
0.00206641
0.00204601
0.00194756
0.0018551
0.00177813
0.00171749
0.00167253
0.00153407
0.000817147
0.00295062
0.0013687
0.00133248
0.00125993
0.00119489
0.00114197
0.00110164
0.00107326
0.000811881
0.000114588
0.00185757
0.000948264
0.000911438
0.000858125
0.000812124
0.00077598
0.00075009
0.000733912
0.000723526
0.000367882
0.00129124
0.000712349
0.000678644
0.000637917
0.000604316
0.000579595
0.000564247
0.00055796
0.000194417
0.0011563
0.00106776
0.000620694
0.000588609
0.000553848
0.000526651
0.000508848
0.000501419
0.00050486
0.000518632
0.00072025
0.000886135
0.000505036
0.000478813
0.000451406
0.000430983
0.000419175
0.000417175
0.000425998
0.000293068
0.00087679
0.140349
0.0124548
0.0140646
0.0144065
0.0140985
0.0138472
0.0133248
0.0132162
0.0125597
0.0126427
0.0437713
0.0080778
0.00869006
0.0085925
0.00834383
0.00807887
0.00782826
0.00759811
0.00734594
0.00699422
0.0167243
0.0044055
0.00459029
0.00446279
0.00430215
0.00413421
0.00396238
0.00379588
0.00358679
0.0032634
0.00835654
0.0027308
0.0027697
0.00265955
0.00254506
0.00244631
0.00236558
0.00230259
0.00214752
0.00170443
0.00458182
0.00176283
0.00174939
0.00166435
0.00158349
0.00151546
0.00146082
0.00141896
0.00132358
0.000825252
0.00269484
0.00117669
0.001148
0.00108497
0.00102802
0.000981198
0.000944616
0.000917665
0.000679242
3.31716e-05
0.00169947
0.000821662
0.000791388
0.000744861
0.000704461
0.000672297
0.000648426
0.000632275
0.000620418
7.32545e-05
0.00118099
0.000620811
0.000592574
0.000556873
0.00052719
0.000504901
0.000490137
0.000482465
8.0856e-05
0.000861251
0.000972279
0.00054156
0.000514314
0.00048367
0.000459394
0.00044283
0.00043447
0.000434453
0.000442001
0.000348453
0.000810379
0.000439102
0.000416934
0.000392796
0.000374477
0.000363171
0.000359536
0.00036411
0.000178733
0.000598835
0.128911
0.010047
0.0113747
0.0117786
0.01164
0.0115812
0.0112645
0.0113942
0.0109232
0.0112246
0.0391715
0.00661198
0.00712848
0.00705076
0.00684722
0.00662707
0.00642042
0.00623219
0.00603283
0.00570553
0.0148172
0.0035896
0.00374347
0.00362989
0.00347619
0.0033241
0.00318045
0.00304985
0.0028921
0.00266835
0.00738639
0.00223775
0.00227389
0.00218223
0.00208507
0.00200039
0.00193039
0.00187484
0.00178678
0.00145802
0.00404484
0.00145282
0.00144449
0.00137333
0.00130476
0.00124649
0.00119898
0.00116169
0.00109416
0.000746112
0.00238153
0.000976925
0.000954806
0.000901724
0.000853344
0.000813143
0.0007811
0.000749492
0.000536128
8.72237e-05
0.00150511
0.000687685
0.000663465
0.000624038
0.000589555
0.000561741
0.000540483
0.00052525
0.000513085
0.000128928
0.0010469
0.000523139
0.000500108
0.000469663
0.000444141
0.000424584
0.000410922
0.000315816
2.74973e-05
0.000672825
0.000859907
0.000457823
0.000435286
0.000408993
0.000387912
0.00037299
0.000364408
0.000362127
0.00036519
5.45217e-05
0.00072119
0.000369885
0.000351637
0.000330971
0.000315028
0.00030464
0.00030012
0.000301721
0.000109885
0.000402175
0.127483
0.00845839
0.00917391
0.00907667
0.00846922
0.00793234
0.00716598
0.00692304
0.00604733
0.00605329
0.0339071
0.00521565
0.00563649
0.00559264
0.00545397
0.00531348
0.00519521
0.00510254
0.00502185
0.0047802
0.0126042
0.00276631
0.00289884
0.002809
0.00268301
0.00255821
0.00244255
0.00233991
0.00221697
0.00206338
0.00629209
0.00176489
0.00179588
0.00172243
0.00164309
0.00157329
0.00151505
0.0014682
0.00142286
0.00119319
0.00343874
0.00115119
0.00114634
0.00108904
0.00103308
0.000985108
0.000945512
0.000913838
0.000856726
0.000614895
0.0020267
0.000779575
0.000763059
0.000720033
0.000680441
0.000647229
0.000620322
0.000532631
0.000386089
7.76816e-05
0.00128412
0.000553295
0.000534554
0.000502358
0.000473975
0.000450806
0.000432665
0.000419091
0.000407583
0.000262774
0.00089492
0.000424139
0.000405971
0.000380916
0.000359731
0.000343193
0.000266001
8.38603e-05
0.000151646
0.000579922
0.00073452
0.000372953
0.000354914
0.00033312
0.000315452
0.000302554
0.000294423
0.000290936
0.000291091
0.000181445
0.000621094
0.000300122
0.000285591
0.000268526
0.000255168
0.000246075
0.000241357
0.000241097
5.87426e-05
0.000276822
0.106245
0.00891904
0.010729
0.0120355
0.0128257
0.0134427
0.0135537
0.0139331
0.0132954
0.0134306
0.0280894
0.00392321
0.00413249
0.00397115
0.00373227
0.00349788
0.00329294
0.00312164
0.00297089
0.00273624
0.0101909
0.0019712
0.00209146
0.00202877
0.00193427
0.00183928
0.00175246
0.00167761
0.00158885
0.00150425
0.00512112
0.00132789
0.00135223
0.0012961
0.00123453
0.00117993
0.00113404
0.00109667
0.00105978
0.000942138
0.00279351
0.000870263
0.000867538
0.000823525
0.000779989
0.000742371
0.000711013
0.000685539
0.000619962
0.00045549
0.00164862
0.000593553
0.000581649
0.000548374
0.000517453
0.000489032
0.000415666
0.000336078
0.000235103
2.82858e-05
0.00104782
0.00042488
0.000410949
0.000385841
0.000363526
0.000345116
0.000330419
0.000319053
0.000308957
0.000284966
0.000796533
0.000298643
0.000268221
0.000229912
0.000170683
8.62313e-05
2.73233e-05
0.000145296
0.000310443
0.000575315
0.000601271
0.00029053
0.00027667
0.000259381
0.000245226
0.000234632
0.000227519
0.000223671
0.00022222
0.000221711
0.000513711
0.000232692
0.000221583
0.000208126
0.000197458
0.000189943
0.000185576
0.000181485
2.37467e-05
0.000196116
0.0132865
0.00986864
0.0134363
0.0153386
0.0161571
0.0159146
0.0151747
0.0135872
0.0124598
0.0102862
0.0229112
0.00370568
0.00420447
0.00442869
0.00453723
0.00456644
0.00453331
0.00445256
0.0043302
0.00419736
0.00779212
0.00124678
0.00135593
0.00130651
0.00122772
0.00114602
0.00106995
0.00100156
0.000920975
0.000875642
0.00394051
0.000943884
0.000960573
0.000919359
0.00087371
0.00083313
0.000799057
0.00077135
0.000743716
0.000679785
0.00214281
0.000620353
0.000618733
0.000586881
0.000554978
0.000527205
0.000488306
0.000446035
0.000393052
0.000286326
0.00126393
0.000406653
0.000390808
0.000356815
0.000315959
0.000269019
0.000216206
0.000162513
9.29498e-05
4.01761e-05
0.000808647
0.000307897
0.000298032
0.000279567
0.000263026
0.000249255
0.000238087
0.000229217
0.000221017
0.000201089
0.000760997
0.000101624
4.37757e-05
0.000124238
0.000190072
0.000258722
0.000340497
0.000413331
0.000534405
0.000668905
0.000466336
0.000213964
0.000203848
0.000190892
0.000180197
0.000172032
0.000166274
0.000162727
0.000160651
0.000157262
0.000403583
0.000170342
0.000162272
0.000152276
0.000144268
0.000138476
0.000134849
0.00011909
2.81142e-05
0.000115325
0.590964
0.0667013
0.0713177
0.0665356
0.0593174
0.0516406
0.0442568
0.0374595
0.0309337
0.0259235
0.00696937
0.0019465
0.00243048
0.00277491
0.00287803
0.00275457
0.00245975
0.00205067
0.0015717
0.00112556
0.00481356
0.00052272
0.0007152
0.000746941
0.000728513
0.000686133
0.000634162
0.000578837
0.000511422
0.000498536
0.00278192
0.000615412
0.000625958
0.000599266
0.000569049
0.000541572
0.000517894
0.000498103
0.000478009
0.000431732
0.00148223
0.000371945
0.000370817
0.000345228
0.000315849
0.000285904
0.000256116
0.000227885
0.000192142
0.000128208
0.00086075
0.000215867
0.000192179
0.000162098
0.000130321
9.68916e-05
6.13541e-05
2.65672e-05
2.07612e-05
0.000102412
0.000579467
0.000206596
0.000200014
0.000187462
0.000176141
0.000166643
0.000158835
0.000152489
0.000146388
0.000131133
0.000682348
0.000148511
0.00040977
0.000529443
0.000601878
0.000659762
0.000719173
0.000762956
0.00085866
0.000881796
0.000336368
0.000146166
0.000139269
0.000130282
0.000122813
0.000117026
0.000112798
0.000109966
0.000107941
0.000103527
0.000295864
0.000115432
0.000109945
0.000103103
9.75802e-05
9.35104e-05
9.08295e-05
8.94844e-05
8.16188e-05
6.62457e-06
2.35591
0.10197
0.101208
0.0862032
0.0700742
0.0557079
0.0435614
0.0334288
0.025352
0.0178265
0.0374261
0.0134447
0.0131492
0.0121373
0.0107735
0.00927257
0.00776008
0.00629573
0.00488271
0.00361681
0.00351758
0.000427342
0.000305689
0.000297317
0.000291596
0.000278588
0.000256485
0.00022697
0.000187817
4.3434e-05
0.00178519
0.000361721
0.000367848
0.000351145
0.000331579
0.000313269
0.000296835
0.000281933
0.000265192
0.000229809
0.000884607
0.000159944
0.000157553
0.000140822
0.000121771
0.000102678
8.4059e-05
6.65626e-05
4.39124e-05
8.50789e-06
0.000494594
7.22279e-05
5.46364e-05
3.53285e-05
1.57106e-05
4.22157e-06
2.49933e-05
4.54614e-05
7.60415e-05
0.000126226
0.000372564
0.000123788
0.000119724
0.000112133
0.000105255
9.9447e-05
9.46129e-05
9.05957e-05
8.65571e-05
7.60561e-05
0.000400734
0.000494845
0.0008242
0.000961173
0.00103178
0.0010788
0.00112115
0.00114982
0.0012331
0.00117138
0.00021806
8.93418e-05
8.50698e-05
7.95186e-05
7.48898e-05
7.12645e-05
6.85491e-05
6.6622e-05
6.50543e-05
6.09663e-05
0.000195863
6.96924e-05
6.62932e-05
6.21574e-05
5.88106e-05
5.63166e-05
5.46206e-05
2.0147e-05
1.11949e-05
3.2793e-05
4.24204
0.0440712
0.0420099
0.0363536
0.0302468
0.0245072
0.0193598
0.0149187
0.00991284
0.00708945
0.0256305
0.0185351
0.015707
0.0126244
0.00982075
0.00739776
0.00532528
0.00353145
0.00192763
0.000550716
0.000558547
0.000372364
0.000162488
0.000149176
0.000207318
0.000301724
0.000416494
0.000546604
0.000679468
0.000738343
0.000887038
0.000162162
0.00016407
0.000160152
0.000156833
0.000155194
0.000155473
0.000157859
0.000160789
0.000151773
0.000427105
3.78159e-05
3.46743e-05
2.60001e-05
1.63892e-05
6.79807e-06
2.68406e-06
1.2052e-05
2.48767e-05
4.64065e-05
0.000230991
7.43895e-06
2.01781e-07
7.6989e-06
1.57654e-05
2.39312e-05
3.25572e-05
4.16712e-05
5.83127e-05
9.29601e-05
0.000198537
6.05539e-05
5.83224e-05
5.46068e-05
5.12453e-05
4.83922e-05
4.59884e-05
4.39397e-05
4.1744e-05
3.56364e-05
0.00025376
0.00080616
0.00103831
0.0011295
0.00117343
0.0012007
0.00122484
0.00124518
0.00131556
0.00124493
0.00011741
4.46783e-05
4.24319e-05
3.96631e-05
3.73584e-05
3.55461e-05
3.41666e-05
3.31461e-05
3.22098e-05
2.93015e-05
0.000846854
0.000898439
0.000882263
0.000856847
0.000848235
0.000848983
0.000854946
0.000876442
0.000870878
0.000901399
0.860646
0.0374722
0.0318869
0.0259509
0.0206967
0.0162799
0.0125952
0.00957819
0.00714347
0.00566811
0.0040289
0.00406265
0.00351248
0.00284351
0.00219249
0.00159294
0.00104393
0.000531706
3.6034e-05
0.000435565
0.000178682
0.000486252
0.000448714
0.000429426
0.000410432
0.00038907
0.000366393
0.000342157
0.000307183
0.000255924
0.000277432
5.55723e-05
5.26149e-05
4.74802e-05
4.2122e-05
3.6873e-05
3.16947e-05
2.64967e-05
2.07412e-05
1.2513e-05
0.000121762
4.07083e-06
2.29911e-06
2.30139e-07
2.71568e-06
5.0267e-06
7.28203e-06
9.66597e-06
1.42437e-05
3.17033e-05
7.14301e-05
3.51315e-06
1.92982e-06
2.18249e-07
1.24037e-06
2.51868e-06
3.83104e-06
5.51962e-06
1.1449e-05
3.88883e-05
6.34949e-05
2.02714e-05
1.92443e-05
1.79971e-05
1.69003e-05
1.59674e-05
1.51699e-05
1.44662e-05
1.36388e-05
1.11262e-05
0.000507275
0.000550709
0.000585564
0.000599538
0.000606972
0.000612388
0.000618712
0.000627625
0.000662431
0.000685067
3.83342e-05
1.52301e-05
1.43138e-05
1.33883e-05
1.26343e-05
1.20439e-05
1.15924e-05
1.12464e-05
1.08827e-05
9.50942e-06
0.00339215
0.00324765
0.00320515
0.00317299
0.00315734
0.0031518
0.00315298
0.00316342
0.00316607
0.00325473
1.32715
1.31943
1.51649
1.99341
0.997443
1.03057
1.22648
1.85157
0.552925
0.512806
0.751575
1.29254
0.243006
0.191246
0.37717
0.714274
0.0813871
0.0529094
0.152361
0.323791
0.0322531
0.0161296
0.0700332
0.237384
0.00779611
0.0104239
0.0114925
0.0540559
0.0220813
0.0183039
0.0404446
0.0239984
0.0308563
0.0224657
0.0612607
0.0907821
0.0303124
0.0212023
0.0684316
0.125888
0.107688
0.00869487
0.0474449
0.0534099
0.128027
0.0198193
0.0472206
0.0318115
0.0983431
0.0145569
0.0341633
0.016351
0.0661204
0.00604411
0.0180308
0.0178389
0.0445594
0.000386382
0.00872206
0.0134141
0.0303165
0.00415374
0.00926999
0.00339756
0.0227552
0.00549522
0.00808254
0.00817649
0.0186812
0.00584245
0.00666196
0.00670427
0.0163605
0.00577934
0.00655297
0.00654825
0.013955
0.00670282
0.00793226
0.00786331
0.114395
0.107171
0.10128
0.135913
0.101948
0.0888892
0.0812185
0.121223
0.0742936
0.0589689
0.0554067
0.0838418
0.0519925
0.0355895
0.0359026
0.0549113
0.0396956
0.0224796
0.0240602
0.0377095
0.0358148
0.018103
0.0191004
0.029922
0.0336978
0.015701
0.0160222
0.0250762
0.0321319
0.0138256
0.0128342
0.0201661
0.0318711
0.0122438
0.0105163
0.0171866
0.0328705
0.0108829
0.0086328
0.0134454
0.0106974
0.0191466
0.0205786
0.0243827
0.0143145
0.0177099
0.0189478
0.0275737
0.0148042
0.0144902
0.0158191
0.0238174
0.014088
0.0107972
0.01121
0.0180225
0.0149007
0.00887983
0.00806913
0.013788
0.0168611
0.00846759
0.00655786
0.0113953
0.0187212
0.0082684
0.0053741
0.00991763
0.0203454
0.00814432
0.00427066
0.00891677
0.0208758
0.00660757
0.00182967
0.00702914
0.0183294
0.00255274
0.00260199
0.00339728
0.00935153
0.00191568
0.00111035
0.000697408
0.00289144
0.00371289
0.00596014
0.0104918
0.00115536
0.00530712
0.00694303
0.0108123
0.00355042
0.00530628
0.00579621
0.00875183
0.00618612
0.00557746
0.00495327
0.00727538
0.0091527
0.00657026
0.00502386
0.00701422
0.0117203
0.00740447
0.0049697
0.00688859
0.0140202
0.00817091
0.00477065
0.00687133
0.0152902
0.00778082
0.00329315
0.00600692
0.0140584
0.00566157
0.000607386
0.0043426
0.0204651
0.0148624
0.0142028
0.0130324
0.0106326
0.00411963
0.00245815
0.00015095
0.00397695
0.000328892
0.00150273
0.00349842
0.000775432
0.00179525
0.00225503
0.00364781
0.00196021
0.00283554
0.00251818
0.00352508
0.00453645
0.00403535
0.00301429
0.00381921
0.00662708
0.00493813
0.00320794
0.00397804
0.00850311
0.00579329
0.00327938
0.00418213
0.00937041
0.00570931
0.00218431
0.00364067
0.00757375
0.00392343
0.000153475
0.00287509
0.0238151
0.0193519
0.0188924
0.0181142
0.014147
0.00808138
0.00715501
0.00602557
0.00574658
0.00183014
0.00114291
0.000213095
0.00235157
0.000131493
0.000421299
0.000948197
0.00017634
0.0013491
0.00114992
0.0014471
0.002366
0.00254331
0.00187126
0.00201981
0.00406685
0.00343191
0.00225828
0.002357
0.00556287
0.00428287
0.00253514
0.00268661
0.00606833
0.00437213
0.00179338
0.00235902
0.0041969
0.00302129
0.000510501
0.00219586
0.0240425
0.0202934
0.0200034
0.0195022
0.0154527
0.00999833
0.00951701
0.00901141
0.0066851
0.00308947
0.00273025
0.00235264
0.00321547
0.000893231
0.000755608
0.000649911
0.000839539
0.000367037
0.000206347
0.000191321
0.00106295
0.00146876
0.00100029
0.000875168
0.00245028
0.0022456
0.00143724
0.00125311
0.00363939
0.00300206
0.00179421
0.00161796
0.00378232
0.00307995
0.00125218
0.00139979
0.00205006
0.00205132
0.000509943
0.00156804
0.0226202
0.0193789
0.0192017
0.0188745
0.0149865
0.010147
0.00989688
0.00973682
0.00695585
0.00365909
0.00348509
0.0033827
0.00368081
0.0014833
0.00143822
0.00152279
0.00147564
0.000255681
0.000399781
0.000529304
0.000229255
0.000761648
0.000412416
0.00020098
0.00140353
0.00143272
0.000851385
0.000579301
0.00239179
0.00209932
0.00124221
0.000958462
0.00222668
0.00205573
0.000771228
0.000746757
0.000812811
0.00131693
0.000396271
0.00107126
0.0204229
0.0175907
0.0174767
0.0172536
0.0135812
0.00934502
0.00921391
0.0092475
0.00659276
0.00365808
0.00358089
0.00360978
0.00373904
0.00171912
0.00172168
0.00188756
0.0018075
0.000621763
0.000748439
0.000911506
0.000322886
0.000281906
1.23564e-05
0.000208182
0.000656604
0.000840506
0.000405618
0.000131763
0.00150327
0.00142898
0.000801814
0.00051642
0.00117586
0.00126843
0.00035997
0.000275068
8.80788e-05
0.000772413
0.000220381
0.000665438
0.0178766
0.0154357
0.0153796
0.0152424
0.0117763
0.0081384
0.00807044
0.0082123
0.00581147
0.00328452
0.0032536
0.00333245
0.00345282
0.001671
0.00169278
0.00188441
0.00184645
0.000762127
0.000866849
0.00102849
0.000617527
8.3138e-06
0.000214221
0.000416676
0.000149376
0.000419396
9.29731e-05
0.000155582
0.000879461
0.000935911
0.000474192
0.000223258
0.000525908
0.000725886
7.47528e-05
2.95092e-05
0.0003098
0.000399411
5.85107e-05
0.000355593
0.0149593
0.0128274
0.0127497
0.0126384
0.00987433
0.00683196
0.00680352
0.00700723
0.004847
0.00274794
0.00273877
0.00282522
0.00297348
0.00146308
0.00148977
0.00167869
0.00168056
0.000743381
0.000825603
0.000968257
0.00070196
0.000144192
0.000297873
0.000470868
0.000147947
0.000147336
9.39184e-05
0.000310699
0.00048146
0.000596583
0.000260227
5.30336e-05
0.000145529
0.000368346
0.000102442
0.000207521
0.000494701
0.0001633
5.67222e-05
0.000137514
0.0134769
0.0116679
0.0116663
0.0116263
0.007891
0.00542224
0.00540978
0.00562871
0.00384081
0.00217008
0.00217075
0.0022419
0.00242339
0.0011938
0.00121972
0.00139339
0.00140703
0.000639192
0.000701453
0.000817493
0.000650981
0.000177576
0.000289813
0.000428882
0.0002913
1.03818e-05
0.000185494
0.000370298
0.000259839
0.000384125
0.000142765
1.78441e-05
6.72894e-05
0.000134847
0.000205294
0.000301222
0.000539783
3.04377e-05
0.000118446
2.98946e-07
0.00674335
0.0057002
0.0057651
0.00592696
0.00649579
0.00460129
0.00458519
0.00464459
0.00287725
0.00161183
0.00161654
0.00166387
0.00187968
0.000921232
0.000944082
0.00109851
0.00109248
0.00049841
0.000544317
0.000631777
0.000526799
0.000152791
0.000233187
0.000338217
0.000340346
9.44177e-05
0.000219377
0.000375872
0.00016079
0.000263759
9.33858e-05
2.0127e-05
0.000181171
1.92899e-05
0.000262532
0.000344917
0.000501283
3.33618e-05
0.000138201
7.60465e-05
0.0160113
0.0131545
0.0125134
0.0118545
0.00341156
0.00235851
0.00242584
0.0025918
0.00203685
0.00114085
0.00114343
0.00115207
0.00138907
0.000677585
0.000696995
0.00079165
0.000777355
0.000348611
0.000381591
0.000441378
0.000369945
9.77163e-05
0.000154227
0.00022744
0.000337426
0.000133543
0.000221217
0.000262867
0.000149431
0.000212548
9.43657e-05
2.79267e-05
0.000242356
0.000124721
0.000281398
0.000276696
0.000432745
6.78963e-05
0.000143629
0.000123791
0.0107436
0.00701112
0.00504745
0.00306573
0.00507302
0.00352929
0.00329073
0.00307113
0.00119153
0.000646609
0.000658683
0.000644885
0.000963581
0.000478318
0.000478121
0.000524005
0.000486892
0.00020553
0.000228698
0.000263375
0.000207409
3.04523e-05
6.94614e-05
0.000114389
0.000309355
0.000145192