/*--------------------------------*- C++ -*----------------------------------*\
| =========                 |                                                 |
| \\      /  F ield         | foam-extend: Open Source CFD                    |
|  \\    /   O peration     | Version:     4.0                                |
|   \\  /    A nd           | Web:         http://www.foam-extend.org         |
|    \\/     M anipulation  |                                                 |
\*---------------------------------------------------------------------------*/
FoamFile
{
    version     2.0;
    format      ascii;
    class       volScalarField;
    location    "1200";
    object      epsilon;
}
// * * * * * * * * * * * * * * * * * * * * * * * * * * * * * * * * * * * * * //

dimensions      [0 2 -3 0 0 0 0];

internalField   nonuniform List<scalar> 
34480
(
4839.65
4833.15
4830.75
4830.32
4833.25
4850.08
4911.06
5076.94
5440.72
6225.53
5587.85
6884.71
9555.5
15755.6
32364.7
80827.6
220480
579512
1.31794e+06
2.40315e+06
7298.58
8733.16
11472.1
17273.6
31876.2
75580.4
216431
645298
1.72377e+06
3.71125e+06
6052.46
7312.25
9641.49
14377.8
25897.9
60998.1
183704
605996
1.82904e+06
4.44659e+06
4860.19
5981.2
8030.52
12107.1
21829.4
51672.9
162249
579805
1.92842e+06
5.17279e+06
3825.1
4762.35
6498.39
10000.8
18466.3
45158.2
149952
577806
2.08612e+06
6.05897e+06
2982.96
3736.31
5161.1
8103.23
15409
39194.9
137342
564176
2.18003e+06
6.75932e+06
2106.69
2625.58
3626.62
5778.38
11392.6
30762.6
115631
507863
2.09164e+06
6.87419e+06
1186.41
1382.78
1769.38
2666.13
5309.87
15654.5
65267.8
311024
1.3716e+06
4.74684e+06
5627.91
5611.52
5613.94
5641.41
5701.77
5790.63
5888.57
5994.2
6183.92
6438.03
4769.84
4768.23
4775.88
4793.25
4819.85
4857.18
4917.53
5026.9
5229.57
5623.86
3012.54
3478.97
4368.83
6064.11
9632.57
18270.6
43763
130206
409517
1.14147e+06
4153.09
4783.5
5912.62
7956.6
11935.2
21018.2
46842.9
142424
513273
1.66689e+06
3659.69
4275.69
5361.53
7303.46
10958.5
19055.9
41919.9
133025
541934
1.98549e+06
3082.76
3671.81
4712.97
6559.93
10022.3
17512.4
38495.7
126743
572886
2.31379e+06
2527.48
3041.52
3967.16
5646.01
8867.9
15854.5
35659.9
124094
622054
2.73794e+06
2046.6
2474.04
3261.41
4723.11
7618.9
13994
32383.4
118782
652437
3.08598e+06
1506.82
1806.69
2367.96
3447.16
5664.95
10710.6
25831.9
102288
624034
3.17603e+06
960.279
1073.87
1286.55
1706.06
2622.31
4859.28
12209.7
55951.5
404101
2.30309e+06
5504.76
5481.72
5473.06
5485.98
5533.89
5621.05
5721.29
5803.39
6048.77
6666.79
4690.76
4689.08
4694.76
4709.32
4733.46
4767.7
4815.17
4885.39
4997.19
5177.76
1611.04
1792.84
2121.34
2703.96
3771.77
5848.34
10314.4
20958.6
47208.6
104404
2192.9
2482.73
2987.55
3836.04
5306.1
8092.37
14072.9
29355.9
73661.7
189664
2081.57
2391.07
2930.07
3849.64
5409.52
8346.7
14727.6
32234.3
91075
270833
1868.5
2185.09
2744.5
3703.92
5345.84
8420.45
15158.2
34770.4
109823
370864
1613.89
1904.05
2429.33
3358.66
5008.28
8147.21
15215.3
37262.1
132579
502793
1369.65
1622.18
2091.16
2942.37
4516.23
7585.55
14722.4
38489.3
153180
642639
1063.22
1247.01
1593.68
2247.44
3509.68
6069.81
12326.1
35027.3
158203
734239
786.153
860.019
999.232
1264.33
1808.4
3006.25
6212.26
19372.7
102359
543214
5398.3
5373.12
5358.92
5361.2
5389.5
5451.63
5539.02
5615.02
5747.8
6165.18
4601.67
4600.25
4604.17
4614.76
4632.73
4658.8
4694.15
4742.16
4812.8
4931.74
906.552
971.403
1078.41
1262.55
1571.73
2098.41
3026.55
4720.3
7864.34
13250
1092.78
1212.91
1415.24
1740.03
2264.39
3139.39
4680.91
7625.47
13775.1
26369.7
1123.04
1265.05
1507.55
1906.38
2544.95
3621.42
5554.06
9443.53
18600.3
40798.2
1088.01
1245.33
1521.15
1981.43
2725.15
3994.23
6312.77
11194.4
24054.5
60283.3
1000.62
1153.57
1430.38
1910.41
2720.13
4144.3
6846.73
12897.4
30775.7
88143.7
898.067
1038.94
1301.52
1768.94
2594.74
4096.88
7066.85
14133.8
37418.2
121178
744.567
852.151
1055.28
1431.58
2129.13
3459.42
6247.98
13447
40163.5
147355
651.107
697.809
785.724
946.315
1257.15
1898.54
3386.32
7641.56
25563.5
107875
5276.49
5252.74
5237.94
5236
5252.83
5295.94
5368.39
5452.03
5550.83
5827.35
4501
4499.53
4501.85
4508.69
4520.36
4537.23
4560.12
4591.32
4638
4722.8
576.559
599.238
630.93
682.569
761.798
883.774
1072.65
1360.64
1777.99
2352.4
547.489
591.726
662.691
771.76
937.53
1190.11
1581.61
2197.93
3168.94
4683.12
598.732
656.984
753.242
905.901
1138.14
1498.38
2070.31
3012.68
4641.5
7605.99
626.175
697.338
819.375
1015.54
1316.83
1793.48
2566.89
3891.07
6401.97
11756.5
614.93
689.02
821.262
1044.2
1401.55
1990.83
2990.57
4803.3
8613.33
18006.9
585.28
658.338
793.252
1026.25
1418.1
2090.03
3282.09
5565.92
10873.2
25824.1
522.315
581.711
692.17
890.463
1240.36
1872.01
3065.57
5537.6
11978.8
32555
545.434
574.006
627.086
719.01
884.122
1199.23
1855.39
3360.19
7715.18
23627.3
5149.94
5128.22
5114.03
5110.16
5120.14
5149.41
5203.36
5278.28
5365.96
5546.33
4389.84
4388.36
4389.71
4394.32
4402.25
4413.59
4428.75
4449.52
4482.25
4547.41
420.666
429.463
439.137
453.51
473.03
499.616
535.67
582.501
636.767
697.689
301.305
316.577
339.475
373.167
421.433
489.271
584.093
713.604
879.603
1082.73
335.942
357.931
392.708
446.145
523.611
635.391
796.271
1025.69
1340.13
1777.79
371.835
401.814
451.399
527.773
639.637
804.887
1049.03
1410.36
1942.27
2811.75
386.037
419.68
477.996
572.884
717.806
943.102
1294.13
1846.37
2736.27
4430.88
387.004
422.842
487.419
594.548
765.681
1043.48
1497.73
2252.42
3579.84
6506.33
371.723
403.186
459.804
557.147
719.37
996.687
1481.06
2351.82
4057.9
8364.1
463.002
480.148
511.242
562.112
646.732
794.831
1072.6
1621.78
2801.98
6162.66
5017.29
4998.09
4985.41
4981.37
4988.22
5009.57
5049.65
5109.68
5183.55
5298.47
4269.45
4267.97
4268.73
4272.04
4277.89
4286.31
4297.56
4313.08
4338.45
4392.16
341.25
345.167
348.397
352.479
357.082
362.297
368.017
373.296
375.472
374.327
194.86
200.074
207.149
217.016
230.249
247.419
269.3
295.956
325.13
354.592
211.604
219.466
231.187
248.737
272.949
305.57
348.625
403.403
466.446
535.526
239.211
251.271
270.208
297.961
336.566
389.825
462.118
557.688
674.207
824.036
256.88
271.509
295.693
333.337
388.053
468.059
583.623
747.456
965.057
1290.66
267.02
283.963
313.231
359.293
428.916
535.457
697.35
940.293
1288.43
1894.33
273.457
289.706
317.438
362.562
432.962
546.109
729.86
1029.16
1505.12
2456.12
399.842
409.971
427.657
454.959
497.267
565.141
679.601
880.889
1231.06
2000.81
4877.66
4861.17
4850.43
4847.11
4852.78
4869.83
4900.97
4947.91
5006.59
5078.51
4141.27
4139.79
4140.22
4142.77
4147.46
4154.29
4163.5
4176.3
4197.64
4244.31
296.302
298.265
299.518
300.707
301.583
302.064
301.913
300.285
295.33
286.133
148.275
150.155
152.363
155.2
158.702
162.856
167.676
172.963
177.983
182.421
153.687
156.456
160.262
165.87
173.212
182.452
193.683
206.613
219.498
230.839
171.563
176.359
183.38
193.068
205.757
222.032
242.333
266.627
292.181
319.035
185.797
192.049
201.727
216.024
235.659
262.539
298.578
345.419
399.553
465.499
196.322
204.208
217.052
235.958
262.888
301.426
355.799
430.78
523.541
654.709
210.772
219.093
232.289
252.402
281.573
325.22
390.943
489.651
625.651
846.072
351.856
357.784
367.563
381.818
402.681
433.647
481.029
556.622
673.441
876.267
4730.26
4716.48
4707.75
4705.46
4710.74
4725.18
4750.4
4787.49
4832.24
4878.83
4006.34
4004.89
4005.13
4007.24
4011.23
4017.13
4025.13
4036.28
4054.97
4096.5
267.671
268.714
269.312
269.702
269.74
269.355
268.355
266.038
260.838
251.142
126.847
127.596
128.322
129.127
130.002
130.918
131.868
132.797
133.532
134.182
126.247
127.24
128.462
130.266
132.505
135.142
138.108
141.217
143.896
145.66
136.906
138.853
141.461
144.807
148.885
153.708
159.209
165.173
170.627
175.375
146.859
149.551
153.387
158.728
165.597
174.355
185.244
198.317
211.879
225.755
155.147
158.823
164.398
171.991
182.125
195.602
213.202
235.635
260.397
289.806
171.292
175.58
181.77
190.531
202.296
218.56
241.204
272.765
312.277
366.158
315.468
318.939
324.182
331.414
341.607
355.823
375.965
405.923
451.822
518.275
4574.52
4563.29
4556.44
4555.12
4560.13
4572.53
4593.2
4622.59
4656.25
4688.2
3865.34
3863.94
3864.08
3865.9
3869.45
3874.73
3881.92
3891.91
3908.57
3945.83
247.191
247.733
248.087
248.285
248.242
247.9
247.098
245.212
240.787
231.792
116.37
116.699
116.956
117.171
117.344
117.471
117.564
117.634
117.661
117.789
112.898
113.265
113.655
114.248
114.945
115.716
116.527
117.309
117.88
118.05
118.872
119.69
120.678
121.84
123.134
124.523
125.954
127.346
128.42
129.146
125.411
126.595
128.124
130.121
132.5
135.311
138.556
142.187
145.648
148.656
131.242
132.972
135.397
138.43
142.209
146.875
152.521
159.216
165.936
172.82
146.578
148.823
151.71
155.476
160.132
166.059
173.715
183.711
195.63
209.984
287.65
289.717
292.431
295.985
300.932
307.546
316.436
329.171
350.753
378.538
4410.15
4401.18
4395.94
4395.37
4400.01
4410.51
4427.25
4450.31
4475.48
4498.42
3718.65
3717.3
3717.39
3719.03
3722.25
3727.07
3733.64
3742.7
3757.64
3791.05
231.006
231.244
231.486
231.657
231.696
231.555
231.089
229.728
226.099
217.969
110.906
111.06
111.159
111.205
111.205
111.163
111.1
111.038
111.001
111.115
106.306
106.445
106.567
106.765
106.986
107.215
107.442
107.647
107.771
107.715
109.397
109.751
110.131
110.534
110.933
111.305
111.632
111.902
112.053
112.096
113.555
114.089
114.703
115.447
116.254
117.126
118.056
119.037
119.93
120.583
117.41
118.228
119.283
120.489
121.89
123.501
125.319
127.357
129.258
130.979
131.147
132.351
133.692
135.284
137.071
139.149
141.653
144.776
148.577
152.936
265.914
267.205
268.548
270.237
272.641
275.802
279.932
285.808
297.618
311.625
4237.07
4230.02
4226.1
4226.02
4230.14
4238.81
4252.13
4269.95
4288.73
4305.73
3566.51
3565.23
3565.29
3566.78
3569.73
3574.16
3580.19
3588.45
3601.83
3631.63
217.177
217.22
217.395
217.57
217.693
217.723
217.524
216.58
213.603
206.309
107.83
107.901
107.941
107.944
107.916
107.862
107.8
107.753
107.755
107.915
103.056
103.111
103.148
103.215
103.285
103.352
103.415
103.472
103.503
103.448
104.445
104.598
104.745
104.884
104.999
105.082
105.13
105.149
105.134
105.106
107.043
107.289
107.535
107.807
108.065
108.305
108.533
108.759
108.97
109.098
109.487
109.869
110.321
110.794
111.307
111.858
112.444
113.084
113.655
114.133
121.507
122.173
122.794
123.445
124.085
124.74
125.466
126.357
127.603
129.149
248.268
249.146
249.771
250.549
251.746
253.348
255.426
258.43
265.591
273.466
4055.49
4050.01
4047.1
4047.29
4050.8
4057.78
4068.19
4081.8
4095.9
4108.84
3409.13
3407.91
3407.95
3409.31
3412.02
3416.09
3421.63
3429.12
3441.05
3467.37
204.649
204.563
204.686
204.858
205.031
205.168
205.142
204.489
202.021
195.5
105.921
105.95
105.967
105.963
105.942
105.908
105.874
105.859
105.901
106.096
101.476
101.501
101.513
101.535
101.556
101.573
101.589
101.606
101.619
101.591
101.913
101.977
102.032
102.079
102.111
102.124
102.119
102.104
102.085
102.083
103.527
103.643
103.742
103.837
103.908
103.952
103.978
103.998
104.028
104.043
105.037
105.208
105.394
105.574
105.76
105.952
106.149
106.37
106.567
106.735
115.437
115.821
116.107
116.358
116.553
116.7
116.829
116.997
117.373
118.018
233.154
233.821
234.085
234.438
235.076
235.977
237.153
238.894
243.457
248.093
3865.82
3861.59
3859.43
3859.74
3862.62
3868.13
3876.17
3886.49
3897.23
3907.35
3246.7
3245.56
3245.58
3246.82
3249.3
3253.03
3258.08
3264.85
3275.39
3298.34
192.782
192.61
192.689
192.847
193.037
193.224
193.293
192.828
190.751
184.932
104.6
104.606
104.613
104.612
104.603
104.589
104.58
104.589
104.653
104.867
100.723
100.738
100.744
100.751
100.754
100.755
100.756
100.76
100.77
100.763
100.669
100.692
100.712
100.729
100.74
100.744
100.741
100.737
100.738
100.76
101.678
101.734
101.775
101.806
101.818
101.811
101.79
101.765
101.754
101.751
102.609
102.678
102.746
102.814
102.885
102.963
103.046
103.147
103.243
103.337
111.52
111.751
111.883
111.97
112.005
111.991
111.942
111.897
111.961
112.282
219.385
219.947
220.037
220.203
220.585
221.165
221.928
223.077
225.975
228.704
3668.72
3665.44
3663.83
3664.15
3666.46
3670.75
3676.92
3684.77
3693.1
3701.21
3079.52
3078.45
3078.46
3079.59
3081.84
3085.22
3089.8
3095.87
3105.09
3124.79
181.154
180.926
180.964
181.099
181.28
181.477
181.583
181.234
179.453
174.253
103.589
103.583
103.586
103.588
103.588
103.589
103.595
103.617
103.69
103.906
100.371
100.384
100.389
100.39
100.388
100.382
100.377
100.375
100.383
100.39
100.098
100.104
100.11
100.118
100.125
100.132
100.138
100.146
100.16
100.193
100.737
100.764
100.782
100.791
100.789
100.775
100.752
100.727
100.712
100.711
101.33
101.35
101.369
101.395
101.43
101.474
101.527
101.596
101.666
101.743
108.855
108.999
109.06
109.084
109.071
109.023
108.943
108.857
108.807
109.003
206.083
206.588
206.599
206.686
206.947
207.368
207.922
208.746
210.494
212.039
3464.99
3462.43
3461.21
3461.5
3463.31
3466.64
3471.38
3477.4
3484.01
3490.66
2907.97
2906.98
2906.99
2908
2910.02
2913.07
2917.18
2922.57
2930.52
2947.11
169.459
169.197
169.2
169.304
169.461
169.64
169.747
169.461
167.903
163.216
102.754
102.744
102.744
102.749
102.755
102.764
102.778
102.805
102.876
103.081
100.209
100.221
100.226
100.225
100.221
100.213
100.205
100.2
100.206
100.222
99.8701
99.8688
99.87
99.8745
99.8815
99.8905
99.9013
99.9145
99.9326
99.9647
100.277
100.29
100.298
100.301
100.298
100.288
100.273
100.256
100.245
100.248
100.68
100.678
100.678
100.69
100.713
100.747
100.791
100.848
100.906
100.975
106.882
106.974
107.001
107.003
106.984
106.943
106.878
106.806
106.718
106.864
192.603
193.065
193.042
193.097
193.294
193.623
194.05
194.615
195.598
196.402
3255.63
3253.61
3252.68
3252.91
3254.32
3256.91
3260.58
3265.28
3270.6
3276.14
2732.66
2731.75
2731.74
2732.64
2734.43
2737.15
2740.8
2745.53
2752.29
2765.93
157.463
157.184
157.156
157.227
157.348
157.492
157.575
157.322
155.935
151.651
102.036
102.025
102.025
102.03
102.039
102.051
102.068
102.094
102.156
102.339
100.132
100.142
100.147
100.146
100.141
100.133
100.124
100.118
100.122
100.143
99.8088
99.8058
99.8056
99.8085
99.8144
99.8227
99.8331
99.8455
99.8613
99.8871
100.066
100.073
100.077
100.078
100.076
100.071
100.062
100.053
100.045
100.049
100.354
100.345
100.34
100.347
100.364
100.392
100.428
100.473
100.519
100.577
105.271
105.329
105.34
105.337
105.323
105.298
105.256
105.208
105.116
105.24
178.454
178.869
178.833
178.872
179.028
179.29
179.626
180.031
180.482
180.837
3041.84
3040.23
3039.49
3039.67
3040.78
3042.8
3045.68
3049.39
3053.72
3058.39
2554.37
2553.56
2553.55
2554.34
2555.92
2558.3
2561.5
2565.6
2571.26
2582.14
144.976
144.695
144.642
144.678
144.756
144.851
144.896
144.66
143.423
139.447
101.411
101.402
101.402
101.406
101.415
101.428
101.445
101.467
101.515
101.664
100.086
100.094
100.098
100.097
100.093
100.087
100.08
100.074
100.076
100.097
99.8235
99.821
99.8206
99.8224
99.8264
99.8322
99.8395
99.848
99.8587
99.8762
99.9837
99.9879
99.9902
99.9908
99.9896
99.9865
99.9814
99.975
99.9694
99.972
100.178
100.169
100.164
100.168
100.181
100.201
100.225
100.255
100.286
100.331
103.848
103.884
103.887
103.884
103.877
103.863
103.839
103.809
103.729
103.834
163.19
163.543
163.504
163.533
163.654
163.858
164.114
164.415
164.621
164.721
2825.03
2823.73
2823.14
2823.28
2824.15
2825.74
2828.03
2830.99
2834.52
2838.47
2374.22
2373.39
2373.39
2374.07
2375.45
2377.52
2380.3
2383.83
2388.49
2396.89
131.891
131.626
131.553
131.549
131.573
131.603
131.593
131.368
130.314
126.66
100.885
100.878
100.878
100.882
100.89
100.9
100.915
100.933
100.965
101.067
100.047
100.052
100.054
100.054
100.052
100.048
100.044
100.04
100.041
100.056
99.8697
99.8684
99.8681
99.869
99.871
99.8741
99.8779
99.8823
99.8879
99.8973
99.9674
99.9702
99.9717
99.9719
99.9708
99.9684
99.9645
99.9595
99.9546
99.9547
100.061
100.054
100.052
100.054
100.061
100.072
100.085
100.099
100.115
100.143
102.546
102.568
102.569
102.567
102.562
102.552
102.536
102.516
102.461
102.538
146.21
146.473
146.439
146.458
146.543
146.685
146.863
147.064
147.174
147.27
2606.7
2605.64
2605.17
2605.27
2605.96
2607.22
2609.06
2611.45
2614.34
2617.67
2192.16
2191.64
2191.64
2192.23
2193.42
2195.21
2197.59
2200.6
2204.38
2210.8
117.422
117.251
117.216
117.215
117.228
117.247
117.25
117.147
116.516
113.466
100.466
100.462
100.463
100.466
100.472
100.48
100.491
100.505
100.525
100.576
100.016
100.019
100.02
100.02
100.019
100.018
100.015
100.014
100.013
100.021
99.9302
99.9296
99.9295
99.9298
99.9306
99.9317
99.9331
99.9347
99.9367
99.9402
99.9843
99.9861
99.987
99.987
99.986
99.9841
99.9812
99.9776
99.9738
99.9721
99.9908
99.988
99.9869
99.9879
99.9908
99.9948
99.999
100.003
100.007
100.018
101.351
101.363
101.365
101.364
101.359
101.35
101.337
101.322
101.299
101.343
126.226
126.361
126.336
126.344
126.391
126.47
126.568
126.674
126.713
126.778
2387.67
2386.79
2386.39
2386.47
2387.02
2388.04
2389.52
2391.47
2393.86
2396.69
8529.3
8992.79
8756.87
7680.95
2.70634e+06
2.60479e+06
2.5432e+06
2.46099e+06
5.05763e+06
4.9008e+06
4.74012e+06
4.40881e+06
6.86222e+06
6.67966e+06
6.39905e+06
5.89033e+06
8.90727e+06
8.68911e+06
8.23838e+06
7.5966e+06
1.14305e+07
1.10404e+07
1.0275e+07
9.40427e+06
1.37736e+07
1.31853e+07
1.21575e+07
1.11659e+07
1.48892e+07
1.41436e+07
1.29606e+07
1.18815e+07
1.03261e+07
9.65019e+06
8.68273e+06
7.80106e+06
9639.28
9841.21
9742.84
9573.33
6440.05
6780.17
6922.73
6752.41
1.76181e+06
1.41744e+06
1.37978e+06
1.40119e+06
2.84717e+06
2.40222e+06
2.32289e+06
2.19149e+06
3.70337e+06
3.2598e+06
3.14346e+06
2.83083e+06
4.69327e+06
4.28627e+06
4.05251e+06
3.54133e+06
5.95399e+06
5.44736e+06
4.85605e+06
4.02344e+06
7.0575e+06
6.41157e+06
5.47139e+06
4.44753e+06
7.60437e+06
6.86345e+06
5.70899e+06
4.45936e+06
5.98271e+06
5.32009e+06
4.28225e+06
3.16343e+06
9240.4
9317.73
9123.91
8753.93
5633.49
5776.59
5817.1
5725.48
178602
179642
163558
131379
349029
347273
310118
238158
528169
520125
458901
347280
764348
748945
653719
490769
1.09961e+06
1.07556e+06
927605
678233
1.48462e+06
1.44721e+06
1.23588e+06
893434
1.78773e+06
1.72667e+06
1.45039e+06
1.02644e+06
1.46241e+06
1.38788e+06
1.13413e+06
759211
7065.91
7152.12
7134.44
7037.84
5370.14
5435.71
5445.89
5386.22
17678.3
17866.7
16727.9
14100
38280.6
38320.9
34725.1
28321.6
63306
62170.3
55062.9
43967.8
99722.4
96536.9
83938.3
65271.5
154916
148042
126365
96148.1
225497
213200
179650
135253
290821
272068
227085
170070
233380
212420
173786
125881
6142.29
6194.33
6219.94
6224.77
5161.01
5208.69
5210
5160.94
2754.88
2803.98
2695.6
2468.07
5812.66
5922.15
5571.21
4913.58
9957.53
10013.9
9259.87
8010.69
16295.6
16196
14729.2
12459.8
26553.9
26173.9
23560.9
19715.4
40558.5
39719.4
35523.8
29547.6
54839
53445.3
47706.9
39626.3
44149.1
42409.5
37701.2
30651.5
5624.5
5659.61
5688.85
5712.52
4979.38
5019.89
5020.27
4978.05
759.972
758.803
746.114
726.851
1195.13
1210.38
1174.24
1101.27
2034.45
2051.8
1972.78
1830.39
3369.1
3385.05
3222.62
2947.03
5625.91
5650.05
5359.71
4874.29
8797.49
8832.35
8360.2
7570.54
12169.1
12229.8
11594.1
10485.4
9769.67
9758.43
9308.62
8335.1
5272.71
5292.33
5314.65
5341.05
4812.37
4848.79
4848.86
4811.2
408.894
403.906
400.678
399.827
367.624
369.217
364.266
354.098
565.404
568.157
559
541.016
899.433
905.236
886.504
849.586
1478.71
1495.9
1466.2
1401.12
2295.48
2333.25
2289.17
2180.61
3183.01
3253.71
3204.23
3049.72
2716.37
2776.1
2767.97
2638.25
5006.46
5016.98
5033.14
5057.61
4649.44
4682.77
4682.73
4648.51
318.282
313.96
312.303
313.379
184.83
184.752
183.529
181.333
233.92
233.944
232.483
229.848
329.596
330.444
327.622
321.692
497.247
501.509
498.418
488.81
729.596
740.51
737.754
722.131
993.649
1015.94
1017.05
995.879
1032.8
1055.97
1070.17
1058.09
4787.16
4792.21
4803.51
4824.24
4484.56
4515.01
4514.92
4483.85
282.97
279.613
278.574
279.826
135.493
135.368
134.849
133.988
145.573
145.33
144.962
144.518
176.639
176.556
175.845
174.567
231.216
231.973
231.506
229.827
304.325
306.823
306.946
304.496
397.958
403.828
405.807
403.03
556.653
564.638
572.017
574.004
4589.56
4591.36
4598.99
4615.61
4315.47
4343
4342.91
4314.95
263.167
260.609
259.944
261.119
119.04
119.01
118.719
118.202
117.734
117.552
117.414
117.345
129.106
128.943
128.647
128.247
149.442
149.462
149.279
148.899
175.519
175.956
175.993
175.56
217.21
218.662
219.37
219.069
388.026
390.858
394.087
396.622
4399.08
4398.97
4403.97
4416.84
4141.2
4165.73
4165.64
4140.83
248.627
246.737
246.328
247.318
112.378
112.422
112.243
111.864
107.507
107.396
107.334
107.335
111.958
111.843
111.685
111.509
120.564
120.475
120.358
120.235
131.302
131.296
131.245
131.155
154.599
154.933
155.114
155.096
312.621
313.61
315.06
316.883
4208.89
4207.74
4210.95
4220.71
3961.34
3982.8
3982.71
3961.07
236.078
234.823
234.605
235.271
109.159
109.25
109.137
108.835
103.339
103.276
103.245
103.257
105.024
104.956
104.863
104.766
108.983
108.905
108.827
108.768
114
113.919
113.854
113.832
129.452
129.503
129.514
129.502
271.423
271.655
272.351
273.645
4016.34
4014.69
4016.69
4023.99
3775.79
3794.16
3794.08
3775.59
224.299
223.772
223.656
223.831
107.293
107.411
107.34
107.088
101.547
101.513
101.498
101.506
102.051
102.013
101.957
101.898
103.953
103.901
103.849
103.815
106.552
106.476
106.423
106.419
117.976
117.96
117.927
117.901
244.754
244.629
244.987
245.971
3820.33
3818.54
3819.75
3825.13
3584.69
3600.22
3600.18
3584.53
212.715
212.63
212.571
212.492
105.995
106.128
106.084
105.869
100.76
100.744
100.736
100.738
100.757
100.738
100.705
100.667
101.696
101.664
101.632
101.61
103.187
103.13
103.093
103.096
112.167
112.144
112.106
112.074
224.746
224.432
224.625
225.433
3620.45
3618.74
3619.45
3623.34
3388.42
3401.34
3401.31
3388.33
200.963
201.057
201.02
200.823
104.951
105.089
105.063
104.877
100.413
100.409
100.404
100.4
100.204
100.196
100.176
100.153
100.682
100.664
100.645
100.63
101.637
101.6
101.576
101.581
108.899
108.886
108.855
108.818
207.801
207.385
207.491
208.189
3416.66
3415.16
3415.55
3418.32
3187.57
3197.98
3197.97
3187.53
188.61
188.797
188.776
188.529
104.03
104.167
104.153
103.989
100.262
100.265
100.262
100.252
99.9804
99.9776
99.9666
99.9515
100.234
100.225
100.214
100.204
100.91
100.888
100.874
100.879
106.798
106.8
106.777
106.737
192.119
191.662
191.718
192.333
3209.24
3208.02
3208.23
3210.13
2982.83
2990.87
2990.86
2982.81
175.48
175.643
175.633
175.438
103.175
103.306
103.299
103.156
100.193
100.202
100.199
100.185
99.9016
99.9013
99.895
99.8854
100.044
100.039
100.032
100.025
100.543
100.533
100.526
100.528
105.222
105.24
105.223
105.174
176.744
176.308
176.335
176.851
2998.77
2997.85
2997.95
2999.2
2775.2
2781.05
2781.05
2775.19
161.319
161.278
161.274
161.302
102.363
102.479
102.476
102.356
100.149
100.161
100.159
100.143
99.8865
99.8868
99.8831
99.8772
99.9697
99.967
99.9621
99.9564
100.319
100.318
100.314
100.313
103.859
103.892
103.877
103.816
161.141
160.825
160.834
161.184
2786.19
2785.57
2785.61
2786.37
2566
2569.91
2569.91
2565.99
145.603
145.088
145.087
145.599
101.587
101.674
101.674
101.585
100.099
100.11
100.109
100.095
99.9026
99.9025
99.9004
99.8972
99.9521
99.9497
99.9459
99.9418
100.146
100.149
100.148
100.143
102.564
102.602
102.586
102.52
144.433
144.255
144.264
144.471
2572.76
2572.42
2572.43
2572.8
2355.89
2358.26
2358.26
2355.89
126.801
125.657
125.657
126.799
100.858
100.901
100.901
100.858
100.042
100.048
100.048
100.04
99.9417
99.9411
99.94
99.9388
99.9689
99.9665
99.9638
99.9615
100.024
100.028
100.028
100.025
101.323
101.336
101.321
101.28
124.955
124.947
124.958
124.99
2359.11
2359.02
2359.02
2359.11
6110.74
5478.7
5190.11
5076.44
5024.11
4980.16
4935.91
4897.24
4868.61
4850.72
1.83068e+06
549536
125726
37402.7
17862
10688.8
7437.73
5839.86
5147.24
5062.74
2.32138e+06
398948
86463.6
33252.9
17840.3
11624.8
8730.15
7293.92
6668.61
6657.03
2.25047e+06
257177
68672.2
27180.5
14784.5
9666.65
7252.55
6037.22
5482.77
5476.82
2.04134e+06
236675
62474.2
24559.9
13004.7
8270.38
6047.23
4927.37
4387.08
4357.78
1.96424e+06
256855
64492.1
24255.9
12143.4
7357.32
5151.71
4055.5
3508.17
3431.37
2.074e+06
287931
66048.2
23402.4
11037.8
6403.38
4322.19
3308.27
2789.3
2685.46
2.09817e+06
293369
59539.6
19638.3
8697.95
4858.68
3193.69
2409.71
2012.95
1915.5
1.46911e+06
180555
29581.4
8941.58
3900.31
2300.84
1625.45
1314.49
1159.31
1111.95
9372.62
7006.64
6385.73
6117.03
5949.9
5839.58
5766.35
5714.74
5672.18
5642.45
5744.58
5328.76
5127.94
5017.12
4946.83
4893.68
4850.11
4815.56
4791.43
4777.39
649752
195436
61457.4
23165.3
11151.6
6576.56
4516.75
3490.48
3009.62
2862.62
803281
196252
57803.3
22333
11582.8
7372.98
5424
4445.82
3991.69
3897.51
839120
173699
48909
18956.1
9995.92
6410.5
4731.41
3883.06
3476.73
3401.37
883756
164891
45369.8
17513.2
9080.31
5699.13
4121.25
3327.63
2928.54
2844.25
1.00963e+06
179501
47818.6
17804.1
8798.82
5280.06
3666.21
2865.63
2451.49
2339.35
1.18434e+06
202709
50324.7
17700.8
8276.06
4763.77
3194.62
2433.08
2030.39
1904.15
1.29615e+06
211247
47019.3
15367.5
6757.09
3747.06
2449.55
1841
1524.98
1417.17
954978
134690
24662.6
7375.82
3239.06
1925.8
1367.44
1106.15
974.476
925.154
8140.92
6693.9
6191.13
5957.36
5813.33
5716.6
5650.31
5602.02
5560.95
5528.7
5225.62
5044.83
4947.66
4880.1
4826.63
4782.94
4748.26
4722.37
4705.23
4695.97
62730.1
27458.2
13334.6
7284.64
4441.07
2995.74
2229.77
1814.42
1613.25
1549.97
95107.2
36723.8
16910.8
8892.92
5398.91
3696.33
2812.97
2343.96
2122.37
2074.85
117907
40119.1
17339.2
8720.24
5181.33
3508.33
2657.34
2210.31
1994.61
1952.09
145343
44277.3
18239.7
8772.12
5029.64
3314.88
2459.83
2017.27
1793.48
1742.25
192855
54383.9
20886.7
9467.08
5136.72
3231.2
2303.19
1830.1
1583.55
1511.5
255890
66361.4
23074.8
9815.06
5034.23
3038.27
2093.65
1623.79
1373.23
1289.45
308961
73052.1
22152.2
8812.47
4265.56
2487.08
1675.2
1285.38
1082.44
1010.93
224501
45102.4
11302.1
4407.01
2231.72
1437.96
1068.47
886.852
796.473
763.47
6964.13
6303.9
5973.43
5794.53
5678.61
5598.55
5540.87
5496.46
5456.77
5424.46
4941.6
4835.94
4773.65
4726.86
4689.36
4659.43
4636.41
4619.78
4609.35
4604.54
9533.02
5886.62
3730.06
2472.01
1748.23
1332.09
1094.62
959.43
894.501
877.901
16668.2
9218.29
5417.88
3361.12
2268.54
1667.6
1330.95
1144.07
1055.93
1040.41
23329.6
11625.7
6331.23
3714.61
2424.85
1745.63
1376.11
1174.47
1077.59
1061.22
31547.7
14336.4
7287.19
4044.37
2534.43
1772.61
1369.44
1154.58
1046.51
1023.81
45342.1
19064.5
8900.35
4636.69
2744.62
1830.93
1359.63
1112.09
983.168
946.331
63885.9
24342
10253.5
5027.07
2816.28
1804.16
1297.21
1037.97
899.514
853.466
82114.2
27568.6
10157.1
4707.24
2500.41
1554.56
1097.23
871.514
754.322
713.905
61447.2
16907.8
5382.28
2611.87
1518.19
1067.79
836.631
716.268
657.444
636.61
6297.37
5941.22
5733.59
5604.78
5517.23
5453.18
5404.85
5366.13
5330.3
5300.8
4720.17
4646.83
4605.74
4576.32
4553.18
4534.74
4520.54
4510.43
4504.5
4502.53
2052.36
1568.33
1198.02
943.586
779.461
676.862
614.737
577.803
561.558
561.425
3721.8
2530.74
1733.06
1226.67
919.255
733.423
622.271
558.133
528.563
525.833
5720.19
3579.49
2260.76
1506.39
1080.91
835.881
694.271
614.013
575.857
571.439
8365.21
4832.49
2818.61
1770.12
1215.38
911.877
742.409
649.621
603.451
595.559
12856.4
6876.09
3667.92
2157.67
1396.38
998.386
781.837
664.68
603.846
587.588
18909.5
9146.2
4421.81
2452.05
1502.77
1032.61
784.301
653.755
583.952
561.381
25223.4
10618.7
4569.64
2415.34
1411.87
946.673
708.882
587.995
525.449
504.739
19209
6613.11
2706.18
1590.87
1055.9
806.716
665.191
586.723
549.438
536.426
5815.92
5624.67
5506.55
5418.72
5354.31
5303.51
5263.3
5230.02
5198.29
5171.97
4543.43
4485.86
4456.48
4436.84
4421.7
4409.65
4400.45
4394.12
4390.85
4390.58
659.297
598.953
537.996
489.258
454.722
431.884
417.765
409.47
407.49
411.558
963.026
764.662
600.682
482.842
403.192
351.382
318.856
299.628
291.443
292.402
1547.67
1142.95
828.194
624.647
495.748
415.556
366.678
337.921
324.588
324.388
2387.31
1629.89
1089.21
773.788
587.011
477.233
412.972
376.978
359.456
357.796
3855.78
2433.5
1489.37
988.888
705.988
546.803
455.696
404.939
378.735
372.699
5855.4
3344.33
1869.47
1170.2
791.813
589.897
477.613
416.908
384.377
374.494
7976.25
3991.25
2032.54
1220.08
793.185
579.248
463.445
402.635
371.355
361.742
6218.33
2720.32
1476.92
1023.04
764.595
626.759
540.253
488.997
465.661
457.503
5457.08
5360.41
5295.42
5236.15
5188.56
5148.28
5115.07
5086.94
5059.45
5036.61
4388.79
4339.82
4316.37
4301.49
4290.29
4281.53
4275.02
4270.82
4269.08
4269.76
361.995
360.159
351.828
343.176
336.608
332.417
330.22
329.438
330.941
335.348
333.35
297.465
263.682
237.127
217.801
204.637
196.173
191.195
189.595
191.021
501.543
421.639
348.595
296.031
259.439
235.146
219.62
210.106
205.934
206.72
762.106
595.222
457.558
367.795
309.511
273.083
250.904
238.289
232.451
232.832
1231.95
892.833
632.301
475.267
377.358
318.31
282.821
262.457
252.088
250.419
1875
1237.73
808.821
573.668
433.002
352.177
304.816
278.47
264.326
260.515
2573.07
1518.72
926.196
633.044
462.236
369.186
315.633
286.511
271.743
267.773
2218.52
1284.46
897.987
706.911
581.004
503.581
450.236
416.366
401.831
396.585
5177.48
5131.61
5094.64
5054.13
5018.6
4986.82
4959.75
4936.49
4913.31
4894.07
4241.84
4198.05
4177.78
4165.31
4156.12
4149.11
4144.08
4141.08
4140.18
4141.35
278.898
285.844
286.938
286.183
285.468
285.338
285.765
286.631
288.579
292.346
176.15
168.738
161.539
155.613
151.165
148.129
146.245
145.264
145.346
146.465
223.752
207.247
190.222
176.837
166.777
159.714
154.989
151.95
150.773
151.53
305.865
268.027
233.733
209.061
191.858
180.548
173.469
169.452
167.827
168.594
458.161
377.321
307.77
260.279
228.063
207.298
194.211
186.494
182.706
182.607
664.541
505.89
386.132
310.247
260.603
229.836
210.81
199.944
194.139
192.915
902.896
632.615
460.035
357.724
292.128
252.985
228.963
215.457
208.85
207.489
981.006
734.515
610.625
526.531
463.467
418.895
385.464
362.672
353.565
350.021
4942.72
4921.4
4898.59
4870.31
4843.61
4818.78
4797.1
4778.36
4759.41
4743.77
4094.81
4055
4036.89
4025.89
4017.89
4011.89
4007.72
4005.38
4004.94
4006.32
246.39
254.47
257.21
257.909
258.233
258.733
259.448
260.38
261.998
264.996
131.401
129.463
127.809
126.483
125.543
124.988
124.753
124.774
125.155
125.919
143.549
139.948
135.796
132.294
129.485
127.415
125.968
124.983
124.696
125.228
171.086
161.994
153.337
146.616
141.682
138.325
136.224
135.094
134.813
135.465