/*--------------------------------*- C++ -*----------------------------------*\
| =========                 |                                                 |
| \\      /  F ield         | foam-extend: Open Source CFD                    |
|  \\    /   O peration     | Version:     4.0                                |
|   \\  /    A nd           | Web:         http://www.foam-extend.org         |
|    \\/     M anipulation  |                                                 |
\*---------------------------------------------------------------------------*/
FoamFile
{
    version     2.0;
    format      ascii;
    class       volScalarField;
    location    "1200";
    object      k;
}
// * * * * * * * * * * * * * * * * * * * * * * * * * * * * * * * * * * * * * //

dimensions      [0 2 -2 0 0 0 0];

internalField   nonuniform List<scalar> 
34480
(
8.70989
8.70353
8.70067
8.69872
8.69938
8.71527
8.78237
8.97166
9.38598
10.2563
28.7333
30.5748
33.0609
36.0178
39.6015
45.3528
58.5307
89.8441
146.915
214.458
55.9523
58.4087
61.4534
64.7932
68.2704
72.8761
83.7801
117.117
194.841
305.373
56.8594
60.1743
64.4297
69.2914
74.3085
79.9929
90.5708
123.635
212.731
356.327
53.0709
57.1749
62.6263
69.0816
75.942
83.3196
94.7615
128.453
228.313
405.051
47.7263
52.0817
58.0738
65.5299
73.8638
83.0399
96.4671
133.298
247.97
463.575
41.7652
46.0484
52.1505
60.0759
69.4379
80.1922
95.6835
135.538
263.426
514.83
32.3002
35.9016
41.1894
48.4312
57.5108
68.6437
85.1842
126.303
260.562
534.669
13.8068
15.2154
17.477
20.9955
26.1897
33.7148
45.9738
76.2923
178.429
403.514
9.14977
9.13399
9.13752
9.16713
9.23113
9.32438
9.4257
9.5334
9.7276
9.98507
8.62592
8.62542
8.63466
8.65416
8.6833
8.72378
8.7901
8.91262
9.14155
9.58441
20.2137
21.5417
23.7189
26.7859
30.7003
35.0744
40.569
53.5232
89.3338
170.569
41.2385
43.3163
46.2163
49.889
54.378
59.6579
65.2874
77.8347
124.969
253.847
43.0608
45.7525
49.5308
54.3437
60.0294
66.6831
73.5186
85.9948
139.618
302.963
41.0688
44.3262
49.0023
55.0439
62.2144
70.4762
78.8927
91.9261
152.352
351.266
37.6587
41.0887
46.1667
53.0012
61.4068
71.2117
81.4769
96.3174
166.926
412.31
33.5779
36.9431
42.0951
49.2792
58.5103
69.5642
81.5808
98.262
178.366
469.187
26.4841
29.2632
33.667
40.165
48.9908
60.07
72.7623
90.5154
175.61
495.664
11.9697
12.9397
14.6208
17.4582
22.1343
29.173
38.2385
51.1497
113.479
366.639
9.01581
8.99259
8.98401
8.99797
9.04902
9.14144
9.24634
9.33
9.58535
10.2202
8.53033
8.5297
8.5366
8.55285
8.57923
8.6163
8.66769
8.74456
8.8687
9.07062
13.8508
14.5985
15.8959
17.8585
20.5316
23.8877
28.101
34.1647
44.703
62.6593
28.7707
30.281
32.4535
35.2745
38.7474
42.8563
47.5851
54.341
69.3137
102.182
31.1058
33.0792
35.9453
39.7107
44.2272
49.4996
55.2244
62.727
81.7592
130.901
30.5636
32.9585
36.538
41.3057
47.0782
53.7815
60.8339
69.2302
92.7093
161.592
28.7524
31.2925
35.2205
40.6837
47.5685
55.7254
64.4147
74.355
103.933
198.356
26.2721
28.7904
32.8261
38.6407
46.3136
55.6744
65.9185
77.3668
113.051
235.235
21.3075
23.378
26.8172
32.0844
39.4698
48.952
59.8759
72.3633
112.507
257.279
10.4457
11.13
12.3582
14.4593
18.0181
23.6243
31.3435
40.9025
70.7091
186.199
8.89918
8.87342
8.85867
8.86101
8.89093
8.95683
9.0489
9.127
9.2647
9.70096
8.42196
8.42163
8.42643
8.43797
8.45708
8.48459
8.52185
8.5728
8.64917
8.78097
9.77743
10.1255
10.7424
11.7537
13.2145
15.1769
17.7112
20.9519
25.2101
30.776
19.4021
20.3369
21.7008
23.5209
25.8207
28.5952
31.8731
35.9356
41.9296
52.0754
21.7277
22.9977
24.8638
27.3655
30.4437
34.1059
38.2716
43.2237
51.1224
67.3639
22.1131
23.6917
26.0977
29.3506
33.351
38.1044
43.3731
49.3075
59.3947
83.9004
21.4573
23.1617
25.8661
29.6883
34.5699
40.5022
47.1532
54.5363
67.8692
104.133
20.1996
21.9256
24.772
28.9308
34.489
41.4363
49.3878
58.1281
74.7901
124.677
16.9964
18.4256
20.8619
24.6516
30.0464
37.1579
45.7171
55.4214
74.8956
137.104
9.19606
9.65861
10.503
11.9213
14.2967
18.1374
23.8597
31.3291
46.1699
96.2438
8.76481
8.74039
8.72483
8.72251
8.73998
8.78547
8.8621
8.94951
9.05182
9.34326
8.29869
8.29826
8.30112
8.30817
8.31977
8.33635
8.35885
8.39003
8.43846
8.53117
7.46365
7.60414
7.84596
8.26428
8.88469
9.74919
10.8978
12.3367
13.9853
15.7777
13.097
13.6038
14.3448
15.3514
16.6421
18.2177
20.0895
22.2629
24.7356
27.8562
15.0375
15.7652
16.8361
18.2942
20.1176
22.3174
24.883
27.828
31.3143
36.5247
15.8434
16.7868
18.2334
20.2023
22.6514
25.6051
29.0007
32.8114
37.5027
45.9124
15.8824
16.9269
18.606
21.0017
24.0824
27.9025
32.3728
37.4245
43.9944
57.5334
15.4348
16.5262
18.3543
21.0373
24.6396
29.2341
34.723
40.9466
49.4483
69.3265
13.5536
14.4753
16.0601
18.5302
22.0576
26.8106
32.7914
39.8532
50.1339
76.2995
8.17646
8.47637
9.0278
9.9233
11.3704
13.7012
17.3374
22.4628
30.3823
51.3834
8.6241
8.60171
8.58669
8.58218
8.59216
8.62267
8.67954
8.75835
8.84971
9.04042
8.16148
8.16101
8.16269
8.16707
8.17421
8.18419
8.19753
8.21638
8.24846
8.31863
6.24789
6.30149
6.38735
6.54277
6.77027
7.08257
7.49273
8.0004
8.56058
9.12035
9.24436
9.49208
9.84959
10.3414
10.976
11.7499
12.659
13.6713
14.6906
15.7099
10.649
11.0274
11.5813
12.349
13.3207
14.4982
15.8697
17.3956
18.9498
20.6999
11.51
12.0302
12.8242
13.9095
15.274
16.9303
18.8526
20.9813
23.1895
26.1547
11.8685
12.4639
13.4206
14.7955
16.5786
18.8202
21.4984
24.543
27.8547
33.0128
11.8728
12.521
13.6088
15.2035
17.3514
20.1351
23.5474
27.4921
31.9506
39.9585
10.8975
11.4632
12.4273
13.9187
16.0403
18.9472
22.7188
27.3136
32.8799
43.9365
7.35454
7.54296
7.8903
8.4315
9.26644
10.5734
12.6189
15.6237
19.7358
28.3814
8.47536
8.45557
8.44211
8.43738
8.44394
8.46584
8.50775
8.57084
8.64799
8.76903
8.01157
8.01105
8.01201
8.01484
8.01953
8.02609
8.03484
8.04754
8.07109
8.1282
5.63096
5.65083
5.67949
5.73552
5.81596
5.92202
6.05446
6.21007
6.3722
6.53007
7.09141
7.20058
7.35107
7.55769
7.8229
8.14353
8.51506
8.91754
9.29783
9.62642
7.99455
8.17146
8.42519
8.78309
9.23886
9.79064
10.4284
11.1214
11.7762
12.3724
8.71781
8.9822
9.37797
9.91677
10.5967
11.4215
12.376
13.4188
14.4154
15.4764
9.15212
9.46884
9.96876
10.6867
11.6231
12.8071
14.2329
15.8577
17.4894
19.4854
9.35226
9.71638
10.3176
11.1886
12.3606
13.8912
15.79
18.0131
20.3164
23.5569
8.94031
9.27348
9.82495
10.6609
11.833
13.4482
15.5781
18.2341
21.1948
25.8468
6.71183
6.82616
7.03727
7.35104
7.81118
8.49878
9.54008
11.0725
13.0305
16.4191
8.31738
8.30044
8.28903
8.28508
8.29039
8.30767
8.33992
8.38897
8.45004
8.52463
7.8504
7.84984
7.85039
7.85233
7.85568
7.86042
7.86685
7.87649
7.89549
7.94475
5.32135
5.32848
5.33747
5.35806
5.38769
5.42559
5.47088
5.52111
5.56984
5.61677
5.97179
6.01706
6.07371
6.14902
6.24298
6.35346
6.47808
6.60881
6.72542
6.81642
6.49801
6.57318
6.67584
6.82283
7.00872
7.23107
7.48375
7.75131
7.99095
8.17652
7.02221
7.14753
7.32732
7.56678
7.8652
8.22238
8.62986
9.06687
9.46574
9.82978
7.40625
7.5649
7.80564
8.14628
8.58714
9.14191
9.80888
10.5679
11.3082
12.0768
7.64858
7.84373
8.15461
8.59177
9.17359
9.92943
10.8682
11.9738
13.0847
14.3953
7.55208
7.74215
8.04111
8.47833
9.07378
9.88487
10.9562
12.3109
13.7835
15.7301
6.2227
6.28931
6.41326
6.5883
6.83307
7.17953
7.67714
8.38652
9.23511
10.4888
8.14896
8.1349
8.12567
8.12288
8.12782
8.14233
8.16822
8.20665
8.2527
8.2997
7.67894
7.67837
7.67869
7.68013
7.6827
7.68643
7.69157
7.69944
7.71556
7.75921
5.16456
5.16685
5.1693
5.17726
5.18925
5.20463
5.22298
5.24314
5.26246
5.28131
5.41232
5.43126
5.45149
5.47617
5.50514
5.53749
5.5726
5.60816
5.63768
5.65867
5.69544
5.7255
5.76318
5.81803
5.8858
5.96455
6.05114
6.13898
6.21167
6.25642
6.03768
6.09461
6.17082
6.26772
6.38392
6.51786
6.66514
6.81717
6.94777
7.05227
6.32944
6.40568
6.51431
6.66309
6.85
7.07958
7.35071
7.65539
7.94652
8.21686
6.54088
6.64178
6.79422
6.99816
7.26187
7.59633
8.00543
8.48426
8.95722
9.45476
6.6005
6.70656
6.86175
7.07719
7.35742
7.72636
8.20526
8.80997
9.46358
10.2376
5.86113
5.89786
5.96804
6.062
6.18845
6.35822
6.58892
6.90349
7.25644
7.70854
7.9691
7.95779
7.95061
7.94892
7.95365
7.96602
7.987
8.01711
8.0511
8.08207
7.4977
7.49713
7.49732
7.49846
7.50058
7.5037
7.50804
7.51473
7.52872
7.56776
5.0825
5.08296
5.08338
5.08678
5.09249
5.10019
5.10998
5.12153
5.13364
5.14595
5.13653
5.14492
5.15217
5.15952
5.16712
5.17492
5.18321
5.19193
5.19931
5.20497
5.27725
5.28896
5.30192
5.32142
5.34471
5.3707
5.39808
5.4244
5.44369
5.44996
5.48283
5.50831
5.53943
5.57628
5.61758
5.662
5.70762
5.75157
5.78539
5.80752
5.68564
5.7215
5.76846
5.82974
5.90275
5.98831
6.08558
6.19177
6.29031
6.37231
5.84377
5.89458
5.96655
6.0566
6.16782
6.30296
6.46251
6.64486
6.81962
6.98717
5.96831
6.02667
6.10454
6.20567
6.32901
6.4827
6.67494
6.91293
7.16852
7.45055
5.60201
5.6206
5.65874
5.70719
5.77088
5.85266
5.95876
6.09792
6.24758
6.41973
7.77704
7.76818
7.76279
7.76197
7.76636
7.77671
7.79346
7.81665
7.84134
7.86245
7.30679
7.30624
7.30636
7.30731
7.30913
7.31183
7.3156
7.32141
7.33363
7.36855
5.03696
5.03675
5.03665
5.0384
5.04175
5.0467
5.05367
5.06286
5.07378
5.08544
5.00096
5.00493
5.00763
5.00948
5.01081
5.01189
5.01333
5.01576
5.01894
5.02273
5.06381
5.06834
5.07258
5.0794
5.08728
5.09568
5.10421
5.11207
5.11704
5.11582
5.17734
5.18867
5.20113
5.2146
5.22825
5.24136
5.25331
5.26351
5.26982
5.27219
5.3107
5.32743
5.34714
5.37135
5.39804
5.42718
5.45849
5.49143
5.52133
5.5431
5.41795
5.44291
5.47583
5.51397
5.55852
5.60977
5.66746
5.73132
5.78999
5.84112
5.56081
5.59271
5.63069
5.67607
5.72678
5.7853
5.85477
5.93829
6.02821
6.12488
5.42243
5.43041
5.45011
5.47405
5.50553
5.54483
5.59418
5.65732
5.72419
5.79692
7.57221
7.56546
7.56153
7.56129
7.56516
7.57354
7.58656
7.604
7.62167
7.63629
7.10612
7.10559
7.10567
7.10649
7.10808
7.11045
7.11377
7.11883
7.12948
7.16049
5.00961
5.00923
5.0091
5.01024
5.01262
5.01645
5.02238
5.031
5.04232
5.05504
4.93425
4.93623
4.93729
4.93757
4.93738
4.93707
4.93727
4.93874
4.94174
4.9461
4.95743
4.95922
4.96055
4.96294
4.96562
4.96836
4.97113
4.9737
4.97521
4.97358
5.01342
5.01837
5.02326
5.02804
5.03225
5.03559
5.03794
5.03941
5.03973
5.03929
5.0982
5.10598
5.11407
5.12324
5.13227
5.14107
5.14972
5.15847
5.16664
5.17174
5.16589
5.17771
5.19222
5.20776
5.2249
5.24358
5.26363
5.28538
5.30469
5.3202
5.30606
5.32351
5.34156
5.36087
5.37981
5.39914
5.42033
5.44506
5.47286
5.50604
5.30233
5.30442
5.31387
5.32522
5.3408
5.36026
5.38428
5.41469
5.44689
5.48157
7.35429
7.34927
7.34648
7.34657
7.3498
7.35635
7.36616
7.37895
7.39146
7.40169
6.8955
6.895
6.89505
6.89576
6.89715
6.89923
6.90214
6.90653
6.9157
6.94291
4.99174
4.99137
4.99136
4.99226
4.99415
4.99739
5.00276
5.01122
5.02323
5.03746
4.9013
4.90229
4.90275
4.90269
4.90236
4.90209
4.9024
4.90403
4.90747
4.91253
4.90597
4.90677
4.90722
4.90806
4.90896
4.90985
4.9108
4.9118
4.91253
4.91159
4.92836
4.9304
4.93226
4.93394
4.93521
4.93595
4.93621
4.93616
4.93599
4.93609
4.98142
4.98506
4.98833
4.99163
4.99431
4.99635
4.99792
4.99941
5.00119
5.00219
5.02198
5.02721
5.03324
5.03933
5.04579
5.05262
5.05979
5.06772
5.07477
5.08036
5.15159
5.16119
5.16958
5.1772
5.18307
5.18746
5.19113
5.19522
5.20091
5.21307
5.22487
5.22393
5.22791
5.23313
5.24123
5.25176
5.26475
5.28111
5.2982
5.31694
7.12317
7.11952
7.11758
7.11782
7.12037
7.12532
7.1325
7.14166
7.15047
7.15769
6.6747
6.67423
6.67427
6.67488
6.67608
6.67789
6.68041
6.68416
6.69192
6.7154
4.97909
4.97882
4.97893
4.97971
4.98127
4.98406
4.98897
4.99722
5.00978
5.02558
4.88494
4.88542
4.88565
4.88561
4.88547
4.88549
4.8861
4.88797
4.89172
4.89724
4.88199
4.88247
4.88269
4.88298
4.88323
4.88345
4.88374
4.88419
4.88471
4.8844
4.88617
4.88689
4.88755
4.88818
4.88866
4.88895
4.88909
4.8892
4.88948
4.89027
4.9194
4.92111
4.92244
4.92356
4.92417
4.92426
4.92399
4.92367
4.92378
4.92397
4.94321
4.9452
4.94743
4.94975
4.95232
4.95517
4.9583
4.96204
4.96554
4.96863
5.06024
5.06558
5.06941
5.07207
5.07307
5.07248
5.07069
5.0685
5.0668
5.07218
5.17656
5.17427
5.17545
5.17787
5.1826
5.18926
5.19752
5.2078
5.21791
5.22934
6.87894
6.87634
6.87501
6.87528
6.87721
6.88081
6.88593
6.89235
6.89855
6.90368
6.44355
6.44312
6.44315
6.44366
6.44468
6.44622
6.44836
6.45148
6.4579
6.47772
4.96947
4.96934
4.96955
4.97024
4.97153
4.97388
4.97825
4.98611
4.99893
5.01619
4.87681
4.87702
4.87718
4.87724
4.87729
4.87755
4.87837
4.88034
4.88416
4.88992
4.87128
4.87168
4.87186
4.87195
4.87194
4.87188
4.87188
4.87205
4.87246
4.8726
4.86658
4.86673
4.86694
4.86722
4.86753
4.86785
4.86818
4.8686
4.86921
4.87031
4.8876
4.88842
4.88897
4.88934
4.88939
4.88912
4.88862
4.88808
4.88787
4.88801
4.90209
4.90256
4.90318
4.90409
4.90534
4.90696
4.90894
4.91145
4.91394
4.91645
5.00655
5.00955
5.01126
5.01196
5.01148
5.00979
5.00701
5.0037
4.99996
5.00337
5.14709
5.14438
5.1442
5.14544
5.1487
5.15367
5.15983
5.16731
5.17387
5.18163
6.62185
6.62004
6.61915
6.61938
6.62078
6.62331
6.62687
6.63127
6.63565
6.63931
6.20198
6.20159
6.20161
6.20203
6.20287
6.20414
6.20589
6.20842
6.21354
6.22978
4.96172
4.96174
4.96201
4.96262
4.96363
4.96554
4.96927
4.97647
4.98913
5.00762
4.87283
4.87292
4.87305
4.87319
4.87338
4.87378
4.87468
4.87658
4.88025
4.88605
4.86671
4.86709
4.86726
4.86727
4.86716
4.86698
4.86683
4.86683
4.86715
4.86759
4.8585
4.85844
4.85848
4.85864
4.85891
4.85926
4.85969
4.86021
4.86089
4.86196
4.87188
4.87228
4.87253
4.87266
4.87262
4.8724
4.87205
4.87167
4.87148
4.87166
4.88166
4.88148
4.88148
4.88189
4.8827
4.88392
4.8855
4.8875
4.88955
4.89182
4.97372
4.97537
4.9761
4.97613
4.97544
4.97398
4.97168
4.96892
4.96506
4.96813
5.12892
5.12627
5.12547
5.12624
5.12883
5.13298
5.13806
5.14402
5.14849
5.15426
6.35236
6.35113
6.35054
6.35071
6.35168
6.3534
6.3558
6.35878
6.36183
6.36443
5.95014
5.94979
5.94979
5.95012
5.95077
5.95177
5.95314
5.95509
5.95898
5.97176
4.9551
4.95526
4.95558
4.95608
4.95682
4.95826
4.96125
4.9675
4.97942
4.99869
4.87093
4.87099
4.87111
4.87128
4.87154
4.87199
4.87286
4.87456
4.87787
4.88348
4.86472
4.86507
4.86522
4.86521
4.86507
4.86486
4.86464
4.86455
4.86478
4.86541
4.85599
4.85588
4.85587
4.85598
4.85619
4.85649
4.85687
4.85733
4.8579
4.85875
4.86446
4.86466
4.86479
4.86484
4.86482
4.8647
4.8645
4.86427
4.86412
4.8643
4.87178
4.87139
4.87122
4.87145
4.87207
4.87303
4.87427
4.87583
4.87742
4.87936
4.95111
4.95198
4.95223
4.9521
4.9516
4.95066
4.94914
4.94728
4.94396
4.94712
5.11652
5.11415
5.11313
5.1137
5.11591
5.1195
5.12383
5.12875
5.13172
5.13631
6.07113
6.07031
6.06993
6.07005
6.07069
6.07181
6.07337
6.07531
6.07738
6.0792
5.68842
5.68817
5.68816
5.6884
5.68887
5.68959
5.69059
5.69198
5.69471
5.70419
4.94887
4.94914
4.94946
4.94983
4.95032
4.95128
4.95344
4.95841
4.96885
4.98806
4.87
4.87004
4.87015
4.87032
4.87058
4.87102
4.87177
4.87316
4.87591
4.88097
4.86352
4.86379
4.86392
4.8639
4.86379
4.8636
4.8634
4.86329
4.86344
4.86411
4.85595
4.85587
4.85586
4.85592
4.85606
4.85626
4.85652
4.85683
4.8572
4.85777
4.86124
4.86136
4.86143
4.86146
4.86144
4.86137
4.86124
4.86107
4.86094
4.86105
4.86652
4.86617
4.86601
4.86616
4.86658
4.86725
4.8681
4.86912
4.87018
4.87165
4.93236
4.93282
4.93287
4.93276
4.93246
4.93192
4.93101
4.92986
4.92727
4.93033
5.10504
5.10304
5.102
5.10246
5.10432
5.10735
5.11095
5.11488
5.1166
5.12033
5.7791
5.77859
5.77837
5.77844
5.77882
5.77951
5.78046
5.78166
5.78295
5.78417
5.41775
5.41735
5.41736
5.41751
5.41783
5.41831
5.41896
5.41986
5.42156
5.42801
4.94121
4.94149
4.94177
4.94199
4.94223
4.94273
4.94403
4.94741
4.95549
4.97316
4.86938
4.8694
4.86948
4.86962
4.86985
4.87021
4.87079
4.8718
4.87379
4.8778
4.86225
4.86242
4.8625
4.8625
4.86243
4.86231
4.86218
4.86208
4.86216
4.86269
4.85691
4.85686
4.85685
4.85688
4.85696
4.85706
4.85719
4.85734
4.85754
4.85784
4.86013
4.86021
4.86026
4.86027
4.86024
4.86017
4.86006
4.85991
4.85977
4.85977
4.86279
4.86256
4.86247
4.86255
4.86279
4.86315
4.86358
4.86407
4.86461
4.86552
4.91394
4.91423
4.91425
4.91418
4.91398
4.91361
4.91301
4.91223
4.91046
4.91286
5.08644
5.08479
5.08389
5.0842
5.08563
5.08795
5.09064
5.09343
5.09395
5.09681
5.47738
5.47709
5.47696
5.477
5.47721
5.47757
5.47809
5.47875
5.47946
5.48018
5.13707
5.13713
5.13714
5.13723
5.13739
5.13764
5.13798
5.13843
5.13924
5.14329
4.9243
4.92447
4.92466
4.92477
4.92483
4.92499
4.9255
4.92708
4.93181
4.94482
4.86819
4.86819
4.86825
4.86835
4.86852
4.86879
4.86918
4.86979
4.87094
4.87332
4.861
4.86108
4.86113
4.86113
4.8611
4.86105
4.86098
4.86093
4.86095
4.86119
4.85829
4.85827
4.85827
4.85828
4.85831
4.85834
4.85839
4.85844
4.85851
4.85862
4.86007
4.86013
4.86016
4.86016
4.86013
4.86007
4.85997
4.85985
4.85973
4.85967
4.86024
4.86014
4.86011
4.86014
4.86023
4.86036
4.8605
4.86063
4.86077
4.86111
4.89355
4.89377
4.89384
4.89379
4.89361
4.89329
4.89284
4.89231
4.89154
4.89291
5.0365
5.0351
5.03444
5.03458
5.03545
5.03688
5.03853
5.0401
5.03987
5.04142
5.16608
5.16593
5.16588
5.16589
5.16596
5.16611
5.16632
5.16658
5.16689
5.16724
12.1598
12.5965
12.3752
11.3395
212.385
207.039
203.763
199.347
322.231
315.535
308.6
294.048
394.922
387.887
376.946
356.694
469.926
462.222
446.097
422.617
554.937
542.238
516.881
487.25
628.391
610.369
578.224
546.338
661.882
639.598
603.418
569.439
518.588
495.706
461.996
430.166
13.1931
13.3767
13.2874
13.1329
10.0827
10.4347
10.5804
10.4062
235.602
214.881
210.612
204.689
369.522
342.28
333.131
312.189
462.747
435.807
422.978
388.509
563.584
540.591
519.481
471.571
696.694
671.83
628.923
560.261
824.397
793.714
727.808
645.411
903.876
868.278
787.304
688.374
733.758
699.771
623.252
528.897
12.8266
12.898
12.7186
12.3724
9.22225
9.37778
9.42156
9.32237
81.1805
83.0972
79.9805
72.5024
137.62
139.607
132.493
117.305
182.909
183.951
173.185
151.865
234.779
235.107
219.95
191.317
302.642
303.726
283.718
244.644
376.987
378.691
352.894
302.959
433.861
434.765
402.574
342.665
347.264
345.421
315.42
260.545
10.7258
10.8129
10.795
10.6974
8.93256
9.00512
9.01636
8.95038
33.7724
33.9817
33.4279
31.8992
59.2023
59.3791
57.5644
54.0933
79.4327
79.1729
76.0137
70.7289
102.938
102.151
97.2385
89.218
133.353
131.918
124.665
113.324
166.752
164.499
154.575
139.647
192.635
189.609
177.557
159.775
147.406
143.659
133.284
117.376
9.76948
9.82458
9.85165
9.85675
8.69912
8.75261
8.75408
8.69903
16.5027
16.6524
16.5023
16.1523
29.819
30.0773
29.5809
28.5651
40.0457
40.2746
39.419
37.8359
51.85
52.0298
50.6354
48.1524
67.4422
67.6944
65.7472
62.2767
84.57
84.9035
82.3274
77.7064
97.5292
97.9751
94.9725
89.3807
70.9908
71.0358
68.6144
63.3587
9.21243
9.25073
9.28257
9.3083
8.49381
8.53981
8.54024
8.49229
9.19717
9.21629
9.18796
9.14404
16.1581
16.2237
16.0795
15.7799
21.5988
21.6742
21.4445
21.0017
27.8633
27.9693
27.5996
26.8896
36.2277
36.4625
36.0043
35.0385
45.3373
45.7377
45.1836
43.8943
51.9184
52.5173
51.9488
50.3674
35.5955
35.9446
35.5552
34.0028
8.82418
8.84605
8.87091
8.90026
8.30279
8.34463
8.34472
8.30146
6.52212
6.5137
6.51015
6.52093
9.7177
9.72839
9.67865
9.57957
12.5929
12.6118
12.5451
12.4117
15.9704
16.0153
15.9124
15.6891
20.5549
20.6879
20.5952
20.3096
25.5073
25.7612
25.6866
25.311
28.9306
29.33
29.3078
28.8482
19.1329
19.4031
19.4357
18.9803
8.52456
8.5365
8.55483
8.58253
8.11432
8.15306
8.153
8.11324
5.62437
5.61464
5.61381
5.62551
6.82315
6.81795
6.7962
6.76057
8.21377
8.21127
8.18803
8.14797
9.95921
9.96826
9.93197
9.85484
12.4207
12.4718
12.451
12.3611
15.0857
15.1976
15.1991
15.0858
16.9007
17.0904
17.1311
16.9974
11.4681
11.6026
11.669
11.5541
8.27377
8.2796
8.2926
8.31645
7.92133
7.95714
7.95705
7.9205
5.3057
5.30011
5.29966
5.30612
5.65334
5.64729
5.63596
5.62052
6.25051
6.24411
6.2351
6.22456
7.07595
7.07325
7.05732
7.02908
8.31561
8.3299
8.32281
8.29364
9.6841
9.72493
9.73052
9.69591
10.6674
10.7455
10.7722
10.7333
8.04538
8.10302
8.14368
8.12316
8.0445
8.0466
8.05551
8.07491
7.72094
7.75375
7.75364
7.72033
5.17861
5.17673
5.17653
5.17902
5.20216
5.19816
5.19148
5.1829
5.43915
5.43394
5.43008
5.42817
5.80585
5.80133
5.79308
5.78179
6.39265
6.3936
6.38922
6.37957
7.05057
7.06107
7.06211
7.05194
7.59575
7.62256
7.63282
7.62117
6.53096
6.55291
6.57143
6.57172
7.82034
7.82022
7.82615
7.84139
7.51166
7.54129
7.54119
7.51121
5.12107
5.12186
5.12188
5.12173
5.0232
5.02107
5.01687
5.01116
5.10797
5.1046
5.10284
5.10308
5.26785
5.26447
5.25979
5.25447
5.54324
5.54109
5.53791
5.53426
5.85217
5.85254
5.85121
5.84822
6.1698
6.17701
6.17887
6.17416
5.82979
5.83698
5.84417
5.84745
7.59329
7.59191
7.59576
7.6075
7.29255
7.31887
7.31875
7.29222
5.09099
5.09374
5.09391
5.09181
4.94867
4.94782
4.9451
4.94095
4.96879
4.96677
4.96593
4.96652
5.03656
5.03449
5.03172
5.02879
5.16863
5.1665
5.16427
5.16253
5.31787
5.31586
5.31406
5.31311
5.51921
5.52018
5.519
5.51591
5.4856
5.48674
5.4891
5.49235
7.3599
7.35789
7.36033
7.36924
7.06301
7.0859
7.08581
7.06277
5.07261
5.07702
5.07723
5.07344
4.91633
4.91633
4.91458
4.9114
4.90892
4.90775
4.90733
4.90782
4.93493
4.93378
4.93212
4.93036
4.9996
4.99811
4.99663
4.99562
5.0759
5.07385
5.07235
5.07207
5.21702
5.21647
5.21466
5.21213
5.30937
5.30797
5.3085
5.3116
7.11845
7.11623
7.11773
7.12441
6.82264
6.84234
6.84228
6.82244
5.05966
5.06549
5.06569
5.0604
4.90181
4.9024
4.9013
4.89874
4.88313
4.8825
4.88228
4.88255
4.89008
4.8895
4.88853
4.88743
4.92235
4.92143
4.9205
4.91987
4.96483
4.96327
4.96222
4.96222
5.07383
5.07322
5.07161
5.06947
5.21657
5.21406
5.21401
5.21718
6.86794
6.86577
6.86667
6.87159
6.57127
6.58797
6.58793
6.57116
5.0495
5.05673
5.05688
5.05005
4.89505
4.89608
4.89542
4.89322
4.87229
4.87203
4.87189
4.87193
4.87059
4.87034
4.86978
4.86909
4.88714
4.88662
4.88607
4.88566
4.91379
4.91275
4.9121
4.91222
5.00484
5.00457
5.00336
5.00154
5.16625
5.16324
5.1631
5.16645
6.60774
6.6058
6.60631
6.60987
6.30896
6.32269
6.32268
6.3089
5.04086
5.0497
5.04981
5.04122
4.89167
4.89304
4.89268
4.89066
4.86799
4.86798
4.86788
4.86771
4.8624
4.86233
4.86201
4.86158
4.87126
4.87099
4.87066
4.87038
4.8902
4.8896
4.88923
4.88936
4.97008
4.97023
4.9694
4.96776
5.13745
5.13425
5.13417
5.1377
6.33752
6.33591
6.33618
6.33868
6.03583
6.04667
6.04666
6.0358
5.03305
5.04374
5.0438
5.03327
4.8895
4.89117
4.89099
4.88902
4.86632
4.8665
4.86642
4.86608
4.85918
4.85917
4.859
4.85872
4.86414
4.86401
4.86381
4.86359
4.87856
4.87829
4.87811
4.87817
4.94975
4.95033
4.94975
4.94809
5.11873
5.11556
5.11559
5.11917
6.05731
6.05608
6.05621
6.05789
5.75237
5.76046
5.76046
5.75236
5.02501
5.03756
5.03758
5.0251
4.88717
4.88904
4.88897
4.88699
4.86528
4.86558
4.86551
4.86509
4.85808
4.8581
4.85799
4.85782
4.86097
4.86088
4.86074
4.86057
4.87144
4.8714
4.87131
4.87127
4.93345
4.93442
4.93394
4.93209
5.10262
5.0998
5.09991
5.10322
5.76755
5.76669
5.76675
5.7678
5.45953
5.46508
5.46508
5.45952
5.01286
5.02667
5.02667
5.01286
4.88348
4.88528
4.88526
4.88344
4.86378
4.86409
4.86404
4.86365
4.858
4.85799
4.85793
4.85784
4.85968
4.8596
4.85948
4.85936
4.86567
4.86576
4.86572
4.86561
4.91542
4.91651
4.91603
4.91405
5.07995
5.0781
5.07827
5.08065
5.46911
5.46864
5.46865
5.46918
5.15728
5.16074
5.16074
5.15728
4.98045
4.99293
4.99293
4.98043
4.87721
4.87838
4.87839
4.87723
4.86178
4.86195
4.86193
4.86171
4.85865
4.85863
4.8586
4.85856
4.85955
4.85947
4.85939
4.85931
4.86131
4.86141
4.86142
4.86133
4.89326
4.89361
4.89313
4.89191
5.02699
5.027
5.02724
5.02779
5.16198
5.16185
5.16185
5.16198
10.1299
9.42961
9.10449
8.97846
8.92252
8.87478
8.82504
8.78032
8.74605
8.72316
197.291
103.891
62.0076
49.9598
43.9284
38.6008
34.1822
30.8336
28.7964
28.065
265.809
124.426
88.5561
74.9824
68.1165
62.8372
59.0016
56.3609
54.8746
54.6641
307.421
133.601
97.8564
81.0144
71.9363
65.1184
60.3462
57.1262
55.2522
55.0886
367.005
148.707
106.444
85.0419
72.6711
63.8972
57.8444
53.7902
51.2912
50.9792
439.613
177.301
117.702
89.5279
73.1277
62.0989
54.5653
49.5525
46.3704
45.7036
505.637
203.48
123.163
89.9196
70.656
58.2901
49.9122
44.4089
40.8384
39.9135
532.734
208.267
112.86
79.0704
59.5002
47.6069
39.7755
34.8436
31.732
30.8371
397.815
129.546
56.5045
35.9566
24.8698
19.2046
16.0744
14.4345
13.4528
13.179
12.826
10.5723
9.94416
9.66795
9.4946
9.37928
9.30198
9.24658
9.1997
9.16552
9.72105
9.25677
9.03165
8.90838
8.83079
8.77174
8.72247
8.68241
8.65337
8.63503
131.457
71.3435
48.4303
38.7517
33.1193
28.6693
25.0823
22.3664
20.6634
19.9164
182.521
96.3979
70.4729
58.8575
52.3362
47.579
44.1426
41.7979
40.5008
40.2552
212.851
108.199
79.192
64.612
56.3169
50.3697
46.2485
43.518
41.9648
41.738
250.542
121.616
86.9905
68.5579
57.8028
50.3914
45.3338
42.0098
39.9721
39.5621
316.991
144.539
97.4804
73.3701
59.3778
50.0901
43.7978
39.6645
37.021
36.2563
392.383
166.402
103.64
74.9677
58.5218
48.0269
40.9716
36.391
33.3671
32.334
432.695
172.564
96.8907
67.2648
50.3399
40.0899
33.3947
29.2219
26.5369
25.5536
324.974
108.967
49.6932
31.3883
21.7783
16.8908
14.1931
12.7883
11.9223
11.6133
11.6761
10.2553
9.74109
9.49898
9.34875
9.24713
9.17678
9.12459
9.07904
9.04193
9.12643
8.92497
8.81871
8.74544
8.68716
8.63892
8.59993
8.57004
8.54928
8.53664
55.5279
41.8182
33.3422
27.4629
23.0454
19.6419
17.0994
15.2846
14.1888
13.7048
85.0421
62.9658
51.092
42.936
37.5071
33.6426
30.9398
29.149
28.2048
28.0545
105.856
74.4138
58.6186
48.0082
41.2924
36.6181
33.4363
31.3736
30.2629
30.1339
128.54
85.2277
65.0455
51.5392
43.1683
37.4901
33.6552
31.1846
29.7376
29.4648
159.431
101.277
73.4591
56.0112
45.2887
38.1634
33.3541
30.2359
28.3045
27.74
194.573
116.172
78.8667
58.1692
45.52
37.3788
31.92
28.4209
26.1672
25.3759
219.76
120.876
74.5779
53.1051
39.9082
31.8579
26.6254
23.4089
21.3909
20.6449
160.251
74.2382
37.7679
24.948
17.7311
14.1073
12.0998
11.0515
10.4111
10.1948
10.5219
9.85304
9.51138
9.32509
9.20375
9.11938
9.05789
9.0096
8.96528
8.92792
8.79267
8.67687
8.61071
8.56139
8.52166
8.48954
8.46434
8.44547
8.43274
8.42548
29.1647
24.7738
20.7859
17.4589
14.854
12.8941
11.4868
10.5153
9.94733
9.70258
47.4593
39.8803
33.741
28.8072
25.2228
22.6379
20.8303
19.6413
19.0316
18.9492
60.3525
48.9135
39.9796
33.2945
28.7149
25.4996
23.3059
21.892
21.1592
21.0934
73.6252
57.5437
45.2455
36.5335
30.7753
26.8373
24.1784
22.4879
21.5411
21.3855
92.3728
69.5581
52.033
40.5838
33.0868
28.0429
24.6366
22.4524
21.1496
20.7844
112.809
80.408
56.7766
42.9804
33.9724
28.0973
24.1641
21.6764
20.1287
19.5967
127.819
83.7398
54.506
39.9759
30.4113
24.5321
20.7326
18.433
17.0402
16.5451
90.446
49.3418
27.2774
19.0508
14.1631
11.7128
10.3313
9.6029
9.15928
9.02168
9.83915
9.47141
9.25505
9.12039
9.02854
8.96083
8.90904
8.86661
8.82622
8.79171
8.528
8.44916
8.40758
8.37864
8.35587
8.3374
8.32272
8.31167
8.30436
8.30057
15.67
14.0226
12.3138
10.8418
9.68387
8.81775
8.19932
7.77036
7.52306
7.42214
26.7113
23.7029
20.7649
18.2745
16.3441
14.9047
13.8812
13.2061
12.8695
12.8384
34.8481
30.1204
25.4997
21.8973
19.2386
17.3149
15.9831
15.1214
14.687
14.6619
43.4219
36.3625
29.5725
24.6598
21.174
18.735
17.0786
16.0354
15.4737
15.399
55.4579
44.868
34.8298
28.0868
23.3501
20.0949
17.8879
16.4856
15.678
15.4654
68.2588
52.5532
38.7943
30.3843
24.5099
20.6064
17.9921
16.3598
15.3775
15.0513
77.3376
55.0001
37.9781
28.8543
22.4813
18.519
15.9688
14.4471
13.5565
13.2576
52.1741
31.0843
19.1742
14.3604
11.36
9.81848
8.91927
8.43696
8.14183
8.05818
9.33105
9.13193
9.00908
8.91741
8.84992
8.79611
8.75281
8.71604
8.67988
8.64868
8.31377
8.2529
8.22494
8.20752
8.19422
8.18337
8.17466
8.16815
8.16409
8.1624
9.1706
8.63838
8.03511
7.50433
7.0814
6.75957
6.52344
6.35296
6.25544
6.22156
15.2303
14.0596
12.7884
11.6642
10.7536
10.0635
9.57193
9.25029
9.0997
9.10351
20.0972
18.1331
15.9831
14.2242
12.8485
11.8309
11.121
10.6604
10.4367
10.4397
25.3525
22.1683
18.8352
16.3066
14.4071
13.0551
12.137
11.5666
11.273
11.2525
32.7778
27.73
22.609
18.9389
16.2077
14.2951
12.997
12.1803
11.7259
11.6212
40.6114
32.8176
25.6408
20.8641
17.346
14.9648
13.3715
12.3893
11.8153
11.6366
45.909
34.5873
25.6361
20.2674
16.3679
13.9082
12.3286
11.3964
10.8678
10.7064
29.5699
19.3021
13.624
11.0173
9.31266
8.38849
7.82476
7.51533
7.32419
7.27547
8.94318
8.84361
8.7773
8.71596
8.66632
8.62363
8.58769
8.55634
8.52464
8.49711
8.12403
8.07279
8.05163
8.03973
8.03105
8.02407
8.01857
8.01463
8.01244
8.01196
6.57844
6.42756
6.23885
6.06745
5.92605
5.81322
5.72559
5.6586
5.62131
5.61346
9.39934
8.95058
8.45242
8.00571
7.64085
7.36617
7.17298
7.04917
6.99942
7.01755
12.1112
11.2987
10.3776
9.59727
8.97007
8.50314
8.17724
7.96486
7.86773
7.88391
15.1212
13.692
12.1852
10.9881
10.0661
9.40807
8.9656
8.69603
8.56629
8.57481
19.4627
17.1056
14.6851
12.8229
11.3952
10.3857
9.70256
9.2768
9.04871
9.0099
24.0332
20.2864
16.8024
14.2618
12.3386
11.0192
10.1382
9.60107
9.29511
9.21005
27.0333
21.5385
17.142
14.1874
12.0071
10.6089
9.70974
9.1826
8.89293
8.81791
17.1671
12.6045
10.1366
8.80201
7.88304
7.34609
7.00245
6.80867
6.68756
6.66016
8.63504
8.59013
8.55401
8.51278
8.47602
8.44236
8.41295
8.38679
8.35968
8.33603
7.94166
7.89601
7.87835
7.86914
7.86273
7.85776
7.854
7.85148
7.85034
7.85051
5.64289
5.5997
5.53716
5.47805
5.42748
5.38528
5.35069
5.32312
5.30884
5.30969
6.70097
6.54667
6.3797
6.23051
6.10996
6.02087
5.95992
5.92296
5.91461
5.93333
8.05582
7.75443
7.40562
7.10383
6.85811
6.67421
6.54489
6.45903
6.42368
6.44132
9.63989
9.04704
8.4303
7.9274
7.53941
7.26378
7.08096
6.97262
6.9268
6.94501
12.041
11.0129
9.95005
9.09066
8.42528
7.95184
7.63154
7.43294
7.33171
7.32593
14.5884
12.8959
11.3042
10.0637
9.11472
8.45541
8.01398
7.74665
7.59793
7.56452
16.2687
13.7661
11.7281
10.2336
9.12338
8.39486
7.92245
7.64631
7.50065
7.4739
10.8825
9.06521
8.0536
7.39366
6.91248
6.60626
6.40065
6.28107
6.20532
6.19004
8.372
8.35392
8.33313
8.3051
8.27782
8.25163
8.228
8.20672
8.18419
8.16447
7.75708
7.71559
7.70021
7.69255
7.68741
7.68354
7.68074
7.67901
7.67843
7.67892
5.29569
5.27918
5.2525
5.22705
5.20537
5.1872
5.17193
5.15964
5.15402
5.15692
5.59666
5.546
5.49584
5.4521
5.41812
5.39455
5.38015
5.3736
5.37767
5.39197
6.20325
6.10893
5.99429
5.89243
5.80746
5.74259
5.69586
5.66361
5.65272
5.66648
6.95131
6.73492
6.51451
6.332
6.19109
6.09118
6.02625
5.98986
5.97918
5.99649
8.18064
7.78131
7.36271
7.01135
6.73581
6.53669
6.4009
6.31695
6.27768
6.28433
9.5131
8.8205
8.15687
7.61446
7.19328
6.8936
6.69028
6.56765
6.50134
6.49207
10.4529
9.41164
8.54097
7.85538
7.33752
6.98561
6.75414
6.61975
6.55369
6.55049
7.90171
7.2396
6.83385
6.51399
6.26561
6.09301
5.97132
5.89791
5.8505
5.84153
8.12974
8.12323
8.1104
8.0912