/*--------------------------------*- C++ -*----------------------------------*\
| =========                 |                                                 |
| \\      /  F ield         | foam-extend: Open Source CFD                    |
|  \\    /   O peration     | Version:     4.0                                |
|   \\  /    A nd           | Web:         http://www.foam-extend.org         |
|    \\/     M anipulation  |                                                 |
\*---------------------------------------------------------------------------*/
FoamFile
{
    version     2.0;
    format      ascii;
    class       volScalarField;
    location    "1200";
    object      MaU;
}
// * * * * * * * * * * * * * * * * * * * * * * * * * * * * * * * * * * * * * //

dimensions      [0 0 0 0 0 0 0];

internalField   nonuniform List<scalar> 
34480
(
0.632227
0.637385
0.64233
0.64729
0.652547
0.657992
0.661785
0.658175
0.637383
0.57191
0.63969
0.645836
0.651503
0.656779
0.662189
0.668188
0.674112
0.676058
0.665881
0.611729
0.643341
0.650321
0.656904
0.663193
0.669621
0.676917
0.685089
0.691244
0.688958
0.644998
0.644223
0.652705
0.660886
0.668878
0.676927
0.685742
0.695733
0.705018
0.708865
0.672727
0.644744
0.654547
0.664105
0.673593
0.683163
0.693432
0.705024
0.716957
0.725976
0.695865
0.644149
0.654987
0.665577
0.67619
0.686961
0.698433
0.711335
0.725468
0.738888
0.713748
0.643936
0.655441
0.666628
0.67789
0.689379
0.701624
0.715484
0.731579
0.749206
0.728966
0.64298
0.654788
0.666184
0.677633
0.6893
0.70172
0.715912
0.733418
0.755068
0.740129
0.642796
0.65467
0.6661
0.677634
0.689425
0.70193
0.716185
0.734595
0.760013
0.749679
0.638499
0.65043
0.66193
0.673465
0.685027
0.696953
0.710323
0.728351
0.757069
0.752315
0.607271
0.610134
0.611671
0.611601
0.609466
0.604446
0.59525
0.580152
0.55461
0.50023
0.620668
0.624976
0.62812
0.629674
0.629311
0.626337
0.61922
0.60572
0.58227
0.52739
0.628074
0.633469
0.637875
0.641025
0.642584
0.642039
0.637962
0.62762
0.607629
0.553785
0.631475
0.638394
0.644488
0.649573
0.653223
0.654947
0.653449
0.645919
0.629252
0.577378
0.633717
0.641972
0.649523
0.65625
0.661739
0.665459
0.666219
0.661309
0.647853
0.598463
0.634419
0.643767
0.652457
0.660454
0.66741
0.672772
0.675435
0.672876
0.66231
0.615065
0.635166
0.645259
0.654684
0.66351
0.671474
0.678056
0.682292
0.681989
0.674447
0.629873
0.634887
0.645395
0.655203
0.664465
0.672988
0.680325
0.685695
0.687385
0.683101
0.642207
0.634893
0.645517
0.655471
0.665004
0.674005
0.682058
0.688441
0.691859
0.690963
0.653896
0.631053
0.641735
0.651838
0.661502
0.67056
0.678647
0.685261
0.689566
0.692149
0.659956
0.588764
0.590299
0.590334
0.588653
0.58487
0.578451
0.568695
0.554792
0.535349
0.507501
0.604775
0.607693
0.609212
0.608958
0.606432
0.600861
0.591107
0.575609
0.552032
0.516456
0.614364
0.618463
0.621291
0.622511
0.621657
0.617892
0.609739
0.594946
0.570181
0.528628
0.619571
0.625141
0.629579
0.632598
0.633635
0.631817
0.625441
0.611684
0.586385
0.539956
0.623163
0.630044
0.635916
0.640537
0.64331
0.643339
0.638778
0.626376
0.601228
0.551238
0.624932
0.632927
0.639977
0.645899
0.650137
0.651766
0.648874
0.637933
0.613348
0.560906
0.626486
0.635278
0.643149
0.649997
0.655336
0.658264
0.65689
0.647595
0.624175
0.57055
0.626839
0.636123
0.644495
0.651931
0.658027
0.661929
0.661854
0.654277
0.632595
0.578955
0.627242
0.636683
0.645253
0.653015
0.659688
0.664493
0.665737
0.660001
0.640475
0.586833
0.624039
0.633521
0.642249
0.650152
0.656921
0.66184
0.663667
0.659374
0.642465
0.589005
0.575703
0.576432
0.575846
0.573816
0.570158
0.56468
0.557266
0.548046
0.537324
0.524791
0.591944
0.59378
0.59423
0.59303
0.589821
0.584145
0.575452
0.563235
0.547069
0.527199
0.602482
0.605435
0.607029
0.606947
0.604774
0.599873
0.59134
0.578072
0.55886
0.532969
0.608835
0.613135
0.616144
0.617531
0.616765
0.613047
0.605137
0.591319
0.569532
0.537738
0.61344
0.618979
0.623303
0.62611
0.626766
0.624371
0.617393
0.603545
0.57986
0.542867
0.616086
0.622718
0.628181
0.63221
0.634148
0.633013
0.627045
0.613457
0.58835
0.546824
0.618342
0.62579
0.632098
0.637059
0.640042
0.640028
0.635118
0.622152
0.596318
0.551266
0.619264
0.627257
0.63413
0.639745
0.643529
0.644469
0.640616
0.628575
0.602737
0.555196
0.619993
0.628191
0.635308
0.641276
0.645632
0.647436
0.644781
0.634096
0.609021
0.559231
0.617228
0.625489
0.632802
0.638963
0.643514
0.645542
0.643436
0.633882
0.610436
0.55872
0.567674
0.56803
0.567415
0.565783
0.563089
0.559318
0.554572
0.549246
0.544196
0.53993
0.582412
0.583543
0.583505
0.582141
0.579268
0.574689
0.568242
0.55992
0.550013
0.539537
0.592683
0.594762
0.595582
0.594907
0.592451
0.58784
0.580653
0.570548
0.557475
0.542477
0.599425
0.60267
0.60463
0.605007
0.603396
0.599226
0.591765
0.580218
0.564012
0.544026
0.604572
0.608943
0.612034
0.613544
0.612938
0.609492
0.602162
0.589651
0.570688
0.545779
0.607785
0.61319
0.617318
0.619883
0.620266
0.617624
0.610627
0.597474
0.576075
0.546426
0.61054
0.616752
0.621694
0.625119
0.62638
0.624547
0.618064
0.604681
0.581409
0.547569
0.611905
0.618689
0.624216
0.628289
0.630282
0.629221
0.623397
0.610182
0.585682
0.54831
0.612946
0.619976
0.625777
0.63021
0.632715
0.632357
0.62739
0.614882
0.589982
0.549404
0.610547
0.617666
0.62369
0.628342
0.631085
0.630977
0.626421
0.614511
0.590146
0.54684
0.563345
0.563536
0.563078
0.561968
0.56022
0.557882
0.555094
0.552253
0.550259
0.549999
0.57579
0.576477
0.576275
0.575104
0.572899
0.569618
0.56528
0.56003
0.554221
0.548594
0.584999
0.586427
0.586797
0.585957
0.583746
0.579995
0.57458
0.567526
0.55915
0.550451
0.591528
0.593914
0.595133
0.594957
0.593114
0.589268
0.583079
0.574322
0.563127
0.550749
0.596796
0.60016
0.602296
0.602936
0.601688
0.598054
0.591438
0.581278
0.567335
0.55102
0.600279
0.604586
0.607611
0.609084
0.608504
0.605232
0.598407
0.587077
0.570476
0.550066
0.603332
0.608408
0.612171
0.614376
0.614447
0.611635
0.604836
0.592696
0.573785
0.549451
0.605
0.610648
0.614976
0.617767
0.618427
0.616132
0.609575
0.59702
0.576275
0.548353
0.606292
0.612218
0.616836
0.619971
0.62105
0.619247
0.613155
0.600711
0.578868
0.547633
0.604166
0.610204
0.61506
0.618424
0.619747
0.618169
0.612319
0.600006
0.57791
0.54386
0.561505
0.56163
0.561346
0.560672
0.559634
0.558284
0.55674
0.55533
0.554905
0.55668
0.571525
0.571947
0.571745
0.570883
0.569353
0.567178
0.564429
0.56126
0.557924
0.554851
0.579262
0.580227
0.580367
0.579597
0.577844
0.575059
0.571256
0.566573
0.56134
0.556225
0.585153
0.586869
0.5876
0.587189
0.585479
0.582306
0.577563
0.57129
0.563818
0.55612
0.59019
0.592721
0.594152
0.594274
0.592826
0.589512
0.584053
0.576308
0.566481
0.555851
0.593674
0.59703
0.599186
0.59991
0.598837
0.595538
0.589529
0.580421
0.568161
0.554303
0.596833
0.600893
0.603684
0.60498
0.604326
0.601179
0.594841
0.584629
0.570094
0.552966
0.598653
0.603262
0.606567
0.608352
0.608116
0.605225
0.598786
0.587801
0.5713
0.551027
0.600124
0.605029
0.608622
0.610717
0.610796
0.60819
0.601878
0.590578
0.572691
0.54949
0.598189
0.60322
0.607049
0.609362
0.609656
0.607214
0.600986
0.589496
0.570924
0.545283
0.561158
0.561254
0.5611
0.56072
0.560139
0.559395
0.558575
0.557939
0.558282
0.561098
0.569009
0.569273
0.569126
0.568553
0.567566
0.566201
0.564528
0.562661
0.56076
0.559054
0.575184
0.575828
0.575866
0.575257
0.573977
0.572033
0.569486
0.566476
0.563247
0.560194
0.580203
0.581413
0.58184
0.581385
0.579969
0.577535
0.574091
0.569764
0.564866
0.560034
0.584758
0.586621
0.587556
0.58741
0.586029
0.583264
0.579024
0.573365
0.566604
0.559657
0.588026
0.590584
0.592082
0.592333
0.591099
0.588122
0.583178
0.576192
0.567402
0.558026
0.591123
0.594302
0.596319
0.596984
0.595968
0.592913
0.587435
0.579276
0.568487
0.556549
0.592951
0.596636
0.599098
0.600139
0.599377
0.596362
0.59055
0.581462
0.568855
0.554372
0.594528
0.598508
0.601238
0.602542
0.601993
0.599092
0.593167
0.583528
0.569535
0.552687
0.592711
0.596818
0.599769
0.601262
0.600878
0.598063
0.592091
0.58208
0.567248
0.548459
0.561604
0.561683
0.56161
0.561408
0.561096
0.560699
0.560278
0.560044
0.560742
0.564087
0.567698
0.567867
0.567778
0.567425
0.566821
0.566
0.565012
0.563932
0.562855
0.561895
0.57242
0.572848
0.572852
0.572415
0.571535
0.570239
0.56859
0.566697
0.56472
0.562884
0.576504
0.577343
0.577591
0.577188
0.576102
0.574332
0.571927
0.56902
0.565848
0.562799
0.580428
0.581773
0.582372
0.582123
0.580944
0.578775
0.575626
0.571618
0.567041
0.562495
0.583328
0.585237
0.586255
0.586243
0.585056
0.582561
0.578691
0.573517
0.567343
0.561017
0.586235
0.588671
0.590096
0.590357
0.589237
0.586523
0.582042
0.575771
0.567958
0.5597
0.587945
0.590827
0.592619
0.593149
0.592147
0.589322
0.584386
0.577181
0.567826
0.55761
0.589561
0.592724
0.59475
0.595485
0.594607
0.591771
0.586584
0.578746
0.56816
0.556142
0.587798
0.591079
0.5933
0.594186
0.593416
0.590592
0.585264
0.576982
0.565579
0.552097
0.562396
0.562464
0.562435
0.562333
0.562169
0.561962
0.561753
0.561717
0.562556
0.566151
0.567159
0.567269
0.567223
0.567017
0.566663
0.566184
0.565614
0.564997
0.56439
0.563844
0.570634
0.570917
0.570915
0.570624
0.570049
0.569217
0.568177
0.567005
0.5658
0.564688
0.573838
0.574411
0.574558
0.574243
0.573459
0.572224
0.570596
0.568682
0.566645
0.564715
0.577076
0.578029
0.57841
0.578153
0.57722
0.575601
0.573343
0.570571
0.567511
0.564537
0.579527
0.580921
0.581601
0.581468
0.58044
0.578464
0.575551
0.571825
0.567558
0.563307
0.58216
0.583986
0.584972
0.585002
0.583942
0.581681
0.578173
0.573503
0.567955
0.562285
0.58365
0.585854
0.587129
0.587335
0.586294
0.583837
0.579843
0.574329
0.567547
0.56042
0.585256
0.587714
0.589183
0.589536
0.588546
0.585999
0.581695
0.575568
0.56777
0.559318
0.583494
0.586053
0.587685
0.588148
0.587215
0.584623
0.58013
0.57356
0.565057
0.555543
0.56328
0.563339
0.563331
0.563281
0.563197
0.56309
0.562989
0.563042
0.563908
0.567595
0.567077
0.56715
0.56713
0.567015
0.566814
0.566541
0.566216
0.565868
0.565527
0.565214
0.569536
0.569721
0.569722
0.569539
0.569178
0.568659
0.568018
0.567303
0.566572
0.565895
0.571986
0.572373
0.572462
0.572236
0.571696
0.570865
0.569791
0.568552
0.567253
0.566029
0.574553
0.575215
0.575457
0.575237
0.574542
0.573381
0.57181
0.569933
0.567909
0.565967
0.57653
0.577528
0.577975
0.577806
0.57698
0.575486
0.573368
0.570748
0.567841
0.564998
0.578851
0.58019
0.580859
0.580776
0.579863
0.578076
0.575431
0.572047
0.568174
0.564311
0.580047
0.581694
0.582581
0.582602
0.581647
0.579632
0.576531
0.572438
0.56762
0.562702
0.581616
0.583482
0.584521
0.584639
0.583683
0.581534
0.57812
0.57349
0.567875
0.562006
0.579813
0.581758
0.582929
0.583118
0.58218
0.579953
0.576336
0.57131
0.565133
0.558519
0.564121
0.564172
0.564174
0.564151
0.564107
0.564052
0.564004
0.56409
0.56492
0.568601
0.567242
0.567291
0.567285
0.567223
0.567111
0.566958
0.566775
0.566579
0.566388
0.566206
0.568892
0.569013
0.569018
0.568907
0.568687
0.568372
0.567984
0.567553
0.567111
0.566698
0.57075
0.571007
0.571064
0.570911
0.570553
0.57001
0.569317
0.568527
0.567705
0.566928
0.5727
0.573153
0.573306
0.573137
0.572642
0.57184
0.570775
0.569528
0.568205
0.566941
0.574228
0.574926
0.575217
0.575058
0.574431
0.573346
0.571852
0.57005
0.568096
0.566208
0.576233
0.577194
0.57764
0.577517
0.576784
0.575432
0.573504
0.571111
0.568452
0.565841
0.57709
0.578291
0.578895
0.578825
0.578019
0.576444
0.574123
0.571169
0.567812
0.564455
0.578618
0.580002
0.58072
0.580708
0.579868
0.578148
0.575542
0.572148
0.568187
0.564163
0.576742
0.578181
0.579
0.57903
0.578181
0.576369
0.573574
0.569853
0.56547
0.560938
0.564859
0.564904
0.564909
0.564899
0.564876
0.564847
0.564825
0.564915
0.565673
0.569277
0.567525
0.567557
0.567558
0.567526
0.567464
0.567378
0.567275
0.567164
0.567057
0.566949
0.568531
0.568608
0.568614
0.568551
0.56842
0.568233
0.568002
0.567744
0.567479
0.567225
0.569962
0.570131
0.570168
0.570069
0.56984
0.569493
0.569055
0.568558
0.568042
0.56755
0.571372
0.571675
0.571773
0.571652
0.571313
0.570774
0.570071
0.569257
0.568402
0.567585
0.572502
0.572981
0.573168
0.573038
0.572583
0.571822
0.570797
0.569584
0.568291
0.567047
0.574217
0.57489
0.575183
0.575061
0.574504
0.57352
0.572156
0.570505
0.568708
0.566962
0.574709
0.575563
0.575966
0.575864
0.575225
0.574045
0.572366
0.57029
0.567995
0.565733
0.576221
0.577222
0.577707
0.577635
0.576948
0.575631
0.573713
0.571293
0.568555
0.56583
0.574243
0.575277
0.575836
0.575785
0.575075
0.573668
0.571589
0.568915
0.565875
0.562816
0.565474
0.565514
0.565519
0.565514
0.565502
0.565486
0.565475
0.565554
0.566219
0.569685
0.567853
0.567874
0.567877
0.56786
0.567826
0.567778
0.567719
0.567656
0.567596
0.567528
0.568327
0.568377
0.568382
0.568347
0.568271
0.568162
0.568026
0.567874
0.567715
0.567558
0.569491
0.5696
0.569625
0.569563
0.56942
0.569204
0.568932
0.568623
0.568302
0.567989
0.570439
0.570638
0.5707
0.570618
0.570394
0.570042
0.569588
0.569067
0.568522
0.567997
0.571241
0.571562
0.571681
0.571583
0.571267
0.570749
0.570064
0.569266
0.568423
0.567612
0.572704
0.573165
0.573354
0.573251
0.572847
0.572157
0.57122
0.570106
0.568914
0.567759
0.572823
0.573415
0.573677
0.573575
0.573095
0.572245
0.571068
0.569647
0.568109
0.566607
0.574367
0.575073
0.575393
0.575304
0.574774
0.573807
0.572441
0.570762
0.568906
0.567086
0.572256
0.572977
0.573349
0.573268
0.572709
0.571663
0.57017
0.568303
0.566242
0.56421
0.565958
0.565993
0.565997
0.565995
0.565988
0.565979
0.565973
0.566035
0.566591
0.569855
0.568194
0.568208
0.568211
0.568203
0.568183
0.568155
0.568121
0.568085
0.568049
0.568004
0.568197
0.568227
0.568232
0.568213
0.56817
0.568107
0.568028
0.567939
0.567844
0.567747
0.569237
0.569306
0.569323
0.569286
0.569199
0.569067
0.568901
0.568713
0.568514
0.568316
0.569798
0.569926
0.569965
0.569912
0.569768
0.569544
0.569257
0.568929
0.568587
0.568253
0.570347
0.570557
0.570633
0.570563
0.570351
0.570009
0.569563
0.569048
0.568508
0.567987
0.571599
0.571907
0.572028
0.571949
0.571669
0.5712
0.570575
0.569841
0.569065
0.56831
0.571346
0.571744
0.571911
0.571824
0.571479
0.570888
0.570087
0.56914
0.568131
0.567152
0.572991
0.573478
0.573684
0.573601
0.573213
0.572529
0.571587
0.570452
0.569222
0.568022
0.570703
0.571189
0.571431
0.571348
0.570932
0.570185
0.569148
0.567881
0.566517
0.565191
0.566291
0.566322
0.566325
0.566325
0.566321
0.566315
0.56631
0.566355
0.566792
0.569782
0.568544
0.568553
0.568556
0.568551
0.568539
0.568523
0.568502
0.56848
0.568459
0.568426
0.568085
0.568103
0.568106
0.568096
0.568072
0.568036
0.567991
0.567939
0.567882
0.567821
0.569129
0.569173
0.569185
0.569164
0.569112
0.569034
0.568935
0.568822
0.568701
0.568574
0.569375
0.569455
0.56948
0.569446
0.569356
0.569217
0.569039
0.568836
0.568625
0.568414
0.569744
0.569879
0.569926
0.569879
0.569741
0.569522
0.569238
0.568913
0.568573
0.568242
0.570817
0.571017
0.571094
0.571038
0.57085
0.570543
0.570137
0.569667
0.569173
0.568687
0.5702
0.57046
0.570564
0.570496
0.570257
0.56986
0.569331
0.568716
0.568067
0.567444
0.572035
0.572361
0.572492
0.572425
0.572153
0.571687
0.571058
0.570311
0.569514
0.568732
0.56948
0.569796
0.569949
0.569879
0.569582
0.569068
0.568372
0.567536
0.566656
0.565808
0.566395
0.566422
0.566425
0.566426
0.566424
0.566422
0.566419
0.566448
0.566762
0.569385
0.568924
0.56893
0.568932
0.568929
0.568922
0.568912
0.5689
0.568887
0.568873
0.568849
0.567967
0.567977
0.567979
0.567972
0.567958
0.567937
0.56791
0.56788
0.567845
0.567806
0.569118
0.569146
0.569154
0.569144
0.569114
0.56907
0.569012
0.568947
0.568875
0.568795
0.569123
0.569172
0.569187
0.569166
0.56911
0.569025
0.568916
0.568793
0.568664
0.568532
0.56938
0.569465
0.569493
0.569463
0.569376
0.569238
0.569061
0.56886
0.568649
0.568442
0.570291
0.570418
0.570465
0.570428
0.570307
0.570111
0.569857
0.569563
0.569257
0.568951
0.569346
0.569511
0.569573
0.569524
0.569365
0.569104
0.568762
0.56837
0.56796
0.567575
0.571463
0.571676
0.571757
0.571708
0.571524
0.571218
0.570811
0.570331
0.569828
0.56932
0.568428
0.568628
0.568721
0.568667
0.568464
0.568123
0.567669
0.567132
0.566578
0.566048
0.566069
0.566091
0.566094
0.566095
0.566095
0.566094
0.566093
0.566109
0.566302
0.568439
0.569401
0.569407
0.569408
0.569407
0.569404
0.5694
0.569395
0.569389
0.569382
0.569364
0.567873
0.567877
0.567877
0.567872
0.567861
0.567846
0.567828
0.567807
0.567783
0.567754
0.569164
0.569183
0.569189
0.569185
0.56917
0.569146
0.569115
0.569079
0.569039
0.568992
0.569013
0.569042
0.569051
0.569038
0.569004
0.568952
0.568885
0.568811
0.568731
0.568648
0.569218
0.56927
0.569287
0.569268
0.569214
0.569129
0.569019
0.568895
0.568765
0.568635
0.569976
0.570055
0.570084
0.570059
0.569984
0.569862
0.569706
0.569527
0.569344
0.569156
0.568827
0.568931
0.568968
0.568934
0.568829
0.56866
0.56844
0.56819
0.567927
0.56769
0.5713
0.571434
0.571484
0.571449
0.57133
0.571133
0.570877
0.570576
0.570267
0.569933
0.567295
0.56742
0.567476
0.567438
0.567303
0.56708
0.566789
0.566448
0.566105
0.565774
0.565043
0.565048
0.565046
0.565042
0.565035
0.565025
0.565013
0.565006
0.565078
0.566549
0.570123
0.57013
0.570132
0.570135
0.570139
0.570144
0.570149
0.570155
0.570158
0.570154
0.567908
0.567908
0.567905
0.567899
0.567888
0.567873
0.567855
0.567834
0.56781
0.56778
0.569225
0.569237
0.569243
0.569242
0.569235
0.569224
0.569209
0.569192
0.569173
0.56915
0.569011
0.569029
0.569034
0.569026
0.569004
0.568971
0.568929
0.568882
0.568831
0.568777
0.569205
0.569239
0.56925
0.569238
0.569203
0.569149
0.56908
0.569001
0.568918
0.568833
0.569829
0.569879
0.569897
0.569881
0.569833
0.569757
0.569659
0.56955
0.56944
0.569328
0.568777
0.568846
0.56887
0.568846
0.568776
0.568663
0.568516
0.568347
0.568163
0.567999
0.571651
0.571735
0.571766
0.571742
0.571663
0.571537
0.571374
0.571188
0.571006
0.570786
0.565767
0.565858
0.565894
0.565868
0.565778
0.56563
0.565437
0.565212
0.564986
0.56476
0.563412
0.563413
0.563402
0.563383
0.563357
0.563322
0.563278
0.563224
0.563166
0.563672
0.571146
0.571154
0.57116
0.571169
0.571182
0.571199
0.571222
0.571251
0.571285
0.571328
0.568134
0.568132
0.568128
0.56812
0.568109
0.568093
0.568072
0.568047
0.568017
0.567975
0.569246
0.569255
0.569259
0.56926
0.569257
0.569251
0.569243
0.569236
0.56923
0.569225
0.569054
0.569066
0.56907
0.569064
0.569049
0.569025
0.568995
0.568961
0.568924
0.568885
0.569254
0.569278
0.569286
0.569278
0.569253
0.569214
0.569164
0.569107
0.569047
0.568987
0.569774
0.56981
0.569823
0.569811
0.569776
0.569721
0.569652
0.569575
0.569501
0.569432
0.569181
0.569234
0.569253
0.569235
0.569183
0.569099
0.568988
0.568857
0.568707
0.568556
0.572493
0.572551
0.572574
0.572556
0.572498
0.572406
0.572291
0.572166
0.572059
0.571951
0.563924
0.564017
0.56405
0.564033
0.563966
0.563855
0.563709
0.563537
0.563355
0.563147
0.356492
0.262201
0.259155
0.357834
0.349909
0.254046
0.249478
0.354962
0.340672
0.244311
0.238731
0.334126
0.32895
0.231629
0.222853
0.299454
0.31568
0.218018
0.205778
0.267731
0.303013
0.208186
0.19673
0.259574
0.291907
0.201954
0.192436
0.255516
0.279333
0.194184
0.185861
0.246328
0.26672
0.186607
0.17883
0.234906
0.25469
0.179708
0.170265
0.218218
0.392864
0.35635
0.350197
0.37398
0.39653
0.354658
0.3467
0.370421
0.395442
0.34924
0.336526
0.357172
0.392156
0.341447
0.322572
0.338068
0.387816
0.333035
0.308784
0.318842
0.378981
0.320072
0.29101
0.296109
0.370142
0.308204
0.275461
0.275508
0.361207
0.297577
0.263001
0.261272
0.352902
0.288092
0.251688
0.247207
0.3449
0.277954
0.237896
0.228051
0.470409
0.457113
0.452841
0.459162
0.47444
0.456886
0.451224
0.458709
0.472569
0.452404
0.444982
0.450409
0.467599
0.444585
0.43481
0.437696
0.461461
0.435693
0.42348
0.42426
0.453257
0.425145
0.411302
0.41116
0.445228
0.41507
0.399759
0.398317
0.436613
0.404772
0.388061
0.384639
0.4287
0.395888
0.377777
0.371723
0.422022
0.389368
0.368917
0.357795
0.503871
0.499306
0.497232
0.497613
0.509659
0.501634
0.498567
0.500251
0.50875
0.499083
0.494756
0.495392
0.504722
0.493123
0.48727
0.486781
0.499683
0.486166
0.478829
0.477324
0.492273
0.476879
0.468143
0.465543
0.48457
0.467392
0.457304
0.453506
0.476051
0.45728
0.445872
0.440571
0.467557
0.447776
0.435175
0.427937
0.458274
0.438849
0.424887
0.413872
0.525308
0.524331
0.523138
0.521687
0.531766
0.527834
0.525905
0.525947
0.531494
0.52657
0.523765
0.523042
0.528436
0.522247
0.518398
0.516806
0.524568
0.517077
0.512174
0.509704
0.518609
0.509786
0.503806
0.500375
0.512356
0.502222
0.495166
0.490711
0.505125
0.493742
0.485589
0.479951
0.497993
0.485742
0.476603
0.469428
0.490197
0.47816
0.468043
0.457717
0.537745
0.538394
0.537713
0.535674
0.544686
0.5426
0.541418
0.541134
0.544825
0.542119
0.540337
0.539495
0.542535
0.539002
0.53649
0.534998
0.539557
0.535141
0.531864
0.529686
0.534637
0.529277
0.525189
0.52227
0.529447
0.52314
0.518235
0.514545
0.523291
0.51607
0.510348
0.505811
0.517324
0.509476
0.50306
0.49743
0.510338
0.502638
0.495665
0.487817
0.545527
0.546977
0.546584
0.544338
0.552743
0.551585
0.55087
0.550592
0.553103
0.551539
0.550417
0.549754
0.551441
0.549331
0.547705
0.546577
0.549193
0.546488
0.544318
0.542683
0.545198
0.541848
0.539093
0.536909
0.54101
0.537007
0.533662
0.530911
0.5359
0.531268
0.527343
0.523996
0.531115
0.526064
0.521674
0.517585
0.52499
0.519974
0.515244
0.509712
0.550551
0.55243
0.552204
0.549867
0.557848
0.557185
0.556755
0.556552
0.558366
0.55743
0.556727
0.556269
0.55721
0.555906
0.554859
0.554079
0.555566
0.553857
0.55243
0.551289
0.552361
0.550213
0.548374
0.546838
0.549052
0.546459
0.544205
0.542268
0.544859
0.541846
0.539194
0.53685
0.541163
0.537878
0.534928
0.532109
0.535773
0.532469
0.52931
0.525609
0.553959
0.556085
0.555956
0.553563
0.561169
0.56078
0.560522
0.560389
0.561787
0.561218
0.56078
0.560478
0.561048
0.560227
0.559554
0.559035
0.559904
0.558805
0.557868
0.557096
0.557382
0.555982
0.554757
0.553707
0.554856
0.553152
0.55164
0.550309
0.551464
0.549481
0.547699
0.546093
0.548744
0.546582
0.54461
0.542712
0.543984
0.541789
0.539688
0.537267
0.55638
0.558659
0.558585
0.55615
0.563386
0.563154
0.562999
0.562918
0.564018
0.563668
0.563395
0.563202
0.56361
0.563088
0.562657
0.562318
0.562869
0.562156
0.561542
0.561029
0.560935
0.560012
0.559198
0.558491
0.559098
0.557967
0.556953
0.556052
0.556378
0.555061
0.553865
0.552778
0.554475
0.553038
0.551718
0.550457
0.550273
0.548805
0.547405
0.545838
0.55818
0.560557
0.560516
0.558046
0.564911
0.564769
0.564676
0.56463
0.565479
0.565262
0.565093
0.564973
0.565322
0.564989
0.564712
0.564495
0.564882
0.564417
0.564015
0.563679
0.563435
0.562825
0.562285
0.561815
0.562195
0.56144
0.560762
0.560158
0.560019
0.559139
0.558337
0.557608
0.55879
0.557827
0.556943
0.556111
0.555067
0.554082
0.553149
0.552136
0.559575
0.562014
0.56199
0.559497
0.565994
0.565905
0.565849
0.565825
0.566437
0.566301
0.566197
0.566124
0.566472
0.566258
0.566082
0.565945
0.566232
0.565927
0.565666
0.565449
0.565174
0.564769
0.564412
0.564103
0.564428
0.563924
0.563472
0.563072
0.562666
0.562077
0.561541
0.561055
0.562005
0.561357
0.560767
0.560221
0.558676
0.558014
0.557392
0.556739
0.560697
0.563165
0.563151
0.560651
0.566793
0.566734
0.5667
0.566691
0.567058
0.566973
0.56691
0.566867
0.567252
0.567113
0.567002
0.566919
0.56712
0.566921
0.566752
0.566615
0.566361
0.566094
0.56586
0.56566
0.566016
0.565679
0.56538
0.565119
0.56454
0.564147
0.563791
0.56347
0.564372
0.563935
0.563543
0.56319
0.561341
0.560898
0.560485
0.560066
0.56163
0.564094
0.564086
0.561604
0.567407
0.567367
0.567347
0.567345
0.56745
0.567396
0.567357
0.567334
0.567792
0.567701
0.567632
0.567584
0.567691
0.567561
0.567453
0.567369
0.567158
0.566982
0.56683
0.566704
0.567125
0.566901
0.566705
0.566539
0.565814
0.565553
0.565319
0.565111
0.566093
0.565798
0.56554
0.565316
0.563261
0.562967
0.562695
0.562428
0.562431
0.564845
0.564841
0.562416
0.567906
0.567878
0.567865
0.567868
0.567675
0.56764
0.567617
0.567606
0.568181
0.568122
0.568079
0.568053
0.56805
0.567965
0.567898
0.567848
0.567685
0.567569
0.567473
0.567396
0.567886
0.567738
0.567612
0.567508
0.566629
0.566457
0.566305
0.566173
0.567336
0.567137
0.566969
0.566833
0.564593
0.564398
0.564222
0.564054
0.563123
0.565428
0.565426
0.563114
0.568345
0.568323
0.568316
0.568321
0.567771
0.567748
0.567735
0.567731
0.56848
0.568441
0.568414
0.568402
0.568278
0.568223
0.568181
0.568154
0.568041
0.567965
0.567904
0.567859
0.568403
0.568306
0.568226
0.568164
0.567102
0.56699
0.566894
0.566812
0.568247
0.568111
0.568004
0.567926
0.565441
0.565315
0.565202
0.565099
0.563669
0.565783
0.565781
0.563664
0.568781
0.568764
0.568759
0.568765
0.567771
0.567754
0.567747
0.567748
0.568728
0.568701
0.568685
0.568681
0.568439
0.568402
0.568376
0.568363
0.568305
0.568255
0.568218
0.568193
0.568762
0.568698
0.568648
0.568613
0.567352
0.56728
0.567219
0.567171
0.568963
0.568867
0.5688
0.568761
0.565832
0.565751
0.56568
0.565618
0.563896
0.5657
0.565699
0.563894
0.569307
0.569295
0.569291
0.569297
0.567727
0.567714
0.56771
0.567714
0.568943
0.568925
0.568915
0.568915
0.568581
0.568556
0.568541
0.568536
0.568539
0.568505
0.568482
0.568471
0.569033
0.568991
0.568961
0.568942
0.567537
0.567488
0.56745
0.567424
0.569652
0.569581
0.569539
0.569527
0.565654
0.565603
0.565559
0.565522
0.563469
0.56479
0.56479
0.563468
0.570108
0.570101
0.570098
0.570101
0.567752
0.567739
0.567737
0.567745
0.569118
0.569106
0.5691
0.569101
0.568726
0.568708
0.568698
0.568698
0.568762
0.568738
0.568724
0.56872
0.569253
0.569227
0.569208
0.569196
0.567859
0.56782
0.567796
0.567788
0.570559
0.570502
0.570476
0.570479
0.564684
0.564651
0.564623
0.5646
0.562395
0.562968
0.562968
0.562394
0.571324
0.571336
0.571334
0.571319
0.567938
0.567922
0.56792
0.567933
0.569212
0.569206
0.569202
0.5692
0.568845
0.568831
0.568824
0.568825
0.568931
0.568913
0.568903
0.568901
0.569393
0.569376
0.569363
0.569352
0.568372
0.56833
0.568313
0.568321
0.571849
0.571812
0.571792
0.57179
0.563053
0.563022
0.563002
0.562992
0.522956
0.561947
0.577266
0.586502
0.594362
0.601941
0.609093
0.61551
0.621392
0.626897
0.516626
0.542159
0.562115
0.577624
0.590629
0.601239
0.610432
0.618619
0.62611
0.633082
0.500033
0.525121
0.55436
0.572548
0.587894
0.600213
0.610825
0.62019
0.628605
0.636166
0.475473
0.507253
0.541318
0.562601
0.580286
0.594457
0.606696
0.617511
0.627232
0.63586
0.452082
0.490931
0.529078
0.553735
0.57348
0.589382
0.603059
0.615122
0.625935
0.6354
0.422884
0.47425
0.516463
0.544508
0.566238
0.583792
0.598764
0.611944
0.623729
0.633955
0.393695
0.460745
0.506334
0.537673
0.561041
0.580011
0.596017
0.610064
0.622532
0.633209
0.363859
0.44842
0.496596
0.531214
0.555935
0.576181
0.593036
0.607776
0.620776
0.631869
0.335187
0.439308
0.488917
0.52668
0.552535
0.574046
0.591628
0.606899
0.620143
0.631464
0.300201
0.428947
0.477879
0.518252
0.545284
0.568012
0.58646
0.6025
0.616277
0.628003
0.456729
0.501737
0.529489
0.54962
0.564635
0.576141
0.585251
0.592604
0.598573
0.603403
0.452826
0.500075
0.531963
0.554456
0.570914
0.583454
0.593548
0.601962
0.609137
0.615326
0.447434
0.497772
0.533153
0.556269
0.573386
0.586678
0.597625
0.606927
0.61497
0.621924
0.436193
0.489318
0.526881
0.551046
0.569482
0.584054
0.596279
0.606827
0.616086
0.624121
0.423858
0.479169
0.519003
0.544999
0.564987
0.580956
0.594435
0.606127
0.616449
0.625364
0.406681
0.466319
0.509157
0.537571
0.559278
0.576707
0.591394
0.604157
0.615454
0.625178
0.387873
0.454778
0.500669
0.531769
0.555028
0.573775
0.58947
0.603083
0.615092
0.625339
0.364764
0.443824
0.492124
0.526059
0.55062
0.57055
0.587062
0.601348
0.613902
0.62461
0.341336
0.435764
0.485143
0.521902
0.547492
0.568546
0.585736
0.600533
0.613349
0.624356
0.313756
0.427158
0.474935
0.51407
0.540669
0.562836
0.580812
0.596318
0.609636
0.621105
0.489949
0.510409
0.526787
0.540686
0.552442
0.562237
0.570304
0.576853
0.582043
0.585985
0.483025
0.508481
0.529506
0.546615
0.560537
0.571881
0.581209
0.588931
0.595318
0.600577
0.477572
0.506343
0.530607
0.549418
0.564548
0.576841
0.587062
0.595688
0.60301
0.609192
0.467662
0.49889
0.5257
0.546121
0.562635
0.57616
0.587579
0.597391
0.605903
0.613192
0.457101
0.489861
0.519276
0.541538
0.559564
0.574413
0.587037
0.597964
0.607545
0.615768
0.442229
0.478316
0.51066
0.535166
0.554865
0.571121
0.584942
0.59694
0.60752
0.61661
0.425946
0.467582
0.502923
0.529918
0.551196
0.568766
0.583621
0.596493
0.607832
0.617527
0.406873
0.457312
0.495057
0.524666
0.547286
0.566019
0.581703
0.59526
0.607173
0.617374
0.387401
0.449942
0.488742
0.521016
0.544668
0.564439
0.580762
0.594798
0.606975
0.617495
0.365213
0.442658
0.479847
0.514285
0.538743
0.559414
0.576357
0.590958
0.603527
0.614432
0.515355
0.522886
0.531517
0.540378
0.548604
0.555827
0.561956
0.566997
0.570958
0.573848
0.508026
0.520849
0.533904
0.545882
0.556399
0.565415
0.573046
0.579427
0.584652
0.588829
0.503341
0.518623
0.534398
0.548358
0.560399
0.570663
0.57941
0.586851
0.593125
0.598333
0.494592
0.511871
0.530007
0.545783
0.559374
0.571004
0.581027
0.589694
0.597172
0.603508
0.484882
0.50379
0.524257
0.541921
0.557109
0.570127
0.581399
0.591213
0.599787
0.607098
0.472054
0.493318
0.516326
0.536167
0.553069
0.567534
0.580045
0.590964
0.60057
0.608798
0.458338
0.483319
0.508988
0.531223
0.549782
0.565615
0.57922
0.591061
0.60148
0.61038
0.442357
0.473519
0.501464
0.526201
0.546196
0.563229
0.57771
0.590271
0.601305
0.610756
0.425964
0.466283
0.495373
0.52271
0.543818
0.561879
0.577013
0.590065
0.601398
0.611186
0.407835
0.459071
0.487116
0.516496
0.538371
0.557249
0.572938
0.586489
0.598182
0.608344
0.534924
0.53604
0.539726
0.544584
0.549575
0.554227
0.558333
0.561791
0.564522
0.566478
0.528366
0.534299
0.541531
0.548983
0.556083
0.562538
0.568214
0.573061
0.577041
0.580182
0.524783
0.532058
0.541262
0.550567
0.559303
0.56719
0.57415
0.580173
0.585267
0.589462
0.517591
0.526002
0.537062
0.548155
0.558519
0.567874
0.576185
0.583479
0.589784
0.595097
0.509357
0.518802
0.531728
0.544641
0.556633
0.567435
0.577046
0.585527
0.592948
0.599256
0.498435
0.509376
0.524342
0.539282
0.552983
0.565263
0.576158
0.585783
0.594268
0.601525
0.486845
0.500226
0.517375
0.534532
0.549915
0.563606
0.575654
0.586254
0.5956
0.603582
0.473584
0.491073
0.510188
0.529658
0.546527
0.561451
0.574427
0.585792
0.595798
0.604371