/*--------------------------------*- C++ -*----------------------------------*\
| =========                 |                                                 |
| \\      /  F ield         | foam-extend: Open Source CFD                    |
|  \\    /   O peration     | Version:     4.0                                |
|   \\  /    A nd           | Web:         http://www.foam-extend.org         |
|    \\/     M anipulation  |                                                 |
\*---------------------------------------------------------------------------*/
FoamFile
{
    version     2.0;
    format      ascii;
    class       volScalarField;
    location    "1200";
    object      p;
}
// * * * * * * * * * * * * * * * * * * * * * * * * * * * * * * * * * * * * * //

dimensions      [1 -1 -2 0 0 0 0];

internalField   nonuniform List<scalar> 
34480
(
108005
107717
107498
107375
107382
107571
108044
108807
109503
112596
107277
106851
106477
106175
105980
105948
106191
106792
107185
109522
106884
106337
105827
105359
104956
104675
104640
104979
104987
106356
106674
105984
105327
104690
104082
103559
103247
103301
102901
103281
106558
105746
104971
104197
103424
102694
102137
101907
101105
100572
106570
105670
104809
103935
103039
102147
101389
100899
99718.4
98408.4
106474
105512
104599
103667
102700
101706
100801
100079
98531.2
96505.6
106547
105563
104632
103685
102701
101672
100688
99779.1
97863.7
95080.3
106341
105354
104424
103499
102559
101576
100584
99529
97234.7
93690.5
106459
105456
104505
103573
102666
101768
100873
99849.3
97298.7
92905.5
109854
109697
109643
109723
109978
110461
111266
112513
114401
117436
108768
108487
108295
108221
108317
108657
109369
110628
112691
116491
108119
107718
107397
107169
107080
107212
107724
108856
110901
115181
107716
107176
106709
106321
106043
105960
106241
107184
109122
113696
107466
106802
106213
105688
105250
104973
105031
105754
107525
112233
107376
106618
105932
105301
104735
104297
104156
104654
106217
110908
107210
106381
105630
104927
104274
103718
103416
103693
105010
109549
107234
106368
105580
104839
104140
103514
103095
103168
104196
108455
107027
106141
105330
104572
103866
103229
102755
102664
103365
107361
107098
106203
105369
104591
103879
103261
102809
102688
103130
106984
111220
111149
111185
111353
111675
112178
112898
113866
115127
116701
110010
109839
109773
109842
110085
110553
111319
112466
114098
116351
109205
108927
108751
108698
108817
109172
109874
111070
112945
115818
108661
108257
107951
107761
107732
107944
108529
109697
111723
115147
108300
107778
107357
107042
106876
106943
107392
108480
110582
114457
108117
107501
106983
106566
106283
106219
106531
107511
109634
113859
107885
107193
106605
106111
105739
105569
105759
106613
108698
113157
107862
107124
106487
105943
105511
105262
105347
106063
108043
112610
107661
106893
106219
105637
105167
104872
104887
105482
107287
111953
107706
106927
106229
105621
105124
104807
104794
105341
106959
111754
112081
112049
112103
112254
112512
112883
113372
113976
114677
115416
110945
110840
110833
110943
111194
111609
112217
113039
114079
115250
110111
109918
109826
109855
110041
110428
111076
112050
113400
115054
109506
109203
109004
108929
109019
109337
109969
111033
112651
114807
109083
108673
108373
108193
108180
108409
108991
110092
111927
114560
108841
108339
107949
107677
107569
107707
108222
109324
111327
114392
108565
107987
107525
107180
106992
107047
107490
108562
110680
114115
108505
107877
107362
106962
106714
106699
107069
108082
110246
113974
108293
107632
107079
106639
106346
106282
106593
107538
109667
113675
108311
107638
107061
106597
106277
106185
106457
107354
109390
113669
112571
112557
112603
112712
112888
113127
113426
113771
114142
114507
111608
111545
111561
111669
111876
112190
112614
113141
113750
114366
110831
110700
110657
110720
110909
111246
111755
112449
113318
114260
110222
110001
109878
109871
110011
110337
110894
111727
112861
114176
109777
109461
109253
109168
109243
109532
110103
111040
112421
114124
109501
109100
108813
108652
108659
108899
109464
110474
112079
114171
109196
108722
108369
108142
108086
108274
108817
109871
111666
114126
109112
108587
108180
107902
107792
107930
108438
109502
111434
114226
108892
108333
107890
107573
107423
107519
107993
109044
111039
114155
108893
108320
107853
107513
107337
107408
107851
108879
110859
114274
112805
112798
112829
112898
113005
113147
113316
113504
113698
113880
112045
112008
112027
112111
112261
112476
112751
113074
113422
113750
111377
111288
111272
111338
111498
111759
112125
112588
113125
113662
110809
110650
110576
110603
110748
111033
111474
112079
112832
113631
110374
110135
109996
109969
110082
110367
110861
111591
112565
113655
110089
109775
109569
109485
109556
109828
110356
111193
112388
113789
109773
109392
109128
108990
109018
109267
109811
110732
112132
113848
109676
109244
108931
108748
108736
108956
109500
110477
112048
114066
109452
108987
108640
108423
108377
108570
109105
110113
111798
114112
109442
108962
108593
108355
108286
108460
108977
109989
111712
114287
112882
112878
112896
112936
112997
113076
113169
113269
113369
113462
112311
112289
112304
112362
112461
112599
112770
112962
113160
113341
111771
111712
111708
111764
111886
112074
112324
112623
112951
113264
111271
111159
111116
111154
111282
111509
111838
112259
112749
113240
110873
110696
110604
110609
110728
110978
111373
111915
112583
113283
110598
110358
110214
110179
110278
110539
110989
111644
112501
113437
110287
109986
109793
109718
109792
110054
110544
111298
112342
113527
110188
109841
109605
109494
109541
109794
110308
111141
112352
113787
109964
109584
109319
109179
109202
109442
109967
110856
112197
113876
109949
109554
109269
109111
109117
109344
109866
110777
112181
114066
112872
112869
112878
112900
112933
112976
113025
113077
113130
113177
112457
112443
112453
112490
112551
112635
112737
112849
112962
113063
112045
112005
112005
112047
112133
112262
112426
112616
112817
113003
111624
111545
111520
111557
111659
111829
112063
112349
112666
112972
111277
111148
111088
111107
111214
111417
111718
112107
112559
113012
111029
110848
110748
110743
110846
111073
111435
111928
112531
113156
110733
110500
110362
110328
110421
110664
111077
111668
112426
113240
110642
110369
110196
110135
110213
110462
110913
111588
112492
113500
110421
110117
109919
109836
109900
110148
110622
111361
112388
113586
110408
110090
109874
109777
109828
110071
110552
111323
112417
113768
112821
112819
112823
112834
112852
112874
112900
112927
112954
112978
112524
112515
112521
112543
112579
112629
112688
112752
112816
112872
112226
112199
112200
112229
112287
112370
112475
112594
112717
112828
111883
111829
111814
111844
111919
112040
112201
112392
112596
112789
111595
111502
111464
111486
111574
111729
111949
112221
112525
112821
111382
111248
111181
111190
111283
111468
111746
112106
112525
112944
111110
110933
110837
110828
110921
111129
111460
111907
112448
113007
111036
110825
110701
110674
110762
110986
111359
111885
112545
113248
110821
110583
110438
110395
110477
110707
111110
111697
112461
113305
110815
110564
110404
110350
110425
110656
111072
111694
112518
113472
112756
112754
112756
112762
112771
112782
112795
112809
112824
112836
112543
112537
112540
112553
112573
112602
112635
112672
112708
112739
112340
112322
112323
112342
112378
112431
112496
112569
112644
112711
112066
112030
112021
112043
112096
112178
112286
112410
112541
112662
111838
111773
111749
111769
111836
111949
112104
112290
112492
112685
111663
111567
111523
111536
111613
111756
111961
112218
112505
112786
111420
111289
111223
111227
111310
111478
111732
112061
112441
112823
111369
111211
111123
111116
111201
111389
111684
112080
112553
113039
111162
110980
110877
110859
110943
111142
111468
111918
112472
113059
111167
110974
110858
110833
110914
111119
111460
111942
112546
113211
112692
112691
112691
112694
112698
112704
112711
112718
112726
112732
112535
112531
112533
112540
112551
112567
112586
112606
112627
112644
112409
112397
112397
112408
112431
112463
112503
112547
112592
112632
112191
112167
112161
112176
112212
112267
112336
112416
112499
112575
112019
111974
111959
111975
112023
112102
112208
112333
112466
112591
111882
111815
111785
111799
111859
111965
112111
112289
112484
112670
111668
111574
111529
111539
111607
111737
111924
112160
112423
112682
111645
111529
111468
111472
111546
111696
111920
112209
112542
112874
111446
111309
111238
111235
111311
111475
111727
112061
112455
112858
111466
111320
111239
111232
111308
111478
111746
112108
112540
112997
112636
112635
112635
112636
112639
112641
112645
112649
112653
112656
112514
112512
112513
112516
112523
112531
112542
112553
112565
112575
112448
112440
112440
112447
112460
112480
112503
112530
112556
112580
112273
112257
112253
112263
112286
112321
112366
112416
112468
112516
112150
112120
112110
112122
112155
112209
112280
112362
112448
112529
112048
112001
111982
111995
112039
112114
112215
112336
112466
112589
111862
111795
111766
111777
111830
111926
112060
112224
112403
112576
111868
111785
111744
111753
111813
111927
112092
112297
112526
112750
111676
111576
111527
111532
111596
111724
111912
112153
112427
112701
111713
111607
111551
111553
111619
111754
111956
112219
112521
112831
112591
112590
112590
112591
112592
112593
112595
112597
112599
112600
112488
112487
112487
112489
112492
112497
112503
112510
112516
112522
112470
112465
112464
112468
112476
112488
112502
112517
112533
112547
112323
112313
112311
112317
112332
112354
112382
112413
112445
112475
112243
112223
112217
112225
112248
112283
112329
112382
112437
112488
112170
112139
112127
112136
112167
112219
112288
112368
112453
112533
112010
111964
111945
111954
111994
112062
112155
112267
112386
112501
112046
111988
111961
111970
112016
112100
112217
112359
112514
112662
111857
111786
111753
111760
111812
111907
112043
112212
112399
112582
111915
111839
111801
111808
111861
111963
112110
112296
112502
112710
112558
112557
112557
112557
112558
112558
112559
112560
112561
112561
112460
112460
112460
112461
112463
112466
112469
112473
112477
112480
112483
112479
112479
112481
112486
112492
112501
112510
112519
112527
112353
112347
112345
112349
112358
112371
112388
112407
112427
112445
112308
112295
112291
112297
112311
112334
112364
112397
112432
112464
112258
112237
112230
112236
112258
112292
112338
112390
112445
112495
112120
112089
112077
112084
112112
112159
112222
112296
112374
112449
112185
112145
112128
112136
112170
112229
112309
112405
112508
112604
111995
111945
111924
111931
111970
112038
112133
112249
112374
112494
112077
112024
111999
112006
112047
112121
112225
112352
112490
112627
112536
112536
112536
112536
112536
112536
112537
112537
112538
112537
112433
112433
112433
112434
112435
112437
112439
112441
112443
112445
112492
112490
112490
112491
112494
112497
112502
112507
112513
112517
112368
112364
112363
112365
112371
112379
112389
112401
112412
112424
112352
112344
112341
112345
112354
112369
112387
112408
112429
112449
112319
112305
112301
112305
112319
112342
112371
112404
112439
112471
112200
112180
112172
112177
112196
112227
112269
112317
112367
112415
112292
112266
112255
112262
112285
112326
112380
112442
112509
112570
112095
112061
112047
112054
112081
112129
112193
112270
112352
112430
112206
112170
112155
112161
112191
112243
112313
112398
112488
112576
112530
112529
112529
112529
112529
112529
112529
112529
112530
112529
112405
112406
112406
112406
112407
112408
112409
112410
112412
112413
112501
112500
112500
112500
112502
112504
112507
112510
112513
112516
112375
112372
112371
112372
112375
112380
112386
112393
112400
112406
112380
112375
112374
112376
112382
112391
112402
112415
112428
112440
112358
112349
112346
112349
112358
112373
112391
112412
112433
112453
112257
112244
112239
112243
112255
112275
112301
112332
112363
112394
112373
112357
112350
112355
112371
112398
112433
112473
112516
112553
112162
112140
112131
112136
112155
112186
112229
112279
112331
112382
112314
112291
112281
112286
112307
112341
112388
112443
112500
112556
112549
112548
112548
112548
112548
112547
112547
112546
112547
112545
112375
112375
112375
112375
112376
112376
112377
112378
112379
112379
112510
112509
112509
112510
112511
112512
112514
112516
112518
112519
112375
112373
112373
112373
112375
112377
112381
112384
112388
112392
112395
112392
112391
112393
112396
112402
112409
112416
112424
112432
112378
112373
112371
112373
112379
112388
112399
112412
112425
112437
112295
112287
112284
112286
112294
112307
112323
112342
112360
112379
112429
112418
112415
112418
112429
112446
112469
112494
112521
112543
112198
112184
112179
112182
112194
112215
112242
112274
112306
112339
112416
112401
112396
112400
112413
112436
112466
112501
112537
112571
112617
112616
112616
112616
112616
112615
112615
112614
112614
112611
112332
112332
112332
112332
112332
112332
112333
112333
112333
112333
112512
112512
112512
112513
112513
112515
112516
112518
112520
112521
112373
112372
112371
112371
112372
112373
112375
112377
112379
112381
112399
112397
112397
112398
112400
112403
112408
112413
112418
112422
112384
112380
112379
112380
112384
112389
112396
112405
112413
112421
112317
112312
112310
112312
112317
112325
112335
112346
112357
112368
112450
112443
112441
112443
112450
112462
112476
112493
112511
112525
112198
112189
112185
112188
112196
112209
112226
112246
112265
112288
112540
112530
112527
112530
112539
112554
112573
112596
112618
112639
112757
112757
112757
112758
112759
112760
112761
112762
112765
112762
112262
112262
112262
112261
112260
112260
112259
112258
112257
112255
112495
112495
112496
112496
112497
112499
112500
112502
112505
112507
112373
112372
112371
112371
112372
112372
112373
112374
112374
112375
112396
112395
112394
112395
112396
112399
112402
112405
112408
112412
112379
112377
112376
112377
112380
112383
112388
112393
112399
112404
112328
112324
112323
112324
112328
112333
112339
112347
112354
112360
112422
112417
112416
112417
112422
112430
112441
112453
112467
112478
112148
112143
112141
112142
112148
112157
112168
112180
112192
112207
112711
112703
112701
112702
112709
112719
112733
112749
112764
112781
112921
112922
112923
112925
112928
112932
112936
112943
112950
112957
112174
112173
112173
112172
112171
112169
112166
112163
112158
112150
112462
112462
112463
112463
112464
112465
112467
112469
112472
112476
112378
112377
112377
112377
112377
112378
112378
112379
112379
112379
112393
112392
112391
112392
112393
112395
112397
112400
112403
112406
112376
112374
112373
112374
112376
112379
112383
112387
112392
112396
112335
112332
112331
112332
112335
112339
112344
112351
112356
112361
112366
112361
112360
112361
112365
112372
112381
112391
112403
112416
112070
112066
112064
112065
112070
112077
112086
112096
112103
112108
112886
112878
112875
112876
112882
112890
112902
112916
112931
112949
128835
132369
132403
130358
129764
133729
133702
131820
130461
134652
135043
133381
130752
135119
136248
134837
131067
135588
137380
136160
131835
136596
139105
138456
132604
137519
140535
140500
133379
138357
141717
142198
133056
137979
141560
142508
131670
136408
140152
141647
120958
122545
122922
122043
121497
123341
123880
123107
121916
123982
124680
124132
122319
124582
125494
125231
122841
125256
126410
126386
123472
125952
127230
127308
123995
126494
127846
128024
124618
127093
128478
128840
124676
127091
128532
129115
124416
126788
128384
129222
118099
118793
118976
118695
118431
119284
119564
119353
118751
119769
120172
120048
119093
120283
120844
120832
119550
120897
121611
121705
120204
121686
122524
122727
120814
122407
123350
123661
121537
123203
124217
124642
121861
123539
124600
125142
122091
123723
124797
125433
115978
116299
116414
116327
116112
116525
116711
116678
116321
116838
117108
117140
116584
117213
117583
117701
116948
117686
118149
118354
117477
118313
118860
119154
117965
118888
119512
119899
118607
119602
120295
120785
118935
119966
120713
121301
119193
120232
121018
121681
114767
114923
114989
114967
114775
114987
115101
115120
114885
115166
115337
115402
115077
115434
115672
115799
115368
115800
116103
116294
115821
116329
116697
116955
116244
116823
117251
117579
116840
117483
117967
118370
117182
117861
118389
118859
117497
118186
118741
119260
114007
114086
114125
114122
113957
114070
114140
114167
113993
114152
114261
114322
114121
114332
114488
114594
114348
114611
114815
114969
114723
115041
115292
115497
115067
115437
115734
115991
115593
116010
116351
116662
115904
116353
116727
117083
116216
116679
117073
117460
113527
113568
113590
113593
113452
113515
113558
113579
113452
113545
113614
113659
113525
113654
113755
113832
113696
113862
113998
114109
114002
114206
114377
114525
114273
114515
114720
114906
114728
115005
115242
115465
114989
115290
115550
115802
115274
115585
115860
116131
113212
113233
113246
113249
113124
113160
113186
113201
113113
113170
113213
113244
113145
113225
113291
113343
113268
113375
113465
113542
113511
113644
113759
113863
113713
113872
114013
114143
114098
114282
114445
114601
114298
114500
114680
114854
114546
114756
114946
115132
112997
113009
113016
113018
112906
112927
112942
112952
112895
112930
112957
112977
112896
112947
112990
113025
112984
113053
113113
113165
113173
113261
113339
113409
113314
113421
113516
113606
113637
113761
113873
113979
113771
113908
114031
114149
113983
114125
114255
114381
112846
112852
112857
112858
112758
112769
112779
112785
112752
112773
112790
112803
112730
112762
112790
112813
112791
112836
112876
112910
112936
112995
113047
113095
113026
113098
113163
113223
113297
113380
113457
113529
113369
113461
113546
113626
113551
113647
113735
113820
112738
112741
112744
112745
112654
112661
112666
112671
112657
112670
112681
112689
112618
112638
112656
112671
112660
112689
112715
112738
112769
112808
112843
112875
112817
112865
112909
112950
113046
113102
113154
113203
113066
113128
113185
113240
113223
113288
113348
113406
112659
112661
112662
112663
112579
112583
112586
112589
112596
112604
112610
112615
112542
112555
112566
112576
112573
112592
112609
112624
112653
112679
112702
112723
112666
112698
112727
112755
112865
112902
112937
112970
112840
112882
112921
112957
112982
113025
113066
113104
112602
112603
112604
112605
112523
112525
112527
112529
112557
112562
112566
112569
112491
112498
112506
112512
112517
112529
112540
112550
112575
112591
112606
112620
112560
112581
112600
112618
112738
112763
112786
112808
112676
112703
112729
112754
112809
112838
112865
112891
112563
112564
112564
112564
112479
112480
112481
112483
112534
112537
112539
112541
112455
112460
112464
112468
112482
112490
112496
112503
112522
112533
112543
112552
112487
112501
112514
112525
112654
112670
112685
112700
112557
112575
112592
112608
112691
112710
112728
112745
112538
112539
112539
112539
112443
112443
112443
112445
112522
112524
112525
112526
112429
112432
112434
112437
112461
112465
112470
112473
112488
112495
112501
112507
112439
112448
112456
112464
112602
112612
112622
112632
112472
112484
112495
112505
112617
112630
112641
112652
112530
112529
112530
112530
112410
112409
112410
112411
112519
112521
112521
112522
112409
112411
112412
112414
112447
112450
112453
112455
112464
112468
112472
112476
112408
112413
112418
112423
112573
112580
112586
112592
112409
112417
112424
112430
112581
112589
112596
112603
112546
112545
112545
112546
112375
112374
112374
112376
112522
112523
112524
112524
112393
112394
112395
112396
112436
112438
112440
112441
112444
112447
112449
112451
112387
112390
112393
112396
112557
112561
112565
112568
112358
112362
112367
112371
112586
112590
112595
112599
112612
112611
112611
112613
112328
112326
112327
112328
112524
112525
112525
112525
112381
112381
112381
112382
112425
112427
112427
112428
112425
112427
112429
112430
112372
112373
112375
112377
112536
112539
112541
112543
112300
112303
112306
112308
112647
112650
112653
112656
112768
112765
112765
112768
112248
112247
112247
112249
112511
112512
112512
112512
112374
112374
112374
112375
112414
112415
112415
112416
112408
112409
112410
112411
112361
112362
112363
112365
112491
112494
112496
112496
112212
112214
112215
112217
112786
112788
112790
112792
112979
112977
112977
112979
112138
112133
112133
112138
112480
112482
112482
112481
112377
112377
112377
112378
112408
112408
112409
112409
112399
112400
112401
112402
112361
112361
112362
112364
112434
112437
112439
112438
112094
112092
112094
112099
112957
112959
112961
112962
120150
116647
114474
112768
111544
110628
109897
109296
108794
108366
121396
117465
114779
112913
111549
110510
109667
108955
108339
107778
122481
118204
115065
113155
111696
110561
109617
108809
108102
107468
123749
119118
115726
113726
112131
110878
109818
108897
108076
107358
125100
120060
116484
114298
112565
111191
110023
109004
108086
107314
126668
121134
117360
114959
113094
111599
110335
109230
108230
107396
128172
121941
118031
115391
113415
111805
110456
109279
108212
107346
129802
122730
118802
115912
113856
112146
110731
109491
108380
107460
130854
122979
119128
116040
113944
112149
110679
109388
108252
107290
131951
123445
119710
116446
114279
112392
110853
109499
108327
107323
119596
117226
115522
114189
113117
112245
111530
110949
110483
110118
120283
117582
115546
113954
112699
111699
110884
110207
109647
109164
120984
118016
115637
113916
112554
111466
110567
109811
109168
108605
121785
118658
116064
114228
112755
111568
110569
109710
108959
108304
122570
119434
116619
114639
113047
111754
110655
109702
108852
108132
123657
120372
117350
115195
113480
112074
110881
109842
108909
108118
124794
121134
117942
115581
113750
112236
110956
109843
108838
108005
126232
121911
118657
116076
114158
112547
111200
110023
108969
108079
127306
122186
118982
116225
114259
112567
111161
109932
108847
107914
128513
122534
119473
116562
114534
112766
111308
110031
108922
107960
117859
116689
115600
114637
113808
113106
112522
112046
111673
111396
118397
116916
115511
114298
113282
112441
111744
111165
110694
110304
118979
117245
115556
114167
113020
112074
111284
110620
110065
109589
119667
117772
115877
114356
113093
112041
111147
110380
109718
109147
120422
118429
116343
114680
113294
112132
111136
110272
109511
108867
121438
119273
117003
115171
113654
112379
111285
110332
109485
108764
122468
120005
117562
115529
113886
112497
111313
110283
109360
108588
123790
120803
118260
116012
114269
112782
111524
110428
109451
108620
124795
121161
118622
116203
114398
112825
111504
110351
109336
108462
125857
121537
119086
116517
114650
113008
111641
110446
109408
108507
116033
115516
114952
114394
113872
113403
112996
112657
112390
112196
116372
115686
114902
114139
113439
112820
112283
111828
111459
111158
116832
115989
114993
114048
113197
112452
111809
111260
110801
110413
117434
116474
115309
114214
113231
112367
111612
110956
110391
109905
118138
117078
115753
114510
113394
112413
111551
110793
110128
109564
119075
117861
116380
114969
113718
112619
111654
110803
110048
109403
120019
118559
116920
115317
113933
112716
111655
110722
109888
109185
121211
119358
117602
115797
114301
112981
111841
110838
109946
109183
122123
119783
117985
116005
114427
113015
111807
110748
109815
109011
123059
120196
118413
116287
114646
113172
111923
110828
109873
109044
114853
114618
114332
114024
113717
113428
113168
112947
112771
112644
115029
114714
114294
113838
113386
112961
112579
112248
111977
111758
115343
114944
114384
113780
113189
112643
112152
111724
111363
111059
115819
115355
114674
113934
113213
112544
111939
111403
110939
110541
116413
115887
115087
114209
113359
112570
111855
111215
110651
110173
117211
116592
115669
114640
113658
112750
111929
111193
110539
109977
118008
117229
116176
114977
113860
112834
111913
111091
110355
109733
119034
117992
116831
115451
114218
113086
112081
111187
110390
109705
119817
118438
117214
115668
114339
113112
112037
111087
110247
109524
120602
118853
117607
115928
114538
113254
112140
111156
110294
109547
114076
113969
113827
113664
113493
113326
113171
113037
112929
112850
114148
114005
113784
113522
113244
112969
112714
112487
112300
112147
114338
114158
113854
113485
113097
112716
112361
112043
111772
111544
114684
114478
114095
113618
113115
112622
112158
111738
111372
111056
115151
114923
114457
113867
113247
112640
112069
111548
111086
110693
115802
115532
114978
114263
113522
112801
112126
111509
110958
110483
116442
116087
115434
114576
113710
112874
112099
111396
110763
110226
117294
116786
116044
115035
114055
113115
112256
111478
110784
110185
117926
117208
116400
115243
114165
113133
112204
111372
110633
109997
118553
117598
116756
115488
114351
113265
112299
111435
110673
110013
113574
113524
113454
113370
113278
113185
113097
113019
112956
112909
113581
113514
113398
113250
113084
112914
112751
112604
112481
112380
113688
113610
113446
113226
112979
112723
112476
112251
112056
111891
113919
113837
113626
113328
112989
112637
112295
111978
111699
111457
114268
114189
113925
113541
113104
112652
112211
111801
111434
111122
114780
114693
114371
113891
113350
112795
112258
111757
111307
110917
115271
115152
114760
114168
113518
112857
112225
111640
111111
110661
115963
115769
115310
114598
113844
113087
112373
111716
111125
110615
116445
116136
115617
114782
113935
113094
112314
111604
110969
110424
116933
116488
115936
115012
114112
113221
112405
111664
111006
110436
113241
113218
113183
113141
113092
113043
112994
112951
112915
112888
113208
113177
113116
113033
112937
112836
112736
112645
112568
112502
113269
113236
113148
113018
112863
112697
112532
112377
112242
112128
113411
113385
113269
113085
112861
112618
112375
112144
111939
111760
113662
113650
113503
113258
112956
112629
112301
111989
111707
111466
114054
114053
113871
113556
113171
112756
112341
111947
111590
111279
114415
114412
114185
113787
113310
112803
112302
111830
111400
111033
114969
114940
114666
114177
113612
113020
112444
111904
111416
110992
115317
115232
114909
114325
113681
113016
112379
111790
111258
110801
115693
115542
115191
114540
113849
113139
112468
111849
111295
110814
113015
113005
112987
112966
112941
112915
112889
112865
112845
112830
112959
112945
112913
112869
112814
112756
112697
112642
112595
112553
112996
112983
112934
112858
112763
112658
112551
112449
112359
112282
113073
113069
113005
112893
112748
112584
112416
112254
112109
111980
113250
113262
113181
113026
112822
112592
112354
112124
111914
111735
113545
113576
113475
113271
113002
112700
112389
112088
111814
111573
113799
113842
113714
113450
113109
112730
112345
111975
111635
111345
114240
114283
114125
113795
113384
112933
112481
112050
111658
111315
114472
114494
114301
113903
113427
112914
112409
111933
111500
111127
114766
114761
114547
114101
113585
113035
112498
111995
111540
111145
112857
112852
112844
112833
112820
112807
112793
112781
112769
112761
112792
112785
112769
112745
112715
112682
112648
112615
112588
112561
112815
112811
112785
112741
112683
112618
112551
112486
112427
112377
112846
112849
112814
112746
112654
112547
112434
112324
112224
112134
112969
112987
112942
112845
112709
112551
112384
112219
112068
111938
113189
113225
113170
113039
112855
112641
112414
112192
111987
111806
113358
113411
113340
113167
112928
112652
112364
112083
111822
111599
113710
113775
113686
113468
113175
112841
112497
112163
111856
111587
113846
113909
113798
113533
113190
112806
112416
112042
111698
111403
114081
114137
114012
113714
113339
112924
112507
112109
111745
111429
112744
112742
112738
112733
112726
112719
112712
112705
112699
112695
112676
112673
112665
112652
112636
112618
112598
112580
112564
112547
112697
112696
112682
112657
112623
112583
112542
112501
112464
112432
112693
112698
112679
112639
112581
112513
112439
112366
112299
112238
112778
112794
112770
112709
112621
112515
112401
112286
112180
112089
112939
112971
112941
112858
112735
112587
112427
112267
112118
111986
113042
113089
113051
112939
112775
112579
112370
112162
111967
111801
113327
113390
113342
113200
112996
112755
112500
112248
112016
111810
113389
113458
113396
113223
112981
112701
112408
112123
111858
111630
113582
113653
113584
113388
113123
112818
112503
112197
111914
111668
112663
112662
112660
112658
112654
112651
112647
112643
112640
112638
112594
112593
112589
112582
112573
112563
112552
112542
112533
112522
112620
112621
112613
112599
112579
112555
112530
112505
112482
112462
112591
112595
112585
112561
112526
112483
112436
112389
112345
112304
112650
112663
112650
112612
112556
112486
112410
112333
112260
112198
112766
112792
112776
112724
112643
112542
112432
112320
112215
112122
112817
112855
112835
112763
112653
112517
112369
112219
112078
111958
113054
113106
113082
112991
112852
112682
112499
112315
112143
111990
113057
113117
113085
112973
112807
112607
112394
112182
111983
111812
113223
113288
113252
113126
112943
112725
112493
112265
112052
111866
112604
112605
112603
112602
112601
112599
112597
112595
112593
112592
112533
112533
112531
112528
112523
112518
112512
112506
112501
112494
112571
112572
112568
112560
112548
112534
112519
112504
112490
112478
112522
112525
112520
112506
112485
112458
112429
112399
112371
112344
112566
112576
112569
112546
112511
112466
112416
112365
112317
112275
112649
112667
112659
112627
112575
112508
112434
112358
112286
112221
112660
112688
112678
112632
112560
112468
112365
112261
112162
112077
112864
112904
112892
112835
112742
112626
112497
112366
112244
112133
112819
112866
112850
112779
112667
112528
112376
112224
112079
111955
112970
113022
113005
112925
112802
112649
112484
112319
112163
112026
112564
112565
112564
112563
112562
112562
112560
112560
112558
112558
112487
112487
112486
112484
112482
112479
112476
112473
112470
112465
112541
112542
112540
112536
112529
112521
112512
112503
112494
112487
112475
112477
112475
112466
112454
112438
112420
112402
112384
112367
112513
112520
112516
112502
112480
112452
112420
112387
112356
112329
112570
112583
112579
112559
112526
112483
112434
112384
112336
112292
112553