/*--------------------------------*- C++ -*----------------------------------*\
| =========                 |                                                 |
| \\      /  F ield         | foam-extend: Open Source CFD                    |
|  \\    /   O peration     | Version:     4.0                                |
|   \\  /    A nd           | Web:         http://www.foam-extend.org         |
|    \\/     M anipulation  |                                                 |
\*---------------------------------------------------------------------------*/
FoamFile
{
    version     2.0;
    format      ascii;
    class       surfaceScalarField;
    location    "1200";
    object      phi;
}
// * * * * * * * * * * * * * * * * * * * * * * * * * * * * * * * * * * * * * //

dimensions      [1 0 -1 0 0 0 0];

internalField   nonuniform List<scalar> 
97302
(
-0.000109062
5.29843e-06
-0.000613555
0.000630331
-0.000133752
5.76607e-06
-0.000617163
0.000636087
-0.00016231
6.19143e-06
-0.000619996
0.000642362
-0.000196571
6.60811e-06
-0.00062205
0.000649703
-0.000239059
7.03477e-06
-0.000623182
0.000658636
-0.000292846
7.45489e-06
-0.000622656
0.000668988
-0.000360677
7.77577e-06
-0.000618419
0.000678474
-0.000441827
7.77266e-06
-0.000605818
0.000679196
-0.000532288
7.04678e-06
-0.000574187
0.000657601
4.57892e-06
-0.000490239
-0.000668508
0.00062188
-0.000137751
7.85785e-06
-0.000857994
0.000873441
-0.000157949
8.75447e-06
-0.000863801
0.00088101
-0.000181177
9.42714e-06
-0.000868593
0.000888586
-0.000209215
9.94011e-06
-0.0008722
0.000896905
-0.000245083
1.03371e-05
-0.000874911
0.000907478
-0.000293183
1.06188e-05
-0.000876576
0.000921511
-0.000359016
1.06964e-05
-0.000875363
0.000938276
-0.000445708
1.03001e-05
-0.000865995
0.000950159
-0.000548865
8.82603e-06
-0.00083514
0.000936517
4.57709e-06
-0.000725108
-0.000721124
0.000897369
-0.000168191
8.36488e-06
-0.00110124
0.00111581
-0.000185149
9.62382e-06
-0.00110926
0.00112535
-0.000204765
1.05515e-05
-0.00111628
0.00113477
-0.000228658
1.12214e-05
-0.00112215
0.00114476
-0.000259952
1.16773e-05
-0.00112714
0.0011571
-0.000303849
1.19352e-05
-0.00113176
0.00117434
-0.000367636
1.19178e-05
-0.0011349
0.00119747
-0.000457489
1.13211e-05
-0.00113098
0.00121982
-0.000569004
9.34204e-06
-0.00110452
0.00121551
3.55727e-06
-0.000973353
-0.000767007
0.00117238
-0.000199659
8.44652e-06
-0.00134101
0.00135488
-0.000215432
9.92776e-06
-0.00135256
0.00136803
-0.000233738
1.10146e-05
-0.00136313
0.00138098
-0.000255985
1.17755e-05
-0.00137256
0.00139425
-0.000285102
1.2232e-05
-0.00138079
0.00140936
-0.000326532
1.23923e-05
-0.00138857
0.00142954
-0.000388759
1.21839e-05
-0.00139555
0.00145751
-0.000480413
1.12851e-05
-0.00139686
0.00148855
-0.000597174
8.66217e-06
-0.00137581
0.00149325
1.06482e-06
-0.00122569
-0.00081108
0.00144209
-0.000233324
8.36491e-06
-0.00158084
0.00159424
-0.000248446
9.90139e-06
-0.00159636
0.00161151
-0.000266042
1.10028e-05
-0.00161095
0.00162855
-0.00028735
1.17369e-05
-0.00162436
0.00164571
-0.000315104
1.21112e-05
-0.00163633
0.0016642
-0.000354783
1.21142e-05
-0.00164751
0.00168747
-0.00041572
1.16712e-05
-0.0016582
0.00171965
-0.000508562
1.04522e-05
-0.00166465
0.00175833
-0.000629127
7.1487e-06
-0.00164946
0.00177154
-2.42155e-06
-0.00148046
-0.000852675
0.00170749
-0.000269522
8.16409e-06
-0.0018191
0.00183213
-0.00028414
9.59575e-06
-0.00183876
0.00185369
-0.00030118
1.05759e-05
-0.00185737
0.00187483
-0.000321771
1.11755e-05
-0.00187476
0.00189591
-0.000348487
1.13929e-05
-0.00189053
0.00191796
-0.000386772
1.1206e-05
-0.00190514
0.00194433
-0.000446591
1.05534e-05
-0.00191935
0.00198028
-0.000540448
9.14516e-06
-0.00193051
0.00202567
-0.000664946
5.44403e-06
-0.00192062
0.00204682
-5.7191e-06
-0.00172965
-0.000898867
0.00196687
-0.000307604
7.95347e-06
-0.00205653
0.00206918
-0.000321769
9.08421e-06
-0.00207997
0.00209465
-0.00033827
9.80283e-06
-0.0021022
0.00211947
-0.000358139
1.01532e-05
-0.00212312
0.00214401
-0.00038378
1.01247e-05
-0.00214234
0.00216925
-0.000420501
9.69969e-06
-0.00216016
0.00219838
-0.000478696
8.88517e-06
-0.00217778
0.00223765
-0.000572563
7.52243e-06
-0.0021939
0.00228939
-0.000699827
3.97611e-06
-0.00219021
0.00231894
-7.91723e-06
-0.00197741
-0.000942604
0.00222239
-0.000348703
7.19775e-06
-0.00229417
0.00230675
-0.000362231
7.86189e-06
-0.00232098
0.00233573
-0.00037805
8.26158e-06
-0.00234619
0.00236355
-0.000397107
8.3664e-06
-0.00237004
0.00239088
-0.000421578
8.13476e-06
-0.0023921
0.00241856
-0.000456466
7.53999e-06
-0.00241255
0.0024496
-0.000512274
6.69408e-06
-0.00243304
0.00249104
-0.000604705
5.66704e-06
-0.00245398
0.00254827
-0.000733055
3.06848e-06
-0.00245801
0.00258727
-8.17375e-06
-0.00222599
-0.000982632
0.00247582
-0.000390575
5.0429e-06
-0.0025288
0.0025415
-0.000403032
5.03069e-06
-0.00255812
0.0025734
-0.000417949
4.96751e-06
-0.00258569
0.0026039
-0.000436384
4.74666e-06
-0.00261241
0.00263447
-0.000460282
4.33291e-06
-0.00263809
0.00266579
-0.000493959
3.68141e-06
-0.00266245
0.00269999
-0.000547293
2.98518e-06
-0.00268655
0.0027436
-0.000637003
2.54415e-06
-0.00271225
0.00280509
-0.000764268
1.60879e-06
-0.00272479
0.00285351
-7.29274e-06
-0.00247818
-0.00101436
0.00272739
-0.000433026
-0.00274846
0.00276204
-0.000443896
-0.00278043
0.00279633
-0.000457327
-0.00281057
0.00282897
-0.000474498
-0.00283976
0.00286168
-0.000497311
-0.00286767
0.00289481
-0.000529643
-0.00289426
0.00293028
-0.000580206
-0.00292096
0.00297451
-0.000665416
-0.00295197
0.00303973
-0.000788131
-0.00297859
0.00310292
-0.00273623
-0.00103702
0.00297783
1.24974e-05
5.35255e-06
-0.00059844
-9.8969e-06
5.81868e-06
-0.000600587
-3.46442e-05
6.20921e-06
-0.000601458
-6.23675e-05
6.53095e-06
-0.000600858
-9.39817e-05
6.77909e-06
-0.000598347
-0.000130372
6.92096e-06
-0.000593186
-0.000171427
6.88358e-06
-0.000584248
-0.000213872
6.52154e-06
-0.000569894
-0.00024733
5.57537e-06
-0.000546305
3.52492e-06
-0.000504206
-0.000236888
2.27777e-05
7.9171e-06
-0.000842679
2.87826e-06
8.87266e-06
-0.000846956
-1.93364e-05
9.58513e-06
-0.000849754
-4.44415e-05
1.00841e-05
-0.000850648
-7.37467e-05
1.03749e-05
-0.000849202
-0.000109361
1.04315e-05
-0.000844472
-0.000153414
1.01839e-05
-0.000834611
-0.000205807
9.44994e-06
-0.000816529
-0.000259093
7.87345e-06
-0.000784153
4.61447e-06
-0.000719554
-0.000265736
3.2424e-05
8.41504e-06
-0.00108591
1.46835e-05
9.81505e-06
-0.00109247
-5.42801e-06
1.08662e-05
-0.00109745
-2.86406e-05
1.1613e-05
-0.00110046
-5.63706e-05
1.20514e-05
-0.00110109
-9.14176e-05
1.21558e-05
-0.00109844
-0.000137769
1.18563e-05
-0.00109022
-0.000198472
1.09324e-05
-0.00107176
-0.000269922
8.88729e-06
-0.00103408
4.46436e-06
-0.00094617
-0.000296955
4.17603e-05
8.35075e-06
-0.0013258
2.46212e-05
1.00816e-05
-0.00133569
4.95925e-06
1.14016e-05
-0.00134401
-1.80018e-05
1.23534e-05
-0.00135034
-4.56767e-05
1.29141e-05
-0.00135398
-8.10556e-05
1.30352e-05
-0.00135407
-0.000129352
1.26333e-05
-0.00134803
-0.000196747
1.14695e-05
-0.00133
-0.000284304
8.89976e-06
-0.00128826
3.17983e-06
-0.00117645
-0.000332262
4.921e-05
8.06244e-06
-0.00156569
3.22573e-05
9.97941e-06
-0.00157931
1.26839e-05
1.14442e-05
-0.00159142
-1.0329e-05
1.24998e-05
-0.00160149
-3.82044e-05
1.31171e-05
-0.00160866
-7.39805e-05
1.32182e-05
-0.00161192
-0.000123728
1.2697e-05
-0.00160852
-0.000196504
1.13062e-05
-0.00159171
-0.00029815
8.23566e-06
-0.00154715
1.17794e-06
-0.00141109
-0.000365521
5.44092e-05
7.596e-06
-0.00180394
3.75757e-05
9.55194e-06
-0.0018215
1.80706e-05
1.10403e-05
-0.00183746
-4.96627e-06
1.21092e-05
-0.00185133
-3.29684e-05
1.27268e-05
-0.00186213
-6.90042e-05
1.27992e-05
-0.00186868
-0.000119761
1.22062e-05
-0.0018681
-0.000196771
1.07183e-05
-0.00185291
-0.00031032
7.38684e-06
-0.00180622
-7.3709e-07
-0.00164494
-0.000393112
5.73433e-05
7.01886e-06
-0.00204138
4.06771e-05
8.82029e-06
-0.00206257
2.1368e-05
1.02004e-05
-0.00208205
-1.46857e-06
1.11889e-05
-0.00209936
-2.9266e-05
1.17491e-05
-0.00211357
-6.50879e-05
1.17796e-05
-0.00212331
-0.000116089
1.11779e-05
-0.00212575
-0.00019604
9.79549e-06
-0.00211303
-0.000319675
6.6437e-06
-0.00206583
-2.11664e-06
-0.00188006
-0.000415647
5.7723e-05
5.86344e-06
-0.00227883
4.15344e-05
7.31029e-06
-0.00230328
2.27527e-05
8.49616e-06
-0.0023257
4.75457e-07
9.39186e-06
-0.00234596
-2.66885e-05
9.94642e-06
-0.00236314
-6.17275e-05
1.00356e-05
-0.00237577
-0.000112051
9.60207e-06
-0.00238114
-0.000193416
8.62017e-06
-0.00237144
-0.000325527
6.3509e-06
-0.0023256
-2.28606e-06
-0.00211733
-0.000434016
5.60571e-05
3.39606e-06
-0.00251312
4.09135e-05
4.22476e-06
-0.00253989
2.31838e-05
5.01896e-06
-0.00256448
1.78451e-06
5.66123e-06
-0.00258728
-2.47794e-05
6.14657e-06
-0.00260773
-5.93112e-05
6.33905e-06
-0.00262423
-0.000108847
6.23815e-06
-0.00263365
-0.000190479
5.93587e-06
-0.00262794
-0.000329748
5.33358e-06
-0.0025845
-1.44881e-06
-0.00235544
-0.000453321
5.33339e-05
-0.00273322
3.94681e-05
-0.00276234
2.31819e-05
-0.00278926
3.31456e-06
-0.00281423
-2.16873e-05
-0.00283652
-5.47821e-05
-0.00285483
-0.000102463
-0.00286704
-0.000182369
-0.00286613
-0.000326885
-0.00282874
-0.0025867
-0.000477865
6.96423e-06
5.26849e-06
-0.000586361
-1.17647e-05
5.67919e-06
-0.000587537
-3.1811e-05
5.98245e-06
-0.000587394
-5.30644e-05
6.1797e-06
-0.000585784
-7.52371e-05
6.25077e-06
-0.000582425
-9.76216e-05
6.14966e-06
-0.000576952
-0.000118702
5.80562e-06
-0.000568973
-0.000135548
5.12561e-06
-0.000558173
-0.000141777
3.9982e-06
-0.000544074
2.33372e-06
-0.000525485
-0.000122831
1.63323e-05
7.94262e-06
-0.000828955
-1.87373e-06
8.82314e-06
-0.000831894
-2.19092e-05
9.44185e-06
-0.000833178
-4.37448e-05
9.81419e-06
-0.000832447
-6.74403e-05
9.92144e-06
-0.000829177
-9.28954e-05
9.70337e-06
-0.00082257
-0.000119254
9.069e-06
-0.000811516
-0.00014394
7.88591e-06
-0.000794604
-0.000160196
5.9895e-06
-0.000769888
3.23113e-06
-0.000735285
-0.000145362
2.59436e-05
8.65507e-06
-0.00107129
8.69578e-06
9.98546e-06
-0.00107638
-1.06779e-05
1.09512e-05
-0.00107959
-3.24673e-05
1.15776e-05
-0.00108044
-5.71064e-05
1.18354e-05
-0.00107836
-8.52202e-05
1.16525e-05
-0.00107227
-0.000116986
1.0908e-05
-0.0010603
-0.000150657
9.40127e-06
-0.00103961
-0.000179541
6.83762e-06
-0.00100604
2.88637e-06
-0.000952969
-0.000172398
3.54381e-05
8.69897e-06
-0.00131082
1.83227e-05
1.03838e-05
-0.00131897
-1.25809e-06
1.16412e-05
-0.00132512
-2.37889e-05
1.24998e-05
-0.00132873
-4.9907e-05
1.29038e-05
-0.00132893
-8.07091e-05
1.27564e-05
-0.00132437
-0.000117336
1.18979e-05
-0.00131239
-0.000159403
1.00625e-05
-0.0012886
-0.000201415
6.80301e-06
-0.00124622
1.55933e-06
-0.00117184
-0.000204697
4.33741e-05
8.46326e-06
-0.0015505
2.6186e-05
1.03679e-05
-0.0015621
6.29764e-06
1.18057e-05
-0.00157169
-1.6894e-05
1.28073e-05
-0.00157861
-4.42497e-05
1.33052e-05
-0.0015817
-7.721e-05
1.31725e-05
-0.00157937
-0.000117826
1.22082e-05
-0.00156822
-0.000167381
1.0082e-05
-0.00154218
-0.000222301
6.15481e-06
-0.00149158
-4.48837e-07
-0.00139406
-0.000237319
4.92263e-05
7.98772e-06
-0.00178857
3.20071e-05
9.96653e-06
-0.00180388
1.19479e-05
1.14671e-05
-0.00181706
-1.16553e-05
1.25259e-05
-0.00182745
-3.98629e-05
1.30724e-05
-0.00183369
-7.44123e-05
1.29608e-05
-0.00183392
-0.000118211
1.19622e-05
-0.00182405
-0.000174364
9.70478e-06
-0.00179638
-0.000241766
5.35362e-06
-0.00173802
-2.38896e-06
-0.00161576
-0.000269007
5.28741e-05
7.31673e-06
-0.00202588
3.57578e-05
9.16902e-06
-0.00204466
1.57763e-05
1.05962e-05
-0.0020612
-7.85332e-06
1.16227e-05
-0.00207483
-3.63535e-05
1.21796e-05
-0.00208417
-7.17174e-05
1.21076e-05
-0.0020871
-0.00011766
1.11766e-05
-0.00207903
-0.000179234
9.02413e-06
-0.00205077
-0.000258339
4.67805e-06
-0.00198605
-3.89362e-06
-0.00183886
-0.000298036
5.39012e-05
6.02747e-06
-0.00226307
3.72576e-05
7.5261e-06
-0.00228499
1.77923e-05
8.7571e-06
-0.0023044
-5.35757e-06
9.70087e-06
-0.00232089
-3.35137e-05
1.02967e-05
-0.0023331
-6.88561e-05
1.03733e-05
-0.00233869
-0.000115784
9.73792e-06
-0.00233278
-0.000181308
8.08224e-06
-0.00230498
-0.000271062
4.52293e-06
-0.0022357
-4.26992e-06
-0.00206443
-0.000323584
5.25818e-05
3.53753e-06
-0.002497
3.69544e-05
4.38951e-06
-0.00252112
1.85914e-05
5.20266e-06
-0.00254256
-3.5612e-06
5.86115e-06
-0.00256129
-3.10847e-05
6.37885e-06
-0.00257629
-6.63119e-05
6.60612e-06
-0.00258523
-0.000113835
6.44729e-06
-0.00258284
-0.00018203
5.68755e-06
-0.00255735
-0.000280809
3.88809e-06
-0.00248509
-3.28457e-06
-0.00228982
-0.000347417
5.01994e-05
-0.00271722
3.57363e-05
-0.00274348
1.87733e-05
-0.0027671
-1.82482e-06
-0.00278777
-2.76286e-05
-0.00280434
-6.12486e-05
-0.0028146
-0.000107583
-0.00281426
-0.000176093
-0.00279194
-0.000280688
-0.00272026
-0.00250505
-0.000365626
4.04779e-06
4.91065e-06
-0.000577908
-1.01809e-05
5.25056e-06
-0.000578559
-2.49279e-05
5.46026e-06
-0.000578108
-3.97746e-05
5.5424e-06
-0.00057648
-5.41106e-05
5.47833e-06
-0.000573568
-6.70282e-05
5.23396e-06
-0.000569268
-7.71799e-05
4.76709e-06
-0.000563589
-8.25742e-05
4.03376e-06
-0.000556813
-8.00632e-05
3.00297e-06
-0.000549588
1.73505e-06
-0.000542051
-6.52331e-05
1.14991e-05
7.62472e-06
-0.000817705
-3.89359e-06
8.40166e-06
-0.000819652
-2.04755e-05
8.89796e-06
-0.000820034
-3.78867e-05
9.12602e-06
-0.00081862
-5.55867e-05
9.0627e-06
-0.000815062
-7.26489e-05
8.65015e-06
-0.000808924
-8.74758e-05
7.81681e-06
-0.000799739
-9.73825e-05
6.49513e-06
-0.000787159
-9.77845e-05
4.658e-06
-0.000771142
2.44971e-06
-0.000752636
-8.11479e-05
2.02183e-05
8.60224e-06
-0.0010582
4.43315e-06
9.81876e-06
-0.00106201
-1.30221e-05
1.06527e-05
-0.00106389
-3.20288e-05
1.11146e-05
-0.00106342
-5.23704e-05
1.11688e-05
-0.00106013
-7.3503e-05
1.07326e-05
-0.00105322
-9.40244e-05
9.69193e-06
-0.00104165
-0.000110837
7.91002e-06
-0.00102421
-0.000117628
5.26969e-06
-0.000999864
1.89859e-06
-0.000968915
-0.000101131
2.9275e-05
8.82668e-06
-0.00129675
1.29504e-05
1.04138e-05
-0.00130324
-5.52903e-06
1.15514e-05
-0.00130754
-2.62993e-05
1.22547e-05
-0.0013091
-4.93732e-05
1.24517e-05
-0.00130714
-7.45735e-05
1.20275e-05
-0.00130046
-0.000100864
1.08142e-05
-0.00128723
-0.000125161
8.59186e-06
-0.00126498
-0.000140098
5.11517e-06
-0.00123113
4.73523e-07
-0.00118429
-0.000126226
3.72722e-05
8.70537e-06
-0.00153582
2.04589e-05
1.05419e-05
-0.00154542
1.11068e-06
1.18893e-05
-0.00155268
-2.10849e-05
1.27671e-05
-0.00155693
-4.6396e-05
1.30779e-05
-0.00155702
-7.50383e-05
1.26719e-05
-0.00155137
-0.000106501
1.13206e-05
-0.00153726
-0.000138126
8.70978e-06
-0.00151067
-0.000162157
4.41436e-06
-0.00146685
-1.58601e-06
-0.00140141
-0.000152745
4.34837e-05
8.27154e-06
-0.00177341
2.63668e-05
1.02166e-05
-0.00178644
6.46175e-06
1.16641e-05
-0.00179693
-1.6701e-05
1.264e-05
-0.00180416
-4.36711e-05
1.3037e-05
-0.00180668
-7.5039e-05
1.26791e-05
-0.00180256
-0.000110934
1.12881e-05
-0.00178813
-0.000149463
8.46385e-06
-0.00175761
-0.000183126
3.57207e-06
-0.00170352
-3.61576e-06
-0.00161715
-0.000179713
4.76653e-05
7.55906e-06
-0.00201038
3.04866e-05
9.40637e-06
-0.00202667
1.04135e-05
1.08126e-05
-0.00204027
-1.31599e-05
1.1797e-05
-0.00205041
-4.10534e-05
1.22571e-05
-0.0020555
-7.42311e-05
1.19963e-05
-0.00205324
-0.000113556
1.07097e-05
-0.00203912
-0.000158237
7.94184e-06
-0.00200557
-0.000201734
2.85833e-06
-0.00194184
-5.29197e-06
-0.00183331
-0.000205605
4.92745e-05
6.18069e-06
-0.00224719
3.24835e-05
7.68684e-06
-0.00226648
1.2803e-05
8.90154e-06
-0.0022828
-1.05082e-05
9.81182e-06
-0.00229559
-3.84911e-05
1.03373e-05
-0.0023032
-7.24542e-05
1.02805e-05
-0.00230301
-0.000114026
9.36601e-06
-0.00228986
-0.000163811
7.13058e-06
-0.00225438
-0.000217122
2.69768e-06
-0.00218222
-5.82837e-06
-0.00205118
-0.000229834
4.85226e-05
3.6632e-06
-0.00248068
3.26693e-05
4.52232e-06
-0.00250211
1.40405e-05
5.3251e-06
-0.00252036
-8.27692e-06
5.95248e-06
-0.00253511
-3.56759e-05
6.41294e-06
-0.00254496
-6.98601e-05
6.55039e-06
-0.00254732
-0.000113057
6.22269e-06
-0.0025365
-0.000167081
5.05606e-06
-0.00250125
-0.000229573
2.4318e-06
-0.00242233
-4.61776e-06
-0.00226802
-0.00025258
4.662e-05
-0.00270077
3.18359e-05
-0.00272418
1.45363e-05
-0.00274447
-6.28076e-06
-0.002761
-3.19836e-05
-0.00277222
-6.45496e-05
-0.00277549
-0.000106996
-0.00276559
-0.000162822
-0.00273105
-0.000231986
-0.00264866
-0.00247296
-0.000268691
2.57586e-06
4.37481e-06
-0.000572686
-7.53996e-06
4.64481e-06
-0.000573088
-1.77619e-05
4.77903e-06
-0.000572665
-2.76261e-05
4.78234e-06
-0.000571398
-3.65638e-05
4.6449e-06
-0.000569275
-4.38741e-05
4.35016e-06
-0.000566308
-4.87234e-05
3.88336e-06
-0.000562623
-5.01524e-05
3.23491e-06
-0.000558619
-4.69467e-05
2.40806e-06
-0.000555202
1.46498e-06
-0.000553019
-3.74436e-05
8.06723e-06
7.03476e-06
-0.000809205
-4.14984e-06
7.69586e-06
-0.000810486
-1.70251e-05
8.07124e-06
-0.000810451
-3.00607e-05
8.17483e-06
-0.000808977
-4.25709e-05
7.99076e-06
-0.000805897
-5.3577e-05
7.48143e-06
-0.00080105
-6.17174e-05
6.61093e-06
-0.000794326
-6.5214e-05
5.36754e-06
-0.000785795
-6.18757e-05
3.80034e-06
-0.000775872
2.10838e-06
-0.000765605
-4.95499e-05
1.55133e-05
8.25501e-06
-0.00104718
1.82438e-06
9.32943e-06
-0.00104996
-1.30438e-05
1.00134e-05
-0.00105096
-2.86984e-05
1.03105e-05
-0.0010499
-4.4568e-05
1.01884e-05
-0.00104646
-5.96994e-05
9.57781e-06
-0.00104019
-7.2487e-05
8.40252e-06
-0.00103065
-8.03622e-05
6.60531e-06
-0.00101757
-7.94697e-05
4.19875e-06
-0.00100116
1.45028e-06
-0.000982892
-6.48345e-05
2.37188e-05
8.68843e-06
-0.00128414
8.83531e-06
1.01391e-05
-0.00128917
-7.7856e-06
1.11256e-05
-0.00129203
-2.59522e-05
1.16503e-05
-0.00129227
-4.52365e-05
1.16408e-05
-0.00128931
-6.48001e-05
1.09883e-05
-0.00128231
-8.29262e-05
9.55957e-06
-0.00127026
-9.63913e-05
7.22489e-06
-0.00125213
-9.97121e-05
3.91683e-06
-0.00122752
-2.21982e-08
-0.00119821
-8.43165e-05
3.14013e-05
8.72084e-06
-0.00152214
1.55534e-05
1.0444e-05
-0.00152987
-2.49413e-06
1.1659e-05
-0.00153517
-2.27532e-05
1.2372e-05
-0.00153739
-4.49919e-05
1.24732e-05
-0.00153561
-6.86104e-05
1.18112e-05
-0.00152858
-9.19852e-05
1.01824e-05
-0.00151451
-0.000111503
7.35938e-06
-0.00149129
-0.000120265
3.13529e-06
-0.00145731
-2.12383e-06
-0.00141415
-0.00010543
3.76763e-05
8.3708e-06
-0.00175892
2.11876e-05
1.02349e-05
-0.00176974
2.13983e-06
1.15804e-05
-0.0017778
-1.96578e-05
1.24219e-05
-0.00178241
-4.42306e-05
1.26273e-05
-0.00178226
-7.12916e-05
1.20117e-05
-0.0017757
-9.94995e-05
1.03036e-05
-0.00176004
-0.000125164
7.16997e-06
-0.00173175
-0.000140347
2.21899e-06
-0.00168742
-4.2319e-06
-0.00162779
-0.000127591
4.21837e-05
7.6645e-06
-0.00199528
2.5397e-05
9.46323e-06
-0.00200911
5.8582e-06
1.07988e-05
-0.00201995
-1.67999e-05
1.16836e-05
-0.00202701
-4.29046e-05
1.19873e-05
-0.00202876
-7.25305e-05
1.14974e-05
-0.0020231
-0.000104804
9.89133e-06
-0.00200644
-0.000136318
6.73775e-06
-0.00197362
-0.000158613
1.43097e-06
-0.00191876
-6.02761e-06
-0.00184083
-0.000149296
4.42597e-05
6.23506e-06
-0.00223152
2.77051e-05
7.71917e-06
-0.00224818
8.34621e-06
8.88097e-06
-0.00226153
-1.43637e-05
9.71024e-06
-0.00227091
-4.10407e-05
1.0103e-05
-0.00227463
-7.21507e-05
9.85019e-06
-0.00227026
-0.000107442
8.64202e-06
-0.00225332
-0.000144177
5.98777e-06
-0.00221689
-0.000174153
1.17723e-06
-0.002152
-6.69353e-06
-0.00205462
-0.000170048
4.40907e-05
3.72082e-06
-0.00246449
2.83396e-05
4.57483e-06
-0.00248321
9.88879e-06
5.35082e-06
-0.00249838
-1.19655e-05
5.92552e-06
-0.00250947
-3.82232e-05
6.29311e-06
-0.00251489
-6.98616e-05
6.29109e-06
-0.00251212
-0.000107369
5.74579e-06
-0.0024961
-0.000148843
4.23631e-06
-0.00245803
-0.000186739
1.19819e-06
-0.00238445
-5.31097e-06
-0.00226648
-0.000189664
4.2649e-05
-0.00268424
2.78574e-05
-0.00270481
1.0617e-05
-0.00272188
-9.88905e-06
-0.00273457
-3.4673e-05
-0.00274114
-6.49746e-05
-0.00273889
-0.000102063
-0.00272275
-0.000145708
-0.00268317
-0.000189637
-0.00260354
-0.00246571
-0.000202203
1.8636e-06
3.75595e-06
-0.000569924
-4.97067e-06
3.96601e-06
-0.00057022
-1.17563e-05
4.04899e-06
-0.000569928
-1.81074e-05
4.01138e-06
-0.000569059
-2.36018e-05
3.85171e-06
-0.000567633
-2.77836e-05
3.56662e-06
-0.000565693
-3.01956e-05
3.15855e-06
-0.000563369
-3.04266e-05
2.63395e-06
-0.000561022
-2.8071e-05
2.0016e-06
-0.000559559
1.29207e-06
-0.000560027
-2.23549e-05
5.69913e-06
6.26639e-06
-0.000803266
-3.49966e-06
6.8135e-06
-0.000804135
-1.30094e-05
7.08635e-06
-0.000803979
-2.23339e-05
7.10195e-06
-0.000802743
-3.0862e-05
6.85526e-06
-0.000800373
-3.7828e-05
6.33066e-06
-0.000796848
-4.23065e-05
5.52255e-06
-0.000792211
-4.32884e-05
4.45238e-06
-0.000786632
-3.98716e-05
3.19494e-06
-0.000780482
1.92386e-06
-0.00077444
-3.16691e-05
1.18014e-05
7.66187e-06
-0.00103841
4.96205e-07
8.58127e-06
-0.00104042
-1.1576e-05
9.11841e-06
-0.00104092
-2.39091e-05
9.27616e-06
-0.00103974
-3.58311e-05
9.03199e-06
-0.00103671
-4.63882e-05
8.33938e-06
-0.00103164
-5.42601e-05
7.16283e-06
-0.00102442
-5.77312e-05
5.50523e-06
-0.00101516
-5.48069e-05
3.44839e-06
-0.00100433
1.26155e-06
-0.000993155
-4.38808e-05
1.89242e-05
8.29592e-06
-0.00127337
5.92756e-06
9.58441e-06
-0.00127718
-8.38036e-06
1.04075e-05
-0.00127901
-2.35925e-05
1.07601e-05
-0.00127854
-3.90557e-05
1.05806e-05
-0.00127539
-5.37244e-05
9.78168e-06
-0.00126909
-6.59313e-05
8.27904e-06
-0.00125917
-7.31761e-05
6.0284e-06
-0.00124541
-7.20995e-05
3.08268e-06
-0.00122823
-1.66907e-07
-0.00120956
-5.93165e-05
2.60022e-05
8.49837e-06
-0.00150988
1.16137e-05
1.00719e-05
-0.00151597
-4.57168e-06
1.11286e-05
-0.0015197
-2.23073e-05
1.16626e-05
-0.00152056
-4.10427e-05
1.15684e-05
-0.00151786
-5.97751e-05
1.07112e-05
-0.00151078
-7.66354e-05
8.93892e-06
-0.00149831
-8.84148e-05
6.12675e-06
-0.00147961
-9.02494e-05
2.2425e-06
-0.00145463
-2.22741e-06
-0.00142603
-7.63072e-05
3.207e-05
8.26264e-06
-0.00174551
1.66943e-05
1.00046e-05
-0.0017543
-8.92289e-07
1.12123e-05
-0.0017603
-2.06175e-05
1.18884e-05
-0.00176291
-4.21019e-05
1.18945e-05
-0.00176111
-6.45119e-05
1.10559e-05
-0.00175364
-8.59533e-05
9.14548e-06
-0.0017388
-0.000102694
5.93774e-06
-0.00171482
-0.000108424
1.26408e-06
-0.00168071
-4.33518e-06
-0.00163971
-9.44047e-05
3.66871e-05
7.60671e-06
-0.00198098
2.07447e-05
9.31795e-06
-0.00199248
2.32674e-06
1.05444e-05
-0.00200087
-1.86765e-05
1.12896e-05
-0.00200541
-4.2146e-05
1.14097e-05
-0.0020048
-6.75168e-05
1.06968e-05
-0.00199737
-9.30731e-05
8.85602e-06
-0.00198059
-0.000114825
5.54658e-06
-0.00195148
-0.000125235
4.09576e-07
-0.0019075
-6.16228e-06
-0.00185209
-0.000112147
3.90784e-05
6.17017e-06
-0.00221644
2.31619e-05
7.60431e-06
-0.00223055
4.65883e-06
8.68421e-06
-0.00224116
-1.67402e-05
9.39961e-06
-0.00224762
-4.12081e-05
9.62876e-06
-0.00224839
-6.8527e-05
9.16599e-06
-0.00224141
-9.73717e-05
7.70945e-06
-0.00222333
-0.000123848
4.82417e-06
-0.0021897
-0.000139697
3.5483e-08
-0.00213577
-6.91273e-06
-0.0020645
-0.000129065
3.94208e-05
3.70166e-06
-0.00244877
2.41233e-05
4.53535e-06
-0.00246484
6.30735e-06
5.26831e-06
-0.00247715
-1.44798e-05
5.77249e-06
-0.00248506
-3.87751e-05
6.02717e-06
-0.002487
-6.68605e-05
5.86958e-06
-0.00248074
-9.80802e-05
5.11907e-06
-0.00246229
-0.000128998
3.37796e-06
-0.00242566
-0.000150907
2.42727e-07
-0.00236275
-5.44065e-06
-0.00227444
-0.000144421
3.83918e-05
-0.00266803
2.39244e-05
-0.00268581
7.1571e-06
-0.00269984
-1.25038e-05
-0.00270914
-3.56575e-05
-0.00271196
-6.2843e-05
-0.00270584
-9.40032e-05
-0.00268647
-0.000126916
-0.00264688
-0.000153422
-0.00257679
-0.00247173
-0.00015284
1.47256e-06
3.13315e-06
-0.000568806
-2.98442e-06
3.29576e-06
-0.000569059
-7.3681e-06
3.34864e-06
-0.000568893
-1.13961e-05
3.29889e-06
-0.00056833
-1.47845e-05
3.15046e-06
-0.000567395
-1.72566e-05
2.90729e-06
-0.000566128
-1.85737e-05
2.57963e-06
-0.000564632
-1.8573e-05
2.17822e-06
-0.000563201
-1.71405e-05
1.70612e-06
-0.000562698
1.15914e-06
-0.000564516
-1.38103e-05
4.05529e-06
5.41482e-06
-0.000799436
-2.5838e-06
5.85873e-06
-0.000800059
-9.34782e-06
6.05375e-06
-0.00079992
-1.58115e-05
6.01922e-06
-0.000798999
-2.14991e-05
5.75932e-06
-0.000797294
-2.58799e-05
5.27437e-06
-0.000794834
-2.83897e-05
4.57748e-06
-0.000791699
-2.85049e-05
3.7045e-06
-0.000788043
-2.58947e-05
2.72956e-06
-0.000784116
1.78388e-06
-0.000780293
-2.06663e-05
8.92175e-06
6.89692e-06
-0.00103183
-2.06492e-08
7.66205e-06
-0.00103328
-9.43093e-06
8.06912e-06
-0.00103352
-1.88081e-05
8.12423e-06
-0.00103247
-2.7533e-05
7.81642e-06
-0.00103004
-3.48214e-05
7.12208e-06
-0.0010262
-3.97254e-05
6.03645e-06
-0.00102098
-4.12044e-05
4.59615e-06
-0.00101457
-3.83113e-05
2.90559e-06
-0.0010074
1.1895e-06
-0.00100023
-3.06376e-05
1.48897e-05
7.693e-06
-0.00126458
3.98814e-06
8.80712e-06
-0.00126742
-7.85276e-06
9.47026e-06
-0.00126857
-2.01339e-05
9.67658e-06
-0.00126782
-3.21537e-05
9.38063e-06
-0.00126494
-4.29215e-05
8.52333e-06
-0.00125972
-5.10851e-05
7.06544e-06
-0.00125203
-5.49391e-05
5.02278e-06
-0.00124199
-5.26328e-05
2.50993e-06
-0.00123014
-1.18964e-07
-0.00121791
-4.29806e-05
2.11762e-05
8.05754e-06
-0.00149932
8.57772e-06
9.45659e-06
-0.00150402
-5.41601e-06
1.03445e-05
-0.00150658
-2.03907e-05
1.07077e-05
-0.00150661
-3.56516e-05
1.04572e-05
-0.00150368
-5.01029e-05
9.48718e-06
-0.00149729
-6.2049e-05
7.70157e-06
-0.001487
-6.90615e-05
5.06159e-06
-0.00147263
-6.81087e-05
1.64756e-06
-0.00145472
-2.06587e-06
-0.00143547
-5.67225e-05
2.68189e-05
7.95017e-06
-0.00173351
1.29378e-05
9.53734e-06
-0.0017405
-2.75573e-06
1.05854e-05
-0.00174485
-1.99822e-05
1.10869e-05
-0.00174606
-3.8127e-05
1.09146e-05
-0.00174342
-5.61087e-05
9.91928e-06
-0.00173609
-7.20104e-05
7.93488e-06
-0.00172314
-8.27397e-05
4.84117e-06
-0.00170387
-8.39551e-05
6.38239e-07
-0.00167848
-4.09459e-06
-0.00165012
-7.15167e-05
3.13453e-05
7.37957e-06
-0.00196784
1.6639e-05
8.96953e-06
-0.00197721
-1.82851e-07
1.00596e-05
-0.00198352
-1.90009e-05
1.06445e-05
-0.00198615
-3.93766e-05
1.05832e-05
-0.00198409
-6.03756e-05
9.6903e-06
-0.00197614
-8.00309e-05
7.72733e-06
-0.00196073
-9.47351e-05
4.46374e-06
-0.0019364
-9.88062e-05
-2.48694e-07
-0.00190254
-5.86372e-06
-0.0018632
-8.59352e-05
3.38912e-05
5.97686e-06
-0.00220228
1.89848e-05
7.33414e-06
-0.00221401
1.8033e-06
8.30958e-06
-0.00222223
-1.77229e-05
8.8917e-06
-0.00222634
-3.93985e-05
8.95201e-06
-0.00222508
-6.25437e-05
8.30349e-06
-0.00221688
-8.53576e-05
6.6858e-06
-0.00219947
-0.00010398
3.76082e-06
-0.00217037
-0.000111643
-7.19479e-07
-0.00212764
-6.64704e-06
-0.00207587
-9.94929e-05
3.46412e-05
3.60018e-06
-0.00243385
2.01399e-05
4.39645e-06
-0.0024474
3.38039e-06
5.07128e-06
-0.00245715
-1.58322e-05
5.49225e-06
-0.00246245
-3.7608e-05
5.62833e-06
-0.0024619
-6.16679e-05
5.32517e-06
-0.0024537
-8.66957e-05
4.41928e-06
-0.00243499
-0.000109005
2.58098e-06
-0.00240217
-0.00012093
-4.12954e-07
-0.00235113
-5.18101e-06
-0.00228597
-0.000110869
3.3963e-05
-0.00265252
2.01471e-05
-0.0026676
4.249e-06
-0.00267888
-1.40885e-05
-0.00268531
-3.50732e-05
-0.00268535
-5.86716e-05
-0.00267692
-8.39741e-05
-0.00265675
-0.000107994
-0.00262028
-0.000123117
-0.00256208
-0.00248365
-0.000116381
1.2057e-06
2.5583e-06
-0.00056867
-1.63479e-06
2.68475e-06
-0.000568903
-4.4237e-06
2.72197e-06
-0.000568826
-6.96772e-06
2.67661e-06
-0.000568462
-9.08431e-06
2.55539e-06
-0.000567834
-1.06088e-05
2.36518e-06
-0.000566969
-1.14169e-05
2.11826e-06
-0.000565942
-1.14483e-05
1.82406e-06
-0.000564994
-1.06857e-05
1.47739e-06
-0.000564938
1.04377e-06
-0.000567447
-8.79883e-06
2.89362e-06
4.55965e-06
-0.000797183
-1.73503e-06
4.91493e-06
-0.000797661
-6.40756e-06
5.05514e-06
-0.000797581
-1.07914e-05
5.00018e-06
-0.000796939
-1.45408e-05
4.76031e-06
-0.00079575
-1.73045e-05
4.34482e-06
-0.00079405
-1.87499e-05
3.77503e-06
-0.000791911
-1.86157e-05
3.08878e-06
-0.000789442
-1.68067e-05
2.34953e-06
-0.000786797
1.65148e-06
-0.000784167
-1.35406e-05
6.7036e-06
6.04084e-06
-0.00102714
-1.17804e-07
6.66224e-06
-0.00102821
-7.20817e-06
6.96234e-06
-0.00102834
-1.4131e-05
6.95098e-06
-0.0010275
-2.03823e-05
6.62754e-06
-0.00102566
-2.53809e-05
5.98646e-06
-0.00102284
-2.84959e-05
5.04209e-06
-0.00101913
-2.91226e-05
3.84417e-06
-0.0010147
-2.68215e-05
2.49275e-06
-0.00100985
1.1603e-06
-0.00100501
-2.15504e-05
1.15576e-05
6.94121e-06
-0.0012577
2.73929e-06
7.88122e-06
-0.00125982
-6.72195e-06
8.39927e-06
-0.00126055
-1.63245e-05
8.49294e-06
-0.00125975
-2.54262e-05
8.1344e-06
-0.00125734
-3.32084e-05
7.29205e-06
-0.00125324
-3.86774e-05
5.96116e-06
-0.00124748
-4.07434e-05
4.19134e-06
-0.00124027
-3.84333e-05
2.11489e-06
-0.00123208
2.19933e-08
-0.0012238
-3.14025e-05
1.69628e-05
7.43825e-06
-0.00149054
6.29857e-06
8.65063e-06
-0.00149413
-5.39865e-06
9.37286e-06
-0.00149586
-1.76394e-05
9.58883e-06
-0.00149547
-2.97153e-05
9.23186e-06
-0.0014927
-4.06242e-05
8.22982e-06
-0.00148732
-4.90038e-05
6.53654e-06
-0.00147919
-5.31608e-05
4.17228e-06
-0.00146846
-5.13171e-05
1.27172e-06
-0.00145572
-1.75669e-06
-0.00144252
-4.24906e-05
2.2028e-05
7.45495e-06
-0.00172311
9.88511e-06
8.86502e-06
-0.00172857
-3.67822e-06
9.74579e-06
-0.00173166
-1.82449e-05
1.00829e-05
-0.00173199
-3.31067e-05
9.77108e-06
-0.0017291
-4.71655e-05
8.69695e-06
-0.0017225
-5.87493e-05
6.7564e-06
-0.00171177
-6.5538e-05
3.91342e-06
-0.00169683
-6.4764e-05
2.71014e-07
-0.00167826
-3.64223e-06
-0.00165845
-5.45475e-05
2.62963e-05
6.99107e-06
-0.0019561
1.31178e-05
8.43315e-06
-0.0019636
-1.78445e-06
9.37206e-06
-0.00196825
-1.81145e-05
9.7949e-06
-0.00196953
-3.52586e-05
9.57698e-06
-0.00196676
-5.21427e-05
8.56806e-06
-0.00195913
-6.69076e-05
6.59812e-06
-0.00194581
-7.66588e-05
3.53997e-06
-0.00192627
-7.74827e-05
-6.06824e-07
-0.00190084
-5.28211e-06
-0.00187285
-6.61923e-05
2.88456e-05
5.65455e-06
-0.00218934
1.5256e-05
6.91098e-06
-0.0021989
-2.4859e-07
7.7673e-06
-0.00220512
-1.75282e-05
8.21111e-06
-0.00220748
-3.61323e-05
8.11886e-06
-0.00220502
-5.51368e-05
7.33383e-06
-0.00219664
-7.26782e-05
5.65751e-06
-0.00218099
-8.54571e-05
2.85939e-06
-0.00215691
-8.85053e-05
-1.13114e-06
-0.00212407
-6.04615e-06
-0.00208663
-7.69801e-05
2.98876e-05
3.41568e-06
-0.00242003
1.6487e-05
4.15754e-06
-0.00243125
1.13714e-06
4.76213e-06
-0.00243879
-1.61246e-05
5.0942e-06
-0.00244207
-3.50791e-05
5.11921e-06
-0.00243994