/*--------------------------------*- C++ -*----------------------------------*\
| =========                 |                                                 |
| \\      /  F ield         | foam-extend: Open Source CFD                    |
|  \\    /   O peration     | Version:     4.0                                |
|   \\  /    A nd           | Web:         http://www.foam-extend.org         |
|    \\/     M anipulation  |                                                 |
\*---------------------------------------------------------------------------*/
FoamFile
{
    version     2.0;
    format      ascii;
    class       volScalarField;
    location    "1200";
    object      T;
}
// * * * * * * * * * * * * * * * * * * * * * * * * * * * * * * * * * * * * * //

dimensions      [0 0 0 1 0 0 0];

internalField   nonuniform List<scalar> 
34480
(
278.277
277.831
277.385
276.919
276.408
275.853
275.385
275.397
276.483
280.346
277.577
277.057
276.552
276.05
275.501
274.858
274.15
273.646
273.818
276.706
277.445
276.864
276.29
275.709
275.075
274.31
273.38
272.474
271.933
273.873
277.523
276.826
276.125
275.406
274.633
273.723
272.597
271.352
270.177
271.22
277.63
276.826
276.008
275.158
274.248
273.193
271.886
270.332
268.573
268.797
277.805
276.913
275.999
275.044
274.016
272.834
271.368
269.538
267.237
266.675
277.942
276.984
276.003
274.976
273.863
272.586
270.995
268.912
266.079
264.709
278.1
277.104
276.088
275.022
273.867
272.544
270.884
268.61
265.265
263.022
278.203
277.191
276.153
275.055
273.852
272.474
270.755
268.324
264.448
261.301
279.056
278.046
277.002
275.893
274.686
273.318
271.619
269.153
264.775
260.513
279.741
279.558
279.461
279.467
279.606
279.929
280.518
281.478
283.066
286.237
278.574
278.299
278.1
278.004
278.032
278.23
278.693
279.566
281.065
284.398
278.084
277.739
277.457
277.258
277.164
277.209
277.484
278.172
279.508
282.953
277.855
277.41
277.017
276.691
276.46
276.357
276.468
276.983
278.14
281.6
277.702
277.168
276.678
276.242
275.888
275.654
275.617
275.964
276.937
280.362
277.649
277.043
276.477
275.955
275.502
275.157
274.994
275.188
275.99
279.392
277.596
276.939
276.323
275.744
275.222
274.794
274.525
274.568
275.184
278.515
277.614
276.929
276.285
275.674
275.112
274.631
274.283
274.191
274.593
277.751
277.637
276.941
276.283
275.647
275.045
274.505
274.079
273.859
274.002
276.852
278.404
277.705
277.036
276.39
275.778
275.228
274.777
274.485
274.322
276.575
280.887
280.791
280.788
280.893
281.127
281.521
282.116
282.955
284.111
285.723
279.58
279.397
279.302
279.32
279.482
279.836
280.447
281.403
282.822
284.879
278.966
278.706
278.527
278.452
278.51
278.756
279.28
280.215
281.748
284.216
278.632
278.276
277.992
277.801
277.738
277.862
278.281
279.169
280.771
283.593
278.399
277.957
277.579
277.282
277.106
277.112
277.419
278.234
279.859
282.966
278.282
277.767
277.311
276.928
276.655
276.556
276.757
277.487
279.104
282.431
278.18
277.612
277.1
276.654
276.308
276.123
276.225
276.854
278.42
281.89
278.155
277.554
277.008
276.522
276.123
275.872
275.888
276.407
277.876
281.405
278.14
277.527
276.965
276.453
276.011
275.694
275.618
276.013
277.34
280.877
278.843
278.228
277.656
277.133
276.681
276.352
276.23
276.52
277.647
281.073
281.676
281.63
281.665
281.789
282.01
282.34
282.783
283.33
283.966
284.717
280.376
280.263
280.235
280.311
280.511
280.862
281.395
282.133
283.092
284.241
279.71
279.526
279.426
279.433
279.572
279.883
280.418
281.237
282.399
283.918
279.31
279.039
278.849
278.762
278.814
279.055
279.56
280.428
281.768
283.658
279.018
278.666
278.39
278.212
278.174
278.333
278.786
279.671
281.149
283.377
278.848
278.425
278.075
277.817
277.696
277.776
278.169
279.048
280.635
283.166
278.703
278.226
277.82
277.5
277.31
277.318
277.647
278.495
280.148
282.925
278.643
278.129
277.685
277.322
277.078
277.023
277.285
278.079
279.747
282.708
278.605
278.077
277.615
277.226
276.942
276.826
277.008
277.716
279.343
282.454
279.264
278.733
278.258
277.855
277.555
277.421
277.561
278.188
279.698
282.877
282.15
282.127
282.163
282.261
282.422
282.647
282.929
283.244
283.548
283.827
280.96
280.891
280.893
280.977
281.153
281.432
281.822
282.321
282.907
283.519
280.317
280.188
280.137
280.18
280.334
280.621
281.064
281.68
282.464
283.347
279.897
279.694
279.572
279.549
279.653
279.916
280.383
281.097
282.08
283.265
279.574
279.299
279.104
279.01
279.051
279.273
279.738
280.522
281.685
283.171
279.372
279.03
278.768
278.606
278.584
278.757
279.207
280.04
281.365
283.144
279.197
278.802
278.487
278.269
278.191
278.314
278.735
279.591
281.045
283.089
279.109
278.677
278.324
278.063
277.937
278.01
278.392
279.244
280.784
283.054
279.053
278.605
278.232
277.946
277.784
277.81
278.136
278.945
280.519
282.989
279.673
279.218
278.831
278.53
278.351
278.358
278.654
279.42
280.952
283.555
282.397
282.384
282.41
282.477
282.581
282.72
282.885
283.054
283.178
283.221
281.361
281.319
281.331
281.402
281.536
281.734
281.995
282.309
282.653
282.984
280.788
280.7
280.678
280.73
280.866
281.097
281.427
281.854
282.355
282.87
280.385
280.237
280.162
280.173
280.289
280.528
280.911
281.446
282.122
282.857
280.058
279.848
279.715
279.676
279.755
279.984
280.398
281.026
281.873
282.846
279.84
279.57
279.38
279.288
279.327
279.536
279.967
280.673
281.689
282.908
279.649
279.329
279.091
278.953
278.95
279.132
279.565
280.328
281.493
282.951
279.544
279.187
278.913
278.736
278.696
278.845
279.266
280.06
281.343
283.021
279.473
279.098
278.804
278.604
278.536
278.653
279.044
279.834
281.19
283.068
280.057
279.675
279.366
279.15
279.065
279.166
279.54
280.319
281.685
283.709
282.493
282.484
282.501
282.541
282.602
282.683
282.774
282.859
282.89
282.809
281.617
281.591
281.603
281.655
281.748
281.878
282.043
282.232
282.43
282.612
281.137
281.078
281.07
281.117
281.224
281.394
281.624
281.907
282.22
282.524
280.776
280.671
280.626
280.651
280.757
280.952
281.243
281.624
282.074
282.532
280.466
280.309
280.221
280.214
280.304
280.51
280.848
281.322
281.917
282.551
280.25
280.041
279.907
279.862
279.93
280.138
280.512
281.073
281.818
282.646
280.054
279.8
279.625
279.544
279.587
279.786
280.184
280.818
281.705
282.729
279.94
279.652
279.444
279.332
279.348
279.532
279.938
280.623
281.634
282.847
279.86
279.552
279.325
279.192
279.188
279.354
279.753
280.46
281.558
282.946
280.413
280.097
279.855
279.708
279.689
279.844
280.237
280.954
282.089
283.607
282.5
282.493
282.501
282.524
282.558
282.603
282.652
282.69
282.675
282.53
281.767
281.751
281.76
281.794
281.853
281.935
282.035
282.147
282.26
282.361
281.384
281.345
281.343
281.38
281.457
281.575
281.729
281.91
282.104
282.286
281.078
281.004
280.978
281.006
281.093
281.242
281.451
281.713
282.007
282.296
280.799
280.685
280.627
280.637
280.722
280.892
281.152
281.496
281.904
282.32
280.598
280.44
280.348
280.332
280.409
280.594
280.899
281.326
281.858
282.419
280.407
280.21
280.085
280.044
280.107
280.298
280.638
281.14
281.795
282.509
280.294
280.065
279.912
279.847
279.895
280.084
280.447
281.007
281.774
282.64
280.208
279.96
279.789
279.707
279.742
279.924
280.294
280.89
281.743
282.75
280.733
280.477
280.292
280.198
280.222
280.399
280.771
281.389
282.289
283.401
282.459
282.452
282.456
282.468
282.487
282.511
282.536
282.55
282.513
282.334
281.844
281.834
281.839
281.86
281.896
281.946
282.005
282.069
282.134
282.191
281.551
281.525
281.525
281.551
281.604
281.683
281.782
281.896
282.014
282.124
281.303
281.252
281.237
281.261
281.327
281.435
281.581
281.756
281.947
282.129
281.064
280.982
280.945
280.96
281.033
281.165
281.357
281.6
281.876
282.148
280.886
280.769
280.707
280.708
280.781
280.934
281.171
281.486
281.859
282.237
280.708
280.558
280.47
280.454
280.523
280.691
280.967
281.35
281.823
282.317
280.603
280.425
280.314
280.282
280.344
280.519
280.824
281.265
281.832
282.443
280.514
280.319
280.193
280.147
280.202
280.378
280.699
281.18
281.823
282.542
281.014
280.811
280.673
280.618
280.666
280.841
281.17
281.678
282.367
283.166
282.396
282.39
282.392
282.398
282.407
282.42
282.433
282.435
282.389
282.192
281.875
281.868
281.871
281.884
281.905
281.933
281.968
282.005
282.041
282.073
281.658
281.641
281.641
281.659
281.694
281.744
281.806
281.877
281.949
282.016
281.464
281.43
281.421
281.44
281.487
281.562
281.66
281.776
281.898
282.014
281.268
281.21
281.187
281.202
281.259
281.358
281.495
281.662
281.847
282.025
281.119
281.033
280.992
281
281.063
281.184
281.361
281.587
281.844
282.099
280.958
280.846
280.785
280.783
280.849
280.987
281.202
281.486
281.821
282.161
280.867
280.732
280.653
280.641
280.705
280.856
281.101
281.437
281.846
282.273
280.779
280.627
280.537
280.515
280.576
280.733
280.998
281.372
281.844
282.35
281.255
281.098
280.997
280.968
281.026
281.185
281.461
281.862
282.374
282.939
282.327
282.322
282.322
282.325
282.33
282.336
282.342
282.34
282.291
282.087
281.879
281.874
281.876
281.882
281.895
281.911
281.93
281.951
281.972
281.99
281.724
281.713
281.713
281.724
281.746
281.777
281.816
281.859
281.903
281.943
281.576
281.553
281.547
281.561
281.594
281.644
281.709
281.783
281.861
281.935
281.421
281.381
281.366
281.379
281.422
281.492
281.587
281.7
281.822
281.939
281.301
281.24
281.213
281.223
281.273
281.364
281.493
281.651
281.826
281.997
281.16
281.078
281.037
281.042
281.098
281.207
281.368
281.573
281.807
282.039
281.087
280.987
280.932
280.931
280.99
281.113
281.302
281.55
281.841
282.136
281.001
280.886
280.823
280.815
280.874
281.006
281.215
281.496
281.836
282.188
281.455
281.336
281.264
281.252
281.31
281.446
281.667
281.972
282.344
282.737
282.259
282.254
282.254
282.255
282.258
282.261
282.264
282.26
282.212
282.006
281.868
281.865
281.865
281.869
281.876
281.885
281.896
281.908
281.919
281.93
281.763
281.756
281.755
281.762
281.775
281.794
281.818
281.844
281.87
281.895
281.651
281.635
281.632
281.641
281.663
281.695
281.737
281.785
281.834
281.881
281.533
281.505
281.496
281.506
281.536
281.585
281.649
281.724
281.804
281.88
281.44
281.398
281.38
281.39
281.428
281.494
281.584
281.693
281.811
281.924
281.319
281.26
281.233
281.241
281.285
281.367
281.484
281.629
281.79
281.946
281.267
281.194
281.157
281.162
281.211
281.307
281.448
281.626
281.829
282.03
281.183
281.098
281.054
281.055
281.107
281.212
281.37
281.576
281.815
282.057
281.615
281.527
281.477
281.475
281.527
281.637
281.807
282.033
282.296
282.566
282.196
282.192
282.192
282.192
282.194
282.195
282.197
282.192
282.148
281.945
281.85
281.848
281.848
281.85
281.854
281.859
281.865
281.872
281.878
281.884
281.785
281.78
281.78
281.783
281.791
281.803
281.816
281.832
281.848
281.863
281.698
281.688
281.686
281.692
281.706
281.726
281.753
281.783
281.814
281.843
281.613
281.595
281.589
281.596
281.617
281.649
281.692
281.741
281.792
281.841
281.545
281.516
281.505
281.512
281.54
281.586
281.648
281.721
281.799
281.874
281.441
281.4
281.382
281.39
281.424
281.483
281.566
281.666
281.774
281.879
281.412
281.36
281.335
281.342
281.38
281.452
281.554
281.679
281.817
281.953
281.328
281.267
281.237
281.242
281.283
281.363
281.48
281.626
281.792
281.956
281.737
281.675
281.641
281.644
281.687
281.772
281.898
282.06
282.243
282.425
282.14
282.136
282.136
282.136
282.137
282.138
282.139
282.134
282.096
281.899
281.83
281.828
281.828
281.829
281.831
281.834
281.837
281.841
281.845
281.849
281.797
281.794
281.794
281.796
281.8
281.807
281.815
281.824
281.834
281.843
281.727
281.72
281.719
281.722
281.731
281.744
281.76
281.779
281.798
281.817
281.669
281.657
281.654
281.659
281.672
281.693
281.721
281.752
281.785
281.817
281.621
281.602
281.594
281.6
281.619
281.651
281.692
281.74
281.791
281.84
281.533
281.505
281.493
281.499
281.524
281.566
281.622
281.69
281.761
281.831
281.526
281.49
281.474
281.48
281.509
281.561
281.632
281.718
281.81
281.901
281.439
281.396
281.377
281.382
281.414
281.473
281.556
281.657
281.769
281.879
281.827
281.783
281.761
281.766
281.799
281.863
281.953
282.066
282.19
282.311
282.091
282.087
282.086
282.086
282.087
282.088
282.088
282.085
282.052
281.865
281.808
281.807
281.807
281.808
281.809
281.81
281.812
281.815
281.817
281.819
281.805
281.803
281.802
281.804
281.806
281.81
281.815
281.82
281.826
281.832
281.742
281.738
281.737
281.739
281.744
281.752
281.762
281.773
281.785
281.797
281.708
281.7
281.698
281.701
281.71
281.723
281.741
281.76
281.781
281.801
281.675
281.662
281.658
281.662
281.675
281.695
281.722
281.753
281.786
281.817
281.599
281.581
281.573
281.578
281.595
281.623
281.661
281.705
281.752
281.798
281.615
281.591
281.581
281.586
281.607
281.643
281.691
281.748
281.809
281.868
281.521
281.492
281.479
281.484
281.508
281.549
281.606
281.675
281.749
281.821
281.888
281.859
281.844
281.849
281.874
281.919
281.982
282.058
282.141
282.22
282.049
282.045
282.045
282.045
282.045
282.046
282.046
282.043
282.018
281.846
281.786
281.786
281.786
281.786
281.787
281.788
281.789
281.79
281.791
281.793
281.811
281.81
281.81
281.811
281.812
281.814
281.817
281.82
281.823
281.827
281.748
281.746
281.745
281.746
281.749
281.754
281.76
281.767
281.774
281.782
281.734
281.729
281.727
281.729
281.735
281.743
281.754
281.766
281.779
281.791
281.711
281.703
281.7
281.703
281.711
281.725
281.742
281.761
281.782
281.802
281.647
281.634
281.63
281.633
281.645
281.663
281.688
281.716
281.746
281.775
281.684
281.668
281.662
281.666
281.681
281.705
281.736
281.774
281.813
281.85
281.578
281.558
281.55
281.554
281.571
281.599
281.637
281.682
281.73
281.777
281.927
281.908
281.899
281.903
281.921
281.952
281.994
282.045
282.098
282.148
282.02
282.016
282.016
282.016
282.016
282.016
282.016
282.015
281.996
281.844
281.763
281.762
281.762
281.762
281.763
281.763
281.764
281.765
281.766
281.767
281.818
281.818
281.818
281.818
281.819
281.82
281.822
281.824
281.826
281.828
281.749
281.747
281.747
281.747
281.749
281.752
281.755
281.759
281.764
281.768
281.749
281.746
281.745
281.746
281.749
281.755
281.761
281.769
281.776
281.784
281.733
281.728
281.726
281.728
281.733
281.742
281.752
281.765
281.777
281.79
281.678
281.671
281.668
281.67
281.677
281.689
281.704
281.722
281.741
281.759
281.735
281.726
281.722
281.725
281.734
281.75
281.771
281.794
281.819
281.842
281.611
281.598
281.593
281.596
281.607
281.626
281.651
281.679
281.71
281.74
281.954
281.942
281.936
281.94
281.952
281.972
282
282.032
282.066
282.097
282.014
282.011
282.011
282.011
282.011
282.011
282.011
282.01
281.999
281.874
281.733
281.733
281.733
281.733
281.733
281.733
281.734
281.734
281.734
281.735
281.824
281.824
281.824
281.824
281.825
281.826
281.827
281.828
281.829
281.831
281.746
281.745
281.745
281.745
281.746
281.747
281.749
281.751
281.754
281.757
281.755
281.754
281.753
281.754
281.756
281.759
281.763
281.767
281.772
281.777
281.743
281.74
281.739
281.74
281.743
281.748
281.755
281.762
281.77
281.778
281.697
281.693
281.691
281.692
281.697
281.704
281.714
281.724
281.735
281.747
281.767
281.76
281.758
281.76
281.767
281.777
281.79
281.805
281.821
281.835
281.62
281.612
281.609
281.611
281.618
281.63
281.645
281.664
281.682
281.702
281.984
281.976
281.973
281.975
281.983
281.997
282.014
282.035
282.055
282.075
282.058
282.048
282.048
282.048
282.049
282.049
282.05
282.051
282.046
281.96
281.689
281.689
281.689
281.688
281.688
281.688
281.688
281.687
281.687
281.687
281.822
281.822
281.822
281.822
281.823
281.824
281.825
281.826
281.828
281.83
281.743
281.742
281.741
281.742
281.742
281.743
281.744
281.745
281.746
281.747
281.755
281.754
281.754
281.755
281.756
281.758
281.76
281.763
281.766
281.77
281.744
281.742
281.741
281.742
281.744
281.747
281.751
281.756
281.761
281.766
281.706
281.703
281.702
281.703
281.706
281.711
281.716
281.723
281.73
281.736
281.77
281.765
281.764
281.765
281.77
281.776
281.785
281.796
281.807
281.816
281.598
281.593
281.591
281.592
281.597
281.605
281.614
281.626
281.637
281.65
282.035
282.029
282.027
282.028
282.034
282.043
282.054
282.068
282.082
282.095
282.116
282.118
282.119
282.12
282.121
282.123
282.126
282.129
282.133
282.103
281.627
281.627
281.626
281.626
281.625
281.624
281.622
281.621
281.619
281.616
281.808
281.808
281.809
281.809
281.81
281.811
281.812
281.813
281.815
281.818
281.741
281.741
281.74
281.74
281.741
281.741
281.741
281.742
281.742
281.743
281.753
281.752
281.752
281.752
281.753
281.755
281.756
281.758
281.761
281.763
281.741
281.739
281.739
281.739
281.741
281.743
281.746
281.75
281.753
281.757
281.709
281.707
281.707
281.707
281.709
281.713
281.717
281.721
281.726
281.73
281.745
281.742
281.741
281.742
281.745
281.75
281.757
281.765
281.774
281.783
281.546
281.542
281.541
281.542
281.546
281.551
281.558
281.566
281.572
281.579
282.102
282.096
282.094
282.095
282.099
282.106
282.115
282.125
282.136
282.148
292.042
296.768
297.834
295.418
291.32
296.414
297.723
295.636
291.331
296.717
298.304
296.984
291.311
296.916
298.86
298.482
291.345
297.094
299.359
299.64
291.307
297.035
299.412
299.725
291.206
296.85
299.281
299.676
291.144
296.678
299.171
299.786
290.859
296.303
298.903
299.839
290.677
296.07
298.844
300.215
291.607
293.152
293.395
292.397
291.129
292.881
293.186
292.194
291.315
293.222
293.694
292.825
291.571
293.632
294.312
293.652
291.882
294.072
294.909
294.453
292.423
294.7
295.631
295.331
292.95
295.26
296.232
296.076
293.417
295.707
296.668
296.54
293.598
295.88
296.875
296.845
293.718
296.097
297.272
297.506
287.764
288.459
288.672
288.33
287.167
288.069
288.35
287.965
287.303
288.334
288.696
288.411
287.604
288.765
289.232
289.07
287.97
289.251
289.821
289.754
288.453
289.826
290.453
290.418
288.929
290.375
291.047
291.058
289.411
290.908
291.618
291.704
289.74
291.255
292.016
292.218
290.24
291.73
292.607
293.06
285.947
286.213
286.325
286.282
285.229
285.669
285.835
285.742
285.287
285.817
286.049
286.011
285.527
286.157
286.467
286.488
285.824
286.551
286.934
287.005
286.254
287.069
287.516
287.639
286.698
287.594
288.099
288.275
287.174
288.136
288.695
288.939
287.6
288.598
289.208
289.543
288.404
289.371
290.048
290.57
284.733
284.807
284.873
284.933
283.969
284.193
284.302
284.298
283.982
284.262
284.421
284.46
284.165
284.515
284.731
284.818
284.395
284.817
285.088
285.223
284.745
285.237
285.564
285.748
285.111
285.669
286.049
286.285
285.524
286.143
286.577
286.87
285.912
286.571
287.052
287.421
286.709
287.349
287.88
288.415
284.005
283.986
284.025
284.121
283.215
283.336
283.405
283.421
283.2
283.357
283.46
283.509
283.337
283.542
283.687
283.772
283.516
283.77
283.958
284.081
283.807
284.113
284.345
284.509
284.112
284.47
284.745
284.95
284.469
284.875
285.193
285.441
284.81
285.248
285.601
285.907
285.59
286.013
286.397
286.827
283.536
283.47
283.492
283.603
282.74
282.808
282.849
282.866
282.709
282.801
282.867
282.905
282.808
282.932
283.027
283.093
282.943
283.102
283.228
283.323
283.181
283.376
283.536
283.661
283.429
283.661
283.853
284.01
283.729
283.995
284.218
284.408
284.012
284.3
284.549
284.779
284.749
285.031
285.3
285.615
283.224
283.131
283.144
283.263
282.436
282.475
282.5
282.512
282.395
282.45
282.492
282.519
282.464
282.541
282.603
282.649
282.563
282.664
282.748
282.815
282.754
282.88
282.988
283.078
282.951
283.103
283.234
283.347
283.199
283.374
283.528
283.663
283.425
283.615
283.785
283.947
284.113
284.302
284.485
284.702
283.004
282.895
282.903
283.026
282.237
282.26
282.275
282.283
282.19
282.224
282.25
282.268
282.234
282.283
282.323
282.354
282.303
282.368
282.424
282.469
282.454
282.537
282.609
282.671
282.604
282.705
282.794
282.872
282.806
282.923
283.027
283.121
282.977
283.104
283.219
283.33
283.617
283.743
283.867
284.012
282.84
282.721
282.725
282.854
282.103
282.117
282.126
282.131
282.056
282.077
282.093
282.105
282.08
282.111
282.137
282.157
282.125
282.167
282.204
282.234
282.241
282.296
282.344
282.386
282.351
282.418
282.478
282.531
282.513
282.591
282.662
282.726
282.637
282.722
282.8
282.874
283.227
283.311
283.394
283.491
282.712
282.585
282.588
282.72
282.011
282.019
282.025
282.028
281.968
281.981
281.991
281.999
281.977
281.997
282.014
282.027
282.004
282.032
282.056
282.076
282.091
282.127
282.159
282.187
282.165
282.21
282.25
282.286
282.296
282.348
282.396
282.439
282.379
282.436
282.489
282.538
282.92
282.977
283.033
283.096
282.606
282.474
282.475
282.61
281.945
281.95
281.954
281.955
281.911
281.919
281.925
281.929
281.908
281.921
281.932
281.94
281.923
281.941
281.957
281.97
281.986
282.01
282.032
282.05
282.031
282.061
282.088
282.112
282.137
282.172
282.204
282.233
282.186
282.224
282.26
282.292
282.681
282.718
282.756
282.798
282.515
282.379
282.38
282.517
281.896
281.9
281.902
281.902
281.873
281.878
281.882
281.885
281.861
281.87
281.876
281.881
281.869
281.881
281.891
281.9
281.915
281.931
281.945
281.957
281.936
281.956
281.974
281.989
282.025
282.048
282.07
282.089
282.043
282.069
282.092
282.113
282.495
282.52
282.545
282.572
282.433
282.296
282.296
282.434
281.858
281.86
281.862
281.862
281.85
281.853
281.855
281.857
281.829
281.834
281.838
281.841
281.835
281.843
281.849
281.854
281.867
281.878
281.887
281.894
281.869
281.882
281.894
281.904
281.948
281.964
281.978
281.99
281.938
281.956
281.971
281.985
282.351
282.368
282.384
282.402
282.357
282.221
282.222
282.358
281.827
281.829
281.83
281.829
281.836
281.838
281.84
281.84
281.805
281.809
281.812
281.813
281.813
281.818
281.822
281.825
281.835
281.842
281.848
281.853
281.823
281.832
281.84
281.846
281.899
281.909
281.918
281.926
281.862
281.874
281.884
281.892
282.241
282.252
282.262
282.274
282.286
282.155
282.155
282.287
281.8
281.801
281.801
281.801
281.83
281.832
281.832
281.833
281.787
281.79
281.791
281.792
281.8
281.803
281.805
281.807
281.814
281.818
281.822
281.825
281.792
281.798
281.803
281.806
281.871
281.877
281.883
281.888
281.806
281.814
281.821
281.825
282.158
282.164
282.171
282.178
282.222
282.101
282.101
282.222
281.772
281.773
281.774
281.773
281.83
281.831
281.832
281.832
281.772
281.774
281.775
281.775
281.79
281.792
281.794
281.794
281.798
281.801
281.803
281.805
281.77
281.774
281.777
281.779
281.855
281.86
281.863
281.866
281.762
281.767
281.771
281.774
282.1
282.104
282.108
282.113
282.175
282.07
282.07
282.175
281.74
281.74
281.741
281.74
281.833
281.834
281.834
281.834
281.76
281.761
281.761
281.761
281.781
281.783
281.784
281.784
281.784
281.786
281.787
281.788
281.754
281.757
281.758
281.76
281.844
281.847
281.849
281.851
281.719
281.723
281.726
281.727
282.074
282.077
282.08
282.082
282.164
282.087
282.087
282.164
281.691
281.691
281.691
281.691
281.831
281.832
281.832
281.832
281.749
281.75
281.75
281.75
281.773
281.774
281.774
281.774
281.77
281.772
281.773
281.773
281.741
281.742
281.744
281.744
281.825
281.827
281.829
281.829
281.663
281.667
281.668
281.668
282.094
282.096
282.098
282.099
282.19
282.156
282.156
282.19
281.616
281.616
281.616
281.617
281.82
281.821
281.821
281.82
281.743
281.744
281.744
281.744
281.765
281.766
281.767
281.767
281.76
281.761
281.762
281.762
281.732
281.733
281.734
281.735
281.794
281.796
281.797
281.797
281.585
281.587
281.588
281.588
282.151
282.153
282.154
282.155
287.203
284.17
282.776
281.951
281.293
280.693
280.137
279.634
279.166
278.72
287.49
285.042
283.445
282.282
281.331
280.549
279.863
279.243
278.665
278.112
288.715
286.097
284.043
282.725
281.637
280.747
279.968
279.267
278.622
278.025
290.18
287.195
284.975
283.499
282.287
281.289
280.409
279.611
278.873
278.196
291.487
288.249
285.877
284.235
282.912
281.81
280.838
279.953
279.131
278.389
293.122
289.345
286.816
285.009
283.573
282.37
281.309
280.343
279.445
278.64
294.7
290.308
287.628
285.657
284.116
282.819
281.679
280.643
279.682
278.834
296.157
291.223
288.397
286.272
284.634
283.248
282.038
280.94
279.926
279.033
297.352
292
289.053
286.797
285.061
283.581
282.294
281.137
280.083
279.156
298.816
293.3
290.301
287.973
286.147
284.592
283.241
282.024
280.921
279.942
288.466
286.028
284.442
283.261
282.365
281.668
281.11
280.655
280.284
279.983
288.307
285.78
283.979
282.663
281.675
280.908
280.283
279.757
279.305
278.913
288.601
285.908
283.908
282.547
281.513
280.696
280.014
279.429
278.92
278.477
289.167
286.365
284.263
282.848
281.74
280.847
280.088
279.426
278.839
278.327
289.774
286.904
284.702
283.194
282
281.027
280.193
279.461
278.808
278.239
290.6
287.577
285.247
283.617
282.332
281.278
280.374
279.578
278.865
278.244
291.469
288.167
285.708
283.944
282.577
281.449
280.487
279.641
278.884
278.229
292.468
288.711
286.167
284.266
282.835
281.644
280.637
279.751
278.961
278.277
293.386
289.111
286.563
284.533
283.056
281.803
280.754
279.834
279.025
278.32
294.76
289.97
287.58
285.47
283.961
282.658
281.574
280.617
279.779
279.046
286.654
285.501
284.568
283.765
283.076
282.495
282.01
281.614
281.297
281.057
286.685
285.297
284.111
283.119
282.295
281.612
281.043
280.567
280.171
279.843
286.989
285.422
284.051
282.955
282.053
281.307
280.678
280.142
279.683
279.293
287.522
285.839
284.336
283.15
282.168
281.347
280.645
280.034
279.499
279.038
288.081
286.335
284.702
283.418
282.35
281.452
280.676
279.996
279.393
278.871
288.849
286.96
285.188
283.788
282.628
281.65
280.803
280.058
279.393
278.815
289.666
287.531
285.618
284.089
282.844
281.79
280.883
280.084
279.371
278.754
290.582
288.062
286.045
284.386
283.071
281.954
280.999
280.16
279.411
278.763
291.444
288.428
286.388
284.601
283.237
282.062
281.07
280.201
279.436
278.767
292.743
289.21
287.312
285.446
284.06
282.849
281.832
280.936
280.151
279.459
285.233
284.781
284.281
283.769
283.289
282.864
282.5
282.198
281.961
281.788
285.309
284.592
283.847
283.152
282.532
281.994
281.533
281.145
280.825
280.569
285.573
284.719
283.819
283.005
282.291
281.673
281.141
280.683
280.294
279.97
286.059
285.103
284.075
283.159
282.354
281.654
281.043
280.508
280.043
279.646
286.591
285.557
284.406
283.386
282.49
281.708
281.02
280.414
279.879
279.419
287.282
286.136
284.858
283.722
282.73
281.865
281.103
280.429
279.83
279.311
288.005
286.68
285.27
284.008
282.924
281.98
281.153
280.423
279.772
279.21
288.82
287.201
285.684
284.293
283.133
282.121
281.244
280.47
279.781
279.185
289.614
287.576
286.019
284.499
283.282
282.212
281.296
280.493
279.785
279.167
290.854
288.372
286.911
285.307
284.065
282.962
282.023
281.196
280.47
279.83
284.106
284.015
283.796
283.512
283.22
282.947
282.704
282.498
282.336
282.221
284.157
283.817
283.398
282.963
282.544
282.16
281.82
281.528
281.287
281.096
284.36
283.944
283.411
282.866
282.348
281.875
281.454
281.087
280.775
280.516
284.772
284.294
283.657
283.01
282.396
281.836
281.332
280.885
280.497
280.167
285.237
284.705
283.967
283.217
282.51
281.863
281.28
280.76
280.301
279.908
285.847
285.238
284.392
283.532
282.727
281.995
281.335
280.745
280.219
279.765
286.482
285.747
284.788
283.807
282.909
282.094
281.366
280.716
280.136
279.636
287.192
286.246
285.189
284.087
283.107
282.223
281.44
280.744
280.123
279.586
287.883
286.619
285.513
284.286
283.245
282.302
281.479
280.752
280.11
279.55
289.026
287.43
286.372
285.063
283.993
283.017
282.172
281.423
280.763
280.182
283.375
283.451
283.376
283.228
283.061
282.896
282.745
282.615
282.512
282.441
283.373
283.212
282.984
282.724
282.457
282.201
281.966
281.76
281.589
281.454
283.506
283.31
283.008
282.66
282.305
281.964
281.651
281.372
281.133
280.935
283.826
283.603
283.228
282.794
282.35
281.923
281.528
281.172
280.859
280.595
284.203
283.956
283.506
282.983
282.45
281.939
281.464
281.035
280.653
280.327
284.711
284.425
283.895
283.274
282.65
282.054
281.502
281.002
280.554
280.168
285.242
284.883
284.263
283.536
282.82
282.143
281.521
280.958
280.455
280.021
285.836
285.345
284.643
283.807
283.01
282.262
281.584
280.973
280.427
279.954
286.408
285.699
284.946
283.998
283.139
282.334
281.614
280.971
280.401
279.905
287.443
286.512
285.772
284.749
283.857
283.019
282.276
281.611
281.023
280.505
282.894
283.048
283.045
282.975
282.883
282.789
282.701
282.623
282.561
282.52
282.849
282.773
282.651
282.502
282.34
282.177
282.023
281.885
281.77
281.679
282.926
282.836
282.667
282.454
282.221
281.987
281.765
281.563
281.388
281.243
283.16
283.064
282.85
282.569
282.261
281.951
281.654
281.381
281.14
280.936
283.448
283.349
283.086
282.734
282.348
281.96
281.589
281.246
280.94
280.678
283.855
283.747
283.428
282.997
282.529
282.062
281.617
281.205
280.835
280.516
284.28
284.139
283.756
283.237
282.686
282.141
281.627
281.154
280.729
280.363
284.761
284.549
284.103
283.493
282.867
282.254
281.683
281.162
280.692
280.287
285.214
284.868
284.374
283.671
282.985
282.319
281.706
281.151
280.657
280.227
286.14
285.662
285.162
284.395
283.675
282.975
282.339
281.763
281.25
280.798
282.577
282.767
282.798
282.768
282.72
282.668
282.618
282.574
282.538
282.516
282.505
282.469
282.405
282.321
282.225
282.126
282.029
281.941
281.866
281.807
282.539
282.498
282.405
282.277
282.13
281.975
281.824
281.683
281.56
281.458
282.704
282.666
282.545
282.369
282.162
281.944
281.729
281.528
281.348
281.196
282.914
282.885
282.734
282.504
282.234
281.949
281.668
281.404
281.165
280.962
283.231
283.208
283.022
282.732
282.393
282.039
281.69
281.362
281.065
280.809
283.56
283.531
283.301
282.942
282.532
282.107
281.694
281.308
280.959
280.657
283.941
283.881
283.607
283.176
282.7
282.213
281.746
281.312
280.92
280.58
284.284
284.152
283.84
283.337
282.806
282.27
281.763
281.296
280.878
280.514
285.112
284.91
284.584
284.029
283.465
282.898
282.367
281.88
281.443
281.058
282.36
282.566
282.613
282.603
282.579
282.551
282.523
282.499
282.479
282.468
282.278
282.26
282.227
282.181
282.126
282.067
282.008
281.954
281.907
281.87
282.283
282.265
282.215
282.139
282.048
281.949
281.849
281.755
281.671
281.602
282.393
282.381
282.314
282.205
282.07
281.922
281.771
281.627
281.498
281.387
282.541
282.541
282.456
282.309
282.125
281.922
281.716
281.518
281.339
281.185
282.783
282.796
282.69
282.499
282.26
281.999
281.734
281.481
281.249
281.049
283.03
283.049
282.915
282.673
282.376
282.054
281.733
281.427
281.147
280.906
283.326
283.338
283.176
282.88
282.528
282.152
281.781
281.431
281.111
280.833
283.577
283.559
283.368
283.019
282.62
282.2
281.792
281.41
281.064
280.764
284.319
284.269
284.064
283.675
283.246
282.798
282.368
281.966