/*--------------------------------*- C++ -*----------------------------------*\
| =========                 |                                                 |
| \\      /  F ield         | foam-extend: Open Source CFD                    |
|  \\    /   O peration     | Version:     4.0                                |
|   \\  /    A nd           | Web:         http://www.foam-extend.org         |
|    \\/     M anipulation  |                                                 |
\*---------------------------------------------------------------------------*/
FoamFile
{
    version     2.0;
    format      ascii;
    class       volVectorField;
    location    "1200";
    object      Urel;
}
// * * * * * * * * * * * * * * * * * * * * * * * * * * * * * * * * * * * * * //

dimensions      [0 1 -1 0 0 0 0];

internalField   nonuniform List<vector> 
34480
(
(211.53 -5.14647 -19.9217)
(213.145 -5.9368 -24.5216)
(214.569 -6.49178 -29.7989)
(215.811 -6.80701 -36.0346)
(216.849 -6.87665 -43.6281)
(217.449 -6.68512 -53.0623)
(216.747 -6.20253 -64.6882)
(212.433 -5.49417 -79.0076)
(199.616 -4.88719 -98.5609)
(167.58 -4.34371 -119.308)
(213.604 -5.44018 -26.9057)
(215.526 -5.11507 -30.989)
(217.222 -4.75921 -35.465)
(218.683 -4.34825 -40.6066)
(219.99 -3.89344 -46.8836)
(221.115 -3.42444 -54.9926)
(221.539 -2.94741 -65.7273)
(219.494 -2.47803 -79.9298)
(210.432 -2.33936 -101.321)
(180.077 -2.7656 -129.848)
(214.762 -9.97474 -31.9472)
(216.952 -8.95497 -35.805)
(218.966 -7.97239 -39.9454)
(220.807 -7.00414 -44.6357)
(222.55 -6.04994 -50.3115)
(224.274 -5.15329 -57.781)
(225.669 -4.33885 -68.133)
(225.25 -3.59851 -82.5256)
(218.917 -3.2294 -105.399)
(190.202 -3.56129 -140.384)
(215.025 -13.6802 -37.4794)
(217.692 -12.1965 -41.3931)
(220.215 -10.766 -45.57)
(222.607 -9.35779 -50.2414)
(224.891 -7.97934 -55.7994)
(227.159 -6.67622 -63.0419)
(229.234 -5.48593 -73.2087)
(229.911 -4.40698 -87.7952)
(225.516 -3.75483 -111.786)
(197.864 -3.96012 -151.57)
(215.207 -18.362 -42.9495)
(218.298 -16.603 -46.9805)
(221.262 -14.898 -51.3201)
(224.13 -13.1917 -56.1114)
(226.902 -11.5156 -61.7493)
(229.652 -9.91743 -68.9784)
(232.275 -8.44994 -79.1185)
(233.808 -7.11888 -93.9927)
(230.911 -6.26564 -119.049)
(203.863 -6.44199 -162.655)
(215.028 -22.0709 -49.4759)
(218.445 -20.0179 -53.605)
(221.732 -18.0206 -58.0593)
(224.951 -15.9924 -62.9363)
(228.096 -13.9712 -68.6417)
(231.224 -11.9951 -75.8675)
(234.272 -10.1214 -85.9668)
(236.474 -8.37315 -101.074)
(234.741 -7.16024 -127.11)
(207.906 -7.20012 -173.944)
(215.008 -27.0834 -55.805)
(218.635 -24.8362 -60.0651)
(222.11 -22.6164 -64.6874)
(225.528 -20.326 -69.6972)
(228.893 -18.0204 -75.5125)
(232.261 -15.7253 -82.7678)
(235.617 -13.4831 -92.8229)
(238.412 -11.2883 -108.108)
(237.78 -9.51807 -135.02)
(211.285 -8.96446 -184.619)
(214.751 -30.8395 -63.422)
(218.463 -28.3179 -67.7239)
(221.993 -25.7852 -72.3815)
(225.461 -23.1497 -77.4121)
(228.874 -20.461 -83.2101)
(232.298 -17.7232 -90.3483)
(235.781 -14.9344 -100.141)
(239.045 -12.0536 -115.239)
(239.568 -9.44534 -142.565)
(213.851 -7.97588 -194.302)
(214.781 -36.7496 -70.3228)
(218.502 -33.9954 -74.6665)
(222.03 -31.1392 -79.4079)
(225.511 -28.1413 -84.5491)
(228.947 -25.073 -90.4874)
(232.384 -21.9271 -97.704)
(235.89 -18.6489 -107.404)
(239.466 -15.0976 -122.272)
(241.074 -11.381 -149.881)
(216.238 -8.26336 -203.046)
(213.711 -41.1551 -78.2792)
(217.441 -38.0892 -82.4766)
(220.987 -34.9078 -87.0972)
(224.47 -31.5598 -92.15)
(227.842 -28.0583 -98.0103)
(231.117 -24.3661 -105.126)
(234.397 -20.3876 -114.585)
(237.998 -15.9261 -128.771)
(240.815 -11.0257 -155.833)
(217.902 -6.24714 -209.245)
(203.742 6.12697 1.59412)
(204.675 4.58814 -1.8245)
(205.109 3.23746 -5.72297)
(204.93 2.10258 -10.1626)
(203.951 1.18102 -15.2974)
(201.844 0.483607 -21.2522)
(198.102 0.00809949 -28.0771)
(192.072 -0.272417 -35.5831)
(182.309 -0.420208 -42.8039)
(163.686 -0.561552 -45.3317)
(207.674 9.59597 1.64049)
(209.058 8.6535 -1.36537)
(210.024 7.69081 -4.75918)
(210.418 6.76382 -8.59731)
(210.104 5.87459 -13.0773)
(208.794 5.00568 -18.4899)
(205.88 4.13697 -25.2245)
(200.442 3.26171 -33.5457)
(191.03 2.3469 -43.3888)
(171.226 1.26929 -50.4021)
(209.966 9.13802 3.72609)
(211.701 8.43279 0.974569)
(213.089 7.64984 -2.10246)
(214.03 6.81485 -5.67424)
(214.387 5.95595 -9.90306)
(213.936 5.05144 -15.1754)
(212.09 4.07423 -22.0959)
(207.708 3.00551 -31.3329)
(199.131 1.81257 -43.6884)
(178.443 0.40529 -55.7551)
(210.965 9.4793 5.47607)
(213.191 8.83976 2.81363)
(215.124 8.10023 -0.186479)
(216.693 7.28083 -3.72584)
(217.735 6.40784 -7.96615)
(218.036 5.46424 -13.3061)
(217.047 4.42337 -20.4574)
(213.561 3.25682 -30.4201)
(205.774 1.89871 -44.849)
(184.357 0.258911 -61.8289)
(211.627 8.83713 7.38883)
(214.288 8.09673 4.77928)
(216.698 7.24756 1.75641)
(218.8 6.33103 -1.81806)
(220.437 5.34844 -6.16449)
(221.386 4.28555 -11.6513)
(221.131 3.10474 -19.0588)
(218.462 1.77515 -29.677)
(211.44 0.218027 -45.92)
(189.383 -1.62777 -67.6383)
(211.793 9.20484 8.28323)
(214.805 8.38353 5.76293)
(217.581 7.43782 2.78512)
(220.091 6.44177 -0.751639)
(222.199 5.38836 -5.12292)
(223.673 4.2781 -10.673)
(224.028 3.07299 -18.2239)
(222.083 1.73849 -29.3147)
(215.763 0.152833 -46.9826)
(193.006 -1.77954 -72.915)
(212.015 8.23446 9.42562)
(215.27 7.23641 6.97009)
(218.286 6.13267 3.99178)
(221.063 5.01359 0.458185)
(223.495 3.85116 -3.95213)
(225.36 2.6572 -9.55893)
(226.219 1.39649 -17.2074)
(224.974 0.0520207 -28.6729)
(219.435 -1.46486 -47.5745)
(196.195 -3.28605 -77.4724)
(211.922 8.54522 9.29289)
(215.303 7.44158 6.9993)
(218.437 6.25925 4.17011)
(221.351 5.08972 0.772742)
(223.961 3.90716 -3.51723)
(226.07 2.73727 -9.00188)
(227.303 1.57475 -16.5167)
(226.707 0.432725 -28.0109)
(222.108 -0.776935 -47.7019)
(198.88 -2.40111 -81.1149)
(211.974 6.7002 9.86089)
(215.384 5.42578 7.74197)
(218.557 4.15884 5.03728)
(221.553 2.94751 1.73273)
(224.312 1.74692 -2.54246)
(226.647 0.582154 -8.06542)
(228.2 -0.522349 -15.6247)
(228.167 -1.49067 -27.13)
(224.555 -2.20433 -47.5354)
(201.533 -3.23064 -83.9782)
(211.012 6.48964 9.29127)
(214.432 5.0971 7.46427)
(217.648 3.74552 5.07439)
(220.686 2.45559 2.0604)
(223.472 1.2402 -1.92693)
(225.839 0.146125 -7.20049)
(227.501 -0.75791 -14.5704)
(227.833 -1.31838 -25.6741)
(225.368 -1.36463 -46.2527)
(203.351 -1.23435 -84.6432)
(197.971 4.88963 0.481658)
(198.468 3.71678 -2.185)
(198.441 2.69458 -5.11389)
(197.814 1.83653 -8.31759)
(196.452 1.15882 -11.7535)
(194.178 0.669744 -15.3206)
(190.774 0.354219 -18.8201)
(186.003 0.158934 -21.9272)
(179.512 0.00484203 -23.9033)
(170.622 -0.214329 -22.9753)
(202.777 8.20666 0.456231)
(203.71 7.43402 -2.09121)
(204.165 6.62944 -4.90974)
(204.012 5.84106 -8.00877)
(203.08 5.07943 -11.4271)
(201.106 4.34198 -15.1516)
(197.71 3.61791 -19.1098)
(192.384 2.8914 -23.0802)
(184.424 2.14711 -26.3941)
(172.831 1.34875 -27.0531)
(205.767 7.96581 2.37949)
(207.082 7.34416 -0.0938551)
(207.967 6.63821 -2.84909)
(208.305 5.88158 -5.96308)
(207.93 5.09599 -9.5004)
(206.551 4.26996 -13.5667)
(203.657 3.38999 -18.2369)
(198.479 2.44233 -23.4328)
(189.925 1.41468 -28.6269)
(176.023 0.280955 -31.7069)
(207.347 8.41885 3.99918)
(209.136 7.84232 1.53379)
(210.541 7.16254 -1.23696)
(211.46 6.39855 -4.46813)
(211.694 5.58078 -8.21418)
(210.934 4.69379 -12.656)
(208.584 3.7243 -17.9789)
(203.652 2.65632 -24.2827)
(194.689 1.46771 -31.2837)
(178.676 0.133134 -37.1047)
(208.442 7.837 5.88554)
(210.659 7.16201 3.41891)
(212.532 6.38096 0.569898)
(213.97 5.52319 -2.79571)
(214.762 4.60206 -6.77981)
(214.587 3.59955 -11.5893)
(212.79 2.49184 -17.5111)
(208.204 1.25747 -24.8495)
(199.036 -0.127734 -33.6106)
(181.177 -1.65573 -42.4694)
(208.946 8.28893 6.80119)
(211.521 7.54089 4.39099)
(213.774 6.67345 1.55157)
(215.629 5.74176 -1.83565)
(216.888 4.75355 -5.9357)
(217.218 3.70224 -10.9689)
(215.932 2.56144 -17.3107)
(211.736 1.30321 -25.4831)
(202.507 -0.125241 -35.7924)
(183.055 -1.7418 -47.7169)
(209.419 7.34973 8.03034)
(212.255 6.43846 5.66315)
(214.775 5.42928 2.7986)
(216.929 4.39092 -0.625099)
(218.541 3.31166 -4.83278)
(219.282 2.19302 -10.051)
(218.463 1.00803 -16.7324)
(214.726 -0.26676 -25.6353)
(205.637 -1.66554 -37.4094)
(184.91 -3.21557 -52.5118)
(209.516 7.72243 7.9947)
(212.504 6.71279 5.77734)
(215.18 5.63189 3.05257)
(217.52 4.55298 -0.250204)
(219.373 3.46662 -4.37938)
(220.424 2.38426 -9.57168)
(220.017 1.29766 -16.3306)
(216.796 0.201389 -25.6326)
(208.091 -0.941473 -38.5383)
(186.496 -2.38316 -56.6082)
(209.679 5.91075 8.6471)
(212.711 4.72577 6.58207)
(215.446 3.55253 3.96985)
(217.888 2.42817 0.764826)
(219.924 1.3317 -3.34258)
(221.261 0.277308 -8.60812)
(221.264 -0.714187 -15.5633)
(218.6 -1.60802 -25.2424)
(210.42 -2.2965 -39.2458)
(188.055 -3.30021 -59.8586)
(208.892 5.87259 8.12938)
(211.932 4.55369 6.30954)
(214.713 3.29562 3.98903)
(217.201 2.09165 1.05826)
(219.277 0.975063 -2.76705)
(220.67 -0.0128236 -7.76513)
(220.888 -0.80384 -14.5461)
(218.722 -1.28963 -24.1194)
(211.31 -1.30582 -38.7928)
(188.612 -1.2025 -60.8191)
(193.873 3.81389 -0.0763627)
(194.108 2.99833 -1.95193)
(193.902 2.28293 -3.94919)
(193.212 1.68072 -6.03988)
(191.981 1.20658 -8.13558)
(190.151 0.862855 -10.113)
(187.699 0.634165 -11.7875)
(184.685 0.470481 -12.916)
(181.246 0.291979 -13.0901)
(177.327 0.0122722 -11.7197)
(198.804 6.81368 -0.262489)
(199.387 6.23536 -2.26077)
(199.512 5.61395 -4.39945)
(199.088 4.98581 -6.68035)
(198 4.37041 -9.05788)
(196.102 3.77169 -11.4216)
(193.226 3.18348 -13.5871)
(189.234 2.59411 -15.256)
(184.036 1.99887 -15.8608)
(177.772 1.40872 -14.6508)
(202.104 6.76222 1.36727)
(203.048 6.24776 -0.728441)
(203.543 5.64498 -3.03131)
(203.482 4.99179 -5.55174)
(202.725 4.30635 -8.28942)
(201.064 3.58633 -11.2006)
(198.208 2.82455 -14.1518)
(193.817 2.01171 -16.8339)
(187.563 1.14291 -18.5305)
(179.315 0.23169 -18.1417)
(204.057 7.3375 2.75471)
(205.435 6.84299 0.57608)
(206.386 6.24124 -1.85225)
(206.795 5.55773 -4.61432)
(206.483 4.81894 -7.71016)
(205.184 4.01807 -11.162)
(202.487 3.15108 -14.889)
(197.843 2.20908 -18.6135)
(190.648 1.18175 -21.5303)
(180.383 0.0821546 -22.3277)
(205.481 6.82018 4.53459)
(207.264 6.22309 2.28823)
(208.642 5.52172 -0.286648)
(209.509 4.74178 -3.29153)
(209.649 3.90141 -6.74034)
(208.756 2.98492 -10.7109)
(206.316 1.98221 -15.1883)
(201.575 0.880364 -19.9732)
(193.618 -0.333011 -24.2279)
(181.452 -1.6201 -26.6263)
(206.267 7.356 5.4089)
(208.401 6.69003 3.17319)
(210.146 5.90969 0.559941)
(211.405 5.0583 -2.54317)
(211.951 4.15277 -6.20037)
(211.447 3.18331 -10.5249)
(209.295 2.13702 -15.5768)
(204.556 0.99585 -21.2701)
(195.983 -0.272119 -26.7818)
(182.051 -1.65266 -30.9483)
(206.963 6.44913 6.67831)
(209.364 5.62836 4.45238)
(211.384 4.71754 1.77716)
(212.943 3.76883 -1.41939)
(213.822 2.78332 -5.26276)
(213.667 1.7555 -9.89163)
(211.824 0.670108 -15.4475)
(207.205 -0.490985 -21.9966)
(198.22 -1.75426 -28.801)
(182.741 -3.10551 -35.0152)
(207.234 6.90052 6.70421)
(209.805 5.9874 4.60646)
(212.003 5.00842 2.04904)
(213.769 4.02203 -1.05945)
(214.903 3.03351 -4.87929)
(215.05 2.04443 -9.57888)
(213.532 1.05028 -15.3715)
(209.157 0.0416347 -22.4982)
(200.021 -1.01467 -30.401)
(183.297 -2.30457 -38.6688)
(207.49 5.13514 7.46512)
(210.123 4.04808 5.49323)
(212.397 2.9715 3.02209)
(214.276 1.93465 -0.00604443)
(215.594 0.936168 -3.81486)
(216.015 -0.0157999 -8.61435)
(214.867 -0.896141 -14.6966)
(210.878 -1.6887 -22.4159)
(201.824 -2.33118 -31.5113)
(183.933 -3.26003 -41.6738)
(206.82 5.2684 7.00095)
(209.472 4.04475 5.24029)
(211.804 2.89086 3.03513)
(213.746 1.78452 0.255604)
(215.133 0.775474 -3.29635)
(215.643 -0.102446 -7.84472)
(214.694 -0.776886 -13.7692)
(211.081 -1.16551 -21.5508)
(202.444 -1.14206 -31.5217)
(183.686 -1.05414 -42.7192)
(191.345 2.89912 -0.303229)
(191.459 2.369 -1.52761)
(191.255 1.89491 -2.80298)
(190.718 1.49059 -4.08572)
(189.836 1.16626 -5.29915)
(188.607 0.922276 -6.35101)
(187.071 0.747935 -7.12075)
(185.362 0.603333 -7.49178)
(183.762 0.420729 -7.29315)
(182.445 0.119232 -6.33402)
(195.843 5.51201 -0.632394)
(196.2 5.1167 -2.09984)
(196.177 4.66806 -3.61591)
(195.723 4.1951 -5.17722)
(194.779 3.72099 -6.7161)
(193.288 3.25342 -8.12284)
(191.204 2.79224 -9.23912)
(188.539 2.33193 -9.85671)
(185.401 1.87551 -9.67077)
(182.121 1.44703 -8.4555)
(199.068 5.58917 0.67738)
(199.731 5.18713 -1.00566)
(199.983 4.69745 -2.82002)
(199.747 4.15719 -4.74128)
(198.93 3.58375 -6.73108)
(197.414 2.98065 -8.69207)
(195.071 2.3453 -10.4576)
(191.809 1.67356 -11.7535)
(187.641 0.967212 -12.1055)
(182.928 0.253605 -11.037)
(201.157 6.27562 1.78351)
(202.193 5.8726 -0.0569502)
(202.81 5.36243 -2.0808)
(202.909 4.77375 -4.31799)
(202.353 4.13117 -6.73038)
(200.96 3.43516 -9.25432)
(198.499 2.68705 -11.7225)
(194.732 1.88416 -13.8133)
(189.524 1.02435 -14.8725)
(183.209 0.138984 -14.1868)
(202.762 5.81788 3.40128)
(204.166 5.3076 1.43186)
(205.15 4.69516 -0.804696)
(205.61 4.0079 -3.35784)
(205.369 3.26273 -6.19506)
(204.188 2.45131 -9.29391)
(201.731 1.5715 -12.5064)
(197.594 0.6169 -15.5002)
(191.43 -0.41883 -17.4547)
(183.481 -1.48548 -17.4986)
(203.733 6.4327 4.1839)
(205.47 5.85669 2.17723)
(206.787 5.17075 -0.144784)
(207.584 4.41274 -2.86687)
(207.654 3.60361 -5.97903)
(206.714 2.73543 -9.50128)
(204.329 1.80425 -13.3225)
(199.924 0.79831 -17.1352)
(192.897 -0.304911 -19.9812)
(183.334 -1.47504 -20.9182)
(204.59 5.55833 5.45009)
(206.59 4.83402 3.41508)
(208.172 4.02544 0.990275)
(209.246 3.17502 -1.88421)
(209.593 2.29199 -5.25012)
(208.898 1.36973 -9.15881)
(206.645 0.40121 -13.5563)
(202.097 -0.627846 -18.1998)
(194.359 -1.74207 -22.0481)
(183.286 -2.90687 -24.1799)
(204.999 6.09642 5.50157)
(207.179 5.28678 3.56609)
(208.946 4.41395 1.22873)
(210.226 3.52724 -1.59989)
(210.805 2.64173 -4.99805)
(210.351 1.75627 -9.0552)
(208.291 0.869146 -13.7803)
(203.748 -0.0333604 -19.0342)
(195.517 -0.986482 -23.7739)
(183.118 -2.11419 -27.1767)
(205.347 4.37622 6.3586)
(207.605 3.39745 4.51812)
(209.459 2.42503 2.23127)
(210.854 1.48562 -0.551229)
(211.599 0.590299 -3.96893)
(211.369 -0.253781 -8.15681)
(209.569 -1.02297 -13.2195)
(205.204 -1.71507 -19.1259)
(196.724 -2.29741 -24.9408)
(183.07 -3.10716 -29.6636)
(204.775 4.68091 5.9218)
(207.061 3.57013 4.2653)
(208.983 2.53033 2.21602)
(210.45 1.53482 -0.350446)
(211.276 0.642513 -3.55367)
(211.138 -0.117066 -7.54413)
(209.485 -0.67523 -12.4997)
(205.317 -0.969096 -18.5113)
(196.924 -0.915033 -25.1094)
(182.262 -0.835484 -30.5248)
(189.979 2.14665 -0.346641)
(190.039 1.8202 -1.09929)
(189.89 1.51953 -1.87299)
(189.531 1.25742 -2.62535)
(188.967 1.03957 -3.30525)
(188.215 0.866077 -3.85549)
(187.322 0.731575 -4.20508)
(186.416 0.606494 -4.31181)
(185.789 0.436224 -4.09794)
(185.727 0.134058 -3.5289)
(193.781 4.36298 -0.77088)
(193.997 4.11968 -1.78994)
(193.927 3.81758 -2.80503)
(193.546 3.47968 -3.81304)
(192.835 3.12892 -4.75414)
(191.781 2.775 -5.54854)
(190.395 2.42293 -6.09257)
(188.728 2.07311 -6.26845)
(186.897 1.7336 -5.92964)
(185.134 1.42752 -5.04316)
(196.68 4.49525 0.248218)
(197.133 4.19854 -1.03791)
(197.245 3.81906 -2.39533)
(196.967 3.38948 -3.78945)
(196.247 2.92638 -5.1701)
(195.034 2.43635 -6.43975)
(193.294 1.92063 -7.46123)
(191.043 1.38 -8.04896)
(188.393 0.82179 -7.94493)
(185.667 0.273497 -6.97411)
(198.711 5.26783 1.06507)
(199.471 4.95726 -0.423444)
(199.854 4.54396 -2.03227)
(199.784 4.05594 -3.76127)
(199.174 3.51655 -5.55407)
(197.918 2.93099 -7.31885)
(195.913 2.30393 -8.88986)
(193.101 1.63807 -10.0128)
(189.544 0.939257 -10.276)
(185.66 0.242752 -9.33482)
(200.363 4.8574 2.49032)
(201.441 4.43698 0.827586)
(202.12 3.91909 -1.03939)
(202.31 3.33146 -3.11753)
(201.882 2.68927 -5.352)
(200.677 1.99068 -7.66775)
(198.509 1.23805 -9.88565)
(195.212 0.430714 -11.7009)
(190.748 -0.42972 -12.5275)
(185.599 -1.29144 -11.8646)
(201.428 5.54075 3.14559)
(202.809 5.05851 1.40453)
(203.773 4.47138 -0.587459)
(204.227 3.81526 -2.87785)
(204.007 3.11059 -5.4175)
(202.903 2.3538 -8.16196)
(200.642 1.54605 -10.9352)
(196.933 0.680893 -13.4062)
(191.583 -0.253714 -14.8163)
(185.107 -1.21966 -14.5282)
(202.383 4.6968 4.37123)
(204.014 4.07267 2.56496)
(205.218 3.3689 0.433253)
(205.907 2.62297 -2.05801)
(205.89 1.84781 -4.89356)
(204.92 1.03874 -8.05709)
(202.638 0.193863 -11.3985)
(198.62 -0.697214 -14.5922)
(192.469 -1.65173 -16.7304)
(184.681 -2.6225 -17.0731)
(202.888 5.3244 4.41367)
(204.701 4.62344 2.67528)
(206.084 3.86061 0.598001)
(206.959 3.08046 -1.88941)
(207.128 2.30301 -4.80135)
(206.316 1.5279 -8.15808)
(204.095 0.75496 -11.8502)
(199.906 -0.0325219 -15.5954)
(193.114 -0.866866 -18.3883)
(184.108 -1.81521 -19.4281)
(203.311 3.64465 5.34382)
(205.213 2.78119 3.6669)
(206.689 1.91867 1.59955)
(207.675 1.0849 -0.885261)
(207.98 0.297246 -3.8574)
(207.324 -0.43602 -7.37502)
(205.239 -1.09501 -11.4127)
(201.047 -1.68853 -15.7635)
(193.826 -2.19935 -19.4251)
(183.657 -2.85958 -21.3128)
(202.811 4.12204 4.90874)
(204.748 3.13571 3.39219)
(206.298 2.21684 1.5331)
(207.359 1.34098 -0.77105)
(207.745 0.569959 -3.57559)
(207.168 -0.0693545 -6.95814)
(205.168 -0.516719 -10.95)
(201.018 -0.727726 -15.4114)
(193.663 -0.655363 -19.6447)
(182.533 -0.572706 -21.9209)
(189.397 1.54606 -0.306019)
(189.436 1.35253 -0.747468)
(189.344 1.16751 -1.20083)
(189.128 1.00232 -1.62984)
(188.796 0.859277 -2.00547)
(188.364 0.738932 -2.29526)
(187.872 0.639824 -2.45689)
(187.424 0.539071 -2.48559)
(187.293 0.391146 -2.33099)
(187.87 0.0997069 -2.02397)
(192.452 3.39601 -0.776201)
(192.584 3.26648 -1.45203)
(192.517 3.07849 -2.10002)
(192.24 2.84972 -2.72036)
(191.751 2.60085 -3.26947)
(191.058 2.34202 -3.69652)
(190.185 2.08129 -3.94193)
(189.183 1.82316 -3.94679)
(188.132 1.57812 -3.64464)
(187.168 1.36387 -3.05733)
(194.891 3.51581 0.00784058)
(195.197 3.30859 -0.932144)
(195.238 3.02698 -1.90346)
(194.989 2.69777 -2.87413)
(194.425 2.33584 -3.79817)
(193.532 1.94885 -4.59897)
(192.319 1.54064 -5.18116)
(190.833 1.11535 -5.43339)
(189.182 0.682803 -5.22683)
(187.577 0.266024 -4.51446)
(196.73 4.34253 0.556835)
(197.275 4.11761 -0.598453)
(197.504 3.79774 -1.82271)
(197.366 3.40811 -3.10429)
(196.81 2.97057 -4.38523)
(195.788 2.49299 -5.57837)
(194.267 1.98223 -6.55199)
(192.269 1.44479 -7.13299)
(189.907 0.891536 -7.09101)
(187.494 0.354468 -6.27938)
(198.315 3.96265 1.78208)
(199.125 3.62881 0.427998)
(199.579 3.20499 -1.07238)
(199.609 2.71678 -2.70137)
(199.131 2.17837 -4.39738)
(198.052 1.59238 -6.07149)
(196.286 0.963973 -7.56277)
(193.8 0.297034 -8.63923)
(190.676 -0.400355 -8.93637)
(187.332 -1.08191 -8.19897)
(199.389 4.69917 2.29086)
(200.462 4.30912 0.829967)
(201.148 3.82095 -0.820569)
(201.369 3.26881 -2.67522)
(201.005 2.67081 -4.6721)
(199.92 2.028 -6.73425)
(197.962 1.34442 -8.68311)
(195.021 0.618462 -10.2392)
(191.109 -0.152467 -10.89)
(186.74 -0.93136 -10.2578)
(200.381 3.88129 3.44775)
(201.684 3.35688 1.89132)
(202.575 2.75753 0.0729972)
(202.979 2.11796 -2.01183)
(202.745 1.45151 -4.31889)
(201.696 0.75693 -6.7902)
(199.611 0.0355553 -9.24836)
(196.286 -0.718457 -11.3863)
(191.615 -1.51302 -12.5451)
(186.186 -2.29815 -12.2181)
(200.937 4.59649 3.45207)
(202.413 4.00532 1.93357)
(203.468 3.35347 0.139585)
(204.026 2.68303 -1.97577)
(203.923 2.01528 -4.38538)
(202.95 1.35203 -7.06092)
(200.821 0.694559 -9.84256)
(197.224 0.0265842 -12.4263)
(191.9 -0.679504 -14.0296)
(185.449 -1.45244 -14.0349)
(201.413 2.95005 4.43188)
(202.985 2.2044 2.94159)
(204.133 1.45415 1.11744)
(204.792 0.729804 -1.03973)
(204.79 0.0504355 -3.54989)
(203.906 -0.573983 -6.40926)
(201.807 -1.12702 -9.51751)
(198.084 -1.62258 -12.6083)
(192.272 -2.05169 -14.8621)
(184.842 -2.56592 -15.3862)
(200.961 3.60198 3.97501)
(202.573 2.74598 2.62435)
(203.795 1.95118 0.980514)
(204.524 1.19872 -1.02932)
(204.593 0.548293 -3.41351)
(203.765 0.024611 -6.18937)
(201.695 -0.322791 -9.29817)
(197.907 -0.465232 -12.4946)
(191.846 -0.384407 -15.1249)
(183.612 -0.300522 -15.8228)
(189.285 1.07918 -0.235468)
(189.315 0.966789 -0.484466)
(189.266 0.854645 -0.745219)
(189.144 0.752968 -0.98637)
(188.959 0.661489 -1.19434)
(188.722 0.581131 -1.35141)
(188.461 0.512874 -1.42976)
(188.26 0.437666 -1.4424)
(188.371 0.315531 -1.34282)
(189.274 0.0397281 -1.19385)
(191.668 2.6149 -0.715791)
(191.75 2.56333 -1.1469)
(191.702 2.45806 -1.54305)
(191.519 2.31224 -1.90826)
(191.206 2.14363 -2.21451)
(190.772 1.96184 -2.43156)
(190.243 1.77588 -2.52719)
(189.653 1.59202 -2.47351)
(189.055 1.42135 -2.24138)
(188.519 1.2764 -1.86004)
(193.617 2.67274 -0.105547)
(193.821 2.53474 -0.766981)
(193.832 2.3333 -1.43702)
(193.636 2.08929 -2.09001)
(193.227 1.81516 -2.69015)
(192.608 1.51825 -3.18441)
(191.799 1.20355 -3.5128)
(190.846 0.876492 -3.61328)
(189.828 0.546769 -3.42309)
(188.868 0.232073 -2.94035)
(195.187 3.52123 0.213635)
(195.571 3.36938 -0.649689)
(195.704 3.13268 -1.54494)
(195.556 2.83277 -2.45908)
(195.101 2.48948 -3.34191)
(194.323 2.11189 -4.12426)
(193.226 1.70796 -4.71358)
(191.854 1.28618 -5.00177)
(190.309 0.859142 -4.86696)
(188.792 0.45315 -4.25255)
(196.625 3.15369 1.24874)
(197.219 2.89785 0.182357)
(197.515 2.56169 -0.982142)
(197.464 2.16722 -2.21646)
(197.016 1.72773 -3.46262)
(196.125 1.24856 -4.63968)
(194.766 0.736567 -5.62284)
(192.961 0.198576 -6.25273)
(190.819 -0.354044 -6.3172)
(188.634 -0.883345 -5.69716)
(197.637 3.92455 1.60716)
(198.453 3.62013 0.420363)
(198.929 3.22649 -0.901304)
(199.003 2.77433 -2.35223)
(198.598 2.28024 -3.86907)
(197.632 1.74842 -5.36965)
(196.039 1.18463 -6.70257)
(193.803 0.591012 -7.65869)
(191.013 -0.0285318 -7.91817)
(188.063 -0.643236 -7.27539)
(198.613 3.12679 2.67713)
(199.631 2.69725 1.37441)
(200.275 2.19844 -0.1319)
(200.48 1.66267 -1.82039)
(200.141 1.10168 -3.63916)
(199.142 0.518225 -5.51105)
(197.364 -0.0844248 -7.27199)
(194.734 -0.707666 -8.67219)
(191.291 -1.3517 -9.27593)
(187.521 -1.97046 -8.76588)
(199.174 3.92355 2.62184)
(200.352 3.43882 1.33269)
(201.137 2.89532 -0.172261)
(201.462 2.33339 -1.91371)
(201.201 1.773 -3.8434)
(200.21 1.21867 -5.90492)
(198.317 0.673176 -7.93388)
(195.379 0.123365 -9.66238)
(191.347 -0.453037 -10.542)
(186.767 -1.06625 -10.1517)
(199.683 2.30129 3.63059)
(200.956 1.67142 2.33954)
(201.828 1.03213 0.769428)
(202.237 0.416551 -1.05209)
(202.045 -0.157679 -3.11479)
(201.087 -0.679087 -5.37357)
(199.151 -1.13396 -7.69832)
(196.02 -1.5366 -9.82742)
(191.522 -1.88065 -11.1674)
(186.17 -2.26592 -11.0832)
(199.256 3.12987 3.131)
(200.571 2.40474 1.96181)
(201.512 1.73321 0.547497)
(201.981 1.10283 -1.15441)
(201.843 0.567684 -3.12225)
(200.914 0.150202 -5.33046)
(198.962 -0.111383 -7.67701)
(195.709 -0.200964 -9.89393)
(190.927 -0.11927 -11.4665)
(184.947 -0.0404309 -11.4205)
(189.423 0.722837 -0.161035)
(189.448 0.657307 -0.29663)
(189.424 0.588956 -0.446968)
(189.36 0.527508 -0.582872)
(189.261 0.470589 -0.700697)
(189.135 0.419235 -0.790779)
(189.001 0.375679 -0.832205)
(188.927 0.322988 -0.846841)
(189.15 0.22488 -0.785297)
(190.219 -0.0349308 -0.728487)
(191.26 2.00616 -0.632132)
(191.313 2.00386 -0.897957)
(191.284 1.95491 -1.12969)
(191.171 1.86879 -1.33419)
(190.98 1.76043 -1.49539)
(190.72 1.63854 -1.59614)
(190.408 1.51192 -1.61961)
(190.067 1.387 -1.55269)
(189.728 1.27429 -1.38264)
(189.426 1.18203 -1.13344)
(192.752 1.97249 -0.139636)
(192.887 1.88354 -0.591071)
(192.888 1.74345 -1.04089)
(192.749 1.56775 -1.46934)
(192.469 1.36608 -1.85109)
(192.057 1.1447 -2.15167)
(191.535 0.908564 -2.33535)
(190.936 0.662907 -2.36916)
(190.312 0.415771 -2.22282)
(189.734 0.179796 -1.90794)
(194.032 2.81602 -0.00601168)
(194.297 2.72194 -0.629509)
(194.374 2.55444 -1.26147)
(194.245 2.33162 -1.89147)
(193.898 2.07087 -2.48019)
(193.335 1.78137 -2.97769)
(192.572 1.47129 -3.32367)
(191.653 1.14955 -3.45473)
(190.653 0.828379 -3.30907)
(189.695 0.528179 -2.86728)
(195.273 2.44412 0.859881)
(195.701 2.25444 0.0452589)
(195.891 1.99551 -0.831207)
(195.809 1.68526 -1.73931)
(195.43 1.33581 -2.62967)
(194.736 0.953841 -3.43736)
(193.732 0.546958 -4.07394)
(192.458 0.12331 -4.43755)
(191.01 -0.305158 -4.40996)
(189.579 -0.709239 -3.94019)
(196.174 3.22931 1.07621)
(196.782 3.00037 0.141644)
(197.105 2.69265 -0.882974)
(197.098 2.33246 -1.98257)
(196.714 1.93517 -3.09892)
(195.912 1.50685 -4.1587)
(194.674 1.05427 -5.04643)
(193.027 0.581845 -5.61801)
(191.073 0.0968363 -5.68385)
(189.082 -0.378305 -5.13961)
(197.093 2.44542 2.05054)
(197.871 2.1023 0.990437)
(198.325 1.69712 -0.22211)
(198.405 1.2583 -1.55093)
(198.04 0.796604 -2.94386)
(197.162 0.317363 -4.32324)
(195.72 -0.174828 -5.55526)
(193.713 -0.677884 -6.45501)
(191.229 -1.18731 -6.75182)
(188.624 -1.66404 -6.25866)
(197.62 3.31461 1.92213)
(198.539 2.92896 0.859222)
(199.11 2.48772 -0.36644)
(199.274 2.02893 -1.75572)
(198.945 1.56999 -3.25414)
(198.029 1.11791 -4.79338)
(196.438 0.676705 -6.22882)
(194.128 0.237284 -7.35025)
(191.152 -0.21698 -7.79765)
(187.929 -0.690847 -7.31124)
(198.14 1.70583 2.94354)
(199.15 1.18555 1.85365)
(199.797 0.652368 0.535561)
(200.027 0.140858 -0.96156)
(199.736 -0.334571 -2.61363)
(198.814 -0.761471 -4.35345)
(197.137 -1.12855 -6.05211)
(194.615 -1.4483 -7.485)
(191.234 -1.71324 -8.25172)
(187.431 -1.99244 -7.94505)
(197.719 2.71324 2.38322)
(198.768 2.11473 1.40088)
(199.476 1.56174 0.218996)
(199.754 1.04763 -1.17869)
(199.498 0.61873 -2.75508)
(198.58 0.294992 -4.45894)
(196.858 0.103987 -6.17802)
(194.191 0.0524819 -7.66785)
(190.542 0.1289 -8.56431)
(186.27 0.196574 -8.21498)
(189.67 0.452713 -0.0927472)
(189.691 0.413017 -0.16388)
(189.682 0.369875 -0.253435)
(189.649 0.333101 -0.332086)
(189.598 0.298602 -0.402482)
(189.532 0.267362 -0.45915)
(189.465 0.242168 -0.484339)
(189.454 0.207321 -0.504949)
(189.722 0.129416 -0.467155)
(190.868 -0.11629 -0.464191)
(191.093 1.5469 -0.548846)
(191.128 1.57335 -0.707591)
(191.113 1.56067 -0.835935)
(191.047 1.51551 -0.942276)
(190.935 1.45034 -1.01871)
(190.784 1.37286 -1.05589)
(190.604 1.29117 -1.04528)
(190.41 1.21121 -0.980498)
(190.218 1.14252 -0.855939)
(190.046 1.09008 -0.688367)
(192.193 1.40763 -0.128158)
(192.282 1.35069 -0.429009)
(192.281 1.25499 -0.725374)
(192.188 1.13145 -1.00235)
(192.006 0.986926 -1.24303)
(191.742 0.826263 -1.42578)
(191.413 0.653627 -1.52973)
(191.043 0.473255 -1.53757)
(190.662 0.290954 -1.43432)
(190.312 0.115057 -1.23418)
(193.197 2.22865 -0.137245)
(193.378 2.17721 -0.57347)
(193.424 2.06416 -1.00541)
(193.323 1.90442 -1.42631)
(193.074 1.71268 -1.80755)
(192.683 1.49744 -2.11492)
(192.167 1.2663 -2.31081)
(191.563 1.02765 -2.35931)
(190.921 0.792292 -2.23042)
(190.313 0.575771 -1.91899)
(194.223 1.83994 0.585643)
(194.526 1.70348 -0.0196205)
(194.646 1.50942 -0.661803)
(194.564 1.27174 -1.31356)
(194.266 1.00098 -1.93571)
(193.75 0.704133 -2.4798)
(193.032 0.388717 -2.88641)
(192.153 0.0629516 -3.09346)
(191.185 -0.262252 -3.03717)
(190.248 -0.565339 -2.69893)
(194.987 2.62058 0.676597)
(195.43 2.45503 -0.0372554)
(195.645 2.22197 -0.80746)
(195.601 1.94315 -1.61665)
(195.272 1.63242 -2.41526)
(194.641 1.29673 -3.14384)
(193.713 0.943198 -3.71978)
(192.531 0.57732 -4.04938)
(191.182 0.207422 -4.02462)
(189.844 -0.151885 -3.59674)
(195.821 1.84553 1.55422)
(196.403 1.57799 0.714774)
(196.717 1.25677 -0.235024)
(196.725 0.9056 -1.25393)
(196.383 0.534405 -2.29413)
(195.657 0.149783 -3.28708)
(194.535 -0.242953 -4.13169)
(193.046 -0.639464 -4.69963)
(191.287 -1.03327 -4.83142)
(189.498 -1.39249 -4.4207)
(196.281 2.77622 1.34688)
(196.983 2.47927 0.496582)
(197.388 2.13138 -0.471108)
(197.451 1.76674 -1.54667)
(197.114 1.40069 -2.67601)
(196.325 1.0413 -3.79218)
(195.046 0.693428 -4.77848)
(193.288 0.35151 -5.48251)
(191.137 0.00422229 -5.67819)
(188.891 -0.353258 -5.22033)
(196.797 1.16919 2.36995)
(197.581 0.748892 1.47327)
(198.049 0.313871 0.394067)
(198.159 -0.101755 -0.805299)
(197.838 -0.48713 -2.09702)
(197.017 -0.829686 -3.4075)
(195.635 -1.12042 -4.6257)
(193.676 -1.36968 -5.57507)
(191.195 -1.56775 -5.99984)
(188.524 -1.76544 -5.65757)
(196.366 2.35775 1.73392)
(197.183 1.87753 0.934463)
(197.703 1.43488 -0.0227279)
(197.848 1.02763 -1.13429)
(197.545 0.693349 -2.35884)
(196.71 0.449495 -3.63371)
(195.267 0.314425 -4.85623)
(193.165 0.288706 -5.82507)
(190.456 0.355833 -6.3038)
(187.447 0.409322 -5.87047)
(189.945 0.246142 -0.0326545)
(189.964 0.220104 -0.0682206)
(189.961 0.190834 -0.125715)
(189.945 0.168686 -0.174216)
(189.918 0.148209 -0.220408)
(189.884 0.130299 -0.260941)
(189.852 0.117967 -0.279465)
(189.87 0.096391 -0.306286)
(190.145 0.0348635 -0.282723)
(191.319 -0.198921 -0.312538)
(191.07 1.21111 -0.477246)
(191.093 1.2529 -0.568698)
(191.086 1.26237 -0.633814)
(191.049 1.24412 -0.681452)
(190.986 1.20866 -0.709)
(190.9 1.16273 -0.711524)
(190.797 1.11354 -0.684852)
(190.687 1.06637 -0.625709)
(190.58 1.02996 -0.531613)
(190.481 1.00697 -0.412995)
(191.848 0.962191 -0.0934447)
(191.906 0.924359 -0.290493)
(191.907 0.859251 -0.483698)
(191.848 0.773872 -0.661822)
(191.734 0.672572 -0.813974)
(191.57 0.558718 -0.926836)
(191.367 0.435403 -0.988232)
(191.141 0.305542 -0.988937)
(190.91 0.17268 -0.920911)
(190.696 0.041589 -0.797418)
(192.617 1.75238 -0.20821)
(192.739 1.73041 -0.503924)
(192.767 1.6582 -0.789764)
(192.695 1.54795 -1.06226)
(192.524 1.41162 -1.30189)
(192.261 1.25659 -1.48606)
(191.921 1.08942 -1.59189)
(191.53 0.917359 -1.59938)
(191.12 0.749443 -1.49451)
(190.735 0.597614 -1.27669)
(193.431 1.34035 0.398531)
(193.641 1.24469 -0.0398024)
(193.717 1.10292 -0.499144)
(193.647 0.925412 -0.957104)
(193.426 0.720922 -1.38433)
(193.057 0.495954 -1.74648)
(192.559 0.257357 -2.005)
(191.964 0.0125752 -2.12308)
(191.324 -0.229288 -2.06681)
(190.711 -0.45272 -1.83208)
(194.048 2.09999 0.385848)
(194.365 1.98532 -0.142995)
(194.506 1.81455 -0.70467)
(194.452 1.6051 -1.28352)
(194.189 1.36901 -1.84003)
(193.713 1.11319 -2.32906)
(193.041 0.844529 -2.69399)
(192.211 0.568613 -2.87618)
(191.293 0.293478 -2.8156)
(190.397 0.0275416 -2.49259)
(194.784 1.33144 1.17108)
(195.211 1.12753 0.523722)
(195.423 0.878914 -0.201156)
(195.396 0.604471 -0.963926)
(195.104 0.313102 -1.72391)
(194.533 0.0116563 -2.42551)
(193.69 -0.294465 -2.99624)
(192.614 -0.599862 -3.35071)