/*--------------------------------*- C++ -*----------------------------------*\
  =========                 |
  \\      /  F ield         | OpenFOAM: The Open Source CFD Toolbox
   \\    /   O peration     | Website:  https://openfoam.org
    \\  /    A nd           | Version:  6
     \\/     M anipulation  |
\*---------------------------------------------------------------------------*/
FoamFile
{
    version     2.0;
    format      ascii;
    class       volScalarField;
    location    "200";
    object      epsilon;
}
// * * * * * * * * * * * * * * * * * * * * * * * * * * * * * * * * * * * * * //

dimensions      [0 2 -3 0 0 0 0];

internalField   nonuniform List<scalar> 
3072
(
3.29346
7.53272
7.85459
7.00123
7.27772
13.457
63.8952
109.956
132.492
146.767
155.154
158.728
17.7061
15.4516
16.3652
27.6415
52.2273
60.1156
79.2869
93.797
98.2411
100.148
100.42
99.9208
30.7391
30.8481
44.2968
47.7535
53.5075
62.4391
73.7039
78.4221
80.9249
82.2323
82.3685
81.1221
37.9869
37.2274
45.2733
47.5337
53.2469
61.2229
67.2837
70.5422
72.4968
73.3823
73.398
72.3481
40.6602
39.1647
45.0738
47.2801
52.2851
58.4611
63.114
66.1295
67.9583
68.8142
68.8765
67.989
37.7477
37.1425
43.1595
46.0679
50.4882
55.8968
59.9786
62.7377
64.5638
65.5408
65.769
65.1575
32.7873
32.003
38.7315
43.5159
49.1341
54.2455
57.9184
60.4112
62.0841
63.1438
63.5255
63.1673
29.3568
26.7811
35.1129
43.4515
50.1571
55.1869
58.5069
60.5998
61.8208
62.484
62.632
62.2422
28.5291
25.5833
37.338
48.6098
57.0598
61.8477
64.1232
64.9275
65.014
64.7287
64.1105
63.1379
30.7304
30.9236
53.5639
70.9938
80.4083
83.2846
82.4427
79.5274
76.2672
73.1141
70.1946
67.4515
38.1039
58.77
102.024
125.479
130.62
127.646
119.093
109.146
99.4546
90.7124
83.1988
76.8272
182.687
165.969
180.887
185.834
181.38
169.02
154.221
138.749
123.966
110.483
98.6333
88.4431
157.322
155.41
151.081
144.174
134.483
123.087
109.39
93.8724
75.9203
56.6747
39.6799
52.7604
96.9346
93.5877
89.4118
85.6995
82.6088
81.5722
83.0623
88.5057
96.0433
104.025
117.005
151.17
78.5452
75.1283
71.3461
68.0752
66.0261
65.6222
67.6065
73.6719
85.4824
105.163
137.757
211.68
70.2678
67.4865
64.3898
61.5389
59.6609
59.1789
60.9642
66.6878
78.5227
101.22
146.004
254.773
66.225
63.7656
60.9378
58.2195
56.2533
55.603
57.0428
62.2144
73.5408
96.7002
148.4
281.386
63.7293
61.6292
59.1383
56.6687
54.7626
54.0244
55.2061
59.8445
70.5162
93.2588
148.975
304.745
62.0567
60.3132
58.1921
56.0346
54.2804
53.4978
54.4426
58.4998
68.3008
89.7076
145.527
322.722
61.2096
59.6605
57.7985
55.8866
54.2695
53.5001
54.2474
57.7108
66.7189
87.1922
142.023
345.496
61.761
60.0521
58.1474
56.2458
54.6098
53.7299
54.2626
57.1184
65.2423
84.823
139.308
371.067
64.7973
62.2149
59.7214
57.397
55.4127
54.1327
54.3306
56.5058
63.6115
82.1068
136.056
397.428
71.427
66.8374
62.8955
59.5317
56.7735
54.7873
54.3848
55.86
61.7411
79.0266
133.257
431.223
79.8332
72.7248
66.8792
62.1226
58.3534
55.5693
54.3553
55.2193
59.5567
74.6026
128.043
493.657
3.27619
7.48336
7.80803
6.95277
7.19755
13.0782
63.0459
109.388
132.098
146.408
154.886
158.501
17.6183
15.3699
16.1479
26.9896
51.8256
59.9715
78.8359
93.5575
98.0528
99.9687
100.262
99.7817
30.5121
30.5626
44.0561
47.4992
53.2538
62.1597
73.445
78.2214
80.7386
82.0532
82.2056
80.9874
37.6975
36.9718
45.1025
47.5174
52.9805
60.97
67.0756
70.3553
72.3147
73.207
73.2411
72.214
40.2945
38.9435
44.9063
47.0458
52.0415
58.2522
62.9234
65.9491
67.7819
68.6436
68.7166
67.8483
37.5228
36.9558
43.0014
45.9339
50.2805
55.7115
59.8099
62.5705
64.3961
65.3741
65.6091
65.0095
32.6276
31.858
38.5866
43.3497
48.9742
54.0988
57.7798
60.2742
61.9333
62.9868
63.3684
63.0169
29.2944
26.6829
35.0021
43.3296
50.0363
55.0709
58.393
60.4864
61.6968
62.3462
62.4866
62.0968
28.5207
25.543
37.271
48.5579
57.0201
61.8014
64.0647
64.8612
64.9242
64.615
63.983
63.0052
30.7524
30.9232
53.5771
71.0496
80.4855
83.3436
82.4798
79.531
76.2343
73.0465
70.1035
67.3468
38.1301
58.7868
102.068
125.582
130.764
127.788
119.204
109.222
99.4906
90.7097
83.1632
76.7677
182.356
165.807
180.779
185.84
181.425
169.123
154.33
138.846
124.037
110.523
98.6433
88.4267
157.134
155.268
150.952
144.089
134.407
123.024
109.328
93.8145
75.8705
56.6369
39.6448
52.7247
96.8203
93.4919
89.3361
85.6389
82.5587
81.5233
83.0164
88.4604
95.9993
103.981
116.944
151.077
78.4407
75.0498
71.2901
68.036
65.9988
65.5997
67.5902
73.6568
85.4651
105.134
137.718
211.592
70.1596
67.4032
64.3291
61.4978
59.6349
59.1607
60.9547
66.6835
78.5206
101.215
145.979
254.7
66.1054
63.6688
60.8621
58.1626
56.2128
55.5731
57.0255
62.2061
73.5388
96.7008
148.389
281.324
63.5985
61.5171
59.0456
56.5935
54.7041
53.9786
55.1744
59.8255
70.5081
93.2592
148.969
304.683
61.9178
60.1897
58.085
55.9439
54.2054
53.4375
54.3959
58.468
68.2829
89.7008
145.53
322.664
61.0698
59.532
57.6835
55.7863
54.1843
53.4299
54.1886
57.6667
66.6893
87.1768
142.01
345.436
61.6299
59.9278
58.0328
56.1428
54.5194
53.6537
54.1961
57.0655
65.2046
84.798
139.292
371.013
64.6872
62.1057
59.6171
57.3004
55.3254
54.0577
54.2642
56.4508
63.57
82.0799
136.039
397.406
71.3524
66.7557
62.8122
59.4508
56.6977
54.7194
54.3276
55.8101
61.7033
79.0022
133.246
431.267
79.7971
72.6754
66.8226
62.0633
58.2955
55.5161
54.3122
55.1824
59.5306
74.5917
128.051
493.839
3.27862
7.48993
7.81193
6.95809
7.21636
13.2202
63.4554
109.799
132.503
146.841
155.314
158.927
17.6413
15.3889
16.2068
27.1787
52.0045
60.1201
79.1326
93.8227
98.3151
100.233
100.519
100.026
30.5852
30.6504
44.1828
47.6322
53.4172
62.368
73.6763
78.4462
80.9636
82.2773
82.4216
81.1886
37.7985
37.0879
45.1744
47.5795
53.1382
61.1671
67.2742
70.5568
72.5187
73.41
73.4365
72.3993
40.4282
39.0404
44.9809
47.0207
52.2187
58.4237
63.1042
66.1346
67.9713
68.8331
68.9032
68.0272
37.6188
37.0504
43.0911
46.0556
50.4321
55.8682
59.9719
62.7414
64.5723
65.5538
65.7874
65.1839
32.7017
31.9349
38.6815
43.4664
49.1047
54.2372
57.9265
60.4296
62.0972
63.1549
63.5381
63.184
29.3494
26.7444
35.0868
43.439
50.1574
55.2009
58.5312
60.6335
61.848
62.5009
62.6436
62.2532
28.5636
25.5929
37.3492
48.6534
57.1273
61.9178
64.1893
64.9982
65.0672
64.7581
64.1269
63.1483
30.7958
30.9733
53.6535
71.1356
80.5759
83.4408
82.5819
79.6435
76.3524
73.1656
70.2238
67.4669
38.1875
58.8597
102.151
125.658
130.831
127.853
119.27
109.292
99.5659
90.7899
83.2474
76.8545
182.649
165.957
180.887
185.897
181.469
169.151
154.357
138.875
124.072
110.565
98.6909
88.4799
157.544
155.656
151.327
144.424
134.709
123.286
109.552
93.9952
76.0097
56.7344
39.7082
52.7945
97.0463
93.7005
89.5263
85.8128
82.7181
81.6758
83.1582
88.606
96.1505
104.139
117.119
151.301
78.6265
75.22
71.4451
68.1776
66.129
65.7248
67.7087
73.7764
85.5941
105.285
137.909
211.898
70.3328
67.5632
64.4756
61.6313
59.757
59.2768
61.0642
66.7918
78.6352
101.35
146.171
255.056
66.275
63.8267
61.0077
58.296
56.3346
55.6876
57.133
62.3108
73.6475
96.8264
148.57
281.704
63.765
61.6741
59.1911
56.7275
54.8266
54.093
55.2819
59.9298
70.6142
93.3784
149.141
305.078
62.0797
60.3431
58.2285
56.0764
54.3273
53.5504
54.5028
58.5714
68.3873
89.8172
145.687
323.067
61.2227
59.678
57.8209
55.9143
54.3027
53.5399
54.2929
57.7675
66.7911
87.2883
142.169
345.846
61.7696
60.0615
58.159
56.2607
54.6291
53.7554
54.2906
57.1593
65.2992
84.9041
139.439
371.422
64.8052
62.2195
59.7254
57.4023
55.4209
54.1467
54.3505
56.5338
63.6536
82.1725
136.173
397.798
71.4402
66.8426
62.8968
59.5322
56.7751
54.7923
54.3994
55.878
61.771
79.0785
133.36
431.619
79.8542
72.7352
66.8834
62.1239
58.3544
55.5722
54.3642
55.2323
59.5795
74.6451
128.133
494.152
3.27809
7.48977
7.815
6.95916
7.20356
13.0783
63.0196
109.308
131.983
146.262
154.718
158.32
17.6315
15.3809
16.1616
27.0244
51.8435
59.9484
78.7922
93.484
97.9665
99.8768
100.167
99.6878
30.5261
30.5798
44.0777
47.5141
53.2462
62.1314
73.4001
78.1647
80.6748
81.9857
82.1346
80.9132
37.7072
36.9897
45.1164
47.5311
52.9674
60.9412
67.0339
70.3069
72.2601
73.1489
73.1782
72.1477
40.2953
38.956
44.9159
47.0238
52.0228
58.2223
62.8869
65.907
67.7347
68.5932
68.6627
67.791
37.5175
36.9664
43.0056
45.9305
50.2621
55.6854
59.7787
62.5354
64.3576
65.3326
65.5649
64.9626
32.621
31.8499
38.5893
43.3453
48.9601
54.079
57.7558
60.2467
61.903
62.9544
63.3339
62.9803
29.2864
26.6806
35.0043
43.3272
50.0262
55.0554
58.3733
60.4627
61.6729
62.3218
62.4608
62.0694
28.5159
25.5453
37.2779
48.5644
57.0221
61.7975
64.0551
64.8416
64.902
64.5952
63.9631
62.9841
30.7548
30.9366
53.6089
71.0885
80.519
83.3663
82.4938
79.5311
76.2267
73.0376
70.0926
67.3337
38.1525
58.8428
102.161
125.678
130.846
127.855
119.251
109.252
99.5081
90.7181
83.165
76.7647
182.621
165.971
180.914
185.946
181.519
169.197
154.388
138.887
124.066
110.542
98.6546
88.4321
156.95
155.081
150.774
143.926
134.262
122.902
109.231
93.7451
75.8253
56.6118
39.6416
52.7279
96.7307
93.408
89.2585
85.5679
82.4955
81.466
82.9716
88.4155
95.953
103.932
116.9
151.041
78.3657
74.975
71.2165
67.9648
65.9308
65.5339
67.5279
73.5958
85.4037
105.072
137.643
211.498
70.0911
67.3336
64.2593
61.428
59.5659
59.0925
60.8875
66.6154
78.4499
101.138
145.89
254.558
66.0458
63.6075
60.7998
58.0999
56.1499
55.5098
56.9603
62.1387
73.4669
96.6203
148.29
281.146
63.5493
61.4661
58.9932
56.5403
54.65
53.9233
55.1159
59.7622
70.438
93.1778
148.865
304.481
61.879
60.1492
58.043
55.9007
54.1607
53.3907
54.3455
58.4113
68.2175
89.6216
145.422
322.444
61.0404
59.5011
57.6508
55.7515
54.1474
53.3902
54.1458
57.6176
66.6307
87.103
141.906
345.194
61.6072
59.904
58.0077
56.116
54.4906
53.6218
54.1613
57.0245
65.1537
84.7312
139.192
370.752
64.6721
62.089
59.5987
57.2804
55.3036
54.0327
54.2362
56.4173
63.5269
82.0206
135.944
397.12
71.3457
66.7461
62.8003
59.4371
56.6823
54.7016
54.3049
55.7837
61.6681
78.9514
133.158
430.957
79.798
72.6727
66.8171
62.0557
58.286
55.5043
54.2955
55.1627
59.5036
74.5508
127.977
493.493
179.227
179.763
177.751
173.904
169.13
162.578
153.085
141.393
129.365
117.435
105.763
94.8134
101.663
105.731
109.254
112.663
115.707
118.087
117.907
115.969
112.556
107.396
99.6665
91.239
66.7135
68.6039
70.675
73.061
75.8127
78.8453
81.5263
83.577
84.1952
83.6871
81.7698
78.9143
47.664
48.7473
50.0247
51.5447
53.4255
55.7515
58.3643
60.9558
63.1919
64.4628
64.422
63.3701
84.9548
76.5217
69.4943
63.7836
59.2867
56.0165
54.2359
54.6059
57.1483
66.2831
93.3676
184.144
82.9303
75.2788
68.6462
63.1416
58.8057
55.7108
53.812
53.7307
54.7936
58.7538
69.9977
96.2949
74.595
69.1863
64.1684
59.8332
56.4292
53.8644
52.0536
50.892
50.68
51.5308
55.4169
64.0517
61.6776
59.4385
56.6488
53.5921
50.6885
47.8685
45.3273
43.1516
42.0193
41.7484
43.1673
46.2574
179.196
179.686
177.658
173.822
169.077
162.567
153.134
141.447
129.414
117.471
105.786
94.8184
101.63
105.669
109.164
112.558
115.607
118.003
117.855
115.939
112.536
107.389
99.6722
91.2367
66.6841
68.5566
70.6072
72.9742
75.7152
78.7444
81.4306
83.4926
84.1304
83.6336
81.725
78.8799
47.6247
48.6986
49.9639
51.4712
53.3409
55.6587
58.2694
60.8649
63.1086
64.3975
64.3668
63.3257
84.9435
76.4971
69.4605
63.7453
59.2473
55.9799
54.2101
54.5864
57.14
66.2911
93.3975
184.207
82.9205
75.2607
68.6229
63.1168
58.7824
55.6932
53.8043
53.7322
54.8068
58.782
70.0471
96.3719
74.5733
69.1647
64.1492
59.8181
56.4212
53.8668
52.0675
50.9182
50.7159
51.5783
55.4824
64.1356
61.6412
59.4137
56.6392
53.5947
50.7033
47.8962
45.3669
43.2022
42.0801
41.8166
43.2472
46.3486
179.268
179.765
177.737
173.899
169.146
162.625
153.171
141.479
129.445
117.503
105.818
94.8531
101.721
105.777
109.286
112.688
115.735
118.118
117.953
116.022
112.61
107.449
99.7156
91.2785
66.7819
68.6685
70.7312
73.1086
75.8551
78.8832
81.5651
83.6166
84.2357
83.7264
81.8076
78.9492
47.7245
48.8063
50.0788
51.5928
53.4675
55.7881
58.3973
60.9864
63.2208
64.4915
64.4504
63.3988
84.9817
76.5386
69.5044
63.7903
59.2922
56.0228
54.2471
54.6205
57.1703
66.3196
93.4314
184.274
82.9604
75.3011
68.6631
63.1557
58.8191
55.7255
53.8303
53.7525
54.8208
58.7902
70.0509
96.3766
74.6253
69.2129
64.1923
59.8561
56.4528
53.8903
52.0825
50.9243
50.7153
51.5709
55.4671
64.1155
61.707
59.4688
56.6798
53.6251
50.7236
47.9059
45.3665
43.1926
42.0621
41.7938
43.2181
46.3152
179.315
179.792
177.754
173.913
169.16
162.642
153.191
141.493
129.45
117.499
105.806
94.8324
101.721
105.765
109.262
112.658
115.704
118.09
117.933
116.006
112.596
107.437
99.704
91.2627
66.7572
68.637
70.693
73.0651
75.8089
78.8367
81.5217
83.5777
84.2035
83.6985
81.7827
78.9279
47.688
48.7668
50.0364
51.548
53.4212
55.7413
58.3522
60.9445
63.183
64.4601
64.4225
63.3742
84.9528
76.5025
69.4627
63.7448
59.2444
55.9741
54.2001
54.5745
57.1231
66.2644
93.3547
184.11
82.9401
75.2762
68.6344
63.125
58.7876
55.6949
53.8025
53.7286
54.7995
58.7676
70.0206
96.3197
74.6075
69.1937
64.1722
59.8361
56.4349
53.8759
52.0727
50.9187
50.7113
51.5664
55.4591
64.096
61.6848
59.4503
56.6666
53.6158
50.7181
47.9031
45.365
43.1903
42.058
41.787
43.2086
46.3038
37.4391
38.7186
40.2801
42.1224
44.3034
46.7818
49.1441
50.876
51.9285
52.0678
51.4695
50.6904
30.6411
32.2849
34.1543
36.2176
38.4466
40.6568
42.2634
43.2271
43.6271
43.6598
43.5015
43.2427
26.3607
28.2687
30.3067
32.406
34.4747
36.1393
37.1891
37.8174
38.2515
38.7026
39.0992
38.8923
23.5804
25.6229
27.7037
29.7123
31.4684
32.623
33.359
34.0054
34.8969
36.4554
37.9477
38.4288
49.619
46.0746
42.2023
38.7173
35.427
32.9196
31.4761
31.0991
31.7869
33.0643
34.9233
36.4239
41.8562
35.0791
29.7675
26.1891
23.6734
22.3914
22.2524
23.0196
24.4554
26.1713
27.9391
29.3459
36.8204
26.573
20.9381
18.063
16.6239
16.3486
16.9232
18.1555
19.7788
21.5213
23.2172
24.7373
35.8727
20.2688
15.0196
13.0593
12.5152
12.8042
13.7404
15.1129
16.7262
18.4127
20.0883
21.7441
37.3941
38.6635
40.2173
42.0534
44.23
46.7084
49.0776
50.8169
51.8803
52.0284
51.4462
50.6819
30.6
32.2354
34.1007
36.1607
38.388
40.6074
42.2217
43.1989
43.6366
43.6457
43.5122
43.27
26.3275
28.2301
30.2657
32.3634
34.4325
36.1086
37.1685
37.8064
38.2567
38.7189
39.1343
38.9471
23.5579
25.5974
27.6767
29.6823
31.443
32.6075
33.3545
34.0105
34.9179
36.4926
38.0102
38.5053
49.6263
46.0937
42.2348
38.7616
35.4811
32.9822
31.5439
31.1709
31.8623
33.1427
35.0083
36.514
41.8989
35.1248
29.8199
26.2476
23.7359
22.4564
22.3182
23.0864
24.5239
26.2422
28.0136
29.4234
36.8913
26.631
20.9943
18.1194
16.68
16.4044
16.9782
18.2105
19.8347
21.5789
23.2776
24.7995
35.9747
20.3296
15.0706
13.1072
12.5613
12.8492
13.7844
15.1564
16.77
18.4576
20.1347
21.7922
37.4882
38.7609
40.3175
42.1552
44.3324
46.8085
49.1678
50.8974
51.9537
52.0929
51.4991
50.7245
30.6795
32.3162
34.182
36.2422
38.4692
40.6788
42.283
43.254
43.6847
43.6873
43.5408
43.2856
26.3912
28.2943
30.3301
32.4273
34.4947
36.1605
37.2112
37.8437
38.286
38.7398
39.1445
38.9417
23.6068
25.6467
27.7262
29.7331
31.4894
32.6458
33.3844
34.0343
34.9322
36.4969
38.001
38.4889
49.658
46.1157
42.2448
38.7609
35.4704
32.9626
31.5185
31.1416
31.8305
33.1099
34.973
36.4769
41.9019
35.1238
29.8103
26.2296
23.7109
22.4267
22.2866
23.0543
24.4919
26.2103
27.9809
29.3897
36.8731
26.6157
20.9747
18.0951
16.652
16.3747
16.9484
18.1817
19.807
21.552
23.2501
24.7715
35.9395
20.3074
15.0482
13.083
12.5354
12.8224
13.7584
15.132
16.7472
18.4358
20.1131
21.7697
37.4498
38.7215
40.2777
42.1158
44.2934
46.7708
49.1351
50.8672
51.9247
52.0678
51.4775
50.7068
30.6452
32.2817
34.148
36.2087
38.4358
40.6498
42.2564
43.2266
43.6513
43.6663
43.522
43.2696
26.3623
28.2651
30.301
32.3988
34.4663
36.1353
37.1882
37.8211
38.2634
38.7202
39.1242
38.9202
23.5836
25.6227
27.7019
29.708
31.4646
32.623
33.3637
34.015
34.9143
36.4795
37.9727
38.4529
49.6448
46.1064
42.2375
38.7538
35.4621
32.9527
31.5059
31.1262
31.8127
33.0892
34.9514
36.4586
41.8886
35.111
29.7965
26.2147
23.695
22.4098
22.2668
23.0317
24.4662
26.1814
27.9498
29.3645
36.8479
26.5958
20.9558
18.0765
16.6335
16.3555
16.9266
18.1563
19.7776
21.5184
23.2134
24.7357
35.8888
20.2805
15.0272
13.0642
12.5173
12.8038
13.7369
15.1061
16.716
18.3991
20.0705
21.7256
21.6422
23.7465
25.824
27.736
29.1745
30.0127
30.5626
31.1357
32.1489
33.8175
36.3328
40.9978
20.1549
22.2969
24.3802
26.2424
27.461
28.0246
28.1707
28.0654
27.6808
25.9004
16.6727
5.06025
18.887
21.0626
23.1789
24.9975
25.9917
26.2959
25.8052
24.4235
21.5986
15.5881
5.64714
2.90182
17.6954
19.8959
22.0592
23.8161
24.6648
24.7401
23.4991
20.7743
16.0385
8.83102
3.57647
2.8692
16.4956
18.6932
20.8759
22.5767
23.3559
23.2151
21.394
17.7531
12.3156
6.23776
3.26103
2.9896
15.2492
17.4011
19.5582
21.2222
21.9908
21.7086
19.5725
15.5679
10.2967
5.57346
3.31878
3.02722
13.963
16.0206
18.0998
19.729
20.5171
20.1984
18.028
14.1028
9.37033
5.55542
3.62383
3.03074
12.6888
14.6101
16.5613
18.145
18.9703
18.7036
16.7246
13.1493
9.0365
5.8191
4.00239
2.85019
11.538
13.3025
15.0919
16.6162
17.4968
17.3226
15.6951
12.5833
9.04296
6.2142
4.38757
2.43957
10.7479
12.3829
14.0191
15.4861
16.4675
16.4129
15.1381
12.506
9.41104
6.76195
4.7393
1.86853
11.1189
12.7892
14.4092
15.9528
17.174
17.2627
16.0659
13.7566
10.86
7.91389
5.11049
1.17367
19.5698
22.5779
25.3021
28.2892
31.2733
31.7516
29.7421
25.8711
20.0865
12.7935
6.38433
1.67104
49.093
15.4429
11.0976
10.0028
9.9741
10.6018
11.6844
13.065
14.6163
16.2466
17.9277
19.6875
24.9496
10.742
8.42451
8.00063
8.30842
9.1037
10.2234
11.5598
13.0389
14.6206
16.309
18.1364
16.4048
7.85525
6.64331
6.60772
7.11915
7.98183
9.08299
10.3532
11.7572
13.29
14.9729
16.8347
11.7214
6.01993
5.38448
5.58266
6.19534
7.06792
8.12149
9.31448
10.6395
12.1144
13.7712
15.6354
8.68124
4.74717
4.43327
4.77289
5.42714
6.2766
7.26715
8.37676
9.61698
11.0206
12.6265
14.4588
6.48318
3.77803
3.67398
4.09692
4.75884
5.56612
6.48585
7.50916
8.65935
9.97794
11.508
13.2733
4.77417
2.99756
3.04227
3.51439
4.1642
4.91819
5.76462
6.70263
7.7611
8.98503
10.4187
12.0858
3.48414
2.36739
2.50411
3.0073
3.63377
4.32835
5.104
5.96341
6.93544
8.06365
9.39091
10.9394
2.45746
1.83338
2.04229
2.57365
3.17165
3.80442
4.51834
5.31539
6.21783
7.26449
8.49288
9.92312
1.61764
1.3761
1.66867
2.2445
2.8148
3.38456
4.06478
4.84308
5.71918
6.71956
7.88182
9.22827
0.914191
1.04745
1.49214
2.13432
2.68656
3.21362
3.91801
4.76714
5.73208
6.83097
8.08504
9.51661
0.366581
1.77406
2.54579
3.36947
3.93517
4.57439
5.71785
7.32162
9.18674
11.3228
13.7822
16.5763
21.6303
23.7336
25.8099
27.7198
29.164
30.0113
30.5728
31.1543
32.183
33.8666
36.4041
41.0903
20.1533
22.2958
24.3789
26.2407
27.4656
28.0341
28.1873
28.0912
27.7172
25.9436
16.7016
5.06703
18.8935
21.0711
23.1874
25.0084
26.0062
26.3125
25.8262
24.4491
21.6259
15.6086
5.65283
2.90377
17.7082
19.9119
22.0767
23.8358
24.6858
24.7616
23.5214
20.796
16.0555
8.83855
3.57915
2.87104
16.5117
18.7134
20.8983
22.6012
23.3808
23.239
21.4158
17.7709
12.3267
6.24245
3.26353
2.99164
15.2664
17.4228
19.5827
21.2483
22.0172
21.733
19.5931
15.583
10.3055
5.57817
3.32161
3.02933
13.9789
16.0412
18.1233
19.7543
20.5427
20.2218
18.0472
14.1164
9.37857
5.56053
3.62706
3.03285
12.7021
14.6279
16.5819
18.1676
18.9936
18.7249
16.7421
13.1619
9.04476
5.82473
4.00596
2.8522
11.5479
13.3167
15.1085
16.6351
17.5167
17.3411
15.7109
12.595
9.05133
6.22023
4.39135
2.44119
10.7546
12.3936
14.0318
15.5015
16.4844
16.429
15.1523
12.5171
9.41955
6.76825
4.74307
1.86971
11.1223
12.7974
14.4195
15.9666
17.1897
17.2781
16.0799
13.7684
10.8694
7.92059
5.11399
1.17431
19.5667
22.5876
25.3173
28.3134
31.3015
31.7792
29.7668
25.8918
20.1017
12.8022
6.38801
1.67179
49.2763
15.4984
11.1396
10.0413
10.0112
10.6379
11.7194
13.0992
14.6501
16.2806
17.9626
19.7231
25.053
10.7842
8.45749
8.03144
8.33846
9.13307
10.2517
11.587
13.065
14.6461
16.3342
18.1618
16.4744
7.88688
6.66924
6.63264
7.14397
8.00631
9.10649
10.3752
11.7775
13.3088
14.9907
16.8517
11.7713
6.04405
5.40521
5.60323
6.21638
7.08889
8.14149
9.33271
10.6555
12.1282
13.7831
15.646
8.71768
4.766
4.4501
4.79026
5.4454
6.29503
7.28463
8.39228
9.62992
11.0308
12.6343
14.4643
6.51025
3.79296
3.68786
4.11184
4.77502
5.58267
6.50149
7.52276
8.67013
9.98571
11.5127
13.2754
4.79389
3.00963
3.05385
3.52737
4.17874
4.93332
5.77891
6.71486
7.77042
8.99117
10.4217
12.0856
3.49869
2.37737
2.5138
3.01867
3.64701
4.34239
5.1173
5.97471
6.94382
8.06885
9.39272
10.938
2.46803
1.8394
2.05025
2.58363
3.18389
3.81772
4.53097
5.32614
6.22568
7.26922
8.49421
9.92106
1.62341
1.37798
1.67415
2.25332
2.82664
3.39776
4.07737
4.85385
5.72699
6.72424
7.88304
9.22584
0.915171
1.06904
1.49015
2.14285
2.6991
3.22778
3.93151
4.77902
5.74101
6.83643
8.08657
9.51381
0.350898
1.89394
2.54768
3.38548
3.95712
4.59851
5.74018
7.34252
9.20421
11.3342
13.7862
16.5726
21.6667
23.7704
25.8477
27.7587
29.1982
30.0384
30.5909
31.1662
32.1836
33.8569
36.3855
41.0742
20.1788
22.3217
24.4056
26.2679
27.4877
28.0521
28.1991
28.0938
27.7088
25.9268
16.6929
5.06859
18.9103
21.088
23.2054
25.0248
26.0196
26.3237
25.8318
24.4474
21.6182
15.6021
5.65422
2.90604
17.7176
19.9208
22.0856
23.8432
24.6922
24.7666
23.5231
20.7938
16.0525
8.84
3.58117
2.87338
16.5157
18.7161
20.9003
22.6016
23.3809
23.2387
21.4148
17.7692
12.3269
6.24517
3.26522
2.99394
15.2662
17.4208
19.5791
21.2434
22.0122
21.7284
19.5899
15.5815
10.3066
5.58004
3.3227
3.03158
13.9761
16.0362
18.1163
19.7458
20.5339
20.2143
18.0419
14.1143
9.37886
5.56158
3.62772
3.03503
12.6979
14.6213
16.573
18.157
18.9824
18.7155
16.7352
13.159
9.04357
5.82479
4.0063
2.85401
11.5429
13.3097
15.0989
16.6244
17.5041
17.3317
15.7022
12.5918
9.04872
6.21977
4.39145
2.44281
10.7493
12.3861
14.0224
15.4908
16.4721
16.419
15.1436
12.5127
9.41669
6.7672
4.74337
1.87091
11.1163
12.7892
14.4098
15.9558
17.1775
17.2678
16.0707
13.7631
10.8659
7.91969
5.11476
1.17507
19.5577
22.5738
25.302
28.2954
31.2835
31.7608
29.7528
25.8815
20.0974
12.8033
6.3897
1.67248
49.2184
15.4761
11.119
10.0199
9.98893
10.6146
11.697
13.0787
14.6316
16.2635
17.9456
19.7058
25.0165
10.7658
8.43972
8.01267
8.31843
9.11256
10.2323
11.5695
13.0498
14.6325
16.3215
18.1487
16.4472
7.87207
6.65428
6.61626
7.12613
7.98805
9.08922
10.36
11.7648
13.2981
14.981
16.8423
11.7496
6.03195
5.39269
5.58884
6.20036
7.07234
8.12585
9.31913
10.6445
12.1195
13.776
15.6393
8.70081
4.75604
4.43945
4.77751
5.43085
6.2798
7.2702
8.37987
9.62015
11.0236
12.6288
14.4597
6.49685
3.78472
3.6787
4.10047
4.76169
5.56848
6.48796
7.51116
8.66118
9.97929
11.5084
13.2722
4.7835
3.00288
3.04599
3.5172
4.16647
4.91999
5.76607
6.70382
7.76196
8.98525
10.4178
12.0833
3.49083
2.37202
2.50735
3.00968
3.63567
4.32975
5.10496
5.96402
6.93561
8.06306
9.38906
10.9358
2.46217
1.83556
2.04569
2.5759
3.17339
3.80557
4.51892
5.31555
6.21746
7.26332
8.49036
9.91882
1.61964
1.37561
1.67167
2.24686
2.81665
3.38562
4.06502
4.84282
5.7184
6.71791
7.8787
9.22324
0.913459
1.0649
1.48794
2.13668
2.68886
3.21482
3.91791
4.76646
5.73077
6.82864
8.08094
9.51023
0.369609
1.88401
2.53365
3.37445
3.94047
4.57728
5.71686
7.31967
9.18399
11.318
13.7738
16.5628
21.6483
23.7509
25.8268
27.7367
29.1763
30.018
30.5729
31.1498
32.1686
33.8383
36.3491
41.0108
20.1649
22.3064
24.3888
26.2493
27.4691
28.0341
28.1827
28.0796
27.6951
25.9089
16.6704
5.05849
18.9
21.0763
23.1918
25.0097
26.0038
26.3078
25.8169
24.4338
21.604
15.5857
5.64434
2.89936
17.7106
19.9126
22.0758
23.8314
24.6791
24.7526
23.5087
20.7796
16.0374
8.82608
3.57391
2.86654
16.511
18.7106
20.8933
22.5926
23.3703
23.2261
21.4006
17.7544
12.312
6.23413
3.25871
2.98679
15.2633
17.4174
19.5747
21.2367
22.0036
21.717
19.576
15.5666
10.2926
5.57068
3.31675
3.02437
13.9742
16.034
18.1131
19.7405
20.5268
20.2036
18.0288
14.0998
9.36632
5.55288
3.62182
3.02784
12.6964
14.6195
16.5705
18.1525
18.9762
18.7053
16.7228
13.1451
9.03242
5.81655
4.00019
2.84735
11.5414
13.3076
15.0963
16.6194
17.4987
17.3208
15.6912
12.5778
9.03856
6.21134
4.38497
2.43707
10.7473
12.3836
14.0188
15.4854
16.4658
16.4083
15.1319
12.4992
9.40599
6.75846
4.73607
1.86653
11.1133
12.7854
14.4045
15.9491
17.1693
17.2553
16.0574
13.7485
10.8537
7.90891
5.10617
1.17234
19.5481
22.5629
25.2876
28.2825
31.2631
31.7355
29.7239
25.8537
20.0712
12.7821
6.3779
1.66913
49.1017
15.4459
11.0987
10.0024
9.97219
10.5976
11.6769
13.0534
14.5998
16.2246
17.8989
19.6548
24.9419
10.7402
8.42242
7.99796
8.30465
9.09778
10.214
11.5457
13.0186
14.593
16.2717
18.0927
16.3961
7.85186
6.64022
6.60439
7.11494
7.97562
9.07324
10.3382
11.7352
13.2591
14.9304
16.7833
11.714
6.0165
5.38145
5.57956
6.19158
7.06236
8.11248
9.30001
10.6174
12.0825
13.7263
15.5797
8.67543
4.74416
4.43072
4.77044
5.42427
6.27224
7.25958
8.3638
9.59622
10.9898
12.5821
14.4021
6.47875
3.77555
3.67205
4.09527
4.75706
5.56322
6.48013
7.49836
8.64096
9.94969
11.4662
13.2189
4.7708
2.99563
3.04104
3.51354
4.16347
4.9168
5.76091
6.69434
7.74571
8.96041
10.3815
12.0363
3.48161
2.36606
2.50373
3.0072
3.63396
4.32833
5.10229
5.95776
6.92336
8.04326
9.35906
10.8963
2.45539
1.83284
2.04298
2.57424
3.17251
3.80554
4.51843
5.31236
6.20902
7.2484
8.4668
9.88723
1.61585
1.37535
1.67028
2.2456
2.81608
3.38641
4.06663
4.84267
5.71342
6.70725
7.86118
9.19914
0.899835
1.03941
1.49372
2.13547
2.68796
3.21577
3.92125
4.76912
5.72923
6.8216
8.06852
9.49791
0.299225
1.73157
2.53669
3.36898
3.93597
4.57545
5.72315
7.32737
9.18668
11.3116
13.7635
16.5663
)
;

boundaryField
{
    rotor
    {
        Cmu             0.09;
        kappa           0.41;
        E               9.8;
        type            epsilonWallFunction;
        value           nonuniform List<scalar> 
192
(
3.29346
7.53272
7.85459
7.00123
7.27772
13.457
63.8952
109.956
132.492
146.767
155.154
158.728
157.322
155.41
151.081
144.174
134.483
123.087
109.39
93.8724
75.9203
56.6747
39.6799
52.7604
3.27619
7.48336
7.80803
6.95277
7.19755
13.0782
63.0459
109.388
132.098
146.408
154.886
158.501
157.134
155.268
150.952
144.089
134.407
123.024
109.328
93.8145
75.8705
56.6369
39.6448
52.7247
3.27862
7.48993
7.81193
6.95809
7.21636
13.2202
63.4554
109.799
132.503
146.841
155.314
158.927
157.544
155.656
151.327
144.424
134.709
123.286
109.552
93.9952
76.0097
56.7344
39.7082
52.7945
3.27809
7.48977
7.815
6.95916
7.20356
13.0783
63.0196
109.308
131.983
146.262
154.718
158.32
156.95
155.081
150.774
143.926
134.262
122.902
109.231
93.7451
75.8253
56.6118
39.6416
52.7279
3.29346
17.7061
30.7391
37.9869
40.6602
37.7477
32.7873
29.3568
28.5291
30.7304
38.1039
182.687
52.7279
151.041
211.498
254.558
281.146
304.481
322.444
345.194
370.752
397.12
430.957
493.493
3.27619
17.6183
30.5121
37.6975
40.2945
37.5228
32.6276
29.2944
28.5207
30.7524
38.1301
182.356
52.7604
151.17
211.68
254.773
281.386
304.745
322.722
345.496
371.067
397.428
431.223
493.657
3.27862
17.6413
30.5852
37.7985
40.4282
37.6188
32.7017
29.3494
28.5636
30.7958
38.1875
182.649
52.7247
151.077
211.592
254.7
281.324
304.683
322.664
345.436
371.013
397.406
431.267
493.839
3.27809
17.6315
30.5261
37.7072
40.2953
37.5175
32.621
29.2864
28.5159
30.7548
38.1525
182.621
52.7945
151.301
211.898
255.056
281.704
305.078
323.067
345.846
371.422
397.798
431.619
494.152
)
;
    }
    stator
    {
        Cmu             0.09;
        kappa           0.41;
        E               9.8;
        type            epsilonWallFunction;
        value           nonuniform List<scalar> 
192
(
19.5698
22.5779
25.3021
28.2892
31.2733
31.7516
29.7421
25.8711
20.0865
12.7935
6.38433
1.67104
0.366581
1.77406
2.54579
3.36947
3.93517
4.57439
5.71785
7.32162
9.18674
11.3228
13.7822
16.5763
19.5667
22.5876
25.3173
28.3134
31.3015
31.7792
29.7668
25.8918
20.1017
12.8022
6.38801
1.67179
0.350898
1.89394
2.54768
3.38548
3.95712
4.59851
5.74018
7.34252
9.20421
11.3342
13.7862
16.5726
19.5577
22.5738
25.302
28.2954
31.2835
31.7608
29.7528
25.8815
20.0974
12.8033
6.3897
1.67248
0.369609
1.88401
2.53365
3.37445
3.94047
4.57728
5.71686
7.31967
9.18399
11.318
13.7738
16.5628
19.5481
22.5629
25.2876
28.2825
31.2631
31.7355
29.7239
25.8537
20.0712
12.7821
6.3779
1.66913
0.299225
1.73157
2.53669
3.36898
3.93597
4.57545
5.72315
7.32737
9.18668
11.3116
13.7635
16.5663
49.093
24.9496
16.4048
11.7214
8.68124
6.48318
4.77417
3.48414
2.45746
1.61764
0.914191
0.366581
40.9978
5.06025
2.90182
2.8692
2.9896
3.02722
3.03074
2.85019
2.43957
1.86853
1.17367
1.67104
49.2763
25.053
16.4744
11.7713
8.71768
6.51025
4.79389
3.49869
2.46803
1.62341
0.915171
0.350898
41.0903
5.06703
2.90377
2.87104
2.99164
3.02933
3.03285
2.8522
2.44119
1.86971
1.17431
1.67179
49.2184
25.0165
16.4472
11.7496
8.70081
6.49685
4.7835
3.49083
2.46217
1.61964
0.913459
0.369609
41.0742
5.06859
2.90604
2.87338
2.99394
3.03158
3.03503
2.85401
2.44281
1.87091
1.17507
1.67248
49.1017
24.9419
16.3961
11.714
8.67543
6.47875
4.7708
3.48161
2.45539
1.61585
0.899835
0.299225
41.0108
5.05849
2.89936
2.86654
2.98679
3.02437
3.02784
2.84735
2.43707
1.86653
1.17234
1.66913
)
;
    }
    front
    {
        type            empty;
    }
    back
    {
        type            empty;
    }
}


// ************************************************************************* //
