/*--------------------------------*- C++ -*----------------------------------*\
  =========                 |
  \\      /  F ield         | OpenFOAM: The Open Source CFD Toolbox
   \\    /   O peration     | Website:  https://openfoam.org
    \\  /    A nd           | Version:  6
     \\/     M anipulation  |
\*---------------------------------------------------------------------------*/
FoamFile
{
    version     2.0;
    format      ascii;
    class       volScalarField;
    location    "200";
    object      k;
}
// * * * * * * * * * * * * * * * * * * * * * * * * * * * * * * * * * * * * * //

dimensions      [0 2 -2 0 0 0 0];

internalField   nonuniform List<scalar> 
3072
(
0.0789493
0.0823551
0.0846954
0.0784175
0.0803402
0.120208
0.341278
0.491787
0.557431
0.596984
0.619748
0.629344
0.104814
0.172393
0.187604
0.192086
0.305094
0.359449
0.496702
0.649997
0.788171
0.918921
1.03631
1.12739
0.161956
0.330313
0.388609
0.380028
0.441188
0.571284
0.754247
0.93021
1.08786
1.22047
1.32379
1.39026
0.19828
0.403356
0.45636
0.475388
0.586022
0.7569
0.939595
1.10535
1.24937
1.36648
1.45323
1.50615
0.219437
0.463441
0.529745
0.572664
0.704689
0.878705
1.05217
1.20493
1.33485
1.43962
1.5175
1.56587
0.220062
0.47957
0.57234
0.647211
0.782422
0.948669
1.10822
1.24785
1.36709
1.4636
1.53593
1.58305
0.210266
0.467749
0.579296
0.684986
0.826537
0.983451
1.12975
1.25809
1.36844
1.4579
1.52589
1.57167
0.204247
0.451935
0.593901
0.730826
0.88207
1.02834
1.15819
1.27048
1.36654
1.44321
1.5026
1.54466
0.208771
0.464567
0.662274
0.850064
1.01413
1.14225
1.24274
1.3246
1.39367
1.45094
1.49403
1.5239
0.227867
0.54472
0.877962
1.13647
1.30336
1.39553
1.44548
1.47356
1.49305
1.50959
1.52281
1.53098
0.272536
0.746467
1.28115
1.58826
1.72305
1.76238
1.7569
1.72312
1.68265
1.64214
1.60619
1.57473
0.801236
1.22326
1.74626
1.99889
2.07875
2.07459
2.03053
1.95835
1.87662
1.79373
1.71566
1.64513
0.625723
0.620728
0.60913
0.590513
0.563737
0.531418
0.491186
0.443469
0.384872
0.316715
0.249727
0.200983
1.18565
1.20732
1.20033
1.15825
1.1066
1.05145
0.993278
0.928757
0.847256
0.694131
0.510546
0.438019
1.41412
1.4126
1.38294
1.33579
1.28198
1.22839
1.17742
1.12588
1.06353
0.959407
0.726133
0.586628
1.52424
1.52145
1.49609
1.45573
1.40828
1.36126
1.31942
1.28265
1.24314
1.17464
0.983432
0.705586
1.58397
1.58185
1.55992
1.52482
1.48375
1.44451
1.41342
1.39222
1.37459
1.33624
1.191
0.797305
1.60418
1.60516
1.58824
1.55969
1.52697
1.4982
1.48094
1.47664
1.48168
1.47526
1.38782
0.885417
1.59552
1.60049
1.59
1.56864
1.54345
1.52351
1.51733
1.53023
1.56094
1.58475
1.55161
0.965083
1.56897
1.57702
1.57172
1.55709
1.53897
1.52727
1.52975
1.55402
1.61035
1.66989
1.67673
1.05633
1.54105
1.5466
1.54222
1.53069
1.51643
1.51039
1.51911
1.55446
1.63055
1.73236
1.773
1.15522
1.53073
1.52492
1.51319
1.49759
1.48264
1.47764
1.48779
1.52845
1.62272
1.76526
1.87184
1.25801
1.54644
1.51956
1.49287
1.46746
1.44586
1.43637
1.44428
1.48306
1.58303
1.77168
1.98556
1.37869
1.58237
1.52844
1.48214
1.44278
1.41126
1.39405
1.3984
1.43019
1.52089
1.73148
2.08697
1.56281
0.0785822
0.0820163
0.0843609
0.0780501
0.0797468
0.11798
0.338278
0.490103
0.556336
0.596018
0.619039
0.628746
0.104467
0.172009
0.186736
0.189433
0.302279
0.357887
0.493741
0.647517
0.785405
0.916298
1.03392
1.12528
0.161142
0.328566
0.387513
0.379029
0.438061
0.567774
0.750196
0.926417
1.0841
1.21696
1.32062
1.38773
0.19728
0.401592
0.454366
0.472925
0.582026
0.752718
0.935306
1.10124
1.24544
1.36283
1.44989
1.50333
0.218142
0.461402
0.527548
0.569383
0.700526
0.874476
1.04796
1.2009
1.33097
1.43597
1.51414
1.56298
0.219179
0.477755
0.569923
0.643804
0.778541
0.944721
1.10437
1.24406
1.3634
1.46003
1.53256
1.57999
0.209564
0.466209
0.577096
0.682056
0.823115
0.979965
1.12628
1.25463
1.36502
1.4545
1.52259
1.56858
0.20395
0.451046
0.592143
0.728616
0.879547
1.02564
1.15535
1.26751
1.36354
1.44017
1.49952
1.54165
0.208729
0.464161
0.661493
0.849147
1.01307
1.14088
1.241
1.3225
1.39128
1.44834
1.49133
1.52115
0.227976
0.545046
0.878471
1.13716
1.30405
1.39582
1.44523
1.47273
1.49176
1.50772
1.52062
1.52862
0.272666
0.746889
1.28148
1.58883
1.72394
1.76306
1.75734
1.72309
1.68215
1.64114
1.60475
1.57299
0.800306
1.22227
1.74542
1.99841
2.07891
2.07481
2.03082
1.95849
1.87647
1.79324
1.71479
1.64394
0.625215
0.620317
0.60878
0.590268
0.56351
0.53122
0.490989
0.44328
0.384703
0.316572
0.249577
0.200899
1.18398
1.20612
1.19944
1.15759
1.10614
1.0511
0.993016
0.928544
0.847088
0.693991
0.510388
0.437831
1.41219
1.41113
1.38188
1.33506
1.2815
1.22809
1.17723
1.12574
1.06341
0.959301
0.726041
0.586453
1.52199
1.51971
1.49479
1.45482
1.40768
1.36091
1.31924
1.28257
1.24309
1.1746
0.983366
0.705433
1.58146
1.57983
1.55835
1.52368
1.48298
1.44405
1.41317
1.39211
1.37455
1.33622
1.19094
0.797162
1.60151
1.60288
1.5864
1.55827
1.52593
1.49752
1.48054
1.47644
1.48159
1.47522
1.38773
0.88527
1.59272
1.59805
1.58792
1.56698
1.54218
1.52258
1.5167
1.52985
1.56078
1.58465
1.5515
0.964935
1.56615
1.57449
1.56948
1.55523
1.53748
1.52617
1.52893
1.55351
1.6101
1.66976
1.67657
1.05617
1.53837
1.54412
1.53994
1.52873
1.5148
1.50913
1.5181
1.5538
1.63024
1.73216
1.77281
1.15507
1.52836
1.52261
1.51101
1.49564
1.48096
1.47632
1.4867
1.52769
1.62236
1.76513
1.87168
1.25792
1.5445
1.51759
1.49095
1.46566
1.44425
1.43511
1.44321
1.4823
1.5827
1.77163
1.98553
1.37873
1.58095
1.52688
1.48055
1.44124
1.40983
1.39295
1.39748
1.42956
1.52066
1.73173
2.08725
1.56313
0.0786454
0.0820695
0.0843968
0.0780978
0.0798907
0.118826
0.339736
0.491327
0.557468
0.59719
0.620174
0.629869
0.104561
0.172091
0.186882
0.190147
0.303239
0.358839
0.495353
0.649243
0.787474
0.918548
1.03629
1.12771
0.161403
0.329138
0.387821
0.379323
0.43956
0.569594
0.752478
0.928926
1.08688
1.21989
1.32361
1.39066
0.197639
0.402317
0.455334
0.474168
0.583929
0.754945
0.937873
1.10405
1.24846
1.36598
1.45311
1.50652
0.218634
0.462348
0.528717
0.571052
0.702586
0.876832
1.05062
1.20377
1.33405
1.43918
1.51744
1.56626
0.219562
0.478676
0.571174
0.64555
0.780583
0.947053
1.10694
1.24687
1.3664
1.4632
1.53584
1.5833
0.209888
0.46704
0.578274
0.683611
0.825036
0.982156
1.12871
1.25729
1.36788
1.45754
1.52576
1.57181
0.204207
0.451711
0.593224
0.730047
0.881291
1.02765
1.1576
1.26997
1.36618
1.44295
1.50246
1.54469
0.208936
0.464762
0.662464
0.850411
1.01458
1.14263
1.24298
1.32468
1.39366
1.45087
1.49398
1.52391
0.228186
0.545618
0.879398
1.1383
1.30534
1.39729
1.44687
1.47455
1.49373
1.5099
1.52295
1.53106
0.272932
0.7476
1.28249
1.58999
1.72516
1.76439
1.75875
1.72461
1.68378
1.64289
1.60663
1.57497
0.801132
1.22339
1.7467
1.99971
2.0802
2.07611
2.03215
1.95984
1.87787
1.79468
1.71631
1.64554
0.626304
0.621368
0.609785
0.591181
0.564354
0.531973
0.491659
0.443849
0.385173
0.316928
0.249821
0.201112
1.18635
1.20837
1.20156
1.15957
1.10795
1.05275
0.994498
0.929847
0.848192
0.694834
0.510948
0.438267
1.41499
1.4138
1.38439
1.3374
1.28366
1.23006
1.17902
1.12735
1.06482
0.960467
0.726853
0.587014
1.52507
1.52264
1.49757
1.45742
1.41008
1.36312
1.32125
1.28439
1.2447
1.17597
0.984407
0.706088
1.58469
1.58294
1.56131
1.52646
1.48557
1.44643
1.41536
1.3941
1.37633
1.33776
1.19217
0.797878
1.60478
1.60607
1.58945
1.56115
1.52864
1.50003
1.48285
1.47857
1.48351
1.47689
1.38909
0.886035
1.59595
1.60121
1.59098
1.56988
1.54492
1.52514
1.51908
1.53205
1.56278
1.58642
1.55295
0.965739
1.56922
1.57752
1.57243
1.55807
1.54017
1.52869
1.53132
1.55572
1.6121
1.67155
1.67807
1.05701
1.54118
1.54692
1.5427
1.5314
1.51733
1.51152
1.52039
1.55594
1.6322
1.73396
1.7743
1.15592
1.53083
1.52509
1.51349
1.49804
1.48327
1.47849
1.48879
1.52966
1.62418
1.76676
1.8731
1.25875
1.54658
1.51968
1.49304
1.46772
1.44626
1.437
1.44502
1.48402
1.58429
1.77311
1.9868
1.37949
1.58261
1.5286
1.48229
1.44297
1.41152
1.39452
1.39898
1.43095
1.52193
1.73286
2.08826
1.5638
0.0786259
0.0820616
0.0844087
0.0780953
0.0797889
0.117975
0.338178
0.489862
0.556011
0.595622
0.618592
0.628268
0.104517
0.172094
0.186836
0.189542
0.302443
0.357748
0.493518
0.647107
0.784847
0.915604
1.03312
1.12438
0.161189
0.328686
0.387681
0.379151
0.437985
0.56748
0.749773
0.925837
1.0834
1.21614
1.31969
1.38667
0.197314
0.401685
0.454411
0.47287
0.581781
0.752324
0.934786
1.10059
1.24468
1.36196
1.44893
1.50224
0.218145
0.461416
0.527517
0.569213
0.700222
0.87405
1.04743
1.20028
1.33026
1.43515
1.51322
1.56193
0.21919
0.47775
0.569855
0.643604
0.778225
0.944316
1.10389
1.24351
1.36278
1.45932
1.53176
1.57908
0.209553
0.466191
0.577
0.681825
0.822796
0.979588
1.12585
1.25415
1.3645
1.4539
1.5219
1.5678
0.203918
0.450991
0.59203
0.72841
0.879273
1.02532
1.15499
1.26711
1.36312
1.4397
1.49898
1.54103
0.208707
0.464128
0.661443
0.849066
1.01295
1.1407
1.24078
1.32224
1.39098
1.44798
1.49093
1.52068
0.227987
0.545157
0.878714
1.13747
1.30432
1.39599
1.44531
1.47272
1.49168
1.50754
1.52036
1.52829
0.272769
0.747362
1.28225
1.58969
1.72472
1.76368
1.75785
1.72344
1.68237
1.64123
1.60473
1.57287
0.801059
1.22336
1.74659
1.99962
2.08001
2.07583
2.03169
1.95917
1.877
1.7936
1.71502
1.64405
0.624736
0.619843
0.608305
0.589828
0.563111
0.530875
0.490703
0.443065
0.384551
0.316487
0.249588
0.200867
1.18301
1.2051
1.1984
1.15657
1.10516
1.0502
0.992207
0.927851
0.846529
0.693607
0.510209
0.437754
1.41102
1.4099
1.38061
1.33378
1.28026
1.22691
1.17614
1.12478
1.06259
0.958665
0.725635
0.586289
1.52079
1.51842
1.49345
1.45344
1.4063
1.35956
1.31795
1.28138
1.24205
1.17375
0.982785
0.705179
1.58032
1.5786
1.55703
1.52229
1.48155
1.44261
1.41176
1.39078
1.37334
1.33521
1.19022
0.796838
1.60049
1.60177
1.58519
1.55697
1.52457
1.4961
1.47911
1.47503
1.48028
1.47409
1.38689
0.884893
1.59185
1.59708
1.58686
1.56581
1.54093
1.52126
1.51533
1.52846
1.55942
1.58344
1.55059
0.964512
1.56545
1.57368
1.56858
1.55423
1.53638
1.52495
1.52765
1.55216
1.60874
1.6685
1.67559
1.0557
1.53783
1.54347
1.53922
1.52789
1.51386
1.50807
1.51696
1.55255
1.6289
1.73087
1.7718
1.15455
1.52797
1.52213
1.51044
1.49499
1.48021
1.47542
1.48571
1.52657
1.62107
1.76382
1.87063
1.25734
1.54429
1.5173
1.49057
1.46519
1.44369
1.43438
1.44239
1.48133
1.58151
1.77033
1.98445
1.37809
1.58096
1.52679
1.48037
1.44096
1.40946
1.39239
1.39683
1.42875
1.51963
1.73044
2.08614
1.56242
1.95668
1.9903
2.03504
2.08845
2.11054
2.09965
2.07156
2.01703
1.94288
1.85985
1.77147
1.68466
1.83084
1.81817
1.82404
1.8464
1.87291
1.88861
1.88864
1.87234
1.84376
1.79641
1.72686
1.65281
1.62008
1.61048
1.60691
1.60824
1.61766
1.6292
1.63921
1.63977
1.63338
1.61703
1.59145
1.55294
1.41226
1.41057
1.40841
1.4074
1.41011
1.41716
1.4276
1.43725
1.43897
1.43541
1.4234
1.40392
1.60255
1.53028
1.46899
1.41837
1.37929
1.35676
1.35895
1.38304
1.45341
1.62964
2.02736
2.0105
1.57528
1.50312
1.43911
1.38689
1.34851
1.32762
1.32983
1.34819
1.39655
1.50629
1.78114
1.85941
1.49636
1.43892
1.38614
1.34449
1.31641
1.30107
1.30124
1.31151
1.34039
1.39114
1.53659
1.62577
1.37965
1.34993
1.31436
1.28622
1.26325
1.24428
1.23179
1.22786
1.24142
1.26505
1.33812
1.4008
1.9554
1.98881
2.03332
2.08684
2.10952
2.09885
2.07095
2.01669
1.94248
1.85935
1.77079
1.68376
1.82965
1.81662
1.82221
1.84445
1.87104
1.88736
1.88715
1.87113
1.84268
1.79557
1.72599
1.65187
1.61892
1.60902
1.60524
1.60636
1.61565
1.62731
1.63736
1.63808
1.63183
1.61566
1.59016
1.55177
1.41102
1.40913
1.4068
1.40563
1.40818
1.4152
1.42566
1.4354
1.43739
1.43399
1.42216
1.40281
1.60147
1.52907
1.46772
1.41714
1.37812
1.35595
1.35831
1.3827
1.45348
1.6302
2.02835
2.01162
1.57428
1.50208
1.43809
1.38597
1.34769
1.32722
1.32963
1.34832
1.39709
1.50731
1.78274
1.86122
1.49535
1.43801
1.38536
1.34394
1.31606
1.30123
1.30164
1.31228
1.34158
1.39268
1.53863
1.62807
1.37877
1.34936
1.31411
1.28633
1.26369
1.24515
1.23294
1.22934
1.24328
1.26715
1.34055
1.40341
1.95669
1.99025
2.03498
2.08862
2.11129
2.10056
2.07259
2.01824
1.94398
1.86077
1.77219
1.68517
1.83161
1.81877
1.82454
1.84688
1.87352
1.88999
1.88895
1.87312
1.84461
1.79721
1.72754
1.65335
1.62136
1.61158
1.6079
1.60909
1.61842
1.62996
1.63987
1.64044
1.63404
1.61765
1.59203
1.55345
1.4137
1.41184
1.40953
1.40837
1.41089
1.41782
1.42817
1.43777
1.43948
1.4359
1.4239
1.40441
1.6029
1.53052
1.46919
1.41858
1.37954
1.3572
1.35947
1.38373
1.45435
1.63091
2.02888
2.01204
1.57568
1.50344
1.4394
1.3872
1.34885
1.32814
1.33044
1.34895
1.39751
1.50753
1.78275
1.8611
1.49678
1.43931
1.38654
1.34495
1.31693
1.30177
1.30203
1.31244
1.34147
1.39241
1.53817
1.62748
1.38016
1.35046
1.31497
1.28693
1.26405
1.2452
1.23279
1.22895
1.24264
1.26639
1.33967
1.40246
1.95682
1.99024
2.03477
2.08831
2.1109
2.10014
2.07211
2.01768
1.94332
1.86
1.77129
1.68413
1.83136
1.81835
1.82396
1.84621
1.87279
1.88927
1.88824
1.87241
1.8439
1.79648
1.72675
1.65248
1.62069
1.61081
1.60706
1.60818
1.61748
1.62902
1.63896
1.63957
1.6332
1.61686
1.59125
1.55268
1.41272
1.41084
1.40851
1.40734
1.40987
1.41682
1.42721
1.43686
1.43864
1.4351
1.42313
1.40367
1.60172
1.52919
1.46773
1.41704
1.37793
1.35554
1.35782
1.38205
1.45261
1.62908
2.02719
2.01061
1.57474
1.5024
1.43829
1.38603
1.34763
1.32693
1.32925
1.34778
1.39634
1.5063
1.78149
1.86005
1.49601
1.4385
1.38567
1.34407
1.31604
1.30096
1.30125
1.3117
1.34078
1.39167
1.53731
1.6267
1.37944
1.34977
1.3143
1.28631
1.26348
1.24469
1.23232
1.2285
1.24219
1.26588
1.33904
1.40178
1.24592
1.24924
1.25308
1.25819
1.26592
1.27545
1.28445
1.28873
1.28434
1.27331
1.26119
1.25436
1.11999
1.13192
1.14249
1.15193
1.16061
1.16704
1.16923
1.16533
1.15531
1.14475
1.13946
1.13991
1.03086
1.05021
1.06501
1.07523
1.08134
1.08163
1.075
1.06316
1.04887
1.03684
1.02617
1.0074
0.966406
0.991135
1.00765
1.01672
1.01891
1.01161
0.995827
0.974805
0.952652
0.928328
0.891348
0.822057
1.25251
1.21906
1.17216
1.1365
1.10506
1.08583
1.08298
1.09712
1.12787
1.16659
1.21404
1.24024
1.1405
1.07927
1.00248
0.954779
0.926419
0.920673
0.935066
0.965723
1.00646
1.04925
1.08628
1.10713
0.992976
0.931807
0.846304
0.803653
0.789593
0.798483
0.8258
0.864973
0.908977
0.951096
0.985468
1.00962
0.761673
0.773799
0.710757
0.686572
0.688278
0.70966
0.744866
0.787679
0.832243
0.873752
0.909256
0.938444
1.24452
1.24766
1.25143
1.25648
1.2642
1.27378
1.28289
1.28735
1.28328
1.27253
1.26075
1.25415
1.11864
1.13048
1.14104
1.15049
1.1592
1.16571
1.16805
1.16443
1.15478
1.14469
1.14005
1.1406
1.02969
1.04905
1.06388
1.07412
1.08027
1.08063
1.0742
1.06268
1.0488
1.03722
1.02703
1.00844
0.965525
0.99032
1.00688
1.01596
1.01816
1.01094
0.995359
0.974663
0.952892
0.928959
0.892292
0.823182
1.25267
1.21958
1.17304
1.13774
1.1066
1.08766
1.08498
1.09928
1.13018
1.169
1.21659
1.24285
1.14142
1.0805
1.004
0.956562
0.928404
0.922803
0.937266
0.967972
1.00875
1.05159
1.08865
1.10951
0.994328
0.933388
0.848074
0.805585
0.791635
0.800584
0.827914
0.867079
0.911073
0.953188
0.987541
1.01165
0.763144
0.775437
0.712513
0.688421
0.690197
0.711605
0.746798
0.789571
0.834086
0.875547
0.910993
0.940119
1.24711
1.25019
1.25389
1.25885
1.26647
1.27592
1.28487
1.28914
1.28478
1.27388
1.26191
1.25509
1.12096
1.13267
1.14311
1.15245
1.16105
1.16743
1.16961
1.16575
1.15585
1.14557
1.14075
1.14099
1.03166
1.05085
1.06555
1.0757
1.08175
1.08202
1.0754
1.06363
1.04949
1.03769
1.0273
1.00844
0.967115
0.99175
1.0082
1.01723
1.01937
1.01204
0.99628
0.975334
0.953296
0.929112
0.892271
0.823019
1.2533
1.21992
1.17311
1.13753
1.10614
1.08695
1.08413
1.09831
1.12914
1.16795
1.21551
1.24176
1.14152
1.08031
1.00356
0.955871
0.927488
0.92172
0.93611
0.966798
1.00759
1.05047
1.08755
1.10841
0.994037
0.93288
0.847358
0.804655
0.790525
0.79937
0.826673
0.865868
0.909923
0.952103
0.986495
1.01063
0.762689
0.774798
0.711691
0.687415
0.689048
0.710378
0.745566
0.788395
0.832997
0.87454
0.910049
0.939199
1.24602
1.24912
1.25285
1.25786
1.26552
1.27502
1.28403
1.28835
1.28405
1.27317
1.26124
1.25445
1.11988
1.13163
1.14213
1.15152
1.16017
1.16661
1.16884
1.16503
1.15518
1.14493
1.14014
1.14041
1.03065
1.04989
1.06464
1.07484
1.08094
1.08125
1.07469
1.06297
1.04889
1.03713
1.02675
1.00787
0.96621
0.990879
1.00736
1.01642
1.01859
1.01131
0.995617
0.974742
0.952773
0.928638
0.891773
0.822406
1.25272
1.21937
1.1726
1.13706
1.1057
1.08655
1.08373
1.0979
1.12868
1.16741
1.21493
1.24122
1.14096
1.07973
1.00298
0.955332
0.927007
0.921291
0.935704
0.966374
1.00711
1.04988
1.08693
1.10793
0.99341
0.932198
0.846692
0.804063
0.790033
0.79895
0.826285
0.865457
0.909439
0.951497
0.985812
1.01012
0.761949
0.774025
0.710972
0.686819
0.688577
0.709996
0.745216
0.788009
0.83252
0.873943
0.909332
0.938516
0.917224
0.946121
0.963637
0.971373
0.970141
0.954978
0.927958
0.893023
0.850049
0.783731
0.637455
0.381323
0.876443
0.909502
0.928978
0.936713
0.932947
0.909742
0.868865
0.81202
0.733153
0.602249
0.325473
0.0969632
0.839233
0.876975
0.900016
0.909308
0.904856
0.874304
0.817911
0.734756
0.616126
0.435993
0.175152
0.0687758
0.802085
0.844556
0.872767
0.885193
0.882081
0.846304
0.776262
0.669875
0.522744
0.333825
0.15383
0.0697979
0.761987
0.808851
0.843029
0.859913
0.859847
0.82186
0.743137
0.622169
0.464031
0.293185
0.163568
0.0732129
0.716609
0.766938
0.806635
0.828346
0.832236
0.796023
0.714844
0.589182
0.433298
0.282965
0.176964
0.0753077
0.664303
0.716554
0.76025
0.786632
0.794982
0.763601
0.685904
0.563934
0.41748
0.282824
0.184899
0.0768333
0.603867
0.656108
0.701586
0.731698
0.744538
0.71977
0.650408
0.538351
0.40483
0.282683
0.187529
0.075112
0.533991
0.584046
0.628657
0.660701
0.677538
0.659631
0.602452
0.504772
0.386103
0.275027
0.182044
0.0689333
0.451585
0.496891
0.537516
0.569023
0.588509
0.576955
0.533102
0.454924
0.352755
0.252864
0.162148
0.0587113
0.345284
0.381361
0.414121
0.442027
0.461395
0.455267
0.423697
0.370871
0.291126
0.20426
0.120119
0.0437831
0.153397
0.168771
0.182165
0.196437
0.210026
0.212172
0.203141
0.185142
0.156457
0.115899
0.0729114
0.0298165
0.433312
0.60607
0.59685
0.595703
0.611571
0.641546
0.681063
0.725193
0.769705
0.811596
0.849535
0.883819
0.282727
0.476049
0.505705
0.523873
0.550021
0.585281
0.626856
0.671231
0.715664
0.758532
0.799371
0.838389
0.218502
0.388998
0.435266
0.464966
0.497349
0.535419
0.577633
0.621673
0.666005
0.710005
0.75366
0.796924
0.178284
0.326528
0.378376
0.41404
0.449645
0.488744
0.530635
0.573915
0.617959
0.662856
0.708877
0.755758
0.148877
0.277249
0.329642
0.367823
0.404568
0.443394
0.484237
0.526342
0.569736
0.615008
0.662628
0.712235
0.124944
0.234826
0.285715
0.324369
0.360751
0.398279
0.437456
0.477947
0.520197
0.565114
0.613338
0.664495
0.103825
0.19606
0.244693
0.282538
0.317365
0.352699
0.389633
0.428046
0.468586
0.51231
0.559977
0.611278
0.0857523
0.159053
0.205516
0.241578
0.273761
0.306038
0.340155
0.376006
0.414243
0.455886
0.501769
0.551667
0.0691973
0.123684
0.167544
0.20073
0.229103
0.2574
0.288089
0.320863
0.356177
0.394833
0.437656
0.484523
0.0532764
0.0900904
0.130049
0.158562
0.18162
0.204808
0.23129
0.260278
0.291925
0.326587
0.364994
0.407049
0.0370221
0.0576571
0.0905541
0.110725
0.125804
0.14206
0.163151
0.187049
0.213558
0.242507
0.274432
0.309058
0.028404
0.027425
0.0392628
0.0475153
0.052695
0.0582106
0.0674684
0.079606
0.0926521
0.106517
0.121423
0.137326
0.916653
0.945655
0.963214
0.970948
0.969704
0.954595
0.927764
0.893123
0.850456
0.784391
0.638172
0.381896
0.87618
0.909368
0.928884
0.936596
0.932791
0.909615
0.868887
0.812254
0.733566
0.602722
0.325749
0.0970488
0.839224
0.877114
0.900189
0.909457
0.904949
0.874395
0.818083
0.735037
0.616449
0.436238
0.175233
0.0688066
0.802275
0.844908
0.873157
0.885557
0.882385
0.846571
0.776538
0.670163
0.522981
0.333955
0.153893
0.0698277
0.762295
0.809332
0.843551
0.860423
0.860306
0.822253
0.743485
0.622463
0.464232
0.293304
0.163644
0.0732459
0.71697
0.767475
0.807223
0.828931
0.832782
0.796492
0.715236
0.589485
0.4335
0.283099
0.177053
0.0753424
0.664649
0.717074
0.760828
0.787222
0.795548
0.764094
0.68631
0.564241
0.417693
0.282973
0.184994
0.0768686
0.604157
0.656564
0.702103
0.73224
0.745071
0.720244
0.650802
0.538651
0.405045
0.282839
0.187625
0.0751469
0.534197
0.58441
0.629076
0.66116
0.678001
0.66005
0.602812
0.505048
0.386309
0.275178
0.182134
0.0689634
0.451709
0.497152
0.537828
0.56938
0.588881
0.577299
0.533406
0.455166
0.352936
0.252996
0.162222
0.0587353
0.345347
0.381524
0.414323
0.442274
0.461661
0.455519
0.423924
0.371063
0.291261
0.204356
0.120166
0.0437986
0.153383
0.16882
0.182239
0.196548
0.210151
0.212293
0.203252
0.185239
0.156535
0.115951
0.0729392
0.0298256
0.434387
0.607551
0.59844
0.59736
0.613311
0.643306
0.682798
0.726867
0.7713
0.813106
0.850964
0.885158
0.283508
0.477306
0.507103
0.525359
0.551583
0.586866
0.628412
0.672709
0.717037
0.759793
0.800517
0.839435
0.219123
0.390048
0.436476
0.466284
0.49875
0.536849
0.579029
0.622981
0.667187
0.711048
0.754574
0.797712
0.178791
0.327409
0.37942
0.415208
0.450905
0.490038
0.531894
0.575076
0.618979
0.663721
0.709589
0.756338
0.149298
0.277992
0.330545
0.368859
0.405702
0.444566
0.485374
0.527376
0.57062
0.615725
0.663186
0.712644
0.125292
0.235452
0.286496
0.325287
0.361773
0.399341
0.438482
0.478868
0.520966
0.565713
0.613767
0.664777
0.104112
0.196585
0.245365
0.283348
0.318279
0.353656
0.390554
0.428865
0.469254
0.51281
0.560313
0.611462
0.085991
0.159489
0.206085
0.242282
0.27457
0.306889
0.340973
0.376727
0.414821
0.456305
0.502028
0.551782
0.0693883
0.12402
0.168013
0.201328
0.229804
0.258142
0.288799
0.321485
0.356668
0.395179
0.437855
0.484587
0.0534451
0.0901513
0.13041
0.159044
0.182201
0.205425
0.231879
0.26079
0.292326
0.326862
0.36514
0.407073
0.0371657
0.0575511
0.0908197
0.111077
0.126238
0.142519
0.163587
0.187424
0.21385
0.2427
0.274521
0.309049
0.0277862
0.0311896
0.0395402
0.04768
0.0528922
0.0584152
0.0676426
0.0797546
0.0927668
0.106587
0.121445
0.137304
0.9179
0.94676
0.964242
0.97195
0.970672
0.955476
0.928466
0.893571
0.850637
0.784338
0.638039
0.381799
0.877119
0.910185
0.92965
0.937365
0.933553
0.910308
0.869412
0.812549
0.733637
0.60265
0.325726
0.0970693
0.839905
0.877692
0.900736
0.910015
0.905519
0.87492
0.81848
0.735255
0.616526
0.436287
0.175318
0.0688432
0.802737
0.845278
0.873498
0.885917
0.882766
0.846938
0.776832
0.670349
0.523106
0.334097
0.153994
0.0698664
0.762587
0.809535
0.843723
0.860604
0.860508
0.822469
0.743684
0.622618
0.464379
0.293451
0.163741
0.0732843
0.717129
0.767544
0.807251
0.828961
0.832829
0.796572
0.715341
0.589599
0.43363
0.283221
0.177136
0.0753807
0.664713
0.717051
0.760755
0.787138
0.795471
0.764064
0.686326
0.564308
0.417786
0.283067
0.185065
0.0769065
0.604155
0.656479
0.701963
0.732081
0.744908
0.720134
0.650745
0.538672
0.405097
0.282904
0.187689
0.07518
0.534151
0.584293
0.628902
0.660972
0.677779
0.659909
0.60269
0.505044
0.386319
0.275227
0.182187
0.0689951
0.451638
0.497018
0.537652
0.569183
0.588658
0.577133
0.533269
0.455123
0.352935
0.253026
0.162271
0.0587615
0.345264
0.381395
0.414169
0.442102
0.461469
0.455364
0.423799
0.370998
0.291265
0.20438
0.120207
0.0438181
0.153335
0.168751
0.182166
0.196467
0.210072
0.212214
0.203191
0.185192
0.156514
0.115959
0.0729528
0.029834
0.434045
0.606905
0.597617
0.596393
0.612189
0.642116
0.681614
0.725752
0.770287
0.812194
0.85012
0.884354
0.283229
0.4767
0.506316
0.524425
0.550513
0.58573
0.627286
0.67166
0.716103
0.758971
0.799782
0.838737
0.218876
0.389501
0.435751
0.465407
0.497742
0.535774
0.577965
0.621999
0.666328
0.710315
0.75393
0.797122
0.178567
0.326919
0.378764
0.414396
0.449961
0.489024
0.530891
0.574158
0.61819
0.663064
0.709037
0.75584
0.1491
0.277557
0.329954
0.368113
0.404823
0.443615
0.484433
0.526521
0.569897
0.615139
0.662705
0.712231
0.125116
0.235067
0.285968
0.324606
0.360959
0.398455
0.437606
0.478077
0.520306
0.565188
0.613354
0.664432
0.103957
0.196248
0.244898
0.282734
0.317536
0.352839
0.389746
0.428138
0.468655
0.512343
0.559953
0.611177
0.0858591
0.1592
0.205686
0.241742
0.273902
0.306148
0.340239
0.376069
0.414283
0.455891
0.501719
0.551544
0.0692774
0.123783
0.167693
0.20087
0.229222
0.257487
0.28815
0.320903
0.356196
0.39482
0.437591
0.484391
0.0533487
0.089971
0.130173
0.158679
0.181719
0.204873
0.23133
0.2603
0.29193
0.326564
0.364924
0.40692
0.0371427
0.0573674
0.0906332
0.110816
0.125886
0.142103
0.16317
0.187055
0.213553
0.24248
0.274367
0.308943
0.0285383
0.0311005
0.0393865
0.0475587
0.0527426
0.0582365
0.0674608
0.0795911
0.0926326
0.106486
0.121372
0.13725
0.917101
0.945976
0.963469
0.97119
0.969938
0.954791
0.927856
0.89305
0.850203
0.783958
0.637651
0.381402
0.876433
0.909497
0.928956
0.936663
0.932865
0.909664
0.868851
0.812082
0.733255
0.602323
0.325481
0.0969401
0.839322
0.877095
0.900115
0.909382
0.904884
0.874315
0.817942
0.734804
0.616138
0.43594
0.175112
0.0687385
0.802255
0.84478
0.872969
0.885361
0.882192
0.846368
0.776304
0.669881
0.522682
0.333723
0.153775
0.0697563
0.762191
0.809125
0.843274
0.860125
0.859999
0.821937
0.74316
0.622131
0.463928
0.29308
0.163496
0.0731685
0.716811
0.767217
0.806884
0.828555
0.832382
0.796078
0.714827
0.5891
0.433176
0.282859
0.17688
0.0752619
0.664455
0.716788
0.760453
0.786792
0.795083
0.763605
0.685834
0.56381
0.417343
0.282714
0.184807
0.0767859
0.603948
0.656267
0.701715
0.731786
0.744571
0.719711
0.650285
0.538189
0.404676
0.282566
0.187433
0.0750636
0.533987
0.584118
0.628696
0.660711
0.6775
0.659509
0.602287
0.504579
0.385936
0.274903
0.181943
0.0688875
0.451511
0.496881
0.537479
0.568969
0.588414
0.57679
0.532913
0.454722
0.352578
0.252735
0.162047
0.0586704
0.345176
0.381294
0.414037
0.441942
0.461273
0.455095
0.423515
0.370692
0.290951
0.204136
0.120031
0.0437509
0.153284
0.168696
0.182097
0.196407
0.209981
0.212102
0.20306
0.185061
0.15638
0.115832
0.0728642
0.0297947
0.433387
0.606125
0.596914
0.595807
0.611762
0.641782
0.681306
0.725395
0.769816
0.811572
0.849335
0.883506
0.282691
0.476006
0.505697
0.523919
0.550143
0.58545
0.627023
0.671334
0.715638
0.758323
0.798911
0.83774
0.218442
0.38892
0.435225
0.464978
0.497432
0.535546
0.577749
0.621706
0.665876
0.709648
0.753001
0.796002
0.178226
0.326447
0.378322
0.414039
0.449708
0.488848
0.530722
0.573904
0.617763
0.662403
0.708075
0.754644
0.148825
0.277175
0.32959
0.367819
0.404623
0.443488
0.484312
0.526313
0.569509
0.614506
0.661761
0.711016
0.124904
0.23476
0.285672
0.324369
0.360807
0.398372
0.43753
0.477918
0.519969
0.564611
0.612465
0.663264
0.103793
0.196006
0.244662
0.282546
0.317423
0.352795
0.389714
0.42803
0.468378
0.51184
0.55916
0.610112
0.0857275
0.159015
0.205502
0.241594
0.27382
0.306134
0.340244
0.37601
0.41407
0.455474
0.501043
0.550631
0.0691783
0.123661
0.167547
0.200754
0.229159
0.257492
0.28818
0.320887
0.356043
0.39449
0.437046
0.483662
0.0532778
0.0900867
0.130054
0.158584
0.181667
0.204883
0.231375
0.260312
0.291829
0.32631
0.364506
0.4064
0.0375378
0.0576121
0.0904912
0.110727
0.125832
0.142102
0.163213
0.187081
0.213488
0.242277
0.274051
0.308705
0.0245365
0.0266726
0.0391086
0.0474959
0.0527014
0.0582206
0.0675082
0.0796447
0.0926487
0.106444
0.121309
0.137267
)
;

boundaryField
{
    rotor
    {
        type            kqRWallFunction;
        value           nonuniform List<scalar> 
192
(
0.0789493
0.0823551
0.0846954
0.0784175
0.0803402
0.120208
0.341278
0.491787
0.557431
0.596984
0.619748
0.629344
0.625723
0.620728
0.60913
0.590513
0.563737
0.531418
0.491186
0.443469
0.384872
0.316715
0.249727
0.200983
0.0785822
0.0820163
0.0843609
0.0780501
0.0797468
0.11798
0.338278
0.490103
0.556336
0.596018
0.619039
0.628746
0.625215
0.620317
0.60878
0.590268
0.56351
0.53122
0.490989
0.44328
0.384703
0.316572
0.249577
0.200899
0.0786454
0.0820695
0.0843968
0.0780978
0.0798907
0.118826
0.339736
0.491327
0.557468
0.59719
0.620174
0.629869
0.626304
0.621368
0.609785
0.591181
0.564354
0.531973
0.491659
0.443849
0.385173
0.316928
0.249821
0.201112
0.0786259
0.0820616
0.0844087
0.0780953
0.0797889
0.117975
0.338178
0.489862
0.556011
0.595622
0.618592
0.628268
0.624736
0.619843
0.608305
0.589828
0.563111
0.530875
0.490703
0.443065
0.384551
0.316487
0.249588
0.200867
0.0789493
0.104814
0.161956
0.19828
0.219437
0.220062
0.210266
0.204247
0.208771
0.227867
0.272536
0.801236
0.200867
0.437754
0.586289
0.705179
0.796838
0.884893
0.964512
1.0557
1.15455
1.25734
1.37809
1.56242
0.0785822
0.104467
0.161142
0.19728
0.218142
0.219179
0.209564
0.20395
0.208729
0.227976
0.272666
0.800306
0.200983
0.438019
0.586628
0.705586
0.797305
0.885417
0.965083
1.05633
1.15522
1.25801
1.37869
1.56281
0.0786454
0.104561
0.161403
0.197639
0.218634
0.219562
0.209888
0.204207
0.208936
0.228186
0.272932
0.801132
0.200899
0.437831
0.586453
0.705433
0.797162
0.88527
0.964935
1.05617
1.15507
1.25792
1.37873
1.56313
0.0786259
0.104517
0.161189
0.197314
0.218145
0.21919
0.209553
0.203918
0.208707
0.227987
0.272769
0.801059
0.201112
0.438267
0.587014
0.706088
0.797878
0.886035
0.965739
1.05701
1.15592
1.25875
1.37949
1.5638
)
;
    }
    stator
    {
        type            kqRWallFunction;
        value           nonuniform List<scalar> 
192
(
0.153397
0.168771
0.182165
0.196437
0.210026
0.212172
0.203141
0.185142
0.156457
0.115899
0.0729114
0.0298165
0.028404
0.027425
0.0392628
0.0475153
0.052695
0.0582106
0.0674684
0.079606
0.0926521
0.106517
0.121423
0.137326
0.153383
0.16882
0.182239
0.196548
0.210151
0.212293
0.203252
0.185239
0.156535
0.115951
0.0729392
0.0298256
0.0277862
0.0311896
0.0395402
0.04768
0.0528922
0.0584152
0.0676426
0.0797546
0.0927668
0.106587
0.121445
0.137304
0.153335
0.168751
0.182166
0.196467
0.210072
0.212214
0.203191
0.185192
0.156514
0.115959
0.0729528
0.029834
0.0285383
0.0311005
0.0393865
0.0475587
0.0527426
0.0582365
0.0674608
0.0795911
0.0926326
0.106486
0.121372
0.13725
0.153284
0.168696
0.182097
0.196407
0.209981
0.212102
0.20306
0.185061
0.15638
0.115832
0.0728642
0.0297947
0.0245365
0.0266726
0.0391086
0.0474959
0.0527014
0.0582206
0.0675082
0.0796447
0.0926487
0.106444
0.121309
0.137267
0.433312
0.282727
0.218502
0.178284
0.148877
0.124944
0.103825
0.0857523
0.0691973
0.0532764
0.0370221
0.028404
0.381323
0.0969632
0.0687758
0.0697979
0.0732129
0.0753077
0.0768333
0.075112
0.0689333
0.0587113
0.0437831
0.0298165
0.434387
0.283508
0.219123
0.178791
0.149298
0.125292
0.104112
0.085991
0.0693883
0.0534451
0.0371657
0.0277862
0.381896
0.0970488
0.0688066