/*--------------------------------*- C++ -*----------------------------------*\
  =========                 |
  \\      /  F ield         | OpenFOAM: The Open Source CFD Toolbox
   \\    /   O peration     | Website:  https://openfoam.org
    \\  /    A nd           | Version:  6
     \\/     M anipulation  |
\*---------------------------------------------------------------------------*/
FoamFile
{
    version     2.0;
    format      ascii;
    class       volScalarField;
    location    "200";
    object      nut;
}
// * * * * * * * * * * * * * * * * * * * * * * * * * * * * * * * * * * * * * //

dimensions      [0 2 -1 0 0 0 0];

internalField   nonuniform List<scalar> 
3072
(
0.000170328
8.10348e-05
8.21938e-05
7.90486e-05
7.98203e-05
9.66411e-05
0.000164056
0.000197959
0.000211074
0.000218544
0.000222798
0.000224577
5.5842e-05
0.000173105
0.000193556
0.000120136
0.000160403
0.000193433
0.000280048
0.000405393
0.000569103
0.000758853
0.000962507
0.00114482
7.6797e-05
0.000318322
0.000306829
0.000272187
0.000327397
0.000470425
0.00069467
0.000993038
0.00131615
0.00163026
0.00191477
0.00214436
9.3146e-05
0.00039333
0.000414014
0.000427895
0.000580465
0.000842182
0.0011809
0.00155881
0.00193779
0.00229013
0.00258957
0.00282197
0.000106584
0.000493556
0.000560341
0.000624257
0.000854791
0.00118867
0.00157866
0.00197593
0.00235976
0.00271055
0.00300906
0.00324577
0.000115463
0.000557283
0.000683084
0.000818344
0.00109128
0.00144905
0.00184289
0.00223378
0.00260524
0.00294154
0.00322824
0.00346152
0.000121361
0.000615288
0.000779792
0.000970416
0.00125136
0.00160466
0.0019833
0.00235804
0.00271466
0.00302948
0.00329867
0.00351942
0.000127892
0.000686382
0.000904076
0.00110628
0.0013961
0.00172457
0.00206345
0.00239721
0.00271863
0.00300008
0.0032444
0.00345002
0.000137498
0.000759248
0.00105722
0.0013379
0.00162217
0.00189862
0.00216764
0.00243212
0.00268878
0.00292715
0.00313353
0.00331028
0.000152067
0.000863573
0.00129515
0.00163734
0.00190138
0.00210454
0.00228096
0.00245733
0.00263061
0.00280518
0.00297326
0.00312746
0.000175436
0.000853312
0.00144789
0.0018093
0.00204565
0.00218995
0.00233267
0.00244831
0.00256216
0.00267544
0.00279073
0.00290496
0.000316268
0.000811437
0.00151724
0.00193506
0.00214416
0.00229175
0.00240613
0.00248767
0.00255677
0.00262097
0.00268584
0.0027541
0.000223984
0.000223134
0.000221031
0.000217677
0.000212681
0.000206491
0.000198498
0.000188552
0.000175597
0.000159291
0.00014145
6.89055e-05
0.00130521
0.00140173
0.00145028
0.00140886
0.00133413
0.00121977
0.00106901
0.000877153
0.000672674
0.000416857
0.000200496
0.000114225
0.00229137
0.00239044
0.00241255
0.00235901
0.00224022
0.0020695
0.00184551
0.00154856
0.00119087
0.000787745
0.000344479
0.000146315
0.00297573
0.00308704
0.00312854
0.00309924
0.00299178
0.00281812
0.00257001
0.00222032
0.00177128
0.00122683
0.000596164
0.000175869
0.0034097
0.00353174
0.00359385
0.00359429
0.00352224
0.00337742
0.00315197
0.00280392
0.00231238
0.00166183
0.000860266
0.000203324
0.00363423
0.00376266
0.0038389
0.00386346
0.00383195
0.00373933
0.00357543
0.00327922
0.00280195
0.00210035
0.00116359
0.000231527
0.00369199
0.00382242
0.00390995
0.00395213
0.00394991
0.00390476
0.00380596
0.00360246
0.00321063
0.00251961
0.0014889
0.000259743
0.00361954
0.00375173
0.00384657
0.00390445
0.00392777
0.00392394
0.00388245
0.00376614
0.00349813
0.00287834
0.00178159
0.000290672
0.00346067
0.00358485
0.00368135
0.00374909
0.00378979
0.00382122
0.00382753
0.00380739
0.00366761
0.00318423
0.00203088
0.000323684
0.00325448
0.00336389
0.00345065
0.00351674
0.00357032
0.00363009
0.00366674
0.00372092
0.00372558
0.00341569
0.00231773
0.00035839
0.00301332
0.00310927
0.00318911
0.00325556
0.00331399
0.00338919
0.00345196
0.00354371
0.00365298
0.00357471
0.00266268
0.000396709
0.00282276
0.00289107
0.00295619
0.00301574
0.00307176
0.00314748
0.00323789
0.00333377
0.00349548
0.00361681
0.00306139
0.000445273
0.000169637
8.08996e-05
8.20319e-05
7.88555e-05
7.95215e-05
9.57875e-05
0.000163355
0.000197629
0.000210872
0.000218372
0.000222672
0.000224472
5.57488e-05
0.00017325
0.000194349
0.000119663
0.000158677
0.000192216
0.000278302
0.000403335
0.0005662
0.000755879
0.00095958
0.00114213
7.65925e-05
0.000317904
0.000306768
0.000272209
0.00032431
0.000466751
0.000689652
0.000987484
0.0013101
0.00162443
0.00190939
0.0021401
9.2917e-05
0.000392592
0.000411959
0.000423618
0.000575455
0.000836357
0.00117378
0.00155134
0.00193047
0.00228334
0.00258319
0.00281665
0.000106286
0.000492003
0.000557776
0.000620198
0.000848673
0.00118148
0.0015708
0.0019681
0.00235217
0.00270355
0.00300271
0.00324048
0.000115225
0.000555865
0.000679818
0.000812113
0.00108494
0.0014418
0.00183528
0.00222616
0.00259794
0.00293466
0.00322191
0.00345599
0.000121141
0.000614025
0.000776787
0.000965822
0.00124508
0.00159763
0.00197586
0.00235039
0.00270769
0.00302288
0.00329257
0.00351399
0.000127793
0.000686202
0.000901574
0.00110269
0.00139147
0.00171914
0.00205736
0.00239049
0.00271216
0.00299406
0.00323862
0.00344465
0.000137483
0.000759114
0.00105663
0.00133644
0.00161994
0.00189549
0.00216355
0.00242687
0.00268328
0.00292179
0.00312843
0.00330531
0.000152105
0.000864619
0.00129634
0.00163804
0.00190158
0.00210392
0.00227912
0.00245445
0.00262717
0.00280082
0.00296856
0.00312268
0.000175484
0.000854034
0.00144803
0.00180912
0.0020455
0.00218919
0.00233166
0.00244652
0.0025597
0.00267228
0.00278693
0.00290077
0.000316107
0.000810915
0.00151668
0.00193407
0.00214397
0.00229086
0.00240512
0.00248629
0.00255491
0.00261857
0.00268285
0.00275062
0.000223888
0.000223043
0.000220966
0.000217625
0.00021263
0.000206444
0.000198451
0.000188507
0.000175558
0.000159254
0.000141405
6.88945e-05
0.00130307
0.0014004
0.00144934
0.00140825
0.00133382
0.00121968
0.00106903
0.0008772
0.000672716
0.000416865
0.000200478
0.000114198
0.00228815
0.00238797
0.00241075
0.00235778
0.00223946
0.00206919
0.00184535
0.00154849
0.00119085
0.000787789
0.000344488
0.000146288
0.00297154
0.00308377
0.00312606
0.00309745
0.00299055
0.00281754
0.00256971
0.00222017
0.00177119
0.00122681
0.000596189
0.000175843
0.00340504
0.00352807
0.00359109
0.00359239
0.0035211
0.00337707
0.00315182
0.00280387
0.00231232
0.00166176
0.000860246
0.000203296
0.00362955
0.00375881
0.00383602
0.00386153
0.00383084
0.00373907
0.00357556
0.00327934
0.00280195
0.00210022
0.00116347
0.000231497
0.0036873
0.00381855
0.00390694
0.00395015
0.00394886
0.00390443
0.00380605
0.00360267
0.0032108
0.0025195
0.00148865
0.00025971
0.0036148
0.00374775
0.00384326
0.00390218
0.00392635
0.00392339
0.0038825
0.00376658
0.00349859
0.00287839
0.00178141
0.000290632
0.00345601
0.00358075
0.00367772
0.00374637
0.0037879
0.00382027
0.00382717
0.00380766
0.00366833
0.00318445
0.00203067
0.000323646
0.00324996
0.00335959
0.00344674
0.0035135
0.00356785
0.00362866
0.00366586
0.00372086
0.00372634
0.00341632
0.00231762
0.000358358
0.00300892
0.00310502
0.0031851
0.00325199
0.00331103
0.00338743
0.00345048
0.00354326
0.00365371
0.00357561
0.0026628
0.000396694
0.00281898
0.00288714
0.00295233
0.00301219
0.00306859
0.00314555
0.00323619
0.00333307
0.00349596
0.00361836
0.00306202
0.000445292
0.000169785
8.09335e-05
8.2061e-05
7.88915e-05
7.96006e-05
9.61232e-05
0.000163703
0.000197873
0.000211085
0.000218585
0.000222875
0.00022467
5.5777e-05
0.000173202
0.000193946
0.000119728
0.000159137
0.000192762
0.000279073
0.000404342
0.000567668
0.000757589
0.000961521
0.00114425
7.66571e-05
0.000318098
0.000306374
0.000271869
0.000325536
0.000468178
0.000691676
0.000989993
0.00131315
0.00162781
0.00191303
0.00214381
9.30063e-05
0.000392777
0.000413058
0.000425292
0.000577506
0.000838601
0.00117674
0.00155483
0.00193438
0.00228758
0.00258779
0.00282135
0.000106413
0.000492795
0.000559321
0.000624173
0.000850776
0.00118437
0.00157424
0.00197198
0.00235648
0.00270818
0.00300765
0.00324555
0.000115332
0.000556587
0.000681384
0.000814365
0.00108736
0.00144486
0.00183882
0.00223014
0.00260228
0.00293937
0.00322694
0.00346122
0.00012124
0.000614731
0.000778048
0.000967627
0.00124757
0.00160069
0.00197938
0.00235429
0.00271186
0.00302745
0.00329748
0.00351915
0.000127874
0.000686644
0.000902684
0.00110424
0.00139363
0.00172182
0.00206049
0.00239397
0.002716
0.00299819
0.0032432
0.00344956
0.000137549
0.000759596
0.00105751
0.00133779
0.00162171
0.00189774
0.00216624
0.00242975
0.00268654
0.00292553
0.0031325
0.00330977
0.00015217
0.000865031
0.00129723
0.00163934
0.0019032
0.00210589
0.0022815
0.00245705
0.00263004
0.00280435
0.00297255
0.00312706
0.000175562
0.0008546
0.00144913
0.00181069
0.00204734
0.00219138
0.00233409
0.00244926
0.00256272
0.00267561
0.00279063
0.00290481
0.000316252
0.000811669
0.00151799
0.001936
0.0021461
0.00229333
0.00240784
0.00248919
0.00255799
0.00262182
0.00268632
0.00275433
0.000224085
0.000223242
0.000221146
0.000217793
0.000212789
0.00020659
0.000198587
0.000188629
0.000175665
0.000159337
0.000141456
6.89492e-05
0.00130524
0.00140249
0.00145139
0.00141021
0.00133561
0.00122123
0.0010704
0.000878219
0.000673409
0.000417246
0.000200618
0.000114255
0.00229181
0.0023916
0.00241428
0.00236114
0.00224258
0.00207189
0.00184773
0.00155041
0.0011922
0.000788574
0.000344781
0.000146357
0.0029762
0.00308837
0.00313055
0.00310177
0.00299463
0.00282115
0.00257293
0.00222285
0.0017732
0.00122804
0.000596667
0.000175924
0.00341023
0.00353321
0.00359613
0.00359726
0.00352576
0.00338128
0.00315565
0.00280718
0.0023149
0.00166344
0.000860965
0.000203386
0.00363489
0.00376419
0.00384132
0.00386669
0.00383583
0.00374371
0.00357977
0.0032831
0.002805
0.00210229
0.00116441
0.000231597
0.00369261
0.00382393
0.00391233
0.00395546
0.00395401
0.0039093
0.00381053
0.00360665
0.00321411
0.00252186
0.00148982
0.000259818
0.00361992
0.003753
0.0038486
0.00390745
0.00393149
0.00392831
0.00388715
0.00377071
0.00350195
0.00288088
0.00178262
0.000290749
0.00346078
0.00358574
0.00368289
0.00375156
0.00379299
0.00382516
0.00383204
0.00381188
0.00367182
0.00318708
0.00203194
0.000323767
0.0032545
0.00336439
0.00345176
0.00351851
0.00357279
0.00363337
0.00367033
0.00372499
0.0037298
0.00341878
0.00231886
0.000358477
0.00301331
0.00310954
0.00318976
0.00325669
0.0033157
0.00339183
0.00345461
0.00354716
0.00365701
0.00357811
0.00266396
0.000396805
0.00282289
0.00289126
0.00295658
0.00301646
0.00307286
0.00314947
0.00324004
0.00333657
0.00349894
0.0036205
0.00306302
0.000445394
0.000169728
8.09196e-05
8.20519e-05
7.88743e-05
7.95391e-05
9.57788e-05
0.000163327
0.000197578
0.00021081
0.000218299
0.000222592
0.000224387
5.57601e-05
0.000173298
0.000194392
0.000119645
0.000158795
0.000192141
0.000278206
0.000403142
0.000565894
0.000755428
0.000958992
0.00114137
7.66028e-05
0.000317958
0.000306883
0.000272298
0.000324244
0.000466479
0.000689295
0.000986963
0.00130943
0.00162357
0.00190837
0.00213879
9.2925e-05
0.000392584
0.000411913
0.000423397
0.000575113
0.000835875
0.0011732
0.00155058
0.00192958
0.00228226
0.00258198
0.00281515
0.000106287
0.000491874
0.00055759
0.000620116
0.000848243
0.00118093
0.00157013
0.00196731
0.00235126
0.00270246
0.00300141
0.00323887
0.000115252
0.000555696
0.000679589
0.000811668
0.00108446
0.00144124
0.00183464
0.00222543
0.00259712
0.00293368
0.0032207
0.0034545
0.000121153
0.000614133
0.000776476
0.000965265
0.00124447
0.00159698
0.00197519
0.00234968
0.00270693
0.00302192
0.00329138
0.00351254
0.000127788
0.000686093
0.000901175
0.00110213
0.00139089
0.00171855
0.00205677
0.00238993
0.00271153
0.00299328
0.00323763
0.00344342
0.000137477
0.000758939
0.00105627
0.001336
0.00161948
0.00189503
0.0021631
0.00242667
0.00268302
0.00292122
0.00312771
0.00330438
0.000152107
0.000864598
0.00129629
0.00163805
0.00190157
0.00210386
0.00227898
0.00245441
0.00262715
0.00280048
0.00296801
0.00312191
0.000175513
0.000854302
0.00144845
0.00180971
0.00204608
0.0021896
0.00233209
0.00244685
0.00255991
0.00267232
0.0027868
0.00290044
0.000316242
0.000811549
0.00151758
0.00193532
0.00214512
0.0022921
0.00240628
0.00248729
0.00255575
0.0026192
0.00268328
0.00275083
0.000223807
0.00022297
0.000220881
0.000217547
0.000212558
0.00020638
0.000198397
0.000188464
0.000175524
0.000159239
0.000141429
6.88682e-05
0.00130213
0.00139927
0.0014481
0.00140693
0.0013325
0.00121846
0.00106787
0.000876336
0.000672153
0.0004166
0.000200411
0.000114185
0.00228656
0.00238619
0.0024088
0.00235573
0.00223742
0.00206729
0.00184364
0.00154712
0.00118987
0.000787204
0.000344289
0.000146271
0.00296974
0.00308173
0.00312382
0.00309508
0.00298813
0.00281519
0.00256752
0.00221832
0.00176983
0.00122597
0.000595848
0.000175815
0.00340321
0.00352595
0.00358869
0.00358975
0.00351826
0.00337418
0.00314914
0.00280153
0.00231052
0.00166063
0.000859772
0.000203259
0.00362774
0.0037567
0.00383356
0.00385875
0.0038278
0.00373584
0.00357243
0.00327656
0.00279977
0.00209884
0.00116288
0.000231454
0.00368556
0.00381648
0.00390453
0.00394733
0.00394568
0.00390105
0.0038027
0.00359961
0.0032083
0.00251787
0.001488
0.000259659
0.0036133
0.00374587
0.00384107
0.00389955
0.00392337
0.00392007
0.00387904
0.00376323
0.00349573
0.00287648
0.00178064
0.000290574
0.00345482
0.00357918
0.00367584
0.00374406
0.00378522
0.00381718
0.00382387
0.00380426
0.00366514
0.00318222
0.00202982
0.000323581
0.00324906
0.0033584
0.00344519
0.00351165
0.00356563
0.00362593
0.00366289
0.00371759
0.00372297
0.00341374
0.00231664
0.000358284
0.00300837
0.00310428
0.00318409
0.00325069
0.00330936
0.0033851
0.00344802
0.0035403
0.00365029
0.00357266
0.00266167
0.000396612
0.00281899
0.00288689
0.00295184
0.00301139
0.00306748
0.00314369
0.0032342
0.00333052
0.00349282
0.00361496
0.00306053
0.000445199
0.00192257
0.00198325
0.0020969
0.00225725
0.00237034
0.00244049
0.00252294
0.00258965
0.00262614
0.00265096
0.0026704
0.002694
0.00296743
0.00281391
0.00274077
0.00272341
0.00272843
0.00271847
0.0027227
0.00272064
0.00271818
0.00270437
0.00269283
0.00269469
0.00354081
0.00340253
0.0032882
0.0031861
0.00310654
0.0030298
0.0029663
0.00289547
0.00285188
0.00281204
0.00278763
0.00275039
0.00376599
0.00367354
0.00356876
0.00345853
0.00334967
0.00324208
0.00314272
0.00304993
0.00294908
0.00287663
0.00283051
0.00279924
0.00272069
0.00275421
0.00279468
0.00283865
0.00288799
0.00295755
0.0030645
0.00315263
0.00332673
0.00360599
0.00396194
0.00197558
0.00269305
0.00270119
0.00271529
0.00274165
0.00278314
0.00284743
0.00295773
0.00304456
0.0032035
0.00347555
0.00407903
0.0032314
0.0027015
0.00269337
0.00269485
0.00271905
0.00276388
0.00282843
0.00292757
0.00304185
0.00319058
0.00338003
0.00383455
0.00371388
0.0027775
0.00275927
0.00274462
0.00277827
0.00283344
0.0029109
0.00301272
0.00314442
0.00330087
0.00344999
0.00373319
0.00381778
0.00192036
0.00198113
0.00209446
0.00225483
0.00236878
0.00243877
0.00252063
0.00258778
0.00262406
0.00264871
0.00266776
0.00269098
0.00296456
0.00281075
0.00273754
0.00272019
0.00272536
0.00271681
0.00271962
0.00271782
0.00271551
0.00270203
0.00268997
0.00269169
0.0035373
0.00339872
0.00328455
0.00318244
0.00310281
0.00302665
0.00296308
0.00289243
0.00284867
0.00280908
0.00278465
0.00274744
0.0037625
0.00366967
0.00356496
0.00345479
0.00334581
0.0032385
0.00313931
0.00304666
0.00294649
0.00287387
0.00282799
0.00279681
0.00271739
0.00275075
0.0027912
0.00283543
0.00288503
0.00295595
0.00306311
0.00315219
0.0033275
0.00360802
0.00396455
0.0019771
0.00268996
0.0026981
0.00271235
0.00273909
0.00278083
0.00284661
0.00295726
0.00304503
0.00320521
0.0034786
0.00408344
0.0032351
0.00269862
0.00269082
0.00269264
0.00271751
0.00276283
0.00282899
0.00292859
0.00304385
0.00319397
0.00338437
0.00384023
0.00371956
0.00277558
0.00275812
0.00274402
0.00277859
0.00283458
0.00291331
0.0030157
0.00314833
0.00330602
0.0034558
0.00373981
0.00382448
0.00192213
0.00198313
0.00209694
0.0022577
0.00237179
0.00244189
0.00252402
0.00259117
0.00262749
0.00265204
0.00267118
0.00269451
0.00296821
0.00281453
0.00274146
0.00272423
0.00272958
0.00272174
0.00272255
0.00272165
0.00271941
0.00270543
0.00269361
0.00269526
0.00354279
0.003404
0.00328965
0.0031874
0.00310772
0.00303118
0.00296728
0.00289648
0.0028528
0.00281288
0.00278837
0.00275099
0.00376889
0.00367569
0.00357058
0.00346009
0.00335074
0.00324295
0.00314347
0.00305062
0.00294979
0.00287731
0.00283122
0.00279995
0.00272101
0.00275448
0.00279501
0.00283919
0.00288877
0.00295912
0.00306625
0.00315493
0.00332974
0.0036096
0.00396518
0.0019772
0.00269346
0.00270154
0.00271568
0.00274224
0.0027839
0.00284891
0.00295941
0.00304672
0.00320632
0.00347913
0.0040833
0.00323451
0.00270193
0.00269381
0.00269539
0.00271986
0.00276491
0.0028301
0.00292948
0.00304421
0.0031935
0.00338352
0.003839
0.00371803
0.00277823
0.00276003
0.00274564
0.00277961
0.00283507
0.00291296
0.003015
0.00314705
0.00330403
0.00345353
0.00373742
0.0038221
0.00192189
0.00198282
0.0020963
0.00225684
0.00237072
0.00244066
0.00252253
0.00258948
0.0026256
0.00264993
0.00266877
0.00269176
0.00296743
0.00281355
0.00274033
0.00272296
0.00272819
0.00272029
0.00272095
0.00271996
0.00271765
0.00270354
0.00269146
0.00269291
0.00354114
0.00340231
0.003288
0.0031857
0.00310599
0.00302946
0.00296556
0.00289475
0.00285098
0.00281105
0.00278648
0.00274901
0.00376656
0.00367343
0.00356843
0.00345803
0.00334877
0.00324111
0.00314169
0.00304886
0.00294813
0.00287552
0.00282941
0.00279807
0.00271792
0.00275101
0.00279116
0.00283505
0.00288436
0.00295448
0.00306146
0.00314995
0.00332454
0.00360452
0.00396183
0.00197615
0.00269088
0.0026987
0.00271264
0.00273895
0.00278034
0.00284526
0.00295565
0.00304279
0.00320219
0.0034748
0.00407927
0.0032328
0.00269977
0.0026915
0.00269288
0.00271721
0.00276206
0.00282731
0.00292655
0.00304115
0.00319047
0.00338026
0.00383524
0.00371556
0.00277634
0.00275808
0.0027435
0.0027774
0.00283279
0.00291074
0.00301279
0.00314488
0.00330195
0.00345132
0.00373472
0.0038193
0.00373159
0.00362754
0.0035084
0.00338236
0.00325551
0.00312962
0.00302138
0.002938
0.00285886
0.0028025
0.00278135
0.00279356
0.00368441
0.00357173
0.00343955
0.00329745
0.00315325
0.00301496
0.00291125
0.00282736
0.0027535
0.00270135
0.00268617
0.0027044
0.00362816
0.0035115
0.00336832
0.00321085
0.00305257
0.00291355
0.00279671
0.00268996
0.00258845
0.00249992
0.00242388
0.00234847
0.00356459
0.00345049
0.00329855
0.0031312
0.00296918
0.00282323
0.00267545
0.00251495
0.00234058
0.00212757
0.0018843
0.00158267
0.00284549
0.00290288
0.00293006
0.00300246
0.00310228
0.00322338
0.00335355
0.0034834
0.00360176
0.00370441
0.00379835
0.00380076
0.00279687
0.00298852
0.00303843
0.00313276
0.00326285
0.00340701
0.00353631
0.00364628
0.00372783
0.00378596
0.00380116
0.00375916
0.00241008
0.00294073
0.00307863
0.00321803
0.00337534
0.00350988
0.00362669
0.00370884
0.00375966
0.00378288
0.00376459
0.0037086
0.00145551
0.0026587
0.00302709
0.00324859
0.00340668
0.00353991
0.00363411
0.00369481
0.00372688
0.00373166
0.00370401
0.00364517
0.00372771
0.00362355
0.00350462
0.00337874
0.00325204
0.00312634
0.00301815
0.00293514
0.00285682
0.00280118
0.00278064
0.00279312
0.00368048
0.00356809
0.00343622
0.00329437
0.0031504
0.00301175
0.00290822
0.00282485
0.00275038
0.00270193
0.00268832
0.00270597
0.0036245
0.00350848
0.00336572
0.00320847
0.00305025
0.00291064
0.00279408
0.0026883
0.00258772
0.00250072
0.00242577
0.00235002
0.0035615
0.00344824
0.00329675
0.00312969
0.00296724
0.00282081
0.0026733
0.00251384
0.00234036
0.00212829
0.0018852
0.00158385
0.00284578
0.00290419
0.00293222
0.00300557
0.00310621
0.00322809
0.00335871
0.00348904
0.00360793
0.00371094
0.00380506
0.00380733
0.00279855
0.00299143
0.00304228
0.00313747
0.00326822
0.00341287
0.00354249
0.00365268
0.0037344
0.0037926
0.00380762
0.00376538
0.002412
0.00294428
0.00308325
0.00322345
0.00338139
0.00351638
0.00363347
0.00371568
0.00376637
0.0037894
0.00377064
0.00371413
0.00145699
0.00266199
0.00303179
0.00325416
0.00341315
0.00354687
0.00364133
0.00370193
0.00373362
0.00373789
0.0037096
0.00365012
0.00373387
0.00362914
0.00350967
0.00338331
0.00325618
0.00313013
0.00302191
0.00293866
0.00285948
0.00280362
0.00278293
0.00279494
0.00368614
0.00357295
0.00344047
0.00329814
0.00315375
0.00301532
0.00291178
0.00282764
0.00275243
0.00270351
0.00268983
0.00270684
0.00362956
0.00351259
0.00336912
0.00321156
0.00305314
0.00291391
0.00279712
0.0026905
0.00258918
0.00250162
0.00242642
0.00235034
0.00356584
0.00345157
0.00329946
0.00313212
0.00296989
0.00282365
0.00267585
0.00251554
0.00234138
0.00212874
0.00188556
0.0015839
0.00284686
0.00290442
0.00293189
0.00300452
0.00310451
0.00322579
0.00335611
0.00348621
0.00360492
0.00370794
0.00380213
0.0038045
0.0027988
0.00299048
0.00304064
0.00313509
0.0032652
0.00340937
0.00353876
0.00364889
0.00373069
0.00378909
0.00380433
0.00376223
0.00241178
0.00294277
0.00308092
0.00322033
0.00337759
0.00351209
0.00362895
0.00371118
0.00376212
0.0037855
0.0037671
0.00371084
0.00145669
0.00266052
0.00302928
0.00325067
0.0034088
0.00354203
0.0036362
0.00369687
0.00372894
0.00373371
0.0037059
0.00364675
0.00373115
0.00362659
0.00350731
0.00338113
0.00325418
0.00312826
0.00301997
0.00293678
0.0028578
0.00280186
0.00278111
0.00279306
0.00368316
0.00357024
0.003438
0.0032959
0.00315176
0.00301323
0.00290975
0.00282595
0.00275136
0.0027018
0.00268814
0.00270508
0.00362642
0.00350977
0.00336661
0.00320925
0.00305105
0.00291179
0.00279512
0.00268877
0.00258775
0.00250019
0.00242507
0.00234897
0.00356267
0.00344873
0.0032969
0.00312978
0.00296771
0.00282157
0.00267395
0.00251392
0.00234001
0.00212759
0.00188487
0.00158302
0.00284495
0.00290238
0.00292982
0.00300259
0.00310281
0.00322441
0.00335503
0.00348531
0.00360402
0.0037068
0.00380085
0.00380311
0.00279696
0.00298834
0.00303854
0.00313334
0.00326402
0.00340877
0.00353884
0.00364927
0.00373103
0.00378905
0.00380424
0.0037622
0.00241039
0.00294066
0.00307886
0.00321889
0.00337714
0.00351252
0.0036302
0.00371283
0.00376372
0.00378658
0.00376784
0.00371247
0.00145591
0.00265873
0.00302739
0.0032497
0.00340908
0.00354335
0.00363845
0.00369959
0.00373164
0.00373605
0.00370791
0.00364884
0.00349858
0.00339263
0.00323627
0.00306175
0.00290341
0.00273479
0.00253576
0.0023052
0.00202285
0.00163469
0.00100657
0.000319203
0.00343013
0.00333892
0.00318579
0.0030092
0.0028526
0.00265791
0.00241184
0.00211448
0.00174765
0.00126034
0.000571829
0.000167219
0.00335618
0.00328628
0.00314522
0.00297692
0.00283509
0.00261626
0.00233318
0.0019894
0.00158182
0.00109751
0.000488929
0.000146705
0.00327207
0.00322652
0.00310777
0.00296106
0.0028391
0.00260552
0.00230785
0.00194403
0.0015334
0.00113571
0.000595482
0.000152815
0.00316788
0.0031499
0.00306395
0.00294775
0.00284897
0.00261859
0.00232321
0.00196239
0.00157354
0.00124022
0.000738385
0.000161363
0.00303083
0.0030422
0.00299412
0.00290989
0.00283462
0.00262702
0.00234974
0.00200684
0.00164103
0.00129295
0.000849242
0.000168608
0.00284443
0.00288444
0.00287396
0.0028228
0.0027723
0.00259811
0.00234866
0.00202953
0.00167402
0.00129586
0.000849068
0.000175305
0.00258645
0.0026518
0.00267492
0.00265552
0.00262991
0.0024929
0.00227645
0.00198368
0.00163225
0.0012359
0.000790784
0.000178151
0.00222423
0.00230783
0.00235682
0.0023644
0.0023613
0.00226064
0.00208125
0.00182237
0.00148367
0.00109549
0.000679782
0.000175302
0.00170765
0.0017945
0.00185484
0.00188174
0.00189287
0.00182533
0.00168963
0.00148937
0.00119001
0.000851028
0.000499286
0.000166029
0.000965011
0.00102346
0.00107117
0.00110231
0.00111562
0.0010806
0.00100565
0.000899863
0.000702385
0.000474483
0.000254101
0.000146997
0.000108216
0.000113541
0.000118037
0.000122764
0.000126945
0.000127601
0.000124873
0.000119244
0.00010968
9.44956e-05
7.49406e-05
4.78818e-05
0.000344211
0.00214072
0.00288898
0.00319286
0.00337491
0.00349396
0.00357281
0.00362276
0.003648
0.00364889
0.00362311
0.00357091
0.000288346
0.00189871
0.00273208
0.00308725
0.00327705
0.00338651
0.00345927
0.00350779
0.00353526
0.00354181
0.00352624
0.00348806
0.000261929
0.00173371
0.00256666
0.00294464
0.00312707
0.00323242
0.00330611
0.00335964
0.00339541
0.00341382
0.0034142
0.00339524
0.000244055
0.00159401
0.00239302
0.00276367
0.00293709
0.00304169
0.00312032
0.00318258
0.00323028
0.00326422
0.00328406
0.00328775
0.000229783
0.0014573
0.00220599
0.00255117
0.00271427
0.00281901
0.00290398
0.00297648
0.00303774
0.00308886
0.00312967
0.00315761
0.000216712
0.00131362
0.00199973
0.00231133
0.00246126
0.00256486
0.00265548
0.00273786
0.0028125
0.00288054
0.002942
0.00299397
0.00020321
0.00115413
0.00177128
0.00204431
0.00217685
0.00227639
0.00237019
0.00246024
0.00254623
0.00262899
0.00270874
0.00278256
0.00018995
0.000961734
0.00151803
0.00174654
0.00185621
0.00194747
0.00204026
0.00213372
0.00222678
0.00231965
0.00241291
0.00250382
0.000175361
0.000750963
0.00123703
0.00140902
0.00148943
0.00156737
0.00165317
0.00174319
0.00183627
0.00193136
0.0020298
0.00212923
0.000157918
0.000530823
0.00091219
0.00100814
0.00105469
0.00111542
0.00118446
0.00125891
0.00134107
0.00142856
0.0015212
0.00161591
0.000134936
0.000285636
0.000494594
0.000516979
0.000530193
0.000565185
0.000611446
0.000660537
0.000716079
0.000774831
0.000838358
0.000903317
0.000198076
3.81565e-05
5.44982e-05
6.03041e-05
6.35064e-05
6.66674e-05
7.16491e-05
7.78982e-05
8.40991e-05
9.01838e-05
9.62783e-05
0.000102391
0.00349615
0.00339113
0.0032352
0.00306087
0.00290184
0.00273273
0.00253386
0.00230434
0.00202264
0.00163507
0.00100685
0.000319443
0.00342834
0.0033381
0.00318531
0.00300865
0.00285116
0.00265626
0.00241055
0.00211376
0.00174732
0.00126022
0.000571807
0.00016729
0.00335495
0.00328599
0.00314526
0.0029766
0.0028341
0.00261514
0.00233225
0.00198883
0.00158148
0.0010973
0.000488888
0.000146737
0.00327126
0.00322663
0.00310809
0.00296105
0.00283864
0.00260489
0.00230731
0.00194368
0.00153317
0.00113563
0.000595526
0.000152847
0.00316735
0.00315024
0.00306446
0.00294805
0.00284898
0.0026184
0.00232302
0.00196228
0.0015735
0.00124029
0.000738508
0.000161399
0.00303047
0.00304266
0.00299473
0.00291041
0.00283493
0.00262716
0.00234983
0.00200694
0.00164116
0.00129309
0.000849373
0.000168645
0.00284416
0.00288493
0.00287461
0.00282342
0.00277279
0.00259846
0.00234894
0.00202978
0.00167425
0.00129604
0.000849188
0.000175344
0.00258622
0.00265225
0.00267554
0.00265615
0.00263046
0.00249335
0.00227682
0.00198399
0.0016325
0.00123607
0.000790894
0.00017819
0.00222403
0.00230823
0.00235737
0.00236499
0.00236184
0.0022611
0.00208163
0.00182268
0.00148389
0.00109563
0.000679871
0.000175339
0.00170751
0.00179484
0.00185531
0.00188224
0.00189333
0.00182572
0.00168997
0.00148963
0.00119016
0.000851129
0.000499346
0.000166061
0.000965069
0.00102368
0.00107145
0.00110259
0.00111589
0.00108083
0.00100586
0.000900025
0.000702426
0.000474528
0.000254124
0.000147021
0.000108213
0.000113558
0.000118061
0.000122798
0.000126981
0.000127636
0.000124905
0.000119274
0.000109706
9.4516e-05
7.49548e-05
4.78894e-05
0.000344634
0.00214348
0.00289344
0.00319835
0.00338156
0.00350124
0.00358031
0.00363
0.00365467
0.00365482
0.00362824
0.00357527
0.000288745
0.00190128
0.00273648
0.00309287
0.00328381
0.00339394
0.00346684
0.003515
0.00354174
0.0035474
0.0035309
0.00349186
0.000262306
0.00173609
0.00257091
0.00295024
0.00313378
0.00323977
0.00331354
0.00336664
0.00340159
0.00341902
0.00341841
0.00339852
0.000244405
0.00159623
0.00239701
0.00276908
0.00294357
0.00304876
0.00312744
0.00318922
0.00323608
0.00326901
0.00328783
0.00329058
0.000230119
0.00145933
0.0022097
0.00255626
0.00272037
0.00282564
0.00291063
0.00298265
0.00304308
0.00309319
0.00313301
0.00316004
0.000217017
0.00131544
0.00200312
0.002316
0.00246683
0.00257092
0.00266154
0.00274346
0.00281731
0.0028844
0.00294491
0.00299604
0.000203495
0.00115566
0.00177427
0.00204848
0.0021818
0.00228173
0.00237552
0.00246517
0.00255044
0.00263233
0.00271123
0.00278428
0.000190214
0.000962957
0.00152057
0.00175012
0.00186042
0.00195198
0.00204476
0.00213786
0.00223031
0.00232242
0.00241494
0.00250519
0.000175576
0.000752577
0.00123914
0.00141195
0.00149279
0.00157093
0.0016567
0.00174643
0.00183901
0.00193349
0.00203133
0.00213024
0.000158354
0.000530814
0.000914266
0.00101031
0.001057
0.00111778
0.00118682
0.00126106
0.00134293
0.00142997
0.00152218
0.00161652
0.000135839
0.000278841
0.000498166
0.000518201
0.00053138
0.000566352
0.000612605
0.000661541
0.000716926
0.000775448
0.000838741
0.000903532
0.000198025
4.6227e-05
5.52302e-05
6.04357e-05
6.36278e-05
6.67846e-05
7.17394e-05
7.79667e-05
8.41475e-05
9.02104e-05
9.62846e-05
0.000102381
0.00349978
0.0033938
0.00323737
0.00306289
0.00290423
0.00273531
0.00253619
0.00230577
0.00202347
0.00163532
0.00100695
0.000319406
0.00343134
0.00334022
0.00318707
0.00301047
0.00285353
0.0026586
0.00241246
0.0021151
0.00174818
0.00126074
0.000572027
0.000167309
0.00335741
0.00328769
0.00314665
0.0029783
0.0028362
0.00261717
0.00233402
0.00199015
0.00158243
0.001098
0.000489241
0.000146779
0.00327328
0.00322801
0.00310926
0.00296254
0.00284037
0.00260663
0.00230889
0.00194496
0.00153419
0.00113641
0.000595971
0.000152892
0.00316902
0.00315137
0.00306542
0.00294924
0.0028503
0.00261981
0.00232437
0.00196344
0.00157446
0.00124099
0.000739003
0.000161444
0.00303184
0.00304356
0.00299548
0.0029113
0.0028359
0.00262824
0.00235091
0.00200793
0.00164198
0.00129377
0.000849891
0.000168692
0.00284527
0.00288563
0.00287517
0.00282403
0.00277344
0.00259923
0.00234974
0.00203056
0.00167494
0.00129665
0.000849682
0.000175391
0.00258707
0.00265276
0.00267591
0.00265654
0.00263085
0.00249384
0.00227737
0.00198458
0.00163313
0.00123663
0.000791368
0.000178234
0.00222461
0.00230853
0.00235756
0.00236517
0.002362
0.00226135
0.00208195
0.00182311
0.00148439
0.0010961
0.000680254
0.000175384
0.00170783
0.00179495
0.00185534
0.00188223
0.0018933
0.00182578
0.00169008
0.00148987
0.00119051
0.000851457
0.000499619
0.000166103
0.00096513
0.00102365
0.00107137
0.00110247
0.00111575
0.00108074
0.00100584
0.000900058
0.00070267
0.000474693
0.00025426
0.000147058
0.000108195
0.000113535
0.000118039
0.000122774
0.000126959
0.000127614
0.000124888
0.000119261
0.000109701
9.45207e-05
7.49627e-05