/*--------------------------------*- C++ -*----------------------------------*\
  =========                 |
  \\      /  F ield         | OpenFOAM: The Open Source CFD Toolbox
   \\    /   O peration     | Website:  https://openfoam.org
    \\  /    A nd           | Version:  6
     \\/     M anipulation  |
\*---------------------------------------------------------------------------*/
FoamFile
{
    version     2.0;
    format      ascii;
    class       volScalarField;
    location    "200";
    object      p;
}
// * * * * * * * * * * * * * * * * * * * * * * * * * * * * * * * * * * * * * //

dimensions      [0 2 -2 0 0 0 0];

internalField   nonuniform List<scalar> 
3072
(
0.000280592
-0.18782
-0.369872
-0.446946
-0.466193
-0.41691
-0.236143
-0.0606924
-0.459168
-1.14814
-1.81964
-2.29732
0.631991
0.344117
0.213935
0.214449
0.390695
0.631251
1.35148
2.08548
2.32023
2.4149
2.39377
2.33097
1.43861
1.12566
1.08668
1.26508
1.69572
2.14458
2.56989
2.93258
3.09735
3.19272
3.18077
3.16048
2.53219
2.3455
2.46698
2.83834
3.31421
3.73731
4.08813
4.33507
4.4975
4.63524
4.72328
4.78291
3.6671
3.62641
3.87901
4.31543
4.77097
5.1623
5.47609
5.7109
5.86528
5.97373
6.04157
6.08342
4.75673
4.85048
5.19156
5.66707
6.12735
6.50249
6.77622
6.9685
7.09507
7.17811
7.22727
7.25427
5.79556
6.03322
6.44508
6.96025
7.43341
7.77023
7.99725
8.14119
8.22667
8.27463
8.29683
8.30345
6.84587
7.22127
7.68792
8.21943
8.66177
8.9529
9.12431
9.21328
9.25081
9.25957
9.25326
9.24027
7.92757
8.46346
8.94542
9.44404
9.82013
10.0376
10.1385
10.1669
10.1557
10.1273
10.0962
10.0689
9.04391
9.70049
10.1904
10.6203
10.8969
11.0131
11.0283
10.9921
10.9347
10.8757
10.8277
10.7935
10.1854
11.0499
11.4472
11.6989
11.8421
11.8402
11.7674
11.6712
11.5768
11.4989
11.4473
11.4178
11.0739
12.3905
12.6053
12.5785
12.5574
12.4466
12.3037
12.1677
12.0593
11.9852
11.9526
11.947
-2.55796
-2.56183
-2.33651
-1.8861
-1.2542
-0.461241
0.434362
1.35437
2.20083
2.95936
3.33038
3.09756
2.27783
2.2738
2.32678
2.44523
2.62414
2.85957
3.14122
3.41972
3.68423
4.10985
4.1414
3.28605
3.15095
3.18495
3.27592
3.41997
3.59573
3.79122
3.98316
4.12671
4.18952
4.25823
4.17179
2.92854
4.82773
4.87202
4.9203
4.97344
5.02642
5.07181
5.0926
5.05519
4.91487
4.70959
4.45023
2.85224
6.10963
6.12794
6.14085
6.14928
6.14893
6.12914
6.08007
5.97592
5.7708
5.45648
5.09673
3.33042
7.26746
7.27144
7.26754
7.25588
7.23337
7.1905
7.11859
6.99824
6.7896
6.46411
6.08765
4.32993
8.30122
8.29363
8.28157
8.26528
8.24253
8.20807
8.15339
8.06248
7.90734
7.65263
7.35779
5.82007
9.22587
9.21199
9.19962
9.18945
9.18099
9.17281
9.16058
9.1347
9.08151
8.97466
8.87408
7.75774
10.0484
10.0339
10.0264
10.0273
10.0384
10.0634
10.1035
10.1584
10.23
10.3149
10.4994
10.0423
10.7743
10.7651
10.7659
10.7791
10.809
10.8638
10.9529
11.0878
11.2845
11.5755
12.169
12.5703
11.4101
11.4124
11.4242
11.4486
11.4918
11.5654
11.6866
11.8808
12.1731
12.6443
13.7106
15.24
11.9675
11.989
12.0141
12.0468
12.0946
12.1715
12.2985
12.5106
12.8295
13.3713
14.5902
17.1458
0.00108047
-0.18601
-0.367026
-0.443788
-0.461508
-0.414642
-0.236306
-0.057163
-0.44805
-1.13656
-1.80726
-2.28665
0.632061
0.344261
0.214041
0.214114
0.389732
0.63136
1.34257
2.0815
2.31962
2.41572
2.39591
2.33299
1.43557
1.12078
1.08056
1.25561
1.68523
2.13757
2.56371
2.92948
3.09603
3.19297
3.18204
3.16191
2.5267
2.33726
2.4559
2.82517
3.30281
3.72795
4.08183
4.33126
4.49483
4.63335
4.72207
4.78223
3.66134
3.6177
3.86746
4.30422
4.76273
5.15492
5.47023
5.70671
5.86244
5.97163
6.04015
6.08236
4.7521
4.84221
5.18151
5.65789
6.119
6.49664
6.7717
6.96522
7.0925
7.17631
7.22581
7.25328
5.7931
6.02643
6.43671
6.9525
7.42692
7.76559
7.99391
8.13864
8.22477
8.27316
8.29578
8.30259
6.84438
7.21583
7.68115
8.21302
8.65696
8.94961
9.12196
9.21157
9.24955
9.25863
9.25255
9.23972
7.92636
8.45905
8.93995
9.43904
9.81657
10.0352
10.1369
10.1658
10.155
10.1268
10.0959
10.0686
9.04261
9.69672
10.1861
10.6165
10.8942
11.0115
11.0272
10.9914
10.9343
10.8755
10.8277
10.7935
10.1838
11.0465
11.4433
11.6958
11.8402
11.8392
11.7668
11.671
11.5767
11.499
11.4475
11.418
11.0725
12.3868
12.6019
12.5763
12.5561
12.4461
12.3036
12.1678
12.0595
11.9854
11.9529
11.9474
-2.54836
-2.55421
-2.33022
-1.88156
-1.25101
-0.459571
0.434784
1.35341
2.19852
2.95583
3.32667
3.09422
2.27976
2.27535
2.32782
2.44575
2.62412
2.859
3.14012
3.41805
3.68203
4.10711
4.13842
3.28334
3.15234
3.18599
3.27656
3.42028
3.59563
3.79071
3.98223
4.12537
4.18793
4.25644
4.16957
2.92681
4.82731
4.87169
4.91996
4.97304
5.02588
5.0711
5.0917
5.0541
4.91366
4.70835
4.44889
2.85171
6.10892
6.12733
6.14035
6.14875
6.14837
6.12848
6.07934
5.97505
5.76988
5.4556
5.09582
3.33025
7.2666
7.27082
7.26695
7.25535
7.23279
7.18989
7.11785
6.99746
6.78875
6.46326
6.08686
4.32976
8.30057
8.29308
8.28111
8.2648
8.24203
8.20745
8.1527
8.06164
7.90638
7.65182
7.35681
5.81952
9.22543
9.21165
9.1993
9.18913
9.18054
9.17225
9.15981
9.13374
9.08043
8.97333
8.87272
7.75637
10.0482
10.0338
10.0262
10.0271
10.0381
10.0629
10.1027
10.1573
10.2285
10.3134
10.4975
10.0401
10.7744
10.7652
10.7659
10.779
10.8088
10.8634
10.9522
11.0867
11.2829
11.5735
12.1666
12.5672
11.4104
11.4127
11.4244
11.4488
11.4918
11.5651
11.686
11.8797
12.1714
12.6421
13.7078
15.2362
11.9679
11.9895
12.0145
12.0471
12.0947
12.1714
12.298
12.5097
12.828
13.369
14.5873
17.1426
-0.000281625
-0.18768
-0.368894
-0.445667
-0.463947
-0.416125
-0.236742
-0.058872
-0.453019
-1.14231
-1.81393
-2.29321
0.63101
0.343315
0.213244
0.213455
0.389345
0.630833
1.34524
2.08246
2.31928
2.41463
2.39405
2.33096
1.43534
1.12118
1.08149
1.25776
1.68785
2.13925
2.56527
2.93004
3.09586
3.19203
3.18051
3.16016
2.52715
2.3385
2.45814
2.82845
3.30585
3.73047
4.08337
4.3319
4.49501
4.63322
4.72161
4.78145
3.66203
3.61921
3.87
4.30697
4.76475
5.15686
5.47169
5.70765
5.86282
5.97174
6.03989
6.0819
4.75265
4.8437
5.18367
5.65999
6.12116
6.49817
6.77294
6.96597
7.09303
7.17641
7.22576
7.25285
5.79315
6.02759
6.43845
6.95431
7.42867
7.76697
7.9949
8.13938
8.22517
8.27334
8.29563
8.30226
6.84419
7.21668
7.68255
8.21464
8.65838
8.9507
9.12278
9.21214
9.24986
9.2587
9.25237
9.23932
7.92617
8.45971
8.94111
9.44034
9.81768
10.0361
10.1375
10.1662
10.1551
10.1268
10.0956
10.0681
9.04238
9.69724
10.1869
10.6174
10.895
11.012
11.0276
10.9916
10.9343
10.8753
10.8272
10.7929
10.1837
11.047
11.4441
11.6965
11.8407
11.8395
11.7669
11.6709
11.5765
11.4986
11.4469
11.4173
11.0724
12.3874
12.6025
12.5768
12.5564
12.4462
12.3035
12.1676
12.0592
11.9849
11.9522
11.9466
-2.55485
-2.56009
-2.3355
-1.88587
-1.25434
-0.461775
0.433634
1.35328
2.1993
2.95737
3.32873
3.09633
2.27762
2.27334
2.32606
2.44435
2.62315
2.85852
3.14013
3.41854
3.68298
4.10856
4.14013
3.28465
3.15048
3.1842
3.27493
3.41886
3.59451
3.78992
3.98181
4.1253
4.18812
4.2569
4.1703
2.92705
4.82634
4.87062
4.91888
4.97201
5.02497
5.07035
5.09113
5.0537
4.91338
4.70811
4.44867
2.85082
6.10818
6.1265
6.1394
6.14781
6.14744
6.12763
6.07856
5.9744
5.7693
5.45503
5.09519
3.32902
7.26607
7.27004
7.26612
7.25442
7.23188
7.18897
7.11704
6.99668
6.78807
6.4627
6.08624
4.32866
8.29999
8.29236
8.28024
8.26389
8.24107
8.20654
8.15182
8.0609
7.90578
7.65121
7.35648
5.81885
9.22482
9.21086
9.1984
9.18814
9.17957
9.17129
9.15898
9.13304
9.07985
8.97315
8.87273
7.75644
10.0475
10.0329
10.0253
10.026
10.0371
10.0619
10.1019
10.1566
10.2282
10.3132
10.498
10.0409
10.7736
10.7643
10.7649
10.7779
10.8077
10.8624
10.9513
11.086
11.2825
11.5736
12.1675
12.5687
11.4095
11.4116
11.4233
11.4476
11.4907
11.5641
11.6851
11.879
12.1711
12.6422
13.7088
15.2384
11.9669
11.9883
12.0133
12.0459
12.0935
12.1703
12.297
12.5089
12.8275
13.3691
14.5883
17.1447
0.000271428
-0.186904
-0.368017
-0.444806
-0.462573
-0.415694
-0.237281
-0.0581247
-0.449314
-1.13824
-1.80937
-2.28908
0.631189
0.343292
0.213024
0.213104
0.388732
0.630264
1.34185
2.08096
2.31904
2.41503
2.39505
2.33195
1.43476
1.11988
1.07963
1.25475
1.68443
2.1367
2.56285
2.92856
3.09498
3.19178
3.18069
3.16043
2.52597
2.33648
2.45511
2.82444
3.30213
3.72727
4.08109
4.33042
4.4939
4.63235
4.72095
4.78103
3.66065
3.61699
3.86678
4.30359
4.76212
5.15431
5.46956
5.70596
5.8616
5.9707
6.03912
6.08123
4.75147
4.84155
5.18091
5.65738
6.11856
6.49617
6.77116
6.96458
7.09176
7.17546
7.22484
7.25219
5.79252
6.0258
6.4362
6.95212
7.42667
7.76529
7.99352
8.13812
8.22412
8.27237
8.29484
8.30153
6.84385
7.21526
7.68074
8.21283
8.6569
8.94947
9.12169
9.21114
9.24895
9.25786
9.25162
9.23866
7.92586
8.45856
8.93966
9.43899
9.8166
10.0351
10.1366
10.1654
10.1544
10.1261
10.0949
10.0675
9.04211
9.69629
10.1859
10.6165
10.8942
11.0113
11.0269
10.991
10.9337
10.8746
10.8266
10.7923
10.1832
11.0461
11.443
11.6957
11.84
11.8389
11.7663
11.6703
11.5759
11.498
11.4463
11.4167
11.0718
12.3864
12.6017
12.5759
12.5557
12.4455
12.3029
12.1669
12.0585
11.9843
11.9517
11.9461
-2.55104
-2.557
-2.33308
-1.88438
-1.25372
-0.462026
0.432711
1.35191
2.19772
2.95575
3.32645
3.09339
2.27853
2.27394
2.32626
2.4441
2.62243
2.85734
3.13859
3.41672
3.68092
4.10627
4.13763
3.28253
3.15075
3.18433
3.27488
3.41861
3.594
3.78915
3.98077
4.12403
4.18668
4.25529
4.16873
2.9257
4.82602
4.87034
4.91857
4.97161
5.02444
5.06965
5.09027
5.05271
4.9123
4.707
4.4477
2.85013
6.1077
6.12603
6.139
6.14737
6.14696
6.12707
6.07792
5.97364
5.76846
5.45413
5.09442
3.32846
7.26542
7.26956
7.26563
7.25399
7.23142
7.1885
7.11647
6.99607
6.78735
6.46175
6.08535
4.32784
8.2994
8.29182
8.27979
8.26345
8.24067
8.2061
8.15136
8.06031
7.90502
7.65032
7.35522
5.81761
9.22425
9.21038
9.19796
9.18776
9.17919
9.17093
9.15853
9.1325
9.07919
8.97196
8.8712
7.75458
10.0469
10.0325
10.0249
10.0257
10.0368
10.0616
10.1015
10.1562
10.2274
10.3122
10.4961
10.0385
10.7731
10.7638
10.7645
10.7776
10.8074
10.8621
10.951
11.0856
11.282
11.5725
12.1654
12.5659
11.409
11.4112
11.4229
11.4473
11.4904
11.5638
11.6848
11.8787
12.1706
12.6414
13.7069
15.2352
11.9665
11.988
12.013
12.0456
12.0933
12.17
12.2967
12.5086
12.8272
13.3685
14.5867
17.1418
13.326
13.4501
13.2746
13.0828
12.9253
12.7546
12.5902
12.4538
12.3643
12.3244
12.3405
12.3838
13.4475
13.218
13.1569
13.0385
12.9071
12.7662
12.6378
12.5418
12.5035
12.5287
12.6258
12.7447
13.4194
13.2307
13.1136
12.9597
12.8076
12.6664
12.5575
12.503
12.5283
12.6391
12.8415
13.0599
13.3366
13.133
12.9499
12.7576
12.5808
12.4335
12.3405
12.3329
12.4397
12.6699
13.0303
13.4155
12.455
12.5055
12.5468
12.5847
12.6276
12.6925
12.799
12.9866
13.2523
13.6548
14.1121
15.3264
12.8927
12.9788
13.0396
13.0795
13.1078
13.1445
13.2073
13.3399
13.5304
13.8253
14.0109
14.3157
13.312
13.4287
13.5013
13.5356
13.5442
13.536
13.5344
13.5841
13.6748
13.8529
13.9139
13.9295
13.8174
13.9951
14.0819
14.0714
14.0232
13.9505
13.856
13.7771
13.7102
13.7227
13.6704
13.6451
13.3254
13.4472
13.2717
13.0811
12.9244
12.7542
12.5902
12.4539
12.3645
12.3247
12.3409
12.3842
13.4476
13.2164
13.1553
13.0373
12.9065
12.7658
12.6376
12.5418
12.5035
12.5289
12.626
12.7451
13.4202
13.2303
13.1126
12.9589
12.8071
12.6659
12.557
12.5027
12.528
12.6389
12.8415
13.0601
13.3373
13.1334
12.9498
12.7573
12.5803
12.4327
12.3396
12.3319
12.4388
12.6693
13.0301
13.4156
12.4555
12.506
12.5472
12.5851
12.6279
12.6926
12.7988
12.986
13.2512
13.653
14.11
15.3246
12.8932
12.9793
13.04
13.08
13.1083
13.1448
13.2074
13.3397
13.5299
13.8243
14.0095
14.3149
13.3124
13.4291
13.5019
13.5362
13.5448
13.5365
13.5349
13.5845
13.675
13.8529
13.9136
13.9293
13.8176
13.9953
14.0824
14.0719
14.0237
13.9511
13.8567
13.778
13.7111
13.7237
13.6712
13.6457
13.3252
13.4478
13.2725
13.0816
12.9248
12.7544
12.5901
12.4537
12.3642
12.3242
12.3402
12.3833
13.4478
13.2171
13.156
13.0381
12.9071
12.7662
12.6379
12.5419
12.5034
12.5285
12.6254
12.7442
13.4205
13.2309
13.1133
12.9597
12.8078
12.6666
12.5576
12.5031
12.5282
12.6388
12.8411
13.0594
13.3378
13.1341
12.9506
12.7582
12.5812
12.4337
12.3405
12.3328
12.4395
12.6696
13.0298
13.4149
12.4544
12.5048
12.5461
12.5839
12.6267
12.6915
12.7978
12.9852
13.2505
13.6527
14.11
15.3253
12.8921
12.9782
13.0389
13.0789
13.1071
13.1436
13.2063
13.3387
13.5291
13.8237
14.0092
14.3146
13.3113
13.4281
13.5008
13.5351
13.5437
13.5354
13.5338
13.5835
13.674
13.852
13.9128
13.9285
13.8166
13.9943
14.0813
14.071
14.0228
13.9502
13.8557
13.7769
13.7099
13.7224
13.6699
13.6445
13.325
13.4467
13.2712
13.0805
12.9237
12.7534
12.5892
12.4529
12.3634
12.3235
12.3396
12.3828
13.447
13.2158
13.1547
13.0367
12.9057
12.765
12.6367
12.5408
12.5025
12.5277
12.6247
12.7437
13.4195
13.2296
13.1119
12.9582
12.8063
12.6651
12.5562
12.5018
12.5271
12.6379
12.8403
13.0587
13.3366
13.1327
12.949
12.7565
12.5794
12.432
12.3389
12.3314
12.4383
12.6686
13.029
13.4143
12.454
12.5044
12.5457
12.5836
12.6264
12.6912
12.7975
12.9848
13.2503
13.6525
14.1097
15.3239
12.8917
12.9778
13.0386
13.0785
13.1067
13.1432
13.2059
13.3383
13.5288
13.8236
14.0091
14.3138
13.3109
13.4277
13.5004
13.5346
13.5432
13.5348
13.5332
13.5829
13.6735
13.8517
13.9128
13.9283
13.8163
13.994
14.0809
14.0704
14.0222
13.9494
13.8548
13.7761
13.7091
13.7217
13.6695
13.6446
13.3514
13.1696
12.9824
12.7948
12.6207
12.4753
12.3834
12.375
12.4787
12.7201
13.0552
13.439
13.4462
13.2902
13.13
12.9705
12.8205
12.6921
12.6031
12.576
12.6423
12.8222
13.0481
13.3129
13.5163
13.3812
13.2434
13.1067
12.9773
12.864
12.7779
12.7425
12.788
12.8806
13.0465
13.2447
13.5773
13.4599
13.3407
13.2219
13.1075
13.0021
12.914
12.872
12.86
12.9088
13.0589
13.1327
13.9173
14.1021
14.2321
14.2491
14.2171
14.1436
14.0368
13.9214
13.7989
13.7196
13.6075
13.5435
13.8286
13.9955
14.1303
14.1592
14.1504
14.1065
14.0391
13.9638
13.8785
13.8076
13.7039
13.6121
13.8458
13.9756
14.104
14.1371
14.1369
14.108
14.0568
13.996
13.9228
13.8511
13.7541
13.658
14.0154
14.0423
14.1175
14.1441
14.1436
14.1198
14.0769
14.0222
13.9543
13.8822
13.7912
13.6982
13.3519
13.1702
12.9827
12.7948
12.6204
12.4747
12.3825
12.374
12.4777
12.7194
13.0549
13.439
13.4464
13.2906
13.1301
12.9706
12.8204
12.6917
12.6025
12.5753
12.6417
12.8218
13.048
13.313
13.5165
13.3817
13.2437
13.1069
12.9773
12.8638
12.7775
12.7421
12.7877
12.8805
13.0467
13.2449
13.5774
13.4604
13.341
13.2222
13.1077
13.0022
12.914
12.8719
12.86
12.909
13.0593
13.1331
13.9175
14.1025
14.2326
14.2498
14.2178
14.1443
14.0376
13.9224
13.8001
13.7209
13.6087
13.5445
13.829
13.9958
14.1308
14.1599
14.1511
14.1073
14.04
13.9647
13.8795
13.8087
13.705
13.613
13.8463
13.9761
14.1045
14.1377
14.1376
14.1087
14.0576
13.9969
13.9238
13.8522
13.7551
13.6589
14.0163
14.0428
14.1181
14.1447
14.1443
14.1205
14.0777
14.0231
13.9553
13.8832
13.7922
13.6991
13.3527
13.171
12.9835
12.7957
12.6213
12.4757
12.3836
12.3751
12.4786
12.7199
13.0549
13.4385
13.4473
13.2915
13.131
12.9715
12.8214
12.6928
12.6036
12.5764
12.6426
12.8222
13.0481
13.3127
13.5174
13.3825
13.2445
13.1078
12.9783
12.8648
12.7786
12.7431
12.7885
12.881
13.0468
13.2448
13.5783
13.4612
13.3419
13.223
13.1086
13.0031
12.9149
12.8727
12.8606
12.9095
13.0595
13.1332
13.9165
14.1014
14.2315
14.2487
14.2167
14.1433
14.0366
13.9212
13.7989
13.7195
13.6073
13.543
13.8281
13.9948
14.1297
14.1587
14.15
14.1062
14.0389
13.9636
13.8783
13.8074
13.7037
13.6117
13.8454
13.975
14.1034
14.1366
14.1365
14.1077
14.0566
13.9958
13.9226
13.8509
13.7538
13.6576
14.0152
14.0417
14.1169
14.1435
14.1431
14.1194
14.0767
14.022
13.9541
13.882
13.7909
13.6979
13.3513
13.1696
12.9819
12.794
12.6195
12.4739
12.382
12.3735
12.4773
12.7188
13.054
13.4378
13.4459
13.29
13.1295
12.9699
12.8197
12.6911
12.6019
12.5748
12.6413
12.8211
13.0471
13.3119
13.5161
13.3812
13.2431
13.1062
12.9766
12.8632
12.777
12.7416
12.7872
12.8799
13.0459
13.2438
13.577
13.4599
13.3405
13.2216
13.107
13.0015
12.9134
12.8713
12.8594
12.9084
13.0585
13.1321
13.9161
14.101
14.231
14.2481
14.2161
14.1426
14.0358
13.9203
13.798
13.7187
13.6066
13.5431
13.8275
13.9943
14.1291
14.1581
14.1494
14.1055
14.038
13.9627
13.8775
13.8066
13.703
13.6117
13.8446
13.9744
14.1028
14.136
14.1358
14.1069
14.0557
13.9949
13.9217
13.8501
13.753
13.6577
14.014
14.041
14.1162
14.1429
14.1424
14.1186
14.0758
14.021
13.9532
13.8811
13.7901
13.6978
13.6327
13.5302
13.4265
13.3215
13.2172
13.1134
13.0164
12.9374
12.8815
12.8941
13.0107
12.8357
13.6818
13.591
13.4991
13.4033
13.3032
13.1925
13.0785
12.9523
12.864
12.8236
12.9291
12.8866
13.7238
13.6416
13.5575
13.4666
13.3652
13.2441
13.0994
12.9379
12.8179
12.7636
12.8425
12.8673
13.7591
13.6828
13.603
13.5134
13.4061
13.2699
13.0956
12.9095
12.7686
12.7175
12.7783
12.8431
13.7878
13.7154
13.6374
13.5465
13.4305
13.2777
13.0843
12.88
12.7306
12.682
12.7401
12.8339
13.8111
13.7411
13.6634
13.5698
13.445
13.2786
13.0726
12.8596
12.7107
12.6696
12.7381
12.8426
13.8298
13.7617
13.6837
13.5872
13.4554
13.2795
13.0664
12.8518
12.7091
12.6782
12.7599
12.8707
13.8455
13.7792
13.7012
13.6026
13.4663
13.285
13.069
12.8566
12.7224
12.7015
12.7962
12.9126
13.8592
13.7955
13.7186
13.6197
13.4817
13.2984
13.0819
12.8725
12.7461
12.7327
12.8372
12.9595
13.8735
13.8146
13.7421
13.6462
13.5099
13.3269
13.1095
12.8995
12.7761
12.7633
12.8729
13.0046
13.8908
13.8411
13.7788
13.692
13.5621
13.3811
13.16
12.9412
12.8105
12.7877
12.9011
13.041
13.9045
13.8623
13.8085
13.7316
13.6131
13.4399
13.2204
13.0007
12.8428
12.8125
12.9237
13.0492
14.4348
14.206
14.1574
14.1614
14.1553
14.1326
14.0942
14.0434
13.9798
13.9095
13.825
13.7376
14.4226
14.2699
14.1871
14.1786
14.1674
14.1451
14.1092
14.0613
14.0013
13.9339
13.8555
13.7742
14.383
14.2678
14.2049
14.1914
14.1785
14.1568
14.1227
14.0768
14.0198
13.9554
13.8825
13.8068
14.3434
14.2537
14.2142
14.2002
14.1882
14.1674
14.1346
14.0904
14.0357
13.9741
13.9058
13.835
14.309
14.2399
14.2184
14.2061
14.1961
14.1764
14.1448
14.1018
14.0491
13.99
13.9255
13.8588
14.2829
14.2293
14.2201
14.2101
14.2023
14.1837
14.153
14.111
14.0599
14.003
13.9417
13.8783
14.2669
14.2233
14.2206
14.2126
14.2066
14.189
14.1589
14.1177
14.068
14.0132
13.9548
13.8943
14.2604
14.2229
14.221
14.2139
14.2088
14.192
14.1622
14.1218
14.0734
14.0207
13.9651
13.9073
14.2611
14.2286
14.2213
14.2133
14.2081
14.1919
14.1625
14.1227
14.0757
14.0253
13.9729
13.9182
14.2667
14.2389
14.2214
14.2093
14.2026
14.1865
14.1574
14.1188
14.0738
14.0266
13.9784
13.9279
14.2734
14.2492
14.2213
14.2021
14.1918
14.1745
14.1454
14.109
14.0672
14.0242
13.9815
13.9376
14.283
14.2602
14.223
14.1978
14.1828
14.1629
14.1346
14.1003
14.0611
14.0212
13.9823
13.9442
13.633
13.5308
13.4271
13.322
13.2177
13.1137
13.0166
12.9375
12.8817
12.8945
13.0112
12.8359
13.6821
13.5917
13.4996
13.404
13.3037
13.193
13.0789
12.9526
12.8643
12.824
12.9296
12.887
13.7243
13.6425
13.5583
13.4673
13.3658
13.2446
13.0998
12.9383
12.8182
12.764
12.8429
12.8677
13.7596
13.6837
13.6037
13.5141
13.4068
13.2704
13.096
12.9098
12.7689
12.7179
12.7787
12.8435
13.7884
13.7164
13.6382
13.5473
13.4311
13.2782
13.0846
12.8803
12.7309
12.6823
12.7405
12.8344
13.8117
13.7421
13.6642
13.5706
13.4456
13.2791
13.0729
12.8598
12.711
12.6699
12.7386
12.843
13.8306
13.7628
13.6846
13.588
13.456
13.28
13.0667
12.852
12.7093
12.6785
12.7603
12.8712
13.8463
13.7802
13.702
13.6033
13.4669
13.2854
13.0693
12.8568
12.7227
12.7019
12.7967
12.9131
13.8602
13.7965
13.7195
13.6205
13.4823
13.2988
13.0821
12.8727
12.7464
12.7331
12.8377
12.96
13.8744
13.8156
13.7429
13.6469
13.5105
13.3273
13.1097
12.8997
12.7764
12.7637
12.8734
13.0051
13.8917
13.842
13.7796
13.6927
13.5627
13.3815
13.1603
12.9415
12.8108
12.7881
12.9016
13.0415
13.9053
13.8632
13.8092
13.7323
13.6136
13.4403
13.2207
13.001
12.8431
12.8129
12.9242
13.0497
14.4364
14.2069
14.1581
14.1621
14.156
14.1334
14.0949
14.0442
13.9806
13.9104
13.8258
13.7384
14.424
14.2709
14.1878
14.1793
14.1681
14.1458
14.11
14.062
14.0021
13.9347
13.8564
13.7749
14.3843
14.2687
14.2056
14.1921
14.1792
14.1575
14.1234
14.0776
14.0205
13.9561
13.8831
13.8076
14.3445
14.2546
14.215
14.2009
14.1889
14.168
14.1353
14.091
14.0364
13.9748
13.9064
13.8356
14.31
14.2407
14.2192
14.2068
14.1968
14.1771
14.1454
14.1024
14.0497
13.9906
13.926
13.8593
14.2838
14.2301
14.2208
14.2107
14.203
14.1844
14.1536
14.1116
14.0605
14.0036
13.9423
13.8788
14.2678
14.224
14.2214
14.2133
14.2073
14.1897
14.1595
14.1183
14.0686
14.0137
13.9553
13.8947
14.2613
14.2236
14.2217
14.2145
14.2094
14.1926
14.1629
14.1224
14.0739
14.0211
13.9656
13.9077
14.262
14.2294
14.222
14.214
14.2087
14.1925
14.1631
14.1232
14.0762
14.0257
13.9733
13.9185
14.2677
14.2398
14.2221
14.21
14.2032
14.1871
14.158
14.1193
14.0743
14.027
13.9788
13.9283
14.2746
14.2502
14.2221
14.2027
14.1924
14.175
14.1459
14.1094
14.0677
14.0246
13.9819
13.9379
14.2841
14.2614
14.2239
14.1985
14.1834
14.1634
14.1351
14.1008
14.0615
14.0216
13.9826
13.9445
13.6337
13.5316
13.4278
13.3228
13.2184
13.1145
13.0173
12.9382
12.8823
12.8949
13.0115
12.8363
13.6828
13.5924
13.5004
13.4046
13.3044
13.1936
13.0795
12.9532
12.8648
12.8244
12.9298
12.8873
13.7249
13.6431
13.5588
13.4679
13.3664
13.2452
13.1004
12.9388
12.8187
12.7643
12.8432
12.868
13.7601
13.6843
13.6043
13.5146
13.4072
13.2709
13.0966
12.9104
12.7694
12.7183
12.779
12.8438
13.7889
13.7168
13.6386
13.5477
13.4315
13.2786
13.0852
12.8808
12.7314
12.6827
12.7408
12.8347
13.8122
13.7425
13.6646
13.5709
13.446
13.2795
13.0735
12.8604
12.7116
12.6704
12.7389
12.8434
13.831
13.7631
13.6849
13.5883
13.4564
13.2804
13.0673
12.8526
12.7099
12.679
12.7607
12.8716
13.8467
13.7805
13.7023
13.6036
13.4672
13.2858
13.0699
12.8574
12.7233
12.7023
12.7971
12.9135
13.8605
13.7967
13.7198
13.6206
13.4827
13.2991
13.0828
12.8732
12.747
12.7335
12.8381
12.9604
13.8748
13.8158
13.7432
13.6471
13.5108
13.3276
13.1103
12.9002
12.777
12.7641
12.8737
13.0055
13.892
13.8422
13.7798
13.6928
13.5629
13.3818
13.1608
12.942
12.8114
12.7885
12.902
13.0419
13.9055
13.8634
13.8094
13.7325
13.6139
13.4405
13.2212
13.0015
12.8436
12.8133
12.9245
13.0501
14.4348
14.2055
14.1568
14.1609
14.1549
14.1322
14.0938
14.0431
13.9795
13.9092
13.8247
13.7372
14.4224
14.2694
14.1865
14.1781
14.1669
14.1447
14.1089
14.061
14.001
13.9336
13.8552
13.7738
14.3827
14.2672
14.2043
14.1908
14.178
14.1564
14.1224
14.0765
14.0195
13.9551
13.8821
13.8065
14.3429
14.2531
14.2136
14.1996
14.1877
14.1669
14.1342
14.09
14.0354
13.9738
13.9054
13.8346
14.3085
14.2392
14.2178
14.2055
14.1956
14.176
14.1444
14.1014
14.0487
13.9896
13.9251
13.8583
14.2823
14.2287
14.2195
14.2095
14.2018
14.1833
14.1526
14.1106
14.0595
14.0026
13.9413
13.8779
14.2663
14.2226
14.22
14.2121
14.2061
14.1886
14.1585
14.1173
14.0676
14.0128
13.9544
13.8938
14.2598
14.2222
14.2204
14.2134
14.2083
14.1915
14.1618
14.1214
14.073
14.0202
13.9647
13.9068
14.2605
14.228
14.2208
14.2128
14.2076
14.1914
14.1621
14.1223
14.0753
14.0248
13.9725
13.9176
14.2662
14.2385
14.2209
14.2088
14.2021
14.1861
14.157
14.1184
14.0734
14.0262
13.9779
13.9274
14.2729
14.2487
14.2208
14.2016
14.1913
14.1741
14.145
14.1085
14.0668
14.0238
13.981
13.937
14.2824
14.26
14.2227
14.1973
14.1823
14.1624
14.1342
14.0999
14.0607
14.0207
13.9818
13.9436
13.6326
13.5303
13.4265
13.3214
13.217
13.113
13.0159
12.9368
12.8811
12.8939
13.0104
12.8354
13.6817
13.5912
13.4991
13.4033
13.303
13.1922
13.0781
12.9519
12.8637
12.8235
12.9289
12.8864
13.7238
13.642
13.5577
13.4667
13.3651
13.2439
13.099
12.9376
12.8176
12.7635
12.8424
12.8671
13.7591
13.6832
13.6031
13.5134
13.406
13.2696
13.0952
12.9092
12.7684
12.7175
12.7783
12.843
13.788
13.7158
13.6376
13.5466
13.4303
13.2774
13.0839
12.8796
12.7304
12.682
12.7401
12.8339
13.8112
13.7415
13.6635
13.5698
13.4448
13.2782
13.0721
12.8592
12.7106
12.6696
12.7382
12.8426
13.8301
13.7622
13.6839
13.5872
13.4551
13.2791
13.066
12.8514
12.7089
12.6782
12.76
12.8708
13.8458
13.7796
13.7013
13.6025
13.466
13.2845
13.0685
12.8562
12.7223
12.7015
12.7963
12.9126
13.8596
13.7958
13.7187
13.6196
13.4814
13.2979
13.0814
12.8722
12.746
12.7328
12.8373
12.9595
13.8738
13.8149
13.7421
13.6461
13.5095
13.3264
13.1089
12.8991
12.776
12.7633
12.8729
13.0046
13.8911
13.8412
13.7788
13.6917
13.5617
13.3805
13.1594
12.9408
12.8103
12.7877
12.9012
13.041
13.9046
13.8624
13.8084
13.7314
13.6126
13.4392
13.2197
13.0002
12.8425
12.8125
12.9237
13.0491
14.4333
14.2046
14.1561
14.1602
14.1542
14.1315
14.093
14.0421
13.9785
13.9083
13.8236
13.7372
14.421
14.2685
14.1857
14.1774
14.1662
14.144
14.108
14.06
13.9999
13.9325
13.854
13.7736
14.3814
14.2663
14.2035
14.1901
14.1773
14.1557
14.1215
14.0755
14.0184
13.9539
13.8808
13.8062
14.3417
14.2522
14.2128
14.1989
14.187
14.1662
14.1334
14.089
14.0343
13.9726
13.9041
13.8342
14.3073
14.2383
14.217
14.2049
14.195
14.1753
14.1435
14.1005
14.0476
13.9885
13.9237
13.8579
14.2811
14.2277
14.2187
14.2089
14.2012
14.1826
14.1518
14.1097
14.0585
14.0015
13.94
13.8773
14.265
14.2216
14.2193
14.2115
14.2056
14.188
14.1577
14.1164
14.0666
14.0117
13.9531
13.8932
14.2585
14.2212
14.2197
14.2128
14.2078
14.1909
14.1611
14.1205
14.072
14.0192
13.9635
13.9062
14.2591
14.2269
14.2202
14.2123
14.2071
14.1908
14.1614
14.1214
14.0744
14.0238
13.9714
13.917
14.2646
14.2375
14.2203
14.2083
14.2016
14.1855
14.1563
14.1175
14.0725
14.0252
13.9769
13.9268
14.2719
14.2479
14.2203
14.2011
14.1908
14.1735
14.1443
14.1077
14.0659
14.0228
13.9801
13.9365
14.2815
14.2588
14.222
14.1968
14.1818
14.1618
14.1335
14.0991
14.0598
14.0198
13.981
13.9432
)
;

boundaryField
{
    rotor
    {
        type            zeroGradient;
    }
    stator
    {
        type            zeroGradient;
    }
    front
    {
        type            empty;
    }
    back
    {
        type            empty;
    }
}


// ************************************************************************* //
