/*--------------------------------*- C++ -*----------------------------------*\
  =========                 |
  \\      /  F ield         | OpenFOAM: The Open Source CFD Toolbox
   \\    /   O peration     | Website:  https://openfoam.org
    \\  /    A nd           | Version:  6
     \\/     M anipulation  |
\*---------------------------------------------------------------------------*/
FoamFile
{
    version     2.0;
    format      ascii;
    class       surfaceScalarField;
    location    "200";
    object      phi;
}
// * * * * * * * * * * * * * * * * * * * * * * * * * * * * * * * * * * * * * //

dimensions      [0 3 -1 0 0 0 0];

internalField   nonuniform List<scalar> 
5952
(
6.21312e-06
-6.21507e-06
1.04471e-05
-4.23253e-06
1.33805e-05
-2.93306e-06
1.32617e-05
1.21999e-07
8.72955e-06
4.53129e-06
-2.25983e-07
8.95809e-06
-1.80288e-05
1.78013e-05
-3.69813e-05
1.89534e-05
-5.13195e-05
1.43371e-05
-6.28867e-05
1.15673e-05
-7.1487e-05
8.59941e-06
6.15342e-06
-7.76408e-05
2.56815e-06
-8.7825e-06
3.07174e-06
-4.73464e-06
-7.61828e-07
9.01121e-07
-1.0003e-05
9.36433e-06
-2.42196e-05
1.87479e-05
-3.92641e-05
2.40032e-05
-4.67875e-05
2.53244e-05
-5.07321e-05
2.28984e-05
-5.50304e-05
1.86351e-05
-5.87481e-05
1.5285e-05
-6.16653e-05
1.15161e-05
8.18844e-06
-6.37006e-05
-8.59544e-07
-7.92215e-06
-4.76319e-06
-8.30034e-07
-1.32356e-05
9.37389e-06
-2.40979e-05
2.02272e-05
-3.26707e-05
2.73208e-05
-3.78945e-05
2.92274e-05
-4.06218e-05
2.80517e-05
-4.25136e-05
2.47904e-05
-4.46069e-05
2.07282e-05
-4.62029e-05
1.6881e-05
-4.76425e-05
1.29554e-05
9.33781e-06
-4.87922e-05
-4.55092e-06
-3.37009e-06
-1.0898e-05
5.51794e-06
-1.79471e-05
1.64233e-05
-2.41091e-05
2.63898e-05
-2.80087e-05
3.12206e-05
-3.02832e-05
3.15023e-05
-3.15441e-05
2.93126e-05
-3.23673e-05
2.56137e-05
-3.31578e-05
2.15185e-05
-3.38693e-05
1.75924e-05
-3.46605e-05
1.37463e-05
1.00502e-05
-3.53731e-05
-5.51834e-06
2.15012e-06
-1.09664e-05
1.0967e-05
-1.55656e-05
2.1023e-05
-1.86503e-05
2.94752e-05
-2.02693e-05
3.28398e-05
-2.08583e-05
3.20918e-05
-2.07824e-05
2.92367e-05
-2.07561e-05
2.55875e-05
-2.09537e-05
2.1716e-05
-2.12882e-05
1.79269e-05
-2.17356e-05
1.41933e-05
1.0518e-05
-2.22036e-05
-4.82919e-06
6.98127e-06
-8.73106e-06
1.48698e-05
-1.12079e-05
2.35009e-05
-1.20265e-05
3.02943e-05
-1.17366e-05
3.25508e-05
-1.08057e-05
3.1161e-05
-9.89645e-06
2.83279e-05
-9.26038e-06
2.49512e-05
-8.96064e-06
2.14163e-05
-8.92963e-06
1.78954e-05
-9.10607e-06
1.43697e-05
1.08158e-05
-9.40438e-06
-3.69866e-06
1.06817e-05
-6.22552e-06
1.73985e-05
-6.75346e-06
2.40297e-05
-5.51469e-06
2.9057e-05
-3.33719e-06
3.03737e-05
-1.14803e-06
2.89728e-05
6.65727e-07
2.6514e-05
1.97751e-06
2.36397e-05
2.79248e-06
2.06009e-05
3.19642e-06
1.74915e-05
3.27639e-06
1.42892e-05
1.09638e-05
3.12821e-06
-3.42242e-06
1.41062e-05
-4.6736e-06
1.86511e-05
-3.32817e-06
2.2686e-05
8.79709e-08
2.56421e-05
4.13545e-06
2.63274e-05
7.75902e-06
2.53499e-05
1.06521e-05
2.36214e-05
1.27701e-05
2.15218e-05
1.41789e-05
1.91921e-05
1.49999e-05
1.66703e-05
1.53587e-05
1.39301e-05
1.09477e-05
1.53745e-05
-3.36988e-06
1.74796e-05
-3.61713e-06
1.89004e-05
-2.35863e-07
1.93065e-05
5.16738e-06
2.02403e-05
1.09407e-05
2.05554e-05
1.60217e-05
2.02697e-05
2.00812e-05
1.95625e-05
2.30977e-05
1.85057e-05
2.51734e-05
1.71166e-05
2.64618e-05
1.53818e-05
2.71331e-05
1.32587e-05
1.0741e-05
2.73395e-05
-4.56622e-06
2.20459e-05
-1.65105e-06
1.59864e-05
4.7857e-06
1.28708e-05
1.20229e-05
1.30043e-05
1.90384e-05
1.35409e-05
2.51083e-05
1.42007e-05
2.99842e-05
1.46871e-05
3.36607e-05
1.48295e-05
3.62455e-05
1.45319e-05
3.78952e-05
1.37321e-05
3.88067e-05
1.2347e-05
1.03908e-05
3.91567e-05
3.77713e-07
2.16697e-05
8.47684e-06
7.88787e-06
1.71846e-05
4.16375e-06
2.51929e-05
4.99686e-06
3.21599e-05
6.57466e-06
3.79812e-05
8.38011e-06
4.26249e-05
1.0044e-05
4.61264e-05
1.13284e-05
4.8586e-05
1.20725e-05
5.01264e-05
1.21917e-05
5.09407e-05
1.15326e-05
1.014e-05
5.11914e-05
2.60554e-05
-4.38641e-06
3.64432e-05
-2.50035e-06
4.30295e-05
-2.42264e-06
4.85545e-05
-5.28211e-07
5.30627e-05
2.0666e-06
5.6754e-05
4.68889e-06
5.96795e-05
7.11863e-06
6.1828e-05
9.17993e-06
6.32238e-05
1.06767e-05
6.39148e-05
1.15006e-05
6.40663e-05
1.13808e-05
6.37873e-05
1.04187e-05
-8.14867e-05
3.84516e-06
-8.3241e-05
1.75363e-06
-8.3018e-05
-2.23676e-07
-8.09967e-05
-2.02215e-06
-7.71907e-05
-3.80665e-06
-7.14685e-05
-5.72301e-06
-6.3719e-05
-7.75025e-06
-5.37561e-05
-9.96373e-06
-4.14023e-05
-1.23544e-05
-2.67304e-05
-1.46728e-05
-1.11008e-05
-1.56318e-05
-1.11015e-05
-6.49342e-05
5.07823e-06
-6.53993e-05
2.21813e-06
-6.51293e-05
-4.94314e-07
-6.40114e-05
-3.14084e-06
-6.18798e-05
-5.93902e-06
-5.86325e-05
-8.9711e-06
-5.40757e-05
-1.2308e-05
-4.80193e-05
-1.6021e-05
-4.01998e-05
-2.01749e-05
-3.02823e-05
-2.45913e-05
-1.77446e-05
-2.8171e-05
-2.88465e-05
-4.96413e-05
5.92696e-06
-5.00837e-05
2.66006e-06
-4.9988e-05
-5.9058e-07
-4.91891e-05
-3.94028e-06
-4.76224e-05
-7.50638e-06
-4.52055e-05
-1.13888e-05
-4.18343e-05
-1.56799e-05
-3.73858e-05
-2.04705e-05
-3.17266e-05
-2.58351e-05
-2.43846e-05
-3.1934e-05
-1.44558e-05
-3.81008e-05
-4.33026e-05
-3.59066e-05
6.46019e-06
-3.61503e-05
2.90342e-06
-3.60126e-05
-7.2867e-07
-3.54204e-05
-4.53283e-06
-3.43235e-05
-8.60383e-06
-3.26617e-05
-1.30511e-05
-3.03746e-05
-1.79677e-05
-2.7405e-05
-2.34409e-05
-2.3563e-05
-2.96777e-05
-1.85188e-05
-3.6979e-05
-1.13594e-05
-4.52608e-05
-5.46625e-05
-2.2603e-05
6.85927e-06
-2.28481e-05
3.14835e-06
-2.28738e-05
-7.03355e-07
-2.26324e-05
-4.77464e-06
-2.20882e-05
-9.14843e-06
-2.12018e-05
-1.39381e-05
-1.99388e-05
-1.92314e-05
-1.82332e-05
-2.51471e-05
-1.59524e-05
-3.19592e-05
-1.29179e-05
-4.00144e-05
-8.0507e-06
-5.01294e-05
-6.27137e-05
-9.73903e-06
7.19374e-06
-1.00386e-05
3.44741e-06
-1.02529e-05
-4.89498e-07
-1.03501e-05
-4.6781e-06
-1.03125e-05
-9.18668e-06
-1.01436e-05
-1.41079e-05
-9.82993e-06
-1.95458e-05
-9.33172e-06
-2.56464e-05
-8.61663e-06
-3.26758e-05
-7.53984e-06
-4.10924e-05
-5.40569e-06
-5.22649e-05
-6.81207e-05
2.84125e-06
7.4801e-06
2.48434e-06
3.80386e-06
2.09824e-06
-1.0418e-07
1.69917e-06
-4.27981e-06
1.2794e-06
-8.76803e-06
8.15791e-07
-1.36453e-05
2.88661e-07
-1.90201e-05
-3.11938e-07
-2.50472e-05
-9.86487e-07
-3.2002e-05
-1.67892e-06
-4.04022e-05
-2.15256e-06
-5.17937e-05
-7.02739e-05
1.51548e-05
7.69949e-06
1.47746e-05
4.18341e-06
1.42735e-05
3.96372e-07
1.36556e-05
-3.66291e-06
1.2891e-05
-8.00436e-06
1.1925e-05
-1.26806e-05
1.06885e-05
-1.77846e-05
9.10274e-06
-2.34623e-05
7.07397e-06
-2.99752e-05
4.5329e-06
-3.7862e-05
1.63558e-06
-4.88979e-05
-6.864e-05
2.72201e-05
7.81853e-06
2.6866e-05
4.53701e-06
2.63231e-05
9.38488e-07
2.55929e-05
-2.93353e-06
2.46294e-05
-7.04191e-06
2.33492e-05
-1.14015e-05
2.16306e-05
-1.6067e-05
1.93211e-05
-2.11538e-05
1.61974e-05
-2.68516e-05
1.19853e-05
-3.36516e-05
6.53721e-06
-4.34521e-05
-6.2103e-05
3.91243e-05
7.8505e-06
3.88163e-05
4.84454e-06
3.8288e-05
1.46602e-06
3.75449e-05
-2.1912e-06
3.65369e-05
-6.03492e-06
3.51636e-05
-1.00289e-05
3.32578e-05
-1.41619e-05
3.05975e-05
-1.84938e-05
2.67891e-05
-2.30442e-05
2.13176e-05
-2.81805e-05
1.32263e-05
-3.53612e-05
-4.88777e-05
5.1092e-05
7.94944e-06
5.07507e-05
5.18523e-06
5.02252e-05
1.99079e-06
4.95261e-05
-1.49308e-06
4.86089e-05
-5.11853e-06
4.73741e-05
-8.79482e-06
4.56396e-05
-1.24279e-05
4.31381e-05
-1.59927e-05
3.93086e-05
-1.92145e-05
3.33451e-05
-2.22174e-05
2.25579e-05
-2.45748e-05
-2.63188e-05
6.33255e-05
8.41095e-06
6.27644e-05
5.74576e-06
6.21545e-05
2.60017e-06
6.15105e-05
-8.49755e-07
6.07964e-05
-4.40483e-06
5.9927e-05
-7.92569e-06
5.87459e-05
-1.12469e-05
5.70123e-05
-1.42591e-05
5.41662e-05
-1.63685e-05
4.90637e-05
-1.71146e-05
3.75661e-05
-1.30765e-05
1.12468e-05
6.21902e-06
-6.21718e-06
1.04366e-05
-4.21628e-06
1.33697e-05
-2.93308e-06
1.32846e-05
8.66355e-08
8.81696e-06
4.46676e-06
-6.56867e-08
8.88416e-06
-1.77755e-05
1.77089e-05
-3.67662e-05
1.89916e-05
-5.11393e-05
1.43724e-05
-6.27345e-05
1.15957e-05
-7.13581e-05
8.62308e-06
6.17372e-06
-7.75317e-05
2.57639e-06
-8.79204e-06
3.1413e-06
-4.77934e-06
-6.20876e-07
8.29792e-07
-9.75486e-06
9.22132e-06
-2.39389e-05
1.86508e-05
-3.9042e-05
2.39877e-05
-4.66752e-05
2.5342e-05
-5.06328e-05
2.29496e-05
-5.49378e-05
1.86773e-05
-5.86634e-05
1.53216e-05
-6.15891e-05
1.15486e-05
8.21491e-06
-6.36303e-05
-8.01078e-07
-7.98886e-06
-4.62729e-06
-9.51366e-07
-1.30278e-05
9.23113e-06
-2.39261e-05
2.01203e-05
-3.25692e-05
2.72941e-05
-3.78223e-05
2.92414e-05
-4.0568e-05
2.80878e-05
-4.24569e-05
2.48389e-05
-4.45507e-05
2.07711e-05
-4.61496e-05
1.69207e-05
-4.75903e-05
1.29892e-05
9.36524e-06
-4.87406e-05
-4.50415e-06
-3.48176e-06
-1.08114e-05
5.35773e-06
-1.78631e-05
1.62837e-05
-2.40631e-05
2.63213e-05
-2.79723e-05
3.12038e-05
-3.0254e-05
3.15238e-05
-3.15194e-05
2.93534e-05
-3.2341e-05
2.5661e-05
-3.31298e-05
2.15598e-05
-3.38369e-05
1.7628e-05
-3.46241e-05
1.37761e-05
1.00758e-05
-3.53346e-05
-5.47393e-06
1.99593e-06
-1.09234e-05
1.08086e-05
-1.55345e-05
2.08963e-05
-1.86318e-05
2.94193e-05
-2.02678e-05
3.28411e-05
-2.08647e-05
3.21208e-05
-2.0784e-05
2.9274e-05
-2.07488e-05
2.56253e-05
-2.09386e-05
2.17504e-05
-2.12677e-05
1.79565e-05
-2.17106e-05
1.42194e-05
1.05408e-05
-2.21762e-05
-4.83452e-06
6.83227e-06
-8.74553e-06
1.47214e-05
-1.12356e-05
2.33871e-05
-1.20632e-05
3.02491e-05
-1.17699e-05
3.25479e-05
-1.08292e-05
3.11823e-05
-9.91103e-06
2.83552e-05
-9.26466e-06
2.49803e-05
-8.95791e-06
2.14428e-05
-8.92012e-06
1.79194e-05
-9.09273e-06
1.43911e-05
1.0836e-05
-9.38756e-06
-3.72532e-06
1.05603e-05
-6.27409e-06
1.72719e-05
-6.81503e-06
2.39299e-05
-5.57049e-06
2.90059e-05
-3.38711e-06
3.03666e-05
-1.18609e-06
2.89819e-05
6.40088e-07
2.65303e-05
1.96167e-06
2.36587e-05
2.78484e-06
2.06201e-05
3.19439e-06
1.75095e-05
3.27894e-06
1.43065e-05
1.09808e-05
3.1335e-06
-3.46431e-06
1.40283e-05
-4.74473e-06
1.85547e-05
-3.41474e-06
2.26027e-05
7.31251e-09
2.55859e-05
4.07043e-06
2.63051e-05
7.70882e-06
2.53449e-05
1.06148e-05
2.36252e-05
1.27435e-05
2.15306e-05
1.41603e-05
1.92036e-05
1.4987e-05
1.66827e-05
1.53499e-05
1.39434e-05
1.09619e-05
1.53685e-05
-3.41777e-06
1.74475e-05
-3.69438e-06
1.8834e-05
-3.26163e-07
1.92351e-05
5.07867e-06
2.01833e-05
1.08648e-05
2.05208e-05
1.596e-05
2.02512e-05
2.00322e-05
1.95541e-05
2.30595e-05
1.85041e-05
2.51434e-05
1.71201e-05
2.64376e-05
1.53887e-05
2.71129e-05
1.3268e-05
1.07525e-05
2.7322e-05
-4.59449e-06
2.20453e-05
-1.70105e-06
1.59412e-05
4.71696e-06
1.28207e-05
1.19458e-05
1.29555e-05
1.89645e-05
1.35035e-05
2.50425e-05
1.41743e-05
2.99277e-05
1.46699e-05
3.36128e-05
1.48196e-05
3.6205e-05
1.45283e-05
3.78604e-05
1.37334e-05
3.87761e-05
1.23522e-05
1.03994e-05
3.91289e-05
3.75151e-07
2.16709e-05
8.45228e-06
7.86629e-06
1.71395e-05
4.13223e-06
2.51361e-05
4.9604e-06
3.20993e-05
6.54155e-06
3.7922e-05
8.35266e-06
4.25697e-05
1.00231e-05
4.60759e-05
1.1314e-05
4.85404e-05
1.20643e-05
5.00852e-05
1.21888e-05
5.0903e-05
1.15344e-05
1.0146e-05
5.11561e-05
2.60599e-05
-4.38859e-06
3.64353e-05
-2.51036e-06
4.30079e-05
-2.43807e-06
4.85208e-05
-5.52398e-07
5.30214e-05
2.04108e-06
5.67094e-05
4.66495e-06
5.96342e-05
7.09848e-06
6.17836e-05
9.16486e-06
6.31809e-05
1.0667e-05
6.38736e-05
1.14961e-05
6.40267e-05
1.13811e-05
6.3749e-05
1.04234e-05
-8.13933e-05
3.86111e-06
-8.31603e-05
1.7669e-06
-8.29466e-05
-2.14198e-07
-8.09329e-05
-2.01403e-06
-7.71341e-05
-3.79934e-06
-7.14185e-05
-5.71596e-06
-6.36763e-05
-7.74263e-06
-5.37214e-05
-9.95526e-06
-4.13771e-05
-1.23446e-05
-2.67162e-05
-1.46614e-05
-1.10995e-05
-1.56176e-05
-1.10998e-05
-6.48691e-05
5.09969e-06
-6.53377e-05
2.23534e-06
-6.50723e-05
-4.79971e-07
-6.39591e-05
-3.12746e-06
-6.18331e-05
-5.92587e-06
-5.85916e-05
-8.95775e-06
-5.40409e-05
-1.22938e-05
-4.79906e-05
-1.60059e-05
-4.01769e-05
-2.01588e-05
-3.02647e-05
-2.45741e-05
-1.77293e-05
-2.81537e-05
-2.88294e-05
-4.95908e-05
5.94974e-06
-5.00351e-05
2.67953e-06
-4.99426e-05
-5.72748e-07
-4.91473e-05
-3.92294e-06
-4.75848e-05
-7.48876e-06
-4.51724e-05
-1.13705e-05
-4.1806e-05
-1.56606e-05
-3.73624e-05
-2.04499e-05
-3.17085e-05
-2.58132e-05
-2.43719e-05
-3.1911e-05
-1.44491e-05
-3.80771e-05
-4.32786e-05
-3.58677e-05
6.4825e-06
-3.6112e-05
2.92382e-06
-3.5976e-05
-7.0907e-07
-3.53862e-05
-4.51293e-06
-3.42922e-05
-8.58302e-06
-3.2634e-05
-1.30289e-05
-3.03508e-05
-1.79441e-05
-2.73856e-05
-2.34156e-05
-2.35484e-05
-2.96508e-05
-1.85088e-05
-3.69511e-05
-1.13533e-05
-4.5233e-05
-5.46324e-05
-2.2574e-05
6.8804e-06
-2.28192e-05
3.16844e-06
-2.28455e-05
-6.8289e-07
-2.26057e-05
-4.75322e-06
-2.20637e-05
-9.12532e-06
-2.118e-05
-1.39131e-05
-1.99202e-05
-1.92043e-05
-1.82183e-05
-2.51181e-05
-1.59412e-05
-3.19283e-05
-1.29104e-05
-3.99824e-05
-8.04782e-06
-5.00971e-05
-6.26806e-05
-9.72088e-06
7.21283e-06
-1.00195e-05
3.46691e-06
-1.02342e-05
-4.69055e-07
-1.03322e-05
-4.65576e-06
-1.02963e-05
-9.16216e-06
-1.01292e-05
-1.40809e-05
-9.81812e-06
-1.95164e-05
-9.32252e-06
-2.56144e-05
-8.61028e-06
-3.26417e-05
-7.53672e-06
-4.10579e-05
-5.40454e-06
-5.22299e-05
-6.80866e-05
2.8485e-06
7.49749e-06
2.4924e-06
3.8222e-06
2.10657e-06
-8.39713e-08
1.70702e-06
-4.25728e-06
1.28644e-06
-8.74264e-06
8.21454e-07
-1.36171e-05
2.92906e-07
-1.89889e-05
-3.09544e-07
-2.50133e-05
-9.8645e-07
-3.19662e-05
-1.67985e-06
-4.0365e-05
-2.15464e-06
-5.17586e-05
-7.02415e-05
1.51504e-05
7.715e-06
1.47714e-05
4.20068e-06
1.42706e-05
4.15908e-07
1.36529e-05
-3.64045e-06
1.28879e-05
-7.97879e-06
1.19215e-05
-1.26518e-05
1.06843e-05
-1.77529e-05
9.09775e-06
-2.34277e-05
7.06901e-06
-2.99382e-05
4.5272e-06
-3.78256e-05
1.63199e-06
-4.88631e-05
-6.86108e-05
2.72045e-05
7.83218e-06
2.68515e-05
4.55301e-06
2.63094e-05
9.57257e-07
2.55796e-05
-2.91155e-06
2.46163e-05
-7.01647e-06
2.33363e-05
-1.13727e-05
2.16178e-05
-1.60352e-05
1.93087e-05
-2.11193e-05
1.61853e-05
-2.68156e-05
1.19754e-05
-3.3615e-05
6.52995e-06
-4.34199e-05
-6.20804e-05
3.90985e-05
7.86219e-06
3.87918e-05
4.85909e-06
3.82645e-05
1.48391e-06
3.75221e-05
-2.16997e-06
3.65148e-05
-6.00988e-06
3.5142e-05
-1.00006e-05
3.32371e-05
-1.41308e-05
3.05778e-05
-1.84602e-05
2.67718e-05
-2.30093e-05
2.13028e-05
-2.81469e-05
1.32165e-05
-3.53324e-05
-4.88635e-05
5.10586e-05
7.95932e-06
5.07186e-05
5.1985e-06
5.0194e-05
2.0078e-06
4.94959e-05
-1.47253e-06
4.85795e-05
-5.09411e-06
4.73457e-05
-8.76717e-06
4.56124e-05
-1.23979e-05
4.31129e-05
-1.59608e-05
3.92863e-05
-1.91826e-05
3.33275e-05
-2.21871e-05
2.25469e-05
-2.4551e-05
-2.63162e-05
6.32881e-05
8.41974e-06
6.27279e-05
5.75825e-06
6.21185e-05
2.61665e-06
6.14753e-05
-8.29649e-07
6.07621e-05
-4.38111e-06
5.98939e-05
-7.89903e-06
5.87145e-05
-1.12186e-05
5.69833e-05
-1.42294e-05
5.41409e-05
-1.63397e-05
4.90437e-05
-1.70893e-05
3.75535e-05
-1.30603e-05
1.12392e-05
6.21807e-06
-6.21663e-06
1.04387e-05
-4.21908e-06
1.33715e-05
-2.93198e-06
1.32778e-05
9.65811e-08
8.78619e-06
4.49185e-06
-1.2523e-07
8.91458e-06
-1.78743e-05
1.77486e-05
-3.6858e-05
1.89852e-05
-5.12239e-05
1.43654e-05
-6.28135e-05
1.15901e-05
-7.14321e-05
8.61799e-06
6.16866e-06
-7.76009e-05
2.57235e-06
-8.78766e-06
3.11854e-06
-4.76369e-06
-6.65697e-07
8.53327e-07
-9.83759e-06
9.26977e-06
-2.40354e-05
1.86901e-05
-3.91232e-05
2.40031e-05
-4.67211e-05
2.53468e-05
-5.06768e-05
2.29417e-05
-5.49824e-05
1.86709e-05
-5.87075e-05
1.53155e-05
-6.16323e-05
1.15424e-05
8.20915e-06
-6.36729e-05
-8.15025e-07
-7.97149e-06
-4.66353e-06
-9.14002e-07
-1.30884e-05
9.27878e-06
-2.39804e-05
2.01626e-05
-3.26044e-05
2.73144e-05
-3.78506e-05
2.925e-05
-4.05923e-05
2.80887e-05
-4.24847e-05
2.48346e-05
-4.45805e-05
2.07667e-05
-4.61799e-05
1.69152e-05
-4.76217e-05
1.2984e-05
9.36042e-06
-4.8773e-05
-4.51597e-06
-3.45375e-06
-1.08342e-05
5.40541e-06
-1.78852e-05
1.63305e-05
-2.40761e-05
2.63541e-05
-2.79842e-05
3.1223e-05
-3.02657e-05
3.15321e-05
-3.15309e-05
2.93543e-05
-3.2354e-05
2.56582e-05
-3.31444e-05
2.15573e-05
-3.38547e-05
1.76257e-05
-3.46448e-05
1.37741e-05
1.0073e-05
-3.53574e-05
-5.48761e-06
2.03635e-06
-1.0937e-05
1.08561e-05
-1.55462e-05
2.09406e-05
-1.8633e-05
2.9442e-05
-2.02669e-05
3.28576e-05
-2.0862e-05
3.21281e-05
-2.07837e-05
2.92766e-05
-2.07516e-05
2.56267e-05
-2.09452e-05
2.17512e-05
-2.12769e-05
1.79576e-05
-2.17226e-05
1.42197e-05
1.05404e-05
-2.21899e-05
-4.83258e-06
6.87194e-06
-8.7404e-06
1.47653e-05
-1.12248e-05
2.34266e-05
-1.20547e-05
3.02731e-05
-1.17583e-05
3.25626e-05
-1.08197e-05
3.11905e-05
-9.9031e-06
2.83612e-05
-9.26049e-06
2.49846e-05
-8.95579e-06
2.14472e-05
-8.92114e-06
1.79231e-05
-9.09528e-06
1.43942e-05
1.08374e-05
-9.3924e-06
-3.71742e-06
1.05923e-05
-6.25909e-06
1.7309e-05
-6.79462e-06
2.39637e-05
-5.55139e-06
2.90318e-05
-3.36873e-06
3.03815e-05
-1.16931e-06
2.89928e-05
6.54017e-07
2.65388e-05
1.97356e-06
2.36662e-05
2.79424e-06
2.06269e-05
3.20221e-06
1.75157e-05
3.28483e-06
1.43116e-05
1.09843e-05
3.13811e-06
-3.45425e-06
1.4048e-05
-4.7259e-06
1.85829e-05
-3.39043e-06
2.263e-05
3.32125e-08
2.56102e-05
4.0944e-06
2.63219e-05
7.73079e-06
2.53579e-05
1.06347e-05
2.36361e-05
1.27616e-05
2.15402e-05
1.41769e-05
1.92123e-05
1.50023e-05
1.66907e-05
1.53641e-05
1.39502e-05
1.0967e-05
1.53814e-05
-3.40741e-06
1.74594e-05
-3.6754e-06
1.88532e-05
-3.00846e-07
1.92574e-05
5.10673e-06
2.02044e-05
1.08923e-05
2.05379e-05
1.59861e-05
2.02655e-05
2.00569e-05
1.95666e-05
2.3083e-05
1.85151e-05
2.51659e-05
1.71302e-05
2.64593e-05
1.53978e-05
2.71338e-05
1.32761e-05
1.0759e-05
2.73421e-05
-4.58682e-06
2.20472e-05
-1.68571e-06
1.59529e-05
4.73829e-06
1.28347e-05
1.19716e-05
1.2972e-05
1.89918e-05
1.35189e-05
2.50698e-05
1.41884e-05
2.99545e-05
1.46827e-05
3.36392e-05
1.48312e-05
3.62309e-05
1.4539e-05
3.78859e-05
1.37431e-05
3.88012e-05
1.2361e-05
1.04069e-05
3.91534e-05
3.7955e-07
2.16688e-05
8.46303e-06
7.87e-06
1.7156e-05
4.14223e-06
2.51562e-05
4.97256e-06
3.21214e-05
6.55435e-06
3.79451e-05
8.3654e-06
4.25933e-05
1.00352e-05
4.60999e-05
1.13251e-05
4.85648e-05
1.20746e-05
5.01099e-05
1.21984e-05
5.09278e-05
1.15433e-05
1.01538e-05
5.1181e-05
2.60588e-05
-4.39083e-06
3.64373e-05
-2.50892e-06
4.30117e-05
-2.4327e-06
4.85273e-05
-5.43243e-07
5.30306e-05
2.0509e-06
5.67208e-05
4.67516e-06
5.96473e-05
7.10865e-06
6.17984e-05
9.17416e-06
6.31973e-05
1.06757e-05
6.38916e-05
1.15042e-05
6.40461e-05
1.13888e-05
6.37694e-05
1.04303e-05
-8.14579e-05
3.85636e-06
-8.32203e-05
1.76202e-06
-8.30022e-05
-2.18746e-07
-8.09838e-05
-2.01893e-06
-7.71798e-05
-3.80465e-06
-7.14587e-05
-5.7217e-06
-6.37102e-05
-7.74914e-06
-5.37484e-05
-9.96241e-06
-4.13963e-05
-1.23526e-05
-2.67275e-05
-1.46695e-05
-1.11114e-05
-1.56176e-05
-1.1112e-05
-6.4911e-05
5.09407e-06
-6.53791e-05
2.22973e-06
-6.51124e-05
-4.85982e-07
-6.39974e-05
-3.13449e-06
-6.18687e-05
-5.934e-06
-5.86241e-05
-8.9669e-06
-5.40699e-05
-1.2304e-05
-4.80159e-05
-1.60171e-05
-4.01984e-05
-2.01709e-05
-3.02815e-05
-2.45871e-05
-1.77325e-05
-2.81678e-05
-2.88449e-05
-4.96239e-05
5.94459e-06
-5.00681e-05
2.67371e-06
-4.99747e-05
-5.79761e-07
-4.91782e-05
-3.93145e-06
-4.76137e-05
-7.49897e-06
-4.51988e-05
-1.13824e-05
-4.18295e-05
-1.56741e-05
-3.73824e-05
-2.0465e-05
-3.17242e-05
-2.58298e-05
-2.43831e-05
-3.19289e-05
-1.44555e-05
-3.80961e-05
-4.33006e-05
-3.58917e-05
6.47872e-06
-3.61367e-05
2.91853e-06
-3.60006e-05
-7.16131e-07
-3.54102e-05
-4.52219e-06
-3.43149e-05
-8.59462e-06
-3.26547e-05
-1.3043e-05
-3.0369e-05
-1.79603e-05
-2.74007e-05
-2.34339e-05
-2.35601e-05
-2.9671e-05
-1.85169e-05
-3.69725e-05
-1.13583e-05
-4.52552e-05
-5.46594e-05
-2.25894e-05
6.87808e-06
-2.28353e-05
3.16435e-06
-2.28621e-05
-6.89554e-07
-2.26221e-05
-4.76251e-06
-2.20794e-05
-9.13766e-06
-2.11944e-05
-1.39284e-05
-1.99328e-05
-1.92224e-05
-1.82286e-05
-2.51386e-05
-1.59491e-05
-3.1951e-05
-1.29157e-05
-4.00067e-05
-8.04948e-06
-5.01226e-05
-6.27093e-05
-9.72676e-06
7.21255e-06
-1.00267e-05
3.46402e-06
-1.02419e-05
-4.74624e-07
-1.03403e-05
-4.66463e-06
-1.03041e-05
-9.17438e-06
-1.01366e-05
-1.40967e-05
-9.82433e-06
-1.95353e-05
-9.32751e-06
-2.56364e-05
-8.61368e-06
-3.26661e-05
-7.538e-06
-4.10834e-05
-5.40475e-06
-5.2257e-05
-6.81152e-05
2.8516e-06
7.4988e-06
2.49448e-06
3.82101e-06
2.1076e-06
-8.83122e-08
1.70742e-06
-4.26501e-06
1.28631e-06
-8.75424e-06
8.21304e-07
-1.36325e-05
2.92805e-07
-1.90081e-05
-3.09093e-07
-2.50357e-05
-9.84884e-07
-3.1991e-05
-1.67834e-06
-4.0392e-05
-2.15251e-06
-5.17851e-05
-7.02683e-05
1.51622e-05
7.71799e-06
1.47819e-05
4.20103e-06
1.428e-05
4.13197e-07
1.36611e-05
-3.64683e-06
1.28952e-05
-7.98908e-06
1.19278e-05
-1.26663e-05
1.06902e-05
-1.77713e-05
9.10334e-06
-2.34497e-05
7.07382e-06
-2.99633e-05
4.53237e-06
-3.78512e-05
1.63506e-06
-4.88891e-05
-6.86347e-05
2.72234e-05
7.83663e-06
2.68693e-05
4.55498e-06
2.63258e-05
9.56181e-07
2.55945e-05
-2.91626e-06
2.46297e-05
-7.02522e-06
2.33483e-05
-1.13858e-05
2.16286e-05
-1.60525e-05
1.93183e-05
-2.11404e-05
1.61944e-05
-2.68394e-05
1.19825e-05
-3.36409e-05
6.53499e-06
-4.34437e-05
-6.20999e-05
3.91221e-05
7.86782e-06
3.88143e-05
4.8626e-06
3.82856e-05
1.48436e-06
3.75416e-05
-2.17295e-06
3.65326e-05
-6.01702e-06
3.51581e-05
-1.0012e-05
3.32516e-05
-1.41465e-05
3.05909e-05
-1.84799e-05
2.67828e-05
-2.30324e-05
2.13124e-05
-2.81707e-05
1.32226e-05
-3.53542e-05
-4.88781e-05
5.1083e-05
7.96567e-06
5.07423e-05
5.20304e-06
5.02167e-05
2.00943e-06
4.95172e-05
-1.47423e-06
4.85993e-05
-5.09982e-06
4.73638e-05
-8.77708e-06
4.56288e-05
-1.2412e-05
4.31274e-05
-1.59789e-05
3.9299e-05
-1.92037e-05
3.33376e-05
-2.22097e-05
2.25532e-05
-2.45704e-05
-2.63239e-05
6.33091e-05
8.42587e-06
6.27488e-05
5.76296e-06
6.21393e-05
2.6186e-06
6.14954e-05
-8.30879e-07
6.07813e-05
-4.38595e-06
5.99117e-05
-7.90786e-06
5.87309e-05
-1.12312e-05
5.69979e-05
-1.42458e-05
5.41533e-05
-1.63592e-05
4.90537e-05
-1.71097e-05
3.75601e-05
-1.3076e-05
1.12357e-05
6.22043e-06
-6.21836e-06
1.04394e-05
-4.2176e-06
1.33733e-05
-2.93361e-06
1.3288e-05
8.70072e-08
8.81928e-06
4.468e-06
-6.56221e-08
8.88656e-06
-1.77807e-05
1.77143e-05
-3.6776e-05
1.89963e-05
-5.11524e-05
1.43757e-05
-6.27505e-05
1.15986e-05
-7.1376e-05
8.62509e-06
6.17523e-06
-7.75511e-05
2.57756e-06
-8.79419e-06
3.14231e-06
-4.78028e-06
-6.21148e-07
8.30722e-07
-9.75842e-06
9.22511e-06
-2.3947e-05
1.86567e-05
-3.90546e-05
2.39946e-05
-4.66896e-05
2.53493e-05
-5.06488e-05
2.29559e-05
-5.49554e-05
1.86823e-05
-5.86825e-05
1.53259e-05
-6.16092e-05
1.15517e-05
8.21709e-06
-6.3651e-05
-8.01188e-07
-7.99072e-06
-4.62776e-06
-9.51793e-07
-1.30298e-05
9.23364e-06
-2.39305e-05
2.01266e-05
-3.25772e-05
2.73036e-05
-3.78331e-05
2.9251e-05
-4.05803e-05
2.80966e-05
-4.24704e-05
2.48465e-05
-4.45653e-05
2.07773e-05
-4.61648e-05
1.69257e-05
-4.76059e-05
1.29926e-05
9.36771e-06
-4.87564e-05
-4.5041e-06
-3.48346e-06
-1.08117e-05
5.35781e-06
-1.78649e-05
1.62878e-05
-2.40679e-05
2.63307e-05
-2.798e-05
3.12162e-05
-3.02635e-05
3.15353e-05
-3.153e-05
2.93634e-05
-3.23522e-05
2.56692e-05
-3.31414e-05
2.15664e-05
-3.38488e-05
1.76332e-05
-3.46364e-05
1.37801e-05
1.00786e-05
-3.53472e-05
-5.47355e-06
1.99412e-06
-1.09243e-05
1.08101e-05
-1.55376e-05
2.09027e-05
-1.86363e-05
2.94301e-05
-2.02739e-05
3.28551e-05
-2.08718e-05
3.21334e-05
-2.07915e-05
2.92844e-05
-2.07566e-05
2.56338e-05
-2.09467e-05
2.17573e-05
-2.12762e-05
1.7962e-05
-2.17194e-05
1.42238e-05
1.0544e-05
-2.21855e-05
-4.83395e-06
6.83005e-06
-8.74509e-06
1.47232e-05
-1.12364e-05
2.33947e-05
-1.2066e-05
3.02621e-05
-1.17734e-05
3.25626e-05
-1.0833e-05
3.11952e-05
-9.91489e-06
2.83658e-05
-9.2687e-06
2.49891e-05
-8.96224e-06
2.145e-05
-8.92478e-06
1.79254e-05
-9.09782e-06
1.43958e-05
1.08395e-05
-9.39306e-06
-3.7248e-06
1.05577e-05
-6.27363e-06
1.72738e-05
-6.81486e-06
2.39379e-05
-5.57089e-06
2.90195e-05
-3.38719e-06
3.03811e-05
-1.18583e-06
2.89945e-05
6.40459e-07
2.65409e-05
1.96197e-06
2.36676e-05
2.78493e-06
2.06276e-05
3.19415e-06
1.75158e-05
3.27827e-06
1.43118e-05
1.09849e-05
3.13234e-06
-3.4645e-06
1.4026e-05
-4.74528e-06
1.8557e-05
-3.41471e-06
2.26102e-05
9.02076e-09
2.55979e-05
4.07392e-06
2.63179e-05
7.71336e-06
2.53565e-05
1.06198e-05
2.36354e-05
1.27486e-05
2.15394e-05
1.41652e-05
1.92112e-05
1.49916e-05
1.66894e-05
1.5354e-05
1.39492e-05
1.09666e-05
1.53721e-05
-3.41987e-06
1.74475e-05
-3.69693e-06
1.88368e-05
-3.268e-07
1.92408e-05
5.08155e-06
2.01918e-05
1.08708e-05
2.05305e-05
1.5968e-05
2.02609e-05
2.00412e-05
1.95633e-05
2.30688e-05
1.85126e-05
2.51526e-05
1.71279e-05
2.64466e-05
1.53957e-05
2.71215e-05
1.32743e-05
1.07578e-05
2.73301e-05
-4.59822e-06
2.2049e-05
-1.70314e-06
1.59425e-05
4.71793e-06
1.28234e-05
1.19506e-05
1.29603e-05
1.89726e-05
1.35099e-05
2.50529e-05
1.41818e-05
2.99394e-05
1.46778e-05
3.36251e-05
1.48276e-05
3.62174e-05
1.4536e-05
3.78727e-05
1.37405e-05
3.87881e-05
1.23588e-05
1.04052e-05
3.91404e-05
3.75726e-07
2.16742e-05
8.4555e-06
7.86498e-06
1.71454e-05
4.13229e-06
2.51446e-05
4.96263e-06
3.211e-05
6.54577e-06
3.79343e-05
8.3586e-06
4.25829e-05
1.00301e-05
4.60897e-05
1.13214e-05
4.85544e-05
1.20718e-05
5.00991e-05
1.2196e-05
5.09167e-05
1.15412e-05
1.01521e-05
5.11695e-05
2.60665e-05
-4.39182e-06
3.64439e-05
-2.51361e-06
4.3017e-05
-2.43848e-06
4.85301e-05
-5.50416e-07
5.30316e-05
2.0445e-06
5.67204e-05
4.67015e-06
5.96456e-05
7.10512e-06
6.17954e-05
9.17188e-06
6.3193e-05
1.06742e-05
6.3886e-05
1.15031e-05
6.40392e-05
1.13877e-05
6.37615e-05
1.04296e-05
-8.14137e-05
3.86212e-06
-8.31814e-05
1.76753e-06
-8.29679e-05
-2.13854e-07
-8.09543e-05
-2.01395e-06
-7.71553e-05
-3.79952e-06
-7.14391e-05
-5.71654e-06
-6.36959e-05
-7.74362e-06
-5.37394e-05
-9.95676e-06
-4.13929e-05
-1.23467e-05
-2.67278e-05
-1.46655e-05
-1.10942e-05
-1.56345e-05
-1.10945e-05
-6.48902e-05
5.10102e-06
-6.53587e-05
2.236e-06
-6.5093e-05
-4.79948e-07
-6.39791e-05
-3.12805e-06
-6.18519e-05
-5.92723e-06
-5.86087e-05
-8.96003e-06
-5.40556e-05
-1.22971e-05
-4.80024e-05
-1.60104e-05
-4.01849e-05
-2.01646e-05
-3.02693e-05
-2.45816e-05
-1.7742e-05
-2.81624e-05
-2.88367e-05
-4.96068e-05
5.95125e-06
-5.0051e-05
2.68013e-06
-4.99581e-05
-5.73137e-07
-4.9162e-05
-3.9244e-06
-4.75981e-05
-7.49135e-06
-4.51842e-05
-1.13743e-05
-4.1816e-05
-1.56656e-05
-3.73705e-05
-2.04562e-05
-3.17147e-05
-2.5821e-05
-2.43764e-05
-3.19202e-05
-1.44521e-05
-3.80872e-05
-4.32889e-05
-3.58804e-05
6.48414e-06
-3.61246e-05
2.92429e-06
-3.59881e-05
-7.09857e-07
-3.53976e-05
-4.51506e-06
-3.43028e-05
-8.5865e-06
-3.26434e-05
-1.30338e-05
-3.0359e-05
-1.79504e-05
-2.73923e-05
-2.34233e-05
-2.35536e-05
-2.966e-05
-1.85126e-05
-3.69617e-05
-1.13556e-05
-4.52445e-05
-5.4645e-05
-2.25834e-05
6.88229e-06
-2.28287e-05
3.16898e-06
-2.28548e-05
-6.8381e-07
-2.26147e-05
-4.75569e-06
-2.20721e-05
-9.12938e-06
-2.11876e-05
-1.39188e-05
-1.99268e-05
-1.92116e-05
-1.82237e-05
-2.51269e-05
-1.59454e-05
-3.19387e-05
-1.29134e-05
-3.99942e-05
-8.04913e-06
-5.01101e-05
-6.26944e-05
-9.72673e-06
7.21509e-06
-1.00256e-05
3.46769e-06
-1.02403e-05
-4.69893e-07
-1.03382e-05
-4.65834e-06
-1.03019e-05
-9.16652e-06
-1.01344e-05
-1.4087e-05
-9.82266e-06
-1.95242e-05
-9.32624e-06
-2.5624e-05
-8.61306e-06
-3.2653e-05
-7.5386e-06
-4.10704e-05
-5.40562e-06
-5.22436e-05
-6.81015e-05
2.84688e-06
7.50024e-06
2.4904e-06
3.82341e-06
2.1043e-06
-8.45033e-08
1.70462e-06
-4.25969e-06
1.28406e-06
-8.74698e-06
8.19215e-07
-1.36234e-05
2.90928e-07
-1.8997e-05
-3.11083e-07
-2.50232e-05
-9.87361e-07
-3.1978e-05
-1.6801e-06
-4.03781e-05
-2.15459e-06
-5.17723e-05
-7.02562e-05
1.51535e-05
7.71834e-06
1.47739e-05
4.20245e-06
1.42726e-05
4.15873e-07
1.36545e-05
-3.64246e-06
1.28893e-05
-7.98282e-06
1.19227e-05
-1.26578e-05
1.06853e-05
-1.77606e-05
9.09856e-06
-2.34374e-05
7.06977e-06
-2.99498e-05
4.52803e-06
-3.78386e-05
1.63255e-06
-4.88764e-05
-6.86247e-05
2.72119e-05
7.83617e-06
2.68583e-05
4.55544e-06
2.63156e-05
9.57833e-07
2.55852e-05
-2.91298e-06
2.46215e-05
-7.01999e-06
2.3341e-05
-1.13781e-05
2.16219e-05
-1.60423e-05
1.93121e-05
-2.11282e-05
1.6188e-05
-2.68264e-05
1.19775e-05
-3.36273e-05
6.53146e-06
-4.34322e-05
-6.20928e-05
3.91094e-05
7.86682e-06
3.8802e-05
4.8622e-06
3.82741e-05
1.48511e-06
3.75311e-05
-2.17079e-06
3.65233e-05
-6.01279e-06
3.51499e-05
-1.00053e-05
3.32442e-05
-1.4137e-05
3.05838e-05
-1.84681e-05
2.67764e-05
-2.30187e-05
2.13062e-05
-2.81576e-05
1.32188e-05
-3.53436e-05
-4.88731e-05
5.10714e-05
7.96447e-06
5.07308e-05
5.20224e-06
5.02057e-05
2.0095e-06
4.95071e-05
-1.47286e-06
4.85903e-05
-5.09647e-06
4.73558e-05
-8.77125e-06
4.56217e-05
-1.24032e-05
4.31212e-05
-1.59675e-05
3.92929e-05
-1.91904e-05
3.33322e-05
-2.21959e-05
2.25501e-05
-2.45601e-05
-2.63222e-05
6.33004e-05
8.42506e-06
6.27399e-05
5.76232e-06
6.21305e-05
2.61844e-06
6.14872e-05
-8.29858e-07
6.07737e-05
-4.38321e-06
5.99051e-05
-7.90268e-06
5.87252e-05
-1.12231e-05
5.69933e-05
-1.42354e-05
5.41498e-05
-1.63463e-05
4.90508e-05
-1.7096e-05
3.75582e-05
-1.30669e-05
1.12374e-05
7.58898e-05
-2.35788e-06
-7.79178e-05
7.68943e-05
-3.50523e-06
7.70267e-05
-2.55563e-06
7.74596e-05
-9.61397e-07
7.81895e-05
1.33644e-06
7.89515e-05
3.92675e-06
7.95229e-05
6.54725e-06
7.97341e-05
8.96871e-06
7.95121e-05
1.08986e-05
7.88365e-05
1.21761e-05
7.78701e-05
1.23471e-05
1.16156e-05
7.6673e-05
9.6833e-05
-4.76812e-06
-9.44237e-05
9.78787e-05
-4.55182e-06
9.84576e-05
-3.13546e-06
9.86828e-05
-1.18736e-06
9.86852e-05
1.33346e-06
9.8408e-05
4.2035e-06
9.77588e-05
7.19618e-06
9.66658e-05
1.00614e-05
9.51217e-05
1.24426e-05
9.31623e-05
1.41354e-05
9.10352e-05
1.4474e-05
1.3824e-05
8.88265e-05
0.000111811
-6.71756e-06
-0.000109862
0.000112996
-5.73835e-06
0.000113728
-3.8686e-06
0.000113984
-1.44434e-06
0.000113792
1.52483e-06
0.000113115
4.87944e-06
0.000111887
8.42349e-06
0.000110056
1.18924e-05
0.000107624
1.48741e-05
0.000104735
1.7025e-05
0.000101744
1.74651e-05
1.66738e-05
9.88939e-05
0.000124765
-0.000123792
-7.69178e-06
0.000125301
-6.2754e-06
0.00012542
-3.98842e-06
0.000125096
-1.12207e-06
0.000124292
2.32786e-06
0.000122932
6.23909e-06
0.000120944
1.04115e-05
0.000118314
1.45215e-05
0.000115116
1.80718e-05
0.000111711
2.04304e-05
0.000108555
2.0621e-05
0.000106481
1.87469e-05
7.55838e-05
9.49987e-06
7.46528e-05
6.67634e-06
7.39177e-05
3.33473e-06
7.33918e-05
-3.24282e-07
7.3038e-05
-4.05137e-06
7.2777e-05
-7.66481e-06
7.24833e-05
-1.09533e-05