/*--------------------------------*- C++ -*----------------------------------*\
  =========                 |
  \\      /  F ield         | OpenFOAM: The Open Source CFD Toolbox
   \\    /   O peration     | Website:  https://openfoam.org
    \\  /    A nd           | Version:  6
     \\/     M anipulation  |
\*---------------------------------------------------------------------------*/
FoamFile
{
    version     2.0;
    format      ascii;
    class       volVectorField;
    location    "200";
    object      U;
}
// * * * * * * * * * * * * * * * * * * * * * * * * * * * * * * * * * * * * * //

dimensions      [0 1 -1 0 0 0 0];

internalField   nonuniform List<vector> 
3072
(
(0.0492744 2.20529 0)
(0.131238 1.91609 0)
(0.220624 1.72204 1.32219e-19)
(0.351508 1.60181 1.54061e-18)
(0.450241 1.68021 -1.76797e-18)
(0.899233 1.87561 1.00699e-18)
(2.08503 1.65678 1.38085e-19)
(3.01126 2.28042 4.18098e-19)
(3.21622 2.73601 -1.14035e-18)
(3.60842 3.02974 1.21687e-18)
(3.94134 3.13763 9.21898e-20)
(4.27783 3.17507 3.7579e-19)
(-0.498607 2.77919 -2.13754e-19)
(-0.260215 2.34207 -3.22097e-19)
(0.092663 2.44272 4.06999e-19)
(0.755683 2.52155 0)
(1.7104 2.72126 4.36806e-19)
(2.61106 3.15317 -5.81809e-19)
(3.06716 3.22855 0)
(3.22078 3.33223 0)
(3.23508 3.41111 0)
(3.36211 3.45922 7.02872e-19)
(3.45928 3.50457 -1.54423e-18)
(3.59049 3.49314 6.1362e-19)
(-0.417527 3.08969 1.41147e-19)
(0.135615 2.78758 0)
(0.903611 2.95256 0)
(1.79642 3.16545 -2.03712e-18)
(2.55119 3.30735 7.53941e-19)
(3.01119 3.36412 -1.8253e-18)
(3.23869 3.27447 1.92981e-18)
(3.33729 3.22209 0)
(3.38851 3.1788 0)
(3.4684 3.13676 -9.3366e-19)
(3.53306 3.08614 -7.26613e-19)
(3.61705 3.02454 2.52303e-18)
(-0.180218 3.35612 -1.3969e-18)
(0.490264 3.24229 -2.34224e-18)
(1.32144 3.39629 1.20364e-18)
(2.14259 3.47152 -1.23734e-18)
(2.70882 3.43703 3.36726e-18)
(3.00072 3.34678 -2.9911e-18)
(3.16236 3.23501 -1.72549e-18)
(3.2213 3.14353 -4.71527e-18)
(3.2471 3.06802 -9.06442e-20)
(3.28227 2.99758 2.53279e-18)
(3.3279 2.9352 2.69379e-18)
(3.38887 2.87062 -2.14966e-18)
(0.0993612 3.5158 0)
(0.778541 3.51985 9.69105e-19)
(1.55215 3.59886 -1.78505e-18)
(2.26123 3.55284 2.78966e-18)
(2.69002 3.4276 3.76615e-19)
(2.91997 3.29053 1.69895e-18)
(3.00238 3.14474 1.91444e-18)
(3.0385 3.02544 1.63872e-18)
(3.06602 2.92576 -3.24787e-18)
(3.10397 2.83778 2.83261e-18)
(3.15027 2.75888 -3.77518e-18)
(3.20551 2.68447 5.095e-18)
(0.329484 3.64995 -2.97253e-18)
(0.97054 3.72164 1.27033e-18)
(1.65556 3.72361 3.60864e-18)
(2.24306 3.59697 0)
(2.60424 3.40985 -4.72861e-18)
(2.75379 3.22451 5.75212e-18)
(2.82051 3.05359 0)
(2.85739 2.90989 -4.12024e-18)
(2.8886 2.78986 3.53628e-18)
(2.92626 2.68706 0)
(2.97051 2.59749 2.09394e-19)
(3.02112 2.51774 3.17012e-18)
(0.497006 3.80161 0)
(1.07991 3.9223 -3.14936e-18)
(1.66786 3.85119 2.79584e-18)
(2.15836 3.65683 0)
(2.43727 3.41863 -3.58417e-18)
(2.5634 3.18538 5.75645e-19)
(2.62802 2.98211 5.21583e-18)
(2.66982 2.81089 4.56652e-18)
(2.70682 2.66832 -3.97587e-18)
(2.74728 2.54858 3.81799e-18)
(2.79216 2.44723 -3.29331e-18)
(2.84142 2.36076 -9.14884e-18)
(0.630034 4.00716 0)
(1.13183 4.1639 2.96919e-18)
(1.61235 4.02822 -4.83076e-18)
(2.00276 3.7771 5.07477e-18)
(2.23573 3.47553 0)
(2.35625 3.18949 -6.31348e-18)
(2.42775 2.94279 5.81966e-18)
(2.47934 2.73615 3.46583e-20)
(2.52483 2.56567 -8.96244e-18)
(2.57052 2.4252 -4.04235e-18)
(2.618 2.30952 -1.94059e-19)
(2.66769 2.21428 7.07298e-18)
(0.726041 4.19577 0)
(1.15849 4.4381 -3.94881e-18)
(1.50936 4.22785 -5.82264e-18)
(1.80164 3.92444 -4.26755e-18)
(2.00007 3.56988 8.30489e-18)
(2.12734 3.23087 0)
(2.21585 2.93529 0)
(2.28375 2.68728 0)
(2.34186 2.48358 0)
(2.39576 2.31828 4.35732e-18)
(2.44781 2.18532 -4.23585e-18)
(2.49942 2.0789 4.00828e-18)
(0.833868 4.54671 0)
(1.08481 4.70364 2.75316e-18)
(1.31085 4.37293 -6.14787e-19)
(1.54241 4.0026 4.6379e-18)
(1.7243 3.61169 4.43121e-18)
(1.86684 3.24025 -7.13617e-18)
(1.97897 2.9118 0)
(2.07019 2.63311 -1.94146e-19)
(2.14702 2.40232 -1.66026e-17)
(2.21474 2.21521 0)
(2.27567 2.06645 9.78634e-18)
(2.33238 1.94969 -4.51099e-18)
(1.07947 4.58409 0)
(0.940451 4.64307 3.10536e-18)
(1.00483 4.22893 9.32273e-18)
(1.19408 3.81063 -7.9857e-18)
(1.38221 3.43639 -1.09872e-17)
(1.54972 3.08415 1.72476e-17)
(1.69416 2.76899 -1.68301e-19)
(1.81713 2.49725 -6.33511e-18)
(1.92139 2.26773 5.20885e-18)
(2.01141 2.07915 -1.08175e-17)
(2.08867 1.92873 -1.50568e-17)
(2.15689 1.81103 1.51629e-17)
(0.313282 3.9732 -1.56287e-18)
(0.434697 3.84259 -1.18402e-17)
(0.568624 3.485 2.05981e-18)
(0.772528 3.1631 0)
(0.989182 2.90569 0)
(1.19005 2.65553 2.10873e-19)
(1.36939 2.42187 1.61314e-17)
(1.52696 2.2105 1.00404e-17)
(1.66363 2.02521 0)
(1.78281 1.86858 9.46727e-18)
(1.88335 1.74201 0)
(1.97008 1.64201 3.80611e-19)
(4.52907 3.09458 2.06207e-18)
(4.7422 2.96524 -1.16027e-18)
(4.85954 2.77093 3.63095e-19)
(4.91914 2.55669 -3.50874e-19)
(4.89774 2.30349 -9.78204e-20)
(4.80336 2.04952 0)
(4.61378 1.78403 0)
(4.34023 1.53501 6.62527e-19)
(3.96603 1.29561 -7.77979e-19)
(3.45182 1.03682 0)
(2.91248 0.669557 0)
(2.68443 -0.0513409 -1.66631e-20)
(3.72162 3.43792 7.6823e-19)
(3.85851 3.34073 0)
(3.98702 3.20055 -8.99827e-19)
(4.10343 3.02192 7.64469e-20)
(4.17683 2.82676 1.06048e-19)
(4.20046 2.62558 2.03953e-18)
(4.16329 2.43143 -3.36719e-18)
(4.06707 2.25924 5.58626e-19)
(3.9079 2.12406 0)
(3.56566 2.00912 0)
(3.24717 1.90458 0)
(3.29343 1.5814 5.87958e-19)
(3.70813 2.94645 9.57758e-19)
(3.80012 2.8534 -2.66294e-18)
(3.8807 2.74887 7.1832e-19)
(3.9405 2.63791 1.84093e-18)
(3.97032 2.52596 -1.93785e-18)
(3.96625 2.42332 0)
(3.92412 2.33879 0)
(3.84491 2.28407 -1.61946e-19)
(3.73237 2.27143 9.57188e-19)
(3.53967 2.29429 0)
(3.25826 2.31798 0)
(3.41745 2.26511 -3.76633e-19)
(3.45827 2.7994 2.61083e-19)
(3.52951 2.72076 2.83473e-18)
(3.59392 2.63688 2.01838e-18)
(3.6449 2.55237 -2.03886e-18)
(3.67756 2.47387 0)
(3.68914 2.40869 1.26735e-18)
(3.6774 2.36469 0)
(3.64362 2.35092 2.24697e-18)
(3.59497 2.37809 -7.85427e-19)
(3.50366 2.46446 0)
(3.29129 2.595 -4.16489e-19)
(3.58557 2.78333 4.60295e-19)
(3.26597 2.61128 -2.07868e-18)
(3.32704 2.53884 0)
(3.38341 2.46898 0)
(3.43159 2.40505 0)
(3.46948 2.35162 0)
(3.49574 2.3161 -2.14854e-18)
(3.50959 2.30361 -1.07878e-19)
(3.51414 2.3208 -1.17808e-18)
(3.50988 2.38353 0)
(3.49524 2.50735 -8.53061e-19)
(3.34511 2.6995 4.3261e-19)
(3.76643 3.01106 -1.17995e-19)
(3.07575 2.44493 -1.83874e-19)
(3.13154 2.37831 -5.25544e-18)
(3.18555 2.31887 2.48656e-18)
(3.23624 2.2688 -5.81621e-21)
(3.28295 2.23147 1.67396e-19)
(3.32645 2.21178 3.69336e-18)
(3.36833 2.21487 -1.21631e-19)
(3.40999 2.2475 -4.25482e-18)
(3.45439 2.32171 -1.73977e-18)
(3.50805 2.45831 8.57046e-19)
(3.44888 2.70759 -1.06694e-18)
(3.93255 3.12811 -3.96592e-19)
(2.89374 2.28617 8.72176e-18)
(2.9477 2.22199 2.84326e-18)
(3.00216 2.16821 0)
(3.0572 2.12586 0)
(3.11387 2.097 1.65145e-19)
(3.17416 2.08516 -2.78776e-18)
(3.24081 2.09462 4.42949e-18)
(3.31676 2.13106 -1.07994e-19)
(3.4055 2.20455 1.53152e-18)
(3.51628 2.33426 0)
(3.54542 2.56999 -2.09005e-19)
(4.07239 3.07452 -7.13799e-20)
(2.71922 2.1358 -3.37044e-18)
(2.77243 2.07136 -3.08198e-18)
(2.82772 2.01966 3.30271e-18)
(2.88652 1.98035 -3.11127e-18)
(2.95135 1.95412 2.8022e-21)
(3.02545 1.94311 6.33979e-18)
(3.11306 1.95068 -2.95562e-18)
(3.21929 1.98146 1.70261e-18)
(3.34942 2.04381 0)
(3.51685 2.15633 1.04671e-18)
(3.63702 2.37485 4.92613e-19)
(4.17427 2.91414 -7.58011e-19)
(2.55109 1.99434 3.81875e-18)
(2.60376 1.92718 -3.68754e-18)
(2.65912 1.87466 -3.43783e-18)
(2.71972 1.83486 -7.18197e-18)
(2.7893 1.8068 6.98243e-18)
(2.87209 1.79111 -6.78674e-18)
(2.97391 1.78982 0)
(3.10182 1.8061 -1.67795e-18)
(3.26406 1.84553 0)
(3.47944 1.92412 0)
(3.69096 2.09989 0)
(4.21841 2.59947 3.61554e-19)
(2.38589 1.85933 4.33247e-18)
(2.43851 1.78894 -8.61885e-18)
(2.49316 1.73442 8.40562e-18)
(2.55331 1.6923 8.11368e-18)
(2.62353 1.65992 3.95216e-18)
(2.70861 1.63625 0)
(2.81548 1.62136 0)
(2.95291 1.61674 4.05138e-18)
(3.13288 1.6237 0)
(3.38436 1.65407 -1.16841e-18)
(3.66657 1.75287 7.46907e-19)
(4.18989 2.14046 -1.08585e-18)
(2.21668 1.72159 -9.98438e-18)
(2.27186 1.65202 9.21266e-18)
(2.32654 1.59771 -8.99103e-18)
(2.38484 1.55426 -2.27114e-17)
(2.45174 1.51768 -2.27157e-19)
(2.53214 1.48553 1.28847e-19)
(2.633 1.45545 -4.49393e-18)
(2.76335 1.42676 -4.19983e-18)
(2.94024 1.39396 0)
(3.20206 1.36253 3.65315e-18)
(3.52935 1.32995 8.92782e-19)
(4.03461 1.35796 -1.5096e-18)
(2.04157 1.56777 -4.07807e-19)
(2.10292 1.50863 0)
(2.15923 1.46111 0)
(2.21473 1.42073 4.35826e-18)
(2.27426 1.38304 1.3548e-17)
(2.34212 1.34491 -4.48057e-18)
(2.42467 1.30263 -2.08811e-19)
(2.52801 1.25298 -2.39837e-18)
(2.67335 1.18202 -2.32509e-18)
(2.88874 1.08275 -2.34873e-18)
(3.23008 0.882714 0)
(3.58251 0.154167 1.96099e-18)
(2.20545 -0.0523161 1.41823e-22)
(1.91444 -0.134366 0)
(1.72284 -0.224003 -1.3132e-19)
(1.60115 -0.354098 0)
(1.67668 -0.452657 -8.78173e-19)
(1.87527 -0.891752 9.99677e-19)
(1.65446 -2.06934 0)
(2.2686 -3.00722 3.86149e-19)
(2.73044 -3.21417 -1.00375e-18)
(3.023 -3.60477 9.44592e-19)
(3.13347 -3.93879 -4.31899e-19)
(3.17077 -4.27469 -3.76766e-19)
(2.77914 0.498065 -1.91967e-19)
(2.34088 0.260352 -4.05693e-20)
(2.43793 -0.0887146 3.03776e-19)
(2.51928 -0.741785 0)
(2.71093 -1.69639 -4.42516e-19)
(3.14506 -2.60459 2.4932e-19)
(3.22279 -3.0657 0)
(3.32659 -3.2219 1.06611e-18)
(3.40661 -3.23606 -2.74291e-18)
(3.45444 -3.36203 1.51672e-18)
(3.50081 -3.45923 6.84476e-19)
(3.48961 -3.58982 -2.85738e-18)
(3.08921 0.42073 -1.40916e-19)
(2.7848 -0.128629 0)
(2.94631 -0.894353 -1.32726e-18)
(3.15907 -1.78869 0)
(3.30228 -2.5478 0)
(3.36115 -3.01079 -8.10698e-19)
(3.2716 -3.23938 4.17858e-18)
(3.21886 -3.33863 -2.54593e-18)
(3.17566 -3.3893 8.75253e-19)
(3.13365 -3.4688 0)
(3.08338 -3.53324 2.03941e-18)
(3.02197 -3.61673 -1.10226e-18)
(3.3566 0.184848 8.7946e-19)
(3.24019 -0.482719 1.30274e-18)
(3.39346 -1.31382 8.85124e-19)
(3.47003 -2.13726 1.85039e-18)
(3.43595 -2.70785 -1.56726e-18)
(3.34511 -3.00117 -1.09253e-18)
(3.23325 -3.16383 0)
(3.14139 -3.22319 0)
(3.06587 -3.24861 1.56405e-18)
(2.99539 -3.28332 0)
(2.93299 -3.32836 3.53375e-19)
(2.8685 -3.38891 8.97096e-19)
(3.51784 -0.0922347 1.84787e-18)
(3.51887 -0.770223 -7.84149e-19)
(3.59789 -1.54542 -1.79128e-18)
(3.55191 -2.2589 0)
(3.42784 -2.68959 0)
(3.29021 -2.9215 2.21755e-18)
(3.1441 -3.00441 0)
(3.02432 -3.0403 -3.79653e-18)
(2.92439 -3.06736 -1.49554e-18)
(2.83627 -3.10485 2.83876e-18)
(2.75729 -3.15074 -3.7823e-18)
(2.68288 -3.20565 2.43115e-18)
(3.65249 -0.323099 -1.65415e-18)
(3.72239 -0.963625 -1.12488e-18)
(3.72528 -1.65023 1.58412e-18)
(3.59915 -2.24085 2.48124e-19)
(3.41095 -2.60452 2.37048e-18)
(3.22521 -2.75528 -5.54904e-18)
(3.05369 -2.82216 4.88821e-18)
(2.9095 -2.85889 3.97738e-19)
(2.78915 -2.88977 0)
(2.68615 -2.9271 0)
(2.59644 -2.97105 6.10945e-18)
(2.51662 -3.02141 7.75234e-21)
(3.80456 -0.490993 -5.54578e-20)
(3.92412 -1.07423 -1.75094e-18)
(3.85419 -1.66387 0)
(3.6595 -2.15721 -3.18497e-18)
(3.42057 -2.43801 3.78801e-18)
(3.1868 -2.56471 9.72964e-18)
(2.98288 -2.62941 5.6785e-18)
(2.81112 -2.67111 6.29304e-19)
(2.66819 -2.70787 -8.27084e-18)
(2.54821 -2.74811 3.60237e-18)
(2.44669 -2.79278 3.73595e-18)
(2.3601 -2.84188 1.75461e-19)
(4.00999 -0.626112 1.97099e-19)
(4.16645 -1.12775 2.9781e-18)
(4.03195 -1.60945 0)
(3.78094 -2.0015 -5.10215e-18)
(3.47845 -2.23604 -3.73075e-18)
(3.19163 -2.35717 5.19013e-19)
(2.94422 -2.42885 -1.11954e-17)
(2.737 -2.48042 3.08498e-19)
(2.56609 -2.52582 -2.4253e-19)
(2.42535 -2.57136 4.26744e-18)
(2.30947 -2.61874 -3.4007e-18)
(2.21407 -2.66834 1.8407e-19)
(4.1983 -0.724142 -3.62723e-18)
(4.44089 -1.1559 1.62442e-18)
(4.23161 -1.50715 -8.47328e-18)
(3.92851 -1.80042 4.26923e-18)
(3.5734 -1.99995 0)
(3.23365 -2.12786 0)
(2.93737 -2.21665 6.40145e-18)
(2.68875 -2.28466 1.12076e-17)
(2.48457 -2.3428 -4.97574e-18)
(2.31894 -2.39668 -4.36481e-18)
(2.18573 -2.44869 -4.06907e-18)
(2.07912 -2.50028 0)
(4.54849 -0.833609 5.55604e-20)
(4.70519 -1.08312 4.17085e-18)
(4.37565 -1.30908 9.9984e-18)
(4.00599 -1.54119 0)
(3.61505 -1.7239 7.87914e-18)
(3.24322 -1.86704 0)
(2.91425 -1.97953 2.47796e-19)
(2.63506 -2.07096 -5.65454e-18)
(2.40383 -2.14793 5.73335e-18)
(2.21635 -2.21572 0)
(2.06729 -2.27669 0)
(1.95029 -2.33344 -9.3027e-18)
(4.58436 -1.07951 -6.3103e-18)
(4.64375 -0.939401 3.10617e-18)
(4.23048 -1.00378 4.93394e-19)
(3.81302 -1.19322 -8.68573e-18)
(3.43903 -1.38177 -3.45999e-18)
(3.08678 -1.54973 -3.46588e-18)
(2.77138 -1.69451 -6.45661e-18)
(2.49933 -1.81775 -1.78417e-17)
(2.26947 -1.92222 -5.21351e-18)
(2.08058 -2.01239 -1.08285e-17)
(1.92989 -2.08975 1.04637e-17)
(1.81193 -2.15806 9.68815e-18)
(3.97329 -0.313403 2.98419e-18)
(3.84257 -0.434266 -1.38402e-18)
(3.48561 -0.568037 2.63649e-19)
(3.16445 -0.771881 6.58581e-18)
(2.90744 -0.988744 0)
(2.65747 -1.18989 -5.79693e-18)
(2.42382 -1.36955 5.26025e-18)
(2.21233 -1.52737 4.77546e-18)
(2.02686 -1.6643 -1.50116e-17)
(1.87003 -1.78368 9.47489e-18)
(1.74326 -1.88439 -9.31529e-18)
(1.64305 -1.97126 0)
(3.09181 -4.52671 -1.20061e-18)
(2.96248 -4.73955 3.02166e-18)
(2.76907 -4.85749 -1.44607e-18)
(2.55495 -4.91679 -1.20986e-18)
(2.30229 -4.89586 8.47034e-19)
(2.0484 -4.80138 -7.19869e-20)
(1.78315 -4.61222 -6.85545e-20)
(1.53413 -4.33875 -1.124e-19)
(1.29474 -3.96508 -7.77707e-19)
(1.03584 -3.45121 0)
(0.668321 -2.91228 0)
(-0.0511564 -2.68472 -1.67654e-20)
(3.43497 -3.72078 1.75691e-20)
(3.33816 -3.85729 1.40839e-18)
(3.19844 -3.98563 -8.99723e-19)
(3.02005 -4.10199 0)
(2.82513 -4.17547 1.1209e-18)
(2.62414 -4.19916 0)
(2.43014 -4.16215 9.64933e-19)
(2.25809 -4.06608 1.89396e-18)
(2.12303 -3.90708 -1.64223e-18)
(2.00813 -3.56502 0)
(1.90362 -3.2467 0)
(1.58042 -3.29306 4.93716e-21)
(2.94415 -3.70749 6.24015e-19)
(2.85133 -3.79923 -5.97976e-19)
(2.74701 -3.8797 7.1909e-19)
(2.63623 -3.93949 0)
(2.52442 -3.96934 -8.57041e-19)
(2.42189 -3.96534 2.32255e-18)
(2.33744 -3.92332 -3.36227e-18)
(2.28276 -3.84424 -4.16652e-18)
(2.27014 -3.73182 2.70749e-18)
(2.293 -3.53923 0)
(2.31671 -3.25796 4.7714e-19)
(2.26381 -3.41738 1.2855e-19)
(2.79742 -3.45798 8.52479e-19)
(2.71892 -3.52901 -1.96698e-18)
(2.63516 -3.59329 2.01982e-18)
(2.55074 -3.64423 -2.03987e-18)
(2.47232 -3.67689 0)
(2.40719 -3.68851 1.26745e-18)
(2.36322 -3.67685 1.00111e-18)
(2.34947 -3.64316 6.34369e-19)
(2.37664 -3.59461 -1.58524e-18)
(2.46301 -3.5034 0)
(2.59358 -3.29113 -2.78764e-19)
(2.78189 -3.58541 4.41132e-19)
(2.60972 -3.26587 2.33247e-18)
(2.53732 -3.32677 -1.24234e-18)
(2.46751 -3.38305 0)
(2.4036 -3.43119 0)
(2.35018 -3.46908 1.211e-18)
(2.31465 -3.49537 -9.81453e-19)
(2.30216 -3.50927 -1.93604e-19)
(2.31932 -3.51389 0)
(2.38203 -3.5097 -7.55132e-19)
(2.50584 -3.4951 8.53107e-19)
(2.69803 -3.34511 -9.39174e-19)
(3.00948 -3.76639 -1.91894e-19)
(2.44378 -3.07586 -5.25804e-18)
(2.37714 -3.13153 2.54148e-18)
(2.31766 -3.18547 5.1501e-18)
(2.26756 -3.23614 -5.81654e-21)
(2.23019 -3.28286 -6.29394e-18)
(2.21045 -3.32638 -2.71096e-18)
(2.21348 -3.36829 -1.91713e-19)
(2.24604 -3.40999 0)
(2.3202 -3.45443 0)
(2.45676 -3.50811 -8.57229e-19)
(2.70603 -3.44897 -6.23382e-19)
(3.12652 -3.93259 1.70655e-19)
(2.28543 -2.89407 2.97214e-18)
(2.22118 -2.94796 -5.89657e-18)
(2.16732 -3.00239 -2.62743e-18)
(2.12488 -3.05743 -1.56732e-19)
(2.09593 -3.11411 2.57903e-18)
(2.08399 -3.17441 2.59226e-18)
(2.09335 -3.24107 1.49387e-18)
(2.12968 -3.31704 1.47647e-18)
(2.2031 -3.4058 -1.66534e-18)
(2.33277 -3.51655 0)
(2.56855 -3.54565 1.00829e-18)
(3.07316 -4.07252 -2.82688e-19)
(2.13546 -2.71981 0)
(2.07091 -2.77299 3.08507e-18)
(2.01909 -2.82828 0)
(1.97965 -2.88708 -1.56924e-19)
(1.95328 -2.95193 2.84284e-21)
(1.94213 -3.02604 6.34019e-18)
(1.94957 -3.11365 -6.24386e-18)
(1.98021 -3.21986 0)
(2.04245 -3.34994 -1.84926e-18)
(2.15492 -3.51729 1.04648e-18)
(2.37348 -3.63737 -1.92938e-18)
(2.9129 -4.17446 9.47058e-19)
(1.99439 -2.55194 3.82376e-18)
(1.92708 -2.60461 -3.69167e-18)
(1.8744 -2.66 -3.7218e-18)
(1.83444 -2.72062 3.65796e-18)
(1.80621 -2.79021 3.49584e-18)
(1.79034 -2.873 -1.03985e-17)
(1.7889 -2.97481 3.32008e-18)
(1.80502 -3.10268 0)
(1.84432 -3.26486 1.75544e-18)
(1.92285 -3.48009 0)
(2.09869 -3.69145 2.43615e-18)
(2.59849 -4.21871 -1.75471e-18)
(1.85973 -2.38697 0)
(1.78916 -2.43963 -8.62974e-18)
(1.73446 -2.49432 -4.47287e-18)
(1.69215 -2.5545 -7.88508e-18)
(1.65956 -2.62474 3.95468e-18)
(1.6357 -2.70982 3.77391e-18)
(1.62063 -2.81666 0)
(1.61584 -2.95404 0)
(1.62266 -3.1339 0)
(1.65296 -3.38519 0)
(1.75187 -3.6672 -7.49195e-19)
(2.13987 -4.19023 -9.44528e-20)
(1.72227 -2.21793 4.88019e-18)
(1.6525 -2.27317 4.47709e-18)
(1.59799 -2.32791 1.85112e-17)
(1.55433 -2.38625 4.77922e-18)
(1.51753 -2.45319 1.81864e-17)
(1.48516 -2.53358 -4.40751e-18)
(1.4549 -2.6344 -4.49526e-18)
(1.42603 -2.76468 0)
(1.3931 -2.94143 -4.46901e-18)
(1.36161 -3.20303 -2.42355e-18)
(1.32913 -3.53003 -1.80552e-18)
(1.35774 -4.035 -9.47281e-26)
(1.5686 -2.04287 0)
(1.50926 -2.10432 0)
(1.46154 -2.16071 -1.84449e-17)
(1.42095 -2.21628 -1.35844e-17)
(1.38304 -2.27586 -4.37771e-18)
(1.3447 -2.34371 0)
(1.30223 -2.42621 4.49871e-18)
(1.2524 -2.52946 0)
(1.18134 -2.67464 -1.98521e-19)
(1.08205 -2.8898 2.3473e-18)
(0.882144 -3.2308 6.43076e-19)
(0.154264 -3.58294 3.87554e-18)
(-0.0516079 -2.20544 8.10485e-20)
(-0.133666 -1.91484 2.38901e-19)
(-0.223117 -1.72262 -2.56514e-19)
(-0.353526 -1.60135 1.63557e-19)
(-0.452018 -1.67784 0)
(-0.894554 -1.87542 1.11319e-19)
(-2.07514 -1.65527 0)
(-3.00919 -2.27319 3.78139e-19)
(-3.21545 -2.73289 1.46584e-18)
(-3.60672 -3.02604 -4.48705e-19)
(-3.94041 -3.13573 -1.43547e-18)
(-4.27659 -3.17318 1.36782e-18)
(0.498067 -2.77929 3.61852e-19)
(0.260147 -2.34127 -3.21841e-19)
(-0.0900056 -2.43935 3.54582e-19)
(-0.746185 -2.52009 -1.17623e-19)
(-1.70123 -2.71432 -4.39934e-19)
(-2.6073 -3.14779 -1.09588e-19)
(-3.06686 -3.22476 -7.62206e-19)
(-3.22218 -3.32854 -2.08579e-18)
(-3.23635 -3.40829 3.03208e-18)
(-3.36271 -3.45631 -6.19954e-19)
(-3.45991 -3.50237 7.85834e-19)
(-3.59073 -3.49116 5.77685e-19)
(0.41979 -3.08934 -2.81704e-19)
(-0.13076 -2.78547 0)
(-0.897217 -2.94788 0)
(-1.79152 -3.1609 -8.33255e-19)
(-2.54954 -3.30378 0)
(-3.01164 -3.36199 -1.01656e-18)
(-3.23988 -3.27247 7.96761e-19)
(-3.33887 -3.2199 1.91836e-18)
(-3.38969 -3.17678 -1.14129e-18)
(-3.46926 -3.13484 -1.72954e-18)
(-3.53372 -3.08453 -2.76232e-18)
(-3.61736 -3.02313 2.52325e-18)
(0.183607 -3.3565 -1.76145e-18)
(-0.485129 -3.24068 -1.30187e-18)
(-1.31652 -3.39411 1.58396e-18)
(-2.13942 -3.4702 6.1265e-19)
(-2.70883 -3.43607 0)
(-3.00178 -3.34543 -3.49148e-18)
(-3.16407 -3.23363 2.82663e-18)
(-3.22323 -3.14192 0)
(-3.24868 -3.06644 2.34039e-18)
(-3.28349 -2.99604 -3.61576e-18)
(-3.3287 -2.93373 2.34167e-18)
(-3.38934 -2.86929 3.03573e-19)
(-0.0940947 -3.51736 2.7291e-18)
(-0.772713 -3.5191 2.35703e-18)
(-1.5477 -3.59809 5.39939e-19)
(-2.26021 -3.55197 0)
(-2.69043 -3.42752 -2.07938e-18)
(-2.92172 -3.29003 3.58433e-18)
(-3.00439 -3.14401 0)
(-3.04029 -3.02439 -2.07279e-18)
(-3.06743 -2.92457 -1.83104e-18)
(-3.10501 -2.83654 2.83404e-18)
(-3.15098 -2.75765 0)
(-3.20595 -2.68331 -2.17159e-18)
(-0.324749 -3.65184 1.35446e-18)
(-0.965652 -3.72211 4.8784e-19)
(-1.65201 -3.72472 -1.58186e-18)
(-2.24151 -3.59866 -7.4465e-18)
(-2.60503 -3.41036 -1.68634e-19)
(-2.75543 -3.22465 5.75381e-18)
(-2.82219 -3.05327 0)
(-2.8589 -2.90922 6.28583e-18)
(-2.8898 -2.78897 -3.59214e-18)
(-2.92718 -2.68606 3.18467e-18)
(-2.97115 -2.59644 2.09521e-19)
(-3.02153 -2.51671 -7.65054e-21)
(-0.492551 -3.8038 -1.50931e-18)
(-1.07589 -3.92357 -1.18124e-18)
(-1.66528 -3.85328 0)
(-2.15821 -3.65844 6.76501e-18)
(-2.43834 -3.4197 -1.07551e-17)
(-2.56482 -3.18598 -1.91503e-19)
(-2.62943 -2.98219 -1.08932e-17)
(-2.67109 -2.81055 3.5577e-19)
(-2.70785 -2.6677 -3.97925e-18)
(-2.74808 -2.54781 -3.82005e-18)
(-2.79274 -2.44637 3.73027e-18)
(-2.84181 -2.35987 -3.11512e-18)
(-0.627099 -4.00934 -1.28832e-19)
(-1.12895 -4.16577 -1.58063e-18)
(-1.61049 -4.03092 0)
(-2.00224 -3.77971 5.09618e-18)
(-2.23637 -3.47732 3.52778e-18)
(-2.35729 -3.19059 2.98928e-18)
(-2.42886 -2.94329 -3.90828e-19)
(-2.48037 -2.73616 -3.48644e-20)
(-2.52571 -2.56534 -4.71724e-18)
(-2.57122 -2.42466 -4.08613e-19)
(-2.61855 -2.30885 1.9812e-19)
(-2.6681 -2.21355 0)
(-0.724687 -4.1978 2.25137e-18)
(-1.15669 -4.44021 0)
(-1.50789 -4.23061 0)
(-1.80098 -3.92725 -4.26569e-18)
(-2.00024 -3.57214 3.70362e-18)
(-2.12796 -3.23245 -7.23938e-18)
(-2.21663 -2.93625 0)
(-2.28455 -2.68772 5.48572e-18)
(-2.34262 -2.4836 -2.26412e-19)
(-2.39642 -2.31803 4.35929e-18)
(-2.44836 -2.18489 -4.39486e-18)
(-2.49987 -2.07837 8.29144e-18)
(-0.833808 -4.54809 4.42593e-18)
(-1.08357 -4.70469 -1.41979e-18)
(-1.30959 -4.37483 -5.30392e-18)
(-1.54162 -4.00491 -8.94657e-18)
(-1.72413 -3.61385 0)
(-1.86712 -3.24201 6.56847e-18)
(-1.97949 -2.91308 -1.2847e-17)
(-2.07081 -2.63393 5.66087e-18)
(-2.14768 -2.40274 5.72662e-18)
(-2.21539 -2.21532 0)
(-2.27627 -2.06632 -5.19126e-18)
(-2.33293 -1.9494 -8.72426e-18)
(-1.07949 -4.58429 -6.30563e-18)
(-0.939601 -4.64336 1.40672e-18)
(-1.00405 -4.2299 4.40974e-18)
(-1.19348 -3.8122 3.76824e-18)
(-1.38195 -3.43808 -2.2692e-20)
(-1.54981 -3.08576 -1.05433e-17)
(-1.6945 -2.77036 1.24367e-17)
(-1.81763 -2.49831 2.35216e-17)
(-1.922 -2.26846 -1.63378e-17)
(-2.01207 -2.07959 -1.08183e-17)
(-2.08934 -1.92893 9.94996e-18)
(-2.15756 -1.81102 0)
(-0.313243 -3.97329 4.62908e-18)
(-0.434279 -3.84258 1.76674e-18)
(-0.568227 -3.48546 1.79648e-18)
(-0.772162 -3.16418 6.95894e-18)
(-0.989003 -2.90703 0)
(-1.1901 -2.65695 5.58218e-18)
(-1.36967 -2.42322 -1.08737e-17)
(-1.5274 -2.21167 -4.93717e-18)
(-1.66423 -2.02616 -4.97347e-18)
(-1.78351 -1.8693 9.46725e-18)
(-1.88412 -1.7425 4.90921e-18)
(-1.97089 -1.6423 1.42794e-17)
(-4.52838 -3.09372 4.00256e-19)
(-4.74136 -2.96438 3.3005e-19)
(-4.85911 -2.77062 9.11645e-19)
(-4.91851 -2.55637 -2.46481e-18)
(-4.89738 -2.30344 9.46833e-19)
(-4.80287 -2.04941 0)
(-4.61347 -1.78398 -2.99422e-19)
(-4.33987 -1.53485 2.06917e-19)
(-3.96587 -1.29535 0)
(-3.45177 -1.03632 8.03642e-20)
(-2.9124 -0.668154 0)
(-2.68527 0.0490164 -2.82064e-19)
(-3.72174 -3.43636 -2.79008e-18)
(-3.85838 -3.33947 2.30502e-18)
(-3.98678 -3.19963 1.5107e-18)
(-4.10313 -3.0212 -5.90046e-19)
(-4.17657 -2.82621 0)
(-4.20021 -2.62516 0)
(-4.16311 -2.4311 1.18965e-18)
(-4.06695 -2.25899 -1.31144e-18)
(-3.90784 -2.12387 0)
(-3.56565 -2.00894 5.16599e-19)
(-3.24722 -1.90442 -8.03167e-20)
(-3.29313 -1.58092 -9.28352e-19)
(-3.7082 -2.9453 1.04906e-18)
(-3.80002 -2.85247 -1.73187e-18)
(-3.88051 -2.74812 0)
(-3.94029 -2.63731 -1.86328e-18)
(-3.97013 -2.52549 -2.03758e-18)
(-3.96609 -2.42293 4.52273e-18)
(-3.92401 -2.33845 -4.12006e-18)
(-3.84484 -2.28375 0)
(-3.73233 -2.27112 0)
(-3.53962 -2.29399 0)
(-3.25825 -2.31774 -4.59984e-19)
(-3.41738 -2.26498 1.19452e-19)
(-3.4585 -2.79824 -8.50842e-19)
(-3.52957 -2.71977 -3.04772e-19)
(-3.59388 -2.63605 0)
(-3.6448 -2.55166 -2.81699e-19)
(-3.67744 -2.47328 0)
(-3.68902 -2.40818 0)
(-3.6773 -2.36425 1.12544e-18)
(-3.64354 -2.35053 -1.43377e-18)
(-3.5949 -2.37774 1.72e-18)
(-3.50361 -2.46412 0)
(-3.29131 -2.59472 -4.16303e-19)
(-3.58541 -2.78323 -4.60065e-19)
(-3.26619 -2.61022 4.87135e-18)
(-3.32711 -2.5379 -1.24042e-18)
(-3.38338 -2.46817 2.22117e-18)
(-3.43151 -2.40434 1.00564e-18)
(-3.46937 -2.35101 -3.43359e-18)
(-3.49562 -2.31557 0)
(-3.50948 -2.30314 -1.25787e-18)
(-3.51405 -2.32038 0)
(-3.50981 -2.38314 0)
(-3.49518 -2.50699 8.52273e-19)
(-3.34514 -2.69919 5.03651e-20)
(-3.7663 -3.01085 5.40489e-19)
(-3.07597 -2.44397 -2.41699e-18)
(-3.13163 -2.37743 -1.77036e-19)
(-3.18555 -2.31806 0)
(-3.23619 -2.26808 0)
(-3.28287 -2.23083 -3.98052e-18)
(-3.32637 -2.21122 2.53789e-18)
(-3.36825 -2.21437 2.62521e-18)
(-3.40992 -2.24704 1.39063e-18)
(-3.45434 -2.32128 -3.36893e-18)
(-3.508 -2.45791 -8.5645e-19)
(-3.4489 -2.70726 0)
(-3.93244 -3.12786 6.2242e-19)
(-2.89397 -2.2853 -6.10019e-18)
(-2.94782 -2.22118 2.53051e-18)
(-3.00222 -2.16745 2.79408e-18)
(-3.05721 -2.12517 1.49972e-19)
(-3.11386 -2.09637 -3.25906e-19)
(-3.17414 -2.0846 -2.93962e-18)
(-3.24079 -2.09411 -4.34003e-18)
(-3.31676 -2.13058 -1.58697e-18)
(-3.40552 -2.20411 1.5295e-18)
(-3.5163 -2.33385 0)
(-3.54548 -2.56966 1.71092e-18)
(-4.07233 -3.07431 -4.06565e-19)
(-2.71951 -2.13506 6.56084e-18)
(-2.77263 -2.07064 -3.55329e-18)
(-2.82787 -2.01897 -3.3005e-18)
(-2.88663 -1.9797 -6.06006e-18)
(-2.95145 -1.95352 6.01914e-18)
(-3.02554 -1.94256 -1.62301e-19)
(-3.11316 -1.95019 9.36326e-18)
(-3.21938 -1.98099 1.5153e-18)
(-3.34952 -2.04337 1.84738e-18)
(-3.51692 -2.15592 0)
(-3.6371 -2.3745 -1.19496e-18)
(-4.17427 -2.91391 -5.48175e-19)
(-2.55146 -1.99375 0)
(-2.60407 -1.92658 3.53107e-18)
(-2.6594 -1.87406 3.43586e-18)
(-2.71997 -1.83428 -3.52372e-18)
(-2.78954 -1.80626 -1.34442e-19)
(-2.87232 -1.7906 -3.60566e-18)
(-2.97414 -1.78936 -3.31582e-18)
(-3.10206 -1.80567 0)
(-3.26428 -1.84512 -1.75371e-18)
(-3.47961 -1.92374 -1.10396e-18)
(-3.69111 -2.09958 3.97423e-18)
(-4.21849 -2.59931 -8.35481e-19)
(-2.38638 -1.85894 0)
(-2.43897 -1.78849 0)
(-2.4936 -1.73395 0)
(-2.55373 -1.69183 -1.2265e-17)
(-2.62395 -1.65945 7.87458e-18)
(-2.70902 -1.63581 7.67317e-18)
(-2.81588 -1.62095 0)
(-2.9533 -1.61636 -4.04618e-18)
(-3.13324 -1.62335 0)
(-3.38463 -1.65376 -2.37999e-18)
(-3.66679 -1.75263 -7.48805e-19)
(-4.19001 -2.14046 -1.08565e-18)
(-2.21734 -1.72144 0)
(-2.2725 -1.65178 0)
(-2.32717 -1.59741 9.49439e-18)
(-2.38546 -1.55392 1.33752e-17)
(-2.45235 -1.51732 3.7577e-19)
(-2.53274 -1.48516 4.53015e-18)
(-2.63357 -1.45511 -2.20608e-18)
(-2.7639 -1.42644 6.34771e-18)
(-2.94073 -1.39369 4.46491e-18)
(-3.20244 -1.3623 2.25438e-18)
(-3.52963 -1.32978 -1.80481e-18)
(-4.03478 -1.35809 -1.68748e-18)
(-2.0424 -1.56788 0)
(-2.10376 -1.50861 0)
(-2.16007 -1.46099 -8.99722e-18)
(-2.21555 -1.42054 4.79175e-18)
(-2.27508 -1.3828 -4.37322e-18)
(-2.34291 -1.34465 -4.47894e-18)
(-2.42542 -1.30238 4.70352e-18)
(-2.5287 -1.25274 0)
(-2.67396 -1.18183 -4.58175e-18)
(-2.88924 -1.08264 -2.4375e-18)
(-3.23042 -0.882654 2.28518e-18)
(-3.58269 -0.154416 -3.88209e-18)
(-2.20541 0.0521092 8.1255e-20)
(-1.91445 0.134179 0)
(-1.72268 0.223806 0)
(-1.60106 0.353864 1.20421e-18)
(-1.67661 0.452412 -9.53927e-19)
(-1.87527 0.891637 0)
(-1.65434 2.06967 0)
(-2.26873 3.00768 3.78818e-19)
(-2.73064 3.21465 6.09771e-19)
(-3.02331 3.60539 1.58945e-20)
(-3.13376 3.93946 -1.86422e-18)
(-3.17111 4.27547 9.83137e-19)
(-2.77913 -0.498199 -4.89836e-19)
(-2.34085 -0.26045 0)
(-2.43791 0.0887369 0)
(-2.51924 0.742001 -7.00552e-19)
(-2.71109 1.69672 9.05249e-19)
(-3.14537 2.60506 -1.21148e-18)
(-3.22311 3.06625 7.72186e-19)
(-3.32699 3.22244 8.54078e-19)
(-3.40707 3.23655 -3.3526e-19)
(-3.45497 3.36256 7.0184e-19)
(-3.50141 3.45972 0)
(-3.49024 3.59034 -8.29439e-19)
(-3.08926 -0.420846 2.81539e-19)
(-2.78481 0.128613 0)
(-2.94636 0.894452 0)
(-3.1591 1.78894 -5.35916e-19)
(-3.3024 2.54831 3.71594e-19)
(-3.36134 3.0114 -1.32919e-18)
(-3.27181 3.24002 0)
(-3.21911 3.33925 -2.71434e-18)
(-3.17594 3.3899 3.1775e-18)
(-3.13394 3.46941 -9.3358e-19)
(-3.08369 3.53382 -1.92458e-18)
(-3.02228 3.61731 2.52909e-18)
(-3.35665 -0.184961 -8.79114e-19)
(-3.24019 0.482684 1.30245e-18)
(-3.39346 1.31399 0)
(-3.47004 2.13773 6.12106e-19)
(-3.43602 2.70851 -6.34469e-19)
(-3.34523 3.00182 1.09206e-18)
(-3.2334 3.16446 0)
(-3.14157 3.22378 -1.71251e-18)
(-3.06607 3.24913 -3.90795e-18)
(-2.99562 3.28381 2.53705e-18)
(-2.93324 3.32881 2.34663e-18)
(-2.86878 3.38933 -4.61195e-18)
(-3.51787 0.0921365 1.35962e-18)
(-3.51884 0.770266 -9.75509e-19)
(-3.5979 1.54569 1.791e-18)
(-3.55197 2.25945 0)
(-3.42784 2.69027 -4.35287e-18)
(-3.29025 2.92215 4.10731e-18)
(-3.14415 3.00499 2.45986e-18)
(-3.02439 3.0408 1.64426e-18)
(-2.92448 3.0678 0)
(-2.83639 3.10525 0)
(-2.75743 3.15112 0)
(-2.68305 3.206 -4.96442e-19)
(-3.65253 0.323045 3.30832e-18)
(-3.72234 0.963696 0)
(-3.72523 1.65054 -1.58365e-18)
(-3.59912 2.24134 3.82788e-18)
(-3.41088 2.60518 2.37044e-18)
(-3.22514 2.75588 -5.4785e-18)
(-3.05362 2.82265 2.54703e-18)
(-2.90945 2.85931 -8.57074e-18)
(-2.78911 2.89013 -5.31902e-20)
(-2.68614 2.92741 -2.61077e-19)
(-2.59646 2.97133 2.099e-19)
(-2.51667 3.02166 8.24115e-18)
(-3.8046 0.490875 -5.34685e-18)
(-3.92408 1.0743 3.16422e-18)
(-3.85413 1.6642 -4.76538e-18)
(-3.65936 2.15781 -3.17855e-18)
(-3.4204 2.43862 -6.76921e-18)
(-3.1866 2.56521 -3.71985e-18)
(-2.98268 2.6298 -5.35762e-18)
(-2.81093 2.67143 8.74075e-18)
(-2.66801 2.70813 0)
(-2.54806 2.74832 7.19786e-18)
(-2.44657 2.79295 -9.95937e-18)
(-2.36002 2.84202 3.31995e-18)
(-4.01005 0.626003 -2.99227e-18)
(-4.16646 1.12782 -4.74885e-18)
(-4.03192 1.60976 7.39959e-18)
(-3.78078 2.00201 0)
(-3.4782 2.23654 -4.28758e-18)
(-3.1913 2.35756 6.33144e-18)
(-2.94387 2.42914 -2.91271e-19)
(-2.73665 2.48062 3.49711e-20)
(-2.56576 2.52596 -4.48613e-18)
(-2.42504 2.57146 -8.12768e-18)
(-2.30919 2.61879 3.57406e-18)
(-2.21383 2.66836 -3.53992e-18)
(-4.19839 0.724061 2.25275e-18)
(-4.441 1.15603 0)
(-4.23165 1.50742 0)
(-3.92837 1.80078 0)
(-3.5731 2.00029 3.70814e-18)
(-3.23324 2.12813 0)
(-2.93689 2.21684 -3.19066e-19)
(-2.68826 2.28477 1.09788e-17)
(-2.4841 2.34284 1.86265e-19)
(-2.31849 2.39667 4.36527e-18)
(-2.18532 2.44863 -4.24322e-18)
(-2.07875 2.50018 1.23197e-17)
(-4.5487 0.833691 5.55396e-20)
(-4.70531 1.08321 7.57674e-18)
(-4.37565 1.30923 -2.44025e-18)
(-4.00583 1.54138 0)
(-3.61472 1.72408 0)
(-3.24276 1.86719 0)
(-2.91372 1.97961 0)
(-2.63449 2.07098 5.83633e-18)
(-2.40326 2.14789 -2.186e-17)
(-2.2158 2.21563 -1.0425e-17)
(-2.06677 2.27655 9.80234e-18)
(-1.94981 2.33325 5.08424e-18)
(-4.5844 1.0797 -6.30582e-18)
(-4.64367 0.939403 -4.32298e-18)
(-4.2303 1.00378 -2.60973e-18)
(-3.81271 1.19323 0)
(-3.43862 1.3818 0)
(-3.08627 1.54975 7.10534e-18)
(-2.77081 1.69451 -1.27409e-17)
(-2.49873 1.81771 2.37316e-17)
(-2.26887 1.92214 1.65318e-17)
(-2.07999 2.01225 1.03136e-17)
(-1.92932 2.08956 -9.95791e-18)
(-1.81139 2.15783 5.03847e-19)
(-3.97311 0.313362 -1.56234e-18)
(-3.84226 0.434118 0)
(-3.48525 0.567951 3.45587e-18)
(-3.16409 0.771852 -1.03687e-17)
(-2.90703 0.988744 9.3383e-18)
(-2.65701 1.1899 2.10962e-19)
(-2.42332 1.36955 5.25809e-18)
(-2.21181 1.52735 -4.93895e-18)
(-2.02633 1.66424 -2.47129e-17)