/*--------------------------------*- C++ -*----------------------------------*\
| =========                 |                                                 |
| \\      /  F ield         | foam-extend: Open Source CFD                    |
|  \\    /   O peration     | Version:     4.0                                |
|   \\  /    A nd           | Web:         http://www.foam-extend.org         |
|    \\/     M anipulation  |                                                 |
\*---------------------------------------------------------------------------*/
FoamFile
{
    version     2.0;
    format      ascii;
    class       volScalarField;
    location    "150";
    object      divFlux;
}
// * * * * * * * * * * * * * * * * * * * * * * * * * * * * * * * * * * * * * //

dimensions      [1 -3 -1 0 0 0 0];

internalField   nonuniform List<scalar> 
34480
(
0.0715845
0.0259499
0.0268952
0.025301
0.0238243
0.022562
0.0214688
5.04819
28.221
0.0187406
0.0199348
0.0109501
0.0110454
0.0108387
0.0108756
0.0108773
0.0106995
0.617897
21.1576
0.0100956
0.00660053
0.00417492
0.00417016
0.00424663
0.00454254
0.00483412
0.00493109
0.00491706
17.7369
0.00474075
0.00260778
0.00179206
0.0017934
0.00185565
0.00202689
0.0022059
0.00228943
0.00229795
14.0203
0.00219656
0.0011746
0.000853901
0.000854823
0.000885256
0.000965706
0.00105485
0.0011022
0.00110874
8.52101
0.00104598
0.00058862
0.000443699
0.000442701
0.000456244
0.000493835
0.000536764
0.000560458
0.000563279
1.93716
0.000523893
0.000323493
0.000249055
0.000246617
0.00025194
0.000269859
0.000290864
0.000302816
0.000304418
0.000298854
0.000280864
0.000204185
0.00015789
0.00015405
0.000154643
0.000162478
0.000172434
0.000178397
0.000179748
0.00017726
0.000166218
0.000165763
0.000126331
0.000120186
0.000116398
0.000116176
0.000117969
0.000119408
0.000119922
0.000119193
0.000112577
0.000143412
0.00010898
0.000102057
9.71091e-05
9.41612e-05
9.27152e-05
9.22807e-05
9.26293e-05
9.33784e-05
9.01005e-05
0.099624
0.0342015
0.034938
0.0334534
0.0319465
0.0305903
0.0294846
0.0287215
0.028388
5.86514
0.0308844
0.0165522
0.0167102
0.0166195
0.0166913
0.0165601
0.0162625
0.0161553
1.75866
1.37972
0.0113935
0.00724322
0.00728767
0.00754663
0.00810432
0.00852047
0.00863579
0.00871454
1.96127
0.872082
0.00505634
0.00358467
0.00361321
0.00378237
0.00413052
0.00444335
0.00458328
0.00465805
0.00477746
0.00478974
0.00254925
0.00194052
0.00195131
0.00203541
0.00221119
0.0023905
0.00249185
0.00254139
0.00259922
0.00256174
0.00141558
0.00112742
0.00112801
0.00116918
0.00125883
0.00135412
0.00141756
0.00144903
0.00147355
0.00142511
0.000854573
0.0006995
0.000694061
0.000713217
0.000761337
0.000813088
0.000852361
0.000876214
0.000887857
0.00084536
0.000596378
0.000493374
0.000482758
0.000487802
0.000512171
0.000539769
0.00056302
0.000583022
0.000591777
0.000557658
0.00055493
0.000455373
0.00043524
0.000422765
0.000421566
0.00042759
0.000434644
0.000445947
0.000454371
0.000427672
0.000526766
0.000431357
0.000408689
0.000392868
0.000383914
0.000381384
0.000384781
0.000392568
0.000403139
0.000388818
0.0925333
0.0254681
0.0269051
0.0260116
0.0249664
0.0240646
0.0234608
0.0232513
0.0235652
1.66281
0.0264522
0.0116047
0.0118964
0.0116758
0.0115433
0.0113486
0.0110533
0.0109047
0.0110898
0.0110509
0.00907218
0.00475672
0.00479539
0.00478604
0.00494521
0.00512229
0.00515977
0.00519046
0.00538343
0.00568382
0.00375064
0.0021957
0.00219734
0.00218818
0.00225925
0.00237461
0.0024434
0.00249978
0.0026378
0.00293154
0.00175485
0.00110469
0.00109729
0.00108318
0.00109969
0.00115016
0.00120029
0.001247
0.0013315
0.00152945
0.000900493
0.000595363
0.000587054
0.000575017
0.000574496
0.000593395
0.000623903
0.000657256
0.000707397
0.000827645
0.000502772
0.000343482
0.000335827
0.000326636
0.000322511
0.00032874
0.000346324
0.000370523
0.000402393
0.000477288
0.000323876
0.000224664
0.000217343
0.000209738
0.000205173
0.000205818
0.00021451
0.000231705
0.000254131
0.000306714
0.000271824
0.000185589
0.000177372
0.000169895
0.00016493
0.000162418
0.000163894
0.000172005
0.000187264
0.000233511
0.000218749
0.000143452
0.000135997
0.000129909
0.000126373
0.000124767
0.00012556
0.00012999
0.000141502
0.000197146
0.091651
0.0231987
0.0247178
0.0239714
0.0230691
0.0223264
0.0218648
0.021753
0.0220509
0.0231804
0.026249
0.0109494
0.0112678
0.0110324
0.0108584
0.0106197
0.0102515
0.00995219
0.00987728
0.00921393
0.00913506
0.00462983
0.00467189
0.00463029
0.00473673
0.00485234
0.00481841
0.00474069
0.00477922
0.00470587
0.00385549
0.00219527
0.00219453
0.00216414
0.00220392
0.00228174
0.00230744
0.00230627
0.00237031
0.00249157
0.00183254
0.00112679
0.00111687
0.00109105
0.00109011
0.00111948
0.00114713
0.00116602
0.00121888
0.00134387
0.000949739
0.000615914
0.000605901
0.000587514
0.000577444
0.000584201
0.000602799
0.000623473
0.000661327
0.00075085
0.000532815
0.000358735
0.000350084
0.000337458
0.000328223
0.000327282
0.000338116
0.000356657
0.000384635
0.000445733
0.000343176
0.000235648
0.000227847
0.000218594
0.00021145
0.000208149
0.000212758
0.000227015
0.000248956
0.000294338
0.000285415
0.000193833
0.000185627
0.000177701
0.000172139
0.000168648
0.000168707
0.000175023
0.000190305
0.000231746
0.000229073
0.000149646
0.00014242
0.000136161
0.000132463
0.000130767
0.000131567
0.000136141
0.000148426
0.000199939
0.0901377
0.0209494
0.0225104
0.0219092
0.0211369
0.0205063
0.0201142
0.0200058
0.0202011
0.0210863
0.0258422
0.010213
0.0105653
0.0103462
0.0101631
0.00992099
0.00954927
0.00918393
0.00893003
0.0079155
0.00912465
0.0044451
0.00450526
0.0044583
0.00453446
0.00461116
0.00454036
0.0043927
0.00428963
0.00387493
0.00392517
0.00215909
0.00216588
0.00213226
0.00215706
0.00220818
0.00220427
0.00215462
0.00213161
0.00203714
0.00189277
0.00112726
0.00112058
0.00109335
0.00108627
0.00110109
0.00110992
0.00109986
0.00110507
0.00111776
0.000989074
0.00062332
0.000614685
0.000595788
0.00058324
0.000582393
0.000589562
0.000593595
0.000606598
0.000642504
0.00055701
0.00036599
0.000357899
0.000345122
0.000334858
0.000330107
0.000334054
0.000342763
0.000357968
0.000393653
0.000358147
0.000241158
0.000233648
0.000224422
0.000216986
0.000212096
0.000212877
0.000220965
0.000236072
0.000268486
0.000295266
0.000197444
0.000189584
0.000181742
0.000176242
0.000172632
0.000171791
0.000175534
0.000187126
0.000220475
0.000236823
0.000152254
0.000145504
0.000139277
0.000135468
0.000133681
0.000134461
0.00013892
0.00015041
0.000196856
0.0878813
0.0187056
0.0202626
0.0197933
0.0191354
0.0185887
0.0182351
0.0181055
0.0181985
0.0188201
0.0251677
0.00940671
0.00978311
0.0095851
0.00940337
0.00917316
0.00882838
0.00846579
0.00816433
0.00711975
0.00902429
0.00420998
0.00428758
0.00423998
0.00429256
0.0043445
0.0042651
0.00409735
0.00393063
0.00339755
0.00395465
0.00209333
0.00210958
0.00207652
0.00209007
0.00212315
0.00210582
0.00203424
0.00195813
0.00174023
0.00193197
0.001111
0.00110928
0.00108331
0.00107255
0.00107775
0.00107569
0.00104922
0.00101894
0.000942162
0.00101717
0.000621032
0.000614934
0.00059709
0.000583755
0.000578375
0.000577903
0.000570648
0.000562035
0.000543697
0.000575077
0.000367395
0.000360604
0.000348522
0.000338346
0.000331718
0.000330769
0.000331698
0.000334059
0.000338844
0.000369144
0.000242753
0.000236016
0.000227235
0.000220074
0.000214696
0.000212979
0.000215847
0.000222889
0.000237459
0.000302146
0.000198045
0.000190832
0.000183244
0.000177859
0.00017432
0.000173139
0.000175147
0.000182405
0.000205014
0.000242546
0.00015249
0.000146367
0.000140292
0.000136441
0.000134586
0.000135276
0.000139445
0.000149519
0.00019117
0.0848612
0.016499
0.0180125
0.017661
0.0171052
0.0166279
0.016304
0.016158
0.0161796
0.0165844
0.0242044
0.00854718
0.00893617
0.00876296
0.00858974
0.00837739
0.00806682
0.00772766
0.00742366
0.00641844
0.00881168
0.003928
0.0040195
0.00397362
0.00400792
0.00404378
0.0039687
0.00380572
0.00362467
0.0030785
0.00393463
0.00199939
0.00202436
0.00199274
0.00199744
0.00201808
0.00199712
0.00192188
0.0018264
0.00157248
0.00194757
0.00107914
0.00108237
0.00105805
0.00104486
0.00104359
0.00103649
0.00100466
0.000957188
0.000842118
0.00103325
0.000610165
0.000606717
0.000590089
0.000576588
0.000568473
0.000563736
0.000551273
0.00053042
0.0004811
0.000586553
0.000363849
0.000358535
0.000347238
0.000337416
0.000329888
0.000326048
0.000322487
0.000316186
0.000299054
0.000376362
0.000241316
0.000235484
0.000227172
0.000220334
0.000214885
0.000211831
0.000211435
0.000212386
0.000211867
0.000306406
0.000196429
0.00018995
0.000182642
0.000177357
0.000173892
0.000172578
0.000173641
0.000177813
0.000191223
0.000246618
0.000151038
0.000145567
0.000139683
0.000135831
0.000133913
0.000134397
0.000138039
0.000146616
0.00018405
0.0811725
0.0143783
0.0158128
0.0155615
0.0150959
0.0146798
0.0143845
0.0142317
0.0142065
0.0144361
0.0229641
0.00765559
0.00804615
0.00789974
0.00773988
0.00754888
0.00727576
0.00696646
0.00667033
0.00571625
0.00847647
0.00360587
0.00370757
0.00366554
0.00368598
0.00371122
0.00364602
0.00349674
0.00331738
0.00277902
0.00385604
0.00187852
0.00191098
0.00188156
0.00187949
0.00189135
0.00187133
0.00180116
0.00170268
0.00144161
0.00193503
0.0010317
0.00103948
0.00101706
0.00100233
0.00099669
0.00098757
0.000956275
0.000904561
0.000777807
0.00103527
0.000590505
0.000589599
0.000574249
0.000560942
0.000551288
0.000544273
0.000530397
0.000505237
0.000444124
0.000590695
0.000355323
0.000351465
0.000340957
0.000331595
0.000323752
0.000318321
0.000312633
0.000302324
0.000274908
0.000379346
0.000236868
0.000231962
0.00022412
0.000217605
0.000212263
0.000208547
0.00020638
0.000203975
0.00019517
0.000307632
0.000192616
0.000186914
0.00017992
0.000174758
0.00017134
0.000169862
0.00017034
0.000172801
0.000180952
0.0002486
0.000147902
0.000143135
0.000137505
0.000133705
0.000131709
0.000131864
0.000134823
0.000141915
0.000175586
0.0766321
0.0123415
0.0136757
0.0135147
0.0131357
0.0127807
0.0125196
0.0123726
0.0123242
0.0124325
0.0214726
0.00675268
0.00713431
0.00701444
0.00687102
0.00670447
0.00647167
0.00619725
0.0059151
0.00502133
0.00802055
0.00325361
0.00336192
0.00332477
0.00333468
0.00335282
0.00330027
0.00316872
0.00299641
0.002473
0.00371533
0.00173369
0.0017722
0.00174558
0.00173851
0.00174391
0.00172665
0.00166501
0.00156965
0.00130882
0.00189041
0.000969057
0.000980891
0.000960632
0.000945128
0.000936472
0.000926525
0.000898417
0.000848411
0.000718393
0.00102044
0.000561752
0.000563281
0.000549336
0.000536518
0.000526054
0.000517722
0.000504348
0.000479362
0.000414904
0.000585826
0.000341415
0.000339026
0.00032937
0.000320549
0.000312699
0.000306403
0.000299974
0.000288756
0.000258063
0.00037703
0.000229027
0.000225098
0.000217782
0.000211615
0.000206431
0.000202398
0.000199407
0.000195647
0.000183584
0.000305138
0.000186341
0.00018145
0.000174844
0.000169861
0.000166458
0.000164757
0.000164791
0.000166266
0.000172023
0.000247921
0.000142864
0.000138823
0.000133511
0.000129819
0.000127734
0.000127529
0.000129798
0.000135437
0.000165608
0.0717399
0.0104364
0.011633
0.0115284
0.0112146
0.0109089
0.0106761
0.0105307
0.0104474
0.0104114
0.0197696
0.00586021
0.00622095
0.00612419
0.00599765
0.00585589
0.00566454
0.00542898
0.00516796
0.00434822
0.00745587
0.00288307
0.00299382
0.00296143
0.00296308
0.00297633
0.00293706
0.00282605
0.00266447
0.00216364
0.0035139
0.00156972
0.00161244
0.00158899
0.00157828
0.00157862
0.00156479
0.00151318
0.00142386
0.00116775
0.00181264
0.00089276
0.000907925
0.000890015
0.000874375
0.000863657
0.000853432
0.000829422
0.000782839
0.00065321
0.000987506
0.000524311
0.000528023
0.000515596
0.000503488
0.000492711
0.000483686
0.000471486
0.000448026
0.000383171
0.000570812
0.00032203
0.00032107
0.000312358
0.000304146
0.000296479
0.000289832
0.000283284
0.000272254
0.000240744
0.000368591
0.000217596
0.000214666
0.000207958
0.000202175
0.000197184
0.000193074
0.000189743
0.000185421
0.000172066
0.000298213
0.000177366
0.000173326
0.000167199
0.000162454
0.000159075
0.000157185
0.000156829
0.000157452
0.000161344
0.00024399
0.000135771
0.000132469
0.000127552
0.000124012
0.000121864
0.000121378
0.000123005
0.000127283
0.00015403
0.0668535
0.0090297
0.0101196
0.0100818
0.00984426
0.00960429
0.00942902
0.00934222
0.00933502
0.00937999
0.0178144
0.00498521
0.00532816
0.00526108
0.00515936
0.00504776
0.00490043
0.00470518
0.00446286
0.00370482
0.00679195
0.00250289
0.0026122
0.00258579
0.00258185
0.00259158
0.00256644
0.00247781
0.00233069
0.00186082
0.00325593
0.00139158
0.00143653
0.00141651
0.00140345
0.00139992
0.00138951
0.0013483
0.00126718
0.00102134
0.00170219
0.000805091
0.000822649
0.000807195
0.000791988
0.000780112
0.000769921
0.000749804
0.000707413
0.00058154
0.000936177
0.00047913
0.000484639
0.000473787
0.000462574
0.000451964
0.00044275
0.000431564
0.000409901
0.000346414
0.000545307
0.000297578
0.00029789
0.000290162
0.000282607
0.000275327
0.000268723
0.000262146
0.000251468
0.00022017
0.000353759
0.000202733
0.000200747
0.000194697
0.000189329
0.000184611
0.000180605
0.000177067
0.00017232
0.000158275
0.000286559
0.000165762
0.000162553
0.00015696
0.000152501
0.000149213
0.000147224
0.00014647
0.000146255
0.000148208
0.000236502
0.000126691
0.000124114
0.000119641
0.000116296
0.000114168
0.000113493
0.000114495
0.000117593
0.000140934
0.0514335
0.00524964
0.00609667
0.00607558
0.00586991
0.0056504
0.00546924
0.00534364
0.00525431
0.00512875
0.0161536
0.00419884
0.00446278
0.00437214
0.00425911
0.00415532
0.00404402
0.00390558
0.00372633
0.00310317
0.00607633
0.0021326
0.00223287
0.0022076
0.00219548
0.00219851
0.00218337
0.00211611
0.00198687
0.00155616
0.0029492
0.00120566
0.00125052
0.00123364
0.00121906
0.00121229
0.00120409
0.00117258
0.00110146
0.000872081
0.00156121
0.000708895
0.000727731
0.000714735
0.000700489
0.000688286
0.000678126
0.000661266
0.000623831
0.000504972
0.000867122
0.000427561
0.000434324
0.000425052
0.000414928
0.00040495
0.000395855
0.000385395
0.000365771
0.000305228
0.000509363
0.000268663
0.000270001
0.000263266
0.000256454
0.000249777
0.00024343
0.000236848
0.00022661
0.000196229
0.000332356
0.000184713
0.000183565
0.000178197
0.00017331
0.000168967
0.000165125
0.000161447
0.000156396
0.000142038
0.000269884
0.000151666
0.000149235
0.000144223
0.000140119
0.000137015
0.000134968
0.00013384
0.000132929
0.000133085
0.000225026
0.00011569
0.000113786
0.000109792
0.000106714
0.000104693
0.000103827
0.000104266
0.000106354
0.000126443
0.0994632
0.0139975
0.0155717
0.0155744
0.0152438
0.0147781
0.0141457
0.0133351
0.0123602
0.0111473
0.0121428
0.00316195
0.00362507
0.00368096
0.0036552
0.00360003
0.00350822
0.00335936
0.00314116
0.00254557
0.00522804
0.00174678
0.00184649
0.00183301
0.00182483
0.00183036
0.00182895
0.0017861
0.00167851
0.00129705
0.00260123
0.00101522
0.00105764
0.0010443
0.00103035
0.00102234
0.00101616
0.000993856
0.000934212
0.00072763
0.00139366
0.000607163
0.000625971
0.000615393
0.000602728
0.000591048
0.000581086
0.000567003
0.000534846
0.000426434
0.00078198
0.000371233
0.0003786
0.000370873
0.000362044
0.000353032
0.000344327
0.000334596
0.000317039
0.000261034
0.00046356
0.000236087
0.00023813
0.000232398
0.000226433
0.000220478
0.000214531
0.000208173
0.000198439
0.000169687
0.000304509
0.00016392
0.000163451
0.000158804
0.000154476
0.000150551
0.000146923
0.00014329
0.000138116
0.00012381
0.000248102
0.000135277
0.000133538
0.000129155
0.000125483
0.000122616
0.000120551
0.00011918
0.000117742
0.000116383
0.000209289
0.000102903
0.000101587
9.81138e-05
9.53715e-05
9.34767e-05
9.24522e-05
9.25045e-05
9.37663e-05
0.00011075
0.166257
0.0306241
0.0309864
0.0293329
0.0269858
0.023346
0.0187423
0.0137363
0.00867795
0.00359147
0.0173295
0.00338073
0.00339703
0.00311715
0.00290777
0.0028182
0.00277773
0.00268595
0.00243718
0.00167587
0.00450756
0.00144904
0.00152793
0.00148914
0.00145375
0.00144017
0.00143607
0.00140891
0.00132628
0.000996572
0.00221904
0.000831235
0.000868948
0.000855976
0.000840628
0.000830365
0.000824403
0.000809472
0.000762773
0.000583241
0.00120428
0.000503493
0.000521067
0.000512537
0.000501576
0.00049093
0.000481551
0.000469756
0.000443071
0.000347895
0.000683206
0.000312045
0.00031936
0.000313103
0.000305655
0.000297828
0.000289929
0.000281027
0.000265525
0.000215554
0.00040892
0.000200877
0.000203286
0.000198551
0.000193481
0.000188317
0.000183019
0.000177117
0.000168038
0.000141711
0.000270635
0.000140932
0.000140967
0.000137061
0.000133334
0.000129874
0.000126612
0.000123188
0.000118109
0.000104349
0.000221354
0.000116982
0.000115827
0.000112102
0.000108913
0.000106341
0.000104377
0.000102892
0.00010113
9.86542e-05
0.000189235
8.86587e-05
8.78295e-05
8.49079e-05
8.25441e-05
8.08178e-05
7.97898e-05
7.95732e-05
8.02366e-05
9.41768e-05
0.93878
0.10412
0.116049
0.105732
0.0857276
0.0643171
0.0453406
0.0296092
0.0164247
0.00433023
0.00673801
0.00243215
0.000375825
0.000278013
0.000430454
0.000650229
0.00110019
0.00181345
0.00280915
0.00385977
0.00345572
0.00101466
0.00116863
0.00117831
0.0011525
0.00113027
0.0011145
0.00107725
0.000976197
0.000690822
0.00183169
0.000654006
0.000688926
0.000678652
0.000662862
0.000649335
0.000639554
0.000625366
0.000586957
0.00044431
0.0010011
0.000401463
0.00041683
0.000410122
0.000400931
0.000391617
0.000382935
0.00037267
0.000351016
0.00027169
0.000574202
0.00025214
0.00025883
0.000253953
0.000247931
0.000241495
0.000234717
0.000226779
0.000213379
0.000170496
0.000347119
0.000164296
0.000166743
0.000162973
0.000158824
0.000154554
0.000150068
0.00014482
0.000136668
0.000113438
0.000231612
0.000116533
0.000116883
0.000113723
0.000110631
0.000107723
0.000104921
0.000101827
9.71128e-05
8.4454e-05
0.000190239
9.73636e-05
9.66585e-05
9.36164e-05
9.0953e-05
8.87536e-05
8.69887e-05
8.55227e-05
8.36802e-05
8.04873e-05
0.000165129
7.3426e-05
7.29593e-05
7.06084e-05
6.86517e-05
6.71641e-05
6.62152e-05
6.57995e-05
6.60533e-05
7.71159e-05
2.74102
0.329093
0.262536
0.161116
0.0897432
0.0451177
0.0175677
0.000481258
0.0142224
0.0271504
0.0503289
0.0085277
0.0103907
0.0100852
0.00802925
0.00540925
0.0026916
0.000144721
0.0033063
0.00672284
0.00288745
0.000601696
0.000855671
0.000949481
0.000984133
0.00102515
0.00110525
0.00122837
0.00134999
0.00115772
0.00140742
0.000478393
0.000516886
0.00051541
0.000506005
0.000496218
0.000487898
0.000476615
0.000444723
0.000309352
0.000789767
0.000303146
0.000315672
0.000310569
0.000303157
0.000295361
0.000287558
0.000278762
0.000262288
0.000200371
0.000459038
0.000193579
0.000199171
0.000195561
0.000190975
0.000186013
0.000180531
0.000173891
0.000162765
0.000127856
0.000280445
0.000127734
0.000129921
0.000127064
0.000123849
0.000120516
0.000116895
0.000112528
0.000105547
8.609e-05
0.000188814
9.16515e-05
9.21306e-05
8.96881e-05
8.7254e-05
8.49466e-05
8.26398e-05
8.0036e-05
7.59289e-05
6.49597e-05
0.000155761
7.713e-05
7.67396e-05
7.43638e-05
7.22551e-05
7.0479e-05
6.89782e-05
6.76527e-05
6.5896e-05
6.24744e-05
0.000137556
5.77545e-05
5.7528e-05
5.57229e-05
5.41715e-05
5.29787e-05
5.2134e-05
5.16842e-05
5.16262e-05
6.00919e-05
8.97004
0.234464
0.208487
0.143586
0.0951933
0.0642127
0.0454888
0.0348375
0.0296652
0.028072
0.00797295
0.0473956
0.0279107
0.0136062
0.00481927
0.000536467
0.00416222
0.00718121
0.010188
0.0123993
0.00219658
0.000589308
9.03266e-05
0.000116076
0.000133082
3.60904e-05
0.000142937
0.000389677
0.000656479
0.000684638
0.00103683
0.000292737
0.000342637
0.00036102
0.000371236
0.000380221
0.000390315
0.000398808
0.000391174
0.00031241
0.000583171
0.000211735
0.000221325
0.000218235
0.000213189
0.000207399
0.000201015
0.000193189
0.000178634
0.000130783
0.000342832
0.00013843
0.000142618
0.000140188
0.000137021
0.000133471
0.00012942
0.000124347
0.000115698
8.93249e-05
0.000211781
9.25984e-05
9.43177e-05
9.23195e-05
9.00338e-05
8.75914e-05
8.48725e-05
8.14987e-05
7.59536e-05
6.08143e-05
0.000143921
6.72549e-05
6.77048e-05
6.59486e-05
6.4185e-05
6.24619e-05
6.06997e-05
5.86563e-05
5.53682e-05
4.66263e-05
0.000119129
5.70279e-05
5.68192e-05
5.50949e-05
5.35464e-05
5.21924e-05
5.10213e-05
4.99189e-05
4.8412e-05
4.52813e-05
0.000107391
4.22821e-05
4.21678e-05
4.08775e-05
3.97587e-05
3.88705e-05
3.81881e-05
3.77744e-05
3.75679e-05
4.37171e-05
9.50701
0.0710395
0.0392754
0.0695557
0.100503
0.12002
0.178549
0.197119
0.169468
0.369935
0.0617751
0.0573869
0.0399904
0.0263995
0.0173962
0.0116044
0.00778145
0.00497137
0.321157
0.873265
0.909246
0.848925
0.757885
0.69718
0.68581
0.707959
0.756501
0.937889
1.38283
1.39864
0.0127453
0.00015169
0.000185408
0.000199207
0.000206246
0.000211579
0.000217909
0.00022448
0.416092
0.587072
0.13554
0.0293699
0.000140167
0.000138863
0.000136059
0.000132506
0.000128363
0.170523
0.574019
0.625805
0.000230098
8.89855e-05
9.17497e-05
9.0356e-05
8.83892e-05
8.60702e-05
8.33103e-05
0.0511663
0.411453
0.465516
0.00014382
6.03528e-05
6.15198e-05
6.02974e-05
5.88308e-05
5.7205e-05
5.53397e-05
5.29252e-05
4.90158e-05
3.83995e-05
0.485566
0.428246
0.370649
0.338349
0.341576
0.377237
0.440431
0.586498
0.84291
0.818966
8.206e-05
3.79538e-05
3.78426e-05
3.67275e-05
3.57007e-05
3.47877e-05
3.39582e-05
3.31279e-05
3.20014e-05
2.94694e-05
7.60711e-05
2.77282e-05
2.76361e-05
2.6824e-05
2.61058e-05
2.55069e-05
2.50443e-05
2.46901e-05
2.44944e-05
2.86223e-05
3.11896
0.61718
0.666349
0.729328
0.774089
0.808058
0.851781
0.824233
0.836533
1.10841
0.352565
0.151719
0.127397
0.105289
0.0981456
0.100256
0.111229
0.165544
0.261175
0.602156
0.971193
0.953369
0.937783
0.924493
0.920489
0.919183
0.920968
0.957448
1.04183
1.09274
0.566062
0.509615
0.487981
0.474308
0.469336
0.46878
0.471593
0.507317
0.584008
0.709435
0.665362
0.622586
0.60365
0.592713
0.588798
0.588807
0.590844
0.621328
0.683191
0.78644
0.641809
0.596883
0.580626
0.571641
0.569214
0.570731
0.573915
0.6037
0.651789
0.770409
0.399247
0.348138
0.335704
0.328307
0.327109
0.329779
0.33345
0.363831
0.386894
0.550178
1.05984
1.03321
1.02454
1.02075
1.02166
1.02478
1.02802
1.04938
1.07262
1.17148
4.70564e-05
2.08417e-05
2.0711e-05
2.01137e-05
1.95509e-05
1.90423e-05
1.85466e-05
1.80517e-05
1.73642e-05
1.56938e-05
0.886993
0.878915
0.868073
0.86943
0.87249
0.877945
0.887471
0.894652
0.937084
0.933581
6.43857
0.297532
0.276155
0.265235
0.259236
0.257685
0.260479
0.260842
0.320643
0.342801
0.0260713
0.0353639
0.0247455
0.0162036
0.0100618
0.00565347
0.00231938
0.000486742
0.00325659
0.00610346
0.28729
0.279631
0.261591
0.251497
0.244121
0.23516
0.224209
0.220097
0.221497
0.160467
0.146566
0.144865
0.137055
0.133925
0.130635
0.125168
0.116733
0.110195
0.101764
0.0584952
0.165345
0.15421
0.145643
0.141666
0.138571
0.134872
0.129747
0.12633
0.120527
0.093839
0.1468
0.132363
0.125108
0.12189
0.119828
0.117862
0.115326
0.114434
0.110961
0.0980821
0.102765
0.0902108
0.0858767
0.0841482
0.0832207
0.0823944
0.0811261
0.0809448
0.0763071
0.0723785
0.142354
0.123617
0.116493
0.11386
0.113182
0.113549
0.114816
0.119052
0.126856
0.147799
1.63189e-05
7.80996e-06
7.65995e-06
7.43224e-06
7.22868e-06
7.03465e-06
6.85182e-06
6.65794e-06
6.39861e-06
5.70406e-06
0.0542535
0.0443997
0.0399673
0.039023
0.0402027
0.0427313
0.0464505
0.0523916
0.0631965
0.0808542
449.217
253.057
300.361
492.911
331.061
193.457
241.601
361.778
339.262
197.661
260.462
382.313
380.374
220.622
313.105
471.295
432.371
249.728
382.76
602.815
474.795
269.964
448.784
740.082
503.975
280.296
504.571
867.998
512.289
278.651
545.409
971.987
480.747
260.395
557.064
1030.25
416.348
243.385
585.84
1144.21
52.8308
0.0388383
0.0415856
0.0445058
53.371
0.613865
0.0240167
0.025033
70.1661
1.40107
0.0165459
0.0168468
93.5449
2.75809
0.010685
4.61405
121.263
4.85383
0.00668174
13.3481
148.893
7.71054
0.00418335
23.6736
174.028
10.1177
0.00274908
34.349
196.55
13.9172
0.00201175
46.575
213.05
22.4395
0.0018055
63.5911
216.253
46.3946
22.782
42.214
45.3066
26.3197
21.2935
25.8611
36.2386
20.0793
14.1286
18.5875
48.293
25.4459
18.0073
24.6678
63.5163
30.7635
22.5526
33.2235
80.427
35.8991
27.6584
44.2001
97.1325
40.6489
32.8253
56.3927
112.144
43.6546
37.4048
69.18
126.482
46.0591
42.2891
83.0374
138.816
45.8134
46.6271
95.3757
148.876
49.9922
60.5778
109.661
5.28519
0.0303308
0.0293553
0.0308333
7.09876
1.55847
0.00866539
0.00976078
12.9802
5.05265
1.69965
2.11199
20.6572
8.40213
3.85993
5.21698
30.1239
11.8621
6.62759
9.35128
41.0781
15.6606
10.2754
14.8813
51.9769
18.9497
14.0264
21.096
63.2848
22.1794
18.2765
28.3085
71.5083
21.1714
19.7448
32.6616
73.4065
18.9542
23.9148
36.3761
0.0712526
0.0257295
0.0246694
0.025879
0.0179777
0.00697522
0.00675888
0.00767357
1.06804
0.00414584
0.00395819
0.00442734
3.62106
0.00268354
0.00253411
0.00274338
7.53113
1.1909
0.00169682
0.00176982
13.4228
3.92522
0.552141
1.14058
19.9238
6.36128
2.77273
4.13783
27.5594
8.93477
5.70434
8.09755
34.2644
8.97138
7.4581
11.0905
39.7309
10.6736
15.5517
18.8635
0.0623217
0.0215144
0.0205436
0.0215928
0.015869
0.0057956
0.00562622
0.00641077
0.0077432
0.0032956
0.00314377
0.00355524
0.00403507
0.00200962
0.0018892
0.00209108
0.00227092
0.00128648
0.00119666
0.0012906
0.00139021
0.000875139
0.000808611
0.000847621
2.40819
0.000643644
0.000592987
0.000604102
7.75449
0.000537622
0.000495821
0.000491054
13.2918
0.973907
0.000562235
0.848764
16.8853
2.36516
5.88743
6.39735
0.0538033
0.0177698
0.0169228
0.0178465
0.0139008
0.00482167
0.00469653
0.00536882
0.00684112
0.00272721
0.00260813
0.00296774
0.00353963
0.00164303
0.00154467
0.00172907
0.0019362
0.00102459
0.000950471
0.00104451
0.00114384
0.000676744
0.00062249
0.000670768
0.000749734
0.000488645
0.000447711
0.00047172
0.000576033
0.000411168
0.000376543
0.000386433
2.40095
0.000498677
0.00046485
0.000457571
4.09915
0.00077447
0.000760231
0.000673203
0.0458607
0.0144835
0.0137636
0.0145708
0.0119969
0.00396716
0.00387811
0.00444604
0.00598449
0.00224713
0.00215622
0.00246213
0.00314248
0.0013668
0.00128845
0.00145036
0.00172967
0.000855321
0.000794539
0.000881928
0.00101465
0.000561974
0.000516903
0.000565998
0.000654924
0.000401793
0.000367506
0.00039591
0.000499757
0.000338307
0.000308989
0.000325573
0.000570238
0.000435066
0.000405478
0.000405544
0.000794369
0.000684401
0.000668437
0.000593063
0.0388432
0.0118003
0.0111884
0.0118847
0.0102007
0.00322399
0.00316178
0.00363299
0.00515088
0.00182599
0.00175658
0.00200793
0.00275334
0.00112682
0.00106461
0.00119799
0.00154308
0.000716584
0.000667459
0.000740994
0.000916891
0.000477012
0.000440254
0.00048296
0.000594317
0.000343127
0.000314976
0.00034141
0.000453454
0.000290401
0.000266167
0.000283473
0.000527465
0.000384182
0.000358609
0.000360367
0.000724527
0.000599667
0.000584588
0.000519533
0.0312714
0.00900019
0.00855136
0.0091574
0.00853448
0.00258719
0.00254686
0.00293448
0.00435452
0.00145738
0.00140529
0.0016109
0.00236828
0.000912484
0.000863087
0.000973007
0.00135319
0.000591485
0.000551266
0.000612737
0.000818931
0.000401699
0.000371008
0.000407363
0.000537821
0.000293565
0.000269954
0.000292933
0.000412238
0.000250901
0.000230535
0.000245809
0.000479976
0.000334714
0.000312624
0.000314793
0.00065154
0.000519637
0.000506474
0.00045124
0.02956
0.00825433
0.00766606
0.00806175
0.00704328
0.00205067
0.00202386
0.00233924
0.00361737
0.00114685
0.00110893
0.00127605
0.00199606
0.000724975
0.000687151
0.00077919
0.00116142
0.000478417
0.000446591
0.000500252
0.000715783
0.000331435
0.00030649
0.000339728
0.000476828
0.000246436
0.000226765
0.000248256
0.000367641
0.000212861
0.000195518
0.000210195
0.000427072
0.000285517
0.000266541
0.000270324
0.000576344
0.000444014
0.000432953
0.000387015
0.0121041
0.00386322
0.004058
0.00480761
0.00554168
0.00154447
0.00151978
0.00174285
0.00291493
0.000871834
0.000845822
0.000977086
0.00164225
0.000563391
0.000535217
0.000608673
0.000973073
0.00037899
0.000354797
0.00039896
0.000609551
0.000267322
0.000248154
0.000276464
0.000411377
0.000201781
0.000186459
0.000205397
0.000319105
0.000175909
0.000162154
0.000175782
0.00037089
0.000237859
0.000222552
0.000227254
0.000499627
0.000372465
0.000364006
0.000326446
0.0331649
0.00591295
0.00461415
0.00392396
0.00496708
0.00149715
0.00154777
0.00187513
0.00235538
0.00066666
0.000639372
0.00072987
0.00132208
0.000428445
0.000406695
0.000462111
0.000793752
0.000292686
0.000274401
0.000308698
0.000504358
0.000209982
0.000195459
0.000217737
0.000344345
0.000160715
0.000149118
0.000164321
0.000268773
0.000141418
0.000130945
0.000142033
0.000313282
0.000193079
0.000181308
0.000185715
0.000422232
0.000305768
0.000299648
0.00026944
0.00419589
0.00735022
0.00856592
0.0112057
0.00113024
0.000302008
0.00052934
0.000892088
0.00173963
0.000522516
0.000533174
0.000644741
0.00102479
0.000315557
0.00029923
0.000341037
0.000625861
0.000218544
0.000205291
0.00023224
0.000402923
0.000159387
0.000148828
0.000167002
0.000278268
0.000123621
0.000115095
0.000127786
0.000218825
0.000109874
0.000102034
0.000111391
0.000256046
0.000151861
0.000142918
0.000147476
0.000345871
0.000244302
0.000239841
0.000216402
0.0414067
0.0186791
0.0197544
0.0243605
0.00982414
0.00414754
0.00474315
0.0062754
0.00105783
9.00797e-05
1.88926e-05
5.93089e-05
0.000758657
0.000234521
0.000227747
0.000265332
0.00047313
0.000157112
0.00014819
0.000169122
0.000307929
0.000116285
0.000109127
0.000123507
0.000215246
9.13538e-05
8.55341e-05
9.58235e-05
0.000170885
8.2052e-05
7.65213e-05
8.43586e-05
0.000200714
0.000114863
0.000108385
0.000112822
0.000272069
0.000188341
0.000185416
0.000167782
0.158131
0.0422441
0.0429061
0.0514823
0.0128831
0.00593302
0.00730544
0.0102545
0.0019159
0.000737679
0.000883262
0.00124277
0.000464086
0.000106795
8.72737e-05
8.32519e-05
0.000341126
0.000109908
0.000104661
0.000120239
0.000222531
8.05559e-05
7.6025e-05
8.63636e-05
0.00015761
6.40916e-05
6.03612e-05
6.77302e-05
0.000126687
5.82481e-05
5.45789e-05
6.02821e-05
0.000149029
8.24858e-05
7.81294e-05
8.17154e-05
0.000202685
0.000138561
0.000136888
0.000123939
0.0368376
0.00420415
0.00270113
0.00172242
0.0037208
0.00424843
0.0045677
0.0057439
0.000499963
8.1403e-05
0.000155527
0.000298865
0.000366791
0.000120909
0.000128205
0.00016667
0.000218776
6.48173e-05
6.03654e-05
6.78839e-05
0.000148628
5.18819e-05
4.93271e-05
5.62639e-05
0.000106707