/*--------------------------------*- C++ -*----------------------------------*\
| =========                 |                                                 |
| \\      /  F ield         | foam-extend: Open Source CFD                    |
|  \\    /   O peration     | Version:     4.0                                |
|   \\  /    A nd           | Web:         http://www.foam-extend.org         |
|    \\/     M anipulation  |                                                 |
\*---------------------------------------------------------------------------*/
FoamFile
{
    version     2.0;
    format      ascii;
    class       volScalarField;
    location    "150";
    object      epsilon;
}
// * * * * * * * * * * * * * * * * * * * * * * * * * * * * * * * * * * * * * //

dimensions      [0 2 -3 0 0 0 0];

internalField   nonuniform List<scalar> 
34480
(
5273.99
5069.39
4888.11
4827.92
4987.85
5638.89
7381.55
10771
15279.2
19504.8
2066.62
1541.67
1352.27
1663.98
3687.62
12263
45779.5
177345
678678
2.20263e+06
1393.98
1108.11
1029.84
1290.47
2777.7
9692.67
40733.6
177355
745795
2.67041e+06
1002.56
846.393
818.291
1042.06
2215.28
7968.98
36543.1
174251
787417
3.02859e+06
749.484
666.184
670.806
874.767
1847.37
6761.83
32982
168720
809458
3.29629e+06
594.435
543.266
558.525
740.39
1575.91
5936.04
30466.5
164852
833267
3.56452e+06
503.813
466.631
483.87
642.845
1371.73
5279.17
28106.4
158753
839927
3.75461e+06
473.349
438.984
447.377
571.396
1169.36
4484.95
24420.3
142408
783898
3.65091e+06
633.563
602.673
596.384
655.235
990.241
2927.98
14889.2
88131.7
505269
2.46194e+06
5349.33
5337.52
5334.94
5341.47
5356.41
5386.54
5469.05
5737.97
6538.69
7735.74
5192.27
5001.97
4816.77
4728.83
4805.13
5241.67
6584.32
9468.13
13545.3
17239
1820.64
1337.34
1103.17
1095.06
1705.59
4333.55
12608.5
36117.7
131144
656257
1204.5
936.308
815.278
841.082
1238.34
2937.64
9256.62
30982.8
136660
813404
861.098
715.028
651.423
690.816
977.766
2109.99
6811.52
26428.2
140413
942344
641.503
565.266
539.501
591.891
819.443
1615.71
5091.09
22403.3
142845
1.04888e+06
511.131
465.138
453.977
507.197
691.304
1283.13
3893.2
19068.1
146299
1.15723e+06
438.807
405.402
399.373
446.785
598.281
1059.09
3046.93
15908.1
145946
1.23718e+06
422.228
391.601
381.58
413.776
521.976
849.632
2250.11
11979.9
131770
1.2146e+06
598.762
571.421
556.328
563.439
606.494
736.793
1315.7
5854.33
78855.7
844737
5246.68
5234.94
5230.53
5234.01
5243.34
5259.51
5298.55
5432.72
5994.14
7341.71
5066.29
4889.87
4721.23
4643.05
4713.73
5103.75
6292.75
8865.13
12483.9
15193.9
1495.29
1118.14
928.759
909.885
1355.07
3195.02
8186.77
18198.4
40760
116546
975.891
764.885
661.002
661.589
928.067
2050.61
5599.63
14158.3
38113.5
143374
702.127
588.69
531.579
542.983
717.345
1404.05
3855.16
11178.8
36899.3
174449
528.207
472.416
447.868
472.431
600.712
1037.92
2719.87
8934.03
36746.2
209869
427.009
395.52
383.897
412.244
511.366
806.621
1982.13
7262.37
37872.8
254683
373.305
351.498
344.599
370.686
450.139
662.178
1497.1
5854.52
38565.3
298962
367.915
348.121
338.931
356.113
410.908
550.828
1096.27
4295.98
35299.1
315485
554.512
536.261
524.395
527.774
551.718
612.683
833.51
2253.44
20474.7
218942
5159.65
5148.83
5143.91
5145.64
5152.3
5164.53
5195.57
5302.97
5726.68
6743.91
4932.38
4770.53
4619.34
4550.94
4615.42
4960.17
6003.34
8282.92
11538.9
13907.6
1224.45
935.639
788.942
775.488
1128.9
2550.43
6210.02
12551.3
22431.1
43355.4
778.908
619.699
538.367
536.316
742.247
1588.74
4062.81
8968
17637
41491.4
563.645
480.778
435.774
439.588
564.979
1059.46
2680.19
6571.98
14842.6
43535.6
430.506
393.531
374.663
388.379
474.123
771.716
1827.56
4934.16
13237.1
48333.5
355.358
337.04
328.501
345.89
409.528
601.028
1307.38
3814.3
12528.3
56844.7
317.522
306.263
301.418
317.878
368.217
501.112
984.957
2956.47
11937.1
66531.8
321.058
310.9
304.387
315.208
349.767
435.923
742.902
2123.39
10286.6
70176.9
513.828
503.264
494.461
496.275
512.105
552.21
676.755
1245.77
5559.21
45819.2
5061.63
5053.15
5049.07
5050.45
5056.07
5066.44
5091.64
5177.34
5496.17
6251.56
4792.11
4644.99
4511.36
4452.29
4509.97
4811.07
5717.98
7721.59
10636.6
12766.5
1016.51
793.422
679.829
671.539
955.93
2079.75
4929.33
9663.96
16117.5
26971
624.444
504.987
442.814
441.349
603.825
1257.68
3100.09
6470.66
11195.9
20151.4
452.162
393.405
359.668
360.401
451.823
814.971
1955.01
4421.63
8302.56
16998.2
350.95
328.577
315.375
322.876
379.737
584.518
1282.34
3106.11
6566.28
15957
296.666
288.428
283.124
293.568
333.4
457.737
898.885
2273.65
5573.42
16651
271.28
268.066
265.414
275.54
306.49
389.449
677.246
1693.96
4815.48
17930.5
281.573
278.728
274.673
281.251
302.364
355.246
531.1
1206.76
3821.77
17775.1
477.388
472.731
466.452
467.036
476.711
501.906
571.646
834.588
2059.98
10753.5
4957.2
4950.77
4947.42
4948.49
4953.13
4961.72
4981.33
5045.08
5280.22
5850.87
4645.9
4513.62
4397.46
4347.37
4398.11
4657.33
5436.29
7179.71
9774.6
11734.5
860.351
685.023
596.131
591.672
821.934
1720.66
4003.7
7800.15
12833
20929.1
508.334
417.69
370.356
370.248
499.878
1011.16
2431.83
4981.61
8293.8
13633
366.511
325.366
300.791
300.586
367.925
637.024
1466.53
3200.77
5617.89
9707.08
288.723
276.616
268.113
272.187
309.562
450.331
923.784
2104.51
4014.26
7657.34
249.896
248.544
245.968
252.124
276.236
355.465
634.541
1455.5
3075.3
6811.5
233.416
235.664
234.889
240.922
259.076
308.998
479.469
1043.52
2411
6395.75
248.227
250.392
248.374
252.18
264.371
295.34
394.142
747.675
1781.78
5693.03
444.316
443.867
439.65
439.409
444.779
459.685
497.361
627.41
1056.92
3255
4845.57
4840.85
4838.12
4838.94
4842.75
4849.82
4864.92
4910.25
5077.01
5508.94
4493.99
4376.71
4277.72
4236.2
4279.95
4498.82
5155.87
6649.41
8934.98
10754.6
740.623
601.176
530.818
528.831
714.964
1434.86
3282.84
6412.25
10574.4
17270.4
421.448
351.661
315.435
316.484
420.222
821.76
1935.87
3957.72
6560.11
10545.3
302.462
273.611
255.855
255.569
305.613
506.215
1122.06
2416.12
4186.99
6834
241.853
236.209
231.028
233.235
257.796
354.903
682.5
1496.73
2771.88
4778.03
214.041
216.649
215.924
219.451
233.635
283.635
462.413
981.879
1950.69
3700.66
203.48
208.752
209.239
212.648
222.736
251.862
352.583
680.57
1406.37
3015.12
220.878
225.873
225.282
227.283
233.777
250.998
305.36
497.005
990.236
2391.47
415.047
417.162
414.457
413.662
416.139
424.228
443.557
509.087
693.102
1404.19
4726.34
4722.93
4720.71
4721.31
4724.41
4730.18
4741.73
4773.25
4888.51
5217.33
4336.88
4234.7
4152.25
4118.76
4155.56
4335.74
4876.52
6128.71
8110.96
9801.99
645.605
534.346
478.097
477.407
626.239
1198.04
2689.29
5287.01
8796.03
14474.1
355.185
300.964
272.979
274.674
357.138
670.85
1546.22
3179.19
5321.82
8555.6
255.051
234.535
221.508
221.332
258.588
407.997
868.241
1861.35
3262.21
5284.31
207.507
205.318
202.109
203.26
219.449
286.634
515.898
1098
2043.39
3447.3
187.406
191.589
191.806
193.717
201.854
233.315
349.217
691.223
1347.83
2433.57
180.501
186.763
187.851
189.605
194.854
211.435
271.121
468.844
911.082
1777.66
198.96
204.953
205.175
206.03
209.086
218.117
247.56
354.195
627.387
1294.98
389.489
392.749
391.033
389.893
390.576
394.442
403.717
436.683
530.049
852.649
4598.99
4596.5
4594.67
4595.1
4597.58
4602.24
4611
4632.66
4711.41
4962.8
4175.4
4088.16
4021.2
3995.01
4025.04
4168.85
4600.37
5621.67
7306.41
8869.79
567.805
479.433
433.921
433.551
550.168
996.125
2182.35
4325.55
7290.92
12100.7
303.396
261.186
239.232
241.005
305.467
546.885
1226.99
2545.23
4338.3
7033.6
220.127
205.004
194.981
194.803
222.291
332.473
674.158
1440.48
2582.84
4241.1
182.932
181.924
179.563
180.041
190.708
237.076
397.621
819.478
1554.42
2664.16
168.16
172.124
172.525
173.422
177.972
197.758
273.427
503.869
979.566
1781.05
163.305
169.025
170.159
170.886
173.378
182.648
218.229
340.82
635.014
1215.53
181.706
187.318
187.836
187.993
189.117
193.535
209.341
270.219
439.253
850.426
367.313
370.609
369.431
368.105
367.794
369.262
373.348
389.872
444.175
647.891
4463.02
4461.1
4459.56
4459.82
4461.77
4465.46
4472.05
4486.78
4540.14
4734.06
4010.62
3937.7
3884.75
3864.93
3888.56
3999.24
4331.01
5136.25
6532.23
7961.92
503.106
433.313
395.727
394.901
483.632
822.058
1742.88
3483.1
5974.41
10015.7
262.346
229.472
211.729
213.062
262.121
443.411
959.863
2008.71
3509.76
5773.16
194.639
182.598
174.211
173.832
193.692
273.369
522.323
1106.77
2044.26
3443.92
165.756
164.255
161.921
161.903
168.867
200.523
311.731
616.137
1195.68
2120.7
154.556
157.072
157.136
157.38
159.85
172.268
221.607
378.07
733.146
1377.07
150.668
154.839
155.635
155.739
156.758
161.889
183.217
260.671
466.831
907.625
168.244
172.577
173.026
172.781
172.928
174.921
183.414
219.112
332.488
633.987
347.976
350.549
349.563
348.166
347.403
347.686
349.344
357.786
393.388
555.231
4317.95
4316.31
4314.96
4315.07
4316.56
4319.44
4324.33
4334.22
4370.08
4521.11
3843.58
3783.84
3742.99
3728.47
3746.3
3828.02
4072.29
4681.72
5802.57
7087.55
449.514
394.155
361.983
360.128
425.106
672.877
1363.74
2741.98
4811.26
8174.62
230.051
204.077
188.962
189.453
225.443
357.146
736.574
1549.39
2793.22
4694.69
176.411
165.525
157.746
157.001
170.878
226.855
403.015
837.668
1600.27
2793.11
154.014
150.854
148.046
147.631
152.08
173.257
248.648
464.384
919.335
1705.11
145.043
145.4
144.853
144.672
145.962
153.717
185.549
291.226
558.763
1094.36
141.438
143.539
143.802
143.542
143.84
146.698
159.53
208.948
358.068
714.594
157.693
160.302
160.474
160.022
159.759
160.596
165.255
186.811
267.806
512.896
330.811
332.235
331.207
329.816
328.939
328.781
329.509
334.215
360.411
507.092
4163.39
4161.79
4160.57
4160.54
4161.65
4163.84
4167.42
4174.03
4198.06
4317.44
3675.01
3626.81
3595.91
3585.55
3598.37
3655.98
3827.16
4266.4
5131.88
6258.26
406.036
360.727
331.766
328.548
373.892
547.492
1043.78
2098.46
3788.88
6564.75
205.505
183.902
170.042
169.452
194.63
286.458
553.659
1160.69
2172.41
3766.12
163.791
152.448
144.597
143.414
152.669
190.545
310.557
622.472
1230.5
2247.62
146.077
140.576
137.095
136.369
139.108
152.863
202.432
351.197
703.066
1371.81
138.303
136.262
135.048
134.598
135.236
140.043
160.206
230.6
432.232
883.665
134.611
134.544
134.241
133.786
133.778
135.424
143.185
174.86
285.348
584.373
149.246
150.072
149.896
149.361
148.995
149.361
152.069
165.574
226.739
439.696
315.09
315.228
314.026
312.686
311.88
311.689
312.243
315.427
336.84
479.427
3999.06
3997.36
3996.22
3996.07
3996.86
3998.49
4001.09
4005.54
4021.86
4118.58
3505.16
3466.49
3443.37
3436.08
3444.77
3483.36
3596.94
3895.74
4532.4
5486.25
371.778
331.941
304.449
299.808
329.576
445.04
783.242
1554.92
2904.38
5179.87
187.924
168.074
154.424
152.715
169.307
230.294
409.192
841.823
1642.79
2973.33
155.325
142.322
134.1
132.519
138.324
162.803
240.977
455.324
926.771
1788.49
140.569
132.554
128.467
127.522
129.113
137.723
169.115
268.435
535.484
1101.86
133.263
129.011
127.243
126.636
126.922
129.883
142.376
188.478
340.377
724.074
129.376
127.391
126.604
126.06
125.953
126.971
131.729
152.168
236.125
494.918
142.227
141.505
141.012
140.466
140.138
140.366
142.114
151.007
199.597
394.385
300.083
299.019
297.59
296.325
295.668
295.629
296.338
299.074
318.006
460.861
3824.88
3823
3821.91
3821.67
3822.2
3823.4
3825.3
3828.4
3839.88
3920.76
3333.57
3302.38
3285.07
3279.93
3285.41
3309.84
3380.86
3570.99
4011.9
4782.99
345.168
306.536
279.537
273.716
291.746
363.987
580.609
1114.48
2158.01
4010.49
176.183
155.695
141.709
139.059
149.193
187.487
300.617
592.133
1204.18
2306.87
149.542
134.308
125.814
123.97
127.326
142.315
190.746
331.218
684.96
1406.87
136.327
126.166
121.744
120.682
121.52
126.686
145.759
209.946
409.117
886.648
129.105
123.191
121.083
120.4
120.496
122.323
129.918
159.697
274.617
605.147
125.132
121.729
120.607
120.038
119.917
120.61
123.62
137.03
202.669
434.73
136.109
134.272
133.549
133.031
132.785
133.006
134.29
140.517
180.65
365.963
285.085
283.047
281.396
280.213
279.717
279.881
280.845
283.609
301.057
444.061
3641
3638.95
3637.9
3637.59
3637.92
3638.79
3640.22
3642.53
3651.07
3720.58
3159.29
3133.82
3120.71
3116.99
3120.14
3134.68
3176.38
3288.65
3572.1
4158.05
323.431
283.031
256.608
250.142
259.854
301.84
431.029
776.267
1549
3040.74
168.457
145.742
131.543
128.326
133.927
156.454
223.686
408.186
855.768
1757.47
144.913
127.761
119.442
117.529
119.252
127.875
156.299
244.093
500.572
1097.27
132.421
121.01
116.634
115.549
115.91
118.879
130.004
170.334
317.068
720.351
125.269
118.502
116.298
115.596
115.587
116.729
121.322
140.456
228.115
519.05
121.484
117.303
116.009
115.448
115.338
115.85
117.859
126.924
179.472
394.971
130.515
128.081
127.235
126.764
126.595
126.835
127.884
132.512
166.134
345.65
269.406
266.688
264.854
263.752
263.4
263.749
264.958
267.921
284.131
423.249
3447.92
3445.75
3444.74
3444.39
3444.58
3445.22
3446.34
3448.19
3454.95
3515.25
2980.95
2960.16
2950.13
2947.31
2948.89
2956.97
2979.87
3041.17
3207.85
3617.92
302.566
259.933
235.315
228.867
233.15
255.314
326.221
532.642
1072.9
2249.41
162.154
137.172
123.595
120.308
122.982
135.238
172.598
281.999
592.64
1314.71
140.034
122.267
114.769
112.976
113.687
118.308
134.073
186.59
366.541
853.524
128.246
116.859
112.91
111.874
111.945
113.587
119.875
144.688
251.806
595.491
121.462
114.749
112.661
111.975
111.903
112.639
115.475
127.828
194.803
456.322
118.201
113.897
112.571
112.036
111.933
112.33
113.768
120.124
162.283
365.685
125.178
122.646
121.777
121.358
121.245
121.494
122.4
125.978
153.515
324.367
252.334
249.229
247.263
246.239
246.004
246.501
247.908
251.104
265.95
393.917
3246.49
3244.32
3243.38
3243.02
3243.11
3243.6
3244.5
3246.08
3251.66
3303.07
2797.29
2781.04
2773.51
2771.38
2771.94
2775.97
2787.68
2818.7
2907.5
3164.78
278.094
235.435
213.949
208.045
209.222
219.859
255.721
368.684
719.144
1612.91
154.419
129.216
117.564
114.684
115.657
121.698
140.949
201.718
404.853
965.665
134.01
117.66
111.565
110.021
110.161
112.454
120.729
150.908
272.986
665.557
123.609
113.588
110.325
109.382
109.289
110.184
113.716
128.753
205.435
499.585
117.633
111.777
109.938
109.29
109.183
109.684
111.539
119.595
169.5
403.408
115.157
111.28
110.021
109.519
109.419
109.738
110.849
115.445
148.039
334.457
119.902
117.67
116.851
116.486
116.413
116.656
117.458
120.265
141.383
293.041
233.069
229.838
227.79
226.841
226.704
227.322
228.884
232.169
245.276
353.527
3038.05
3036.06
3035.23
3034.89
3034.92
3035.28
3036
3037.37
3041.99
3083.73
2608.93
2596.69
2591.42
2589.85
2589.84
2591.54
2596.82
2611.32
2654.94
2794.98
245.231
207.792
191.386
186.588
186.25
190.712
207.311
264.052
470.599
1107.14
143.385
121.711
113.164
110.98
111.097
113.706
122.764
154.195
277.647
692.581
126.809
113.912
109.467
108.205
108.066
109.135
113.318
129.952
208.618
515.824
118.709
111.061
108.552
107.717
107.55
108.068
110.148
119.136
170.98
413.196
113.909
109.424
107.886
107.291
107.173
107.549
108.88
114.188
148.711
343.339
112.279
109.193
108.062
107.599
107.507
107.784
108.714
112.106
135.229
288.903
114.57
112.903
112.194
111.885
111.841
112.077
112.793
114.987
129.538
246.261
209.384
206.477
204.725
203.944
203.864
204.44
205.865
208.987
219.802
300.953
2824.44
2822.81
2822.14
2821.86
2821.86
2822.11
2822.66
2823.75
2827.31
2857.6
2415.28
2407.77
2404.62
2403.59
2403.38
2403.92
2405.89
2411.68
2430.65
2496.54
203.526
177.056
166.44
162.958
162.134
163.71
170.689
196.433
303.222
705.16
129.716
115.076
109.923
108.461
108.242
109.193
113.014
127.697
194.278
469.81
119.22
110.768
107.829
106.826
106.591
107.104
109.244
117.896
163.187
378.425
113.939
108.949
107.13
106.413
106.236
106.592
107.943
113.146
143.674
315.346
110.491
107.487
106.27
105.749
105.642
105.957
106.987
110.427
130.885
264.834
109.524
107.366
106.421
106.014
105.941
106.201
107.007
109.461
123.452
225.805
109.625
108.591
108.029
107.778
107.758
107.979
108.602
110.253
118.784
189.133
181.306
179.124
177.909
177.382
177.349
177.78
178.832
181.369
189.136
239.896
2606.96
2605.87
2605.43
2605.26
2605.25
2605.4
2605.73
2606.44
2608.71
2626.57
2218.33
2215.06
2213.79
2213.33
2213.18
2213.26
2213.72
2215.27
2221.14
2243.78
156.491
142.141
136.675
134.629
133.973
134.389
136.779
145.994
187.667
377.458
116.211
108.961
106.465
105.58
105.312
105.583
106.922
112.199
138.559
273.286
111.54
107.01
105.307
104.606
104.398
104.646
105.68
109.344
128.304
237.852
108.896
106.134
104.984
104.469
104.332
104.563
105.381
107.93
120.857
205.748
106.86
105.128
104.326
103.958
103.882
104.099
104.778
106.676
115.516
178.841
106.316
105.039
104.408
104.125
104.08
104.27
104.834
106.322
112.644
159.725
105.381
104.853
104.508
104.351
104.341
104.482
104.876
105.866
109.678
138.729
148.318
147.18
146.48
146.189
146.191
146.469
147.121
148.51
152.414
176.221
2385.83
2385.36
2385.19
2385.13
2385.13
2385.18
2385.3
2385.58
2386.46
2393.21
23502.5
23471.5
22961
21917.7
4.42539e+06
4.35891e+06
4.31861e+06
4.46246e+06
6.06756e+06
6.07618e+06
6.02602e+06
6.07389e+06
7.64701e+06
7.76408e+06
7.7052e+06
7.63467e+06
9.10639e+06
9.35027e+06
9.28885e+06
9.12085e+06
1.06628e+07
1.10579e+07
1.10137e+07
1.07911e+07
1.20405e+07
1.25869e+07
1.25687e+07
1.2327e+07
1.24072e+07
1.30608e+07
1.30605e+07
1.28235e+07
8.63774e+06
9.20392e+06
9.22332e+06
9.0705e+06
10212.5
10486.4
10210.8
9648.23
18586.9
18283.3
17841.8
17274.5
1.06343e+06
998014
959912
949519
1.70385e+06
1.68422e+06
1.67753e+06
1.66979e+06
2.41686e+06
2.51429e+06
2.57506e+06
2.57677e+06
3.12103e+06
3.39866e+06
3.55785e+06
3.57766e+06
3.84194e+06
4.34854e+06
4.63688e+06
4.67989e+06
4.47553e+06
5.2345e+06
5.67866e+06
5.76376e+06
4.76304e+06
5.74475e+06
6.33377e+06
6.46317e+06
3.7056e+06
4.66994e+06
5.25297e+06
5.42481e+06
9677.12
10131.9
10018.1
9336.5
14474.8
14023.5
13599.5
13225.5
156060
152484
142645
129996
248177
249527
233225
205424
381423
393831
368848
316156
548118
578363
544086
457316
759138
816531
774972
642897
986964
1.0791e+06
1.03427e+06
852621
1.14732e+06
1.27359e+06
1.2319e+06
1.00878e+06
903092
1.00997e+06
976233
786677
7663.09
7759.36
7599.16
7259.92
12936.7
12468.9
12063.5
11751.9
45403.7
42630.9
39379.6
36650.2
49934.8
47192.7
42931.4
38706.7
64406.9
61837.4
55669.7
48524.4
87598.2
85398.6
76205.7
64368.9
123333
122251
108545
89072.1
167611
168512
149067
119183
203317
207089
182630
142525
154990
157501
136522
103979
6710.66
6751.48
6675.19
6535.19
11873.9
11447.8
11079.5
10805.6
27500.6
26096.2
24495.7
23107.1
21133
19904.4
18404
17058.2
19778.1
18719.3
17126.3
15562.3
21544.6
20576.3
18614.2
16502.9
26724.2
25842.8
23133.9
19952.9
34048.5
33278.3
29428.2
24649.5
39974.8
39550.5
34583
28174.6
28920.8
28778.3
24660.3
19623.3
6141.8
6177.68
6144.78
6068.85
10996.8
10620.6
10289.5
10046.7
21883.3
21006.3
19922.8
18895.7
14153.1
13447.2
12598.2
11814.6
10474.3
9935.73
9238.26
8583.8
8940.79
8520.03
7869.1
7222.1
8994.75
8671.52
7963.56
7187.47
9770.06
9529.97
8674.84
7660.03
10258.5
10155.1
9170.94
7922.26
6887.92
6940.54
6222.24
5309.61
5728.58
5760.44
5745.62
5694.4
10198.3
9877.19
9585.08
9370.49
18640.2
18090.5
17287
16423.7
11199
10762.9
10185.2
9600.66
7362.48
7048.34
6634.44
6230.41
5361.48
5138.5
4818.71
4504.42
4497.09
4352.24
4076.83
3781.28
4089.48
4012.32
3750.99
3436.13
3723.54
3728.14
3491.85
3163.62
2428.64
2511.51
2384.18
2166.3
5401.55
5431.15
5424.86
5386.06
9436.8
9173.71
8921.73
8733.13
16114.8
15792.2
15170.6
14404.4
9347.98
9080.37
8655.03
8172.98
5825.82
5641.2
5362.01
5064.31
3910.56
3789.55
3598.56
3399.87
2926.15
2859.53
2720.24
2564.13
2325.96
2305.31
2198.88
2059.82
1890.9
1919.62
1848.33
1724.68
1296.18
1364.97
1347.21
1271.34
5129.94
5158.54
5156.56
5125.58
8695.4
8491.71
8280.45
8115.91
13901.5
13753.2
13266.5
12570
7918.83
7770.72
7446.52
7029.47
4832.7
4737.26
4538.64
4297.67
3130.09
3077.54
2954.68
2807.37
2206.79
2190.1
2112.06
2008.33
1618.32
1629.89
1580.72
1498.55
1233.43
1273.18
1250.35
1183.71
916.016
970.299
976.435
939.515
4883.87
4910.75
4911.45
4886.57
7968.92
7824.04
7653.16
7510.67
11891.6
11879
11499.3
10864.4
6712.4
6654.17
6404.88
6037.86
4081.54
4052.28
3908.65
3703.39
2612.08
2609.52
2528.94
2407.45
1791.62
1810.43
1766.12
1684.21
1259.19
1292.32
1270.01
1208.68
933.695
979.831
975
927.043
745.448
786.283
797.469
776.918
4650.09
4673
4674.76
4655.86
7257.27
7168.43
7036.44
6913.71
10058.4
10149.1
9857.15
9284.1
5660.88
5672.35
5483
5160.34
3464.49
3486.56
3384.13
3204.39
2216.44
2251.23
2199.32
2091.54
1503.32
1546.92
1522.76
1449.57
1034.27
1080.49
1071.71
1017.8
762.082
809.709
811.584
770.527
648.56
675.483
686.231
676.751
4422.51
4439.5
4441.43
4429.04
6562.74
6524.77
6428.89
6323.34
8402.27
8566.96
8347.92
7840.12
4738.87
4804.16
4664.73
4383.85
2936.43
2998.11
2927.97
2767.99
1887.4
1949.04
1917.17
1816.83
1275.43
1334.28
1321.92
1251.66
868.602
919.844
917.063
865.878
644.327
688.05
691.075
653.975
584.425
596.567
604.975
605.854
4198.81
4208.66
4210.2
4204.69
5888.77
5894
5830.1
5738.99
6927.76
7140.58
6982.1
6541.78
3933.18
4038.46
3940.82
3698.9
2474.37
2564.67
2519.61
2375.22
1599.15
1677.05
1658.35
1562.34
1080.69
1145.06
1138.32
1069.43
733.966
782.183
780.446
731.899
554.029
588.517
589.6
557.488
538.198
535.207
540.717
552.376
3977.92
3980.41
3981.27
3982.38
5239.39
5277.69
5240.32
5161.09
5632.84
5871.63
5762.85
5388.73
3231.32
3363.43
3299.82
3092.41
2062.14
2168.94
2141.87
2009.77
1338.68
1421
1409.16
1316.98
907.492
967
960.891
895.149
619.653
656.942
652.864
609.929
481.146
501.714
499.28
475.241
502.621
485.276
487.985
510.545
3758.66
3754.7
3754.78
3761.42
4619.24
4678.34
4661.02
4591.76
4502.96
4748.31
4678.87
4365.64
2615.96
2760.86
2722.82
2544.09
1686.9
1795.78
1779.07
1657.7
1099.04
1172.47
1161.58
1075.92
751.419
795.528
786.177
728.435
522.041
541.518
533.18
500.78
421.145
424.656
418.424
406.181
472.08
442.757
443.115
475.459
3539.4
3530.82
3530.17
3540.57
4034.35
4100.63
4096.27
4036.35
3509.65
3742.11
3701.02
3441.15
2065.4
2206.11
2183.85
2028.72
1338.45
1432.39
1418.2
1309.67
877.613
928.448
913.689
840.985
611.72
631.487
616.806
574.142
439.838
437.38
424.596
407.98
370.366
356.462
347.363
349.59
440.622
403.577
402.172
441.219
3318.23
3307.43
3306.25
3318.18
3493.46
3553.57
3555.41
3505.99
2616.19
2812.36
2787.04
2575.53
1558.11
1673.3
1656.08
1524.49
1012.04
1073.02
1054.73
966.734
675.77
693.216
672.352
621.985
488.839
480.281
460.836
440.119
370.696
347.274
331.685
333.548
323.587
295.959
285.783
301.889
401.746
363.098
360.427
400.841
3093.65
3083.04
3081.56
3092.84
3009.36
3053.03
3055.8
3019.5
1794.17
1925.49
1902.71
1744.19
1082.95
1149.58
1128.24
1029.58
712.402
727.949
703.041
647.624
497.174
479.919
454.945
434.149
381.076
349.52
328.657
331.055
308.23
271.946
256.326
273.282
273.295
240.367
230.986
255.161
349.381
316.47
312.854
347.284
2865.16
2856.66
2855.13
2864.1
2599.89
2622.02
2622.72
2601.73
1051.76
1097.01
1068.93
979.132
653.057
660.867
633.953
582.995
452.927
429.524
402.343
384.383
342.816
306.069
282.774
286.826
281.939
243.855
225.976
241.6
242.226
207.493
194.449
215.106
213.142
186.31
178.766
199.995
279.622
258.28
254.01
275.135
2632.26
2627.25
2625.86
2630.89
2274.46
2280.08
2279.2
2271.61
460.697
441.662
413.871
390.277
313.095
288.364
265.215
255.273
250.297
218.956
198.06
199.543
212.491
182.254
165.756
174.265
187.97
162.158
149.607
160.513
170.479
149.53
140.061
150.986
150.839
136.391
130.69
140.385
198.809
188.863
184.801
192.212
2396.19
2394.62
2393.72
2395.06
19038.5
14452.5
11186
9135.81
7654.92
6637.64
6003.43
5646.6
5462.97
5366.51
2.58449e+06
539694
144309
54835.5
26357
14413.3
8466.69
5345.25
3723.48
2827.83
3.19685e+06
505344
116282
40341.9
18193.4
9415.78
5315.75
3307.92
2324.71
1815.24
3.58023e+06
459758
96484.4
31297
13313.7
6518.85
3544.68
2181.27
1547.29
1240.86
3.79458e+06
423596
83498.7
25319.1
10084.2
4652.05
2444.07
1498.37
1077.33
885.66
3.92642e+06
402224
75429.5
21210.9
7883.39
3446.52
1773.8
1098.96
808.084
679.232
3.90979e+06
379713
67831.3
17542.2
6110.78
2587.11
1346.09
863.911
655.93
562.346
3.52436e+06
329409
55712.5
13112.3
4361.49
1874.34
1045.78
726.626
585.974
517.783
2.27492e+06
194165
29197.4
5988.97
2169.15
1218.64
906.587
769.273
698.888
661.146
7522.09
6397.79
5855.27
5604.53
5481.61
5423.65
5391.61
5373.07
5362.7
5355.99
15384.9
12685.8
10526.2
8805.99
7469.41
6509.84
5893.29
5540.14
5358.92
5272.89
647091
226277
84594.1
37389.1
19762.5
11534.5
7051.18
4535.55
3190.6
2489.81
923342
252527
76925.3
29435
14172.6
7697.31
4469.5
2810.6
1982.97
1577.17
1.18329e+06
272357
71288.6
24433.2
10865
5508.6
3046.59
1877.54
1326.29
1073.97
1.42117e+06
290674
67681.8
21000.8
8592.85
4048.2
2134.7
1297.58
922.53
761.339
1.66621e+06
313207
66236.8
18645
7003.06
3081.09
1569.83
955.882
692.721
583.568
1.87382e+06
328844
63666.4
16218.3
5615.76
2357.47
1200.86
755.296
566.5
487.54
1.91673e+06
314108
55490.2
12693.4
4113.96
1727.04
937.837
641.204
514.786
458.524
1.40196e+06
206346
31247.8
6084.38
2066.17
1133.25
838.6
713.871
651.029
621.506
7437.86
6361.58
5800.31
5520.74
5387.4
5324.56
5290
5269.76
5258.36
5252.17
12415.8
10907
9384.16
8021.04
6920.07
6128.72
5626.88
5345.1
5204.06
5137.56
95529.1
50237.1
28019.3
17252
11269
7416.29
4868.46
3296.33
2423.55
1967.73
123722
51162.4
24292.6
13341.7
7981.4
4886.38
3053.29
2027.33
1496.77
1236.85
156685
53757.8
22748
11399.2
6278.11
3571.34
2122.25
1379.54
1016.87
851.518
192808
57491.1
22162.9
10144.4
5106.69
2681.26
1513.26
967.815
716.246
609.424
239002
63702.8
22476
9342.01
4285.92
2088.63
1134.96
725.698
546.577
473.816
285038
68781.9
22162.4
8342.7
3519.59
1633.27
886.794
585.756
456.434
403.557
303871
66528.1
19466.9
6637.29
2641.75
1233.35
716.878
514.948
428.13
390.02
204848
39414.7
9993.86
3141.47
1425.88
904.049
716.122
632.021
588.634
568.915
6703.78
6065.43
5635.97
5399.25
5287.49
5232.93
5201.78
5182.75
5171.48
5165.09
11190.2
9958.1
8638.07
7442.38
6485.43
5809.9
5390.88
5161.67
5050.34
4997.66
31107.8
21489.2
14767.9
10446.8
7401.29
5114.03
3480.34
2438.64
1856.96
1558.6
29638.1
17647.6
10924.2
7177.43
4792.17
3148.27
2074.21
1442.65
1112.02
954.639
32454
16714
9504.71
5840.39
3655.18
2263.07
1433.58
983.501
760
661.494
37302.2
16998
8972.74
5104.09
2942.72
1692.58
1024.93
695.842
541.919
479.595
45129.2
18498
9055.22
4707.11
2478.53
1328.18
779.272
532.111
422.809
380.801
53227.5
19785.2
8941.68
4227.79
2052.29
1053.89
622.89
441.568
362.848
332.236
56333.4
19056.9
7914.82
3418.2
1581.91
829.457
529.668
407.497
354.025
331.14
36154.8
10965.2
4086.13
1743.22
987.858
719.427
611.494
560.047
532.414
520.772
6275.75
5770.21
5428.96
5249.04
5165.11
5121.99
5096.58
5080.57
5070.87
5065.46
10333.6
9244.86
8058.59
6984.16
6132.66
5541.03
5181.3
4989.24
4898.31
4854.21
20055.6
14511.4
10427.7
7612.4
5492.99
3844.23
2654.96
1897.14
1476.64
1264.8
14217.6
9610.25
6560.9
4621.97
3229.76
2192.96
1488.61
1067.08
847.144
746.602
12237.5
7687.74
5045.05
3446.66
2319.38
1514.76
1003.92
717.705
575.484
516.06
12018
6983.69
4373.33
2832.79
1787.55
1101.19
707.725
506.845
413.086
378.203
13272.8
7116.6
4196.52
2516.5
1466.08
853.146
539.93
394.085
329.736
307.399
14822.3
7318.69
4020.05
2209.53
1198.46
679.046
440.057
336.287
291.037
275.086
15244
6944.1
3535.98
1795.44
945.857
559.66
395.875
326.694
295.651
283.097
9638.58
4014.12
1922.7
1049.46
719.75
588.526
530.831
501.649
484.986
479.11
5882.34
5476.17
5223.76
5098.08
5037.73
5005.34
4985.4
4972.35
4964.17
4959.6
9634.56
8653.41
7574.42
6598.07
5830.3
5303.44
4988.06
4822.77
4745.68
4706.49
16376.4
11777.1
8461.64
6165.98
4430.72
3093.64
2144.79
1548.32
1219.72
1055.36
10002.1
6909.87
4833.41
3460.24
2438.78
1668.21
1144.98
832.899
671.194
599.255
7102.04
4785.2
3335.64
2380.21
1649.42
1102.97
748.506
548.25
449.464
410.099
5786.41
3783.14
2595.76
1800.33
1193.36
766.695
513.722
382.849
322.689
302.693
5500.59
3441.29
2270.04
1486.23
927.135
575.73
389.228
301.079
262.774
251.602
5520.03
3255.32
2024.22
1233.79
731.377
453.991
321.449
262.983
237.627
230.38
5349.72
2959.14
1723.84
991.15
587.855
391.566
305.032
267.542
250.219
244.191
3405.26
1782.81
1046.49
703.752
559.763
498.157
469.458
454.201
444.66
442.703
5543.58
5218.37
5035.7
4948.86
4906.42
4882.84
4867.63
4857.29
4850.51
4846.71
9004.26
8115.28
7133.33
6246.05
5552.44
5080.8
4801.56
4656.92
4589.65
4553.35
14145.6
10074.2
7198.44
5213.11
3720.47
2586.92
1796.38
1305.54
1035.62
899.766
8132.31
5619.34
3947.46
2826.1
1985.16
1355.03
932.083
681.805
552.075
494.061
5234.73
3603.95
2566.77
1853.04
1290.7
867.461
593.729
439.72
364.002
334.164
3742.62
2565.63
1831.29
1302.26
878.477
575.614
395.571
302.746
260.831
248.251
3074.89
2069.8
1445.16
986.954
639.682
416.091
296.561
240.117
216.148
210.774
2700.17
1750.35
1169.36
759.264
481.229
323.307
247.134
213.574
199.245
196.727
2399.49
1484.27
944.523
596.76
392.985
290.817
245.385
225.478
215.965
213.76
1615.89
985.747
677.457
529.767
465.025
437.095
424.011
416.758
411.44
411.858
5260.32
4996.71
4861.47
4800.43
4771.1
4754.34
4743.07
4735.08
4729.58
4726.48
8404.09
7598.84
6709.62
5907.93
5284.26
4863.07
4615.5
4488.01
4428.36
4394.17
12310.9
8711.82
6208.1
4479.63
3182.63
2207.21
1535.48
1122
894.067
777.663
6905.99
4777.09
3367.91
2409.7
1685.8
1146.47
788.029
577.124
466.89
416.003
4282.01
2981.17
2142.98
1547.91
1073.62
719.431
493.017
366.637
304.358
279.259
2871.06
2005.9
1449
1031.59
695.507
458.832
320.334
249.775
218.371
209.59
2141.33
1481.14
1052.09
725.435
477.951
321.157
238.556
200.011
184.087
181.7
1680.04
1130.19
776.032
518.82
344.641
246.955
200.654
180.56
172.215
172.166
1373.24
891.988
594.382
400.367
286.86
230.806
206.533
195.936
190.678
190.602
1016.43
677.31
512.963
438.807
408.056
395.867
390.616
387.537
384.467
386.132
5016.77
4797.06
4693.9
4651.01
4631.01
4619.4
4611.29
4605.28
4600.88
4598.39
7816.91
7089.64
6290.83
5573.18
5017.52
4644.38
4426.13
4313.95
4260.94
4229.03
10650
7517.51
5362.26
3867.49
2742.22
1899.81
1324.57
972.636
777.938
676.877
5918.39
4116.46
2922.12
2094.55
1461.72
990.889
680.036
497.788
401.44
355.104
3642.18
2562.81
1854.13
1335.92
920.261
613.534
420.269
313.461
260.704
238.802
2384.62
1680.25
1213.56
856.297
573.149
379.409
268.608
213.02
188.714
182.404
1690.52
1174.98
830.73
568.968
377.507
260.533
200.52
173.032
162.11
161.497
1233.87
833.727
571.729
385.8
265.444