/*--------------------------------*- C++ -*----------------------------------*\
| =========                 |                                                 |
| \\      /  F ield         | foam-extend: Open Source CFD                    |
|  \\    /   O peration     | Version:     4.0                                |
|   \\  /    A nd           | Web:         http://www.foam-extend.org         |
|    \\/     M anipulation  |                                                 |
\*---------------------------------------------------------------------------*/
FoamFile
{
    version     2.0;
    format      ascii;
    class       volScalarField;
    location    "150";
    object      k;
}
// * * * * * * * * * * * * * * * * * * * * * * * * * * * * * * * * * * * * * //

dimensions      [0 2 -2 0 0 0 0];

internalField   nonuniform List<scalar> 
34480
(
9.18526
8.94819
8.73971
8.6735
8.87528
9.65146
11.5516
14.7985
18.5852
21.8662
20.1445
16.7868
14.8161
14.3665
17.4198
28.1947
51.095
90.6835
168.347
307.279
22.8124
20.178
18.5747
17.8279
19.2208
27.1567
48.2524
88.5227
171.435
337.438
20.9768
19.0036
17.8789
17.5251
18.7234
24.7215
42.9546
82.5322
169.099
354.369
18.2267
16.8717
16.2519
16.3862
17.7139
22.3609
37.4019
75.1518
165.283
366.773
15.9067
14.9134
14.5358
14.8889
16.2051
19.9842
32.3329
67.788
162.571
382.604
14.1825
13.4012
13.1474
13.5553
14.7588
17.9149
28.0515
60.1616
157.771
394.328
12.4222
11.7717
11.5085
11.7905
12.6616
15.0757
23.0036
49.7624
142.413
381.757
8.44017
8.09613
7.92312
7.99076
8.33458
9.40345
13.4679
28.9128
91.2327
274.989
8.84239
8.82883
8.82445
8.83001
8.84488
8.87623
8.96258
9.23837
10.0279
11.2328
9.08032
8.85814
8.64557
8.54517
8.6436
9.17193
10.6764
13.5448
17.1149
20.1027
18.6798
15.5162
13.6239
12.9028
14.7477
22.6459
40.124
66.5146
113.3
266.608
20.8541
18.3683
16.9215
16.2508
17.0475
22.532
38.328
65.0431
114.075
290.191
19.0498
17.2495
16.2935
16.1003
17.0556
21.0459
34.0634
59.7236
110.425
300.614
16.4906
15.3333
14.8585
15.1551
16.467
19.5892
29.5605
52.8788
105.494
307.931
14.4253
13.6236
13.356
13.8608
15.2892
17.9507
25.4494
45.6333
100.784
319.648
12.9743
12.3556
12.1708
12.6978
14.0619
16.4119
22.1343
38.332
94.4001
328.421
11.5591
11.0317
10.7985
11.1479
12.1523
13.9744
18.2347
29.7245
80.9827
315.121
8.16588
7.86555
7.68681
7.72723
8.03741
8.75288
10.7067
15.9859
46.7134
218.236
8.72741
8.71403
8.70771
8.70998
8.71898
8.73599
8.77807
8.91801
9.47249
10.7919
8.92489
8.71798
8.52458
8.43591
8.52655
8.99762
10.3372
12.9303
16.176
18.4863
16.6283
13.9207
12.3065
11.7109
13.3826
20.2651
35.0547
55.8874
83.6756
139.16
18.4306
16.2744
15.0323
14.4999
15.3253
20.268
33.823
55.2521
84.7753
155.08
16.7998
15.2927
14.4989
14.3908
15.3533
18.9939
30.2056
50.9298
81.6108
164.375
14.5718
13.6873
13.3289
13.6413
14.9035
17.7904
26.3636
45.1687
77.0373
171.608
12.8404
12.2822
12.0998
12.5814
13.9333
16.4521
22.9285
39.0706
72.384
181.337
11.6854
11.2794
11.1567
11.6384
12.9092
15.1656
20.1784
32.9296
66.4642
189.459
10.5935
10.2469
10.0713
10.3767
11.2832
13.0186
16.8166
25.7164
55.7212
183.686
7.78973
7.57415
7.43121
7.45887
7.70163
8.28942
9.90356
14.013
31.0786
124.196
8.62912
8.61682
8.6101
8.61063
8.61692
8.62986
8.66364
8.77616
9.19606
10.1976
8.75895
8.56856
8.39587
8.31908
8.40161
8.81729
9.99705
12.3236
15.3058
17.402
14.7535
12.4768
11.1274
10.6494
12.1519
18.1152
30.7176
47.9332
68.2908
99.1388
16.1302
14.3134
13.2659
12.8273
13.623
17.9917
29.518
47.107
68.0936
104.971
14.6646
13.4547
12.8
12.6965
13.5355
16.7128
26.1618
43.0885
64.3346
106.702
12.7848
12.1603
11.8872
12.1184
13.1462
15.6045
22.727
37.9641
59.4265
107.209
11.3927
11.0589
10.9341
11.2978
12.3682
14.4829
19.8176
32.7976
54.5586
109.315
10.5148
10.3048
10.2262
10.5867
11.5739
13.4409
17.5535
27.7449
48.8288
110.558
9.71141
9.53148
9.40637
9.62799
10.3095
11.7014
14.7782
21.902
39.9037
104.017
7.43666
7.29747
7.18735
7.20118
7.37086
7.79854
8.95474
12.1153
21.7059
66.9546
8.51788
8.50825
8.50267
8.5031
8.50851
8.51967
8.54741
8.63786
8.95669
9.7075
8.5844
8.41101
8.25902
8.1934
8.26709
8.62934
9.65815
11.7269
14.4508
16.3997
13.1899
11.2748
10.1491
9.77004
11.1106
16.2663
27.0931
41.7439
58.2143
79.997
14.1351
12.627
11.7571
11.3963
12.141
15.945
25.6871
40.3114
56.6827
79.9459
12.7826
11.8446
11.317
11.2035
11.888
14.5727
22.3629
36.1536
52.3577
77.4725
11.2118
10.8127
10.6134
10.7531
11.5079
13.4792
19.1764
31.3117
47.2385
74.4911
10.1249
9.97823
9.90217
10.1424
10.8934
12.5154
16.6797
26.8132
42.3873
72.718
9.48543
9.43658
9.39586
9.63556
10.3123
11.6935
14.8344
22.6782
37.0602
70.3102
8.93015
8.88616
8.80527
8.94848
9.40254
10.3903
12.6561
18.0997
29.7035
63.2512
7.12035
7.04329
6.96145
6.96313
7.07
7.35366
8.09848
10.2859
15.965
38.0651
8.39869
8.39131
8.38672
8.38703
8.39159
8.40099
8.42284
8.49059
8.72778
9.30111
8.40199
8.24588
8.11426
8.05916
8.12382
8.43494
9.32083
11.141
13.6148
15.4648
11.9354
10.3097
9.36454
9.06582
10.2536
14.7089
24.1073
36.9484
51.2433
69.6761
12.4949
11.2467
10.5316
10.2451
10.9344
14.217
22.4794
34.9123
48.5645
66.2836
11.2076
10.4986
10.0851
9.97694
10.532
12.7615
19.1251
30.4372
43.5557
61.1583
9.88538
9.66416
9.5303
9.60671
10.1395
11.6697
16.119
25.6743
38.1582
56.1433
9.04732
9.04156
9.00907
9.15851
9.65215
10.8285
13.9509
21.6312
33.3432
52.3516
8.59341
8.66392
8.65767
8.80754
9.23776
10.1854
12.4488
18.2168
28.4702
48.2371
8.23874
8.29536
8.25345
8.33987
8.61981
9.26517
10.8105
14.7159
22.4892
41.333
6.8358
6.8055
6.74778
6.74114
6.80195
6.9778
7.42459
8.80183
12.1687
23.2206
8.27044
8.26488
8.26111
8.26132
8.26514
8.27302
8.29004
8.3386
8.50802
8.94582
8.21212
8.07352
7.96163
7.91635
7.97194
8.234
8.98298
10.5598
12.7844
14.5546
10.9224
9.53237
8.73233
8.49617
9.53664
13.366
21.5482
32.9854
45.8305
62.4655
11.1729
10.137
9.54942
9.32752
9.95505
12.7613
19.7839
30.5599
42.4883
57.525
9.93638
9.40697
9.08615
8.99327
9.44628
11.2788
16.4592
25.8531
36.9644
50.9661
8.81361
8.7162
8.63149
8.66951
9.04097
10.2117
13.6463
21.1631
31.3249
44.8012
8.16878
8.25249
8.25149
8.33979
8.65036
9.47626
11.7607
17.4786
26.55
39.9502
7.84847
7.99215
8.01091
8.09863
8.3549
8.97105
10.5337
14.6256
22.1104
35.1437
7.64655
7.76533
7.75271
7.79988
7.9585
8.35218
9.34297
11.9914
17.3082
28.8417
6.59075
6.59077
6.55166
6.53939
6.56804
6.66817
6.91979
7.73254
9.73502
15.6029
8.13241
8.12818
8.12507
8.12519
8.12836
8.13489
8.14807
8.18218
8.3002
8.63659
8.01541
7.89437
7.80116
7.76486
7.81147
8.02675
8.64466
9.98194
11.954
13.6488
10.083
8.89311
8.2104
8.02109
8.91657
12.1679
19.2483
29.4773
41.1991
56.5318
10.1005
9.23906
8.75287
8.58233
9.1403
11.5068
17.4449
26.8675
37.5883
51.0621
8.93047
8.53366
8.28045
8.20441
8.57489
10.0656
14.2587
22.1206
31.8414
43.9574
7.9763
7.95034
7.89432
7.90955
8.16886
9.05886
11.6945
17.6249
26.1416
37.2925
7.47797
7.60184
7.61648
7.66483
7.85383
8.42397
10.0764
14.3088
21.4922
31.9522
7.24693
7.41939
7.45057
7.49688
7.63931
8.02436
9.07541
11.9241
17.4803
26.9658
7.154
7.29838
7.30361
7.32461
7.40458
7.62936
8.23647
9.9686
13.6704
21.4541
6.38761
6.40258
6.37643
6.36068
6.36858
6.41923
6.55254
7.01606
8.25149
11.8197
7.9837
7.98039
7.97777
7.97779
7.9804
7.98575
7.99589
8.01962
8.10112
8.36348
7.81269
7.70886
7.63283
7.60448
7.64238
7.81394
8.30834
9.41205
11.1271
12.7406
9.36887
8.35516
7.76656
7.61033
8.36271
11.0706
17.1083
26.2057
36.9447
51.1147
9.21475
8.49952
8.09049
7.95714
8.4392
10.3967
15.3475
23.5616
33.3185
45.67
8.14421
7.83772
7.62678
7.56361
7.86413
9.05987
12.4125
18.9759
27.6236
38.6038
7.34138
7.34019
7.29259
7.29306
7.47498
8.14832
10.1566
14.83
22.0989
31.9296
6.9525
7.07387
7.08863
7.11071
7.22267
7.61381
8.80371
11.937
17.7299
26.5306
6.77599
6.93931
6.97054
6.98988
7.06256
7.29702
7.99584
9.97323
14.1811
21.6918
6.75513
6.89416
6.90639
6.91062
6.94339
7.06345
7.42565
8.54463
11.2
17.0222
6.22592
6.2429
6.22454
6.20698
6.20285
6.2238
6.29014
6.55218
7.36854
9.98135
7.82343
7.82063
7.81838
7.81831
7.8204
7.82471
7.83244
7.84884
7.90499
8.11316
7.60489
7.51736
7.45656
7.43496
7.46467
7.5966
7.97794
8.8588
10.3144
11.8333
8.75497
7.89651
7.38002
7.24457
7.85769
10.0555
15.0886
23.0718
32.8889
45.956
8.47427
7.88067
7.52544
7.41565
7.81829
9.398
13.4326
20.4958
29.3886
40.8179
7.53813
7.28267
7.09062
7.03403
7.27298
8.21401
10.8422
16.2468
23.9622
34.1334
6.87346
6.85765
6.80167
6.79098
6.91864
7.42375
8.93615
12.585
18.82
27.7767
6.56398
6.64965
6.65235
6.65679
6.72157
6.98969
7.84299
10.1608
14.8867
22.6368
6.41652
6.54226
6.56387
6.56608
6.59891
6.74025
7.20413
8.58494
11.8455
18.1752
6.43858
6.5495
6.56018
6.55426
6.56148
6.62167
6.83647
7.56569
9.55441
14.3302
6.10248
6.11181
6.09704
6.07893
6.06903
6.0742
6.10557
6.25668
6.84254
9.07813
7.65069
7.6481
7.64611
7.64594
7.64757
7.65098
7.65681
7.66808
7.70684
7.87562
7.39276
7.31997
7.27205
7.25591
7.27821
7.37566
7.65755
8.33255
9.53046
10.9353
8.23461
7.50603
7.03897
6.91355
7.39482
9.12252
13.1927
20.0536
28.9685
40.9844
7.86006
7.36055
7.03546
6.93693
7.26017
8.49789
11.687
17.6208
25.6707
36.286
7.08146
6.83911
6.64621
6.59011
6.77412
7.49686
9.5039
13.8507
20.6781
30.171
6.53763
6.47637
6.40075
6.38064
6.46923
6.84247
7.96179
10.7626
16.0787
24.3337
6.28182
6.30972
6.29318
6.28564
6.32227
6.50607
7.1133
8.82012
12.6929
19.6623
6.14607
6.21689
6.22321
6.21493
6.22689
6.31298
6.62212
7.59488
10.1797
15.7277
6.18962
6.25904
6.26279
6.25129
6.24678
6.2759
6.40585
6.89304
8.45803
12.6576
6.01204
6.0077
5.99351
5.97571
5.96414
5.9626
5.97792
6.07078
6.52865
8.63772
7.46462
7.46202
7.4602
7.45993
7.46116
7.46381
7.46817
7.47593
7.50303
7.64365
7.17655
7.11637
7.07883
7.06686
7.08277
7.15158
7.3502
7.84301
8.79149
10.0584
7.81174
7.17812
6.73746
6.61329
6.97416
8.28241
11.452
17.1807
25.1864
36.2144
7.36899
6.92774
6.60948
6.51205
6.75946
7.6972
10.1265
14.9535
22.1391
32.0069
6.74873
6.48368
6.27595
6.21608
6.35157
6.89042
8.3767
11.766
17.7068
26.5611
6.30051
6.17338
6.07349
6.04549
6.10527
6.37485
7.18494
9.28889
13.7652
21.3656
6.07614
6.03626
5.99871
5.9832
6.00332
6.12905
6.55594
7.80405
10.9832
17.2982
5.94201
5.95186
5.94137
5.92711
5.92939
5.98368
6.19129
6.88351
8.98225
13.9742
5.99242
6.01629
6.01089
5.99687
5.98867
6.00367
6.08647
6.42449
7.71944
11.6085
5.94812
5.92761
5.91211
5.89516
5.8843
5.88139
5.8911
5.95533
6.34234
8.44409
7.2645
7.26173
7.26003
7.25968
7.26057
7.26258
7.26584
7.2713
7.29083
7.41175
6.95573
6.90573
6.87619
6.86722
6.87788
6.92412
7.0569
7.39694
8.11273
9.21631
7.49147
6.9075
6.47255
6.34377
6.59922
7.54852
9.90928
14.5159
21.5837
31.6911
7.00234
6.57449
6.24312
6.1399
6.31835
7.00286
8.77772
12.5495
18.8273
27.9838
6.51424
6.19705
5.9686
5.90353
5.99742
6.38513
7.44957
10.0009
15.0539
23.2566
6.13046
5.92991
5.80797
5.77409
5.81236
6.00118
6.57226
8.11865
11.8368
18.7912
5.91997
5.8145
5.75891
5.73848
5.74894
5.83454
6.13011
7.03728
9.65926
15.4127
5.78404
5.7372
5.71183
5.69459
5.69315
5.72936
5.87059
6.36969
8.12068
12.7285
5.83217
5.81451
5.80038
5.78577
5.77788
5.78766
5.8449
6.09074
7.21124
10.9691
5.90376
5.86753
5.84982
5.83398
5.82493
5.82331
5.83261
5.88426
6.23132
8.37972
7.04972
7.04675
7.04513
7.0447
7.04531
7.04684
7.0493
7.05331
7.06809
7.17511
6.72893
6.6868
6.66323
6.65632
6.66292
6.69235
6.77628
6.99639
7.50572
8.42366
7.26968
6.68509
6.24225
6.10698
6.2746
6.9311
8.6031
12.1384
18.2248
27.462
6.75248
6.29046
5.9348
5.82363
5.94265
6.42192
7.66282
10.4754
15.8031
24.2465
6.34755
5.96254
5.71745
5.64879
5.70854
5.97577
6.71186
8.56599
12.7552
20.2699
5.99812
5.73165
5.59586
5.55867
5.58096
5.70827
6.09927
7.21558
10.2747
16.6067
5.79103
5.63336
5.56602
5.54306
5.54771
5.60561
5.80729
6.46517
8.65051
13.9557
5.65592
5.56496
5.52884
5.51054
5.50805
5.53377
5.6318
5.99819
7.49944
11.8864
5.69644
5.64728
5.62656
5.61245
5.60633
5.61478
5.65808
5.84577
6.84419
10.5966
5.87191
5.82264
5.80254
5.78785
5.78086
5.78144
5.7925
5.83969
6.16087
8.35915
6.81997
6.81681
6.81526
6.81477
6.81517
6.81632
6.81824
6.82141
6.83322
6.92933
6.49401
6.4581
6.43901
6.4335
6.43716
6.4548
6.50485
6.6379
6.97574
7.69439
7.12356
6.49593
6.04471
5.90595
6.00453
6.434
7.55487
10.1229
15.1849
23.5612
6.59101
6.05903
5.68309
5.56759
5.63862
5.95795
6.78755
8.78371
13.1454
20.8338
6.21263
5.76619
5.51855
5.45028
5.48359
5.65831
6.14889
7.45554
10.845
17.6426
5.8782
5.56881
5.43127
5.39352
5.40415
5.48629
5.74599
6.54185
9.05166
14.832
5.67301
5.48524
5.41382
5.39013
5.39106
5.43003
5.56644
6.04427
7.88751
12.8862
5.54617
5.42889
5.38696
5.36873
5.36603
5.38519
5.45523
5.72976
7.03811
11.3453
5.57556
5.50825
5.48382
5.47074
5.46644
5.47466
5.50985
5.65856
6.55074
10.3495
5.84547
5.78716
5.76494
5.75134
5.74619
5.74893
5.76228
5.80869
6.10664
8.30574
6.57522
6.57197
6.5705
6.56998
6.57021
6.5711
6.57266
6.57534
6.58523
6.67084
6.24868
6.21823
6.20272
6.19819
6.19987
6.20979
6.23791
6.31306
6.52006
7.04023
7.00677
6.32062
5.87821
5.74374
5.79165
6.05405
6.76197
8.51679
12.5376
20.0042
6.46409
5.85883
5.48564
5.37459
5.4098
5.60938
6.13856
7.49003
10.9186
17.7853
6.07305
5.59834
5.36888
5.30586
5.32007
5.42713
5.74119
6.63958
9.32752
15.4186
5.75267
5.43564
5.309
5.27308
5.27557
5.32615
5.49397
6.05585
8.11188
13.4575
5.55648
5.36493
5.29645
5.27324
5.27169
5.29794
5.39058
5.73791
7.29165
12.1081
5.44754
5.32322
5.27997
5.2624
5.25955
5.27418
5.32607
5.53489
6.66413
10.9463
5.46191
5.39022
5.36487
5.35303
5.35006
5.358
5.38777
5.50737
6.27947
10.0527
5.81664
5.75377
5.73
5.71736
5.71369
5.7182
5.73368
5.78058
6.05113
8.14964
6.31589
6.31272
6.31136
6.31083
6.31096
6.31165
6.31295
6.31533
6.32375
6.39744
5.99064
5.96613
5.95398
5.95036
5.95078
5.95581
5.97067
6.01061
6.12764
6.46843
6.85473
6.14085
5.74085
5.62096
5.63474
5.78108
6.19897
7.3225
10.3373
16.7938
6.3027
5.67088
5.33858
5.24282
5.25391
5.36804
5.68739
6.56374
9.14603
15.1311
5.90263
5.45472
5.26352
5.20952
5.2112
5.27194
5.4645
6.06785
8.15662
13.5975
5.61402
5.3286
5.22231
5.18976
5.18708
5.21713
5.32389
5.71462
7.36895
12.3715
5.43868
5.26778
5.20701
5.18512
5.182
5.20004
5.26445
5.51502
6.78208
11.4106
5.35543
5.24094
5.19972
5.18312
5.1801
5.19153
5.23168
5.39078
6.31883
10.4468
5.34889
5.28439
5.26026
5.24972
5.24767
5.25516
5.28091
5.37633
5.99842
9.50551
5.77615
5.71309
5.68848
5.67673
5.67424
5.68019
5.69757
5.74496
5.9815
7.83853
6.04299
6.04011
6.0389
6.03841
6.03846
6.03899
6.04008
6.04218
6.04924
6.10873
5.72027
5.70147
5.69277
5.69002
5.68978
5.69197
5.69906
5.71914
5.78126
5.97884
6.60642
5.94664
5.62686
5.52957
5.52309
5.59477
5.8226
6.49231
8.59457
13.9218
6.05258
5.48826
5.23523
5.16241
5.15961
5.21705
5.39617
5.93733
7.78405
12.8464
5.6963
5.33407
5.19178
5.14803
5.14275
5.1748
5.28852
5.67984
7.23473
12.0393
5.4656
5.24325
5.16079
5.13227
5.12698
5.14515
5.21397
5.47752
6.72722
11.2779
5.32203
5.18854
5.1376
5.11757
5.11382
5.12709
5.17409
5.35096
6.29982
10.4554
5.26654
5.17365
5.13658
5.12124
5.11831
5.12789
5.16071
5.28036
5.97288
9.56482
5.23287
5.18339
5.16193
5.15266
5.15138
5.15867
5.18158
5.25618
5.70445
8.55532
5.71353
5.65452
5.63
5.61915
5.61771
5.62493
5.64393
5.69102
5.88753
7.35628
5.75811
5.75576
5.75477
5.75436
5.75437
5.75476
5.75561
5.75733
5.76277
5.80529
5.43646
5.42449
5.41924
5.41743
5.417
5.41775
5.42066
5.42953
5.45938
5.56004
6.23411
5.73052
5.51176
5.43956
5.4239
5.45286
5.56609
5.93187
7.24913
11.3068
5.71545
5.31805
5.15993
5.11098
5.10228
5.12673
5.21796
5.52488
6.72011
10.7205
5.47126
5.22798
5.13265
5.09851
5.09066
5.10744
5.17344
5.40994
6.44282
10.3382
5.31654
5.16867
5.10881
5.08473
5.07897
5.09127
5.13739
5.30351
6.1173
9.72203
5.21131
5.12027
5.08007
5.06267
5.05917
5.06987
5.10547
5.22334
5.82569
8.93574
5.17821
5.11211
5.08117
5.06771
5.06533
5.07403
5.10153
5.18709
5.62441
8.17125
5.12237
5.09067
5.07311
5.06526
5.06462
5.07164
5.09167
5.1472
5.4205
7.257
5.61439
5.56417
5.54166
5.53215
5.53161
5.5395
5.5588
5.60245
5.75093
6.73567
5.46219
5.46061
5.45995
5.45968
5.45967
5.45991
5.46045
5.4616
5.46508
5.48969
5.14053
5.13564
5.13354
5.13275
5.13247
5.13261
5.13343
5.13614
5.14624
5.18391
5.73848
5.43874
5.31566
5.26811
5.25232
5.26056
5.30819
5.4719
6.11769
8.61104
5.35052
5.14427
5.06534
5.03601
5.02705
5.0351
5.07349
5.20907
5.7892
8.24853
5.23173
5.09726
5.04181
5.01851
5.01165
5.01992
5.0538
5.16659
5.66521
8.00753
5.15212
5.06824
5.03066
5.01367
5.00916
5.01684
5.04429
5.1287
5.50587
7.5141
5.08891
5.03528
5.00897
4.99686
4.99435
5.00149
5.0242
5.08841
5.36322
6.97001
5.07065
5.0308
5.01022
5.00096
4.99946
5.00569
5.02435
5.07456
5.27756
6.53014
5.0194
5.00257
4.99147
4.98641
4.98607
4.99065
5.00347
5.03632
5.16107
5.97213
5.4241
5.3896
5.3734
5.36679
5.36685
5.37326
5.38827
5.42034
5.51049
6.01872
5.15483
5.15412
5.15384
5.15372
5.15372
5.15381
5.15403
5.15452
5.15593
5.16515
24.8646
24.8326
24.4629
23.7088
296.309
293.14
291.221
296.976
364.971
365.121
363.089
364.554
425.435
429.698
427.691
424.958
478.415
487.041
485.276
479.579
532.596
545.96
544.975
537.814
578.383
596.188
596.111
588.539
590.264
611.401
611.964
604.48
465.03
485.89
487.4
482.075
13.7233
13.9781
13.7483
13.2427
21.2452
21.0233
20.6787
20.2233
326.232
313.258
304.25
299.397
405.345
400.748
394.687
386.032
476.114
484.987
483.208
470.202
541.082
566.005
569.13
551.854
611.504
654.737
664.332
642.961
673.113
735.237
752.666
728.561
692.258
770.915
796.154
770.885
535.218
612.098
637.999
619.319
13.0793
13.4775
13.3807
12.7823
18.0052
17.6466
17.2944
16.9748
153.062
149.821
143.519
135.872
186.158
183.967
174.93
161.782
219.325
219.572
207.964
188.518
253.819
257.168
243.083
216.679
295.726
303.175
286.899
252.196
336.755
348.612
330.338
287.178
355.724
371.644
352.724
303.471
268.247
281.056
265.435
225.711
11.1806
11.2783
11.1302
10.8068
16.7081
16.329
15.9843
15.7087
99.0066
95.0702
90.7569
87.2186
108.697
104.155
98.4726
93.3661
118.818
114.482
107.665
100.815
130.341
126.657
118.597
109.578
146.676
144.181
134.561
122.438
163.416
162.258
150.763
134.888
169.857
170.291
157.574
138.733
122.808
123.506
113.304
98.7207
10.2395
10.2889
10.2176
10.0755
15.771
15.4244
15.1076
14.8602
79.7893
77.2226
74.3812
71.8814
80.2613
77.279
73.8155
70.7078
81.0941
78.2527
74.462
70.8712
82.9098
80.4347
76.3185
72.1281
87.7507
85.92
81.3569
76.1988
92.7459
91.6598
86.4615
80.0281
92.0877
92.0134
86.4829
79.0832
62.3776
62.9806
58.8059
53.1589
9.6563
9.70099
9.66994
9.58885
14.9714
14.6669
14.3804
14.157
70.5727
68.7528
66.593
64.5284
66.7679
64.6588
62.1813
59.8582
63.1166
61.1592
58.6523
56.2552
60.4461
58.8147
56.322
53.8051
60.0052
58.8847
56.3895
53.5898
59.6052
59.0548
56.4967
53.2956
55.7945
55.9636
53.5427
50.1378
34.7726
35.4281
33.8394
31.378
9.21825
9.25844
9.24437
9.18733
14.2227
13.9662
13.7125
13.5115
64.5111
63.2621
61.5398
59.6874
58.8512
57.3873
55.5055
53.5843
52.9955
51.6773
49.9004
48.1081
48.0898
47.0441
45.401
43.6809
45.0889
44.4516
42.9392
41.1649
42.2364
42.0548
40.6615
38.7757
37.3544
37.7128
36.5928
34.756
21.7591
22.4505
21.9143
20.699
8.86189
8.89897
8.89325
8.84919
13.49
13.285
13.0659
12.8858
59.5603
58.7656
57.3498
55.6095
53.2671
52.3005
50.8143
49.1223
46.5546
45.7444
44.4428
42.9976
40.6152
40.0401
38.9299
37.6592
36.3144
36.0546
35.114
33.8921
32.3278
32.4094
31.6263
30.3969
27.3453
27.8186
27.2988
26.1684
15.6116
16.2797
16.1688
15.4837
8.5597
8.59445
8.59317
8.55819
12.7581
12.6066
12.4233
12.2627
54.9953
54.5995
53.4296
51.7577
48.6769
48.1251
46.9321
45.3842
41.8976
41.5164
40.5527
39.3107
35.6877
35.5242
34.7789
33.7543
30.843
30.9258
30.3591
29.4307
26.397
26.7198
26.3055
25.4157
21.7019
22.2812
22.0772
21.2843
12.6809
13.2922
13.3471
12.9021
8.28426
8.31561
8.31715
8.28996
12.0218
11.9243
11.7769
11.6341
50.5828
50.5476
49.5926
47.9809
44.5476
44.36
43.4089
41.9722
38.1158
38.1059
37.4019
36.2875
32.0643
32.2546
31.7703
30.8714
27.1446
27.5239
27.2068
26.4134
22.6439
23.1743
22.9867
22.2507
18.3842
19.0485
19.0117
18.3676
11.1599
11.6867
11.7969
11.4839
8.0197
8.04524
8.0478
8.02828
11.2804
11.235
11.1227
10.9957
46.2595
46.5505
45.793
44.2523
40.6765
40.82
40.0861
38.7536
34.7885
35.1078
34.6186
33.5901
29.0962
29.5851
29.294
28.4487
24.3544
24.9696
24.8167
24.0644
20.0287
20.7076
20.6499
19.9625
16.2505
16.9516
16.9899
16.4018
10.2592
10.6719
10.789
10.5793
7.75923
7.77703
7.77957
7.76812
10.5356
10.5381
10.4585
10.345
42.0334
42.6134
42.0416
40.5917
36.9969
37.4429
36.9118
35.6852
31.723
32.3319
32.0252
31.0543
26.4636
27.1922
27.0429
26.2051
22.0204
22.7982
22.7443
21.9806
17.9891
18.7371
18.7381
18.0516
14.707
15.3758
15.4278
14.8671
9.66817
9.93838
10.0401
9.93808
7.49954
7.50855
7.51045
7.5072
9.79015
9.83349
9.78296
9.68055
37.937
38.7645
38.3675
37.0266
33.4899
34.2059
33.8632
32.7395
28.821
29.6709
29.5138
28.5736
24.0038
24.8984
24.8415
23.9807
19.922
20.7711
20.7586
19.9632
16.256
16.9765
16.9793
16.2913
13.4789
14.035
14.0586
13.5424
9.26485
9.37128
9.44766
9.46834
7.23839
7.23877
7.23969
7.24403
9.048
9.12222
9.09563
9.00199
33.9971
35.0262
34.7896
33.5646
30.1384
31.0814
30.9047
29.867
26.0103
27.0312
26.9813
26.0429
21.6279
22.5886
22.5696
21.6725
17.955
18.7609
18.7347
17.921
14.7137
15.2951
15.2537
14.6037
12.4474
12.8081
12.7763
12.3561
8.99084
8.92596
8.97406
9.12982
6.97337
6.9665
6.96637
6.9768
8.3142
8.40648
8.39743
8.31127
30.2043
31.3808
31.2818
30.1601
26.8937
27.9995
27.9509
26.9648
23.2176
24.305
24.3047
23.3451
19.2799
20.1727
20.1306
19.2144
16.0744
16.7
16.6096
15.834
13.3211
13.6474
13.5292
12.9958
11.5547
11.6497
11.5519
11.301
8.7986
8.57499
8.59634
8.88577
6.7016
6.68988
6.68883
6.70308
7.59629
7.69166
7.69302
7.61471
26.4817
27.7297
27.7287
26.6788
23.6536
24.8179
24.8366
23.8606
20.3599
21.3608
21.3379
20.3634
16.9273
17.5845
17.4593
16.5927
14.2684
14.5703
14.3796
13.7475
12.0644
12.0416
11.8356
11.5244
10.7478
10.5431
10.3884
10.3776
8.62801
8.28328
8.28153
8.67895
6.42015
6.40653
6.4048
6.42018
6.90655
6.98964
6.99454
6.92719
22.6608
23.8538
23.8856
22.8776
20.2588
21.3106
21.3103
20.3323
17.3645
18.0728
17.9505
17.0358
14.5687
14.8148
14.5652
13.8844
12.538
12.4112
12.1157
11.7653
10.9129
10.5145
10.2396
10.24
9.93862
9.46686
9.28166
9.53666
8.39731
7.99608
7.97409
8.4228
6.1268
6.11414
6.11206
6.12597
6.26441
6.32302
6.32634
6.27513
18.5065
19.4293
19.4019
18.4671
16.5448
17.2316
17.1156
16.2232
14.2272
14.4259
14.1536
13.4724
12.2336
11.9675
11.6007
11.2738
10.8541
10.3134
9.9538
9.97709
9.7615
9.08588
8.78663
9.09227
8.98157
8.36731
8.18411
8.63179
8.00418
7.63453
7.59272
8.00385
5.82083
5.8113
5.8092
5.81966
5.69809
5.72669
5.72616
5.6957
13.8892
14.2532
14.0803
13.3974
12.5076
12.5837
12.3024
11.7272
11.0611
10.6878
10.2908
10.0286
9.91893
9.26483
8.85493
8.92805
9.08911
8.35573
8.00548
8.3084
8.40466
7.69685
7.42329
7.84962
7.72022
7.16897
7.00737
7.44738
7.35095
7.0981
7.03901
7.30937
5.50159
5.49653
5.49465
5.49999
5.2263
5.23295
5.23063
5.21928
9.19741
8.91507
8.60331
8.38015
8.53414
8.09949
7.73648
7.61229
8.03492
7.42442
7.02598
7.07594
7.54578
6.91034
6.55855
6.7511
7.11219
6.54287
6.25719
6.50645
6.74444
6.26625
6.04131
6.29564
6.25127
5.91421
5.77415
6.00125
6.41801
6.3008
6.23377
6.32775
5.17133
5.17009
5.16889
5.16997
21.4991
17.9091
15.1341
13.2478
11.793
10.7325
10.0383
9.63364
9.41987
9.30321
353.254
200.65
122.735
86.7213
64.7933
49.5786
38.7585
31.4536
26.8425
23.691
407.974
192.917
114.433
80.8863
60.6247
46.6549
37.1425
31.1301
27.6158
25.4063
442.879
182.145
107.599
75.8259
56.1454
42.5673
33.6401
28.1689
24.9911
23.0803
466.509
173.262
102.376
71.1504
51.4318
38.0391
29.6113
24.5875
21.6302
19.8987
491.737
168.439
98.597
66.794
46.9421
33.9044
26.0761
21.5169
18.8081
17.2376
506.379
161.086
92.5393
60.8623
41.8592
29.9215
23.0287
19.0348
16.6187
15.2259
484.804
141.927
79.2015
50.3763
34.2965
24.6032
19.1588
16.0301
14.1949
13.1468
336.366
83.0172
41.5734
24.5317
16.802
12.6406
10.6006
9.53752
8.95403
8.62751
11.077
9.95866
9.39829
9.1338
8.99854
8.93249
8.89579
8.87387
8.86089
8.85214
18.703
16.4684
14.5576
12.9386
11.6058
10.595
9.91372
9.50871
9.29486
9.1887
244.926
147.206
99.6214
73.3165
56.5721
44.2419
34.9802
28.4928
24.4093
21.8964
279.957
146.402
95.1388
69.7023
53.7172
41.9709
33.5634
28.0986
24.9399
23.1878
304.64
143.997
91.7597
66.8956
50.7576
38.8437
30.6532
25.5292
22.5718
20.9743
324.561
142.657
89.4875
64.1959
47.3128
35.0747
27.0919
22.2943
19.4942
18.0001
349.103
144.741
88.6194
61.7156
43.9071
31.5546
23.9471
19.5372
16.9606
15.5925
367.618
144.195
85.407
57.3854
39.6233
28.0097
21.2188
17.3575
15.0756
13.8641
359.38
132.691
75.1537
48.4025
32.7661
23.1661
17.778
14.7687
13.0576
12.1558
251.95
82.6384
41.0389
24.0289
16.2004
12.1159
10.1366
9.13055
8.58445
8.29768
10.9798
9.90558
9.33077
9.03762
8.89198
8.82121
8.78205
8.75844
8.74431
8.73597
16.2695
14.9285
13.5079
12.1721
11.0372
10.1798
9.61148
9.28056
9.10944
9.024
116.974
88.4595
68.909
55.3023
44.7661
36.0364
29.1016
24.1487
21.0488
19.1939
128.429
89.6957
67.9914
53.7889
43.028
34.4205
28.0494
23.8777
21.5106
20.2692
138.183
90.4315
67.7257
52.8127
41.2905
32.2238
25.831
21.8043
19.5061
18.3197
147.567
91.3934
67.6649
51.4994
38.8773
29.28
22.9013
19.0583
16.8429
15.7125
160.3
94.1193
68.318
50.2055
36.4166
26.5115
20.3316
16.7585
14.7085
13.6734
170.37
94.6748
66.8279
47.1992
33.1057
23.6714
18.1164
14.9918
13.1931
12.2866
167.689
87.8381
59.62
40.2591
27.6118
19.7633
15.3683
12.9654
11.6422
10.9732
114.207
53.8402
32.4998
20.0438
13.822
10.7013
9.22096
8.47582
8.0701
7.85695
10.2369
9.58869
9.14939
8.90025
8.77783
8.7171
8.68193
8.65983
8.64598
8.63755
15.1961
14.057
12.7873
11.5836
10.5724
9.82342
9.33813
9.0623
8.92282
8.85196
80.1241
66.0278
53.9227
44.4235
36.5291
29.7921
24.3976
20.5528
18.1812
16.8093
83.0135
65.4604
52.1195
42.2823
34.4112
27.9956
23.2158
20.0939
18.3744
17.5488
86.2835
65.5975
51.5973
41.2875
32.9009
26.1574
21.3435
18.3055
16.6135
15.8073
89.7634
66.0676
51.3535
40.1217
30.8822
23.7028
18.8736
15.9664
14.3349
13.569
95.4415
67.9024
51.8222
39.1131
28.9225
21.4767
16.7927
14.0982
12.5989
11.9047
99.5168
68.1602
50.7081
36.7981
26.3183
19.2363
15.0541
12.7308
11.4395
10.8411
96.6825
63.2778
45.3828
31.5492
22.1202
16.2692
13.0088
11.263
10.3313
9.8875
64.5377
37.9917
24.2906
15.7351
11.4318
9.34875
8.36345
7.86401
7.58582
7.44098
9.79607
9.27411
8.92159
8.73051
8.63856
8.59092
8.56223
8.54362
8.53166
8.52449
14.4128
13.3752
12.2066
11.1018
10.1839
9.51515
9.09015
8.85347
8.73569
8.67386
66.3216
54.9969
45.2956
37.5762
31.0604
25.4848
21.0489
17.9106
15.991
14.9011
64.124
51.712
41.8247
34.3794
28.301
23.3026
19.5751
17.1476
15.8384
15.2587
63.2289
50.0134
40.1946
32.7853
26.5634
21.4586
17.7784
15.4527
14.1862
13.6332
63.1127
49.036
39.055
31.2265
24.5176
19.1848
15.5631
13.3876
12.2035
11.7064
64.9576
49.4119
38.706
29.9855
22.6872
17.2579
13.8236
11.862
10.8083
10.377
65.9586
48.8232
37.3231
27.8829
20.4892
15.4385
12.4566
10.8236
9.94885
9.59076
62.7497
44.8114
33.1138
23.8498
17.3202
13.2577
11.0099
9.83029
9.21464
8.94552
39.9016
25.7012
17.3017
12.1244
9.50818
8.2566
7.65826
7.34973
7.1689
7.07735
9.38305
8.95716
8.6934
8.55904
8.49357
8.45771
8.43514
8.41992
8.40977
8.40368
13.7525
12.7921
11.7065
10.6839
9.84192
9.23627
8.85697
8.64875
8.54575
8.48918
59.4526
49.0262
40.3123
33.3891
27.5502
22.6078
18.7352
16.024
14.3667
13.4246
54.475
44.0132
35.7864
29.5321
24.3798
20.1543
17.0267
14.9981
13.9065
13.4372
50.7579
40.6584
33.0898
27.2659
22.274
18.1451
15.1655
13.2855
12.2737
11.8571
48.0529
38.1644
30.9025
25.0753
19.9529
15.8402
13.0454
11.3772
10.4959
10.1705
47.1763
36.9888
29.5191
23.3171
18
14.0206
11.5116
10.0957
9.3633
9.11181
45.9943
35.3381
27.5639
21.1212
15.9765
12.4606
10.4033
9.29845
8.72924
8.53985
42.3278
31.6102
23.9462
17.8924
13.5602
10.8793
9.41981
8.66954
8.28276
8.13832
25.3634
17.4067
12.514
9.60231
8.13337
7.43591
7.10087
6.92512
6.81269
6.7606
9.01858
8.67389
8.48166
8.38922
8.34326
8.31705
8.29977
8.28762
8.27914
8.27404
13.1397
12.2468
11.2386
10.293
9.52012
8.96953
8.62815
8.44226
8.35002
8.29683
54.8129
44.9553
36.8665
30.4498
25.0541
20.5364
17.0447
14.6187
13.1247
12.2594
48.7833
39.3886
32.0871
26.4793
21.8299
18.0364
15.2517
13.447
12.4572
12.0132
43.6418
35.1594
28.8057
23.8066
19.4663
15.8827
13.3117
11.6938
10.8185
10.4563
39.3724
31.5721
25.7935
21.048
16.8385
13.4783
11.2164
9.87988
9.18927
8.95975
36.6925
29.1243
23.4908
18.754
14.6886
11.6801
9.81015
8.77153
8.25333
8.11218
34.0269
26.5378
20.9739
16.3805
12.7352
10.2838
8.87844
8.14214
7.77746
7.69482
30.049
22.9014
17.7129
13.702
10.8617
9.14013
8.23037
7.77271
7.53697
7.47388
17.3883
12.557
9.66386
8.03501
7.23008
6.85931
6.68588
6.59388
6.52516
6.49937
8.70815
8.42619
8.28365
8.21902
8.18716
8.16846
8.15557
8.1461
8.13914
8.13492
12.5398
11.7096
10.7779
9.90872
9.20293
8.70396
8.39667
8.22989
8.14646
8.09622
50.8654
41.5889
34.0779
28.1102
23.0894
18.9123
15.7131
13.4994
12.12
11.2992
44.6958
36.1388
29.5185
24.3623
20.046
16.5292
13.9594
12.2885
11.3425
10.8812
39.1441
31.7003
26.0755
21.5366
17.5586
14.294
11.9719
10.5143
9.71308
9.36349
34.1534
27.5362
22.5585
18.3829
14.6962
11.807
9.89546
8.77994
8.21131
8.0333
30.4236
24.2519
19.6093
15.6917
12.3988
10.0295
8.59054
7.80627
7.42794
7.3515
26.8604
21.0305
16.7062
13.2024
10.5112
8.76127
7.79013
7.2955
7.06037
7.04097
22.8009
17.5143
13.7427
10.945
9.04098
7.93495
7.37685
7.1024
6.95973
6.94627
13.315
9.99997
8.10173
7.12073
6.66758
6.47477
6.39224
6.34802
6.30448
6.29437
8.43741
8.20078
8.0915
8.04588
8.0241
8.01107
8.00172
7.99451
7.98887
7.98543
11.9365
11.1663
10.3117
9.51985
8.88131
8.43295
8.1582
8.00924
7.93409
7.88744
47.1353
38.5165
31.6043
26.0809
21.4108
17.5329
14.5795
12.5404
11.255
10.4693
41.2488
33.4909
27.4794
22.7084
18.6589
15.3512
12.9378
11.3609
10.4377
9.9473
35.8441
29.1947
24.0872
19.8555
16.1196
13.0787
10.9376
9.59971
8.85302
8.50736
30.6825
24.8102
20.2979
16.4554
13.1131
10.5618
8.90958
7.95936
7.4822
7.33963
26.4706
21.0875
16.9841
13.5528
10.7733
8.84857
7.71277
7.10727
6.82651
6.79179
22.4792
17.5604
13.9225
11.0744
8.99879
7.71206
7.02642
6.68757
6.53483
6.55322
18.5506
14.2703
11.2747
9.18155
7.84972
7.12335
6.77862
6.61277
6.52569
6.54155
11.2917
8.69032
7.2582
6.60186
6.33122
6.23088
6.19525
6.17516