/*--------------------------------*- C++ -*----------------------------------*\
| =========                 |                                                 |
| \\      /  F ield         | foam-extend: Open Source CFD                    |
|  \\    /   O peration     | Version:     4.0                                |
|   \\  /    A nd           | Web:         http://www.foam-extend.org         |
|    \\/     M anipulation  |                                                 |
\*---------------------------------------------------------------------------*/
FoamFile
{
    version     2.0;
    format      ascii;
    class       volScalarField;
    location    "150";
    object      MaU;
}
// * * * * * * * * * * * * * * * * * * * * * * * * * * * * * * * * * * * * * //

dimensions      [0 0 0 0 0 0 0];

internalField   nonuniform List<scalar> 
34480
(
0.496148
0.498918
0.501251
0.503165
0.504635
0.505686
0.506115
0.504939
0.49967
0.493973
0.488674
0.494345
0.49824
0.501118
0.502527
0.501403
0.497356
0.491304
0.480738
0.474898
0.489652
0.494938
0.498698
0.502086
0.504932
0.505623
0.502691
0.497874
0.488837
0.487533
0.493542
0.498446
0.502077
0.505562
0.508721
0.510554
0.50927
0.506326
0.4994
0.50259
0.497339
0.501855
0.50536
0.508857
0.51205
0.514587
0.51499
0.514031
0.509203
0.516487
0.499309
0.503508
0.506946
0.510478
0.513721
0.516625
0.518377
0.51934
0.516593
0.527674
0.501026
0.504968
0.50827
0.511723
0.51494
0.517952
0.520563
0.523239
0.522657
0.537266
0.502807
0.506387
0.509337
0.512334
0.515135
0.517759
0.52046
0.52432
0.526199
0.544449
0.508088
0.51093
0.512972
0.514767
0.516424
0.518253
0.520556
0.525072
0.529896
0.551255
0.507093
0.509591
0.51087
0.511177
0.510637
0.509898
0.509756
0.512288
0.518201
0.542975
0.490494
0.493039
0.494957
0.496173
0.496528
0.495811
0.49332
0.487511
0.478199
0.465345
0.484232
0.490008
0.493673
0.496105
0.49684
0.494598
0.488279
0.47777
0.462092
0.442636
0.485283
0.490697
0.494226
0.497075
0.499161
0.498819
0.493761
0.484228
0.469413
0.453976
0.489045
0.493969
0.497298
0.500172
0.502493
0.503296
0.499997
0.492238
0.478949
0.468124
0.492611
0.497031
0.500186
0.503049
0.505352
0.506805
0.505262
0.499547
0.487875
0.481583
0.494393
0.498426
0.501494
0.50438
0.506702
0.508451
0.508253
0.504622
0.494646
0.492775
0.496026
0.49976
0.502683
0.505482
0.507752
0.509547
0.510153
0.508456
0.500372
0.502877
0.497678
0.501055
0.503665
0.506059
0.507951
0.509379
0.510016
0.509705
0.503882
0.511098
0.502475
0.505191
0.50704
0.508456
0.509414
0.510168
0.510352
0.510582
0.507459
0.519183
0.500976
0.503456
0.504755
0.505072
0.504427
0.503332
0.501849
0.50079
0.499065
0.515056
0.485345
0.487487
0.489001
0.489771
0.489639
0.488449
0.485723
0.480628
0.472317
0.46104
0.480106
0.485656
0.488975
0.490975
0.491181
0.488391
0.481609
0.471001
0.455485
0.433314
0.480982
0.486296
0.489566
0.491997
0.493456
0.492336
0.486481
0.476047
0.459707
0.437179
0.484517
0.48928
0.492312
0.494716
0.496373
0.496306
0.49199
0.48273
0.466396
0.444546
0.487813
0.491994
0.494824
0.497191
0.498835
0.499394
0.496666
0.489024
0.47301
0.452302
0.489369
0.493139
0.495879
0.498262
0.499928
0.500777
0.499252
0.493389
0.477971
0.458769
0.490838
0.494315
0.496926
0.49923
0.500847
0.501757
0.500937
0.496808
0.482367
0.465046
0.492271
0.495431
0.497777
0.499734
0.50102
0.501643
0.500863
0.498034
0.485082
0.470129
0.496418
0.49902
0.500725
0.50187
0.502367
0.502459
0.501356
0.499024
0.487962
0.475077
0.49441
0.496849
0.49811
0.498384
0.497652
0.496346
0.494116
0.491117
0.481445
0.469291
0.480489
0.482076
0.483186
0.483652
0.483329
0.482126
0.47976
0.475809
0.47004
0.462886
0.476065
0.481195
0.484103
0.485723
0.485629
0.48275
0.476223
0.466486
0.45322
0.433858
0.476731
0.48175
0.484672
0.486681
0.48765
0.48615
0.480247
0.470239
0.455826
0.435643
0.479991
0.484413
0.48707
0.488997
0.490067
0.489416
0.484774
0.475485
0.460569
0.440387
0.48301
0.486802
0.489245
0.491113
0.492142
0.492002
0.488689
0.480589
0.465358
0.445381
0.484363
0.487747
0.490108
0.491983
0.49302
0.493108
0.490757
0.48402
0.468658
0.449008
0.485683
0.488804
0.491064
0.492872
0.493859
0.493991
0.492162
0.486764
0.471612
0.452541
0.486917
0.48978
0.49183
0.493349
0.494045
0.493937
0.492093
0.487677
0.47325
0.455185
0.490396
0.492835
0.494376
0.495249
0.495297
0.494717
0.492554
0.488484
0.47516
0.45807
0.487908
0.490283
0.491499
0.491713
0.490859
0.489262
0.486307
0.481779
0.46962
0.451907
0.475895
0.476914
0.477667
0.477949
0.477627
0.476659
0.474896
0.472131
0.468415
0.464338
0.472281
0.476849
0.479307
0.480608
0.480378
0.477691
0.471801
0.463277
0.452281
0.435723
0.472659
0.477222
0.479747
0.481389
0.482029
0.480434
0.474946
0.46596
0.453897
0.436648
0.475533
0.47946
0.481709
0.483225
0.483864
0.482894
0.478414
0.469882
0.457267
0.440045
0.478186
0.48147
0.483515
0.484958
0.485528
0.484921
0.481498
0.473842
0.460746
0.443628
0.47929
0.4822
0.484188
0.485634
0.486195
0.485733
0.483004
0.476346
0.462818
0.445712
0.480426
0.483132
0.485059
0.486455
0.486961
0.486508
0.484101
0.478389
0.464633
0.447559
0.481447
0.483973
0.485748
0.486909
0.487163
0.4865
0.484004
0.478931
0.465347
0.448555
0.484232
0.486481
0.487877
0.48853
0.488255
0.48719
0.484384
0.479463
0.466303
0.449859
0.481277
0.483567
0.484734
0.484894
0.483957
0.482156
0.478792
0.473494
0.461083
0.443173
0.471295
0.471822
0.472289
0.472458
0.472203
0.471499
0.470265
0.468379
0.465995
0.463773
0.468657
0.472601
0.474601
0.475628
0.47536
0.472992
0.467844
0.460453
0.451173
0.436636
0.468773
0.472766
0.474859
0.476171
0.476593
0.475088
0.470229
0.462381
0.452312
0.437476
0.471192
0.474504
0.476317
0.477471
0.477807
0.476728
0.472695
0.465224
0.454823
0.4403
0.473408
0.476087
0.477722
0.478799
0.479039
0.478184
0.474968
0.468199
0.45746
0.443256
0.474225
0.476588
0.478202
0.479283
0.479496
0.478696
0.475932
0.469885
0.458746
0.444708
0.475153
0.47739
0.478991
0.480038
0.480188
0.479355
0.476728
0.471287
0.459803
0.445831
0.475953
0.478095
0.479606
0.480469
0.480397
0.479364
0.476578
0.471464
0.45988
0.446089
0.47805
0.480071
0.481324
0.481797
0.481294
0.479908
0.476811
0.471673
0.460098
0.446561
0.474653
0.476824
0.477931
0.47804
0.477052
0.475132
0.471617
0.466126
0.454904
0.439595
0.4665
0.466637
0.466887
0.466988
0.466809
0.466324
0.465484
0.464209
0.462708
0.461803
0.46509
0.468389
0.469944
0.470731
0.470464
0.468448
0.464032
0.457635
0.449671
0.436717
0.465013
0.468366
0.470014
0.471029
0.471301
0.469976
0.465816
0.459064
0.450581
0.437681
0.466944
0.469563
0.470932
0.471774
0.471906
0.470854
0.467401
0.461059
0.452525
0.440275
0.46867
0.470684
0.471913
0.472684
0.472707
0.471763
0.468931
0.463218
0.454601
0.442946
0.469176
0.470946
0.472198
0.472976
0.472954
0.471992
0.469413
0.464231
0.455398
0.444149
0.469888
0.471617
0.472906
0.473667
0.473573
0.472533
0.469946
0.465106
0.455991
0.445007
0.470461
0.472185
0.473444
0.474066
0.473774
0.472535
0.469736
0.464983
0.455687
0.445043
0.471901
0.47366
0.474771
0.475102
0.474462
0.472913
0.469803
0.464895
0.455399
0.445181
0.468094
0.470109
0.471143
0.471207
0.470211
0.468266
0.464825
0.459573
0.450108
0.438077
0.461398
0.461242
0.461337
0.461395
0.461275
0.460947
0.460377
0.459511
0.45861
0.458729
0.461485
0.464133
0.465261
0.46583
0.465575
0.463892
0.460147
0.454607
0.447684
0.436062
0.461301
0.463972
0.465177
0.465921
0.466081
0.464961
0.461487
0.455738
0.448536
0.437231
0.462735
0.464621
0.465557
0.466135
0.466135
0.465186
0.462343
0.457098
0.450125
0.439797
0.463947
0.465273
0.466115
0.466638
0.46653
0.465608
0.463233
0.458595
0.451809
0.442385
0.464138
0.4653
0.466211
0.466749
0.466584
0.465592
0.463321
0.459082
0.452298
0.443551
0.46464
0.465849
0.466846
0.467381
0.467136
0.46603
0.463651
0.459558
0.452618
0.44436
0.464991
0.46628
0.467302
0.467735
0.467315
0.466009
0.463387
0.459218
0.452107
0.444391
0.465836
0.467307
0.468276
0.468498
0.467797
0.466217
0.463296
0.45889
0.451483
0.444373
0.461661
0.463485
0.464432
0.464462
0.463495
0.461616
0.458416
0.453679
0.446072
0.437125
0.455956
0.455587
0.455575
0.455605
0.455528
0.455304
0.454912
0.454322
0.453851
0.454838
0.457782
0.459765
0.460484
0.460851
0.460605
0.459216
0.456079
0.451301
0.445275
0.434909
0.457565
0.459525
0.460298
0.460796
0.460861
0.459932
0.457092
0.452254
0.44614
0.436265
0.458504
0.459649
0.460178
0.460537
0.460455
0.459636
0.45737
0.453145
0.447516
0.438898
0.4592
0.45985
0.46034
0.460668
0.460495
0.45966
0.457741
0.454116
0.448917
0.441503
0.459093
0.459664
0.460269
0.460622
0.460387
0.459451
0.457539
0.45421
0.449206
0.442741
0.459413
0.460115
0.460848
0.46121
0.46089
0.459817
0.457738
0.454418
0.449369
0.443606
0.459553
0.460414
0.461216
0.461507
0.461032
0.459763
0.457433
0.453941
0.448747
0.443688
0.45989
0.461063
0.461891
0.462035
0.461333
0.459825
0.457214
0.453443
0.447891
0.443463
0.455403
0.457013
0.457861
0.457865
0.456963
0.455222
0.452371
0.448292
0.442387
0.435998
0.450209
0.449689
0.449608
0.449621
0.449571
0.449415
0.449138
0.448737
0.448584
0.450328
0.453956
0.455246
0.455572
0.455754
0.455508
0.454374
0.451789
0.447723
0.442536
0.433448
0.453752
0.454975
0.455335
0.45561
0.45559
0.454822
0.452546
0.448545
0.443421
0.434933
0.4542
0.454618
0.45478
0.454961
0.454833
0.454144
0.452385
0.44908
0.444655
0.437656
0.454398
0.454412
0.454597
0.454779
0.454585
0.453865
0.452359
0.449632
0.445829
0.440299
0.454027
0.454054
0.454395
0.454612
0.454357
0.453527
0.451971
0.449454
0.445979
0.441635
0.454207
0.454441
0.454945
0.455181
0.45484
0.453863
0.452116
0.449518
0.446058
0.442583
0.454157
0.454615
0.455223
0.455411
0.454934
0.453773
0.451784
0.448971
0.445374
0.442681
0.454095
0.454975
0.455668
0.455759
0.455101
0.453732
0.451488
0.448381
0.444356
0.442136
0.449364
0.450747
0.451489
0.451477
0.450665
0.449113
0.446663
0.443281
0.438815
0.434401
0.444242
0.443626
0.443504
0.443508
0.443476
0.443362
0.443161
0.44289
0.442969
0.445364
0.450013
0.450576
0.450528
0.450543
0.450294
0.449375
0.447294
0.443917
0.439572
0.431844
0.449834
0.450298
0.450271
0.450351
0.450256
0.449613
0.447825
0.444605
0.440438
0.433388
0.449793
0.449518
0.449364
0.449407
0.449255
0.448683
0.447343
0.444851
0.441544
0.436177
0.449527
0.448971
0.448906
0.448983
0.448795
0.448196
0.447036
0.445067
0.4425
0.43881
0.44894
0.448492
0.44862
0.448743
0.448498
0.447794
0.446557
0.44472
0.442534
0.440199
0.449033
0.44886
0.449175
0.449323
0.448997
0.448147
0.446721
0.444748
0.442579
0.441195
0.448817
0.448921
0.449362
0.449479
0.449037
0.44802
0.446374
0.444176
0.441853
0.44123
0.448483
0.449092
0.44966
0.449716
0.44913
0.447938
0.44607
0.443582
0.440746
0.440276
0.443586
0.444743
0.445379
0.445359
0.444652
0.443315
0.441274
0.438554
0.435239
0.432272
0.438192
0.437526
0.437386
0.437385
0.437364
0.437279
0.437127
0.436945
0.437183
0.4401
0.445986
0.445793
0.445397
0.44527
0.445019
0.444279
0.44265
0.439952
0.436485
0.430237
0.445808
0.445503
0.445124
0.445042
0.444888
0.444338
0.442958
0.440465
0.437265
0.431765
0.445283
0.444371
0.443959
0.443902
0.443745
0.443273
0.442263
0.440467
0.43822
0.434563
0.444602
0.443561
0.443307
0.443315
0.443146
0.442658
0.441773
0.44041
0.438931
0.437093
0.443857
0.443022
0.442991
0.443052
0.442833
0.442251
0.441283
0.43998
0.438851
0.438435
0.44392
0.443417
0.443586
0.443677
0.443384
0.442667
0.441523
0.440058
0.438898
0.439407
0.443563
0.443374
0.443681
0.443752
0.443362
0.442501
0.441167
0.439488
0.438135
0.439283
0.443092
0.443467
0.443922
0.44396
0.443458
0.442455
0.440935
0.438983
0.437032
0.437889
0.438116
0.439059
0.439592
0.439571
0.438975
0.437857
0.436201
0.434064
0.431632
0.429682
0.432236
0.431566
0.431425
0.431422
0.431408
0.431342
0.431224
0.431098
0.431427
0.434704
0.441928
0.440978
0.440273
0.440032
0.439784
0.439193
0.437956
0.435915
0.433374
0.428747
0.441694
0.440637
0.439956
0.43975
0.439557
0.43908
0.438026
0.436194
0.433978
0.430179
0.440708
0.43924
0.438636
0.438515
0.438366
0.437976
0.437215
0.435991
0.434739
0.432904
0.439675
0.438252
0.437872
0.437839
0.437693
0.4373
0.436623
0.435719
0.435168
0.4352
0.438834
0.437713
0.437577
0.437601
0.437413
0.436936
0.436178
0.435273
0.434972
0.43637
0.438921
0.438177
0.438244
0.4383
0.438047
0.437452
0.436541
0.435462
0.435049
0.437231
0.438442
0.438036
0.438239
0.438284
0.437953
0.437239
0.436171
0.434899
0.434244
0.436855
0.437975
0.438163
0.438522
0.438551
0.438136
0.437312
0.436097
0.434582
0.433261
0.435066
0.433006
0.433759
0.434197
0.434179
0.43369
0.432779
0.431462
0.429811
0.428035
0.426772
0.426598
0.425964
0.425835
0.425831
0.42582
0.425769
0.425675
0.425581
0.425939
0.429373
0.437924
0.436254
0.435295
0.434972
0.434738
0.434269
0.433356
0.431921
0.430335
0.427482
0.437539
0.435791
0.434875
0.434587
0.43438
0.433965
0.43316
0.431898
0.430659
0.428721
0.436148
0.434237
0.433515
0.43336
0.433226
0.432905
0.432326
0.431543
0.431185
0.431266
0.434839
0.433155
0.43271
0.432656
0.432533
0.432212
0.431687
0.431109
0.431301
0.433172
0.433964
0.432668
0.432476
0.432482
0.432321
0.431927
0.431325
0.430696
0.430994
0.43404
0.434118
0.433231
0.433234
0.433269
0.433057
0.432565
0.431833
0.43103
0.431126
0.434709
0.433527
0.432983
0.433114
0.433143
0.432869
0.432286
0.431431
0.430461
0.430265
0.434004
0.433205
0.433257
0.433537
0.433562
0.433227
0.432563
0.431602
0.430429
0.429535
0.431942
0.42832
0.42891
0.429265
0.429251
0.42886
0.428133
0.4271
0.425838
0.424535
0.423717
0.421546
0.420981
0.420872
0.420867
0.420855
0.420815
0.420739
0.420665
0.420997
0.424349
0.434084
0.431788
0.430653
0.430286
0.430074
0.429706
0.429045
0.428128
0.427474
0.426535
0.433421
0.431102
0.430041
0.429715
0.429517
0.429162
0.428542
0.427732
0.427398
0.427452
0.431729
0.429526
0.428764
0.428603
0.428486
0.428221
0.427772
0.427302
0.427677
0.429683
0.430231
0.428422
0.42797
0.427913
0.427805
0.427536
0.427115
0.426748
0.427469
0.43103
0.429377
0.428023
0.42782
0.427818
0.42768
0.427347
0.426852
0.426397
0.42707
0.431487
0.429623
0.428688
0.42866
0.428684
0.428506
0.428099
0.427501
0.426882
0.427271
0.431902
0.428908
0.428308
0.428392
0.428413
0.428189
0.427715
0.427028
0.426272
0.426332
0.430814
0.428869
0.428836
0.429052
0.429073
0.428809
0.428283
0.427527
0.426615
0.425999
0.428684
0.424124
0.424578
0.424859
0.424849
0.424543
0.423974
0.423173
0.422212
0.421248
0.420705
0.417372
0.41691
0.416825
0.416817
0.416803
0.41677
0.41671
0.416647
0.416913
0.419925
0.430557
0.427804
0.426595
0.426224
0.426042
0.425757
0.42528
0.424758
0.424922
0.425967
0.429459
0.426768
0.425671
0.425352
0.425177
0.424883
0.424402
0.423917
0.424318
0.42638
0.427633
0.425331
0.424609
0.424461
0.42436
0.424138
0.423781
0.423511
0.424388
0.428152
0.426035
0.424252
0.423845
0.423793
0.423696
0.423462
0.42311
0.422863
0.423875
0.428791
0.425241
0.423945
0.423763
0.42376
0.42364
0.423355
0.422935
0.422577
0.423405
0.428762
0.425565
0.424671
0.424634
0.42465
0.424502
0.424166
0.423674
0.423176
0.42367
0.428885
0.424689
0.424104
0.424158
0.424172
0.423992
0.423612
0.423061
0.422458
0.422615
0.427385
0.425059
0.424981
0.42514
0.425156
0.424952
0.424542
0.423957
0.423249
0.422814
0.425472
0.420459
0.420797
0.421012
0.421002
0.420767
0.42033
0.419719
0.418995
0.418279
0.417903
0.414346
0.414026
0.413962
0.413953
0.413938
0.413911
0.413864
0.413811
0.413989
0.416417
0.42755
0.424602
0.423447
0.423112
0.422963
0.422744
0.422395
0.422131
0.422879
0.425799
0.425846
0.423065
0.422056
0.421779
0.421637
0.421403
0.421036
0.420761
0.421631
0.425468
0.424119
0.421935
0.421322
0.421201
0.421113
0.420928
0.420643
0.420489
0.421599
0.426666
0.422497
0.42089
0.420558
0.420516
0.42043
0.420229
0.419935
0.419752
0.420818
0.426512
0.421762
0.420625
0.420478
0.420472
0.42037
0.420135
0.419791
0.419497
0.420294
0.425977
0.422089
0.421303
0.421261
0.421266
0.421146
0.420883
0.420498
0.420105
0.420573
0.425785
0.420981
0.420464
0.42049
0.420492
0.420352
0.420062
0.419643
0.419177
0.419334
0.423865
0.421855
0.421754
0.421856
0.421857
0.421702
0.421399
0.42097
0.420449
0.420155
0.422509
0.417293
0.417523
0.41767
0.417653
0.417476
0.417154
0.416709
0.416189
0.415673
0.415416
0.412699
0.412504
0.412468
0.412462
0.41245
0.412427
0.412392
0.412352
0.412443
0.414108
0.425421
0.422631
0.42166
0.421392
0.421274
0.42111
0.420864
0.420747
0.421747
0.426053
0.422957
0.420427
0.419615
0.419401
0.419291
0.419124
0.418875
0.41875
0.419784
0.424734
0.421576
0.419723
0.41925
0.41915
0.419074
0.418938
0.418748
0.418689
0.419789
0.425344
0.419975
0.41866
0.4184
0.418353
0.41828
0.418139
0.417945
0.417844
0.418796
0.42443
0.419242
0.418325
0.418192
0.418165
0.418085
0.417928
0.417708
0.41753
0.418206
0.423438
0.419428
0.41878
0.418711
0.418686
0.418594
0.418425
0.418191
0.41796
0.418378
0.422923
0.418031
0.417603
0.417585
0.417561
0.417455
0.417267
0.417008
0.416725
0.416889
0.420631
0.419462
0.419334
0.419361
0.419332
0.419215
0.419018
0.418758
0.418452
0.41833
0.42017
0.414559
0.414672
0.414739
0.414703
0.414571
0.414355
0.414071
0.413753
0.413439
0.413305
0.412579
0.41251
0.412492
0.412486
0.412479
0.412469
0.412455
0.412444
0.41248
0.413325
0.424973
0.422729
0.422008
0.421789
0.421687
0.42159
0.421481
0.421505
0.422459
0.427047
0.421668
0.41972
0.419131
0.418948
0.418859
0.418782
0.418711
0.418776
0.419757
0.424623
0.420773
0.419383
0.418994
0.418862
0.418792
0.418748
0.418737
0.418872
0.41986
0.42477
0.419202
0.418216
0.417954
0.417853
0.417791
0.417755
0.417757
0.417878
0.418721
0.423309
0.418381
0.417671
0.41748
0.417391
0.417328
0.417287
0.417282
0.41737
0.418024
0.422014
0.418271
0.417738
0.417582
0.417495
0.417424
0.417372
0.417358
0.417422
0.417929
0.421236
0.416689
0.416335
0.416231
0.416154
0.416074
0.415998
0.415943
0.415941
0.416246
0.418804
0.418667
0.418483
0.418405
0.418327
0.418236
0.418142
0.418066
0.418033
0.418187
0.419459
0.412512
0.412499
0.412477
0.412409
0.412309
0.412187
0.412059
0.411953
0.41187
0.411916
0.414042
0.413962
0.413912
0.413878
0.413867
0.413881
0.413921
0.413989
0.414064
0.414348
0.427509
0.425981
0.425408
0.425133
0.425005
0.424989
0.425091
0.425371
0.426218
0.429652
0.423443
0.422155
0.421648
0.421394
0.421288
0.421313
0.421481
0.421853
0.422781
0.426232
0.422825
0.421785
0.421324
0.421079
0.420988
0.421052
0.42129
0.421765
0.422776
0.426078
0.421214
0.420392
0.42
0.419786
0.419714
0.419791
0.420043
0.42053
0.421502
0.424437
0.420177
0.419508
0.419167
0.418976
0.418911
0.418982
0.41922
0.419687
0.420594
0.423106
0.41966
0.4191
0.418799
0.418626
0.41856
0.418613
0.418819
0.419245
0.420084
0.422212
0.418135
0.417739
0.417512
0.417369
0.4173
0.417316
0.417451
0.417764
0.418406
0.420025
0.420455
0.42014
0.419946
0.419817
0.419738
0.419722
0.4198
0.420028
0.420541
0.421618
0.411646
0.411517
0.411412
0.411315
0.411233
0.411178
0.411172
0.411244
0.4114
0.411693
0.341418
0.32041
0.325133
0.360386
0.291848
0.265852
0.272026
0.317621
0.2632
0.233274
0.244401
0.303065
0.240136
0.207405
0.224626
0.295428
0.220773
0.186636
0.210836
0.292357
0.202926
0.168467
0.200151
0.2901
0.187477
0.154239
0.193536
0.289585
0.172049
0.141392
0.188366
0.288142
0.157659
0.132205
0.18681
0.289889
0.141393
0.122869
0.184628
0.291304
0.388649
0.376633
0.375483
0.384642
0.353232
0.336885
0.332609
0.339499
0.334295
0.313311
0.3085
0.319409
0.319427
0.293813
0.288314
0.30352
0.306932
0.276683
0.270234
0.289651
0.295099
0.259986
0.252108
0.275493
0.285046
0.245077
0.235472
0.262654
0.275556
0.230821
0.219141
0.249985
0.268458
0.219777
0.206072
0.240819
0.259128
0.20805
0.189676
0.226299
0.441829
0.437772
0.437026
0.439423
0.39836
0.390801
0.388375
0.390768
0.389404
0.379587
0.376672
0.380338
0.381844
0.369629
0.366338
0.3718
0.373694
0.359008
0.355324
0.362799
0.36362
0.346258
0.342006
0.351503
0.353516
0.333366
0.328427
0.339806
0.343046
0.320184
0.314473
0.327501
0.334842
0.310415
0.304516
0.318916
0.324665
0.302656
0.297275
0.310357
0.450829
0.44782
0.44742
0.449601
0.409489
0.403878
0.402151
0.404104
0.40602
0.399354
0.397257
0.399475
0.404203
0.396379
0.393966
0.396648
0.401415
0.392332
0.389612
0.392865
0.395979
0.385486
0.382414
0.386322
0.389592
0.377595
0.374153
0.378815
0.382055
0.36859
0.364792
0.370238
0.376014
0.361888
0.358171
0.364358
0.3663
0.354877
0.351384
0.355916
0.455438
0.452964
0.452786
0.454927
0.415159
0.410447
0.409244
0.411364
0.413634
0.408374
0.406958
0.409188
0.414316
0.408516
0.406871
0.409184
0.414676
0.408271
0.406333
0.408673
0.412683
0.405554
0.403257
0.405606
0.409647
0.401712
0.399058
0.401467
0.405343
0.396628
0.393673
0.396199
0.402579
0.393682
0.390785
0.393471
0.395984
0.389956
0.387292
0.388199
0.456071
0.453803
0.453727
0.455867
0.417332
0.412986
0.412032
0.41428
0.416981
0.412358
0.411324
0.413689
0.418732
0.41389
0.412758
0.415164
0.420511
0.41541
0.414086
0.4164
0.420489
0.415055
0.413441
0.415547
0.419782
0.413964
0.412023
0.41389
0.418078
0.41191
0.409678
0.411325
0.418262
0.41227
0.410043
0.411453
0.4139
0.410777
0.408712
0.408085
0.455133
0.45306
0.453043
0.455098
0.418232
0.414151
0.413343
0.415602
0.41864
0.414431
0.413619
0.416004
0.421041
0.416813
0.416003
0.418437
0.423521
0.419238
0.418342
0.4207
0.424484
0.420096
0.419018
0.421168
0.425083
0.420568
0.419254
0.421117
0.425094
0.420504
0.418967
0.420498
0.42761
0.423472
0.421929
0.422966
0.424387
0.422983
0.421509
0.420312
0.453174
0.451327
0.451349
0.453244
0.41838
0.414553
0.413845
0.416035
0.419321
0.415443
0.414764
0.417075
0.422212
0.418435
0.417818
0.420183
0.425188
0.421488
0.420865
0.423183
0.426794
0.423135
0.422424
0.424584
0.428177
0.424552
0.423706
0.425622
0.42925
0.425727
0.424745
0.426339
0.433315
0.430427
0.429429
0.430351
0.429985
0.42965
0.428669
0.427322
0.450603
0.449039
0.449089
0.450748
0.418228
0.414696
0.414074
0.416134
0.419529
0.415985
0.415403
0.417571
0.422795
0.419419
0.418931
0.421152
0.426155
0.422936
0.42249
0.424686
0.42827
0.425186
0.424721
0.426801
0.43022
0.427278
0.426756
0.428642
0.43196
0.429234
0.42865
0.430247
0.436738
0.43474
0.434118
0.434928
0.432453
0.432789
0.432171
0.430836
0.447652
0.44643
0.446502
0.447852
0.418012
0.414824
0.414287
0.416174
0.419544
0.416366
0.41587
0.417848
0.423093
0.42012
0.419735
0.421764
0.426735
0.423967
0.423652
0.425669
0.429247
0.426674
0.426383
0.428311
0.431623
0.429261
0.428965
0.430732
0.433747
0.431673
0.431364
0.432863
0.438575
0.437263
0.436897
0.437538
0.432855
0.433608
0.433241
0.431961
0.444481
0.443663
0.443752
0.444721
0.417912
0.415117
0.414669
0.416353
0.419572
0.416801
0.416393
0.418153
0.423327
0.420785
0.420497
0.422303
0.427146
0.424842
0.424642
0.426439
0.429932
0.427863
0.427713
0.429434
0.432596
0.430783
0.430661
0.432233
0.434867
0.433386
0.433275
0.43458
0.439281
0.43856
0.438373
0.438768
0.431855
0.432863
0.43266
0.431439
0.441207
0.440848
0.440951
0.441478
0.418057
0.4157
0.415351
0.416814
0.419763
0.417443
0.417133
0.418659
0.423659
0.421589
0.421404
0.422968
0.427551
0.425746
0.42566
0.427207
0.430481
0.428945
0.428926
0.430391
0.433293
0.432048
0.432072
0.433378
0.435495
0.434607
0.434652
0.435672
0.439164
0.438999
0.43894
0.439015
0.4299
0.431051
0.430953
0.429788
0.437918
0.438061
0.438176
0.438215
0.418556
0.416674
0.416434
0.417672
0.42024
0.418412
0.418214
0.419505
0.424221
0.422667
0.422598
0.423908
0.428076
0.426821
0.426857
0.428125
0.431016
0.430066
0.430177
0.431334
0.433834
0.433203
0.433363
0.434327
0.435766
0.435503
0.435677
0.436319
0.438436
0.438821
0.438856
0.438544
0.427326
0.428538
0.428505
0.4274
0.434684
0.43535
0.435478
0.435002
0.419503
0.418129
0.418013
0.419032
0.421109
0.419812
0.419744
0.420806
0.425122
0.424136
0.424199
0.425241
0.428817
0.428176
0.428346
0.429297
0.431625
0.431326
0.431569
0.432353
0.434298
0.434343
0.434626
0.435162
0.43576
0.436167
0.436447
0.436614
0.43725
0.438181
0.438286
0.437535
0.42441
0.42562
0.425623
0.42459
0.431559
0.432735
0.432876
0.431891
0.420997
0.420159
0.420183
0.420997
0.422463
0.421741
0.421823
0.422658
0.426448
0.426093
0.426302
0.42705
0.429836
0.42988
0.430192
0.430768
0.432343
0.432768
0.43314
0.433464
0.434698
0.435479
0.435871
0.435875
0.435489
0.436601
0.43696
0.436555
0.435711
0.437168
0.437322
0.436109
0.4214
0.422549
0.422569
0.421624
0.42858
0.430206
0.430359
0.428912
0.423153
0.422885
0.423064
0.423676
0.424393
0.424302
0.42455
0.425139
0.428256
0.428604
0.428969
0.429363
0.431134
0.431942
0.432392
0.432499
0.433129
0.434343
0.434825
0.434575
0.434957
0.436512
0.436983
0.436346
0.434871
0.43669
0.437093
0.436038
0.433876
0.435811
0.435998
0.434338
0.418505
0.419537
0.419561
0.418731
0.425743
0.427695
0.427853
0.42606
0.426098
0.426457
0.426801
0.427175
0.42696
0.427581
0.428002
0.428271
0.430526
0.431665
0.432178
0.432103
0.432612
0.43425
0.434814
0.434313
0.433832
0.435862
0.436415
0.435468
0.434885
0.437198
0.437702
0.436345
0.433732
0.436197
0.436603
0.434879
0.431761
0.434084
0.434292
0.43226
0.415867
0.41673
0.416749
0.416072
0.422949
0.425034
0.425195
0.423267
0.42995
0.431028
0.431529
0.431543
0.430155
0.431588
0.432159
0.431945
0.433092
0.435082
0.435703
0.434988
0.43403
0.436491
0.437109
0.435868
0.434195
0.436963
0.437525
0.435822
0.434221
0.437162
0.43765
0.435599
0.431897
0.434835
0.435207
0.432916
0.429421
0.431982
0.432205
0.429955
0.413577
0.414234
0.414255
0.413763
0.420278
0.422117
0.422245
0.420512
0.434691
0.436579
0.437191
0.436614
0.433726
0.436
0.436651
0.435734
0.4355
0.43825
0.438897
0.437431
0.435007
0.438068
0.438652
0.4367
0.433964
0.437158
0.437653
0.435364
0.432879
0.436075
0.43649
0.434023
0.42955
0.432571
0.432882
0.430374
0.427423
0.429892
0.430109
0.427956
0.412008
0.41242
0.412443
0.412163
0.418389
0.419633
0.419711
0.418569
0.43938
0.441869
0.442494
0.441279
0.436642
0.439348
0.439955
0.438454
0.436957
0.43986
0.440414
0.438579
0.435207
0.43816
0.438624
0.436545
0.433274
0.436153
0.436535
0.434366
0.431514
0.434247
0.434567
0.432431
0.427989
0.430442
0.430687
0.428686
0.427372
0.429338
0.429539
0.427957
0.411723
0.411896
0.411933
0.411875
0.456601
0.463641
0.470756
0.475504
0.479987
0.48373
0.48682
0.48945
0.491741
0.493966
0.421369
0.426613
0.438645
0.447106
0.454845
0.461678
0.467638
0.47273
0.477308
0.482155
0.429204
0.429513
0.443527
0.452011
0.459802
0.4663
0.471593
0.475765
0.479389
0.483501
0.440512
0.435811
0.45138
0.45942
0.467012
0.472998
0.477623
0.481065
0.484012
0.487614
0.451465
0.441918
0.458824
0.466273
0.473618
0.479037
0.483063
0.485988
0.488515
0.491731
0.458032
0.444399
0.462759
0.46978
0.477026
0.482007
0.485692
0.488452
0.490942
0.49403
0.462495
0.445513
0.465424
0.472098
0.479347
0.484004
0.487607
0.490475
0.493098
0.496121
0.463223
0.443888
0.465592
0.47217
0.47974
0.484517
0.488612
0.492026
0.495082
0.49828
0.465775
0.445188
0.469289
0.476315
0.484851
0.490184
0.494863
0.498512
0.501563
0.504509
0.454269
0.43603
0.461636
0.469498
0.479357
0.48588
0.491718
0.496321
0.500059
0.503354
0.41825
0.437944
0.452566
0.462925
0.47032
0.475704
0.479773
0.482994
0.485629
0.48799
0.371242
0.400566
0.421901
0.435797
0.446148
0.45451
0.461397
0.46702
0.471836
0.476728
0.367989
0.402559
0.426409
0.440658
0.451012
0.459083
0.46535
0.470103
0.474022
0.47825
0.370297
0.40845
0.43385
0.447938
0.458069
0.465691
0.471336
0.475413
0.478695
0.4824
0.374025
0.414406
0.440877
0.454647
0.464523
0.471645
0.476717
0.480298
0.483185
0.486482
0.375845
0.417458
0.444865
0.458357
0.468063
0.474752
0.479438
0.482818
0.48564
0.488767
0.377409
0.419532
0.447866
0.461112
0.470715
0.477046
0.481556
0.484975
0.487891
0.49092
0.377354
0.419495
0.448828
0.461938
0.471652
0.477979
0.482824
0.486681
0.489945
0.49307
0.379325
0.422168
0.45299
0.466404
0.476745
0.48346
0.488753
0.492813
0.496077
0.498962
0.3727
0.416623
0.447505
0.460846
0.471852
0.479376
0.485539
0.490344
0.494164
0.497259
0.447429
0.454089
0.459834
0.465002
0.469455
0.47318
0.476296
0.478943
0.481208
0.483247
0.401433
0.415324
0.426602
0.435942
0.444201
0.451526
0.457794
0.463013
0.467595
0.472411
0.396303
0.4136
0.427256
0.438
0.447092
0.454685
0.460701
0.465336
0.469265
0.473605
0.395048
0.415486
0.431294
0.443076
0.452659
0.460265
0.465981
0.470191
0.473668
0.47757
0.394441
0.417678
0.435525
0.44814
0.458032
0.465505
0.470895
0.47479
0.477983
0.4815
0.392086
0.41778
0.437606
0.450909
0.461004
0.468288
0.47344
0.477216
0.480359
0.483667
0.389758
0.417593
0.439328
0.453184
0.46341
0.470502
0.475545
0.479366
0.48257
0.48573
0.386712
0.416289
0.439825
0.454116
0.464515
0.471649
0.476966
0.481129
0.484568
0.487718
0.38643
0.418017
0.443614
0.458551
0.46941
0.476809
0.482408
0.486693
0.490111
0.492983
0.379155
0.412778
0.438726
0.453581
0.464778
0.472754
0.479012
0.483882
0.487736
0.490724
0.455992
0.459801
0.462926
0.466092
0.469012
0.471569
0.473798
0.475754
0.477451
0.478996
0.412075
0.422173
0.430217
0.43729
0.443921
0.450035
0.455375
0.459889
0.463959
0.468474
0.408817
0.420489
0.42995
0.438177
0.445636
0.452119
0.457362
0.461486
0.465105
0.469308
0.408158
0.421552
0.432519
0.441825
0.449963
0.456709
0.46191
0.465846
0.469189
0.473034
0.407181
0.422491
0.435183
0.445567
0.454287
0.461181
0.466303
0.470115
0.473295
0.476783
0.403914
0.421346
0.43595
0.447365
0.456552
0.463501
0.468568
0.472381
0.475559
0.478823
0.400197
0.419925
0.436565
0.448929
0.458485
0.465447
0.47053
0.47444
0.477682
0.480778
0.395763
0.417747
0.436398
0.449565
0.459452
0.466575
0.471942
0.476147
0.479563
0.482595
0.393854
0.418426
0.439352
0.453414
0.463746
0.471108
0.47669
0.480998
0.484409
0.487176
0.385692
0.412836
0.434269
0.448368
0.458972
0.46681
0.472926
0.477712
0.481491
0.484338
0.460929
0.463248
0.464858
0.466702
0.468497
0.47012
0.471578
0.47289
0.474021
0.475054
0.41926
0.427696
0.433741
0.439077
0.444291
0.449248
0.453643
0.457404
0.46089
0.465006
0.417684
0.426754
0.433455
0.439509
0.44532
0.450554
0.454868
0.458336
0.461505
0.465432
0.418364
0.427987
0.435447
0.442314
0.448759
0.45433
0.458744
0.462183
0.465205
0.468826
0.418543
0.428834
0.43734
0.445154
0.452234
0.458092
0.462589
0.466053
0.469006
0.472289
0.416283
0.427513
0.437368
0.446185
0.453826
0.45989
0.464483
0.468057
0.471057
0.474118
0.413237
0.425756
0.437232
0.447064
0.455196
0.461435
0.46617
0.469905
0.47299
0.475888
0.409337
0.423325
0.436519
0.44726
0.455836
0.462357
0.467411
0.471424
0.47466
0.477481