/*--------------------------------*- C++ -*----------------------------------*\
| =========                 |                                                 |
| \\      /  F ield         | foam-extend: Open Source CFD                    |
|  \\    /   O peration     | Version:     4.0                                |
|   \\  /    A nd           | Web:         http://www.foam-extend.org         |
|    \\/     M anipulation  |                                                 |
\*---------------------------------------------------------------------------*/
FoamFile
{
    version     2.0;
    format      ascii;
    class       volScalarField;
    location    "150";
    object      p;
}
// * * * * * * * * * * * * * * * * * * * * * * * * * * * * * * * * * * * * * //

dimensions      [1 -1 -2 0 0 0 0];

internalField   nonuniform List<scalar> 
34480
(
112005
111811
111661
111543
111469
111452
111536
111849
112290
111896
110979
110811
110701
110614
110554
110523
110558
110785
111204
110132
109810
109650
109572
109515
109485
109472
109499
109647
110048
108248
108776
108641
108584
108531
108500
108486
108506
108574
108943
106456
108049
107914
107846
107769
107707
107671
107693
107706
108047
104949
107782
107620
107509
107384
107272
107197
107218
107204
107519
103856
107711
107483
107305
107122
106961
106851
106874
106874
107175
103017
108063
107749
107486
107246
107046
106916
106939
106975
107254
102638
108373
107974
107653
107394
107198
107075
107084
107121
107315
102339
108670
108233
107911
107698
107603
107629
107794
108009
108250
102988
112219
112051
111938
111868
111850
111898
112043
112333
112855
113537
111246
111101
111017
110969
110963
111005
111125
111398
112006
112599
110234
110092
110025
109995
110013
110069
110192
110456
111197
111873
109392
109267
109211
109177
109183
109228
109345
109571
110405
111101
108823
108692
108624
108565
108537
108550
108663
108858
109765
110426
108649
108492
108386
108286
108213
108184
108290
108468
109435
109996
108617
108402
108241
108095
107983
107921
108027
108212
109231
109666
108956
108668
108438
108247
108108
108035
108139
108343
109382
109674
109206
108847
108573
108369
108240
108189
108298
108503
109479
109724
109480
109089
108813
108644
108589
108650
108869
109204
110174
110484
112521
112391
112313
112275
112288
112360
112508
112751
113114
113561
111646
111527
111465
111442
111462
111533
111675
111924
112377
112847
110775
110657
110607
110599
110642
110728
110885
111156
111755
112378
110100
109991
109946
109933
109967
110044
110203
110471
111205
111972
109657
109539
109481
109445
109452
109505
109666
109931
110796
111686
109551
109406
109315
109247
109221
109244
109406
109675
110665
111639
109542
109346
109210
109106
109053
109057
109227
109515
110622
111656
109857
109599
109406
109267
109197
109200
109383
109696
110882
111957
110051
109733
109504
109353
109289
109316
109527
109876
111054
112243
110301
109954
109720
109590
109575
109679
109963
110420
111593
112977
112885
112794
112744
112726
112746
112808
112919
113078
113285
113499
112128
112042
112001
111994
112025
112097
112219
112400
112671
112937
111400
111310
111275
111280
111332
111426
111575
111792
112183
112570
110879
110791
110756
110755
110800
110891
111053
111291
111815
112339
110548
110446
110397
110377
110402
110477
110651
110910
111582
112261
110499
110369
110290
110245
110247
110304
110488
110775
111607
112440
110509
110333
110216
110143
110127
110177
110379
110702
111694
112684
110799
110569
110406
110305
110281
110338
110566
110927
112047
113189
110944
110661
110470
110360
110342
110422
110688
111114
112290
113644
111169
110860
110662
110565
110579
110712
111029
111541
112732
114354
113328
113270
113241
113233
113252
113297
113371
113465
113578
113683
112694
112640
112617
112621
112653
112714
112806
112926
113082
113229
112098
112038
112018
112032
112084
112171
112295
112453
112689
112912
111713
111649
111625
111634
111682
111772
111918
112107
112444
112756
111478
111395
111357
111350
111385
111468
111633
111858
112321
112747
111472
111361
111296
111270
111291
111366
111551
111819
112436
113001
111496
111341
111244
111196
111208
111285
111495
111813
112597
113328
111761
111558
111422
111353
111362
111454
111699
112069
113002
113915
111864
111616
111457
111379
111395
111511
111800
112249
113286
114442
112065
111793
111626
111555
111592
111744
112069
112589
113660
115096
113862
113829
113814
113812
113826
113855
113899
113951
114009
114056
113347
113319
113312
113322
113350
113396
113458
113528
113609
113679
112868
112834
112828
112848
112895
112968
113062
113167
113303
113422
112597
112556
112544
112559
112606
112687
112808
112950
113161
113340
112441
112379
112351
112355
112394
112476
112621
112806
113116
113374
112469
112378
112326
112314
112347
112431
112601
112836
113276
113639
112500
112368
112288
112260
112289
112383
112585
112875
113463
113967
112739
112564
112452
112408
112438
112550
112792
113142
113875
114546
112807
112591
112461
112409
112447
112581
112868
113300
114155
115059
112985
112748
112609
112559
112610
112770
113084
113574
114473
115618
114495
114478
114472
114473
114482
114500
114524
114551
114579
114599
114090
114081
114084
114097
114120
114153
114191
114227
114265
114292
113710
113698
113702
113724
113765
113822
113890
113954
114028
114082
113532
113510
113507
113526
113568
113636
113732
113833
113964
114062
113437
113393
113375
113386
113426
113500
113622
113767
113978
114136
113486
113414
113374
113373
113412
113495
113646
113843
114158
114396
113518
113408
113344
113330
113370
113468
113652
113905
114342
114690
113729
113581
113491
113465
113509
113627
113853
114166
114727
115212
113767
113582
113476
113443
113494
113633
113901
114290
114965
115644
113924
113720
113605
113572
113631
113788
114078
114514
115232
116092
115228
115220
115218
115221
115227
115237
115250
115263
115275
115282
114921
114924
114933
114947
114965
114988
115011
115027
115042
115045
114626
114628
114639
114661
114694
114738
114784
114821
114859
114876
114514
114507
114510
114530
114567
114622
114695
114765
114848
114895
114463
114435
114425
114439
114477
114542
114640
114752
114898
114993
114521
114467
114438
114444
114484
114562
114689
114849
115079
115239
114547
114458
114408
114404
114448
114543
114704
114917
115242
115488
114730
114608
114536
114523
114573
114689
114889
115158
115581
115932
114739
114585
114500
114480
114537
114671
114908
115241
115756
116252
114876
114704
114610
114590
114651
114799
115054
115426
115978
116600
116054
116051
116052
116055
116059
116065
116071
116076
116082
116082
115837
115846
115856
115869
115884
115900
115914
115919
115924
115917
115611
115622
115635
115655
115681
115714
115747
115767
115787
115785
115544
115545
115551
115570
115600
115644
115700
115750
115805
115824
115519
115502
115497
115512
115546
115601
115678
115765
115870
115927
115574
115534
115513
115523
115561
115631
115735
115864
116035
116143
115585
115515
115477
115479
115522
115610
115746
115919
116162
116339
115739
115640
115584
115580
115630
115737
115908
116131
116447
116699
115720
115593
115526
115517
115572
115695
115897
116171
116554
116906
115839
115696
115621
115610
115669
115802
116019
116324
116737
117174
116962
116961
116964
116966
116969
116973
116976
116978
116980
116978
116827
116836
116845
116856
116867
116879
116889
116892
116895
116885
116659
116671
116683
116699
116720
116745
116769
116784
116798
116790
116614
116618
116624
116640
116664
116699
116742
116781
116824
116832
116600
116588
116586
116600
116628
116674
116736
116805
116887
116924
116642
116611
116596
116606
116641
116701
116787
116889
117020
117097
116631
116574
116545
116550
116591
116668
116781
116921
117104
117231
116753
116675
116632
116632
116680
116774
116916
117095
117331
117509
116706
116603
116551
116548
116600
116707
116873
117092
117373
117618
116808
116692
116632
116627
116682
116797
116976
117218
117521
117823
117937
117937
117939
117941
117943
117945
117947
117949
117950
117948
117874
117880
117886
117893
117902
117911
117920
117925
117930
117922
117756
117764
117772
117783
117798
117817
117838
117853
117869
117863
117714
117715
117718
117730
117748
117776
117812
117847
117888
117897
117697
117686
117683
117694
117718
117757
117808
117866
117936
117967
117716
117690
117678
117687
117717
117769
117840
117924
118030
118090
117677
117631
117608
117613
117650
117716
117809
117922
118064
118158
117769
117706
117672
117676
117718
117798
117915
118057
118235
118360
117691
117609
117568
117568
117615
117705
117840
118011
118216
118384
117777
117684
117638
117637
117685
117782
117926
118114
118333
118538
118955
118955
118956
118957
118959
118961
118963
118965
118967
118965
118955
118955
118956
118959
118965
118974
118984
118992
119004
119001
118880
118881
118882
118887
118897
118913
118933
118951
118974
118976
118826
118821
118818
118825
118839
118862
118894
118930
118975
118992
118795
118782
118775
118783
118803
118836
118880
118933
119001
119034
118786
118761
118749
118755
118781
118826
118886
118958
119050
119103
118714
118675
118655
118660
118691
118748
118825
118918
119033
119108
118776
118726
118699
118703
118739
118806
118901
119015
119152
119244
118668
118602
118570
118572
118611
118686
118793
118926
119077
119194
118741
118667
118631
118632
118673
118752
118866
119010
119167
119308
119990
119989
119989
119989
119990
119992
119995
119997
120001
120001
120039
120033
120028
120027
120030
120038
120050
120064
120082
120088
120001
119993
119987
119986
119992
120005
120026
120050
120082
120095
119925
119911
119903
119904
119914
119935
119965
120005
120057
120085
119876
119856
119846
119848
119865
119894
119935
119988
120056
120097
119834
119808
119794
119797
119819
119858
119911
119977
120062
120116
119729
119693
119675
119678
119704
119752
119817
119898
119996
120062
119765
119722
119700
119703
119733
119789
119866
119960
120071
120142
119625
119571
119546
119547
119580
119641
119725
119829
119944
120029
119688
119630
119602
119604
119637
119701
119790
119899
120014
120112
121006
121004
121003
121002
121003
121005
121008
121012
121017
121019
121089
121076
121065
121060
121061
121069
121083
121103
121127
121142
121085
121067
121053
121048
121050
121062
121083
121114
121154
121180
120982
120958
120942
120938
120946
120965
120996
121041
121099
121141
120912
120885
120869
120868
120881
120908
120948
121002
121073
121124
120840
120810
120792
120792
120810
120845
120894
120958
121040
121098
120705
120669
120650
120651
120672
120713
120770
120843
120932
120995
120719
120681
120661
120662
120687
120733
120798
120877
120971
121033
120548
120502
120481
120482
120509
120558
120625
120708
120798
120865
120608
120562
120539
120540
120567
120618
120687
120771
120856
120928
121963
121960
121957
121956
121957
121959
121963
121968
121973
121977
122060
122039
122023
122015
122014
122022
122039
122063
122095
122119
122088
122061
122041
122031
122031
122043
122066
122102
122149
122187
121956
121924
121903
121894
121900
121919
121951
121999
122063
122117
121871
121838
121817
121812
121822
121848
121888
121944
122018
122078
121775
121740
121720
121717
121731
121762
121809
121872
121954
122016
121617
121581
121561
121559
121576
121612
121663
121730
121814
121877
121620
121584
121565
121565
121584
121622
121677
121746
121830
121889
121419
121380
121362
121362
121382
121421
121475
121543
121616
121675
121484
121447
121429
121429
121450
121490
121544
121609
121674
121730
122813
122808
122805
122804
122804
122807
122811
122817
122823
122829
122898
122871
122852
122841
122840
122848
122867
122895
122932
122965
122961
122927
122902
122889
122889
122901
122925
122965
123017
123065
122806
122767
122741
122730
122734
122752
122785
122836
122904
122966
122715
122677
122653
122645
122653
122677
122716
122774
122849
122915
122607
122570
122547
122541
122552
122580
122623
122685
122765
122832
122442
122405
122385
122381
122394
122424
122469
122531
122609
122676
122445
122412
122394
122392
122406
122437
122483
122544
122619
122679
122220
122186
122170
122169
122184
122215
122258
122314
122374
122430
122304
122275
122259
122259
122275
122305
122347
122398
122449
122494
123509
123503
123499
123497
123497
123500
123505
123512
123519
123526
123541
123512
123491
123479
123477
123486
123506
123537
123576
123617
123646
123609
123583
123569
123568
123579
123604
123645
123697
123751
123478
123438
123411
123399
123401
123418
123449
123498
123563
123629
123400
123362
123338
123328
123333
123353
123388
123442
123512
123579
123299
123263
123242
123234
123241
123263
123300
123355
123427
123496
123148
123116
123098
123093
123102
123124
123160
123213
123280
123346
123170
123142
123126
123123
123133
123156
123192
123242
123304
123363
122928
122901
122889
122888
122899
122921
122952
122995
123042
123095
123056
123035
123023
123023
123035
123056
123087
123124
123163
123198
124012
124005
124001
123999
123999
124001
124006
124012
124019
124027
123916
123888
123870
123859
123858
123865
123882
123910
123946
123989
124069
124037
124015
124003
124002
124010
124030
124062
124106
124156
123910
123878
123858
123849
123849
123859
123881
123917
123965
124022
123868
123839
123821
123814
123816
123828
123850
123886
123936
123993
123800
123774
123759
123754
123758
123770
123792
123828
123876
123933
123692
123671
123660
123657
123662
123675
123696
123727
123769
123822
123746
123727
123718
123717
123723
123737
123757
123787
123827
123875
123502
123486
123481
123482
123489
123502
123520
123544
123570
123612
123726
123715
123709
123711
123719
123732
123750
123772
123795
123817
124282
124278
124275
124274
124273
124274
124276
124278
124283
124291
123906
123894
123890
123889
123889
123892
123897
123905
123918
123943
124114
124103
124099
124098
124098
124099
124101
124107
124118
124139
124006
124000
124000
124001
124002
124003
124002
124003
124008
124024
124022
124018
124019
124022
124023
124023
124022
124021
124022
124036
124013
124010
124013
124017
124019
124020
124018
124016
124013
124025
123973
123973
123978
123982
123986
123987
123986
123982
123975
123983
124055
124052
124055
124060
124064
124068
124069
124069
124066
124078
123829
123830
123835
123840
123846
123851
123853
123852
123845
123853
124248
124248
124250
124255
124261
124268
124274
124278
124281
124282
124258
124265
124270
124273
124274
124273
124269
124262
124255
124239
123383
123431
123465
123485
123494
123493
123479
123452
123407
123340
123652
123700
123732
123752
123759
123755
123738
123705
123650
123569
123652
123704
123739
123758
123765
123758
123737
123696
123629
123528
123743
123791
123821
123838
123844
123837
123815
123773
123703
123595
123807
123850
123877
123892
123897
123890
123870
123830
123761
123651
123844
123882
123906
123919
123924
123919
123901
123865
123799
123692
123938
123966
123984
123995
123999
123997
123985
123958
123906
123817
123761
123786
123801
123811
123816
123816
123808
123788
123746
123671
124470
124481
124490
124496
124501
124504
124502
124494
124479
124453
121328
122446
122504
121718
122118
123457
123549
122672
122959
124471
124578
123510
123659
125299
125451
124225
124377
126106
126321
124963
125271
127071
127389
125934
126159
128003
128443
126915
127150
129014
129598
128029
127518
129356
130072
128528
127387
129327
130402
129182
114667
114854
114938
114929
115083
115463
115563
115407
115759
116287
116406
116144
116530
117199
117331
116949
117470
118270
118410
117907
118687
119607
119762
119158
119953
120977
121152
120471
121395
122501
122712
121994
122428
123583
123837
123122
123138
124346
124636
123865
114027
114122
114170
114176
113873
114078
114151
114131
114094
114393
114485
114427
114502
114895
115004
114900
115141
115632
115757
115598
116124
116716
116860
116644
117220
117912
118078
117805
118567
119347
119543
119225
119648
120483
120712
120362
120560
121432
121697
121314
113613
113640
113661
113675
113199
113249
113270
113280
113139
113242
113277
113275
113330
113497
113550
113528
113771
114010
114086
114042
114568
114888
114993
114925
115498
115901
116036
115941
116705
117186
117353
117233
117699
118231
118428
118290
118533
119099
119327
119178
113729
113741
113749
113756
113300
113303
113300
113303
113083
113104
113103
113103
113111
113165
113175
113169
113368
113469
113498
113490
113975
114133
114190
114180
114719
114940
115027
115014
115755
116040
116161
116144
116645
116975
117130
117112
117409
117772
117961
117942
114073
114077
114080
114082
113676
113660
113645
113640
113439
113420
113399
113392
113427
113419
113401
113394
113585
113603
113598
113597
114041
114100
114118
114125
114614
114720
114766
114782
115480
115636
115714
115738
116244
116444
116555
116584
116885
117115
117256
117285
114605
114605
114606
114606
114269
114249
114230
114220
114050
114019
113989
113975
114054
114024
113993
113979
114186
114168
114145
114138
114551
114558
114552
114556
114986
115027
115044
115060
115686
115767
115813
115841
116294
116414
116489
116525
116793
116936
117033
117070
115282
115282
115281
115280
115017
114997
114978
114966
114828
114795
114763
114745
114855
114819
114784
114765
114983
114954
114923
114909
115293
115280
115261
115257
115628
115637
115636
115644
116184
116224
116246
116265
116619
116691
116738
116765
116993
117082
117145
117177
116081
116080
116078
116077
115892
115874
115857
115845
115739
115708
115677
115658
115780
115746
115712
115691
115900
115870
115839
115822
116159
116141
116118
116108
116410
116407
116397
116395
116843
116862
116869
116878
117121
117162
117190
117206
117400
117454
117494
117517
116977
116976
116974
116972
116865
116852
116839
116829
116751
116726
116699
116681
116796
116768
116739
116718
116900
116875
116846
116828
117103
117086
117064
117050
117273
117267
117253
117246
117599
117607
117607
117607
117747
117771
117786
117794
117955
117988
118013
118028
117948
117946
117945
117943
117912
117904
117895
117888
117837
117820
117799
117783
117875
117856
117833
117815
117956
117938
117915
117897
118101
118088
118069
118053
118192
118186
118173
118161
118424
118428
118423
118418
118467
118481
118488
118491
118618
118638
118653
118663
118966
118965
118964
118963
119000
118999
118996
118991
118967
118958
118945
118932
118989
118979
118964
118950
119041
119032
119015
118999
119127
119121
119106
119090
119146
119143
119131
119118
119299
119302
119295
119288
119253
119262
119264
119264
119357
119370
119379
119385
120003
120003
120002
120001
120098
120103
120106
120104
120103
120104
120099
120091
120103
120104
120097
120086
120124
120125
120115
120101
120156
120158
120147
120132
120110
120112
120103
120089
120199
120203
120197
120188
120077
120083
120083
120081
120144
120152
120158
120161
121022
121022
121022
121021
121164
121175
121183
121185
121207
121217
121220
121216
121180
121190
121191
121183
121173
121182
121179
121167
121157
121166
121160
121147
121056
121064
121058
121045
121097
121104
121100
121089
120908
120914
120914
120911
120950
120955
120959
120961
121981
121982
121982
121982
122151
122167
122180
122183
122232
122250
122260
122259
122176
122195
122202
122197
122146
122163
122166
122156
122093
122109
122109
122096
121953
121965
121963
121951
121962
121973
121971
121960
121718
121724
121724
121721
121747
121751
121754
121755
122834
122834
122835
122835
123007
123026
123041
123045
123126
123150
123165
123165
123042
123068
123079
123076
123000
123023
123030
123022
122924
122946
122949
122939
122761
122778
122780
122769
122760
122775
122775
122765
122473
122480
122481
122477
122508
122511
122514
122515
123530
123531
123532
123533
123666
123687
123701
123704
123825
123852
123868
123868
123716
123745
123759
123756
123675
123702
123712
123705
123596
123620
123627
123618
123435
123455
123459
123451
123447
123464
123466
123458
123133
123141
123143
123140
123208
123211
123213
123215
124031
124032
124033
124034
124042
124061
124072
124073
124234
124262
124275
124275
124108
124136
124149
124146
124085
124111
124122
124117
124025
124049
124057
124051
123898
123918
123924
123918
123949
123966
123971
123964
123639
123647
123649
123647
123823
123824
123826
123827
124294
124296
124298
124299
123983
123996
124001
123999
124199
124218
124227
124225
124080
124099
124107
124104
124094
124112
124120
124116
124079
124096
124103
124098
124021
124035
124041
124035
124126
124141
124145
124138
123860
123866
123867
123863
124285
124285
124285
124285
124216
124211
124210
124215
123280
123260
123246
123238
123522
123507
123496
123488
123455
123437
123426
123420
123514
123496
123487
123483
123558
123540
123532
123531
123583
123563
123556
123557
123728
123713
123707
123709
123550
123525
123519
123528
124451
124447
124444
124441
117701
116116
114821
113991
113440
113052
112761
112533
112348
112191
117814
115733
114121
113189
112555
112107
111767
111496
111283
111126
117357
115057
113228
112251
111557
111056
110662
110341
110093
109935
116782
114342
112328
111325
110575
110033
109606
109265
109010
108866
116268
113779
111615
110613
109823
109266
108828
108488
108243
108120
116106
113660
111392
110420
109609
109049
108606
108267
108019
107881
116096
113763
111424
110510
109684
109125
108667
108313
108043
107870
116509
114332
111968
111141
110317
109765
109290
108907
108589
108329
116756
114702
112374
111671
110881
110353
109865
109449
109082
108747
117475
115509
113200
112472
111604
110990
110419
109931
109504
109103
114714
114356
113973
113638
113344
113090
112871
112683
112519
112382
114692
114067
113449
112949
112540
112205
111931
111702
111513
111377
114873
113933
113013
112323
111777
111349
111004
110721
110495
110350
114989
113741
112536
111691
111042
110550
110165
109859
109623
109484
115157
113645
112187
111232
110510
109983
109579
109268
109034
108906
115574
113883
112221
111202
110434
109887
109469
109151
108910
108764
116045
114248
112425
111379
110578
110013
109572
109233
108967
108789
116804
114972
113046
112014
111198
110623
110158
109785
109475
109224
117378
115463
113509
112530
111724
111145
110651
110238
109878
109565
118246
116182
114232
113218
112343
111689
111129
110658
110251
109887
114114
113959
113759
113556
113363
113185
113025
112883
112757
112650
113938
113622
113254
112925
112641
112397
112188
112010
111862
111758
114053
113506
112908
112415
112011
111679
111403
111173
110990
110877
114282
113465
112621
111974
111467
111067
110748
110493
110299
110187
114677
113572
112487
111707
111116
110668
110320
110053
109854
109745
115371
113999
112699
111816
111159
110674
110302
110019
109805
109673
116138
114528
113039
112078
111363
110841
110437
110126
109882
109716
117161
115364
113736
112733
111979
111427
110989
110638
110347
110115
117962
115974
114278
113266
112485
111900
111416
111014
110672
110385
118797
116649
114935
113868
113020
112371
111832
111384
111004
110677
113685
113652
113585
113500
113405
113309
113215
113126
113044
112973
113278
113194
113064
112917
112769
112627
112495
112376
112274
112205
113211
113018
112762
112505
112265
112047
111854
111687
111554
111474
113363
113021
112607
112230
111899
111616
111379
111184
111035
110951
113743
113221
112627
112128
111712
111373
111100
110885
110722
110631
114463
113748
112972
112359
111864
111474
111165
110925
110740
110620
115290
114374
113417
112699
112127
111683
111332
111055
110835
110680
116383
115286
114177
113377
112742
112250
111853
111528
111259
111044
117277
115998
114778
113912
113216
112666
112211
111833
111514
111251
118122
116670
115377
114433
113673
113070
112571
112156
111807
111511
113761
113749
113720
113679
113631
113579
113526
113475
113425
113382
113308
113282
113226
113154
113074
112992
112913
112839
112777
112738
113099
113035
112922
112789
112650
112514
112389
112278
112190
112142
113138
113013
112822
112616
112414
112228
112065
111928
111822
111764
113416
113202
112907
112615
112345
112108
111908
111745
111620
111548
114046
113721
113303
112916
112572
112280
112038
111843
111689
111585
114804
114344
113785
113296
112871
112518
112226
111990
111796
111656
115846
115251
114556
113972
113472
113058
112713
112424
112182
111986
116738
115992
115167
114485
113902
113418
113009
112667
112378
112141
117528
116621
115701
114938
114297
113767
113324
112951
112637
112373
114085
114080
114067
114048
114025
113998
113970
113943
113914
113891
113644
113635
113611
113577
113537
113494
113452
113412
113380
113365
113397
113375
113324
113255
113178
113100
113025
112957
112907
112886
113398
113357
113269
113160
113042
112927
112823
112732
112664
112629
113598
113524
113385
113222
113055
112898
112758
112641
112550
112497
114115
113990
113780
113549
113321
113113
112931
112779
112655
112568
114751
114550
114243
113929
113628
113359
113127
112930
112766
112644
115674
115383
114972
114570
114194
113862
113573
113324
113113
112940
116481
116068
115534
115029
114566
114162
113812
113514
113261
113052
117147
116617
116000
115424
114912
114469
114088
113764
113489
113257
114606
114603
114596
114587
114575
114562
114548
114534
114519
114509
114216
114210
114197
114180
114160
114139
114119
114100
114087
114088
113972
113959
113932
113895
113854
113810
113769
113733
113710
113708
113978
113960
113916
113856
113789
113721
113658
113603
113563
113547
114144
114117
114047
113955
113853
113752
113658
113577
113514
113478
114570
114525
114416
114278
114129
113983
113850
113735
113639
113569
115078
114995
114827
114627
114418
114218
114038
113880
113745
113642
115852
115717
115475
115204
114929
114672
114438
114231
114052
113904
116512
116284
115944
115584
115232
114910
114623
114373
114157
113978
117040
116740
116341
115927
115535
115180
114866
114593
114358
114159
115279
115276
115272
115268
115262
115255
115249
115242
115235
115232
114958
114951
114943
114934
114924
114915
114907
114900
114899
114909
114734
114724
114707
114686
114664
114642
114622
114606
114600
114611
114756
114745
114719
114686
114648
114609
114573
114542
114522
114518
114908
114895
114855
114800
114737
114672
114611
114557
114516
114492
115265
115246
115183
115097
114998
114897
114802
114716
114644
114589
115661
115624
115524
115394
115249
115104
114967
114843
114735
114651
116286
116220
116072
115890
115693
115498
115314
115147
115002
114878
116773
116645
116429
116179
115921
115675
115447
115244
115066
114917
117181
117015
116762
116474
116185
115911
115660
115438
115243
115076
116075
116073
116070
116067
116064
116061
116058
116056
116053
116053
115835
115827
115820
115814
115809
115805
115803
115802
115807
115821
115643
115632
115620
115607
115594
115583
115575
115570
115574
115591
115676
115666
115649
115628
115606
115583
115563
115547
115539
115542
115812
115801
115775
115740
115700
115657
115617
115582
115555
115540
116105
116092
116051
115994
115927
115856
115788
115726
115672
115629
116402
116380
116315
116227
116126
116020
115917
115822
115738
115671
116889
116853
116758
116635
116494
116349
116208
116078
115962
115861
117214
117141
117003
116833
116649
116465
116290
116130
115987
115866
117528
117436
117277
117081
116873
116668
116475
116298
116141
116004
116970
116968
116966
116964
116963
116961
116960
116959
116958
116960
116817
116809
116802
116797
116794
116792
116791
116792
116798
116812
116664
116652
116641
116632
116624
116618
116615
116615
116623
116640
116701
116689
116676
116661
116646
116632
116620
116611
116608
116612
116813
116802
116782
116757
116728
116698
116670
116646
116628
116617
117040
117028
116997
116956
116908
116858
116808
116761
116721
116687
117242
117225
117179
117118
117045
116968
116892
116819
116754
116700
117609
117586
117522
117437
117337
117230
117124
117024
116933
116853
117797
117754
117665
117550
117420
117286
117154
117031
116919
116824
118037
117985
117884
117753
117606
117457
117311
117174
117050
116941
117940
117939
117937
117936
117935
117934
117933
117933
117932
117934
117876
117868
117861
117856
117853
117850
117849
117849
117854
117864
117766
117754
117744
117735
117728
117724
117722
117722
117729
117743
117796
117785
117772
117759
117747
117735
117726
117719
117716
117717
117879
117867
117849
117828
117805
117781
117759
117740
117725
117714
118038
118025
118000
117967
117930
117892
117853
117817
117785
117756
118151
118136
118100
118054
118001
117943
117885
117829
117778
117734
118413
118396
118351
118290
118218
118140
118060
117983
117913
117849
118490
118463
118402
118324
118233
118135
118038
117945
117858
117784
118669
118638
118573
118485
118383
118275
118167
118064
117968
117883
118960
118958
118957
118956
118955
118954
118954
118953
118953
118954
118981
118973
118967
118961
118957
118952
118949
118946
118948
118953
118916
118904
118894
118885
118878
118872
118868
118866
118870
118876
118931
118919
118907
118894
118881
118868
118857
118849
118843
118837
118980
118966
118949
118928
118907
118885
118864
118846
118830
118817
119072
119057
119034
119005
118974
118942
118910
118879
118851
118824
119103
119088
119057
119021
118978
118933
118887
118842
118800
118764
119276
119262
119227
119182
119128
119069
119008
118949
118894
118842
119259
119240
119197
119143
119077
119007
118934
118864
118797
118740
119388
119369
119326
119266
119195
119118
119039
118962
118889
118824
119998
119997
119996
119995
119994
119993
119992
119991
119990
119990
120096
120089
120083
120077
120071
120064
120058
120052
120048
120046
120076
120065
120056
120046
120037
120029
120021
120015
120012
120010
120069
120057
120043
120029
120014
119999
119985
119972
119960
119947
120081
120066
120047
120026
120004
119982
119960
119940
119922
119904
120111
120095
120071
120044
120016
119986
119956
119928
119901
119873
120071
120053
120026
119994
119958
119920
119881
119843
119807
119775
120171
120157
120127
120091
120048
120002
119954
119907
119863
119820
120073
120058
120026
119986
119938
119886
119831
119778
119726
119682
120163
120150
120120
120079
120029
119973
119915
119858
119803
119753
121019
121018
121017
121016
121015
121013
121012
121010
121009
121008
121179
121173
121168
121161
121153
121144
121134
121124
121115
121105
121204
121194
121184
121173
121162
121150
121139
121127
121117
121106
121168
121156
121141
121124
121107
121089
121071
121053
121035
121014
121147
121130
121110
121087
121063
121039
121016
120992
120970
120947
121124
121105
121080
121053
121025
120996
120967
120938
120910
120881
121023
121004
120977