/*--------------------------------*- C++ -*----------------------------------*\
| =========                 |                                                 |
| \\      /  F ield         | foam-extend: Open Source CFD                    |
|  \\    /   O peration     | Version:     4.0                                |
|   \\  /    A nd           | Web:         http://www.foam-extend.org         |
|    \\/     M anipulation  |                                                 |
\*---------------------------------------------------------------------------*/
FoamFile
{
    version     2.0;
    format      ascii;
    class       volScalarField;
    location    "150";
    object      rho;
}
// * * * * * * * * * * * * * * * * * * * * * * * * * * * * * * * * * * * * * //

dimensions      [1 -3 0 0 0 0 0];

internalField   nonuniform List<scalar> 
34480
(
1.35924
1.35775
1.35669
1.35594
1.35563
1.35595
1.35741
1.36139
1.36633
1.36309
1.34601
1.34559
1.34545
1.34535
1.34522
1.3448
1.34445
1.34607
1.34939
1.33909
1.33191
1.33148
1.33171
1.33214
1.33282
1.3332
1.3332
1.33445
1.33834
1.32206
1.3201
1.31989
1.32038
1.32095
1.32177
1.32257
1.32309
1.32414
1.32862
1.30694
1.31193
1.31166
1.31205
1.3124
1.31296
1.31381
1.31495
1.31614
1.32124
1.29488
1.30889
1.30829
1.3082
1.30805
1.3081
1.30869
1.31033
1.31199
1.31769
1.28704
1.30823
1.30686
1.30599
1.30518
1.3047
1.30499
1.30702
1.30957
1.31604
1.28179
1.31277
1.3104
1.30849
1.30692
1.30591
1.30591
1.30805
1.31158
1.31886
1.28159
1.31781
1.31439
1.31165
1.3096
1.30835
1.30822
1.31009
1.31395
1.32156
1.28261
1.31915
1.31534
1.31252
1.31076
1.31024
1.31126
1.3144
1.31988
1.32881
1.28943
1.361
1.3596
1.35871
1.35816
1.35802
1.35841
1.35949
1.36147
1.36538
1.37039
1.34883
1.34853
1.34843
1.34847
1.34858
1.34846
1.34818
1.34866
1.35184
1.3534
1.33686
1.33649
1.33656
1.33691
1.33764
1.3382
1.33831
1.33894
1.34397
1.34743
1.3276
1.3273
1.32746
1.32777
1.32842
1.32913
1.32963
1.33028
1.33683
1.34169
1.32158
1.32109
1.32106
1.32105
1.32129
1.32179
1.32272
1.32351
1.33136
1.33694
1.31991
1.31901
1.31849
1.318
1.3177
1.31777
1.31898
1.3201
1.32909
1.33453
1.31995
1.31828
1.31706
1.31598
1.31519
1.31489
1.3163
1.31804
1.32812
1.33308
1.32447
1.32182
1.31968
1.31796
1.31675
1.31622
1.31764
1.31998
1.3309
1.33537
1.3287
1.32503
1.32217
1.32004
1.31873
1.31831
1.31967
1.32221
1.33313
1.3386
1.32975
1.32562
1.3226
1.32062
1.31979
1.32026
1.32256
1.32635
1.3377
1.34602
1.36342
1.36238
1.3618
1.36154
1.36165
1.3622
1.36329
1.36489
1.36717
1.3698
1.35268
1.35263
1.35272
1.35294
1.35324
1.35334
1.35326
1.3535
1.35498
1.35504
1.34237
1.34226
1.34246
1.34298
1.34387
1.3446
1.34495
1.34551
1.3486
1.35043
1.33506
1.33492
1.33513
1.33558
1.33641
1.33732
1.3381
1.33893
1.34367
1.3474
1.33051
1.33012
1.33012
1.33029
1.33078
1.33156
1.33279
1.33399
1.34039
1.34586
1.32961
1.3288
1.32837
1.32815
1.32826
1.32875
1.3303
1.33201
1.34006
1.34684
1.32989
1.32839
1.3274
1.32671
1.32648
1.32676
1.32859
1.331
1.34068
1.34856
1.33406
1.33173
1.32998
1.32879
1.32825
1.32845
1.33048
1.33353
1.34454
1.35347
1.33747
1.33426
1.33192
1.33037
1.32973
1.33009
1.33236
1.336
1.34741
1.35836
1.33814
1.33454
1.33201
1.3305
1.33013
1.33107
1.33396
1.33876
1.35055
1.36448
1.36667
1.36597
1.36562
1.36551
1.36567
1.36611
1.36684
1.36773
1.36875
1.36957
1.35755
1.35779
1.35802
1.35835
1.35869
1.35881
1.35858
1.35825
1.35814
1.3565
1.34891
1.34907
1.34937
1.34994
1.35081
1.35155
1.35182
1.35187
1.35298
1.35265
1.34341
1.34345
1.34368
1.34416
1.34497
1.34589
1.34666
1.34715
1.34976
1.35113
1.34016
1.33986
1.33988
1.34011
1.34066
1.34153
1.34277
1.34383
1.34816
1.35144
1.33989
1.33917
1.3388
1.33873
1.33901
1.33972
1.34134
1.34307
1.34929
1.35447
1.34037
1.33902
1.33818
1.33774
1.3378
1.33844
1.34041
1.34293
1.35111
1.35827
1.34419
1.34211
1.34065
1.33982
1.33969
1.34036
1.34265
1.3459
1.35581
1.36502
1.34682
1.34401
1.34209
1.34097
1.34077
1.3416
1.34427
1.3484
1.35926
1.37129
1.34711
1.34397
1.34187
1.34074
1.3407
1.34191
1.34501
1.35009
1.36149
1.37684
1.37096
1.3705
1.37032
1.3703
1.37044
1.37074
1.37117
1.37159
1.37199
1.37225
1.36351
1.36398
1.36433
1.3647
1.36502
1.36506
1.36465
1.3639
1.36299
1.36063
1.3564
1.3568
1.35718
1.35777
1.35856
1.35918
1.35927
1.35889
1.35873
1.35718
1.35244
1.35264
1.35292
1.35341
1.35415
1.35498
1.3556
1.35572
1.35666
1.35623
1.35026
1.35007
1.35012
1.35041
1.35097
1.35181
1.35293
1.3537
1.35606
1.35704
1.35047
1.34985
1.34956
1.34961
1.35
1.35079
1.35232
1.35387
1.35797
1.36062
1.35107
1.34987
1.34918
1.34894
1.34921
1.35004
1.35197
1.35435
1.3604
1.36502
1.35451
1.35269
1.35149
1.35095
1.35111
1.35206
1.35439
1.35759
1.36549
1.37235
1.35647
1.35403
1.35246
1.35169
1.35181
1.35294
1.35574
1.35993
1.36918
1.37906
1.3564
1.35368
1.35195
1.35113
1.35134
1.35273
1.35583
1.36081
1.37071
1.38374
1.37635
1.37606
1.37598
1.376
1.3761
1.37628
1.37649
1.37662
1.37669
1.3767
1.37055
1.37119
1.3716
1.37198
1.37225
1.37219
1.37161
1.37056
1.36919
1.36641
1.36479
1.36537
1.36581
1.36638
1.36705
1.36754
1.36744
1.36672
1.36585
1.36365
1.36212
1.36244
1.36274
1.36322
1.36387
1.36457
1.36501
1.36483
1.3648
1.36344
1.36078
1.36069
1.36076
1.36108
1.36161
1.36238
1.36332
1.36384
1.36494
1.36462
1.36132
1.3608
1.36058
1.36071
1.36116
1.36197
1.36333
1.36464
1.3672
1.36818
1.36196
1.36091
1.36035
1.36027
1.36067
1.36158
1.36337
1.3655
1.36976
1.37242
1.36502
1.36344
1.36247
1.36214
1.3625
1.36359
1.36582
1.36876
1.37475
1.37948
1.36638
1.36428
1.36302
1.36251
1.36285
1.36412
1.36682
1.37076
1.37822
1.38579
1.36598
1.36365
1.36224
1.36167
1.36204
1.36349
1.36643
1.371
1.37911
1.38926
1.38289
1.3827
1.38267
1.38271
1.38278
1.38287
1.38294
1.38292
1.38286
1.38286
1.37868
1.37939
1.37982
1.38017
1.38038
1.38026
1.37958
1.37839
1.37683
1.37392
1.37409
1.37476
1.37522
1.37574
1.3763
1.37665
1.3764
1.37547
1.37425
1.37175
1.37241
1.37279
1.3731
1.37354
1.37408
1.37464
1.37492
1.37454
1.37402
1.37222
1.37169
1.37166
1.37175
1.37207
1.37256
1.37322
1.37398
1.3743
1.37472
1.3738
1.37241
1.37198
1.37181
1.372
1.37246
1.37323
1.37439
1.37547
1.3771
1.37725
1.373
1.3721
1.37166
1.37168
1.37214
1.37306
1.37464
1.37648
1.3795
1.38103
1.37568
1.37432
1.37354
1.37338
1.37384
1.37496
1.37699
1.37959
1.38407
1.38732
1.37651
1.37472
1.37372
1.3734
1.37386
1.37516
1.37762
1.3811
1.38689
1.39257
1.37581
1.37384
1.3727
1.37232
1.37279
1.3742
1.37686
1.38084
1.38721
1.3947
1.39055
1.3904
1.3904
1.39044
1.39049
1.39053
1.39053
1.39045
1.39035
1.39044
1.38788
1.38857
1.38896
1.38927
1.38943
1.38927
1.38858
1.38736
1.38579
1.38293
1.38427
1.38496
1.38538
1.38583
1.38627
1.38651
1.38619
1.38518
1.38385
1.38128
1.38329
1.38366
1.38394
1.38432
1.38476
1.3852
1.38535
1.38488
1.38415
1.38221
1.38297
1.38296
1.38305
1.38335
1.38377
1.38433
1.38492
1.38511
1.3852
1.38405
1.38372
1.38335
1.38323
1.38343
1.38388
1.38457
1.38554
1.38642
1.38752
1.38733
1.38418
1.3834
1.38306
1.38314
1.38361
1.38448
1.38584
1.38738
1.38959
1.39055
1.38645
1.3853
1.38469
1.38464
1.38514
1.38621
1.38798
1.39019
1.39355
1.3959
1.3868
1.3853
1.38452
1.38434
1.38485
1.38607
1.38821
1.39115
1.39554
1.39976
1.38583
1.3842
1.38329
1.38306
1.38356
1.38488
1.38718
1.39051
1.39533
1.40069
1.39926
1.39912
1.39913
1.39917
1.3992
1.39921
1.39919
1.39909
1.39901
1.39923
1.39806
1.39866
1.39896
1.39922
1.39933
1.39917
1.39853
1.39738
1.39592
1.39325
1.39529
1.39589
1.39624
1.3966
1.39694
1.3971
1.39677
1.39581
1.39453
1.39208
1.39471
1.39501
1.39522
1.39554
1.39588
1.39621
1.3963
1.39585
1.39512
1.39325
1.39459
1.39454
1.39461
1.39487
1.39523
1.39569
1.39615
1.39628
1.39627
1.39515
1.39523
1.39489
1.39479
1.39499
1.3954
1.396
1.39679
1.39751
1.39834
1.39807
1.39547
1.39479
1.39452
1.39463
1.39508
1.39587
1.397
1.39826
1.39995
1.40066
1.39733
1.39636
1.39588
1.3959
1.39639
1.39736
1.39885
1.40067
1.40322
1.40502
1.39722
1.39598
1.39537
1.3953
1.3958
1.3969
1.39869
1.40107
1.40433
1.40747
1.39602
1.39469
1.39399
1.39385
1.39435
1.39553
1.39745
1.40013
1.4037
1.40744
1.40889
1.40875
1.40875
1.40878
1.40881
1.40881
1.40877
1.40869
1.40866
1.40903
1.4091
1.40953
1.40973
1.40991
1.40998
1.40984
1.40929
1.40829
1.40701
1.40463
1.40703
1.40747
1.4077
1.40797
1.40821
1.40832
1.40804
1.4072
1.4061
1.40392
1.4066
1.40675
1.40687
1.40711
1.40737
1.40762
1.4077
1.40734
1.40676
1.40514
1.40648
1.40635
1.40637
1.40658
1.40688
1.40726
1.40763
1.40778
1.40782
1.40691
1.4069
1.40654
1.40644
1.40662
1.40698
1.4075
1.40815
1.40876
1.40948
1.40934
1.40683
1.40622
1.40599
1.40611
1.40652
1.40721
1.40814
1.40918
1.41054
1.4112
1.40828
1.40745
1.40707
1.40713
1.40758
1.40843
1.40966
1.41113
1.41309
1.41457
1.40772
1.40671
1.40625
1.40623
1.4067
1.40765
1.40911
1.41098
1.41338
1.41575
1.40634
1.40528
1.40473
1.40467
1.40514
1.40614
1.40771
1.40981
1.41239
1.41497
1.41927
1.41911
1.4191
1.41912
1.41914
1.41914
1.41911
1.41906
1.41908
1.41961
1.42079
1.42101
1.42107
1.42116
1.42121
1.42109
1.42067
1.41986
1.41883
1.4168
1.41932
1.41954
1.41962
1.41978
1.41993
1.42001
1.41981
1.41917
1.41833
1.41652
1.41881
1.41877
1.41877
1.41892
1.41911
1.41931
1.4194
1.4192
1.41887
1.41765
1.41855
1.41829
1.41823
1.41839
1.41863
1.41895
1.41928
1.41949
1.4197
1.41915
1.41864
1.41823
1.41811
1.41825
1.41855
1.41901
1.41955
1.42011
1.42085
1.42098
1.41821
1.41762
1.41742
1.41753
1.41789
1.41848
1.41924
1.42012
1.42129
1.42206
1.41924
1.41851
1.41822
1.41829
1.41868
1.4194
1.4204
1.42159
1.42315
1.4245
1.41826
1.41742
1.41707
1.41709
1.4175
1.4183
1.41946
1.42092
1.42269
1.42457
1.41673
1.4159
1.41549
1.41547
1.41588
1.41672
1.41796
1.41957
1.42141
1.42318
1.43016
1.42998
1.42996
1.42997
1.42999
1.42999
1.42997
1.42995
1.43002
1.43068
1.43285
1.43282
1.43274
1.43275
1.43276
1.43268
1.43239
1.43181
1.43106
1.42946
1.4319
1.43184
1.43176
1.43181
1.43189
1.43195
1.43184
1.43144
1.43091
1.42957
1.43114
1.43086
1.43074
1.4308
1.43093
1.4311
1.43123
1.43122
1.43119
1.43047
1.43061
1.4302
1.43006
1.43015
1.43035
1.43063
1.43095
1.43125
1.43169
1.43162
1.43031
1.42982
1.42967
1.42976
1.43002
1.43042
1.4309
1.43145
1.43228
1.43279
1.42949
1.4289
1.4287
1.42879
1.42909
1.42959
1.43024
1.43101
1.4321
1.43309
1.43013
1.42947
1.42922
1.42929
1.42963
1.43023
1.43104
1.43201
1.43333
1.43469
1.42874
1.42804
1.42777
1.4278
1.42815
1.42881
1.42973
1.43085
1.43219
1.43377
1.42713
1.42648
1.42616
1.42617
1.42652
1.4272
1.42818
1.42939
1.43071
1.43194
1.44126
1.44107
1.44104
1.44104
1.44105
1.44106
1.44106
1.44106
1.44117
1.44194
1.44495
1.44465
1.44442
1.44436
1.44434
1.44429
1.44412
1.44377
1.44333
1.44222
1.44443
1.44407
1.44383
1.44378
1.4438
1.44385
1.44383
1.44366
1.44348
1.44268
1.44329
1.44277
1.44252
1.44251
1.4426
1.44275
1.44293
1.4431
1.4434
1.44326
1.44244
1.44187
1.44165
1.44168
1.44184
1.4421
1.44242
1.44283
1.44351
1.44398
1.44174
1.44116
1.44096
1.44101
1.44122
1.44158
1.44203
1.4426
1.44354
1.44449
1.44052
1.43991
1.4397
1.43975
1.44001
1.44044
1.44101
1.44171
1.44279
1.44407
1.44081
1.4402
1.43998
1.44003
1.44031
1.44081
1.44148
1.4423
1.44347
1.44493
1.43905
1.43845
1.43823
1.43826
1.43855
1.43908
1.43981
1.44069
1.44174
1.44316
1.43743
1.43691
1.43667
1.43669
1.43698
1.43752
1.43828
1.4392
1.44015
1.44103
1.45223
1.45203
1.45198
1.45197
1.45198
1.45199
1.45201
1.45203
1.45216
1.45299
1.45664
1.45607
1.45571
1.45558
1.45554
1.45551
1.45546
1.45533
1.45521
1.45464
1.45648
1.45584
1.45546
1.45532
1.4553
1.45534
1.4554
1.45545
1.45562
1.45542
1.45491
1.45417
1.45381
1.45373
1.45379
1.45394
1.45417
1.45451
1.45511
1.45559
1.45375
1.45303
1.45274
1.45271
1.45284
1.45309
1.45344
1.45394
1.45484
1.45587
1.45268
1.45201
1.45176
1.45176
1.45194
1.45226
1.45271
1.45332
1.45437
1.45577
1.45111
1.45047
1.45025
1.45026
1.45047
1.45084
1.45135
1.45203
1.45312
1.4547
1.45112
1.45054
1.45033
1.45035
1.45058
1.451
1.45156
1.45228
1.45337
1.45498
1.44902
1.44849
1.44831
1.44833
1.44856
1.44899
1.44956
1.45028
1.45113
1.45249
1.44749
1.44708
1.44689
1.4469
1.44713
1.44757
1.44816
1.44886
1.44957
1.45024
1.46264
1.46241
1.46236
1.46234
1.46235
1.46237
1.46239
1.46244
1.46257
1.4634
1.46739
1.4666
1.46614
1.46595
1.46589
1.4659
1.46593
1.46599
1.46618
1.4662
1.46756
1.46668
1.46618
1.46599
1.46594
1.46599
1.46612
1.46635
1.46682
1.46725
1.46558
1.46467
1.46423
1.46409
1.46413
1.46429
1.46457
1.46503
1.46588
1.46697
1.46419
1.46336
1.46301
1.46293
1.46303
1.46328
1.46365
1.46424
1.46529
1.46684
1.46283
1.4621
1.46181
1.46177
1.46191
1.46221
1.46264
1.46329
1.46443
1.46622
1.46101
1.46035
1.46011
1.46009
1.46026
1.46058
1.46105
1.46171
1.4628
1.46466
1.46086
1.46029
1.46008
1.46008
1.46026
1.4606
1.46109
1.46175
1.46277
1.46452
1.45847
1.45799
1.45783
1.45783
1.45801
1.45836
1.45882
1.45942
1.46015
1.46147
1.45716
1.45683
1.45667
1.45668
1.45685
1.45719
1.45765
1.45821
1.45876
1.4593
1.47199
1.47174
1.47167
1.47165
1.47166
1.47168
1.47172
1.47178
1.47191
1.47268
1.47663
1.47566
1.47513
1.47491
1.47486
1.47489
1.47499
1.4752
1.47566
1.47626
1.47711
1.47605
1.4755
1.47527
1.47522
1.47529
1.47547
1.47582
1.47653
1.47757
1.47481
1.4738
1.47332
1.47315
1.47317
1.47334
1.47365
1.4742
1.47521
1.47683
1.47335
1.47247
1.47208
1.47197
1.47204
1.47227
1.47266
1.47329
1.47443
1.47638
1.47186
1.4711
1.47079
1.47072
1.47082
1.47108
1.47151
1.47216
1.47331
1.47539
1.46996
1.46931
1.46906
1.46902
1.46914
1.46941
1.46983
1.47047
1.47151
1.47354
1.46978
1.46925
1.46904
1.46902
1.46915
1.46943
1.46985
1.47044
1.47138
1.47321
1.46719
1.46677
1.46662
1.46661
1.46674
1.46701
1.46739
1.46789
1.46851
1.46979
1.46628
1.46601
1.46588
1.46587
1.46601
1.46626
1.46662
1.46706
1.4675
1.46795
1.47988
1.4795
1.47943
1.47941
1.47941
1.47944
1.47949
1.47955
1.47967
1.48033
1.48366
1.4826
1.48207
1.48185
1.48179
1.48185
1.482
1.4823
1.48293
1.48409
1.48449
1.48338
1.48282
1.48259
1.48254
1.48262
1.48284
1.48325
1.48409
1.48562
1.48206
1.48106
1.4806
1.48042
1.48042
1.48058
1.48089
1.48144
1.48248
1.48446
1.48074
1.4799
1.47953
1.47941
1.47945
1.47964
1.47999
1.48059
1.48168
1.48383
1.47936
1.47865
1.47836
1.47827
1.47833
1.47854
1.4789
1.47949
1.48054
1.4827
1.47763
1.47705
1.47682
1.47677
1.47684
1.47705
1.47739
1.47793
1.47884
1.48087
1.47762
1.47715
1.47697
1.47694
1.47703
1.47723
1.47756
1.47805
1.47884
1.4806
1.47495
1.4746
1.47448
1.47446
1.47456
1.47475
1.47503
1.47541
1.4759
1.47708
1.47472
1.47451
1.47441
1.47441
1.4745
1.47468
1.47494
1.47526
1.47561
1.47597
1.4856
1.48528
1.48522
1.48519
1.48519
1.48521
1.48526
1.48533
1.48543
1.48592
1.48766
1.48666
1.48621
1.48602
1.48597
1.48602
1.48617
1.48647
1.48713
1.48865
1.48889
1.4879
1.48745
1.48725
1.48721
1.48727
1.48745
1.48781
1.48858
1.49033
1.48666
1.48583
1.48548
1.48534
1.48533
1.48542
1.48563
1.48605
1.48689
1.48888
1.48577
1.48511
1.48483
1.48473
1.48474
1.48485
1.48507
1.48548
1.48631
1.48832
1.48478
1.48425
1.48404
1.48397
1.484
1.48411
1.48432
1.4847
1.48544
1.48736
1.48353
1.48312
1.48297
1.48294
1.48298
1.48309
1.48328
1.4836
1.4842
1.48591
1.48385
1.48352
1.4834
1.48338
1.48343
1.48355
1.48373
1.48403
1.48454
1.486
1.48128
1.48105
1.48099
1.481
1.48106
1.48117
1.48132
1.48153
1.48181
1.48274
1.48227
1.48216
1.48211
1.48212
1.48218
1.48229
1.48244
1.48262
1.48283
1.48306
1.48886
1.48867
1.48863
1.48861
1.48861
1.48861
1.48863
1.48866
1.48872
1.48901
1.48745
1.48677
1.48655
1.48648
1.48647
1.48648
1.48651
1.48661
1.48699
1.48837
1.48914
1.48855
1.48835
1.48829
1.48827
1.48826
1.48828
1.48836
1.48872
1.49013
1.48763
1.48723
1.48714
1.48712
1.48712
1.48711
1.4871
1.48715
1.48744
1.4888
1.48745
1.48716
1.48712
1.48712
1.48713
1.48712
1.4871
1.48712
1.48733
1.48858
1.48714
1.48694
1.48693
1.48695
1.48696
1.48696
1.48694
1.48693
1.48706
1.48814
1.48664
1.48651
1.48653
1.48656
1.48659
1.4866
1.48657
1.48655
1.48658
1.48746
1.48724
1.48712
1.48714
1.48717
1.48721
1.48723
1.48723
1.48723
1.48727
1.48801
1.48502
1.48498
1.48502
1.48506
1.48511
1.48514
1.48515
1.48514
1.48508
1.48548
1.48821
1.48821
1.48823
1.48827
1.48832
1.48837
1.48841
1.48844
1.48846
1.48847
1.489
1.48898
1.48902
1.48905
1.48906
1.48905
1.48901
1.48895
1.48888
1.48876
1.48181
1.48202
1.48228
1.48246
1.48254
1.48252
1.48238
1.48212
1.48178
1.48179
1.48404
1.4843
1.48457
1.48474
1.48481
1.48476
1.48459
1.48428
1.48385
1.48371
1.48389
1.48427
1.48457
1.48474
1.4848
1.48474
1.48454
1.48416
1.4836
1.48318
1.48459
1.48496
1.48524
1.48539
1.48544
1.48537
1.48517
1.48479
1.48418
1.48359
1.4851
1.48546
1.4857
1.48584
1.48588
1.48581
1.48563
1.48527
1.48465
1.48394
1.48542
1.48575
1.48596
1.48608
1.48612
1.48607
1.48591
1.48558
1.48499
1.48421
1.48618
1.48642
1.48658
1.48668
1.48672
1.48669
1.48658
1.48633
1.48586
1.48519
1.48462
1.48485
1.48498
1.48507
1.48511
1.4851
1.48503
1.48485
1.48447
1.48382
1.49084
1.49094
1.49101
1.49107
1.49111
1.49113
1.49111
1.49103
1.49088
1.49064
1.44092
1.44694
1.44631
1.4425
1.44435
1.45135
1.45019
1.44457
1.45257
1.45971
1.45815
1.45023
1.46059
1.46743
1.46591
1.45587
1.4692
1.4754
1.47422
1.46227
1.47959
1.48506
1.48472
1.47108
1.48973
1.49428
1.495
1.47983
1.5011
1.50462
1.50665
1.49012
1.50634
1.5085
1.51171
1.49449
1.50601
1.5088
1.51543
1.50036
1.36712
1.36674
1.36745
1.36918
1.36416
1.36559
1.36607
1.3656
1.36899
1.37142
1.37207
1.37097
1.37592
1.37925
1.37996
1.37809
1.38526
1.38932
1.39002
1.38739
1.39785
1.40255
1.40328
1.40006
1.41127
1.41644
1.41729
1.41374
1.42703
1.43247
1.43356
1.43012
1.43926
1.44449
1.44584
1.44301
1.44725
1.45228
1.45355
1.4497
1.37119
1.37133
1.3717
1.37234
1.35947
1.36026
1.36063
1.36096
1.36056
1.36203
1.36252
1.36267
1.36424
1.36634
1.36696
1.3669
1.37049
1.37321
1.37395
1.37365
1.38033
1.3837
1.38455
1.384
1.3915
1.39545
1.39647
1.39566
1.40567
1.41009
1.41136
1.41038
1.41756
1.42215
1.42381
1.42277
1.42621
1.43123
1.43365
1.43208
1.3681
1.36772
1.36789
1.36858
1.35399
1.35333
1.35322
1.35383
1.35276
1.35254
1.35253
1.35303
1.35494
1.35525
1.35538
1.35573
1.35982
1.36071
1.36104
1.36123
1.36833
1.36985
1.37044
1.37047
1.37821
1.38037
1.38124
1.38112
1.39119
1.39391
1.39508
1.39484
1.40211
1.40514
1.40669
1.4064
1.40905
1.41271
1.41485
1.41414
1.37067
1.37023
1.3703
1.3709
1.35663
1.35561
1.35533
1.35587
1.35392
1.353
1.35271
1.35323
1.35462
1.354
1.35379
1.35425
1.35792
1.35773
1.35768
1.3581
1.36483
1.36516
1.36534
1.36574
1.37315
1.37403
1.37449
1.37487
1.38471
1.38613
1.38692
1.38728
1.39493
1.39675
1.39793
1.39832
1.40134
1.40397
1.40574
1.40575
1.37505
1.37456
1.37459
1.37514
1.36181
1.36063
1.36025
1.36073
1.35909
1.35783
1.35736
1.35783
1.35953
1.35836
1.35791
1.35838
1.36193
1.36102
1.36068
1.36119
1.36744
1.36693
1.36681
1.36737
1.37419
1.37416
1.37429
1.3749
1.38422
1.38469
1.38514
1.38579
1.39351
1.39447
1.39529
1.39597
1.39876
1.40064
1.4019
1.40212
1.38132
1.38084
1.38085
1.38135
1.36928
1.36811
1.36771
1.36812
1.36692
1.36561
1.36507
1.36546
1.36768
1.36638
1.36582
1.36622
1.36991
1.36874
1.36827
1.36872
1.37454
1.37365
1.37335
1.37388
1.37993
1.3794
1.37932
1.37994
1.38835
1.38828
1.38848
1.38917
1.39624
1.39671
1.39725
1.39792
1.39997
1.40133
1.40215
1.40233
1.3891
1.38866
1.38866
1.38911
1.37841
1.3773
1.37691
1.37729
1.37653
1.37525
1.37472
1.37504
1.37764
1.37636
1.3758
1.37613
1.37993
1.37874
1.37824
1.37861
1.38405
1.38306
1.38269
1.38313
1.38842
1.3877
1.3875
1.38803
1.39535
1.39501
1.39506
1.39565
1.40152
1.4017
1.40203
1.40257
1.40374
1.40473
1.40525
1.40532
1.3982
1.39781
1.39781
1.3982
1.38899
1.38797
1.38763
1.38798
1.38759
1.38642
1.38593
1.3862
1.38894
1.38777
1.38726
1.38752
1.39122
1.39013
1.38965
1.38995
1.39485
1.39391
1.39354
1.3939
1.39834
1.39762
1.39738
1.3978
1.40395
1.40353
1.40349
1.40397
1.4084
1.40842
1.40861
1.409
1.40931
1.41004
1.41037
1.41034
1.40837
1.40806
1.40806
1.40837
1.40073
1.39984
1.39955
1.39988
1.39982
1.39879
1.39837
1.39861
1.40127
1.40025
1.39981
1.40005
1.40341
1.40247
1.40206
1.4023
1.40646
1.40565
1.40532
1.4056
1.40908
1.40845
1.40822
1.40854
1.41349
1.4131
1.41302
1.41338
1.41641
1.41638
1.41647
1.41673
1.41618
1.41676
1.41697
1.41685
1.41938
1.41917
1.41917
1.41939
1.41335
1.41261
1.4124
1.41271
1.41294
1.41208
1.41175
1.41197
1.41433
1.41351
1.41317
1.41338
1.41622
1.41547
1.41515
1.41536
1.41864
1.418
1.41773
1.41795
1.42039
1.41989
1.41969
1.41994
1.42371
1.4234
1.42332
1.42358
1.42528
1.42527
1.42531
1.42545
1.42403
1.42451
1.42465
1.42447
1.43094
1.43085
1.43086
1.43097
1.42653
1.42595
1.42584
1.42613
1.42659
1.42594
1.42572
1.42593
1.42782
1.42722
1.427
1.42719
1.42939
1.42885
1.42863
1.4288
1.43113
1.4307
1.43051
1.43067
1.43205
1.43172
1.43158
1.43174
1.43441
1.43423
1.43416
1.43432
1.43475
1.4348
1.43482
1.43484
1.43257
1.433
1.43308
1.43287
1.44272
1.44275
1.44277
1.44277
1.43988
1.43949
1.43947
1.43975
1.44039
1.43996
1.43986
1.44007
1.44137
1.441
1.4409
1.44108
1.44256
1.44226
1.44215
1.44229
1.44366
1.44344
1.44334
1.44345
1.4438
1.44367
1.44359
1.44367
1.44532
1.44531
1.44528
1.44532
1.44452
1.44468
1.44469
1.44459
1.44153
1.44192
1.44198
1.44176
1.45429
1.45445
1.45448
1.45436
1.45294
1.45274
1.45281
1.45308
1.45388
1.45369
1.45371
1.45392
1.45454
1.45443
1.45445
1.45461
1.45536
1.45531
1.45531
1.4554
1.45586
1.45589
1.45588
1.45591
1.45532
1.45541
1.45541
1.45538
1.45615
1.45633
1.45634
1.45626
1.45427
1.45455
1.45458
1.45436
1.45065
1.451
1.45105
1.45083
1.46517
1.46546
1.4655
1.46525
1.4652
1.46518
1.46533
1.46558
1.46655
1.46658
1.46672
1.46691
1.46685
1.46699
1.46713
1.46725
1.46733
1.46754
1.46764
1.46767
1.46732
1.4676
1.46769
1.46762
1.46621
1.46655
1.46662
1.46648
1.46651
1.46691
1.46697
1.46675
1.46366
1.46408
1.46412
1.46379
1.45965
1.45997
1.46001
1.4598
1.47481
1.47521
1.47525
1.4749
1.47603
1.47618
1.4764
1.47661
1.47778
1.47804
1.47827
1.47842
1.47773
1.47811
1.47834
1.4784
1.47794
1.47841
1.4786
1.47853
1.47753
1.47807
1.47823
1.47805
1.47603
1.47661
1.47675
1.47646
1.47599
1.4766
1.4767
1.47633
1.47231
1.47287
1.47293
1.47248
1.46824
1.46852
1.46856
1.46839
1.48261
1.48309
1.48314
1.4827
1.4847
1.48503
1.48527
1.48541
1.48682
1.4873
1.48759
1.48766
1.48641
1.48703
1.48732
1.48727
1.48645
1.48716
1.48742
1.48722
1.4858
1.48659
1.48681
1.48647
1.48414
1.48495
1.48513
1.48469
1.48399
1.48479
1.48493
1.4844
1.47977
1.48043
1.48051
1.47997
1.47618
1.47642
1.47645
1.47631
1.48807
1.4886
1.48865
1.48818
1.4902
1.49069
1.49094
1.49096
1.49257
1.49324
1.49355
1.49349
1.49179
1.49261
1.49292
1.49272
1.49176
1.49268
1.49296
1.4926
1.49108
1.49205
1.4923
1.4918
1.48957
1.49054
1.49074
1.49015
1.4896
1.49053
1.49068
1.49003
1.4853
1.48602
1.48611
1.48553
1.48318
1.48335
1.48337
1.48328
1.49073
1.4912
1.49124
1.49083
1.49071
1.49133
1.49155
1.49138
1.49307
1.49386
1.49413
1.49388
1.4921
1.493
1.49326
1.49286
1.49214
1.49312
1.49336
1.49283
1.4917
1.49271
1.49292
1.49228
1.49075
1.49171
1.49188
1.4912
1.49118
1.4921
1.49224
1.49153
1.4875
1.48817
1.48824
1.48766
1.48853
1.48863
1.48863
1.48856
1.48948
1.48971
1.48973
1.4895
1.48347
1.48386
1.48385
1.48345
1.4857
1.48619
1.48621
1.48575
1.48498
1.48549
1.48549
1.48496
1.48525
1.48577
1.48578
1.48522
1.48531
1.4858
1.4858
1.48525
1.48518
1.48561
1.48561
1.48509
1.48605
1.48647
1.48647
1.48599
1.48378
1.48397
1.48394
1.48366
1.49062
1.49062
1.49059
1.49054
1.41412
1.39877
1.38527
1.37687
1.37167
1.36814
1.36557
1.3636
1.36205
1.36082
1.40515
1.38444
1.36899
1.36061
1.35535
1.35196
1.34958
1.34778
1.34651
1.34598
1.39921
1.37611
1.35877
1.35004
1.34414
1.34008
1.33692
1.33431
1.33241
1.33168
1.39267
1.36807
1.3491
1.34015
1.3336
1.329
1.32531
1.3223
1.32016
1.31949
1.38661
1.36164
1.34147
1.33261
1.32563
1.32078
1.31686
1.31376
1.31166
1.31115
1.38361
1.35962
1.33882
1.33047
1.32331
1.31841
1.3144
1.3113
1.30919
1.30849
1.38188
1.35988
1.33889
1.33141
1.32419
1.31931
1.31516
1.31197
1.30968
1.30859
1.38453
1.36509
1.34447
1.33826
1.33123
1.32657
1.32243
1.31911
1.31642
1.31442
1.38604
1.36844
1.34908
1.34468
1.33842
1.33434
1.33033
1.32684
1.32369
1.32085
1.38863
1.3727
1.35395
1.34957
1.34287
1.33824
1.3337
1.32972
1.32615
1.32275
1.37375
1.37397
1.3728
1.37128
1.36957
1.36785
1.36622
1.36475
1.36342
1.36236
1.36352
1.36256
1.36006
1.35737
1.35497
1.35301
1.35141
1.35005
1.34897
1.34854
1.36529
1.36163
1.35605
1.35112
1.34705
1.34386
1.34125
1.33901
1.33724
1.33653
1.36741
1.36082
1.35214
1.34531
1.33992
1.33584
1.33258
1.32989
1.32784
1.32707
1.37035
1.36107
1.34962
1.3414
1.33508
1.33045
1.32681
1.32393
1.32181
1.32107
1.37579
1.36464
1.35098
1.34194
1.33503
1.33007
1.32616
1.32314
1.32092
1.31992
1.38179
1.36953
1.35418
1.34477
1.33745
1.33218
1.32797
1.3247
1.3222
1.32078
1.39095
1.37823
1.3619
1.35265
1.34519
1.3398
1.33538
1.33181
1.32885
1.32658
1.39849
1.38476
1.36846
1.35995
1.35278
1.34744
1.34279
1.33879
1.33525
1.33218
1.40634
1.3905
1.37408
1.36504
1.35715
1.35111
1.34587
1.34136
1.33739
1.33376
1.3734
1.37309
1.37205
1.37087
1.36965
1.36843
1.36728
1.36622
1.36526
1.36448
1.36114
1.36061
1.35889
1.35719
1.35579
1.35466
1.3537
1.35284
1.35218
1.35211
1.36168
1.35904
1.35504
1.35165
1.34897
1.34682
1.34496
1.34333
1.34208
1.34178
1.36439
1.35913
1.35261
1.34759
1.34377
1.3408
1.33834
1.33629
1.33479
1.3344
1.3691
1.36098
1.35201
1.34558
1.34083
1.33724
1.33437
1.3321
1.33047
1.33001
1.37695
1.36615
1.35505
1.34756
1.34208
1.338
1.33477
1.33228
1.33047
1.32968
1.38564
1.37247
1.35956
1.35128
1.34515
1.34058
1.33695
1.33413
1.33197
1.33074
1.39724
1.38221
1.36808
1.35942
1.35286
1.34796
1.34398
1.34076
1.33809
1.33606
1.40688
1.38995
1.37552
1.36694
1.36019
1.35495
1.35049
1.34669
1.34341
1.34065
1.41402
1.39525
1.38054
1.37121
1.36368
1.3578
1.35284
1.34862
1.34499
1.34177
1.37026
1.37079
1.37076
1.37053
1.37012
1.3696
1.36902
1.36844
1.36785
1.36738
1.35571
1.35715
1.35755
1.35753
1.35737
1.35716
1.35688
1.35655
1.35633
1.3566
1.35442
1.35484
1.354
1.35288
1.35178
1.35072
1.34967
1.34866
1.34793
1.34799
1.35631
1.35526
1.35282
1.35046
1.34842
1.34663
1.34503
1.34365
1.34266
1.34257
1.36075
1.35793
1.3537
1.35012
1.34719
1.34477
1.34272
1.34106
1.33987
1.33962
1.36869
1.36402
1.35803
1.35334
1.34958
1.34655
1.34406
1.3421
1.34064
1.34
1.3778
1.37123
1.36356
1.35783
1.35324
1.34958
1.34659
1.34421
1.34234
1.34123
1.38992
1.38167
1.37265
1.36615
1.36089
1.3567
1.35323
1.35035
1.34793
1.34608
1.40023
1.3904
1.38061
1.37356
1.36768
1.36286
1.35874
1.35524
1.35223
1.34973
1.40713
1.39555
1.38491
1.37686
1.37025
1.36488
1.36036
1.35652
1.35324
1.35037
1.37244
1.37288
1.37294
1.37292
1.3728
1.37258
1.3723
1.372
1.37167
1.37141
1.35783
1.35959
1.36043
1.36089
1.36121
1.36144
1.36157
1.36161
1.36171
1.36225
1.35517
1.35656
1.35683
1.35669
1.35641
1.35605
1.35559
1.35508
1.35479
1.35517
1.35597
1.3567
1.35616
1.3553
1.35441
1.35351
1.35261
1.35179
1.35125
1.35142
1.35943
1.35922
1.35765
1.35597
1.35441
1.35296
1.35164
1.35052
1.34972
1.34966
1.36652
1.36518
1.36242
1.35984
1.35753
1.35547
1.35367
1.35219
1.35107
1.35055
1.37495
1.37228
1.36822
1.36465
1.36149
1.35874
1.35638
1.35444
1.35286
1.35188
1.38657
1.38261
1.37732
1.37284
1.36888
1.36548
1.36256
1.36005
1.35792
1.35625
1.39694
1.39156
1.38519
1.37978
1.37493
1.37074
1.3671
1.36399
1.36131
1.35909
1.40316
1.39607
1.38861
1.38221
1.37671
1.37206
1.3681
1.36471
1.3618
1.35927
1.37664
1.37699
1.37708
1.37717
1.3772
1.37716
1.37706
1.37694
1.37677
1.37664
1.36271
1.36451
1.3655
1.3662
1.36681
1.36733
1.36773
1.36801
1.36835
1.36907
1.3599
1.36154
1.36221
1.36254
1.36275
1.36284
1.3628
1.36268
1.36272
1.36333
1.36048
1.36185
1.36212
1.36204
1.36186
1.36156
1.36118
1.3608
1.3606
1.36097
1.36326
1.36423
1.36397
1.3634
1.36273
1.36199
1.36122
1.36053
1.36006
1.36014
1.36929
1.36967
1.36872
1.36751
1.36622
1.36491
1.36367
1.36261
1.36177
1.36137
1.37655
1.3761
1.37424
1.37222
1.37016
1.36819
1.3664
1.36485
1.36354
1.36269
1.38703
1.38563
1.38279
1.3799
1.37705
1.3744
1.37201
1.3699
1.36806
1.36659
1.39664
1.39389
1.38991
1.38596
1.38216
1.37871
1.37563
1.37297
1.37065
1.36871
1.40134
1.3973
1.39236
1.3876
1.38326
1.37943
1.37608
1.37317
1.37067
1.36848
1.38277
1.38299
1.38304
1.38315
1.38324
1.38328
1.38327
1.38324
1.38316
1.3831
1.37001
1.37171
1.37269
1.37346
1.37418
1.37483
1.37537
1.3758
1.37627
1.37709
1.36741
1.369
1.36977
1.3703
1.37076
1.37112
1.37134
1.37148
1.37175
1.3725
1.36823
1.36968
1.37021
1.37051
1.37071
1.37079
1.37076
1.37068
1.37072
1.37121
1.37081
1.37208
1.37233
1.37231
1.37216
1.37187
1.37149
1.37112
1.37087
1.37104
1.376
1.37699
1.37683
1.37636
1.3757
1.37492
1.3741
1.37335
1.37274
1.37244
1.38201
1.38251
1.38176
1.38066
1.37936
1.37798
1.37664
1.37544
1.37438
1.37366
1.39104
1.39085
1.38935
1.38752
1.38551
1.38351
1.38161
1.37988
1.37834
1.37707
1.39917
1.39773
1.39521
1.39242
1.38956
1.38684
1.38435
1.38214
1.38019
1.37853
1.40219
1.3999
1.39673
1.39334
1.39006
1.38703
1.3843
1.38189
1.37979
1.37793
1.39041
1.39049
1.39048
1.39058
1.39068
1.39076
1.3908
1.39081
1.39077
1.39074
1.37908
1.38065
1.38158
1.38236
1.38311
1.38382
1.38442
1.38492
1.38544
1.38628
1.37686
1.37832
1.37909
1.3797
1.38029
1.38079
1.38117
1.38146
1.38186
1.38267
1.37799
1.37935
1.37996
1.38043
1.38084
1.38114
1.38131
1.38142
1.3816
1.38212
1.38055
1.3818
1.38222
1.38246
1.38259
1.38257
1.38243
1.38227
1.38217
1.38237
1.38513
1.3862
1.38634
1.38623
1.38593
1.38548
1.38495
1.38444
1.384
1.38376
1.39005
1.39079
1.39051
1.38991
1.38909
1.38813
1.38715
1.38623
1.38538
1.38477
1.39754
1.39778
1.39694
1.39577
1.39436
1.39287
1.3914
1.39002
1.38876
1.38767
1.4038
1.40295
1.40131
1.39939
1.3973
1.39524
1.39329
1.39152
1.38992
1.38854
1.40531
1.40401
1.40199
1.39965
1.39725
1.39494
1.3928
1.39086
1.38914
1.3876
1.39934
1.39925
1.39918
1.39926
1.39936
1.39944
1.39949
1.39952
1.39949
1.39946
1.38965
1.39107
1.39193
1.39267
1.39343
1.39414
1.39474
1.39524
1.39576
1.39656
1.38787
1.38919
1.38991
1.39055
1.39118
1.39175
1.3922
1.39256
1.39299
1.39378
1.38922
1.39045
1.39107
1.3916
1.3921
1.3925
1.39278
1.39297
1.3932
1.39368
1.39171
1.39284
1.39329
1.39363
1.39389
1.39401
1.39401
1.39396
1.39392
1.3941
1.3957
1.39667
1.39688
1.39693
1.39682
1.39656
1.39623
1.39587
1.39553
1.39532
1.39961
1.40031
1.40019
1.39985
1.39931
1.39865
1.39793
1.39723
1.39655
1.39603
1.40565
1.40594
1.4054
1.40462
1.40363
1.40254
1.40142
1.40034
1.39933
1.39841
1.41003
1.40941
1.4083
1.40699
1.4055
1.40397
1.40249
1.40112
1.39984
1.3987
1.41029
1.40951
1.40824
1.40665