/*--------------------------------*- C++ -*----------------------------------*\
| =========                 |                                                 |
| \\      /  F ield         | foam-extend: Open Source CFD                    |
|  \\    /   O peration     | Version:     4.0                                |
|   \\  /    A nd           | Web:         http://www.foam-extend.org         |
|    \\/     M anipulation  |                                                 |
\*---------------------------------------------------------------------------*/
FoamFile
{
    version     2.0;
    format      ascii;
    class       volScalarField;
    location    "150";
    object      T;
}
// * * * * * * * * * * * * * * * * * * * * * * * * * * * * * * * * * * * * * //

dimensions      [0 0 0 1 0 0 0];

internalField   nonuniform List<scalar> 
34480
(
286.42
286.238
286.076
285.933
285.808
285.698
285.605
285.568
285.658
285.331
286.584
286.24
285.984
285.781
285.654
285.664
285.829
286.071
286.448
285.868
286.569
286.243
285.989
285.749
285.526
285.41
285.481
285.6
285.81
284.596
286.411
286.101
285.843
285.582
285.32
285.111
285.054
285.007
285.009
283.125
286.268
285.967
285.703
285.424
285.137
284.858
284.668
284.446
284.245
281.716
286.224
285.924
285.648
285.351
285.041
284.713
284.41
284.015
283.617
280.478
286.178
285.872
285.588
285.281
284.956
284.599
284.218
283.664
283.063
279.352
286.121
285.807
285.525
285.23
284.918
284.571
284.166
283.498
282.667
278.367
285.844
285.533
285.277
285.038
284.79
284.492
284.108
283.373
282.25
277.337
286.336
286.011
285.772
285.591
285.453
285.3
285.055
284.439
283.156
277.62
286.595
286.461
286.361
286.296
286.279
286.321
286.462
286.787
287.295
287.975
286.673
286.364
286.167
286.035
285.999
286.132
286.5
287.102
287.991
289.181
286.608
286.32
286.131
285.978
285.867
285.895
286.192
286.742
287.585
288.588
286.404
286.141
285.962
285.806
285.682
285.645
285.843
286.296
287.06
287.822
286.212
285.975
285.803
285.647
285.523
285.448
285.546
285.886
286.569
287.092
286.116
285.898
285.731
285.573
285.447
285.354
285.374
285.597
286.195
286.49
286.022
285.82
285.66
285.506
285.382
285.285
285.258
285.369
285.87
285.94
285.937
285.754
285.611
285.479
285.375
285.297
285.265
285.294
285.667
285.47
285.681
285.531
285.429
285.349
285.295
285.252
285.243
285.236
285.444
284.913
286.171
286.037
285.967
285.949
285.985
286.044
286.123
286.181
286.273
285.306
286.856
286.745
286.667
286.627
286.636
286.702
286.852
287.132
287.579
288.158
286.888
286.591
286.413
286.305
286.296
286.454
286.837
287.427
288.273
289.469
286.836
286.554
286.379
286.248
286.17
286.237
286.568
287.148
288.034
289.249
286.647
286.393
286.23
286.1
286.011
286.018
286.264
286.782
287.668
288.851
286.471
286.246
286.093
285.965
285.876
285.848
286.005
286.436
287.311
288.444
286.387
286.184
286.035
285.905
285.815
285.77
285.86
286.193
287.043
288.112
286.302
286.114
285.971
285.846
285.758
285.709
285.758
285.995
286.799
287.788
286.228
286.057
285.929
285.822
285.752
285.718
285.763
285.925
286.648
287.517
286.005
285.862
285.768
285.705
285.677
285.671
285.732
285.864
286.481
287.215
286.51
286.379
286.311
286.297
286.336
286.406
286.526
286.686
287.201
287.796
287.099
287.018
286.962
286.938
286.957
287.022
287.151
287.368
287.678
288.05
287.091
286.82
286.665
286.579
286.585
286.745
287.107
287.64
288.356
289.385
287.053
286.788
286.633
286.526
286.475
286.56
286.887
287.433
288.202
289.265
286.88
286.646
286.504
286.401
286.344
286.381
286.639
287.148
287.942
288.999
286.72
286.518
286.387
286.286
286.231
286.241
286.426
286.871
287.684
288.733
286.648
286.467
286.34
286.239
286.183
286.18
286.311
286.683
287.506
288.545
286.571
286.404
286.282
286.184
286.131
286.124
286.227
286.526
287.342
288.361
286.509
286.355
286.245
286.162
286.125
286.131
286.232
286.476
287.253
288.223
286.322
286.189
286.105
286.057
286.054
286.085
286.203
286.426
287.144
288.057
286.84
286.714
286.649
286.638
286.684
286.769
286.926
287.165
287.801
288.69
287.325
287.275
287.238
287.224
287.242
287.294
287.39
287.541
287.743
287.956
287.28
287.041
286.911
286.842
286.855
287.003
287.325
287.787
288.377
289.253
287.258
287.019
286.887
286.8
286.767
286.855
287.154
287.638
288.277
289.177
287.107
286.9
286.781
286.701
286.667
286.721
286.965
287.425
288.089
288.979
286.967
286.794
286.685
286.608
286.578
286.612
286.799
287.213
287.902
288.785
286.909
286.755
286.649
286.571
286.542
286.567
286.716
287.077
287.79
288.674
286.843
286.698
286.595
286.52
286.494
286.519
286.65
286.959
287.687
288.574
286.793
286.658
286.563
286.501
286.487
286.523
286.658
286.931
287.648
288.521
286.643
286.522
286.447
286.411
286.426
286.482
286.633
286.897
287.592
288.446
287.173
287.052
286.991
286.982
287.032
287.127
287.304
287.581
288.219
289.113
287.549
287.525
287.503
287.495
287.509
287.547
287.614
287.718
287.848
287.966
287.46
287.255
287.15
287.096
287.111
287.239
287.518
287.916
288.411
289.176
287.451
287.245
287.136
287.067
287.046
287.127
287.389
287.808
288.336
289.105
287.325
287.153
287.058
286.997
286.979
287.037
287.254
287.652
288.195
288.94
287.21
287.069
286.983
286.926
286.914
286.96
287.133
287.494
288.053
288.779
287.167
287.043
286.957
286.9
286.889
286.932
287.08
287.402
287.982
288.7
287.112
286.994
286.909
286.853
286.846
286.89
287.031
287.321
287.92
288.636
287.075
286.962
286.882
286.836
286.84
286.895
287.043
287.313
287.915
288.621
286.962
286.854
286.787
286.762
286.788
286.861
287.025
287.296
287.898
288.593
287.5
287.387
287.329
287.323
287.375
287.476
287.658
287.941
288.511
289.271
287.781
287.777
287.766
287.761
287.771
287.797
287.843
287.913
287.997
288.047
287.636
287.465
287.385
287.343
287.358
287.466
287.703
288.045
288.467
289.145
287.638
287.465
287.381
287.328
287.314
287.385
287.607
287.964
288.406
289.071
287.537
287.402
287.331
287.287
287.28
287.335
287.519
287.853
288.295
288.92
287.448
287.343
287.279
287.239
287.237
287.287
287.438
287.738
288.184
288.775
287.421
287.329
287.263
287.223
287.224
287.275
287.411
287.683
288.139
288.709
287.379
287.288
287.22
287.18
287.185
287.24
287.376
287.63
288.101
288.659
287.354
287.264
287.198
287.165
287.18
287.245
287.392
287.64
288.117
288.656
287.275
287.182
287.124
287.106
287.139
287.22
287.382
287.637
288.126
288.647
287.818
287.715
287.661
287.658
287.71
287.81
287.987
288.255
288.73
289.323
288.026
288.036
288.033
288.031
288.037
288.055
288.086
288.134
288.185
288.184
287.813
287.677
287.618
287.589
287.602
287.692
287.891
288.185
288.549
289.153
287.821
287.684
287.623
287.585
287.577
287.636
287.82
288.121
288.494
289.072
287.746
287.649
287.601
287.57
287.57
287.62
287.769
288.043
288.402
288.926
287.684
287.615
287.571
287.544
287.55
287.598
287.722
287.964
288.311
288.787
287.673
287.613
287.566
287.537
287.546
287.598
287.716
287.936
288.283
288.724
287.642
287.579
287.527
287.499
287.512
287.569
287.693
287.905
288.26
288.677
287.629
287.563
287.509
287.487
287.509
287.576
287.711
287.926
288.287
288.676
287.581
287.504
287.453
287.441
287.478
287.559
287.709
287.936
288.313
288.675
288.126
288.033
287.985
287.983
288.033
288.129
288.291
288.53
288.908
289.346
288.285
288.305
288.307
288.306
288.311
288.323
288.344
288.376
288.405
288.36
287.994
287.892
287.855
287.836
287.849
287.922
288.087
288.338
288.653
289.188
288.004
287.904
287.865
287.84
287.837
287.885
288.034
288.285
288.599
289.101
287.954
287.895
287.868
287.849
287.853
287.896
288.013
288.232
288.52
288.955
287.918
287.885
287.859
287.842
287.851
287.894
287.993
288.18
288.445
288.818
287.923
287.893
287.862
287.844
287.856
287.904
288.002
288.173
288.427
288.752
287.902
287.865
287.827
287.808
287.825
287.88
287.986
288.156
288.412
288.704
287.9
287.856
287.815
287.8
287.824
287.888
288.007
288.185
288.446
288.701
287.877
287.816
287.773
287.766
287.802
287.878
288.011
288.203
288.483
288.71
288.419
288.338
288.296
288.296
288.341
288.429
288.572
288.775
289.066
289.377
288.555
288.583
288.588
288.588
288.59
288.599
288.614
288.636
288.647
288.565
288.18
288.113
288.096
288.086
288.099
288.158
288.293
288.505
288.774
289.24
288.19
288.128
288.11
288.096
288.097
288.136
288.254
288.46
288.722
289.151
288.164
288.143
288.134
288.124
288.131
288.166
288.256
288.426
288.651
289.004
288.154
288.152
288.143
288.133
288.143
288.179
288.256
288.396
288.588
288.867
288.172
288.17
288.152
288.141
288.153
288.195
288.275
288.402
288.578
288.797
288.158
288.145
288.119
288.107
288.124
288.174
288.262
288.394
288.568
288.745
288.166
288.142
288.112
288.102
288.126
288.184
288.285
288.426
288.606
288.742
288.162
288.117
288.082
288.077
288.11
288.179
288.292
288.448
288.649
288.766
288.697
288.628
288.591
288.592
288.633
288.71
288.832
288.998
289.217
289.43
288.832
288.864
288.871
288.871
288.873
288.879
288.89
288.904
288.903
288.79
288.37
288.34
288.342
288.34
288.353
288.4
288.508
288.682
288.906
289.3
288.379
288.356
288.357
288.353
288.357
288.39
288.482
288.646
288.857
289.212
288.378
288.391
288.398
288.395
288.403
288.432
288.5
288.627
288.794
289.065
288.391
288.418
288.42
288.416
288.425
288.456
288.514
288.614
288.744
288.93
288.42
288.441
288.434
288.427
288.439
288.475
288.537
288.629
288.739
288.859
288.411
288.418
288.402
288.394
288.411
288.453
288.525
288.623
288.732
288.805
288.427
288.421
288.399
288.393
288.415
288.465
288.547
288.657
288.772
288.806
288.436
288.404
288.376
288.373
288.402
288.462
288.555
288.678
288.819
288.849
288.958
288.901
288.869
288.871
288.906
288.972
289.072
289.204
289.365
289.507
289.109
289.144
289.151
289.151
289.152
289.157
289.165
289.174
289.165
289.027
288.563
288.571
288.589
288.595
288.607
288.645
288.728
288.866
289.044
289.362
288.573
288.587
288.606
288.61
288.617
288.644
288.714
288.84
289.002
289.278
288.596
288.639
288.659
288.661
288.669
288.692
288.743
288.834
288.948
289.133
288.629
288.679
288.691
288.69
288.698
288.722
288.767
288.835
288.91
289.006
288.665
288.704
288.705
288.702
288.713
288.742
288.79
288.855
288.912
288.938
288.658
288.681
288.673
288.668
288.682
288.718
288.775
288.847
288.906
288.886
288.68
288.689
288.674
288.67
288.689
288.732
288.797
288.88
288.947
288.895
288.696
288.676
288.654
288.652
288.677
288.726
288.801
288.897
288.993
288.958
289.199
289.153
289.127
289.128
289.157
289.212
289.292
289.395
289.512
289.605
289.376
289.412
289.419
289.419
289.42
289.423
289.429
289.436
289.421
289.267
288.757
288.801
288.834
288.845
288.857
288.887
288.949
289.053
289.184
289.42
288.77
288.82
288.853
288.863
288.872
288.896
288.948
289.04
289.152
289.344
288.815
288.885
288.913
288.919
288.926
288.945
288.983
289.044
289.108
289.205
288.864
288.932
288.95
288.952
288.959
288.978
289.011
289.056
289.085
289.09
288.904
288.958
288.964
288.963
288.972
288.995
289.032
289.077
289.093
289.031
288.897
288.932
288.929
288.926
288.938
288.967
289.012
289.065
289.086
288.986
288.925
288.944
288.934
288.932
288.948
288.983
289.035
289.096
289.129
289.007
288.94
288.93
288.912
288.911
288.931
288.971
289.03
289.104
289.169
289.088
289.419
289.382
289.361
289.362
289.386
289.43
289.493
289.572
289.657
289.717
289.624
289.659
289.665
289.665
289.666
289.668
289.673
289.677
289.661
289.501
288.946
289.025
289.07
289.085
289.096
289.119
289.164
289.237
289.32
289.468
288.967
289.05
289.094
289.107
289.117
289.137
289.177
289.239
289.303
289.404
289.031
289.121
289.156
289.163
289.169
289.185
289.213
289.252
289.272
289.276
289.093
289.173
289.194
289.197
289.202
289.218
289.244
289.272
289.265
289.182
289.135
289.196
289.205
289.204
289.212
289.231
289.26
289.291
289.278
289.138
289.125
289.167
289.166
289.165
289.175
289.198
289.234
289.273
289.27
289.103
289.157
289.182
289.176
289.175
289.188
289.216
289.257
289.304
289.314
289.139
289.165
289.162
289.148
289.147
289.163
289.195
289.242
289.298
289.342
289.233
289.614
289.586
289.569
289.57
289.589
289.624
289.673
289.732
289.794
289.833
289.837
289.872
289.878
289.878
289.878
289.88
289.884
289.887
289.873
289.718
289.126
289.234
289.287
289.304
289.314
289.332
289.364
289.41
289.447
289.503
289.16
289.27
289.32
289.335
289.345
289.362
289.392
289.432
289.451
289.456
289.238
289.342
289.378
289.385
289.391
289.403
289.425
289.448
289.433
289.345
289.309
289.395
289.416
289.418
289.423
289.436
289.456
289.474
289.442
289.278
289.349
289.413
289.422
289.422
289.429
289.445
289.468
289.49
289.46
289.255
289.336
289.38
289.381
289.38
289.388
289.408
289.436
289.466
289.449
289.233
289.373
289.401
289.397
289.396
289.406
289.429
289.462
289.498
289.495
289.287
289.368
289.369
289.359
289.357
289.37
289.395
289.432
289.475
289.505
289.383
289.783
289.762
289.749
289.749
289.764
289.791
289.828
289.873
289.919
289.944
290.002
290.041
290.046
290.046
290.046
290.047
290.05
290.053
290.041
289.903
289.29
289.419
289.475
289.492
289.501
289.514
289.537
289.564
289.56
289.521
289.345
289.471
289.523
289.537
289.546
289.559
289.582
289.606
289.589
289.5
289.429
289.537
289.57
289.577
289.582
289.592
289.609
289.622
289.583
289.412
289.504
289.587
289.606
289.609
289.613
289.624
289.641
289.653
289.606
289.38
289.541
289.601
289.61
289.61
289.616
289.629
289.649
289.666
289.628
289.38
289.524
289.566
289.568
289.567
289.574
289.59
289.613
289.637
289.614
289.373
289.568
289.595
289.592
289.592
289.6
289.618
289.644
289.672
289.665
289.445
289.544
289.548
289.54
289.539
289.549
289.569
289.596
289.63
289.651
289.53
289.924
289.908
289.898
289.899
289.91
289.931
289.959
289.993
290.026
290.044
290.09
290.151
290.155
290.155
290.155
290.156
290.158
290.161
290.154
290.042
289.428
289.566
289.619
289.635
289.642
289.652
289.669
289.682
289.65
289.521
289.511
289.641
289.688
289.701
289.707
289.718
289.735
289.749
289.709
289.536
289.59
289.692
289.721
289.726
289.73
289.739
289.752
289.76
289.709
289.476
289.666
289.741
289.756
289.758
289.762
289.772
289.786
289.794
289.745
289.483
289.7
289.753
289.76
289.76
289.765
289.776
289.792
289.806
289.769
289.507
289.684
289.721
289.723
289.723
289.728
289.741
289.759
289.777
289.756
289.515
289.737
289.761
289.76
289.76
289.766
289.78
289.799
289.821
289.814
289.606
289.692
289.696
289.691
289.691
289.699
289.713
289.733
289.758
289.772
289.665
290.039
290.029
290.022
290.023
290.031
290.046
290.067
290.091
290.115
290.127
290.15
290.197
290.2
290.2
290.2
290.201
290.202
290.204
290.201
290.124
289.524
289.654
289.699
289.711
289.717
289.724
289.736
289.742
289.698
289.501
289.642
289.759
289.797
289.807
289.812
289.82
289.831
289.837
289.79
289.564
289.705
289.792
289.814
289.818
289.822
289.828
289.837
289.84
289.789
289.533
289.78
289.841
289.853
289.856
289.859
289.866
289.875
289.879
289.835
289.576
289.814
289.857
289.863
289.864
289.868
289.875
289.886
289.894
289.862
289.622
289.805
289.835
289.839
289.84
289.844
289.852
289.863
289.874
289.855
289.645
289.87
289.89
289.891
289.892
289.897
289.906
289.918
289.931
289.923
289.752
289.801
289.807
289.806
289.807
289.813
289.822
289.834
289.849
289.855
289.771
290.132
290.127
290.124
290.126
290.132
290.142
290.155
290.17
290.184
290.19
290.146
290.173
290.174
290.174
290.174
290.175
290.175
290.176
290.175
290.136
289.54
289.646
289.679
289.689
289.694
289.699
289.704
289.703
289.66
289.449
289.699
289.789
289.817
289.825
289.829
289.833
289.836
289.833
289.789
289.564
289.739
289.804
289.822
289.828
289.832
289.834
289.834
289.828
289.783
289.556
289.813
289.859
289.871
289.876
289.879
289.88
289.88
289.875
289.836
289.624
289.851
289.884
289.893
289.898
289.901
289.902
289.903
289.898
289.868
289.685
289.856
289.881
289.889
289.893
289.896
289.899
289.899
289.896
289.873
289.72
289.93
289.947
289.952
289.955
289.959
289.963
289.965
289.965
289.951
289.834
289.837
289.845
289.849
289.853
289.857
289.861
289.865
289.867
289.86
289.801
290.192
290.193
290.194
290.197
290.202
290.207
290.213
290.218
290.222
290.22
290.062
290.083
290.085
290.087
290.087
290.086
290.085
290.081
290.079
290.065
289.417
289.489
289.517
289.53
289.536
289.536
289.532
289.519
289.48
289.319
289.613
289.673
289.697
289.709
289.714
289.713
289.705
289.688
289.644
289.484
289.641
289.69
289.712
289.724
289.728
289.725
289.714
289.691
289.644
289.49
289.718
289.756
289.775
289.785
289.788
289.785
289.773
289.75
289.704
289.567
289.767
289.798
289.814
289.823
289.826
289.823
289.812
289.79
289.747
289.63
289.791
289.817
289.832
289.84
289.843
289.84
289.831
289.811
289.771
289.672
289.864
289.882
289.893
289.9
289.903
289.902
289.896
289.881
289.851
289.775
289.753
289.768
289.777
289.783
289.787
289.788
289.784
289.773
289.749
289.699
290.2
290.206
290.21
290.215
290.219
290.221
290.222
290.218
290.211
290.198
292.672
294.141
294.408
293.292
293.88
295.669
296.125
295.166
294.228
296.388
296.96
296.022
294.279
296.791
297.459
296.584
294.254
297.091
297.835
297.04
294.286
297.415
298.228
297.557
294.355
297.748
298.628
298.101
294.422
298.039
298.983
298.639
294.245
298.059
299.074
298.927
294.008
297.932
299.094
299.274
291.536
292.094
292.155
291.765
293.229
293.89
294.041
293.745
293.912
294.728
294.892
294.463
294.377
295.354
295.535
294.972
294.754
295.89
296.092
295.395
295.125
296.415
296.643
295.825
295.437
296.869
297.123
296.193
295.684
297.247
297.53
296.502
295.667
297.376
297.709
296.571
295.74
297.607
298.041
296.983
289.05
289.26
289.303
289.184
291.148
291.502
291.609
291.485
291.48
291.928
292.056
291.878
291.73
292.282
292.426
292.175
292.023
292.684
292.845
292.508
292.413
293.191
293.371
292.946
292.805
293.699
293.898
293.392
293.186
294.189
294.407
293.829
293.377
294.47
294.686
294.046
293.819
294.907
295.051
294.446
288.649
288.799
288.816
288.705
290.597
290.866
290.942
290.838
290.705
291.018
291.11
290.996
290.727
291.09
291.197
291.067
290.811
291.232
291.356
291.203
291.028
291.516
291.656
291.476
291.287
291.847
292.003
291.789
291.584
292.215
292.385
292.137
291.778
292.464
292.629
292.348
292.397
293.033
293.15
292.93
288.403
288.525
288.532
288.421
290.286
290.515
290.569
290.458
290.313
290.563
290.625
290.512
290.233
290.505
290.577
290.463
290.187
290.486
290.572
290.459
290.263
290.597
290.702
290.59
290.388
290.762
290.885
290.772
290.565
290.981
291.119
291.002
290.655
291.097
291.235
291.11
291.218
291.571
291.672
291.624
288.353
288.466
288.467
288.357
290.144
290.355
290.398
290.283
290.119
290.34
290.386
290.267
289.995
290.223
290.273
290.155
289.887
290.127
290.186
290.074
289.879
290.133
290.206
290.105
289.904
290.177
290.266
290.176
289.975
290.268
290.372
290.294
289.95
290.246
290.353
290.287
290.454
290.634
290.722
290.75
288.383
288.485
288.484
288.379
290.067
290.265
290.302
290.188
290.01
290.211
290.247
290.129
289.86
290.06
290.097
289.978
289.723
289.925
289.965
289.852
289.669
289.876
289.925
289.821
289.633
289.847
289.907
289.818
289.631
289.849
289.92
289.846
289.507
289.708
289.782
289.731
289.973
290.047
290.116
290.173
288.463
288.554
288.551
288.454
290.03
290.215
290.247
290.138
289.952
290.137
290.167
290.054
289.784
289.964
289.991
289.877
289.627
289.802
289.83
289.718
289.543
289.716
289.749
289.645
289.47
289.643
289.682
289.59
289.418
289.586
289.633
289.556
289.223
289.364
289.412
289.366
289.691
289.707
289.754
289.818
288.572
288.65
288.646
288.561
290.011
290.18
290.209
290.107
289.92
290.089
290.115
290.009
289.74
289.901
289.922
289.815
289.567
289.72
289.74
289.635
289.46
289.607
289.628
289.528
289.36
289.501
289.526
289.435
289.277
289.408
289.436
289.358
289.047
289.146
289.176
289.135
289.549
289.533
289.562
289.627
288.7
288.76
288.755
288.687
289.997
290.15
290.174
290.081
289.9
290.051
290.074
289.978
289.712
289.854
289.871
289.773
289.529
289.661
289.675
289.578
289.403
289.527
289.54
289.447
289.284
289.398
289.411
289.326
289.182
289.282
289.297
289.224
288.949
289.014
289.032
289
289.506
289.469
289.487
289.549
288.836
288.877
288.871
288.822
289.98
290.114
290.134
290.052
289.882
290.014
290.032
289.947
289.69
289.811
289.824
289.737
289.5
289.61
289.619
289.533
289.362
289.462
289.469
289.386
289.229
289.317
289.323
289.247
289.121
289.193
289.198
289.135
288.906
288.943
288.953
288.932
289.529
289.48
289.49
289.549
288.977
288.994
288.989
288.962
289.955
290.068
290.084
290.012
289.859
289.97
289.984
289.91
289.664
289.763
289.771
289.696
289.472
289.559
289.563
289.489
289.329
289.403
289.404
289.333
289.189
289.25
289.249
289.185
289.084
289.128
289.126
289.076
288.905
288.914
288.918
288.913
289.597
289.542
289.546
289.602
289.116
289.109
289.103
289.101
289.916
290.006
290.017
289.957
289.825
289.912
289.921
289.859
289.628
289.703
289.706
289.643
289.44
289.501
289.499
289.438
289.297
289.343
289.338
289.282
289.157
289.188
289.181
289.133
289.065
289.079
289.071
289.039
288.933
288.916
288.915
288.929
289.693
289.635
289.637
289.689
289.25
289.219
289.212
289.235
289.858
289.924
289.93
289.88
289.774
289.837
289.84
289.789
289.578
289.626
289.623
289.573
289.398
289.43
289.422
289.376
289.261
289.277
289.265
289.227
289.129
289.128
289.114
289.088
289.06
289.042
289.028
289.019
288.984
288.94
288.936
288.971
289.803
289.746
289.746
289.794
289.378
289.322
289.315
289.363
289.776
289.818
289.817
289.777
289.702
289.737
289.733
289.693
289.508
289.526
289.516
289.48
289.343
289.343
289.328
289.299
289.221
289.202
289.184
289.168
289.104
289.068
289.049
289.048
289.068
289.016
288.998
289.017
289.052
288.983
288.976
289.034
289.915
289.861
289.861
289.905
289.497
289.419
289.412
289.482
289.665
289.68
289.671
289.642
289.603
289.609
289.597
289.568
289.415
289.4
289.383
289.363
289.275
289.238
289.216
289.21
289.178
289.12
289.097
289.108
289.087
289.012
288.99
289.02
289.093
289.006
288.987
289.037
289.135
289.042
289.033
289.113
290.019
289.972
289.971
290.009
289.607
289.514
289.507
289.593
289.517
289.502
289.486
289.467
289.474
289.446
289.426
289.412
289.3
289.247
289.222
289.225
289.198
289.12
289.093
289.116
289.138
289.041
289.014
289.059
289.085
288.974
288.949
289.014
289.142
289.024
289.005
289.087
289.23
289.119
289.109
289.206
290.109
290.07
290.069
290.099
289.713
289.614
289.607
289.699
289.325
289.275
289.251
289.25
289.314
289.247
289.22
289.229
289.17
289.075
289.045
289.079
289.123
289.005
288.975
289.035
289.114
288.981
288.954
289.036
289.111
288.969
288.946
289.045
289.224
289.083
289.065
289.175
289.336
289.213
289.203
289.31
290.18
290.151
290.15
290.172
289.811
289.724
289.718
289.801
289.088
288.998
288.968
288.996
289.135
289.026
288.994
289.038
289.047
288.914
288.882
288.953
289.069
288.921
288.893
288.987
289.119
288.964
288.94
289.051
289.169
289.015
288.995
289.114
289.33
289.185
289.17
289.29
289.425
289.307
289.297
289.4
290.217
290.199
290.198
290.21
289.872
289.813
289.809
289.865
288.851
288.73
288.699
288.758
288.985
288.853
288.824
288.897
288.968
288.827
288.8
288.889
289.052
288.909
288.886
288.987
289.145
289.006
288.987
289.092
289.229
289.097
289.082
289.185
289.398
289.281
289.269
289.365
289.423
289.329
289.319
289.395
290.196
290.188
290.187
290.189
289.306
288.54
288.102
287.764
287.462
287.216
287.017
286.85
286.703
286.563
291.431
290.564
289.753
289.156
288.653
288.223
287.855
287.543
287.263
286.972
291.533
290.616
289.648
289.006
288.48
288.053
287.709
287.437
287.2
286.943
291.466
290.509
289.405
288.737
288.198
287.78
287.46
287.218
287.012
286.778
291.452
290.442
289.204
288.512
287.96
287.552
287.251
287.029
286.84
286.625
291.678
290.57
289.195
288.472
287.901
287.496
287.202
286.98
286.787
286.573
292.017
290.778
289.263
288.502
287.908
287.501
287.196
286.956
286.744
286.523
292.494
291.117
289.469
288.666
288.036
287.603
287.256
286.969
286.717
286.466
292.797
291.342
289.528
288.658
287.957
287.462
287.052
286.719
286.438
286.171
294.048
292.484
290.606
289.674
288.873
288.277
287.771
287.356
287.01
286.694
290.249
289.297
288.573
288.044
287.659
287.375
287.16
286.99
286.851
286.725
292.371
290.983
289.937
289.231
288.693
288.253
287.888
287.589
287.333
287.074
292.452
290.838
289.679
288.959
288.423
287.999
287.668
287.415
287.207
286.982
292.292
290.522
289.288
288.575
288.05
287.649
287.35
287.132
286.957
286.759
292.092
290.221
288.929
288.226
287.711
287.334
287.064
286.872
286.717
286.541
291.992
290.068
288.725
288.033
287.523
287.168
286.917
286.736
286.585
286.417
291.906
289.962
288.568
287.883
287.376
287.039
286.797
286.614
286.458
286.296
291.88
289.956
288.517
287.838
287.326
286.989
286.731
286.525
286.351
286.184
291.736
289.821
288.308
287.612
287.066
286.708
286.424
286.206
286.029
285.873
292.252
290.422
288.96
288.292
287.725
287.33
287.003
286.745
286.54
286.373
288.803
288.476
288.188
287.922
287.689
287.493
287.329
287.19
287.072
286.964
290.957
290.261
289.689
289.207
288.777
288.393
288.063
287.788
287.548
287.295
291.135
290.299
289.625
289.081
288.614
288.219
287.903
287.659
287.453
287.226
291.139
290.175
289.406
288.815
288.324
287.928
287.627
287.405
287.221
287.016
291.138
290.055
289.191
288.556
288.047
287.655
287.37
287.163
286.993
286.807
291.233
290.045
289.086
288.415
287.892
287.509
287.235
287.034
286.867
286.691
291.331
290.049
288.996
288.293
287.761
287.386
287.118
286.914
286.743
286.575
291.455
290.105
288.969
288.243
287.703
287.326
287.044
286.822
286.639
286.471
291.439
290.016
288.774
288.012
287.447
287.056
286.759
286.529
286.346
286.191
292.018
290.598
289.377
288.642
288.072
287.659
287.331
287.073
286.868
286.708
288.378
288.181
288.018
287.851
287.697
287.562
287.445
287.343
287.255
287.175
290.429
289.906
289.486
289.116
288.77
288.451
288.172
287.936
287.724
287.489
290.533
289.948
289.47
289.051
288.669
288.334
288.061
287.847
287.659
287.441
290.519
289.867
289.326
288.859
288.445
288.097
287.827
287.621
287.447
287.247
290.541
289.808
289.188
288.669
288.224
287.867
287.599
287.399
287.232
287.05
290.684
289.858
289.148
288.578
288.108
287.747
287.481
287.281
287.113
286.941
290.849
289.921
289.113
288.493
288.003
287.64
287.373
287.167
286.995
286.832
291.045
290.022
289.12
288.46
287.953
287.582
287.301
287.079
286.899
286.738
291.121
289.984
288.968
288.26
287.729
287.345
287.052
286.824
286.643
286.495
291.781
290.586
289.574
288.882
288.349
287.948
287.63
287.38
287.181
287.03
288.112
287.989
287.903
287.804
287.708
287.622
287.546
287.478
287.42
287.367
290.054
289.611
289.289
289.007
288.734
288.475
288.246
288.051
287.871
287.659
290.086
289.622
289.277
288.967
288.668
288.399
288.176
287.997
287.834
287.633
290.015
289.536
289.163
288.818
288.491
288.205
287.978
287.8
287.644
287.457
289.986
289.483
289.064
288.674
288.315
288.014
287.781
287.601
287.447
287.277
290.085
289.543
289.061
288.621
288.233
287.921
287.683
287.497
287.34
287.181
290.222
289.622
289.062
288.572
288.158
287.836
287.59
287.395
287.234
287.082
290.401
289.737
289.097
288.562
288.126
287.791
287.528
287.319
287.149
287.001
290.467
289.724
288.987
288.404
287.946
287.598
287.325
287.109
286.937
286.8
291.137
290.354
289.613
289.037
288.573
288.208
287.915
287.68
287.492
287.352
288.05
287.964
287.913
287.847
287.782
287.724
287.673
287.629
287.593
287.562
289.871
289.466
289.194
288.959
288.729
288.512
288.32
288.157
288.005
287.815
289.84
289.433
289.159
288.914
288.674
288.454
288.272
288.125
287.988
287.805
289.719
289.32
289.04
288.776
288.517
288.285
288.098
287.95
287.816
287.649
289.636
289.242
288.942
288.648
288.364
288.12
287.926
287.772
287.64
287.489
289.674
289.277
288.943
288.613
288.306
288.05
287.848
287.685
287.548
287.408
289.752
289.339
288.955
288.584
288.254
287.986
287.773
287.599
287.456
287.322
289.875
289.439
289.001
288.593
288.241
287.956
287.726
287.538
287.387
287.257
289.89
289.431
288.926
288.481
288.11
287.813
287.572
287.377
287.22
287.097
290.569
290.09
289.579
289.131
288.75
288.436
288.177
287.966
287.794
287.666
288.083
288.03
288.003
287.957
287.909
287.868
287.833
287.805
287.785
287.771
289.779
289.404
289.163
288.958
288.757
288.567
288.402
288.264
288.135
287.966
289.707
289.34
289.108
288.902
288.7
288.515
288.364
288.243
288.127
287.965
289.55
289.199
288.973
288.76
288.547
288.357
288.204
288.082
287.972
287.827
289.425
289.091
288.861
288.631
288.405
288.208
288.051
287.925
287.816
287.689
289.409
289.089
288.846
288.596
288.358
288.154
287.99
287.855
287.741
287.625
289.428
289.117
288.85
288.576
288.322
288.108
287.932
287.785
287.665
287.554
289.487
289.187
288.893
288.595
288.324
288.095
287.902
287.742
287.613
287.505
289.442
289.174
288.848
288.526
288.242
288.001
287.798
287.628
287.491
287.386
290.128
289.857
289.522
289.194
288.896
288.638
288.418
288.234
288.082
287.968
288.181
288.16
288.152
288.119
288.083
288.052
288.027
288.008
288
287.997
289.741
289.395
289.179
288.994
288.811
288.641
288.495
288.375
288.264
288.115
289.645
289.31
289.107
288.927
288.748
288.587
288.457
288.355
288.259
288.118
289.463
289.149
288.956
288.774
288.592
288.431
288.304
288.205
288.117
287.997
289.307
289.012
288.824
288.637
288.452
288.293
288.167
288.066
287.982
287.882
289.246
288.974
288.788
288.595
288.409
288.251
288.121
288.013
287.925
287.835
289.214
288.966
288.776
288.574
288.383
288.218
288.077
287.959
287.864
287.779
289.218
289.004
288.81
288.599
288.398
288.22
288.065
287.935
287.831
287.746
289.132
288.992
288.792
288.569
288.359
288.172
288.007
287.866
287.751
287.666
289.832
289.691
289.479
289.247
289.024
288.821
288.641
288.486
288.355
288.258
288.321
288.333
288.342
288.319
288.292
288.268
288.249
288.236
288.235
288.242
289.73
289.415
289.221
289.051
288.882
288.725
288.593
288.488
288.394
288.264
289.622
289.319
289.138
288.974
288.811
288.666
288.552
288.465
288.386
288.266
289.424
289.141
288.971
288.81
288.65
288.511
288.403
288.323
288.256
288.162
289.244
288.984
288.824
288.667
288.513
288.383
288.282
288.205
288.144
288.072
289.149
288.916
288.769
288.618
288.473
288.35
288.25
288.167
288.104
288.042
289.077
288.878
288.742
288.594
288.452
288.328
288.22
288.128
288.058
287.999
289.041
288.891
288.767
288.622
288.477
288.343
288.224
288.121
288.042
287.982
288.942
288.89
288.776
288.627
288.477
288.335
288.206
288.092
288
287.935
289.663
289.597