/*--------------------------------*- C++ -*----------------------------------*\
| =========                 |                                                 |
| \\      /  F ield         | foam-extend: Open Source CFD                    |
|  \\    /   O peration     | Version:     4.0                                |
|   \\  /    A nd           | Web:         http://www.foam-extend.org         |
|    \\/     M anipulation  |                                                 |
\*---------------------------------------------------------------------------*/
FoamFile
{
    version     2.0;
    format      ascii;
    class       volVectorField;
    location    "150";
    object      Urel;
}
// * * * * * * * * * * * * * * * * * * * * * * * * * * * * * * * * * * * * * //

dimensions      [0 1 -1 0 0 0 0];

internalField   nonuniform List<vector> 
34480
(
(168.447 -10.1343 -17.888)
(169.369 -9.51091 -19.8287)
(170.137 -8.72668 -21.8981)
(170.754 -7.75962 -24.0206)
(171.205 -6.64106 -26.3785)
(171.486 -5.32572 -29.1086)
(171.494 -3.75815 -32.594)
(170.841 -1.79818 -37.0826)
(168.415 0.781632 -44.3739)
(161.422 5.33839 -69.7005)
(165.965 -13.3661 -25.9914)
(167.819 -12.0231 -27.9712)
(169.086 -10.5137 -30.0484)
(170.011 -8.82769 -32.1372)
(170.445 -7.06631 -34.3691)
(170.036 -5.24711 -36.8652)
(168.628 -3.30792 -39.9529)
(166.43 -1.11464 -44.278)
(162.314 1.47909 -51.4758)
(154.161 6.13101 -80.3496)
(166.283 -17.5601 -32.7875)
(168.011 -15.5743 -34.9526)
(169.236 -13.4511 -37.1996)
(170.328 -11.1604 -39.4731)
(171.226 -8.81891 -41.9342)
(171.399 -6.49767 -44.6848)
(170.345 -4.16879 -47.9887)
(168.51 -1.65821 -52.8356)
(164.809 1.1155 -60.6055)
(157.077 6.1021 -92.5016)
(167.548 -21.006 -39.9972)
(169.148 -18.3341 -42.3704)
(170.328 -15.5916 -44.8037)
(171.448 -12.7243 -47.2732)
(172.442 -9.81943 -49.9539)
(172.975 -6.94517 -52.9314)
(172.44 -4.15493 -56.4178)
(171.168 -1.25643 -61.7103)
(168.054 1.86475 -70.0079)
(160.866 7.33191 -104.181)
(168.784 -24.9177 -46.9295)
(170.257 -21.7475 -49.5856)
(171.395 -18.5576 -52.2688)
(172.517 -15.271 -54.9643)
(173.518 -11.9575 -57.8758)
(174.268 -8.63589 -61.1087)
(174.26 -5.35943 -64.8351)
(173.578 -1.96347 -70.5924)
(171.043 1.67112 -79.4048)
(164.39 7.74865 -115.378)
(169.426 -27.8121 -54.5225)
(170.793 -24.1868 -57.4658)
(171.905 -20.5612 -60.319)
(173.034 -16.8495 -63.1512)
(174.045 -13.096 -66.1769)
(174.903 -9.28739 -69.5464)
(175.314 -5.47768 -73.3946)
(175.208 -1.57475 -79.4499)
(173.262 2.60799 -88.6024)
(167.153 9.29423 -125.997)
(169.993 -31.8123 -61.7596)
(171.277 -27.9099 -65.0144)
(172.343 -23.9782 -68.087)
(173.443 -19.94 -71.0716)
(174.442 -15.8219 -74.2176)
(175.327 -11.5884 -77.7155)
(176 -7.24248 -81.7)
(176.407 -2.7233 -88.0302)
(175.084 2.21457 -97.5365)
(169.56 9.65778 -136.115)
(170.571 -34.5892 -69.94)
(171.734 -30.3961 -73.4952)
(172.68 -26.1171 -76.7056)
(173.628 -21.7146 -79.7446)
(174.487 -17.1629 -82.8566)
(175.242 -12.4068 -86.272)
(175.941 -7.41645 -90.1391)
(176.719 -2.2206 -96.3894)
(176.145 3.56034 -106.008)
(171.427 11.7533 -145.346)
(172.308 -39.5664 -77.3063)
(173.224 -35.1941 -81.3105)
(173.866 -30.6065 -84.8722)
(174.414 -25.8411 -88.0934)
(174.896 -20.9013 -91.1976)
(175.393 -15.7372 -94.485)
(175.968 -10.2283 -98.2125)
(176.968 -4.3803 -104.286)
(177.298 2.4824 -114.188)
(173.478 11.8518 -153.741)
(172.13 -43.9021 -84.8335)
(172.927 -39.1631 -89.2917)
(173.311 -34.0312 -93.2736)
(173.366 -28.6299 -96.8699)
(173.128 -22.9748 -100.173)
(172.794 -17.077 -103.403)
(172.587 -10.8403 -106.89)
(172.994 -4.19662 -112.251)
(173.735 3.57794 -121.493)
(171.6 14.3637 -159.217)
(166.594 1.31134 3.97362)
(167.445 0.624893 2.94459)
(168.086 0.00689752 1.65101)
(168.487 -0.494653 0.255794)
(168.596 -0.903475 -1.36478)
(168.338 -1.17278 -3.19645)
(167.479 -1.27043 -5.32505)
(165.502 -1.17602 -7.76853)
(162.354 -0.910872 -10.0643)
(157.838 -0.0681251 -14.274)
(164.492 2.1408 3.42111)
(166.388 1.60832 2.49662)
(167.592 1.16265 1.327)
(168.386 0.816521 0.0320435)
(168.62 0.496847 -1.46663)
(167.875 0.185851 -3.20997)
(165.784 -0.0770517 -5.23891)
(162.28 -0.221166 -7.78737)
(157.039 -0.319806 -10.3322)
(149.958 0.376979 -18.2422)
(164.82 2.01155 3.97744)
(166.6 1.61665 3.05291)
(167.763 1.26166 1.89341)
(168.697 0.991986 0.587576)
(169.371 0.73604 -0.986234)
(169.242 0.432235 -2.92394)
(167.557 0.0691454 -5.23829)
(164.343 -0.219488 -8.44222)
(159.314 -0.581625 -11.9101)
(152.927 0.134387 -23.842)
(166.027 2.61216 4.13951)
(167.647 2.40688 3.20675)
(168.745 2.15893 2.04922)
(169.688 1.93936 0.713371)
(170.44 1.70994 -0.928069)
(170.68 1.43402 -2.99274)
(169.561 1.02262 -5.48476)
(166.896 0.62199 -9.22506)
(162.299 0.106529 -13.4675)
(156.678 1.04281 -29.2439)
(167.169 2.724 4.59089)
(168.628 2.52149 3.58829)
(169.674 2.21857 2.37261)
(170.616 1.91445 0.972104)
(171.364 1.58088 -0.759416)
(171.814 1.22886 -2.95808)
(171.255 0.783846 -5.63616)
(169.221 0.365175 -9.92497)
(165.08 -0.176168 -14.8782)
(160.122 1.08268 -34.3133)
(167.73 3.82186 4.39593)
(169.065 3.57946 3.33106)
(170.083 3.20891 2.14302)
(171.034 2.82107 0.77214)
(171.789 2.40723 -0.937502)
(172.333 2.01359 -3.15782)
(172.205 1.57659 -5.88522)
(170.818 1.14227 -10.5615)
(167.172 0.597955 -16.0264)
(162.805 2.16544 -38.8547)
(168.253 3.78314 4.57323)
(169.498 3.33405 3.42939)
(170.472 2.78095 2.21448)
(171.396 2.23238 0.849468)
(172.134 1.68858 -0.856404)
(172.692 1.20229 -3.10143)
(172.819 0.758551 -5.87597)
(172.034 0.396943 -10.8973)
(168.948 0.0589483 -16.8717)
(165.181 2.02164 -42.8434)
(168.776 4.97091 3.84009)
(169.909 4.33273 2.63523)
(170.782 3.64038 1.48033)
(171.574 2.96332 0.213796)
(172.189 2.34145 -1.34765)
(172.627 1.83587 -3.43624)
(172.766 1.47337 -6.02136)
(172.425 1.20392 -11.0092)
(170.043 1.16885 -17.234)
(167.084 3.33053 -45.8984)
(170.353 3.94221 3.97824)
(171.275 3.00027 2.59118)
(171.899 2.13493 1.28372)
(172.368 1.34294 -0.0322287)
(172.674 0.630333 -1.53547)
(172.889 0.0389408 -3.50021)
(172.882 -0.305872 -5.95203)
(172.725 -0.47036 -10.755)
(171.187 0.0939793 -17.3495)
(169.172 2.65133 -48.0205)
(170.001 3.58508 3.84111)
(170.85 2.52975 2.29893)
(171.293 1.70803 0.840319)
(171.402 1.01681 -0.630821)
(171.183 0.471279 -2.18202)
(170.796 0.0624059 -4.02045)
(170.249 -0.10394 -6.27142)
(169.7 -0.0380614 -10.454)
(168.622 0.881593 -16.8418)
(167.995 4.4784 -47.3495)
(164.939 0.637252 3.25191)
(165.651 0.134528 2.42045)
(166.155 -0.343924 1.32623)
(166.408 -0.743928 0.158544)
(166.361 -1.0798 -1.15339)
(165.958 -1.31394 -2.53994)
(165.046 -1.42694 -3.97147)
(163.354 -1.42108 -5.33887)
(160.62 -1.36335 -6.22894)
(156.903 -1.04805 -7.08623)
(163.165 1.62121 2.9886)
(164.983 1.20169 2.18094)
(166.072 0.837724 1.12239)
(166.725 0.531795 -0.0549756)
(166.787 0.229517 -1.3864)
(165.867 -0.0850953 -2.86237)
(163.638 -0.385065 -4.39739)
(160.143 -0.616032 -5.98377)
(155.043 -0.83393 -7.03979)
(147.665 -0.711376 -9.252)
(163.436 1.69966 3.55891)
(165.181 1.38842 2.69981)
(166.258 1.0798 1.60683)
(167.054 0.82058 0.385759)
(167.525 0.561681 -1.05502)
(167.145 0.249547 -2.78318)
(165.209 -0.133254 -4.68807)
(161.747 -0.488256 -6.88631)
(156.34 -0.952577 -8.58773)
(148.669 -0.968883 -12.766)
(164.571 2.46059 3.72817)
(166.136 2.30663 2.8128)
(167.136 2.07589 1.68728)
(167.925 1.8443 0.409695)
(168.461 1.59491 -1.11366)
(168.42 1.29826 -2.99643)
(166.977 0.871693 -5.15085)
(163.872 0.409852 -7.88801)
(158.428 -0.235793 -10.1942)
(150.72 -0.219129 -16.5737)
(165.626 2.66726 4.17992)
(167.006 2.48671 3.16695)
(167.945 2.18629 1.96328)
(168.725 1.86782 0.6003)
(169.258 1.52071 -1.02658)
(169.418 1.15777 -3.05004)
(168.48 0.713524 -5.4409)
(165.87 0.253011 -8.76323)
(160.48 -0.444511 -11.7178)
(152.794 -0.277833 -20.5212)
(166.113 3.80267 3.98797)
(167.362 3.56299 2.90702)
(168.273 3.18951 1.72042)
(169.059 2.7927 0.373327)
(169.599 2.37479 -1.24763)
(169.852 1.97995 -3.2973)
(169.299 1.55151 -5.77279)
(167.237 1.09368 -9.54737)
(161.993 0.363839 -13.0529)
(154.365 0.708003 -24.3797)
(166.584 3.74492 4.1881)
(167.744 3.29891 3.03246)
(168.616 2.75371 1.81107)
(169.378 2.21819 0.455195)
(169.903 1.69558 -1.1825)
(170.174 1.23512 -3.27164)
(169.844 0.813737 -5.81828)
(168.317 0.450568 -10.0163)
(163.334 -0.0995992 -14.1335)
(155.826 0.541958 -28.0381)
(167.035 4.9015 3.49139)
(168.096 4.2789 2.29468)
(168.882 3.61284 1.13539)
(169.531 2.9774 -0.133378)
(169.948 2.40201 -1.6494)
(170.124 1.93776 -3.61479)
(169.809 1.58963 -6.00448)
(168.693 1.30471 -10.2701)
(164.155 1.01849 -14.7895)
(156.932 1.79428 -31.0484)
(168.402 3.79963 3.68656)
(169.285 2.89635 2.35052)
(169.861 2.07988 1.0571)
(170.241 1.35999 -0.266477)
(170.396 0.734891 -1.76557)
(170.397 0.232864 -3.67682)
(169.974 -0.0547264 -6.02452)
(169.018 -0.184847 -10.2522)
(165.05 0.159956 -15.2513)
(158.131 1.25031 -33.2005)
(167.88 3.46421 3.51718)
(168.711 2.47467 2.07774)
(169.141 1.71005 0.689799)
(169.234 1.07929 -0.730618)
(168.986 0.599956 -2.24034)
(168.531 0.261418 -4.02993)
(167.742 0.148338 -6.21516)
(166.586 0.244888 -9.98225)
(163.047 0.967924 -15.0736)
(156.363 2.97911 -32.7167)
(163.37 0.0305143 2.61862)
(163.895 -0.304669 1.98842)
(164.264 -0.65183 1.11051)
(164.418 -0.954586 0.189219)
(164.309 -1.22293 -0.815997)
(163.91 -1.4263 -1.81003)
(163.128 -1.55266 -2.7342)
(161.83 -1.60885 -3.4739)
(159.947 -1.65594 -3.72744)
(157.621 -1.59231 -3.40002)
(161.86 1.11093 2.55872)
(163.539 0.813144 1.89004)
(164.492 0.539767 0.971565)
(165.021 0.286191 -0.056884)
(164.987 0.0127981 -1.18729)
(164.041 -0.29457 -2.37061)
(161.904 -0.612875 -3.4767)
(158.715 -0.893596 -4.42413)
(154.377 -1.14813 -4.7925)
(148.04 -1.2392 -4.7264)
(162.064 1.39815 3.11946)
(163.71 1.18471 2.35148)
(164.672 0.936243 1.35517)
(165.33 0.7003 0.240785)
(165.642 0.44807 -1.04233)
(165.141 0.134314 -2.51184)
(163.199 -0.25732 -4.00278)
(159.904 -0.647716 -5.4565)
(155.173 -1.12457 -6.21641)
(148.532 -1.44504 -6.88893)
(163.11 2.32258 3.28157)
(164.563 2.22794 2.41187)
(165.439 2.0241 1.34801)
(166.072 1.79093 0.148887)
(166.417 1.53165 -1.24253)
(166.189 1.224 -2.89364)
(164.648 0.792347 -4.66656)
(161.569 0.296296 -6.58732)
(156.656 -0.374827 -7.72332)
(149.951 -0.796118 -9.41338)
(164.077 2.61233 3.72568)
(165.329 2.45771 2.73357)
(166.14 2.16794 1.5716)
(166.757 1.84462 0.267452)
(167.089 1.49339 -1.24545)
(167.024 1.12857 -3.05584)
(165.905 0.690657 -5.1001)
(163.185 0.207775 -7.56683)
(158.14 -0.526889 -9.18115)
(151.389 -0.941223 -12.2045)
(164.498 3.76571 3.53455)
(165.62 3.53376 2.47078)
(166.406 3.16684 1.31466)
(167.026 2.77238 0.0122769)
(167.361 2.36185 -1.51158)
(167.368 1.97552 -3.36417)
(166.554 1.56048 -5.52702)
(164.252 1.09295 -8.43447)
(159.135 0.305444 -10.499)
(152.326 -0.0695032 -15.0767)
(164.922 3.66997 3.76037)
(165.965 3.23377 2.62656)
(166.721 2.70595 1.42803)
(167.32 2.19161 0.102992)
(167.639 1.69708 -1.45653)
(167.658 1.26698 -3.37029)
(167.008 0.872563 -5.63853)
(165.115 0.518282 -8.97976)
(160.02 -0.110195 -11.6077)
(153.176 -0.301371 -17.9519)
(165.308 4.77667 3.10402)
(166.271 4.18003 1.94879)
(166.959 3.54934 0.814983)
(167.463 2.96007 -0.430751)
(167.687 2.4351 -1.88543)
(167.628 2.01587 -3.7057)
(166.973 1.69242 -5.86208)
(165.387 1.41366 -9.32109)
(160.495 0.995487 -12.3542)
(153.736 0.876666 -20.4249)
(166.461 3.59937 3.36977)
(167.288 2.74793 2.1098)
(167.808 1.986 0.857207)
(168.098 1.33376 -0.441845)
(168.107 0.785352 -1.90266)
(167.891 0.363806 -3.70963)
(167.129 0.127749 -5.88329)
(165.647 0.033239 -9.41748)
(161.071 0.232972 -12.9584)
(154.422 0.423774 -22.3159)
(165.775 3.31871 3.17468)
(166.582 2.40406 1.85129)
(166.994 1.6995 0.548142)
(167.068 1.12663 -0.80232)
(166.78 0.705173 -2.24314)
(166.232 0.42549 -3.93134)
(165.212 0.351784 -5.95595)
(163.593 0.471299 -9.14396)
(159.362 1.03872 -12.9362)
(152.505 2.03729 -21.9959)
(161.878 -0.449532 2.1403)
(162.215 -0.659382 1.6686)
(162.465 -0.901768 0.977481)
(162.558 -1.12513 0.267252)
(162.452 -1.33822 -0.492404)
(162.132 -1.51553 -1.20645)
(161.552 -1.64732 -1.82678)
(160.647 -1.736 -2.27284)
(159.436 -1.82267 -2.3636)
(158.11 -1.81027 -2.08197)
(160.634 0.6842 2.20098)
(162.127 0.489338 1.65739)
(162.933 0.296446 0.876958)
(163.358 0.0934401 -0.000941028)
(163.281 -0.14743 -0.940201)
(162.401 -0.43716 -1.87543)
(160.476 -0.752949 -2.67509)
(157.69 -1.04474 -3.25984)
(154.098 -1.28408 -3.38583)
(148.687 -1.36252 -2.95592)
(160.746 1.14836 2.70748)
(162.241 1.02594 2.0371)
(163.072 0.83635 1.15077)
(163.61 0.627344 0.157502)
(163.817 0.387241 -0.956756)
(163.288 0.0800314 -2.17477)
(161.487 -0.306301 -3.32191)
(158.54 -0.701974 -4.28663)
(154.591 -1.13972 -4.63524)
(148.948 -1.4779 -4.3763)
(161.668 2.21172 2.83729)
(162.957 2.17266 2.03371)
(163.7 1.99798 1.05401)
(164.198 1.76997 -0.0462605)
(164.403 1.50927 -1.28849)
(164.074 1.20128 -2.6947)
(162.594 0.779707 -4.1116)
(159.782 0.281135 -5.43533)
(155.647 -0.348115 -5.97687)
(150.003 -0.854626 -6.05016)
(162.518 2.55657 3.26082)
(163.603 2.42854 2.31891)
(164.283 2.155 1.22606)
(164.759 1.8354 0.0055347)
(164.942 1.48934 -1.37429)
(164.728 1.1325 -2.95238)
(163.581 0.712161 -4.6442)
(161.034 0.232949 -6.4296)
(156.727 -0.458627 -7.28178)
(151.087 -1.04144 -7.93953)
(162.858 3.70426 3.06678)
(163.825 3.48569 2.05244)
(164.487 3.13371 0.955912)
(164.966 2.7513 -0.274826)
(165.145 2.35805 -1.68021)
(164.976 1.98973 -3.31679)
(164.048 1.59834 -5.14287)
(161.807 1.14411 -7.30852)
(157.343 0.393876 -8.47251)
(151.656 -0.245009 -9.91397)
(163.224 3.55405 3.31873)
(164.13 3.13695 2.23859)
(164.776 2.63592 1.09208)
(165.239 2.15032 -0.174018)
(165.4 1.69029 -1.63109)
(165.232 1.29504 -3.35027)
(164.402 0.934458 -5.30869)
(162.446 0.602616 -7.87139)
(157.876 0.00056711 -9.48519)
(152.114 -0.539151 -11.9542)
(163.542 4.59994 2.70567)
(164.392 4.04094 1.61963)
(164.988 3.45445 0.538523)
(165.375 2.91523 -0.654798)
(165.454 2.44254 -2.02117)
(165.215 2.07006 -3.66963)
(164.356 1.78023 -5.55821)
(162.598 1.52744 -8.24748)
(158.062 1.08873 -10.1837)
(152.29 0.572033 -13.7387)
(164.471 3.34667 3.04324)
(165.232 2.55955 1.8793)
(165.703 1.85822 0.689706)
(165.92 1.27153 -0.556246)
(165.824 0.791657 -1.94547)
(165.452 0.439513 -3.60418)
(164.488 0.250688 -5.53962)
(162.77 0.191947 -8.35841)
(158.337 0.321661 -10.7593)
(152.578 0.136675 -15.2015)
(163.625 3.14982 2.81727)
(164.4 2.31843 1.62148)
(164.795 1.67759 0.416228)
(164.849 1.16157 -0.846588)
(164.534 0.792694 -2.19413)
(163.922 0.563545 -3.74141)
(162.777 0.519618 -5.54165)
(160.943 0.652288 -8.08642)
(156.727 1.10143 -10.7241)
(150.488 1.57459 -14.8761)
(160.378 -0.795835 1.80915)
(160.554 -0.920631 1.44827)
(160.709 -1.08697 0.899651)
(160.766 -1.25096 0.34849)
(160.682 -1.4214 -0.234474)
(160.449 -1.57658 -0.764868)
(160.044 -1.70676 -1.21261)
(159.427 -1.80828 -1.52684)
(158.649 -1.90755 -1.5881)
(157.927 -1.908 -1.42991)
(159.456 0.369969 1.93464)
(160.745 0.252914 1.48788)
(161.401 0.123854 0.825287)
(161.737 -0.0364918 0.0776659)
(161.648 -0.246225 -0.704409)
(160.874 -0.512527 -1.45373)
(159.192 -0.812756 -2.05315)
(156.778 -1.09566 -2.43962)
(153.747 -1.30882 -2.46241)
(148.995 -1.34071 -2.01307)
(159.484 0.972686 2.34892)
(160.793 0.922822 1.76778)
(161.482 0.782253 0.990255)
(161.913 0.598133 0.117985)
(162.048 0.372461 -0.837751)
(161.552 0.0789113 -1.84228)
(159.959 -0.290335 -2.73387)
(157.389 -0.67352 -3.39691)
(154.096 -1.06672 -3.54678)
(149.245 -1.36537 -3.08266)
(160.26 2.13814 2.41867)
(161.348 2.14158 1.69025)
(161.946 1.99274 0.807381)
(162.326 1.77363 -0.181748)
(162.433 1.51827 -1.27035)
(162.072 1.21987 -2.4492)
(160.742 0.822714 -3.5734)
(158.288 0.345645 -4.49706)
(154.886 -0.222562 -4.73521)
(150.14 -0.706555 -4.33212)
(160.97 2.50173 2.8065)
(161.856 2.39514 1.93502)
(162.401 2.14002 0.931758)
(162.757 1.83097 -0.185349)
(162.832 1.49824 -1.4189)
(162.54 1.15841 -2.76872)
(161.468 0.767744 -4.14652)
(159.228 0.315712 -5.44013)
(155.707 -0.300047 -5.8824)
(151.06 -0.887612 -5.69775)
(161.218 3.61806 2.60286)
(162.004 3.41486 1.66261)
(162.543 3.08387 0.649729)
(162.901 2.72131 -0.485211)
(162.967 2.35332 -1.75295)
(162.691 2.01102 -3.16842)
(161.76 1.65438 -4.67513)
(159.742 1.23703 -6.26797)
(156.083 0.574285 -6.91509)
(151.48 -0.106113 -7.06299)
(161.519 3.39793 2.87784)
(162.269 3.00662 1.8766)
(162.806 2.54007 0.807182)
(163.154 2.08974 -0.373478)
(163.199 1.66939 -1.70504)
(162.909 1.31291 -3.2165)
(162.017 0.992783 -4.86592)
(160.178 0.698275 -6.79183)
(156.386 0.182501 -7.7813)
(151.775 -0.430328 -8.45809)
(161.766 4.37639 2.30718)
(162.487 3.86396 1.3119)
(162.995 3.32891 0.306821)
(163.283 2.84297 -0.807151)
(163.255 2.42376 -2.06006)
(162.899 2.09969 -3.51542)
(161.954 1.85097 -5.12139)
(160.214 1.64043 -7.15146)
(156.376 1.25819 -8.36249)
(151.788 0.651636 -9.63356)
(162.471 3.04784 2.71397)
(163.154 2.33397 1.661)
(163.576 1.69808 0.55341)
(163.734 1.17544 -0.614609)
(163.563 0.758155 -1.90413)
(163.09 0.466703 -3.38599)
(162.04 0.320494 -5.05098)
(160.286 0.298341 -7.21089)
(156.427 0.41357 -8.79914)
(151.878 0.16881 -10.6059)
(161.473 2.96159 2.45041)
(162.205 2.21917 1.39014)
(162.578 1.64521 0.294518)
(162.615 1.18552 -0.864431)
(162.285 0.865306 -2.09719)
(161.636 0.679724 -3.47588)
(160.45 0.658588 -5.01851)
(158.585 0.796832 -6.95771)
(154.823 1.15747 -8.68047)
(149.699 1.39516 -10.1531)
(158.811 -1.02194 1.59346)
(158.859 -1.09284 1.30253)
(158.943 -1.20751 0.853579)
(158.977 -1.32986 0.411746)
(158.918 -1.46879 -0.0536006)
(158.758 -1.60582 -0.47097)
(158.482 -1.73107 -0.825793)
(158.064 -1.83607 -1.08589)
(157.574 -1.93795 -1.16213)
(157.28 -1.94373 -1.11585)
(158.293 0.174164 1.75635)
(159.372 0.111024 1.3735)
(159.883 0.0279855 0.800176)
(160.141 -0.100077 0.152806)
(160.053 -0.28304 -0.512958)
(159.394 -0.524373 -1.13605)
(157.95 -0.802964 -1.61862)
(155.86 -1.06873 -1.91187)
(153.258 -1.25636 -1.90706)
(149.021 -1.2409 -1.54731)
(158.261 0.878905 2.05317)
(159.36 0.878135 1.54455)
(159.903 0.772325 0.864032)
(160.237 0.607692 0.100873)
(160.325 0.396689 -0.719184)
(159.888 0.122148 -1.55685)
(158.525 -0.220844 -2.27334)
(156.315 -0.579365 -2.76285)
(153.541 -0.929409 -2.81807)
(149.321 -1.18126 -2.37205)
(158.879 2.10537 2.03863)
(159.739 2.1336 1.38554)
(160.192 2.00369 0.602304)
(160.47 1.79494 -0.27316)
(160.511 1.55028 -1.21558)
(160.161 1.27016 -2.19867)
(159.024 0.909316 -3.09854)
(156.944 0.47177 -3.76728)
(154.154 -0.0318833 -3.84383)
(150.152 -0.469854 -3.35103)
(159.432 2.44871 2.3773)
(160.1 2.35459 1.5875)
(160.51 2.1172 0.685603)
(160.766 1.82387 -0.316406)
(160.77 1.5114 -1.40031)
(160.452 1.19671 -2.5408)
(159.511 0.845998 -3.65802)
(157.625 0.439341 -4.61417)
(154.804 -0.0906893 -4.83298)
(150.998 -0.632654 -4.41009)
(159.581 3.50833 2.15661)
(160.17 3.31937 1.3068)
(160.589 3.01294 0.394132)
(160.847 2.67639 -0.627681)
(160.837 2.33993 -1.74674)
(160.511 2.0303 -2.949)
(159.647 1.71718 -4.1748)
(157.927 1.35448 -5.34905)
(155.032 0.800671 -5.70221)
(151.36 0.167725 -5.40029)
(159.813 3.20475 2.44939)
(160.394 2.84293 1.54487)
(160.827 2.41625 0.571257)
(161.081 2.00632 -0.50342)
(161.046 1.62953 -1.69337)
(160.692 1.31484 -2.99516)
(159.82 1.03983 -4.35913)
(158.198 0.793448 -5.79399)
(155.198 0.390093 -6.40668)
(151.603 -0.167202 -6.35956)
(159.988 4.11322 1.91727)
(160.568 3.65315 1.02793)
(160.992 3.17452 0.116865)
(161.2 2.74404 -0.89647)
(161.1 2.37855 -2.01727)
(160.68 2.10296 -3.27039)
(159.738 1.89908 -4.60093)
(158.14 1.74043 -6.10019)
(155.074 1.45743 -6.8432)
(151.579 0.923204 -7.07542)
(160.479 2.71131 2.38912)
(161.072 2.07588 1.45685)
(161.446 1.50841 0.445971)
(161.557 1.04817 -0.624641)
(161.341 0.68842 -1.79395)
(160.818 0.449773 -3.08579)
(159.773 0.340846 -4.47813)
(158.119 0.353058 -6.07918)
(154.973 0.486934 -7.0944)
(151.602 0.339009 -7.59516)
(159.338 2.75956 2.08051)
(160.014 2.10908 1.15984)
(160.361 1.6041 0.183022)
(160.384 1.20025 -0.85894)
(160.051 0.925523 -1.96067)
(159.399 0.777379 -3.15615)
(158.245 0.77316 -4.434)
(156.481 0.910902 -5.85167)
(153.334 1.20449 -6.8949)
(149.373 1.35935 -7.03119)
(157.141 -1.15047 1.45331)
(157.093 -1.18787 1.20353)
(157.126 -1.26848 0.821303)
(157.146 -1.36254 0.450794)
(157.107 -1.47871 0.0608833)
(156.998 -1.60143 -0.288209)
(156.81 -1.72152 -0.592533)
(156.526 -1.82759 -0.829204)
(156.231 -1.93112 -0.925063)
(156.271 -1.94674 -0.95369)
(157.115 0.0849044 1.64585)
(157.983 0.0576741 1.29778)
(158.354 0.00535648 0.785767)
(158.541 -0.100548 0.209151)
(158.458 -0.262328 -0.376619)
(157.907 -0.480119 -0.919505)
(156.682 -0.736112 -1.34018)
(154.87 -0.984559 -1.59688)
(152.607 -1.15484 -1.59512)
(148.803 -1.10808 -1.32825)
(157.05 0.860336 1.81722)
(157.927 0.885463 1.36214)
(158.325 0.79941 0.761723)
(158.57 0.647504 0.0898749)
(158.622 0.449893 -0.621157)
(158.253 0.197322 -1.33491)
(157.114 -0.113844 -1.93877)
(155.232 -0.440737 -2.33741)
(152.875 -0.751194 -2.35652)
(149.175 -0.963588 -1.98609)
(157.508 2.10893 1.70274)
(158.128 2.14351 1.11947)
(158.438 2.02412 0.431329)
(158.629 1.82561 -0.335694)
(158.628 1.59544 -1.14678)
(158.313 1.34005 -1.96897)
(157.377 1.02382 -2.70446)
(155.658 0.638676 -3.21872)
(153.379 0.200873 -3.21537)
(150.003 -0.189118 -2.75133)
(157.896 2.39552 1.98366)
(158.337 2.30331 1.2792)
(158.619 2.08119 0.482479)
(158.793 1.8071 -0.400949)
(158.756 1.52017 -1.34049)
(158.447 1.23703 -2.29791)
(157.659 0.93345 -3.20767)
(156.13 0.585188 -3.93867)
(153.909 0.143991 -4.03768)
(150.832 -0.33811 -3.58168)
(157.943 3.37605 1.73999)
(158.332 3.19796 0.989)
(158.638 2.9175 0.185327)
(158.817 2.61134 -0.714072)
(158.76 2.31086 -1.68245)
(158.427 2.03876 -2.68869)
(157.669 1.77457 -3.67813)
(156.265 1.47735 -4.55439)
(154.045 1.03899 -4.73981)
(151.194 0.485297 -4.31537)
(158.11 2.97884 2.0447)
(158.518 2.64741 1.24696)
(158.853 2.26358 0.380848)
(159.032 1.89748 -0.574786)
(158.949 1.56654 -1.61581)
(158.575 1.2954 -2.71667)
(157.778 1.06767 -3.82947)
(156.413 0.874868 -4.8982)
(154.133 0.587964 -5.28135)
(151.438 0.135757 -4.98428)
(158.213 3.81875 1.54531)
(158.649 3.41354 0.770283)
(158.992 2.99386 -0.0349059)
(159.137 2.61965 -0.933209)
(158.996 2.30706 -1.91146)
(158.557 2.07849 -2.96546)
(157.68 1.91939 -4.04284)
(156.288 1.81441 -5.13296)
(153.948 1.64263 -5.57293)
(151.429 1.24692 -5.38315)
(158.51 2.34619 2.07726)
(159.005 1.79062 1.26966)
(159.33 1.29242 0.365147)
(159.405 0.89246 -0.59477)
(159.17 0.585662 -1.63165)
(158.641 0.392635 -2.73368)
(157.664 0.315461 -3.87136)
(156.192 0.356385 -5.03019)
(153.747 0.519169 -5.64918)
(151.421 0.513907 -5.55487)
(157.239 2.55041 1.71543)
(157.85 1.99184 0.934053)
(158.167 1.5565 0.0817284)
(158.177 1.20764 -0.834231)
(157.855 0.975576 -1.79493)
(157.227 0.859491 -2.8043)
(156.159 0.867466 -3.82985)
(154.58 0.999795 -4.82692)
(152.064 1.24061 -5.39401)
(149.137 1.37414 -4.93859)
(155.358 -1.20297 1.35407)
(155.239 -1.21919 1.12754)
(155.237 -1.27736 0.79022)
(155.248 -1.35229 0.466039)
(155.223 -1.45202 0.124982)
(155.148 -1.56374 -0.181647)
(155.019 -1.67991 -0.456385)
(154.824 -1.78785 -0.680006)
(154.67 -1.8951 -0.790476)
(154.993 -1.92705 -0.866761)
(155.904 0.0826275 1.57663)
(156.555 0.0792099 1.24104)
(156.792 0.0459556 0.767962)
(156.914 -0.0461162 0.239035)
(156.833 -0.191997 -0.293392)
(156.378 -0.38895 -0.786825)
(155.351 -0.623839 -1.17824)
(153.788 -0.85817 -1.42669)
(151.816 -1.02085 -1.43917)
(148.42 -0.960128 -1.25259)
(155.83 0.899491 1.62963)
(156.474 0.93035 1.21124)
(156.73 0.850733 0.673681)
(156.895 0.705175 0.0749882)
(156.916 0.519075 -0.551282)
(156.61 0.289469 -1.17485)
(155.678 0.0126213 -1.70906)
(154.093 -0.279459 -2.06646)
(152.091 -0.554637 -2.08274)
(148.856 -0.73724 -1.80042)
(156.126 2.13621 1.40999)
(156.504 2.16081 0.888828)
(156.68 2.04406 0.287293)
(156.799 1.85509 -0.380713)
(156.772 1.64186 -1.07785)
(156.5 1.41504 -1.77094)
(155.754 1.14764 -2.38855)
(154.369 0.822416 -2.81448)
(152.529 0.451395 -2.78544)
(149.71 0.108531 -2.3949)
(156.348 2.33566 1.63125)
(156.567 2.23557 1.01062)
(156.733 2.02583 0.316974)
(156.843 1.77324 -0.450667)
(156.785 1.5154 -1.25667)
(156.506 1.26789 -2.05891)
(155.869 1.0149 -2.80764)
(154.674 0.732291 -3.39182)
(152.973 0.381209 -3.43879)
(150.552 -0.0315865 -3.0329)
(156.3 3.21992 1.36206)
(156.494 3.04859 0.711727)
(156.698 2.79411 0.0190817)
(156.816 2.52101 -0.755862)
(156.737 2.25902 -1.57889)
(156.424 2.02727 -2.41131)
(155.788 1.81381 -3.20793)
(154.687 1.58614 -3.87521)
(153.049 1.26214 -3.97181)
(150.944 0.804319 -3.55783)
(156.41 2.72396 1.67341)
(156.65 2.42196 0.985592)
(156.897 2.08189 0.231995)
(157.018 1.76127 -0.598889)
(156.91 1.47677 -1.49164)
(156.55 1.24943 -2.40802)
(155.856 1.06858 -3.30753)
(154.752 0.929911 -4.10899)
(153.094 0.750771 -4.35404)
(151.216 0.421657 -4.00961)
(156.446 3.50091 1.20016)
(156.738 3.15032 0.541376)
(157.008 2.78977 -0.152218)
(157.105 2.47119 -0.928099)
(156.947 2.20958 -1.76133)
(156.523 2.02528 -2.62869)
(155.746 1.90802 -3.48386)
(154.585 1.85226 -4.2688)
(152.878 1.7816 -4.51488)
(151.231 1.5382 -4.19254)
(156.576 1.9612 1.78703)
(156.97 1.4836 1.10249)
(157.247 1.05346 0.308684)
(157.295 0.710965 -0.533665)
(157.062 0.452684 -1.4339)
(156.558 0.298746 -2.35646)
(155.689 0.247852 -3.26928)
(154.436 0.310181 -4.09608)
(152.607 0.497161 -4.4549)
(151.165 0.622295 -4.13979)
(155.192 2.34126 1.36325)
(155.73 1.8718 0.716473)
(156.013 1.50512 -0.00963522)
(156.015 1.20974 -0.795269)
(155.715 1.01755 -1.61141)
(155.135 0.928762 -2.44128)
(154.187 0.945138 -3.23966)
(152.833 1.06856 -3.91432)
(150.886 1.26643 -4.1672)
(148.801 1.39577 -3.50996)
(153.472 -1.19681 1.2693)
(153.304 -1.19907 1.05679)
(153.279 -1.2422 0.752042)
(153.284 -1.30391 0.460204)
(153.268 -1.39145 0.153521)
(153.215 -1.49455 -0.123691)
(153.123 -1.60812 -0.377435)
(152.991 -1.71939 -0.589173)
(152.94 -1.83266 -0.707189)
(153.512 -1.88672 -0.811655)
(154.651 0.145814 1.5209)
(155.076 0.158613 1.1834)
(155.185 0.136281 0.734762)
(155.246 0.0520821 0.239379)
(155.166 -0.0819005 -0.255401)
(154.793 -0.260551 -0.716328)
(153.946 -0.476179 -1.09454)
(152.614 -0.699922 -1.34642)
(150.915 -0.863724 -1.37539)
(147.936 -0.804634 -1.25336)
(154.582 0.972041 1.4746)
(154.985 0.992517 1.08043)
(155.106 0.909022 0.591665)
(155.198 0.765251 0.0514188)
(155.191 0.589165 -0.508513)
(154.938 0.382322 -1.06465)
(154.19 0.140287 -1.55458)
(152.878 -0.116113 -1.89669)
(151.199 -0.359537 -1.92705)
(148.416 -0.521171 -1.72745)
(154.718 2.1678 1.15447)
(154.857 2.16997 0.688289)
(154.914 2.0502 0.164095)
(154.974 1.87056 -0.415144)
(154.932 1.67593 -1.01447)
(154.704 1.47926 -1.60382)
(154.124 1.26114 -2.13528)
(153.039 0.998686 -2.51164)
(151.592 0.694148 -2.48949)
(149.302 0.396636 -2.18508)
(154.78 2.25794 1.32108)
(154.79 2.14301 0.780158)
(154.855 1.94363 0.183974)
(154.916 1.7141 -0.474407)
(154.852 1.48742 -1.15996)
(154.611 1.27735 -1.8325)
(154.112 1.07475 -2.45677)
(153.212 0.858938 -2.94459)
(151.967 0.596323 -2.98353)
(150.161 0.259986 -2.66403)
(154.647 3.03549 1.02825)
(154.662 2.86763 0.475834)
(154.778 2.63859 -0.108827)
(154.851 2.39982 -0.762783)
(154.766 2.17714 -1.45053)
(154.489 1.98639 -2.13251)
(153.972 1.82224 -2.77465)
(153.14 1.66198 -3.29585)
(152.002 1.44516 -3.35529)
(150.588 1.09367 -3.01455)
(154.713 2.44216 1.34233)
(154.798 2.16804 0.762128)
(154.968 1.87123 0.120472)
(155.047 1.59615 -0.586201)
(154.933 1.35717 -1.33736)
(154.607 1.17221 -2.08977)
(154.025 1.03548 -2.8128)
(153.163 0.947373 -3.42197)
(152.026 0.860344 -3.58936)
(150.894 0.657981 -3.2929)
(154.688 3.166 0.888924)
(154.846 2.86799 0.342977)
(155.051 2.56494 -0.238831)
(155.114 2.30002 -0.89124)
(154.955 2.08642 -1.58356)
(154.569 1.94261 -2.28255)
(153.907 1.86241 -2.94969)
(152.974 1.84791 -3.51294)
(151.792 1.85758 -3.64073)
(150.918 1.75432 -3.32718)
(154.686 1.56358 1.52595)
(154.982 1.15971 0.95805)
(155.213 0.794685 0.27433)
(155.244 0.506106 -0.449598)
(155.025 0.291863 -1.21583)
(154.57 0.17105 -1.9758)
(153.824 0.141117 -2.69865)
(152.795 0.217406 -3.28607)
(151.471 0.418018 -3.48554)
(150.751 0.640301 -3.14225)
(153.213 2.13902 1.03116)
(153.674 1.75364 0.510426)
(153.921 1.45305 -0.0917136)
(153.918 1.20892 -0.747402)
(153.648 1.05364 -1.42139)
(153.132 0.987895 -2.08506)
(152.319 1.00957 -2.68776)
(151.2 1.12181 -3.12533)
(149.73 1.28372 -3.18429)
(148.289 1.40922 -2.51368)
(151.512 -1.14488 1.18063)
(151.311 -1.13777 0.979226)
(151.273 -1.17076 0.701753)
(151.275 -1.22296 0.436329)
(151.264 -1.30099 0.157952)
(151.226 -1.39685 -0.0948305)
(151.159 -1.50832 -0.329318)
(151.069 -1.62365 -0.526364)
(151.094 -1.74429 -0.645141)
(151.879 -1.82483 -0.763568)
(153.359 0.254447 1.45312)
(153.546 0.278522 1.10694)
(153.532 0.261675 0.67652)
(153.539 0.181897 0.209616)
(153.457 0.0574304 -0.253571)
(153.155 -0.104515 -0.687764)
(152.472 -0.301706 -1.05709)
(151.364 -0.516786 -1.31485)
(149.939 -0.688295 -1.3603)
(147.404 -0.64438 -1.29081)
(153.298 1.05056 1.33525)
(153.453 1.04843 0.958186)
(153.447 0.954567 0.509228)
(153.474 0.810552 0.0181742)
(153.443 0.644189 -0.486847)
(153.231 0.4597 -0.988189)
(152.643 0.25196 -1.44507)
(151.585 0.0314513 -1.78227)
(150.218 -0.181532 -1.83521)
(147.905 -0.327637 -1.71032)
(153.275 2.1798 0.927561)
(153.187 2.15201 0.511534)
(153.139 2.02683 0.0570468)
(153.154 1.8576 -0.442004)
(153.104 1.68317 -0.956094)
(152.915 1.51673 -1.45961)
(152.472 1.34551 -1.92338)
(151.653 1.14494 -2.26836)
(150.571 0.905941 -2.27024)
(148.814 0.65404 -2.05218)
(153.187 2.14778 1.05041)
(153.009 2.0152 0.584495)
(152.991 1.82601 0.0789257)
(153.018 1.62102 -0.478044)
(152.955 1.42652 -1.05576)
(152.756 1.25382 -1.61926)
(152.37 1.0986 -2.14507)
(151.72 0.945547 -2.56486)
(150.879 0.76635 -2.61968)
(149.673 0.511722 -2.40036)
(152.986 2.81532 0.740248)
(152.843 2.64976 0.280455)
(152.889 2.44593 -0.202409)
(152.93 2.24185 -0.742321)
(152.849 2.05787 -1.30702)
(152.614 1.90692 -1.8601)
(152.203 1.78811 -2.37849)
(151.595 1.68823 -2.79488)
(150.879 1.5662 -2.84708)
(150.12 1.32616 -2.60978)
(153.024 2.13352 1.05479)
(152.973 1.88638 0.576245)
(153.08 1.63172 0.0418725)
(153.13 1.40109 -0.545751)
(153.021 1.20541 -1.16575)
(152.738 1.05997 -1.77546)
(152.263 0.962588 -2.35419)