/*--------------------------------*- C++ -*----------------------------------*\
| =========                 |                                                 |
| \\      /  F ield         | foam-extend: Open Source CFD                    |
|  \\    /   O peration     | Version:     4.0                                |
|   \\  /    A nd           | Web:         http://www.foam-extend.org         |
|    \\/     M anipulation  |                                                 |
\*---------------------------------------------------------------------------*/
FoamFile
{
    version     2.0;
    format      ascii;
    class       volScalarField;
    location    "2400";
    object      divFlux;
}
// * * * * * * * * * * * * * * * * * * * * * * * * * * * * * * * * * * * * * //

dimensions      [1 -3 -1 0 0 0 0];

internalField   nonuniform List<scalar> 
34480
(
5.22659e-05
1.8567e-05
2.14499e-05
2.00592e-05
1.85589e-05
1.73513e-05
1.6491e-05
0.000280082
0.000764707
1.47806e-05
1.64301e-05
9.25871e-06
9.06627e-06
8.38699e-06
7.91443e-06
7.6611e-06
7.67445e-06
7.6674e-06
0.00389238
7.43458e-06
8.48298e-06
2.69106e-06
3.05294e-06
2.95599e-06
2.73523e-06
2.80593e-06
3.07883e-06
3.17688e-06
0.003388
3.15104e-06
3.04377e-06
6.73773e-07
1.18244e-06
1.13155e-06
9.82901e-07
1.1501e-06
1.30665e-06
1.13403e-06
0.000757614
1.35786e-06
1.16728e-06
1.50222e-07
4.92623e-07
4.89219e-07
3.65965e-07
4.72986e-07
5.88254e-07
4.84114e-07
4.94456e-07
5.84523e-07
1.84222e-07
9.43878e-08
2.31445e-07
1.96794e-07
1.56015e-07
2.47424e-07
2.77436e-07
1.19703e-07
2.64607e-07
3.02579e-07
2.52356e-07
3.81318e-08
1.06504e-07
1.08184e-07
6.63362e-08
1.12563e-07
1.03755e-07
8.7464e-08
1.41531e-07
8.49694e-08
1.2968e-07
3.87631e-08
7.15698e-08
2.79498e-08
3.49601e-08
7.9634e-08
4.43989e-08
2.67585e-08
6.7446e-08
4.8935e-08
1.57952e-07
2.29097e-09
4.7777e-08
1.2038e-08
4.40282e-08
2.97826e-08
2.0827e-09
3.91547e-08
5.06095e-08
1.77862e-08
1.64109e-07
2.59643e-09
3.13099e-08
1.5464e-08
1.71441e-08
1.91677e-08
2.06951e-08
2.85607e-08
6.45289e-09
1.11112e-08
8.19048e-05
2.72831e-05
2.73815e-05
2.56341e-05
2.41905e-05
2.30366e-05
2.22779e-05
2.19311e-05
2.18334e-05
0.00113165
2.52326e-05
1.35035e-05
1.29927e-05
1.21641e-05
1.16455e-05
1.14184e-05
1.13798e-05
1.1767e-05
1.20455e-05
0.00353816
7.47273e-06
4.83247e-06
4.67713e-06
4.6957e-06
4.61307e-06
4.98722e-06
5.00784e-06
5.44738e-06
5.75526e-06
0.00429901
3.11861e-06
1.79248e-06
1.98753e-06
2.23313e-06
2.05504e-06
2.25581e-06
2.3066e-06
2.54102e-06
2.62919e-06
0.00145424
1.26816e-06
5.82581e-07
2.03058e-07
1.57712e-06
6.73431e-07
1.18896e-06
1.03859e-06
1.12074e-06
1.32106e-06
1.21718e-06
7.82957e-07
4.30585e-07
4.96181e-07
1.05918e-06
2.49874e-07
6.80938e-07
3.11105e-07
6.58097e-07
6.72739e-07
5.65658e-07
2.37032e-07
1.2319e-06
1.5906e-06
1.11827e-06
4.44884e-09
3.17761e-07
2.10373e-07
3.36266e-07
2.61582e-07
2.9767e-07
2.91784e-07
1.22768e-06
1.09998e-06
5.65367e-07
9.1665e-08
2.12678e-07
2.32144e-08
2.40408e-07
1.80689e-07
1.34644e-07
8.2959e-07
7.4867e-07
5.89441e-07
3.18264e-07
7.4077e-08
1.97487e-08
8.46097e-08
2.56733e-07
4.10463e-09
1.8466e-08
2.86242e-08
1.72404e-07
6.56322e-08
2.45988e-08
1.45605e-07
9.67267e-08
5.21437e-08
1.41984e-08
1.2562e-07
1.28895e-07
7.24321e-05
2.0527e-05
2.12567e-05
2.00175e-05
1.89043e-05
1.80943e-05
1.76468e-05
1.76354e-05
2.93906e-05
0.000914798
2.40945e-05
9.95688e-06
9.80898e-06
9.11834e-06
8.58867e-06
8.24317e-06
8.09038e-06
8.31613e-06
8.02951e-05
0.0013663
6.18758e-06
3.06881e-06
2.95259e-06
2.9946e-06
2.9533e-06
2.98324e-06
3.03824e-06
3.39676e-06
0.000113598
0.00125776
2.72407e-06
1.30324e-06
1.25513e-06
1.45701e-06
1.31357e-06
1.22275e-06
1.38415e-06
1.40636e-06
1.47793e-06
1.94464e-06
1.64103e-06
7.08862e-07
4.52832e-07
8.7506e-07
5.57258e-07
4.50682e-07
6.07491e-07
6.61966e-07
5.81299e-07
8.27387e-07
7.5496e-07
2.86888e-07
2.28481e-07
4.37063e-07
1.47503e-07
1.60719e-07
4.45577e-07
1.86754e-07
1.56115e-07
4.50149e-07
3.16729e-07
2.06658e-07
3.29544e-08
3.35923e-07
2.96105e-08
6.0365e-08
1.78807e-07
6.23449e-08
1.73835e-07
2.1097e-07
4.87291e-08
7.46027e-08
9.33326e-08
1.33406e-07
8.53338e-08
8.45022e-08
1.69559e-07
2.55011e-08
5.16755e-08
1.29478e-07
6.36674e-08
2.76466e-08
8.67917e-08
1.9655e-08
2.64947e-08
1.03603e-07
2.26069e-08
4.55378e-08
1.34705e-07
1.21703e-07
1.47152e-07
6.97256e-08
1.10149e-07
1.65652e-08
2.65967e-08
2.76526e-08
4.53728e-08
6.0123e-08
1.10875e-08
3.29159e-09
7.32794e-05
1.89542e-05
1.97582e-05
1.86728e-05
1.7656e-05
1.69202e-05
1.65268e-05
1.64665e-05
2.5575e-05
0.000374565
2.19788e-05
8.88129e-06
8.98588e-06
8.48888e-06
8.07084e-06
7.73774e-06
7.55745e-06
7.67589e-06
2.79154e-05
0.00113262
7.33035e-06
3.96481e-06
3.51166e-06
3.11773e-06
2.97067e-06
2.84974e-06
2.73154e-06
3.01216e-06
0.000108713
0.00223363
2.22257e-06
1.29743e-06
1.05843e-06
1.14165e-06
1.18218e-06
1.09684e-06
1.15886e-06
1.27504e-06
8.99844e-05
0.0019952
1.26917e-06
6.93376e-07
3.23628e-07
5.73001e-07
6.13179e-07
4.96906e-07
4.37849e-07
6.23275e-07
2.91555e-05
0.00142918
7.74787e-07
3.09495e-07
1.5714e-07
3.46767e-07
3.20354e-07
7.81789e-08
3.15339e-07
3.34297e-07
4.39012e-06
0.000839979
3.94329e-07
1.89949e-07
5.18228e-08
2.25247e-07
1.66471e-07
4.85506e-08
1.40212e-07
1.01396e-07
1.28882e-07
0.0003204
1.61961e-07
2.14612e-08
2.68358e-08
1.70328e-07
3.24311e-08
4.35483e-08
1.5137e-07
6.24695e-08
3.90941e-08
0.000104693
2.65979e-07
9.09919e-08
8.25922e-08
4.14299e-08
1.90752e-09
6.89049e-08
8.41985e-08
5.76606e-08
4.59143e-08
1.63377e-07
2.0778e-07
1.04147e-07
7.8225e-08
5.38372e-08
3.09832e-09
1.02459e-08
1.89887e-08
5.64447e-08
2.69646e-08
1.93607e-08
7.08265e-05
1.66954e-05
1.76058e-05
1.67458e-05
1.59009e-05
1.52938e-05
1.49968e-05
1.50037e-05
3.07417e-05
0.000129469
2.24647e-05
8.19237e-06
8.18249e-06
7.66775e-06
7.28221e-06
7.00035e-06
6.83621e-06
6.88229e-06
1.63136e-05
0.000550928
6.42243e-06
3.60277e-06
3.59507e-06
3.24793e-06
3.04688e-06
2.88634e-06
2.70719e-06
2.78731e-06
5.88441e-05
0.00127702
2.76832e-06
1.71786e-06
1.43496e-06
1.28182e-06
1.20388e-06
1.14554e-06
1.10972e-06
1.15606e-06
5.07868e-05
0.00131798
8.62461e-07
7.01932e-07
4.45955e-07
4.69421e-07
4.92203e-07
5.28624e-07
4.30164e-07
5.29944e-07
2.51206e-05
0.00114141
5.58596e-07
3.03202e-07
1.67728e-07
2.20001e-07
3.07437e-07
1.50232e-07
2.14055e-07
2.8699e-07
7.89041e-06
0.000845317
4.50392e-07
1.97382e-07
1.47913e-08
1.23958e-07
1.56126e-07
9.2246e-08
1.043e-07
1.06961e-07
7.17321e-07
0.000503312
2.59164e-07
5.04767e-08
1.27646e-08
9.78393e-08
1.12486e-07
2.76168e-08
8.72648e-08
7.17625e-08
3.30402e-06
0.000328488
3.99847e-07
9.90246e-08
6.79763e-08
4.85012e-08
2.49506e-08
1.74841e-08
1.04967e-07
1.72663e-08
7.99539e-09
0.000181543
2.67853e-07
1.0064e-07
4.97352e-08
4.94786e-08
2.10747e-08
8.01354e-09
1.25194e-08
4.89082e-08
2.88031e-08
0.000227184
6.834e-05
1.46358e-05
1.54798e-05
1.47152e-05
1.39346e-05
1.33468e-05
1.30143e-05
1.30007e-05
1.3294e-05
1.09607e-05
2.1719e-05
7.71028e-06
7.75995e-06
7.28374e-06
6.88973e-06
6.57661e-06
6.38104e-06
6.31383e-06
2.69395e-05
0.000197398
5.37227e-06
2.46529e-06
2.69254e-06
2.61917e-06
2.61122e-06
2.5357e-06
2.46777e-06
2.52672e-06
1.77104e-05
0.000672136
2.49547e-06
1.5612e-06
1.45568e-06
1.34327e-06
1.21947e-06
1.1551e-06
1.09436e-06
1.09224e-06
1.32919e-05
0.000768272
9.4737e-07
8.01473e-07
6.09047e-07
5.71144e-07
5.02608e-07
5.17379e-07
4.58342e-07
5.03881e-07
4.89374e-06
0.000753327
3.74255e-07
3.23424e-07
2.15139e-07
2.14025e-07
2.56019e-07
1.94222e-07
2.05197e-07
2.38164e-07
7.24899e-06
0.000634089
2.95962e-07
1.86533e-07
5.22449e-08
1.02722e-07
1.14211e-07
1.08343e-07
9.37792e-08
1.02157e-07
9.35703e-06
0.000439194
2.13171e-07
7.34892e-08
2.85049e-08
4.57478e-08
1.03839e-07
1.53023e-08
6.25772e-08
5.44647e-08
1.69646e-05
0.000340371
4.21691e-07
8.33803e-08
5.4806e-08
3.86968e-08
4.746e-08
3.47057e-10
8.80656e-08
7.80877e-09
5.28391e-06
0.000268043
2.88536e-07
8.09389e-08
3.63469e-08
3.29535e-08
3.51804e-08
8.32454e-09
1.37859e-08
4.18613e-08
1.25846e-05
0.000302151
6.47705e-05
1.27267e-05
1.36087e-05
1.30345e-05
1.24164e-05
1.19393e-05
1.16343e-05
1.14935e-05
1.15627e-05
1.13557e-05
1.97097e-05
6.49359e-06
6.62823e-06
6.28376e-06
6.00058e-06
5.7642e-06
5.63152e-06
5.60043e-06
1.77754e-05
5.46153e-05
7.09522e-06
2.85401e-06
2.76177e-06
2.49903e-06
2.42462e-06
2.29298e-06
2.2338e-06
2.24678e-06
1.03829e-06
0.000346952
1.61385e-06
9.47459e-07
1.03101e-06
1.06063e-06
1.02857e-06
1.01454e-06
9.80065e-07
9.80731e-07
5.93138e-06
0.000435462
8.15538e-07
6.65479e-07
5.71346e-07
5.50052e-07
5.02563e-07
4.78312e-07
4.4316e-07
4.73369e-07
1.00334e-05
0.00046543
3.68406e-07
3.62552e-07
2.63587e-07
2.52718e-07
2.43402e-07
2.08799e-07
2.12422e-07
2.14788e-07
2.01671e-05
0.000429038
1.61978e-07
2.07452e-07
8.14626e-08
1.16098e-07
1.02724e-07
1.08146e-07
9.32269e-08
1.01311e-07
1.72758e-05
0.000322334
1.08908e-07
1.00437e-07
4.26175e-08
3.83883e-08
7.56528e-08
3.52534e-08
6.29651e-08
4.29724e-08
2.49507e-05
0.000281216
3.80918e-07
5.79669e-08
4.48195e-08
2.95481e-08
5.25359e-08
2.41977e-09
7.14101e-08
1.48681e-08
1.24518e-05
0.000251618
2.71527e-07
5.10908e-08
2.85152e-08
2.15651e-08
4.0912e-08
6.72831e-09
1.81393e-08
3.42577e-08
1.67127e-05
0.000280967
6.02448e-05
1.07086e-05
1.1516e-05
1.1028e-05
1.0473e-05
1.00516e-05
9.80633e-06
9.70847e-06
9.6989e-06
1.0168e-05
1.87425e-05
5.74517e-06
5.79923e-06
5.45466e-06
5.1858e-06
4.96888e-06
4.85158e-06
4.84876e-06
6.48929e-06
5.77005e-06
6.08667e-06
2.58121e-06
2.62025e-06
2.38458e-06
2.2977e-06
2.13441e-06
2.06188e-06
2.02946e-06
1.98528e-06
0.000163512
2.56606e-06
1.12368e-06
1.05281e-06
9.99473e-07
9.46456e-07
9.24598e-07
8.85167e-07
8.8251e-07
8.76892e-06
0.000234148
5.96288e-07
4.39235e-07
4.33187e-07
4.3138e-07
4.36879e-07
4.12841e-07
3.97877e-07
4.25174e-07
1.28817e-05
0.000273751
2.82706e-07
2.78273e-07
2.27066e-07
2.34077e-07
2.17133e-07
1.94932e-07
1.9775e-07
1.91358e-07
2.30024e-05
0.000278496
8.05997e-08
2.04311e-07
1.00842e-07
1.17644e-07
1.05607e-07
1.02766e-07
8.89276e-08
9.62899e-08
1.82297e-05
0.000221559
6.51993e-09
1.24465e-07
5.30633e-08
4.7647e-08
6.14215e-08
3.78042e-08
6.48307e-08
4.08835e-08
2.52647e-05
0.000215489
3.11043e-07
2.78189e-08
3.95163e-08
2.77689e-08
4.73396e-08
9.77285e-09
6.25612e-08
1.51467e-08
1.25182e-05
0.000199686
2.16763e-07
1.26243e-08
1.91083e-08
1.64505e-08
4.16533e-08
3.45965e-09
2.25221e-08
2.7998e-08
1.49263e-05
0.000230965
5.51285e-05
8.81644e-06
9.60858e-06
9.25205e-06
8.79152e-06
8.42293e-06
8.19977e-06
8.12978e-06
8.16578e-06
8.53157e-06
1.66752e-05
4.97822e-06
5.09311e-06
4.81404e-06
4.5795e-06
4.36017e-06
4.2179e-06
4.15218e-06
4.12991e-06
4.31916e-06
5.09325e-06
1.92531e-06
2.04569e-06
1.9225e-06
1.91053e-06
1.80648e-06
1.78499e-06
1.77461e-06
1.68873e-06
7.13517e-05
2.38428e-06
1.10274e-06
1.04638e-06
9.70083e-07
8.99966e-07
8.63799e-07
8.08676e-07
7.89485e-07
5.87958e-06
0.000118398
9.2488e-07
4.79493e-07
4.46303e-07
4.03472e-07
4.11213e-07
3.7795e-07
3.6988e-07
3.9062e-07
9.59479e-06
0.000150625
2.75914e-07
2.00353e-07
1.77733e-07
1.95848e-07
1.84922e-07
1.75433e-07
1.76966e-07
1.4899e-05
1.91039e-05
0.000172108
3.49599e-08
1.48897e-07
9.332e-08
9.71255e-08
9.67847e-08
9.19852e-08
8.03131e-08
8.46866e-08
1.39128e-05
0.000141698
7.56009e-08
1.16678e-07
5.51826e-08
5.11698e-08
5.34701e-08
3.49396e-08
5.81986e-08
1.43492e-05
2.05366e-05
0.000155908
2.2873e-07
8.55076e-09
3.47607e-08
2.8185e-08
3.94543e-08
1.32909e-08
5.61841e-08
1.54983e-08
9.27927e-06
0.000144333
1.26314e-07
2.5751e-08
8.71147e-09
1.22259e-08
4.18534e-08
1.21407e-09
2.46009e-08
7.93085e-06
1.04265e-05
0.000176746
5.08011e-05
7.13248e-06
7.95723e-06
7.73996e-06
7.35808e-06
7.04212e-06
6.84529e-06
6.77224e-06
6.81697e-06
7.19483e-06
1.4558e-05
4.00608e-06
4.1114e-06
3.89236e-06
3.71249e-06
3.54762e-06
3.44423e-06
3.36222e-06
3.34906e-06
2.90815e-06
5.21033e-06
1.83058e-06
1.86525e-06
1.71062e-06
1.66236e-06
1.55192e-06
1.52737e-06
1.51468e-06
1.36394e-06
2.78656e-05
1.64721e-06
7.68882e-07
8.01434e-07
7.80049e-07
7.48883e-07
7.30825e-07
6.86234e-07
6.58909e-07
2.82839e-06
5.635e-05
8.78392e-07
4.61164e-07
4.35367e-07
3.79699e-07
3.81871e-07
3.41308e-07
3.33603e-07
3.46332e-07
5.60532e-06
7.81407e-05
3.99056e-07
2.11383e-07
1.78563e-07
1.8584e-07
1.71316e-07
1.66534e-07
1.65316e-07
2.08457e-05
1.36986e-05
0.000102321
8.30558e-08
1.09194e-07
8.61199e-08
7.96517e-08
8.79152e-08
8.23446e-08
7.43979e-08
7.64836e-08
8.45417e-06
8.37295e-05
8.80221e-08
8.83429e-08
5.2464e-08
4.88048e-08
4.67139e-08
3.14831e-08
4.90187e-08
2.55551e-05
1.45474e-05
0.000108171
1.78209e-07
4.32016e-11
3.04787e-08
2.99387e-08
3.24012e-08
1.5207e-08
4.78673e-08
1.76262e-08
5.3525e-06
9.75882e-05
2.92013e-08
6.11644e-08
2.89091e-09
1.04944e-08
3.96608e-08
1.02964e-09
2.15432e-08
1.55378e-05
5.55151e-06
0.000128839
4.45775e-05
4.9754e-06
6.00806e-06
6.11746e-06
5.89832e-06
5.64486e-06
5.47793e-06
5.42565e-06
5.54086e-06
6.09547e-06
1.27375e-05
3.32924e-06
3.4419e-06
3.27165e-06
3.12614e-06
2.99073e-06
2.91198e-06
2.84848e-06
2.83586e-06
2.5604e-06
4.20173e-06
1.42228e-06
1.50264e-06
1.40623e-06
1.37274e-06
1.28173e-06
1.26643e-06
1.24734e-06
1.19888e-06
9.20333e-06
1.81085e-06
7.04711e-07
6.96078e-07
6.58121e-07
6.32167e-07
6.2057e-07
5.83038e-07
5.55445e-07
1.0194e-06
2.42418e-05
5.78303e-07
3.31397e-07
3.39665e-07
3.04512e-07
3.12558e-07
2.77058e-07
2.68128e-07
2.74029e-07
2.68207e-06
3.84808e-05
3.58756e-07
1.92533e-07
1.65363e-07
1.6528e-07
1.51392e-07
1.47858e-07
1.46008e-07
1.94305e-05
9.04175e-06
5.97691e-05
1.41422e-07
9.6725e-08
8.54596e-08
7.02183e-08
7.97902e-08
7.42679e-08
7.2869e-08
7.13964e-08
3.99518e-06
4.54152e-05
4.15336e-08
5.63268e-08
4.87061e-08
4.54811e-08
4.08645e-08
2.92458e-08
1.05757e-06
2.69476e-05
9.23373e-06
7.36899e-05
1.61688e-07
3.49407e-09
2.29323e-08
3.06835e-08
2.731e-08
1.57836e-08
3.7752e-08
1.95788e-08
2.17454e-06
6.12638e-05
6.04785e-08
8.40116e-08
8.28335e-10
9.81117e-09
3.47349e-08
2.30093e-09
1.67876e-08
1.58338e-05
1.5613e-06
9.0549e-05
4.60327e-05
2.22652e-06
3.30735e-06
3.73698e-06
3.73531e-06
3.54507e-06
3.30464e-06
3.02551e-06
2.6495e-06
2.19177e-06
1.06682e-05
2.56041e-06
2.65244e-06
2.5254e-06
2.40279e-06
2.28651e-06
2.21949e-06
2.18486e-06
2.19385e-06
2.30195e-06
3.8632e-06
1.19144e-06
1.23604e-06
1.15436e-06
1.11298e-06
1.02435e-06
1.00905e-06
1.00265e-06
9.54718e-07
2.66821e-06
1.48291e-06
5.86778e-07
5.9453e-07
5.57567e-07
5.38556e-07
5.33525e-07
5.08883e-07
4.86945e-07
4.70004e-07
7.90748e-06
5.7494e-07
2.79653e-07
2.85021e-07
2.55392e-07
2.62609e-07
2.31074e-07
2.18841e-07
2.16641e-07
1.04915e-06
1.78502e-05
2.57266e-07
1.47182e-07
1.32192e-07
1.31242e-07
1.21848e-07
1.19306e-07
1.35685e-06
1.58762e-05
5.57975e-06
3.4894e-05
1.31934e-07
8.34392e-08
7.92638e-08
5.93452e-08
6.76503e-08
6.1969e-08
6.6076e-08
6.43419e-08
1.0665e-06
2.15628e-05
2.18221e-08
2.53192e-08
4.09666e-08
4.2938e-08
3.62026e-08
2.59763e-08
1.78479e-05
2.42174e-05
5.08834e-06
5.03571e-05
1.50755e-07
1.18914e-08
1.00807e-08
2.72364e-08
2.24014e-08
1.66891e-08
2.91779e-08
2.17667e-08
3.38374e-07
3.44568e-05
1.37652e-07
9.30391e-08
2.01924e-09
8.23098e-09
2.42138e-08
6.82777e-09
1.18074e-08
1.30721e-05
1.13813e-06
6.19175e-05
7.19992e-05
5.84073e-06
7.00078e-06
7.83381e-06
8.33964e-06
8.63202e-06
8.91714e-06
9.31565e-06
9.85969e-06
1.06073e-05
7.5722e-06
1.78563e-06
1.97884e-06
2.02824e-06
2.04482e-06
2.01423e-06
1.97295e-06
1.88249e-06
1.67615e-06
1.37541e-06
2.93522e-06
8.57168e-07
9.20317e-07
8.93725e-07
8.75513e-07
8.06503e-07
7.84684e-07
7.79854e-07
2.24343e-07
1.74348e-06
1.26722e-06
4.55752e-07
4.61113e-07
4.26258e-07
4.10764e-07
4.12832e-07
4.04512e-07
3.94283e-07
3.63214e-07
1.70037e-07
5.18232e-07
2.35731e-07
2.41022e-07
2.19096e-07
2.24714e-07
2.04233e-07
1.9147e-07
1.87461e-07
3.89158e-07
7.81052e-06
2.22529e-07
1.19621e-07
1.11603e-07
1.06067e-07
1.00078e-07
9.58305e-08
9.18002e-06
1.23439e-05
3.19157e-06
2.08123e-05
9.05992e-08
6.55202e-08
6.81292e-08
4.88485e-08
5.3324e-08
4.66426e-08
5.29634e-08
5.27725e-08
4.63881e-08
7.40167e-06
3.09174e-06
3.14981e-09
2.94173e-08
3.89622e-08
3.3388e-08
1.61372e-05
2.52853e-05
2.02405e-05
1.96634e-06
3.53668e-05
1.2178e-07
3.76762e-08
1.16274e-09
1.97666e-08
1.93327e-08
1.73196e-08
2.20226e-08
2.07905e-08
7.70011e-08
1.53619e-05
1.87362e-07
8.28972e-08
9.41761e-09
1.21538e-08
1.55263e-08
8.73356e-09
2.09107e-06
9.58149e-06
2.66563e-06
4.15649e-05
5.59264e-05
1.98233e-05
2.2391e-05
2.26801e-05
2.24803e-05
2.2406e-05
2.21789e-05
2.1415e-05
1.99776e-05
1.78401e-05
1.17478e-05
2.27146e-06
1.62301e-06
1.221e-06
1.00026e-06
8.75878e-07
8.82888e-07
1.01918e-06
1.20035e-06
1.24991e-06
6.03937e-05
7.32978e-06
9.90842e-06
7.59055e-06
6.27868e-06
5.24807e-06
4.00359e-06
1.71728e-06
1.59316e-06
3.81489e-06
9.54364e-07
3.43942e-07
3.60698e-07
3.26343e-07
3.05329e-07
2.92152e-07
2.80099e-07
2.72305e-07
2.50329e-07
1.95081e-07
4.18745e-07
1.72978e-07
1.78961e-07
1.66995e-07
1.71152e-07
1.62076e-07
1.54623e-07
1.44811e-07
1.80786e-07
3.60516e-06
9.9265e-06
9.45888e-08
9.20378e-08
8.576e-08
8.36082e-08
7.39754e-06
1.18442e-05
9.41485e-06
1.55779e-06
1.30829e-05
5.56521e-08
4.82113e-08
5.63747e-08
4.11522e-08
4.13099e-08
3.35803e-08
3.79184e-08
4.17832e-08
3.88057e-08
3.45541e-08
5.03615e-05
4.55518e-05
4.10258e-05
3.64336e-05
3.46082e-05
3.21337e-05
2.72882e-05
1.62078e-05
5.35146e-07
2.63501e-05
2.78446e-08
7.06311e-08
5.01742e-09
9.19591e-09
1.30356e-08
1.35841e-08
1.50523e-08
1.52297e-08
1.44069e-08
2.0552e-06
1.8245e-07
4.72205e-08
1.13725e-08
1.69923e-08
1.1624e-08
9.15424e-09
5.06697e-06
6.31919e-06
3.33807e-06
2.75559e-05
0.000592449
9.97161e-05
0.000100864
9.73387e-05
9.46896e-05
8.93442e-05
8.03707e-05
6.85169e-05
5.47564e-05
3.95137e-05
1.66989e-05
1.05027e-06
4.49461e-07
2.69223e-07
8.13361e-07
9.97105e-07
9.54314e-07
8.94262e-07
1.0852e-06
1.55122e-06
0.000201347
0.000127526
6.93426e-05
3.942e-05
2.20743e-05
1.22545e-05
6.10863e-06
1.16951e-06
4.34964e-06
7.37639e-06
7.6715e-07
2.41472e-07
2.61393e-07
2.4326e-07
2.37362e-07
2.29044e-07
2.21565e-07
2.15296e-07
2.11914e-07
1.62661e-07
3.37013e-07
1.25077e-07
1.2741e-07
1.18737e-07
1.18289e-07
1.12043e-07
1.07424e-07
2.17629e-07
2.42517e-08
2.40719e-06
3.90423e-05
2.98041e-05
1.95052e-05
1.55361e-05
1.47123e-05
1.37921e-05
1.15806e-05
6.9237e-06
3.15417e-07
8.98645e-06
2.81134e-08
3.16574e-08
4.25826e-08
3.64784e-08
3.44804e-08
2.59382e-08
2.51499e-08
2.7203e-08
2.75513e-08
2.40038e-08
0.000220967
4.17886e-05
7.83644e-05
6.85196e-05
5.28832e-05
3.87129e-05
2.62401e-05
1.23757e-05
2.94965e-06
2.1664e-05
1.25836e-07
8.71832e-08
1.91674e-08
5.29429e-09
7.00406e-09
8.77382e-09
1.01236e-08
1.11735e-08
1.03186e-08
1.06765e-08
7.63979e-08
4.92184e-09
4.01446e-09
1.27583e-08
1.04898e-08
9.89867e-09
4.8282e-06
3.46134e-06
3.35535e-06
1.76808e-05
0.00242269
0.000258258
0.000308841
0.000308142
0.000273796
0.0002242
0.000171541
0.000121454
7.49917e-05
3.03729e-05
5.86843e-05
1.53775e-05
9.31733e-06
6.22326e-06
5.12176e-06
4.44213e-06
3.38474e-06
1.50271e-06
1.6259e-06
6.28519e-06
0.000340397
0.000240071
0.000115535
5.91032e-05
2.86648e-05
1.28228e-05
3.97416e-06
2.11047e-06
8.96047e-06
1.25918e-05
5.28116e-07
1.62111e-07
1.76592e-07
1.59299e-07
1.6013e-07
1.62801e-07
1.69294e-07
1.72949e-07
1.77077e-07
1.36444e-07
1.84897e-05
8.8494e-08
9.03782e-08
2.79329e-07
1.5872e-06
2.29263e-06
2.2054e-06
1.2392e-06
3.33928e-07
2.50218e-06
3.86582e-05
4.399e-05
3.42404e-05
2.53111e-05
1.88743e-05
1.38328e-05
9.33731e-06
4.49257e-06
7.71466e-07
6.77314e-06
1.74567e-08
1.75693e-08
2.54763e-08
2.86971e-08
2.79813e-08
2.39938e-08
1.93927e-08
1.90859e-08
1.98187e-08
1.80034e-08
0.00049156
2.13323e-05
7.93684e-05
7.83446e-05
5.86494e-05
3.92518e-05
2.31089e-05
8.29292e-06
5.99936e-06
2.03999e-05
2.72526e-07
6.03856e-08
3.13152e-08
1.312e-08
7.9752e-09
7.84971e-09
7.84971e-09
8.33771e-09
7.90548e-09
8.53422e-09
8.16879e-08
9.73894e-09
9.71338e-10
4.11541e-09
3.87257e-09
4.24449e-08
2.35351e-06
1.13316e-06
2.60857e-06
9.8004e-06
0.0071266
0.0010549
0.000958076
0.000705168
0.00048372
0.000314761
0.000190091
9.64171e-05
2.06495e-05
4.84645e-05
0.000167955
2.336e-05
2.40001e-05
2.35448e-05
1.98983e-05
1.38656e-05
6.19582e-06
2.95285e-06
1.41859e-05
2.75189e-05
0.000483701
0.0003611
0.000154868
7.01872e-05
2.80727e-05
7.98036e-06
2.18538e-06
8.80883e-06
1.71161e-05
2.19462e-05
4.8624e-07
1.33963e-07
1.28355e-07
9.5206e-08
6.99817e-08
4.78228e-08
3.08086e-08
2.65194e-08
3.70701e-08
9.81939e-08
5.82931e-05
3.46893e-05
1.97644e-05
1.24796e-05
8.18657e-06
5.31893e-06
3.08362e-06
1.05542e-06
9.18809e-07
2.78667e-06
2.73113e-05
3.53373e-05
2.89671e-05
2.111e-05
1.47522e-05
9.78077e-06
5.70933e-06
1.99132e-06
1.66014e-06
5.24722e-06
1.81323e-08
1.09943e-08
1.16121e-08
1.61429e-08
1.89311e-08
1.84559e-08
1.69192e-08
1.41627e-08
1.30379e-08
1.21705e-08
0.000844093
0.000129153
5.2093e-05
7.00195e-05
5.3447e-05
3.36867e-05
1.69355e-05
2.66574e-06
1.04933e-05
2.18428e-05
2.58613e-07
1.52947e-09
1.18598e-08
1.16136e-08
8.28245e-09
5.7679e-09
5.01613e-09
5.39202e-09
4.71802e-09
5.33044e-09
1.38998e-07
1.06933e-09
3.43374e-09
5.07338e-09
4.43178e-09
3.25552e-09
3.0773e-09
2.93472e-08
1.14561e-06
3.34531e-06
0.0281974
0.000560258
0.000417217
0.000225592
9.50859e-05
1.58839e-05
3.28432e-05
6.71424e-05
9.84007e-05
0.00013346
0.000167024
0.000128546
9.54201e-05
6.4934e-05
3.89101e-05
1.75254e-05
6.51525e-07
1.77199e-05
3.60792e-05
5.54377e-05
0.000546986
0.000452905
0.000171562
6.81027e-05
2.12654e-05
1.59422e-06
6.42445e-06
1.0445e-05
1.62245e-05
2.06755e-05
2.39226e-07
1.09427e-07
1.12586e-07
8.45747e-08
4.75395e-08
4.53967e-09
4.596e-08
1.02711e-07
1.64223e-07
2.78708e-07
4.93934e-05
3.3041e-05
1.81748e-05
1.0854e-05
6.51328e-06
3.71698e-06
1.72166e-06
1.29629e-07
1.3122e-06
2.50803e-06
1.44946e-05
1.80448e-05
1.5076e-05
1.07892e-05
7.14499e-06
4.26884e-06
1.95951e-06
2.36758e-08
1.93461e-06
3.64118e-06
2.17837e-08
1.20469e-08
4.91889e-09
3.87326e-09
4.9778e-09
6.25907e-09
8.09997e-09
8.15888e-09
6.92179e-09
6.71289e-09
0.00108332
0.000231097
5.2172e-06
4.24012e-05
3.43961e-05
1.94114e-05
5.90212e-06
5.38166e-06
1.587e-05
2.37469e-05
1.83521e-08
3.8438e-09
8.84436e-09
8.31419e-10
3.16903e-09
3.54257e-09
3.56667e-09
3.07263e-09
3.24133e-09
3.00137e-09
1.26902e-06
7.85992e-07
2.82763e-09
1.62368e-09
2.47417e-09
3.26293e-07
2.76356e-07
2.41243e-07
1.63065e-06
2.53444e-06
0.014117
3.25835e-05
0.000127663
0.000108836
7.22191e-05
5.33561e-05
5.28499e-05
6.52318e-05
9.59272e-05
0.000129844
0.000128399
7.24367e-05
3.41501e-05
6.60815e-06
9.2321e-06
1.82294e-05
2.41753e-05
2.94513e-05
3.52643e-05
3.87739e-05
0.000279319
0.000360455
0.000113909
3.56003e-05
2.7451e-06
1.00324e-05
1.50637e-05
1.80258e-05
2.26047e-05
2.55913e-05
2.31466e-07
3.905e-08
5.9802e-08
1.27449e-07
1.79314e-07
2.2089e-07
2.59087e-07
2.88567e-07
3.04185e-07
3.00345e-07
1.96254e-05
1.42441e-05
7.38482e-06
4.0785e-06
2.16102e-06
9.62794e-07
1.41824e-07
4.83914e-07
1.06894e-06
1.54781e-06
4.952e-06
4.62478e-06
3.76533e-06
2.51666e-06
1.43622e-06
5.77556e-07
1.06877e-07
6.81676e-07
1.2693e-06
1.79416e-06
6.80916e-09
1.16373e-08
1.187e-08
9.09079e-09
6.40736e-09
4.95612e-09
3.54595e-09
4.10728e-09
3.84716e-09
2.63318e-09
0.000730861
0.000195185
2.49377e-05
7.23328e-06
6.89845e-06
3.77837e-07
6.11439e-06
1.15855e-05
1.69488e-05
2.0334e-05
2.91823e-08
4.94554e-08
1.27251e-08
3.43892e-09
1.71386e-09
1.57944e-09
1.75866e-09
1.40021e-09
1.71386e-09
1.1432e-09
7.9389e-05
0.000117298
7.37367e-05
3.88484e-05
1.71898e-05
4.52639e-06
3.17214e-06
8.3181e-06
1.3572e-05
1.74367e-05
0.0337825
0.000598424
0.000468457
0.000369662
0.000287355
0.000218742
0.000162357
0.000116866
8.04356e-05
5.18943e-05
8.15168e-05
0.000171978
0.000119563
7.9162e-05
5.15556e-05
3.30283e-05
2.00692e-05
9.83254e-06
3.3723e-07
1.32822e-05
0.000100404
7.67003e-05
1.39296e-05
4.07265e-07
4.59514e-06
6.10407e-06
6.61508e-06
7.18253e-06
8.43681e-06
9.66573e-06
1.22242e-07
1.4582e-07
8.16538e-08
3.00212e-08
1.20658e-08
5.26063e-08
9.32232e-08
1.32647e-07
1.64186e-07
2.05948e-07
1.31262e-06
1.42063e-06
5.91544e-07
2.14123e-07
1.30912e-09
1.28032e-07
2.14696e-07
2.83e-07
3.64951e-07
4.68748e-07
4.5043e-07
1.49242e-07
7.41557e-08
2.28953e-08
1.03566e-07
1.66009e-07
2.16668e-07
2.59466e-07
3.25589e-07
4.16999e-07
2.55215e-08
8.19656e-09
2.78734e-09
4.96376e-10
1.41276e-09
1.29821e-09
1.52731e-09
8.65476e-10
1.66731e-09
7.76383e-10
6.07692e-05
3.61833e-05
1.03495e-05
5.16964e-06
4.86913e-06
5.61252e-06
6.42305e-06
7.10945e-06
7.94661e-06
8.36245e-06
2.74708e-07
6.0294e-09
6.03982e-10
6.14395e-10
6.56049e-10
4.4778e-10
7.91424e-10
3.43645e-10
6.66463e-10
9.78867e-10
0.000222527
0.000117756
5.26787e-05
1.19734e-05
1.16611e-05
2.51101e-05
3.30285e-05
3.81159e-05
4.26826e-05
4.50285e-05
0.551877
0.436615
0.550027
0.950601
0.702038
0.636708
0.753244
1.13555
0.852602
0.793999
0.94069
1.4458
0.608773
0.586461
0.695497
1.08968
0.434144
0.434549
0.517358
0.839627
0.276718
0.275684
0.343419
0.586695
0.174337
0.168683
0.226823
0.409899
0.103612
0.0975643
0.141081
0.264735
0.065783
0.0617004
0.0939592
0.17885
0.0466788
0.0443282
0.0718922
0.136403
0.0372387
0.00183451
4.22366e-05
0.0195191
0.0798001
0.0066012
3.18632e-05
0.0414422
0.136555
0.015191
1.73085e-05
0.0704311
0.122918
0.0167715
9.17006e-06
0.0596945
0.1059
0.016392
4.59598e-06
0.0475306
0.0787884
0.0132646
2.46927e-06
0.0354525
0.0561934
0.00979898
1.37271e-06
0.0275955
0.0371541
0.00683122
7.57651e-07
0.0195805
0.0261377
0.00538779
0.000799864
0.0143934
0.0206952
0.00585187
0.00276269
0.0113543
0.0176299
0.0138139
0.0144593
0.0200965
0.0390628
0.0268799
0.026363
0.0410791
0.0745323
0.0484655
0.0490655
0.079405
0.0695075
0.0422654
0.0439539
0.0739115
0.0622075
0.0356325
0.0382244
0.0678511
0.0477748
0.0260488
0.0287449
0.0534989
0.0351031
0.018263
0.0208304
0.0410096
0.0238409
0.0119014
0.0139533
0.0286663
0.0171206
0.007892
0.00960071
0.0205929
0.0137608
0.00604379
0.00770611
0.0160587
0.00191114
0.00139067
0.00133648
0.00195317
0.00606588
0.00416031
0.00385194
0.00630416
0.016031
0.0108955
0.0103872
0.016474
0.018495
0.0122495
0.0121377
0.0186295
0.0196729
0.0126053
0.013103
0.0200661
0.0173186
0.0107696
0.0116478
0.0179663
0.0142135
0.00854533
0.00960236
0.0152373
0.0106533
0.00624076
0.00724007
0.0117359
0.00820429
0.0044447
0.00542673
0.00904648
0.00687797
0.00365612
0.00480618
0.00767184
0.000566206
0.000550725
0.000581601
0.000798514
0.00221297
0.00206737
0.00233243
0.00336983
0.00596351
0.00564718
0.00631855
0.00879515
0.00702125
0.0063486
0.0068814
0.00939594
0.00790258
0.00679731
0.00733199
0.010001
0.00739191
0.00605443
0.00658262
0.00898136
0.00643254
0.00501977
0.00556406
0.00768746
0.00516899
0.00386826
0.00438535
0.00610662
0.00432472
0.00298777
0.00355228
0.00494668
0.00393248
0.00270423
0.00345137
0.00453081
7.26757e-05
8.79133e-05
8.90139e-05
0.000147042
0.000726141
0.000695454
0.000821148
0.00120518
0.00238145
0.0024324
0.00293373
0.00405013
0.00288182
0.00294251
0.00343997
0.00460329
0.00335864
0.00336955
0.0038715
0.00512952
0.00326839
0.00317737
0.00361716
0.00475887
0.0029515
0.00276986
0.00315715
0.00414907
0.00252542
0.00227287
0.0026058
0.00341074
0.00230054
0.00191344
0.00226383
0.00288758
0.00218145
0.00178497
0.00223839
0.00267729
2.25308e-05
2.37984e-06
5.90348e-06
1.18302e-05
0.000244051
0.000236122
0.000286433
0.000441907
0.00113067
0.00116563
0.00144951
0.00203337
0.001415
0.0015082
0.00183606
0.00246118
0.00167999
0.00181267
0.00218024
0.0028734
0.00166407
0.00178034
0.00211698
0.00276064
0.00151154
0.00159631
0.00188948
0.00244405
0.00135094
0.00137919
0.00162179
0.00208093
0.00130462
0.00124426
0.00147716
0.00181087
0.00125473
0.00117849
0.00145063
0.0016723
3.6981e-05
1.34955e-05
1.30554e-05
1.3487e-05
5.84101e-05
5.58664e-05
6.89509e-05
0.000121279
0.000513701
0.000512833
0.000644067
0.000928839
0.000713582
0.000762243
0.000940441
0.00126913
0.000891445
0.000981107
0.00120298
0.00159041
0.000924311
0.00102419
0.00124573
0.00162672
0.000846221
0.000944604
0.0011453
0.00147403
0.00078904
0.000861395
0.00103231
0.00131566
0.000758993
0.00079044
0.00093848
0.00113045
0.000746308
0.000774998
0.000939284
0.00106994
2.87425e-05
1.02874e-05
9.95803e-06
1.03627e-05
1.28633e-06
2.21358e-06
2.68813e-06
1.6023e-05
0.000221831
0.000203206
0.000255218
0.00039265
0.000355272
0.000374047
0.000463393
0.000631576
0.000471199
0.000520853
0.000643645
0.000854749
0.000526177
0.000590281
0.000724375
0.000949057
0.000488572
0.000560016
0.000685932
0.000879476
0.000482538
0.00054454
0.000657989
0.000836297
0.000445178
0.000489856
0.000579465
0.000693605
0.000459
0.000509546
0.00060912
0.000691532
2.25409e-05
7.20884e-06
6.90654e-06
7.15116e-06
7.56738e-06
3.31847e-06
3.31663e-06
3.74729e-06
8.26038e-05
5.82713e-05
7.15523e-05
0.000135408
0.000171419
0.000174117
0.000215153
0.000297482
0.000240659
0.000263969
0.000327503
0.000438386
0.000295471
0.000331432
0.00040816
0.000538012
0.000275012
0.000319868
0.000393186
0.00050174
0.0002957
0.000338503
0.000410008
0.00052151
0.000263065
0.000298577
0.000351676
0.000420181
0.000288138
0.000332439
0.000392844
0.000445379
2.28916e-05
7.71107e-06
7.32429e-06
7.51711e-06
5.03067e-06
1.73517e-06
1.75408e-06
2.05524e-06
1.97057e-05
1.02946e-06
1.02107e-06
2.05608e-05
7.91579e-05
7.56335e-05
9.23073e-05
0.000130043
0.000118424
0.000127032
0.000157926
0.000214415
0.000164545
0.000182596
0.000225215
0.000300056
0.000148971
0.000174797
0.00021511
0.000272512
0.00018119
0.000207446
0.00025133
0.00032127
0.000154162
0.00017743
0.000208044
0.000248197
0.000182048
0.000213963
0.000250798
0.000283606
1.1976e-06
3.42454e-08
4.72746e-07
1.00816e-06
4.69723e-06
1.43474e-06
1.35369e-06
1.47228e-06
1.77699e-06
6.25937e-07
5.77348e-07
6.32096e-07
3.31233e-05
2.85862e-05
3.38386e-05
4.87379e-05
5.50684e-05
5.65888e-05
7.02851e-05
9.77353e-05
9.11679e-05
9.89703e-05
0.000122006
0.00016517
7.59634e-05
8.99405e-05
0.000110639
0.000138182
0.000111727
0.000126369
0.000152962
0.000197517
8.66302e-05
0.000100015
0.00011664
0.000138614
0.000114348
0.000135174
0.000157767
0.000177418
4.78685e-05
1.27438e-05
1.06836e-05
9.59344e-06
3.82025e-06
1.40089e-06
1.42546e-06
1.67278e-06