/*--------------------------------*- C++ -*----------------------------------*\
| =========                 |                                                 |
| \\      /  F ield         | foam-extend: Open Source CFD                    |
|  \\    /   O peration     | Version:     4.0                                |
|   \\  /    A nd           | Web:         http://www.foam-extend.org         |
|    \\/     M anipulation  |                                                 |
\*---------------------------------------------------------------------------*/
FoamFile
{
    version     2.0;
    format      ascii;
    class       volScalarField;
    location    "2400";
    object      epsilon;
}
// * * * * * * * * * * * * * * * * * * * * * * * * * * * * * * * * * * * * * //

dimensions      [0 2 -3 0 0 0 0];

internalField   nonuniform List<scalar> 
34480
(
4930.65
4928.63
4928.52
4930.02
4933.23
4938.39
4951.01
5004.66
5194.52
5725.83
655.462
602.16
601.241
653.214
838.76
1576.08
5099.53
22849.8
103709
382386
618.855
523.192
509.541
569.179
809.981
1829.15
7041.68
35119
172535
699242
524.871
439.458
427.418
485.121
733.843
1883.45
8219.41
44412.5
232219
1.01098e+06
456.706
384.824
377.385
433.152
684.851
1927.58
9178.04
52591.6
289185
1.33362e+06
392.528
332.845
326.61
378.48
628.386
1956.29
10121.4
61045.9
350636
1.6987e+06
353.287
302.791
298.393
346.415
591.493
1962.79
10725.8
67200
400354
2.02276e+06
321.377
282.116
277.713
317.506
534.202
1820.51
10350.4
66983.9
412653
2.16764e+06
460.057
435.974
433.364
458.772
597.096
1410.14
6840.94
43696.1
275989
1.49853e+06
5709.13
5709.36
5714.81
5726.77
5743.59
5763.66
5787.87
5823.82
5890.23
5958.89
4856.08
4853.56
4853.07
4854.56
4858.57
4865.58
4876.71
4902.83
4965.47
5186.01
512.082
479.21
473.573
487.694
532.1
648.545
1002.87
2354.55
11801.3
103648
447.079
384.005
370.304
389.71
458.505
645.783
1229.71
3567.14
21358.1
197643
399.671
338.728
325.268
344.976
416.446
620.197
1294.5
4289.58
30234.6
294758
365.891
311.157
300.618
319.828
390.781
598.927
1321.85
4812.26
38717.2
396504
326.362
278.978
269.169
286.455
352.238
554.146
1294.13
5180.47
47349.1
508568
302.554
260.857
252.678
267.941
328.934
521.46
1256.18
5361.13
54216.8
607816
283.118
249.969
242.292
253.91
301.564
456.644
1074.65
4828.02
54992.6
652024
432.852
410.963
405.859
413.323
443.444
531.682
848.134
2980.68
36400.1
467548
5591.66
5587.34
5587.85
5594.49
5606.17
5620.75
5640.11
5673.13
5740.79
5913.69
4770.94
4768.54
4767.79
4768.61
4771.23
4775.37
4780.2
4790.99
4815.06
4870.11
399.896
386.45
383.786
388.545
403.678
439.046
527.097
758.605
1516.84
5758.5
308.157
276.925
270.089
279.267
309.679
379.298
550.416
1030.17
2859.51
14988.4
290.288
256.463
248.789
259.366
294.525
378.446
597.237
1279.81
4409.21
28919.5
280.88
247.919
241.47
252.426
289.537
380.326
629.042
1481.36
6140.48
47809.7
261.35
231.095
224.604
235.002
270.701
361.67
625.239
1625.63
8150.88
73152.9
250.555
222.533
216.941
226.431
260.522
349.186
617.193
1724.55
10165.5
101599
243.077
220.108
214.695
222.32
249.657
322.186
549.946
1594.47
11043.4
122898
402.723
386.38
382.63
388.277
408.711
461.621
607.13
1235.56
7681.04
92097.6
5481.99
5474.89
5472.59
5476.17
5484.97
5496.96
5513.47
5544.24
5616.72
5802.13
4674.92
4673.42
4672.99
4673.63
4675.42
4677.72
4678.72
4681.52
4688.93
4705.04
328.463
324.342
323.522
324.616
328.697
339.052
365.063
421.605
541.212
940.37
219.32
206.066
203.215
207.258
220.65
248.941
309.078
445.24
772.134
2085.82
214.447
197.727
193.793
199.315
217.272
256.764
345.55
565.541
1169.54
4141.62
217.579
199.541
195.953
202.153
222.757
269.304
379.538
675.984
1611.22
7155.32
210.718
192.771
188.732
195.123
216.352
266.432
392.103
761.682
2117.72
11599.9
208.512
190.73
187.084
193.236
214.632
266.163
401.08
827.418
2633.59
17124.1
209.984
194.707
190.984
196.277
214.347
258.899
379.798
795.22
2860.94
21851.2
375.689
363.704
360.87
365.061
380.025
417
508.756
782.711
2181.19
16545.7
5359.99
5352.91
5350.36
5353.42
5361.69
5374.06
5391.2
5422.06
5488.87
5632.09
4569.52
4568.84
4568.69
4569.09
4570.06
4570.77
4569.46
4568.33
4568.27
4570.03
285.51
284.769
284.669
284.438
284.433
286.169
293.406
307.379
329.715
375.956
167.907
162.889
161.848
163.266
168.299
178.52
198.302
237.435
308.116
484.227
166.472
158.748
156.787
159.285
167.541
184.776
219.574
294.216
443.138
889.754
173.918
164.609
162.676
165.767
176.216
198.555
246.038
356.474
601.428
1497.99
173.617
163.425
160.933
164.478
176.213
202.442
261.464
410.924
783.895
2434.98
176.093
165.192
162.82
166.446
179.079
207.883
275.362
457.582
966.546
3640.77
183.353
173.474
170.904
174.284
185.61
212.179
276.683
463.602
1058.7
4746.68
351.358
342.757
340.574
343.463
354.005
379.258
438.184
581.553
1009.52
3814.43
5230.33
5223.39
5220.67
5223.26
5230.88
5242.96
5259.62
5288
5343.69
5446.04
4455.71
4455.65
4455.73
4455.95
4456.32
4455.98
4453.96
4451.87
4450.1
4449.02
259.797
259.879
259.961
259.442
258.448
258.049
259.946
263.299
268.031
275.304
139.445
137.798
137.529
137.914
139.529
142.772
148.675
159.187
175.182
203.046
137.538
134.158
133.234
134.28
137.832
144.9
157.839
182.368
222.508
303.001
145.047
140.514
139.564
140.992
145.961
156.015
175.326
215.181
286.343
458.038
147.361
141.841
140.388
142.252
148.411
161.441
187.869
247.288
364.058
701.81
151.781
145.381
143.934
145.959
153.086
168.45
200.811
278.314
444.18
1014.09
162.27
156.169
154.493
156.572
163.399
178.66
212.137
297.469
500.461
1320.6
329.48
323.584
321.977
323.929
331.269
348.55
387.057
467.618
640.005
1290.61
5092.37
5085.83
5083.14
5085.34
5092.26
5103.54
5119.03
5143.94
5187.01
5254.27
4334.19
4334.55
4334.78
4334.88
4334.86
4333.9
4332.03
4330.03
4328.21
4326.87
243.796
243.75
243.775
243.3
242.371
241.927
242.289
243.018
244.121
245.925
123.985
123.572
123.579
123.617
124.004
124.851
126.394
128.976
132.496
137.195
120.667
119.232
118.808
119.223
120.696
123.518
128.27
136.264
147.554
163.746
126.666
124.564
124.141
124.753
127.007
131.346
138.963
152.943
174.381
210.557
129.507
126.629
125.818
126.751
129.858
136.116
147.662
170.704
209.286
285.811
134.272
130.644
129.806
130.878
134.751
142.687
157.84
190.046
247.847
381.558
146.168
142.567
141.524
142.751
146.712
155.221
172.352
210.936
286.97
489.918
310.148
306.299
305.14
306.433
311.514
323.504
349.143
396.334
480.004
667.558
4945.9
4939.96
4937.42
4939.29
4945.41
4955.45
4969.2
4990.2
5022.66
5066.51
4205.5
4206.11
4206.43
4206.45
4206.21
4205.13
4203.64
4202.04
4200.61
4199.54
232.908
232.483
232.378
232.027
231.434
231.251
231.268
231.417
231.803
232.795
115.601
115.579
115.658
115.607
115.615
115.727
115.999
116.503
117.191
117.984
111.053
110.449
110.256
110.415
111.021
112.154
113.944
116.657
120.074
123.797
115.292
114.364
114.201
114.445
115.432
117.258
120.25
125.186
131.929
140.366
117.754
116.307
115.872
116.323
117.847
120.798
125.852
134.851
148.241
167.559
122.085
120.091
119.632
120.172
122.222
126.25
133.356
146.776
167.941
202.424
134.228
132.21
131.593
132.293
134.516
139.159
147.946
165.502
195.875
252.19
293.168
290.806
289.976
290.832
294.385
302.958
320.355
349.003
394.128
462.637
4790.75
4785.57
4783.29
4784.86
4790.11
4798.63
4810.32
4827.31
4851.18
4880.1
4069.95
4070.7
4071.07
4071.05
4070.69
4069.8
4068.7
4067.54
4066.52
4065.73
224.503
223.702
223.467
223.231
222.984
222.932
222.911
222.974
223.259
224.151
111.006
111.069
111.145
111.089
111.013
110.94
110.888
110.889
110.952
111.059
105.704
105.442
105.35
105.412
105.667
106.137
106.847
107.834
108.975
109.978
108.445
108.057
108.01
108.098
108.518
109.274
110.455
112.242
114.482
116.707
110.262
109.561
109.337
109.548
110.279
111.653
113.89
117.508
122.46
128.095
113.878
112.81
112.572
112.833
113.899
115.929
119.31
125.065
133.3
143.385
125.601
124.541
124.197
124.585
125.796
128.287
132.824
140.976
153.818
171.852
278.195
276.872
276.264
276.847
279.403
285.766
297.756
315.705
341.527
371.323
4626.91
4622.59
4620.64
4621.92
4626.26
4633.16
4642.68
4655.9
4672.99
4691.97
3927.95
3928.61
3929
3928.97
3928.61
3927.99
3927.23
3926.43
3925.73
3925.16
216.926
216.032
215.685
215.536
215.482
215.461
215.461
215.538
215.834
216.725
108.393
108.455
108.507
108.465
108.394
108.3
108.2
108.116
108.073
108.077
102.81
102.686
102.638
102.663
102.779
102.988
103.292
103.688
104.116
104.434
104.449
104.294
104.289
104.318
104.495
104.807
105.281
105.948
106.728
107.39
105.648
105.322
105.21
105.308
105.651
106.284
107.281
108.777
110.712
112.634
108.536
107.972
107.856
107.978
108.53
109.556
111.197
113.759
117.161
120.57
119.492
118.985
118.807
119.019
119.661
120.986
123.326
127.18
132.825
139.522
264.784
264.158
263.69
264.111
266.037
270.904
279.256
290.782
306.141
320.304
4454.52
4451.07
4449.49
4450.5
4453.94
4459.29
4466.74
4476.63
4488.53
4500.78
3779.62
3780.14
3780.47
3780.44
3780.21
3779.79
3779.28
3778.75
3778.29
3777.87
209.481
208.599
208.258
208.151
208.116
208.112
208.133
208.227
208.539
209.427
106.793
106.836
106.869
106.84
106.787
106.714
106.636
106.566
106.529
106.536
101.295
101.227
101.2
101.212
101.269
101.371
101.516
101.695
101.88
101.999
102.197
102.134
102.139
102.147
102.225
102.362
102.563
102.829
103.116
103.338
102.916
102.77
102.717
102.761
102.921
103.209
103.654
104.285
105.065
105.813
105.178
104.878
104.824
104.883
105.174
105.704
106.521
107.712
109.19
110.496
115.214
115.009
114.926
115.043
115.377
116.078
117.268
119.1
121.602
124.39
252.453
252.277
251.886
252.219
253.759
257.511
263.349
270.865
280.27
287.089
4273.85
4271.24
4270.02
4270.8
4273.39
4277.37
4282.97
4290.1
4298.14
4305.9
3625.1
3625.52
3625.77
3625.76
3625.62
3625.35
3625.02
3624.67
3624.38
3624.05
201.821
200.966
200.655
200.561
200.535
200.539
200.57
200.671
200.985
201.856
105.698
105.721
105.739
105.721
105.686
105.639
105.589
105.546
105.532
105.552
100.53
100.488
100.472
100.478
100.509
100.563
100.638
100.728
100.821
100.874
100.978
100.947
100.951
100.953
100.993
101.062
101.161
101.283
101.404
101.494
101.368
101.306
101.28
101.301
101.375
101.506
101.704
101.973
102.295
102.62
103.14
102.975
102.95
102.981
103.142
103.429
103.854
104.44
105.119
105.681
112.203
112.15
112.119
112.185
112.359
112.725
113.312
114.171
115.246
116.503
240.736
240.837
240.48
240.767
242.08
244.889
248.949
253.875
259.758
262.813
4085.34
4083.46
4082.6
4083.16
4084.99
4087.88
4091.92
4096.87
4102.14
4106.95
3464.59
3464.93
3465.13
3465.13
3465.05
3464.88
3464.66
3464.44
3464.25
3463.98
193.767
192.947
192.664
192.581
192.559
192.565
192.597
192.695
193.002
193.847
104.848
104.856
104.863
104.852
104.831
104.804
104.776
104.755
104.76
104.789
100.159
100.133
100.124
100.127
100.143
100.172
100.211
100.259
100.311
100.338
100.35
100.328
100.326
100.328
100.353
100.397
100.457
100.528
100.591
100.641
100.535
100.509
100.497
100.507
100.541
100.601
100.69
100.806
100.941
101.098
101.943
101.844
101.832
101.852
101.949
102.115
102.352
102.664
103.001
103.281
110.018
110.035
110.032
110.072
110.165
110.346
110.619
111.003
111.418
112.027
229.211
229.477
229.125
229.391
230.528
232.497
235.28
238.492
242.218
243.258
3889.54
3888.28
3887.71
3888.09
3889.32
3891.36
3894.16
3897.46
3900.79
3903.72
3298.38
3298.67
3298.83
3298.83
3298.78
3298.68
3298.55
3298.41
3298.28
3298.04
185.211
184.43
184.175
184.103
184.082
184.087
184.115
184.204
184.498
185.309
104.114
104.113
104.114
104.107
104.096
104.082
104.07
104.063
104.079
104.114
99.9895
99.9743
99.9703
99.9718
99.9793
99.9922
100.011
100.034
100.064
100.08
100.045
100.025
100.02
100.021
100.04
100.073
100.117
100.167
100.21
100.245
100.114
100.102
100.096
100.101
100.118
100.146
100.187
100.239
100.296
100.382
101.253
101.188
101.181
101.197
101.261
101.366
101.509
101.691
101.876
102.044
108.329
108.384
108.393
108.42
108.468
108.549
108.66
108.813
108.924
109.246
217.325
217.84
217.515
217.775
218.587
219.933
221.794
223.859
226.221
226.18
3687.22
3686.37
3686.02
3686.26
3687.09
3688.48
3690.33
3692.43
3694.45
3696.2
3126.88
3127.13
3127.24
3127.25
3127.23
3127.17
3127.08
3126.99
3126.91
3126.69
176.069
175.332
175.106
175.044
175.023
175.025
175.048
175.125
175.401
176.174
103.439
103.433
103.429
103.425
103.42
103.415
103.412
103.414
103.437
103.475
99.9214
99.9142
99.9137
99.9141
99.916
99.9192
99.9249
99.9341
99.9505
99.9613
99.9113
99.893
99.8851
99.8867
99.9015
99.9279
99.9625
100
100.034
100.062
99.9195
99.9129
99.9091
99.9115
99.9203
99.9351
99.955
99.9792
100.004
100.056
100.853
100.807
100.801
100.815
100.86
100.931
101.025
101.14
101.253
101.373
106.922
106.989
107.009
107.025
107.046
107.076
107.108
107.153
107.128
107.32
204.844
205.497
205.3
205.482
206.025
206.91
208.107
209.403
210.878
210.287
3479.13
3478.58
3478.36
3478.52
3479.06
3479.95
3481.12
3482.39
3483.54
3484.57
2950.62
2950.83
2950.91
2950.92
2950.91
2950.87
2950.82
2950.76
2950.7
2950.51
166.262
165.572
165.376
165.327
165.304
165.304
165.32
165.383
165.637
166.371
102.797
102.789
102.782
102.78
102.778
102.779
102.782
102.79
102.815
102.856
99.9046
99.9026
99.9041
99.9039
99.9024
99.9002
99.8985
99.8994
99.9074
99.9167
99.8648
99.8484
99.8401
99.8411
99.8525
99.8729
99.8995
99.9286
99.9548
99.9786
99.845
99.8398
99.8368
99.8378
99.8429
99.8515
99.8622
99.8748
99.8867
99.9198
100.607
100.572
100.567
100.578
100.61
100.66
100.724
100.801
100.875
100.97
105.657
105.722
105.745
105.756
105.764
105.77
105.767
105.765
105.687
105.818
191.596
192.299
192.204
192.327
192.67
193.217
193.938
194.722
195.605
194.785
3266.15
3265.83
3265.7
3265.8
3266.13
3266.66
3267.35
3268.07
3268.68
3269.27
2770.32
2770.49
2770.55
2770.56
2770.56
2770.54
2770.5
2770.46
2770.42
2770.24
155.694
155.055
154.886
154.85
154.833
154.831
154.84
154.889
155.116
155.807
102.185
102.174
102.167
102.165
102.166
102.17
102.176
102.186
102.211
102.254
99.9138
99.914
99.916
99.9154
99.9126
99.9081
99.9033
99.9003
99.9033
99.913
99.861
99.8474
99.84
99.8404
99.8484
99.863
99.882
99.9031
99.923
99.9423
99.8324
99.8276
99.825
99.8253
99.8283
99.8334
99.8396
99.8464
99.8524
99.8737
100.43
100.403
100.399
100.407
100.429
100.463
100.506
100.557
100.606
100.683
104.458
104.51
104.532
104.54
104.542
104.539
104.524
104.506
104.416
104.516
177.436
178.12
178.104
178.183
178.379
178.681
179.06
179.502
179.976
179.134
3049.37
3049.19
3049.12
3049.18
3049.36
3049.66
3050.04
3050.4
3050.69
3051.01
2586.98
2587.12
2587.17
2587.18
2587.17
2587.16
2587.14
2587.11
2587.07
2586.91
144.231
143.654
143.513
143.489
143.484
143.482
143.484
143.516
143.706
144.352
101.609
101.596
101.588
101.586
101.588
101.593
101.601
101.611
101.633
101.677
99.9328
99.9326
99.934
99.9332
99.9303
99.926
99.9212
99.9177
99.9185
99.929
99.8784
99.868
99.8624
99.8623
99.8672
99.8765
99.8888
99.9027
99.9167
99.9315
99.8521
99.8482
99.8462
99.846
99.8474
99.8501
99.8531
99.8564
99.8592
99.8716
100.273
100.253
100.249
100.254
100.268
100.289
100.315
100.345
100.377
100.436
103.291
103.327
103.345
103.35
103.349
103.343
103.325
103.304
103.225
103.304
162.209
162.816
162.864
162.911
162.999
163.119
163.249
163.455
163.629
162.905
2830.08
2829.99
2829.95
2829.98
2830.08
2830.22
2830.41
2830.56
2830.68
2830.83
2401.73
2401.84
2401.87
2401.88
2401.88
2401.87
2401.85
2401.83
2401.8
2401.68
131.646
131.153
131.062
131.051
131.05
131.046
131.042
131.056
131.188
131.768
101.087
101.072
101.065
101.062
101.064
101.069
101.076
101.085
101.102
101.142
99.9496
99.9477
99.9479
99.9469
99.9449
99.9422
99.9392
99.9371
99.9375
99.9479
99.9084
99.9014
99.8978
99.8975
99.9002
99.9053
99.9122
99.9202
99.929
99.9392
99.89
99.8876
99.8863
99.8859
99.8863
99.887
99.8878
99.8886
99.8893
99.895
100.119
100.106
100.103
100.105
100.113
100.123
100.136
100.151
100.168
100.208
102.169
102.188
102.198
102.2
102.196
102.187
102.17
102.151
102.097
102.156
145.452
145.928
145.962
145.998
146.058
146.138
146.22
146.28
146.212
145.693
2609.71
2609.66
2609.65
2609.67
2609.69
2609.74
2609.79
2609.84
2609.87
2609.94
2215.03
2215.09
2215.1
2215.1
2215.1
2215.1
2215.09
2215.09
2215.09
2215.03
117.389
117.051
117.021
117.025
117.027
117.022
117.012
117.005
117.05
117.478
100.625
100.609
100.602
100.598
100.599
100.602
100.608
100.617
100.63
100.662
99.9659
99.9636
99.963
99.9623
99.9614
99.9603
99.9592
99.9586
99.9594
99.9664
99.9506
99.9469
99.9451
99.9449
99.9461
99.9485
99.9518
99.9556
99.9602
99.9658
99.9406
99.9395
99.9389
99.9386
99.9385
99.9383
99.938
99.9376
99.9373
99.9386
100.009
100.004
100.002
100.003
100.006
100.01
100.014
100.019
100.026
100.045
101.125
101.127
101.129
101.128
101.122
101.113
101.1
101.087
101.069
101.111
125.762
126.044
126.062
126.082
126.115
126.158
126.2
126.224
126.174
125.833
2388.98
2388.96
2388.97
2388.97
2388.97
2388.97
2388.97
2388.97
2388.95
2388.99
7183.98
7294.28
7250.54
7044.09
658915
683863
689427
697310
1.49738e+06
1.58409e+06
1.59161e+06
1.57172e+06
2.52526e+06
2.70355e+06
2.70102e+06
2.6195e+06
3.76095e+06
4.05608e+06
4.02974e+06
3.86818e+06
5.30804e+06
5.75137e+06
5.69983e+06
5.48696e+06
6.86854e+06
7.46751e+06
7.40371e+06
7.20699e+06
7.88294e+06
8.61088e+06
8.5562e+06
8.42816e+06
5.61978e+06
6.17923e+06
6.11517e+06
6.08136e+06
7903.65
8151.4
7989.04
7569.81
5749.33
5802.12
5804.64
5765.51
308552
324672
345347
377328
689322
780865
824929
861813
1.17797e+06
1.40288e+06
1.4661e+06
1.49203e+06
1.76356e+06
2.17759e+06
2.2515e+06
2.26498e+06
2.45885e+06
3.11246e+06
3.21171e+06
3.24761e+06
3.13177e+06
4.04031e+06
4.2011e+06
4.31993e+06
3.57333e+06
4.70408e+06
4.94536e+06
5.18025e+06
2.8068e+06
3.81861e+06
4.0072e+06
4.32036e+06
7126.38
7357.97
7287.02
7066.66
4937.9
4948.86
4948
4938.29
21661
25960.2
24597
19966.4
61569.7
73409.5
68678.6
55731.1
128748
152839
140887
114033
228361
270536
246270
199439
372380
441933
401383
326406
545331
648543
591610
485408
702808
839404
769577
636850
584461
696875
629360
524660
6344.36
6431.67
6409.35
6314.02
4716.01
4718.13
4718.68
4717.88
1594.3
1711.28
1679.85
1544.98
4698.12
5172.4
5012.57
4434.58
11230.5
12505
11926.3
10213.6
22554.7
25253.8
23699.6
19746
41691.5
46923.2
43528.1
35537.2
68295.7
76986.1
70797.2
57129.9
97161.2
109915
100445
80430.5
83359.2
93766.9
84200.6
67267.2
5904.03
5945.73
5942.85
5904.92
4568.01
4568.92
4569.13
4568.59
423.281
436.211
438.464
431.55
710.105
757.044
761.557
731.37
1595.02
1736.81
1729.3
1610.28
3203.6
3529.3
3458.52
3118.64
6140.11
6823.38
6583.13
5758.26
10498.3
11693.9
11109.3
9472.77
15692.3
17555.8
16464
13724.8
13860.5
15397.5
14114.1
11586.6
5578.73
5600.76
5602.25
5586.64
4444.96
4445.71
4445.79
4445.16
275.585
278.457
279.169
277.91
226.357
231.457
233.284
232.244
385.58
403.071
407.309
400.541
674.046
717.856
722.109
696.117
1215.16
1316.48
1312.65
1233.52
2023.65
2211.46
2175.77
1991.42
3047
3360.53
3262
2904.59
2929.04
3183.38
3023.5
2664.21
5318.18
5328.97
5331.1
5325.54
4322.62
4323.34
4323.4
4322.77
241.775
243.68
244.08
243.022
140.134
140.888
141.241
141.227
175.865
178.564
179.692
179.438
243.198
250.226
252.463
250.763
368.97
386.596
390.325
383.184
549.226
582.691
585.334
565.815
795.532
855
852.157
807.148
984.704
1029.75
1010.28
962.518
5095.79
5100.67
5102.52
5101.27
4195.51
4196.21
4196.26
4195.66
228.094
229.812
230.151
229.141
118.189
118.327
118.381
118.358
125.852
126.302
126.527
126.554
146.029
147.259
147.803
147.782
183.405
186.917
188.185
187.623
233.788
240.344
242.1
240.313
314.616
327.191
329.131
323.575
543.039
548.704
546.189
542.498
4893.67
4895.68
4896.97
4897.16
4061.96
4062.62
4062.67
4062.11
219.49
221.144
221.473
220.498
110.888
110.945
110.954
110.915
110.346
110.419
110.457
110.466
117.765
117.976
118.086
118.118
131.711
132.522
132.876
132.843
149.878
151.236
151.777
151.736
187.36
190.302
191.149
190.489
400.189
397.214
396.468
399.127
4698.46
4699.15
4699.93
4700.41
3921.66
3922.27
3922.32
3921.81
212.195
213.794
214.115
213.177
107.868
107.917
107.921
107.881
104.484
104.491
104.494
104.494
107.574
107.596
107.61
107.623
113.656
113.877
113.978
113.97
121.961
122.213
122.352
122.429
144.58
145.284
145.548
145.486
335.332
330.251
329.472
332.887
4503.82
4503.91
4504.34
4504.8
3774.64
3775.2
3775.24
3774.77
205.055
206.595
206.907
206.006
106.338
106.386
106.391
106.353
101.988
101.986
101.984
101.983
103.358
103.35
103.347
103.349
106.198
106.278
106.31
106.297
110.766
110.778
110.805
110.858
126.729
126.86
126.913
126.908
297.592
292.083
291.177
294.492
4307.11
4306.98
4307.2
4307.54
3621.09
3621.59
3621.63
3621.2
197.657
199.135
199.437
198.575
105.37
105.417
105.423
105.388
100.853
100.851
100.849
100.848
101.489
101.481
101.476
101.476
102.817
102.857
102.87
102.856
105.715
105.686
105.684
105.714
117.998
117.976
117.958
117.946
271.428
265.975
265.021
268.136
4107.12
4106.94
4107.05
4107.28
3461.31
3461.74
3461.77
3461.39
189.834
191.247
191.537
190.716
104.624
104.668
104.674
104.641
100.318
100.317
100.316
100.316
100.637
100.632
100.629
100.628
101.224
101.249
101.256
101.244
103.288
103.261
103.254
103.27
113.192
113.133
113.093
113.071
250.82
245.573
244.626
247.549
3903.27
3903.14
3903.19
3903.3
3295.66
3296.03
3296.04
3295.72
181.495
182.841
183.12
182.341
103.966
104.007
104.013
103.983
100.064
100.064
100.064
100.064
100.245
100.243
100.241
100.239
100.469
100.488
100.492
100.482
102.072
102.055
102.049
102.055
110.241
110.18
110.135
110.104
232.985
227.997
227.087
229.832
3695.35
3695.32
3695.34
3695.34
3124.62
3124.91
3124.92
3124.64
172.573
173.852
174.119
173.384
103.349
103.387
103.392
103.365
99.9513
99.9524
99.9525
99.9516
100.065
100.064
100.063
100.061
100.119
100.133
100.135
100.127
101.425
101.42
101.416
101.415
108.201
108.151
108.107
108.067
216.462
211.76
210.904
213.475
3483.46
3483.55
3483.56
3483.47
2948.76
2948.99
2948.97
2948.75
163
164.211
164.468
163.779
102.757
102.792
102.798
102.772
99.9134
99.9155
99.9158
99.9143
99.9828
99.9829
99.9821
99.9809
99.9646
99.9738
99.9751
99.9685
101.04
101.044
101.042
101.035
106.605
106.574
106.534
106.484
200.394
196.012
195.224
197.615
3268
3268.19
3268.2
3268.04
2768.85
2769.01
2768.98
2768.8
152.691
153.837
154.086
153.445
102.191
102.224
102.229
102.205
99.9168
99.92
99.9203
99.918
99.9476
99.9483
99.948
99.9471
99.9035
99.9096
99.91
99.905
100.761
100.771
100.771
100.761
105.208
105.199
105.166
105.106
184.225
180.217
179.514
181.7
3049.65
3049.93
3049.94
3049.73
2585.93
2586
2585.96
2585.83
141.542
142.634
142.878
142.281
101.648
101.68
101.685
101.662
99.9387
99.9428
99.9432
99.9401
99.9375
99.9385
99.9386
99.9381
99.889
99.8924
99.8924
99.8891
100.511
100.524
100.525
100.514
103.876
103.891
103.866
103.8
167.524
164.01
163.416
165.336
2829.47
2829.79
2829.81
2829.58
2401.16
2401.14
2401.08
2401.02
129.373
130.425
130.665
130.103
101.141
101.169
101.172
101.151
99.9599
99.9642
99.9646
99.9613
99.9448
99.946
99.9464
99.9463
99.9026
99.904
99.9038
99.9024
100.268
100.28
100.281
100.272
102.554
102.58
102.565
102.506
149.615
146.67
146.228
147.865
2608.74
2609.11
2609.12
2608.88
2215.02
2214.86
2214.8
2214.85
115.752
116.733
116.939
116.406
100.666
100.683
100.684
100.67
99.9739
99.9765
99.9767
99.9747
99.9697
99.9706
99.9711
99.9712
99.9404
99.9405
99.9404
99.9402
100.077
100.084
100.085
100.08
101.287
101.296
101.288
101.264
128.33
126.309
126.073
127.23
2388.21
2388.59
2388.6
2388.34
6105.84
5442.9
5173.15
5077.01
5022.2
4983.68
4958.08
4943.7
4935.72
4930.97
798399
193286
33404
11732.6
5300.89
2836.44
1749.42
1212.58
928.35
765.155
1.42407e+06
247051
44254.5
15129.6
6776.61
3637.55
2200.63
1460.53
1048.33
803.076
1.99548e+06
239538
46768.7
15018.3
6483.38
3391.29
2000.63
1297.57
912.978
688.631
2.45866e+06
252614
48935.5
14561.4
6098.46
3102.35
1792.13
1144.5
795.543
596.745
2.9304e+06
276401
51143.8
13975
5638.77
2768.71
1561.62
981.251
677.427
508.311
3.31262e+06
294976
52003
13162.8
5158.88
2467.97
1375.85
861.585
595.66
450.427
3.39659e+06
287392
47702.5
11002.5
4164.38
1946.81
1093.08
700.345
502.963
394.816
2.34166e+06
182156
27372.5
5711.46
2275.29
1237.95
858.041
671.63
568.199
506.589
6016.2
5992.97
5847.2
5822.79
5779.39
5755.09
5735.81
5725.56
5718.64
5712.69
5443.29
5175.2
5045.27
4972.7
4927.15
4897.14
4877.68
4866.13
4859.92
4855.98
180239
44895.1
13613.5
5322.78
2635.5
1567.23
1065.14
802.505
656.271
572.314
375678
86409.4
23467.2
8290.9
3889.13
2187.83
1383.91
956.239
710.821
565.778
595036
126245
30701.6
9651.67
4228.12
2261.62
1372.64
915.887
661.624
515.522
830504
165014
36427.8
10417.7
4317.68
2220.01
1310.41
857.664
610.428
472.029
1.1098e+06
207213
41753.8
10864.2
4247.27
2091.51
1198.79
768.926
542.107
418.497
1.38891e+06
244455
45356.5
10851
4055.93
1939.33
1095.74
699.619
493.251
382.964
1.56429e+06
258685
43999.4
9553.54
3395.92
1585.37
900.765
587.816
429.952
345.827
1.18225e+06
178732
26853.8
5249.97
1966.88
1091.44
771.679
615.22
526.612
476.297
6252.85
5952.91
5792.79
5733.96
5683.08
5652.32
5630.02
5616.42
5606.84
5598.54
4904
4869.17
4841.7
4818.9
4801.08
4788.16
4779.55
4774.39
4771.53
4769.48
9199.52
4175.78
2298.83
1432.77
985.409
735.873
591.229
504.975
452.261
420.449
23997.7
9564.55
4650.16
2546.85
1542.07
1010.26
712.695
538.363
431.131
364.772
45437.6
15961.8
6938.02
3411.14
1898.34
1159.05
771.551
555.708
428.548
352.755
73593.5
22902.4
9011.78
4056.11
2119.74
1232.38
791.823
556.675
421.556
343.294
112048
31041.7
11040.8
4548.46
2235.32
1237.06
767.211
526.305
393.529
318.999
156046
38869.5
12577.6
4795.18
2251.83
1206.04
734.795
500.606
373.484
303.547
191503
42871.7
12521.5
4385.71
1974.98
1036.76
636.287
443.073
341.777
286.189
141665
27756.1
7304.55
2547.43
1307.88
842.968
642.728
536.584
473.009
436.3
6018.34
5835.86
5711.24
5637.38
5584.28
5551.16
5528.14
5512.47
5500.88
5490.91
4712.98
4704.62
4695.45
4687.2
4680.95
4676.7
4674.05
4672.69
4672.36
4671.98
1208.04
906.481
708.865
570.474
479.263
420.778
383.197
358.485
341.802
331.528
3028.72
1919.48
1270.38
860.759
612.393
460.958
367.187
307.621
268.178
242.311
6220.92
3481.18
2057.51
1252.18
812.894
564.714
420.26
333.148
278.345
243.991
10747
5351.22
2878.31
1610.56
978.859
644.296
460.276
354.613
289.926
250.463
17346.4
7666.8
3761.55
1939.13
1105.25
689.184
472.665
353.788
284.447
243.626
25222.2
9947.88
4496.97
2165.96
1178.91
709.717
476.418
352.878
281.943
240.95
32103.9
11242.5
4659.43
2095.23
1100.71
652.791
441.618
333.009
272.802
238.106
23544.4
7367.35
2961.87
1443.44
906.156
663.599
542.632
472.678
427.918
401.456
5789.07
5660.54
5561.8
5497.9
5453.81
5424.93
5404.21
5389.35
5378.14
5368.67
4567.57
4566.34
4565.1
4564.13
4563.56
4563.31
4563.33
4563.71
4564.62
4565.47
412.727
382.964
356.669
334.886
318.458
306.415
297.566
290.937
285.858
282.61
637.761
512.545
411.725
334.516
279.762
241.962
216.079
198.178
185.24
176.184
1287.28
926.081
666.272
486.302
369.854
294.974
246.643
214.944
193.47
179.27
2276.13
1481.74
973.407
652.897
462.87
348.846
279.643
236.709
208.352
189.981
3814.32
2241.01
1346.92
830.662
548.865
390.266
299.442
245.701
212.123
191.242
5703.72
3044.39
1696.35
978.347
614.802
420.83
314.962
254.784
217.683
194.944
7460.61
3599.91
1861.24
1012.37
616.779
417.078
313.396
255.928
221.789
201.022
5662.39
2637.09
1436.2
904.158
665.898
539.39
466.866
421.215
389.975
371.105
5535.69
5459.64
5394.36
5347.96
5314.05
5289.79
5271.53
5257.82
5247.25
5238.43
4444.78
4444.9
4445.2
4445.67
4446.27
4446.91
4447.56
4448.36
4449.58
4451.01
277.886
274.888
271.417
267.991
264.974
262.414
260.261
258.414
256.791
255.486
225.925
210.877
194.962
180.653
169.147
160.378
153.853
148.966
145.038
142.077
373.136
321.83
273.239
233.344
203.639
182.284
167.103
156.245
148.281
142.755
613.196
488.038
382.075
302.913
248.821
212.621
188.488
172.251
160.537
152.457
1013.14
737.755
529.291
386.603
296.649
240.224
204.684
181.852
166.427
156.307
1522.14
1022.71
681.317
465.948
339.927
265.202
220.361
192.772
174.284
162.24
2045.52
1267.02
790.219
514.308
364.94
280.924
232.641
203.528
184.883
172.959
1814.41
1182.39
824.92
628.74
519.813
452.696
409.128
379.521
357.938
344.658
5303.34
5261.69
5221.86
5189.97
5164.54
5144.8
5129.23
5117.07
5107.47
5099.59
4322.51
4322.78
4323.23
4323.84
4324.53
4325.21
4325.87
4326.62
4327.76
4329.22
244.175
244.014
243.667
243.198
242.683
242.149
241.601
241.016
240.375
239.617
140.67
138.603
136.041
133.465
131.202
129.35
127.884
126.701
125.585
124.655
176.556
168.271
158.709
149.715
142.178
136.162
131.445
127.754
124.826
122.728
241.578
220.116
197.594
178.254
163.324
152.234
144.105
138.162
133.436
129.973
355.627
303.668
254.577
215.799
188.001
168.572
155.052
145.574
138.636
133.883
503.855
404.351
318.121
255.354
213.455
185.774
167.409
155.119
146.113
139.901
681.134
513.408
382.54
294.846
240.146
205.647
183.591
169.092
159.112
152.472
826.673
675.208
559.138
481.203
428.733
391.952
365.447
346.195
331.331
322.026
5091.78
5069.9
5046.1
5024.52
5005.82
4990.28
4977.48
4967.13
4958.74
4951.98
4195.42
4195.63
4195.96
4196.42
4196.94
4197.44
4197.91
4198.47
4199.39
4200.66
230.441
230.669
230.774
230.786
230.728
230.604
230.41
230.124
229.721
229.085
118.339
118.071
117.706
117.305
116.937
116.635
116.405
116.208
115.927
115.639
126.158
124.612
122.561
120.39
118.366
116.582
115.051
113.751
112.652
111.858
146.602
142.549
137.536
132.673
128.478
125.038
122.287
120.124
118.22
116.742
183.562
172.778
160.745
149.915
141.154
134.338
129.116
125.144
122.024
119.833
231.574
210.505
188.33
169.883
155.902
145.595
138.05
132.589
128.225
125.06
302.864
263.982
227.25
198.863
178.537
164.16
153.999
146.779
141.494
137.89
515.494
472.6
430.218
396.143
369.331
348.455
332.071
319.47
309.235
302.744
4892.54
4880.78
4866.4
4851.94
4838.52
4826.72
4816.59
4808.13
4801.1
4795.51
4061.88
4062.02
4062.23
4062.53
4062.87
4063.18
4063.46
4063.8
4064.5
4065.56
221.791
222.057
222.206
222.275
222.282
222.224
222.094
221.865
221.499
220.867
110.951
110.94
110.928
110.913
110.91
110.929
110.97
111.005
110.952
110.856
110.388
110.046
109.543
108.952
108.349
107.773
107.24
106.755
106.327
106.022
117.935
117.078
115.871
114.565
113.325
112.221
111.277
110.493
109.72
109.08
132.023
129.424
126.188
122.907
119.953
117.43
115.337
113.635
112.222
111.225
150.423
145.531
139.435
133.687
128.789
124.801
121.628
119.179
117.057