/*--------------------------------*- C++ -*----------------------------------*\
| =========                 |                                                 |
| \\      /  F ield         | foam-extend: Open Source CFD                    |
|  \\    /   O peration     | Version:     4.0                                |
|   \\  /    A nd           | Web:         http://www.foam-extend.org         |
|    \\/     M anipulation  |                                                 |
\*---------------------------------------------------------------------------*/
FoamFile
{
    version     2.0;
    format      ascii;
    class       volScalarField;
    location    "2400";
    object      k;
}
// * * * * * * * * * * * * * * * * * * * * * * * * * * * * * * * * * * * * * //

dimensions      [0 2 -2 0 0 0 0];

internalField   nonuniform List<scalar> 
34480
(
8.7672
8.76479
8.76467
8.76644
8.77025
8.77637
8.79132
8.85471
9.07726
9.68613
9.28
8.66826
8.57555
8.8552
9.45431
10.3411
11.9398
15.8519
28.7376
67.0239
15.0402
13.5708
13.1247
13.2729
13.8433
14.8762
17.2097
22.9053
41.6354
101.406
14.4917
12.9642
12.514
12.7082
13.4187
14.8332
18.0053
25.4063
49.2499
127.781
13.4286
12.0127
11.6617
11.9287
12.7802
14.4903
18.2598
26.956
55.2701
151.575
12.2197
10.9462
10.6337
10.9156
11.8072
13.7006
17.9422
27.9025
61.0606
176.657
11.3267
10.2065
9.95189
10.2269
11.122
13.0876
17.5896
28.42
65.5183
198.015
9.83979
9.0035
8.79865
9.01438
9.72693
11.3971
15.4914
26.1248
64.5443
205.595
6.88242
6.61386
6.56521
6.67523
7.00467
7.72928
9.72987
16.2735
43.4116
149.668
9.23849
9.23874
9.24461
9.2575
9.27562
9.29722
9.32324
9.36181
9.43283
9.506
8.67857
8.67557
8.67499
8.67676
8.68154
8.68988
8.70313
8.73419
8.80843
9.06734
7.93004
7.51014
7.4168
7.57451
8.02152
8.86392
10.3054
12.1078
15.4274
41.1732
12.2355
11.1728
10.8805
11.0838
11.7624
13.0236
15.2213
18.1223
23.7876
66.4125
12.1395
10.9712
10.6524
10.8957
11.7007
13.2513
16.032
20.0143
28.3902
86.179
11.5988
10.465
10.1981
10.4742
11.367
13.1084
16.2971
21.0753
31.8419
104.294
10.8053
9.75491
9.49951
9.77335
10.6717
12.4985
15.9681
21.456
34.8377
123.7
10.2148
9.26267
9.04549
9.29907
10.1725
12.0008
15.608
21.5521
37.1094
140.953
9.05417
8.33228
8.14814
8.33969
9.01744
10.5151
13.6622
19.285
35.7044
147.364
6.64487
6.39752
6.34332
6.41749
6.6822
7.26722
8.61409
11.5618
22.4917
102.418
9.11132
9.10663
9.10719
9.1144
9.12708
9.1429
9.16388
9.19961
9.27262
9.45787
8.57684
8.57396
8.57306
8.57404
8.57719
8.58215
8.58792
8.60085
8.62963
8.69528
6.7827
6.57108
6.51703
6.59293
6.82435
7.27136
8.06589
9.35983
11.1353
16.4368
9.69152
9.0714
8.91806
9.08566
9.60534
10.5603
12.1753
14.5698
17.5471
29.1788
9.88912
9.15113
8.96576
9.17967
9.83907
11.0949
13.2873
16.6419
21.1138
40.7607
9.75968
9.00449
8.84168
9.07842
9.81694
11.2606
13.8638
17.9407
23.778
52.2519
9.33105
8.60362
8.43612
8.67404
9.42841
10.9742
13.8889
18.6189
26.0239
64.9004
9.01602
8.33162
8.1854
8.40802
9.14954
10.7176
13.8025
18.9564
27.7478
76.9245
8.19527
7.66694
7.53768
7.70807
8.28311
9.56559
12.2713
17.1625
26.6521
82.8782
6.37359
6.18136
6.14152
6.20247
6.41341
6.87616
7.92508
10.3685
16.6988
57.1066
8.99179
8.98403
8.98151
8.98543
8.99505
9.00815
9.02618
9.05974
9.13853
9.33855
8.46137
8.45956
8.45904
8.45981
8.46198
8.46474
8.46595
8.46933
8.47826
8.49768
6.00867
5.91786
5.89076
5.92159
6.02182
6.21442
6.55114
7.13254
7.99601
9.88099
7.80879
7.49613
7.42325
7.51868
7.82017
8.38302
9.33408
10.821
12.6577
17.0736
8.12483
7.70739
7.60364
7.74112
8.16726
8.98958
10.4232
12.7267
15.5982
23.5538
8.24748
7.78887
7.69201
7.84983
8.34808
9.33567
11.1225
14.0847
17.8846
30.1246
8.08392
7.61549
7.50588
7.67284
8.20243
9.30159
11.3876
14.9954
19.8642
37.6351
7.97589
7.51158
7.41211
7.57363
8.1106
9.25625
11.5228
15.5771
21.3678
44.9592
7.4453
7.07501
6.98296
7.11141
7.53532
8.48136
10.4799
14.382
20.6525
48.7682
6.13162
5.98465
5.95475
6.00072
6.15813
6.49613
7.22481
8.98542
12.9806
33.0377
8.8579
8.85009
8.84727
8.85065
8.85976
8.87339
8.89224
8.92615
8.99932
9.15519
8.33371
8.33288
8.3327
8.33319
8.33436
8.33523
8.33363
8.33226
8.33218
8.33432
5.53766
5.5032
5.49011
5.49999
5.53617
5.60493
5.72019
5.91164
6.17866
6.62115
6.56608
6.4284
6.3976
6.43787
6.57424
6.83255
7.27156
7.98208
8.87904
10.3566
6.87209
6.65543
6.59881
6.66956
6.89679
7.33943
8.11415
9.40822
11.0453
14.0195
7.10209
6.84235
6.786
6.87331
7.15881
7.72697
8.75927
10.56
12.8858
17.7757
7.09732
6.81071
6.739
6.8395
7.1633
7.83577
9.11554
11.4645
14.6137
22.2336
7.12084
6.81805
6.74995
6.85189
7.1968
7.92877
9.37336
12.1314
15.9827
26.6474
6.81343
6.56181
6.49572
6.5818
6.8639
7.48519
8.7785
11.4747
15.6919
29.0131
5.91843
5.80755
5.7848
5.81662
5.92763
6.15995
6.6303
7.7414
10.1055
19.2394
8.71445
8.70675
8.70373
8.7066
8.71506
8.72848
8.74696
8.7784
8.83992
8.95244
8.19474
8.19467
8.19477
8.19504
8.19549
8.19508
8.19261
8.19004
8.18786
8.18655
5.27036
5.25896
5.25262
5.25488
5.26618
5.28801
5.32348
5.37806
5.4475
5.53732
5.80945
5.75801
5.7483
5.76171
5.81272
5.90957
6.07214
6.33472
6.6742
7.1389
6.04302
5.93933
5.91055
5.94303
6.05126
6.25975
6.61647
7.21171
7.98783
9.10662
6.28232
6.14567
6.11582
6.15946
6.30772
6.59748
7.11206
8.02115
9.23793
11.2029
6.35108
6.18551
6.14131
6.19751
6.38054
6.75304
7.4444
8.74052
10.5397
13.8037
6.44214
6.25417
6.21039
6.27054
6.47787
6.90716
7.72904
9.34062
11.6534
16.3938
6.2932
6.13031
6.0855
6.14046
6.31824
6.69918
7.46011
9.07708
11.6575
17.7686
5.73293
5.65178
5.63555
5.65689
5.73314
5.88843
6.184
6.83623
8.10066
11.8449
8.56053
8.55321
8.55018
8.55265
8.56041
8.57305
8.59038
8.61824
8.66627
8.74103
8.04507
8.04552
8.0458
8.04592
8.0459
8.04471
8.0424
8.03992
8.03766
8.03601
5.12661
5.12321
5.11975
5.11968
5.12257
5.12897
5.13907
5.15344
5.16958
5.18565
5.37595
5.36101
5.36014
5.363
5.37802
5.40722
5.45622
5.5339
5.63282
5.75051
5.52655
5.47964
5.4657
5.47947
5.52758
5.61834
5.76707
6.00381
6.30876
6.68033
5.72719
5.65977
5.64548
5.66546
5.73716
5.87329
6.10451
6.49909
7.03141
7.75011
5.81505
5.72399
5.69811
5.7277
5.82544
6.01857
6.36062
6.98394
7.86729
9.18691
5.92897
5.8172
5.79061
5.82393
5.94243
6.18
6.61215
7.43971
8.65438
10.6616
5.88356
5.7831
5.75427
5.78766
5.8943
6.11618
6.53637
7.40183
8.80331
11.4705
5.57813
5.52016
5.50919
5.52293
5.57397
5.67522
5.85871
6.23087
6.89043
8.32523
8.39559
8.38887
8.38599
8.38811
8.39504
8.40639
8.42194
8.44565
8.48223
8.53152
7.88502
7.88578
7.88618
7.88621
7.88591
7.88456
7.88269
7.8807
7.87891
7.87757
5.05199
5.05077
5.04852
5.048
5.04863
5.05066
5.05363
5.05744
5.061
5.0634
5.13787
5.13622
5.13826
5.13786
5.14011
5.14558
5.15602
5.17355
5.19603
5.22002
5.21961
5.19897
5.19236
5.19796
5.21875
5.25716
5.31721
5.40616
5.51476
5.62678
5.36809
5.33677
5.33078
5.33923
5.37218
5.43287
5.53109
5.68808
5.89272
6.12695
5.44708
5.39922
5.38478
5.39966
5.44975
5.54585
5.70754
5.98377
6.36789
6.85609
5.55772
5.49378
5.47855
5.496
5.56125
5.68792
5.90593
6.29793
6.86486
7.6481
5.57426
5.51556
5.49806
5.51746
5.57853
5.70232
5.92565
6.35731
7.04573
8.13537
5.45381
5.41322
5.40624
5.41483
5.44842
5.51343
5.62684
5.83779
6.18544
6.75858
8.21908
8.21316
8.21055
8.21234
8.21835
8.22809
8.24144
8.26084
8.28805
8.32096
7.71466
7.71561
7.71608
7.71606
7.7156
7.71448
7.71309
7.71163
7.71033
7.70933
5.01365
5.01275
5.01108
5.01064
5.01093
5.01192
5.01317
5.01455
5.0155
5.01565
5.01145
5.01361
5.01609
5.01508
5.01375
5.01244
5.01195
5.01303
5.01554
5.01856
5.04476
5.03554
5.03232
5.0346
5.04369
5.06024
5.08501
5.11907
5.1579
5.19173
5.1454
5.13164
5.12958
5.13287
5.14749
5.17374
5.21452
5.27517
5.34998
5.42253
5.20531
5.18121
5.17349
5.18071
5.20561
5.25217
5.32729
5.44637
5.60505
5.77832
5.30062
5.26518
5.25693
5.26565
5.30063
5.36668
5.47511
5.65554
5.90513
6.19341
5.35055
5.31835
5.30842
5.31925
5.35257
5.41879
5.5342
5.74205
6.0623
6.49186
5.35788
5.32979
5.32565
5.33095
5.35294
5.39451
5.46461
5.58462
5.7694
6.02092
8.03061
8.0256
8.02335
8.02483
8.02985
8.03783
8.04885
8.06411
8.08384
8.10571
7.53417
7.535
7.53551
7.53546
7.53501
7.53422
7.53324
7.53222
7.53133
7.5306
4.99322
4.99239
4.99108
4.99082
4.99116
4.99192
4.99283
4.99375
4.99433
4.99423
4.94616
4.94879
4.95088
4.95005
4.94828
4.94586
4.94332
4.94113
4.93966
4.93897
4.94928
4.94483
4.94313
4.94412
4.94835
4.95593
4.96687
4.98093
4.99593
5.00713
5.01295
5.00711
5.00665
5.00783
5.01425
5.02557
5.04258
5.06624
5.09365
5.11683
5.05336
5.04169
5.03771
5.04114
5.05325
5.07543
5.1101
5.16147
5.22693
5.29111
5.13022
5.11096
5.10671
5.11094
5.12947
5.16363
5.21765
5.30112
5.4104
5.51828
5.19568
5.17942
5.17427
5.1801
5.19734
5.23111
5.28882
5.38658
5.53156
5.70582
5.28668
5.26729
5.26504
5.26837
5.28292
5.30978
5.35334
5.42231
5.52055
5.64047
7.82987
7.82583
7.82398
7.82517
7.8292
7.83546
7.84419
7.85576
7.86967
7.88399
7.34328
7.34395
7.34438
7.34434
7.34404
7.3435
7.34284
7.34215
7.34156
7.34101
4.98135
4.98063
4.97967
4.97952
4.97986
4.98054
4.98135
4.98216
4.98272
4.98262
4.91315
4.91532
4.91688
4.91636
4.91498
4.91301
4.91082
4.90874
4.9072
4.90635
4.89944
4.897
4.89603
4.89651
4.89866
4.90247
4.90779
4.91429
4.92089
4.92515
4.93747
4.93492
4.93492
4.93534
4.93828
4.94342
4.95091
4.96068
4.97119
4.97929
4.96218
4.95671
4.95471
4.95634
4.96216
4.97264
4.98862
5.011
5.03838
5.06425
5.02225
5.01175
5.00965
5.01172
5.02164
5.03952
5.06688
5.1065
5.15536
5.19849
5.09316
5.08591
5.08361
5.08667
5.095
5.11121
5.13865
5.18314
5.24651
5.32171
5.23574
5.22222
5.22116
5.22339
5.23332
5.25108
5.27852
5.31882
5.37093
5.43181
7.61671
7.6136
7.61216
7.61308
7.61615
7.62089
7.62754
7.636
7.64554
7.65473
7.14175
7.14229
7.14263
7.14262
7.14243
7.14207
7.14164
7.14119
7.14079
7.14036
4.97347
4.97291
4.97226
4.97218
4.97249
4.97307
4.97376
4.97446
4.97501
4.97486
4.89666
4.89827
4.89937
4.89911
4.8982
4.8969
4.89545
4.89407
4.89313
4.89263
4.87472
4.87323
4.87265
4.87291
4.87409
4.87614
4.87897
4.88231
4.88565
4.88753
4.89636
4.89504
4.89504
4.89522
4.89676
4.89943
4.9032
4.90781
4.91236
4.91573
4.91008
4.90757
4.90657
4.90736
4.91017
4.91514
4.92253
4.93243
4.94409
4.95558
4.95689
4.95095
4.94991
4.95103
4.95657
4.9663
4.98068
5.0004
5.0232
5.04216
5.02816
5.02566
5.02497
5.02655
5.03021
5.03731
5.04926
5.06828
5.09395
5.12883
5.20037
5.19076
5.19041
5.19207
5.19916
5.2113
5.22897
5.2531
5.2807
5.31355
7.39105
7.38879
7.38774
7.38842
7.39064
7.39412
7.39899
7.40495
7.4113
7.41709
6.92935
6.9298
6.93007
6.93007
6.92996
6.92973
6.92945
6.92915
6.9289
6.92854
4.96746
4.9671
4.9667
4.96667
4.96693
4.96737
4.96792
4.96848
4.96899
4.96874
4.88842
4.88959
4.89035
4.89024
4.88972
4.88897
4.88813
4.88736
4.88696
4.88674
4.86323
4.86231
4.86198
4.86212
4.86277
4.86388
4.86541
4.86721
4.86908
4.87003
4.87503
4.87413
4.87402
4.87413
4.8751
4.87678
4.87907
4.88173
4.88416
4.88599
4.88185
4.88068
4.88018
4.88058
4.88196
4.88436
4.88783
4.8923
4.89739
4.90306
4.91901
4.9154
4.91485
4.91558
4.9189
4.92458
4.93263
4.94318
4.95462
4.96419
4.98842
4.98821
4.98835
4.98917
4.99053
4.99313
4.99747
5.00457
5.0131
5.03088
5.17623
5.16923
5.16927
5.17066
5.176
5.18458
5.19634
5.21125
5.22581
5.24495
7.15297
7.15143
7.15072
7.15119
7.1527
7.15521
7.15864
7.16268
7.16676
7.17034
6.70592
6.70632
6.70652
6.70653
6.70647
6.70632
6.70614
6.70595
6.70578
6.70546
4.96235
4.96222
4.96202
4.96203
4.96222
4.96253
4.96293
4.96335
4.96382
4.96346
4.88422
4.88509
4.8856
4.88559
4.88533
4.88495
4.88456
4.88421
4.88418
4.88417
4.85845
4.85792
4.85776
4.85784
4.85815
4.8587
4.85946
4.86039
4.86147
4.862
4.86459
4.86384
4.86362
4.86371
4.86442
4.86565
4.86728
4.86911
4.87071
4.87198
4.86743
4.86685
4.86658
4.86679
4.8675
4.86871
4.87039
4.87249
4.87478
4.8779
4.89783
4.89543
4.89509
4.89565
4.89783
4.90143
4.90632
4.91248
4.91882
4.92462
4.96448
4.96519
4.96573
4.96618
4.96649
4.96704
4.96787
4.96966
4.97066
4.98099
5.15953
5.1544
5.15466
5.15594
5.16005
5.1664
5.17452
5.1841
5.19164
5.20392
6.90272
6.90165
6.90122
6.90152
6.90256
6.90429
6.9066
6.90922
6.91174
6.91392
6.47141
6.47175
6.47191
6.47192
6.47189
6.4718
6.47168
6.47156
6.47144
6.47115
4.95775
4.95784
4.95779
4.95785
4.95797
4.95817
4.95843
4.95871
4.95918
4.95871
4.88198
4.88264
4.88296
4.883
4.88291
4.88279
4.88268
4.88261
4.88284
4.88298
4.85696
4.85671
4.85667
4.8567
4.85681
4.85699
4.85727
4.85768
4.85828
4.85863
4.85988
4.85922
4.85894
4.85901
4.85955
4.86051
4.86175
4.86312
4.86432
4.86531
4.86061
4.86026
4.86009
4.8602
4.86059
4.86125
4.86212
4.86315
4.86424
4.86613
4.88611
4.88438
4.88413
4.8846
4.88613
4.88857
4.89177
4.89568
4.89957
4.90373
4.94944
4.95038
4.95107
4.95134
4.95125
4.951
4.95044
4.95008
4.94804
4.95504
5.1474
5.1436
5.14402
5.14521
5.1485
5.15337
5.15922
5.16563
5.16929
5.17803
6.64051
6.63981
6.63953
6.63974
6.64043
6.64155
6.64304
6.64465
6.64612
6.64743
6.22587
6.22616
6.22628
6.22629
6.22628
6.22623
6.22615
6.22607
6.22599
6.22571
4.95347
4.95377
4.95384
4.95394
4.95402
4.95412
4.95425
4.95442
4.95492
4.95441
4.88063
4.88113
4.8813
4.88135
4.88136
4.8814
4.88147
4.88159
4.88198
4.88229
4.85703
4.85695
4.85699
4.85699
4.85697
4.85694
4.85694
4.85704
4.85735
4.85764
4.85804
4.85747
4.85719
4.85723
4.85764
4.85836
4.8593
4.86032
4.86124
4.86205
4.85775
4.85749
4.85736
4.85742
4.85765
4.85803
4.85851
4.85907
4.85962
4.86083
4.87923
4.87793
4.87773
4.8781
4.8792
4.88091
4.88309
4.88569
4.88826
4.89156
4.93853
4.93935
4.94005
4.94025
4.94009
4.93964
4.93871
4.93771
4.93472
4.94011
5.1376
5.13482
5.13531
5.13644
5.13913
5.14299
5.14737
5.15182
5.15325
5.16001
6.36667
6.36624
6.36607
6.3662
6.36663
6.36733
6.36822
6.36915
6.36995
6.37071
5.96959
5.96984
5.96992
5.96994
5.96994
5.9699
5.96985
5.9698
5.96973
5.96947
4.94939
4.94989
4.95004
4.95018
4.95023
4.95025
4.95028
4.95036
4.95092
4.95047
4.87956
4.8799
4.87995
4.87999
4.88005
4.88018
4.88036
4.88059
4.88107
4.88157
4.85776
4.85776
4.85782
4.8578
4.85772
4.8576
4.85748
4.85742
4.85756
4.85786
4.85756
4.8571
4.85685
4.85686
4.85714
4.85765
4.85831
4.85904
4.85973
4.86037
4.85687
4.85666
4.85656
4.85657
4.85671
4.85693
4.85721
4.85752
4.85781
4.85858
4.87435
4.87336
4.87318
4.87345
4.87422
4.87539
4.87684
4.87856
4.88028
4.88294
4.92852
4.92907
4.92969
4.92986
4.92974
4.92935
4.9285
4.9275
4.92454
4.92896
5.12817
5.1262
5.1267
5.12776
5.12999
5.13309
5.13645
5.1396
5.13969
5.14512
6.08174
6.0815
6.0814
6.08148
6.08173
6.08212
6.08262
6.08311
6.08349
6.08391
5.70321
5.70342
5.70349
5.70351
5.7035
5.70348
5.70345
5.7034
5.70334
5.70311
4.94522
4.94586
4.94608
4.94626
4.9463
4.94626
4.94619
4.94618
4.94677
4.94657
4.87839
4.87852
4.87849
4.87849
4.87856
4.87872
4.87895
4.87924
4.87971
4.88042
4.85859
4.85858
4.85862
4.8586
4.85851
4.85838
4.85824
4.85815
4.85819
4.85854
4.85769
4.85734
4.85715
4.85715
4.85732
4.85763
4.85805
4.85853
4.85901
4.8595
4.85697
4.85682
4.85674
4.85673
4.8568
4.85691
4.85705
4.8572
4.85734
4.85779
4.8697
4.86899
4.86883
4.869
4.86947
4.87019
4.87108
4.87211
4.87321
4.87525
4.91724
4.91752
4.918
4.91814
4.91805
4.91774
4.91707
4.91626
4.91381
4.91738
5.11634
5.11506
5.11552
5.11649
5.11829
5.12073
5.12328
5.12542
5.1247
5.12893
5.78656
5.78643
5.78638
5.78643
5.78655
5.78675
5.787
5.78721
5.78737
5.78758
5.42759
5.42776
5.4278
5.42781
5.42781
5.4278
5.42778
5.42775
5.4277
5.42751
4.93954
4.94018
4.94056
4.94079
4.94084
4.94075
4.94058
4.94042
4.94079
4.94109
4.87679
4.87667
4.87656
4.87651
4.87657
4.87672
4.87695
4.87723
4.87765
4.87849
4.8591
4.85904
4.85905
4.85901
4.85895
4.85886
4.85877
4.85871
4.85874
4.85908
4.85815
4.85791
4.85779
4.85778
4.85787
4.85804
4.85828
4.85855
4.85884
4.85918
4.8576
4.85751
4.85746
4.85745
4.85747
4.8575
4.85754
4.85758
4.85763
4.85783
4.86472
4.86428
4.86417
4.86424
4.86448
4.86484
4.86528
4.86578
4.86637
4.86774
4.90353
4.90357
4.90386
4.90391
4.90378
4.90347
4.90293
4.9023
4.90068
4.9033
5.09506
5.09436
5.09474
5.09554
5.09688
5.09865
5.10044
5.1017
5.10055
5.10335
5.48212
5.48206
5.48205
5.48206
5.4821
5.48217
5.48224
5.4823
5.48235
5.48245
5.14253
5.14263
5.14264
5.14265
5.14265
5.14264
5.14264
5.14263
5.14263
5.14254
4.92471
4.92528
4.9259
4.92622
4.92631
4.92619
4.9259
4.92549
4.92509
4.92571
4.87368
4.87333
4.87313
4.87303
4.87305
4.87316
4.87336
4.87364
4.87404
4.87487
4.85937
4.8593
4.85928
4.85925
4.85922
4.85919
4.85915
4.85914
4.85916
4.85939
4.85895
4.85883
4.85877
4.85876
4.8588
4.85888
4.85899
4.85912
4.85927
4.85945
4.85863
4.85859
4.85857
4.85856
4.85856
4.85855
4.85855
4.85853
4.85853
4.85857
4.86083
4.86064
4.86059
4.86061
4.8607
4.86083
4.86098
4.86115
4.86139
4.86202
4.88685
4.88669
4.88675
4.88669
4.88651
4.8862
4.88578
4.88536
4.88479
4.88649
5.04092
5.04062
5.04087
5.04138
5.04217
5.0432
5.04423
5.04478
5.04378
5.04482
5.16848
5.16845
5.16846
5.16846
5.16847
5.16847
5.16847
5.16846
5.16843
5.16849
11.269
11.3841
11.3385
11.1223
82.8102
84.8875
85.3473
85.9966
143.137
148.611
149.081
147.836
202.8
212.237
212.104
207.815
264.482
278.143
276.938
269.485
332.777
351.058
348.957
340.214
395.161
417.813
415.429
408.038
433.168
459.441
457.494
452.918
345.682
368.26
365.71
364.361
11.4769
11.7155
11.5594
11.1514
9.71377
9.77314
9.77597
9.73198
76.0776
79.3214
80.0809
80.2022
133.884
144.804
145.905
143.741
192.905
214.534
215.069
209.173
256.139
290.982
290.035
280.085
329.511
380.274
378.499
365.624
399.602
466.623
465.655
452.625
446.088
527.577
528.618
517.427
350.523
422.883
420.974
416.139
10.7115
10.9424
10.8719
10.6516
8.77683
8.78981
8.7888
8.77729
26.5381
28.9548
28.2175
25.7085
49.3566
53.7626
52.0986
47.425
74.5821
81.3415
78.2222
70.7068
103.456
112.996
107.817
96.7354
139.442
152.805
145.177
129.285
177.31
194.675
184.516
163.493
207.53
228.706
216.447
190.911
164.73
181.623
170.141
149.304
9.91284
10.0036
9.98042
9.88121
8.51189
8.51444
8.51511
8.51414
11.4729
11.7225
11.693
11.4959
21.2126
21.9398
21.8764
21.3343
31.9969
33.4837
33.2318
31.9162
44.5102
46.9437
46.2796
43.7576
60.6338
64.4024
63.0827
58.7666
78.0555
83.1685
80.9019
74.458
92.5757
99.1265
95.8399
87.1477
71.9355
77.076
73.5643
65.9629
9.4487
9.49313
9.49006
9.44965
8.33286
8.33396
8.33422
8.33357
7.04186
7.13341
7.1586
7.12875
11.6778
11.9741
12.0571
11.9711
16.871
17.4855
17.586
17.3193
22.8364
23.8564
23.8923
23.2884
30.7128
32.338
32.2254
31.0366
39.2231
41.458
41.0404
39.0612
46.2616
49.1978
48.381
45.4009
34.4012
36.62
35.4298
32.5498
9.09836
9.12229
9.12391
9.10695
8.18254
8.18346
8.18356
8.18279
5.60669
5.62097
5.62619
5.62447
7.45584
7.52578
7.55851
7.55987
9.93736
10.1211
10.1883
10.1632
12.8335
13.1794
13.2657
13.1652
16.796
17.4126
17.5025
17.2348
21.0457
21.9425
21.966
21.4368
24.4783
25.7304
25.629
24.6928
17.481
18.3751
18.0207
17.017
8.81282
8.82473
8.82709
8.82094
8.0317
8.0326
8.03266
8.03188
5.19692
5.20011
5.20099
5.2
5.8231
5.83892
5.84756
5.84976
6.91424
6.96714
6.99232
6.99341
8.2589
8.37117
8.41552
8.40581
10.2336
10.4613
10.5312
10.4824
12.3586
12.7064
12.7767
12.6577
14.0531
14.5729
14.6196
14.3554
10.2219
10.5582
10.4797
10.1885
8.56539
8.57086
8.57293
8.57153
7.87346
7.87434
7.87441
7.87365
5.06321
5.06438
5.06439
5.06345
5.23312
5.2355
5.23694
5.23759
5.68403
5.6964
5.70295
5.70433
6.26557
6.29593
6.31049
6.31202
7.19408
7.2697
7.30038
7.29468
8.21562
8.33663
8.37651
8.35785
9.06875
9.26929
9.3139
9.2485
7.33899
7.45174
7.4457
7.3796
8.33738
8.33966
8.34112
8.34133
7.70548
7.70632
7.70638
7.70568
5.01329
5.01422
5.01416
5.01323
5.02032
5.02044
5.0205
5.02054
5.20441
5.20675
5.20804
5.20841
5.45535
5.46197
5.46557
5.46668
5.88058
5.90358
5.91414
5.914
6.35902
6.39486
6.4102
6.41049
6.80643
6.87775
6.90028
6.88561
6.19856
6.2325
6.23684
6.22632
8.11415
8.11495
8.11584
8.1164
7.52702
7.5278
7.52786
7.5272
4.99133
4.99219
4.99214
4.99126
4.93892
4.93883
4.93873
4.93863
5.00959
5.00982
5.00995
5.01
5.12348
5.12438
5.12496
5.12535
5.32339
5.33041
5.33374
5.33366
5.55978
5.56825
5.57288
5.57494
5.8141
5.83898
5.84806
5.84382
5.69868
5.70624
5.70892
5.70968
7.88848
7.88859
7.88909
7.88962
7.3377
7.33842
7.33848
7.33787
4.97959
4.98037
4.98032
4.97948
4.90613
4.9061
4.90602
4.9059
4.92538
4.92527
4.92522
4.92523
4.9803
4.98016
4.9801
4.98018
5.07669
5.07926
5.08037
5.08007
5.20667
5.20777
5.20885
5.21022
5.36633
5.37605
5.37939
5.37669
5.45417
5.45323
5.45382
5.45611
7.65708
7.65692
7.65719
7.6576
7.13733
7.13798
7.13803
7.13748
4.97183
4.97253
4.97246
4.97167
4.89242
4.89243
4.89237
4.89225
4.8873
4.88718
4.88713
4.88714
4.91575
4.91554
4.91542
4.9154
4.96187
4.96314
4.9636
4.96325
5.04268
5.04221
5.0423
5.04305
5.15356
5.15842
5.15957
5.15699
5.32496
5.32166
5.32116
5.32309
7.41819
7.41797
7.4181
7.41837
6.92579
6.92637
6.92641
6.92591
4.9658
4.9664
4.9663
4.96555
4.88654
4.88656
4.88651
4.88638
4.86973
4.86964
4.86961
4.86964
4.88596
4.88583
4.88574
4.8857
4.907
4.9078
4.90805
4.90774
4.96376
4.96323
4.96312
4.96349
5.04879
5.05201
5.05235
5.04978
5.25296
5.24941
5.24851
5.24981
7.17064
7.17049
7.17055
7.17068
6.70303
6.70353
6.70355
6.70311
4.96066
4.96114
4.96102
4.96031
4.88397
4.884
4.88395
4.88382
4.86175
4.8617
4.86169
4.86171
4.87203
4.87197
4.87191
4.87186
4.88064
4.88121
4.88136
4.8811
4.92485
4.92457
4.92447
4.92458
4.99617
4.9988
4.99884
4.99627
5.21089
5.20785
5.20687
5.20752
6.91368
6.91364
6.91367
6.91367
6.46905
6.46946
6.46947
6.46909
4.9561
4.95647
4.95631
4.95565
4.88285
4.88289
4.88284
4.88271
4.85849
4.85848
4.85847
4.85848
4.86542
4.8654
4.86536
4.86532
4.8681
4.86851
4.8686
4.86838
4.90484
4.90484
4.90479
4.90471
4.96894
4.97136
4.97128
4.96868
5.18476
5.1825
5.18159
5.1816
6.64681
6.64692
6.64693
6.64682
6.22399
6.22431
6.22429
6.22397
4.95205
4.95231
4.95212
4.95151
4.88233
4.88241
4.88237
4.88221
4.85766
4.85768
4.85768
4.85767
4.86219
4.86219
4.86217
4.86214
4.86223
4.86251
4.86256
4.86238
4.89336
4.89359
4.89358
4.89337
4.95329
4.9557
4.95558
4.95289
5.16679
5.16545
5.16468
5.16406
6.36982
6.37007
6.37008
6.36987
5.96819
5.96841
5.96837
5.96811
4.94847
4.94864
4.94844
4.94788
4.88193
4.88208
4.88205
4.88185
4.85805
4.85811
4.85812
4.85808
4.86054
4.86056
4.86055
4.86053
4.85952
4.85971
4.85973
4.85959
4.88513
4.88551
4.88554
4.88524
4.94148
4.94401
4.94389
4.9411
5.15202
5.15169
5.15113
5.14988
6.08284
6.08321
6.08322
6.08294
5.70235
5.70246
5.70239
5.7022
4.94521
4.94538
4.9452
4.94467
4.88123
4.88148
4.88147
4.8812
4.85888
4.85898
4.85899
4.85892
4.85969
4.85972
4.85972
4.85971
4.85835
4.85846
4.85846
4.85837
4.87745
4.87789
4.87795
4.87762
4.92868
4.93134
4.93126
4.92843
5.13573
5.13661
5.13633
5.13438
5.78641
5.78685
5.78687
5.78656
5.42738
5.42735
5.42726
5.42716
4.941
4.94139
4.94128
4.94066
4.8796
4.87994
4.87993
4.8796
4.85947
4.85959
4.8596
4.85952
4.85936
4.8594
4.85941
4.85941
4.85808
4.85813
4.85812
4.85808
4.86956
4.86996
4.87001
4.86974
4.91187
4.91428
4.91426
4.91179
5.10926
5.11165
5.11172
5.10892
5.48142
5.48193
5.48196
5.48162
5.14313
5.14289
5.1428
5.14287
4.92732
4.92821
4.92819
4.92723
4.87564
4.87587
4.87584
4.87558
4.85963
4.8597
4.85971
4.85965
4.85958
4.85961
4.85962
4.85963
4.85863
4.85864
4.85863
4.85863
4.86301
4.86323
4.86327
4.86313
4.89063
4.8918
4.89177
4.89056
5.04765
5.05118
5.05149
5.04806
5.16798
5.16853
5.16854
5.16817
10.1126
9.36666
9.05457
8.94205
8.87757
8.83212
8.80184
8.78482
8.77536
8.76974
103.674
49.1182
35.7479
29.9539
24.557
19.9495
16.3634
13.6896
11.7816
10.4195
160.952
70.8602
51.0935
43.7433
37.1921
31.4261
26.5935
22.7127
19.669
17.2944
206.427
82.5934
55.9824
46.7288
39.3628
32.7674
27.2293
22.8357
19.4442
16.8564
242.065
88.9522
58.8267
47.9661
40.0781
32.7371
26.6774
21.9549
18.3683
15.7228
278.038
94.6918
60.975
48.3031
39.8461
31.7877
25.353
20.4653
16.8824
14.3311
307.096
98.1601
61.6915
47.7817
39.0465
30.5202
23.9438
19.0744
15.5948
13.2106
315.21
93.7537
56.629
42.2284
33.9178
25.7872
19.9244
15.7971
13.0461
11.2292
224.475
56.1349
30.5437
21.1163
16.2835
12.2241
9.9552
8.6131
7.80413
7.27995
9.5692
9.54456
9.38915
9.363
9.31642
9.29029
9.26953
9.25848
9.25102
9.2446
9.36711
9.05696
8.90473
8.81913
8.76519
8.72957
8.70644
8.69268
8.68528
8.68059
53.1033
28.6708
22.5566
19.4496
16.6689
14.1981
12.1634
10.6008
9.46104
8.6689
89.9991
46.2745
35.8007
31.0212
27.1817
23.5095
20.2909
17.632
15.5039
13.885
122.266
58.6121
42.8651
35.6347
30.551
25.7672
21.6967
18.4234
15.8734
13.9868
152.565
68.7681
47.857
38.521
32.3853
26.679
21.978
18.2986
15.4861
13.4759
186.439
78.8765
52.1458
40.4764
33.2587
26.6703
21.4547
17.4963
14.5918
12.5916
217.207
86.476
54.7144
41.2509
33.3542
26.1782
20.6985
16.6613
13.7711
11.8536
233.199
86.7514
51.919
37.485
29.5788
22.5779
17.5745
14.0836
11.7636
10.2832
167.409
54.7566
29.0628
19.3798
14.6949
11.2266
9.27462
8.12956
7.43363
7.00277
9.81853
9.50198
9.33082
9.26753
9.21263
9.17935
9.1552
9.14044
9.13005
9.12103
8.73772
8.6963
8.66357
8.63634
8.61504
8.59958
8.58927
8.58308
8.57965
8.57719
19.9483
16.5764
14.5028
12.6846
11.1149
9.81194
8.79766
8.04877
7.51002
7.13743
35.9206
28.7122
24.9254
21.6896
18.9141
16.5059
14.5108
12.9064
11.6311
10.6693
51.0377
37.9363
31.541
26.3507
22.2597
18.8402
16.097
13.9478
12.2883
11.0745
66.1288
45.6927
36.6304
29.5942
24.3797
20.1259
16.8138
14.2908
12.3793
11.0261
83.2266
53.3445
41.1448
32.085
25.7359
20.662
16.8424
14.0204
11.9743
10.5808
99.1252
59.1916
44.1513
33.459
26.3369
20.7058
16.598
13.6545
11.5707
10.1995
108.42
59.7592
42.6005
31.0011
23.7649
18.2182
14.4247
11.857
10.1704
9.09758
75.9449
36.6499
23.8688
16.273
12.2257
9.68247
8.28974
7.47149
6.96269
6.64328
9.57148
9.37701
9.24304
9.16318
9.10555
9.0695
9.04442
9.02731
9.01466
9.00377
8.50933
8.49926
8.4882
8.47827
8.47073
8.4656
8.4624
8.46076
8.46036
8.4599
10.9415
10.1334
9.2843
8.43991
7.73277
7.19008
6.79128
6.50326
6.29471
6.14965
19.8679
18.0286
16.1768
14.3039
12.6882
11.36
10.2986
9.46282
8.80359
8.30905
28.4779
24.6333
21.1904
17.9887
15.4007
13.3286
11.705
10.4521
9.49366
8.79846
37.2434
30.667
25.4315
20.8638
17.3677
14.6402
12.5635
11.0096
9.84185
9.01754
47.4705
36.9715
29.525
23.3603
18.8651
15.4401
12.9155
11.0864
9.77448
8.88361
57.0695
42.0775
32.5538
25.0139
19.76
15.8316
13.027
11.0614
9.68096
8.76938
62.7995
43.2658
32.0895
23.7129
18.2357
14.3066
11.6799
9.94108
8.80281
8.06975
42.7464
26.2045
17.9728
12.7917
10.0236
8.39138
7.47314
6.91841
6.55962
6.32898
9.32682
9.18826
9.08109
9.0114
8.96316
8.93149
8.90873
8.8924
8.88006
8.86963
8.33339
8.33189
8.33038
8.3292
8.3285
8.32821
8.32823
8.32869
8.3298
8.33083
6.99879
6.75858
6.50562
6.26723
6.06892
5.91252
5.79217
5.70053
5.63119
5.58322
11.6111
10.9252
10.1513
9.37376
8.68701
8.11474
7.65555
7.29397
7.0055
6.78758
16.44
14.9573
13.3756
11.8596
10.5721
9.52174
8.69356
8.05536
7.56709
7.21429
21.5364
18.9348
16.3583
14.0119
12.1133
10.6149
9.4727
8.6238
7.98362
7.52914
27.768
23.4444
19.5089
16.0873
13.4439
11.4221
9.93342
8.86351
8.09576
7.57179
33.736
27.3834
22.0662
17.6424
14.3795
11.9552
10.2306
9.03393
8.18814
7.62144
37.3947
28.7914
22.2629
17.1546
13.6364
11.1587
9.5088
8.42156
7.70019
7.22514
24.529
17.335
12.8096
9.95728
8.36371
7.40495
6.83004
6.46704
6.22051
6.05873
9.05264
8.96954
8.89791
8.84681
8.80937
8.78254
8.76232
8.74712
8.73538
8.7256
8.18336
8.18351
8.18387
8.18445
8.18518
8.18597
8.18677
8.18775
8.18924
8.191
5.60801
5.56478
5.51342
5.46125
5.41405
5.37359
5.3401
5.31314
5.29257
5.27961
7.50456
7.31348
7.06507
6.80571
6.5705
6.37233
6.21226
6.08443
5.97782
5.89486
9.9777
9.47189
8.85066
8.22742
7.67865
7.22432
6.86234
6.57998
6.36006
6.20033
12.7362
11.7743
10.6616
9.59967
8.70702
7.99566
7.45056
7.04307
6.72811
6.50018
16.3274
14.6099
12.7535
11.061
9.69843
8.64826
7.87073
7.30843
6.89761
6.61331
19.865
17.2468
14.5837
12.268
10.4874
9.16073
8.212
7.55017
7.06993
6.73999
22.1188
18.4207
14.9981
12.2243
10.2383
8.84214
7.90163
7.27198
6.84164
6.55061
14.3944
11.5386
9.42806
8.05205
7.21594
6.68002
6.33283
6.10284
5.93848
5.82917
8.79753
8.75141
8.70718
8.6717
8.64335
8.62132
8.60391
8.59031
8.57956
8.57073
8.03259
8.03292
8.03348
8.03423
8.03508
8.03593
8.03674
8.03768
8.03909
8.04089
5.1967
5.18854
5.17887
5.16821
5.15757
5.14755
5.13863
5.13124
5.12618
5.12429
5.83875
5.79279
5.7304
5.66328
5.60091
5.54739
5.50339
5.46696
5.43313
5.40495
6.95005
6.79202
6.58424
6.3681
6.17124
6.00317
5.86453
5.75208
5.66101
5.59417
8.2979
7.96325
7.54441
7.13204
6.77524
6.48489
6.25687
6.0815
5.93868
5.83182
10.2207
9.55383
8.76952
8.03166
7.41935
6.93868
6.57424
6.30298
6.09724
5.95214
12.1905
11.1262
9.92526
8.84943
7.99559
7.34974
6.87718
6.53873
6.28123
6.09833
13.5198
11.9509
10.34
8.9993
8.00469
7.29203
6.79594
6.45176
6.20676
6.03685
9.42641
8.38645
7.5074
6.88481
6.46194
6.16836
5.96314
5.82084
5.71382
5.64229
8.56198
8.53744
8.5107
8.48641
8.46534
8.44782
8.43336
8.42167
8.41219
8.40453
7.87435
7.87461
7.87503
7.8756
7.87625
7.87688
7.87747
7.87816
7.87932
7.88091
5.06296
5.06119
5.05922
5.05687
5.05424
5.05148
5.04889
5.04683
5.04609
5.047
5.23563
5.22717
5.21543
5.20229
5.18989
5.17938
5.17106
5.16392
5.15498
5.14623
5.69442
5.65146
5.59145
5.52541
5.46179
5.40433
5.35414
5.3111
5.27462
5.24774
6.28733
6.18742
6.05374
5.91587
5.79087
5.68442
5.59689
5.52647
5.4647
5.41642
7.22116
6.98854
6.69981
6.41675
6.17135
5.97027
5.81045
5.68575
5.58659
5.51564
8.22912
7.8368
7.36144
6.91982
6.5543
6.26683
6.04674
5.88214
5.74897
5.65086
8.98519
8.36916
7.69633
7.11405
6.66036
6.32046
6.07148
5.89051
5.75608
5.66116
7.18619
6.82364
6.46924
6.18829
5.97538
5.81564
5.69603
5.60962
5.54126
5.49571
8.33714
8.32378
8.30742
8.29096
8.27566
8.2622
8.25064
8.24097
8.23294
8.22655
7.70635
7.70653
7.7068
7.70718
7.70761
7.70801
7.70835
7.70879
7.70968
7.71102
5.01329
5.01254
5.0118
5.01096
5.00997
5.00886
5.00781
5.00712
5.00735
5.0086
5.02002
5.01895
5.01783
5.01664
5.01585
5.01578
5.01646
5.01712
5.0156
5.01306
5.20582
5.19451
5.17768
5.15773
5.13713
5.11729
5.09886
5.08212
5.06736
5.05657
5.46129
5.43458
5.39597
5.35329
5.31201
5.27473
5.24247
5.21527
5.18907
5.16741
5.89254
5.818
5.72106
5.61963
5.52588
5.44424
5.37553
5.31907
5.27213
5.23842
6.38046
6.25272
6.0841
5.91753
5.77049
5.64772
5.54824
5.47018
5.40261
5.35086
6.80419
6.58129
6.32455
6.08767
5.89039
5.73348
5.61195
5.51944
5.44803
5.39725
6.17816
6.04688
5.90095
5.77169
5.664
5.57727
5.50821
5.45649
5.41339
5.38503
8.11413
8.10662
8.09655
8.08558