/*--------------------------------*- C++ -*----------------------------------*\
| =========                 |                                                 |
| \\      /  F ield         | foam-extend: Open Source CFD                    |
|  \\    /   O peration     | Version:     4.0                                |
|   \\  /    A nd           | Web:         http://www.foam-extend.org         |
|    \\/     M anipulation  |                                                 |
\*---------------------------------------------------------------------------*/
FoamFile
{
    version     2.0;
    format      ascii;
    class       volScalarField;
    location    "2400";
    object      MaU;
}
// * * * * * * * * * * * * * * * * * * * * * * * * * * * * * * * * * * * * * //

dimensions      [0 0 0 0 0 0 0];

internalField   nonuniform List<scalar> 
34480
(
0.623811
0.624807
0.625342
0.625455
0.625149
0.624349
0.622916
0.620169
0.614072
0.608275
0.627233
0.628059
0.62852
0.628551
0.627992
0.626697
0.624691
0.621726
0.614707
0.609151
0.62942
0.630178
0.63055
0.630457
0.629721
0.628372
0.626597
0.624301
0.617264
0.612143
0.629416
0.630195
0.630636
0.630674
0.630162
0.629217
0.627941
0.62636
0.61971
0.615063
0.629878
0.630761
0.631343
0.6316
0.631411
0.630944
0.630215
0.629404
0.623539
0.619377
0.629475
0.630417
0.631082
0.63147
0.631518
0.631456
0.631262
0.631274
0.626592
0.623249
0.629681
0.630764
0.631537
0.632065
0.632323
0.632603
0.632904
0.633734
0.630499
0.627958
0.629092
0.630217
0.630946
0.631359
0.631502
0.631736
0.63219
0.633559
0.63184
0.630486
0.628842
0.630124
0.630968
0.631515
0.631835
0.632229
0.632932
0.634797
0.63435
0.632903
0.62504
0.626064
0.626102
0.625224
0.623603
0.621617
0.619716
0.619171
0.61837
0.619155
0.613911
0.615373
0.615946
0.615697
0.614553
0.612237
0.608122
0.600852
0.590141
0.576284
0.618527
0.619836
0.62036
0.620098
0.618855
0.616259
0.611717
0.603869
0.591209
0.57505
0.621599
0.622822
0.623294
0.622998
0.621682
0.61904
0.614568
0.606882
0.593377
0.576039
0.622408
0.623643
0.624181
0.624019
0.62291
0.620612
0.616539
0.609281
0.595386
0.577627
0.623552
0.624862
0.625517
0.625562
0.624753
0.622907
0.619356
0.612741
0.598941
0.581337
0.62369
0.625043
0.625778
0.625958
0.625385
0.623955
0.620949
0.615122
0.601871
0.585057
0.624344
0.625805
0.626635
0.62696
0.626604
0.625546
0.623076
0.618104
0.60578
0.590039
0.624077
0.625567
0.626366
0.626608
0.626197
0.625202
0.623024
0.618768
0.607633
0.593581
0.624075
0.625672
0.626562
0.626918
0.626687
0.625925
0.624139
0.62063
0.610754
0.597502
0.620464
0.621878
0.622211
0.621548
0.619945
0.61755
0.614091
0.609283
0.599881
0.589752
0.606282
0.607849
0.608413
0.608093
0.606851
0.604531
0.600836
0.595268
0.587195
0.577005
0.611183
0.612717
0.613274
0.612897
0.611465
0.608715
0.604139
0.596881
0.585491
0.570334
0.614528
0.616061
0.616613
0.616232
0.614736
0.611806
0.606823
0.598658
0.58464
0.564819
0.615831
0.617426
0.618055
0.617788
0.61642
0.61363
0.608641
0.60005
0.58388
0.559953
0.617453
0.619137
0.619876
0.619789
0.618652
0.616169
0.611418
0.602808
0.585138
0.557922
0.61801
0.61975
0.620574
0.62062
0.619685
0.617524
0.613117
0.604785
0.586228
0.556643
0.619027
0.620861
0.621776
0.621967
0.621233
0.619398
0.615399
0.607543
0.588674
0.557423
0.619061
0.62092
0.621819
0.621955
0.621195
0.619446
0.615719
0.608391
0.589735
0.557642
0.619317
0.621241
0.62221
0.622436
0.621806
0.620251
0.616885
0.610221
0.592209
0.558715
0.615948
0.617702
0.618259
0.617726
0.616086
0.613342
0.608829
0.601395
0.583939
0.55086
0.600721
0.602096
0.602567
0.602259
0.601168
0.599235
0.596365
0.592461
0.587501
0.581971
0.605357
0.606822
0.607332
0.606922
0.605522
0.602985
0.599061
0.593407
0.585581
0.576656
0.608551
0.610135
0.61068
0.610239
0.608688
0.605798
0.601145
0.594102
0.583508
0.570572
0.610052
0.611774
0.612408
0.612032
0.610486
0.607497
0.602448
0.594402
0.581149
0.563936
0.611942
0.613791
0.614529
0.614287
0.612864
0.609977
0.604819
0.596183
0.580678
0.559467
0.612789
0.614722
0.615546
0.615413
0.61412
0.611399
0.606297
0.597402
0.580102
0.555413
0.614079
0.616108
0.617015
0.61701
0.615873
0.613373
0.608454
0.599559
0.580979
0.553345
0.61437
0.616425
0.617327
0.617286
0.616129
0.61368
0.608894
0.60017
0.580898
0.551005
0.614849
0.61694
0.617895
0.617928
0.616877
0.614565
0.609967
0.601576
0.582278
0.549848
0.611728
0.613665
0.614331
0.613824
0.612068
0.608942
0.603578
0.594582
0.575477
0.541846
0.596859
0.597941
0.598302
0.598065
0.59725
0.595866
0.59393
0.591509
0.588756
0.586037
0.600938
0.602179
0.60261
0.602254
0.601079
0.599033
0.596048
0.592101
0.587253
0.582468
0.603679
0.605152
0.605657
0.605238
0.603822
0.601284
0.597415
0.591996
0.584751
0.57713
0.60511
0.606804
0.607415
0.607012
0.605483
0.602641
0.598099
0.5914
0.581616
0.570567
0.60704
0.60892
0.609638
0.609318
0.6078
0.604856
0.599906
0.592243
0.580066
0.56543
0.608016
0.610024
0.610835
0.610592
0.609118
0.606168
0.600991
0.59266
0.578338
0.560218
0.609454
0.611581
0.612474
0.612335
0.610954
0.608092
0.602854
0.594121
0.578016
0.556635
0.609921
0.612089
0.612991
0.612826
0.611418
0.608548
0.603269
0.594349
0.576972
0.552746
0.610573
0.612766
0.613709
0.613602
0.61227
0.609487
0.604262
0.59531
0.577301
0.550001
0.60768
0.609732
0.610478
0.609993
0.608173
0.604828
0.599079
0.589603
0.571369
0.541988
0.594216
0.59502
0.595278
0.595115
0.594562
0.593651
0.592431
0.590996
0.58948
0.588029
0.597699
0.598656
0.598993
0.598716
0.597819
0.596306
0.594199
0.591596
0.588701
0.586123
0.599869
0.601121
0.601554
0.601197
0.600012
0.597956
0.594974
0.591083
0.586396
0.58197
0.601061
0.602597
0.603149
0.602767
0.601383
0.598896
0.595123
0.589941
0.583159
0.576321
0.602856
0.604632
0.605298
0.604953
0.60348
0.600731
0.596358
0.59006
0.581136
0.571552
0.603819
0.605773
0.60654
0.606236
0.604723
0.601813
0.596998
0.58979
0.578785
0.566315
0.605292
0.607399
0.60825
0.608021
0.60653
0.603575
0.598487
0.590595
0.577707
0.562329
0.605848
0.60802
0.608895
0.608643
0.607104
0.604067
0.598777
0.590415
0.57602
0.557899
0.606617
0.608821
0.609729
0.60952
0.608022
0.605012
0.599655
0.590995
0.575622
0.554507
0.603917
0.605995
0.606776
0.606306
0.604475
0.601072
0.595327
0.586171
0.570296
0.546968
0.5924
0.592988
0.593164
0.593062
0.592711
0.592149
0.591418
0.590597
0.589766
0.588935
0.595365
0.596054
0.596302
0.596104
0.595468
0.594419
0.593014
0.591368
0.589668
0.588271
0.596967
0.597958
0.598307
0.598026
0.597103
0.595543
0.593372
0.590701
0.587752
0.58519
0.597848
0.599149
0.599622
0.599293
0.598126
0.59609
0.593137
0.589323
0.584788
0.580595
0.599393
0.600972
0.601561
0.601232
0.599908
0.597512
0.593883
0.588975
0.582698
0.576531
0.600238
0.602036
0.602732
0.602412
0.600978
0.598308
0.594112
0.588217
0.580133
0.571763
0.601652
0.603639
0.604424
0.604148
0.60267
0.599841
0.595226
0.588503
0.578678
0.567964
0.602213
0.604293
0.605115
0.604813
0.603259
0.600279
0.595339
0.587974
0.576657
0.563614
0.603048
0.605175
0.606029
0.605756
0.604208
0.601194
0.596089
0.588268
0.575864
0.560275
0.6005
0.602518
0.603296
0.602846
0.601068
0.597767
0.592345
0.584043
0.570997
0.55348
0.591122
0.591558
0.591677
0.591618
0.591406
0.591073
0.590649
0.590186
0.589721
0.58919
0.593689
0.59416
0.594332
0.5942
0.593773
0.593082
0.592183
0.59117
0.590178
0.589404
0.594793
0.595532
0.595797
0.595591
0.594912
0.593789
0.592278
0.590503
0.588671
0.587177
0.595365
0.596406
0.596789
0.596525
0.5956
0.59402
0.591816
0.589111
0.586135
0.58357
0.596606
0.597937
0.598434
0.598146
0.597027
0.595054
0.592189
0.588517
0.58421
0.580275
0.597269
0.598842
0.599449
0.599146
0.597869
0.59556
0.59209
0.587475
0.58171
0.576168
0.598563
0.600352
0.60105
0.600765
0.599393
0.596846
0.592881
0.587413
0.580172
0.572843
0.599055
0.600961
0.601708
0.601391
0.599917
0.597164
0.592802
0.58663
0.578061
0.568898
0.599915
0.601891
0.602669
0.602369
0.600869
0.598028
0.593431
0.586735
0.577126
0.565987
0.597476
0.599359
0.6001
0.599679
0.598015
0.594953
0.590076
0.582923
0.572652
0.56002
0.590189
0.590528
0.590609
0.590577
0.590453
0.590261
0.59002
0.589761
0.589494
0.589116
0.592474
0.592783
0.592899
0.592815
0.592541
0.592102
0.591545
0.590934
0.590356
0.58992
0.593171
0.593696
0.593888
0.593744
0.593269
0.592494
0.59148
0.590333
0.589206
0.588328
0.593484
0.594276
0.594574
0.594374
0.593675
0.592505
0.590923
0.589061
0.587132
0.58556
0.594416
0.595484
0.595886
0.59565
0.594752
0.593203
0.591034
0.588377
0.585471
0.582971
0.594873
0.596187
0.596695
0.596428
0.595351
0.59345
0.590704
0.587219
0.583192
0.579557
0.596014
0.597557
0.598157
0.597888
0.596683
0.594504
0.59125
0.586973
0.581764
0.576819
0.59638
0.598058
0.598712
0.598407
0.597081
0.594664
0.590989
0.58603
0.57972
0.573403
0.597241
0.599008
0.599696
0.599398
0.59802
0.595476
0.591527
0.586042
0.578828
0.571066
0.594873
0.596562
0.597238
0.596857
0.595357
0.592632
0.588431
0.582528
0.574711
0.565883
0.589482
0.589759
0.589816
0.5898
0.589729
0.589621
0.589485
0.58934
0.589181
0.588883
0.591577
0.591774
0.59185
0.591799
0.591629
0.591359
0.591021
0.590657
0.590319
0.590068
0.591955
0.592312
0.592445
0.592349
0.592029
0.591514
0.590854
0.590128
0.58944
0.588922
0.59208
0.592659
0.592881
0.592737
0.592231
0.591397
0.590298
0.589047
0.58781
0.586844
0.592726
0.593548
0.59386
0.593677
0.592987
0.591821
0.590236
0.588367
0.586434
0.58485
0.592984
0.594036
0.594445
0.594224
0.593357
0.591858
0.589765
0.587215
0.584449
0.582081
0.593968
0.595247
0.595743
0.595509
0.5945
0.592717
0.590149
0.586915
0.583241
0.579941
0.59417
0.595588
0.596141
0.595867
0.594728
0.5927
0.589727
0.585885
0.581347
0.577062
0.595024
0.596546
0.597134
0.59686
0.595653
0.593477
0.590222
0.585898
0.580621
0.575323
0.592696
0.594151
0.594744
0.59441
0.593108
0.590779
0.587298
0.582609
0.576828
0.570819
0.588927
0.589165
0.589207
0.5892
0.58916
0.589099
0.589023
0.588941
0.588841
0.58859
0.590899
0.591023
0.591074
0.591044
0.590941
0.590778
0.590576
0.590361
0.590162
0.590012
0.591027
0.591262
0.59135
0.591289
0.59108
0.590748
0.59033
0.589879
0.589463
0.589157
0.591044
0.591452
0.591612
0.591512
0.59116
0.590586
0.589843
0.589019
0.588232
0.587637
0.591442
0.59205
0.592282
0.592146
0.591638
0.590791
0.589669
0.588387
0.587118
0.586117
0.591526
0.592336
0.592653
0.592479
0.591809
0.590673
0.589129
0.587315
0.585443
0.583911
0.59237
0.593391
0.593787
0.593593
0.592785
0.591384
0.589429
0.587055
0.584509
0.582329
0.592384
0.593535
0.593986
0.593752
0.592816
0.591183
0.588865
0.585986
0.582789
0.579924
0.593242
0.594506
0.594991
0.594753
0.593742
0.591957
0.589374
0.586078
0.582306
0.578752
0.590926
0.592131
0.592632
0.59235
0.591261
0.589345
0.586565
0.582968
0.578801
0.574803
0.588481
0.588693
0.588724
0.588723
0.5887
0.588666
0.588623
0.588576
0.58851
0.588288
0.590379
0.590458
0.590492
0.590475
0.590414
0.590317
0.590197
0.59007
0.58995
0.589857
0.590301
0.590451
0.590507
0.590468
0.590336
0.590128
0.589868
0.589593
0.589345
0.589164
0.590286
0.590565
0.590677
0.590611
0.590374
0.589989
0.589499
0.588966
0.588468
0.588101
0.590474
0.590908
0.591074
0.590977
0.590615
0.590021
0.589249
0.588389
0.587566
0.586938
0.590422
0.591022
0.591259
0.591128
0.59063
0.589799
0.588695
0.587436
0.586188
0.585204
0.591155
0.59194
0.592246
0.592094
0.591472
0.590411
0.588971
0.587276
0.58554
0.584112
0.590967
0.591866
0.59222
0.59203
0.591291
0.590026
0.58828
0.586186
0.583977
0.58209
0.591855
0.592868
0.593255
0.593059
0.592247
0.590838
0.58886
0.586426
0.583785
0.581436
0.589531
0.590487
0.590895
0.590665
0.589789
0.588271
0.586126
0.583455
0.580522
0.577919
0.588116
0.588309
0.588333
0.588334
0.588321
0.588302
0.588278
0.588251
0.588205
0.588004
0.589979
0.590031
0.590055
0.590046
0.59001
0.589953
0.589882
0.589806
0.58973
0.589668
0.589714
0.589806
0.58984
0.589815
0.589734
0.589606
0.589449
0.589285
0.589139
0.589034
0.589736
0.589923
0.59
0.589958
0.589803
0.589552
0.589235
0.588895
0.588582
0.588354
0.589748
0.590046
0.590162
0.590094
0.589845
0.58944
0.588923
0.588359
0.587834
0.587442
0.5896
0.590029
0.590201
0.590106
0.589749
0.58916
0.588393
0.58754
0.586719
0.586093
0.590255
0.590839
0.591066
0.590953
0.590492
0.589717
0.588688
0.587509
0.586345
0.585417
0.589856
0.590531
0.590798
0.590651
0.59009
0.589145
0.587871
0.586393
0.584896
0.58367
0.590816
0.5916
0.591897
0.591745
0.591117
0.590047
0.588583
0.586838
0.585027
0.583493
0.588461
0.589188
0.589508
0.589328
0.588648
0.587489
0.58589
0.583968
0.581949
0.580292
0.587815
0.587991
0.588009
0.588011
0.588004
0.587993
0.587979
0.587963
0.58793
0.587747
0.589682
0.589718
0.589736
0.589732
0.58971
0.589676
0.589634
0.589586
0.589536
0.589489
0.58922
0.589273
0.589292
0.589277
0.589227
0.589151
0.589058
0.588963
0.58888
0.588821
0.589344
0.589467
0.589519
0.589495
0.589396
0.589235
0.589034
0.58882
0.588624
0.588481
0.589204
0.589403
0.58948
0.589434
0.589268
0.589
0.588662
0.588301
0.58797
0.587729
0.588999
0.589296
0.589416
0.58935
0.589103
0.588698
0.58818
0.587614
0.587082
0.586688
0.589606
0.590025
0.590189
0.590108
0.589778
0.589231
0.588518
0.587719
0.586953
0.586354
0.588987
0.589474
0.589669
0.589559
0.589148
0.588467
0.587567
0.586552
0.585557
0.584775
0.590075
0.590663
0.590883
0.590769
0.590303
0.58952
0.588471
0.587256
0.58604
0.585047
0.587659
0.588188
0.58843
0.588294
0.587787
0.586933
0.58578
0.584439
0.58308
0.58205
0.587555
0.587716
0.587728
0.587731
0.587727
0.587722
0.587714
0.587704
0.58768
0.587514
0.58948
0.589508
0.589522
0.589521
0.589508
0.589487
0.58946
0.589429
0.589392
0.589352
0.588786
0.588815
0.588823
0.588813
0.588783
0.588738
0.588686
0.588633
0.588589
0.588559
0.589074
0.589154
0.589189
0.589175
0.589114
0.589014
0.588888
0.588754
0.588632
0.588541
0.588801
0.588928
0.588978
0.588948
0.58884
0.588668
0.588453
0.588226
0.588022
0.587877
0.588573
0.588772
0.588854
0.58881
0.588643
0.588374
0.588032
0.587666
0.587326
0.58708
0.589152
0.589443
0.589556
0.5895
0.589272
0.588899
0.58842
0.587893
0.587399
0.587016
0.5883
0.588638
0.588775
0.588696
0.588406
0.587931
0.587315
0.586637
0.585988
0.5855
0.589586
0.590013
0.59017
0.590089
0.589756
0.589203
0.588477
0.587654
0.586855
0.586218
0.587059
0.587426
0.587602
0.587504
0.587139
0.586532
0.585727
0.58482
0.583925
0.583305
0.587301
0.587444
0.587452
0.587454
0.587452
0.587449
0.587445
0.587439
0.587423
0.587276
0.589379
0.589404
0.589416
0.589417
0.589409
0.589395
0.589377
0.589354
0.589324
0.589283
0.588391
0.588403
0.588405
0.588397
0.588379
0.588354
0.588326
0.588299
0.588278
0.588268
0.5889
0.588952
0.588975
0.588967
0.58893
0.588869
0.588792
0.58871
0.588635
0.588575
0.588514
0.588593
0.588624
0.588605
0.588537
0.588429
0.588296
0.588156
0.588033
0.587948
0.588292
0.588423
0.588477
0.588449
0.588341
0.588166
0.587947
0.587713
0.587499
0.587347
0.588848
0.58904
0.589116
0.589077
0.588925
0.588679
0.588367
0.58803
0.587721
0.58748
0.587752
0.587977
0.588071
0.588017
0.58782
0.587499
0.587088
0.586647
0.58623
0.585935
0.589315
0.589616
0.589725
0.589669
0.58944
0.589063
0.588577
0.588035
0.587523
0.587114
0.586574
0.586816
0.586941
0.586872
0.586619
0.586204
0.585659
0.585064
0.584486
0.584128
0.586951
0.587073
0.587077
0.587079
0.587078
0.587077
0.587076
0.587073
0.587063
0.58694
0.589406
0.589431
0.589442
0.589443
0.589438
0.589429
0.589415
0.589396
0.589367
0.589322
0.588032
0.588035
0.588034
0.588028
0.588018
0.588004
0.587989
0.587977
0.587969
0.58797
0.588805
0.588838
0.588851
0.588846
0.588824
0.588787
0.588742
0.588693
0.588649
0.588611
0.588335
0.588383
0.588403
0.588392
0.58835
0.588284
0.588203
0.588118
0.588044
0.587994
0.588145
0.58823
0.588266
0.588248
0.58818
0.58807
0.587932
0.587786
0.587651
0.587557
0.588662
0.588783
0.58883
0.588803
0.588705
0.588548
0.588352
0.588143
0.587958
0.587812
0.587339
0.587486
0.58755
0.587515
0.587385
0.587174
0.586906
0.586623
0.586355
0.586183
0.589255
0.589461
0.589533
0.589495
0.589343
0.589096
0.58878
0.588434
0.588116
0.58785
0.586067
0.586219
0.586307
0.58626
0.586092
0.585816
0.585457
0.585078
0.584707
0.584515
0.586284
0.586379
0.586381
0.586382
0.586382
0.586383
0.586384
0.586384
0.586382
0.586286
0.589628
0.589654
0.589663
0.589664
0.58966
0.589653
0.589642
0.589627
0.589601
0.589547
0.587757
0.587758
0.58776
0.587759
0.587753
0.587745
0.587735
0.587726
0.58772
0.587724
0.588773
0.588789
0.588794
0.588789
0.588775
0.588754
0.588729
0.588704
0.588683
0.588662
0.588263
0.588293
0.588307
0.588302
0.588277
0.588236
0.588187
0.588135
0.588089
0.588058
0.588125
0.58818
0.588204
0.588194
0.588152
0.588083
0.587997
0.587906
0.587821
0.58776
0.588582
0.588652
0.588678
0.588659
0.588597
0.588499
0.588379
0.588255
0.58815
0.588068
0.587138
0.587237
0.587282
0.587262
0.587179
0.587043
0.586869
0.586686
0.586505
0.5864
0.589459
0.589593
0.589639
0.589612
0.589513
0.589355
0.589156
0.588942
0.588753
0.588579
0.58531
0.585403
0.585465
0.585435
0.585325
0.585145
0.584914
0.584674
0.584431
0.584338
0.584989
0.585054
0.585058
0.58506
0.585061
0.585062
0.585062
0.585061
0.58506
0.584993
0.590185
0.590202
0.590199
0.590194
0.590189
0.590185
0.590183
0.590179
0.590168
0.590118
0.587679
0.587692
0.587705
0.58771
0.587709
0.587703
0.587691
0.587676
0.587658
0.587647
0.588773
0.588776
0.588773
0.588767
0.588757
0.588746
0.588734
0.588724
0.58872
0.588716
0.58828
0.588302
0.588313
0.588311
0.588296
0.588271
0.588239
0.588205
0.588174
0.588151
0.588202
0.588239
0.588255
0.588249
0.588222
0.588178
0.588124
0.588065
0.58801
0.587968
0.588583
0.588621
0.588635
0.588621
0.58858
0.588518
0.588444
0.58837
0.588313
0.588274
0.587303
0.58738
0.587416
0.587405
0.587351
0.587261
0.587145
0.58702
0.586887
0.5868
0.590052
0.590127
0.590152
0.590131
0.590065
0.589962
0.589836
0.589708
0.589607
0.58951
0.584027
0.584091
0.584135
0.584115
0.584042
0.583923
0.583771
0.583614
0.583444
0.583398
0.583166
0.583207
0.583219
0.583227
0.583229
0.583227
0.583219
0.583207
0.58319
0.583135
0.59111
0.591082
0.591052
0.591033
0.591024
0.591025
0.591036
0.591059
0.591093
0.591103
0.587862
0.587899
0.587922
0.587934
0.587937
0.58793
0.587915
0.58789
0.587854
0.58781
0.588764
0.588755
0.588748
0.588741
0.588734
0.588727
0.588721
0.588719
0.588725
0.588738
0.588336
0.588354
0.588362
0.588361
0.588351
0.588333
0.58831
0.588285
0.588261
0.588241
0.588299
0.588325
0.588337
0.588333
0.588313
0.588282
0.588243
0.588201
0.588162
0.58813
0.588605
0.588627
0.588635
0.588625
0.588595
0.58855
0.588496
0.588445
0.58841
0.588396
0.587823
0.587894
0.587925
0.587919
0.587879
0.587813
0.587727
0.587631
0.587522
0.587423
0.59101
0.591038
0.59105
0.591031
0.59098
0.590904
0.590815
0.590731
0.590684
0.590683
0.582341
0.582398
0.582432
0.582417
0.582362
0.582273
0.582161
0.582045
0.581917
0.581876
0.439206
0.418454
0.42536
0.466318
0.391431
0.368192
0.379234
0.43647
0.348241
0.321094
0.338432
0.417356
0.31017
0.280773
0.305108
0.406435
0.278691
0.248626
0.280195
0.404022
0.251587
0.22207
0.261906
0.401215
0.22987
0.202226
0.250852
0.398579
0.209484
0.185368
0.242831
0.396485
0.191541
0.173519
0.239248
0.398116
0.172079
0.162209
0.234935
0.393619
0.499288
0.489089
0.489414
0.499129
0.468797
0.456182
0.457327
0.470005
0.437919
0.421199
0.423409
0.440982
0.408898
0.387931
0.391526
0.414247
0.384236
0.358771
0.364029
0.392096
0.362189
0.33184
0.337893
0.371222
0.344307
0.308971
0.314857
0.353283
0.327865
0.287729
0.293168
0.336585
0.314321
0.270152
0.275137
0.322948
0.298959
0.252366
0.254965
0.305306
0.566691
0.564475
0.563945
0.565078
0.548931
0.545235
0.54454
0.546841
0.528944
0.523049
0.522241
0.526577
0.506705
0.498437
0.497637
0.504472
0.485706
0.474984
0.474357
0.484092
0.46463
0.451323
0.450914
0.463659
0.445691
0.429718
0.429486
0.445177
0.427056
0.408536
0.408448
0.426906
0.410794
0.390594
0.390552
0.410933
0.391878
0.372165
0.371401
0.39131
0.579156
0.578073
0.577724
0.578074
0.569526
0.568115
0.567625
0.567988
0.557666
0.555182
0.554464
0.555365
0.542892
0.539102
0.538197
0.539922
0.528456
0.523216
0.522198
0.525053
0.512892
0.506077
0.505002
0.509249
0.498289
0.489827
0.488736
0.494575
0.482975
0.472943
0.471891
0.479401
0.468751
0.457774
0.45677
0.465581
0.450909
0.440979
0.439716
0.448066
0.586024
0.585434
0.585234
0.585422
0.580197
0.579716
0.579487
0.579496
0.572717
0.571777
0.571354
0.571426
0.562613
0.560978
0.560325
0.560593
0.552655
0.550151
0.549278
0.54991
0.54136
0.537845
0.536778
0.537957
0.530629
0.526016
0.524797
0.526709
0.518845
0.513156
0.511857
0.514647
0.507674
0.501332
0.50003
0.503604
0.492922
0.487721
0.486292
0.489313
0.588603
0.588127
0.587981
0.588166
0.585158
0.584947
0.584838
0.58483
0.580072
0.579652
0.579435
0.579418
0.572849
0.572087
0.57171
0.571703
0.565795
0.564563
0.563995
0.56405
0.557477
0.55565
0.554877
0.555074
0.549648
0.547133
0.546166
0.546615
0.540751
0.537528
0.536421
0.53724
0.532327
0.528656
0.527511
0.528738
0.520415
0.517864
0.516642
0.517201
0.589728
0.589296
0.589173
0.58936
0.587847
0.587754
0.587703
0.587694
0.58431
0.584115
0.584008
0.583988
0.57894
0.57857
0.578368
0.578332
0.573737
0.573116
0.572787
0.572739
0.567386
0.566429
0.565943
0.565903
0.561544
0.560177
0.559524
0.559535
0.554745
0.552938
0.552144
0.552276
0.548585
0.546467
0.545614
0.545935
0.53891
0.537908
0.537008
0.536567
0.590059
0.589643
0.589528
0.589717
0.589189
0.589142
0.589115
0.58911
0.586728
0.58663
0.586575
0.586564
0.582711
0.58252
0.582411
0.582384
0.578813
0.578483
0.578298
0.578253
0.573852
0.573331
0.573043
0.572978
0.569414
0.568654
0.568246
0.568173
0.564136
0.563113
0.562594
0.562545
0.559726
0.5585
0.557916
0.557935
0.551683
0.55159
0.550993
0.550211
0.590014
0.589603
0.589492
0.589682
0.589805
0.589779
0.589764
0.58976
0.588086
0.588035
0.588006
0.587999
0.585089
0.584985
0.584924
0.584907
0.582167
0.581987
0.581881
0.58185
0.578275
0.577984
0.577815
0.577764
0.57491
0.574478
0.57423
0.574162
0.570765
0.570177
0.569853
0.56978
0.56762
0.566905
0.566526
0.566469
0.5608
0.561228
0.560863
0.560008
0.589788
0.589378
0.589269
0.58946
0.590002
0.589986
0.589977
0.589974
0.588786
0.588758
0.588742
0.588738
0.58657
0.58651
0.586475
0.586464
0.584386
0.584283
0.584222
0.584202
0.58134
0.581172
0.581071
0.581038
0.578836
0.578584
0.578433
0.578384
0.575554
0.575211
0.575012
0.574953
0.573348
0.572926
0.572687
0.572628
0.567471
0.568183
0.567976
0.56714
0.589489
0.589078
0.588969
0.589161
0.589972
0.589961
0.589955
0.589952
0.589078
0.589063
0.589054
0.589051
0.587471
0.587435
0.587413
0.587406
0.58584
0.585779
0.585743
0.58573
0.583467
0.583368
0.583307
0.583284
0.581662
0.581511
0.581418
0.581385
0.579036
0.578832
0.578709
0.578668
0.577568
0.577313
0.577165
0.577121
0.572422
0.573275
0.573167
0.57238
0.589173
0.58876
0.588651
0.588845
0.589829
0.589822
0.589816
0.589814
0.58912
0.589112
0.589107
0.589105
0.587996
0.587974
0.58796
0.587955
0.586769
0.586733
0.586711
0.586703
0.584931
0.58487
0.584833
0.584818
0.583697
0.583603
0.583545
0.583524
0.581554
0.58143
0.581354
0.581327
0.580693
0.580537
0.580445
0.580416
0.576114
0.577021
0.576971
0.576239
0.588868
0.588453
0.588344
0.588539
0.589646
0.58964
0.589635
0.589632
0.58901
0.589006
0.589004
0.589004
0.588286
0.588272
0.588262
0.588259
0.587339
0.587318
0.587305
0.5873
0.585923
0.585885
0.585862
0.585852
0.585151
0.585092
0.585056
0.585042
0.583343
0.583268
0.583221
0.583203
0.583006
0.582908
0.582851
0.582834
0.57886
0.579765
0.579749
0.579074
0.588585
0.588166
0.588058
0.588257
0.589469
0.589463
0.589458
0.589455
0.588811
0.58881
0.588809
0.588809
0.588435
0.588425
0.588418
0.588415
0.587667
0.587655
0.587648
0.587645
0.586581
0.586558
0.586543
0.586537
0.586182
0.586144
0.586121
0.586113
0.584577
0.584531
0.584502
0.58449
0.584714
0.584651
0.584616
0.584608
0.580884
0.58175
0.581751
0.581137
0.588319
0.587897
0.587792
0.587993
0.58933
0.589323
0.589318
0.589314
0.588558
0.588558
0.588559
0.58856
0.588508
0.588501
0.588496
0.588494
0.587841
0.587835
0.587831
0.587829
0.587013
0.586998
0.586989
0.586984
0.586904
0.58688
0.586866
0.586861
0.585383
0.585355
0.585337
0.585329
0.585978
0.585936
0.585914
0.585913
0.582348
0.583145
0.583154
0.582606
0.588037
0.587615
0.587514
0.58772
0.589257
0.589249
0.589242
0.589238
0.588273
0.588275
0.588276
0.588278
0.588552
0.588547
0.588543
0.588541
0.587927
0.587924
0.587922
0.587921
0.587304
0.587294
0.587287
0.587285
0.587409
0.587395
0.587387
0.587384
0.585868
0.585851
0.585839
0.585834
0.586932
0.586902
0.586889
0.586893
0.583352
0.584057
0.584067
0.583593
0.587644
0.587226
0.587133
0.587344
0.589287
0.589277
0.58927
0.589265
0.587979
0.587982
0.587984
0.587985
0.588596
0.588593
0.58859
0.58859
0.587982
0.58798
0.587979
0.587978
0.587526
0.587519
0.587514
0.587512
0.587772
0.587765
0.587762
0.587761
0.586141
0.586129
0.586121
0.586117
0.587705
0.587682
0.587675
0.587683
0.583907
0.584499
0.584508
0.584114
0.586913
0.586512
0.586433
0.586644
0.589501
0.589488
0.589479
0.589475
0.58773
0.587732
0.587733
0.587733
0.588656
0.588655
0.588655
0.588655
0.588047
0.588046
0.588044
0.588044
0.587734
0.587728
0.587724
0.587723
0.588054
0.588054
0.588054
0.588054
0.586356
0.586343
0.586336
0.586333
0.588459
0.58844
0.588436
0.588449
0.583893
0.584349
0.584353
0.58405
0.5855
0.585146
0.585091
0.585286
0.590061
0.590045
0.590038
0.590038
0.587632
0.587629
0.587625
0.587622
0.588724
0.588726
0.588728
0.58873
0.588138
0.588136
0.588134
0.588133
0.587943
0.587937
0.587934
0.587934
0.588285
0.588289
0.588291
0.588291
0.586712
0.586691
0.586682
0.586684
0.589434
0.589421
0.589421
0.589436
0.58308
0.583369
0.583367
0.583173
0.58343
0.58321
0.583184
0.583308
0.591077
0.591072
0.591076
0.591089
0.587748
0.587735
0.587725
0.587719
0.588763
0.588769
0.588773
0.588776
0.588225
0.588222
0.58822
0.588219
0.588106
0.588101
0.588099
0.588099
0.588428
0.588436
0.588438
0.588437
0.587259
0.587222
0.587211
0.587223
0.590754
0.590766
0.590772
0.590776
0.581599
0.581672
0.581668
0.581624
0.595282
0.603739
0.607741
0.610844
0.613969
0.616726
0.618964
0.620712
0.622078
0.623224
0.596213
0.599549
0.606972
0.612021
0.616487
0.619874
0.622339
0.624103
0.625348
0.62629
0.600072
0.59643
0.607414
0.61313
0.618413
0.622011
0.624579
0.626402
0.627655
0.628546
0.603486
0.592555
0.607169
0.612742
0.618602
0.622152
0.624708
0.626486
0.627702
0.628566
0.607977
0.590543
0.607916
0.613215
0.61952
0.62292
0.625447
0.627142
0.628269
0.629053
0.611063
0.587886
0.607656
0.612482
0.619239
0.622454
0.624995
0.626641
0.627774
0.628598
0.615063
0.586622
0.608479
0.612589
0.61975
0.622702
0.625259
0.626848
0.627954
0.628754
0.616631
0.58357
0.607484
0.610825
0.618495
0.621248
0.623967
0.62564
0.626946
0.627983
0.618294
0.582085
0.607932
0.609939
0.617752
0.620038
0.622986
0.624807
0.626315
0.627544
0.602748
0.566219
0.594711
0.597064
0.60675
0.610619
0.615266
0.618379
0.62094
0.622961
0.537862
0.55993
0.576277
0.587904
0.595868
0.601412
0.605419
0.60841
0.610719
0.612638
0.524151
0.554697
0.576783
0.590732
0.599585
0.605576
0.609819
0.612895
0.615138
0.6168
0.513886
0.551566
0.577888
0.592906
0.60236
0.608623
0.613012
0.616155
0.618391
0.619986
0.505499
0.548534
0.578061
0.593401
0.603259
0.6096
0.613998
0.617104
0.619295
0.620847
0.50104
0.547716
0.579325
0.594716
0.604864
0.611156
0.615497
0.618504
0.620593
0.622056
0.497843
0.546643
0.579738
0.594893
0.605282
0.611453
0.615736
0.618658
0.620707
0.622172
0.497445
0.547073
0.581242
0.595872
0.606424
0.612373
0.616581
0.619404
0.621393
0.622819
0.496649
0.546125
0.581195
0.595127
0.605872
0.611605
0.61584
0.618682
0.620793
0.622391
0.497139
0.546445
0.582373
0.595048
0.605589
0.610851
0.615181
0.618142
0.620421
0.622205
0.488055
0.536409
0.573088
0.585277
0.596838
0.603119
0.608641
0.612531
0.615573
0.617841
0.56898
0.575254
0.581331
0.586707
0.591292
0.595125
0.598299
0.60092
0.603113
0.605004
0.555744
0.567137
0.577324
0.58565
0.592318
0.597567
0.601662
0.604844
0.607306
0.609181
0.542658
0.559834
0.574203
0.585092
0.593403
0.599654
0.604362
0.607911
0.610565
0.612511
0.529502
0.552409
0.570763
0.583759
0.593342
0.600255
0.605315
0.609047
0.611797
0.613786
0.519577
0.547553
0.569338
0.583917
0.594419
0.601716
0.606946
0.610724
0.613471
0.615434
0.510732
0.543022
0.567747
0.583451
0.594627
0.602128
0.607437
0.611219
0.61397
0.615955
0.504704
0.540497
0.567676
0.584064
0.595695
0.603231
0.608543
0.612282
0.615004
0.616968
0.499012
0.537462
0.566706
0.583408
0.595356
0.602842
0.608184
0.611949
0.614764
0.616862
0.495303
0.536122
0.567101
0.58347
0.595305
0.602507
0.607907
0.611772
0.614718
0.616965
0.485212
0.527229
0.559416
0.575727
0.588262
0.596188
0.602405
0.606933
0.610412
0.612936
0.578794
0.581202
0.584107
0.587055
0.589833
0.592346
0.594567
0.596509
0.598223
0.599783
0.570021
0.574786
0.580201
0.585344
0.58988
0.59374
0.596961
0.599616
0.601772
0.603476
0.5595
0.567578
0.575989
0.583412
0.589634
0.594703
0.598777
0.602017
0.604552
0.606482
0.547184
0.559287
0.571031
0.580715
0.58847
0.594535
0.599257
0.602915
0.605725
0.607827
0.536491
0.552886
0.567914
0.579604
0.588639
0.595451
0.600613
0.604522
0.607478
0.609656
0.525874
0.546578
0.564728
0.578123
0.588203
0.59556
0.601025
0.605096
0.608157
0.610416
0.517341
0.54217
0.563169
0.577913
0.588796
0.596497
0.602142
0.606289
0.609397
0.61168
0.508965
0.537552
0.561093
0.576822
0.5883
0.596201
0.601983
0.606222
0.609436
0.611839
0.50245
0.534667
0.560408
0.576541
0.58822
0.596102
0.601996
0.606343
0.609664
0.612187
0.49155
0.526364
0.553555
0.570076
0.582395
0.590842
0.597311
0.602129
0.60582
0.608469
0.585288
0.586049
0.587213
0.588579
0.590014
0.591431
0.592777
0.59403
0.59521
0.596363
0.579955
0.581811
0.584329
0.587052
0.589723
0.592205
0.594432
0.596378
0.598034
0.599391
0.572418
0.57582
0.580129
0.584517
0.588608
0.592235
0.59535
0.597963
0.600103
0.601797
0.562601
0.568213
0.574781
0.581039
0.586591
0.591306
0.595217
0.598405
0.600959
0.602943
0.55348
0.561769
0.570828
0.578963
0.585878
0.59153
0.596076
0.59969
0.602534
0.604702
0.543683
0.554976
0.566633
0.576552
0.584692
0.591123
0.596172
0.600111
0.603181
0.605513
0.535233
0.549712
0.563942
0.575455
0.584632
0.591663
0.59708
0.601238
0.604453
0.606873
0.526538
0.544229
0.560906
0.573753
0.583764
0.591234
0.596931
0.601276
0.604643