/*--------------------------------*- C++ -*----------------------------------*\
| =========                 |                                                 |
| \\      /  F ield         | foam-extend: Open Source CFD                    |
|  \\    /   O peration     | Version:     4.0                                |
|   \\  /    A nd           | Web:         http://www.foam-extend.org         |
|    \\/     M anipulation  |                                                 |
\*---------------------------------------------------------------------------*/
FoamFile
{
    version     2.0;
    format      ascii;
    class       surfaceScalarField;
    location    "2400";
    object      phi;
}
// * * * * * * * * * * * * * * * * * * * * * * * * * * * * * * * * * * * * * //

dimensions      [1 0 -1 0 0 0 0];

internalField   nonuniform List<scalar> 
97302
(
-0.000109786
9.51562e-07
-0.000869497
0.000878773
-0.0001196
1.14089e-06
-0.0008705
0.000879174
-0.000129523
1.20001e-06
-0.000871025
0.000879748
-0.000140125
1.13804e-06
-0.000871064
0.000880528
-0.000152232
9.45938e-07
-0.000870612
0.000881774
-0.000167325
6.13573e-07
-0.000869445
0.000883925
-0.000188496
1.14465e-07
-0.000866958
0.000888014
-0.000222747
-5.95691e-07
-0.000861331
0.000896178
-0.000271325
-1.63927e-06
-0.000851543
0.00090176
-4.39615e-06
-0.000824043
-0.000352996
0.00091011
-0.000150901
1.6029e-06
-0.00116596
0.00117606
-0.000161173
1.96516e-06
-0.00116691
0.00117636
-0.000171518
2.0837e-06
-0.0011675
0.00117697
-0.000182473
1.99174e-06
-0.00116753
0.00117763
-0.000194834
1.67429e-06
-0.00116673
0.00117836
-0.000210314
1.12008e-06
-0.00116472
0.0011797
-0.000232766
2.71521e-07
-0.00116113
0.00118342
-0.000271568
-9.66552e-07
-0.00115433
0.00119351
-0.00032835
-2.8971e-06
-0.00114203
0.00120007
-7.45994e-06
-0.00110414
-0.000432769
0.00121162
-0.000191208
1.89625e-06
-0.00146133
0.00147218
-0.000201778
2.39243e-06
-0.00146234
0.00147248
-0.000212297
2.57397e-06
-0.00146296
0.00147299
-0.000223274
2.49755e-06
-0.00146276
0.00147323
-0.000235634
2.14508e-06
-0.00146141
0.0014733
-0.000251511
1.50595e-06
-0.00145874
0.00147423
-0.000275388
5.00941e-07
-0.00145486
0.00147851
-0.000318359
-9.68386e-07
-0.00144829
0.00149126
-0.000381693
-3.35379e-06
-0.00143513
0.00149892
-9.13538e-06
-0.00138641
-0.000500692
0.00150709
-0.000231437
2.08566e-06
-0.00175271
0.00176398
-0.0002423
2.72157e-06
-0.00175394
0.00176448
-0.000253115
2.98187e-06
-0.00175482
0.00176522
-0.000264406
2.94632e-06
-0.00175482
0.00176566
-0.000277164
2.58619e-06
-0.00175364
0.00176596
-0.000293712
1.89268e-06
-0.00175121
0.00176737
-0.000318864
7.63504e-07
-0.00174765
0.00177253
-0.00036497
-8.92939e-07
-0.00174142
0.00178745
-0.000432991
-3.68029e-06
-0.00172781
0.00179616
-1.06295e-05
-0.00166796
-0.000560755
0.00179722
-0.000271568
2.31831e-06
-0.00204524
0.00205669
-0.000282602
3.02355e-06
-0.00204685
0.00205758
-0.000293585
3.32163e-06
-0.00204823
0.00205887
-0.000305071
3.30234e-06
-0.0020487
0.00205983
-0.000318118
2.93471e-06
-0.00204805
0.00206075
-0.000335168
2.20962e-06
-0.00204624
0.00206298
-0.000361326
1.01049e-06
-0.00204332
0.00206923
-0.000409968
-7.46577e-07
-0.00203779
0.00208628
-0.000481932
-3.81524e-06
-0.00202453
0.00209663
-1.18641e-05
-0.00195287
-0.000615169
0.00208735
-0.000312271
2.40401e-06
-0.00233637
0.00234812
-0.000323407
3.13485e-06
-0.00233843
0.00234945
-0.000334459
3.42076e-06
-0.0023402
0.00235115
-0.000346003
3.3738e-06
-0.00234109
0.00235256
-0.00035915
2.9719e-06
-0.00234096
0.00235407
-0.000376428
2.21482e-06
-0.0023399
0.00235718
-0.000403211
9.8468e-07
-0.00233791
0.00236472
-0.000453747
-7.84743e-07
-0.00233348
0.00238405
-0.000529016
-3.91285e-06
-0.00232173
0.0023971
-1.28336e-05
-0.00223797
-0.000665773
0.0023757
-0.000352795
2.38341e-06
-0.00262732
0.0026392
-0.000363875
3.02198e-06
-0.00262998
0.00264117
-0.00037485
3.23704e-06
-0.00263232
0.00264348
-0.000386303
3.10413e-06
-0.00263367
0.00264539
-0.000399399
2.62813e-06
-0.00263412
0.00264756
-0.000416696
1.80163e-06
-0.00263388
0.00265159
-0.000443818
5.60824e-07
-0.00263302
0.00266056
-0.000495694
-1.10989e-06
-0.00263019
0.00268239
-0.000573748
-3.86153e-06
-0.00262109
0.0026991
-1.29899e-05
-0.002525
-0.000712511
0.00266392
-0.000394592
2.02459e-06
-0.00291885
0.00293116
-0.000405723
2.47393e-06
-0.0029221
0.00293378
-0.000416697
2.50257e-06
-0.00292455
0.00293626
-0.000428101
2.16378e-06
-0.00292585
0.00293819
-0.000441062
1.4937e-06
-0.00292619
0.00294029
-0.000458083
4.90419e-07
-0.00292612
0.00294445
-0.000484931
-8.17824e-07
-0.00292595
0.00295418
-0.000536998
-2.36023e-06
-0.00292457
0.00297788
-0.00061652
-4.14967e-06
-0.00291882
0.00299863
-1.21414e-05
-0.00281223
-0.000755681
0.00295054
-0.000435788
1.06828e-06
-0.00320673
0.00321917
-0.000446493
1.13575e-06
-0.00321084
0.00322288
-0.000457073
8.4482e-07
-0.00321391
0.00322615
-0.000468174
1.11225e-07
-0.00321582
0.00322897
-0.000480963
-9.48243e-07
-0.00321695
0.00323218
-0.000497828
-2.30832e-06
-0.00321788
0.00323754
-0.00052453
-3.78334e-06
-0.00321913
0.0032488
-0.000576323
-5.09824e-06
-0.00322004
0.00327457
-0.000655776
-5.50574e-06
-0.00321668
0.00329748
-1.01952e-05
-0.00309931
-0.000792426
0.00323402
-0.000477199
-0.00347531
0.00348832
-0.000488545
-0.00347891
0.00349139
-0.000499734
-0.00347962
0.00349166
-0.000511446
-0.00347706
0.00348889
-0.000524721
-0.00347191
0.00348423
-0.000541688
-0.00346521
0.00347987
-0.00056758
-0.00345814
0.00348025
-0.000616585
-0.00345221
0.00349611
-0.000689675
-0.00344859
0.00351618
-0.00333961
-0.000818675
0.00345841
1.43957e-05
8.88886e-07
-0.000861041
5.3124e-06
1.11352e-06
-0.00086253
-3.79164e-06
1.19424e-06
-0.000863116
-1.31002e-05
1.13657e-06
-0.000862892
-2.28124e-05
9.3057e-07
-0.00086183
-3.31465e-05
5.57899e-07
-0.000859669
-4.42496e-05
-1.55909e-08
-0.000855839
-5.55407e-05
-8.68692e-07
-0.000849172
-6.62354e-05
-2.1973e-06
-0.00083865
-3.96829e-06
-0.000822397
-6.39126e-05
1.54088e-05
1.51362e-06
-0.00115611
5.39044e-06
1.92984e-06
-0.00115771
-4.61749e-06
2.08354e-06
-0.00115839
-1.49323e-05
2.00432e-06
-0.00115808
-2.58193e-05
1.67029e-06
-0.00115658
-3.76409e-05
1.05917e-06
-0.0011534
-5.12337e-05
1.0921e-07
-0.00114766
-6.76411e-05
-1.29578e-06
-0.0011375
-8.82615e-05
-3.54287e-06
-0.00112007
-6.60892e-06
-0.00109112
-9.86421e-05
1.67379e-05
1.82441e-06
-0.00145028
6.00712e-06
2.3884e-06
-0.00145207
-4.63101e-06
2.61193e-06
-0.00145285
-1.55084e-05
2.54968e-06
-0.00145242
-2.69629e-05
2.16854e-06
-0.00145045
-3.97281e-05
1.44487e-06
-0.00144636
-5.55498e-05
2.86708e-07
-0.00143922
-7.71567e-05
-1.42791e-06
-0.00142655
-0.000108636
-4.28381e-06
-0.00140291
-8.39613e-06
-0.00135938
-0.000133882
1.79546e-05
2.03258e-06
-0.00174097
6.74016e-06
2.7539e-06
-0.00174309
-4.38329e-06
3.06491e-06
-0.00174415
-1.58113e-05
3.04882e-06
-0.00174389
-2.79995e-05
2.65823e-06
-0.00174194
-4.19397e-05
1.87157e-06
-0.00173769
-5.99423e-05
5.56185e-07
-0.00172991
-8.613e-05
-1.40155e-06
-0.00171526
-0.000128053
-4.79483e-06
-0.00168538
-9.90614e-06
-0.0016255
-0.000168998
1.90697e-05
2.27881e-06
-0.0020331
7.56885e-06
3.07882e-06
-0.00203567
-3.83513e-06
3.43369e-06
-0.00203719
-1.55987e-05
3.43987e-06
-0.00203732
-2.83154e-05
3.04593e-06
-0.00203572
-4.3163e-05
2.22972e-06
-0.00203175
-6.29173e-05
8.19527e-07
-0.00202383
-9.29969e-05
-1.28857e-06
-0.00200782
-0.000144892
-5.07651e-06
-0.00197236
-1.10644e-05
-0.00189522
-0.000201392
1.9774e-05
2.39719e-06
-0.00232381
8.09596e-06
3.23188e-06
-0.0023269
-3.43875e-06
3.58228e-06
-0.00232882
-1.53451e-05
3.57112e-06
-0.00232931
-2.83366e-05
3.15398e-06
-0.00232808
-4.37545e-05
2.31866e-06
-0.00232458
-6.48031e-05
8.73535e-07
-0.00231692
-9.80695e-05
-1.27528e-06
-0.00230023
-0.000159357
-5.20902e-06
-0.00226031
-1.18832e-05
-0.00216571
-0.000230799
2.01865e-05
2.36836e-06
-0.0026145
8.53118e-06
3.10922e-06
-0.0026182
-2.95329e-06
3.39408e-06
-0.00262064
-1.47986e-05
3.30972e-06
-0.00262156
-2.78482e-05
2.85121e-06
-0.00262077
-4.35538e-05
1.98919e-06
-0.00261784
-6.54983e-05
5.48184e-07
-0.00261075
-0.000101308
-1.56553e-06
-0.00259409
-0.000171275
-5.24622e-06
-0.00255109
-1.22487e-05
-0.00243911
-0.000256802
1.99283e-05
2.03363e-06
-0.0029056
8.27124e-06
2.58898e-06
-0.00290993
-3.10674e-06
2.71777e-06
-0.0029125
-1.47851e-05
2.48028e-06
-0.00291334
-2.76625e-05
1.90737e-06
-0.00291237
-4.32645e-05
9.66076e-07
-0.00290949
-6.54739e-05
-4.35923e-07
-0.00290276
-0.000102751
-2.40765e-06
-0.00288645
-0.000180119
-5.22084e-06
-0.00284148
-1.18992e-05
-0.00271328
-0.000279419
1.93981e-05
1.07381e-06
-0.00319321
8.21092e-06
1.21871e-06
-0.00319828
-2.6625e-06
1.05869e-06
-0.00320138
-1.38327e-05
4.74105e-07
-0.00320264
-2.63528e-05
-4.0407e-07
-0.00320212
-4.18589e-05
-1.58517e-06
-0.00319982
-6.4438e-05
-3.01076e-06
-0.00319398
-0.00010304
-4.67532e-06
-0.00317917
-0.000186369
-6.14904e-06
-0.00313242
-1.00753e-05
-0.00298565
-0.000301861
1.82427e-05
-0.00346151
6.80405e-06
-0.00346626
-4.11856e-06
-0.00346764
-1.52134e-05
-0.00346549
-2.74207e-05
-0.0034601
-4.23449e-05
-0.00345187
-6.39062e-05
-0.00343959
-0.000101289
-0.0034195
-0.000186016
-0.00337001
-0.00321569
-0.000320007
1.20259e-05
7.77517e-07
-0.000854369
4.42314e-06
1.01755e-06
-0.000855945
-3.29478e-06
1.10556e-06
-0.000856503
-1.10379e-05
1.04111e-06
-0.00085619
-1.86828e-05
8.17614e-07
-0.000855003
-2.59847e-05
4.19288e-07
-0.000852786
-3.23915e-05
-1.75886e-07
-0.000849256
-3.65994e-05
-1.00582e-06
-0.000843958
-3.67274e-05
-2.15427e-06
-0.000836368
-3.43245e-06
-0.000826722
-2.89702e-05
1.38779e-05
1.36181e-06
-0.0011476
4.85237e-06
1.80194e-06
-0.00114947
-4.23421e-06
1.96501e-06
-0.00115016
-1.34727e-05
1.87435e-06
-0.00114968
-2.28692e-05
1.50847e-06
-0.00114788
-3.22729e-05
8.42806e-07
-0.00114442
-4.1283e-05
-1.76086e-07
-0.00113865
-4.87473e-05
-1.62071e-06
-0.00112942
-5.22013e-05
-3.70613e-06
-0.00111506
-6.1282e-06
-0.00109587
-4.47544e-05
1.59825e-05
1.70793e-06
-0.00144012
5.78028e-06
2.303e-06
-0.00144237
-4.41639e-06
2.53658e-06
-0.00144323
-1.48029e-05
2.45636e-06
-0.00144262
-2.54747e-05
2.02435e-06
-0.0014403
-3.64947e-05
1.20533e-06
-0.0014357
-4.79769e-05
-9.55588e-08
-0.00142782
-5.94528e-05
-1.97613e-06
-0.00141472
-6.85119e-05
-4.84628e-06
-0.00139271
-8.36613e-06
-0.00136071
-6.49449e-05
1.76324e-05
1.9667e-06
-0.00172977
6.64102e-06
2.73019e-06
-0.00173253
-4.34175e-06
3.05335e-06
-0.00173368
-1.56268e-05
3.01469e-06
-0.00173316
-2.74599e-05
2.56012e-06
-0.00173064
-4.01707e-05
1.65197e-06
-0.00172543
-5.43202e-05
1.42223e-07
-0.001716
-7.01001e-05
-2.08977e-06
-0.00169937
-8.58011e-05
-5.70645e-06
-0.00166881
-1.03351e-05
-0.0016211
-8.82322e-05
1.90376e-05
2.25816e-06
-0.00202122
7.53739e-06
3.10713e-06
-0.00202455
-3.93369e-06
3.47816e-06
-0.00202614
-1.57944e-05
3.46298e-06
-0.00202591
-2.84699e-05
3.00266e-06
-0.00202349
-4.25423e-05
2.0553e-06
-0.00201808
-5.90246e-05
4.17752e-07
-0.00200763
-7.89061e-05
-2.05884e-06
-0.00198797
-0.000101937
-6.30223e-06
-0.00194873
-1.19705e-05
-0.0018834
-0.000112117
1.99757e-05
2.42554e-06
-0.00231132
8.13865e-06
3.31357e-06
-0.00231527
-3.6155e-06
3.68474e-06
-0.00231727
-1.57996e-05
3.65965e-06
-0.00231733
-2.89964e-05
3.18188e-06
-0.00231506
-4.40382e-05
2.21805e-06
-0.0023097
-6.24245e-05
5.34906e-07
-0.00229865
-8.60492e-05
-2.0398e-06
-0.00227662
-0.000116871
-6.63865e-06
-0.00222915
-1.31805e-05
-0.00214514
-0.000136227
2.05278e-05
2.42008e-06
-0.00260158
8.6102e-06
3.21421e-06
-0.00260619
-3.18636e-06
3.52576e-06
-0.00260869
-1.54204e-05
3.44084e-06
-0.00260911
-2.88412e-05
2.94625e-06
-0.00260711
-4.44908e-05
1.99581e-06
-0.00260197
-6.43532e-05
3.53975e-07
-0.0025907
-9.12585e-05
-2.202e-06
-0.00256702
-0.000129977
-6.76645e-06
-0.00251224
-1.39494e-05
-0.00240904
-0.000159274
2.03517e-05
2.09661e-06
-0.0028922
8.40369e-06
2.70144e-06
-0.00289747
-3.30931e-06
2.87366e-06
-0.00290013
-1.54088e-05
2.67655e-06
-0.00290048
-2.87389e-05
2.12598e-06
-0.00289822
-4.45308e-05
1.17527e-06
-0.00289288
-6.52372e-05
-3.27493e-07
-0.00288137
-9.45838e-05
-2.64773e-06
-0.00285666
-0.000140685
-6.40242e-06
-0.00279574
-1.37382e-05
-0.0026736
-0.000180579
1.97386e-05
1.15061e-06
-0.0031795
8.24341e-06
1.32798e-06
-0.00318541
-2.96942e-06
1.24782e-06
-0.00318854
-1.45262e-05
7.72545e-07
-0.00318918
-2.74284e-05
2.57272e-08
-0.00318712
-4.31506e-05
-1.01362e-06
-0.00318191
-6.46505e-05
-2.33696e-06
-0.00317047
-9.64407e-05
-4.09065e-06
-0.00314593
-0.000148897
-6.37124e-06
-0.00307999
-1.15129e-05
-0.00293619
-0.000200579
1.85765e-05
-0.00344764
6.99927e-06
-0.00345335
-4.10538e-06
-0.00345529
-1.54472e-05
-0.00345338
-2.79184e-05
-0.00344761
-4.30034e-05
-0.0034378
-6.37007e-05
-0.00342123
-9.54116e-05
-0.00339188
-0.000150681
-0.00332112
-0.00316254
-0.00021535
9.33366e-06
6.08601e-07
-0.000849538
3.46344e-06
8.52124e-07
-0.000850927
-2.58791e-06
9.44242e-07
-0.000851396
-8.54704e-06
8.78171e-07
-0.000851109
-1.41072e-05
6.52513e-07
-0.000850095
-1.88457e-05
2.58381e-07
-0.000848306
-2.21201e-05
-3.11164e-07
-0.000845671
-2.28922e-05
-1.05831e-06
-0.000842127
-1.95793e-05
-1.97951e-06
-0.000837702
-2.86315e-06
-0.000832856
-1.05822e-05
1.17248e-05
1.11572e-06
-0.00114077
4.1069e-06
1.56608e-06
-0.00114257
-3.63964e-06
1.73435e-06
-0.0011432
-1.13772e-05
1.63624e-06
-0.0011427
-1.88896e-05
1.25457e-06
-0.00114097
-2.57878e-05
5.7132e-07
-0.00113784
-3.13125e-05
-4.44995e-07
-0.00113299
-3.39459e-05
-1.81654e-06
-0.00112603
-3.08493e-05
-3.60333e-06
-0.00111654
-5.41832e-06
-0.00110601
-1.81517e-05
1.44341e-05
1.48678e-06
-0.00143135
5.25747e-06
2.09829e-06
-0.00143372
-3.98584e-06
2.33473e-06
-0.00143458
-1.32963e-05
2.23396e-06
-0.00143391
-2.25676e-05
1.75968e-06
-0.00143153
-3.15047e-05
8.77208e-07
-0.00142707
-3.94302e-05
-4.909e-07
-0.00141984
-4.47343e-05
-2.39742e-06
-0.00140883
-4.3491e-05
-5.03643e-06
-0.00139252
-7.89355e-06
-0.00137302
-2.87079e-05
1.65213e-05
1.79813e-06
-0.00171967
6.22595e-06
2.59068e-06
-0.00172273
-4.13265e-06
2.91762e-06
-0.00172391
-1.46919e-05
2.84846e-06
-0.00172322
-2.54967e-05
2.32956e-06
-0.00172041
-3.64583e-05
1.31896e-06
-0.00171491
-4.71093e-05
-3.19391e-07
-0.00170552
-5.58656e-05
-2.67789e-06
-0.00169033
-5.78754e-05
-6.1787e-06
-0.00166566
-1.01739e-05
-0.00163382
-4.28844e-05
1.82721e-05
2.14061e-06
-0.00201013
7.19107e-06
3.02796e-06
-0.0020139
-3.92224e-06
3.40662e-06
-0.00201552
-1.53441e-05
3.35809e-06
-0.002015
-2.73114e-05
2.82188e-06
-0.00201201
-3.99857e-05
1.74673e-06
-0.00200584
-5.32041e-05
-6.80857e-08
-0.00199466
-6.55999e-05
-2.76844e-06
-0.00197548
-7.19269e-05
-7.0553e-06
-0.00194153
-1.21929e-05
-0.00189468
-5.86286e-05
1.95048e-05
2.36819e-06
-0.0022994
7.87356e-06
3.30068e-06
-0.00230391
-3.73243e-06
3.6843e-06
-0.00230594
-1.57154e-05
3.6319e-06
-0.00230562
-2.84891e-05
3.08059e-06
-0.00230254
-4.24904e-05
1.98271e-06
-0.00229593
-5.7959e-05
9.39551e-08
-0.00228334
-7.39576e-05
-2.78375e-06
-0.00226061
-8.55263e-05
-7.60758e-06
-0.00221703
-1.37671e-05
-0.0021533
-7.58009e-05
2.02614e-05
2.40677e-06
-0.00258902
8.3946e-06
3.2469e-06
-0.00259426
-3.40102e-06
3.57626e-06
-0.00259678
-1.5606e-05
3.4752e-06
-0.00259675
-2.88216e-05
2.92126e-06
-0.00259373
-4.37447e-05
1.85668e-06
-0.00258692
-6.10761e-05
2.16818e-08
-0.0025733
-8.04487e-05
-2.86712e-06
-0.00254756
-9.787e-05
-7.85559e-06
-0.00249457
-1.48969e-05
-0.00241265
-9.31313e-05
2.02416e-05
2.11159e-06
-0.00287905
8.27196e-06
2.75912e-06
-0.00288501
-3.51484e-06
2.96149e-06
-0.00288773
-1.56844e-05
2.78356e-06
-0.00288762
-2.8951e-05
2.22331e-06
-0.00288426
-4.42603e-05
1.22605e-06
-0.00287694
-6.284e-05
-4.01646e-07
-0.00286237
-8.50384e-05
-3.02092e-06
-0.0028343
-0.000108508
-7.33088e-06
-0.0027728
-1.48309e-05
-0.00267208
-0.000110091
1.9694e-05
1.19955e-06
-0.00316593
8.11903e-06
1.40472e-06
-0.00317248
-3.22897e-06
1.38947e-06
-0.00317562
-1.49162e-05
9.99187e-07
-0.00317571
-2.77956e-05
3.45754e-07
-0.00317236
-4.30465e-05
-6.07718e-07
-0.00316482
-6.25185e-05
-1.89527e-06
-0.0031495
-8.76702e-05
-3.7521e-06
-0.00312005
-0.000117052
-6.49586e-06
-0.00305145
-1.22159e-05
-0.00292921
-0.000126646
1.86066e-05
-0.00343398
7.07114e-06
-0.00344041
-4.05776e-06
-0.00344277
-1.54501e-05
-0.00344099
-2.78755e-05
-0.00343484
-4.2553e-05
-0.00342373
-6.14333e-05
-0.00340425
-8.70676e-05
-0.00337
-0.000119682
-0.003295
-0.00315503
-0.000139404
6.84916e-06
4.23578e-07
-0.000846192
2.57469e-06
6.54157e-07
-0.000847307
-1.89888e-06
7.44848e-07
-0.000847667
-6.24117e-06
6.82515e-07
-0.00084745
-1.01075e-05
4.70688e-07
-0.0008467
-1.30929e-05
1.08465e-07
-0.000845429
-1.47038e-05
-3.95734e-07
-0.000843664
-1.43362e-05
-1.02061e-06
-0.000841474
-1.13196e-05
-1.72046e-06
-0.000838998
-2.3288e-06
-0.000836483
-5.36401e-06
9.38712e-06
8.21362e-07
-0.00113556
3.2972e-06
1.261e-06
-0.00113708
-2.96877e-06
1.42769e-06
-0.00113762
-9.13085e-06
1.32857e-06
-0.00113718
-1.48465e-05
9.52236e-07
-0.00113573
-1.96462e-05
2.91997e-07
-0.00113322
-2.28143e-05
-6.57213e-07
-0.00112956
-2.32474e-05
-1.87353e-06
-0.00112474
-1.92824e-05
-3.31385e-06
-0.00111891
-4.63262e-06
-0.00111323
-9.76439e-06
1.2456e-05
1.18708e-06
-0.00142417
4.59124e-06
1.79519e-06
-0.00142639
-3.40647e-06
2.02816e-06
-0.00142719
-1.13543e-05
1.91184e-06
-0.00142654
-1.89771e-05
1.41522e-06
-0.00142437
-2.58026e-05
5.13755e-07
-0.00142047
-3.09546e-05
-8.38864e-07
-0.00141451
-3.28544e-05
-2.64491e-06
-0.00140616
-2.86145e-05
-4.92445e-06
-0.00139515
-7.14074e-06
-0.00138374
-1.5386e-05
1.48907e-05
1.53278e-06
-0.00171098
5.63912e-06
2.33828e-06
-0.00171402
-3.75156e-06
2.66354e-06
-0.00171515
-1.3215e-05
2.56602e-06
-0.00171441
-2.25872e-05
1.99706e-06
-0.00171162
-3.15024e-05
9.21163e-07
-0.0017064
-3.90682e-05
-7.64265e-07
-0.00169803
-4.33523e-05
-3.10138e-06
-0.00168559
-4.00335e-05
-6.27015e-06
-0.00166764
-9.53748e-06
-0.00164761
-2.3843e-05
1.6973e-05
1.91827e-06
-0.00200021
6.66674e-06
2.8319e-06
-0.00200409
-3.74466e-06
3.21334e-06
-0.00200566
-1.43385e-05
3.1302e-06
-0.00200497
-2.51208e-05
2.52464e-06
-0.00200176
-3.59144e-05
1.34597e-06
-0.00199547
-4.59411e-05
-5.76662e-07
-0.00198482
-5.30692e-05
-3.34613e-06
-0.00196811
-5.16611e-05
-7.37661e-06
-0.00194183
-1.17707e-05
-0.00191047
-3.36389e-05
1.85163e-05
2.20634e-06
-0.00228843
7.43037e-06
3.1753e-06
-0.00229317
-3.70307e-06
3.56726e-06
-0.00229516
-1.51052e-05
3.48369e-06
-0.00229457
-2.69532e-05
2.85931e-06
-0.00229103
-3.93133e-05
1.64008e-06
-0.00228387
-5.16591e-05
-3.99465e-07
-0.00227117
-6.18721e-05
-3.43209e-06
-0.00225031
-6.33684e-05
-8.12216e-06
-0.00221479
-1.35882e-05
-0.00216984
-4.50072e-05
1.95099e-05
2.30211e-06
-0.0025772
8.00687e-06
3.18446e-06
-0.00258277
-3.49283e-06
3.52884e-06
-0.00258525
-1.53154e-05
3.40722e-06
-0.00258485
-2.78316e-05
2.7894e-06
-0.00258115
-4.13655e-05
1.60887e-06
-0.00257336
-5.57438e-05
-3.8937e-07
-0.00255893
-6.90375e-05
-3.47976e-06
-0.00253422
-7.42169e-05
-8.48687e-06
-0.00248903
-1.49516e-05
-0.00242865
-5.68555e-05
1.96928e-05
2.04624e-06
-0.0028665
7.98173e-06
2.73725e-06
-0.00287285
-3.6184e-06
2.96551e-06
-0.00287557
-1.55461e-05
2.7984e-06
-0.00287508
-2.82978e-05
2.21719e-06
-0.00287093
-4.24519e-05
1.15864e-06
-0.00286234
-5.83086e-05
-5.8923e-07
-0.00284631
-7.43922e-05
-3.40858e-06
-0.00281829
-8.38717e-05
-7.91088e-06
-0.0027639
-1.50077e-05
-0.00268685
-6.90458e-05
1.92703e-05
1.19956e-06
-0.00315283
7.86693e-06
1.43331e-06
-0.00315978
-3.38661e-06
1.47493e-06
-0.00316287
-1.49376e-05
1.1537e-06
-0.00316251
-2.74301e-05
5.70518e-07
-0.00315822
-4.16493e-05
-3.27347e-07
-0.00314912
-5.83931e-05
-1.60676e-06
-0.00313174
-7.72895e-05
-3.53835e-06
-0.00310102
-9.1561e-05
-6.47543e-06
-0.00303861
-1.20781e-05
-0.00294222
-8.14833e-05
1.8292e-05
-0.0034208
7.002e-06
-0.00342769
-3.96611e-06
-0.00343033
-1.51892e-05
-0.00342861
-2.72612e-05
-0.00342219
-4.10523e-05
-0.00341027
-5.75076e-05
-0.0033894
-7.70928e-05
-0.00335395
-9.41528e-05
-0.00328441
-0.00317041
-9.08535e-05
4.81643e-06
2.50604e-07
-0.000843933
1.84257e-06
4.55277e-07
-0.000844788
-1.31467e-06
5.39631e-07
-0.00084505
-4.34629e-06
4.85098e-07
-0.000844903
-6.94564e-06
2.99083e-07
-0.000844399
-8.79006e-06
-1.34129e-08
-0.000843572
-9.55037e-06
-4.34099e-07
-0.00084247
-8.91207e-06
-9.30998e-07
-0.000841182
-6.64593e-06
-1.44771e-06
-0.000839816
-1.86617e-06
-0.000838417
-2.84598e-06
7.16926e-06
5.2019e-07
-0.00113173
2.51918e-06
9.28403e-07
-0.00113291
-2.3227e-06
1.08641e-06
-0.00113332
-7.02496e-06
9.93171e-07
-0.00113299
-1.1215e-05
6.42839e-07
-0.00113189
-1.44512e-05
3.99174e-08
-0.00113004
-1.61746e-05
-7.99053e-07
-0.00112747
-1.57043e-05
-1.82573e-06
-0.00112432
-1.22592e-05
-2.95171e-06
-0.00112085
-3.90788e-06
-0.00111779
-5.65211e-06
1.03345e-05
8.47828e-07
-0.00141854
3.86896e-06
1.42894e-06
-0.00142043
-2.7747e-06
1.65112e-06
-0.00142111
-9.29136e-06
1.52761e-06
-0.00142056
-1.53072e-05
1.03429e-06
-0.00141875
-2.03021e-05
1.61069e-07
-0.0014156
-2.34788e-05
-1.10418e-06
-0.00141103
-2.36623e-05
-2.7219e-06
-0.00140508
-1.91472e-05
-4.6128e-06
-0.001398
-6.31322e-06
-0.00139139
-9.09074e-06
1.29534e-05
1.19917e-06
-0.00170381
4.94857e-06
1.99536e-06
-0.00170658
-3.26087e-06
2.31225e-06
-0.0017076
-1.1435e-05
2.19388e-06
-0.0017069
-1.92468e-05
1.59976e-06
-0.00170437
-2.61813e-05
5.08312e-07
-0.00169982
-3.12794e-05
-1.13892e-06
-0.0016929
-3.28878e-05
-3.33098e-06
-0.00168337
-2.80246e-05
-6.07416e-06
-0.00167104
-8.68563e-06
-0.00165872
-1.45456e-05
1.52832e-05
1.60899e-06
-0.00199166
6.01577e-06
2.5296e-06
-0.00199536
-3.42909e-06
2.9077e-06
-0.00199681
-1.29318e-05
2.79486e-06
-0.00199607
-2.2288e-05
2.14008e-06
-0.00199294
-3.10799e-05
9.02237e-07
-0.00198707
-3.82935e-05
-1.04188e-06
-0.0019777
-4.1877e-05
-3.73533e-06
-0.00196412
-3.73984e-05
-7.34561e-06
-0.00194504
-1.09855e-05
-0.00192469
-2.08737e-05
1.71006e-05
1.9475e-06
-0.00227867
6.84813e-06
2.93809e-06
-0.00228333
-3.53027e-06
3.3331e-06
-0.00228521
-1.40552e-05
3.22012e-06
-0.00228447
-2.46643e-05
2.53625e-06
-0.00228082
-3.51117e-05
1.23062e-06
-0.00227375
-4.44663e-05
-8.79908e-07
-0.00226198
-5.04419e-05
-3.91269e-06
-0.00224416
-4.72135e-05
-8.23847e-06
-0.00221713
-1.29084e-05
-0.00218661
-2.85178e-05
1.83251e-05
2.10558e-06
-0.00256643
7.47644e-06
3.02085e-06
-0.002572
-3.44768e-06
3.37657e-06
-0.00257437
-1.4584e-05
3.23466e-06
-0.00257373
-2.60513e-05
2.56121e-06
-0.00256971
-3.78169e-05
1.28861e-06
-0.00256165
-4.9149e-05
-8.086e-07
-0.00254767
-5.76873e-05
-3.95173e-06
-0.00252565
-5.64453e-05
-8.68955e-06
-0.00248982
-1.43511e-05
-0.00244717
-3.6486e-05
1.87302e-05
1.89502e-06
-0.00285486
7.55222e-06
2.62634e-06
-0.00286128
-3.59942e-06
2.87591e-06
-0.00286392
-1.49951e-05
2.71441e-06
-0.00286316
-2.68833e-05
2.11e-06
-0.00285859
-3.94579e-05
9.97832e-07
-0.00284947
-5.23276e-05
-8.27111e-07
-0.00283343
-6.33405e-05
-3.71031e-06
-0.00280752
-6.48624e-05
-8.09831e-06
-0.00276296
-1.44354e-05
-0.00270665
-4.49768e-05
1.84653e-05
1.14385e-06
-0.00314054
7.48964e-06
1.40459e-06
-0.00314758
-3.42681e-06
1.49458e-06
-0.00315057
-1.45706e-05
1.22783e-06
-0.00314988
-2.63522e-05
6.96071e-07
-0.00314502
-3.91569e-05
-1.64583e-07
-0.00313515
-5.29373e-05
-1.43843e-06
-0.00311735
-6.63031e-05
-3.3789e-06
-0.00308799
-7.12615e-05
-6.28905e-06
-0.00303546
-1.12879e-05
-0.00296301
-5.36133e-05
1.76244e-05
-0.00340841
6.79157e-06
-0.00341545
-3.81504e-06
-0.00341823
-1.46388e-05
-0.00341656
-2.60687e-05
-0.00341007
-3.86065e-05
-0.00339789
-5.23919e-05
-0.00337705
-6.6567e-05
-0.00334315
-7.36973e-05
-0.00328357
-0.00319581
-5.95789e-05
3.29101e-06
1.06708e-07
-0.000842408
1.28806e-06
2.78456e-07
-0.000843064
-8.66475e-07
3.53306e-07
-0.000843249
-2.92019e-06
3.08625e-07
-0.000843158
-4.63259e-06
1.54445e-07
-0.000842841
-5.77057e-06
-1.01204e-07
-0.000842332
-6.12986e-06
-4.35729e-07
-0.000841675
-5.55922e-06
-8.15841e-07
-0.000840937
-4.01134e-06
-1.18951e-06
-0.000840174
-1.4758e-06
-0.000839307
-1.64569e-06
5.24906e-06
2.44104e-07
-0.00112897
1.83119e-06
6.05293e-07
-0.00112982
-1.76727e-06
7.48797e-07
-0.00113012
-5.22958e-06
6.66778e-07
-0.00112988
-8.21494e-06
3.57874e-07
-0.00112911
-1.03601e-05
-1.65109e-07
-0.00112783
-1.12715e-05
-8.72093e-07
-0.00112613
-1.05667e-05
-1.70341e-06
-0.00112414
-7.94659e-06
-2.56233e-06
-0.0011221
-3.25297e-06
-0.00112043
-3.5371e-06
8.28518e-06
5.06604e-07
-0.00141424
3.15598e-06
1.03815e-06
-0.00141573
-2.16819e-06
1.24215e-06
-0.00141628
-7.33231e-06
1.12021e-06
-0.00141585
-1.19357e-05
6.5491e-07
-0.00141444
-1.5492e-05
-1.49877e-07
-0.00141205
-1.7373e-05
-1.27822e-06
-0.00140874
-1.68206e-05
-2.66209e-06
-0.00140468
-1.29826e-05
-4.17828e-06
-0.00140023
-5.46993e-06
-0.00139638
-5.77713e-06
1.09003e-05
8.32496e-07
-0.00169809
4.20968e-06
1.59397e-06
-0.00170044
-2.72848e-06
1.89467e-06
-0.00170132
-9.56148e-06
1.76526e-06
-0.00170071
-1.58696e-05
1.17495e-06
-0.00169858
-2.10948e-05
1.18934e-07
-0.00169486
-2.43881e-05
-1.4179e-06
-0.00168946
-2.45462e-05
-3.37964e-06
-0.0016825
-1.98147e-05
-5.66832e-06
-0.00167428
-7.72357e-06
-0.00166674
-9.54064e-06
1.33488e-05
1.24145e-06
-0.00198453
5.28022e-06
2.14378e-06
-0.00198784
-3.02398e-06
2.51056e-06
-0.00198912
-1.12882e-05
2.37671e-06
-0.00198842
-1.91567e-05
1.7009e-06
-0.0019856
-2.60807e-05
4.57928e-07
-0.00198048
-3.10471e-05
-1.42195e-06
-0.00197273
-3.24059e-05
-3.92143e-06
-0.00196222
-2.72135e-05
-7.03041e-06
-0.00194887
-9.98232e-06
-0.00193583
-1.38204e-05
1.53602e-05
1.6119e-06
-0.00227027
6.15706e-06
2.60203e-06
-0.00227458
-3.24345e-06
2.99266e-06
-0.00227629
-1.26807e-05
2.85606e-06
-0.00227551
-2.18963e-05
2.13601e-06
-0.00227204
-3.04299e-05
7.93436e-07
-0.00226555
-3.7214e-05
-1.29904e-06
-0.00225532
-4.02439e-05
-4.19147e-06
-0.00224086
-3.52503e-05
-8.01312e-06
-0.00222114
-1.18949e-05
-0.00220079
-1.91554e-05
1.67728e-05
1.82894e-06
-0.00255691
6.82335e-06
2.76047e-06
-0.00256221
-3.27987e-06
3.12153e-06
-0.00256439
-1.34846e-05
2.96279e-06
-0.00256363
-2.36836e-05
2.25106e-06
-0.00255962
-3.35638e-05
9.26543e-07
-0.0025519
-4.21059e-05
-1.18871e-06
-0.00253924
-4.70698e-05
-4.2377e-06
-0.00252064
-4.28703e-05
-8.50903e-06
-0.00249352
-1.32803e-05
-0.00246409
-2.45667e-05
1.73933e-05
1.66311e-06
-0.00284435
6.99538e-06
2.42521e-06
-0.00285054
-3.4633e-06
2.68986e-06
-0.00285303
-1.40725e-05
2.53128e-06
-0.00285212
-2.48455e-05
1.90891e-06
-0.00284748
-3.56491e-05
7.64036e-07
-0.0028385
-4.5655e-05
-1.08037e-06
-0.00282353
-5.26164e-05
-3.88994e-06
-0.00280091
-4.99894e-05
-7.91781e-06
-0.00276618
-1.32846e-05
-0.00272615
-3.04925e-05
1.7298e-05
1.03241e-06
-0.00312931
6.99102e-06
1.31485e-06
-0.00313616
-3.3517e-06
1.444e-06
-0.00313899
-1.38371e-05
1.21929e-06
-0.00313808
-2.46463e-05
7.26013e-07
-0.00313303
-3.58165e-05
-1.04334e-07
-0.00312311
-4.67387e-05
-1.35919e-06
-0.00310615
-5.55507e-05
-3.23942e-06
-0.00307983
-5.51168e-05
-5.95541e-06
-0.00303786
-1.01073e-05
-0.00298517
-3.61384e-05
1.66153e-05
-0.00339708
6.44375e-06
-0.00340396
-3.60004e-06
-0.00340674
-1.38039e-05
-0.00340514
-2.43479e-05
-0.0033988
-3.53958e-05
-0.00338695
-4.65288e-05
-0.00336728
-5.6181e-05
-0.00333674
-5.73764e-05
-0.00328833
-0.00322361
-3.96882e-05
2.21189e-06
-1.78088e-09
-0.000841365
8.93577e-07
1.36046e-07
-0.000841881
-5.4296e-07
2.0028e-07
-0.000842012
-1.90622e-06
1.65682e-07
-0.00084196
-3.02093e-06
4.38814e-08
-0.000841771
-3.72703e-06
-1.56437e-07
-0.00084147
-3.90066e-06
-4.12607e-07
-0.000841088
-3.47114e-06
-6.95099e-07
-0.000840671
-2.44939e-06
-9.61438e-07
-0.000840235
-1.15668e-06
-0.00083963
-9.69437e-07
3.69421e-06
1.24072e-08
-0.00112699
1.26096e-06
3.18535e-07
-0.00112757
-1.32601e-06
4.44029e-07
-0.00112778
-3.79928e-06
3.7623e-07
-0.00112762
-5.87773e-06
1.16864e-07
-0.0011271
-7.28497e-06
-3.16835e-07
-0.00112626
-7.7593e-06
-8.89167e-07
-0.00112517
-7.09734e-06
-1.53999e-06
-0.00112395
-5.213e-06
-2.18165e-06
-0.00112276
-2.67488e-06
-0.00112183
-2.29047e-06
6.4498e-06
1.93016e-07
-0.00141101
2.50242e-06
6.57746e-07
-0.00141212
-1.63117e-06
8.37527e-07
-0.00141254
-5.60402e-06
7.2433e-07
-0.00141223
-9.04153e-06
3.06007e-07
-0.00141119
-1.15315e-05
-4.03291e-07
-0.00140948
-1.26147e-05
-1.36911e-06
-0.00140718
-1.1835e-05
-2.51053e-06
-0.00140448
-8.82543e-06
-3.69487e-06
-0.00140172
-4.66043e-06
-0.00139947
-3.74695e-06
8.89295e-06
4.66838e-07
-0.00169366
3.47506e-06
1.16959e-06
-0.00169554
-2.20612e-06
1.44631e-06
-0.00169624
-7.74956e-06
1.31566e-06
-0.00169576
-1.27102e-05
7.56281e-07
-0.00169407
-1.65609e-05
-2.21034e-07
-0.00169119
-1.86213e-05
-1.59738e-06
-0.00168718
-1.80879e-05
-3.28655e-06
-0.00168225
-1.40469e-05
-5.14038e-06
-0.00167687
-6.72632e-06
-0.00167227
-6.45197e-06
1.13195e-05
8.48191e-07
-0.00197877
4.50729e-06
1.70477e-06
-0.00198156
-2.57534e-06
2.0513e-06
-0.00198264
-9.5549e-06
1.90672e-06
-0.00198203
-1.59937e-05
1.24047e-06
-0.00197964
-2.13085e-05
4.54877e-08
-0.00197544
-2.46099e-05
-1.69927e-06
-0.00196933
-2.46921e-05
-3.92713e-06
-0.0019615
-1.98188e-05
-6.51794e-06
-0.00195236
-8.85887e-06
-0.00194406
-9.4563e-06
1.34192e-05
1.22713e-06
-0.00226326
5.39606e-06
2.18982e-06
-0.00226704
-2.87766e-06
2.56698e-06
-0.00226853
-1.11041e-05
2.41518e-06
-0.00226779
-1.88931e-05
1.68773e-06
-0.0022647
-2.56756e-05
3.6266e-07
-0.00225908
-3.04248e-05
-1.62969e-06
-0.00225064
-3.15586e-05
-4.27536e-06
-0.00223937
-2.631e-05
-7.53033e-06
-0.00222537
-1.06716e-05
-0.00221195
-1.3338e-05
1.49477e-05
1.49204e-06
-0.00254877
6.07722e-06
2.41706e-06
-0.00255357
-3.01331e-06
2.77535e-06
-0.00255551
-1.21105e-05
2.60571e-06
-0.00255472
-2.09339e-05
1.87939e-06
-0.00255099
-2.89927e-05
5.5152e-07
-0.00254403
-3.51952e-05
-1.50064e-06
-0.00253317
-3.76506e-05
-4.33614e-06
-0.00251812
-3.24413e-05
-8.03392e-06
-0.00249823
-1.19122e-05
-0.00247821
-1.70768e-05
1.57526e-05
1.36338e-06
-0.00283514
6.33354e-06
2.14062e-06
-0.00284085
-3.22524e-06
2.41251e-06
-0.0028431
-1.2846e-05
2.25678e-06
-0.00284215
-2.2347e-05
1.62845e-06
-0.00283773
-3.13616e-05
4.81711e-07
-0.00282942
-3.8867e-05
-1.32002e-06
-0.0028162
-4.28118e-05
-3.94739e-06
-0.00279735
-3.83394e-05
-7.47157e-06
-0.00277122
-1.18002e-05
-0.00274329
-2.13101e-05
1.58179e-05
8.70822e-07