/*--------------------------------*- C++ -*----------------------------------*\
| =========                 |                                                 |
| \\      /  F ield         | foam-extend: Open Source CFD                    |
|  \\    /   O peration     | Version:     4.0                                |
|   \\  /    A nd           | Web:         http://www.foam-extend.org         |
|    \\/     M anipulation  |                                                 |
\*---------------------------------------------------------------------------*/
FoamFile
{
    version     2.0;
    format      ascii;
    class       volVectorField;
    location    "2400";
    object      U;
}
// * * * * * * * * * * * * * * * * * * * * * * * * * * * * * * * * * * * * * //

dimensions      [0 1 -1 0 0 0 0];

internalField   nonuniform List<vector> 
34480
(
(209.006 2.16678 3.26218)
(209.326 1.19963 1.52483)
(209.483 0.413766 -0.272688)
(209.49 -0.210385 -2.17602)
(209.34 -0.705171 -4.32564)
(208.999 -1.06681 -6.89886)
(208.383 -1.26891 -10.2974)
(207.216 -1.18849 -14.8665)
(204.545 -0.590119 -22.7773)
(197.607 1.98004 -50.0421)
(209.939 3.08087 2.87496)
(210.199 2.25935 1.05408)
(210.325 1.53418 -0.770391)
(210.298 0.899642 -2.66942)
(210.063 0.327672 -4.76315)
(209.56 -0.192796 -7.26137)
(208.753 -0.67184 -10.6256)
(207.46 -1.04649 -15.599)
(204.324 -1.14624 -24.4048)
(196.165 0.636859 -55.1001)
(210.628 2.71729 3.29002)
(210.862 1.8371 1.40645)
(210.956 1.06161 -0.498459)
(210.886 0.407212 -2.44274)
(210.59 -0.17124 -4.55745)
(210.063 -0.696975 -7.10227)
(209.311 -1.18641 -10.608)
(208.167 -1.55866 -16.1047)
(204.866 -1.63552 -25.7843)
(195.656 0.361446 -59.4547)
(210.635 3.26142 3.24007)
(210.87 2.42871 1.30091)
(210.979 1.68478 -0.636355)
(210.942 1.06042 -2.60814)
(210.708 0.511676 -4.75348)
(210.293 0.0144782 -7.36186)
(209.677 -0.450419 -10.9672)
(208.697 -0.79074 -16.8198)
(205.371 -0.819995 -27.1189)
(195.357 1.32562 -62.7272)
(210.794 2.72706 3.74645)
(211.058 1.8203 1.76888)
(211.206 1.02562 -0.247619)
(211.23 0.376234 -2.29442)
(211.088 -0.188894 -4.53633)
(210.808 -0.691711 -7.27526)
(210.34 -1.14365 -11.0424)
(209.544 -1.4395 -17.2755)
(206.317 -1.38345 -28.2387)
(195.66 0.92658 -65.3969)
(210.679 3.4169 3.52194)
(210.955 2.52619 1.54676)
(211.122 1.7476 -0.430776)
(211.181 1.11873 -2.44635)
(211.105 0.589327 -4.65792)
(210.943 0.13398 -7.39241)
(210.628 -0.258334 -11.1655)
(210.046 -0.482787 -17.5872)
(207.066 -0.321127 -29.0315)
(196.01 2.08735 -67.3688)
(210.761 2.58062 4.03797)
(211.076 1.59494 2.06187)
(211.272 0.742267 0.0422227)
(211.37 0.0523773 -2.00508)
(211.353 -0.530656 -4.26787)
(211.288 -1.02375 -7.07478)
(211.113 -1.41161 -10.9458)
(210.748 -1.57089 -17.6129)
(208.099 -1.21008 -29.6316)
(196.748 1.49017 -68.9927)
(210.588 3.35694 3.56689)
(210.908 2.35898 1.62293)
(211.084 1.52554 -0.317155)
(211.139 0.862659 -2.29863)
(211.083 0.338095 -4.47295)
(210.999 -0.0838069 -7.17429)
(210.87 -0.378231 -10.9065)
(210.662 -0.415315 -17.4915)
(208.421 0.250113 -29.6951)
(197.104 3.3153 -69.5911)
(210.533 2.04083 4.1148)
(210.897 0.92563 2.22416)
(211.104 -0.0310547 0.308596)
(211.198 -0.845276 -1.64895)
(211.192 -1.54883 -3.84195)
(211.153 -2.14764 -6.5812)
(211.092 -2.56116 -10.4057)
(211.024 -2.61223 -17.1067)
(209.111 -1.55745 -29.6789)
(197.68 2.45885 -69.545)
(209.568 2.78748 3.53102)
(209.843 1.57021 1.59861)
(209.789 0.616404 -0.311781)
(209.431 -0.169535 -2.27856)
(208.812 -0.775547 -4.43735)
(208.027 -1.21635 -7.07436)
(207.157 -1.40004 -10.6664)
(206.371 -1.10919 -16.8186)
(204.433 0.415543 -28.536)
(194.247 5.2807 -66.5005)
(205.891 1.91214 3.00059)
(206.369 1.10961 1.54393)
(206.556 0.426503 -0.00995613)
(206.473 -0.117453 -1.61007)
(206.095 -0.546568 -3.31982)
(205.333 -0.861374 -5.15159)
(203.986 -1.06597 -7.15911)
(201.62 -1.17184 -9.31733)
(198.154 -1.25693 -11.245)
(193.579 -1.15909 -14.3934)
(207.19 2.86841 2.79799)
(207.621 2.16407 1.16186)
(207.793 1.51922 -0.492206)
(207.704 0.943707 -2.18907)
(207.292 0.416337 -3.9963)
(206.437 -0.0689473 -5.97181)
(204.943 -0.527264 -8.20872)
(202.359 -0.99354 -10.9582)
(198.189 -1.58397 -14.0068)
(192.505 -1.82423 -20.5815)
(208.139 2.57739 3.30724)
(208.548 1.77132 1.54485)
(208.705 1.04465 -0.256678)
(208.606 0.422504 -2.09015)
(208.169 -0.133695 -4.02977)
(207.295 -0.636476 -6.15931)
(205.811 -1.11515 -8.66768)
(203.233 -1.58641 -12.0868)
(198.689 -2.15729 -16.3332)
(192.07 -2.07133 -26.7166)
(208.382 3.17778 3.30371)
(208.797 2.40324 1.4563)
(208.976 1.69422 -0.403284)
(208.918 1.08805 -2.29692)
(208.545 0.546234 -4.30998)
(207.773 0.0570551 -6.56887)
(206.401 -0.412603 -9.29941)
(203.916 -0.855598 -13.2587)
(199.143 -1.36376 -18.4766)
(191.71 -0.933749 -32.4541)
(208.735 2.66823 3.83858)
(209.178 1.80882 1.93596)
(209.395 1.04196 -0.0202181)
(209.402 0.408397 -2.00855)
(209.121 -0.147107 -4.14608)
(208.485 -0.635848 -6.58663)
(207.263 -1.09271 -9.57241)
(204.941 -1.48884 -14.0629)
(200.089 -1.90248 -20.2309)
(191.949 -1.07318 -37.6932)
(208.771 3.39292 3.63451)
(209.228 2.54104 1.72012)
(209.471 1.78343 -0.206638)
(209.521 1.16355 -2.17548)
(209.313 0.63473 -4.29762)
(208.805 0.182535 -6.77301)
(207.749 -0.224287 -9.84344)
(205.648 -0.548184 -14.6623)
(200.883 -0.830302 -21.5476)
(192.218 0.364486 -42.2101)
(208.976 2.56673 4.16027)
(209.469 1.61594 2.23775)
(209.743 0.786281 0.259266)
(209.839 0.114078 -1.74944)
(209.699 -0.450841 -3.93574)
(209.305 -0.920068 -6.51569)
(208.412 -1.31013 -9.74441)
(206.555 -1.56837 -14.9178)
(201.998 -1.65635 -22.5677)
(192.908 0.000963039 -46.2452)
(208.89 3.37376 3.69594)
(209.392 2.4095 1.80368)
(209.655 1.59804 -0.088066)
(209.725 0.950695 -2.02425)
(209.569 0.44109 -4.1203)
(209.197 0.0371443 -6.62275)
(208.397 -0.264068 -9.78126)
(206.761 -0.4185 -15.0053)
(202.532 -0.208211 -23.0527)
(193.315 1.83436 -49.2175)
(208.903 2.05542 4.24531)
(209.436 0.977342 2.40214)
(209.727 0.0661036 0.526117)
(209.833 -0.688984 -1.3776)
(209.734 -1.31848 -3.48061)
(209.437 -1.83481 -6.03041)
(208.758 -2.19012 -9.33535)
(207.35 -2.32168 -14.7936)
(203.46 -1.74191 -23.4885)
(193.992 1.00289 -51.4981)
(207.98 2.86383 3.63708)
(208.457 1.69312 1.7897)
(208.574 0.796324 -0.034584)
(208.361 0.067793 -1.90539)
(207.833 -0.474203 -3.92982)
(207.026 -0.855641 -6.35381)
(205.826 -1.01331 -9.46972)
(204.023 -0.832124 -14.564)
(200.282 0.222237 -23.038)
(191.635 4.0374 -51.3447)
(203.517 1.42784 2.3344)
(204.02 0.833498 1.21632)
(204.202 0.302464 -0.01325)
(204.098 -0.131818 -1.2634)
(203.697 -0.482424 -2.55461)
(202.95 -0.746776 -3.83244)
(201.765 -0.934653 -5.04906)
(199.989 -1.07157 -6.05479)
(197.434 -1.24294 -6.4985)
(194.217 -1.4323 -6.51689)
(204.912 2.41412 2.31333)
(205.407 1.87178 0.946205)
(205.587 1.34549 -0.448741)
(205.464 0.854844 -1.86573)
(205 0.389758 -3.33133)
(204.112 -0.0551207 -4.84812)
(202.638 -0.493104 -6.37972)
(200.31 -0.955823 -7.86297)
(196.687 -1.55466 -8.80244)
(191.847 -2.13671 -9.8107)
(205.947 2.21185 2.9482)
(206.447 1.52864 1.39555)
(206.627 0.890437 -0.208668)
(206.502 0.326984 -1.838)
(206.014 -0.193766 -3.53877)
(205.061 -0.681737 -5.32771)
(203.445 -1.16168 -7.21461)
(200.8 -1.66378 -9.29201)
(196.299 -2.33235 -11.0027)
(189.857 -2.91136 -13.584)
(206.344 2.89675 2.99437)
(206.866 2.22011 1.31824)
(207.072 1.57935 -0.380751)
(206.981 1.01426 -2.11227)
(206.531 0.49134 -3.94026)
(205.615 0.000843896 -5.92302)
(203.983 -0.489125 -8.10647)
(201.17 -0.996001 -10.7405)
(195.931 -1.68113 -13.2006)
(187.995 -2.16643 -17.5587)
(206.846 2.42623 3.569)
(207.4 1.64978 1.80563)
(207.642 0.940548 -0.0194264)
(207.609 0.340348 -1.87732)
(207.228 -0.201287 -3.86943)
(206.401 -0.692854 -6.08627)
(204.827 -1.16984 -8.60259)
(201.97 -1.63827 -11.8317)
(196.183 -2.28631 -15.1302)
(186.926 -2.57788 -21.5718)
(207.011 3.20003 3.38995)
(207.585 2.41722 1.59404)
(207.854 1.70765 -0.222343)
(207.862 1.11475 -2.08431)
(207.544 0.593952 -4.0922)
(206.815 0.132923 -6.38749)
(205.341 -0.303784 -9.06301)
(202.541 -0.715728 -12.7146)
(196.409 -1.27678 -16.715)
(186.061 -1.34017 -25.333)
(207.329 2.39037 3.939)
(207.934 1.50276 2.11684)
(208.234 0.720064 0.231432)
(208.288 0.0784412 -1.68936)
(208.032 -0.470516 -3.78527)
(207.401 -0.935114 -6.22101)
(206.046 -1.33779 -9.12167)
(203.367 -1.66936 -13.2321)
(197.059 -2.06879 -18.0275)
(185.782 -1.79934 -28.9563)
(207.336 3.23547 3.47903)
(207.949 2.33238 1.68369)
(208.243 1.56572 -0.117486)
(208.28 0.94854 -1.97001)
(208.016 0.454254 -3.98464)
(207.414 0.0565793 -6.36727)
(206.144 -0.257314 -9.26054)
(203.617 -0.487957 -13.5544)
(197.325 -0.620647 -18.8723)
(185.386 -0.0697342 -31.8727)
(207.428 1.90357 4.03293)
(208.06 0.887426 2.27515)
(208.375 0.0348834 0.472807)
(208.441 -0.660719 -1.36151)
(208.219 -1.23128 -3.38778)
(207.679 -1.68703 -5.81515)
(206.52 -1.99268 -8.87649)
(204.187 -2.12674 -13.5149)
(198.029 -1.86077 -19.6421)
(185.306 -0.799312 -34.2638)
(206.572 2.76963 3.39238)
(207.152 1.67671 1.66385)
(207.337 0.850658 -0.0525633)
(207.165 0.187353 -1.82451)
(206.628 -0.293662 -3.74848)
(205.717 -0.615384 -6.0382)
(204.2 -0.726521 -8.92238)
(201.63 -0.547168 -13.3057)
(195.609 0.217591 -19.5469)
(182.827 2.30023 -34.6945)
(201.781 0.949044 1.70183)
(202.218 0.547639 0.911442)
(202.369 0.165571 0.00792665)
(202.27 -0.157937 -0.896395)
(201.922 -0.428658 -1.80006)
(201.307 -0.641234 -2.62147)
(200.395 -0.807889 -3.29566)
(199.161 -0.952134 -3.68718)
(197.602 -1.12936 -3.58049)
(195.871 -1.36494 -2.75287)
(203.103 1.90733 1.79147)
(203.57 1.53185 0.718202)
(203.733 1.13468 -0.387658)
(203.602 0.741656 -1.49707)
(203.154 0.353975 -2.60166)
(202.344 -0.0311485 -3.67091)
(201.095 -0.424373 -4.62881)
(199.303 -0.848165 -5.347)
(196.838 -1.37072 -5.40302)
(194.04 -1.93802 -4.6197)
(204.092 1.75971 2.50366)
(204.602 1.21982 1.20617)
(204.778 0.690004 -0.15074)
(204.636 0.204445 -1.51793)
(204.136 -0.260328 -2.91211)
(203.208 -0.712639 -4.31337)
(201.717 -1.17191 -5.65528)
(199.468 -1.66442 -6.84634)
(196.113 -2.29586 -7.29998)
(192.034 -2.99167 -6.92404)
(204.551 2.52638 2.58726)
(205.108 1.97198 1.13191)
(205.313 1.42061 -0.354465)
(205.19 0.915923 -1.8611)
(204.689 0.432693 -3.42365)
(203.723 -0.0383759 -5.05634)
(202.095 -0.526363 -6.71333)
(199.508 -1.05371 -8.37935)
(195.291 -1.75954 -9.29352)
(189.826 -2.52585 -9.54032)
(205.137 2.10082 3.20292)
(205.738 1.4318 1.6255)
(205.978 0.800055 -0.0198477)
(205.897 0.249753 -1.68732)
(205.431 -0.261617 -3.4516)
(204.488 -0.741994 -5.35622)
(202.811 -1.22434 -7.38184)
(200.008 -1.72791 -9.61125)
(195.039 -2.44223 -11.1402)
(188.235 -3.18139 -12.368)
(205.393 2.92921 3.05286)
(206.022 2.23914 1.41854)
(206.29 1.59609 -0.2437)
(206.243 1.04551 -1.94372)
(205.817 0.548613 -3.75858)
(204.922 0.0929258 -5.78004)
(203.253 -0.359247 -8.01113)
(200.343 -0.826508 -10.6685)
(194.769 -1.50696 -12.7414)
(186.758 -2.16666 -15.135)
(205.796 2.14595 3.63104)
(206.458 1.34308 1.94772)
(206.752 0.623246 0.194542)
(206.746 0.0241151 -1.58889)
(206.367 -0.498319 -3.52099)
(205.538 -0.951847 -5.71762)
(203.915 -1.36301 -8.22168)
(200.976 -1.7448 -11.3675)
(194.944 -2.30058 -14.1236)
(185.842 -2.77413 -17.9494)
(205.883 3.04176 3.18201)
(206.553 2.21928 1.51808)
(206.845 1.51082 -0.159229)
(206.827 0.93377 -1.88655)
(206.443 0.463217 -3.75583)
(205.63 0.0769136 -5.92611)
(204.047 -0.24709 -8.46756)
(201.146 -0.536066 -11.8565)
(194.856 -0.880805 -15.1101)
(184.868 -1.19398 -20.3182)
(206.043 1.70839 3.76464)
(206.724 0.770857 2.12367)
(207.033 -0.016474 0.423971)
(207.038 -0.65291 -1.30791)
(206.688 -1.16978 -3.21024)
(205.919 -1.57422 -5.43806)
(204.393 -1.8458 -8.14334)
(201.582 -1.99546 -11.8892)
(195.221 -1.94758 -15.9862)
(184.257 -1.89925 -22.3806)
(205.255 2.64805 3.10268)
(205.888 1.64523 1.51479)
(206.106 0.893066 -0.0758451)
(205.943 0.293633 -1.72669)
(205.372 -0.131744 -3.51641)
(204.348 -0.403144 -5.61276)
(202.582 -0.481764 -8.16706)
(199.581 -0.316645 -11.7257)
(193.24 0.228205 -16.0578)
(181.785 1.20165 -22.8631)
(200.571 0.551054 1.19398)
(200.913 0.294849 0.666139)
(201.028 0.0339869 0.0357863)
(200.953 -0.195351 -0.583068)
(200.694 -0.396726 -1.18741)
(200.256 -0.562466 -1.6975)
(199.643 -0.702134 -2.06661)
(198.881 -0.830868 -2.20478)
(198.016 -0.975145 -2.02032)
(197.164 -1.14165 -1.42912)
(201.727 1.43437 1.31143)
(202.121 1.19987 0.51032)
(202.258 0.920591 -0.321181)
(202.144 0.622023 -1.14557)
(201.771 0.313374 -1.93587)
(201.123 -0.00410498 -2.64894)
(200.178 -0.334927 -3.21064)
(198.934 -0.688897 -3.51259)
(197.411 -1.09427 -3.32757)
(195.914 -1.5114 -2.51765)
(202.577 1.29254 2.05053)
(203.047 0.890434 1.01574)
(203.209 0.470628 -0.0832127)
(203.075 0.0688151 -1.18031)
(202.623 -0.329779 -2.26753)
(201.814 -0.729795 -3.30338)
(200.583 -1.14445 -4.20333)
(198.865 -1.59124 -4.8374)
(196.582 -2.12544 -4.81327)
(194.193 -2.69435 -3.92698)
(203.016 2.11716 2.14849)
(203.559 1.69091 0.935599)
(203.755 1.23738 -0.315382)
(203.625 0.803077 -1.57412)
(203.135 0.372727 -2.84703)
(202.225 -0.0602012 -4.11442)
(200.774 -0.519841 -5.29412)
(198.642 -1.0254 -6.2706)
(195.552 -1.6648 -6.46643)
(192.082 -2.3692 -5.60756)
(203.616 1.72859 2.79438)
(204.221 1.17878 1.43107)
(204.452 0.635613 -0.00645922)
(204.348 0.14577 -1.45379)
(203.858 -0.323037 -2.9535)
(202.908 -0.776774 -4.50648)
(201.316 -1.24395 -6.04462)
(198.86 -1.7469 -7.49225)
(194.995 -2.42649 -8.08614)
(190.378 -3.19397 -7.5344)
(203.913 2.607 2.66972)
(204.56 2.0244 1.227)
(204.822 1.46 -0.25175)
(204.741 0.962112 -1.75764)
(204.263 0.500653 -3.33662)
(203.308 0.0644595 -5.02971)
(201.636 -0.383856 -6.78407)
(198.952 -0.870577 -8.60572)
(194.392 -1.55939 -9.5598)
(188.652 -2.35319 -9.45953)
(204.361 1.85328 3.27575)
(205.049 1.15099 1.76122)
(205.337 0.505705 0.169174)
(205.29 -0.0420464 -1.44476)
(204.839 -0.529145 -3.16827)
(203.906 -0.962549 -5.06301)
(202.204 -1.37106 -7.11181)
(199.369 -1.77968 -9.39676)
(194.213 -2.37979 -10.8781)
(187.389 -3.09964 -11.5022)
(204.503 2.80589 2.83941)
(205.203 2.07971 1.33401)
(205.495 1.4406 -0.193455)
(205.439 0.912105 -1.76638)
(204.98 0.473454 -3.44896)
(204.044 0.106055 -5.34437)
(202.327 -0.218675 -7.45838)
(199.42 -0.543226 -9.9907)
(193.838 -0.99129 -11.8664)
(186.054 -1.65659 -13.2455)
(204.716 1.47463 3.45739)
(205.425 0.630478 1.9587)
(205.728 -0.0843445 0.386485)
(205.691 -0.659627 -1.21504)
(205.256 -1.12421 -2.95746)
(204.347 -1.48268 -4.93714)
(202.644 -1.72721 -7.22512)
(199.714 -1.89033 -10.0745)
(193.888 -1.98186 -12.6837)
(185.056 -2.39473 -14.8186)
(203.99 2.50149 2.77479)
(204.655 1.59935 1.34475)
(204.897 0.925143 -0.103697)
(204.74 0.389863 -1.61321)
(204.153 0.0174486 -3.24026)
(203.068 -0.209344 -5.102)
(201.199 -0.264038 -7.27268)
(198.102 -0.119003 -10.0005)
(192.174 0.260004 -12.8111)
(182.633 0.640332 -15.1309)
(199.739 0.251623 0.824914)
(199.993 0.0930675 0.488439)
(200.074 -0.0796132 0.0636274)
(200.023 -0.236554 -0.34269)
(199.848 -0.382141 -0.735378)
(199.56 -0.507388 -1.04649)
(199.175 -0.618539 -1.25086)
(198.723 -0.72307 -1.29412)
(198.247 -0.83171 -1.14383)
(197.791 -0.943257 -0.777504)
(200.717 1.04031 0.910936)
(201.019 0.910944 0.336797)
(201.126 0.728089 -0.260095)
(201.038 0.512342 -0.845122)
(200.754 0.277115 -1.38645)
(200.276 0.0266313 -1.84329)
(199.612 -0.23786 -2.15827)
(198.793 -0.516925 -2.25867)
(197.885 -0.815488 -2.03778)
(197.078 -1.10376 -1.43096)
(201.39 0.861424 1.63613)
(201.788 0.574882 0.842328)
(201.926 0.254658 -0.0151963)
(201.812 -0.0662097 -0.863714)
(201.436 -0.395902 -1.68083)
(200.783 -0.734911 -2.41792)
(199.839 -1.08982 -2.99862)
(198.61 -1.4693 -3.31459)
(197.135 -1.8954 -3.14388)
(195.749 -2.32539 -2.3465)
(201.757 1.7119 1.72051)
(202.246 1.40373 0.746332)
(202.422 1.04611 -0.26916)
(202.301 0.685324 -1.28309)
(201.859 0.315027 -2.28028)
(201.068 -0.0671494 -3.22105)
(199.87 -0.477872 -4.01847)
(198.23 -0.929627 -4.5453)
(196.095 -1.46866 -4.43727)
(193.954 -2.04085 -3.4391)
(202.315 1.34299 2.37762)
(202.883 0.910761 1.23676)
(203.097 0.459319 0.0180773)
(202.986 0.0358658 -1.20011)
(202.514 -0.381653 -2.43261)
(201.634 -0.795865 -3.64941)
(200.238 -1.22851 -4.76369)
(198.234 -1.69909 -5.64698)
(195.415 -2.29729 -5.77443)
(192.408 -2.96217 -4.76571)
(202.61 2.25815 2.26796)
(203.235 1.78716 1.03198)
(203.481 1.30752 -0.246476)
(203.383 0.869334 -1.54184)
(202.897 0.45196 -2.87076)
(201.963 0.0471961 -4.23241)
(200.422 -0.377761 -5.54364)
(198.122 -0.849353 -6.71201)
(194.64 -1.48325 -7.04643)
(190.723 -2.22648 -6.09541)
(203.069 1.53063 2.89467)
(203.746 0.936669 1.56785)
(204.019 0.37328 0.156898)
(203.944 -0.116411 -1.26708)
(203.463 -0.560897 -2.76053)
(202.51 -0.965218 -4.33682)
(200.874 -1.35705 -5.93764)
(198.341 -1.76605 -7.50454)
(194.245 -2.34326 -8.22482)
(189.395 -3.07477 -7.55864)
(203.239 2.54054 2.46838)
(203.936 1.92017 1.14029)
(204.217 1.35838 -0.217843)
(204.134 0.885114 -1.61524)
(203.638 0.485133 -3.087)
(202.659 0.143933 -4.68427)
(200.956 -0.168962 -6.36134)
(198.266 -0.501305 -8.14047)
(193.684 -0.973397 -9.13449)
(187.953 -1.71699 -8.79344)
(203.487 1.21047 3.12321)
(204.195 0.469738 1.78563)
(204.487 -0.167044 0.36087)
(204.418 -0.679475 -1.088)
(203.934 -1.09257 -2.64473)
(202.962 -1.40839 -4.35249)
(201.235 -1.62845 -6.21896)
(198.441 -1.79481 -8.27893)
(193.522 -1.95814 -9.83225)
(186.815 -2.51405 -9.91452)
(202.812 2.33619 2.41854)
(203.481 1.5422 1.15882)
(203.732 0.949071 -0.133967)
(203.582 0.478219 -1.48543)
(202.993 0.15647 -2.92834)
(201.898 -0.0308435 -4.53211)
(200.047 -0.0680839 -6.30675)
(197.092 0.0555907 -8.29697)
(191.995 0.313708 -9.98373)
(184.567 0.412599 -10.0825)
(199.165 0.0420712 0.57639)
(199.35 -0.0566317 0.369788)
(199.406 -0.170474 0.0876552)
(199.374 -0.275863 -0.172425)
(199.263 -0.37932 -0.425521)
(199.085 -0.471455 -0.616453)
(198.855 -0.556121 -0.736402)
(198.596 -0.635585 -0.752732)
(198.335 -0.712858 -0.658277)
(198.074 -0.784083 -0.451633)
(199.987 0.740592 0.599091)
(200.204 0.682265 0.200292)
(200.282 0.571955 -0.211163)
(200.22 0.423464 -0.609779)
(200.019 0.251602 -0.966783)
(199.689 0.0620567 -1.25027)
(199.247 -0.139832 -1.42132)
(198.729 -0.349701 -1.43692)
(198.196 -0.562418 -1.25228)
(197.758 -0.754378 -0.850831)
(200.484 0.495392 1.28431)
(200.798 0.296288 0.694413)
(200.909 0.0589397 0.0458159)
(200.82 -0.189474 -0.591019)
(200.528 -0.453205 -1.18887)
(200.034 -0.729525 -1.70218)
(199.348 -1.01969 -2.07146)
(198.506 -1.32493 -2.2226)
(197.578 -1.64869 -2.04288)
(196.774 -1.95772 -1.47326)
(200.756 1.34195 1.33076)
(201.169 1.13242 0.574045)
(201.319 0.861417 -0.222656)
(201.214 0.571721 -1.01228)
(200.844 0.263565 -1.7678)
(200.199 -0.0614589 -2.44283)
(199.265 -0.411932 -2.96162)
(198.062 -0.792818 -3.2204)
(196.636 -1.22231 -3.01375)
(195.323 -1.6581 -2.19305)
(201.237 0.972568 1.97829)
(201.74 0.646318 1.05188)
(201.928 0.282936 0.0481725)
(201.823 -0.0726803 -0.947981)
(201.401 -0.433837 -1.93188)
(200.638 -0.799445 -2.85718)
(199.485 -1.1836 -3.63815)
(197.931 -1.59961 -4.14866)
(195.952 -2.09703 -4.06607)
(194.018 -2.62793 -3.11854)
(201.496 1.90617 1.87005)
(202.069 1.54165 0.842089)
(202.291 1.14704 -0.231638)
(202.189 0.772067 -1.31385)
(201.731 0.404752 -2.39856)
(200.88 0.040596 -3.45747)
(199.545 -0.34561 -4.39853)
(197.675 -0.775189 -5.09978)
(195.126 -1.32004 -5.10529)
(192.504 -1.9458 -4.03109)
(201.938 1.19689 2.50652)
(202.573 0.711019 1.37489)
(202.824 0.232154 0.155209)
(202.735 -0.195422 -1.06958)
(202.261 -0.591815 -2.32906)
(201.355 -0.959388 -3.60161)
(199.881 -1.32174 -4.80836)
(197.739 -1.70688 -5.82719)
(194.631 -2.22182 -6.09926)
(191.266 -2.86465 -5.07347)
(202.109 2.25992 2.08464)
(202.773 1.74812 0.943469)
(203.036 1.26771 -0.233576)
(202.939 0.854077 -1.44316)
(202.441 0.497809 -2.69427)
(201.487 0.188545 -3.99748)
(199.909 -0.102079 -5.27598)
(197.561 -0.417698 -6.45333)
(193.978 -0.857896 -6.88319)
(189.879 -1.53918 -5.92338)
(202.377 0.926445 2.77523)
(203.057 0.293476 1.60964)
(203.33 -0.262323 0.345944)
(203.242 -0.711198 -0.93543)
(202.746 -1.0737 -2.29244)
(201.78 -1.34944 -3.72569)
(200.146 -1.546 -5.20101)
(197.646 -1.70592 -6.62902)
(193.704 -1.88957 -7.46379)
(188.79 -2.41861 -6.70016)
(201.74 2.16029 2.04532)
(202.386 1.47795 0.962346)
(202.635 0.967431 -0.165656)
(202.492 0.560755 -1.34761)
(201.923 0.287416 -2.59383)
(200.866 0.134963 -3.93392)
(199.131 0.110286 -5.33125)
(196.475 0.213097 -6.71453)
(192.318 0.384835 -7.61556)
(186.787 0.37241 -6.78117)
(198.759 -0.0985563 0.417807)
(198.896 -0.162781 0.295584)
(198.934 -0.239742 0.107053)
(198.915 -0.310376 -0.0578254)
(198.848 -0.383532 -0.222971)
(198.743 -0.450055 -0.343336)
(198.609 -0.512505 -0.420356)
(198.463 -0.570464 -0.432977)
(198.317 -0.623741 -0.38327)
(198.15 -0.668297 -0.273336)
(199.462 0.530599 0.367315)
(199.61 0.516834 0.096767)
(199.665 0.457754 -0.176535)
(199.623 0.360699 -0.437951)
(199.488 0.240277 -0.664879)
(199.271 0.102487 -0.835092)
(198.988 -0.0454699 -0.924313)
(198.67 -0.197269 -0.908707)
(198.359 -0.344907 -0.771821)
(198.116 -0.470724 -0.513393)
(199.805 0.204785 1.00213)
(200.038 0.0666005 0.574627)
(200.122 -0.106145 0.0961571)
(200.057 -0.293571 -0.370731)
(199.842 -0.498232 -0.800128)
(199.487 -0.715765 -1.1546)
(199.011 -0.944058 -1.39156)
(198.451 -1.17958 -1.46532)
(197.875 -1.41723 -1.32179)
(197.406 -1.63223 -0.94634)
(199.981 1.02633 0.994653)
(200.31 0.892801 0.424519)
(200.432 0.694994 -0.180608)
(200.348 0.469886 -0.776235)
(200.055 0.2217 -1.33172)
(199.556 -0.0451732 -1.80318)
(198.861 -0.332566 -2.13148)
(198.009 -0.639584 -2.24269)
(197.074 -0.967919 -2.0296)
(196.27 -1.28575 -1.42354)
(200.368 0.639062 1.61511)
(200.791 0.40142 0.883354)
(200.949 0.11744 0.079055)
(200.857 -0.172903 -0.713809)
(200.502 -0.476337 -1.47945)
(199.876 -0.788609 -2.1674)
(198.968 -1.11712 -2.70374)
(197.808 -1.46814 -2.98661)
(196.452 -1.86411 -2.83146)
(195.217 -2.26689 -2.08459)
(200.572 1.57159 1.49524)
(201.071 1.3015 0.66479)
(201.264 0.987147 -0.21098)
(201.168 0.675381 -1.0891)
(200.762 0.36118 -1.94897)
(200.029 0.0435782 -2.74879)
(198.93 -0.294147 -3.40237)
(197.471 -0.666139 -3.79557)
(195.657 -1.11011 -3.647)
(193.921 -1.60346 -2.71226)
(200.976 0.870598 2.12912)
(201.546 0.485658 1.18923)
(201.768 0.0893907 0.161081)
(201.677 -0.274924 -0.865923)
(201.239 -0.619954 -1.90113)
(200.428 -0.945192 -2.90241)
(199.167 -1.26878 -3.78745)
(197.433 -1.61293 -4.42105)
(195.148 -2.04666 -4.44749)
(192.848 -2.56764 -3.45694)
(201.127 1.97911 1.70443)
(201.733 1.57213 0.75031)
(201.971 1.17313 -0.24234)
(201.87 0.820923 -1.26108)
(201.4 0.511473 -2.29428)
(200.523 0.238239 -3.3255)
(199.137 -0.0225913 -4.26586)
(197.18 -0.305885 -5.00179)
(194.476 -0.683668 -5.08976)
(191.603 -1.2417 -4.0294)
(201.402 0.634414 2.42793)
(202.031 0.107754 1.43672)
(202.279 -0.36713 0.34033)
(202.183 -0.753171 -0.767044)
(201.704 -1.06638 -1.92176)
(200.799 -1.3042 -3.09462)
(199.335 -1.47737 -4.22896)
(197.207 -1.62397 -5.18399)
(194.166 -1.79834 -5.56512)
(190.665 -2.23201 -4.57263)
(200.789 1.9833 1.66785)
(201.39 1.41182 0.761407)
(201.626 0.98333 -0.198101)
(201.492 0.639596 -1.20542)
(200.962 0.412111 -2.25178)
(199.986 0.290275 -3.33738)
(198.432 0.274572 -4.39692)
(196.157 0.358296 -5.31041)
(192.901 0.468955 -5.69505)
(188.926 0.424345 -4.59124)
(198.46 -0.191809 0.321305)
(198.567 -0.237034 0.25224)
(198.592 -0.292013 0.12251)
(198.582 -0.340179 0.0170418)
(198.543 -0.392419 -0.0945487)
(198.482 -0.440124 -0.174405)
(198.406 -0.48534 -0.229683)
(198.325 -0.526586 -0.245343)
(198.241 -0.562634 -0.226323)
(198.121 -0.590058 -0.17361)
(199.081 0.396216 0.199479)
(199.178 0.408884 0.019092)
(199.215 0.384298 -0.155759)
(199.188 0.32478 -0.320358)
(199.102 0.244062 -0.458568)
(198.964 0.147812 -0.556172)
(198.789 0.0432938 -0.598969)
(198.597 -0.0629707 -0.574077)
(198.416 -0.163247 -0.477331)
(198.279 -0.244557 -0.311641)
(199.297 -0.0130346 0.785501)
(199.462 -0.111618 0.481432)
(199.523 -0.236566 0.134801)
(199.478 -0.375224 -0.202037)
(199.327 -0.529849 -0.507321)
(199.083 -0.695958 -0.752823)
(198.763 -0.869696 -0.909787)
(198.402 -1.04548 -0.952072)
(198.047 -1.21553 -0.854327)
(197.771 -1.36188 -0.621831)
(199.393 0.772634 0.717157)
(199.643 0.693727 0.299654)
(199.737 0.554442 -0.145861)
(199.674 0.385001 -0.581574)
(199.454 0.191447 -0.978581)
(199.085 -0.0202901 -1.30017)
(198.586 -0.247691 -1.50353)
(198 -0.486342 -1.54015)
(197.395 -0.730052 -1.35775)
(196.901 -0.955165 -0.931583)
(199.684 0.356025 1.29895)
(200.022 0.187873 0.735269)
(200.15 -0.0282285 0.107017)
(200.075 -0.258959 -0.508507)
(199.79 -0.506658 -1.09108)
(199.3 -0.764997 -1.59402)
(198.615 -1.03652 -1.95892)
(197.776 -1.32157 -2.11245)
(196.862 -1.62684 -1.95422)
(196.076 -1.92114 -1.4113)
(199.825 1.26972 1.15776)
(200.241 1.07815 0.505752)
(200.402 0.835547 -0.187795)
(200.317 0.583813 -0.879786)
(199.976 0.322837 -1.54229)
(199.374 0.054407 -2.13056)
(198.507 -0.230369 -2.57196)
(197.408 -0.539249 -2.77558)
(196.142 -0.886796 -2.57472)
(195.002 -1.25732 -1.84133)
(200.181 0.567686 1.77732)
(200.671 0.271653 1.01661)
(200.862 -0.0477667 0.171374)
(200.776 -0.350527 -0.668447)
(200.393 -0.643336 -1.49882)
(199.701 -0.923133 -2.26928)
(198.67 -1.20273 -2.90499)
(197.318 -1.49706 -3.28528)
(195.676 -1.84709 -3.19663)
(194.124 -2.24546 -2.37609)
(200.293 1.71216 1.34267)
(200.825 1.40094 0.567107)
(201.033 1.0796 -0.246063)
(200.936 0.787989 -1.07967)
(200.515 0.526388 -1.90796)
(199.748 0.291491 -2.69977)
(198.585 0.0651921 -3.36783)
(197.017 -0.178133 -3.80031)
(195.031 -0.485395 -3.70301)
(193.052 -0.91041 -2.75651)
(200.568 0.3461 2.09536)
(201.129 -0.0808842 1.27281)
(201.348 -0.477978 0.342457)
(201.253 -0.803575 -0.592721)
(200.815 -1.06955 -1.55271)
(200.007 -1.27154 -2.49085)
(198.754 -1.42129 -3.34289)
(197.017 -1.55012 -3.96247)
(194.74 -1.70151 -4.08207)
(192.303 -2.03018 -3.14723)
(199.968 1.81518 1.29876)
(200.505 1.34964 0.562091)
(200.72 1.00025 -0.231095)
(200.599 0.716966 -1.06536)
(200.122 0.532279 -1.91749)
(199.257 0.43712 -2.76896)
(197.923 0.427783 -3.54129)
(196.052 0.494868 -4.10952)
(193.582 0.562942 -4.17928)
(190.808 0.519248 -3.11549)
(198.232 -0.255847 0.265867)
(198.319 -0.290786 0.229563)
(198.337 -0.333241 0.135488)
(198.332 -0.367373 0.0658151)
(198.31 -0.405699 -0.0139955)
(198.275 -0.440185 -0.0711313)
(198.232 -0.472799 -0.115476)
(198.187 -0.501832 -0.135259)
(198.136 -0.525923 -0.135994)
(198.043 -0.542365 -0.116923)
(198.799 0.320852 0.0782663)
(198.861 0.348686 -0.040256)
(198.885 0.346591 -0.147067)
(198.869 0.31354 -0.245219)
(198.816 0.262298 -0.324135)
(198.731 0.197844 -0.375316)
(198.625 0.126549 -0.390979)
(198.511 0.0542531 -0.363991)
(198.405 -0.0126891 -0.295278)
(198.326 -0.0647211 -0.185954)
(198.915 -0.168059 0.624981)
(199.028 -0.242318 0.411126)
(199.07 -0.333338 0.162533)
(199.04 -0.434659 -0.0787105)
(198.939 -0.54892 -0.295583)
(198.776 -0.672493 -0.46801)
(198.568 -0.800927 -0.57734)
(198.339 -0.928452 -0.609509)
(198.123 -1.04755 -0.552214)
(197.96 -1.1456 -0.417697)
(198.954 0.579767 0.495877)
(199.136 0.537746 0.198468)
(199.206 0.443103 -0.119599)
(199.161 0.3195 -0.428763)
(199.002 0.173275 -0.704617)
(198.739 0.0108999 -0.918864)
(198.393 -0.16312 -1.04216)
(198 -0.342843 -1.04429)
(197.611 -0.519595 -0.902077)
(197.308 -0.676321 -0.609741)
(199.156 0.129365 1.03359)
(199.415 0.0127848 0.60896)
(199.514 -0.147878 0.129535)
(199.456 -0.326624 -0.337699)
(199.238 -0.523212 -0.772468)
(198.87 -0.730552 -1.13573)
(198.369 -0.947947 -1.38416)
(197.78 -1.17198 -1.46913)
(197.171 -1.40173 -1.33826)
(196.674 -1.61146 -0.963707)
(199.235 1.00969 0.866199)
(199.567 0.879629 0.368528)
(199.697 0.698125 -0.164606)
(199.627 0.500777 -0.694127)
(199.352 0.290471 -1.1904)
(198.879 0.0708064 -1.61233)
(198.219 -0.160996 -1.90292)
(197.416 -0.408091 -1.99708)
(196.547 -0.671662 -1.79861)
(195.804 -0.940769 -1.25429)
(199.543 0.300119 1.4617)
(199.948 0.078435 0.861145)
(200.105 -0.172601 0.183155)
(200.03 -0.417973 -0.487048)
(199.711 -0.660059 -1.13799)
(199.146 -0.893896 -1.71955)
(198.334 -1.12804 -2.16947)
(197.313 -1.37044 -2.39232)
(196.156 -1.64421 -2.26744)
(195.12 -1.93659 -1.63864)
(199.604 1.47059 1.01138)
(200.052 1.24244 0.399095)
(200.227 0.992003 -0.246641)
(200.141 0.757713 -0.908212)
(199.78 0.542942 -1.55196)
(199.139 0.346818 -2.14158)
(198.199 0.157198 -2.59942)
(196.988 -0.0438705 -2.83418)
(195.561 -0.28472 -2.65425)
(194.218 -0.594838 -1.88858)
(199.876 0.0717057 1.78973)
(200.358 -0.266208 1.12326)
(200.544 -0.591351 0.350768)
(200.457 -0.860575 -0.42147)
(200.075 -1.08227 -1.20233)
(199.385 -1.2508 -1.93801)
(198.355 -1.37758 -2.56669)
(196.989 -1.48635 -2.96002)
(195.326 -1.60998 -2.94812)
(193.663 -1.84766 -2.17778)
(199.278 1.66539 0.949202)
(199.74 1.2974 0.36989)
(199.928 1.02194 -0.264821)
(199.822 0.795285 -0.933921)
(199.41 0.649781 -1.60483)
(198.672 0.577633 -2.24967)
(197.569 0.572799 -2.78837)
(196.087 0.625855 -3.11463)
(194.264 0.664531 -3.01093)
(192.376 0.633191 -2.10697)
(198.051 -0.304415 0.237572)
(198.126 -0.333792 0.221014)
(198.139 -0.369488 0.147741)
(198.137 -0.395188 0.0987619)
(198.124 -0.424581 0.037281)
(198.105 -0.450151 -0.00769095)
(198.081 -0.473954 -0.0468921)
(198.055 -0.4944 -0.0705264)
(198.024 -0.510331 -0.0840002)
(197.945 -0.519667 -0.0851154)
(198.586 0.28936 -0.0112286)
(198.625 0.326043 -0.0877962)
(198.641 0.338323 -0.148324)
(198.632 0.323559 -0.201443)
(198.599 0.293583 -0.240935)
(198.548 0.252523 -0.261988)
(198.485 0.205608 -0.26076)
(198.417 0.157687 -0.232983)
(198.355 0.113574 -0.181747)
(198.308 0.0804842 -0.105165)
(198.624 -0.273177 0.5095)
(198.698 -0.333133 0.359388)
(198.726 -0.400794 0.181181)
(198.706 -0.474595 0.00782715)
(198.641 -0.557777 -0.147783)
(198.536 -0.647694 -0.272097)
(198.404 -0.740256 -0.353211)
(198.262 -0.830427 -0.384059)
(198.131 -0.912057 -0.357712)
(198.034 -0.976541 -0.28829)
(198.629 0.441084 0.324056)
(198.758 0.422502 0.118236)
(198.808 0.360584 -0.101723)
(198.777 0.27326 -0.314174)
(198.666 0.166329 -0.500155)
(198.485 0.0459427 -0.638965)
(198.251 -0.0829937 -0.711382)
(197.992 -0.214411 -0.699098)
(197.745 -0.339895 -0.593744)