/*--------------------------------*- C++ -*----------------------------------*\
  =========                 |
  \\      /  F ield         | OpenFOAM: The Open Source CFD Toolbox
   \\    /   O peration     | Website:  https://openfoam.org
    \\  /    A nd           | Version:  6
     \\/     M anipulation  |
\*---------------------------------------------------------------------------*/
FoamFile
{
    version     2.0;
    format      ascii;
    class       volScalarField;
    location    "250";
    object      k;
}
// * * * * * * * * * * * * * * * * * * * * * * * * * * * * * * * * * * * * * //

dimensions      [0 2 -2 0 0 0 0];

internalField   nonuniform List<scalar> 
3072
(
0.0583133
0.0623852
0.0655367
0.0623051
0.0577791
0.0682849
0.166689
0.324037
0.398654
0.434305
0.460469
0.472646
0.0820221
0.138249
0.146544
0.134823
0.185426
0.264541
0.331455
0.455801
0.555122
0.659106
0.75203
0.829786
0.124709
0.251708
0.298061
0.288451
0.313028
0.418305
0.536807
0.671849
0.791683
0.89969
0.987216
1.05204
0.159251
0.312035
0.349598
0.362158
0.440731
0.568402
0.698287
0.82442
0.935199
1.03068
1.1067
1.16214
0.180543
0.367147
0.41644
0.452858
0.549439
0.676415
0.803124
0.919331
1.02031
1.10667
1.17592
1.22747
0.186144
0.387479
0.456833
0.518411
0.621156
0.744814
0.864757
0.971846
1.06516
1.1454
1.21119
1.26184
0.181125
0.382621
0.470343
0.556619
0.66743
0.787923
0.901518
1.00225
1.09011
1.16592
1.22913
1.27921
0.174897
0.373577
0.482909
0.59303
0.715442
0.835355
0.943372
1.0374
1.11858
1.18832
1.24684
1.29406
0.173661
0.377304
0.526877
0.675068
0.814021
0.932641
1.03015
1.11087
1.17849
1.23562
1.28339
1.32197
0.182825
0.41939
0.662332
0.863598
1.01466
1.12042
1.19526
1.25068
1.29299
1.3267
1.35382
1.3749
0.210407
0.558758
0.962273
1.20617
1.33453
1.403
1.43787
1.45509
1.46004
1.46001
1.45718
1.45214
0.597281
0.981185
1.42217
1.61838
1.68479
1.69789
1.68773
1.66257
1.6312
1.59731
1.5633
1.52995
0.477956
0.474482
0.468565
0.457993
0.440798
0.417576
0.387713
0.349951
0.303118
0.24814
0.190111
0.153802
0.889493
0.922256
0.926947
0.911577
0.883001
0.848471
0.809353
0.761552
0.695376
0.564173
0.407336
0.343379
1.09026
1.10021
1.09397
1.072
1.04211
1.00954
0.976083
0.939053
0.888728
0.798748
0.597836
0.479024
1.19589
1.20741
1.20517
1.19003
1.16751
1.14295
1.11981
1.0974
1.06803
1.00781
0.836404
0.590324
1.26125
1.27632
1.27762
1.26778
1.25202
1.23559
1.2234
1.21514
1.20513
1.16971
1.03262
0.681234
1.29702
1.31675
1.32321
1.32041
1.31283
1.30641
1.30553
1.31351
1.32482
1.31792
1.22818
0.770836
1.31584
1.33933
1.35141
1.35528
1.35544
1.3577
1.36811
1.39152
1.4252
1.44499
1.39816
0.854241
1.32984
1.3546
1.36975
1.37808
1.38386
1.39308
1.41259
1.45011
1.50624
1.55491
1.53951
0.951725
1.35149
1.37247
1.38608
1.39471
1.40227
1.41427
1.438
1.48515
1.56478
1.64784
1.65715
1.05643
1.39024
1.40032
1.40602
1.40941
1.414
1.42387
1.44718
1.49777
1.59301
1.72042
1.77872
1.16522
1.44533
1.43741
1.42897
1.42135
1.41854
1.42373
1.44255
1.49042
1.59288
1.75692
1.90843
1.28945
1.49817
1.46948
1.44415
1.42371
1.40986
1.41028
1.42257
1.46203
1.55484
1.74779
2.01759
1.46581
0.0591066
0.0630022
0.0660151
0.0627683
0.0580704
0.0683749
0.16588
0.323233
0.39798
0.433614
0.459802
0.471992
0.0820421
0.138438
0.147042
0.135238
0.185391
0.264141
0.330659
0.454803
0.553984
0.657852
0.750686
0.828427
0.124887
0.251904
0.298159
0.288437
0.312422
0.417428
0.535663
0.670544
0.790238
0.89814
0.985621
1.05043
0.159238
0.311964
0.349375
0.361736
0.439909
0.56734
0.697036
0.823022
0.933666
1.02904
1.10502
1.16043
0.180404
0.366857
0.416078
0.452256
0.548532
0.675288
0.801814
0.917884
1.01873
1.105
1.1742
1.22574
0.185959
0.387065
0.456309
0.517699
0.620203
0.743645
0.86343
0.970377
1.06358
1.14372
1.20946
1.26009
0.180935
0.382173
0.469734
0.55583
0.666441
0.786765
0.900214
1.00083
1.08858
1.1643
1.22747
1.27752
0.174712
0.373136
0.48229
0.592255
0.714522
0.834301
0.942203
1.03612
1.11722
1.18687
1.24534
1.29253
0.173507
0.376896
0.526309
0.674391
0.813273
0.931819
1.02925
1.10988
1.17742
1.23447
1.28217
1.3207
0.182669
0.419034
0.661872
0.863131
1.01419
1.11992
1.19471
1.25007
1.2923
1.32592
1.35297
1.37399
0.21026
0.558409
0.961985
1.20591
1.33432
1.4028
1.43765
1.45486
1.45973
1.45962
1.45671
1.4516
0.597287
0.981014
1.42202
1.61829
1.68475
1.69786
1.6877
1.66253
1.63112
1.59717
1.5631
1.52968
0.477326
0.47387
0.467993
0.457454
0.440307
0.417128
0.387317
0.34961
0.302837
0.247918
0.189939
0.15366
0.88812
0.920932
0.92568
0.910445
0.881954
0.847504
0.808473
0.760757
0.694686
0.563635
0.406973
0.343088
1.0887
1.09869
1.09255
1.07067
1.04087
1.00839
0.975012
0.938068
0.887838
0.797982
0.597285
0.478652
1.19424
1.20583
1.20365
1.18859
1.16614
1.14166
1.1186
1.09627
1.06699
1.0069
0.835685
0.589872
1.25959
1.27472
1.27606
1.26625
1.25055
1.2342
1.22208
1.2139
1.20397
1.16866
1.03176
0.680732
1.29531
1.31508
1.32158
1.31883
1.31131
1.30495
1.30414
1.31219
1.32357
1.31679
1.22722
0.770289
1.31416
1.33769
1.34981
1.35372
1.35393
1.35624
1.3667
1.39016
1.4239
1.44379
1.39713
0.853658
1.32831
1.35308
1.36827
1.37662
1.38245
1.39169
1.41122
1.44877
1.50494
1.55369
1.53843
0.951113
1.3502
1.37118
1.3848
1.39345
1.40102
1.41305
1.43679
1.48392
1.56355
1.64663
1.65609
1.05579
1.38928
1.39933
1.40502
1.40841
1.413
1.42285
1.44613
1.49667
1.59187
1.71928
1.77766
1.16457
1.44472
1.43676
1.42828
1.42063
1.41779
1.42296
1.44173
1.48954
1.59191
1.75588
1.90741
1.2888
1.49784
1.4691
1.44372
1.42324
1.40935
1.40975
1.42199
1.46139
1.55409
1.74692
2.01667
1.46514
0.0591246
0.0629985
0.0659688
0.0626834
0.0580365
0.0685574
0.167279
0.324369
0.398813
0.434476
0.460622
0.472798
0.0820988
0.13838
0.146988
0.13527
0.18583
0.26458
0.331786
0.456148
0.555512
0.659523
0.75246
0.830202
0.125136
0.25241
0.298498
0.288577
0.313243
0.418738
0.537348
0.672384
0.792219
0.900217
0.987722
1.05252
0.15956
0.312479
0.349982
0.362545
0.441279
0.569005
0.698877
0.82497
0.935722
1.03118
1.1072
1.16263
0.180837
0.367556
0.416863
0.45338
0.550031
0.676983
0.803635
0.919791
1.02075
1.1071
1.17635
1.2279
0.186341
0.387748
0.457178
0.518856
0.621622
0.74524
0.865124
0.972176
1.06548
1.14572
1.21153
1.26219
0.181252
0.382824
0.470595
0.556935
0.667741
0.788194
0.901751
1.00247
1.09034
1.16616
1.2294
1.2795
0.174994
0.373674
0.483091
0.593233
0.715628
0.835514
0.94353
1.03756
1.11877
1.18853
1.24708
1.29432
0.17369
0.377342
0.526934
0.675103
0.814038
0.932684
1.03024
1.111
1.17867
1.23584
1.28364
1.32224
0.182807
0.419291
0.662173
0.863405
1.01452
1.12038
1.19533
1.25082
1.29319
1.32696
1.35411
1.37522
0.210351
0.558465
0.961874
1.20578
1.33424
1.40286
1.4379
1.4552
1.46024
1.46029
1.45751
1.4525
0.597233
0.980885
1.42177
1.61795
1.68444
1.69766
1.68771
1.66266
1.63139
1.59757
1.56362
1.5303
0.478093
0.474609
0.468667
0.458075
0.440854
0.41761
0.387728
0.349946
0.303099
0.248109
0.190066
0.153763
0.889885
0.92261
0.927271
0.911827
0.883207
0.848628
0.809465
0.76162
0.695403
0.564167
0.40729
0.343312
1.09072
1.10064
1.09436
1.07235
1.04241
1.00978
0.97626
0.93917
0.88879
0.79876
0.597817
0.478964
1.19636
1.20787
1.2056
1.19043
1.16786
1.14325
1.12004
1.09757
1.06814
1.00787
0.836402
0.590272
1.26169
1.27675
1.27804
1.26818
1.2524
1.23592
1.22368
1.21536
1.20529
1.16979
1.03264
0.681193
1.29739
1.31713
1.3236
1.32079
1.3132
1.30675
1.30584
1.31377
1.32502
1.31805
1.22823
0.770808
1.31615
1.33967
1.35176
1.35564
1.35579
1.35804
1.36844
1.3918
1.42543
1.44516
1.39824
0.854225
1.33013
1.35491
1.37008
1.37841
1.38421
1.39342
1.41292
1.45042
1.50651
1.55512
1.53962
0.951727
1.35178
1.37278
1.38641
1.39504
1.40261
1.41461
1.43835
1.4855
1.5651
1.6481
1.6573
1.05646
1.39057
1.40066
1.40636
1.40976
1.41436
1.42423
1.44755
1.49815
1.59338
1.72073
1.77889
1.16527
1.4457
1.43778
1.42934
1.42172
1.41894
1.42413
1.44295
1.49084
1.59331
1.7573
1.90863
1.28953
1.49854
1.46986
1.44453
1.4241
1.41042
1.4108
1.42302
1.4625
1.55533
1.74826
2.01784
1.46595
0.0591242
0.0630206
0.0660357
0.0627935
0.0580914
0.0683795
0.165855
0.323221
0.397962
0.43358
0.459764
0.471953
0.0820568
0.138469
0.147074
0.135272
0.185425
0.264077
0.330618
0.454721
0.553882
0.657738
0.750567
0.828314
0.124886
0.251887
0.298192
0.288477
0.312318
0.417257
0.535508
0.67037
0.790051
0.897941
0.985414
1.05022
0.159229
0.311935
0.349306
0.361611
0.439699
0.567121
0.696819
0.822792
0.933423
1.02879
1.10475
1.16016
0.180374
0.366801
0.415977
0.452057
0.5483
0.675049
0.801558
0.917623
1.01846
1.10471
1.1739
1.22544
0.185931
0.387017
0.456204
0.517488
0.619953
0.743386
0.863161
0.970101
1.06329
1.14342
1.20915
1.25977
0.18091
0.382119
0.469616
0.555613
0.666175
0.786487
0.89993
1.00054
1.08828
1.16399
1.22715
1.27721
0.174672
0.373068
0.482156
0.592031
0.714249
0.834008
0.941904
1.03582
1.11691
1.18656
1.24503
1.29222
0.173473
0.376826
0.526167
0.674182
0.813017
0.93154
1.02896
1.10958
1.17713
1.23418
1.28188
1.32042
0.182643
0.418988
0.661792
0.863024
1.01405
1.11975
1.1945
1.24985
1.29207
1.32569
1.35273
1.37375
0.210255
0.558456
0.962061
1.20598
1.33435
1.40278
1.43758
1.45477
1.45961
1.45947
1.45655
1.45143
0.597379
0.981199
1.4222
1.61846
1.68489
1.69797
1.68775
1.66255
1.63111
1.59713
1.56304
1.5296
0.477292
0.473844
0.46798
0.457452
0.440315
0.417146
0.387343
0.349643
0.302876
0.247959
0.189989
0.153704
0.888016
0.920839
0.925598
0.910382
0.881909
0.84748
0.808469
0.760774
0.694723
0.563686
0.40704
0.343165
1.0885
1.09849
1.09237
1.07052
1.04074
1.0083
0.974957
0.938049
0.887854
0.798028
0.597345
0.478726
1.19397
1.20558
1.20341
1.18837
1.16595
1.14151
1.11849
1.0962
1.06697
1.00692
0.835747
0.589947
1.25928
1.27443
1.27577
1.26599
1.25032
1.234
1.22194
1.2138
1.20393
1.16867
1.03183
0.680807
1.29499
1.31477
1.32129
1.31856
1.31106
1.30474
1.30397
1.31207
1.32351
1.3168
1.22729
0.770369
1.31385
1.33738
1.34951
1.35345
1.35368
1.35603
1.36653
1.39004
1.42384
1.44381
1.39721
0.853744
1.32801
1.35279
1.36799
1.37636
1.38221
1.39148
1.41106
1.44866
1.50489
1.55371
1.53852
0.95121
1.34992
1.37091
1.38455
1.39321
1.4008
1.41286
1.43664
1.48382
1.56351
1.64666
1.6562
1.05589
1.38905
1.39911
1.4048
1.4082
1.41282
1.42269
1.446
1.49658
1.59183
1.71931
1.77778
1.16467
1.44455
1.43659
1.42812
1.42048
1.41765
1.42284
1.44164
1.48947
1.59188
1.75591
1.90755
1.28891
1.49776
1.46901
1.44362
1.42316
1.40927
1.40968
1.42194
1.46135
1.55407
1.74694
2.01681
1.46526
1.76898
1.77802
1.79904
1.82227
1.82735
1.8186
1.79472
1.7571
1.71312
1.66411
1.61318
1.56221
1.74187
1.71031
1.70349
1.70961
1.71832
1.71728
1.70562
1.6854
1.65522
1.6133
1.56537
1.51475
1.60819
1.58692
1.56794
1.55426
1.54692
1.53783
1.5248
1.50759
1.48668
1.46059
1.42901
1.39197
1.45254
1.43559
1.41503
1.3916
1.36784
1.34513
1.32397
1.3049
1.28665
1.26805
1.24939
1.23121
1.51337
1.47015
1.43299
1.40379
1.38302
1.37891
1.38627
1.41651
1.48955
1.65409
1.9717
1.88952
1.4641
1.41927
1.38155
1.35313
1.33377
1.32959
1.33582
1.36049
1.41481
1.52145
1.77112
1.79639
1.3532
1.32133
1.29541
1.27722
1.26659
1.26517
1.27438
1.29545
1.33878
1.40057
1.55809
1.6261
1.21594
1.20406
1.19326
1.18619
1.18358
1.18522
1.19738
1.21844
1.25863
1.30083
1.39472
1.45726
1.76933
1.77823
1.79918
1.82227
1.82731
1.81855
1.79466
1.75704
1.71305
1.66403
1.61307
1.56206
1.74216
1.71053
1.70361
1.70964
1.71825
1.71717
1.70548
1.68524
1.65506
1.61314
1.56521
1.51458
1.60836
1.58708
1.56806
1.55428
1.54687
1.53772
1.52463
1.50737
1.48643
1.46034
1.42876
1.39173
1.45262
1.43566
1.41507
1.39158
1.36776
1.34499
1.32377
1.30461
1.28636
1.26777
1.24913
1.23099
1.51318
1.46993
1.43273
1.4035
1.38269
1.37855
1.38589
1.41609
1.48905
1.65347
1.97098
1.88883
1.46392
1.41909
1.38136
1.35294
1.33357
1.3294
1.33562
1.36027
1.41457
1.52116
1.77074
1.79604
1.35298
1.32115
1.29526
1.2771
1.26651
1.26513
1.27437
1.29548
1.33883
1.40062
1.55809
1.62613
1.21577
1.20398
1.19325
1.18625
1.18369
1.18542
1.19765
1.21877
1.25901
1.30123
1.39512
1.45765
1.76888
1.77791
1.7989
1.82205
1.82716
1.81845
1.79467
1.75715
1.71326
1.66433
1.61346
1.56253
1.74188
1.71039
1.70359
1.7097
1.71838
1.71735
1.70571
1.68551
1.65537
1.61352
1.56563
1.51506
1.60844
1.58722
1.56826
1.55458
1.54723
1.53812
1.52507
1.50785
1.48694
1.46087
1.42931
1.39231
1.45303
1.43609
1.41553
1.39208
1.3683
1.34556
1.32438
1.30526
1.28702
1.26843
1.24979
1.23164
1.51372
1.47054
1.43339
1.40421
1.38347
1.37939
1.38676
1.41702
1.4901
1.65467
1.97211
1.88985
1.46445
1.41966
1.38198
1.35359
1.33426
1.33011
1.33637
1.36108
1.41544
1.52211
1.77175
1.79693
1.35358
1.32177
1.2959
1.27774
1.26715
1.26577
1.27501
1.29612
1.33949
1.40132
1.55888
1.62683
1.21641
1.20459
1.19383
1.1868
1.18422
1.18591
1.19811
1.21922
1.25944
1.30167
1.3956
1.4581
1.76956
1.77846
1.79943
1.82255
1.82759
1.81881
1.79487
1.75721
1.71318
1.66412
1.61313
1.5621
1.74266
1.71101
1.70409
1.71012
1.71871
1.7176
1.70587
1.6856
1.65536
1.61337
1.5654
1.51474
1.60907
1.58776
1.56871
1.55489
1.54747
1.53828
1.52515
1.50786
1.4869
1.46076
1.42913
1.39203
1.45343
1.43644
1.4158
1.39228
1.36842
1.34561
1.32435
1.30513
1.28685
1.26823
1.24956
1.23136
1.5132
1.46994
1.43273
1.4035
1.3827
1.37857
1.38591
1.4161
1.48906
1.65348
1.9711
1.88896
1.46407
1.41922
1.38148
1.35305
1.33367
1.32949
1.33569
1.36033
1.4146
1.52116
1.77076
1.79604
1.35326
1.32139
1.29548
1.27728
1.26667
1.26525
1.27445
1.29551
1.3388
1.40055
1.55797
1.62595
1.21609
1.20421
1.19343
1.18637
1.18377
1.18543
1.19758
1.21863
1.25879
1.30094
1.39478
1.45728
1.28854
1.2611
1.23205
1.20185
1.1732
1.14731
1.12522
1.10714
1.09239
1.08136
1.07593
1.07673
1.14374
1.11864
1.09207
1.0638
1.03525
1.00784
0.983751
0.964689
0.950985
0.943076
0.941278
0.943421
1.02483
1.00848
0.989138
0.965376
0.937225
0.906573
0.87722
0.852598
0.833576
0.819311
0.808309
0.800893
0.929043
0.923025
0.912037
0.893118
0.864749
0.829124
0.791234
0.755268
0.721993
0.688605
0.653287
0.624629
1.08234
1.07853
1.06451
1.06277
1.0696
1.08736
1.11785
1.15788
1.20701
1.25361
1.29894
1.31442
0.952024
0.945998
0.923108
0.9212
0.934474
0.962962
1.00475
1.05448
1.10612
1.14526
1.17005
1.17096
0.811144
0.817044
0.791988
0.791179
0.809019
0.843176
0.889674
0.942225
0.991415
1.02466
1.04268
1.04259
0.636448
0.68657
0.673582
0.677073
0.698662
0.735185
0.782227
0.833499
0.879872
0.911481
0.929383
0.93437
1.28855
1.26104
1.23193
1.20168
1.17298
1.14705
1.12494
1.10687
1.09217
1.08121
1.07586
1.07673
1.14369
1.11847
1.09185
1.06354
1.03495
1.00754
0.983471
0.96447
0.950853
0.943052
0.941387
0.943638
1.02475
1.00825
0.988865
0.965075
0.936902
0.906259
0.876964
0.852434
0.83352
0.819376
0.808523
0.801295
0.928951
0.922782
0.911757
0.892814
0.864429
0.828823
0.791002
0.755137
0.721973
0.688696
0.653517
0.625047
1.08244
1.07878
1.06486
1.06321
1.07012
1.08794
1.11846
1.15852
1.20766
1.25427
1.29959
1.31508
0.95238
0.946556
0.923801
0.921977
0.935303
0.963811
1.0056
1.05532
1.10695
1.14609
1.17089
1.17179
0.811741
0.817832
0.792922
0.792168
0.810033
0.844178
0.89065
0.943171
0.992347
1.02559
1.0436
1.04351
0.637226
0.687514
0.674641
0.67817
0.699758
0.736252
0.783252
0.834486
0.880838
0.912439
0.930341
0.935321
1.28921
1.26172
1.23263
1.2024
1.17371
1.14779
1.12567
1.10758
1.09285
1.08185
1.07646
1.07729
1.14453
1.11931
1.09269
1.06438
1.03578
1.00835
0.984234
0.965173
0.951488
0.943611
0.941856
0.944037
1.02568
1.00917
0.989773
0.965968
0.937775
0.907089
0.877716
0.853087
0.834071
0.819822
0.808862
0.801518
0.929898
0.923717
0.912672
0.893711
0.865303
0.829644
0.791726
0.755737
0.722441
0.689041
0.653748
0.625178
1.08293
1.07918
1.06521
1.06351
1.07038
1.08817
1.11867
1.15872
1.20786
1.25447
1.29979
1.31524
0.952687
0.946745
0.923906
0.922027
0.935317
0.963809
1.00559
1.05532
1.10694
1.14606
1.17084
1.17173
0.811849
0.817822
0.792805
0.792004
0.809842
0.843987
0.89047
0.943006
0.992171
1.0254
1.0434
1.04329
0.63716
0.687331
0.674357
0.67784
0.699414
0.735918
0.782942
0.834197
0.880545
0.912133
0.930022
0.934992
1.28933
1.26178
1.23264
1.20234
1.17359
1.14761
1.12544
1.10731
1.09257
1.08154
1.07612
1.07693
1.14442
1.11917
1.09251
1.06415
1.03551
1.00803
0.983895
0.964822
0.951131
0.943237
0.941452
0.943599
1.02542
1.00889
0.989473
0.965637
0.937405
0.90669
0.877308
0.852685
0.833671
0.819408
0.808413
0.801021
0.929549
0.923358
0.912302
0.893316
0.864874
0.829193
0.791275
0.755297
0.722013
0.6886
0.653279
0.624653
1.08254
1.07876
1.06476
1.06303
1.06986
1.08761
1.11806
1.15806
1.20716
1.25375
1.29906
1.31454
0.952217
0.94624
0.923381
0.921473
0.934728
0.963182
1.00493
1.05462
1.10623
1.14538
1.17021
1.17114
0.811309
0.817256
0.792233
0.791415
0.809224
0.843338
0.889789
0.9423
0.991479
1.02475
1.0428
1.04276
0.636586
0.686735
0.673774
0.677251
0.698805
0.735282
0.782274
0.833504
0.87986
0.911487
0.929435
0.934479
0.850654
0.854133
0.85124
0.837214
0.808709
0.767528
0.718518
0.665228
0.606405
0.53034
0.405928
0.237425
0.784807
0.795993
0.799904
0.791022
0.763232
0.717352
0.656975
0.584589
0.497161
0.381302
0.205757
0.0739494
0.726446
0.744399
0.753699
0.749998
0.724269
0.675827
0.606712
0.519442
0.413317
0.287058
0.147276
0.0614257
0.671933
0.695835
0.709819
0.710962
0.688682
0.640384
0.567195
0.472539
0.360884
0.244522
0.140783
0.0623244
0.619216
0.647742
0.665912
0.671417
0.653758
0.608397
0.535872
0.440875
0.332738
0.22963
0.146413
0.0637173
0.566841
0.598359
0.620238
0.629669
0.617201
0.576906
0.508839
0.418483
0.317909
0.225206
0.151301
0.0646447
0.513706
0.546625
0.571257
0.584179
0.576876
0.542969
0.482011
0.399234
0.307576
0.22316
0.152918
0.0637673
0.458714
0.491535
0.517665
0.53342
0.530651
0.503779
0.451666
0.377971
0.295595
0.21819
0.150174
0.0594616
0.400373
0.431661
0.457862
0.475408
0.476318
0.456076
0.413944
0.350338
0.27746
0.20663
0.14004
0.0530854
0.335638
0.363822
0.388515
0.406278
0.409823
0.395149
0.363245
0.311679
0.248634
0.184624
0.119781
0.0440793
0.254819
0.277804
0.298598
0.314474
0.319356
0.309604
0.286863
0.251204
0.200687
0.144741
0.0840931
0.0341964
0.111521
0.123069
0.134251
0.143986
0.149457
0.147868
0.140393
0.126666
0.107128
0.0804374
0.047974
0.0301062
0.383871
0.553015
0.566246
0.578601
0.60348
0.640598
0.686186
0.734598
0.778837
0.81134
0.832515
0.844643
0.262467
0.440539
0.473664
0.494581
0.522066
0.55885
0.602269
0.647697
0.68988
0.723908
0.749684
0.769317
0.205387
0.35691
0.397397
0.423481
0.452504
0.488358
0.529421
0.572103
0.612535
0.647659
0.677376
0.703196
0.166689
0.292998
0.334814
0.363207
0.39269
0.427156
0.46582
0.505958
0.544793
0.580431
0.612879
0.643151
0.137255
0.242195
0.282488
0.311517
0.340592
0.37328
0.409498
0.447196
0.484366
0.519865
0.553812
0.586883
0.113165
0.199772
0.237678
0.266406
0.294423
0.324973
0.358655
0.393915
0.429239
0.463948
0.498251
0.532618
0.0927043
0.162591
0.198291
0.226219
0.252666
0.280729
0.311731
0.344483
0.37772
0.411024
0.444661
0.479001
0.0755704
0.128698
0.162769
0.189593
0.214003
0.239204
0.267335
0.297454
0.328334
0.359648
0.391696
0.424822
0.0602482
0.097694
0.129984
0.155284
0.177085
0.198978
0.223985
0.251289
0.279489
0.308227
0.337799
0.368581
0.0459523
0.0693911
0.0990114
0.121622
0.139858
0.157788
0.17929
0.203486
0.228593
0.254073
0.280177
0.307372
0.0319058
0.043585
0.0680961
0.0849421
0.097605
0.110221
0.127343
0.147676
0.168699
0.189684
0.210645
0.232286
0.0239157
0.0258511
0.0306706
0.0372061
0.0419734
0.0464649
0.0533828
0.0626485
0.0726561
0.082247
0.0917762
0.101355
0.850572
0.853914
0.85098
0.836933
0.808413
0.767248
0.718302
0.665107
0.606376
0.530389
0.406056
0.237551
0.784731
0.795805
0.799683
0.790779
0.762971
0.717098
0.656768
0.584458
0.497101
0.38129
0.20578
0.0739425
0.726395
0.74425
0.753522
0.749801
0.724051
0.675604
0.606517
0.519301
0.41323
0.28701
0.14725
0.0614029
0.671899
0.695725
0.709688
0.710812
0.688507
0.640195
0.567018
0.4724
0.360789
0.244466
0.140742
0.0622993
0.619198
0.647665
0.665817
0.671307
0.653622
0.608243
0.53572
0.440749
0.33265
0.229576
0.146369
0.0636923
0.566829
0.598305
0.620169
0.629588
0.617096
0.576781
0.508711
0.418373
0.317833
0.225157
0.151259
0.0646203
0.513693
0.54658
0.571202
0.584116
0.576791
0.542866
0.481901
0.399138
0.307509
0.223118
0.152877
0.0637461
0.458693
0.491491
0.517611
0.533365
0.530577
0.503689
0.451567
0.377883
0.295533
0.21815
0.150133
0.0594429
0.40034
0.431615
0.457801
0.475351
0.476246
0.455991
0.41385
0.350251
0.277398
0.206591
0.14
0.0530686
0.335599
0.363769
0.388446
0.406214
0.409749
0.395066
0.363155
0.311591
0.248568
0.184583
0.119744
0.0440644
0.254782
0.27775
0.298527
0.314409
0.319285
0.309526
0.286783
0.251124
0.200621
0.144698
0.0840639
0.0341829
0.1115
0.123041
0.134225
0.143961
0.149427
0.147834
0.140355
0.126628
0.107092
0.0804081
0.0479544
0.0300915
0.384557
0.554016
0.567336
0.579721
0.604585
0.641663
0.687204
0.735575
0.779786
0.812276
0.833444
0.845569
0.263073
0.441511
0.474722
0.495665
0.523131
0.559873
0.603242
0.648626
0.690777
0.724785
0.750552
0.770177
0.205917
0.357807
0.398384
0.424496
0.453502
0.489313
0.530325
0.57296
0.613356
0.648457
0.678159
0.703972
0.167163
0.293802
0.33571
0.364135
0.393605
0.42803
0.466642
0.506732
0.545526
0.581136
0.613568
0.64383
0.13766
0.242902
0.283288
0.312352
0.34142
0.374069
0.410235
0.447882
0.485009
0.520477
0.554404
0.587463
0.113517
0.200384
0.23838
0.267147
0.295162
0.325677
0.359307
0.394516
0.429794
0.464469
0.49875
0.533101
0.0930019
0.163111
0.198897
0.226868
0.253319
0.28135
0.312301
0.345002
0.378193
0.411461
0.445073
0.479397
0.0758173
0.129125
0.163276
0.190151
0.214572
0.239744
0.267826
0.297895
0.32873
0.360009
0.392031
0.425138
0.0604606
0.0980608
0.130394
0.155752
0.177569
0.199439
0.224399
0.251656
0.279816
0.30852
0.338066
0.368829
0.0461066
0.0699139
0.0993396
0.121999
0.140254
0.158165
0.179624
0.20378
0.228852
0.254303
0.280384
0.30756
0.0319384
0.044556
0.0682977
0.0852112
0.0978958
0.110495
0.127584
0.147885
0.168884
0.189849
0.210792
0.232417
0.0238091
0.0263704
0.0306309
0.037308
0.0421039
0.0465885
0.0534898
0.0627337
0.0727326
0.082315
0.0918354
0.101408
0.851489
0.854818
0.851866
0.837802
0.809262
0.768046
0.719001
0.665672
0.606798
0.530682
0.406219
0.23765
0.785581
0.796646
0.800512
0.791596
0.763776
0.717862
0.657445
0.585012
0.497526
0.381604
0.205995
0.0740493
0.72716
0.745007
0.754275
0.750547
0.724794
0.67632
0.607168
0.519849
0.413672
0.287358
0.147496
0.0615106
0.67257
0.696388
0.710351
0.711475
0.689175
0.640849
0.567627
0.472929
0.361227
0.244809
0.140991
0.0624108
0.619771
0.648232
0.666386
0.671881
0.654207
0.608824
0.536275
0.441241
0.33306
0.229896
0.146607
0.0638031
0.567307
0.598777
0.620646
0.630071
0.617594
0.577285
0.5092
0.418819
0.318203
0.225449
0.151487
0.0647294
0.514081
0.546965
0.571591
0.584517
0.5772
0.543297
0.482318
0.399539
0.307833
0.223381
0.153098
0.0638469
0.459001
0.4918
0.517924
0.533691
0.530903
0.504051
0.451917
0.378239
0.295814
0.218383
0.150338
0.0595312
0.400578
0.431858
0.458045
0.475627
0.476482
0.456313
0.414115
0.350582
0.277626
0.206789
0.140189
0.053142
0.335779
0.363954
0.388644
0.406426
0.409943
0.395311
0.363384
0.311852
0.24877
0.184749
0.119892
0.0441288
0.254908
0.277885
0.298679
0.314561
0.319434
0.309706
0.286956
0.251311
0.200793
0.144826
0.0841667
0.0342279
0.111559
0.123104
0.134297
0.144016
0.149508
0.147905
0.140443
0.126709
0.10717
0.0804769
0.048002
0.0301291
0.384416
0.553702
0.566939
0.57928
0.604138
0.641235
0.686805
0.735203
0.77942
0.811905
0.833064
0.845179
0.262882
0.441121
0.474255
0.495161
0.522625
0.559388
0.602791
0.648205
0.690374
0.724386
0.750148
0.769768
0.205721
0.35739
0.397888
0.423965
0.45297
0.488803
0.529851
0.572519
0.61294
0.648051
0.677756
0.703567
0.166959
0.293386
0.335215
0.363604
0.393072
0.427518
0.466166
0.506292
0.545116
0.580743
0.61318
0.643444
0.137474
0.242503
0.282811
0.311839
0.340903
0.373571
0.409772
0.447456
0.484615
0.520104
0.554041
0.587103
0.113338
0.200012
0.237933
0.266664
0.294673
0.325204
0.358867
0.394112
0.429424
0.464123
0.498415
0.532772
0.0928462
0.16277
0.198488
0.226424
0.252867
0.28091
0.311891
0.344627
0.377852
0.411143
0.44477
0.4791
0.0756819
0.128823
0.162914
0.189752
0.214164
0.239345
0.267453
0.297554
0.328421
0.359723
0.391759
0.424875
0.0603345
0.0977737
0.130082
0.155403
0.177212
0.199087
0.224068
0.251352
0.279541
0.308266
0.337828
0.368599
0.0460133
0.069435
0.0990691
0.121709
0.139958
0.157871
0.179344
0.203521
0.228617
0.254087
0.280181
0.307367
0.0319434
0.0436019
0.0681223
0.0850008
0.0976799
0.11028
0.127372
0.147685
0.1687
0.18968
0.210634
0.232269
0.0239479
0.0258669
0.030685
0.0372361
0.042014
0.0464989
0.0533996
0.0626394
0.072644
0.0822334
0.0917596
0.101335
0.851091
0.854418
0.85146
0.837375
0.808802
0.767565
0.718519
0.665202
0.606344
0.530235
0.405817
0.237375
0.785168
0.796233
0.800095
0.791158
0.763304
0.717368
0.656946
0.584523
0.497052
0.381165
0.20569
0.0739312
0.726754
0.7446
0.753863
0.750116
0.724327
0.675829
0.606668
0.51936
0.413206
0.286956
0.14725
0.0614122
0.672184
0.695999
0.709956
0.711063
0.688727
0.640374
0.567143
0.47246
0.360798
0.244463
0.140762
0.0623107
0.619411
0.647869
0.666014
0.671492
0.653783
0.608375
0.535816
0.440805
0.332676
0.229595
0.146395
0.063704
0.566977
0.598444
0.620302
0.629711
0.617201
0.576866
0.508775
0.418416
0.317861
0.225181
0.151283
0.0646326
0.513783
0.546662
0.571277
0.584184
0.576844
0.542907
0.481932
0.399163
0.30753
0.223139
0.152899
0.0637561
0.458736
0.491526
0.517639
0.533386
0.530585
0.503693
0.45157
0.377888
0.295543
0.218165
0.150152
0.059452
0.400348
0.431615
0.457795
0.475339
0.476221
0.455966
0.41383
0.35024
0.277397
0.2066
0.140015
0.0530752
0.335585
0.363749
0.38842
0.406182
0.409705
0.395023
0.36312
0.311569
0.24856
0.184586
0.119754
0.0440692
0.254759
0.277726
0.298496
0.314372
0.319239
0.309481
0.286744
0.251097
0.200609
0.144698
0.0840679
0.0341852
0.111493
0.123035
0.134216
0.143948
0.14941
0.147815
0.140338
0.126614
0.107084
0.0804067
0.0479546
0.0300919
0.383954
0.553134
0.566383
0.578723
0.603567
0.640638
0.686174
0.73454
0.778748
0.811252
0.832463
0.844652
0.262515
0.440625
0.473758
0.494661
0.522112
0.558849
0.602214
0.647588
0.689726
0.723728
0.749512
0.769211
0.205421
0.356976
0.397465
0.423535
0.452527
0.488334
0.529341
0.57196
0.612333
0.647413
0.677108
0.702964
0.166717
0.293054
0.33487
0.36325
0.392703
0.427124
0.465729
0.505799
0.544562
0.580138
0.612538
0.642809
0.137278
0.242247
0.282541
0.311558
0.340607
0.373252
0.409411
0.447035
0.484125
0.519547
0.553424
0.586465
0.113188
0.199823
0.237733
0.266451
0.294444
0.324956
0.35858
0.393765
0.429003
0.463627
0.497845
0.532158
0.0927233
0.162645
0.19835
0.22627
0.252697
0.280725
0.311673
0.344353
0.377503
0.410717
0.444261
0.478536
0.0755879
0.128754
0.162831
0.18965
0.214042
0.239213
0.267297
0.297348
0.328144
0.359369
0.391325
0.424384
0.0602657
0.0977476
0.130048
0.155343
0.177128
0.198997
0.223966
0.25121
0.279333
0.307987
0.337474
0.368198
0.0459689
0.0694402
0.0990748
0.121679
0.1399
0.157811
0.179285
0.203434
0.228474
0.253878
0.279907
0.307067
0.0319213
0.0436248
0.0681515
0.0849876
0.0976354
0.110239
0.127347
0.14765
0.168621
0.189541
0.210438
0.232092
0.0239316
0.0258781
0.0306949
0.0372245
0.0419829
0.046468
0.0533823
0.0626511
0.0726371
0.0821991
0.0917019
0.101293
)
;

boundaryField
{
    rotor
    {
        type            kqRWallFunction;
        value           nonuniform List<scalar> 
192
(
0.0583133
0.0623852
0.0655367
0.0623051
0.0577791
0.0682849
0.166689
0.324037
0.398654
0.434305
0.460469
0.472646
0.477956
0.474482
0.468565
0.457993
0.440798
0.417576
0.387713
0.349951
0.303118
0.24814
0.190111
0.153802
0.0591066
0.0630022
0.0660151
0.0627683
0.0580704
0.0683749
0.16588
0.323233
0.39798
0.433614
0.459802
0.471992
0.477326
0.47387
0.467993
0.457454
0.440307
0.417128
0.387317
0.34961
0.302837
0.247918
0.189939
0.15366
0.0591246
0.0629985
0.0659688
0.0626834
0.0580365
0.0685574
0.167279
0.324369
0.398813
0.434476
0.460622
0.472798
0.478093
0.474609
0.468667
0.458075
0.440854
0.41761
0.387728
0.349946
0.303099
0.248109
0.190066
0.153763
0.0591242
0.0630206
0.0660357
0.0627935
0.0580914
0.0683795
0.165855
0.323221
0.397962
0.43358
0.459764
0.471953
0.477292
0.473844
0.46798
0.457452
0.440315
0.417146
0.387343
0.349643
0.302876
0.247959
0.189989
0.153704
0.0583133
0.0820221
0.124709
0.159251
0.180543
0.186144
0.181125
0.174897
0.173661
0.182825
0.210407
0.597281
0.153704
0.343165
0.478726
0.589947
0.680807
0.770369
0.853744
0.95121
1.05589
1.16467
1.28891
1.46526
0.0591066
0.0820421
0.124887
0.159238
0.180404
0.185959
0.180935
0.174712
0.173507
0.182669
0.21026
0.597287
0.153802
0.343379
0.479024
0.590324
0.681234
0.770836
0.854241
0.951725
1.05643
1.16522
1.28945
1.46581
0.0591246
0.0820988
0.125136
0.15956
0.180837
0.186341
0.181252
0.174994
0.17369
0.182807
0.210351
0.597233
0.15366
0.343088
0.478652
0.589872
0.680732
0.770289
0.853658
0.951113
1.05579
1.16457
1.2888
1.46514
0.0591242
0.0820568
0.124886
0.159229
0.180374
0.185931
0.18091
0.174672
0.173473
0.182643
0.210255
0.597379
0.153763
0.343312
0.478964
0.590272
0.681193
0.770808
0.854225
0.951727
1.05646
1.16527
1.28953
1.46595
)
;
    }
    stator
    {
        type            kqRWallFunction;
        value           nonuniform List<scalar> 
192
(
0.111521
0.123069
0.134251
0.143986
0.149457
0.147868
0.140393
0.126666
0.107128
0.0804374
0.047974
0.0301062
0.0239157
0.0258511
0.0306706
0.0372061
0.0419734
0.0464649
0.0533828
0.0626485
0.0726561
0.082247
0.0917762
0.101355
0.1115
0.123041
0.134225
0.143961
0.149427
0.147834
0.140355
0.126628
0.107092
0.0804081
0.0479544
0.0300915
0.0238091
0.0263704
0.0306309
0.037308
0.0421039
0.0465885
0.0534898
0.0627337
0.0727326
0.082315
0.0918354
0.101408
0.111559
0.123104
0.134297
0.144016
0.149508
0.147905
0.140443
0.126709
0.10717
0.0804769
0.048002
0.0301291
0.0239479
0.0258669
0.030685
0.0372361
0.042014
0.0464989
0.0533996
0.0626394
0.072644
0.0822334
0.0917596
0.101335
0.111493
0.123035
0.134216
0.143948
0.14941
0.147815
0.140338
0.126614
0.107084
0.0804067
0.0479546
0.0300919
0.0239316
0.0258781
0.0306949
0.0372245
0.0419829
0.046468
0.0533823
0.0626511
0.0726371
0.0821991
0.0917019
0.101293
0.383871
0.262467
0.205387
0.166689
0.137255
0.113165
0.0927043
0.0755704
0.0602482
0.0459523
0.0319058
0.0239157
0.237425