/*--------------------------------*- C++ -*----------------------------------*\
  =========                 |
  \\      /  F ield         | OpenFOAM: The Open Source CFD Toolbox
   \\    /   O peration     | Website:  https://openfoam.org
    \\  /    A nd           | Version:  6
     \\/     M anipulation  |
\*---------------------------------------------------------------------------*/
FoamFile
{
    version     2.0;
    format      ascii;
    class       volScalarField;
    location    "250";
    object      nut;
}
// * * * * * * * * * * * * * * * * * * * * * * * * * * * * * * * * * * * * * //

dimensions      [0 2 -1 0 0 0 0];

internalField   nonuniform List<scalar> 
3072
(
0.000126871
7.12577e-05
7.31018e-05
7.13504e-05
6.85318e-05
7.38865e-05
0.000113679
0.000160756
0.000179072
0.000187021
0.000192708
0.000195314
4.98368e-05
0.00016226
0.000190964
0.000125664
0.000113479
0.000165567
0.000225025
0.000329033
0.000449095
0.000616429
0.000791069
0.000962903
6.77872e-05
0.000285927
0.000283552
0.000253855
0.000279372
0.000414985
0.000590639
0.000824302
0.00110015
0.00138191
0.00163972
0.00185598
8.39388e-05
0.000364465
0.000392811
0.000407141
0.000543564
0.000770963
0.00103607
0.00135871
0.00168037
0.00198189
0.00225156
0.00247118
9.712e-05
0.000474089
0.000557243
0.000633003
0.000836188
0.00111047
0.00143388
0.00177445
0.00210062
0.00239623
0.00265781
0.00287485
0.000106561
0.000547864
0.000694686
0.000838969
0.00107896
0.00138744
0.001721
0.00205542
0.00237062
0.00265516
0.0029029
0.0031105
0.000112957
0.000602034
0.000806878
0.00100549
0.00126629
0.00157631
0.00190166
0.00222062
0.00251887
0.00278777
0.00302211
0.00321864
0.0001187
0.00066733
0.000924415
0.00114397
0.00142631
0.00173239
0.00203864
0.00233175
0.00260266
0.00284589
0.00305815
0.00323727
0.000125911
0.000728979
0.00105162
0.00134593
0.00163764
0.0019207
0.00218481
0.0024292
0.0026527
0.00285403
0.00303144
0.00318271
0.000136992
0.000789121
0.00121719
0.00155583
0.00183663
0.00207317
0.00228113
0.00246824
0.00263825
0.00279429
0.00293545
0.00305996
0.000155334
0.000764796
0.00133421
0.00167975
0.00191511
0.0021072
0.00227516
0.00243072
0.00256579
0.00269119
0.00280612
0.00290963
0.000276091
0.000745676
0.00140339
0.00177025
0.00197085
0.00214505
0.00229337
0.00241569
0.00252171
0.00261701
0.00270348
0.00278165
0.00019649
0.000195814
0.000194668
0.00019251
0.000188943
0.00018395
0.000177299
0.000168475
0.000156817
0.000141937
0.000124271
6.09498e-05
0.00111724
0.00123057
0.00127711
0.00126783
0.00121281
0.00112308
0.000991318
0.000818898
0.000624992
0.000378372
0.000181475
0.0001019
0.0020131
0.00209473
0.00212798
0.00209408
0.0019978
0.00186176
0.00166055
0.0014026
0.00108864
0.000721355
0.000311469
0.000133156
0.00262974
0.00271801
0.00276012
0.00274116
0.00265882
0.00252567
0.00231472
0.00201772
0.00162584
0.00113756
0.000552026
0.000161943
0.00303716
0.00313859
0.00319194
0.00319068
0.00313317
0.00302341
0.00283789
0.00254858
0.00212912
0.0015487
0.000804013
0.00018916
0.00327224
0.0033843
0.00345013
0.00347268
0.00345041
0.00338296
0.0032422
0.00299752
0.00259477
0.00197281
0.00110596
0.00021737
0.00337456
0.00348941
0.00356549
0.00360603
0.00361265
0.00358567
0.00350754
0.00333764
0.00299872
0.00237984
0.00141942
0.000245838
0.00338088
0.00348869
0.00356598
0.00361643
0.00364248
0.0036526
0.0036362
0.003556
0.00331627
0.00274739
0.00170943
0.000277439
0.0033056
0.00340341
0.00347926
0.00353628
0.00357612
0.00360884
0.00363699
0.00363983
0.00353572
0.00307435
0.00196572
0.000311244
0.0031665
0.00325581
0.00332938
0.00339122
0.0034457
0.00348901
0.00354484
0.00360993
0.00363169
0.00335087
0.00225444
0.000346763
0.00300101
0.00308082
0.00315014
0.00321122
0.0032763
0.0033401
0.00340429
0.00351187
0.00363183
0.00353182
0.00258845
0.000385713
0.00285234
0.00291728
0.00297683
0.00303573
0.00309835
0.00318961
0.00325725
0.00336828
0.00352982
0.00363416
0.00296734
0.000433528
0.000128414
7.1585e-05
7.33518e-05
7.16064e-05
6.87053e-05
7.39497e-05
0.000113412
0.000160562
0.000178921
0.000186874
0.00019257
0.000195181
4.98352e-05
0.000162475
0.000191368
0.000126193
0.000113613
0.000165392
0.000224695
0.00032841
0.0004481
0.000615218
0.000789693
0.000961717
6.78425e-05
0.000286428
0.000284063
0.000254112
0.000278867
0.000414109
0.000589564
0.000822735
0.00109832
0.00137984
0.00163756
0.00185382
8.39499e-05
0.000364676
0.000392834
0.000406836
0.000542669
0.000769489
0.00103427
0.00135668
0.00167813
0.00197938
0.00224887
0.00246842
9.71041e-05
0.000474037
0.000557108
0.000632381
0.000835024
0.00110889
0.0014318
0.0017721
0.00209803
0.00239342
0.00265482
0.00287186
0.000106525
0.000547584
0.000694238
0.000838123
0.00107766
0.00138563
0.00171878
0.0020529
0.00236784
0.00265216
0.00289974
0.00310725
0.000112912
0.000601763
0.000806322
0.00100451
0.00126484
0.00157442
0.00189939
0.00221804
0.00251605
0.00278473
0.0030189
0.00321532
0.000118646
0.000667022
0.000923845
0.00114307
0.00142508
0.00173079
0.00203672
0.00232954
0.00260019
0.00284318
0.00305523
0.00323417
0.000125858
0.000728628
0.00105114
0.00134522
0.00163674
0.00191954
0.00218336
0.00242746
0.00265068
0.00285172
0.00302885
0.00317988
0.000136932
0.000788829
0.00121673
0.00155529
0.00183593
0.00207227
0.00227996
0.00246681
0.00263657
0.00279232
0.00293322
0.00305749
0.000155278
0.000764375
0.0013338
0.00167923
0.00191452
0.00210648
0.00227433
0.00242979
0.00256465
0.00268979
0.00280446
0.00290771
0.000276079
0.000745441
0.00140315
0.00176995
0.00197056
0.00214466
0.0022929
0.00241511
0.00252098
0.0026161
0.00270236
0.00278031
0.00019636
0.000195689
0.00019455
0.000192398
0.000188838
0.000183852
0.00017721
0.000168395
0.000156745
0.000141875
0.000124215
6.09225e-05
0.00111573
0.00122919
0.00127568
0.00126667
0.00121171
0.00112212
0.000990471
0.000818231
0.000624523
0.000378107
0.000181376
0.000101858
0.00201086
0.00209249
0.00212586
0.00209208
0.00199599
0.00186009
0.00165909
0.00140141
0.00108775
0.000720796
0.000311253
0.000133106
0.00262704
0.00271541
0.00275756
0.00273865
0.00265646
0.00252347
0.00231275
0.00201608
0.00162459
0.00113675
0.000551674
0.000161883
0.00303432
0.00313588
0.00318917
0.0031878
0.00313037
0.00302074
0.00283547
0.00254648
0.00212745
0.00154759
0.000803499
0.000189093
0.00326903
0.00338115
0.00344694
0.00346946
0.00344729
0.00337994
0.00323939
0.00299505
0.00259274
0.00197145
0.00110533
0.000217297
0.00337119
0.00348604
0.00356209
0.0036026
0.00360926
0.00358235
0.00350439
0.00333483
0.00299643
0.00237823
0.00141865
0.000245758
0.00337763
0.00348533
0.00356256
0.00361295
0.00363898
0.00364913
0.00363284
0.00355293
0.00331375
0.00274563
0.00170859
0.000277355
0.00330255
0.00340022
0.00347598
0.00353292
0.00357271
0.00360552
0.00363374
0.00363672
0.003533
0.00307244
0.00196485
0.000311155
0.00316382
0.00325297
0.00332641
0.00338818
0.00344262
0.00348586
0.00354162
0.00360675
0.00362885
0.0033488
0.00225349
0.000346674
0.00299887
0.00307849
0.00314766
0.00320864
0.00327354
0.00333737
0.00340144
0.00350895
0.00362901
0.0035296
0.00258744
0.000385623
0.00285078
0.00291553
0.0029749
0.00303366
0.00309615
0.00318737
0.00325505
0.00336593
0.00352738
0.003632
0.00296626
0.000433436
0.000128449
7.15796e-05
7.33303e-05
7.15642e-05
6.86828e-05
7.40416e-05
0.000113905
0.00016085
0.000179109
0.000187059
0.000192739
0.000195344
4.98496e-05
0.00016209
0.000191255
0.000125809
0.000113647
0.000165629
0.000225254
0.000329326
0.00044957
0.000616983
0.000791688
0.000963525
6.79019e-05
0.00028643
0.000283875
0.000254061
0.000279733
0.00041581
0.000591466
0.000825359
0.00110116
0.00138294
0.00164073
0.00185697
8.40256e-05
0.000364796
0.00039338
0.000407909
0.000544579
0.000771857
0.00103739
0.00135996
0.00168149
0.00198297
0.00225263
0.00247225
9.72122e-05
0.000474621
0.00055811
0.000634244
0.000837571
0.00111175
0.00143512
0.00177557
0.00210162
0.00239718
0.00265876
0.00287581
0.000106625
0.000548168
0.000695501
0.000840164
0.00108018
0.00138862
0.00172203
0.00205633
0.00237143
0.00265594
0.00290368
0.00311131
0.000113005
0.000602401
0.00080767
0.0010065
0.00126737
0.00157732
0.00190254
0.00222139
0.00251957
0.00278843
0.00302277
0.00321932
0.000118736
0.000667482
0.000925151
0.00114491
0.00142716
0.00173316
0.00203936
0.0023324
0.00260327
0.00284648
0.00305873
0.00323785
0.00012592
0.000729117
0.00105207
0.00134648
0.00163816
0.00192123
0.00218537
0.00242959
0.00265311
0.00285454
0.00303199
0.00318329
0.000136979
0.000789
0.00121727
0.00155597
0.00183692
0.0020736
0.00228162
0.00246748
0.00263752
0.00279466
0.00293606
0.00306063
0.000155309
0.000764477
0.00133401
0.00167971
0.00191525
0.00210752
0.00227571
0.00243112
0.00256628
0.00269191
0.00280694
0.00291048
0.00027607
0.000745486
0.00140323
0.00177015
0.00197095
0.00214533
0.002294
0.00241642
0.00252253
0.00261794
0.00270448
0.00278269
0.000196516
0.000195838
0.000194687
0.000192525
0.000188953
0.000183955
0.000177301
0.000168473
0.000156811
0.000141928
0.000124256
6.0942e-05
0.00111789
0.00123121
0.00127776
0.00126836
0.00121329
0.00112347
0.000991663
0.000819151
0.000625135
0.000378431
0.00018148
0.00010189
0.00201409
0.00209574
0.00212894
0.00209497
0.00199856
0.00186242
0.00166107
0.00140297
0.00108887
0.000721455
0.000311498
0.000133147
0.00263083
0.00271909
0.00276118
0.00274218
0.00265973
0.00252648
0.00231538
0.00201824
0.0016262
0.00113775
0.000552079
0.000161936
0.00303815
0.0031396
0.00319297
0.0031917
0.00313414
0.00302428
0.00283862
0.00254917
0.00212954
0.00154893
0.000804088
0.000189155
0.00327309
0.00338519
0.00345106
0.00347363
0.00345134
0.00338385
0.00324302
0.0029982
0.00259527
0.00197311
0.00110608
0.000217368
0.00337527
0.00349016
0.00356629
0.00360687
0.00361353
0.00358654
0.00350837
0.00333838
0.00299929
0.0023802
0.00141956
0.000245837
0.0033815
0.00348935
0.00356669
0.0036172
0.00364329
0.00365345
0.00363705
0.00355681
0.00331694
0.00274784
0.00170962
0.000277441
0.00330623
0.00340407
0.00347995
0.00353701
0.00357693
0.0036097
0.00363791
0.00364076
0.00353656
0.00307493
0.00196593
0.00031125
0.00316719
0.00325653
0.00333012
0.00339201
0.00344656
0.00348994
0.00354583
0.00361098
0.00363268
0.0033516
0.00225468
0.000346774
0.00300188
0.0030817
0.00315103
0.00321215
0.00327739
0.00334124
0.00340545
0.00351309
0.00363305
0.00353277
0.00258874
0.000385728
0.00285339
0.00291835
0.00297791
0.00303683
0.0031002
0.00319131
0.00325867
0.00336971
0.0035313
0.00363547
0.00296775
0.000433553
0.00012845
7.15947e-05
7.3361e-05
7.16187e-05
6.8713e-05
7.39517e-05
0.000113402
0.000160561
0.00017892
0.00018687
0.000192565
0.000195177
4.98396e-05
0.000162498
0.00019136
0.000126212
0.000113603
0.00016528
0.000224652
0.000328313
0.000447973
0.000615069
0.000789523
0.000961533
6.78414e-05
0.000286381
0.000284033
0.000254039
0.000278583
0.000413519
0.000589319
0.000822414
0.00109797
0.00137944
0.00163712
0.00185332
8.3945e-05
0.000364526
0.000392576
0.000406462
0.0005422
0.000769232
0.0010338
0.00135615
0.00167759
0.00197879
0.00224821
0.00246769
9.70916e-05
0.000473772
0.000556724
0.000631815
0.000834512
0.0011084
0.00143117
0.00177144
0.00209735
0.00239269
0.00265403
0.00287102
0.000106509
0.000547321
0.000693766
0.000837449
0.00107702
0.00138502
0.00171805
0.00205213
0.00236705
0.00265133
0.00289888
0.00310635
0.000112899
0.000601472
0.000805749
0.00100375
0.00126403
0.00157361
0.00189854
0.0022172
0.00251519
0.00278387
0.00301801
0.00321441
0.000118628
0.000666726
0.00092325
0.00114225
0.00142418
0.00172988
0.00203582
0.00232865
0.00259933
0.00284234
0.00305438
0.00323333
0.000125844
0.000728374
0.00105054
0.00134445
0.00163588
0.00191868
0.00218252
0.00242667
0.00264993
0.002851
0.00302815
0.00317919
0.000136921
0.00078866
0.00121639
0.00155489
0.00183552
0.00207184
0.00227951
0.00246638
0.00263614
0.00279188
0.00293277
0.00305704
0.000155278
0.000764426
0.00133388
0.00167931
0.00191457
0.0021065
0.00227429
0.00242977
0.0025646
0.00268969
0.00280433
0.00290756
0.000276106
0.000745664
0.00140346
0.00177034
0.00197095
0.00214506
0.00229322
0.00241542
0.00252127
0.00261635
0.00270257
0.0027805
0.000196357
0.000195687
0.00019455
0.000192401
0.000188843
0.000183859
0.000177218
0.000168405
0.000156757
0.000141888
0.000124232
6.09308e-05
0.00111552
0.00122895
0.00127542
0.00126643
0.00121149
0.00112194
0.000990318
0.000818121
0.000624472
0.000378099
0.000181385
0.00010187
0.00201031
0.00209193
0.00212534
0.00209161
0.0019956
0.00185978
0.00165888
0.00140129
0.0010877
0.000720789
0.000311258
0.000133116
0.00262627
0.00271467
0.00275686
0.00273801
0.00265593
0.00252304
0.00231245
0.00201589
0.00162449
0.0011367
0.000551681
0.000161894
0.00303344
0.00313501
0.00318832
0.00318703
0.00312969
0.0030202
0.00283509
0.00254623
0.00212732
0.00154755
0.000803517
0.000189105
0.00326811
0.00338022
0.00344604
0.00346862
0.00344654
0.00337931
0.00323891
0.00299475
0.00259257
0.00197141
0.00110535
0.000217309
0.00337028
0.00348513
0.00356121
0.00360177
0.0036085
0.0035817
0.00350389
0.0033345
0.00299627
0.00237821
0.0014187
0.000245772
0.0033768
0.00348451
0.00356177
0.0036122
0.00363828
0.00364854
0.00363238
0.00355263
0.00331361
0.00274563
0.00170864
0.00027737
0.00330188
0.00339957
0.00347535
0.00353233
0.00357215
0.00360506
0.00363339
0.00363652
0.00353292
0.00307246
0.00196493
0.000311171
0.00316338
0.00325254
0.003326
0.0033878
0.00344228
0.00348557
0.00354142
0.00360665
0.00362883
0.00334886
0.0022536
0.000346691
0.00299871
0.00307834
0.00314752
0.00320853
0.00327347
0.0033373
0.00340142
0.00350898
0.00362909
0.00352969
0.0025876
0.00038564
0.00285095
0.00291569
0.00297506
0.00303383
0.00309633
0.00318756
0.00325522
0.00336612
0.00352755
0.00363211
0.00296644
0.000433455
0.00165081
0.00172858
0.0018504
0.00200921
0.00214291
0.00227105
0.00237986
0.00246316
0.00253441
0.00259754
0.00265297
0.00270222
0.00264917
0.00248158
0.0024144
0.00241412
0.00244726
0.00248223
0.00251239
0.0025421
0.00257647
0.00261154
0.00263768
0.00266041
0.00330667
0.00311592
0.00295976
0.00284986
0.00277991
0.00273114
0.00269843
0.00267544
0.00266351
0.00265175
0.0026418
0.00263586
0.00355414
0.00339715
0.00324942
0.00311359
0.00298947
0.00288326
0.00280104
0.00274006
0.00269545
0.00266317
0.00264553
0.00264152
0.00274808
0.00279403
0.00284175
0.00289434
0.00295133
0.00304244
0.0031226
0.00322649
0.0034011
0.00364435
0.00377219
0.00173242
0.00268439
0.00271393
0.00275113
0.00279882
0.00285495
0.00294024
0.00302891
0.00313235
0.00329725
0.00353203
0.00401497
0.0029757
0.00264802
0.00267435
0.00271171
0.00276209
0.00282524
0.00290373
0.00300263
0.0031114
0.00326217
0.00343799
0.00385423
0.00356394
0.00265385
0.00268875
0.00273636
0.0028004
0.00287889
0.00296313
0.00307272
0.0031854
0.00332621
0.00345261
0.00371958
0.00371484
0.00165098
0.00172872
0.00185053
0.00200917
0.00214279
0.00227084
0.00237954
0.00246276
0.0025339
0.00259692
0.00265219
0.00270129
0.00264974
0.002482
0.00241472
0.00241434
0.0024473
0.00248215
0.0025122
0.00254181
0.00257602
0.00261101
0.00263705
0.00265968
0.00330739
0.00311656
0.00296027
0.00285013
0.00278006
0.00273117
0.00269829
0.00267513
0.0026631
0.00265127
0.00264128
0.00263528
0.00355511
0.00339783
0.0032499
0.00311385
0.00298958
0.00288325
0.00280083
0.00273955
0.00269494
0.0026627
0.0026451
0.0026412
0.00274698
0.00279277
0.00284034
0.00289282
0.00294972
0.00304075
0.00312101
0.00322479
0.0033993
0.00364249
0.00377087
0.00173201
0.00268356
0.00271301
0.00275014
0.00279779
0.00285392
0.00293925
0.00302799
0.00313138
0.00329627
0.00353103
0.00401395
0.00297539
0.00264743
0.0026738
0.0027112
0.00276167
0.0028249
0.00290351
0.00300253
0.00311139
0.00326219
0.00343802
0.0038541
0.00356412
0.00265366
0.00268886
0.00273664
0.00280087
0.00287946
0.00296392
0.00307357
0.00318642
0.00332722
0.00345366
0.00372049
0.00371576
0.00165091
0.00172871
0.00185059
0.00200941
0.00214325
0.0022715
0.00238048
0.00246395
0.00253532
0.00259857
0.00265407
0.00270338
0.00264967
0.00248214
0.002415
0.00241479
0.00244796
0.00248299
0.00251322
0.002543
0.00257747
0.00261265
0.00263886
0.00266166
0.00330781
0.0031171
0.00296092
0.00285101
0.00278102
0.00273228
0.00269957
0.00267657
0.00266467
0.00265293
0.00264306
0.00263722
0.00355614
0.00339896
0.00325107
0.00311512
0.00299088
0.00288466
0.00280237
0.00274127
0.00269671
0.00266449
0.00264691
0.002643
0.00274928
0.00279527
0.00284302
0.00289565
0.00295278
0.00304398
0.00312414
0.00322812
0.00340282
0.0036461
0.00377307
0.00173276
0.0026857
0.00271531
0.00275258
0.00280034
0.00285656
0.00294193
0.00303067
0.00313424
0.00329923
0.00353402
0.00401661
0.00297666
0.00264947
0.00267591
0.00271337
0.00276385
0.00282709
0.00290568
0.00300464
0.00311351
0.00326431
0.00344019
0.00385636
0.00356554
0.00265545
0.00269057
0.00273828
0.00280242
0.00288096
0.00296531
0.00307486
0.00318763
0.00332841
0.00345485
0.0037218
0.0037167
0.00165128
0.00172914
0.00185106
0.00200981
0.00214347
0.00227157
0.00238022
0.00246342
0.00253454
0.00259751
0.00265275
0.0027018
0.00265057
0.00248282
0.00241557
0.00241525
0.00244821
0.00248308
0.00251308
0.00254273
0.002577
0.00261185
0.00263787
0.00266045
0.00330884
0.00311788
0.0029615
0.00285125
0.00278115
0.0027323
0.00269939
0.00267622
0.00266424
0.00265233
0.00264228
0.00263621
0.00355679
0.00339943
0.00325138
0.00311522
0.00299082
0.00288448
0.002802
0.00274059
0.00269599
0.00266372
0.0026461
0.00264206
0.00274746
0.00279324
0.00284081
0.00289327
0.00295016
0.00304117
0.00312135
0.00322508
0.0033995
0.00364254
0.00377105
0.00173198
0.0026843
0.00271374
0.00275084
0.00279844
0.0028545
0.00293975
0.00302835
0.0031316
0.00329631
0.00353091
0.00401377
0.00297509
0.00264832
0.0026746
0.00271192
0.00276226
0.00282536
0.00290379
0.0030026
0.00311123
0.00326176
0.00343736
0.00385324
0.00356314
0.00265436
0.00268926
0.00273689
0.00280092
0.00287936
0.00296353
0.00307292
0.0031854
0.00332592
0.00345203
0.00371867
0.00371368
0.00347038
0.00331785
0.00316956
0.00302995
0.00290144
0.00279201
0.00270752
0.00264711
0.00260874
0.00259304
0.00260597
0.00264929
0.00340871
0.00326783
0.00312496
0.00298174
0.00284338
0.00272034
0.00261924
0.0025424
0.00248936
0.00246093
0.00246395
0.00250739
0.00336479
0.00323963
0.00310394
0.00295517
0.00279999
0.0026517
0.00251599
0.00239559
0.00229013
0.00219859
0.00212155
0.0020854
0.00332663
0.00321631
0.00309141
0.00294139
0.00276552
0.00258514
0.00240192
0.0022174
0.00202661
0.0018078
0.0015529
0.00132683
0.00272662
0.0028425
0.00290609
0.00298426
0.00307615
0.00317645
0.00328505
0.00339076
0.00349773
0.00359108
0.00365647
0.00362462
0.00263048
0.0028847
0.00296935
0.00305092
0.00314497
0.00324613
0.00334977
0.00344684
0.00353173
0.00358465
0.00360102
0.00354987
0.00219414
0.00278607
0.00295035
0.00304917
0.00314599
0.00324436
0.00334221
0.00343234
0.00350372
0.00353785
0.00353817
0.00348641
0.00131259
0.00247616
0.00284673
0.00299215
0.00310426
0.00320177
0.00329555
0.00338155
0.00344686
0.0034765
0.0034737
0.00342648
0.00347099
0.00331805
0.00316955
0.00302978
0.00290114
0.00279161
0.00270705
0.00264664
0.00260841
0.00259288
0.00260605
0.00264951
0.00340894
0.00326766
0.00312459
0.00298123
0.00284278
0.00271971
0.00261868
0.00254198
0.00248917
0.00246099
0.00246433
0.00250791
0.00336486
0.0032392
0.00310335
0.00295445
0.0027992
0.00265093
0.00251536
0.00239513
0.00228995
0.00219867
0.00212195
0.00208592
0.00332675
0.00321578
0.0030907
0.00294056
0.00276463
0.0025843
0.00240125
0.00221695
0.00202641
0.00180781
0.00155314
0.00132683
0.00272712
0.00284361
0.00290751
0.00298588
0.00307785
0.00317825
0.00328683
0.00339254
0.00349947
0.0035928
0.00365814
0.00362628
0.00263137
0.00288657
0.00297172
0.00305348
0.0031476
0.00324873
0.00335228
0.00344926
0.00353406
0.00358693
0.00360326
0.00355209
0.00219514
0.00278825
0.0029534
0.00305243
0.0031493
0.00324758
0.00334527
0.00343524
0.00350648
0.00354054
0.0035408
0.00348898
0.00131334
0.0024784
0.0028501
0.0029959
0.00310805
0.00320543
0.00329901
0.00338479
0.00344992
0.00347942
0.00347654
0.00342924
0.00347269
0.00331983
0.00317134
0.0030316
0.00290298
0.0027935
0.00270894
0.00264849
0.00261017
0.00259453
0.00260757
0.00265095
0.00341117
0.0032699
0.00312682
0.00298346
0.00284499
0.00272187
0.00262069
0.00254381
0.00249076
0.00246235
0.00246544
0.00250891
0.00336741
0.00324173
0.00310583
0.0029569
0.00280162
0.00265324
0.00251743
0.0023969
0.00229135
0.00219974
0.00212271
0.00208655
0.00332948
0.00321847
0.00309332
0.00294313
0.00276717
0.0025867
0.00240336
0.00221868
0.00202766
0.00180868
0.00155361
0.00132737
0.00272839
0.00284452
0.00290821
0.00298641
0.00307827
0.00317858
0.00328713
0.00339283
0.00349979
0.00359313
0.00365843
0.00362644
0.00263214
0.00288674
0.00297152
0.00305309
0.00314708
0.00324818
0.00335176
0.0034488
0.00353365
0.00358652
0.00360283
0.00355161
0.00219553
0.00278793
0.00295244
0.00305125
0.00314799
0.00324629
0.00334408
0.00343416
0.00350548
0.00353956
0.00353984
0.00348803
0.00131349
0.00247775
0.00284864
0.00299408
0.0031061
0.00320353
0.00329726
0.00338321
0.00344844
0.00347801
0.00347519
0.00342792
0.00347266
0.00331964
0.00317105
0.00303118
0.00290244
0.00279284
0.00270815
0.0026476
0.00260927
0.00259359
0.00260655
0.00264984
0.00341058
0.00326922
0.00312609
0.00298264
0.00284409
0.0027209
0.00261969
0.00254281
0.00248979
0.00246135
0.00246437
0.00250781
0.00336641
0.00324071
0.00310481
0.00295581
0.00280049
0.0026521
0.00251631
0.00239587
0.0022904
0.0021988
0.00212175
0.00208559
0.00332818
0.00321721
0.0030921
0.00294187
0.00276589
0.00258545
0.00240216
0.00221758
0.00202684
0.00180786
0.00155291
0.00132673
0.00272717
0.00284309
0.00290669
0.00298477
0.00307651
0.00317662
0.00328494
0.00339034
0.00349699
0.00359007
0.00365521
0.00362336
0.00263093
0.00288522
0.00296991
0.00305138
0.00314524
0.00324616
0.00334947
0.00344617
0.00353068
0.0035833
0.00359954
0.00354852
0.00219442
0.00278642
0.00295082
0.00304958
0.00314621
0.00324432
0.00334181
0.00343153
0.00350242
0.00353627
0.00353648
0.00348499
0.00131276
0.0024764
0.00284715
0.00299255
0.00310447
0.00320172
0.00329514
0.00338068
0.00344544
0.00347476
0.0034719
0.00342505
0.00328813
0.00318685
0.00307892
0.00293449
0.00274217
0.00253153
0.00229975
0.00204613
0.0017565
0.00138283
0.000822802
0.000252502
0.00325438
0.00315707
0.00306094
0.00293161
0.00273286
0.00250239
0.002235
0.00193249
0.00158612
0.00116374
0.000572547
0.000146368
0.00320964
0.00312563
0.00303715
0.00292812
0.00273493
0.0024994
0.00221625
0.00189303
0.00153648
0.00115958
0.000617547
0.000137982
0.00314209
0.00308206
0.00300372
0.00291576
0.00273881
0.00251243
0.00223206
0.00191148
0.00157197
0.00124705
0.00072951
0.000143421
0.00304508
0.00301322
0.00295026
0.00288284
0.00273121
0.00252334
0.00225804
0.00195181
0.00162962
0.00130121
0.000833133
0.000149541
0.00290943
0.00290493
0.00286352
0.00281608
0.00269346
0.00250958
0.00226517
0.00197516
0.0016583
0.00130401
0.000875769
0.000155171
0.00272239
0.00274228
0.00272474
0.00269717
0.0026031
0.00244589
0.00222424
0.00194939
0.00163179
0.00126692
0.000846289
0.000158479
0.00246424
0.00250364
0.00250946
0.00250033
0.00243147
0.00230239
0.00210533
0.00184731
0.00153346
0.00116932
0.000770029
0.000157347
0.00210473
0.00215624
0.00218105
0.00218698
0.00213983
0.00203722
0.0018732
0.00163968
0.0013449
0.00100187
0.000638474
0.000152708
0.00159765
0.00164948
0.00168346
0.001698
0.00166951
0.0015923
0.00147428
0.00129061
0.00103895
0.000750755
0.000453356
0.000142818
0.000881267
0.000916405
0.000942509
0.000956029
0.000945375
0.000903913
0.000839702
0.000744736
0.000584519
0.000400636
0.000219432
0.000132218
9.27423e-05
9.73672e-05
0.00010159
0.000105089
0.000106891
0.000106227
0.000103444
9.82059e-05
9.02657e-05
7.82062e-05
5.98018e-05
0.000223558
0.00032302
0.00201473
0.0026762
0.00289849
0.0030314
0.00313168
0.00322422
0.00330852
0.00337501
0.00341015
0.00340939
0.00336939
0.000276576
0.00178255
0.00250159
0.00278308
0.0029324
0.00303819
0.00313232
0.0032173
0.00328695
0.00332955
0.00333937
0.00331553
0.000253064
0.00160443
0.00232731
0.00264597
0.00280807
0.0029205
0.00301852
0.00310694
0.0031809
0.00323206
0.00325502
0.00324797
0.0002355
0.00144812
0.00215043
0.0024852
0.002657
0.00277563
0.00287883
0.00297261
0.00305293
0.00311344
0.00314956
0.00315914
0.000220488
0.00130006
0.00196508
0.00230115
0.00247706
0.00259992
0.00270843
0.0028085
0.0028962
0.00296642
0.0030156
0.00304192
0.000206344
0.0011487
0.00176822
0.00209271
0.00226561
0.00238936
0.00250208
0.00260821
0.00270325
0.00278286
0.00284446
0.0028869
0.000192296
0.000982753
0.00155465
0.0018576
0.00201909
0.00213908
0.00225359
0.00236414
0.00246506
0.00255252
0.00262486
0.00268174
0.000178617
0.000795493
0.00132061
0.00159192
0.00173191
0.00184211
0.00195445
0.00206587
0.0021692
0.00226114
0.00234077
0.00240864
0.000163931
0.000606331
0.00106462
0.00128799
0.00139446
0.00148757
0.00159174
0.00169776
0.00179705
0.00188727
0.00196791
0.00204047
0.000147053
0.00042072
0.000780414
0.000919952
0.000981188
0.00104968
0.001137
0.00122917
0.00131702
0.00139796
0.00146945
0.00153581
0.000125896
0.000218607
0.000426194
0.000469366
0.000488715
0.000523681
0.000580592
0.000642283
0.000699529
0.000753042
0.000797914
0.000840412
0.000166728
3.69088e-05
4.82317e-05
5.36445e-05
5.70359e-05
6.00594e-05
6.44004e-05
6.97232e-05
7.50436e-05
7.97808e-05
8.42059e-05
8.84075e-05
0.00328817
0.00318634
0.00307819
0.00293365
0.00274127
0.00253068
0.00229907
0.00204571
0.00175629
0.00138275
0.000822923
0.000252549
0.00325429
0.00315657
0.00306026
0.00293082
0.00273202
0.00250158
0.00223435
0.00193209
0.00158594
0.00116367
0.000572558
0.000146353
0.00320951
0.00312518
0.00303654
0.00292742
0.00273419
0.00249869
0.00221567
0.00189267
0.00153632
0.00115947
0.000617492
0.000137956
0.0031419
0.00308166
0.0030032
0.00291518
0.00273818
0.00251185
0.00223157
0.00191118
0.00157184
0.00124693
0.000729396
0.000143388
0.00304486
0.00301287
0.00294982
0.00288236
0.00273069
0.00252287
0.00225764
0.00195156
0.00162949
0.00130107
0.00083298
0.00014951
0.0029092
0.00290461
0.00286315
0.00281568
0.00269304
0.00250919
0.00226483
0.00197492
0.00165813
0.00130385
0.000875617
0.000155135
0.00272215
0.00274198
0.00272442
0.00269683
0.00260274
0.00244555
0.00222393
0.00194914
0.00163159
0.00126673
0.000846134
0.000158449
0.00246402
0.00250337
0.00250917
0.00250004
0.00243115
0.00230208
0.00210503
0.00184704
0.00153323
0.00116913
0.000769892
0.000157316
0.00210453
0.00215601
0.00218081
0.00218674
0.00213956
0.00203693
0.0018729
0.00163939
0.00134465
0.00100169
0.000638366
0.000152677
0.00159752
0.00164931
0.00168329
0.00169782
0.00166929
0.00159206
0.00147403
0.00129035
0.00103873
0.000750613
0.000453285
0.000142785
0.000881183
0.000916312
0.000942397
0.000955919
0.000945228
0.000903755
0.000839534
0.000744569
0.00058436
0.000400552
0.000219396
0.00013218
9.27357e-05
9.73567e-05
0.000101579
0.000105079
0.000106878
0.000106213
0.000103428
9.81889e-05
9.02484e-05
7.81903e-05
5.9788e-05
0.000223447
0.000323299
0.00201691
0.00267971
0.00290249
0.00303549
0.00313564
0.00322792
0.00331196
0.00337821
0.00341317
0.00341229
0.00337223
0.000276892
0.00178479
0.00250517
0.00278719
0.00293666
0.00304231
0.00313615
0.00322082
0.00329019
0.00333257
0.00334223
0.0033183
0.000253379
0.00160665
0.00233084
0.00265008
0.00281238
0.00292466
0.00302238
0.00311045
0.00318408
0.00323498
0.00325775
0.00325059
0.000235837
0.00145024
0.00215383
0.00248924
0.00266126
0.00277976
0.00288264
0.00297604
0.00305599
0.0031162
0.00315211
0.00316157
0.000220801
0.00130205
0.00196827
0.00230504
0.00248118
0.00260392
0.0027121
0.00281177
0.00289908
0.002969
0.00301795
0.00304412
0.000206669
0.00115053
0.00177115
0.00209635
0.0022695
0.00239314
0.00250553
0.00261127
0.00270592
0.00278521
0.00284657
0.00288885
0.000192613
0.000984359
0.00155728
0.00186092
0.00202266
0.00214252
0.00225673
0.00236691
0.00246747
0.00255462
0.00262672
0.00268345
0.000178905
0.000796764
0.00132286
0.00159482
0.00173502
0.0018451
0.00195716
0.00206827
0.00217129
0.00226295
0.00234236
0.00241007
0.000164277
0.000606806
0.001066
0.00129037
0.00139697
0.00148995
0.0015939
0.00169969
0.00179873
0.00188873
0.00196919
0.00204161
0.000147309
0.000425707
0.000779859
0.000922095
0.000982941
0.00105125
0.00113843
0.00123048
0.00131818
0.00139898
0.00147033
0.0015366
0.000125462
0.000262511
0.000421423
0.000471439
0.000489626
0.000524409
0.000581224
0.000642874
0.000700059
0.00075353
0.00079833
0.000840774
0.000164169
0.000186396
4.83307e-05
5.36978e-05
5.71269e-05
6.01369e-05
6.44625e-05
6.97691e-05
7.50826e-05
7.98137e-05
8.42342e-05
8.8432e-05
0.00329094
0.00318908
0.00308086
0.00293625
0.00274384
0.00253312
0.00230124
0.00204747
0.00175756
0.00138356
0.000823189
0.000252595
0.00325697
0.00315925
0.00306289
0.00293337
0.00273455
0.00250402
0.00223656
0.00193393
0.00158735
0.00116466
0.000573103
0.000146459
0.00321205
0.0031277
0.00303905
0.00292986
0.00273662
0.00250105
0.00221786
0.00189456
0.00153786
0.00116068
0.000618297
0.000138064
0.00314425
0.00308398
0.00300552
0.00291745
0.00274045
0.00251406
0.00223366
0.00191303
0.00157339
0.00124819
0.000730393
0.000143521
0.00304698
0.00301495
0.0029519
0.00288441
0.00273275
0.00252488
0.00225956
0.00195329
0.00163096
0.00130231
0.000833977
0.000149629
0.00291107
0.00290644
0.00286498
0.00281749
0.00269485
0.00251098
0.00226655
0.0019765
0.00165951
0.00130503
0.000876579
0.000155262
0.00272376
0.00274354
0.00272598
0.00269839
0.0026043
0.00244712
0.00222543
0.00195056
0.00163286
0.00126787
0.0008471
0.000158564
0.00246536
0.00250466
0.00251047
0.00250134
0.00243245
0.00230341
0.00210631
0.0018483
0.00153434
0.00117014
0.000770739
0.000157429
0.00210558
0.00215701
0.00218182
0.00218775
0.00214056
0.00203802
0.00187393
0.00164045
0.00134557
0.00100252
0.000639064
0.000152819
0.00159823
0.00164998
0.00168397
0.0016985
0.00167
0.00159279
0.00147482
0.00129108
0.00103943
0.000751193
0.000453755
0.000142905
0.000881501
0.000916619
0.000942706
0.000956227
0.000945579
0.000904083
0.000839954
0.000744904
0.00058481
0.000400834
0.000219611
0.000132291
9.27629e-05
9.7384e-05
0.000101609
0.000105102
0.00010691
0.00010624
0.000103463
9.82225e-05
9.02841e-05
7.82235e-05