/*--------------------------------*- C++ -*----------------------------------*\
  =========                 |
  \\      /  F ield         | OpenFOAM: The Open Source CFD Toolbox
   \\    /   O peration     | Website:  https://openfoam.org
    \\  /    A nd           | Version:  6
     \\/     M anipulation  |
\*---------------------------------------------------------------------------*/
FoamFile
{
    version     2.0;
    format      ascii;
    class       volScalarField;
    location    "250";
    object      p;
}
// * * * * * * * * * * * * * * * * * * * * * * * * * * * * * * * * * * * * * //

dimensions      [0 2 -2 0 0 0 0];

internalField   nonuniform List<scalar> 
3072
(
-0.0017113
-0.153039
-0.297127
-0.375254
-0.38228
-0.375282
-0.28033
-0.0565939
-0.0440775
-0.394807
-0.7882
-1.15447
0.654453
0.418355
0.301706
0.284123
0.397813
0.612988
0.989635
1.75696
2.19877
2.38733
2.48698
2.54696
1.43723
1.17165
1.12587
1.23061
1.56736
1.99672
2.39251
2.78964
3.0642
3.25487
3.38615
3.45387
2.4722
2.31299
2.40511
2.70411
3.11728
3.52299
3.89712
4.22045
4.45726
4.64693
4.80034
4.92229
3.55182
3.52654
3.73902
4.10924
4.52151
4.90484
5.25676
5.5509
5.77316
5.946
6.07706
6.17783
4.59586
4.70497
4.99841
5.40794
5.8272
6.20592
6.52062
6.77328
6.96717
7.11698
7.23073
7.31699
5.60359
5.8569
6.21405
6.65384
7.07671
7.43218
7.70956
7.92223
8.0809
8.19973
8.28828
8.3544
6.63412
7.02132
7.42318
7.87133
8.27409
8.59034
8.82321
8.99041
9.10822
9.19185
9.25202
9.29618
7.70462
8.22381
8.6464
9.07443
9.42778
9.68381
9.85757
9.97139
10.0441
10.0908
10.1224
10.145
8.82989
9.4575
9.88073
10.2583
10.5354
10.7085
10.8086
10.8615
10.886
10.8956
10.8999
10.9031
10.0008
10.7626
11.1359
11.3874
11.5599
11.6329
11.6518
11.6424
11.6205
11.5969
11.5792
11.5678
11.0238
12.0957
12.3139
12.3568
12.4016
12.3825
12.3334
12.2756
12.2212
12.1778
12.1507
12.1348
-1.31941
-1.33286
-1.14606
-0.814001
-0.331573
0.256403
0.924323
1.596
2.20062
2.70673
2.96351
2.78424
2.57825
2.62477
2.69326
2.80264
2.94819
3.12394
3.32246
3.51021
3.67431
3.9377
3.89586
3.14581
3.5094
3.57876
3.67704
3.80467
3.94596
4.09314
4.228
4.3138
4.32653
4.33389
4.19289
3.12431
5.02222
5.1071
5.18356
5.25109
5.30748
5.34544
5.35423
5.30297
5.15971
4.96237
4.68009
3.32521
6.25675
6.31925
6.36822
6.4027
6.42031
6.41368
6.37032
6.27263
6.08075
5.79736
5.45396
3.92209
7.3823
7.43129
7.46597
7.4857
7.48836
7.46802
7.41194
7.30719
7.12335
6.8369
6.48533
4.97245
8.40369
8.44006
8.46569
8.48089
8.48443
8.47216
8.43615
8.36427
8.23434
8.01895
7.75728
6.43008
9.32957
9.35556
9.37674
9.39463
9.40977
9.42096
9.42422
9.41238
9.37608
9.29519
9.21838
8.26931
10.1637
10.1809
10.1998
10.223
10.2536
10.2941
10.3453
10.4063
10.4823
10.573
10.7699
10.4024
10.9091
10.919
10.936
10.9638
11.0072
11.0744
11.1712
11.3047
11.4918
11.76
12.3407
12.7414
11.5654
11.5698
11.5849
11.6148
11.6654
11.7493
11.878
12.0664
12.3368
12.7546
13.7494
15.0677
12.1323
12.1351
12.1491
12.1784
12.2296
12.3163
12.4528
12.6606
12.9544
13.4258
14.5212
16.5096
-0.0013125
-0.15231
-0.296889
-0.375875
-0.383486
-0.376726
-0.282111
-0.0581855
-0.0433943
-0.392787
-0.7855
-1.15149
0.655959
0.418812
0.301457
0.283267
0.396187
0.610804
0.985422
1.75307
2.19708
2.38613
2.48682
2.54712
1.43918
1.17263
1.12631
1.23029
1.56615
1.99536
2.39096
2.7882
3.06338
3.25429
3.38616
3.45418
2.47452
2.31464
2.40585
2.70386
3.11656
3.52208
3.89613
4.21965
4.45676
4.64662
4.80023
4.92228
3.55391
3.52818
3.73971
4.1092
4.52109
4.90426
5.25617
5.55042
5.77289
5.94584
6.07707
6.1779
4.59778
4.70636
4.99908
5.40801
5.82699
6.20564
6.52032
6.77311
6.96706
7.117
7.2308
7.31718
5.60531
5.85812
6.21464
6.65396
7.07664
7.43206
7.70951
7.92221
8.08099
8.19986
8.2885
8.35466
6.63562
7.02238
7.42372
7.87151
8.2741
8.59035
8.82325
8.99052
9.1084
9.1921
9.25231
9.29653
7.7059
8.22479
8.64689
9.07466
9.42788
9.68391
9.85771
9.97161
10.0444
10.0912
10.1227
10.1455
8.831
9.45828
9.88119
10.2585
10.5356
10.7088
10.8089
10.8619
10.8865
10.8961
10.9004
10.9036
10.0016
10.7633
11.1362
11.3876
11.5602
11.6332
11.6521
11.6428
11.621
11.5974
11.5797
11.5683
11.0246
12.0963
12.3143
12.357
12.4018
12.3829
12.3338
12.2761
12.2217
12.1783
12.1512
12.1353
-1.31636
-1.32996
-1.14344
-0.811787
-0.329842
0.257582
0.924937
1.59604
2.20014
2.70573
2.9623
2.78304
2.57878
2.62533
2.69386
2.80311
2.94853
3.12407
3.32235
3.50985
3.67373
3.93679
3.89485
3.14506
3.5099
3.57932
3.6776
3.80514
3.9463
4.09332
4.22802
4.31366
4.32627
4.33351
4.19251
3.1243
5.02234
5.10732
5.18383
5.25136
5.30769
5.34558
5.35429
5.30295
5.15965
4.96233
4.68007
3.32566
6.25692
6.31947
6.36847
6.40295
6.42053
6.41387
6.37047
6.27273
6.08084
5.79746
5.45414
3.92267
7.38253
7.43155
7.46622
7.48595
7.4886
7.46824
7.41213
7.30735
7.12348
6.83701
6.48548
4.97296
8.404
8.44038
8.466
8.4812
8.48471
8.47242
8.43638
8.36444
8.23447
8.01904
7.75729
6.43035
9.32994
9.35594
9.37711
9.39498
9.4101
9.42125
9.42447
9.41257
9.37618
9.29512
9.21819
8.26918
10.1641
10.1814
10.2002
10.2234
10.2539
10.2945
10.3456
10.4065
10.4824
10.5729
10.7694
10.4019
10.9095
10.9194
10.9365
10.9642
11.0076
11.0748
11.1715
11.3049
11.4919
11.7598
12.34
12.7403
11.5659
11.5703
11.5854
11.6153
11.6658
11.7497
11.8783
12.0667
12.337
12.7544
13.7486
15.0661
12.1327
12.1356
12.1495
12.1788
12.23
12.3167
12.4531
12.6609
12.9546
13.4257
14.5204
16.5079
-0.00249088
-0.153468
-0.297967
-0.376655
-0.383954
-0.377223
-0.282338
-0.058649
-0.0469146
-0.397412
-0.790196
-1.15571
0.654866
0.417769
0.300717
0.283025
0.39679
0.611591
0.989528
1.75676
2.19765
2.3863
2.48593
2.54617
1.43864
1.17262
1.12673
1.23141
1.5685
1.99747
2.39311
2.7899
3.06408
3.25469
3.38588
3.45368
2.47475
2.31564
2.40789
2.70674
3.11927
3.52437
3.8981
4.22105
4.45758
4.64713
4.80046
4.9224
3.55436
3.52944
3.74198
4.11184
4.52351
4.9063
5.25781
5.55164
5.77366
5.94637
6.07734
6.17808
4.598
4.70763
5.00104
5.41015
5.82887
6.20713
6.52152
6.77396
6.96769
7.11741
7.23108
7.31731
5.60516
5.85916
6.21625
6.65564
7.07803
7.43311
7.71028
7.9228
8.08138
8.20014
8.28865
8.35473
6.63534
7.02325
7.42499
7.87278
8.27508
8.59105
8.82374
8.99087
9.10862
9.19222
9.25237
9.29651
7.7057
8.22543
8.64791
9.07556
9.42853
9.68432
9.85798
9.97176
10.0444
10.0912
10.1227
10.1454
8.83093
9.45893
9.882
10.2591
10.536
10.7089
10.8089
10.8618
10.8864
10.8959
10.9002
10.9034
10.0018
10.7638
11.1369
11.388
11.5603
11.6332
11.652
11.6427
11.6208
11.5972
11.5795
11.5681
11.0248
12.0968
12.3147
12.3573
12.4019
12.3828
12.3336
12.2759
12.2214
12.1781
12.151
12.1351
-1.32002
-1.33292
-1.14577
-0.813451
-0.330943
0.257021
0.924797
1.59627
2.20063
2.70645
2.96311
2.78387
2.57769
2.62449
2.6932
2.80275
2.94838
3.12417
3.32265
3.51032
3.67431
3.93747
3.89553
3.14564
3.50932
3.57881
3.67718
3.80489
3.94621
4.09339
4.22821
4.31396
4.32664
4.33392
4.19283
3.12448
5.02233
5.10723
5.18371
5.25128
5.30769
5.34566
5.35446
5.30318
5.15991
4.96258
4.68025
3.32566
6.25697
6.31947
6.36844
6.40293
6.42055
6.41393
6.37057
6.27288
6.08102
5.79766
5.45426
3.92268
7.38259
7.43156
7.46623
7.48596
7.48862
7.46828
7.4122
7.30744
7.12363
6.83723
6.48569
4.97309
8.404
8.44036
8.46598
8.48118
8.4847
8.47242
8.4364
8.36451
8.23461
8.01927
7.75765
6.43068
9.32989
9.35587
9.37704
9.39492
9.41005
9.42122
9.42446
9.4126
9.37629
9.29544
9.21869
8.26978
10.164
10.1812
10.2001
10.2233
10.2538
10.2944
10.3455
10.4065
10.4825
10.5731
10.77
10.4027
10.9094
10.9193
10.9363
10.9641
11.0075
11.0747
11.1714
11.3048
11.4918
11.7601
12.3407
12.7413
11.5657
11.5701
11.5852
11.6151
11.6657
11.7496
11.8782
12.0666
12.3368
12.7545
13.7493
15.0673
12.1325
12.1354
12.1493
12.1786
12.2298
12.3165
12.4529
12.6607
12.9544
13.4256
14.5209
16.509
-0.00184189
-0.152889
-0.297517
-0.376556
-0.384197
-0.377442
-0.282773
-0.0587632
-0.0439873
-0.393689
-0.786698
-1.15297
0.655364
0.418091
0.300679
0.282437
0.39535
0.610053
0.984653
1.75261
2.19679
2.38578
2.48639
2.54657
1.43848
1.17172
1.12533
1.22928
1.56515
1.99447
2.39013
2.78749
3.06272
3.25361
3.38546
3.45342
2.47383
2.31375
2.40483
2.70286
3.11573
3.52141
3.89555
4.21909
4.45622
4.64607
4.79967
4.9217
3.55336
3.52746
3.73892
4.10848
4.5205
4.90378
5.25574
5.55001
5.77248
5.94542
6.07663
6.17744
4.59742
4.70579
4.99852
5.40754
5.82662
6.20535
6.52006
6.77284
6.96677
7.11668
7.23045
7.31679
5.60509
5.85768
6.21424
6.6537
7.07651
7.43198
7.70941
7.92208
8.0808
8.19963
8.28822
8.35434
6.6355
7.02203
7.42346
7.87141
8.27414
8.59042
8.82327
8.99049
9.10829
9.19192
9.25208
9.29625
7.70582
8.22455
8.64674
9.07468
9.42801
9.68405
9.8578
9.97161
10.0443
10.091
10.1225
10.1452
8.83097
9.45811
9.88113
10.2586
10.5358
10.7089
10.8089
10.8618
10.8864
10.8959
10.9001
10.9033
10.0016
10.7632
11.1362
11.3877
11.5603
11.6333
11.6521
11.6428
11.6208
11.5972
11.5795
11.568
11.0246
12.0963
12.3143
12.3571
12.4019
12.3829
12.3337
12.276
12.2215
12.1781
12.1509
12.135
-1.31798
-1.33165
-1.14508
-0.813335
-0.331202
0.256455
0.9241
1.59551
2.19992
2.70582
2.96252
2.78323
2.57813
2.6246
2.69309
2.80236
2.94783
3.12346
3.32187
3.50951
3.67353
3.93682
3.89498
3.14504
3.50911
3.57852
3.67682
3.80441
3.94564
4.09275
4.22754
4.31327
4.32596
4.33327
4.19235
3.12393
5.02177
5.10675
5.18327
5.25081
5.30716
5.34508
5.35383
5.30253
5.15926
4.96193
4.67972
3.32506
6.25645
6.31899
6.36799
6.40247
6.42006
6.41341
6.37002
6.2723
6.08042
5.79702
5.45369
3.92201
7.38214
7.43114
7.46581
7.48553
7.4882
7.46783
7.41172
7.30694
7.12306
6.83657
6.48503
4.97233
8.40366
8.44003
8.46564
8.48084
8.48435
8.47206
8.43602
8.36408
8.2341
8.01866
7.75691
6.42985
9.32964
9.35562
9.37678
9.39465
9.40978
9.42093
9.42416
9.41226
9.37589
9.29483
9.21794
8.26889
10.1638
10.181
10.1999
10.2231
10.2536
10.2942
10.3453
10.4063
10.4822
10.5727
10.7693
10.4018
10.9092
10.9191
10.9361
10.9639
11.0073
11.0745
11.1712
11.3047
11.4917
11.7597
12.34
12.7405
11.5656
11.57
11.585
11.6149
11.6655
11.7494
11.8781
12.0665
12.3368
12.7544
13.7487
15.0666
12.1324
12.1352
12.1492
12.1784
12.2296
12.3164
12.4529
12.6606
12.9544
13.4256
14.5205
16.5082
13.084
13.3117
13.2113
13.0704
12.9827
12.8949
12.8056
12.7251
12.6622
12.6207
12.6038
12.5993
13.4583
13.3331
13.3243
13.259
13.2009
13.1308
13.055
12.9895
12.9478
12.9329
12.947
12.9715
13.5813
13.4904
13.4535
13.379
13.309
13.2373
13.1728
13.1296
13.1204
13.1484
13.2113
13.2811
13.656
13.5717
13.4965
13.4053
13.3176
13.2386
13.182
13.1639
13.1992
13.2951
13.4442
13.6057
12.6097
12.6172
12.6329
12.6592
12.7043
12.7812
12.9019
13.0916
13.3404
13.6873
14.0741
15.0546
13.0102
13.028
13.048
13.0685
13.1001
13.1553
13.2426
13.3905
13.578
13.8364
13.9678
14.2544
13.3608
13.388
13.4125
13.4217
13.4308
13.4514
13.4901
13.5766
13.6893
13.8735
13.9265
14.0116
13.7548
13.7793
13.8031
13.7877
13.7558
13.7165
13.6772
13.6662
13.6719
13.7605
13.7702
13.8532
13.0848
13.3122
13.2113
13.0706
12.983
12.8952
12.806
12.7255
12.6627
12.6212
12.6042
12.5997
13.4591
13.3333
13.3244
13.2591
13.2011
13.1311
13.0553
12.9899
12.9482
12.9333
12.9474
12.9718
13.5821
13.4907
13.4536
13.3791
13.3093
13.2376
13.1731
13.13
13.1209
13.1488
13.2116
13.2813
13.6569
13.5722
13.4968
13.4055
13.3179
13.2389
13.1823
13.1643
13.1996
13.2955
13.4444
13.6058
12.6101
12.6175
12.6332
12.6595
12.7046
12.7816
12.9022
13.0919
13.3407
13.6874
14.0741
15.054
13.0105
13.0282
13.0482
13.0687
13.1003
13.1556
13.2429
13.3909
13.5783
13.8367
13.9678
14.2545
13.3609
13.388
13.4125
13.4219
13.4311
13.4517
13.4904
13.577
13.6897
13.8738
13.927
14.0119
13.7547
13.779
13.803
13.7876
13.7559
13.7167
13.6776
13.6667
13.6725
13.7612
13.7708
13.8538
13.0848
13.3127
13.2119
13.0709
12.9831
12.8953
12.8059
12.7254
12.6626
12.6211
12.6041
12.5996
13.4594
13.334
13.3249
13.2596
13.2015
13.1313
13.0555
12.99
12.9483
12.9333
12.9473
12.9718
13.5826
13.4913
13.4543
13.3797
13.3097
13.238
13.1735
13.1302
13.1211
13.149
13.2117
13.2814
13.6575
13.5728
13.4975
13.4062
13.3185
13.2395
13.1829
13.1648
13.2
13.2958
13.4446
13.6059
12.6099
12.6174
12.633
12.6593
12.7045
12.7814
12.902
13.0917
13.3404
13.6871
14.0738
15.0544
13.0104
13.0281
13.0481
13.0686
13.1002
13.1554
13.2428
13.3907
13.5781
13.8363
13.9676
14.2544
13.3609
13.388
13.4125
13.4218
13.431
13.4516
13.4903
13.5768
13.6895
13.8736
13.9265
14.0117
13.7547
13.779
13.803
13.7876
13.7558
13.7166
13.6774
13.6665
13.6723
13.7608
13.7705
13.8534
13.0849
13.3122
13.2114
13.0707
12.983
12.8953
12.8059
12.7254
12.6625
12.621
12.604
12.5994
13.4592
13.3335
13.3246
13.2593
13.2013
13.1312
13.0554
12.9899
12.9482
12.9332
12.9472
12.9716
13.5823
13.4909
13.4538
13.3794
13.3095
13.2378
13.1733
13.1301
13.121
13.1488
13.2115
13.2812
13.6572
13.5724
13.4971
13.4058
13.3182
13.2392
13.1827
13.1647
13.1999
13.2957
13.4444
13.6057
12.6098
12.6172
12.6329
12.6592
12.7043
12.7812
12.9019
13.0916
13.3404
13.6872
14.0738
15.0537
13.0102
13.0279
13.0479
13.0684
13.1
13.1553
13.2426
13.3905
13.5779
13.8363
13.9674
14.2535
13.3607
13.3878
13.4123
13.4216
13.4307
13.4513
13.4901
13.5766
13.6892
13.8733
13.9263
14.0108
13.7545
13.7789
13.8028
13.7874
13.7556
13.7163
13.6771
13.6662
13.6718
13.7603
13.7697
13.8525
13.7189
13.6552
13.5767
13.4895
13.4017
13.3212
13.2619
13.239
13.2682
13.3589
13.4988
13.6696
13.7883
13.7314
13.6627
13.5886
13.5118
13.4376
13.3778
13.3468
13.3564
13.4094
13.5071
13.6364
13.8408
13.7886
13.7267
13.6604
13.5892
13.5158
13.4518
13.4139
13.404
13.4383
13.5205
13.6342
13.88
13.8318
13.774
13.7113
13.6408
13.563
13.4933
13.4438
13.4187
13.4462
13.5286
13.5978
13.8776
13.9231
13.9696
13.9613
13.9327
13.8878
13.8355
13.7919
13.7558
13.7729
13.7495
13.7958
13.8707
13.9116
13.9709
13.9781
13.9709
13.9513
13.9271
13.9077
13.8906
13.8952
13.8672
13.8622
13.9234
13.9352
13.9958
14.0102
14.0125
14.0042
13.9913
13.9793
13.9656
13.9598
13.9296
13.9063
14.0729
14.0001
14.0339
14.0466
14.0503
14.0462
14.0374
14.0264
14.0114
13.9975
13.9661
13.936
13.7197
13.6557
13.577
13.4898
13.402
13.3215
13.2622
13.2394
13.2686
13.3593
13.4991
13.6697
13.7891
13.7318
13.6631
13.5889
13.5121
13.4379
13.3781
13.3472
13.3568
13.4099
13.5075
13.6367
13.8414
13.789
13.727
13.6606
13.5894
13.5161
13.4521
13.4143
13.4044
13.4388
13.521
13.6346
13.8806
13.8321
13.7743
13.7116
13.641
13.5633
13.4936
13.4441
13.4191
13.4467
13.5291
13.5984
13.8776
13.923
13.9695
13.9612
13.9327
13.8881
13.8359
13.7925
13.7565
13.7736
13.7503
13.7965
13.8709
13.9116
13.971
13.9782
13.9711
13.9516
13.9276
13.9083
13.8913
13.896
13.8679
13.8629
13.9238
13.9354
13.9959
14.0104
14.0128
14.0046
13.9918
13.9799
13.9663
13.9605
13.9304
13.907
14.0736
14.0004
14.0341
14.0469
14.0507
14.0466
14.0379
14.027
14.012
13.9982
13.9667
13.9367
13.7203
13.6563
13.5777
13.4905
13.4026
13.3221
13.2628
13.24
13.2691
13.3596
13.4993
13.6699
13.7898
13.7324
13.6637
13.5895
13.5127
13.4385
13.3788
13.3477
13.3573
13.4102
13.5078
13.6369
13.8421
13.7896
13.7277
13.6613
13.5901
13.5167
13.4527
13.4148
13.4049
13.4391
13.5213
13.6348
13.8812
13.8327
13.7749
13.7122
13.6416
13.5639
13.4941
13.4446
13.4195
13.447
13.5294
13.5987
13.8776
13.923
13.9695
13.9612
13.9327
13.888
13.8358
13.7923
13.7562
13.7734
13.7499
13.7962
13.871
13.9116
13.971
13.9782
13.9711
13.9515
13.9274
13.9081
13.891
13.8957
13.8676
13.8626
13.9238
13.9354
13.9959
14.0103
14.0127
14.0044
13.9916
13.9796
13.966
13.9602
13.93
13.9067
14.0735
14.0003
14.034
14.0468
14.0505
14.0465
14.0377
14.0268
14.0118
13.9979
13.9665
13.9364
13.72
13.656
13.5773
13.4901
13.4023
13.3218
13.2625
13.2398
13.269
13.3595
13.4992
13.6697
13.7895
13.7321
13.6634
13.5891
13.5123
13.4382
13.3784
13.3475
13.3571
13.4101
13.5076
13.6367
13.8418
13.7893
13.7273
13.6609
13.5897
13.5163
13.4523
13.4145
13.4046
13.439
13.5211
13.6346
13.8809
13.8324
13.7745
13.7118
13.6412
13.5635
13.4938
13.4443
13.4193
13.4469
13.5292
13.5984
13.8774
13.9228
13.9693
13.961
13.9324
13.8877
13.8354
13.7919
13.7558
13.7728
13.7492
13.795
13.8707
13.9114
13.9707
13.9779
13.9708
13.9512
13.9271
13.9077
13.8906
13.8953
13.8671
13.8614
13.9234
13.9351
13.9956
14.0101
14.0123
14.0041
13.9912
13.9792
13.9656
13.9598
13.9296
13.9058
14.073
14
14.0338
14.0465
14.0502
14.0461
14.0373
14.0264
14.0113
13.9975
13.966
13.9356
13.9091
13.8632
13.8075
13.7451
13.6714
13.5882
13.5097
13.4361
13.3976
13.4025
13.4609
13.3909
13.9296
13.8847
13.8292
13.7646
13.6856
13.5969
13.4971
13.4055
13.3526
13.3369
13.3961
13.397
13.9433
13.8982
13.8419
13.7734
13.6889
13.5877
13.472
13.3716
13.3077
13.2905
13.341
13.3782
13.9522
13.906
13.8481
13.7752
13.6842
13.5714
13.4497
13.342
13.2752
13.2628
13.3097
13.3655
13.9578
13.9103
13.8506
13.7736
13.6763
13.558
13.4319
13.322
13.2571
13.2507
13.3006
13.3667
13.9617
13.9129
13.8515
13.7717
13.67
13.5489
13.421
13.3127
13.2523
13.253
13.3113
13.3809
13.9649
13.9154
13.8529
13.7714
13.6674
13.5452
13.4175
13.3128
13.258
13.266
13.3333
13.4055
13.9683
13.9189
13.8561
13.7742
13.6694
13.5475
13.4212
13.3207
13.2711
13.2861
13.3617
13.4348
13.973
13.9248
13.8626
13.7816
13.6774
13.5567
13.4314
13.3344
13.2883
13.3088
13.3899
13.4641
13.981
13.9356
13.8763
13.7976
13.6952
13.5753
13.4495
13.3533
13.3061
13.3282
13.4118
13.4899
13.994
13.9543
13.9007
13.8271
13.728
13.6081
13.4788
13.379
13.323
13.3414
13.4275
13.5079
14.0041
13.9695
13.9221
13.8551
13.7619
13.6446
13.5169
13.403
13.344
13.3559
13.4368
13.5101
14.3712
14.1379
14.0811
14.0811
14.0815
14.078
14.0704
14.0589
14.042
14.0232
13.9913
13.9584
14.3577
14.1955
14.1162
14.1077
14.1064
14.1021
14.0941
14.0814
14.063
14.0409
14.009
13.975
14.3185
14.1973
14.1395
14.1275
14.1255
14.1205
14.1115
14.0973
14.0772
14.0531
14.0212
13.9866
14.2791
14.1868
14.1535
14.1419
14.14
14.1345
14.1243
14.1084
14.0869
14.0613
14.0295
13.9946
14.2467
14.1776
14.1619
14.1523
14.1511
14.1453
14.1338
14.1163
14.0934
14.0668
14.0349
13.9998
14.2245
14.172
14.1673
14.16
14.1595
14.1534
14.1407
14.1217
14.0977
14.0703
14.0386
14.0034
14.2132
14.171
14.1713
14.1657
14.1656
14.1593
14.1454
14.1251
14.1004
14.0726
14.0412
14.0062
14.2108
14.1753
14.1746
14.1699
14.1695
14.163
14.1482
14.1269
14.1017
14.0741
14.0432
14.0088
14.2142
14.1847
14.1777
14.1724
14.1709
14.1642
14.1488
14.127
14.1019
14.0749
14.0453
14.0121
14.2212
14.1969
14.1804
14.1716
14.168
14.1614
14.1461
14.1246
14.1006
14.0754
14.0479
14.0172
14.2286
14.2068
14.1829
14.1681
14.1612
14.1537
14.1387
14.1188
14.0975
14.0754
14.0517
14.0253
14.2366
14.2172
14.1871
14.1666
14.1562
14.1463
14.1314
14.1135
14.0946
14.075
14.0543
14.0313
13.9095
13.8635
13.8077
13.7453
13.6716
13.5885
13.51
13.4364
13.3981
13.4031
13.4615
13.3914
13.9299
13.8849
13.8295
13.7648
13.6858
13.5971
13.4973
13.4058
13.3531
13.3374
13.3966
13.3974
13.9435
13.8984
13.8421
13.7735
13.6891
13.5879
13.4722
13.3719
13.3082
13.2911
13.3416
13.3787
13.9523
13.9061
13.8483
13.7753
13.6844
13.5716
13.45
13.3424
13.2757
13.2634
13.3103
13.366
13.9579
13.9104
13.8507
13.7737
13.6764
13.5582
13.4322
13.3224
13.2576
13.2513
13.3012
13.3673
13.9617
13.9131
13.8516
13.7718
13.6701
13.5491
13.4212
13.313
13.2528
13.2536
13.3119
13.3814
13.9649
13.9155
13.853
13.7715
13.6675
13.5453
13.4177
13.3132
13.2585
13.2666
13.3339
13.4059
13.9683
13.919
13.8561
13.7743
13.6695
13.5476
13.4214
13.321
13.2716
13.2867
13.3622
13.4352
13.973
13.9248
13.8627
13.7817
13.6775
13.5568
13.4316
13.3348
13.2887
13.3093
13.3904
13.4645
13.981
13.9357
13.8764
13.7977
13.6953
13.5755
13.4497
13.3536
13.3066
13.3286
13.4123
13.4902
13.994
13.9544
13.9008
13.8271
13.728
13.6082
13.4789
13.3793
13.3233
13.3418
13.4279
13.5082
14.0041
13.9695
13.9221
13.8551
13.7619
13.6446
13.517
13.4032
13.3444
13.3563
13.4372
13.5104
14.3723
14.1384
14.0814
14.0814
14.082
14.0785
14.0709
14.0595
14.0427
14.0239
13.992
13.9591
14.3587
14.1961
14.1167
14.1081
14.1069
14.1027
14.0948
14.0821
14.0636
14.0416
14.0097
13.9756
14.3194
14.1979
14.14
14.1279
14.126
14.121
14.1122
14.0979
14.0779
14.0538
14.0219
13.9873
14.2799
14.1874
14.154
14.1424
14.1406
14.1351
14.125
14.1091
14.0876
14.062
14.0301
13.9952
14.2474
14.1781
14.1624
14.1528
14.1517
14.1459
14.1345
14.1169
14.0941
14.0674
14.0356
14.0004
14.2251
14.1726
14.1679
14.1605
14.1601
14.154
14.1414
14.1223
14.0984
14.071
14.0392
14.004
14.2138
14.1715
14.1718
14.1663
14.1662
14.1599
14.1461
14.1258
14.101
14.0733
14.0418
14.0067
14.2114
14.1759
14.1752
14.1706
14.1702
14.1637
14.1489
14.1276
14.1024
14.0747
14.0438
14.0094
14.2149
14.1852
14.1784
14.173
14.1715
14.1649
14.1495
14.1276
14.1025
14.0756
14.0459
14.0127
14.2219
14.1975
14.1813
14.1724
14.1687
14.1621
14.1467
14.1252
14.1012
14.076
14.0485
14.0178
14.2293
14.2075
14.1838
14.1688
14.162
14.1543
14.1394
14.1195
14.0981
14.076
14.0523
14.0258
14.2378
14.2177
14.1875
14.1673
14.1569
14.147
14.1321
14.1142
14.0952
14.0756
14.0549
14.0319
13.9102
13.8641
13.8083
13.7459
13.6722
13.589
13.5105
13.4369
13.3984
13.4033
13.4617
13.3917
13.9305
13.8855
13.83
13.7653
13.6863
13.5976
13.4978
13.4062
13.3533
13.3376
13.3968
13.3977
13.9441
13.8989
13.8426
13.774
13.6896
13.5884
13.4727
13.3723
13.3084
13.2911
13.3417
13.379
13.9529
13.9067
13.8488
13.7758
13.6849
13.572
13.4504
13.3427
13.2759
13.2634
13.3103
13.3662
13.9585
13.911
13.8512
13.7742
13.6769
13.5586
13.4326
13.3227
13.2578
13.2514
13.3013
13.3675
13.9623
13.9136
13.8522
13.7723
13.6707
13.5495
13.4217
13.3133
13.253
13.2537
13.312
13.3816
13.9654
13.916
13.8535
13.772
13.668
13.5457
13.4182
13.3134
13.2587
13.2667
13.3341
13.4062
13.9689
13.9196
13.8567
13.7747
13.6701
13.548
13.4219
13.3213
13.2719
13.2868
13.3624
13.4356
13.9736
13.9253
13.8633
13.782
13.6782
13.557
13.4323
13.3348
13.2891
13.3095
13.3907
13.4649
13.9816
13.9362
13.8769
13.7981
13.6959
13.5758
13.4502
13.3539
13.3069
13.3288
13.4126
13.4907
13.9946
13.9549
13.9013
13.8276
13.7286
13.6086
13.4795
13.3796
13.3237
13.3421
13.4282
13.5087
14.0046
13.97
13.9226
13.8556
13.7625
13.6451
13.5176
13.4036
13.3448
13.3566
13.4375
13.5109
14.372
14.1382
14.0813
14.0813
14.0818
14.0783
14.0707
14.0593
14.0424
14.0236
13.9917
13.9588
14.3584
14.1959
14.1165
14.1079
14.1067
14.1024
14.0945
14.0818
14.0633
14.0413
14.0094
13.9753
14.3191
14.1976
14.1398
14.1277
14.1258
14.1208
14.1119
14.0976
14.0776
14.0535
14.0216
13.987
14.2796
14.1871
14.1537
14.1421
14.1403
14.1348
14.1247
14.1088
14.0873
14.0617
14.0298
13.9949
14.2471
14.1779
14.1622
14.1525
14.1514
14.1456
14.1342
14.1166
14.0938
14.0671
14.0353
14.0001
14.2248
14.1723
14.1676
14.1602
14.1598
14.1537
14.141
14.122
14.0981
14.0707
14.0389
14.0037
14.2136
14.1713
14.1716
14.166
14.1659
14.1596
14.1458
14.1255
14.1007
14.073
14.0415
14.0064
14.2112
14.1757
14.1749
14.1702
14.1698
14.1633
14.1485
14.1273
14.102
14.0744
14.0435
14.0091
14.2147
14.185
14.178
14.1727
14.1712
14.1645
14.1492
14.1273
14.1022
14.0753
14.0456
14.0124
14.2217
14.1973
14.1808
14.172
14.1683
14.1617
14.1464
14.1249
14.1009
14.0757
14.0482
14.0175
14.2291
14.2072
14.1833
14.1684
14.1615
14.154
14.1391
14.1192
14.0978
14.0757
14.052
14.0255
14.2372
14.2177
14.1875
14.167
14.1565
14.1466
14.1318
14.1139
14.0949
14.0753
14.0546
14.0315
13.9098
13.8638
13.808
13.7455
13.6718
13.5886
13.5101
13.4366
13.3982
13.4032
13.4616
13.3916
13.9302
13.8852
13.8297
13.765
13.6859
13.5972
13.4974
13.4059
13.3532
13.3376
13.3968
13.3976
13.9438
13.8986
13.8423
13.7737
13.6892
13.588
13.4723
13.372
13.3083
13.2912
13.3418
13.3789
13.9526
13.9064
13.8484
13.7754
13.6845
13.5716
13.45
13.3425
13.2758
13.2635
13.3104
13.3662
13.9582
13.9107
13.8509
13.7739
13.6765
13.5583
13.4323
13.3225
13.2578
13.2515
13.3014
13.3675
13.962
13.9133
13.8518
13.7719
13.6702
13.5491
13.4213
13.3132
13.2529
13.2538
13.3121
13.3816
13.9651
13.9157
13.8531
13.7716
13.6675
13.5454
13.4178
13.3133
13.2586
13.2668
13.3341
13.4061
13.9686
13.9192
13.8563
13.7743
13.6696
13.5477
13.4215
13.3212
13.2718
13.2869
13.3624
13.4355
13.9733
13.925
13.8629
13.7818
13.6775
13.5569
13.4317
13.3349
13.2889
13.3095
13.3906
13.4647
13.9812
13.9359
13.8765
13.7978
13.6954
13.5755
13.4498
13.3538
13.3067
13.3288
13.4125
13.4904
13.9942
13.9545
13.9009
13.8272
13.7281
13.6083
13.479
13.3794
13.3235
13.342
13.4281
13.5084
14.0043
13.9696
13.9222
13.8552
13.7619
13.6447
13.5171
13.4034
13.3446
13.3565
13.4374
13.5106
14.3712
14.1378
14.081
14.081
14.0814
14.0779
14.0703
14.0588
14.042
14.0232
13.9913
13.9581
14.3577
14.1955
14.1162
14.1076
14.1063
14.102
14.0941
14.0814
14.0629
14.0409
14.0089
13.9748
14.3185
14.1973
14.1395
14.1274
14.1254
14.1204
14.1115
14.0972
14.0771
14.053
14.0211
13.9865
14.2791
14.1868
14.1535
14.1418
14.14
14.1344
14.1243
14.1083
14.0868
14.0612
14.0293
13.9945
14.2467
14.1776
14.1619
14.1523
14.1511
14.1452
14.1337
14.1162
14.0933
14.0667
14.0348
13.9997
14.2245
14.1721
14.1673
14.1599
14.1594
14.1533
14.1406
14.1215
14.0976
14.0702
14.0384
14.0033
14.2132
14.171
14.1713
14.1657
14.1656
14.1592
14.1453
14.125
14.1002
14.0725
14.041
14.0061
14.2108
14.1753
14.1746
14.1699
14.1695
14.163
14.1481
14.1268
14.1016
14.0739
14.043
14.0088
14.2142
14.1847
14.1777
14.1724
14.1709
14.1642
14.1487
14.1268
14.1017
14.0748
14.0451
14.0121
14.2212
14.1969
14.1804
14.1716
14.168
14.1614
14.146
14.1245
14.1004
14.0753
14.0478
14.0172
14.2286
14.2068
14.1828
14.168
14.1612
14.1536
14.1386
14.1187
14.0973
14.0753
14.0516
14.0253
14.2366
14.2172
14.187
14.1666
14.1561
14.1462
14.1313
14.1134
14.0945
14.0749
14.0542
14.0313
)
;

boundaryField
{
    rotor
    {
        type            zeroGradient;
    }
    stator
    {
        type            zeroGradient;
    }
    front
    {
        type            empty;
    }
    back
    {
        type            empty;
    }
}


// ************************************************************************* //
