/*--------------------------------*- C++ -*----------------------------------*\
  =========                 |
  \\      /  F ield         | OpenFOAM: The Open Source CFD Toolbox
   \\    /   O peration     | Website:  https://openfoam.org
    \\  /    A nd           | Version:  6
     \\/     M anipulation  |
\*---------------------------------------------------------------------------*/
FoamFile
{
    version     2.0;
    format      ascii;
    class       surfaceScalarField;
    location    "250";
    object      phi;
}
// * * * * * * * * * * * * * * * * * * * * * * * * * * * * * * * * * * * * * //

dimensions      [0 3 -1 0 0 0 0];

internalField   nonuniform List<scalar> 
5952
(
5.63799e-06
-5.55294e-06
9.33164e-06
-3.69411e-06
1.20442e-05
-2.71172e-06
1.25709e-05
-5.24467e-07
9.96528e-06
2.60561e-06
4.28617e-06
5.68395e-06
-6.88624e-06
1.11717e-05
-2.333e-05
1.6446e-05
-3.7261e-05
1.39304e-05
-4.80602e-05
1.07992e-05
-5.63335e-05
8.27298e-06
6.09786e-06
-6.2432e-05
1.99563e-06
-7.54744e-06
2.81263e-06
-4.50991e-06
1.9489e-07
-9.27903e-08
-6.23673e-06
5.9092e-06
-1.73856e-05
1.37551e-05
-3.04793e-05
1.87787e-05
-3.99691e-05
2.06618e-05
-4.36464e-05
2.0124e-05
-4.66416e-05
1.69257e-05
-4.95729e-05
1.37305e-05
-5.21597e-05
1.08598e-05
7.88522e-06
-5.39475e-05
-7.50734e-07
-6.7958e-06
-4.12286e-06
-1.13652e-06
-1.11578e-05
6.94296e-06
-2.07561e-05
1.55086e-05
-2.85038e-05
2.15032e-05
-3.33928e-05
2.36685e-05
-3.61348e-05
2.34041e-05
-3.7458e-05
2.14477e-05
-3.87322e-05
1.82e-05
-4.0056e-05
1.50542e-05
-4.11444e-05
1.19483e-05
8.80279e-06
-4.20622e-05
-4.36944e-06
-2.42509e-06
-1.03192e-05
4.81418e-06
-1.67294e-05
1.33537e-05
-2.21925e-05
2.09725e-05
-2.5674e-05
2.4985e-05
-2.76582e-05
2.56532e-05
-2.87183e-05
2.44642e-05
-2.9274e-05
2.20034e-05
-2.98422e-05
1.87681e-05
-3.0334e-05
1.55458e-05
-3.07247e-05
1.23388e-05
9.17242e-06
-3.10947e-05
-5.49477e-06
3.07139e-06
-1.07826e-05
1.01028e-05
-1.51377e-05
1.77095e-05
-1.80472e-05
2.38829e-05
-1.95135e-05
2.64517e-05
-2.01106e-05
2.62507e-05
-2.01066e-05
2.44601e-05
-1.99106e-05
2.18072e-05
-1.98587e-05
1.87158e-05
-1.98808e-05
1.55675e-05
-1.99577e-05
1.24153e-05
9.27712e-06
-2.00628e-05
-4.869e-06
7.94206e-06
-8.84719e-06
1.40825e-05
-1.14434e-05
2.03069e-05
-1.25091e-05
2.49498e-05
-1.25628e-05
2.65064e-05
-1.20242e-05
2.57126e-05
-1.12591e-05
2.36956e-05
-1.05473e-05
2.10952e-05
-1.00248e-05
1.81933e-05
-9.66545e-06
1.52078e-05
-9.43873e-06
1.21883e-05
9.14333e-06
-9.30527e-06
-3.81433e-06
1.17594e-05
-6.57054e-06
1.68408e-05
-7.60818e-06
2.13465e-05
-7.10511e-06
2.44489e-05
-5.77394e-06
2.51766e-05
-4.18391e-06
2.4124e-05
-2.67137e-06
2.21836e-05
-1.38026e-06
1.98048e-05
-3.72776e-07
1.71859e-05
3.78845e-07
1.44563e-05
9.16926e-07
1.16502e-05
8.77247e-06
1.28777e-06
-3.0353e-06
1.47978e-05
-4.62953e-06
1.84371e-05
-4.18412e-06
2.09034e-05
-2.14699e-06
2.24136e-05
5.55555e-07
2.24759e-05
3.22617e-06
2.14547e-05
5.5854e-06
1.98254e-05
7.54347e-06
1.78472e-05
9.09037e-06
1.56393e-05
1.02724e-05
1.32744e-05
1.11505e-05
1.07723e-05
8.1409e-06
1.1782e-05
-2.44412e-06
1.72449e-05
-3.0559e-06
1.9051e-05
-9.3184e-07
1.87814e-05
2.6834e-06
1.88002e-05
6.72094e-06
1.84402e-05
1.04922e-05
1.7685e-05
1.37392e-05
1.65796e-05
1.64093e-05
1.5178e-05
1.85295e-05
1.35198e-05
2.01683e-05
1.16359e-05
2.14085e-05
9.53235e-06
7.22658e-06
2.2323e-05
-3.09308e-06
2.03387e-05
-1.19515e-06
1.71549e-05
3.52243e-06
1.4065e-05
8.8506e-06
1.34737e-05
1.408e-05
1.32123e-05
1.87515e-05
1.3015e-05
2.271e-05
1.26223e-05
2.59504e-05
1.19385e-05
2.85309e-05
1.09397e-05
3.05376e-05
9.62957e-06
3.20725e-05
7.99747e-06
6.07881e-06
3.32204e-05
3.5666e-08
2.03049e-05
6.55279e-06
1.06387e-05
1.34432e-05
7.1757e-06
1.97764e-05
7.14183e-06
2.53722e-05
7.61802e-06
3.01779e-05
8.21085e-06
3.42021e-05
8.59943e-06
3.74884e-05
8.65324e-06
4.0112e-05
8.31688e-06
4.2158e-05
7.58403e-06
4.37327e-05
6.42314e-06
4.89618e-06
4.49157e-05
1.9874e-05
4.30301e-07
2.84437e-05
2.06886e-06
3.43281e-05
1.29155e-06
3.92423e-05
2.22793e-06
4.3306e-05
3.55503e-06
4.67647e-05
4.75293e-06
4.97112e-05
5.65375e-06
5.21635e-05
6.20138e-06
5.41454e-05
6.3354e-06
5.56893e-05
6.04013e-06
5.68747e-05
5.23783e-06
5.77516e-05
4.01926e-06
-6.63968e-05
3.96484e-06
-6.85343e-05
2.13693e-06
-6.88448e-05
3.10942e-07
-6.75441e-05
-1.30143e-06
-6.46088e-05
-2.93509e-06
-5.9949e-05
-4.66066e-06
-5.34669e-05
-6.48188e-06
-4.50237e-05
-8.44295e-06
-3.44809e-05
-1.05429e-05
-2.19967e-05
-1.24834e-05
-9.21384e-06
-1.27819e-05
-9.21353e-06
-5.51191e-05
5.13676e-06
-5.55655e-05
2.58298e-06
-5.54122e-05
1.58152e-07
-5.45198e-05
-2.19405e-06
-5.2798e-05
-4.65666e-06
-5.01215e-05
-7.33721e-06
-4.63078e-05
-1.02951e-05
-4.11407e-05
-1.36095e-05
-3.43872e-05
-1.72956e-05
-2.57903e-05
-2.10801e-05
-1.44693e-05
-2.41024e-05
-2.36826e-05
-4.27355e-05
5.81017e-06
-4.30976e-05
2.94479e-06
-4.30561e-05
1.16864e-07
-4.24528e-05
-2.79742e-06
-4.12139e-05
-5.89529e-06
-3.92659e-05
-9.28501e-06
-3.6493e-05
-1.30676e-05
-3.27937e-05
-1.73081e-05
-2.80451e-05
-2.20438e-05
-2.1765e-05
-2.73597e-05
-1.30964e-05
-3.27705e-05
-3.67787e-05
-3.13655e-05
6.08086e-06
-3.14413e-05
3.02037e-06
-3.12394e-05
-8.50354e-08
-3.07008e-05
-3.33614e-06
-2.97716e-05
-6.82442e-06
-2.84073e-05
-1.06492e-05
-2.6531e-05
-1.49436e-05
-2.40577e-05
-1.9781e-05
-2.08202e-05
-2.5281e-05
-1.64116e-05
-3.1768e-05
-9.98555e-06
-3.91961e-05
-4.67639e-05
-2.01322e-05
6.14993e-06
-2.01069e-05
2.99475e-06
-1.9939e-05
-2.53072e-07
-1.95975e-05
-3.67772e-06
-1.90574e-05
-7.36454e-06
-1.82914e-05
-1.14151e-05
-1.72579e-05
-1.59767e-05
-1.58935e-05
-2.1145e-05
-1.40231e-05
-2.71511e-05
-1.14765e-05
-3.43143e-05
-7.3934e-06
-4.32785e-05
-5.41571e-05
-9.2156e-06
6.06e-06
-9.12806e-06
2.90706e-06
-9.01493e-06
-3.66322e-07
-8.86407e-06
-3.82851e-06
-8.67122e-06
-7.55732e-06
-8.43384e-06
-1.16522e-05
-8.16844e-06
-1.62417e-05
-7.842e-06
-2.1471e-05
-7.38625e-06
-2.76066e-05
-6.61232e-06
-3.50877e-05
-4.83168e-06
-4.50587e-05
-5.89885e-05
1.53583e-06
5.81194e-06
1.69327e-06
2.74963e-06
1.77526e-06
-4.4813e-07
1.77783e-06
-3.83092e-06
1.68228e-06
-7.46142e-06
1.45771e-06
-1.14273e-05
1.06181e-06
-1.58454e-05
4.6651e-07
-2.08754e-05
-3.28156e-07
-2.68116e-05
-1.22395e-06
-3.41918e-05
-1.82454e-06
-4.44575e-05
-6.08128e-05
1.22165e-05
5.3775e-06
1.24836e-05
2.48268e-06
1.25907e-05
-5.54986e-07
1.25205e-05
-3.76037e-06
1.22321e-05
-7.17265e-06
1.16633e-05
-1.08582e-05
1.07279e-05
-1.49097e-05
9.32357e-06
-1.94708e-05
7.33795e-06
-2.48259e-05
4.71712e-06
-3.15705e-05
1.79507e-06
-4.15351e-05
-5.90173e-05
2.29736e-05
4.72714e-06
2.33929e-05
2.06363e-06
2.35867e-05
-7.48347e-07
2.35297e-05
-3.70294e-06
2.31637e-05
-6.80619e-06
2.23994e-05
-1.00935e-05
2.11035e-05
-1.36135e-05
1.90955e-05
-1.74626e-05
1.61283e-05
-2.18583e-05
1.19295e-05
-2.73714e-05
6.51878e-06
-3.61235e-05
-5.24983e-05
3.40591e-05
3.8885e-06
3.4626e-05
1.49699e-06
3.49302e-05
-1.05216e-06
3.49464e-05
-3.71864e-06
3.46072e-05
-6.46655e-06
3.38061e-05
-9.29208e-06
3.23702e-05
-1.21772e-05
3.00473e-05
-1.51394e-05
2.64304e-05
-1.82411e-05
2.10211e-05
-2.19616e-05
1.2937e-05
-2.80389e-05
-3.956e-05
4.57998e-05
3.00467e-06
4.64195e-05
8.77778e-07
4.67877e-05
-1.41979e-06
4.68824e-05
-3.81277e-06
4.66366e-05
-6.22018e-06
4.59418e-05
-8.59692e-06
4.46061e-05
-1.08411e-05
4.23494e-05
-1.28824e-05
3.86173e-05
-1.45086e-05
3.26726e-05
-1.60161e-05
2.19836e-05
-1.73487e-05
-1.75756e-05
5.84275e-05
2.32893e-06
5.89197e-05
3.85916e-07
5.92421e-05
-1.74175e-06
5.93725e-05
-3.94258e-06
5.92481e-05
-6.09538e-06
5.87718e-05
-8.12014e-06
5.77652e-05
-9.83415e-06
5.59849e-05
-1.11017e-05
5.29083e-05
-1.14315e-05
4.75789e-05
-1.06864e-05
3.62198e-05
-5.98866e-06
1.86453e-05
5.55733e-06
-5.5545e-06
9.2877e-06
-3.73091e-06
1.20207e-05
-2.73175e-06
1.25599e-05
-5.38432e-07
9.97212e-06
2.5889e-06
4.30948e-06
5.6673e-06
-6.82732e-06
1.11385e-05
-2.32636e-05
1.64399e-05
-3.72063e-05
1.39439e-05
-4.80072e-05
1.08023e-05
-5.62858e-05
8.27979e-06
6.10106e-06
-6.23862e-05
2.01298e-06
-7.56566e-06
2.8159e-06
-4.53225e-06
1.97674e-07
-1.12529e-07
-6.22201e-06
5.88266e-06
-1.73557e-05
1.37231e-05
-3.04461e-05
1.87585e-05
-3.99541e-05
2.06471e-05
-4.3636e-05
2.01226e-05
-4.66222e-05
1.69308e-05
-4.95523e-05
1.37327e-05
-5.21366e-05
1.08647e-05
7.88907e-06
-5.39245e-05
-7.5693e-07
-6.80595e-06
-4.13001e-06
-1.1576e-06
-1.11531e-05
6.91177e-06
-2.07432e-05
1.54734e-05
-2.84944e-05
2.14747e-05
-3.33862e-05
2.36508e-05
-3.61314e-05
2.33925e-05
-3.74527e-05
2.14442e-05
-3.87221e-05
1.82001e-05
-4.00437e-05
1.50543e-05
-4.11298e-05
1.19507e-05
8.80565e-06
-4.20466e-05
-4.37421e-06
-2.42886e-06
-1.03192e-05
4.78879e-06
-1.67264e-05
1.33202e-05
-2.21904e-05
2.09382e-05
-2.56746e-05
2.49595e-05
-2.76592e-05
2.56359e-05
-2.87188e-05
2.44521e-05
-2.9272e-05
2.19975e-05
-2.98373e-05
1.87651e-05
-3.03274e-05
1.55442e-05
-3.07162e-05
1.2339e-05
9.17354e-06
-3.10845e-05
-5.49298e-06
3.06653e-06
-1.07824e-05
1.00797e-05
-1.51389e-05
1.76773e-05
-1.80512e-05
2.38519e-05
-1.95187e-05
2.64279e-05
-2.01156e-05
2.62333e-05
-2.01108e-05
2.4448e-05
-1.99126e-05
2.1799e-05
-1.9858e-05
1.87106e-05
-1.98784e-05
1.5564e-05
-1.99533e-05
1.24137e-05
9.2768e-06
-2.00572e-05
-4.86821e-06
7.93711e-06
-8.84961e-06
1.40612e-05
-1.14487e-05
2.02784e-05
-1.25175e-05
2.49219e-05
-1.25722e-05
2.6484e-05
-1.20328e-05
2.56957e-05
-1.12668e-05
2.36825e-05
-1.05525e-05
2.10858e-05
-1.00283e-05
1.81863e-05
-9.66701e-06
1.5203e-05
-9.4389e-06
1.21852e-05
9.14198e-06
-9.30407e-06
-3.81583e-06
1.17552e-05
-6.57525e-06
1.68234e-05
-7.61753e-06
2.13221e-05
-7.11756e-06
2.44243e-05
-5.78697e-06
2.51559e-05
-4.19641e-06
2.41069e-05
-2.68215e-06
2.217e-05
-1.38941e-06
1.97941e-05
-3.79958e-07
1.71778e-05
3.73175e-07
1.44503e-05
9.12776e-07
1.16461e-05
8.77011e-06
1.28484e-06
-3.03868e-06
1.47975e-05
-4.63724e-06
1.84239e-05
-4.19653e-06
2.08845e-05
-2.16235e-06
2.23927e-05
5.39307e-07
2.24565e-05
3.2106e-06
2.14378e-05
5.57111e-06
1.98112e-05
7.53087e-06
1.78356e-05
9.07944e-06
1.56301e-05
1.02631e-05
1.32672e-05
1.11426e-05
1.0767e-05
8.1375e-06
1.17755e-05
-2.4483e-06
1.72488e-05
-3.06349e-06
1.90426e-05
-9.44674e-07
1.87667e-05
2.6674e-06
1.87831e-05
6.70344e-06
1.84227e-05
1.04747e-05
1.76688e-05
1.37225e-05
1.65652e-05
1.6394e-05
1.51656e-05
1.85158e-05
1.35094e-05
2.01561e-05
1.16276e-05
2.13978e-05
9.52584e-06
7.22197e-06
2.23138e-05
-3.09472e-06
2.03474e-05
-1.20093e-06
1.71495e-05
3.5136e-06
1.4056e-05
8.83765e-06
1.34605e-05
1.40648e-05
1.31976e-05
1.87353e-05
1.3e-05
2.26939e-05
1.26083e-05
2.5935e-05
1.19258e-05
2.85167e-05
1.09287e-05
3.05246e-05
9.62021e-06
3.2061e-05
7.98985e-06
6.07296e-06
3.32102e-05
3.90185e-08
2.03107e-05
6.55409e-06
1.06379e-05
1.34403e-05
7.16872e-06
1.97703e-05
7.13208e-06
2.53635e-05
7.60603e-06
3.01674e-05
8.19784e-06
3.41906e-05
8.5867e-06
3.74766e-05
8.64123e-06
4.01004e-05
8.30601e-06
4.21471e-05
7.57424e-06
4.37228e-05
6.41483e-06
4.88934e-06
4.49068e-05
1.98822e-05
4.30163e-07
2.8452e-05
2.0672e-06
3.43346e-05
1.28869e-06
3.92456e-05
2.22136e-06
4.3306e-05
3.54608e-06
4.67619e-05
4.74276e-06
4.97062e-05
5.64314e-06
5.21572e-05
6.19093e-06
5.41384e-05
6.3253e-06
5.56824e-05
6.03063e-06
5.68682e-05
5.22918e-06
5.77459e-05
4.01183e-06
-6.63547e-05
3.96953e-06
-6.84947e-05
2.14029e-06
-6.88087e-05
3.15039e-07
-6.75108e-05
-1.29815e-06
-6.45789e-05
-2.93147e-06
-5.99223e-05
-4.65732e-06
-5.34438e-05
-6.47817e-06
-4.50041e-05
-8.43938e-06
-3.44653e-05
-1.05389e-05
-2.19851e-05
-1.24794e-05
-9.20806e-06
-1.27759e-05
-9.20776e-06
-5.50957e-05
5.14129e-06
-5.55425e-05
2.58708e-06
-5.53892e-05
1.62409e-07
-5.44977e-05
-2.18989e-06
-5.27768e-05
-4.65208e-06
-5.0102e-05
-7.33223e-06
-4.62901e-05
-1.02897e-05
-4.11254e-05
-1.36037e-05
-3.43745e-05
-1.72892e-05
-2.5781e-05
-2.10728e-05
-1.44626e-05
-2.40939e-05
-2.36702e-05
-4.27189e-05
5.8136e-06
-4.30806e-05
2.94848e-06
-4.30391e-05
1.20972e-07
-4.24364e-05
-2.79283e-06
-4.11985e-05
-5.89004e-06
-3.92517e-05
-9.279e-06
-3.64804e-05
-1.30608e-05
-3.27831e-05
-1.73005e-05
-2.8037e-05
-2.20352e-05
-2.17597e-05
-2.73499e-05
-1.30941e-05
-3.27592e-05
-3.67641e-05
-3.13542e-05
6.08297e-06
-3.14294e-05
3.02327e-06
-3.12273e-05
-8.13609e-08
-3.06889e-05
-3.33155e-06
-2.97603e-05
-6.81881e-06
-2.83968e-05
-1.06425e-05
-2.65217e-05
-1.49358e-05
-2.40498e-05
-1.97722e-05
-2.0814e-05
-2.52709e-05
-1.6407e-05
-3.17567e-05
-9.98273e-06
-3.91832e-05
-4.67467e-05
-2.01255e-05
6.15099e-06
-2.00996e-05
2.99689e-06
-1.99313e-05
-2.49847e-07
-1.95898e-05
-3.67327e-06
-1.905e-05
-7.35881e-06
-1.82844e-05
-1.14081e-05
-1.72518e-05
-1.59682e-05
-1.58884e-05
-2.11354e-05
-1.4019e-05
-2.714e-05
-1.14738e-05
-3.43018e-05
-7.39268e-06
-4.32641e-05
-5.41393e-05
-9.21345e-06
6.06013e-06
-9.12515e-06
2.90856e-06
-9.01153e-06
-3.63511e-07
-8.86041e-06
-3.82432e-06
-8.66749e-06
-7.55162e-06
-8.43027e-06
-1.1645e-05
-8.16523e-06
-1.62331e-05
-7.83924e-06
-2.14609e-05
-7.38409e-06
-2.75951e-05
-6.61095e-06
-3.50747e-05
-4.83101e-06
-4.50437e-05
-5.89703e-05
1.53399e-06
5.81126e-06
1.69232e-06
2.7505e-06
1.77493e-06
-4.45799e-07
1.778e-06
-3.82701e-06
1.68271e-06
-7.45597e-06
1.45827e-06
-1.14202e-05
1.06237e-06
-1.58367e-05
4.66913e-07
-2.08652e-05
-3.27974e-07
-2.67998e-05
-1.22401e-06
-3.41783e-05
-1.82518e-06
-4.44426e-05
-6.07952e-05
1.22112e-05
5.37586e-06
1.24793e-05
2.48273e-06
1.25873e-05
-5.5329e-07
1.25177e-05
-3.75705e-06
1.22298e-05
-7.16762e-06
1.16614e-05
-1.08514e-05
1.07263e-05
-1.49012e-05
9.3221e-06
-1.94606e-05
7.33667e-06
-2.48142e-05
4.71573e-06
-3.15574e-05
1.79414e-06
-4.15205e-05
-5.9001e-05
2.29658e-05
4.72431e-06
2.33863e-05
2.06264e-06
2.35811e-05
-7.47549e-07
2.3525e-05
-3.70039e-06
2.31596e-05
-6.8018e-06
2.23958e-05
-1.00873e-05
2.11004e-05
-1.36053e-05
1.90927e-05
-1.74527e-05
1.61256e-05
-2.18467e-05
1.19272e-05
-2.73584e-05
6.51682e-06
-3.61098e-05
-5.24839e-05
3.40504e-05
3.88446e-06
3.46186e-05
1.49487e-06
3.49239e-05
-1.05238e-06
3.49409e-05
-3.71693e-06
3.46023e-05
-6.46289e-06
3.38018e-05
-9.28634e-06
3.23662e-05
-1.21694e-05
3.00436e-05
-1.51296e-05
2.64269e-05
-1.82296e-05
2.10178e-05
-2.19488e-05
1.29346e-05
-2.80262e-05
-3.95482e-05
4.57922e-05
2.99958e-06
4.6413e-05
8.74642e-07
4.67821e-05
-1.42092e-06
4.68774e-05
-3.8118e-06
4.6632e-05
-6.21712e-06
4.59376e-05
-8.5915e-06
4.46021e-05
-1.08334e-05
4.23455e-05
-1.28725e-05
3.86134e-05
-1.4497e-05
3.26686e-05
-1.60036e-05
2.19807e-05
-1.73367e-05
-1.75675e-05
5.84227e-05
2.323e-06
5.89156e-05
3.82e-07
5.92385e-05
-1.74346e-06
5.93691e-05
-3.94204e-06
5.92448e-05
-6.09241e-06
5.87682e-05
-8.11465e-06
5.77615e-05
-9.82614e-06
5.59809e-05
-1.10915e-05
5.29039e-05
-1.14195e-05
4.75744e-05
-1.06732e-05
3.62156e-05
-5.9784e-06
1.86498e-05
5.55494e-06
-5.55101e-06
9.28238e-06
-3.72776e-06
1.20123e-05
-2.72701e-06
1.25406e-05
-5.27289e-07
9.93613e-06
2.60824e-06
4.25452e-06
5.68614e-06
-6.93342e-06
1.11909e-05
-2.3373e-05
1.64428e-05
-3.72862e-05
1.39147e-05
-4.8076e-05
1.07908e-05
-5.634e-05
8.26501e-06
6.09272e-06
-6.24325e-05
2.01337e-06
-7.56191e-06
2.80402e-06
-4.51711e-06
1.69337e-07
-9.05836e-08
-6.28037e-06
5.92405e-06
-1.74419e-05
1.37706e-05
-3.05284e-05
1.87736e-05
-3.99893e-05
2.06526e-05
-4.36537e-05
2.01081e-05
-4.66474e-05
1.6909e-05
-4.95747e-05
1.37185e-05
-5.21586e-05
1.08495e-05
7.87751e-06
-5.39434e-05
-7.6949e-07
-6.7914e-06
-4.16271e-06
-1.12335e-06
-1.12134e-05
6.96074e-06
-2.08066e-05
1.55176e-05
-2.85305e-05
2.14949e-05
-3.34066e-05
2.36503e-05
-3.6139e-05
2.33854e-05
-3.74592e-05
2.14288e-05
-3.87328e-05
1.81829e-05
-4.00547e-05
1.50405e-05
-4.11417e-05
1.19368e-05
8.79381e-06
-4.20581e-05
-4.39091e-06
-2.39993e-06
-1.03511e-05
4.83682e-06
-1.67569e-05
1.33668e-05
-2.22081e-05
2.09693e-05
-2.56807e-05
2.4968e-05
-2.76611e-05
2.56313e-05
-2.87185e-05
2.44432e-05
-2.92728e-05
2.19835e-05
-2.98404e-05
1.87508e-05
-3.03313e-05
1.55315e-05
-3.07214e-05
1.2327e-05
9.16309e-06
-3.10907e-05
-5.50668e-06
3.10669e-06
-1.07954e-05
1.01256e-05
-1.51458e-05
1.77178e-05
-1.80498e-05
2.38742e-05
-1.95134e-05
2.64326e-05
-2.01098e-05
2.62288e-05
-2.01049e-05
2.44392e-05
-1.99088e-05
2.17884e-05
-1.98569e-05
1.86995e-05
-1.98786e-05
1.55538e-05
-1.99551e-05
1.24038e-05
9.26782e-06
-2.00597e-05
-4.87067e-06
7.97784e-06
-8.84904e-06
1.41047e-05
-1.14429e-05
2.0313e-05
-1.25072e-05
2.494e-05
-1.2561e-05
2.64884e-05
-1.2023e-05
2.56926e-05
-1.12584e-05
2.36766e-05
-1.05467e-05
2.10782e-05
-1.00241e-05
1.81783e-05
-9.66436e-06
1.5195e-05
-9.43724e-06
1.21775e-05
9.13432e-06
-9.30326e-06
-3.81148e-06
1.17908e-05
-6.56622e-06
1.68604e-05
-7.60276e-06
2.13515e-05
-7.10085e-06
2.44404e-05
-5.77169e-06
2.51618e-05
-4.18371e-06
2.41073e-05
-2.67211e-06
2.21676e-05
-1.38135e-06
1.97899e-05
-3.73569e-07
1.71726e-05
3.78495e-07
1.44446e-05
9.17154e-07
1.164e-05
8.76376e-06
1.28856e-06
-3.02985e-06
1.4822e-05
-4.62078e-06
1.84537e-05
-4.17548e-06
2.0908e-05
-2.14092e-06
2.24086e-05
5.57791e-07
2.24653e-05
3.22584e-06
2.14421e-05
5.58344e-06
1.98124e-05
7.54119e-06
1.78347e-05
9.08827e-06
1.56276e-05
1.02709e-05
1.32636e-05
1.11495e-05
1.07626e-05
8.13236e-06
1.17818e-05
-2.43512e-06
1.72593e-05
-3.04377e-06
1.90642e-05
-9.20307e-07
1.87865e-05
2.6912e-06
1.87991e-05
6.72449e-06
1.84342e-05
1.04924e-05
1.76766e-05
1.37375e-05
1.65697e-05
1.64069e-05
1.51677e-05
1.85271e-05
1.35095e-05
2.01663e-05
1.16261e-05
2.14071e-05
9.52311e-06
7.21817e-06
2.23222e-05
-3.08219e-06
2.0344e-05
-1.18133e-06
1.71646e-05
3.53552e-06
1.40714e-05
8.86003e-06
1.34757e-05
1.40856e-05
1.32105e-05
1.87536e-05
1.30101e-05
2.27099e-05
1.26155e-05
2.59491e-05
1.19302e-05
2.85293e-05
1.0931e-05
3.0536e-05
9.6206e-06
3.20712e-05
7.9887e-06
6.07061e-06
3.32196e-05
4.12284e-08
2.03046e-05
6.56334e-06
1.06438e-05
1.34539e-05
7.1817e-06
1.97854e-05
7.1453e-06
2.53786e-05
7.61832e-06
3.01817e-05
8.20824e-06
3.42038e-05
8.59471e-06
3.74887e-05
8.64672e-06
4.01116e-05
8.30942e-06
4.21574e-05
7.5759e-06
4.3732e-05
6.41493e-06
4.88833e-06
4.49151e-05
1.98755e-05
4.29394e-07
2.84479e-05
2.07188e-06
3.43334e-05
1.29617e-06
3.92478e-05
2.23102e-06
4.33105e-05
3.55558e-06
4.67678e-05
4.75124e-06
4.97127e-05
5.65e-06
5.21639e-05
6.19592e-06
5.4145e-05
6.32868e-06
5.56885e-05
6.03254e-06
5.68736e-05
5.22999e-06
5.77505e-05
4.01163e-06
-6.63924e-05
3.96064e-06
-6.85265e-05
2.1341e-06
-6.88346e-05
3.08925e-07
-6.75325e-05
-1.30258e-06
-6.45966e-05
-2.93554e-06
-5.99368e-05
-4.66055e-06
-5.34555e-05
-6.48113e-06
-4.50134e-05
-8.44168e-06
-3.44726e-05
-1.05409e-05
-2.19909e-05
-1.24809e-05
-9.21152e-06
-1.27784e-05
-9.2112e-06
-5.5113e-05
5.13082e-06
-5.55577e-05
2.57872e-06
-5.54033e-05
1.55202e-07
-5.45101e-05
-2.19581e-06
-5.27879e-05
-4.65739e-06
-5.01115e-05
-7.33692e-06
-4.62984e-05
-1.02938e-05
-4.11323e-05
-1.36072e-05
-3.43802e-05
-1.72923e-05
-2.57851e-05
-2.10758e-05
-1.44656e-05
-2.40974e-05
-2.36765e-05
-4.27303e-05
5.80325e-06
-4.30912e-05
2.93964e-06
-4.3049e-05
1.13257e-07
-4.24452e-05
-2.79959e-06
-4.12063e-05
-5.89609e-06
-3.92585e-05
-9.28445e-06
-3.64862e-05
-1.30657e-05
-3.27878e-05
-1.7305e-05
-2.80402e-05
-2.20394e-05
-2.17616e-05
-2.73541e-05
-1.30945e-05
-3.27639e-05
-3.67708e-05
-3.13609e-05
6.07353e-06
-3.14361e-05
3.01482e-06
-3.12338e-05
-8.89618e-08
-3.06949e-05
-3.33851e-06
-2.97657e-05
-6.82525e-06
-2.84015e-05
-1.06485e-05
-2.65256e-05
-1.49412e-05
-2.40529e-05
-1.97773e-05
-2.08162e-05
-2.52757e-05
-1.64086e-05
-3.17613e-05
-9.98372e-06
-3.91882e-05
-4.67543e-05
-2.01286e-05
6.1425e-06
-2.01029e-05
2.98902e-06
-1.99346e-05
-2.57195e-07
-1.95929e-05
-3.68024e-06
-1.90526e-05
-7.36544e-06
-1.82866e-05
-1.14143e-05
-1.72535e-05
-1.59741e-05
-1.58896e-05
-2.11408e-05
-1.40198e-05
-2.71451e-05
-1.14741e-05
-3.43067e-05
-7.39228e-06
-4.32694e-05
-5.41463e-05
-9.21313e-06
6.05263e-06
-9.12515e-06
2.90125e-06
-9.01165e-06
-3.70568e-07
-8.8605e-06
-3.83116e-06
-8.6675e-06
-7.55827e-06
-8.43011e-06
-1.16514e-05
-8.16486e-06
-1.6239e-05
-7.83883e-06
-2.14664e-05
-7.3837e-06
-2.76001e-05
-6.61052e-06
-3.50795e-05
-4.83075e-06
-4.50489e-05
-5.89769e-05
1.53715e-06
5.80463e-06
1.69507e-06
2.74377e-06
1.77746e-06
-4.52494e-07
1.78034e-06
-3.83366e-06
1.68497e-06
-7.46242e-06
1.46043e-06
-1.14264e-05
1.06441e-06
-1.58425e-05
4.68736e-07
-2.08705e-05
-3.26441e-07
-2.68046e-05
-1.22293e-06
-3.4183e-05
-1.82411e-06
-4.44474e-05
-6.08008e-05
1.22169e-05
5.37019e-06
1.24844e-05
2.47672e-06
1.25919e-05
-5.59452e-07
1.2522e-05
-3.76319e-06
1.22337e-05
-7.17365e-06
1.1665e-05
-1.08572e-05
1.07295e-05
-1.49066e-05
9.32485e-06
-1.94655e-05
7.33875e-06
-2.48185e-05
4.71745e-06
-3.15613e-05
1.79508e-06
-4.15247e-05
-5.90055e-05
2.29733e-05
4.7198e-06
2.33931e-05
2.05762e-06
2.35872e-05
-7.52829e-07
2.35304e-05
-3.7057e-06
2.31644e-05
-6.80706e-06
2.24e-05
-1.00923e-05
2.11039e-05
-1.36101e-05
1.90957e-05
-1.7457e-05
1.61281e-05
-2.18505e-05
1.1929e-05
-2.7362e-05
6.51813e-06
-3.61132e-05
-5.24871e-05
3.40587e-05
3.88125e-06
3.46259e-05
1.49109e-06
3.49302e-05
-1.05646e-06
3.49463e-05
-3.72113e-06
3.46069e-05
-6.46706e-06
3.38055e-05
-9.29047e-06
3.23693e-05
-1.21734e-05
3.0046e-05
-1.51334e-05
2.64289e-05
-1.82331e-05
2.10195e-05
-2.19521e-05
1.29357e-05
-2.80288e-05
-3.95504e-05
4.57994e-05
2.9977e-06
4.6419e-05
8.72254e-07
4.6787e-05
-1.42362e-06
4.68814e-05
-3.81469e-06
4.6635e-05
-6.22005e-06
4.59397e-05
-8.59463e-06
4.46035e-05
-1.08366e-05
4.23464e-05
-1.28759e-05
3.86142e-05
-1.45004e-05
3.26696e-05
-1.60069e-05
2.19814e-05
-1.73395e-05
-1.75681e-05
5.84265e-05
2.32224e-06
5.89184e-05
3.80897e-07
5.92404e-05
-1.74491e-06
5.93701e-05
-3.9437e-06
5.9245e-05
-6.09435e-06
5.87678e-05
-8.11692e-06
5.77605e-05
-9.82888e-06
5.59796e-05
-1.10945e-05
5.29028e-05
-1.1423e-05
4.75738e-05
-1.06776e-05
3.62162e-05
-5.98091e-06
1.8649e-05
5.559e-06
-5.55625e-06
9.29018e-06
-3.73185e-06
1.20241e-05
-2.73261e-06
1.25643e-05
-5.39609e-07
9.97747e-06
2.58803e-06
4.31301e-06
5.66894e-06
-6.82661e-06
1.11414e-05
-2.32692e-05
1.6446e-05
-3.72169e-05
1.39491e-05
-4.80212e-05
1.08056e-05
-5.63021e-05
8.28211e-06
6.10235e-06
-6.24039e-05
2.01465e-06
-7.56916e-06
2.82012e-06
-4.53587e-06
2.03074e-07
-1.14613e-07
-6.21702e-06
5.88181e-06
-1.73541e-05
1.37255e-05
-3.04509e-05
1.87667e-05
-3.99644e-05
2.06554e-05
-4.36483e-05
2.01307e-05
-4.66356e-05
1.6937e-05
-4.95667e-05
1.37371e-05
-5.21517e-05
1.08677e-05
7.89059e-06
-5.394e-05
-7.53977e-07
-6.8126e-06
-4.12424e-06
-1.16418e-06
-1.11468e-05
6.90908e-06
-2.07414e-05
1.5477e-05
-2.84999e-05
2.14844e-05
-3.33954e-05
2.36626e-05
-3.61428e-05
2.34029e-05
-3.74647e-05
2.14529e-05
-3.87344e-05
1.82068e-05
-4.00564e-05
1.5059e-05
-4.11425e-05
1.19536e-05
8.80706e-06
-4.20592e-05
-4.37175e-06
-2.43806e-06
-1.03169e-05
4.78218e-06
-1.67271e-05
1.33204e-05
-2.21957e-05
2.09462e-05
-2.56828e-05
2.49722e-05
-2.76688e-05
2.56489e-05
-2.87292e-05
2.44635e-05
-2.9283e-05
2.20066e-05
-2.98482e-05
1.87718e-05
-3.03382e-05
1.55487e-05
-3.07266e-05
1.23416e-05
9.17449e-06
-3.10945e-05
-5.4918e-06
3.05604e-06
-1.07828e-05
1.00748e-05
-1.51421e-05
1.76801e-05
-1.80571e-05
2.38626e-05
-1.95261e-05
2.64419e-05
-2.01237e-05
2.62471e-05
-2.01192e-05
2.44595e-05
-1.99209e-05
2.1808e-05
-1.98661e-05
1.8717e-05
-1.98861e-05
1.55681e-05
-1.99607e-05
1.24158e-05
9.27731e-06
-2.0064e-05
-4.86843e-06
7.92741e-06
-8.85099e-06
1.40574e-05
-1.14516e-05
2.0283e-05
-1.2522e-05
2.49341e-05
-1.25776e-05
2.6499e-05
-1.20385e-05
2.57096e-05
-1.12721e-05
2.36938e-05
-1.05577e-05
2.10944e-05
-1.00331e-05
1.81923e-05
-9.67152e-06
1.52067e-05
-9.44298e-06
1.2187e-05
9.14205e-06
-9.30784e-06
-3.81653e-06
1.17464e-05
-6.57671e-06
1.68207e-05
-7.6199e-06
2.13276e-05
-7.12014e-06
2.44367e-05
-5.78951e-06
2.51709e-05
-4.1986e-06
2.41205e-05
-2.68408e-06
2.2181e-05
-1.39105e-06
1.98023e-05
-3.81352e-07
1.71835e-05
3.72054e-07
1.44537e-05
9.11894e-07
1.16476e-05
8.76991e-06
1.28422e-06
-3.03944e-06
1.47899e-05
-4.63903e-06
1.84223e-05
-4.19856e-06
2.08904e-05
-2.16346e-06
2.24043e-05
5.39462e-07
2.24702e-05
3.21161e-06
2.14505e-05
5.57258e-06
1.98216e-05
7.53262e-06
1.78436e-05
9.08136e-06
1.56355e-05
1.02652e-05
1.32705e-05
1.11447e-05
1.07683e-05
8.13714e-06
1.17778e-05
-2.45032e-06
1.72432e-05
-3.06623e-06
1.90419e-05
-9.46846e-07
1.8772e-05
2.66709e-06
1.87928e-05
6.70517e-06
1.84343e-05
1.04778e-05
1.76799e-05
1.37265e-05
1.65747e-05
1.63984e-05
1.51731e-05
1.85203e-05
1.35146e-05
2.01608e-05
1.16307e-05
2.14025e-05
9.52706e-06
7.22156e-06
2.23184e-05
-3.09769e-06
2.03452e-05
-1.20462e-06
1.71496e-05
3.51117e-06
1.40601e-05
8.83743e-06
1.34679e-05
1.40668e-05
1.32069e-05
1.8739e-05
1.30094e-05
2.26987e-05
1.26166e-05
2.59405e-05
1.19325e-05
2.85226e-05
1.09335e-05
3.05307e-05
9.62303e-06
3.20671e-05
7.99093e-06
6.0725e-06
3.32164e-05
3.75505e-08
2.03099e-05
6.55144e-06
1.06392e-05
1.34381e-05
7.17231e-06
1.97697e-05
7.13806e-06
2.53646e-05
7.61354e-06
3.01701e-05
8.20549e-06
3.41947e-05
8.59359e-06
3.74816e-05
8.64685e-06
4.01061e-05
8.31001e-06
4.21532e-05
7.57654e-06
4.37291e-05
6.4156e-06
4.88874e-06
4.49132e-05
1.98797e-05
4.31907e-07
2.84484e-05
2.06961e-06
3.43307e-05
1.29251e-06
3.92425e-05
2.2266e-06
4.33043e-05
3.5521e-06
4.67618e-05
4.74873e-06
4.97076e-05
5.64842e-06
5.21599e-05
6.19517e-06
5.41421e-05
6.3282e-06
5.56869e-05
6.03209e-06
5.68731e-05
5.22939e-06
5.77511e-05
4.0109e-06
-6.63728e-05
3.97007e-06
-6.85129e-05
2.14026e-06
-6.88263e-05
3.14541e-07
-6.75277e-05
-1.29893e-06
-6.45946e-05
-2.93257e-06
-5.99367e-05
-4.65871e-06
-5.34566e-05
-6.47983e-06
-4.5015e-05
-8.44134e-06
-3.44738e-05
-1.05412e-05
-2.1991e-05
-1.24821e-05
-9.21044e-06
-1.27794e-05
-9.21014e-06
-5.5111e-05
5.14176e-06
-5.55576e-05
2.5867e-06
-5.54038e-05
1.61372e-07
-5.45114e-05
-2.19146e-06
-5.27896e-05
-4.65419e-06
-5.01136e-05
-7.33487e-06
-4.63002e-05
-1.02928e-05
-4.11339e-05
-1.36072e-05
-3.43814e-05
-1.72932e-05
-2.5786e-05
-2.10773e-05
-1.44662e-05
-2.40988e-05
-2.36761e-05
-4.27313e-05
5.81377e-06
-4.30926e-05
2.94764e-06
-4.30504e-05
1.19253e-07
-4.24468e-05
-2.79534e-06
-4.12078e-05
-5.89325e-06
-3.92599e-05
-9.28286e-06
-3.64873e-05
-1.30652e-05
-3.27886e-05
-1.73054e-05
-2.80411e-05
-2.20406e-05
-2.17625e-05
-2.73557e-05
-1.30954e-05
-3.27656e-05
-3.67713e-05
-3.13637e-05
6.08261e-06
-3.14383e-05
3.02176e-06
-3.12354e-05
-8.38362e-08
-3.06962e-05
-3.33492e-06
-2.97667e-05
-6.82291e-06
-2.84024e-05
-1.06473e-05
-2.65264e-05
-1.49411e-05
-2.40536e-05
-1.9778e-05
-2.08169e-05
-2.52772e-05
-1.64091e-05
-3.17634e-05
-9.98402e-06
-3.91903e-05
-4.67553e-05
-2.01319e-05
6.15008e-06
-2.01054e-05
2.99483e-06
-1.99366e-05
-2.52983e-07
-1.95944e-05
-3.67726e-06
-1.9054e-05
-7.36359e-06
-1.82878e-05
-1.14134e-05
-1.72546e-05
-1.59742e-05
-1.58905e-05
-2.11418e-05
-1.40206e-05
-2.71469e-05
-1.14748e-05
-3.4309e-05
-7.39301e-06
-4.32719e-05
-5.41481e-05
-9.21676e-06
6.05882e-06
-9.12809e-06
2.90601e-06
-9.01398e-06
-3.67077e-07
-8.86249e-06
-3.8288e-06
-8.6691e-06
-7.55679e-06
-8.43157e-06
-1.16508e-05
-8.16617e-06
-1.62393e-05
-7.83993e-06
-2.14676e-05
-7.38452e-06
-2.76021e-05
-6.61123e-06
-3.50821e-05
-4.83114e-06
-4.50516e-05
-5.89793e-05
1.53362e-06
5.80964e-06
1.69223e-06
2.74767e-06
1.77508e-06
-4.49658e-07
1.7784e-06
-3.83172e-06
1.68328e-06
-7.46136e-06
1.459e-06
-1.14262e-05
1.06314e-06
-1.58431e-05
4.67713e-07
-2.08719e-05
-3.27222e-07
-2.68069e-05
-1.22329e-06
-3.41857e-05
-1.82476e-06
-4.44503e-05
-6.08038e-05
1.22136e-05
5.3741e-06
1.24818e-05
2.47978e-06
1.25898e-05
-5.57235e-07
1.25203e-05
-3.76181e-06
1.22324e-05
-7.17302e-06
1.16639e-05
-1.08573e-05
1.07287e-05
-1.49075e-05
9.32427e-06
-1.94672e-05
7.33856e-06
-2.4821e-05
4.71721e-06
-3.15644e-05
1.79513e-06
-4.15275e-05
-5.90086e-05
2.29704e-05
4.72254e-06
2.33909e-05
2.05971e-06
2.35856e-05
-7.51437e-07
2.35294e-05
-3.70505e-06
2.31639e-05
-6.80705e-06
2.23999e-05
-1.00929e-05
2.11041e-05
-1.36113e-05
1.90961e-05
-1.74589e-05
1.61286e-05
-2.18531e-05
1.19296e-05
-2.73648e-05
6.51835e-06
-3.6116e-05
-5.24898e-05
3.40565e-05
3.88272e-06
3.46245e-05
1.49205e-06
3.49296e-05
-1.05611e-06
3.49464e-05
-3.7214e-06
3.46077e-05
-6.46792e-06
3.38069e-05
-9.29176e-06
3.2371e-05
-1.21751e-05
3.0048e-05
-1.51355e-05
2.64309e-05
-1.82355e-05
2.10211e-05
-2.19546e-05
1.29369e-05
-2.80313e-05
-3.95516e-05
4.57986e-05
2.99786e-06
4.64192e-05
8.71934e-07
4.67881e-05
-1.42448e-06
4.68833e-05
-3.81606e-06
4.66377e-05
-6.22193e-06
4.59431e-05
-8.59672e-06
4.46072e-05
-1.08389e-05
4.23504e-05
-1.28781e-05
3.86181e-05
-1.45026e-05
3.26727e-05
-1.60087e-05
2.19838e-05
-1.73406e-05
-1.75674e-05
5.84279e-05
2.32118e-06
5.89208e-05
3.79311e-07
5.92437e-05
-1.74695e-06
5.93741e-05
-3.94624e-06
5.92498e-05
-6.09717e-06
5.87732e-05
-8.11988e-06
5.77665e-05
-9.83167e-06
5.5986e-05
-1.10972e-05
5.29091e-05
-1.14251e-05
4.75794e-05
-1.06781e-05
3.62201e-05
-5.98135e-06
1.86542e-05
6.84835e-05
4.84515e-06
-7.28972e-05
6.77176e-05
2.83471e-06
6.64729e-05
2.53602e-06
6.61669e-05
2.53391e-06
6.6615e-05
3.10707e-06
6.74789e-05
3.88939e-06
6.84885e-05
4.64456e-06
6.94509e-05
5.23926e-06
7.02505e-05
5.53605e-06
7.08314e-05
5.45923e-06
7.12341e-05
4.83531e-06
3.77706e-06
7.14766e-05
8.86529e-05
3.90739e-06
-8.77166e-05
8.84498e-05
3.0371e-06
8.8015e-05
2.96998e-06
8.75421e-05
3.00623e-06
8.7243e-05
3.40569e-06
8.70885e-05
4.0437e-06
8.69811e-05
4.75181e-06
8.68227e-05
5.39768e-06
8.65416e-05
5.817e-06
8.61182e-05
5.88254e-06
8.56337e-05
5.31973e-06
4.27307e-06
8.51376e-05
0.000102849
2.7261e-06
-0.000101667
0.000103418
2.46721e-06
0.000103717
2.67039e-06
0.000103746
2.97655e-06
0.000103579
3.5729e-06
0.000103223
4.3986e-06
0.000102658
5.31625e-06
0.000101866
6.18977e-06
0.000100845
6.83745e-06
9.96745e-05
7.05331e-06
9.85192e-05
6.47522e-06
5.23775e-06
9.75552e-05
0.000115793
-0.000114946
1.87789e-06
0.00011636
1.89919e-06
0.000116657
2.37182e-06
0.000116632
3.00049e-06
0.000116269
3.93514e-06
0.000115561
5.10545e-06
0.00011452
6.35722e-06
0.000113195
7.51444e-06
0.000111668
8.36467e-06
0.000110139
8.5824e-06
0.000108878
7.73588e-06
0.00010835
5.76535e-06
7.17058e-05
2.10006e-06
7.19117e-05
1.80449e-07
7.21082e-05
-1.93771e-06
7.22626e-05
-4.09639e-06
7.23106e-05
-6.14287e-06
7.21534e-05
-7.96233e-06
7.16414e-05
-9.32174e-06
7.06063e-05
-1.0066e-05