/*--------------------------------*- C++ -*----------------------------------*\
  =========                 |
  \\      /  F ield         | OpenFOAM: The Open Source CFD Toolbox
   \\    /   O peration     | Website:  https://openfoam.org
    \\  /    A nd           | Version:  6
     \\/     M anipulation  |
\*---------------------------------------------------------------------------*/
FoamFile
{
    version     2.0;
    format      ascii;
    class       volVectorField;
    location    "250";
    object      U;
}
// * * * * * * * * * * * * * * * * * * * * * * * * * * * * * * * * * * * * * //

dimensions      [0 1 -1 0 0 0 0];

internalField   nonuniform List<vector> 
3072
(
(0.152625 2.22035 0)
(0.217011 1.92797 0)
(0.31149 1.76508 1.43897e-19)
(0.411646 1.65176 9.45404e-19)
(0.52319 1.6453 -2.16373e-18)
(0.754301 1.8234 9.36104e-19)
(1.4631 1.7167 2.70702e-19)
(2.54027 1.75244 1.53116e-19)
(2.96381 2.33993 -4.00177e-19)
(3.19412 2.54499 9.26743e-19)
(3.5245 2.76374 3.91083e-19)
(3.80452 2.74425 5.20064e-19)
(-0.430259 2.77135 -2.53937e-19)
(-0.227202 2.37398 -4.65999e-19)
(0.0607276 2.43755 5.23731e-19)
(0.547481 2.51649 0)
(1.36068 2.58191 6.38484e-19)
(2.17105 2.93415 -7.8311e-19)
(2.71878 3.08916 0)
(2.96186 3.13357 0)
(3.03582 3.18536 0)
(3.10426 3.20197 7.45062e-19)
(3.23506 3.20615 -2.12287e-18)
(3.34349 3.19183 4.89353e-19)
(-0.347393 3.05984 1.64655e-19)
(0.122864 2.7912 0)
(0.781619 2.92283 0)
(1.54469 3.1173 -2.45289e-18)
(2.20629 3.2441 8.839e-19)
(2.66166 3.29772 -1.89823e-18)
(2.92815 3.23336 2.01528e-18)
(3.09076 3.13562 0)
(3.15661 3.06867 0)
(3.23631 3.00017 -9.80984e-19)
(3.32664 2.93099 -9.37938e-19)
(3.41137 2.85479 3.13528e-18)
(-0.125736 3.32646 -1.56716e-18)
(0.461235 3.24171 -2.46107e-18)
(1.17115 3.38998 1.37371e-18)
(1.86242 3.46947 -1.37865e-18)
(2.37697 3.44422 3.4906e-18)
(2.68109 3.36261 -3.69824e-18)
(2.88147 3.24274 -1.96033e-18)
(2.99747 3.12832 -5.29647e-18)
(3.05965 3.03437 -1.42498e-19)
(3.12412 2.94684 2.67659e-18)
(3.18613 2.85941 3.05412e-18)
(3.25112 2.77381 -2.50698e-18)
(0.145167 3.48908 0)
(0.740316 3.52703 1.00842e-18)
(1.39313 3.61506 -1.92397e-18)
(1.98619 3.59331 2.95559e-18)
(2.38474 3.49418 5.15065e-19)
(2.63488 3.3599 1.81557e-18)
(2.77856 3.21991 1.96232e-18)
(2.86479 3.08562 1.77345e-18)
(2.92654 2.96857 -3.61061e-18)
(2.98772 2.86167 3.1679e-18)
(3.04986 2.76012 -4.31478e-18)
(3.11448 2.66287 5.81094e-18)
(0.374272 3.62772 -2.64885e-18)
(0.932911 3.73738 1.27413e-18)
(1.50924 3.75525 3.79209e-18)
(2.00605 3.66552 0)
(2.33492 3.51687 -5.25937e-18)
(2.52937 3.35496 5.77291e-18)
(2.64846 3.19179 0)
(2.7307 3.04052 -4.37362e-18)
(2.79492 2.90597 3.79819e-18)
(2.85556 2.78417 0)
(2.91586 2.67161 2.16696e-19)
(2.9772 2.56631 3.5305e-18)
(0.544648 3.78279 0)
(1.05422 3.94116 -3.11692e-18)
(1.5465 3.89267 2.87204e-18)
(1.95768 3.75455 0)
(2.23081 3.56434 -3.62978e-18)
(2.39775 3.36813 5.42861e-19)
(2.50867 3.18008 5.22002e-18)
(2.59064 3.00867 4.73678e-18)
(2.65801 2.85543 -4.183e-18)
(2.72029 2.71773 4.10964e-18)
(2.78071 2.59264 -3.57866e-18)
(2.8407 2.47796 -1.00623e-17)
(0.672371 3.96666 0)
(1.11905 4.16055 2.90508e-18)
(1.52582 4.05375 -4.80676e-18)
(1.8636 3.8725 4.75693e-18)
(2.09615 3.64092 0)
(2.25067 3.40701 -6.03361e-18)
(2.3607 3.18875 5.72876e-18)
(2.44626 2.99183 8.03727e-20)
(2.51812 2.81666 -9.21433e-18)
(2.58319 2.66086 -4.25501e-18)
(2.64452 2.52152 -2.19978e-19)
(2.70384 2.39605 7.58978e-18)
(0.730763 4.15373 0)
(1.14047 4.40208 -3.82671e-18)
(1.46127 4.23303 -5.70957e-18)
(1.73039 4.00502 -4.09615e-18)
(1.93308 3.73249 7.96663e-18)
(2.08398 3.46035 0)
(2.19992 3.20873 0)
(2.29308 2.98324 0)
(2.37141 2.78395 0)
(2.44049 2.60848 4.44859e-18)
(2.50342 2.45372 -4.40611e-18)
(2.56243 2.31653 4.1979e-18)
(0.806793 4.45062 0)
(1.11799 4.65991 3.52614e-18)
(1.32789 4.38429 -6.52993e-19)
(1.54788 4.09195 4.72147e-18)
(1.73365 3.78109 4.48637e-18)
(1.88781 3.47824 -7.07464e-18)
(2.01426 3.20057 0)
(2.11842 2.95261 -1.98727e-19)
(2.20589 2.73409 -1.65511e-17)
(2.28128 2.54273 0)
(2.34759 2.37552 1.00122e-17)
(2.40771 2.22884 -4.6617e-18)
(0.95696 4.5763 0)
(0.978064 4.68291 3.78117e-18)
(1.08939 4.32869 9.82543e-18)
(1.28426 3.98197 -8.27056e-18)
(1.47216 3.66688 -1.13731e-17)
(1.63889 3.36544 1.77501e-17)
(1.78189 3.08989 -1.94083e-19)
(1.90246 2.84287 -6.73236e-18)
(2.00379 2.62383 5.46534e-18)
(2.09002 2.43122 -1.14024e-17)
(2.16371 2.26296 -1.5674e-17)
(2.22854 2.11558 1.56716e-17)
(0.388795 4.18372 -1.9185e-18)
(0.592481 4.12064 -1.26034e-17)
(0.735827 3.79181 2.39133e-18)
(0.937842 3.49747 0)
(1.14513 3.25824 0)
(1.33442 3.02496 3.30102e-19)
(1.49893 2.80375 1.81605e-17)
(1.63977 2.59833 1.11109e-17)
(1.75891 2.41033 0)
(1.86038 2.24134 1.02548e-17)
(1.94597 2.0916 0)
(2.02022 1.95885 4.23769e-19)
(4.0705 2.72957 1.05048e-18)
(4.25429 2.59034 -7.31599e-19)
(4.39631 2.44653 -5.96397e-20)
(4.44612 2.24659 -4.8973e-19)
(4.45519 2.03913 -2.30944e-19)
(4.37264 1.80729 0)
(4.22762 1.57832 0)
(3.99061 1.34631 8.34069e-19)
(3.68156 1.12061 -9.81944e-19)
(3.24878 0.864433 0)
(2.78671 0.469553 0)
(2.65108 -0.0899877 -4.81752e-20)
(3.46908 3.13836 1.28169e-18)
(3.59025 3.04521 0)
(3.70917 2.91829 -8.99966e-19)
(3.81554 2.7522 3.55931e-19)
(3.88992 2.57226 2.41665e-19)
(3.91966 2.38709 2.54431e-18)
(3.89886 2.20562 -4.13669e-18)
(3.8223 2.04438 6.73787e-19)
(3.68973 1.91551 0)
(3.39791 1.79665 0)
(3.11494 1.6771 0)
(3.21333 1.2731 7.11301e-19)
(3.50117 2.76855 1.21561e-18)
(3.59127 2.66898 -3.33042e-18)
(3.67287 2.55928 9.25337e-19)
(3.73718 2.44512 2.28196e-18)
(3.77613 2.32926 -2.38541e-18)
(3.78474 2.22182 0)
(3.75983 2.13178 0)
(3.70091 2.06775 -1.93229e-19)
(3.61367 2.03813 1.06314e-18)
(3.4555 2.02977 0)
(3.2122 2.02718 0)
(3.39642 1.93102 -4.66535e-19)
(3.32296 2.68566 2.74604e-19)
(3.39548 2.59167 3.38828e-18)
(3.46264 2.49343 2.41054e-18)
(3.51824 2.39522 -2.42859e-18)
(3.55779 2.30285 0)
(3.57884 2.22331 1.48548e-18)
(3.57908 2.16396 0)
(3.56018 2.13226 2.53262e-18)
(3.52509 2.13561 -8.05907e-19)
(3.44869 2.19178 0)
(3.26111 2.28562 -5.23607e-19)
(3.5502 2.39103 6.23241e-19)
(3.18099 2.56744 -2.40882e-18)
(3.24629 2.4727 0)
(3.30707 2.38013 0)
(3.36014 2.29316 0)
(3.40378 2.21625 0)
(3.43732 2.15501 -2.67195e-18)
(3.45962 2.11864 -1.16642e-19)
(3.47199 2.11124 -1.25776e-18)
(3.47962 2.14429 0)
(3.46895 2.23158 -9.90928e-19)
(3.34798 2.38393 4.84267e-19)
(3.75129 2.6079 -1.62293e-19)
(3.03918 2.46648 -1.9278e-19)
(3.1003 2.37141 -5.9567e-18)
(3.15897 2.28211 2.84883e-18)
(3.21392 2.20115 4.24096e-21)
(3.26487 2.13215 1.88244e-19)
(3.31223 2.07988 4.25135e-18)
(3.35766 2.0504 -1.29507e-19)
(3.40369 2.05018 -4.85201e-18)
(3.45279 2.0904 -1.96408e-18)
(3.50819 2.18779 1.00753e-18)
(3.46092 2.38209 -1.26594e-18)
(3.91999 2.72516 -5.1874e-19)
(2.90048 2.37201 9.66429e-18)
(2.9598 2.2739 3.18189e-18)
(3.01841 2.18403 0)
(3.07652 2.10405 0)
(3.13518 2.0366 1.82419e-19)
(3.19624 1.98537 -3.13368e-18)
(3.2626 1.95522 4.9693e-18)
(3.33821 1.95202 -1.13926e-19)
(3.42678 1.98611 1.71305e-18)
(3.53578 2.07609 0)
(3.56908 2.26522 -2.29236e-19)
(4.0678 2.6798 -7.86256e-20)
(2.76202 2.28244 -3.64344e-18)
(2.81986 2.17919 -3.37204e-18)
(2.8783 2.08593 3.63029e-18)
(2.93874 2.00332 -3.44073e-18)
(3.00345 1.93286 -4.78415e-21)
(3.07557 1.87707 6.99152e-18)
(3.15944 1.83938 -3.26035e-18)
(3.261 1.8246 1.85738e-18)
(3.38607 1.84165 0)
(3.54772 1.91026 1.13839e-18)
(3.6664 2.08445 5.89211e-19)
(4.17398 2.53516 -8.99221e-19)
(2.61907 2.19424 4.05717e-18)
(2.67507 2.08452 -3.94075e-18)
(2.73236 1.98611 -3.70812e-18)
(2.79333 1.8985 -7.76785e-18)
(2.86125 1.82192 7.56333e-18)
(2.94036 1.75759 -7.35956e-18)
(3.03633 1.70717 0)
(3.15729 1.67362 -1.80514e-18)
(3.31182 1.66317 0)
(3.51974 1.69386 0)
(3.7226 1.82791 0)
(4.22752 2.23921 4.34235e-19)
(2.46365 2.09964 4.50597e-18)
(2.51807 1.98455 -9.03661e-18)
(2.57374 1.88146 8.85124e-18)
(2.6337 1.78871 8.56167e-18)
(2.70191 1.70521 4.17572e-18)
(2.78318 1.6306 0)
(2.88456 1.56455 0)
(3.01552 1.50734 4.252e-18)
(3.18843 1.46105 0)
(3.43359 1.44059 -1.21333e-18)
(3.70179 1.4974 7.92117e-19)
(4.21128 1.78952 -1.27624e-18)
(2.28659 1.98639 -1.02134e-17)
(2.34138 1.87097 9.44635e-18)
(2.3963 1.76702 -9.25645e-18)
(2.45467 1.67186 -2.33913e-17)
(2.52105 1.58337 -2.14671e-19)
(2.59976 1.49964 1.25317e-19)
(2.69905 1.41818 -4.62728e-18)
(2.82821 1.33608 -4.32109e-18)
(3.00306 1.2489 0)
(3.26342 1.16594 3.72175e-18)
(3.56968 1.09319 9.17585e-19)
(4.07157 1.04363 -1.80425e-18)
(2.08426 1.84193 -4.2096e-19)
(2.14241 1.73534 0)
(2.1983 1.63755 0)
(2.25516 1.54548 4.47855e-18)
(2.31776 1.45638 1.38252e-17)
(2.38973 1.36774 -4.55458e-18)
(2.47908 1.27505 -1.93127e-19)
(2.59305 1.17287 -2.42814e-18)
(2.74952 1.04794 -2.33349e-18)
(2.97703 0.899896 -2.36617e-18)
(3.29318 0.66729 0)
(3.66396 -0.0642015 2.41055e-18)
(2.22154 -0.147363 -1.94393e-22)
(1.93119 -0.21338 0)
(1.7669 -0.309408 -1.44083e-19)
(1.65313 -0.410354 0)
(1.64572 -0.522344 -1.08614e-18)
(1.82328 -0.752666 9.3979e-19)
(1.71788 -1.45943 0)
(1.74958 -2.53745 1.20925e-19)
(2.33781 -2.96375 -3.83293e-19)
(2.54314 -3.19268 3.65254e-19)
(2.76213 -3.52368 -5.79836e-19)
(2.74275 -3.80319 -5.2052e-19)
(2.77115 0.432571 -2.70098e-19)
(2.37394 0.228642 -1.17949e-19)
(2.43801 -0.0600814 5.18302e-19)
(2.51665 -0.546603 0)
(2.58157 -1.35863 -6.37944e-19)
(2.93287 -2.1694 3.42772e-19)
(3.08903 -2.71813 0)
(3.13272 -2.96191 1.0794e-18)
(3.18466 -3.03621 -3.09377e-18)
(3.20102 -3.10404 1.85349e-18)
(3.20521 -3.23493 1.06142e-18)
(3.19091 -3.34308 -3.37072e-18)
(3.05991 0.348105 -1.64383e-19)
(2.79183 -0.12181 0)
(2.92341 -0.780133 -1.61573e-18)
(3.11723 -1.54264 0)
(3.24421 -2.20452 0)
(3.29772 -2.66045 -8.31862e-19)
(3.23373 -2.92742 4.39423e-18)
(3.13556 -3.09047 -3.18092e-18)
(3.06842 -3.15654 9.34016e-19)
(2.99977 -3.23609 0)
(2.93047 -3.32645 2.38666e-18)
(2.85422 -3.41111 -1.33335e-18)
(3.32677 0.126592 9.82397e-19)
(3.24209 -0.459627 1.3685e-18)
(3.39029 -1.16928 1.02463e-18)
(3.46974 -1.86051 2.07846e-18)
(3.44467 -2.37559 -1.63146e-18)
(3.363 -2.68023 -1.35107e-18)
(3.24311 -2.88089 0)
(3.12844 -2.99722 0)
(3.03432 -3.0595 1.708e-18)
(2.94668 -3.12396 0)
(2.85916 -3.18601 3.72023e-19)
(2.77346 -3.25094 1.07827e-18)
(3.48921 -0.144777 1.82902e-18)
(3.52725 -0.738983 -8.13328e-19)
(3.61534 -1.39144 -1.92694e-18)
(3.5938 -1.9846 0)
(3.49478 -2.38364 0)
(3.36041 -2.63412 2.39833e-18)
(3.22037 -2.77811 0)
(3.08592 -2.86452 -4.12358e-18)
(2.96873 -2.92637 -1.69697e-18)
(2.86171 -2.98757 3.17155e-18)
(2.76006 -3.04974 -4.3197e-18)
(2.66272 -3.11435 2.77008e-18)
(3.62777 -0.373783 -1.45362e-18)
(3.73756 -0.931794 -1.12749e-18)
(3.75565 -1.50782 1.66263e-18)
(3.66613 -2.00476 2.52452e-19)
(3.51757 -2.33398 2.64448e-18)
(3.3556 -2.52876 -5.56716e-18)
(3.19236 -2.64805 5.04502e-18)
(3.04096 -2.73045 4.42418e-19)
(2.90629 -2.79477 0)
(2.78438 -2.85546 0)
(2.67172 -2.91579 6.80094e-18)
(2.56633 -2.97715 3.20588e-20)
(3.78286 -0.54427 -5.40882e-20)
(3.94139 -1.05333 -1.73069e-18)
(3.89316 -1.54538 0)
(3.75527 -1.95667 -3.61333e-18)
(3.56513 -2.23007 3.84052e-18)
(3.36889 -2.39724 9.46393e-18)
(3.18076 -2.50833 5.70211e-18)
(3.00924 -2.59044 6.57631e-19)
(2.85589 -2.6579 -8.75551e-18)
(2.71809 -2.72025 3.85383e-18)
(2.5929 -2.78071 4.07926e-18)
(2.47813 -2.84073 2.04813e-19)
(3.96674 -0.672143 1.86683e-19)
(4.16086 -1.1184 2.90788e-18)
(4.05431 -1.52501 0)
(3.87329 -1.86283 -4.76084e-18)
(3.64179 -2.09555 -3.49167e-18)
(3.40787 -2.25025 5.2965e-19)
(3.18955 -2.36043 -1.09234e-17)
(2.99253 -2.44612 3.38176e-19)
(2.81725 -2.51807 -2.33367e-19)
(2.66135 -2.58321 4.47265e-18)
(2.52191 -2.6446 -3.61276e-18)
(2.39635 -2.70395 1.85594e-19)
(4.1538 -0.73078 -3.58147e-18)
(4.40238 -1.14012 1.55284e-18)
(4.23355 -1.46072 -8.31508e-18)
(4.00577 -1.72984 4.09841e-18)
(3.73336 -1.93261 0)
(3.46125 -2.08364 0)
(3.2096 -2.19971 6.21839e-18)
(2.98403 -2.29298 1.10691e-17)
(2.78465 -2.3714 -4.97183e-18)
(2.60908 -2.44056 -4.45241e-18)
(2.45422 -2.50354 -4.21379e-18)
(2.31693 -2.5626 0)
(4.45065 -0.806968 6.88467e-20)
(4.66012 -1.11766 5.3469e-18)
(4.38464 -1.32747 1.03654e-17)
(4.09252 -1.54743 0)
(3.78182 -1.73327 7.9109e-18)
(3.47904 -1.88751 0)
(3.20139 -2.01407 2.91513e-19)
(2.95338 -2.11832 -5.50697e-18)
(2.7348 -2.20588 5.76964e-18)
(2.54336 -2.28135 0)
(2.37606 -2.3477 0)
(2.22929 -2.40787 -9.61056e-18)
(4.57608 -0.957207 -6.85116e-18)
(4.68285 -0.978019 3.77933e-18)
(4.32875 -1.08916 5.38205e-19)
(3.98225 -1.28394 -9.07524e-18)
(3.66731 -1.47181 -3.54298e-18)
(3.36598 -1.63858 -3.55397e-18)
(3.09049 -1.78166 -6.79698e-18)
(2.84349 -1.9023 -1.88804e-17)
(2.62443 -2.00372 -5.46805e-18)
(2.43179 -2.09002 -1.14089e-17)
(2.26346 -2.16376 1.09293e-17)
(2.11601 -2.22864 9.98853e-18)
(4.18342 -0.388816 3.66898e-18)
(4.12031 -0.592368 -1.45098e-18)
(3.79155 -0.735603 3.47894e-19)
(3.49735 -0.937528 7.46014e-18)
(3.25828 -1.14478 0)
(3.02516 -1.33408 -6.59969e-18)
(2.80406 -1.49865 5.86626e-18)
(2.59872 -1.63956 5.18857e-18)
(2.41075 -1.75876 -1.65654e-17)
(2.24176 -1.86029 1.02579e-17)
(2.09199 -1.94593 -9.96178e-18)
(1.9592 -2.02022 0)
(2.72825 -4.06951 -7.68719e-19)
(2.58913 -4.25306 1.88733e-18)
(2.44548 -4.39531 -1.16287e-18)
(2.24565 -4.44499 -5.54434e-19)
(2.03835 -4.45423 1.81625e-19)
(1.80662 -4.37164 4.81497e-20)
(1.57777 -4.2268 -1.00411e-19)
(1.34588 -3.98981 -2.76912e-19)
(1.12023 -3.68095 -9.82248e-19)
(0.864137 -3.24828 0)
(0.469163 -2.78635 0)
(-0.0898101 -2.65085 -4.8148e-20)
(3.1375 -3.46866 -2.76341e-20)
(3.04439 -3.58971 1.86182e-18)
(2.91754 -3.7086 -8.99999e-19)
(2.75152 -3.81489 0)
(2.57163 -3.88927 1.5434e-18)
(2.38651 -3.91903 0)
(2.20509 -3.89827 1.23137e-18)
(2.04388 -3.82175 2.23784e-18)
(1.91505 -3.68925 -1.9221e-18)
(1.79622 -3.39755 0)
(1.67662 -3.11466 0)
(1.27226 -3.21325 -1.34257e-20)
(2.76795 -3.50086 8.51261e-19)
(2.66836 -3.5909 -8.05032e-19)
(2.55867 -3.67247 9.26411e-19)
(2.44453 -3.73676 0)
(2.32869 -3.77572 -1.05936e-18)
(2.22127 -3.78433 2.76639e-18)
(2.13125 -3.75946 -3.98499e-18)
(2.06724 -3.70058 -4.74628e-18)
(2.03761 -3.6134 3.00363e-18)
(2.02922 -3.45532 0)
(2.02659 -3.21209 5.74566e-19)
(1.93034 -3.39647 1.54107e-19)
(2.68526 -3.32275 1.03274e-18)
(2.59124 -3.39523 -2.35395e-18)
(2.49298 -3.46236 2.4129e-18)
(2.39476 -3.51796 -2.43094e-18)
(2.30238 -3.55752 0)
(2.22283 -3.57858 1.48682e-18)
(2.16346 -3.57884 1.16484e-18)
(2.13175 -3.55999 7.13278e-19)
(2.13507 -3.52492 -1.63095e-18)
(2.1912 -3.44857 0)
(2.28497 -3.26102 -3.49153e-19)
(2.39015 -3.55019 5.63965e-19)
(2.56722 -3.18086 2.69254e-18)
(2.47244 -3.24615 -1.42323e-18)
(2.37983 -3.30692 0)
(2.29282 -3.36 0)
(2.21587 -3.40364 1.44278e-18)
(2.15459 -3.43719 -1.22638e-18)
(2.11817 -3.45951 -2.13452e-19)
(2.11075 -3.4719 0)
(2.14375 -3.47957 -8.18664e-19)
(2.23099 -3.4689 9.91554e-19)
(2.38328 -3.34797 -1.05511e-18)
(2.60708 -3.75138 -2.57647e-19)
(2.46642 -3.03914 -5.93123e-18)
(2.37129 -3.10027 2.87959e-18)
(2.28193 -3.15895 5.88773e-18)
(2.20092 -3.2139 4.24364e-21)
(2.13186 -3.26486 -7.23299e-18)
(2.07953 -3.31223 -3.10713e-18)
(2.04999 -3.35767 -2.10651e-19)
(2.04972 -3.4037 0)
(2.08989 -3.45281 0)
(2.18722 -3.50823 -1.00811e-18)
(2.38142 -3.46093 -7.35665e-19)
(2.72434 -3.92007 2.27426e-19)
(2.3721 -2.90054 3.30026e-18)
(2.27391 -2.95987 -6.56496e-18)
(2.18396 -3.0185 -2.95491e-18)
(2.10391 -3.07661 -1.65262e-19)
(2.0364 -3.13528 2.92545e-18)
(1.9851 -3.19635 2.9375e-18)
(1.95488 -3.2627 1.67863e-18)
(1.95161 -3.33832 1.65793e-18)
(1.98563 -3.42688 -1.85453e-18)
(2.07555 -3.53587 0)
(2.26461 -3.56914 1.19432e-18)
(2.67906 -4.0679 -3.50515e-19)
(2.28264 -2.76217 0)
(2.17931 -2.82002 3.37545e-18)
(2.08596 -2.87847 0)
(2.00327 -2.93892 -1.71991e-19)
(1.93272 -3.00363 -4.77825e-21)
(1.87686 -3.07576 6.99837e-18)
(1.8391 -3.15963 -6.87616e-18)
(1.82423 -3.26117 0)
(1.84121 -3.38623 -2.00888e-18)
(1.90976 -3.54786 1.13911e-18)
(2.08388 -3.6665 -2.23471e-18)
(2.5345 -4.17407 1.1468e-18)
(2.19454 -2.61926 4.06111e-18)
(2.08472 -2.67528 -3.94463e-18)
(1.98621 -2.73258 -4.00782e-18)
(1.89852 -2.79356 3.95339e-18)
(1.82185 -2.86149 3.79196e-18)
(1.75744 -2.94059 -1.12758e-17)
(1.70694 -3.03657 3.59424e-18)
(1.6733 -3.15751 0)
(1.66278 -3.31202 1.8801e-18)
(1.6934 -3.51992 0)
(1.8274 -3.72273 2.76456e-18)
(2.23864 -4.22764 -2.06311e-18)
(2.1 -2.46384 0)
(1.9848 -2.51828 -9.04491e-18)
(1.88162 -2.57397 -4.7025e-18)
(1.78877 -2.63393 -8.33725e-18)
(1.70519 -2.70216 4.17967e-18)
(1.63049 -2.78343 4.00961e-18)
(1.56435 -2.88481 0)
(1.50706 -3.01576 0)
(1.46069 -3.18866 0)
(1.44017 -3.4338 0)
(1.49696 -3.70196 -7.91658e-19)
(1.78906 -4.21138 -9.98144e-20)
(1.98673 -2.28672 4.99036e-18)
(1.87123 -2.34154 4.58979e-18)
(1.76718 -2.39648 1.90279e-17)
(1.67194 -2.45487 4.90339e-18)
(1.58336 -2.52126 1.87073e-17)
(1.49956 -2.6 -4.54668e-18)
(1.41801 -2.69929 -4.63128e-18)
(1.33582 -2.82845 0)
(1.24857 -3.0033 -4.56651e-18)
(1.16556 -3.26365 -2.47232e-18)
(1.0928 -3.56987 -1.8556e-18)
(1.04331 -4.07169 -1.12482e-25)
(1.84221 -2.0843 0)
(1.73555 -2.14247 0)
(1.63769 -2.19839 -1.89758e-17)
(1.54554 -2.25529 -1.3921e-17)
(1.45637 -2.31792 -4.47827e-18)
(1.36765 -2.38992 0)
(1.27488 -2.4793 4.58481e-18)
(1.17262 -2.59329 0)
(1.04762 -2.74977 -1.83396e-19)
(0.899533 -2.97728 2.36754e-18)
(0.666979 -3.29339 6.7849e-19)
(-0.064322 -3.66415 4.78087e-18)
(-0.147376 -2.22159 9.40295e-20)
(-0.213368 -1.9313 2.22346e-19)
(-0.3097 -1.76726 -2.21702e-19)
(-0.410604 -1.6533 5.30959e-20)
(-0.522554 -1.64675 0)
(-0.755262 -1.82476 1.33672e-19)
(-1.46636 -1.71624 0)
(-2.54221 -1.75474 4.9314e-19)
(-2.96361 -2.34136 1.12826e-18)
(-3.19442 -2.5459 -1.41629e-19)
(-3.52439 -2.76429 -5.38781e-19)
(-3.80444 -2.74457 1.09399e-18)
(0.43249 -2.77133 4.29394e-19)
(0.228408 -2.37404 -4.63332e-19)
(-0.060542 -2.43872 5.19607e-19)
(-0.548877 -2.51714 -7.00093e-20)
(-1.36361 -2.58366 -6.35256e-19)
(-2.17245 -2.93628 -1.33257e-19)
(-2.71894 -3.09016 -7.75985e-19)
(-2.96127 -3.13473 -2.0849e-18)
(-3.035 -3.18609 3.21119e-18)
(-3.10382 -3.20258 -7.15576e-19)
(-3.23462 -3.20654 7.6565e-19)
(-3.34315 -3.19204 5.2179e-19)
(0.347469 -3.06016 -3.2857e-19)
(-0.123711 -2.79224 0)
(-0.78342 -2.92465 0)
(-1.54635 -3.11938 -1.00816e-18)
(-2.20656 -3.24559 0)
(-2.66106 -3.29887 -1.06638e-18)
(-2.92734 -3.23402 7.71141e-19)
(-3.0899 -3.13625 2.5001e-18)
(-3.15579 -3.06923 -1.1695e-18)
(-3.2357 -3.00065 -1.80994e-18)
(-3.32609 -2.93136 -3.3215e-18)
(-3.4109 -2.85506 3.13359e-18)
(0.125217 -3.3268 -1.96737e-18)
(-0.462107 -3.24276 -1.36799e-18)
(-1.1719 -3.39117 1.78203e-18)
(-1.86246 -3.47045 6.97938e-19)
(-2.37621 -3.44489 0)
(-2.68006 -3.3632 -4.36306e-18)
(-2.8805 -3.24328 3.18657e-18)
(-2.99651 -3.12884 0)
(-3.05882 -3.03484 2.58784e-18)
(-3.12346 -2.94724 -3.83367e-18)
(-3.18556 -2.85974 2.68166e-18)
(-3.25067 -2.77406 3.50566e-19)
(-0.146531 -3.48888 2.69367e-18)
(-0.741335 -3.52755 2.42974e-18)
(-1.39354 -3.6155 5.72164e-19)
(-1.98578 -3.59366 0)
(-2.38381 -3.49449 -2.85198e-18)
(-2.63381 -3.36033 3.85162e-18)
(-2.77753 -3.22033 0)
(-2.8639 -3.08605 -2.23713e-18)
(-2.9258 -2.96898 -2.0367e-18)
(-2.98711 -2.86203 3.16695e-18)
(-3.04937 -2.76042 0)
(-3.11407 -2.66311 -2.50171e-18)
(-0.37562 -3.62731 1.19617e-18)
(-0.933833 -3.7375 4.89717e-19)
(-1.50948 -3.75528 -1.66049e-18)
(-2.00555 -3.66562 -7.22962e-18)
(-2.33402 -3.51709 -1.87441e-19)
(-2.52842 -3.35528 5.77014e-18)
(-2.64759 -3.19215 0)
(-2.72996 -3.04091 6.63011e-18)
(-2.7943 -2.90634 -3.89222e-18)
(-2.85505 -2.78452 3.47838e-18)
(-2.91543 -2.6719 2.16653e-19)
(-2.97685 -2.56655 -3.19706e-20)
(-0.545978 -3.78226 -1.35709e-18)
(-1.05503 -3.94106 -1.16696e-18)
(-1.54663 -3.89246 0)
(-1.95721 -3.75449 7.72368e-18)
(-2.23007 -3.56445 -1.08951e-17)
(-2.39699 -3.36839 -1.75991e-19)
(-2.50799 -3.18042 -1.09118e-17)
(-2.59006 -3.00904 3.90917e-19)
(-2.65752 -2.8558 -4.18223e-18)
(-2.71989 -2.71807 -4.10894e-18)
(-2.78037 -2.59293 4.07409e-18)
(-2.84042 -2.47822 -3.41292e-18)
(-0.67338 -3.96611 -1.1911e-19)
(-1.1197 -4.16027 -1.5411e-18)
(-1.52591 -4.05338 0)
(-1.86324 -3.8723 4.75436e-18)
(-2.0956 -3.64094 3.29964e-18)
(-2.25011 -3.40721 2.85488e-18)
(-2.3602 -3.18906 -4.15685e-19)
(-2.44582 -2.99218 -8.03159e-20)
(-2.51775 -2.81701 -4.89605e-18)
(-2.58287 -2.66119 -4.72024e-19)
(-2.64425 -2.52181 1.97412e-19)
(-2.70361 -2.39631 0)
(-0.73146 -4.15318 2.22059e-18)
(-1.1409 -4.40163 0)
(-1.46132 -4.23255 0)
(-1.73018 -4.00468 -4.09518e-18)
(-1.93271 -3.73239 3.53085e-18)
(-2.08359 -3.46044 -6.96174e-18)
(-2.19954 -3.20896 0)
(-2.29275 -2.98353 5.41982e-18)
(-2.37111 -2.78426 -2.16609e-19)
(-2.44024 -2.60878 4.44792e-18)
(-2.50319 -2.45401 -4.56787e-18)
(-2.56224 -2.31678 8.71484e-18)
(-0.807033 -4.44998 4.79916e-18)
(-1.11835 -4.65939 -1.82654e-18)
(-1.328 -4.38374 -5.509e-18)
(-1.54778 -4.09152 -9.08864e-18)
(-1.73343 -3.78085 0)
(-1.88754 -3.47819 6.45566e-18)
(-2.01398 -3.20068 -1.26819e-17)
(-2.11815 -2.9528 5.54884e-18)
(-2.20564 -2.73432 5.76453e-18)
(-2.28105 -2.54298 0)
(-2.34738 -2.37577 -5.32985e-18)
(-2.40753 -2.22908 -8.99197e-18)
(-0.956977 -4.57598 -6.80785e-18)
(-0.978232 -4.68257 1.7194e-18)
(-1.08951 -4.32826 4.64427e-18)
(-1.28426 -3.98157 3.88477e-18)
(-1.47205 -3.6666 -4.13966e-20)
(-1.6387 -3.3653 -1.09346e-17)
(-1.78167 -3.08988 1.29563e-17)
(-1.90222 -2.84296 2.48387e-17)
(-2.00357 -2.62398 -1.71592e-17)
(-2.08981 -2.43141 -1.13993e-17)
(-2.16351 -2.26316 1.03431e-17)
(-2.22837 -2.11579 0)
(-0.388694 -4.18359 5.67869e-18)
(-0.592569 -4.12055 1.90598e-18)
(-0.735954 -3.79162 2.04351e-18)
(-0.937892 -3.49724 7.98919e-18)
(-1.14509 -3.25804 0)
(-1.3343 -3.02484 6.26805e-18)
(-1.49877 -2.80372 -1.2294e-17)
(-1.63959 -2.5984 -5.41898e-18)
(-1.75872 -2.41045 -5.46258e-18)
(-1.8602 -2.24151 1.02532e-17)
(-1.94581 -2.09179 5.2913e-18)
(-2.02007 -1.95905 1.51301e-17)
(-4.07023 -2.72971 2.5501e-19)
(-4.25397 -2.59037 4.69908e-19)
(-4.39591 -2.44648 5.01514e-19)
(-4.44568 -2.24649 -1.25707e-18)
(-4.45474 -2.03898 4.13714e-19)
(-4.37218 -1.80713 0)
(-4.22719 -1.57814 -5.00808e-19)
(-3.99021 -1.34614 3.78571e-19)
(-3.68123 -1.12042 0)
(-3.24854 -0.864248 1.01996e-19)
(-2.78654 -0.469334 0)
(-2.65098 0.0899048 -3.77675e-19)
(-3.46875 -3.13843 -3.64679e-18)
(-3.58994 -3.04517 2.74879e-18)
(-3.70886 -2.91818 2.02802e-18)
(-3.81521 -2.75204 -8.15301e-19)
(-3.88958 -2.57208 0)
(-3.91933 -2.38689 0)
(-3.89854 -2.20541 1.43312e-18)
(-3.82201 -2.04416 -1.57294e-18)
(-3.68946 -1.91527 0)
(-3.39774 -1.7964 5.90535e-19)
(-3.1148 -1.67682 -6.8135e-20)
(-3.21323 -1.27275 -1.08527e-18)
(-3.50076 -2.76874 1.27572e-18)
(-3.5909 -2.66908 -2.16454e-18)
(-3.67253 -2.55932 0)
(-3.73686 -2.4451 -2.29922e-18)
(-3.77584 -2.32918 -2.47339e-18)
(-3.78447 -2.2217 5.43246e-18)
(-3.7596 -2.13161 -4.86698e-18)
(-3.70072 -2.06753 0)
(-3.61351 -2.03786 0)
(-3.45539 -2.02945 0)
(-3.21215 -2.02684 -5.23704e-19)
(-3.39636 -1.93064 1.58444e-19)
(-3.32258 -2.68583 -1.03119e-18)
(-3.39516 -2.59178 -3.217e-19)
(-3.46235 -2.49347 0)
(-3.51799 -2.39521 -3.02918e-19)
(-3.55757 -2.30278 0)
(-3.57865 -2.22318 0)
(-3.57892 -2.16378 1.30764e-18)
(-3.56005 -2.13203 -1.61875e-18)
(-3.52497 -2.13533 1.77949e-18)
(-3.4486 -2.19144 0)
(-3.26108 -2.28523 -5.23703e-19)
(-3.55013 -2.39057 -6.23427e-19)
(-3.18065 -2.56762 5.60255e-18)
(-3.24601 -2.47283 -1.42157e-18)
(-3.30683 -2.38021 2.59942e-18)
(-3.35993 -2.29318 1.19576e-18)
(-3.4036 -2.21621 -4.1008e-18)
(-3.43716 -2.15491 0)
(-3.4595 -2.11846 -1.42632e-18)
(-3.47189 -2.11102 0)
(-3.47955 -2.144 0)
(-3.46889 -2.23123 9.90908e-19)
(-3.34798 -2.38353 3.57255e-20)
(-3.75124 -2.60741 7.0623e-19)
(-3.03889 -2.46667 -2.7577e-18)
(-3.10005 -2.37155 -2.0303e-19)
(-3.15877 -2.2822 0)
(-3.21375 -2.20119 0)
(-3.26473 -2.13213 -4.5712e-18)
(-3.31211 -2.07979 2.91417e-18)
(-3.35757 -2.05024 3.01369e-18)
(-3.40362 -2.04996 1.593e-18)
(-3.45275 -2.09011 -3.81057e-18)
(-3.50817 -2.18743 -1.00757e-18)
(-3.46093 -2.38167 0)
(-3.91996 -2.72466 8.10374e-19)
(-2.90024 -2.37222 -6.7646e-18)
(-2.9596 -2.27406 2.82471e-18)
(-3.01825 -2.18414 3.14178e-18)
(-3.07638 -2.10411 1.68491e-19)
(-3.13508 -2.0366 -3.52231e-19)
(-3.19617 -1.9853 -3.3041e-18)
(-3.26254 -1.95508 -4.87697e-18)
(-3.33818 -1.9518 -1.77256e-18)
(-3.42677 -1.98582 1.71278e-18)
(-3.53578 -2.07574 0)
(-3.56911 -2.26481 2.01851e-18)
(-4.06778 -2.67932 -5.20211e-19)
(-2.76183 -2.28265 7.12087e-18)
(-2.8197 -2.17937 -3.87238e-18)
(-2.87817 -2.08606 -3.62969e-18)
(-2.93864 -2.00339 -6.70844e-18)
(-3.00338 -1.93287 6.66488e-18)
(-3.07553 -1.87702 -1.74598e-19)
(-3.15943 -1.83926 1.03097e-17)
(-3.26101 -1.82439 1.66544e-18)
(-3.3861 -1.84137 2.00694e-18)
(-3.54776 -1.90991 0)
(-3.66645 -2.08405 -1.39001e-18)
(-4.17399 -2.5347 -6.77989e-19)
(-2.6189 -2.19446 0)
(-2.67493 -2.0847 3.78195e-18)
(-2.73225 -1.98624 3.70751e-18)
(-2.79326 -1.89859 -3.8177e-18)
(-2.86121 -1.82194 -1.43176e-19)
(-2.94035 -1.75755 -3.90456e-18)
(-3.03636 -1.70706 -3.59007e-18)
(-3.15734 -1.67343 0)
(-3.31189 -1.6629 -1.87823e-18)
(-3.51981 -1.69353 -1.17358e-18)
(-3.72267 -1.82754 4.5151e-18)
(-4.22755 -2.23879 -9.8611e-19)
(-2.4635 -2.09986 0)
(-2.51795 -1.98473 0)
(-2.57366 -1.8816 0)
(-2.63365 -1.7888 -1.29529e-17)
(-2.70192 -1.70524 8.32437e-18)
(-2.78322 -1.63057 8.14492e-18)
(-2.88464 -1.56445 0)
(-3.01562 -1.50716 -4.25083e-18)
(-3.18856 -1.4608 0)
(-3.43371 -1.44028 -2.46686e-18)
(-3.7019 -1.49706 -7.91242e-19)
(-4.21134 -1.78916 -1.27641e-18)
(-2.28645 -1.98658 0)
(-2.34128 -1.87114 0)
(-2.39624 -1.76715 9.7531e-18)
(-2.45466 -1.67195 1.37941e-17)
(-2.52109 -1.5834 3.62568e-19)
(-2.59986 -1.49962 4.66669e-18)
(-2.69919 -1.41809 -2.27666e-18)
(-2.82838 -1.33593 6.53317e-18)
(-3.00326 -1.24868 4.56148e-18)
(-3.2636 -1.16567 2.31261e-18)
(-3.56982 -1.09289 -1.85462e-18)
(-4.07167 -1.04338 -1.97647e-18)
(-2.08415 -1.84212 0)
(-2.14234 -1.73551 0)
(-2.19829 -1.63768 -9.27728e-18)
(-2.25521 -1.54557 4.88185e-18)
(-2.31787 -1.45642 -4.47545e-18)
(-2.3899 -1.36773 -4.55381e-18)
(-2.4793 -1.27498 4.77495e-18)
(-2.59331 -1.17273 0)
(-2.74981 -1.04774 -4.60513e-18)
(-2.9773 -0.899661 -2.44993e-18)
(-3.2934 -0.667051 2.32898e-18)
(-3.66409 0.0643242 -4.78067e-18)
(-2.22151 0.147283 9.55226e-20)
(-1.93111 0.21332 0)
(-1.76677 0.309301 0)
(-1.65301 0.410233 7.6143e-19)
(-1.64556 0.522228 -1.08909e-18)
(-1.82319 0.752414 0)
(-1.71791 1.4593 0)
(-1.74946 2.53777 4.93951e-19)
(-2.33799 2.96428 8.00069e-19)
(-2.54338 3.19318 4.46397e-19)
(-2.76249 3.52427 -1.11493e-18)
(-2.7431 3.80379 8.50626e-19)
(-2.7712 -0.432706 -5.84839e-19)
(-2.37382 -0.228762 0)
(-2.43779 0.0599632 0)
(-2.51652 0.546407 -9.9307e-19)
(-2.5814 1.35841 1.25295e-18)
(-2.93285 2.16971 -1.42748e-18)
(-3.0892 2.71867 7.37596e-19)
(-3.13288 2.96251 8.80876e-19)
(-3.18496 3.03677 -4.53077e-19)
(-3.20136 3.10452 7.44863e-19)
(-3.20562 3.2354 0)
(-3.19136 3.34351 -1.29702e-18)
(-3.06 -0.348426 3.28487e-19)
(-2.79169 0.121416 0)
(-2.92319 0.779825 0)
(-3.11699 1.54261 -6.23996e-19)
(-3.24418 2.20497 4.29491e-19)
(-3.2978 2.66119 -1.39315e-18)
(-3.23388 2.92814 0)
(-3.13574 3.09114 -3.46734e-18)
(-3.06863 3.15714 3.41752e-18)
(-3.00001 3.23662 -9.80862e-19)
(-2.93074 3.32694 -2.3284e-18)
(-2.85451 3.41156 3.13901e-18)
(-3.32689 -0.126999 -9.81763e-19)
(-3.24199 0.459297 1.3687e-18)
(-3.39024 1.16928 0)
(-3.46977 1.86091 6.97891e-19)
(-3.44476 2.3763 -6.52527e-19)
(-3.3631 2.68099 1.35054e-18)
(-3.24325 2.88161 0)
(-3.12859 2.99786 -1.90809e-18)
(-3.03451 3.06005 -4.30019e-18)
(-2.94689 3.12442 2.67984e-18)
(-2.8594 3.1864 2.68501e-18)
(-2.77372 3.25127 -5.37169e-18)
(-3.48939 0.144325 1.34954e-18)
(-3.52723 0.738729 -1.01082e-18)
(-3.61538 1.39156 1.927e-18)
(-3.59388 1.98513 0)
(-3.49485 2.38436 -5.98532e-18)
(-3.36048 2.63485 4.43555e-18)
(-3.22045 2.77877 2.52967e-18)
(-3.08601 2.86507 1.77609e-18)
(-2.96884 2.92682 0)
(-2.86185 2.98793 0)
(-2.76022 3.05003 0)
(-2.66291 3.11457 -5.42185e-19)
(-3.62793 0.373358 2.90942e-18)
(-3.73756 0.931618 0)
(-3.7557 1.50802 -1.6626e-18)
(-3.66616 2.00532 3.74475e-18)
(-3.51758 2.33469 2.6326e-18)
(-3.3556 2.52944 -5.52201e-18)
(-3.19235 2.64862 2.59908e-18)
(-3.04097 2.7309 -9.06117e-18)
(-2.90631 2.79512 -9.51893e-20)
(-2.78443 2.85572 -3.01794e-19)
(-2.6718 2.91597 2.1703e-19)
(-2.56644 2.97727 9.23327e-18)
(-3.78301 0.543893 -4.79267e-18)
(-3.9414 1.05321 3.12151e-18)
(-3.8932 1.54562 -4.88195e-18)
(-3.75525 1.95721 -3.61324e-18)
(-3.56504 2.23072 -6.86248e-18)
(-3.36879 2.39782 -3.63268e-18)
(-3.18065 2.5088 -5.39771e-18)
(-3.00914 2.59079 8.98612e-18)
(-2.85582 2.65814 0)
(-2.71805 2.7204 7.73901e-18)
(-2.59289 2.78079 -1.08596e-17)
(-2.47816 2.84076 3.64371e-18)
(-3.96686 0.671851 -2.80173e-18)
(-4.16089 1.11832 -4.63003e-18)
(-4.05437 1.52526 7.36453e-18)
(-3.87324 1.86332 0)
(-3.64165 2.09611 -4.02973e-18)
(-3.40767 2.25073 6.04226e-18)
(-3.18933 2.3608 -2.75835e-19)
(-2.99232 2.44637 8.04808e-20)
(-2.81708 2.51823 -4.58761e-18)
(-2.66121 2.58327 -8.50835e-18)
(-2.52181 2.64459 3.79032e-18)
(-2.3963 2.70388 -3.80753e-18)
(-4.15394 0.730528 2.22281e-18)
(-4.40247 1.14011 0)
(-4.23362 1.46096 0)
(-4.00574 1.73024 0)
(-3.7332 1.93305 3.53541e-18)
(-3.46101 2.08403 0)
(-3.20932 2.19999 -3.49055e-19)
(-2.98375 2.29316 1.08027e-17)
(-2.78439 2.37148 2.25223e-19)
(-2.60886 2.44055 4.45343e-18)
(-2.45405 2.50346 -4.41101e-18)
(-2.3168 2.56246 1.29287e-17)
(-4.45083 0.806877 6.88695e-20)
(-4.66027 1.11766 9.70797e-18)
(-4.38474 1.32766 -2.53669e-18)
(-4.09252 1.54774 0)
(-3.78168 1.7336 0)
(-3.47881 1.8878 0)
(-3.2011 2.01428 0)
(-2.95308 2.11844 5.77367e-18)
(-2.73451 2.20591 -2.1757e-17)
(-2.54311 2.28129 -1.05341e-17)
(-2.37585 2.34758 1.00215e-17)
(-2.22912 2.40769 5.27555e-18)
(-4.57618 0.957174 -6.80779e-18)
(-4.68294 0.978064 -5.24666e-18)
(-4.32883 1.0893 -2.76138e-18)
(-3.98227 1.28416 0)
(-3.66723 1.47207 0)
(-3.36581 1.63881 7.35805e-18)
(-3.09027 1.78183 -1.34e-17)
(-2.84323 1.9024 2.50673e-17)
(-2.62417 2.00374 1.74608e-17)
(-2.43155 2.08996 1.0793e-17)
(-2.26325 2.16363 -1.03528e-17)
(-2.11584 2.22846 5.48197e-19)
(-4.18354 0.38887 -1.91826e-18)
(-4.12043 0.592444 0)
(-3.79167 0.735743 3.92432e-18)
(-3.49746 0.937737 -1.188e-17)
(-3.25832 1.14502 1.06911e-17)
(-3.02512 1.3343 3.30102e-19)
(-2.80396 1.49882 5.8657e-18)
(-2.59857 1.63966 -5.42045e-18)
(-2.41058 1.75879 -2.71974e-17)
(-2.24159 1.86025 0)