/*--------------------------------*- C++ -*----------------------------------*\
| =========                 |                                                 |
| \\      /  F ield         | foam-extend: Open Source CFD                    |
|  \\    /   O peration     | Version:     4.0                                |
|   \\  /    A nd           | Web:         http://www.foam-extend.org         |
|    \\/     M anipulation  |                                                 |
\*---------------------------------------------------------------------------*/
FoamFile
{
    version     2.0;
    format      ascii;
    class       volScalarField;
    location    "3450";
    object      divFlux;
}
// * * * * * * * * * * * * * * * * * * * * * * * * * * * * * * * * * * * * * //

dimensions      [1 -3 -1 0 0 0 0];

internalField   nonuniform List<scalar> 
34480
(
1.38079e-05
4.84455e-06
5.08289e-06
4.71061e-06
4.35451e-06
4.12523e-06
3.92259e-06
0.000295886
0.000163687
3.49494e-06
4.37315e-06
2.39446e-06
2.15437e-06
1.92613e-06
1.81817e-06
1.80614e-06
1.79079e-06
1.7806e-06
0.00347368
1.73879e-06
9.09708e-07
3.15741e-07
6.2722e-07
4.8321e-07
6.55216e-07
6.93888e-07
6.24013e-07
6.65388e-07
0.00334442
6.61493e-07
4.64932e-07
3.28257e-07
2.28486e-07
1.97901e-07
3.4017e-07
2.63117e-07
2.05996e-07
4.11343e-07
0.0008019
2.1054e-07
2.80872e-07
2.145e-07
1.35232e-07
6.58489e-08
2.01343e-07
1.23843e-07
4.98121e-08
1.75292e-07
1.6364e-07
6.43434e-08
3.09094e-07
9.46741e-08
6.19706e-08
4.76521e-08
9.86261e-08
1.55213e-08
6.07106e-09
1.55041e-07
3.71136e-08
2.42842e-08
4.57442e-07
2.28078e-08
4.28156e-08
3.05462e-10
4.97394e-08
1.16585e-08
1.61386e-08
4.52593e-08
8.8584e-09
3.44663e-08
2.08002e-07
4.58193e-09
2.93244e-09
1.9015e-08
2.63003e-08
2.25889e-08
1.49829e-08
3.36314e-08
4.12374e-10
1.09508e-08
1.97856e-08
1.41623e-09
1.12466e-08
1.49121e-08
9.78867e-09
2.7075e-09
3.01991e-08
2.87412e-09
1.50371e-08
1.44539e-08
9.35668e-08
1.30203e-08
3.70373e-09
2.2146e-09
8.40021e-09
4.23829e-09
8.78203e-10
4.96376e-09
1.56931e-08
1.57313e-08
1.95334e-05
6.82993e-06
6.76189e-06
6.33682e-06
5.88769e-06
5.5941e-06
5.4075e-06
5.25742e-06
5.26328e-06
0.00107
6.48657e-06
2.98305e-06
3.10658e-06
2.95973e-06
2.81805e-06
2.75943e-06
2.79143e-06
2.74068e-06
2.90952e-06
0.00346033
2.29488e-06
1.17878e-06
1.20161e-06
1.13325e-06
1.13359e-06
1.06923e-06
1.28897e-06
1.26265e-06
1.23403e-06
0.0043127
6.47308e-07
4.33052e-07
3.93261e-07
5.09404e-07
4.36069e-07
5.04931e-07
5.50118e-07
5.27365e-07
6.30907e-07
0.00149838
3.35573e-07
2.8125e-07
1.03141e-07
3.35711e-07
2.15167e-07
1.84924e-07
2.99019e-07
2.88248e-07
2.03849e-07
3.4682e-07
1.80115e-07
2.22028e-07
3.24256e-08
2.26926e-07
7.4169e-08
1.67186e-08
2.9593e-07
6.4585e-08
5.10611e-08
1.67799e-07
2.14168e-07
1.73647e-07
9.68805e-08
1.99535e-07
3.97082e-08
9.13431e-09
1.22532e-07
1.04595e-08
9.69279e-08
6.78389e-08
5.04887e-09
6.20613e-08
7.96531e-09
1.24378e-07
6.13798e-08
2.60257e-08
1.76089e-07
2.14254e-08
3.36502e-09
6.86902e-08
1.75826e-08
6.7649e-08
1.27786e-08
1.62249e-08
1.31271e-08
7.338e-08
2.49376e-08
1.0703e-07
7.87238e-08
8.85884e-08
6.55479e-08
3.31888e-08
2.52022e-09
7.97596e-08
4.0572e-08
1.67896e-08
3.51056e-08
8.89531e-08
7.27669e-09
5.5995e-09
1.82357e-05
5.09313e-06
5.23641e-06
4.97526e-06
4.67264e-06
4.46197e-06
4.35684e-06
4.32982e-06
2.84372e-05
0.000877971
4.83219e-06
2.14973e-06
2.13755e-06
2.05331e-06
1.9656e-06
1.88457e-06
1.88704e-06
1.91016e-06
8.25632e-05
0.00135554
1.97677e-06
1.20121e-06
1.15876e-06
9.75537e-07
9.13289e-07
8.30609e-07
8.17145e-07
7.28129e-07
0.000120828
0.001275
1.16337e-06
5.57013e-07
5.20582e-07
2.9098e-07
3.00813e-07
3.52225e-07
2.09903e-07
2.93158e-07
4.05583e-07
4.1851e-07
3.09947e-07
2.39285e-08
1.87921e-07
6.99754e-08
5.90011e-08
2.0393e-07
5.18734e-08
5.78132e-08
2.17846e-07
2.22021e-07
4.31541e-08
4.14295e-08
6.00405e-08
8.49378e-08
9.2115e-08
1.28644e-07
1.32604e-07
9.91931e-08
2.07543e-07
4.11387e-08
8.08873e-08
4.0434e-08
9.84232e-08
1.05551e-07
5.02455e-08
8.72037e-08
4.39098e-08
7.62922e-08
1.48273e-08
1.28364e-08
5.0636e-08
1.86903e-08
9.85991e-09
4.63693e-08
1.35069e-07
3.12825e-09
9.44414e-08
7.82062e-08
5.34178e-08
2.32639e-09
5.98549e-08
3.59982e-10
6.83966e-09
2.33988e-08
1.51913e-08
5.47893e-08
5.42133e-08
9.53953e-08
6.0009e-08
3.53503e-08
1.90359e-09
2.16469e-08
2.36928e-08
1.08565e-08
6.0288e-08
4.38878e-09
2.036e-08
2.54087e-08
9.60253e-09
3.61043e-08
1.74447e-05
4.41075e-06
4.54763e-06
4.31977e-06
4.07945e-06
3.91594e-06
3.82446e-06
3.82183e-06
1.37201e-05
0.000377093
5.59229e-06
2.24216e-06
2.17636e-06
2.03435e-06
1.90579e-06
1.82784e-06
1.79775e-06
1.75578e-06
3.61642e-05
0.00114608
8.17425e-07
3.68522e-07
5.43268e-07
6.29002e-07
6.26278e-07
6.42107e-07
7.50591e-07
6.41555e-07
0.000122235
0.00229053
7.49327e-07
4.06739e-07
5.24077e-07
4.35452e-07
3.39742e-07
3.83732e-07
3.20784e-07
2.79861e-07
0.000113163
0.00210535
5.15431e-07
1.36519e-07
3.41718e-07
1.98994e-07
6.77336e-08
1.56976e-07
1.93525e-07
7.09941e-08
4.50821e-05
0.00156893
1.50817e-07
5.47575e-09
1.4559e-07
1.61051e-08
2.59523e-08
1.89166e-07
5.61379e-09
3.84683e-08
1.0646e-05
0.000985665
1.24654e-07
8.46261e-08
1.43566e-07
1.17798e-08
5.1741e-08
8.44216e-08
8.99843e-10
3.26397e-08
3.98794e-08
0.000413969
5.39143e-08
6.95742e-09
6.41261e-08
7.62003e-08
2.09827e-08
1.03294e-07
5.59539e-08
1.12644e-08
4.41741e-08
0.000155562
5.01001e-08
4.81899e-09
2.08154e-08
1.20475e-09
3.40007e-08
1.72346e-08
4.05264e-08
8.00823e-08
2.52997e-08
6.97353e-08
4.90967e-09
2.95414e-08
1.05834e-08
3.88977e-08
3.09832e-08
1.94796e-08
8.06791e-09
1.67187e-08
4.20267e-09
1.35398e-08
1.69595e-05
4.0982e-06
4.16031e-06
3.94927e-06
3.74531e-06
3.60706e-06
3.52884e-06
3.48788e-06
1.84875e-05
0.000145818
5.45023e-06
2.06736e-06
2.03524e-06
1.92205e-06
1.80369e-06
1.71813e-06
1.68194e-06
1.63305e-06
2.62385e-06
0.000580369
1.68443e-06
6.61365e-07
5.67666e-07
5.70575e-07
5.51035e-07
5.24479e-07
6.06473e-07
5.52438e-07
7.68265e-05
0.00133498
3.96608e-08
1.1949e-08
1.38911e-07
2.00966e-07
2.21613e-07
2.43286e-07
2.54009e-07
2.50045e-07
7.88505e-05
0.00141985
3.39645e-07
9.96335e-08
1.83476e-07
1.89343e-07
1.48277e-07
1.01833e-07
1.57272e-07
9.77757e-08
5.2795e-05
0.00127839
2.25114e-07
6.04865e-08
1.24096e-07
1.08953e-07
7.44318e-09
1.14043e-07
7.52445e-08
7.44318e-09
3.98135e-05
0.0010138
1.01207e-07
5.43361e-08
8.39567e-08
5.96975e-08
1.52096e-08
4.21305e-08
2.867e-08
2.52479e-08
5.80317e-06
0.000664659
2.49774e-08
1.59472e-08
5.77659e-08
3.1826e-09
3.64117e-08
7.22074e-08
2.12173e-09
1.03007e-08
8.48481e-06
0.000497148
2.63671e-08
1.75463e-08
2.55106e-08
8.71093e-10
8.83537e-09
2.44839e-08
4.43013e-08
3.49993e-08
4.57013e-08
0.000304302
3.80425e-09
1.57704e-08
2.39836e-08
2.38695e-08
7.87095e-09
1.71108e-08
1.54282e-08
1.37456e-08
5.81766e-09
0.000400744
1.59133e-05
3.81791e-06
3.78923e-06
3.56303e-06
3.38106e-06
3.26497e-06
3.20375e-06
3.17459e-06
3.17292e-06
2.65549e-05
4.8135e-06
1.67299e-06
1.66074e-06
1.57401e-06
1.49086e-06
1.44545e-06
1.4291e-06
1.41598e-06
1.48312e-05
0.000223747
2.18408e-06
1.04447e-06
9.16897e-07
8.18784e-07
7.04765e-07
6.43778e-07
6.3153e-07
5.45538e-07
3.52883e-05
0.000718486
6.60614e-07
2.42472e-07
2.27228e-07
1.97085e-07
2.11878e-07
2.13071e-07
2.17445e-07
2.18506e-07
4.15111e-05
0.00084744
5.07923e-08
5.22651e-09
6.06275e-08
5.99912e-08
9.86219e-08
8.08972e-08
1.07757e-07
7.04442e-08
3.66292e-05
0.000862237
1.14706e-07
3.8892e-08
6.49393e-08
7.12225e-08
3.20521e-08
6.98307e-08
5.38841e-08
3.0024e-08
3.47509e-05
0.000777882
1.07204e-07
3.11065e-09
5.44011e-08
4.75435e-08
2.30471e-08
2.65466e-08
3.19549e-08
2.59103e-08
1.90086e-05
0.000592185
3.5484e-08
6.68084e-10
2.8155e-08
3.25452e-08
1.87382e-08
3.56948e-08
1.24709e-08
7.50799e-09
2.56193e-05
0.000521862
3.03571e-08
1.5444e-08
1.96955e-08
1.14529e-08
6.59407e-09
3.27679e-08
2.55376e-08
1.79313e-08
9.33469e-06
0.000444658
2.76173e-09
8.11245e-09
1.61188e-08
4.18878e-09
1.27254e-09
1.08961e-08
1.72588e-08
9.59708e-09
2.55801e-05
0.000520698
1.35931e-05
3.43725e-06
3.27836e-06
3.0005e-06
2.8162e-06
2.70064e-06
2.6369e-06
2.64122e-06
2.71249e-06
4.03931e-07
4.69073e-06
1.61165e-06
1.60171e-06
1.51483e-06
1.42574e-06
1.37298e-06
1.33483e-06
1.28115e-06
9.86495e-06
7.21774e-05
1.08456e-06
5.28475e-07
5.66834e-07
6.10161e-07
5.56956e-07
5.6296e-07
5.56335e-07
5.03632e-07
1.36617e-05
0.000378125
1.03935e-06
4.74925e-07
4.17968e-07
3.34715e-07
3.00925e-07
2.6684e-07
2.51289e-07
2.35294e-07
1.63701e-05
0.00048998
3.02983e-07
1.01569e-07
1.26623e-07
9.43864e-08
9.76819e-08
9.81467e-08
1.09132e-07
7.09799e-08
1.72923e-05
0.000541842
3.39558e-08
4.99078e-09
3.67099e-08
3.03883e-08
2.69502e-08
5.1941e-08
3.53421e-08
3.46027e-08
1.97238e-05
0.000535166
6.02503e-08
3.58186e-09
3.79874e-08
1.84679e-08
2.19841e-08
1.88294e-08
2.62889e-08
2.04725e-08
1.55194e-05
0.000439983
3.55352e-08
1.3427e-08
1.26877e-08
2.78892e-08
1.92237e-09
2.366e-08
5.56009e-09
1.32496e-08
2.49789e-05
0.000431053
3.35562e-08
5.94188e-09
1.62931e-08
1.76643e-08
7.8777e-09
2.80425e-08
1.62931e-08
1.52983e-08
1.89896e-05
0.000406917
1.29294e-09
1.05731e-08
4.48554e-09
9.16824e-09
3.79545e-09
9.75974e-09
1.35059e-08
4.83058e-09
3.24585e-05
0.000466346
1.05694e-05
3.18877e-06
2.94352e-06
2.63126e-06
2.45819e-06
2.35937e-06
2.29254e-06
2.26284e-06
2.29354e-06
2.56815e-06
4.34454e-06
1.41714e-06
1.40384e-06
1.32105e-06
1.23829e-06
1.1942e-06
1.16138e-06
1.10151e-06
2.3564e-06
1.52794e-05
1.21754e-06
4.71713e-07
4.53622e-07
4.86945e-07
4.36796e-07
4.64428e-07
4.56619e-07
4.28328e-07
5.03178e-06
0.000180843
2.90023e-07
1.81345e-07
2.30743e-07
2.27512e-07
2.32209e-07
2.16652e-07
2.19379e-07
2.10054e-07
5.25824e-06
0.000266729
4.19117e-07
1.67988e-07
1.67163e-07
1.44343e-07
1.17438e-07
1.16024e-07
1.15985e-07
7.61582e-08
5.60961e-06
0.000321184
1.34189e-07
4.84924e-08
6.70165e-08
4.49526e-08
4.16533e-08
5.62595e-08
3.92132e-08
4.25469e-08
7.58345e-06
0.000349049
4.1745e-08
5.59043e-09
3.09154e-08
1.23723e-08
1.68629e-08
1.60992e-08
2.52639e-08
1.89097e-08
8.46939e-06
0.000301544
1.99928e-08
1.06402e-08
8.71558e-09
1.39944e-08
5.9112e-09
2.14453e-08
8.52312e-10
1.34445e-08
1.84942e-05
0.000324131
2.61983e-08
1.74961e-09
1.29971e-08
1.53466e-08
4.0991e-09
2.18202e-08
1.3522e-08
1.62964e-08
1.77397e-05
0.000310271
2.71556e-09
1.35179e-08
8.70641e-10
1.2693e-08
4.65106e-09
1.15245e-08
7.8816e-09
7.78995e-10
2.98513e-05
0.000364747
7.16244e-06
2.93532e-06
2.61035e-06
2.2459e-06
2.06334e-06
1.97627e-06
1.926e-06
1.8939e-06
1.8765e-06
1.96958e-06
3.67039e-06
1.11365e-06
1.10915e-06
1.04627e-06
9.86079e-07
9.67517e-07
9.57229e-07
9.44961e-07
9.21063e-07
1.48074e-07
1.51066e-06
5.85871e-07
5.33679e-07
5.21845e-07
4.39774e-07
4.44426e-07
4.09461e-07
3.70892e-07
1.72779e-06
7.98664e-05
3.88647e-07
1.5555e-07
1.68883e-07
1.6473e-07
1.74421e-07
1.63921e-07
1.79128e-07
1.83324e-07
1.59418e-06
0.000135461
1.52963e-07
6.74036e-08
8.48935e-08
9.82209e-08
8.02563e-08
9.0407e-08
8.98593e-08
5.89325e-08
9.18895e-07
0.000176617
1.47575e-07
5.9074e-08
7.43138e-08
5.23327e-08
4.84988e-08
5.25244e-08
3.83071e-08
1.23019e-05
1.12713e-06
0.000214182
6.7805e-08
1.34045e-08
3.30567e-08
2.2975e-08
1.92547e-08
1.78915e-08
2.61557e-08
2.10723e-08
3.28517e-06
0.000189323
1.6825e-08
7.92339e-09
1.10161e-08
8.40902e-09
5.2141e-09
2.27989e-08
2.07031e-09
1.02408e-05
1.18659e-05
0.000226132
1.84287e-08
4.87951e-10
1.05258e-08
1.17108e-08
1.34767e-09
1.87977e-08
1.33373e-08
1.47779e-08
1.32412e-05
0.000213063
1.40027e-09
1.23324e-08
1.44836e-09
1.35464e-08
7.00752e-09
1.54847e-08
4.0043e-09
4.87086e-06
2.38278e-05
0.000263035
3.92799e-06
2.77863e-06
2.36821e-06
1.89643e-06
1.64498e-06
1.52964e-06
1.48444e-06
1.46337e-06
1.45688e-06
1.42428e-06
3.3467e-06
9.93145e-07
1.00648e-06
9.37901e-07
8.67064e-07
8.38848e-07
8.15176e-07
8.2171e-07
7.64476e-07
8.89449e-07
1.07484e-06
3.87896e-07
3.92862e-07
4.10112e-07
3.5368e-07
3.73449e-07
3.40802e-07
3.10673e-07
2.46281e-07
3.17897e-05
5.82186e-07
2.38222e-07
2.22283e-07
1.96304e-07
1.87038e-07
1.63316e-07
1.73692e-07
1.81889e-07
4.67733e-07
6.41591e-05
1.72219e-07
6.12012e-08
5.99453e-08
7.69173e-08
6.02847e-08
7.76641e-08
7.66118e-08
5.22739e-08
4.30683e-07
9.08637e-05
6.71005e-08
2.41173e-08
4.51753e-08
3.31167e-08
3.73046e-08
3.51661e-08
2.7028e-08
1.76331e-05
1.5441e-06
0.000125183
6.50536e-08
1.89031e-08
2.77474e-08
2.58201e-08
1.79527e-08
1.72662e-08
2.05663e-08
1.68966e-08
6.41253e-07
0.00010848
2.35095e-08
9.36178e-09
1.45179e-08
8.88656e-09
5.5838e-09
2.07195e-08
5.48876e-09
1.91378e-05
6.96844e-06
0.00014931
1.58924e-08
1.33925e-09
8.07869e-09
9.11553e-09
8.42431e-10
1.60062e-08
1.04548e-08
1.147e-08
8.54244e-06
0.000135643
5.00278e-10
1.0633e-08
3.16812e-10
1.15834e-08
9.14793e-09
1.5702e-08
2.37609e-09
1.02656e-05
1.74658e-05
0.000179337
1.1271e-06
2.62547e-06
2.37931e-06
1.95487e-06
1.66335e-06
1.4855e-06
1.37793e-06
1.31972e-06
1.30514e-06
1.28714e-06
2.9383e-06
7.63311e-07
8.21902e-07
7.68943e-07
6.96961e-07
6.63883e-07
6.35112e-07
6.38122e-07
6.29286e-07
5.08016e-07
9.90756e-07
3.0348e-07
3.24001e-07
3.34095e-07
2.89674e-07
3.13994e-07
2.83357e-07
2.52211e-07
2.64957e-07
1.09202e-05
3.64525e-07
1.60237e-07
1.68189e-07
1.59261e-07
1.52119e-07
1.27067e-07
1.35037e-07
1.46707e-07
5.96954e-08
2.73595e-05
2.41696e-07
9.60238e-08
8.12242e-08
8.88291e-08
6.59828e-08
8.24549e-08
8.27389e-08
6.70557e-08
5.70715e-07
4.3868e-05
6.97669e-08
2.11502e-08
3.62259e-08
2.67828e-08
3.36028e-08
2.98753e-08
2.4712e-08
1.69077e-05
2.38746e-06
7.10806e-05
4.18102e-08
1.23453e-08
1.5904e-08
2.13281e-08
1.37197e-08
1.28116e-08
1.20017e-08
1.00137e-08
2.90175e-07
5.63914e-05
2.21153e-08
7.35562e-09
1.4402e-08
7.48815e-09
6.11864e-09
1.74724e-08
9.14195e-07
2.1298e-05
3.7532e-06
9.56715e-05
1.37742e-08
4.45795e-09
6.10458e-09
6.28531e-09
3.03221e-09
1.26309e-08
5.48207e-09
7.1287e-09
4.71366e-06
7.95015e-05
4.45518e-10
7.51024e-09
2.83475e-09
1.03266e-08
9.53506e-09
1.33822e-08
3.60786e-09
1.13215e-05
1.20555e-05
0.000117134
7.7368e-06
7.88e-07
8.93155e-07
8.88569e-07
8.64218e-07
8.47893e-07
8.35213e-07
8.22926e-07
8.23508e-07
8.8641e-07
2.75455e-06
4.59104e-07
6.10547e-07
6.09443e-07
5.54692e-07
5.21349e-07
4.89854e-07
4.81743e-07
5.3752e-07
3.55973e-07
9.70976e-07
2.21672e-07
2.70873e-07
2.76622e-07
2.3966e-07
2.66109e-07
2.45061e-07
2.15265e-07
1.97318e-07
3.43724e-06
2.97494e-07
1.09929e-07
1.17321e-07
1.18468e-07
1.12427e-07
8.69643e-08
8.59718e-08
8.64509e-08
1.037e-07
9.00759e-06
1.58928e-07
6.94658e-08
6.06652e-08
6.87031e-08
4.89018e-08
6.44788e-08
6.91431e-08
6.31294e-08
3.64754e-07
1.96886e-05
8.75178e-08
3.1418e-08
3.72704e-08
2.94416e-08
3.44212e-08
3.01859e-08
1.20803e-06
1.43501e-05
2.45174e-06
3.96656e-05
3.9197e-08
1.21383e-08
1.10659e-08
1.9006e-08
1.08606e-08
1.38039e-08
7.25558e-09
6.32011e-09
2.66084e-07
2.52696e-05
1.78294e-08
4.33281e-09
1.26083e-08
5.13366e-09
4.47656e-09
1.29368e-08
1.64809e-05
2.04194e-05
1.76313e-06
6.06361e-05
1.22037e-08
7.65383e-09
5.48835e-09
4.48029e-09
3.0802e-09
8.8299e-09
1.88546e-09
2.63217e-09
1.99795e-06
4.13497e-05
2.27873e-09
3.86736e-09
5.37324e-09
8.29942e-09
5.03099e-09
8.74434e-09
5.30479e-09
1.02417e-05
7.96129e-06
7.39609e-05
1.36247e-05
1.64959e-06
1.64603e-06
1.53157e-06
1.44519e-06
1.40071e-06
1.40267e-06
1.40629e-06
1.42363e-06
1.54262e-06
3.01841e-06
9.69282e-08
3.8504e-07
4.72925e-07
4.61518e-07
4.39517e-07
4.08258e-07
3.83966e-07
4.28517e-07
3.88574e-07
9.38221e-07
1.04669e-07
2.00614e-07
2.09605e-07
1.79921e-07
2.08613e-07
2.0531e-07
2.03478e-07
4.35132e-07
2.27688e-06
2.94528e-07
9.4542e-08
1.04564e-07
1.09989e-07
1.06887e-07
8.42812e-08
7.55158e-08
6.55733e-08
7.67726e-08
1.27694e-07
1.13322e-07
4.61699e-08
4.13975e-08
4.72062e-08
2.94527e-08
3.74977e-08
4.06612e-08
3.96521e-08
1.59045e-07
8.27892e-06
6.28441e-08
2.48405e-08
2.80619e-08
2.44587e-08
2.67495e-08
2.46974e-08
8.90603e-06
1.1744e-05
2.23011e-06
2.2092e-05
4.05297e-08
1.24295e-08
8.95097e-09
1.75626e-08
1.0966e-08
1.56112e-08
8.80249e-09
5.45118e-09
1.016e-08
8.00822e-06
2.94295e-06
2.09987e-09
1.09575e-08
3.41706e-09
2.82528e-09
1.5756e-05
2.42924e-05
1.8547e-05
5.79107e-07
3.87516e-05
8.34648e-09
7.77473e-09
5.0154e-09
4.30387e-09
3.34938e-09
5.13688e-09
4.16504e-10
1.90897e-10
2.80376e-07
1.68498e-05
2.47558e-09
3.81795e-10
8.06542e-09
3.00663e-09
5.40876e-10
4.64517e-09
1.97458e-06
8.39839e-06
5.09302e-06
4.54983e-05
9.59467e-06
1.906e-06
2.07494e-06
2.1607e-06
2.22121e-06
2.23893e-06
2.17313e-06
2.0306e-06
1.8333e-06
1.57855e-06
4.61732e-06
1.23649e-07
1.66285e-07
2.80661e-07
2.8787e-07
2.72298e-07
2.47076e-07
2.23295e-07
2.23939e-07
2.9504e-07
5.8704e-05
6.52876e-06
9.28534e-06
7.04123e-06
5.75162e-06
4.82866e-06
3.65899e-06
1.43851e-06
1.7974e-06
4.01739e-06
2.60328e-07
5.91254e-08
7.47423e-08
8.73571e-08
8.94424e-08
8.27431e-08
7.86909e-08
7.55114e-08
7.45057e-08
7.78619e-08
1.02415e-07
4.07916e-08
3.95493e-08
4.11719e-08
2.79127e-08
2.80141e-08
2.7786e-08
2.99155e-08
9.71241e-08
3.57752e-06
9.74553e-06
1.80792e-08
1.8412e-08
1.70588e-08
1.68592e-08
7.38203e-06
1.19367e-05
9.6299e-06
1.96003e-06
1.25476e-05
3.51452e-08
1.08254e-08
6.72395e-09
1.37042e-08
9.74086e-09
1.44338e-08
9.87889e-09
5.22536e-09
5.63944e-09
7.09063e-09
5.02401e-05
4.57036e-05
4.11234e-05
3.65297e-05
3.47585e-05
3.23772e-05
2.76497e-05
1.66786e-05
1.21049e-07
2.55839e-05
4.73963e-09
6.64687e-09
3.72677e-09
6.64687e-09
5.16262e-09
4.46889e-09
2.82331e-09
2.06505e-09
3.08144e-09
2.03346e-06
3.53139e-10
4.98381e-09
8.04508e-09
1.83381e-09
7.98593e-10
2.2331e-09
5.10299e-06
6.4321e-06
3.17279e-06
2.73508e-05
7.83196e-05
1.09992e-05
1.15639e-05
1.12276e-05
1.06782e-05
9.7987e-06
8.63221e-06
7.26169e-06
5.76124e-06
4.10752e-06
3.34465e-06
6.92391e-07
2.27979e-07
5.95363e-08
1.80795e-07
2.28205e-07
2.34495e-07
2.35526e-07
2.25339e-07
2.50963e-07
0.000201546
0.000127596
6.96608e-05
3.97695e-05
2.23682e-05
1.25548e-05
6.42168e-06
1.47314e-06
3.86322e-06
7.14697e-06
2.35335e-07
1.88075e-08
3.96909e-08
5.50751e-08
5.60099e-08
5.36178e-08
5.24904e-08
5.0167e-08
4.16431e-08
4.77616e-08
7.96227e-08
2.79048e-08
3.19114e-08
3.44803e-08
2.90597e-08
2.90125e-08
2.73156e-08
1.62267e-07
1.48998e-07
2.10693e-06
3.93643e-05
3.00182e-05
1.96647e-05
1.57406e-05
1.50371e-05
1.43108e-05
1.23566e-05
7.95772e-06
1.7327e-06
7.3807e-06
2.77897e-08
7.47899e-09
4.63771e-09
8.1939e-09
5.71923e-09
1.0247e-08
1.12185e-08
8.34054e-09
6.21416e-09
6.90066e-09
0.000219183
4.35395e-05
7.99793e-05
7.01726e-05
5.46926e-05
4.08016e-05
2.87494e-05
1.52591e-05
5.6561e-07
1.79552e-05
3.60145e-09
4.33442e-09
2.54966e-10
5.98419e-09
5.51926e-09
4.18444e-09
2.83462e-09
2.65464e-09
1.99473e-09
2.161e-09
5.13362e-09
4.8531e-09
9.22501e-09
2.52966e-09
1.23733e-10
1.64978e-10
5.28128e-06
4.40691e-06
1.86366e-06
1.56622e-05
0.000257913
3.06524e-05
3.41702e-05
3.22474e-05
2.77474e-05
2.23321e-05
1.69369e-05
1.19386e-05
7.31856e-06
2.85059e-06
1.2815e-05
1.0117e-06
7.4524e-07
6.45128e-07
5.98772e-07
5.41738e-07
4.22973e-07
2.30993e-07
9.48013e-08
6.14308e-07
0.000341856
0.000241193
0.000117171
6.1055e-05
3.07335e-05
1.49632e-05
6.15181e-06
2.11036e-08
6.73907e-06
1.13024e-05
2.44467e-07
8.61423e-09
1.55414e-08
3.38818e-08
3.02265e-08
2.79132e-08
2.50631e-08
2.66351e-08
2.52292e-08
1.76263e-08
1.8339e-05
1.45482e-08
2.03762e-08
1.99555e-07
1.58654e-06
2.40717e-06
2.45827e-06
1.62365e-06
2.27118e-07
1.84836e-06
3.9813e-05
4.50324e-05
3.52087e-05
2.63184e-05
2.0002e-05
1.51621e-05
1.09336e-05
6.34918e-06
1.50359e-06
4.39592e-06
2.1279e-08
5.12935e-09
3.88535e-09
3.37412e-09
2.76064e-09
3.30596e-09
5.6917e-09
5.70874e-09
4.51587e-09
3.76358e-09
0.000486694
1.64669e-05
8.40653e-05
8.3097e-05
6.35666e-05
4.4472e-05
2.8809e-05
1.43632e-05
8.96918e-07
1.36831e-05
5.06766e-09
3.55538e-09
4.19674e-09
7.66846e-10
2.07745e-09
2.41208e-09
2.80247e-09
1.18513e-09
1.43609e-09
1.62783e-09
5.91235e-09
2.44113e-09
7.3745e-09
2.95236e-09
2.59449e-09
3.64635e-08
2.91698e-06
2.18978e-06
8.96302e-07
7.55436e-06
0.000819816
9.86935e-05
8.98441e-05
6.67005e-05
4.6437e-05
3.08798e-05
1.92707e-05
1.03903e-05
3.03646e-06
3.79917e-06
1.08048e-05
3.14877e-06
2.874e-06
2.55083e-06
2.05511e-06
1.38163e-06
6.1098e-07
2.97648e-07
1.43559e-06
2.79294e-06
0.000489925
0.000364971
0.000159105
7.47874e-05
3.29193e-05
1.30671e-05
3.19138e-06
3.12532e-06
1.05422e-05
1.64348e-05
2.80567e-07
2.7363e-08
4.75258e-11
1.95687e-08
2.0341e-08
2.23371e-08
2.26342e-08
1.94499e-08
1.78341e-08
1.48101e-08
5.89442e-05
3.53492e-05
2.04249e-05
1.31703e-05
8.93105e-06
6.15012e-06
4.02362e-06
2.08798e-06
2.68168e-07
1.63869e-06
2.92209e-05
3.71497e-05
3.07027e-05
2.28626e-05
1.65924e-05
1.17747e-05
7.92308e-06
4.42159e-06
1.15794e-06
2.41e-06
1.51033e-08
3.02581e-09
5.16447e-09
2.39213e-09
8.87148e-10
1.60004e-09
1.4733e-09
2.56639e-09
3.04165e-09
2.32866e-09
0.00083436
0.000119391
6.16506e-05
7.96188e-05
6.31808e-05
4.36724e-05
2.73449e-05
1.33651e-05
1.14917e-06
1.09577e-05
5.49386e-09
4.36805e-09
2.41085e-09
1.10173e-09
6.48079e-11
1.41281e-09
1.15358e-09
1.56835e-09
1.14062e-09
1.38964e-09
2.51309e-09
5.94072e-10
1.7941e-09
2.37629e-11
2.61392e-10
5.10902e-10
8.79227e-10
2.61166e-07
2.42881e-07
2.14691e-06
0.00262947
5.6977e-05
4.52211e-05
2.79161e-05
1.52842e-05
6.88326e-06
1.18442e-06
3.17664e-06
7.22583e-06
1.16043e-05
1.84495e-05
1.23611e-05
9.14469e-06
6.27244e-06
3.82182e-06
1.83253e-06
1.19622e-07
1.54203e-06
3.36944e-06
5.30293e-06
0.000556061
0.000459579
0.000178224
7.47522e-05
2.77412e-05
7.70554e-06
8.88369e-07
5.7962e-06
1.22432e-05
1.86836e-05
2.77303e-07
2.87623e-08
6.83711e-09
8.26197e-09
9.15665e-09
4.80476e-09
1.77831e-09
1.17081e-09
5.85407e-09
1.85028e-08
5.06077e-05
3.42521e-05
1.93546e-05
1.20418e-05
7.72847e-06
4.98053e-06
3.05387e-06
1.52605e-06
2.15575e-07
1.06207e-06
1.65247e-05
1.99874e-05
1.69569e-05
1.26688e-05
9.07681e-06
6.29067e-06
4.11497e-06
2.27724e-06
6.64233e-07
1.01305e-06
8.67678e-09
1.92927e-09
5.50798e-09
5.18398e-09
4.1678e-09
3.22526e-09
1.94399e-09
1.82618e-09
1.75254e-09
1.53646e-09
0.00106782
0.000215565
2.05053e-05
5.76677e-05
4.97302e-05
3.49084e-05
2.17002e-05
1.06342e-05
1.1436e-06
7.91764e-06
5.96078e-09
5.95247e-09
3.69921e-09
1.80743e-09
7.22973e-10
1.80743e-10
6.86824e-10
5.3018e-10
7.71171e-10
6.23849e-10
1.22962e-06
7.90774e-07
3.8659e-10
1.18186e-09
1.00513e-09
4.95188e-07
8.03421e-07
3.78979e-07
2.04219e-07
1.24959e-06
0.0022411
0.000681531
0.00048501
0.000331044
0.000230449
0.000157957
0.000102201
5.85568e-05
1.36972e-05
2.24826e-05
2.87451e-06
7.11721e-06
3.90815e-06
1.44555e-06
9.3107e-08
1.09112e-06
1.86405e-06
2.61941e-06
3.45092e-06
4.08256e-06
0.000288486
0.000372559
0.000124934
4.61863e-05
1.33409e-05
8.37405e-07
3.74319e-06
6.13983e-06
9.83296e-06
1.45696e-05
2.25162e-07
1.83185e-08
5.1341e-11
1.02477e-08
1.80618e-08
2.27954e-08
2.61326e-08
2.86072e-08
3.14207e-08
3.363e-08
2.06754e-05
1.52741e-05
8.37099e-06
5.05016e-06
3.13492e-06
1.95518e-06
1.16602e-06
5.78247e-07
9.09705e-08
3.93534e-07
6.21882e-06
5.82988e-06
4.94174e-06
3.68815e-06
2.6232e-06
1.79403e-06
1.15625e-06
6.40675e-07
2.05975e-07
2.4339e-07
3.95682e-09
8.7622e-10
1.16373e-09
2.46437e-10
4.24419e-10
9.30984e-10
9.03602e-10
6.84547e-10
9.58366e-10
7.70383e-10
0.000714061
0.000178331
8.26128e-06
2.38485e-05
2.35041e-05
1.70144e-05
1.06245e-05
5.24001e-06
6.31211e-07
3.72529e-06
6.6268e-10
1.333e-09
0
6.38496e-10
5.04076e-10
3.24849e-10
6.27294e-10
1.3442e-10
3.47252e-10
4.93454e-10
9.11701e-05
0.000129134
8.53461e-05
5.04832e-05
2.88348e-05
1.62136e-05
8.6511e-06
3.43951e-06
8.92769e-07
5.60376e-06
0.00274173
0.000682065
0.000507506
0.000381056
0.000284896
0.000209811
0.000149805
0.000100853
5.9451e-05
2.5646e-05
6.09724e-06
1.1005e-05
7.70818e-06
5.16742e-06
3.44955e-06
2.3244e-06
1.57932e-06
1.02216e-06
4.83107e-07
2.98312e-07
9.72766e-05
8.38634e-05
1.98692e-05
5.62086e-06
3.1487e-07
1.21081e-06
1.49613e-06
1.58633e-06
2.06888e-06
3.30857e-06
5.49325e-08
1.60654e-08
7.48382e-09
3.83737e-09
6.68198e-11
2.8828e-09
5.91833e-09
7.83701e-09
8.82022e-09
1.01662e-08
1.70707e-06
1.78384e-06
9.36383e-07
5.47213e-07
3.28279e-07
1.97743e-07
1.14728e-07
5.58668e-08
7.78928e-09
4.69812e-08
7.87955e-07
4.49086e-07
3.67371e-07
2.69389e-07
1.86971e-07
1.25659e-07
7.8351e-08
4.28697e-08
1.3574e-08
1.90866e-08
1.29376e-09
8.27293e-10
5.09103e-10
2.54552e-11
8.01838e-10
2.54552e-10
9.16386e-10
3.94555e-10
2.92734e-10
2.67279e-10
5.3055e-05
2.83246e-05
2.52122e-06
2.6424e-06
2.92783e-06
2.16545e-06
1.34479e-06
6.44689e-07
4.21194e-08
5.41584e-07
5.6165e-11
1.04135e-11
8.33078e-11
1.04135e-11
6.24809e-11
3.85299e-10
5.20674e-11
1.35375e-10
3.22818e-10
2.29097e-10
0.000264184
0.000159712
9.45885e-05
5.3884e-05
3.01896e-05
1.66364e-05
8.59222e-06
3.26271e-06
1.09469e-06
5.66607e-06
0.526377
0.41921
0.530426
0.92005
0.686398
0.624083
0.739439
1.116
0.849704
0.79159
0.937955
1.4414
0.616639
0.593181
0.70275
1.09975
0.450392
0.448966
0.533115
0.863129
0.298239
0.294767
0.365638
0.622214
0.198429
0.189433
0.253033
0.454604
0.127993
0.11805
0.16915
0.315078
0.088342
0.0807139
0.121853
0.23051
0.06653
0.06142
0.0991163
0.187599
0.0358741
0.00180245
1.0525e-05
0.0190327
0.0785531
0.00652662
7.87687e-06
0.0409627
0.136638
0.015205
4.55607e-06
0.0704288
0.124981
0.0170211
1.94133e-06
0.0603786
0.11026
0.0169863
1.1805e-06
0.0489094
0.0852826
0.0142283
5.87257e-07
0.0375566
0.0643435
0.0110511
1.74022e-07
0.0304972
0.0463539
0.00832332
6.77266e-08
0.0231602
0.0356369
0.00712572
0.00103847
0.0183934
0.0300154
0.00822254
0.00381123
0.0154623
0.0171349
0.0134671
0.0141441
0.0196994
0.0387384
0.0266768
0.0261864
0.0408234
0.0749553
0.0486934
0.0492622
0.0796774
0.071049
0.0430711
0.0446847
0.0749925
0.0650767
0.0370515
0.0395576
0.0699425
0.0519513
0.0280214
0.0306614
0.0566633
0.0403628
0.0206318
0.02321
0.0451623
0.0298734
0.0145129
0.0166622
0.0336255
0.0234187
0.010429
0.0123659
0.0259323
0.0200131
0.00848078
0.0105411
0.0214729
0.00193561
0.0013955
0.0013439
0.00195615
0.0061009
0.00417788
0.00386619
0.00631765
0.0162387
0.0110097
0.0104779
0.0165955
0.0190422
0.0125537
0.0123938
0.0189682
0.0207074
0.0131649
0.0135987
0.0207241
0.0189346
0.0116218
0.0124387
0.0190285
0.0163995
0.00966037
0.0106784
0.016722
0.0133568
0.0075897
0.00859063
0.013648
0.0111567
0.00582096
0.00689842
0.0112122
0.00990779
0.00506653
0.00646362
0.0100497
0.000619671
0.000574265
0.000603966
0.000821775
0.00227007
0.002106
0.0023676
0.00341057
0.00609385
0.00574276
0.00640329
0.00889184
0.00729164
0.00654683
0.00705777
0.00959934
0.00837578
0.00713152
0.00762954
0.0103449
0.00812853
0.00655379
0.00703576
0.00950878
0.00744423
0.00567506
0.00617225
0.00840465
0.00647147
0.00468372
0.00516532
0.0070388
0.0058176
0.00386352
0.00444842
0.00603338
0.005568
0.00367927
0.00454885
0.00581156
0.00011993
0.000107793
0.000107532
0.000166879
0.00076811
0.000722464
0.000847035
0.00123672
0.00245493
0.0024889
0.00298632
0.00410857
0.00301857
0.003052
0.00354222
0.00471728
0.00358182
0.0035486
0.00403637
0.00531093
0.00361066
0.00344592
0.00386557
0.0050323
0.0034191
0.00312579
0.00348862
0.00451453
0.00314565
0.00273176
0.00304079
0.00389206
0.00304502
0.00243357
0.00278686
0.00346324
0.00301802
0.00237438
0.0028847
0.00335999
1.64635e-05
1.22583e-05
7.58489e-06
2.64692e-05
0.000272949
0.000251568
0.000301057
0.000460169
0.00117357
0.0011982
0.00148057
0.00206863
0.00149152
0.0015702
0.00189536
0.00252691
0.0017977
0.00191253
0.00227485
0.0029757
0.00184073
0.00192984
0.00225867
0.00291329
0.00174578
0.00179298
0.00207601
0.00264386
0.00166528
0.00163912
0.00187056
0.00234789
0.00169055
0.00155129
0.0017846
0.00213441
0.00168822
0.00152771
0.00182458
0.00205148
8.85226e-06
2.97694e-06
2.84611e-06
2.85687e-06
7.76522e-05
6.36506e-05
7.55497e-05
0.000129108
0.000536344
0.000529172
0.000659945
0.000947598
0.000755349
0.000795096
0.000971772
0.00130369
0.000953858
0.00103457
0.00125445
0.00164612
0.00101951
0.00110666
0.00132499
0.0017119
0.000969616
0.00105277
0.00124919
0.00158396
0.00095685
0.00100837
0.00117448
0.00146646
0.000958815
0.000963431
0.00111116
0.00130856
0.000972673
0.000976292
0.00115104
0.00128164
7.64941e-06
2.54959e-06
2.41846e-06
2.45353e-06
1.34704e-05
6.93818e-06
6.58882e-06
2.05696e-05
0.000232879
0.000210066
0.000261866
0.000400894
0.000377079
0.000390952
0.000479363
0.000649067
0.000503066
0.000547685
0.000669647
0.000883134
0.00057683
0.000634328
0.000767002
0.000995071
0.000553119
0.000617875
0.000741812
0.000938206
0.000573023
0.000626104
0.000737337
0.000920164
0.000546416
0.000582344
0.000671322
0.000787634
0.000577482
0.000622196
0.000725955
0.000807866
5.37134e-06
1.94114e-06
1.87222e-06
1.95277e-06
2.01783e-06
4.31268e-07
3.28267e-07
2.71599e-07
8.79344e-05
6.05385e-05
7.36271e-05
0.00013824
0.000181473
0.000182003
0.000222656
0.000305825
0.00025612
0.000276478
0.000339531
0.000451543
0.000321119
0.000353405
0.000429426
0.000561093
0.000306595
0.000348593
0.000421012
0.000530861
0.000342683
0.000381395
0.000451829
0.000565784
0.000312675
0.000345327
0.000397871
0.000467361
0.00034884
0.000392514
0.000454481
0.000506676
3.9175e-06
1.44712e-06
1.38375e-06
1.42039e-06
1.8185e-06
6.76505e-07
6.1575e-07
6.19549e-07
2.25022e-05
1.55929e-07
1.33377e-07
2.19121e-05
8.30522e-05
7.84788e-05
9.51242e-05
0.000133387
0.000125152
0.000132351
0.000163015
0.000219997
0.000176716
0.000192767
0.000234982
0.000310681
0.000162897
0.000187546
0.000227465
0.000285377
0.000204065
0.000228333
0.000271714
0.000342984
0.000176753
0.00019903
0.000229284
0.00026985
0.000211392
0.000243631
0.000281038
0.000313613
1.60601e-06
4.83887e-07
5.46343e-07
6.11657e-07
8.74998e-07
4.23842e-07
4.39018e-07
5.18371e-07
3.37136e-07
1.4954e-07
1.76329e-07
2.22366e-07
3.4828e-05
2.94249e-05
3.46631e-05
4.97731e-05
5.73126e-05
5.83202e-05
7.19891e-05
9.96813e-05
9.60936e-05
0.000103043
0.000125905
0.000169472
8.10249e-05
9.45718e-05
0.000115119
0.000142778
0.000121541
0.000135217
0.000161605
0.00020684
9.53461e-05
0.00010839
0.000124833
0.000146927
0.000126873
0.000147937
0.000170768
0.000190256
6.38503e-06
1.66383e-06
1.40944e-06
1.32332e-06
5.97037e-07
1.48263e-07
1.46644e-07
1.85018e-07
3.27608e-07
1.00721e-07
9.86024e-08