/*--------------------------------*- C++ -*----------------------------------*\
| =========                 |                                                 |
| \\      /  F ield         | foam-extend: Open Source CFD                    |
|  \\    /   O peration     | Version:     4.0                                |
|   \\  /    A nd           | Web:         http://www.foam-extend.org         |
|    \\/     M anipulation  |                                                 |
\*---------------------------------------------------------------------------*/
FoamFile
{
    version     2.0;
    format      ascii;
    class       volScalarField;
    location    "100";
    object      divFlux;
}
// * * * * * * * * * * * * * * * * * * * * * * * * * * * * * * * * * * * * * //

dimensions      [1 -3 -1 0 0 0 0];

internalField   nonuniform List<scalar> 
34480
(
4.73793
2.79109
2.06717
0.846986
0.101272
0.012531
0.434443
26.6474
91.8187
0.0102662
5.0717
2.47249
2.06038
0.97472
0.00629497
0.00635058
0.0062695
12.9304
74.1675
0.00578856
5.77762
3.28395
2.81317
1.49596
0.00281713
0.00299615
0.00308021
3.4239
52.5448
0.00284414
5.67656
3.12761
2.4275
0.85049
0.00133783
0.00145216
0.00152197
0.00146333
32.779
0.00135432
6.09491
3.3123
2.24976
0.309566
0.000662358
0.000739546
0.000748106
0.000756228
17.7662
0.000665074
7.604
4.51353
2.84888
0.439019
0.000347453
0.000391355
0.000385569
0.000420403
7.80083
0.000365525
9.60318
5.84204
3.39488
0.300717
0.000193637
0.000214199
0.000219679
0.000233129
1.8792
0.000226393
12.3735
7.94761
4.56953
0.830338
0.000116161
0.000128268
0.000135526
0.000129915
0.000118717
0.000149268
14.3694
9.18127
4.59529
9.76863e-05
8.42622e-05
8.76446e-05
9.2853e-05
8.19607e-05
8.55187e-05
0.00011131
15.3272
9.79637
4.72154
7.79984e-05
6.74476e-05
6.97814e-05
6.6896e-05
6.00873e-05
8.59948e-05
7.71052e-05
2.29666
0.414839
0.0197356
0.0189467
0.0179723
0.0171413
0.0164611
0.0159977
4.01125
20.6019
0.983401
0.00903354
0.00954098
0.00971985
0.00988616
0.00987585
0.00968847
0.00950259
12.7185
13.5127
1.20749
0.00444761
0.00454048
0.00475058
0.00508854
0.00546104
0.00541806
0.0055201
13.3278
11.3109
1.06836
0.00254499
0.00239442
0.00254756
0.00277099
0.00308545
0.0029321
0.00344517
9.04179
4.1474
1.33166
0.00176885
0.00133159
0.00144754
0.0017432
0.00159387
0.0020328
0.00188671
4.08537
0.00227334
2.36316
0.10532
0.000918057
0.000820923
0.00127073
0.000850645
0.00176675
9.5386e-05
0.27935
0.00242099
3.4915
0.743052
0.000726187
0.000380965
0.000816827
0.000548876
0.00097409
0.00131865
0.00380167
0.00247809
5.42345
2.13049
0.000584728
3.08546e-05
0.000448808
0.000471739
0.000134705
0.000749203
0.00580137
0.00189272
7.03911
2.8663
0.00151256
0.00020903
0.000898746
0.000856467
0.000364957
0.00117334
0.00693965
0.000295532
8.21052
3.7032
0.334974
0.00142581
0.00143966
0.00161502
0.00233561
0.00250639
0.000765338
0.00658521
1.98046
0.577495
0.114176
0.0141089
0.0137251
0.0132442
0.0128672
0.0127559
3.27255
8.24745
1.06038
0.00596108
0.00642327
0.00652893
0.00659414
0.00656445
0.00643096
0.00633458
4.69306
1.96096
0.673455
0.00269914
0.00283812
0.0029005
0.00300867
0.0031702
0.00318098
0.00319011
4.85887
0.00397201
0.178071
0.00133193
0.00135928
0.00137308
0.00142195
0.00156878
0.00151797
0.00174738
3.39712
0.00263562
0.0770242
0.000729495
0.000673714
0.000662326
0.000727625
0.000715889
0.000798381
0.00106983
1.58676
0.00155062
0.640773
0.000424915
0.000330007
0.000326409
0.000397221
0.000297613
0.000632145
0.00043292
0.0242474
0.000903761
1.16441
0.000268932
0.000165555
0.000202097
0.000229491
0.000190238
0.000520254
0.000181277
0.00020814
0.000485179
2.51906
0.232816
7.63671e-05
0.000149124
0.000119619
0.000161989
0.00026856
0.000542972
0.000301843
0.000212973
3.85879
0.994694
4.12886e-05
2.57783e-06
1.75588e-05
3.51591e-05
9.26956e-05
0.000678534
0.000180207
0.000415989
4.95664
1.86203
4.06791e-05
1.91303e-05
6.7121e-05
0.000136579
0.000134325
0.00016157
0.000744436
1.65094e-05
0.64456
0.00922466
0.0119592
0.0124718
0.012253
0.0119044
0.0116182
0.0113804
1.06309
4.74157
0.0121047
0.0063155
0.00648465
0.00636116
0.00625441
0.00611534
0.00589501
0.00565918
0.935707
2.37411
0.00546209
0.00272314
0.00277812
0.00281597
0.00289004
0.00299614
0.00298301
0.00287357
1.39052
1.27959
0.00228552
0.0013277
0.00137711
0.00138732
0.00140774
0.00151229
0.00146528
0.00153018
1.18852
0.00102886
0.000988769
0.000741442
0.000741713
0.000707533
0.000733491
0.000734052
0.000726542
0.000933338
0.826009
0.000488001
0.00324117
0.000475062
0.000401206
0.000371141
0.000407629
0.000323296
0.000498518
0.000549858
0.459882
0.000260152
0.295509
0.000336454
0.000212374
0.000221314
0.000232814
0.000172424
0.000424081
0.000201865
5.51961e-05
0.000137105
1.28391
0.000268534
0.00010516
0.000170477
0.000136917
0.000144662
0.000310821
3.91738e-05
4.72496e-05
9.00332e-05
1.98422
0.000259218
7.12839e-05
9.22355e-05
8.77441e-05
0.000116912
0.000122255
0.000274146
9.45358e-05
0.000117224
2.74092
0.581246
1.80924e-05
5.98108e-05
3.86671e-05
4.57389e-06
2.93571e-05
4.31625e-05
0.000479068
0.000401063
0.0683742
0.00854406
0.0109665
0.011563
0.0114709
0.0112268
0.0110849
0.0110768
0.322347
2.3802
0.0120751
0.00511837
0.00571495
0.00581719
0.00579808
0.00569452
0.00549751
0.0052537
0.0524154
1.73066
0.00512813
0.00252197
0.00256079
0.00259893
0.00267991
0.00277635
0.00279166
0.00273606
0.263764
1.52817
0.00261266
0.00130875
0.00131922
0.0013301
0.00134692
0.00142872
0.00141458
0.00145844
0.127012
0.798144
0.00120904
0.000692176
0.000731451
0.000710954
0.000721329
0.000738784
0.00070182
0.000838075
0.0430846
0.0700024
0.000495671
0.00044859
0.000422892
0.000391869
0.000412596
0.000355984
0.000412295
0.000516971
0.114124
0.000536379
0.000150592
0.000341953
0.000245825
0.000234945
0.000243473
0.000180923
0.000315208
0.000287005
0.000214643
0.000353684
0.532947
0.000298668
0.000132099
0.000178771
0.00015258
0.00013061
0.000253699
0.00013661
9.5955e-05
0.000235939
0.874947
0.00032671
8.79429e-05
0.000130557
0.00011557
0.000130345
0.000181868
4.62489e-05
9.76818e-05
0.000361898
1.43251
0.000230097
5.6004e-05
9.14232e-05
8.63292e-05
6.0388e-05
4.68119e-05
8.63155e-06
0.000382797
0.000256956
0.064021
0.00699903
0.00871619
0.00925866
0.00939824
0.00941328
0.00951434
0.00993682
0.0109777
0.554506
0.0140383
0.00481702
0.00515724
0.00518646
0.00517076
0.00510585
0.00495306
0.00467989
0.00429285
0.42079
0.00542326
0.00261141
0.00257237
0.00252054
0.00253602
0.00257688
0.00255546
0.00245219
0.00232864
0.717758
0.00235213
0.0012311
0.00123585
0.00124877
0.00126632
0.00132456
0.00131574
0.00128206
0.0012056
0.673829
0.00132194
0.000646153
0.000679094
0.00067391
0.000679421
0.000705966
0.00066997
0.000708275
0.000655094
0.490365
0.00058233
0.000388159
0.000396775
0.000378261
0.00039293
0.000367751
0.000365535
0.000428879
0.000360249
0.392477
0.000171308
0.000286182
0.000243784
0.000227065
0.000237632
0.000193946
0.000245218
0.000262691
0.000205289
0.0762341
0.145194
0.000270726
0.000134867
0.000166695
0.000154817
0.000126178
0.000193002
0.000169198
0.000119516
0.084258
0.247477
0.000334077
8.87663e-05
0.000131962
0.000120455
0.000121763
0.000173928
6.12311e-05
5.93571e-05
0.000175157
0.640436
0.000229157
7.23575e-05
9.12818e-05
9.71604e-05
8.1506e-05
8.7846e-05
5.11206e-06
0.000227999
0.056557
0.0610987
0.00892497
0.00951062
0.00911861
0.00865015
0.00818927
0.00769003
0.00709354
0.00645801
0.00618473
0.0137908
0.00478515
0.00501649
0.00492998
0.00483029
0.00474659
0.00466382
0.00457114
0.00448242
0.0038598
0.00392566
0.00199782
0.00217973
0.00224023
0.0023014
0.00236045
0.00235647
0.00225601
0.00210171
0.108937
0.00235371
0.00122913
0.00120197
0.00119167
0.00119721
0.00123536
0.00124326
0.00120814
0.00113817
0.259408
0.00129073
0.000645254
0.000655946
0.000650528
0.000647809
0.000669477
0.00065253
0.000656748
0.000622524
0.325667
0.000685859
0.000375069
0.000385711
0.000371479
0.000376719
0.000369221
0.000352286
0.000383502
0.000354326
0.433972
0.000278318
0.00024584
0.000245812
0.000225433
0.000230042
0.00020539
0.000215079
0.000236614
0.000211873
0.313255
5.24677e-05
0.000241657
0.000142757
0.000157453
0.000152593
0.000128855
0.0001554
0.000164092
0.000140481
0.385685
0.000231822
0.000321157
9.86214e-05
0.000124768
0.000118572
0.000112553
0.000148415
0.000112133
8.05596e-05
0.193091
0.188538
0.000203808
8.94159e-05
8.52996e-05
9.45464e-05
8.33278e-05
0.000104544
2.76696e-05
0.000178333
0.314596
0.0339314
0.00685801
0.00804105
0.0082219
0.00819375
0.00816868
0.00818212
0.00813775
0.0078118
0.00694272
0.0104682
0.00361274
0.0039941
0.00404529
0.00401729
0.00394764
0.00382814
0.00368947
0.00365263
0.00351748
0.00561092
0.00217597
0.0021444
0.00209234
0.0020957
0.00213344
0.00214224
0.00207323
0.00193194
0.00153124
0.00208164
0.00112989
0.00113157
0.00111869
0.00111414
0.00113078
0.00113746
0.00110669
0.00103857
0.000885779
0.00123721
0.000642805
0.000636604
0.000625116
0.000614617
0.000623138
0.000616059
0.000608483
0.000577771
0.0918333
0.00071648
0.000373046
0.000374958
0.000361053
0.000359106
0.000357385
0.000341608
0.000350441
0.000333858
0.251166
0.000391934
0.000209786
0.000238774
0.00022447
0.000222381
0.000210012
0.000204222
0.0002153
0.000203693
0.239816
0.000124333
0.000210843
0.000150795
0.000155866
0.000152011
0.000135345
0.000139761
0.000150717
0.000141385
0.368876
0.000219586
0.000289627
0.000117242
0.000123121
0.000119098
0.000110865
0.000127764
0.000127361
9.3338e-05
0.271989
4.97089e-05
0.000161718
0.00010958
8.81589e-05
9.40553e-05
8.3343e-05
0.000108825
4.93546e-05
0.000141259
0.336905
0.0339985
0.00453956
0.00536382
0.00557879
0.00564091
0.00572598
0.00596943
0.00650743
0.00747348
0.00897016
0.0127255
0.00382093
0.0039373
0.00382982
0.00372123
0.00360968
0.00342499
0.0030975
0.00263485
0.00179755
0.00390972
0.00172622
0.00183952
0.00184164
0.00184931
0.00187809
0.00189329
0.00185947
0.00179877
0.00156079
0.00190635
0.000963264
0.0009907
0.000995513
0.00100053
0.00101534
0.00102592
0.00100333
0.000933774
0.000743494
0.00109218
0.000582706
0.000583225
0.00057583
0.00056617
0.000567414
0.000565743
0.000557714
0.000528569
0.000447924
0.000651376
0.00035185
0.000351693
0.000337003
0.000331335
0.000331363
0.000322328
0.000321962
0.000307624
0.0891333
0.000479453
0.000184952
0.000217278
0.000212655
0.000207186
0.000201872
0.000195004
0.000198205
0.00019026
0.10593
0.000199699
0.000175135
0.000141087
0.000146405
0.000143994
0.000134711
0.000131934
0.000137958
0.000134564
0.241863
0.000170172
0.000230446
0.000121222
0.000117024
0.00011452
0.000108892
0.000113508
0.000125332
9.97876e-05
0.191639
4.63338e-05
9.89152e-05
0.000108953
8.73331e-05
8.91395e-05
7.91993e-05
0.000102746
6.33215e-05
0.000112736
0.244681
0.0516459
0.00639769
0.0066769
0.00629353
0.0058276
0.00531313
0.00472804
0.00406561
0.00337865
0.00282179
0.00877739
0.00278102
0.0030871
0.00314525
0.00318193
0.00324534
0.00331868
0.0033414
0.00329219
0.00277915
0.00405558
0.00149317
0.00156341
0.00156207
0.00156861
0.00158718
0.00158481
0.00151183
0.00139079
0.00111147
0.00223996
0.000977823
0.000943417
0.00091123
0.000897622
0.000900382
0.000909309
0.000894297
0.000850511
0.000699045
0.001005
0.000525133
0.00052661
0.000521879
0.000514116
0.000511183
0.000509834
0.000499661
0.000468117
0.000380745
0.000565419
0.000318894
0.000328264
0.000313712
0.000304318
0.000302454
0.000297306
0.000292402
0.000276688
0.00623946
0.000488107
0.000176342
0.00019446
0.000197736
0.000191388
0.000187915
0.000183041
0.000181329
0.000172135
0.014219
0.000247002
0.000156987
0.000126719
0.000132949
0.000132231
0.000127686
0.000124378
0.000125433
0.000123047
0.118999
7.20275e-05
0.000177187
0.000115329
0.000108669
0.000106326
0.000103584
0.000102478
0.000114367
9.88217e-05
0.0845187
0.000184102
5.48303e-05
9.29684e-05
8.28946e-05
8.22629e-05
7.29356e-05
9.07115e-05
6.82106e-05
9.40763e-05
0.132885
0.0148876
0.00280112
0.00341418
0.00364741
0.00388734
0.00417113
0.00445899
0.00467214
0.00471307
0.00445517
0.00924111
0.00248637
0.00256776
0.00246427
0.00235659
0.002275
0.00221855
0.00217925
0.00220226
0.0021217
0.0041126
0.00145514
0.00148155
0.0014426
0.00142401
0.00143319
0.00144351
0.00139037
0.00126199
0.000891375
0.00126269
0.000709287
0.000761804
0.000767936
0.000768767
0.000772083
0.00077652
0.000756852
0.000718264
0.000608913
0.00102378
0.000490186
0.000473235
0.000464538
0.000457553
0.000452913
0.000450402
0.000441058
0.000419357
0.000346678
0.000523068
0.000268909
0.000294898
0.000287276
0.000276869
0.000272098
0.000267331
0.000260525
0.000246884
0.000211419
0.000439686
0.000177746
0.000172351
0.000180079
0.000176061
0.000171939
0.000167497
0.00016362
0.000156514
0.000138919
0.000241432
0.000159041
0.000120275
0.000121898
0.000121981
0.000118939
0.000115671
0.000113648
0.000112043
0.0407595
1.74376e-05
0.00014545
0.000108139
0.0001018
9.94267e-05
9.75461e-05
9.38308e-05
0.000101429
9.45795e-05
0.0121724
0.000287797
5.24791e-05
7.69318e-05
7.79941e-05
7.88258e-05
7.05957e-05
8.08112e-05
6.91639e-05
8.15396e-05
0.0502848
0.0440608
0.00725615
0.00724826
0.00643841
0.00560972
0.0049467
0.00452442
0.00437199
0.00448929
0.00481637
0.00775273
0.0021995
0.00241581
0.00239749
0.00231466
0.00220071
0.00203812
0.00178593
0.00144401
0.000895389
0.00250716
0.00091491
0.00103559
0.00107059
0.00109172
0.00112447
0.00116803
0.00119797
0.0012004
0.00107033
0.00196731
0.000739548
0.000721793
0.000687573
0.000668429
0.000662012
0.000659402
0.000640102
0.000577361
0.000407919
0.000747979
0.000419972
0.000406269
0.000399539
0.000393881
0.000388987
0.000384084
0.000376918
0.000361152
0.000317065
0.000553643
0.000217851
0.000250093
0.000252595
0.000244857
0.000238392
0.000232755
0.000227311
0.000216291
0.000183401
0.000353217
0.000186825
0.000153948
0.000157627
0.000157269
0.00015324
0.000148245
0.000144098
0.000137827
0.000125152
0.000162302
0.000151721
0.000115118
0.000108787
0.0001093
0.000107237
0.000103908
0.000101074
9.81504e-05
0.00609942
5.19017e-05
0.000124224
9.84371e-05
9.08952e-05
8.99637e-05
8.90997e-05
8.48405e-05
8.84318e-05
8.61101e-05
9.2735e-05
0.000271267
7.41932e-05
6.6502e-05
6.56481e-05
6.93975e-05
6.47698e-05
6.92768e-05
6.42751e-05
6.43607e-05
0.00843153
0.0515391
0.00492031
0.00351853
0.0016866
0.000259516
0.00070129
0.00126117
0.00152869
0.00163219
0.00173944
0.00641424
0.00146796
0.00163804
0.00172445
0.00178955
0.00186355
0.00194582
0.0019979
0.00196092
0.00160996
0.00351282
0.00101137
0.00101071
0.000971341
0.000926565
0.000891333
0.00085686
0.00080621
0.000706285
0.000501929
0.000921102
0.000449544
0.000537359
0.000549168
0.000545244
0.000545861
0.000551684
0.000562098
0.000554618
0.000483623
0.000717755
0.00039769
0.000359953
0.000343277
0.000333266
0.000326044
0.000318987
0.000310189
0.00028325
0.000207588
0.000578726
0.000181779
0.000203931
0.000212886
0.000210826
0.000204303
0.000197561
0.00019271
0.000184513
0.00015961
0.00019996
0.00018332
0.000138738
0.000131376
0.000133811
0.000132082
0.000127892
0.000124246
0.000117444
0.00010001
9.31496e-05
0.000121802
0.000107655
9.40166e-05
9.33748e-05
9.24239e-05
9.00982e-05
8.83086e-05
8.55392e-05
0.000437461
5.10782e-05
0.000102191
9.14746e-05
7.87872e-05
7.72069e-05
7.7124e-05
7.42758e-05
7.59325e-05
7.42252e-05
7.55723e-05
0.000147226
8.57111e-05
7.06505e-05
5.73335e-05
5.76873e-05
5.55992e-05
5.80357e-05
5.92058e-05
6.61333e-05
7.76576e-05
0.170815
0.00939328
0.00757025
0.00503993
0.00334486
0.0024575
0.00208474
0.00193817
0.00178216
0.00141435
0.00640411
0.000846175
0.000979026
0.00104589
0.00107368
0.00108263
0.00109856
0.00113745
0.00120968
0.00120992
0.00181954
0.000582056
0.000632421
0.00070369
0.000743737
0.000764647
0.000777971
0.000768328
0.000716509
0.000504419
0.0016201
0.000379863
0.000448347
0.000454242
0.000439229
0.000424801
0.00041446
0.00039828
0.00037023
0.000278079
0.000286129
0.00030714
0.000287417
0.000280144
0.000274599
0.000268495
0.000266095
0.000263461
0.000259392
0.000216
0.000579272
0.000166183
0.00016102
0.00016451
0.00016932
0.000168009
0.000164852
0.000157749
0.00014796
0.000115208
7.70326e-05
0.00016958
0.000138369
0.000113084
0.000109353
0.000108942
0.000108542
0.000105371
0.000101608
8.57107e-05
0.000111249
7.4154e-05
9.84888e-05
8.39135e-05
7.86517e-05
7.75107e-05
7.76856e-05
7.57581e-05
7.3978e-05
6.63002e-05
6.23763e-05
5.9753e-05
8.25426e-05
7.06826e-05
6.56055e-05
6.51911e-05
6.50718e-05
6.50837e-05
6.36399e-05
5.59994e-05
3.849e-05
4.79261e-05
6.97801e-05
5.78834e-05
5.21189e-05
4.94154e-05
5.10946e-05
4.97673e-05
5.43555e-05
0.00011298
0.117803
0.00613149
0.00796812
0.00743267
0.00587746
0.00431129
0.00317593
0.00255806
0.00239672
0.00255567
0.0042401
0.00173821
0.00127838
0.00106547
0.000967185
0.000889136
0.00080358
0.00068091
0.000514673
0.000223798
0.00217985
0.000836983
0.000534191
0.000502791
0.000533324
0.000553903
0.00057238
0.000583627
0.000593316
0.000502149
0.00136376
0.000159523
0.00027171
0.000329614
0.000345347
0.000342759
0.000338063
0.000325419
0.000301094
0.000207264
0.000259922
0.000259528
0.000225599
0.000215316
0.000213415
0.000208391
0.000202185
0.000192897
0.000182832
0.000149937
0.000475657
0.000188094
0.000161232
0.000138508
0.000133808
0.000132662
0.000131254
0.00012729
0.000121778
0.00010181
7.20204e-05
8.2081e-05
0.000121521
0.000104677
9.31296e-05
8.80181e-05
8.58786e-05
8.2782e-05
7.87165e-05
6.85012e-05
0.000224488
1.3801e-05
7.14486e-05
7.43954e-05
6.8717e-05
6.41124e-05
6.24106e-05
6.03804e-05
5.76282e-05
4.91747e-05
0.000187843
1.58647e-05
6.11629e-05
6.39908e-05
5.87831e-05
5.47759e-05
5.36814e-05
5.39302e-05
5.47288e-05
6.41604e-05
0.000106843
1.44097e-05
3.42122e-05
4.64924e-05
4.58091e-05
4.15701e-05
4.06654e-05
3.78712e-05
2.11817e-05
6.13728e-05
0.182594
0.0189541
0.0113014
0.0024791
0.00200438
0.00342059
0.00328887
0.00254969
0.00167367
0.000863205
0.00205317
0.00294461
0.00193644
0.00140991
0.00116471
0.00101843
0.000932476
0.000878309
0.000813302
0.00062082
0.000829845
0.00145697
0.000587376
0.000326869
0.000323763
0.000353276
0.000369098
0.000366775
0.000332142
0.000227432
0.00201787
0.000175077
0.000162239
0.000200311
0.00023216
0.000246135
0.000249107
0.000252895
0.000250987
0.00022218
2.11978e-05
0.000202233
0.000174442
0.000159748
0.000157305
0.00015723
0.000152756
0.000147564
0.000132293
9.4402e-05
7.79204e-05
9.75293e-05
0.00012876
0.00011727
0.000105963
0.000101164
9.69742e-05
9.51619e-05
8.95025e-05
7.5053e-05
0.000160388
3.01264e-05
5.26093e-05
7.45749e-05
7.39474e-05
7.01398e-05
6.61217e-05
6.43909e-05
5.97008e-05
4.77922e-05
0.000389062
4.19066e-06
2.72329e-05
4.58125e-05
5.16047e-05
5.08799e-05
4.85658e-05
4.79455e-05
4.65047e-05
4.37705e-05
0.000277745
7.40355e-06
2.27177e-05
3.76066e-05
4.35392e-05
4.32577e-05
4.10895e-05
4.0388e-05
3.86625e-05
2.58155e-05
0.000341001
2.38838e-05
1.25728e-05
2.16338e-05
3.02273e-05
3.2721e-05
3.29656e-05
3.95664e-05
6.51268e-05
0.000160615
0.580053
0.0665188
0.0549447
0.0332588
0.0172504
0.00717816
0.00127331
0.00206228
0.00396014
0.00514957
0.0134679
0.00125028
0.000850114
0.000710588
0.000713806
0.000649626
0.000525071
0.000380626
0.000226164
4.15488e-05
0.0085077
0.00288569
0.00120712
0.000417375
0.00019923
0.000172291
0.000192668
0.000222536
0.000240695
0.000202885
0.00171687
0.000449353
0.000207037
0.000128721
0.000127318
0.000141791
0.000150134
0.000151191
0.000137475
8.20498e-05
5.21498e-05
0.000140831
0.000125558
0.000109908
0.000103639
0.000103058
0.000103175
0.000105022
0.00010729
9.0414e-05
0.000224826
1.06027e-05
6.20715e-05
7.7607e-05
7.75096e-05
7.37893e-05
6.97179e-05
6.61066e-05
6.21392e-05
4.46391e-05
0.000631331
3.36159e-05
2.76122e-05
4.03611e-05
4.90179e-05
5.02014e-05
4.86609e-05
4.67961e-05
4.65447e-05
3.97643e-05
0.0248156
0.0265045
0.0215718
0.0206859
0.0199284
0.0198641
0.0225795
0.0201942
0.0336129
0.0252781
0.00018093
9.553e-05
4.64447e-05
2.9677e-05
3.05257e-05
3.14754e-05
3.13659e-05
2.96871e-05
2.97317e-05
3.66684e-05
0.00010285
9.24514e-05
4.82526e-05
2.43247e-05
2.12767e-05
2.19067e-05
1.99167e-05
1.19133e-05
9.12164e-06
4.83532e-05
2.31864
0.0802861
0.0756833
0.0583175
0.0426433
0.0303969
0.0211731
0.0142063
0.00872598
0.00406147
0.057429
0.00526511
0.00337184
0.00177389
0.000437074
0.000454864
0.000993847
0.00134066
0.00162741
0.00182367
0.0244893
0.00417912
0.00228904
0.00109333
0.000533746
0.00027339
0.000139928
5.21838e-05
1.51018e-05
5.43866e-05
0.000346983
0.000855578
0.000464254
0.000250181
0.000160563
0.000127186
0.000119647
0.0001209
0.000126306
0.000107453
3.93431e-05
0.000116139
0.000103292
8.77024e-05
7.76705e-05
6.96974e-05
6.43883e-05
5.77785e-05
5.11602e-05
3.27726e-05
0.000365814
1.90083e-05
2.92519e-05
3.75632e-05
4.45387e-05
4.57906e-05
4.57636e-05
4.40931e-05
4.29937e-05
3.60722e-05
0.000125664
8.81209e-05
5.23867e-05
3.08879e-05
2.96293e-05
3.00924e-05
3.03329e-05
2.86574e-05
2.621e-05
1.92616e-05
0.0732404
0.0771561
0.0749183
0.0748664
0.0746585
0.0742995
0.0751202
0.0711538
0.0842214
0.0682498
0.000330079
6.91869e-06
3.54398e-05
2.33076e-05
2.02867e-05
2.01369e-05
2.06454e-05
2.14211e-05
2.15622e-05
1.9562e-05
0.000270781
1.72083e-06
3.57502e-05
2.55595e-05
1.82085e-05
1.62622e-05
1.84228e-05
2.29378e-05
2.75996e-05
1.371e-05
3.05451
0.023592
0.0269089
0.0218539
0.0166615
0.0123534
0.00895569
0.0063146
0.0042513
0.00247923
0.123403
0.0155402
0.0127929
0.00990834
0.00719714
0.00487622
0.00293034
0.00120861
0.000538118
0.00260996
0.0398901
0.00187971
0.00104536
0.000533025
0.000253109
7.89451e-05
5.70913e-05
0.00019848
0.000365537
0.000426281
0.00307214
0.000592629
0.000328904
0.000191084
0.000127915
0.000100305
9.09975e-05
9.07134e-05
8.8591e-05
7.85299e-05
8.33052e-06
7.87233e-05
5.7004e-05
4.47354e-05
3.97374e-05
3.66991e-05
3.47731e-05
3.48318e-05
3.16105e-05
2.44051e-05
0.000316581
5.09531e-05
4.07955e-05
2.842e-05
2.51997e-05
2.41392e-05
2.28019e-05
2.23858e-05
1.88962e-05
1.23684e-05
0.000135204
8.92113e-06
3.02001e-05
2.36442e-05
1.92645e-05
1.76838e-05
1.66402e-05
1.7135e-05
1.59118e-05
1.36582e-05
0.0726997
0.0746186
0.0743214
0.0747424
0.0751233
0.0752888
0.0757621
0.0738884
0.0835817
0.0656683
0.000293077
3.40171e-05
1.39772e-05
1.4921e-05
1.22389e-05
1.11471e-05
9.92664e-06
9.66926e-06
7.94336e-06
5.24509e-08
0.0573372
0.0585814
0.0574853
0.0581714
0.0584629
0.0586461
0.0593791
0.0577759
0.0640868
0.0551026
1.4378
0.322244
0.33368
0.340291
0.34541
0.349759
0.353432
0.358544
0.33672
0.383706
0.00165624
0.0103218
0.00707719
0.00450559
0.00262651
0.00120839
3.44208e-05
0.00108406
0.00231149
0.00343888
0.0202953
0.0103594
0.0135134
0.0139659
0.0150248
0.0170824
0.0198134
0.015761
0.000489
0.0383852
0.000267254
0.000192518
9.94605e-05
4.85177e-05
2.10686e-05
5.37156e-06
5.33074e-06
1.14635e-05
1.71618e-05
2.71428e-05
0.000141245
4.21068e-05
3.01956e-05
2.20631e-05
1.78429e-05
1.5889e-05
1.39257e-05
1.31612e-05
1.28037e-05
7.45189e-06
6.23888e-05
6.62829e-06
8.95803e-06
1.01544e-05
9.51944e-06
9.37181e-06
8.84842e-06
8.47469e-06
9.37903e-06
6.10388e-06
0.000220927
3.01474e-05
1.06632e-07
5.66176e-06
6.325e-06
6.41203e-06
6.07614e-06
5.2938e-06
5.77825e-06
2.86096e-06
0.0307039
0.0286911
0.0282639
0.0282707
0.0284907
0.0288999
0.0297734
0.0308879
0.036528
0.0429351
0.000280248
2.16782e-05
3.58505e-07
4.33146e-06
4.70291e-06
4.71404e-06
5.06819e-06
4.20522e-06
5.7802e-06
1.06334e-05
0.250538
0.250563
0.250013
0.25039
0.250895
0.251657
0.253021
0.254642
0.260326
0.250851
1106.57
565.419
840.712
1530.1
907.282
453.222
814.644
1456.1
728.177
348.778
713.854
1302.07
560.149
255.79
573.49
1140.14
391.582
170.619
414.246
889.1
238.577
99.1407
261.93
600.494
113.972
45.4646
130.042
312.516
23.7748
9.14126
26.1144
58.9774
30.4991
12.1623
43.0269
121.451
52.0074
22.9147
79.0257
213.524
101.199
0.0172831
0.0186505
0.021535
125.9
6.53831
0.0119784
0.0145067
145.136
8.94194
0.00687328
0.00905663
142.925
8.49904
0.00156332
0.00320743
124.321
5.64825
7.7228e-05
0.000991118
93.8287
2.41303
0.000478512
0.000371533
57.8991
0.000334798
0.000569411
9.76082e-05
24.0453
0.000265223
0.000248469
0.000862146
2.08086
0.000775752
0.0014694
0.00147539
17.3734
0.00216783
0.00534069
0.00941376
63.7539
37.1331
29.5386
35.3998
54.5375
30.7196
21.5711
28.2437
67.7741
36.3081
24.8135
34.046
73.4113
36.6693
26.069
37.3963
71.4827
33.6663
26.6741
38.9259
61.3409
27.4353
24.6369
36.1018
44.9881
19.114
19.3693
28.3159
26.7812
10.8778
12.1563
17.6932
10.6304
3.95216
4.89116
7.06575
0.694099
0.655387
0.350135
0.361144
10.4057
4.71547
1.72811
1.41006
11.2582
5.64981
3.21812
2.56334
16.8636
8.67878
4.74173
4.81153
21.7585
10.7212
5.50467
6.54808
24.7434
11.284
5.66563
7.78408
24.8212
10.3333
5.45709
8.37494
21.3451
7.91853
4.58665
7.57407
15.7795
5.20408
3.55052
5.99967
9.53049
2.48777
2.18116
3.81264
4.93981
0.98308
1.69614
2.69528
4.18848
2.48173
1.31807
0.896707
3.90522
1.94241
1.29456
0.922643
5.60088
3.21284
2.26936
1.96895
7.44208
4.48632
3.11651
2.95172
9.25457
5.55662
3.77463
3.91811
10.5521
6.05419
4.05766
4.61797
10.4445
5.50139
3.65721
4.48885
9.32506
4.45932
3.11689
4.08101
7.28553
2.89809
2.30997
3.25508
5.80149
2.12522
2.81018
3.51327
0.867836
0.358995
0.0126618
0.013004
0.890177
0.126216
0.00277234
0.00326126
1.61273
0.663213
0.33525
0.0264526
2.41227
1.30375
0.858884
0.581664
3.26825
2.0068
1.44313
1.29021
4.17915
2.68245
1.99588
2.0544
4.64043
2.90466
2.14803
2.40047
4.8328
2.85182
2.14669
2.60591
4.43861
2.23742
1.79862
2.39875
4.14657
1.9034
2.38579
2.84961
0.0277147
0.00946335
0.00893939
0.00973077
0.0677211
0.00178647
0.0016782
0.00189822
0.35078
0.00165068
0.00164944
0.00197965
0.72853
0.242992
0.0726336
0.000985896
1.15116
0.634233
0.43878
0.298427
1.69613
1.1228
0.896124
0.857498
2.0814
1.45517
1.19376
1.25133
2.47643
1.71984
1.43477
1.63999
2.56232
1.58347
1.33389
1.66534
2.61423
1.51793
1.79419
2.0886
0.0129318
0.00372052
0.00363898
0.00385906
0.00805425
0.00280053
0.00273808
0.00313692
0.00301745
0.000923099
0.000887187
0.00110369
0.102601
0.000819467
0.00078807
0.000998069
0.300971
0.0804612
0.00644671
0.000561567
0.609074
0.367756
0.28986
0.249758
0.85589
0.612848
0.527364
0.533262
1.19067
0.895663
0.79431
0.890927
1.35829
0.946389
0.805032
0.963833
1.4798
1.02539
1.16696
1.33788
0.0286933
0.0085553
0.00801176
0.00847743
0.00391082
0.00112559
0.00112201
0.00133938
0.00311098
0.000981189
0.000869585
0.000889467
0.00153603
0.000607528
0.000566032
0.000611316
0.0095665
0.00045115
0.000408193
0.000415404
0.160792
0.0631756
0.038537
0.016718
0.289063
0.199736
0.176578
0.174337
0.515874
0.406273
0.377518
0.428446
0.63391
0.48461
0.406614
0.470954
0.767
0.604854
0.670441
0.760751
0.0136068
0.00360642
0.00329426
0.00357203
0.00415157
0.000995228
0.000922921
0.000995607
0.00251607
0.000987928
0.000999361
0.00115773
0.00133678
0.000424704
0.000359269
0.0003159
0.000794154
0.000371978
0.000364084
0.000382449
0.0039721
0.000258499
0.000245638
0.000249422
0.0509179
0.0252265
0.0227006
0.0223415
0.179684
0.145992
0.143204
0.17228
0.234422
0.196985
0.157149
0.175271
0.351575
0.302785
0.329564
0.37238
0.00747535
0.00247275
0.00246821
0.00270241
0.00478921
0.00150663
0.00151805
0.00179131
0.00142198
0.000264584
0.000232193
0.000272132
0.00127246
0.000571569
0.000599143
0.00075355
0.000649658
0.000216211
0.000195038
0.000251665
0.000439901
0.000211385
0.00020266
0.000269748
0.000298673
0.000151296
0.000137515
0.000183927
0.0360075
0.0307352
0.034522
0.0501878
0.0487009
0.0495038
0.0310734
0.029431
0.130606
0.11909
0.127967
0.144702
0.0146771
0.00349168
0.00316747
0.00330317
0.00165208
0.000366982
0.000365546
0.00044349
0.00195656
0.000626611
0.000623592
0.000750426
0.00069729
0.000144611
0.000114332
0.000136866
0.000644994
0.000289665
0.000278295
0.000327358
0.000355773
0.000139225
0.000117422
0.000131363
0.000264965
0.000130442
0.00011289
0.000120329
0.000204249
0.00011486
0.000105489
0.00474492
0.000267191
0.000150505
0.000110961
8.1193e-05
0.0305404
0.0286145
0.03039
0.0344243
0.00900798
0.00241765
0.00232434
0.00266012
0.00212201
0.000472879
0.000425814
0.000440213
0.00109388
0.000309833
0.000304635
0.000353787
0.000847228
0.000281264
0.000260927
0.000270473
0.00038155
0.000120966
0.000106163
9.59092e-05
0.000317384
0.000148125
0.000140784
0.000129121
0.000200129
0.000100462
0.000100046
9.36618e-05
0.000162403
7.54359e-05
6.75065e-05
5.0112e-05
0.000213472
0.000213627
0.000243626
0.000250574
0.000124537
0.000207798
0.000262395
0.000237586
5.64071e-05
8.52605e-05
1.36491e-05
0.000144323
0.00242137
0.000753296
0.000810771
0.00102028
0.000721215
0.000124782
9.15589e-05
6.52905e-05
0.000559407
0.00020398
0.000220611
0.000282017
0.000367826
0.000128272
0.000127032
0.000149047
0.000211835
8.31518e-05
8.67876e-05
0.00011271
0.000159913
6.3943e-05
6.3458e-05
8.24044e-05
0.000145297
9.18295e-05
9.67916e-05
0.000114045
9.26412e-05
6.81997e-05
8.49847e-05
6.00619e-05
0.000679108
0.000739225
0.000709607
0.000555312
0.00546303
0.0014952
0.00147293
0.00168857
0.000646969
3.8889e-05
5.42535e-06
3.2023e-05
0.000845461
0.000276468
0.000312219
0.000423626
0.000312769
4.47186e-05
2.35286e-05
1.25385e-05
0.000284569
0.000107029
0.000109559
0.000143391
0.000179125
6.01558e-05
5.37132e-05
6.95141e-05
0.000139155
6.34708e-05
5.84863e-05
7.21063e-05
9.12531e-05
2.07591e-05
1.34045e-05
2.72994e-05
0.000250632
0.000249809
0.000228604
0.000204957
0.000410771
0.000398896
0.00032154
0.000157569
0.00374474
0.000136527
0.000188899
0.000322238
0.000791864
0.000224724
0.000186711
0.000173361
0.000427746
4.95044e-05
2.38721e-05
2.28045e-06
0.000376549
0.000137119
0.000146393
0.000185753
0.000155713
3.05332e-05
1.89238e-05
9.24851e-06
0.000140611
5.60484e-05
5.31024e-05
5.47152e-05
8.4076e-05
2.68109e-05
2.31625e-05
1.97974e-05
9.65044e-05
5.8552e-05
5.26221e-05
4.64249e-05
2.73864e-05
5.87125e-05
3.37679e-05
3.60352e-06
0.000551202
0.000351945
0.000273394
0.000130615
0.0293541
0.00644933
0.00622899
0.00717386
0.0012742
0.000255555
0.000383936
0.000606374
0.000446619
0.000121544
0.000144696
0.00020082
0.000115193
1.5196e-05
6.33831e-06
4.4243e-06
0.00014535
5.77978e-05
6.15565e-05
7.33283e-05
6.85947e-05
1.95071e-05
1.84259e-05
1.81814e-05
7.13902e-05
3.33634e-05
3.3193e-05
3.53723e-05
4.24367e-05
1.78914e-05
2.19936e-05
2.77037e-05
0.000127201