/*--------------------------------*- C++ -*----------------------------------*\
| =========                 |                                                 |
| \\      /  F ield         | foam-extend: Open Source CFD                    |
|  \\    /   O peration     | Version:     4.0                                |
|   \\  /    A nd           | Web:         http://www.foam-extend.org         |
|    \\/     M anipulation  |                                                 |
\*---------------------------------------------------------------------------*/
FoamFile
{
    version     2.0;
    format      ascii;
    class       volScalarField;
    location    "100";
    object      epsilon;
}
// * * * * * * * * * * * * * * * * * * * * * * * * * * * * * * * * * * * * * //

dimensions      [0 2 -3 0 0 0 0];

internalField   nonuniform List<scalar> 
34480
(
5352.34
4972.02
4749.77
4683.67
4793.91
5229.11
6351.17
8677.71
12307.2
16201.2
3537.56
2261.45
1598.69
1684.05
3333.64
10982.5
43589.6
174403
637050
1.84603e+06
2250.58
1546.53
1211.58
1378.31
2793.22
9697.84
42336
187440
750401
2.38268e+06
1371.97
1009.97
888.681
1123.32
2399.11
8742
41161.6
198091
856493
2.93021e+06
868.952
703.002
695.596
960.137
2146.81
8094.04
39989.9
204040
937413
3.4065e+06
624.341
544.457
581.167
844.274
1957.2
7606.14
38796.5
205913
991440
3.78765e+06
507.089
462.431
511.985
754.818
1773.02
6996.75
36333.7
197952
989762
3.95136e+06
473.41
438.196
479.356
676.067
1521.25
5926.5
30958.6
171552
884844
3.6812e+06
620.949
581.35
595.156
696.972
1185.8
3836.34
19178.5
107165
570111
2.47848e+06
5193.07
5163.1
5146.38
5139.43
5142.35
5159.97
5219.04
5423.51
6112.76
7568.06
5192.42
4849.77
4637.58
4553.01
4586.95
4822.33
5546.28
7309.2
10537.4
14587.1
3156.92
1979.58
1299.07
1099.53
1428.12
3229.68
10524.2
37721.6
148514
633771
1954.65
1295.49
928.722
854.76
1119.36
2396.02
8273
35453.7
174950
871893
1180.77
835.147
670.388
688.311
931.383
1851.54
6307
31915.6
197933
1.11459e+06
755.062
583.574
524.43
587.741
823.15
1561.56
4976.98
28094
213768
1.33213e+06
556.693
458.779
441.934
517.719
739.45
1381.97
4132.18
24593.8
222376
1.50727e+06
463.986
396.388
395.755
468.528
668.752
1236.03
3501.99
20766.4
216476
1.58713e+06
446.328
387.934
387.616
443.241
596.405
1036.79
2750.67
15651.9
184929
1.48488e+06
604.524
548.76
541.058
561.671
624.854
802.703
1547.96
7912.4
109104
1.01077e+06
5073.47
5042.07
5024.2
5015.39
5014.23
5020.98
5044.16
5125.45
5546.96
7053.74
4968.77
4686.63
4513.46
4446.32
4474.25
4657.07
5229.35
6702.66
9583.69
13160.3
2551.41
1593.74
1047.67
877.824
1089.39
2277.12
6701.12
19577.6
50980.1
125762
1550.36
1012.54
712.184
633.559
782.077
1541.43
4766.92
16538
55245.5
182324
943.316
660.897
518.719
509.287
635.76
1122.8
3329.14
13584.9
59970.2
255854
622.507
475.979
415.328
441.398
561.088
913.419
2450.8
11136.1
63907.3
336210
477.589
385.854
358.267
395.856
507.476
792.713
1939.37
9303.89
66951.1
416060
410.474
341.351
328.034
366.393
467.376
709.499
1603.04
7667.26
66158.6
471806
405.798
343.861
333.588
363.922
441.704
625.904
1274.57
5735
56868.1
462665
570.541
514.726
504.336
517.049
554.033
637.975
926.636
3046.41
32278.6
309758
4979.52
4948.17
4929.9
4920.08
4916.96
4920.44
4938.15
5002.45
5322.61
6487.49
4766.05
4535.67
4394.46
4340.74
4363.02
4505.12
4957.59
6190.13
8791.03
12124.2
2012.41
1266.06
848.582
719.23
876.248
1757.3
5018.37
13776.3
29751.4
49914.1
1181.42
769.496
541.819
480.028
583.173
1112.62
3300.21
10414.3
26822.5
57389.8
728.738
512.448
400.092
385.754
466.429
785.263
2171.43
7753.69
25179.5
72196.4
501.575
383.537
329.577
340.372
414.051
632.867
1537.29
5845.24
24021.8
91009
401.564
321.279
291.631
311.727
380.15
552.075
1196.71
4582.43
23212
111725
355.174
290.746
272.958
295.361
358.129
502.794
992.651
3624.96
21629.4
126978
360.268
301.083
287.433
306.41
356.177
467.638
821.521
2684.23
17701.1
123466
529.783
478.208
467.89
477
503.211
559.406
723.327
1562.24
9438.39
78223.7
4873.17
4843.81
4827.04
4818.12
4815.16
4818.09
4833.24
4888.73
5141.33
6067.45
4583.87
4395.5
4278.91
4234.68
4251.67
4362.76
4724.27
5765.45
8119.58
11206.7
1587.93
1016.02
699.924
601.755
719.959
1390.42
3934.73
10827
22601.1
33307.3
887.868
583.046
415.429
368.977
442.243
819.92
2389.71
7426.03
17598.1
29596
558.056
397.253
310.561
295.184
346.513
558.898
1477.26
5027.73
14229.9
30000.6
402.612
309.32
262.973
264.755
308.964
445.866
1003.27
3480.83
11835.3
32514.2
335.5
267.117
238.421
247.552
288.198
391.776
768.104
2558.84
10190.4
36287.6
304.083
246.763
227.874
240.004
277.953
364.143
640.281
1945.13
8666.28
38876.7
315.942
262.566
248.197
259.652
290.796
358.099
555.275
1441.86
6650.09
36219.4
488.323
443.055
433.692
440.108
458.025
494.508
588.116
975.233
3507.66
22008.6
4761.08
4734.06
4719
4711.1
4708.47
4711.03
4723.73
4769.05
4968.18
5706.54
4418.39
4263.08
4164.9
4127.24
4139.68
4227.55
4521.09
5414.33
7541.05
10407.1
1272.87
834.403
592.102
515.63
605.115
1124.41
3165.15
8926.5
19019.8
27906.1
673.286
450.232
326.818
291.666
344.458
618.954
1780.79
5632.79
13431.4
21332.1
433.18
313.835
246.632
231.674
264.28
407.959
1035.79
3491.64
9640.79
17909.7
327.09
253.03
213.718
210.537
236.241
321.926
674.96
2226
7067.4
16111.5
281.632
224.004
197.818
200.46
223.505
284.654
508.32
1539.81
5422.39
15409.3
259.953
210.478
192.492
198.248
220.113
269.651
425.978
1131.37
4194.81
14730.3
275.806
229.593
216.082
222.656
241.384
280.389
389.32
851.043
3037.86
12695.5
448.584
410.31
402.391
406.875
418.752
441.568
494.235
691.661
1691.6
7509.08
4643.19
4618.8
4605.57
4598.78
4596.58
4598.99
4609.8
4645.84
4799.14
5377.14
4265.16
4135.27
4050.62
4017.51
4026.21
4096.6
4338.95
5115.1
7027.74
9675.76
1043.15
703.513
513.111
451.11
518.967
925.787
2582.95
7507.38
16571.8
24972
523.991
359.405
266.405
238.746
277.086
480.35
1358.07
4413.32
10924.9
17642
346.688
256.133
202.795
188.756
209.539
308.963
750.29
2531.63
7162.41
13132.2
272.115
212.135
178.861
173.341
187.923
242.259
472.629
1497.88
4729.26
10158.9
239.708
191.217
168.236
167.439
179.951
215.733
351.797
981.137
3282.97
8316.74
223.762
181.941
165.938
168.038
180.059
207.674
296.946
701.107
2339.86
6949.54
241.313
202.556
190.747
194.299
205.118
226.82
286.55
541.344
1631.13
5461.96
411.664
380.466
374.171
377.287
384.878
398.49
427.39
533.889
1017.59
3295.37
4519.41
4497.92
4486.6
4480.95
4479.22
4481.51
4490.75
4519.39
4637.54
5095.4
4120.26
4009.4
3934.63
3904.73
3910.42
3967.51
4170.91
4844.58
6554.13
8978.63
875.755
608.09
453.752
401.378
452.563
772.593
2119.74
6344.85
14583.7
22766.1
422.72
298.283
225.468
202.52
230.386
383.19
1054.2
3511.75
9107.54
15308.9
288.611
217.209
173.486
160.493
173.774
244.267
562.061
1889.58
5558
10543
233.125
183.249
155.021
148.729
156.828
192.066
347.358
1052.51
3374.14
7331.9
208.039
167.15
147.524
145.186
151.703
172.728
258.162
661.1
2162.46
5311.82
195.159
160.349
146.767
146.964
153.281
168.355
220.359
463.961
1448.02
3949.32
212.783
181.14
171.365
173.144
179.151
190.76
223.588
371.323
995.239
2880.2
378.158
353.692
348.973
351.132
355.793
363.447
378.779
438.425
716.349
1879.82
4389.74
4371.34
4361.96
4357.41
4356.13
4358.27
4366.06
4388.82
4482.03
4860.15
3979.84
3883.28
3815.74
3788.23
3791.55
3838.39
4010.2
4590.33
6102.1
8294.92
752.05
536.816
407.938
362.198
400.289
651.069
1736.42
5329.53
12784.5
20746.2
354.362
256.949
197.43
177.434
197.55
313.482
828.378
2803.84
7627.18
13441.4
249.89
191.071
154.116
142.189
150.643
201.656
434.662
1436.93
4391.13
8747.23
205.566
163.101
139.116
132.911
137.291
160.733
268.653
768.297
2496.6
5634.89
184.425
149.92
133.506
130.691
133.917
146.454
202.064
471.655
1510.21
3745.37
173.075
144.499
133.372
132.699
135.844
143.968
175.216
329.797
971.735
2567.27
189.843
164.645
156.897
157.686
160.864
166.805
185.104
275.446
673.127
1802.66
348.338
329.901
326.56
328.046
330.772
334.73
342.466
376.945
557.691
1305.76
4254.17
4238.97
4231.48
4227.95
4227.07
4228.99
4235.36
4253.26
4328.36
4654.23
3840.61
3754.87
3693
3667.41
3668.95
3707.51
3851.92
4344.96
5660.53
7613.82
658.47
481.177
370.98
330.322
357.843
552.006
1411.94
4411
11057.5
18714.3
307.639
228.327
177.775
159.772
174.051
262.237
655.881
2225.45
6334.74
11740.7
223.567
173.2
141.291
130.451
135.746
173.151
345.808
1104.19
3478.45
7299.92
185.651
148.978
128.661
122.975
125.24
141.191
218.012
579.351
1885.59
4440.88
166.729
137.748
124.278
121.524
122.991
130.622
168.077
355.39
1101.88
2789.57
156.188
133.098
124.246
123.26
124.697
129.045
148.532
251.61
697.093
1827.49
171.746
152.19
146.272
146.527
148.089
150.946
161.385
219.761
494.605
1280.58
322.085
308.784
306.545
307.55
309.047
310.838
314.446
334.998
461.636
1016.88
4112.74
4100.69
4094.94
4092.32
4091.76
4093.39
4098.41
4112.17
4172.87
4460.19
3699.83
3622.55
3565.75
3542.1
3542.32
3573.79
3693.57
4104.37
5224.5
6931.78
585.079
435.406
339.614
303.187
322.284
469.994
1135.48
3571.18
9358.83
16587
274.665
207.624
163.515
147.092
156.941
223.741
521.613
1743.56
5166.75
10092.2
204.71
160.416
132.638
122.947
126.145
153.692
281.967
852.12
2733.55
6034.66
170.546
138.827
121.804
116.838
117.907
128.935
184.442
448.692
1438.79
3518.16
153.18
129.146
118.321
115.869
116.419
121.172
147.093
280.944
831.195
2141.78
143.242
124.969
118.116
117.094
117.641
119.968
132.58
204.184
527.746
1382.85
157.625
142.874
138.496
138.468
139.135
140.378
146.511
186.093
387.105
990.279
298.994
289.869
288.446
289.102
289.856
290.479
291.964
304.617
396.815
838.133
3965.38
3956.28
3952.08
3950.24
3949.92
3951.22
3954.99
3965.25
4013.84
4267.26
3555.07
3485.05
3433.52
3412.12
3411.44
3436.62
3533.84
3867.19
4794.57
6251.91
524.33
395.452
311.809
279.368
291.911
401.698
901.54
2810.46
7689.5
14342.2
249.969
191.584
152.663
137.773
144.283
194.316
416.097
1341.58
4104.38
8463.51
189.914
150.562
126.555
118.106
119.917
140.098
234.864
657.661
2115.43
4892.43
158.281
131.199
117.232
113.065
113.473
121.153
161.443
355.092
1101.43
2771.98
142.458
122.975
114.493
112.428
112.522
115.554
133.801
230.998
642.579
1673.39
133.207
119.143
113.984
113.05
113.162
114.431
122.86
173.942
415.98
1090.48
146.637
135.863
132.709
132.535
132.732
133.186
136.927
164.676
316.57
806.247
278.479
272.596
271.737
272.142
272.479
272.558
273.062
281.115
349.044
707.209
3811.97
3805.51
3802.61
3801.39
3801.22
3802.2
3804.89
3812.24
3850.3
4069.39
3404.36
3341.51
3295.99
3277.28
3276.1
3295.66
3372.23
3633.96
4375.62
5583.4
470.339
358.403
286.153
257.915
265.559
344.812
706.94
2138.49
6081.11
11999.3
229.586
177.947
143.866
130.705
134.759
171.521
333.013
1010.6
3152.68
6866.84
176.861
142.23
121.988
114.889
115.809
130.367
199.355
506.537
1603.64
3862.91
147.607
125.136
114.051
110.696
110.762
116.105
145.154
286.008
841.993
2160.47
133.681
118.411
111.974
110.305
110.199
112.187
125.1
195.842
505.009
1320.77
125.316
114.876
111.108
110.31
110.24
110.981
116.758
153.525
336.697
882.212
138.035
130.438
128.209
127.961
127.937
128.064
130.464
150.205
265.974
672.94
259.867
256.388
255.895
256.127
256.26
256.157
256.3
261.583
311.09
597.396
3652.34
3648.08
3646.21
3645.47
3645.4
3646.08
3647.87
3652.89
3681.69
3863.34
3246.38
3191.46
3152.95
3137.4
3136.03
3150.64
3208.68
3406.22
3975.05
4940.13
418.627
322.295
261.695
238.128
242.328
297.507
548.878
1567
4586.05
9617.57
210.556
165.17
136.21
125.097
127.433
153.678
267.842
744.414
2326.69
5344.49
164.109
134.605
118.275
112.61
112.996
123.221
172.18
389.206
1186.61
2955.04
137.878
120.066
111.671
109.095
109.016
112.703
133.249
233.796
640.514
1661.97
126.329
114.888
110.188
108.887
108.726
110.079
119.155
169.939
400.206
1046.84
119.04
111.628
108.963
108.314
108.203
108.706
112.735
138.914
276.269
720.86
131.177
126.005
124.44
124.162
124.064
124.109
125.758
139.734
226.59
563.045
242.484
240.699
240.434
240.558
240.613
240.515
240.597
244.132
279.061
498.814
3486.32
3483.78
3482.68
3482.26
3482.25
3482.68
3483.78
3487.01
3507.76
3649.93
3080.69
3034.99
3004.37
2992.28
2991
3001.37
3043.26
3185.42
3600.42
4338.05
366.303
286.146
237.896
219.42
221.425
258.138
423.962
1103.95
3265.96
7295.6
190.888
152.401
129.142
120.38
121.607
139.586
217.131
536.839
1641.03
3955.9
151.082
127.37
115.035
110.813
110.922
117.83
151.236
298.817
855.127
2182.87
128.946
115.692
109.708
107.838
107.734
110.25
124.305
193.698
483.038
1259.61
120.137
112.025
108.74
107.764
107.626
108.596
114.855
150.13
317.147
825.686
114.025
109.023
107.2
106.696
106.616
107.033
109.873
127.918
227.452
584.066
125.521
122.093
120.986
120.709
120.615
120.698
121.925
131.589
194.119
462.914
225.699
225.038
224.913
224.978
225.022
225
225.132
227.495
250.817
408.945
3313.82
3312.51
3311.94
3311.74
3311.76
3312
3312.6
3314.5
3328.46
3431.62
2908.04
2872.8
2850.45
2841.83
2840.81
2847.72
2876.09
2972.44
3257.27
3791.47
312.544
250.017
214.543
201.267
202.06
225.092
327.812
749.328
2175.48
5164.56
169.905
139.556
122.435
116.148
116.737
128.361
178.202
380.554
1101.99
2762.93
138.092
120.606
112.082
109.192
109.197
113.629
135.146
230.207
599.019
1552.96
121.007
111.896
107.925
106.65
106.588
108.288
117.438
162.781
359.466
934.947
114.983
109.569
107.372
106.668
106.592
107.33
111.519
134.676
249.594
637.927
110.031
106.825
105.616
105.244
105.222
105.618
107.624
119.389
186.962
459.226
120.624
118.365
117.563
117.309
117.257
117.415
118.393
124.812
166.82
367.676
208.947
208.98
208.939
208.979
209.036
209.091
209.278
210.806
225.149
328.989
3134.92
3134.39
3134.16
3134.1
3134.12
3134.23
3134.5
3135.48
3144.02
3211.82
2730.45
2706.13
2691.62
2686.14
2685.45
2689.68
2707.27
2767.45
2947.96
3309.35
258.912
214.892
191.622
183.151
183.416
196.761
255.322
493.599
1344.03
3359.07
148.628
127.286
116.122
112.126
112.403
119.345
148.94
267.513
702.647
1808.13
126.12
114.613
109.339
107.552
107.551
110.222
122.981
179.456
406.945
1056.71
114.37
108.643
106.201
105.388
105.387
106.533
112.105
139.322
263.087
668.772
110.783
107.37
105.957
105.471
105.462
106.053
108.748
122.701
194.894
471.52
106.888
104.921
104.14
103.88
103.913
104.294
105.7
112.772
154.077
342.909
116.158
114.635
114.039
113.825
113.82
114.041
114.846
118.888
144.391
279.379
191.722
192.138
192.148
192.179
192.245
192.344
192.54
193.447
201.266
261.342
2949.89
2949.8
2949.77
2949.78
2949.8
2949.83
2949.9
2950.29
2954.83
2993.9
2550.82
2536.61
2528.62
2525.65
2525.27
2527.56
2537.15
2570.33
2672.11
2893.7
208.866
182.185
169.18
164.594
164.709
171.61
201.213
319.985
764.063
1967.29
129.457
116.637
110.398
108.2
108.35
112.079
127.702
189.684
424.656
1094.96
116.259
109.67
106.796
105.807
105.837
107.344
114.08
143.648
268.38
673.27
109.222
105.933
104.531
104.045
104.095
104.865
107.986
122.351
190.572
447.61
107.434
105.384
104.506
104.187
104.227
104.702
106.361
113.807
152.934
324.948
104.478
103.314
102.823
102.653
102.716
103.058
104.017
107.834
129.38
240.739
111.976
110.916
110.475
110.309
110.337
110.58
111.23
113.621
127.086
204.694
173.513
174.096
174.133
174.158
174.218
174.318
174.47
174.912
178.422
207.37
2759.3
2759.4
2759.47
2759.51
2759.53
2759.52
2759.49
2759.55
2761.49
2780.2
2372.52
2365.99
2362.56
2361.31
2361.15
2362.17
2366.39
2381.18
2428.15
2542.05
165.921
152.901
147.151
145.203
145.302
148.283
160.564
208.929
397.186
993.523
114.847
108.49
105.56
104.516
104.61
106.355
113.226
139.986
245.196
591.911
109.079
105.849
104.467
103.969
104.021
104.818
107.857
120.465
175.806
385.222
105.492
103.75
102.99
102.714
102.783
103.286
104.872
111.134
141.084
272.056
104.794
103.623
103.1
102.905
102.963
103.323
104.291
107.674
124.452
208.19
102.711
102.055
101.761
101.657
101.722
101.989
102.603
104.414
113.304
163.771
108.111
107.39
107.084
106.968
107.008
107.223
107.711
109.032
114.93
150.441
153.585
154.167
154.214
154.233
154.274
154.341
154.419
154.539
155.588
165.843
2564.17
2564.31
2564.39
2564.44
2564.46
2564.44
2564.38
2564.31
2564.85
2571.58
2197.07
2195.14
2194.21
2193.88
2193.85
2194.16
2195.35
2199.49
2213.36
2251.68
131.114
126.612
124.888
124.335
124.4
125.302
128.704
141.638
193.32
386.347
105.766
103.109
101.926
101.484
101.528
102.19
104.396
112.311
144.145
267.433
104.322
102.924
102.315
102.079
102.117
102.491
103.589
107.344
123.545
194.968
102.81
101.952
101.57
101.426
101.477
101.759
102.455
104.496
113.242
156.618
102.624
102.011
101.733
101.627
101.673
101.894
102.391
103.635
108.559
135.096
101.42
101.085
100.928
100.871
100.915
101.078
101.415
102.146
104.733
119.7
104.547
104.117
103.937
103.872
103.906
104.054
104.361
105.015
107.027
118.594
130.327
130.731
130.766
130.775
130.794
130.824
130.841
130.806
130.816
132.548
2365.65
2365.73
2365.78
2365.82
2365.82
2365.81
2365.77
2365.7
2365.71
2367.09
19822.4
19821.8
19557.4
19063.2
3.26937e+06
3.07193e+06
2.95088e+06
2.95947e+06
4.66988e+06
4.42934e+06
4.24255e+06
4.16557e+06
6.34462e+06
6.09651e+06
5.8489e+06
5.68535e+06
8.00794e+06
7.71162e+06
7.31565e+06
6.93442e+06
9.54732e+06
9.162e+06
8.54724e+06
7.85731e+06
1.05717e+07
1.00725e+07
9.21359e+06
8.19647e+06
1.03328e+07
9.73581e+06
8.69064e+06
7.44223e+06
7.12905e+06
6.59132e+06
5.65132e+06
4.53562e+06
10217.7
9894.49
9163.18
8323.26
16626.6
16502
16175.4
15738.9
843063
744359
657368
599394
1.40344e+06
1.29099e+06
1.17673e+06
1.07418e+06
2.12058e+06
2.03012e+06
1.89525e+06
1.72206e+06
2.90469e+06
2.84591e+06
2.65614e+06
2.37866e+06
3.69069e+06
3.682e+06
3.42229e+06
3.02049e+06
4.31007e+06
4.36756e+06
4.04878e+06
3.53492e+06
4.47444e+06
4.59729e+06
4.24883e+06
3.6762e+06
3.50638e+06
3.66216e+06
3.37385e+06
2.88624e+06
9751.23
9826.25
9408.14
8491.73
13686.7
13541.6
13282.8
12952.7
130997
120299
105551
90704.3
227184
213053
185669
152824
384823
369603
323546
259632
599199
586659
515519
405226
863403
859245
758925
587891
1.12568e+06
1.135e+06
1.00826e+06
773212
1.27288e+06
1.29757e+06
1.15922e+06
879513
1.02412e+06
1.04624e+06
934901
693437
7629.58
7595.2
7337.67
6955.33
12459.2
12343.6
12118.6
11812.9
40157.9
34830.8
29915.4
26528.8
50661.5
43996.1
36891.7
31355.9
75403.5
66883.4
55904.8
46164.4
113983
102931
85633.6
68525.4
167656
153648
127199
98631.8
226317
209318
172078
129405
261765
242972
197775
144285
203012
184655
146318
103229
6632.79
6582.67
6428.22
6248.23
11554.2
11482.8
11294.7
11006.1
25491.4
22144.8
19344
17594
22860.9
19580.2
16658.5
14728.9
25511.1
22155.6
18803.1
16379.5
31652.7
27933.7
23600.9
20112.9
41541.5
37207.3
31201.5
25836
52889.8
47803.9
39587.2
31660
59223.4
53734.8
43778.6
33702.3
44363.7
39444.3
31149.5
23069.6
6035.98
6003.32
5908.44
5796.44
10777.6
10736.2
10573.9
10298.6
21582.6
18924.2
16761.5
15466.8
16320
14097.5
12217.6
11052.7
14515.6
12669.2
10976.5
9848.72
14213.5
12554.4
10846.1
9596.53
15184.7
13565.9
11649.8
10110.9
16551.5
14892.8
12641.1
10693.3
16602.5
14977.8
12506.4
10260.9
11592.9
10196.2
8263.83
6624.16
5583.35
5559.4
5497.88
5426.92
10048.6
10025.5
9881.4
9618.81
19720
17463.3
15647.3
14588.9
13841.1
12132.8
10709.5
9855.54
10848.9
9622.94
8516.57
7792.38
8961.02
8035.87
7096.35
6407.91
7897.21
7136.88
6259.09
5551.68
7157.78
6486.31
5621.79
4884.82
6168.87
5580.2
4766.65
4061.43
4086.21
3584.64
3008.09
2595.43
5232.15
5214.62
5175.35
5132.59
9332.98
9318.86
9187.96
8939.15
18374.1
16413.6
14840
13938.6
12405.7
11032.7
9891.68
9221.3
9044.82
8165.13
7365.34
6840.67
6706.06
6128.85
5525.11
5066.03
5143.28
4728.21
4228.1
3802.19
3999.4
3668.95
3234.24
2847.26
3019.21
2745.68
2383.8
2070.54
2058.85
1814.62
1574.02
1432.84
4958.83
4945.19
4920.32
4896.56
8615.63
8604.18
8483.73
8251.36
17119.6
15417.2
14043.3
13258.6
11264.9
10152.6
9220.05
8673.59
7821.35
7176.1
6574.53
6170.3
5391.67
5017.72
4603.92
4270.45
3763.63
3521.02
3205.61
2916.71
2630.07
2445.83
2191.72
1952.58
1831.66
1677.44
1479.11
1306.36
1380.49
1232.43
1100.25
1036.26
4733.82
4721.95
4705.54
4693.71
7892.1
7879.44
7768.46
7556.08
15805.1
14345.4
13150.9
12458.3
10179.1
9286.9
8522.12
8063.35
6795.9
6322.5
5860.54
5533.71
4433.82
4187.83
3893.03
3637.38
2900.92
2751.78
2540.58
2333.28
1895.66
1781.14
1618.93
1461.12
1282.71
1181.27
1057.74
953.317
1090.24
988.504
903.46
870.502
4531.01
4519.87
4508.35
4504.05
7164
7148.18
7046.97
6858.16
14359.8
13134.9
12108
11491.4
9054.6
8354.36
7730.57
7335.6
5832.68
5488.74
5129.36
4854.47
3635.81
3470.54
3253.15
3049.71
2275.37
2175.89
2026.68
1873.99
1435.47
1354.31
1243.4
1137.58
982.834
906.94
823.148
759.247
931.297
856.934
798.317
782.516
4334.71
4324.26
4315.83
4316.39
6437.67
6418.14
6327.6
6165.22
12752
11752.9
10883.8
10332.3
7858.46
7324.33
6820.27
6473.69
4887.49
4639.49
4356.97
4120.48
2930.91
2813.91
2647.84
2483.66
1785.27
1709.7
1598.52
1486.33
1118.2
1052.15
971.568
902.151
797.129
734.719
674.329
637.335
821.536
766.085
725.081
720.465
4136.68
4127.42
4121.23
4124.72
5723.81
5700.79
5621.84
5487.48
10977.7
10189.5
9467.82
8975.61
6592.7
6197
5793.86
5487.99
3961.05
3780.32
3556.03
3353.31
2303.4
2212.32
2081.43
1951.54
1392.35
1326.53
1239.94
1160.54
888.949
829.903
768.546
726.042
670.691
616.978
571.794
553.599
728.888
688.051
659.585
661.6
3932.03
3924.61
3919.89
3924.28
5036.9
5011
4944.15
4837.9
9063.78
8463.98
7877.9
7445.58
5289.43
5001.98
4682.76
4417.35
3078.45
2941.05
2761.93
2594.74
1759.48
1680.47
1575.36
1478.44
1080.85
1018.92
949.907
898.152
719.727
665.644
617.888
595.513
576.492
530.516
496.423
491.229
637.663
609.06
589.956
594.966
3717.57
3712.61
3709.03
3712.81
4394.18
4366.29
4311.46
4232.03
7078.44
6636.95
6174.01
5809.4
4008.97
3799.53
3550.11
3331.27
2280.04
2168.5
2026.33
1898.98
1310.09
1237.28
1153.24
1088.09
839.599
781.596
726.952
697.981
591.237
543.537
506.789
498.901
498.004
460.728
435.701
438.633
542.435
524.275
512.087
517.051
3493.89
3491.56
3488.83
3491
3813.47
3785.03
3741.74
3686.7
5139.69
4822.6
4471.01
4186.96
2835.42
2678.44
2488.52
2324.76
1607.7
1513.15
1403.62
1318.4
958.452
892.751
827.906
790.895
654.245
603.703
562.25
550.462
486.691
448.283
421.486
422.767
423.731
396.708
379.579
385.96
443.745
433.973
426.588
429.486
3263.6
3263.49
3261.38
3261.62
3309.29
3282.81
3250.56
3216.39
3405.99
3182.63
2931.9
2738.62
1857.11
1736.92
1599.87
1495.17
1085.71
1007.99
929.116
882.388
692.88
639.217
592.868
577.27
506.086
467.543
438.779
437.706
391.474
365.031
347.502
352.609
346.723
330.816
320.356
325.763
346.928
342.781
338.395
338.785
3031.07
3032.26
3030.62
3029.43
2887.64
2866.54
2844.85
2826.86
2026.24
1876.99
1716.98
1611.34
1127.08
1039.86
950.762
898.15
704.982
649.069
598.956
580.601
488.29
451.798
422.92
419.948
376.198
352.626
335.543
338.396
296.611
282.756
273.152
277.271
266.342
260.324
254.737
256.263
260.068
258.319
255.63
254.758
2801.64
2803.01
2801.8
2800.18
2541.85
2528.84
2516.79
2509.46
1056.47
972.643
889.909
849.57
628.885
576.604
528.761
510.551
428.082
397.23
371.755
368.237
318.859
300.679
286.362
287.233
254.912
245.027
236.949
238.428
204.737
200.339
196.07
196.891
189.989
189.702
186.882
185.039
190.21
188.333
186.673
186.399
2580.1
2580.89
2580.13
2579.02
2255.32
2250.18
2245.78
2244.14
431.431
401.495
373.395
364.351
297.43
275.723
256.463
251.754
222.992
211.487
201.65
201.068
180.848
174.399
168.507
168.298
154.785
151.506
147.976
147.621
134.029
132.64
130.652
130.195
132.348
132.344
130.755
129.259
139.13
136.735
135.885
136.801
2368.4
2368.61
2368.3
2367.91
17035.3
13440.6
11178.4
9577.37
8376.72
7488.78
6848.87
6390.64
6041.46
5724.15
1.30935e+06
292096
90992.8
37938
19623.6
12029.2
8466.06
6633.76
5561.14
4679.06
1.55586e+06
279526
78481.3
29912.8
14362.1
8238.32
5496.68
4159.95
3438.6
2904.54
1.76108e+06
280507
74957
26868
12112.4
6428.38
3931.2
2744.93
2146.04
1765.56
1.80198e+06
277546
71541.7
23933.4
10019.1
4872.24
2719.74
1758.93
1318.69
1079.04
1.791e+06
272127
66630.9
20575.9
7965.62
3591.99
1892.29
1186.84
889.512
742.15
1.7135e+06
255676
58332
16455.9
5928.86
2567.23
1356.45
877.228
681.451
584.074
1.47906e+06
213275
44465.9
11471.5
4002.89
1796.67
1036.49
734.242
608.166
537.248
928889
123366
22749.9
5531.66
2192.72
1287.74
973.93
828.96
752.261
690.014
7244.49
6145.32
5675.65
5462.48
5357.53
5303.44
5271.83
5249.97
5231.94
5213.31
14358.3
12263.4
10532.5
9110.76
7985.57
7135.75
6523.07
6094.79
5788.92
5537.08
374268
143111
61043.9
29483.2
16456.9
10433.4
7388.04
5762.25
4838.7
4169.69
539969
164622
59412.3
25214.8
12706.6
7380.4
4867.78
3617.5
2966.5
2543.81
736416
194134
62666.5
24254.4
11238.8
5957.58
3559.38
2411.17
1850.1
1536.9
920942
219183
64425.6
22700.6
9594.35
4613.29
2500.53
1561.63
1144.48
945.585
1.07839e+06
236935
63689.8
20342.4
7833.52
3467.69
1771.79
1076.48
791.264
668
1.16948e+06
239491
58578.8
16859.5
5965.46
2521.54
1293.88
816.368
625.514
543.118
1.1195e+06
212227
46702
12147.2
4113.13
1796.49
1010.37
703.485
578.336
518.737
771936
130810
25110.9
6064.07
2295.13
1309.12
972.253
819.335
740.701
689.531
7043.43
6071.56
5580.14
5347.15
5236.31
5181.1
5149.69
5128.57
5112
5096.36
12175.5
10780.8
9428.63
8237.68
7276.79
6554.93
6042.29
5691.01
5445.06
5243.76
64662.9
38351.6
23999.5
15616.9
10575.5
7488.7
5614.19
4503.55
3842.82
3350.44
90426
43576.9
23611.6
13568.8
8233.76
5290.81
3665.3
2788.03
2319.18
2011.25
131432
54395.2
26417.4
13625.6
7433.73
4281.39
2657.64
1835.9
1431.68
1210.34
176459
64503.9
28222.4
13008.5
6345.03
3272.33
1838.89
1181.11
891.414
759.275
220527
72116.5
28443
11721.3
5157.04
2446.43
1308.68
830.869
637.005
558.249
248211
73188.1
25971.5
9627.03
3917.16
1799.45
982.732
655.161
524.68
471.795
237230
62994.5
20105.1
6872.13
2755.67
1340.69
811.066
595.013
506.676
466.959
148514
34820.6
10053.6
3493.17
1697.86
1103.56
866.594
749.53
687.29
648.197
6411.47
5774.6
5398.71
5209.53
5121.07
5077.26
5051.25
5032.48
5017.19
5002.87
11111.7
9844.47
8602.56
7526.71
6677.54
6054.53
5622.78
5334.79
5138.81
4981.24
22660.5
18231.1
14042.1
10456.6
7665.36
5661.37
4327.17
3499.2
3000.85
2631.23
24267.2
17339.2
12137.5
8260.67
5549.07
3771.84
2687.23
2073.45
1742.64
1525.57
32413.6
20499
12935.1
7920.73
4780.74
2913.04
1866.94
1320.73
1054.86
913.561
42988.9
23965.2
13472.5
7296.01
3902.1
2126.02
1246.25
837.483
663.199
589.739
54670.4
26827.1
13401
6418.82
3083.2
1557.62
886.431
602.459
492.349
453.544
62727.8
27175.6
12091.2
5192.08
2325.84
1160.83
688.202
495.954
422.95
397.962
60552.6
23242.4
9323.12
3747.45
1699.38
920.755
608.821
478.218
427.109
407.433
37378
12869.3
4849.76
2125.83
1237.7
899.432
746.577
665.299
621.308
595.77
6013.17
5496.78
5195.6
5052.73
4988.9
4956.74
4936.27
4920.61
4907.65
4895.56
10302.9
9091.81
7921.74
6932.7
6171.83
5628.33
5262.06
5025.43
4870.31
4749.26
15812.6
13522.2
10883
8329.68
6179.48
4562.31
3460.16
2771.72
2362.13
2068.56
12705.7
10470.7
8072.56
5855.82
4076.02
2810.87
2006.2
1544.78
1298.7
1140.85
13568.8
10526.7
7544.06
5025.17
3184.18
1991.69
1298.98
936.956
766.79
680.76
15659.7
11046.6
7111.38
4212.1
2376.74
1346.43
824.007
584.485
489.753
455.818
18546.9
11641.5
6636.42
3479.14
1777.34
954.138
584.726
431.204
378.713
366.807
20611.4
11426.9
5771.51
2727.7
1323.88
722.055
470.874
370.361
338.052
332.503
19685.8
9681.4
4434.35
2009.56
1020.02
617.989
449.319
379.068
355.86
350.928
12383.2
5596.27
2534.36
1356.56
920.486
733.319
638.557
585.164
556.942
542.554
5640.2
5221.78
4997.21
4898.72
4855.33
4832.02
4815.91
4802.95
4792.09
4781.97
9598.82
8436.14
7334.04
6420.59
5735.36
5259.55
4948.61
4754.93
4633.76
4543.09
14141.3
12085
9670.3
7316.27
5333.43
3851.79
2854.46
2241.97
1887.13
1646.48
9878.74
8327.55
6495.49
4717.28
3252.67
2205.12
1543.81
1170.46
976.449
857.844
8612.96
7059.59
5237.81
3549.29
2255.65
1407.65
920.787
673.524
563.887
513.008
8092.23
6244.68
4247.46
2597.95
1494.28
867.147
553.544
415.742
368.659
358.024
8122.46
5754.85
3516.83
1935.24
1033.56
590.271
392.628
315.091
296.348
299.913
8086.85
5176.91
2836.38
1439.63
755.732
454.191
327.608
280.622
272.58
278.573
7265.85
4224.94
2150.64
1089.32
621.314
421.823
336.083
302.585
296.964
301.383
4671.21
2654.65
1439.31
922.44
707.055
604.092
546.896
513.642
497.708
491.919
5317.05
4980.45
4816.74
4749.79
4720.05
4702.89
4690.16
4679.52
4670.55
4662.18
8934.1
7829.31
6799.82
5960.92
5346.93
4932.92
4671.2
4514.77
4422.37
4356.89
13464.6
11401.9
8983.55
6654.18
4724.97
3314.34
2388.97
1836.47
1527.53
1330.96
8960.21
7485.02
5737.24
4066.41
2721.03
1786.63
1215.9
903.874
747.359
657.513
6939.31
5641.87
4117.89
2726.48
1687.99
1032.88
673.06
498.868
427.324
398.269
5507.66
4256.22
2876.68
1738.52
992.971
584.551
389.014
308.923
288.193
289.942
4577.85
3319.48
2058.11
1148.76
633.409
384.989
277.846
240.632
239.372
250.464
3865.04
2613.11
1496.31
801.426
454.987
301.716
239.029
219.997
224.412
236.064
3123.04
2004.65
1114.62
626.83
400.888
302.095
260.061
246.566
250.478
259.862
2172.91
1456.49
919.795
673.366
562.11
505.045
471.507
452.208
445.193
445.529
5056.25
4776.61
4650.82
4602.77
4581.53
4568.71
4558.7
4550.09
4542.83
4536.1
8283.13
7250.47
6300.26
5538.29
4994.27
4638.55
4421.65
4298.03
4230.13
4185.36
12933.3
10842.5
8396.48
6075.35
4191.81
2851.78
2001.19
1511.32
1249.14
1093.42
8466.61
6969.7
5212.9
3579.53
2309.28
1463.23
968.845
709.425
584.786
518.184
6141.21
4872.77
3438.22
2189.02
1305.41
780.288
508.153
383.648
337.161
321.98
4371.64
3276.57
2136.42
1247.59
699.798
417.61
290.117
242.549
235.9
243.695
3133.97
2215.63
1344.53
745.311
421.474
272.062
211.111
194.108
200.859
214.749
2259
1525.54
885.373
493.244
301.107
217.945
186.1
180.301
189.958
203.519
1637.18
1101.17
653.346
400.873
282.445
231.052
210.492
206.801
214.921
226.19
1313.59
952.47
659.235
523.277
461.807
429.985
411.162
401.21
400.211
404.488
4841.86
4596.84
4491.68
4454.6
4438.83
4429.2
4421.42
4414.57
4408.84
4403.66
7637.95
6691.22
5826.71
5144.65
4670.08
4369.79
4193.83
4099.06
4051.93
4023.94
12322.2
10210.4
7757.54
5473.21
3664.7
2420.02
1660.63
1241.89
1029.44
912.533
7993.45
6468.73
4710.59
3126.19
1942.03
1190.45
772.823
563.656
468.285
421.424
5547.07
4279.78
2908.49
1774.86
1020.1
599.809
394.729
306.384
277.437
271.551
3679.95
2658.69
1661.76
934.931
517.145
315.405
229.465
200.889
201.8
212.304
2394.86
1632.2
959.662
526.454
305.846
209.074
172.176
165.081
174.893
189.085
1547.57
1025.29
594.328
341.255
221.71
171.997
154.757
154.634
165.648