/*--------------------------------*- C++ -*----------------------------------*\
| =========                 |                                                 |
| \\      /  F ield         | foam-extend: Open Source CFD                    |
|  \\    /   O peration     | Version:     4.0                                |
|   \\  /    A nd           | Web:         http://www.foam-extend.org         |
|    \\/     M anipulation  |                                                 |
\*---------------------------------------------------------------------------*/
FoamFile
{
    version     2.0;
    format      ascii;
    class       volScalarField;
    location    "100";
    object      k;
}
// * * * * * * * * * * * * * * * * * * * * * * * * * * * * * * * * * * * * * //

dimensions      [0 2 -2 0 0 0 0];

internalField   nonuniform List<scalar> 
34480
(
9.23508
8.80794
8.55129
8.47298
8.5969
9.08725
10.3197
12.7195
16.1266
19.4596
28.1548
20.9302
15.9356
13.897
15.4081
23.5647
44.9802
90.0607
175.75
292.955
29.2791
23.4468
19.34
17.3347
17.7125
23.7878
44.0821
92.8843
194.732
349.37
24.482
20.4577
17.9421
17.0271
17.6222
22.212
39.582
88.3481
203.327
394.384
19.6358
17.2217
16.0773
16.1731
17.2874
21.0814
35.2767
80.9385
203.89
426.438
16.3748
14.8699
14.5042
15.1701
16.6681
20.1676
31.9247
73.0095
198.502
445.509
14.2299
13.2097
13.231
14.1094
15.7697
19.1249
29.0234
64.2647
184.838
443.772
12.1743
11.4417
11.5605
12.3322
13.7793
16.7196
24.7702
52.5484
156.612
403.924
7.95144
7.60047
7.64009
7.92414
8.51792
9.91516
14.3425
30.6234
96.6518
277.721
8.70214
8.664
8.64022
8.62759
8.62623
8.64115
8.70099
8.91809
9.64235
11.0622
9.05218
8.66495
8.41773
8.31723
8.35402
8.62154
9.43982
11.3467
14.5321
18.1133
26.1092
19.2525
14.3765
12.1301
12.5783
17.7967
33.0984
64.6052
123.973
267.78
26.7137
21.1647
17.2552
15.3271
15.115
18.4379
31.9723
65.2485
137.222
325.821
22.2281
18.4013
16.0017
15.1717
15.4586
17.7794
28.152
59.316
141.215
372.307
17.9544
15.5561
14.3694
14.4711
15.4262
17.5221
25.0692
51.5288
138.383
405.398
15.2185
13.5536
13.0199
13.6161
15.0039
17.2462
23.0934
44.2415
131.056
424.192
13.4451
12.1586
11.9566
12.7195
14.2709
16.6791
21.6827
37.6048
118.141
420.397
11.7181
10.6943
10.5983
11.2398
12.5561
14.7646
19.1283
30.2792
95.9184
377.022
7.82448
7.34023
7.29622
7.50071
7.97079
8.88696
11.0884
16.8413
54.0472
247.611
8.56611
8.52608
8.50095
8.48659
8.48124
8.48529
8.5084
8.59757
9.06639
10.6276
8.79579
8.47299
8.26854
8.18749
8.21804
8.42892
9.08951
10.7299
13.6638
16.8996
22.7682
16.7376
12.5278
10.6391
11.0611
15.4904
28.5761
54.5695
92.6739
143.545
23.172
18.266
14.869
13.2538
13.1354
15.9769
27.4873
55.0645
102.381
181.794
19.3886
16.0087
13.89
13.1993
13.5114
15.5237
24.2612
49.8748
104.469
217.42
15.9368
13.7337
12.6052
12.6914
13.5897
15.4657
21.8044
43.1988
101.204
246.35
13.7981
12.1538
11.5467
12.0385
13.3143
15.3694
20.3547
37.1792
94.8203
266.783
12.4087
11.0545
10.7267
11.3537
12.7636
14.9874
19.3642
31.9105
84.7459
271.329
11.0112
9.89958
9.68992
10.2073
11.3741
13.3891
17.2827
26.1758
68.4665
246.622
7.56966
7.06131
6.98814
7.14691
7.52838
8.28188
10.1154
14.7496
37.9412
159.438
8.45807
8.41841
8.39323
8.37813
8.37102
8.37195
8.38992
8.46254
8.82866
10.0838
8.56062
8.29336
8.12406
8.05803
8.08265
8.24952
8.78384
10.1971
12.9295
16.0043
19.5516
14.4322
10.9303
9.39994
9.79788
13.5137
24.6797
46.9623
76.5001
102.757
19.6447
15.4972
12.657
11.3363
11.2882
13.6685
23.281
46.5365
82.0156
122.335
16.5892
13.7193
11.8873
11.2795
11.5403
13.2179
20.4072
41.6771
81.5362
140.936
13.9318
11.9727
10.9087
10.9088
11.6238
13.1829
18.3646
35.8673
77.0249
156.301
12.3248
10.7722
10.1175
10.4387
11.4474
13.1501
17.2461
30.9253
70.6256
167.538
11.2689
9.93771
9.52438
9.96393
11.0749
12.9039
16.5151
26.7927
62.1397
169.707
10.1854
9.07751
8.80085
9.17225
10.0758
11.694
14.874
22.3424
49.9532
153.994
7.25721
6.76181
6.67922
6.7995
7.08625
7.64452
8.98336
12.6954
27.461
98.8104
8.33483
8.29772
8.27478
8.26123
8.2549
8.25588
8.27185
8.33655
8.6317
9.65836
8.34663
8.12452
7.98215
7.92665
7.94558
8.07882
8.51651
9.74611
12.2855
15.1953
16.8157
12.5512
9.67843
8.44564
8.80701
11.915
21.4631
41.0083
66.4842
84.9317
16.5442
13.1383
10.8119
9.74369
9.74599
11.717
19.6189
39.2748
68.4789
93.7438
14.1206
11.737
10.1681
9.61879
9.81015
11.1731
16.9317
34.3815
65.935
101.756
12.1252
10.4143
9.42406
9.33019
9.83475
11.0587
15.1532
29.2012
60.5415
107.662
10.9416
9.5191
8.8507
9.00539
9.71212
11.0065
14.2278
25.1392
54.2647
111.494
10.1533
8.90316
8.4478
8.71054
9.48876
10.8448
13.647
21.924
47.0088
110.328
9.35255
8.30666
8.00082
8.24198
8.87123
10.032
12.4129
18.5102
37.6603
98.6923
6.9379
6.47782
6.39482
6.48294
6.68632
7.06845
7.95248
10.6515
20.458
61.9817
8.2044
8.17028
8.1498
8.13794
8.1325
8.13362
8.14743
8.20141
8.4385
9.27388
8.14969
7.96293
7.8405
7.79222
7.8062
7.91417
8.27939
9.36635
11.7135
14.4733
14.6393
11.1095
8.74701
7.74071
8.05737
10.6695
18.914
36.4745
59.976
76.7185
14.0391
11.2784
9.38076
8.51694
8.55656
10.1956
16.6998
33.503
59.1087
79.4891
12.1115
10.1414
8.79948
8.30477
8.44537
9.55358
14.1324
28.3692
54.632
80.8775
10.6086
9.12355
8.21765
8.05896
8.39517
9.33599
12.5199
23.5867
48.4288
80.6132
9.7293
8.45143
7.80465
7.83801
8.29781
9.2348
11.6978
20.1725
42.319
79.4118
9.13646
8.00067
7.54446
7.67639
8.18157
9.11987
11.2
17.6423
36.0992
75.5918
8.57201
7.62288
7.31913
7.46457
7.87591
8.64779
10.3194
15.0468
28.833
65.7624
6.62987
6.21859
6.14158
6.20496
6.34428
6.59358
7.1438
8.95164
15.4596
39.6581
8.06652
8.03584
8.01794
8.00782
8.00335
8.00474
8.01679
8.06042
8.24592
8.91108
7.96474
7.8048
7.69683
7.65348
7.66334
7.75222
8.06272
9.0305
11.1884
13.7945
12.958
10.0315
8.06171
7.21876
7.48628
9.69057
16.8541
32.8488
55.1909
71.8408
12.1257
9.88396
8.31806
7.60679
7.6657
9.04078
14.4408
29.0006
52.2967
71.2757
10.5716
8.92541
7.76802
7.32228
7.42541
8.33538
12.0068
23.6977
46.2818
68.5883
9.40492
8.11029
7.29237
7.09904
7.31312
8.03167
10.5127
19.2041
39.3938
64.3604
8.72381
7.58881
6.98911
6.94744
7.22862
7.88489
9.74311
16.2366
33.4372
59.964
8.26015
7.25334
6.82604
6.8729
7.18051
7.79525
9.28868
14.1707
28.0696
54.5402
7.87846
7.04411
6.76384
6.84467
7.09985
7.58249
8.69712
12.1956
22.3801
45.9329
6.34349
5.98843
5.92136
5.96613
6.05796
6.21232
6.53937
7.69665
12.0542
26.7084
7.9209
7.89403
7.8788
7.87041
7.86689
7.86851
7.87901
7.91409
8.05902
8.59354
7.78681
7.64684
7.54926
7.50934
7.51586
7.59012
7.85818
8.71486
10.6854
13.1271
11.6766
9.22881
7.55122
6.82292
7.0398
8.90015
15.1241
29.7433
51.2147
68.2134
10.7186
8.87117
7.54834
6.94451
7.00639
8.16753
12.6831
25.3953
46.9654
65.6873
9.44124
8.03495
7.02205
6.61835
6.69144
7.44526
10.4282
20.1281
39.9409
60.5014
8.48769
7.34699
6.61527
6.41056
6.54026
7.08902
9.04514
15.9389
32.6599
53.8334
7.92316
6.92161
6.38385
6.30341
6.46507
6.9147
8.31451
13.3071
26.9059
47.5775
7.53646
6.66131
6.28082
6.27842
6.45448
6.83941
7.8896
11.5512
22.2218
41.4101
7.28701
6.57393
6.3295
6.3696
6.52008
6.80552
7.52248
10.0409
17.7257
33.9239
6.0856
5.78925
5.73395
5.765
5.82295
5.91265
6.09932
6.83322
9.86501
19.5984
7.76732
7.74448
7.73192
7.72518
7.72252
7.72425
7.73326
7.76139
7.87689
8.32333
7.61072
7.48607
7.39614
7.35877
7.36263
7.42536
7.65646
8.4075
10.1868
12.4509
10.703
8.62367
7.15953
6.51164
6.67882
8.24251
13.6175
26.9059
47.5228
64.912
9.70577
8.14608
6.99591
6.46595
6.51947
7.50197
11.2874
22.3784
42.4096
61.1251
8.63141
7.39759
6.4977
6.1305
6.17866
6.80543
9.25457
17.3568
34.8777
54.3978
7.80304
6.78723
6.13805
5.9379
6.01153
6.43162
7.9929
13.536
27.5688
46.3525
7.30093
6.42286
5.95389
5.85926
5.94573
6.25044
7.31021
11.2012
22.1478
39.2268
6.9564
6.20962
5.88429
5.85714
5.95109
6.18391
6.91697
9.67519
18.0421
32.9554
6.79908
6.20615
6.00274
6.01865
6.10235
6.26213
6.71539
8.51892
14.4513
26.5716
5.86017
5.62111
5.57771
5.59878
5.63342
5.68111
5.78301
6.25505
8.47796
15.7441
7.60548
7.58675
7.57674
7.57152
7.5696
7.5713
7.57878
7.60105
7.6947
8.08218
7.4325
7.31963
7.23617
7.20107
7.20288
7.2557
7.45305
8.10139
9.68214
11.7543
9.95807
8.15477
6.84663
6.25727
6.37782
7.68197
12.2715
24.1978
43.8297
61.5144
8.98106
7.62524
6.59754
6.11966
6.15869
6.98797
10.1536
19.7505
38.2186
56.8445
8.05104
6.94191
6.13424
5.80069
5.82855
6.34857
8.36904
15.1412
30.6009
49.1841
7.28947
6.38032
5.81064
5.62515
5.66294
5.98524
7.24076
11.744
23.598
40.5162
6.82009
6.05837
5.6598
5.56582
5.60748
5.81385
6.62148
9.69793
18.6523
33.2416
6.4991
5.87489
5.60634
5.56958
5.61505
5.75275
6.26655
8.36865
15.0726
27.3057
6.40702
5.92813
5.76562
5.76799
5.81083
5.89493
6.18156
7.48879
12.1809
21.9677
5.66857
5.48243
5.44984
5.4637
5.48296
5.50491
5.55753
5.86907
7.56913
13.5065
7.43501
7.4203
7.41262
7.40873
7.40742
7.40896
7.41493
7.43212
7.50798
7.85041
7.24861
7.14541
7.06832
7.0358
7.03607
7.0799
7.24557
7.79321
9.16735
11.0329
9.37521
7.77448
6.58514
6.04242
6.12143
7.19666
11.0527
21.5551
39.9775
57.7778
8.45518
7.24133
6.30461
5.86722
5.88981
6.58499
9.21386
17.3988
34.1723
52.4668
7.62078
6.60704
5.88112
5.58104
5.59322
6.02138
7.68577
13.3157
26.8174
44.3149
6.89094
6.0807
5.58892
5.42407
5.43989
5.68714
6.6977
10.37
20.3826
35.5936
6.44374
5.79434
5.46451
5.37912
5.39541
5.53621
6.15451
8.60861
16.0142
28.6791
6.14003
5.63133
5.41681
5.37891
5.39729
5.47813
5.84237
7.46211
12.9269
23.3453
6.09839
5.72384
5.59864
5.59383
5.61273
5.65372
5.83763
6.80252
10.5885
18.9442
5.50991
5.37032
5.34678
5.35545
5.3651
5.37261
5.39806
5.60989
6.93992
12.0168
7.25543
7.24444
7.23882
7.23605
7.2352
7.23648
7.24102
7.25387
7.31446
7.61575
7.05589
6.96164
6.89169
6.86235
6.86157
6.89709
7.03281
7.48265
8.64446
10.2889
8.89627
7.44537
6.35631
5.85682
5.90111
6.7738
9.94713
18.9658
35.8942
53.5497
8.05485
6.94128
6.08067
5.68049
5.6878
6.26385
8.42205
15.2667
30.1757
47.8048
7.2763
6.34531
5.69963
5.43496
5.43598
5.78387
7.14395
11.7732
23.3761
39.547
6.56285
5.85213
5.43784
5.29688
5.30005
5.48893
6.29712
9.28066
17.6882
31.2325
6.14115
5.6017
5.33681
5.26359
5.26647
5.36376
5.83704
7.79535
13.9442
25.0165
5.85646
5.45482
5.28898
5.2542
5.25856
5.30678
5.56848
6.82196
11.3148
20.4061
5.85901
5.57631
5.48281
5.47445
5.48019
5.49836
5.61953
6.34161
9.42623
16.7982
5.38161
5.28104
5.26458
5.26962
5.27375
5.27427
5.28607
5.43413
6.4782
10.8611
7.06614
7.05841
7.05451
7.05263
7.05211
7.05311
7.05636
7.06559
7.11276
7.37207
6.85175
6.76697
6.70549
6.68002
6.67864
6.70653
6.81425
7.17142
8.12051
9.53129
8.46874
7.13746
6.14695
5.69487
5.71231
6.40599
8.95118
16.455
31.5772
48.7344
7.71765
6.68264
5.89824
5.53861
5.53404
6.00312
7.74565
13.3304
26.2193
42.7875
6.96755
6.1219
5.56183
5.33582
5.33
5.60705
6.70116
10.4439
20.2078
34.8145
6.27386
5.66855
5.33148
5.21584
5.21262
5.35559
5.9924
8.38678
15.3678
27.2813
5.8901
5.45775
5.25235
5.19234
5.18905
5.25744
5.61716
7.16418
12.2467
21.9545
5.63005
5.32509
5.20117
5.17138
5.16952
5.19992
5.39007
6.354
10.0355
18.0748
5.67469
5.46925
5.40107
5.3912
5.39052
5.39814
5.48105
6.02286
8.52404
15.1048
5.27996
5.21059
5.1994
5.20202
5.2034
5.20159
5.20759
5.31308
6.12055
9.84459
6.86642
6.86139
6.85885
6.85765
6.85736
6.85806
6.86025
6.86653
6.90189
7.1153
6.63443
6.56061
6.50903
6.48806
6.48649
6.50751
6.58972
6.86211
7.60571
8.77506
8.04539
6.82777
5.94818
5.55317
5.55224
6.08853
8.06612
14.0724
27.0926
43.3019
7.38856
6.43203
5.73687
5.42577
5.41411
5.7865
7.16064
11.5825
22.3528
37.4447
6.65895
5.91429
5.44885
5.26479
5.25605
5.47047
6.32843
9.28174
17.2888
30.1516
6.006
5.51328
5.25169
5.16129
5.15591
5.2626
5.752
7.63009
13.3249
23.678
5.6767
5.34589
5.19301
5.14585
5.14074
5.18992
5.45908
6.65387
10.7901
19.2965
5.44739
5.22636
5.13701
5.11279
5.10928
5.13062
5.26964
5.99623
8.95711
16.0716
5.53194
5.38798
5.33892
5.32876
5.32577
5.32992
5.38941
5.79131
7.77487
13.5967
5.20078
5.15517
5.14779
5.14898
5.14939
5.14778
5.15214
5.22762
5.83157
8.88152
6.65556
6.65259
6.65106
6.65037
6.65021
6.65065
6.652
6.65601
6.68115
6.84661
6.40341
6.34243
6.30185
6.28572
6.28428
6.29936
6.35909
6.55704
7.11099
8.03933
7.58803
6.50205
5.75547
5.42886
5.41811
5.81758
7.29407
11.8803
22.5767
37.3193
7.02294
6.16728
5.58292
5.3298
5.31621
5.60133
6.64908
10.0222
18.6628
31.9043
6.33264
5.71213
5.34914
5.20865
5.20016
5.35979
6.00713
8.25713
14.6159
25.6476
5.75409
5.37723
5.18614
5.1194
5.11459
5.19282
5.55525
6.97501
11.4927
20.3786
5.49382
5.25447
5.14578
5.11025
5.10583
5.14229
5.33862
6.22683
9.48955
16.8787
5.29922
5.14714
5.08502
5.06627
5.06357
5.08074
5.18227
5.71037
8.00206
14.189
5.41823
5.32
5.28463
5.27499
5.27207
5.27641
5.32132
5.61161
7.11932
12.1075
5.14004
5.11167
5.10704
5.10755
5.10797
5.10763
5.11205
5.16515
5.59326
7.95157
6.43289
6.43138
6.43057
6.4302
6.43012
6.43036
6.43109
6.43342
6.45007
6.56883
6.15962
6.11305
6.08377
6.07241
6.07128
6.08144
6.12217
6.25759
6.64541
7.34374
7.07623
6.15856
5.56852
5.31903
5.30605
5.58895
6.6353
9.93925
18.2229
30.9888
6.59779
5.88233
5.43003
5.24133
5.23012
5.43764
6.19867
8.64981
15.2489
26.3818
5.99237
5.51632
5.25663
5.15798
5.15185
5.26485
5.72669
7.3546
12.1903
21.3922
5.52315
5.2567
5.12678
5.08067
5.07792
5.13418
5.38915
6.40385
9.82895
17.3093
5.33845
5.17551
5.10178
5.0762
5.0737
5.10163
5.23975
5.8629
8.30123
14.5481
5.17917
5.07983
5.0381
5.02433
5.02347
5.03875
5.11214
5.47498
7.13818
12.2815
5.32221
5.25543
5.2295
5.22095
5.21924
5.2252
5.26054
5.46159
6.53415
10.5593
5.09441
5.07797
5.07534
5.07566
5.07645
5.07746
5.08216
5.11782
5.3984
7.07889
6.19795
6.19736
6.19701
6.19685
6.19681
6.1969
6.19722
6.19838
6.20837
6.28553
5.90548
5.87372
5.8549
5.84777
5.84704
5.85332
5.87878
5.96412
6.21444
6.70421
6.51929
5.81117
5.39123
5.2206
5.21073
5.39751
6.0874
8.2939
14.2437
24.6444
6.12679
5.5904
5.27874
5.15344
5.14697
5.28792
5.80281
7.46666
12.1953
21.1197
5.66214
5.3355
5.1689
5.10634
5.10341
5.17861
5.48292
6.5725
10.0165
17.4129
5.32319
5.15099
5.06927
5.03962
5.03931
5.07897
5.24644
5.91361
8.32201
14.3594
5.2089
5.10419
5.05629
5.03876
5.03841
5.06032
5.15295
5.55494
7.22364
12.1866
5.08276
5.02066
4.99349
4.98396
4.98489
4.99882
5.05061
5.28062
6.37311
10.2959
5.23463
5.18804
5.16868
5.16157
5.16131
5.16878
5.19707
5.3286
6.02209
8.9729
5.06155
5.05309
5.0519
5.05226
5.05336
5.05519
5.05957
5.08137
5.24535
6.31385
5.95045
5.95037
5.95029
5.95025
5.95022
5.95023
5.95029
5.95071
5.9559
5.99986
5.64442
5.62602
5.61573
5.61191
5.61154
5.61498
5.62896
5.67647
5.82
6.13007
5.96325
5.48796
5.23097
5.13116
5.12659
5.23793
5.64615
6.96744
10.8144
18.6479
5.66429
5.31972
5.13501
5.06284
5.06109
5.14834
5.46168
6.47906
9.55829
16.2719
5.37472
5.1799
5.08588
5.05057
5.05047
5.09703
5.27634
5.9224
8.11792
13.6534
5.1623
5.06086
5.0132
4.9955
4.99704
5.02425
5.12483
5.51228
7.00401
11.4386
5.10307
5.03903
5.00912
4.99779
4.99905
5.01612
5.07458
5.30474
6.29716
9.785
5.00709
4.96965
4.95256
4.94639
4.9484
4.9604
4.99534
5.12587
5.74307
8.32197
5.15034
5.1169
5.10251
5.09703
5.09785
5.10575
5.12792
5.20798
5.60018
7.47
5.03978
5.03657
5.0364
5.03682
5.03793
5.03982
5.04305
5.05399
5.13372
5.70949
5.69042
5.69056
5.69061
5.69063
5.69062
5.69058
5.69052
5.69053
5.69266
5.7135
5.38002
5.37158
5.36718
5.36558
5.36545
5.367
5.3732
5.3946
5.46193
5.62557
5.47944
5.22217
5.09703
5.05096
5.05075
5.10693
5.30809
5.96659
8.04843
13.2132
5.28284
5.10074
5.00885
4.97323
4.97421
5.02171
5.18327
5.70445
7.39213
11.8418
5.15388
5.05499
5.0086
4.99082
4.99224
5.01866
5.10897
5.42376
6.56704
10.0827
5.0417
4.98688
4.96091
4.95106
4.9533
4.97094
5.02473
5.21119
5.9539
8.62124
5.0177
4.98053
4.96279
4.95598
4.95789
4.97037
5.00448
5.11601
5.58691
7.53644
4.95006
4.92865
4.9185
4.91481
4.91692
4.92607
4.9479
5.0119
5.28897
6.60656
5.06891
5.04561
5.03558
5.0318
5.03305
5.04
5.0562
5.1008
5.28454
6.2317
5.02494
5.02504
5.02554
5.02594
5.02675
5.02805
5.02959
5.03268
5.05914
5.29477
5.41837
5.41854
5.41863
5.41867
5.41866
5.41862
5.41852
5.41839
5.41891
5.42631
5.11339
5.11077
5.10957
5.10915
5.10913
5.10961
5.11136
5.11743
5.13766
5.19385
5.12892
5.03274
4.99175
4.97764
4.97878
4.99887
5.06629
5.28682
6.04257
8.43341
5.03045
4.95021
4.91158
4.89635
4.89744
4.91802
4.97974
5.16709
5.80318
7.89803
5.0011
4.95717
4.93667
4.92848
4.9297
4.94238
4.97798
5.08578
5.48236
6.98221
4.95286
4.92543
4.91254
4.90758
4.90924
4.91888
4.94275
5.0088
5.25574
6.30724
4.94632
4.92662
4.91727
4.9137
4.91519
4.92267
4.93971
4.982
5.13405
5.84231
4.90729
4.89627
4.89094
4.889
4.89045
4.89595
4.90748
4.93309
5.01925
5.4545
4.98738
4.97336
4.96747
4.96536
4.96647
4.97124
4.98127
5.00294
5.06832
5.404
4.99697
4.99835
4.99899
4.99924
4.99962
5.00018
5.00036
4.99936
5.00026
5.05231
5.13477
5.13486
5.13492
5.13495
5.13495
5.13492
5.13485
5.13473
5.13468
5.13617
22.3198
22.3263
22.1434
21.7883
242.906
233.1
226.869
226.671
308.101
297.378
288.817
284.723
377.157
366.846
356.242
348.448
438.722
426.904
410.994
394.962
490.666
475.88
452.649
426.136
521.922
503.331
472.162
434.926
510.427
488.201
450.305
404.492
394.22
371.922
333.779
287.367
13.3744
13.0934
12.461
11.7331
19.787
19.6907
19.431
19.0781
284.066
260.351
239.655
226.019
370.864
345.723
320.887
299.421
461.828
440.545
413.186
382.137
548.446
532.047
499.173
456.331
626.106
616.249
577.281
521.594
677.091
674.739
631.103
564.031
669.875
674.837
629.64
556.355
513.367
522.384
484.454
419.96
13.0668
13.1165
12.7326
11.9317
17.3413
17.219
16.9982
16.7103
136.868
128.721
119.002
109.929
181.094
170.211
155.142
139.407
233.112
221.194
201.214
177.937
286.916
275.463
250.729
218.476
339.713
330.076
300.853
258.56
379.286
372.175
339.397
287.81
382.821
378.648
345.163
288.636
287.463
284.076
257.078
210.665
11.1656
11.1256
10.8755
10.5131
16.2683
16.1634
15.9629
15.6862
89.34
82.2826
75.7657
71.3842
108.089
98.6829
89.3373
82.6344
132.073
121.219
109.349
100.115
157.419
145.499
130.787
118.14
182.923
170.41
152.564
135.543
201.59
188.88
168.016
146.425
200.586
188.526
166.254
141.979
145.828
135.696
117.469
98.2054
10.2026
10.1458
9.98823
9.80729
15.4606
15.3881
15.2136
14.9463
73.0332
67.6681
63.0161
60.0547
80.4122
73.7914
67.7331
63.7016
90.9547
83.8527
76.8461
71.9144
101.849
94.4721
86.3968
80.2088
112.884
105.398
96.0691
88.1554
120.049
112.576
101.954
92.0951
116.02
109.051
97.8977
86.8322
80.9388
75.3691
66.4345
57.6135
9.59294
9.553
9.45285
9.3382
14.7531
14.7023
14.5458
14.2862
66.4764
61.9359
58.1215
55.8013
68.4155
63.2169
58.6268
55.6949
71.8929
66.7554
61.8537
58.4813
74.8433
69.8816
64.6299
60.6735
77.6334
72.8716
67.2044
62.5394
77.9982
73.4082
67.3216
61.95
71.7107
67.4844
61.3923
55.7719
46.6724
43.2954
38.6508
34.5399
9.11266
9.08182
9.01504
8.94145
14.075
14.037
13.893
13.6413
63.0301
59.0508
55.7678
53.8418
62.336
58.0809
54.3994
52.1276
61.8859
58.0058
54.3293
51.794
60.2839
56.8112
53.0797
50.1549
58.3862
55.2381
51.396
48.0684
54.9914
52.0538
48.1252
44.5415
47.6806
44.9916
41.2722
37.8717
28.9857
26.8559
24.2575
22.1955
8.73018
8.70688
8.66318
8.61837
13.3944
13.3624
13.2271
12.9848
60.6361
57.0826
54.1733
52.5061
58.6
55.0454
51.9949
50.1583
55.8562
52.8703
50.0163
48.0219
51.5279
49.0602
46.3055
44.0268
46.9218
44.7888
42.038
39.4817
41.5791
39.6025
36.8599
34.2107
34.2193
32.3722
29.8651
27.5349
20.1985
18.7621
17.1739
16.0469
8.42623
8.40808
8.37972
8.35448
12.6953
12.6649
12.5368
12.3065
58.4782
55.2969
52.6841
51.1894
55.6681
52.6853
50.1071
48.5519
51.4866
49.1807
46.9092
45.259
45.5173
43.7692
41.6889
39.8426
39.4306
37.9795
35.9613
33.9394
33.2449
31.8698
29.8861
27.8672
26.4287
25.0835
23.2982
21.6217
15.9573
14.94
13.8917
13.2222
8.17061
8.15546
8.13629
8.12321
11.9711
11.9399
11.8188
11.604
56.1985
53.3696
51.0106
49.6275
52.8489
50.3591
48.1503
46.765
47.673
45.8919
44.0351
42.5873
40.7319
39.4856
37.8635
36.3002
33.9835
32.9686
31.441
29.807
27.6738
26.6617
25.1832
23.6395
21.71
20.6665
19.3488
18.1425
13.8209
13.0746
12.3418
11.9244
7.93469
7.9215
7.90777
7.90217
11.2205
11.1876
11.0744
10.8788
53.5805
51.0984
48.9663
47.6473
49.7845
47.7314
45.82
44.5232
43.8755
42.4975
40.9359
39.5966
36.4265
35.507
34.1869
32.8129
29.5949
28.8245
27.6139
26.275
23.6434
22.8229
21.6764
20.5085
18.6651
17.7957
16.79
15.9463
12.5966
12.0412
11.5137
11.2555
7.70086
7.68965
7.67951
7.67848
10.4472
10.4125
10.3086
10.1353
50.4619
48.3209
46.3934
45.101
46.2676
44.5971
42.9248
41.66
39.8425
38.76
37.4059
36.126
32.2832
31.5479
30.4214
29.1946
25.8097
25.1422
24.1323
23.042
20.5335
19.7917
18.8634
18.0072
16.5565
15.7865
14.9952
14.441
11.7461
11.3378
10.9567
10.8059
7.45978
7.45108
7.44361
7.44508
9.6596
9.62344
9.53028
9.3815
46.7041
44.889
43.1442
41.8538
42.1737
40.8222
39.3383
38.0776
35.4942
34.604
33.3938
32.1678
28.222
27.5579
26.5561
25.4795
22.4597
21.8043
20.9264
20.0713
18.0421
17.3221
16.5458
15.9589
14.9928
14.2923
13.6583
13.3371
11.0148
10.7306
10.4603
10.3785
7.20636
7.20056
7.19477
7.1965
8.8716
8.83432
8.75288
8.63011
42.2009
40.6804
39.0971
37.8069
37.4615
36.3505
35.0118
33.7633
30.8775
30.0831
28.9756
27.84
24.305
23.634
22.722
21.8279
19.5107
18.8286
18.0523
17.4329
16.0067
15.3012
14.6461
14.293
13.7418
13.1155
12.6102
12.4709
10.27
10.0961
9.91163
9.86457
6.9364
6.93388
6.92944
6.93006
8.10251
8.06456
7.99543
7.89917
36.9211
35.6443
34.2067
32.9504
32.2056
31.2459
30.0232
28.8393
26.1624
25.3874
24.3678
23.3912
20.6664
19.9578
19.1312
18.4599
16.9581
16.2618
15.5853
15.1965
14.2959
13.6373
13.0969
12.9368
12.6284
12.1043
11.7162
11.7044
9.44023
9.36423
9.24506
9.20337
6.65075
6.65129
6.64787
6.64667
7.37569
7.33823
7.28181
7.21168
30.9869
29.8892
28.596
27.4522
26.6482
25.759
24.6471
23.6211
21.6168
20.8295
19.9124
19.1718
17.4298
16.7095
15.9892
15.5625
14.7502
14.0959
13.5356
13.3505
12.7548
12.1996
11.7808
11.7596
11.4984
11.1134
10.8372
10.8893
8.50478
8.50815
8.43541
8.37905
6.35263
6.35529
6.35265
6.34976
6.71437
6.68011
6.63692
6.59112
24.7572
23.7849
22.6599
21.7413
21.2072
20.3522
19.3786
18.6156
17.5099
16.7461
15.9732
15.5149
14.6111
13.9565
13.3781
13.1761
12.744
12.2115
11.7899
11.7512
11.1989
10.8053
10.5154
10.5621
10.2251
10.0057
9.83056
9.87727
7.49908
7.55242
7.50871
7.43376
6.04717
6.05055
6.04854
6.04487
6.13411
6.10718
6.07764
6.05218
18.7983
17.9528
17.0515
16.457
16.3287
15.5533
14.7766
14.335
13.9373
13.2954
12.7203
12.5232
12.0509
11.5595
11.1557
11.1093
10.72
10.3775
10.106
10.1296
9.46777
9.26351
9.09459
9.13346
8.75237
8.68976
8.5918
8.57987
6.517
6.58117
6.55302
6.4757
5.74032
5.74303
5.74159
5.73842
5.63502
5.61872
5.60221
5.59108
13.5583
12.922
12.3152
12.0549
12.1533
11.5722
11.0534
10.8888
10.6961
10.2806
9.93532
9.90246
9.47305
9.20255
8.97538
8.98285
8.51014
8.36262
8.22037
8.22646
7.56058
7.50565
7.42311
7.41195
7.16539
7.19341
7.13902
7.07188
5.69048
5.72932
5.70992
5.65773
5.43692
5.43828
5.4374
5.43561
5.20328
5.19692
5.1909
5.18809
8.89992
8.56182
8.27102
8.22211
8.33818
8.02147
7.7497
7.71132
7.51085
7.31709
7.15083
7.15045
6.84008
6.72402
6.61002
6.6018
6.32381
6.26585
6.19074
6.17284
5.84143
5.82108
5.77466
5.75178
5.77279
5.78526
5.74834
5.70079
5.13886
5.14071
5.12906
5.11606
5.13804
5.1384
5.13805
5.13749
20.1808
17.1862
15.1489
13.6271
12.4367
11.526
10.8526
10.3615
9.98329
9.64086
261.697
153.776
104.249
77.6473
61.4749
51.1957
44.6049
40.2797
37.0378
33.5672
312.112
157.158
104.692
76.75
60.0196
49.4591
42.9152
38.921
36.2495
33.5525
354.827
165.001
108.225
76.9989
58.0274
45.6465
37.8175
33.0723
30.173
27.7634
370.886
167.827
107.301
73.3163
52.8082
39.3949
31.0732
26.2572
23.6211
21.7907
374.503
164.279
101.201
66.3253
46.0016
33.1401
25.555
21.3902
19.2638
17.8858
360.494
150.901
88.6601
56.0674
38.2435
27.5539
21.5633
18.3041
16.6054
15.4451
315.093
123.354
68.9319
42.9331
29.8889
22.2815
17.9996
15.5345
14.1825
13.1909
200.839
69.0056
35.4901
21.5941
15.3068
11.8653
10.1525
9.26463
8.80767
8.41131
10.7773
9.70043
9.21653
8.98964
8.87797
8.82103
8.7884
8.76612
8.74765
8.72757
17.9432
16.1253
14.5379
13.1691
12.04
11.1576
10.5046
10.04
9.70458
9.42954
183.241
122.956
90.9756
70.0795
56.22
46.85
40.6072
36.5235
33.6901
31.0284
218.205
132.433
95.0616
71.6072
56.185
45.8304
39.1751
35.146
32.6895
30.5971
258.287
146.154
101.836
74.0691
55.626
43.0185
34.8272
29.9
27.1015
25.1741
292.282
154.899
103.679
71.9799
51.3602
37.5367
28.8435
23.8727
21.3128
19.8648
316.41
157.176
100.169
66.1981
45.2346
31.9161
24.044
19.7871
17.717
16.6246
321.057
149.031
89.7453
56.7176
37.931
26.8191
20.6234
17.3096
15.6374
14.686
292.884
126.01
71.5187
44.0391
29.9554
21.9963
17.5454
15.0211
13.6766
12.8486
193.684
74.2722
38.1862
22.5528
15.5115
11.8524
10.0406
9.11711
8.66857
8.37358
10.6002
9.63392
9.11971
8.86737
8.74658
8.68672
8.65297
8.63032
8.61247
8.59512
16.0296
14.7598
13.475
12.2947
11.3051
10.538
9.98095
9.59393
9.32126
9.09942
95.4396
79.341
66.4494
55.4227
46.4727
39.6205
34.7234
31.4257
29.145
26.9892
113.175
89.2413
72.5507
58.4706
47.3061
39.0461
33.4844
30.1013
28.1152
26.4628
136.787
102.642
80.5525
61.8945
47.3679
36.7559
29.6929
25.4906
23.2222
21.7635
157.601
111.769
83.7242
60.7143
43.7207
31.9315
24.5227
20.4093
18.4226
17.4114
173.599
115.556
82.0775
56.1748
38.5438
27.2464
20.6713
17.2341
15.6566
14.9129
177.907
110.744
74.3666
48.4824
32.5875
23.2445
18.1112
15.4316
14.13
13.4539
162.427
94.3773
60.1504
38.2882
26.271
19.5206
15.7624
13.6745
12.6054
12.0028
106.035
55.7795
32.4069
19.759
13.7676
10.7912
9.34829
8.62228
8.28156
8.07402
9.99779
9.33359
8.92551
8.71555
8.61738
8.56927
8.54096
8.52049
8.50367
8.48758
15.05
13.8694
12.6599
11.5671
10.6711
9.99447
9.51654
9.19467
8.97535
8.80028
66.6861
60.7657
53.5316
46.0132
39.2017
33.6612
29.5714
26.7889
24.8889
23.1195
75.1703
66.8439
57.328
47.6427
39.1262
32.4916
27.9222
25.1578
23.5992
22.3378
88.9411
76.6901
63.2603
49.9312
38.6181
30.0754
24.3651
21.0509
19.3796
18.3895
101.397
83.6043
65.4246
48.4327
35.0616
25.7119
19.9465
16.8917
15.5579
14.9843
111.318
86.8481
64.0976
44.5838
30.7272
21.9546
16.9994
14.536
13.5207
13.1376
114.187
83.7753
58.3032
38.6261
26.2139
19.0612
15.2214
13.2952
12.4428
12.0754
104.858
72.1559
47.7745
31.085
21.6634
16.4351
13.5609
12.0298
11.3181
10.98
69.066
42.7845
25.659
16.1149
11.659
9.5467
8.52942
8.02299
7.80218
7.68893
9.59066
9.03626
8.70079
8.53924
8.46734
8.43157
8.40895
8.39155
8.37701
8.36326
14.2951
13.1433
11.9785
10.9495
10.1275
9.52417
9.11119
8.84298
8.6679
8.53288
56.9625
52.4426
46.5419
40.1755
34.2209
29.265
25.5583
23.0318
21.3386
19.8234
59.5288
54.2114
47.2316
39.6797
32.7291
27.1604
23.2811
20.9517
19.6882
18.7078
66.488
59.3661
49.9019
39.8845
31.0165
24.2234
19.7233
17.2052
16.0466
15.4312
72.7316
62.6211
49.8774
37.3412
27.1921
20.1425
15.9292
13.8359
13.0649
12.8359
77.7538
63.8441
47.8742
33.7066
23.4942
17.1597
13.7127
12.1171
11.5924
11.5012
78.443
61.0728
43.2138
29.1631
20.2199
15.1648
12.5216
11.2811
10.8444
10.7421
71.2352
52.6297
35.6836
23.9397
17.1715
13.4422
11.4338
10.4389
10.0695
9.96029
45.5909
30.6115
19.0003
12.6993
9.79889
8.44622
7.78309
7.45806
7.33983
7.29956
9.19075
8.7315
8.47639
8.36344
8.31401
8.2878
8.2697
8.25503
8.24263
8.231
13.6286
12.5026
11.3819
10.409
9.65084
9.11088
8.75361
8.5309
8.39303
8.29166
53.3311
48.8859
43.076
36.8186
30.97
26.1152
22.5056
20.073
18.4895
17.1612
52.6044
47.8386
41.5072
34.6361
28.2854
23.2048
19.6937
17.6183
16.5352
15.7543
54.6051
48.8117
40.9803
32.6386
25.2505
19.6703
16.0796
14.1693
13.3891
13.0432
55.6763
48.2034
38.4464
28.7838
21.0199
15.7795
12.7905
11.4293
11.0649
11.0725
56.2194
46.7696
35.2689
25.0267
17.7385
13.3628
11.0913
10.1493
9.98534
10.1011
54.4259
43.3793
31.1173
21.4597
15.3552
11.9784
10.2758
9.56985
9.45597
9.55251
47.9922
36.9056
25.7608
17.9639
13.4039
10.9172
9.62752
9.06582
8.96478
9.02662
29.4278
21.0972
13.9298
10.1306
8.38264
7.56153
7.15099
6.95932
6.91812
6.9295
8.83544
8.45841
8.26914
8.19147
8.15725
8.1377
8.12317
8.1109
8.10051
8.09087
12.9895
11.8999
10.8301
9.91492
9.21904
8.73846
8.43181
8.24924
8.14332
8.07014
51.7095
47.0716
41.0078
34.5297
28.5378
23.631
20.0449
17.6798
16.1971
15.0429
49.596
44.6921
38.2356
31.3529
25.1112
20.2282
16.9353
15.0377
14.0881
13.4653
48.5341
42.7932
35.3422
27.6624
21.0785
16.3027
13.3724
11.9071
11.3909
11.2275
45.9492
39.1553
30.7687
22.7706
16.603
12.6468
10.5237
9.66045
9.55568
9.7056
43.032
35.3755
26.4985
18.8585
13.6327
10.6345
9.16829
8.661
8.72747
8.9685
39.1228
31.1717
22.556
15.9165
11.8178
9.61446
8.5659
8.22659
8.32694
8.5499
33.0211
25.924
18.6578
13.5637
10.5859
9.00026
8.22899
7.96771
8.04363
8.21386
19.8643
15.0547
10.6991
8.41811
7.3699
6.87795
6.63383
6.53336
6.54422
6.58803
8.54296
8.22456
8.07635
8.01994
7.99524
7.98043
7.96883
7.95874
7.95024
7.9425
12.3515
11.3128
10.3023
9.45043
8.81852
8.396
8.13673
7.99027
7.91204
7.86232
50.553
45.6736
39.2941
32.5463
26.3905
21.4477
17.926
15.6754
14.3302
13.3633
47.9311
42.7146
35.9106
28.8205
22.5636
17.8281
14.7476
13.0349
12.2221
11.7446
45.0768
39.0281
31.4908
24.0543
17.9783
13.808
11.3944
10.2689
9.94225
9.90302
40.223
33.4794
25.6811
18.6598
13.563
10.496
8.95876
8.41551
8.46345
8.68874
35.08
28.1925
20.7966
14.7931
10.9116
8.80115
7.84079
7.59508
7.78806
8.0895
29.8063
23.4689
17.0374
12.2841
9.45541
7.99368
7.35552
7.23666
7.45399
7.73986
24.043
19.0593
14.0825
10.6381
8.66757
7.66236
7.21928
7.13706
7.3082
7.53255
14.8903
11.7102
8.80483
7.31835
6.65816
6.36047
6.22124
6.17918
6.22087
6.28151
8.29856
8.0154
7.88942
7.84533
7.82677
7.81549
7.80635
7.79823
7.79151
7.78561
11.7043
10.7304
9.78818
9.00609
8.44106
8.07608
7.86151
7.74763
7.69335
7.66293
49.287
44.1384
37.4537
30.4835
24.243
19.3643
16.0056
13.9482
12.7918
12.0303
46.4269
40.8517
33.7037
26.4448
20.2442
15.7405
12.9415
11.4578
10.8046
10.4714
42.4255
36.0215
28.3529
21.1184
15.5155
11.899
9.93341
9.08645
8.90687
8.95785
36.2764
29.4759
22.0447
15.7376
11.4454
9.02498
7.89061
7.55303
7.68767
7.94755
30.0045
23.5706
17.1056
12.1696
9.15993
7.60909
6.95572
6.85634
7.10534
7.42306
24.19
18.8063
13.6593
10.0298
7.96075
6.94203
6.54276
6.53884
6.80159
7.10352
18.9689
15.0948
11.3448
8.82533
7.44322
6.78014
6.52443
6.53356
6.74013
6.97812
12.5291
9.93823
7.68914
6.60464
6.15847
5.97445
5.89915
5.89175
5.94795
6.01367
8.07758
7.81481
7.70187