/*--------------------------------*- C++ -*----------------------------------*\
| =========                 |                                                 |
| \\      /  F ield         | foam-extend: Open Source CFD                    |
|  \\    /   O peration     | Version:     4.0                                |
|   \\  /    A nd           | Web:         http://www.foam-extend.org         |
|    \\/     M anipulation  |                                                 |
\*---------------------------------------------------------------------------*/
FoamFile
{
    version     2.0;
    format      ascii;
    class       volScalarField;
    location    "100";
    object      MaU;
}
// * * * * * * * * * * * * * * * * * * * * * * * * * * * * * * * * * * * * * //

dimensions      [0 0 0 0 0 0 0];

internalField   nonuniform List<scalar> 
34480
(
0.432397
0.437228
0.44079
0.443899
0.446741
0.449382
0.451765
0.452629
0.448481
0.442482
0.416983
0.426024
0.432716
0.437574
0.440951
0.442406
0.440836
0.435601
0.424848
0.421674
0.415538
0.424495
0.431292
0.436808
0.441617
0.445285
0.445917
0.442792
0.433629
0.435622
0.41858
0.427135
0.433713
0.439399
0.444812
0.449901
0.452878
0.45272
0.446204
0.453671
0.422216
0.43055
0.437036
0.442877
0.448636
0.454627
0.459631
0.462596
0.459272
0.47186
0.424288
0.432754
0.439434
0.445598
0.451718
0.458327
0.464874
0.470765
0.471107
0.488407
0.425684
0.434513
0.441577
0.448175
0.454682
0.461732
0.469361
0.477771
0.482101
0.503649
0.426737
0.436181
0.443849
0.450909
0.457638
0.464722
0.472684
0.482795
0.491269
0.516843
0.428466
0.439315
0.448343
0.45644
0.463705
0.470906
0.478889
0.489855
0.501917
0.530312
0.428202
0.439847
0.449409
0.457304
0.463561
0.469003
0.474927
0.484311
0.498363
0.530823
0.429943
0.434601
0.437623
0.439803
0.44128
0.441854
0.44094
0.436807
0.428137
0.412693
0.414652
0.423464
0.429732
0.433918
0.436342
0.436447
0.432454
0.422306
0.405237
0.386834
0.413903
0.422553
0.428876
0.433645
0.437354
0.439566
0.437835
0.42955
0.413285
0.39881
0.417273
0.425481
0.431583
0.436509
0.440748
0.444208
0.444659
0.439108
0.424725
0.414936
0.421023
0.429027
0.435056
0.440151
0.444709
0.448923
0.451146
0.448555
0.436721
0.431689
0.423162
0.431315
0.437539
0.442963
0.447876
0.452623
0.456127
0.456298
0.447585
0.4474
0.424728
0.433219
0.439791
0.445629
0.450916
0.456071
0.460467
0.463006
0.457843
0.4625
0.425881
0.434925
0.442041
0.448324
0.453873
0.459146
0.463844
0.467978
0.466616
0.476286
0.428081
0.438256
0.446516
0.453712
0.459798
0.465327
0.470203
0.475237
0.477274
0.490965
0.428353
0.439102
0.447901
0.455073
0.460531
0.464869
0.468423
0.472616
0.477143
0.496266
0.428431
0.432634
0.435107
0.436636
0.437361
0.437128
0.435499
0.431354
0.422454
0.406219
0.413067
0.42132
0.426966
0.430465
0.432108
0.431345
0.42645
0.415472
0.397039
0.373339
0.412584
0.420688
0.426427
0.430519
0.433359
0.434428
0.431394
0.42141
0.401872
0.37699
0.415968
0.423689
0.429276
0.433552
0.436896
0.439042
0.437788
0.429753
0.410272
0.385555
0.419638
0.427239
0.43281
0.437277
0.440942
0.443772
0.443961
0.438226
0.419664
0.395964
0.421721
0.42952
0.435306
0.440111
0.44414
0.447491
0.44873
0.445195
0.428269
0.406249
0.423352
0.431487
0.437599
0.442803
0.447199
0.450979
0.452998
0.451416
0.436757
0.416887
0.4246
0.43323
0.43982
0.445433
0.450104
0.45409
0.456483
0.456321
0.444414
0.427129
0.427435
0.436907
0.444392
0.450735
0.455837
0.460101
0.462832
0.463724
0.454556
0.438891
0.428373
0.438154
0.446079
0.452432
0.457082
0.460469
0.462358
0.463054
0.456615
0.443656
0.427228
0.430865
0.432815
0.433854
0.434139
0.433601
0.431963
0.428513
0.421565
0.408221
0.411519
0.419066
0.424056
0.426946
0.428037
0.426889
0.421924
0.411391
0.394468
0.372506
0.411186
0.418598
0.423688
0.4271
0.429194
0.429531
0.426045
0.41601
0.397523
0.373384
0.414495
0.42163
0.426642
0.43023
0.432717
0.433843
0.431664
0.422937
0.403762
0.378375
0.418065
0.425189
0.43024
0.434024
0.436783
0.438414
0.437254
0.430152
0.410946
0.384931
0.420099
0.427477
0.432763
0.436882
0.439983
0.442045
0.441606
0.436037
0.417354
0.391301
0.421788
0.429513
0.43511
0.439607
0.443058
0.445515
0.445648
0.441448
0.423868
0.398308
0.423126
0.431302
0.437322
0.442199
0.445924
0.448621
0.449092
0.445945
0.430043
0.405538
0.426415
0.435197
0.44192
0.447406
0.451504
0.454446
0.455231
0.453085
0.439236
0.415271
0.427855
0.436728
0.443832
0.449397
0.453238
0.455605
0.455849
0.453673
0.44244
0.420174
0.426417
0.429481
0.430984
0.431691
0.431783
0.431259
0.429966
0.427396
0.422121
0.411066
0.41028
0.417047
0.421393
0.423781
0.424532
0.423324
0.418746
0.409146
0.394042
0.374173
0.409916
0.416556
0.420994
0.423817
0.425373
0.425325
0.421921
0.412613
0.396063
0.374172
0.413026
0.419518
0.423951
0.426925
0.428743
0.429184
0.42665
0.418213
0.400857
0.377569
0.41644
0.423036
0.427561
0.430716
0.43273
0.433469
0.43155
0.424194
0.406453
0.382112
0.418403
0.425307
0.430081
0.433553
0.435864
0.436908
0.435392
0.428989
0.411153
0.386102
0.420125
0.427388
0.432458
0.436285
0.438914
0.440281
0.439113
0.433558
0.41599
0.390575
0.421552
0.429223
0.434669
0.438843
0.441733
0.443332
0.442413
0.437558
0.420764
0.395473
0.425223
0.433286
0.439264
0.443943
0.447153
0.448973
0.448298
0.444248
0.428822
0.403432
0.42706
0.435027
0.441323
0.446121
0.449205
0.450669
0.449675
0.445615
0.432379
0.408101
0.425712
0.428285
0.429442
0.429933
0.429954
0.429545
0.428614
0.426728
0.422547
0.412743
0.409205
0.415235
0.419011
0.421009
0.421569
0.420482
0.416469
0.407841
0.394135
0.375591
0.408743
0.414624
0.418458
0.420791
0.421973
0.421787
0.418763
0.410455
0.395715
0.375662
0.41162
0.417472
0.421353
0.423792
0.4251
0.425138
0.422641
0.41498
0.399704
0.378648
0.414873
0.42092
0.424921
0.427506
0.428922
0.429058
0.426837
0.419878
0.404302
0.382437
0.416768
0.423153
0.4274
0.430269
0.431919
0.432224
0.430135
0.423688
0.407853
0.385338
0.418508
0.425252
0.429778
0.432968
0.434889
0.435425
0.433478
0.427456
0.411483
0.388458
0.420013
0.427117
0.431971
0.435476
0.437634
0.43836
0.436545
0.430913
0.41516
0.391964
0.423954
0.431259
0.436505
0.440428
0.442858
0.443767
0.442107
0.437038
0.422172
0.39874
0.42604
0.433104
0.438611
0.442678
0.445074
0.445776
0.443921
0.438823
0.425684
0.403388
0.424927
0.427106
0.428011
0.428366
0.42837
0.428084
0.42744
0.426033
0.42257
0.413575
0.408197
0.413597
0.41691
0.418619
0.419081
0.418187
0.414762
0.407021
0.394342
0.376643
0.407626
0.412836
0.416155
0.418099
0.419032
0.418847
0.416318
0.409048
0.395782
0.377063
0.410301
0.41557
0.418954
0.420947
0.421884
0.421718
0.419471
0.412768
0.399358
0.380121
0.41342
0.418929
0.422428
0.424518
0.425474
0.425243
0.423023
0.416789
0.403352
0.383748
0.415264
0.421103
0.424825
0.427149
0.428272
0.428088
0.425799
0.419779
0.406178
0.386256
0.417018
0.423191
0.427164
0.429769
0.43111
0.43106
0.42875
0.422857
0.40901
0.388761
0.418581
0.425053
0.429307
0.432193
0.433737
0.433819
0.43153
0.425792
0.411913
0.391546
0.422667
0.429177
0.433709
0.436939
0.438714
0.438938
0.436721
0.43134
0.418095
0.397673
0.424844
0.431006
0.435751
0.439137
0.440933
0.441042
0.438691
0.43325
0.42135
0.402595
0.423937
0.425805
0.426531
0.426799
0.426806
0.426614
0.426167
0.42508
0.422105
0.413719
0.407182
0.41209
0.415052
0.416554
0.416972
0.416271
0.413377
0.406396
0.394472
0.377307
0.406525
0.411199
0.41411
0.41576
0.416526
0.416401
0.414362
0.408051
0.395955
0.378175
0.409077
0.413854
0.416814
0.418449
0.419124
0.418877
0.416962
0.411223
0.39938
0.38154
0.412111
0.417114
0.420152
0.421823
0.422443
0.422021
0.419975
0.414581
0.40303
0.385289
0.41393
0.419212
0.422424
0.424274
0.424998
0.424531
0.422295
0.416945
0.405422
0.387756
0.415698
0.421262
0.424686
0.426771
0.427659
0.427244
0.424877
0.419475
0.407767
0.390053
0.41729
0.423079
0.426736
0.429064
0.430117
0.429775
0.427343
0.421944
0.410164
0.39252
0.421398
0.427088
0.430932
0.433543
0.434786
0.434542
0.43212
0.426941
0.415741
0.398409
0.423508
0.428783
0.4328
0.435565
0.436859
0.43655
0.43401
0.428741
0.41861
0.403683
0.422679
0.424292
0.42489
0.425103
0.425114
0.424984
0.424665
0.4238
0.421198
0.413377
0.406129
0.410683
0.413393
0.41475
0.415146
0.414609
0.412165
0.405843
0.394522
0.377747
0.405422
0.409709
0.41232
0.413754
0.414406
0.414346
0.412728
0.40726
0.39612
0.379051
0.40795
0.412338
0.414951
0.416306
0.416798
0.416534
0.414948
0.410086
0.399546
0.382808
0.41095
0.415492
0.418115
0.419445
0.419833
0.419338
0.417544
0.412974
0.403016
0.386798
0.41277
0.417499
0.420232
0.421681
0.42212
0.421527
0.419493
0.414898
0.405172
0.38939
0.414556
0.419489
0.422384
0.42402
0.424575
0.423973
0.421755
0.417031
0.407252
0.391692
0.416139
0.421214
0.424293
0.426132
0.426813
0.426234
0.423899
0.419106
0.409335
0.394057
0.420157
0.425022
0.42822
0.430288
0.431119
0.430597
0.428227
0.423581
0.414463
0.399944
0.422058
0.426477
0.429813
0.432025
0.432916
0.43235
0.429859
0.425098
0.416864
0.405445
0.421138
0.422531
0.423031
0.423207
0.42322
0.423129
0.422893
0.42219
0.419912
0.412683
0.405041
0.409359
0.411894
0.413147
0.413528
0.413115
0.411046
0.405321
0.394546
0.378107
0.404328
0.408365
0.410766
0.412042
0.412609
0.412595
0.411306
0.406567
0.396261
0.379795
0.406927
0.411016
0.41335
0.414488
0.414853
0.414599
0.413293
0.409183
0.399749
0.383936
0.409928
0.414053
0.41631
0.417367
0.417601
0.417108
0.415582
0.411751
0.40312
0.388171
0.411766
0.415956
0.418247
0.419367
0.419616
0.419007
0.417249
0.413395
0.40517
0.390943
0.413569
0.417867
0.420266
0.421528
0.421851
0.421197
0.419249
0.415266
0.407139
0.393352
0.415103
0.419455
0.421991
0.423413
0.423827
0.423157
0.421072
0.417012
0.409027
0.39572
0.418937
0.422999
0.425601
0.427207
0.427734
0.427085
0.424936
0.420991
0.413786
0.401704
0.420511
0.424124
0.426837
0.42857
0.429153
0.428466
0.426188
0.422116
0.41567
0.407201
0.419327
0.420526
0.420945
0.421092
0.421105
0.421037
0.420856
0.420282
0.418312
0.411738
0.40395
0.408118
0.410526
0.411697
0.412061
0.411735
0.409978
0.404829
0.394614
0.378528
0.403273
0.407164
0.409418
0.410576
0.411072
0.411075
0.41003
0.405926
0.39641
0.380531
0.406019
0.409871
0.411971
0.412939
0.413216
0.412979
0.411894
0.408411
0.399954
0.384992
0.409031
0.412767
0.4147
0.41554
0.415681
0.415231
0.413957
0.410759
0.403242
0.389401
0.410884
0.414551
0.416445
0.417302
0.417434
0.416877
0.415417
0.412241
0.405257
0.392326
0.412699
0.416373
0.418322
0.419279
0.419454
0.418836
0.417212
0.413955
0.407213
0.394874
0.414136
0.417782
0.419822
0.420901
0.421134
0.420476
0.418718
0.415415
0.408964
0.397279
0.417718
0.421025
0.423095
0.424317
0.424631
0.423965
0.422128
0.41893
0.413376
0.403359
0.418876
0.421756
0.423914
0.425244
0.425603
0.424897
0.422927
0.419603
0.414716
0.408594
0.417283
0.418305
0.418654
0.418778
0.418789
0.418734
0.418592
0.418128
0.416464
0.410615
0.4029
0.406964
0.409263
0.410359
0.410698
0.41043
0.408942
0.404372
0.394787
0.379128
0.402301
0.406103
0.40824
0.4093
0.40973
0.409727
0.408856
0.405318
0.396605
0.381368
0.405238
0.408871
0.410762
0.41159
0.411805
0.411586
0.410671
0.407715
0.400161
0.386054
0.408234
0.411591
0.413231
0.4139
0.413988
0.413604
0.412558
0.409895
0.40334
0.390515
0.410083
0.413244
0.414784
0.415435
0.415502
0.415032
0.413863
0.411286
0.405345
0.393525
0.411896
0.414971
0.416522
0.417239
0.417326
0.416794
0.4155
0.412911
0.407333
0.3962
0.413187
0.416166
0.417769
0.418572
0.418693
0.418108
0.416695
0.414105
0.408949
0.398626
0.41648
0.419103
0.420711
0.421623
0.421797
0.421186
0.419689
0.417199
0.413012
0.404742
0.417167
0.419402
0.42108
0.422078
0.422284
0.421629
0.420004
0.417399
0.413797
0.409472
0.415051
0.415913
0.416198
0.4163
0.416308
0.416263
0.416149
0.415783
0.414422
0.409364
0.401939
0.405898
0.408077
0.409092
0.409398
0.40917
0.407919
0.403948
0.395108
0.380003
0.401455
0.40517
0.407186
0.408148
0.408515
0.408492
0.407747
0.404727
0.396869
0.382391
0.404584
0.407975
0.409657
0.410362
0.410532
0.410334
0.409557
0.407057
0.400376
0.38718
0.407507
0.410473
0.411843
0.412375
0.412436
0.412126
0.411283
0.409084
0.403397
0.391552
0.409316
0.411985
0.413214
0.413707
0.413743
0.413372
0.412467
0.410415
0.405384
0.394566
0.411109
0.413622
0.41483
0.41536
0.415402
0.414976
0.413985
0.411984
0.407409
0.397336
0.412205
0.414575
0.415805
0.416394
0.416449
0.415966
0.414877
0.412914
0.408853
0.399729
0.415207
0.417234
0.418456
0.419125
0.419213
0.418691
0.417519
0.415647
0.412557
0.405789
0.415397
0.417085
0.418362
0.419096
0.419203
0.418637
0.417349
0.415379
0.41279
0.409801
0.412679
0.413394
0.41362
0.413702
0.413707
0.413668
0.413576
0.413296
0.412229
0.408011
0.401105
0.404912
0.406933
0.407847
0.408115
0.407919
0.406886
0.403535
0.395586
0.381223
0.400762
0.404333
0.406192
0.407045
0.407349
0.407303
0.406659
0.404126
0.397195
0.383641
0.404043
0.407131
0.408587
0.409176
0.409312
0.409139
0.408486
0.4064
0.400592
0.3884
0.406807
0.409358
0.410474
0.410892
0.410942
0.410705
0.410045
0.408263
0.403397
0.39254
0.408534
0.410727
0.411685
0.412056
0.412081
0.411804
0.411128
0.409535
0.405339
0.395486
0.410289
0.412285
0.413204
0.413595
0.413616
0.413291
0.412559
0.411058
0.407375
0.398318
0.411146
0.412977
0.4139
0.414326
0.414348
0.413969
0.413157
0.411716
0.408584
0.400598
0.413891
0.415419
0.41633
0.416814
0.416852
0.41643
0.415541
0.414172
0.411938
0.406493
0.413575
0.414819
0.415772
0.416302
0.41635
0.415887
0.414899
0.413452
0.411628
0.409606
0.410199
0.410782
0.410954
0.411017
0.411021
0.410986
0.410913
0.410707
0.409914
0.406551
0.400418
0.403978
0.405783
0.406573
0.406799
0.406635
0.405808
0.40309
0.396186
0.382817
0.400217
0.403536
0.405178
0.4059
0.406143
0.406082
0.405534
0.403465
0.397535
0.385108
0.403567
0.40627
0.407477
0.407951
0.40806
0.407919
0.407387
0.405693
0.400778
0.389703
0.406077
0.408189
0.409064
0.409388
0.409432
0.40926
0.408762
0.407363
0.40331
0.393492
0.407685
0.409426
0.410152
0.41043
0.410451
0.410252
0.409761
0.408563
0.405165
0.396323
0.409387
0.410922
0.411605
0.411891
0.411904
0.411664
0.411134
0.410042
0.407167
0.399182
0.409971
0.411344
0.412022
0.412329
0.412334
0.412045
0.411451
0.410419
0.408073
0.40125
0.412535
0.413663
0.41433
0.414676
0.414687
0.414358
0.413696
0.412711
0.411126
0.406871
0.411708
0.412606
0.413306
0.413683
0.413697
0.413332
0.412591
0.41155
0.41028
0.408939
0.407632
0.408099
0.408223
0.40827
0.408272
0.408243
0.408186
0.40804
0.407488
0.404956
0.399875
0.403055
0.404578
0.40522
0.405402
0.405273
0.404643
0.402552
0.396834
0.384758
0.399768
0.402689
0.404049
0.404624
0.404809
0.404744
0.404296
0.402674
0.397807
0.386723
0.403082
0.405318
0.40626
0.406623
0.406709
0.4066
0.406187
0.404873
0.400877
0.391051
0.405255
0.406917
0.407573
0.407817
0.407856
0.407734
0.407368
0.40632
0.403088
0.394418
0.406726
0.408051
0.408585
0.408793
0.408811
0.408665
0.408309
0.407439
0.404811
0.397113
0.40837
0.409507
0.410003
0.410212
0.410218
0.410038
0.409652
0.408873
0.406728
0.399954
0.408661
0.409659
0.41015
0.41037
0.410366
0.410144
0.409704
0.408971
0.407274
0.401694
0.411158
0.411978
0.412463
0.412708
0.412703
0.412448
0.411953
0.411245
0.410129
0.40695
0.409798
0.410439
0.410948
0.411213
0.411208
0.410925
0.410374
0.409629
0.408738
0.407859
0.404973
0.405337
0.405423
0.405458
0.40546
0.405436
0.405391
0.405292
0.404937
0.403167
0.399449
0.402105
0.403291
0.403772
0.403909
0.403817
0.403369
0.40187
0.397435
0.386972
0.399325
0.401702
0.402734
0.403155
0.403286
0.403227
0.402884
0.401687
0.397919
0.388392
0.402508
0.404228
0.404908
0.405169
0.405231
0.405147
0.404839
0.403882
0.400829
0.392423
0.404309
0.405543
0.40601
0.406187
0.406214
0.406118
0.405846
0.405098
0.402684
0.395357
0.405661
0.406627
0.407009
0.407161
0.407168
0.407048
0.406773
0.406151
0.404242
0.3979
0.407249
0.408061
0.408414
0.408563
0.408559
0.40841
0.408109
0.407548
0.406033
0.400652
0.407251
0.407961
0.408315
0.408473
0.408458
0.408276
0.407931
0.407391
0.406198
0.401945
0.409836
0.41043
0.410781
0.410952
0.410935
0.41073
0.410349
0.409822
0.409029
0.406791
0.407852
0.408312
0.408682
0.408866
0.408849
0.408624
0.408206
0.407661
0.407016
0.406434
0.402106
0.40238
0.402438
0.402464
0.402466
0.402446
0.402412
0.402347
0.402141
0.401022
0.399131
0.401147
0.401971
0.402293
0.402383
0.402317
0.402022
0.401049
0.397928
0.389406
0.398808
0.400546
0.401243
0.401518
0.401598
0.40154
0.401287
0.400474
0.397808
0.390085
0.401812
0.403019
0.403466
0.403635
0.403664
0.403581
0.403343
0.402689
0.400569
0.393854
0.403284
0.404144
0.404461
0.404581
0.404582
0.40448
0.404249
0.403716
0.402068
0.39637
0.404577
0.405255
0.405523
0.405627
0.405612
0.405485
0.405236
0.404764
0.403471
0.398727
0.406121
0.406685
0.406934
0.407034
0.407009
0.406861
0.406591
0.406151
0.405129
0.401289
0.405908
0.406417
0.406678
0.406788
0.406757
0.406587
0.406283
0.405841
0.404995
0.402073
0.40875
0.409186
0.409442
0.409558
0.409526
0.409347
0.409031
0.408608
0.408019
0.406551
0.405828
0.406169
0.406444
0.40657
0.40654
0.406351
0.406015
0.405588
0.405083
0.404672
0.398688
0.398876
0.39892
0.398941
0.398939
0.398917
0.398882
0.398828
0.398716
0.398113
0.398994
0.400321
0.400804
0.400982
0.401015
0.400943
0.400736
0.40017
0.398309
0.392141
0.398186
0.399294
0.399706
0.399863
0.399883
0.399793
0.399568
0.399032
0.397394
0.391847
0.400962
0.401726
0.401997
0.402092
0.402072
0.401949
0.401707
0.401231
0.399936
0.395297
0.40223
0.402807
0.403024
0.403098
0.403059
0.402912
0.402647
0.402199
0.401156
0.39738
0.403551
0.404028
0.404225
0.404292
0.404243
0.404077
0.403791
0.403352
0.402486
0.399481
0.405083
0.405483
0.405667
0.405732
0.405678
0.405505
0.405213
0.404793
0.404074
0.401758
0.404916
0.405307
0.405515
0.405593
0.405542
0.405361
0.405052
0.404622
0.403958
0.402201
0.408173
0.408503
0.408697
0.408775
0.408727
0.408553
0.408261
0.407879
0.407398
0.406495
0.403501
0.403782
0.403998
0.404088
0.404045
0.40387
0.403573
0.403197
0.402748
0.4024
0.394462
0.394608
0.394669
0.394698
0.394692
0.394651
0.394583
0.394489
0.394373
0.39408
0.398956
0.39967
0.399917
0.400004
0.399982
0.399857
0.399627
0.399241
0.398353
0.395037
0.397243
0.397908
0.398181
0.398287
0.398256
0.39809
0.397784
0.397296
0.396355
0.393323
0.3997
0.400197
0.400404
0.400472
0.400411
0.400216
0.399879
0.399378
0.398545
0.396131
0.400949
0.401386
0.401584
0.401646
0.401574
0.401363
0.401004
0.400479
0.399688
0.397734
0.402386
0.402775
0.402964
0.403021
0.402945
0.402729
0.402367
0.401845
0.401101
0.399527
0.403964
0.4043
0.404474
0.404528
0.404454
0.404247
0.403901
0.403412
0.402747
0.401517
0.404269
0.404623
0.404818
0.404885
0.40482
0.404619
0.404281
0.403803
0.403149
0.402106
0.408095
0.408363
0.408529
0.408589
0.40853
0.40835
0.408055
0.407667
0.407207
0.406632
0.400691
0.400961
0.401149
0.401221
0.401171
0.400997
0.40071
0.400338
0.399893
0.399508
0.301604
0.280596
0.282564
0.307187
0.254929
0.22699
0.227953
0.256755
0.230627
0.195861
0.198147
0.233301
0.212875
0.171788
0.17663
0.221425
0.199577
0.153449
0.161778
0.216286
0.188023
0.137309
0.148714
0.210639
0.178482
0.124448
0.138921
0.206229
0.168897
0.112538
0.130521
0.202188
0.160082
0.103615
0.126611
0.202373
0.150864
0.0964513
0.122845
0.198294
0.33904
0.326829
0.324137
0.330053
0.306034
0.289191
0.28182
0.283998
0.289594
0.266767
0.256694
0.260466
0.277567
0.24845
0.235268
0.240568
0.267694
0.231927
0.215082
0.221533
0.259191
0.216479
0.195261
0.201976
0.252987
0.203491
0.177621
0.183979
0.247991
0.191886
0.161095
0.166499
0.245811
0.183337
0.147602
0.151446
0.244519
0.175814
0.134897
0.131279
0.385425
0.381016
0.379552
0.380679
0.343647
0.336575
0.333004
0.332773
0.333932
0.323955
0.319047
0.319042
0.326572
0.313305
0.307092
0.307706
0.319606
0.302795
0.295239
0.296549
0.311767
0.291136
0.282023
0.283847
0.304588
0.280076
0.269322
0.271523
0.298108
0.269869
0.25751
0.260031
0.294523
0.26329
0.249802
0.252525
0.291651
0.259234
0.244666
0.244574
0.393653
0.390274
0.389329
0.390626
0.353522
0.348703
0.346256
0.346133
0.34843
0.342219
0.338953
0.338543
0.345555
0.337674
0.333572
0.333058
0.342342
0.332454
0.327429
0.326924
0.337335
0.325143
0.319076
0.318603
0.332002
0.317366
0.310226
0.309849
0.326712
0.309694
0.301527
0.301251
0.323757
0.304876
0.295971
0.295741
0.320555
0.301426
0.291387
0.289577
0.398865
0.395868
0.395146
0.396598
0.358882
0.35498
0.353198
0.353524
0.356031
0.351405
0.34914
0.349194
0.355809
0.350383
0.34761
0.347376
0.35556
0.349115
0.345719
0.345142
0.353464
0.345762
0.341627
0.340662
0.350735
0.341599
0.336692
0.335405
0.347847
0.337244
0.331591
0.330049
0.347157
0.335317
0.329076
0.327404
0.346944
0.33534
0.328075
0.325436
0.400874
0.397885
0.397237
0.398873
0.361172
0.357551
0.356084
0.356774
0.359812
0.355797
0.354068
0.354618
0.361182
0.356795
0.354793
0.355128
0.362762
0.357879
0.35549
0.355478
0.362695
0.357163
0.354264
0.353774
0.362037
0.355712
0.352239
0.351244
0.36125
0.354075
0.350018
0.348521
0.362616
0.35467
0.35014
0.348292
0.365144
0.357823
0.352644
0.34997
0.401734
0.398701
0.398083
0.399847
0.362391
0.358871
0.357571
0.358494
0.362071
0.358338
0.356921
0.357821
0.364551
0.360694
0.359175
0.359968
0.367356
0.363309
0.361586
0.362119
0.368648
0.364314
0.362268
0.362372
0.369432
0.364708
0.362256
0.361841
0.370172
0.365014
0.362115
0.361118
0.373115
0.367522
0.364255
0.362838
0.378179
0.373501
0.369859
0.367598
0.401847
0.398771
0.398174
0.400039
0.362992
0.359506
0.358302
0.359377
0.363471
0.359867
0.35863
0.35976
0.366799
0.363209
0.361977
0.363084
0.370499
0.366904
0.365601
0.36654
0.372753
0.369098
0.367617
0.368211
0.374527
0.370734
0.368984
0.369117
0.376272
0.372306
0.37023
0.369807
0.380325
0.376133
0.373797
0.373019
0.387475
0.384496
0.381987
0.380265
0.401536
0.398443
0.397873
0.399823
0.363362
0.359901
0.358764
0.359942
0.364478
0.360954
0.359833
0.361109
0.368483
0.365043
0.363985
0.365286
0.372854
0.369515
0.368466
0.369661
0.375804
0.37254
0.371413
0.37234
0.378261
0.375012
0.37372
0.374259
0.38062
0.377355
0.375837
0.375897
0.385433
0.38206
0.380388
0.380226
0.394207
0.392345
0.390645
0.389398
0.400975
0.397896
0.397367
0.399389
0.363696
0.360265
0.359183
0.360433
0.365334
0.361877
0.360839
0.362205
0.369882
0.366545
0.365596
0.367007
0.37474
0.371559
0.370662
0.372
0.378171
0.375138
0.37422
0.375343
0.381077
0.378141
0.377128
0.377934
0.383762
0.380888
0.379729
0.380157
0.389098
0.386179
0.384964
0.385323
0.399072
0.397952
0.396813
0.395924
0.400287
0.39726
0.396785
0.398868
0.364148
0.360755
0.359722
0.361021
0.366213
0.362823
0.36185
0.363267
0.371184
0.367933
0.367056
0.368518
0.376352
0.373285
0.372477
0.373877
0.380067
0.377177
0.376378
0.377598
0.383226
0.380464
0.379612
0.380583
0.386024
0.383348
0.382411
0.383114
0.391744
0.389061
0.388156
0.388937
0.402506
0.401882
0.401124
0.400481
0.399567
0.396628
0.39622
0.398348
0.364833
0.361485
0.360496
0.361828
0.367238
0.363917
0.362995
0.364433
0.372511
0.36934
0.368512
0.369981
0.377805
0.374828
0.37407
0.375476
0.381615
0.378817
0.378079
0.379336
0.384863
0.382191
0.381427
0.382502
0.387624
0.385028
0.384228
0.385151
0.393664
0.391099
0.390408
0.391528
0.404795
0.404505
0.404001
0.403516
0.39889
0.396078
0.395747
0.397892
0.365849
0.362552
0.3616
0.362949
0.368499
0.365251
0.364368
0.365801
0.373941
0.370848
0.370049
0.371492
0.379162
0.376261
0.375527
0.376905
0.382891
0.380152
0.379442
0.380708
0.386106
0.383467
0.382754
0.383913
0.388734
0.38615
0.385441
0.386564
0.395092
0.392594
0.392058
0.393445
0.406148
0.406082
0.405749
0.405364
0.398314
0.395672
0.39542
0.397538
0.367276
0.364036
0.363115
0.364465
0.370052
0.36688
0.366024
0.367428
0.375505
0.372489
0.371705
0.373103
0.380445
0.377609
0.376883
0.378223
0.383952
0.381244
0.380549
0.381829
0.387066
0.384425
0.383749
0.385009
0.389519
0.386916
0.386284
0.387606
0.396228
0.393796
0.393382
0.394965
0.406736
0.406818
0.406598
0.406276
0.397865
0.395442
0.395262
0.397288
0.369169
0.365996
0.3651
0.366434
0.371905
0.368816
0.367977
0.369337
0.377189
0.374251
0.373475
0.374825
0.381654
0.37887
0.378152
0.379476
0.38486
0.382165
0.381492
0.382825
0.387878
0.385223
0.384595
0.385991
0.39016
0.387545
0.386997
0.388519
0.397249
0.394921
0.39461
0.396305
0.406692
0.406864
0.40672
0.40644
0.397519
0.395369
0.395245
0.397095
0.371542
0.368456
0.367584
0.368891
0.374007
0.371015
0.370193
0.37151
0.378943
0.376085
0.375327
0.376656
0.382807
0.380068
0.37938
0.380741
0.385732
0.383052
0.382429
0.383873
0.388727
0.386083
0.385534
0.387098
0.390867
0.388292
0.387846
0.389546
0.3983
0.396149
0.395924
0.397625
0.406123
0.406342
0.406249
0.406002
0.397173
0.395347
0.395257
0.396843
0.374356
0.371388
0.370554
0.371846
0.376264
0.37339
0.372608
0.373915
0.380754
0.377987
0.377282
0.378651
0.38403
0.381355
0.380738
0.382205
0.386804
0.384183
0.383656
0.385252
0.389887
0.387333
0.3869
0.388621
0.391891
0.389463
0.389135
0.390931
0.39949
0.397612
0.39746
0.399036
0.405125
0.405352
0.405292
0.405077
0.396556
0.39509
0.395017
0.39627
0.377567
0.374761
0.374009
0.375333
0.378653
0.375929
0.375238
0.376607
0.382771
0.380138
0.379546
0.381029
0.385646
0.383103
0.38262
0.38423
0.388454
0.386005
0.385623
0.38734
0.391697
0.389383
0.389097
0.390867
0.393507
0.391384
0.391177
0.392901
0.400915
0.399407
0.39931
0.400624
0.403723
0.403919
0.403878
0.403702
0.395111
0.394019
0.393954
0.394851
0.381354
0.378784
0.378196
0.379622
0.38141
0.378914
0.378399
0.379896
0.38536
0.382983
0.382582
0.384187
0.388082
0.385847
0.38555
0.387219
0.391017
0.388952
0.388741
0.390403
0.394334
0.392483
0.392341
0.393923
0.395875
0.394246
0.394137
0.395553
0.402683
0.401617
0.401557
0.402501
0.401724
0.401844
0.401809
0.401689
0.392398
0.391711
0.39166
0.392179
0.386384
0.384299
0.383967
0.385396
0.38506
0.383051
0.382773
0.384231
0.388778
0.386971
0.386789
0.388233
0.391296
0.389689
0.389569
0.39093
0.394065
0.392667
0.392588
0.393814
0.397074
0.395901
0.39585
0.396904
0.398369
0.397357
0.3973
0.398171
0.404602
0.403991
0.403954
0.404471
0.398956
0.398927
0.398892
0.398872
0.384545
0.390987
0.399882
0.405416
0.410294
0.414339
0.417858
0.421093
0.424342
0.428061
0.337477
0.344049
0.358367
0.368844
0.377464
0.384671
0.391083
0.397136
0.403133
0.409298
0.331184
0.337313
0.355033
0.366803
0.37622
0.38378
0.390298
0.396268
0.40205
0.40798
0.326024
0.334212
0.355187
0.368241
0.378707
0.386967
0.393961
0.400123
0.40582
0.411483
0.320656
0.331981
0.355917
0.370034
0.381527
0.390466
0.397964
0.404375
0.410063
0.415534
0.313063
0.328174
0.354491
0.369484
0.38185
0.391325
0.399296
0.406066
0.412023
0.417665
0.306589
0.32531
0.353126
0.368611
0.381563
0.391347
0.399672
0.406782
0.41307
0.418998
0.300663
0.322922
0.351388
0.367066
0.380377
0.390345
0.399
0.406519
0.413327
0.419806
0.300234
0.324501
0.352464
0.367358
0.380173
0.389598
0.398264
0.406134
0.413485
0.420816
0.288813
0.318195
0.344965
0.359952
0.373357
0.383926
0.393935
0.403063
0.411505
0.419815
0.356415
0.375302
0.389532
0.39891
0.405559
0.410552
0.414546
0.417966
0.421215
0.424821
0.305324
0.329496
0.348925
0.362647
0.372949
0.381141
0.388084
0.394346
0.400345
0.406348
0.294008
0.32368
0.346406
0.361478
0.372512
0.381064
0.388117
0.394297
0.400084
0.405855
0.287273
0.321678
0.347341
0.363685
0.375643
0.384834
0.392301
0.398633
0.404308
0.409774
0.281767
0.32014
0.348468
0.365914
0.378769
0.388567
0.396459
0.402997
0.408657
0.413935
0.275138
0.316835
0.347368
0.365657
0.379255
0.389528
0.397821
0.404689
0.410617
0.416076
0.269568
0.314073
0.346189
0.364953
0.379075
0.389662
0.398291
0.405499
0.411765
0.417517
0.264644
0.311679
0.34465
0.363497
0.377928
0.388717
0.397672
0.405281
0.412038
0.418314
0.264159
0.313161
0.345891
0.363926
0.377886
0.388223
0.397228
0.405214
0.412501
0.419581
0.257392
0.309147
0.340676
0.358336
0.372651
0.383908
0.394078
0.403198
0.411457
0.419268
0.385188
0.393262
0.399666
0.40452
0.408456
0.411804
0.414749
0.417474
0.420275
0.423584
0.336613
0.346818
0.357314
0.366584
0.374617
0.3816
0.387808
0.393561
0.399188
0.404925
0.32596
0.339592
0.352987
0.364189
0.373494
0.381225
0.387781
0.393594
0.399103
0.404663
0.319052
0.336255
0.352649
0.365736
0.376322
0.384883
0.391921
0.397903
0.403309
0.408568
0.312852
0.333522
0.352783
0.367497
0.37917
0.388412
0.395866
0.40204
0.407451
0.412556
0.305411
0.329215
0.351005
0.366962
0.379453
0.389198
0.397044
0.40355
0.409249
0.41455
0.298734
0.32537
0.349249
0.366056
0.379134
0.389246
0.397453
0.404331
0.410395
0.415993
0.292843
0.322037
0.347369
0.364556
0.377965
0.388338
0.396914
0.40423
0.410774
0.416842
0.291044
0.322395
0.348262
0.365096
0.378293
0.388532
0.39733
0.405077
0.412122
0.418851
0.285701
0.319178
0.344578
0.361329
0.374981
0.386055
0.395842
0.404558
0.412396
0.419544
0.394614
0.401027
0.405528
0.408766
0.411362
0.413618
0.415679
0.417693
0.419939
0.422837
0.348568
0.355784
0.363563
0.370822
0.377359
0.383201
0.388506
0.39352
0.39854
0.403811
0.341187
0.350055
0.359697
0.368513
0.376206
0.382793
0.388479
0.393595
0.398542
0.403674
0.336539
0.34754
0.359348
0.369838
0.378761
0.386186
0.392365
0.397668
0.402548
0.407421
0.331746
0.345092
0.359159
0.371196
0.381182
0.389293
0.395896
0.401423
0.406372
0.411169
0.325108
0.340775
0.356947
0.370239
0.381048
0.389705
0.396746
0.402663
0.407961
0.413006
0.318532
0.336517
0.354608
0.368891
0.380363
0.389491
0.396981
0.403344
0.409059
0.414427
0.312467
0.33263
0.35221
0.367068
0.378973
0.388483
0.396433
0.403289
0.409495
0.415311
0.30998
0.332206
0.352625
0.367489
0.379468
0.389136
0.397465
0.404802
0.411479
0.417848
0.306882
0.330205
0.350287
0.365215
0.377681
0.388107
0.397289
0.405455
0.412764
0.419301
0.400895
0.406667
0.410246
0.412511
0.414184
0.415609
0.416944
0.41834
0.420071
0.422557
0.356524
0.362886
0.369296
0.375218
0.380577
0.385405
0.389832
0.394081
0.398438
0.403168
0.35194
0.359046
0.366578
0.373573
0.379786
0.385171
0.389864
0.394153
0.398416
0.403006
0.349917
0.35797
0.366846
0.375069
0.382251
0.388315
0.393407
0.397847
0.40206
0.406445
0.347493
0.356643
0.366929
0.376307
0.384335
0.390971
0.396443
0.401126
0.405476
0.409881
0.342858
0.353137
0.364749
0.375095
0.383816
0.39098
0.396927
0.402064
0.40683
0.411544
0.337736
0.349254
0.362182
0.373385
0.382752
0.390462
0.396951
0.402615
0.407853
0.412925
0.332753
0.345494
0.359493