/*--------------------------------*- C++ -*----------------------------------*\
| =========                 |                                                 |
| \\      /  F ield         | foam-extend: Open Source CFD                    |
|  \\    /   O peration     | Version:     4.0                                |
|   \\  /    A nd           | Web:         http://www.foam-extend.org         |
|    \\/     M anipulation  |                                                 |
\*---------------------------------------------------------------------------*/
FoamFile
{
    version     2.0;
    format      ascii;
    class       volScalarField;
    location    "100";
    object      mut;
}
// * * * * * * * * * * * * * * * * * * * * * * * * * * * * * * * * * * * * * //

dimensions      [1 -1 -1 0 0 0 0];

internalField   nonuniform List<scalar> 
34480
(
0.00211181
0.00206558
0.00203581
0.00202494
0.0020352
0.002084
0.00221347
0.00246502
0.00279701
0.00307508
0.0295559
0.0255341
0.0209248
0.015096
0.00936692
0.00664321
0.00608997
0.00609526
0.00634459
0.00600896
0.0502206
0.0467978
0.0405957
0.0286386
0.0147403
0.00764927
0.00600883
0.00601631
0.00659392
0.00656436
0.0576858
0.0545732
0.0476097
0.0338601
0.0169548
0.00738151
0.00497113
0.00513727
0.00628328
0.00674906
0.0587655
0.0556563
0.0488696
0.0357261
0.01821
0.00716688
0.00405522
0.00417657
0.0057608
0.00674097
0.0571361
0.0537479
0.047696
0.0357704
0.0185609
0.00697022
0.00341721
0.00336131
0.00515374
0.00657671
0.0533784
0.0501036
0.0451353
0.0346253
0.0183257
0.00680179
0.00300852
0.00270242
0.00446534
0.00621789
0.0421112
0.0398597
0.0369245
0.0295908
0.0163212
0.00613737
0.00257032
0.00208371
0.00358385
0.00551165
0.0137674
0.0133106
0.0130226
0.0118659
0.00800357
0.00333343
0.00139002
0.00113184
0.00211626
0.00386
0.00197523
0.00194997
0.00192757
0.00190851
0.00189385
0.0018843
0.00188323
0.00190216
0.00197215
0.00201231
0.00208806
0.00204651
0.00201795
0.00200514
0.00200695
0.00203287
0.00211963
0.002326
0.00265145
0.00298125
0.0284369
0.0246475
0.0209335
0.0175982
0.0145614
0.0128821
0.0136623
0.0145086
0.013571
0.0148232
0.0480785
0.0454769
0.0421206
0.0360762
0.0267738
0.0186012
0.0161875
0.0157172
0.014103
0.0159482
0.0552118
0.0533694
0.0501783
0.0438588
0.033606
0.0223384
0.0164289
0.0144004
0.0131886
0.0162805
0.0565148
0.0546943
0.0517754
0.0467286
0.0378312
0.0256828
0.0164776
0.0123221
0.011714
0.0161339
0.0553225
0.0529878
0.0505477
0.0470113
0.0398369
0.028085
0.0168155
0.0103587
0.0100885
0.0155893
0.0520448
0.0495109
0.0476925
0.0453594
0.0398302
0.0293266
0.0174538
0.00884195
0.00840369
0.0145048
0.041341
0.0393192
0.0383829
0.0375163
0.0346089
0.027402
0.0172857
0.00759991
0.00647984
0.012458
0.0136758
0.013144
0.0130641
0.0132009
0.013316
0.0128192
0.0103137
0.00464569
0.00348182
0.00788734
0.00195678
0.00193262
0.00191135
0.00189343
0.00187945
0.00186954
0.00186548
0.00187227
0.00193094
0.00208984
0.00205727
0.0020227
0.00199894
0.00198863
0.00199057
0.00201202
0.00208472
0.0022685
0.00257556
0.00287089
0.0267264
0.0231183
0.0196967
0.016949
0.0147592
0.0138446
0.0160033
0.0199603
0.0220991
0.0214646
0.045559
0.043305
0.0407642
0.0363862
0.0289441
0.0217242
0.0207896
0.0240385
0.0248968
0.0237808
0.0525218
0.0510062
0.0488439
0.0448663
0.0376307
0.0281162
0.0231611
0.0239865
0.023893
0.0242864
0.0539362
0.052225
0.0502909
0.0478673
0.04311
0.034265
0.025382
0.0219323
0.0210521
0.023773
0.0529185
0.0506074
0.049019
0.0480739
0.0457599
0.03897
0.027928
0.0194307
0.0176468
0.0225672
0.0499954
0.0474583
0.0462796
0.0462263
0.0456462
0.0413569
0.0305315
0.0173413
0.0142541
0.0205941
0.0400341
0.0379398
0.037248
0.037689
0.0383966
0.0374289
0.0305854
0.0155967
0.0108265
0.0173769
0.0135154
0.0129384
0.0128419
0.0130201
0.0134152
0.0140461
0.0144016
0.0093156
0.00585212
0.0108559
0.00193672
0.00191517
0.00189649
0.00188105
0.00186934
0.00186159
0.00186001
0.00186937
0.00192396
0.00208032
0.00202921
0.00200055
0.00198063
0.00197215
0.00197392
0.00199168
0.00205274
0.00221674
0.00251049
0.0027875
0.0249672
0.0216253
0.018505
0.0161454
0.014397
0.0136554
0.0159434
0.0210118
0.0257868
0.02767
0.0429448
0.0410055
0.0388228
0.0351385
0.0286762
0.0220412
0.0215601
0.0272908
0.0329104
0.0341813
0.0497442
0.0483057
0.0463889
0.0432764
0.0374466
0.0291789
0.0251622
0.0294007
0.0347051
0.0361782
0.0511211
0.0492498
0.0474769
0.0458927
0.0427862
0.0359909
0.0287669
0.0288847
0.0325185
0.0354218
0.0501622
0.047729
0.0462422
0.0459338
0.0452159
0.0410452
0.0325801
0.0273925
0.0283399
0.0332681
0.0475803
0.0449968
0.0438476
0.0441953
0.0449153
0.0433626
0.0359807
0.025969
0.0235543
0.0301072
0.0385025
0.0363902
0.03565
0.036167
0.0374223
0.0383104
0.0352733
0.0243949
0.0186219
0.0255789
0.013342
0.0127487
0.0126377
0.0127805
0.013106
0.0136838
0.0146062
0.0135274
0.0105523
0.0166575
0.00191603
0.00189718
0.0018812
0.00186831
0.00185889
0.00185329
0.00185371
0.00186509
0.00191551
0.00205916
0.00200416
0.00198005
0.00196294
0.00195567
0.00195712
0.00197201
0.0020243
0.00217288
0.00245163
0.00271461
0.0233977
0.0203782
0.017591
0.0155803
0.0141608
0.0134207
0.0153839
0.0203897
0.0256301
0.028304
0.0405232
0.0389028
0.036961
0.0337896
0.028206
0.0219951
0.0211614
0.0272806
0.0349693
0.0388912
0.0470586
0.0456204
0.0437527
0.0411624
0.0364631
0.0293302
0.0254962
0.0309009
0.040178
0.045364
0.0482288
0.0462167
0.0444387
0.0432058
0.041104
0.0360103
0.0300691
0.0322187
0.0408222
0.0470436
0.0472939
0.044831
0.0433112
0.0430959
0.0429984
0.040603
0.034631
0.0325054
0.0381807
0.0453949
0.0450721
0.0425435
0.0413381
0.0416114
0.0425546
0.0423889
0.0381994
0.0325146
0.0337344
0.041625
0.0369617
0.0349199
0.0341266
0.0344951
0.0355936
0.0369118
0.0364612
0.0312913
0.0282701
0.0358984
0.0132013
0.0126144
0.0124958
0.0126021
0.0128413
0.0132688
0.0141256
0.0153177
0.0158233
0.0233679
0.0018958
0.00187949
0.00186601
0.00185541
0.001848
0.00184419
0.00184597
0.0018577
0.00190198
0.00202487
0.00198163
0.00196082
0.00194563
0.00193913
0.00194024
0.00195299
0.00199891
0.00213638
0.00239839
0.00264997
0.0221244
0.0194453
0.0169907
0.0152809
0.014109
0.0133141
0.0148584
0.0195715
0.0247864
0.0275563
0.0384905
0.0371434
0.0353926
0.032687
0.027938
0.0220809
0.0205936
0.0261912
0.0341455
0.0387852
0.0446117
0.04314
0.0412987
0.0391404
0.035477
0.0294169
0.0253671
0.0303316
0.0407351
0.0479953
0.0454483
0.0433886
0.0416187
0.0405897
0.0392331
0.0356077
0.0305656
0.0329266
0.0437792
0.0532186
0.0445394
0.0421583
0.0406289
0.0403719
0.0405427
0.0394207
0.035451
0.0348573
0.0436894
0.0542308
0.0426684
0.0402847
0.0390606
0.0391772
0.0400248
0.040575
0.038771
0.0362947
0.0411639
0.0515834
0.0355315
0.0336235
0.0328207
0.0330367
0.0338603
0.0351155
0.0360425
0.0351373
0.0363478
0.0454947
0.0131026
0.0125444
0.0124249
0.0125006
0.0126682
0.0129623
0.0136045
0.0153046
0.0187836
0.0280603
0.00187578
0.00186194
0.00185074
0.00184217
0.00183647
0.00183408
0.00183668
0.00184776
0.00188481
0.00198512
0.00196099
0.00194239
0.00192847
0.00192247
0.00192327
0.00193441
0.00197574
0.0021024
0.00234806
0.00258902
0.021162
0.0188158
0.0166658
0.0152015
0.0142124
0.0133493
0.0144681
0.0188872
0.0241024
0.0270135
0.0369181
0.0357656
0.0341721
0.0318881
0.0279062
0.0223959
0.0202125
0.0250701
0.0328817
0.0377189
0.0424928
0.0409805
0.0391871
0.0373958
0.0346393
0.0296104
0.0253113
0.0292255
0.0393783
0.0470852
0.0429559
0.0409324
0.0392096
0.0383125
0.0374892
0.0350812
0.0308279
0.0324862
0.0433243
0.053804
0.042079
0.039848
0.0383548
0.0380324
0.0382841
0.0379953
0.0356055
0.0355039
0.0450887
0.0572871
0.0405092
0.0383213
0.03713
0.0371069
0.0377594
0.0385761
0.038342
0.0378661
0.0446644
0.0569088
0.0342835
0.0325481
0.0317774
0.0318759
0.0324427
0.03345
0.0348684
0.0363744
0.0408351
0.0515753
0.0130566
0.0125421
0.0124272
0.0124784
0.0125901
0.0127802
0.0132168
0.0146951
0.0190122
0.0289926
0.00185579
0.00184428
0.00183515
0.00182836
0.00182408
0.00182275
0.00182572
0.00183567
0.00186584
0.00194696
0.00194141
0.00192432
0.00191122
0.00190553
0.00190608
0.001916
0.00195362
0.00206853
0.00229767
0.00252795
0.0204862
0.0184414
0.0165512
0.0152783
0.0144266
0.013507
0.0142106
0.0183409
0.0236075
0.02674
0.0357922
0.0347541
0.0332909
0.0313723
0.0280745
0.022942
0.0201099
0.0241874
0.0318433
0.03695
0.0407475
0.0392082
0.0374831
0.0359852
0.0339719
0.0299261
0.0255233
0.0282833
0.0378293
0.0456631
0.0408665
0.0389281
0.0372805
0.0364702
0.0359918
0.0345324
0.0311026
0.0318924
0.0417756
0.0521763
0.0400111
0.0379572
0.0365396
0.0361652
0.0363925
0.0365658
0.0353986
0.0354474
0.0443582
0.0564705
0.0386689
0.0366985
0.0355835
0.0354618
0.0359077
0.0367078
0.0373511
0.0380874
0.04527
0.0577176
0.0332528
0.0317121
0.0310053
0.0310235
0.0313857
0.0321089
0.0335039
0.0360147
0.0420177
0.0533246
0.0130722
0.0126096
0.0125035
0.0125357
0.0126059
0.0127205
0.0130023
0.0141331
0.0181045
0.027348
0.00183565
0.0018263
0.00181901
0.00181373
0.0018106
0.00181003
0.00181301
0.00182157
0.00184591
0.00191276
0.00192194
0.00190607
0.00189358
0.00188812
0.00188846
0.00189736
0.00193087
0.00203382
0.00224515
0.00246418
0.0200677
0.018263
0.0165709
0.0154414
0.0146999
0.0137648
0.0140823
0.0178922
0.0232199
0.0266107
0.0350528
0.034066
0.0327055
0.0310895
0.0283911
0.0236938
0.0202982
0.0235569
0.0310473
0.0364903
0.0393791
0.0378325
0.036183
0.0349071
0.0334675
0.0303356
0.0260321
0.0276945
0.0365561
0.0445398
0.039208
0.0373739
0.0358198
0.035074
0.0347968
0.0340258
0.0314531
0.0315542
0.0402719
0.0503686
0.03835
0.0364803
0.0351704
0.034772
0.0349322
0.0353038
0.0350206
0.0352546
0.0430752
0.0544595
0.0371635
0.0354195
0.0344135
0.034236
0.0345075
0.0351606
0.0361726
0.0376478
0.0445013
0.056231
0.032448
0.031114
0.0304923
0.0304615
0.0306748
0.0311528
0.0323133
0.0350034
0.0413189
0.0522493
0.0131549
0.012749
0.0126547
0.012673
0.0127136
0.0127764
0.0129529
0.0137959
0.0171853
0.0253893
0.00181514
0.00180777
0.00180208
0.00179807
0.00179585
0.00179575
0.00179851
0.00180558
0.00182502
0.00188125
0.00190196
0.00188708
0.0018753
0.00187014
0.00187032
0.00187811
0.00190735
0.00199771
0.00218937
0.00239606
0.0198703
0.0182471
0.0166895
0.0156588
0.015018
0.0141239
0.0140863
0.0175145
0.0228762
0.0265418
0.0346247
0.0336449
0.0323567
0.0309798
0.0288052
0.0246163
0.0207787
0.0231561
0.03041
0.0361928
0.0383482
0.0368093
0.035234
0.0341232
0.0331085
0.0307976
0.0268017
0.0274682
0.0355764
0.0436924
0.0379323
0.0362097
0.034765
0.0340791
0.0339106
0.0336045
0.0318601
0.0315447
0.0391164
0.0488812
0.0370503
0.0353691
0.0341928
0.0338002
0.0338918
0.0343078
0.0345999
0.0351212
0.0419148
0.05254
0.0359674
0.0344551
0.0335798
0.033382
0.0335271
0.0340099
0.035083
0.0369704
0.0433285
0.0542411
0.0318598
0.0307368
0.0302113
0.0301549
0.0302675
0.0305638
0.0314587
0.0339509
0.0399764
0.0502605
0.0133117
0.012964
0.0128832
0.0128915
0.0129121
0.0129418
0.0130507
0.0136847
0.0165563
0.0239795
0.00179407
0.00178844
0.00178412
0.00178114
0.00177961
0.00177979
0.00178216
0.00178777
0.001803
0.00185044
0.00188088
0.00186699
0.00185614
0.00185141
0.00185146
0.00185809
0.00188293
0.00196011
0.00213005
0.00232275
0.0198565
0.0183608
0.0168948
0.015937
0.0153885
0.0145845
0.0142353
0.0171989
0.0225321
0.0264758
0.034433
0.0334284
0.0321835
0.0309893
0.0292713
0.0256668
0.0215535
0.022979
0.0298657
0.0359431
0.0375834
0.0360618
0.0345604
0.0335772
0.0328695
0.0312687
0.0277697
0.0275748
0.0348273
0.04298
0.0369513
0.0353485
0.0340307
0.0334103
0.0332988
0.0332841
0.0322766
0.0318069
0.0382997
0.0476826
0.0360395
0.0345549
0.0335308
0.033168
0.0332071
0.0335949
0.0342122
0.0350576
0.0410049
0.0509808
0.0350332
0.0337555
0.0330217
0.0328287
0.0328924
0.0332321
0.0342187
0.0362706
0.042135
0.0524205
0.0314677
0.0305526
0.0301253
0.0300589
0.0301081
0.0302832
0.0309533
0.0331241
0.0386235
0.0483385
0.0135515
0.0132603
0.0131933
0.0131949
0.013203
0.0132134
0.0132809
0.0137657
0.0161995
0.0230224
0.00177222
0.00176806
0.00176487
0.00176272
0.00176169
0.00176199
0.00176393
0.00176819
0.0017798
0.00181914
0.00185818
0.00184546
0.00183581
0.00183167
0.00183163
0.00183708
0.00185751
0.00192133
0.0020677
0.00224419
0.0199903
0.0185768
0.0171783
0.0162813
0.0158194
0.0151472
0.0145505
0.0169547
0.0221577
0.0263657
0.0344037
0.033353
0.0321301
0.0310751
0.0297519
0.0267939
0.0226189
0.0230399
0.0293793
0.0356633
0.0369967
0.0355029
0.0340841
0.0332106
0.0327219
0.0317092
0.0288566
0.0279804
0.0342581
0.0423028
0.0361697
0.0347023
0.0335308
0.0329849
0.0329046
0.033056
0.0326525
0.0322439
0.0377379
0.0466703
0.035243
0.0339653
0.033104
0.0327864
0.032792
0.033125
0.0338862
0.0350139
0.0402675
0.0497054
0.0343077
0.033263
0.0326706
0.0324973
0.0325143
0.03275
0.0335976
0.0356332
0.0409977
0.0508289
0.0312462
0.0305273
0.0301923
0.0301254
0.030138
0.0302388
0.0307384
0.0325723
0.0374609
0.046701
0.0138867
0.0136473
0.0135933
0.0135909
0.0135919
0.0135928
0.0136365
0.0140118
0.0160568
0.022289
0.00174934
0.00174639
0.0017441
0.00174259
0.00174193
0.00174225
0.00174374
0.00174685
0.00175538
0.00178708
0.00183345
0.00182221
0.00181405
0.0018106
0.00181053
0.00181484
0.00183103
0.00188183
0.00200344
0.00216115
0.0202374
0.0188766
0.0175423
0.0167084
0.0163282
0.0158146
0.0150579
0.0168105
0.0217361
0.0261683
0.0344599
0.0333534
0.0321477
0.0312058
0.0302191
0.0279383
0.0239545
0.0233692
0.0289424
0.0353003
0.0364965
0.0350501
0.0337365
0.0329707
0.0326381
0.0320866
0.0299697
0.0286424
0.0338387
0.0416094
0.0355047
0.0341965
0.0331908
0.0327282
0.0326677
0.0328982
0.0329458
0.0327488
0.0373278
0.0457685
0.0345978
0.0335359
0.0328393
0.0325745
0.0325628
0.0328365
0.0336192
0.0349363
0.0395782
0.0485699
0.0337421
0.032921
0.0324611
0.0323148
0.0323092
0.0324752
0.0331757
0.0350718
0.0398923
0.0493425
0.0311675
0.0306239
0.0303695
0.0303074
0.0303016
0.0303611
0.0307362
0.0322516
0.0364962
0.0452718
0.0143341
0.0141391
0.0140968
0.0140924
0.0140904
0.0140882
0.0141192
0.0144103
0.0160928
0.0216854
0.00172518
0.00172317
0.00172159
0.00172056
0.00172014
0.00172043
0.00172153
0.0017237
0.00172968
0.00175378
0.00180649
0.00179708
0.00179061
0.00178794
0.00178787
0.00179113
0.00180342
0.00184209
0.00193877
0.00207515
0.0205671
0.019252
0.0180008
0.0172449
0.0169412
0.0165933
0.0157831
0.0168177
0.0212701
0.0258456
0.0345153
0.033363
0.0321931
0.0313586
0.0306531
0.0290352
0.0255092
0.0240047
0.028572
0.0348262
0.035998
0.0346356
0.0334633
0.0328141
0.0325938
0.0323777
0.0310081
0.029501
0.0335441
0.0408902
0.0348965
0.0337761
0.0329521
0.0325784
0.0325336
0.0327857
0.0331284
0.0332196
0.0369587
0.0449047
0.0340589
0.0332149
0.0326761
0.0324657
0.0324484
0.0326674
0.0333936
0.034786
0.03883
0.0474145
0.0332968
0.0326804
0.0323378
0.0322205
0.0322077
0.0323293
0.0328919
0.0345685
0.0387826
0.047804
0.0312023
0.0308057
0.0306171
0.0305623
0.0305501
0.0305896
0.0308742
0.032096
0.0356806
0.0438858
0.014917
0.0147578
0.0147255
0.0147205
0.0147182
0.0147167
0.0147415
0.0149642
0.0162995
0.0211516
0.00169952
0.00169821
0.00169714
0.00169646
0.00169621
0.00169644
0.00169722
0.00169866
0.00170261
0.00171959
0.00177735
0.00177004
0.00176533
0.00176343
0.00176338
0.00176573
0.00177459
0.00180252
0.00187535
0.00198829
0.0209578
0.0197099
0.0185812
0.0179266
0.0176949
0.0174986
0.0167468
0.0170544
0.0207941
0.0253784
0.034478
0.0333201
0.0322306
0.0315158
0.0310402
0.0300205
0.0271924
0.02498
0.0283096
0.0342503
0.0354384
0.0342142
0.0332258
0.0327055
0.0325671
0.0325688
0.031873
0.0304723
0.0333395
0.0401473
0.034314
0.0334069
0.0327709
0.0324866
0.0324566
0.0326939
0.0331866
0.0335705
0.0365285
0.0439781
0.0335989
0.0329631
0.0325667
0.0324077
0.0323925
0.0325646
0.0331881
0.0345415
0.0379639
0.0460753
0.0329425
0.0325026
0.0322576
0.0321682
0.0321574
0.0322514
0.0326903
0.0340972
0.0376518
0.0460569
0.0313206
0.0310374
0.0308994
0.0308529
0.0308415
0.0308737
0.0310915
0.0320444
0.0349667
0.0423793
0.0156698
0.0155374
0.0155134
0.015509
0.0155078
0.0155087
0.0155302
0.0156952
0.0166995
0.0206981
0.00167214
0.00167131
0.00167062
0.00167018
0.00167004
0.00167022
0.00167074
0.00167165
0.00167409
0.0016849
0.0017463
0.00174118
0.0017381
0.00173689
0.00173687
0.00173846
0.00174443
0.00176334
0.00181462
0.00190303
0.021413
0.0202856
0.0193316
0.0188035
0.018639
0.0185633
0.0179644
0.0176282
0.0203917
0.024791
0.0342722
0.0331816
0.0322352
0.0316621
0.0313684
0.0308363
0.0288624
0.0263111
0.0282171
0.0336258
0.0347934
0.0337698
0.0330008
0.0326157
0.032537
0.0326546
0.0324827
0.0314469
0.0331828
0.0393564
0.0337556
0.0330727
0.0326163
0.0324149
0.0323989
0.0326012
0.0331212
0.0337381
0.0359763
0.0428414
0.0332042
0.0327523
0.0324755
0.0323618
0.0323528
0.032486
0.0329837
0.0341952
0.0369806
0.0443907
0.0326585
0.0323594
0.0321912
0.0321267
0.032122
0.0321983
0.0325284
0.0336364
0.036508
0.0439613
0.0314903
0.0312872
0.031186
0.0311482
0.0311411
0.0311723
0.0313391
0.0320485
0.0343236
0.0406446
0.0166453
0.0165315
0.0165143
0.0165112
0.0165115
0.016515
0.0165337
0.016649
0.0173487
0.0204133
0.00164287
0.00164236
0.00164192
0.00164165
0.00164157
0.0016417
0.00164204
0.0016426
0.00164397
0.00165004
0.00171376
0.00171064
0.00170889
0.00170821
0.00170823
0.00170921
0.00171289
0.00172463
0.00175769
0.00182176
0.0219945
0.0210641
0.0203348
0.0199512
0.0198476
0.0198514
0.0194578
0.0186795
0.0202189
0.0241779
0.0338705
0.0329391
0.0321966
0.0317816
0.0316239
0.0314379
0.0303343
0.0279579
0.028379
0.0330251
0.0340891
0.0333155
0.0327775
0.0325208
0.0324841
0.032638
0.0327905
0.0322866
0.0330547
0.0384214
0.0332414
0.0327698
0.0324683
0.032337
0.0323332
0.0324915
0.0329473
0.0336812
0.0353133
0.0413155
0.0328676
0.0325635
0.03238
0.0323033
0.0323017
0.0324029
0.0327693
0.0337523
0.0359291
0.0422303
0.0324298
0.0322341
0.0321231
0.0320794
0.0320814
0.0321443
0.0323801
0.03318
0.0353721
0.0414534
0.0316784
0.0315279
0.031453
0.0314236
0.0314218
0.0314534
0.0315796
0.0320743
0.0337338
0.0386885
0.0179282
0.0178266
0.017815
0.0178133
0.0178148
0.0178196
0.0178347
0.0179076
0.0183441
0.0204678
0.00161154
0.00161123
0.00161096
0.00161079
0.00161075
0.00161085
0.00161108
0.00161141
0.00161212
0.00161501
0.00168024
0.00167864
0.0016778
0.00167749
0.00167752
0.00167806
0.00168005
0.00168646
0.00170526
0.00174663
0.0228683
0.0222106
0.0217324
0.0214943
0.0214412
0.0214825
0.0212887
0.0203831
0.0205557
0.0237079
0.033321
0.0326277
0.0321211
0.0318595
0.0317935
0.0318049
0.0314149
0.0297606
0.0289212
0.0324693
0.0333945
0.0328844
0.0325552
0.0324051
0.0323951
0.0325325
0.032804
0.0328215
0.032999
0.0371744
0.0327988
0.0325024
0.0323201
0.0322422
0.0322469
0.0323606
0.0326982
0.0333887
0.0346043
0.0392658
0.032583
0.0323878
0.0322722
0.032224
0.0322284
0.032303
0.0325473
0.0332425
0.0348588
0.0395909
0.032246
0.0321221
0.032052
0.0320245
0.0320311
0.0320817
0.0322383
0.0327469
0.0342638
0.03865
0.0318539
0.0317392
0.0316843
0.0316628
0.0316652
0.0316956
0.031788
0.0321029
0.0331917
0.0366567
0.0196605
0.0195674
0.0195601
0.0195596
0.0195616
0.0195662
0.0195764
0.0196146
0.0198433
0.0211179
0.00157806
0.00157786
0.00157769
0.00157759
0.00157758
0.00157766
0.00157783
0.00157804
0.00157841
0.00157953
0.00164609
0.00164544
0.00164513
0.00164502
0.00164505
0.0016453
0.00164617
0.00164902
0.00165774
0.00167963
0.024361
0.0240143
0.0237718
0.0236574
0.0236397
0.0236833
0.0236295
0.0229445
0.021957
0.0236385
0.0327485
0.0323205
0.0320316
0.0318929
0.0318771
0.0319571
0.0319821
0.0313333
0.030036
0.0319072
0.0327969
0.0325133
0.032341
0.0322654
0.0322685
0.0323645
0.0325975
0.0328959
0.0330446
0.0355318
0.0324487
0.0322788
0.032178
0.0321361
0.0321445
0.0322183
0.0324249
0.0329149
0.033847
0.03679
0.0323455
0.0322261
0.0321576
0.0321299
0.0321373
0.0321891
0.0323331
0.0327335
0.033778
0.0367353
0.0321032
0.0320285
0.031987
0.0319712
0.0319791
0.0320165
0.032111
0.0323804
0.0332355
0.0358734
0.0319907
0.0319068
0.0318688
0.0318545
0.0318591
0.0318853
0.0319492
0.0321265
0.0327193
0.0347591
0.0220987
0.0220141
0.0220102
0.0220104
0.022012
0.0220151
0.02202
0.0220329
0.0221186
0.0227307
0.0015425
0.00154234
0.00154222
0.00154216
0.00154217
0.00154225
0.0015424
0.00154258
0.00154281
0.00154321
0.00161071
0.00161044
0.00161031
0.00161027
0.00161029
0.00161039
0.00161068
0.00161154
0.00161422
0.00162175
0.0270697
0.0269896
0.0269166
0.026883
0.0268818
0.0269057
0.0269086
0.0266305
0.0254922
0.0248446
0.0323177
0.0320972
0.0319616
0.0319009
0.0319016
0.0319645
0.0320838
0.0321158
0.0315715
0.0315237
0.0323597
0.0322217
0.0321431
0.0321097
0.0321145
0.0321648
0.0322889
0.0325307
0.0328544
0.0337752
0.0321919
0.0320999
0.0320491
0.0320289
0.0320356
0.0320753
0.0321722
0.0324002
0.0329287
0.0342991
0.0321479
0.0320794
0.0320426
0.0320284
0.0320345
0.0320651
0.0321357
0.0323034
0.0327592
0.0341001
0.0319989
0.0319571
0.0319346
0.0319264
0.0319324
0.0319552
0.0320041
0.0321142
0.032434
0.0335244
0.0320555
0.0320027
0.0319798
0.0319717
0.0319761
0.0319946
0.0320338
0.0321185
0.0323524
0.0332035
0.0257711
0.0257035
0.0257015
0.0257015
0.0257023
0.0257041
0.0257057
0.0257063
0.0257186
0.0259184
0.00150448
0.00150433
0.00150422
0.00150417
0.0015042
0.00150429
0.00150444
0.00150464
0.00150487
0.00150511
0.00345323
0.00347137
0.00346201
0.00342708
0.00247801
0.00244188
0.00240914
0.00238767
0.00281527
0.00278187
0.00274248
0.00270004
0.00313622
0.00310906
0.00306404
0.00300134
0.00339594
0.00336472
0.00330274
0.00320683
0.00359364
0.00355194
0.00346833
0.0033379
0.00369464
0.00363784
0.00353036
0.00336644
0.00363528
0.00356037
0.00342861
0.00323443
0.00314841
0.00305618
0.00290362
0.00268785
0.00252554
0.00251911
0.00249298
0.00244162
0.00311444
0.0031083
0.0030903
0.00306545
0.0126374
0.012041
0.0115628
0.0112859
0.0130445
0.0123562
0.0116944
0.0111625
0.0135166
0.0128978
0.0121762
0.0114715
0.0140539
0.0135668
0.0128252
0.0119766
0.0145531
0.0142153
0.0134574
0.0124551
0.0146881
0.0144888
0.0137149
0.0125535
0.0139554
0.0138802
0.0131173
0.0118422
0.0105092
0.010492
0.00982835
0.00863581
0.00245676
0.00247413
0.00244362
0.00237664
0.00290766
0.00289815
0.00288037
0.00285585
0.0187963
0.0181194
0.0176629
0.0175513
0.0190908
0.0180149
0.0171934
0.0168812
0.0188269
0.0176973
0.0167581
0.0163498
0.0184824
0.0174664
0.0165063
0.0159651
0.018148
0.0172981
0.016319
0.0155828
0.0174886
0.0167943
0.0157774
0.0148177
0.0158836
0.0153378
0.014322
0.0132213
0.0111904
0.0107663
0.00990785
0.00898341
0.00227498
0.00228398
0.00226846
0.0022387
0.00279893
0.00278819
0.00277027
0.00274556
0.0259672
0.0253919
0.0250733
0.0251161
0.0302695
0.0290672
0.0284292
0.0286447
0.0305784
0.0290781
0.0283422
0.0288062
0.0289705
0.0274661
0.0267211
0.0272881
0.0268232
0.0254775
0.024723
0.0252119
0.0243138
0.0231642
0.0223579
0.0226262
0.0209757
0.020048
0.0192151
0.0192495
0.0143661
0.0137385
0.0130386
0.0129435
0.00215943
0.00216223
0.00215391
0.00214039
0.00272135
0.00271171
0.00269478
0.00267011
0.0272832
0.0269485
0.0267551
0.0267308
0.0370044
0.036379
0.036039
0.036081
0.0426707
0.0417815
0.0413803
0.0416459
0.0434254
0.0423899
0.0420158
0.04255
0.0409603
0.0399471
0.0396474
0.040383
0.0366355
0.0357382
0.035475
0.0362606
0.0307847
0.0300698
0.0298207
0.0305354
0.0200955
0.0196644
0.0194008
0.0197414
0.00208216
0.00208357
0.00207886
0.0020719
0.00265397
0.00264476
0.0026284
0.00260408
0.0266765
0.0263921
0.026237
0.0262196
0.0374705
0.0370188
0.0367405
0.0366749
0.0467475
0.0461771
0.0457786
0.0456487
0.0520482
0.0513992
0.0509328
0.0507911
0.0527706
0.0521039
0.0516718
0.0516313
0.049165
0.0484838
0.0481236
0.0482523
0.0417125
0.0410382
0.0407572
0.0410706
0.0254181
0.0249291
0.0245668
0.0245199
0.00201925
0.00201949
0.00201658
0.00201309
0.00259047
0.00258125
0.00256525
0.00254152
0.026254
0.0260023
0.0258777
0.02588
0.0366757
0.0363005
0.0360743
0.036012
0.0463171
0.0458611
0.0454674
0.045194
0.0534846
0.0529737
0.0523944
0.0518525
0.0572567
0.0567419
0.0560645
0.0553523
0.056329
0.0557567
0.0550582
0.0543531
0.0494335
0.0487309
0.0480808
0.047585
0.0276937
0.0271452
0.0264356
0.0256904
0.00196894
0.00196868
0.00196693
0.00196546
0.0025271
0.00251763
0.00250187
0.00247897
0.0261016
0.0258753
0.0257699
0.025781
0.0361874
0.0358799
0.035701
0.0356529
0.0452691
0.0449078
0.0445567
0.0442486
0.0521968
0.0517656
0.0511716
0.0504877
0.0567141
0.0562241
0.0554236
0.0544144
0.0575212
0.0569165
0.0559855
0.0548421
0.0518806
0.0511048
0.050157
0.0491451
0.0266048
0.0260738
0.0252168
0.0242147
0.00192876
0.00192829
0.00192722
0.00192685
0.00246171
0.002452
0.00243656
0.0024148
0.0260949
0.0258899
0.0257933
0.0257983
0.0360124
0.0357657
0.0356162
0.0355584
0.0445206
0.0442516
0.0439405
0.0436023
0.050677
0.0503376
0.04978
0.0490471
0.054714
0.0542589
0.0534546
0.0523672
0.0558588
0.0552168
0.0542224
0.0529644
0.0509199
0.0501133
0.0490721
0.0478987
0.0247074
0.0242762
0.0235313
0.0226559
0.00189487
0.00189435
0.00189359
0.00189363
0.00239302
0.00238323
0.0023683
0.00234796
0.0261549
0.0259692
0.0258722
0.0258555
0.0359839
0.0357877
0.0356461
0.0355484
0.0439901
0.0437931
0.043496
0.043102
0.0493918
0.0491248
0.0485967
0.0478292
0.0527405
0.052321
0.0515552
0.0504824
0.0536788
0.0530328
0.0520789
0.0508817
0.0490119
0.0482416
0.0472528
0.0461298
0.023431
0.0231359
0.0225696
0.0218832
0.0018636
0.00186321
0.00186258
0.00186266
0.00232022
0.00231063
0.00229646
0.0022778
0.0262274
0.0260598
0.0259536
0.0258985
0.0359748
0.0358171
0.0356624
0.0354952
0.0434905
0.0433354
0.0430224
0.0425471
0.0482336
0.0479937
0.0474668
0.0466643
0.0510297
0.0506102
0.0498778
0.0488618
0.0517475
0.0511057
0.0502283
0.0491719
0.0472575
0.0465572
0.0456814
0.0447012
0.0227625
0.0226078
0.0221977
0.0216553
0.0018327
0.00183264
0.00183211
0.00183202
0.00224302
0.00223389
0.00222074
0.00220394
0.0262625
0.0261111
0.0259856
0.0258744
0.0358875
0.0357526
0.0355633
0.0353013
0.0428848
0.042734
0.0423775
0.0418089
0.0470707
0.0468021
0.0462501
0.0454276
0.0495167
0.0490533
0.048341
0.0474186
0.050128
0.0494884
0.0486946
0.0478116
0.0458446
0.0452185
0.0444652
0.0436548
0.0224263
0.0224069
0.0221154
0.02166
0.00180096
0.0018014
0.00180098
0.00180057
0.00216166
0.00215323
0.00214129
0.00212647
0.0262037
0.026063
0.0259064
0.0257228
0.0356351
0.0354998
0.0352546
0.0348814
0.0420882
0.0418964
0.0414753
0.0408248
0.0458549
0.0455053
0.0449151
0.0441139
0.0481412
0.0476107
0.0469205
0.0461349
0.0487228
0.0480974
0.0473932
0.046691
0.0446992
0.0441497
0.0435141
0.0428739
0.0222278
0.0223451
0.0221544
0.0217526
0.00176795
0.00176887
0.00176847
0.0017676
0.00207712
0.00206949
0.0020589
0.00204618
0.0259856
0.0258436
0.025643
0.0253769
0.0351407
0.0349708
0.0346502
0.0341685
0.0410799
0.0407973
0.0403015
0.0396133
0.0446109
0.0441492
0.0435305
0.0428189
0.0468707
0.0462897
0.0456454
0.0450349
0.0474194
0.0468406
0.0462366
0.0457048
0.0437204
0.0432679
0.0427502
0.0422693
0.0220979
0.0223546
0.0222455
0.0218581
0.00173301
0.00173438
0.00173404
0.00173273
0.00199115
0.0019844
0.00197528
0.00196481
0.0255442
0.025379
0.025123
0.0247808
0.0343652
0.0341149
0.0337073
0.0331536
0.039917
0.0395046
0.0389474
0.0383056
0.0434088
0.0428496
0.0422429
0.0416975
0.0456619
0.0450908
0.0445312
0.0441077
0.0461094
0.0456272
0.0451362
0.0447507
0.0427904
0.0424812
0.0420894
0.0417384
0.0219676
0.0223587
0.0223135
0.0219083
0.0016964
0.00169803
0.00169775
0.00169616
0.00190635
0.00190058
0.00189308
0.00188505
0.0248554
0.0246351
0.0243209
0.023941
0.0333649
0.0329887
0.032505
0.0319664
0.0387463
0.038209
0.0376417
0.0371593
0.0422995
0.0417215
0.0411935
0.0408612
0.0444179
0.0439457
0.0435089
0.0432458
0.0446631
0.0443448
0.043982
0.0437045
0.041755
0.0416493
0.0413923
0.0411145
0.0218202
0.0223236
0.0223242
0.0218853
0.00165863
0.00166025
0.00166003
0.00165842
0.00182563
0.00182112
0.00181545
0.00180994
0.0240169
0.0237133
0.0233624
0.0230301
0.0323614
0.0318542
0.0313513
0.0309645
0.0377458
0.0371721
0.0366891
0.0364562
0.0412168
0.0407482
0.0403661
0.0402246
0.0429556
0.042677
0.0423875
0.0422242
0.0428886
0.0428038
0.042582
0.0423515
0.0404241
0.0405562
0.0404269
0.0401468
0.0217293
0.0223006
0.0223293
0.0218666
0.00162036
0.00162166
0.00162151
0.00162019
0.00175141
0.00174846
0.00174476
0.00174151
0.0233491
0.0229805
0.0226613
0.0224978
0.0317109
0.031172
0.0307705
0.0306623
0.0369322
0.0364901
0.0361935
0.0361981
0.0398874
0.0396511
0.0394483
0.0394073
0.0409838
0.04096
0.0408205
0.0406761
0.0405457
0.0407034
0.0406102
0.0403604
0.0386318
0.0389503
0.0389114
0.0385825
0.021923
0.0225037
0.0225464
0.0220977
0.00158212
0.00158293
0.00158285
0.00158203
0.00168465
0.00168326
0.00168137
0.00167982
0.0233697
0.0230486
0.0228797
0.0229684
0.0315858
0.0312236
0.0310619
0.0312254
0.0359312
0.0357601
0.0356842
0.035795
0.0378507
0.0378675
0.0378195
0.0377761
0.0382131
0.0383773
0.0383451
0.0381723
0.0375445
0.037803
0.0377799
0.0375176
0.0363655
0.0366985
0.0366905
0.0363693
0.0228815
0.0234227
0.0234714
0.0230815
0.00154414
0.0015445
0.00154449
0.00154414
0.00162472
0.00162431
0.00162373
0.00162329
0.0247491
0.0246049
0.0246883
0.0250074
0.0315629
0.0315023
0.0316103
0.0318894
0.0341439
0.0341597
0.0342148
0.0343164
0.0349138
0.0349798
0.0349848
0.034947
0.0348559
0.0349551
0.0349354
0.0348224
0.0343283
0.0344418
0.0344101
0.0342624
0.0339506
0.034096
0.0340715
0.033901
0.0255399
0.0260035
0.0260477
0.0257447
0.00150562
0.00150576
0.00150577
0.00150567
0.00325778
0.00297402
0.00276059
0.00259645
0.00246565
0.00236405
0.00228809
0.00223243
0.00219003
0.00215398
0.0071092
0.0109023
0.0159753
0.0211688
0.0255787
0.0288776
0.0310942
0.0323159
0.0325632
0.0317734
0.00856143
0.0119571
0.0187569
0.0263329
0.0334273
0.0394637
0.0444245
0.0481787
0.050476
0.0511458
0.00985011
0.013226
0.021119
0.0296894
0.0372611
0.0433049
0.0484595
0.0529286
0.056213
0.0577492
0.0105934
0.0139299
0.0218995
0.0304285
0.0375585
0.0428309
0.0475712
0.0523443
0.056328
0.058438
0.0109391
0.0137098
0.0210652
0.029186
0.0361218
0.0414246
0.0465816
0.0518341
0.0558847
0.0575549
0.0106419
0.0123745
0.0185701
0.0262422
0.033766
0.0403444
0.046585
0.0516923
0.0545388
0.0548408
0.00945926
0.00995993
0.0148082
0.0222161
0.030764
0.0379813
0.042808
0.0448276
0.0449161
0.0437938