/*--------------------------------*- C++ -*----------------------------------*\
| =========                 |                                                 |
| \\      /  F ield         | foam-extend: Open Source CFD                    |
|  \\    /   O peration     | Version:     4.0                                |
|   \\  /    A nd           | Web:         http://www.foam-extend.org         |
|    \\/     M anipulation  |                                                 |
\*---------------------------------------------------------------------------*/
FoamFile
{
    version     2.0;
    format      ascii;
    class       volScalarField;
    location    "100";
    object      p;
}
// * * * * * * * * * * * * * * * * * * * * * * * * * * * * * * * * * * * * * //

dimensions      [1 -1 -2 0 0 0 0];

internalField   nonuniform List<scalar> 
34480
(
122686
122437
122216
122018
121852
121733
121696
121862
122094
121388
122388
122092
121852
121641
121452
121287
121175
121221
121376
119884
122393
121997
121689
121419
121175
120945
120758
120671
120740
118331
122538
122012
121599
121228
120884
120554
120277
120046
120003
116686
122863
122182
121631
121123
120652
120199
119826
119465
119294
115142
123416
122562
121840
121168
120545
119952
119469
118988
118664
113739
124018
122961
122042
121183
120397
119660
119062
118475
117984
112395
124815
123552
122421
121375
120441
119591
118900
118240
117579
111415
125492
124026
122668
121424
120348
119414
118654
117931
117086
110497
125926
124357
122907
121617
120553
119704
119067
118500
117669
110707
122472
122264
122093
121957
121866
121835
121896
122104
122539
123133
122148
121900
121707
121556
121449
121391
121416
121595
122103
122591
122153
121810
121547
121338
121183
121080
121063
121203
121819
122325
122304
121841
121476
121171
120927
120736
120655
120721
121398
121857
122615
122009
121520
121092
120733
120432
120273
120258
120959
121316
123124
122363
121724
121151
120659
120231
119978
119874
120556
120762
123653
122715
121904
121170
120536
119979
119624
119430
120056
120098
124364
123247
122254
121360
120596
119937
119494
119225
119758
119640
124937
123646
122462
121399
120510
119773
119264
118933
119322
119136
125324
123943
122682
121579
120690
120008
119572
119335
119684
119484
122326
122164
122040
121953
121912
121930
122025
122223
122551
122979
122033
121830
121676
121568
121510
121510
121592
121799
122237
122702
122042
121751
121529
121370
121280
121256
121328
121550
122154
122778
122192
121790
121476
121233
121070
120984
121024
121233
121988
122769
122482
121952
121527
121175
120916
120746
120741
120923
121806
122729
122944
122275
121717
121241
120870
120599
120533
120672
121645
122684
123404
122577
121872
121258
120767
120391
120253
120340
121356
122494
124034
123053
122191
121438
120836
120371
120168
120207
121212
122440
124521
123388
122366
121470
120755
120213
119951
119956
120876
122247
124865
123654
122563
121627
120901
120386
120160
120232
121107
122634
122201
122087
122002
121948
121932
121961
122042
122182
122382
122604
121958
121804
121689
121614
121586
121610
121702
121875
122168
122462
121988
121752
121573
121453
121402
121421
121529
121751
122208
122668
122147
121811
121547
121353
121243
121222
121327
121581
122223
122878
122425
121972
121608
121321
121131
121049
121137
121411
122240
123107
122848
122269
121788
121393
121111
120952
121007
121285
122283
123369
123247
122529
121920
121408
121027
120784
120795
121061
122185
123497
123803
122948
122206
121577
121102
120786
120752
121001
122194
123735
124201
123215
122341
121596
121028
120645
120563
120799
121974
123779
124500
123446
122513
121730
121148
120778
120712
120994
122137
124219
122119
122044
121989
121957
121952
121978
122036
122126
122242
122360
121934
121824
121742
121693
121681
121712
121791
121919
122103
122284
121988
121805
121667
121580
121554
121591
121701
121889
122203
122514
122157
121885
121671
121521
121449
121464
121591
121836
122315
122793
122424
122047
121744
121515
121379
121353
121484
121778
122447
123122
122812
122321
121915
121595
121385
121303
121425
121756
122619
123515
123158
122542
122026
121607
121317
121174
121275
121628
122662
123801
123645
122910
122280
121763
121397
121197
121272
121637
122794
124194
123964
123115
122376
121764
121324
121072
121117
121487
122682
124376
124218
123312
122522
121878
121421
121172
121225
121634
122820
124840
122090
122043
122010
121991
121991
122009
122046
122100
122163
122223
121959
121886
121831
121800
121797
121825
121884
121969
122077
122179
122037
121902
121799
121738
121726
121767
121862
122007
122212
122410
122212
122000
121833
121720
121674
121705
121828
122038
122378
122709
122468
122163
121918
121740
121646
121652
121793
122066
122571
123068
122823
122416
122081
121827
121675
121646
121794
122123
122812
123502
123122
122604
122174
121837
121623
121551
121697
122070
122936
123847
123547
122925
122398
121981
121706
121594
121733
122137
123149
124301
123795
123074
122458
121964
121631
121481
121606
122034
123122
124549
124011
123242
122582
122059
121709
121558
121688
122153
123256
124992
122120
122092
122073
122062
122063
122074
122097
122126
122160
122191
122033
121988
121954
121935
121936
121957
121998
122052
122113
122169
122130
122035
121963
121921
121917
121952
122027
122131
122262
122383
122306
122147
122021
121939
121910
121945
122049
122217
122451
122674
122549
122310
122118
121983
121919
121941
122071
122304
122673
123028
122871
122542
122273
122076
121969
121971
122120
122415
122941
123457
123127
122700
122349
122085
121931
121907
122068
122418
123104
123806
123498
122981
122548
122217
122016
121967
122134
122529
123359
124265
123685
123082
122577
122184
121939
121863
122030
122462
123385
124528
123868
123225
122682
122265
122004
121925
122097
122565
123521
124919
122207
122191
122181
122175
122176
122183
122195
122211
122228
122243
122156
122129
122109
122100
122102
122117
122144
122176
122209
122239
122265
122201
122152
122125
122124
122153
122207
122279
122360
122432
122435
122320
122228
122170
122153
122184
122266
122392
122551
122696
122662
122480
122333
122233
122191
122219
122328
122514
122778
123024
122951
122692
122480
122331
122258
122277
122411
122657
123048
123422
123167
122823
122542
122339
122232
122238
122392
122697
123221
123746
123490
123069
122720
122463
122320
122312
122483
122839
123490
124180
123624
123130
122722
122416
122240
122216
122395
122794
123541
124425
123781
123253
122814
122486
122297
122270
122457
122889
123677
124755
122349
122340
122335
122332
122333
122337
122344
122352
122360
122367
122321
122307
122297
122293
122296
122307
122324
122342
122359
122375
122437
122397
122365
122348
122349
122370
122408
122456
122505
122548
122595
122515
122450
122410
122400
122425
122487
122577
122683
122777
122802
122668
122559
122487
122460
122487
122573
122714
122899
123067
123057
122859
122697
122586
122538
122564
122677
122871
123154
123419
123236
122966
122746
122593
122520
122542
122679
122929
123319
123701
123517
123182
122906
122711
122613
122629
122787
123088
123584
124094
123607
123210
122887
122653
122530
122537
122710
123056
123637
124300
123743
123318
122970
122718
122585
122590
122771
123147
123772
124576
122538
122533
122532
122530
122531
122533
122537
122541
122544
122547
122524
122518
122514
122513
122517
122524
122535
122547
122555
122563
122643
122619
122599
122589
122591
122605
122631
122663
122693
122718
122782
122729
122685
122658
122652
122671
122714
122777
122849
122909
122967
122871
122792
122742
122725
122748
122813
122915
123043
123155
123189
123041
122919
122839
122809
122835
122924
123071
123272
123455
123331
123124
122957
122843
122796
122824
122938
123134
123416
123687
123576
123316
123103
122957
122892
122919
123056
123300
123666
124033
123627
123316
123065
122890
122807
122831
122984
123269
123707
124191
123749
123414
123144
122954
122863
122887
123050
123361
123839
124422
122767
122765
122765
122764
122765
122767
122768
122770
122771
122771
122759
122758
122757
122758
122762
122767
122775
122782
122786
122791
122877
122863
122852
122847
122848
122858
122875
122896
122915
122930
122993
122959
122929
122912
122909
122922
122952
122995
123043
123082
123154
123087
123032
122997
122987
123005
123052
123123
123211
123285
123342
123235
123146
123089
123070
123094
123162
123269
123409
123532
123450
123295
123171
123089
123058
123086
123177
123325
123525
123712
123663
123467
123306
123200
123158
123188
123301
123489
123754
124010
123681
123442
123253
123124
123070
123100
123229
123453
123774
124118
123793
123536
123330
123190
123130
123162
123300
123547
123901
124315
123028
123027
123028
123028
123029
123030
123031
123031
123031
123031
123019
123020
123021
123023
123026
123031
123036
123041
123044
123047
123133
123126
123120
123118
123119
123125
123137
123151
123164
123172
123224
123202
123183
123172
123170
123179
123199
123228
123260
123285
123361
123315
123276
123253
123247
123261
123294
123342
123401
123449
123515
123439
123376
123336
123325
123344
123394
123469
123565
123646
123590
123478
123387
123329
123310
123335
123404
123511
123650
123776
123777
123632
123514
123439
123412
123441
123529
123669
123856
124030
123764
123586
123445
123353
123319
123350
123452
123622
123851
124091
123871
123679
123526
123425
123387
123420
123531
123719
123975
124261
123314
123313
123314
123315
123316
123316
123317
123317
123317
123316
123298
123300
123301
123304
123307
123310
123314
123318
123321
123322
123408
123405
123402
123400
123401
123405
123413
123422
123431
123436
123470
123456
123444
123437
123436
123442
123455
123474
123496
123512
123583
123552
123526
123511
123507
123517
123539
123571
123610
123641
123705
123653
123608
123581
123575
123589
123625
123677
123741
123793
123749
123670
123605
123565
123554
123574
123624
123701
123795
123879
123914
123811
123726
123673
123657
123682
123748
123849
123978
124094
123872
123742
123641
123576
123555
123583
123662
123786
123947
124110
123980
123839
123728
123657
123634
123663
123750
123888
124069
124263
123618
123617
123619
123619
123620
123620
123621
123621
123621
123619
123591
123592
123594
123596
123598
123601
123604
123607
123610
123610
123697
123695
123694
123693
123694
123696
123700
123706
123713
123715
123729
123720
123712
123707
123707
123710
123719
123731
123746
123756
123819
123799
123781
123771
123769
123775
123790
123811
123837
123855
123910
123874
123843
123825
123822
123833
123858
123893
123935
123968
123926
123871
123825
123798
123792
123807
123844
123897
123960
124015
124072
124000
123940
123905
123895
123915
123964
124035
124123
124199
124003
123910
123838
123794
123782
123805
123863
123952
124062
124173
124115
124015
123935
123887
123873
123898
123963
124062
124187
124317
123937
123937
123938
123938
123939
123939
123940
123940
123940
123939
123894
123895
123896
123897
123898
123900
123902
123905
123908
123908
123998
123997
123996
123996
123996
123997
123999
124003
124008
124008
124000
123993
123987
123983
123983
123985
123991
123999
124010
124016
124068
124054
124041
124034
124033
124038
124048
124062
124079
124090
124129
124104
124083
124071
124069
124077
124095
124119
124148
124169
124119
124081
124049
124031
124028
124040
124066
124103
124146
124184
124250
124201
124159
124135
124130
124146
124182
124231
124292
124342
124152
124087
124037
124007
124000
124019
124061
124124
124200
124274
124275
124205
124149
124116
124109
124129
124177
124246
124332
124417
124270
124269
124270
124270
124271
124271
124271
124272
124272
124271
124206
124205
124205
124205
124206
124207
124209
124211
124214
124214
124312
124311
124309
124308
124307
124308
124309
124312
124316
124316
124281
124275
124269
124266
124265
124267
124272
124278
124287
124292
124328
124317
124307
124302
124301
124305
124314
124325
124338
124346
124360
124342
124326
124318
124317
124324
124338
124357
124379
124395
124327
124300
124278
124266
124265
124274
124294
124322
124353
124381
124446
124411
124382
124366
124364
124377
124404
124440
124484
124518
124316
124270
124236
124216
124213
124227
124259
124303
124356
124407
124458
124409
124371
124349
124346
124362
124396
124445
124504
124561
124617
124616
124617
124617
124617
124617
124618
124618
124618
124618
124523
124520
124518
124517
124517
124518
124519
124523
124527
124529
124637
124633
124630
124628
124627
124627
124629
124632
124638
124639
124570
124562
124556
124553
124552
124555
124560
124567
124576
124584
124594
124584
124575
124571
124571
124575
124583
124595
124608
124619
124597
124581
124569
124563
124563
124570
124583
124600
124621
124639
124544
124524
124508
124500
124500
124509
124526
124548
124575
124600
124650
124625
124604
124593
124593
124604
124626
124654
124690
124717
124485
124453
124429
124416
124416
124428
124451
124484
124523
124560
124661
124627
124601
124587
124586
124599
124625
124660
124702
124740
124991
124990
124990
124990
124990
124990
124991
124991
124992
124992
124836
124829
124825
124823
124822
124824
124827
124833
124840
124848
124961
124954
124948
124945
124944
124946
124950
124957
124966
124974
124857
124846
124840
124837
124837
124842
124849
124860
124873
124888
124854
124841
124833
124830
124831
124838
124849
124864
124882
124901
124825
124810
124799
124795
124797
124805
124820
124840
124864
124888
124755
124738
124726
124721
124723
124733
124750
124772
124798
124826
124840
124820
124804
124797
124799
124810
124829
124855
124889
124917
124639
124615
124598
124590
124592
124603
124622
124649
124680
124711
124886
124862
124843
124834
124835
124847
124868
124895
124928
124956
125422
125420
125419
125418
125418
125419
125421
125423
125425
125427
125123
125113
125106
125104
125105
125110
125118
125129
125143
125159
125268
125254
125245
125242
125243
125250
125261
125277
125296
125317
125136
125122
125114
125112
125115
125124
125139
125159
125182
125209
125099
125084
125074
125072
125076
125087
125105
125129
125158
125190
125037
125020
125010
125007
125011
125023
125043
125070
125103
125139
124951
124935
124924
124921
124925
124937
124957
124984
125017
125050
124989
124969
124956
124951
124955
124967
124988
125017
125054
125089
124750
124731
124719
124714
124717
124729
124748
124773
124802
124830
125149
125129
125115
125109
125112
125123
125142
125167
125197
125222
125889
125882
125877
125874
125875
125878
125884
125892
125901
125914
125399
125379
125367
125362
125365
125375
125392
125419
125457
125511
125574
125544
125527
125519
125522
125535
125559
125595
125647
125720
125433
125407
125393
125387
125392
125406
125432
125470
125523
125597
125356
125330
125315
125311
125316
125331
125358
125397
125452
125529
125261
125236
125222
125217
125223
125238
125265
125303
125357
125430
125155
125133
125120
125116
125121
125135
125160
125196
125245
125310
125117
125094
125080
125075
125079
125093
125117
125152
125199
125261
124838
124821
124810
124805
124809
124822
124842
124870
124903
124938
125439
125420
125407
125403
125406
125418
125437
125463
125493
125522
129979
131114
131394
130833
130863
132269
132731
132205
132125
133803
134458
133869
133335
135308
136246
135705
134491
136746
138011
137615
135484
137988
139595
139407
136155
138848
140762
140802
136754
139580
141758
142036
136820
139714
142082
142569
136585
139502
142004
142757
124245
124456
124586
124638
125074
125507
125699
125705
126331
126968
127246
127242
127618
128474
128842
128822
128926
129987
130435
130388
130219
131468
131996
131932
131279
132686
133287
133213
132306
133834
134500
134430
132860
134475
135200
135134
133235
134946
135753
135721
123455
123563
123631
123662
123777
124031
124175
124235
124668
125066
125279
125355
125681
126244
126544
126643
126827
127569
127966
128082
128057
128979
129477
129608
129136
130219
130809
130949
130243
131455
132121
132266
130923
132214
132926
133066
131492
132823
133573
133717
122738
122776
122808
122835
122796
122891
122968
123031
123411
123602
123739
123836
124204
124514
124723
124860
125155
125598
125887
126065
126239
126820
127195
127413
127226
127936
128391
128640
128276
129094
129620
129886
128923
129810
130390
130656
129476
130405
131044
131318
122420
122438
122454
122468
122408
122445
122483
122521
122823
122916
122999
123071
123414
123591
123735
123849
124176
124455
124670
124830
125099
125488
125777
125983
125959
126452
126808
127054
126910
127489
127904
128177
127498
128128
128583
128869
128052
128708
129202
129495
122249
122257
122265
122273
122217
122227
122241
122261
122534
122572
122616
122662
122995
123085
123174
123257
123601
123764
123911
124039
124364
124613
124826
125000
125086
125419
125693
125910
125923
126328
126652
126899
126445
126890
127244
127508
126965
127425
127797
128058
122202
122206
122210
122214
122177
122175
122176
122184
122435
122449
122469
122495
122814
122861
122913
122967
123311
123406
123503
123594
123940
124097
124248
124380
124530
124752
124955
125127
125247
125527
125774
125976
125696
126008
126277
126494
126157
126476
126747
126958
122248
122250
122251
122253
122233
122226
122220
122220
122451
122453
122460
122472
122767
122790
122819
122853
123180
123236
123299
123362
123703
123802
123906
124003
124179
124325
124472
124602
124783
124975
125157
125313
125156
125372
125569
125736
125547
125767
125961
126120
122368
122368
122369
122370
122365
122356
122346
122342
122552
122549
122548
122553
122813
122824
122839
122860
123156
123190
123231
123274
123588
123653
123725
123794
123967
124065
124169
124265
124473
124604
124736
124852
124767
124916
125057
125180
125092
125243
125379
125494
122546
122546
122546
122547
122553
122542
122531
122524
122716
122710
122706
122706
122927
122931
122940
122952
123208
123230
123257
123287
123561
123604
123655
123704
123854
123921
123996
124066
124275
124365
124460
124545
124494
124596
124696
124785
124763
124866
124960
125041
122770
122770
122770
122770
122781
122771
122760
122753
122925
122919
122914
122913
123090
123092
123097
123105
123317
123332
123352
123373
123599
123630
123667
123703
123817
123864
123919
123970
124166
124229
124297
124359
124316
124387
124457
124520
124541
124611
124675
124732
123029
123029
123029
123028
123039
123031
123021
123015
123167
123163
123159
123158
123290
123292
123296
123303
123469
123480
123497
123513
123689
123712
123741
123768
123843
123876
123917
123955
124130
124175
124224
124269
124221
124269
124318
124362
124412
124459
124502
124541
123314
123314
123313
123313
123316
123310
123304
123300
123432
123430
123429
123429
123515
123518
123524
123531
123653
123663
123678
123692
123820
123838
123861
123883
123918
123942
123974
124002
124157
124188
124225
124257
124195
124228
124262
124292
124362
124394
124423
124448
123618
123618
123618
123618
123606
123604
123602
123601
123713
123714
123716
123718
123758
123763
123771
123779
123862
123871
123885
123898
123984
123998
124017
124034
124037
124054
124077
124099
124238
124259
124285
124308
124228
124250
124273
124293
124381
124402
124421
124438
123938
123938
123938
123937
123906
123907
123909
123911
124008
124011
124016
124020
124017
124023
124032
124040
124093
124101
124114
124124
124177
124188
124203
124216
124192
124204
124221
124236
124364
124379
124397
124412
124311
124326
124340
124353
124459
124472
124485
124496
124271
124271
124271
124270
124214
124217
124223
124228
124316
124321
124327
124333
124291
124297
124306
124313
124346
124352
124361
124369
124398
124405
124415
124424
124382
124390
124400
124410
124533
124542
124553
124562
124433
124443
124452
124459
124587
124596
124604
124611
124619
124619
124618
124618
124529
124534
124541
124546
124640
124644
124650
124655
124582
124586
124592
124597
124618
124622
124627
124632
124642
124646
124651
124655
124601
124605
124609
124614
124733
124739
124744
124748
124582
124588
124593
124597
124758
124763
124768
124773
124993
124993
124993
124992
124849
124853
124858
124862
124978
124981
124984
124986
124889
124891
124893
124895
124906
124908
124909
124909
124899
124902
124903
124902
124836
124838
124838
124838
124944
124949
124950
124950
124732
124736
124739
124741
124968
124971
124975
124978
125428
125428
125428
125428
125166
125169
125171
125171
125331
125333
125333
125332
125219
125220
125219
125216
125208
125210
125208
125204
125163
125166
125164
125160
125071
125073
125071
125069
125130
125136
125136
125133
124849
124852
124853
124853
125236
125239
125242
125244
125923
125926
125927
125927
125530
125532
125530
125527
125763
125769
125767
125763
125636
125640
125638
125633
125578
125584
125582
125578
125484
125491
125490
125485
125358
125364
125363
125359
125327
125338
125339
125334
124950
124951
124951
124952
125553
125558
125561
125560
127668
126387
125296
124621
124143
123789
123509
123276
123077
122900
128655
126982
125691
124872
124274
123812
123431
123105
122837
122623
129591
127718
126268
125395
124725
124188
123722
123307
122958
122689
130648
128606
127019
126106
125370
124764
124220
123720
123281
122929
131707
129568
127872
126957
126174
125518
124906
124328
123802
123362
132774
130587
128853
127978
127184
126507
125843
125195
124582
124038
133581
131363
129664
128874
128114
127455
126768
126072
125388
124757
134375
132119
130511
129825
129128
128515
127836
127123
126396
125675
134628
132312
130813
130232
129633
129131
128539
127892
127195
126435
135176
132719
131367
130796
130212
129712
129119
128465
127753
126934
124548
124342
124069
123812
123571
123350
123149
122967
122801
122654
125285
124911
124447
124032
123660
123329
123032
122765
122534
122351
126485
125937
125248
124675
124173
123731
123335
122975
122662
122420
127734
127038
126143
125445
124838
124308
123827
123384
122985
122665
129028
128181
127111
126328
125642
125040
124486
123965
123481
123080
130343
129370
128176
127357
126625
125978
125361
124766
124199
123704
131419
130326
129065
128256
127518
126857
126200
125550
124913
124341
132473
131250
129973
129207
128490
127842
127174
126497
125815
125164
133034
131614
130358
129655
129005
128433
127823
127183
126510
125818
133762
132087
130904
130211
129565
128985
128363
127704
127010
126264
123648
123565
123433
123284
123131
122982
122839
122706
122582
122470
124173
123988
123725
123454
123196
122955
122733
122529
122350
122206
125218
124906
124478
124069
123691
123346
123030
122738
122481
122281
126409
125972
125376
124840
124356
123917
123513
123138
122798
122522
127719
127145
126383
125736
125156
124633
124146
123688
123263
122910
129096
128399
127497
126772
126119
125527
124966
124429
123921
123482
130277
129457
128448
127680
126985
126349
125731
125132
124554
124043
131437
130489
129413
128635
127922
127269
126625
125992
125367
124782
132092
130968
129866
129118
128449
127847
127237
126618
125985
125355
132757
131473
130403
129658
128984
128368
127740
127096
126437
125759
122868
122868
122834
122777
122705
122625
122542
122458
122377
122301
123098
123072
122989
122873
122738
122596
122453
122314
122189
122087
123909
123825
123653
123441
123213
122982
122755
122537
122340
122183
124933
124781
124504
124190
123865
123544
123233
122935
122660
122431
126124
125891
125494
125073
124649
124239
123842
123460
123102
122801
127440
127124
126610
126093
125582
125090
124611
124149
123710
123328
128610
128207
127586
126996
126416
125859
125313
124784
124275
123824
129781
129289
128580
127942
127317
126721
126135
125563
125003
124482
130464
129861
129099
128457
127846
127269
126692
126114
125533
124966
131133
130416
129637
128970
128340
127742
127142
126537
125928
125319
122487
122493
122482
122458
122422
122379
122332
122282
122232
122184
122571
122580
122554
122502
122430
122348
122261
122172
122091
122023
123153
123152
123090
122984
122852
122704
122551
122397
122255
122138
123967
123944
123831
123660
123455
123235
123008
122783
122570
122388
124978
124917
124732
124480
124191
123888
123582
123278
122989
122740
126152
126044
125780
125442
125069
124684
124296
123915
123549
123226
127232
127068
126720
126303
125854
125395
124936
124487
124052
123663
128344
128124
127698
127217
126709
126199
125692
125192
124704
124248
129014
128732
128254
127749
127228
126711
126189
125669
125149
124647
129649
129289
128770
128227
127678
127135
126587
126038
125491
124951
122284
122291
122289
122279
122262
122240
122215
122187
122157
122129
122294
122311
122306
122285
122250
122207
122157
122105
122056
122015
122727
122752
122736
122687
122614
122525
122427
122324
122226
122145
123367
123398
123362
123276
123153
123008
122850
122687
122530
122392
124194
124219
124147
124006
123819
123605
123378
123146
122922
122724
125196
125201
125082
124876
124618
124331
124031
123729
123434
123169
126139
126114
125938
125664
125335
124978
124609
124240
123879
123553
127147
127089
126855
126519
126130
125718
125296
124875
124459
124068
127767
127682
127408
127037
126619
126181
125731
125278
124826
124390
128327
128196
127881
127472
127024
126557
126079
125598
125119
124651
122221
122225
122225
122221
122213
122202
122189
122174
122157
122142
122202
122215
122216
122208
122192
122170
122144
122115
122088
122066
122537
122561
122560
122539
122500
122448
122387
122321
122257
122204
123045
123084
123079
123036
122965
122872
122766
122653
122541
122440
123716
123764
123743
123666
123548
123403
123240
123070
122901
122750
124546
124594
124548
124427
124255
124050
123826
123594
123364
123152
125333
125371
125292
125120
124888
124622
124336
124044
123753
123485
126210
126233
126117
125895
125610
125291
124953
124609
124265
123938
126752
126769
126625
126367
126048
125695
125322
124941
124559
124191
127223
127221
127045
126756
126406
126024
125624
125217
124810
124413
122257
122260
122261
122259
122255
122250
122243
122235
122226
122219
122229
122238
122241
122239
122233
122223
122210
122196
122183
122173
122498
122516
122520
122512
122492
122463
122426
122385
122345
122312
122905
122938
122943
122923
122882
122825
122755
122679
122602
122530
123450
123495
123494
123453
123380
123283
123171
123049
122926
122813
124129
124183
124171
124102
123989
123846
123685
123512
123338
123172
124766
124823
124793
124689
124531
124338
124124
123898
123670
123456
125505
125561
125510
125370
125169
124930
124668
124395
124119
123852
125953
126013
125945
125774
125541
125267
124970
124661
124347
124044
126341
126398
126309
126114
125854
125554
125231
124898
124562
124234
122372
122373
122374
122374
122372
122369
122366
122362
122358
122354
122344
122350
122353
122354
122353
122349
122344
122337
122332
122329
122567
122580
122585
122582
122572
122556
122534
122509
122486
122466
122893
122917
122924
122915
122892
122856
122812
122761
122710
122661
123334
123369
123374
123352
123307
123243
123167
123082
122995
122914
123884
123929
123931
123891
123819
123722
123608
123483
123354
123228
124387
124441
124434
124372
124267
124131
123974
123805
123631
123464
124999
125058
125042
124955
124817
124643
124446
124236
124020
123807
125348
125416
125390
125281
125115
124911
124682
124439
124189
123945
125663
125737
125699
125572
125385
125159
124908
124643
124375
124110
122547
122548
122549
122548
122548
122547
122545
122543
122541
122540
122524
122528
122530
122532
122533
122532
122530
122528
122526
122527
122714
122723
122727
122726
122721
122712
122699
122684
122670
122659
122973
122990
122995
122991
122977
122955
122926
122894
122860
122827
123327
123351
123357
123344
123316
123275
123224
123166
123105
123047
123767
123801
123805
123783
123736
123672
123592
123504
123410
123316
124154
124196
124199
124162
124093
123999
123887
123763
123633
123506
124652
124704
124703
124650
124557
124434
124290
124132
123968
123802
124908
124969
124964
124896
124782
124634
124462
124277
124084
123893
125164
125234
125223
125143
125013
124847
124658
124455
124246
124038
122770
122770
122771
122770
122770
122770
122769
122768
122767
122767
122751
122753
122755
122757
122758
122759
122758
122757
122757
122759
122917
122922
122925
122926
122923
122917
122909
122899
122891
122885
123119
123130
123133
123131
123121
123107
123089
123068
123045
123023
123401
123416
123419
123411
123393
123366
123332
123293
123252
123211
123747
123769
123774
123760
123730
123687
123633
123571
123505
123436
124033
124064
124069
124047
124002
123938
123859
123770
123675
123581
124436
124475
124480
124449
124387
124301
124198
124082
123961
123836
124608
124656
124660
124619
124542
124437
124312
124174
124029
123884
124818
124876
124877
124828
124740
124622
124483
124332
124174
124015
123028
123028
123028
123028
123028
123028
123027
123027
123026
123027
123012
123014
123015
123017
123017
123017
123017
123016
123016
123018
123160
123163
123165
123164
123162
123157
123151
123145
123140
123137
123313
123318
123319
123317
123310
123300
123288
123274
123259
123244
123533
123541
123542
123536
123523
123506
123483
123457
123429
123400
123799
123812
123815
123807
123787
123759
123722
123679
123633
123583
124000
124021
124026
124013
123983
123939
123885
123822
123754
123686
124323
124352
124359
124340
124299
124241
124168
124086
123998
123905
124424
124460
124466
124441
124390
124317
124229
124129
124022
123915
124601
124644
124650
124621
124562
124480
124381
124271
124155
124037
123313
123313
123313
123312
123312
123312
123312
123312
123311
123312
123298
123299
123299
123300
123299
123299
123298
123297
123296
123297
123431
123432
123432
123430
123427
123423
123419
123414
123411
123410
123538
123540
123539
123536
123530
123523
123515
123506
123496
123484
123706
123709
123708
123703
123695
123683
123668
123650
123631
123610
123904
123912
123914
123908
123895
123876
123851
123822
123790
123754
124035
124049
124053
124044
124025
123996
123958
123915
123867
123818
124295
124316
124322
124311
124284
124245
124195
124137
124075
124007
124335
124360
124366
124351
124317
124268
124206
124136
124059
123982
124489
124521
124528
124510
124472
124416
124347
124269
124186
124101
123617
123617
123617
123616
123616
123616
123615
123615
123615
123616
123600
123600
123599
123599
123597
123595
123593
123592
123591
123590
123720
123719
123717
123715
123711
123707
123704
123700
123698
123697
123785
123784
123781
123777
123773
123768
123762
123756
123749
123740
123908
123909
123907
123903
123897
123889
123878
123866
123853
123839
124050
124054
124055
124052
124043
124030
124013
123993
123971
123945
124123
124132
124136