/*--------------------------------*- C++ -*----------------------------------*\
| =========                 |                                                 |
| \\      /  F ield         | foam-extend: Open Source CFD                    |
|  \\    /   O peration     | Version:     4.0                                |
|   \\  /    A nd           | Web:         http://www.foam-extend.org         |
|    \\/     M anipulation  |                                                 |
\*---------------------------------------------------------------------------*/
FoamFile
{
    version     2.0;
    format      ascii;
    class       surfaceScalarField;
    location    "100";
    object      phi;
}
// * * * * * * * * * * * * * * * * * * * * * * * * * * * * * * * * * * * * * //

dimensions      [1 0 -1 0 0 0 0];

internalField   nonuniform List<scalar> 
97302
(
-0.000108289
7.20076e-07
-0.000672058
0.000677153
-0.000114732
1.32934e-06
-0.000678664
0.000683771
-0.000122288
1.81794e-06
-0.000683102
0.000688834
-0.000131493
2.17381e-06
-0.000686641
0.00069367
-0.000143061
2.37886e-06
-0.000689549
0.000698738
-0.000158348
2.43503e-06
-0.000691692
0.000704544
-0.000180185
2.35586e-06
-0.00069242
0.000711899
-0.000214475
2.15147e-06
-0.000688838
0.000720902
-0.000259552
1.67769e-06
-0.00067806
0.000721198
-4.36268e-07
-0.000644086
-0.000335583
0.000720553
-0.000148425
5.42389e-07
-0.000860859
0.000866812
-0.000155043
1.82627e-06
-0.000878414
0.000884526
-0.000162904
2.88181e-06
-0.000891069
0.000897859
-0.000172382
3.66119e-06
-0.000899729
0.000907716
-0.000183986
4.09588e-06
-0.000905109
0.000914996
-0.00019871
4.14925e-06
-0.000906076
0.000919086
-0.000219513
3.80177e-06
-0.000899414
0.000918771
-0.000255017
3.11412e-06
-0.000881602
0.000916095
-0.000305067
1.78773e-06
-0.000851898
0.000901558
-1.97994e-06
-0.000798971
-0.000406017
0.000901464
-0.000188866
8.6866e-07
-0.00107274
0.00107813
-0.000195501
2.61884e-06
-0.00109357
0.0010994
-0.000203486
4.01918e-06
-0.00110905
0.00111588
-0.000213321
5.06537e-06
-0.00112105
0.00112948
-0.00022575
5.68702e-06
-0.00113102
0.00114186
-0.000241865
5.81868e-06
-0.00113765
0.0011521
-0.000264559
5.30835e-06
-0.00113512
0.00115631
-0.000304309
4.2048e-06
-0.00111806
0.0011567
-0.00036025
2.04074e-06
-0.00108572
0.00114116
-3.51139e-06
-0.00102492
-0.000477311
0.00114351
-0.000229855
1.58274e-06
-0.00129861
0.0013037
-0.000236671
3.67781e-06
-0.00132095
0.00132669
-0.000244888
5.29729e-06
-0.00133771
0.00134463
-0.000255074
6.49863e-06
-0.00135158
0.00136032
-0.000268193
7.23245e-06
-0.00136437
0.00137595
-0.000285717
7.45696e-06
-0.00137566
0.00139154
-0.000310746
6.88328e-06
-0.00137926
0.00140271
-0.000355103
5.50063e-06
-0.0013672
0.00141026
-0.000417305
2.67159e-06
-0.0013366
0.00139798
-4.6355e-06
-0.00126979
-0.000549285
0.00140289
-0.000272294
2.36648e-06
-0.00153234
0.00153773
-0.000279311
4.65732e-06
-0.00155588
0.0015619
-0.000287582
6.37507e-06
-0.00157355
0.00158073
-0.00029776
7.61492e-06
-0.00158874
0.0015978
-0.000311038
8.35933e-06
-0.00160339
0.00161554
-0.000329418
8.64202e-06
-0.00161815
0.00163535
-0.000356561
8.11495e-06
-0.00162839
0.00165431
-0.000405148
6.65531e-06
-0.00162446
0.00167189
-0.000473173
3.40143e-06
-0.00159951
0.00166669
-5.49908e-06
-0.00152707
-0.000618434
0.00167319
-0.000316065
2.65311e-06
-0.00176736
0.0017735
-0.000323121
5.06031e-06
-0.00179272
0.00179934
-0.000331249
6.81736e-06
-0.00181151
0.00181917
-0.000341152
8.03247e-06
-0.00182803
0.00183751
-0.000354203
8.7242e-06
-0.00184419
0.00185687
-0.000372881
9.0037e-06
-0.00186143
0.00187974
-0.00040165
8.55315e-06
-0.00187758
0.00190591
-0.000453853
7.18612e-06
-0.00188359
0.00193526
-0.000527015
3.88336e-06
-0.00186862
0.00194124
-6.33354e-06
-0.00179116
-0.000683326
0.0019483
-0.000361037
2.24244e-06
-0.00200423
0.00201112
-0.000367939
4.70459e-06
-0.00203177
0.00203897
-0.000375743
6.46133e-06
-0.00205185
0.00205998
-0.000385131
7.55008e-06
-0.00206962
0.00207949
-0.000397567
8.04537e-06
-0.002087
0.00210012
-0.000415829
8.14394e-06
-0.00210595
0.00212507
-0.000445314
7.72758e-06
-0.00212681
0.00215712
-0.000500111
6.63189e-06
-0.0021434
0.00219875
-0.000577461
3.83486e-06
-0.0021426
0.00221999
-7.257e-06
-0.00206218
-0.000741885
0.00222752
-0.00040766
3.66361e-07
-0.00224619
0.00225436
-0.000414391
2.86135e-06
-0.0022769
0.0022854
-0.000421931
4.58476e-06
-0.00229886
0.00230824
-0.000430872
5.49194e-06
-0.0023178
0.00232879
-0.000442603
5.68922e-06
-0.00233562
0.00234971
-0.000459898
5.40849e-06
-0.00235477
0.0023748
-0.000488977
4.83945e-06
-0.00237765
0.00240962
-0.00054492
3.95103e-06
-0.00240337
0.00246199
-0.000625351
2.3849e-06
-0.00242119
0.00250307
-8.1599e-06
-0.00234351
-0.000795616
0.00251468
-0.000453492
-1.10257e-06
-0.00249446
0.00250153
-0.000460095
6.58717e-07
-0.00253249
0.0025412
-0.000467645
1.70807e-06
-0.00256017
0.00257055
-0.000476532
1.95391e-06
-0.00258295
0.00259537
-0.000487946
1.55585e-06
-0.00260259
0.00261814
-0.000504364
6.82303e-07
-0.00262262
0.00264377
-0.000532292
-2.69063e-07
-0.00264657
0.0026796
-0.000587709
-1.09234e-06
-0.00267879
0.00273925
-0.000669455
-1.05934e-06
-0.0027156
0.00280079
-8.33286e-06
-0.00264643
-0.00084197
0.00281912
-0.000500035
-0.00272805
0.00273252
-0.000507191
-0.00277236
0.00278006
-0.000515246
-0.00280435
0.00281406
-0.000524567
-0.0028275
0.00283878
-0.00053608
-0.00284358
0.00285665
-0.000551996
-0.00285725
0.00287385
-0.000578563
-0.00287452
0.00290082
-0.000631545
-0.00290529
0.00295718
-0.000708872
-0.00296045
0.00303672
-0.00292926
-0.000879949
0.003092
2.48289e-05
6.44222e-07
-0.000667603
1.88309e-05
1.26407e-06
-0.000673932
1.1695e-05
1.76613e-06
-0.000677733
3.21334e-06
2.11606e-06
-0.000680275
-6.80649e-06
2.28828e-06
-0.000681818
-1.86516e-05
2.26648e-06
-0.000682113
-3.27147e-05
2.03995e-06
-0.000680397
-4.86302e-05
1.58428e-06
-0.000674507
-6.63283e-05
7.09811e-07
-0.000661084
-4.2514e-07
-0.000633211
-7.6841e-05
3.03975e-05
3.93942e-07
-0.000855412
2.39151e-05
1.69738e-06
-0.000872365
1.59588e-05
2.76773e-06
-0.000884114
6.39943e-06
3.53333e-06
-0.000891587
-4.89774e-06
3.92547e-06
-0.000895449
-1.80827e-05
3.90179e-06
-0.000894526
-3.37085e-05
3.39514e-06
-0.000885143
-5.30338e-05
2.42156e-06
-0.000863114
-7.88262e-05
5.71665e-07
-0.00082602
-1.88624e-06
-0.000774146
-0.000102245
3.53751e-05
6.8151e-07
-0.00106737
2.84993e-05
2.42827e-06
-0.00108743
2.0171e-05
3.83e-06
-0.00110178
1.00883e-05
4.85795e-06
-0.00111229
-2.26783e-06
5.43962e-06
-0.00112018
-1.74684e-05
5.52075e-06
-0.00112407
-3.63757e-05
4.89194e-06
-0.00111771
-6.17568e-05
3.5494e-06
-0.00109381
-0.000100156
8.17418e-07
-0.00104764
-2.85053e-06
-0.000980445
-0.000143721
4.00758e-05
1.26011e-06
-0.00129282
3.25782e-05
3.3587e-06
-0.00131438
2.36829e-05
5.00604e-06
-0.00132999
1.29508e-05
6.22827e-06
-0.00134221
-3.78187e-07
6.95167e-06
-0.00135255
-1.73497e-05
7.1493e-06
-0.00136031
-3.95039e-05
6.4765e-06
-0.00135869
-7.09531e-05
4.89198e-06
-0.00133709
-0.000122585
1.42945e-06
-0.00128563
-3.37514e-06
-0.00120472
-0.000187159
4.38971e-05
1.85979e-06
-0.00152547
3.56175e-05
4.20446e-06
-0.00154845
2.61404e-05
6.00925e-06
-0.00156507
1.49169e-05
7.33084e-06
-0.00157862
1.01008e-06
8.09868e-06
-0.00159063
-1.70637e-05
8.36065e-06
-0.00160129
-4.18995e-05
7.72387e-06
-0.00160481
-7.88491e-05
6.10052e-06
-0.00158872
-0.000143322
2.15383e-06
-0.00153579
-3.72577e-06
-0.00144218
-0.00022786
4.72752e-05
1.98592e-06
-0.00175887
3.81792e-05
4.52711e-06
-0.00178395
2.80893e-05
6.44458e-06
-0.00180185
1.6415e-05
7.80842e-06
-0.00181683
2.0992e-06
8.56388e-06
-0.00183034
-1.66262e-05
8.83611e-06
-0.00184318
-4.35191e-05
8.25368e-06
-0.00185121
-8.53266e-05
6.7334e-06
-0.00184241
-0.000162301
2.72895e-06
-0.00179222
-4.09165e-06
-0.0016871
-0.000265992
4.98944e-05
1.46829e-06
-0.00199402
3.99694e-05
4.14946e-06
-0.00202147
2.92403e-05
6.13948e-06
-0.00204082
1.71726e-05
7.44852e-06
-0.00205719
2.64643e-06
8.06742e-06
-0.00207198
-1.61834e-05
8.17626e-06
-0.00208646
-4.41352e-05
7.57561e-06
-0.00209818
-8.96352e-05
6.24752e-06
-0.00209741
-0.000178109
2.80265e-06
-0.0020542
-4.8546e-06
-0.00193983
-0.000299693
5.19963e-05
-2.94339e-07
-0.00223371
4.11336e-05
2.47023e-06
-0.00226438
2.961e-05
4.47055e-06
-0.00228567
1.70087e-05
5.65956e-06
-0.00230341
2.2705e-06
6.07995e-06
-0.0023189
-1.63196e-05
5.90666e-06
-0.00233392
-4.42467e-05
5.21602e-06
-0.00234736
-9.17436e-05
3.98386e-06
-0.0023536
-0.000190179
1.79598e-06
-0.00232175
-6.10899e-06
-0.00220298
-0.000329453
5.49915e-05
-1.43874e-06
-0.002482
4.31673e-05
5.14606e-07
-0.00251874
3.059e-05
1.79579e-06
-0.00254492
1.71233e-05
2.28853e-06
-0.00256611
1.80026e-06
2.14419e-06
-0.00258333
-1.6916e-05
1.45387e-06
-0.00259945
-4.45034e-05
4.79835e-07
-0.00261424
-9.23485e-05
-7.92964e-07
-0.00262617
-0.000198053
-1.48914e-06
-0.00260661
-6.99148e-06
-0.00248598
-0.000357627
5.56503e-05
-0.00271754
4.27021e-05
-0.00275894
2.91889e-05
-0.00278905
1.50373e-05
-0.00281106
-4.38107e-07
-0.00282596
-1.87431e-05
-0.0028375
-4.51385e-05
-0.00284764
-9.16909e-05
-0.00285953
-0.000199966
-0.00285366
-0.00274948
-0.000386742
1.99327e-05
5.76943e-07
-0.000664194
1.47435e-05
1.17925e-06
-0.000669923
8.3918e-06
1.66392e-06
-0.000673045
9.49157e-07
1.98198e-06
-0.000674814
-7.4672e-06
2.10622e-06
-0.000675508
-1.66269e-05
2.01013e-06
-0.000674963
-2.60691e-05
1.67471e-06
-0.000672629
-3.46082e-05
1.09306e-06
-0.000667061
-4.07132e-05
1.54069e-07
-0.000655143
-8.587e-07
-0.000632031
-4.10614e-05
2.66453e-05
3.88984e-07
-0.000850911
2.06033e-05
1.65951e-06
-0.000866804
1.29007e-05
2.68011e-06
-0.000877428
3.66732e-06
3.36894e-06
-0.000883741
-6.93359e-06
3.66052e-06
-0.000886403
-1.85746e-05
3.50576e-06
-0.000884381
-3.07009e-05
2.83689e-06
-0.000874179
-4.25449e-05
1.66043e-06
-0.000851837
-5.28779e-05
-2.96046e-07
-0.000815257
-2.48891e-06
-0.00076679
-5.86124e-05
3.2109e-05
7.17111e-07
-0.00106266
2.54343e-05
2.38858e-06
-0.00108148
1.71265e-05
3.71703e-06
-0.00109451
7.06281e-06
4.65958e-06
-0.00110352
-5.02094e-06
5.13518e-06
-0.00110957
-1.9271e-05
5.06563e-06
-0.00111138
-3.52368e-05
4.2562e-06
-0.00110317
-5.25882e-05
2.65689e-06
-0.00107745
-7.10709e-05
-2.91139e-07
-0.00102919
-3.64173e-06
-0.000963499
-8.68643e-05
3.70763e-05
1.22279e-06
-0.00128733
2.96292e-05
3.24135e-06
-0.00130778
2.0634e-05
4.83453e-06
-0.00132211
9.74398e-06
6.00624e-06
-0.00133267
-3.61081e-06
6.65778e-06
-0.00134072
-2.01211e-05
6.71151e-06
-0.00134545
-3.99283e-05
5.83751e-06
-0.00134046
-6.33564e-05
3.93156e-06
-0.00131494
-9.18445e-05
6.53656e-08
-0.00125752
-4.43014e-06
-0.00117547
-0.000120302
4.12076e-05
1.70029e-06
-0.00151869
3.28841e-05
4.00688e-06
-0.00154089
2.3213e-05
5.80611e-06
-0.00155637
1.16856e-05
7.13042e-06
-0.00156821
-2.47543e-06
7.87245e-06
-0.00157768
-2.04636e-05
8.00888e-06
-0.0015846
-4.34831e-05
7.14502e-06
-0.00158309
-7.28777e-05
5.1397e-06
-0.00156053
-0.000112348
5.80695e-07
-0.00149685
-5.02887e-06
-0.00139894
-0.00015499
4.50144e-05
1.73566e-06
-0.00175042
3.57837e-05
4.30549e-06
-0.00177502
2.53998e-05
6.26947e-06
-0.00179193
1.32705e-05
7.68659e-06
-0.00180526
-1.51432e-06
8.46012e-06
-0.00181614
-2.04933e-05
8.63841e-06
-0.00182483
-4.60736e-05
7.82037e-06
-0.00182631
-8.10736e-05
5.87273e-06
-0.00180814
-0.00013222
1.06039e-06
-0.00174155
-5.55606e-06
-0.00162869
-0.000190104
4.80659e-05
1.22472e-06
-0.00198382
3.79315e-05
3.99339e-06
-0.00201102
2.68316e-05
6.06577e-06
-0.00202951
1.41859e-05
7.47293e-06
-0.00204434
-9.90117e-07
8.1687e-06
-0.00205651
-2.03718e-05
8.2512e-06
-0.00206669
-4.74823e-05
7.43547e-06
-0.00207068
-8.70414e-05
5.63815e-06
-0.00205762
-0.000149602
1.20152e-06
-0.00199178
-6.43943e-06
-0.00186574
-0.000222811
5.04966e-05
-2.93208e-07
-0.00222142
3.94134e-05
2.55459e-06
-0.00225187
2.75161e-05
4.61762e-06
-0.00227233
1.42863e-05
5.9079e-06
-0.00228861
-1.23168e-06
6.44689e-06
-0.00230166
-2.06689e-05
6.35455e-06
-0.00231258
-4.82857e-05
5.57618e-06
-0.00231789
-9.07781e-05
3.95988e-06
-0.00230943
-0.0001636
7.20291e-07
-0.00224844
-7.7019e-06
-0.002113
-0.00025232
5.33936e-05
-1.17728e-06
-0.00246964
4.14083e-05
7.81162e-07
-0.00250499
2.85747e-05
2.10726e-06
-0.00252957
1.45888e-05
2.70636e-06
-0.00254893
-1.47636e-06
2.72386e-06
-0.00256354
-2.1274e-05
2.22984e-06
-0.00257553
-4.92408e-05
1.38373e-06
-0.00258208
-9.31091e-05
-2.85212e-09
-0.00257834
-0.000173153
-1.63123e-06
-0.00252421
-8.47375e-06
-0.00238039
-0.000277972
5.39558e-05
-0.00270676
4.10446e-05
-0.00274527
2.74925e-05
-0.00277339
1.30389e-05
-0.0027939
-3.02706e-06
-0.00280717
-2.23754e-05
-0.00281592
-4.95129e-05
-0.00281912
-9.33461e-05
-0.0028157
-0.00017634
-0.0027723
-0.00263497
-0.000299319
1.52716e-05
4.66365e-07
-0.00066181
1.11197e-05
1.02107e-06
-0.000666793
5.88761e-06
1.46351e-06
-0.000669277
-1.63099e-07
1.73445e-06
-0.000670498
-6.71718e-06
1.80657e-06
-0.00067076
-1.33116e-05
1.6469e-06
-0.000670016
-1.92423e-05
1.23832e-06
-0.000667937
-2.33556e-05
6.01768e-07
-0.00066355
-2.38609e-05
-2.78702e-07
-0.000654363
-1.15938e-06
-0.000635515
-1.92345e-05
2.23403e-05
3.60856e-07
-0.000847431
1.69851e-05
1.54986e-06
-0.000861977
9.94004e-06
2.48387e-06
-0.000871403
1.54737e-06
3.07522e-06
-0.000876689
-7.78697e-06
3.26336e-06
-0.000878525
-1.73992e-05
2.99285e-06
-0.000876115
-2.62601e-05
2.2083e-06
-0.000866288
-3.30429e-05
9.41376e-07
-0.000845394
-3.5505e-05
-9.20176e-07
-0.000812158
-2.8142e-06
-0.00076841
-3.2241e-05
2.80872e-05
7.33944e-07
-0.00105874
2.18732e-05
2.28216e-06
-0.001076
1.39486e-05
3.49983e-06
-0.0010876
4.37214e-06
4.32668e-06
-0.0010952
-6.84823e-06
4.68014e-06
-0.00109977
-1.94216e-05
4.46855e-06
-0.00110028
-3.21852e-05
3.52171e-06
-0.00109172
-4.34831e-05
1.79509e-06
-0.00106701
-5.02074e-05
-1.07268e-06
-0.00102232
-4.05904e-06
-0.000962528
-4.99416e-05
3.32138e-05
1.17665e-06
-0.00128237
2.60829e-05
3.07719e-06
-0.00130145
1.73054e-05
4.57881e-06
-0.00131441
6.66633e-06
5.65689e-06
-0.00132336
-6.15957e-06
6.20435e-06
-0.00132942
-2.13972e-05
6.11634e-06
-0.00133186
-3.82282e-05
5.08337e-06
-0.00132519
-5.49226e-05
2.98452e-06
-0.00129944
-6.77823e-05
-9.11039e-07
-0.00124483
-5.0459e-06
-0.0011694
-7.28667e-05
3.76334e-05
1.55403e-06
-0.00151233
2.95287e-05
3.79535e-06
-0.00153351
1.9939e-05
5.55084e-06
-0.00154776
8.4564e-06
6.824e-06
-0.0015579
-5.46985e-06
7.49478e-06
-0.00156505
-2.25878e-05
7.49918e-06
-0.00156886
-4.29188e-05
6.44643e-06
-0.00156413
-6.52222e-05
4.16727e-06
-0.00153941
-8.56934e-05
-5.93994e-07
-0.0014767
-5.88823e-06
-0.00138568
-9.81162e-05
4.18616e-05
1.54733e-06
-0.00174241
3.27603e-05
4.12319e-06
-0.00176624
2.23315e-05
6.09127e-06
-0.00178205
1.00521e-05
7.49896e-06
-0.00179366
-4.77687e-06
8.23655e-06
-0.00180205
-2.32998e-05
8.30596e-06
-0.00180711
-4.65569e-05
7.28353e-06
-0.00180389
-7.44032e-05
4.98376e-06
-0.00178111
-0.000103891
-2.48285e-07
-0.00171242
-6.61927e-06
-0.00160624
-0.000125607
4.53467e-05
1.11742e-06
-0.00197414
3.52697e-05
3.94583e-06
-0.00200077
2.40361e-05
6.04693e-06
-0.00201824
1.10936e-05
7.47506e-06
-0.00203137
-4.35484e-06
8.17558e-06
-0.002041
-2.36697e-05
8.20199e-06
-0.00204727
-4.88891e-05
7.19955e-06
-0.00204538
-8.14805e-05
4.99844e-06
-0.00202504
-0.000120544
-1.02752e-07
-0.00195287
-7.6325e-06
-0.00183265
-0.000152618
4.81104e-05
-8.38637e-08
-0.00220984
3.70766e-05
2.81141e-06
-0.0022397
2.50371e-05
4.88114e-06
-0.00225912
1.14573e-05
6.19776e-06
-0.00227376
-4.47694e-06
6.77148e-06
-0.00228432
-2.41974e-05
6.69793e-06
-0.00229136
-5.04702e-05
5.81368e-06
-0.00229023
-8.64754e-05
3.85129e-06
-0.00227228
-0.000134794
-2.12773e-07
-0.00220001
-8.88052e-06
-0.00206859
-0.000177956
5.1068e-05
-7.48835e-07
-0.00245779
3.91639e-05
1.1868e-06
-0.00249146
2.62588e-05
2.52074e-06
-0.00251431
1.19967e-05
3.18085e-06
-0.00253165
-4.44466e-06
3.2955e-06
-0.00254363
-2.46488e-05
2.91948e-06
-0.00255155
-5.1799e-05
2.12109e-06
-0.00255124
-9.01372e-05
6.17979e-07
-0.00253677
-0.000145595
-1.70021e-06
-0.00246727
-9.42617e-06
-0.00232528
-0.000200152
5.16681e-05
-0.0026959
3.90048e-05
-0.00273143
2.55542e-05
-0.00275742
1.09839e-05
-0.00277615
-5.36851e-06
-0.00278753
-2.51108e-05
-0.00279326
-5.16863e-05
-0.00279042
-9.10423e-05
-0.00277573
-0.000150798
-0.00271424
-0.00257431
-0.000220883
1.13705e-05
3.1862e-07
-0.000660125
8.17266e-06
7.97972e-07
-0.000664393
4.06434e-06
1.17886e-06
-0.000666347
-6.27979e-07
1.39509e-06
-0.000667201
-5.52886e-06
1.42111e-06
-0.00066728
-1.0149e-05
1.22294e-06
-0.000666619
-1.385e-05
7.88652e-07
-0.000665024
-1.58308e-05
1.61065e-07
-0.00066173
-1.50973e-05
-6.08055e-07
-0.00065449
-1.33211e-06
-0.00063809
-1.11992e-05
1.80652e-05
3.04943e-07
-0.000844799
1.34656e-05
1.36605e-06
-0.000857946
7.29752e-06
2.18378e-06
-0.00086624
2.438e-08
2.66818e-06
-0.000870689
-7.82193e-06
2.76497e-06
-0.000872023
-1.54433e-05
2.41716e-06
-0.000869687
-2.17203e-05
1.58412e-06
-0.000860807
-2.55187e-05
3.31391e-07
-0.000841766
-2.54187e-05
-1.31458e-06
-0.000811552
-2.87953e-06
-0.000771071
-2.12189e-05
2.37555e-05
7.01808e-07
-0.00105556
1.81777e-05
2.0901e-06
-0.00107115
1.09352e-05
3.17377e-06
-0.00108135
2.23996e-06
3.8743e-06
-0.00108771
-7.68475e-06
4.11119e-06
-0.00109119
-1.82719e-05
3.78939e-06
-0.00109107
-2.80947e-05
2.76984e-06
-0.00108308
-3.53035e-05
1.04155e-06
-0.00106051
-3.72048e-05
-1.54095e-06
-0.00102019
-4.06302e-06
-0.000965514
-3.30449e-05
2.88689e-05
1.08251e-06
-0.00127802
2.22867e-05
2.84712e-06
-0.00129562
1.40328e-05
4.24042e-06
-0.00130722
4.04812e-06
5.207e-06
-0.00131471
-7.73575e-06
5.64023e-06
-0.00131917
-2.11503e-05
5.42593e-06
-0.00132008
-3.48802e-05
4.29273e-06
-0.00131299
-4.65064e-05
2.14298e-06
-0.00128891
-5.17065e-05
-1.4759e-06
-0.0012397
-5.07538e-06
-0.00117132
-4.87762e-05
3.35251e-05
1.38772e-06
-0.0015066
2.58887e-05
3.55865e-06
-0.00152658
1.66623e-05
5.25465e-06
-0.00153954
5.5948e-06
6.44902e-06
-0.00154807
-7.58716e-06
7.02155e-06
-0.00155325
-2.31623e-05
6.88823e-06
-0.00155475
-4.03772e-05
5.69298e-06
-0.00154831
-5.68307e-05
3.28412e-06
-0.0015241
-6.65995e-05
-1.28466e-06
-0.00146713
-6.01585e-06
-0.0013851
-6.62329e-05
3.8145e-05
1.39452e-06
-0.00173512
2.94271e-05
3.97384e-06
-0.00175794
1.92116e-05
5.9261e-06
-0.0017725
7.11847e-06
7.28773e-06
-0.0017824
-7.27579e-06
7.94851e-06
-0.00178858
-2.46276e-05
7.88245e-06
-0.00179076
-4.49153e-05
6.68532e-06
-0.00178459
-6.63498e-05
4.167e-06
-0.00176056
-8.21596e-05
-1.04374e-06
-0.00169685
-6.85905e-06
-0.00160145
-8.61076e-05
4.20457e-05
1.11666e-06
-0.00196529
3.22791e-05
3.99424e-06
-0.00199102
2.11513e-05
6.09678e-06
-0.00200728
8.22377e-06
7.50258e-06
-0.00201866
-7.05112e-06
8.15569e-06
-0.00202593
-2.55931e-05
8.07767e-06
-0.00202893
-4.81441e-05
6.89627e-06
-0.00202304
-7.4017e-05
4.41237e-06
-0.00199942
-9.68093e-05
-9.11703e-07
-0.00193021
-7.92686e-06
-0.00182203
-0.000106362
4.51356e-05
2.80708e-07
-0.00219931
3.43944e-05
3.20086e-06
-0.00222816
2.24348e-05
5.24725e-06
-0.00224631
8.79868e-06
6.5524e-06
-0.00225917
-7.12167e-06
7.11168e-06
-0.00226735
-2.6426e-05
6.99133e-06
-0.00227097
-5.04995e-05
5.9642e-06
-0.00226522
-7.98672e-05
3.72731e-06
-0.00224223
-0.000110027
-8.02128e-07
-0.00216996
-9.15365e-06
-0.00205106
-0.000126324
4.82037e-05
-1.94955e-07
-0.00244669
3.65986e-05
1.69692e-06
-0.00247836
2.38154e-05
3.01533e-06
-0.00249929
9.53591e-06
3.70945e-06
-0.00251452
-6.88694e-06
3.88553e-06
-0.00252398
-2.67603e-05
3.57549e-06
-0.00252826
-5.20341e-05
2.76596e-06
-0.00252277
-8.43373e-05
1.13453e-06
-0.00250187
-0.000120971
-1.60074e-06
-0.00242983
-9.48546e-06
-0.00230092
-0.000145006
4.88602e-05
-0.0026851
3.66356e-05
-0.00271751
2.34443e-05
-0.00274121
8.96749e-06
-0.00275796
-7.34138e-06
-0.00276733
-2.68472e-05
-0.00277017
-5.18128e-05
-0.00276269
-8.56092e-05
-0.0027408
-0.000127034
-0.00267442
-0.0025468
-0.000164026
8.35783e-06
1.44265e-07
-0.000658833
5.92617e-06
5.28475e-07
-0.000662489
2.78017e-06
8.36658e-07
-0.000664038
-7.64643e-07
9.97672e-07
-0.000664654
-4.35768e-06
9.87947e-07
-0.000664675
-7.57302e-06
7.74862e-07
-0.000664178
-9.91178e-06
3.51045e-07
-0.000663036
-1.08489e-05
-2.29603e-07
-0.000660563
-9.8452e-06
-8.77076e-07
-0.000654617
-1.43956e-06
-0.000639699
-6.79902e-06
1.41233e-05
2.2983e-07
-0.000842809
1.02476e-05
1.12728e-06
-0.000854669
5.02267e-06
1.8104e-06
-0.000861989
-1.06122e-06
2.18939e-06
-0.000865796
-7.45352e-06
2.21565e-06
-0.000866858
-1.33631e-05
1.83342e-06
-0.000864836
-1.7732e-05
1.0136e-06
-0.0008571
-1.96831e-05
-1.57373e-07
-0.000839887
-1.85524e-05
-1.56312e-06
-0.000811996
-2.81717e-06
-0.000773604
-1.4645e-05
1.94568e-05
6.33223e-07
-0.00105301
1.4606e-05
1.83771e-06
-0.00106701
8.2427e-06
2.7756e-06
-0.00107595
6.66615e-07
3.35231e-06
-0.00108129
-7.77995e-06
3.49203e-06
-0.00108402
-1.64136e-05
3.10465e-06
-0.0010837
-2.37946e-05
2.08254e-06
-0.00107677
-2.82271e-05
4.44137e-07
-0.00105668
-2.79807e-05
-1.79198e-06
-0.00102021
-3.86219e-06
-0.000969313
-2.31418e-05
2.437e-05
9.66206e-07
-0.00127435
1.85048e-05
2.58878e-06
-0.00129051
1.10219e-05
3.86683e-06
-0.00130083
2.0024e-06
4.7176e-06
-0.00130706
-8.41757e-06
5.04193e-06
-0.0013103
-1.98078e-05
4.73129e-06
-0.00131032
-3.0689e-05
3.56486e-06
-0.00130359
-3.86032e-05
1.4778e-06
-0.00128203
-4.00991e-05
-1.72756e-06
-0.00123827
-4.75401e-06
-0.00117572
-3.48201e-05
2.91723e-05
1.24226e-06
-0.00150165
2.22035e-05
3.34274e-06
-0.00152037
1.35933e-05
4.96902e-06
-0.00153204
3.26937e-06
6.06937e-06
-0.0015391
-8.77661e-06
6.53285e-06
-0.00154269
-2.24284e-05
6.27139e-06
-0.00154264
-3.65313e-05
4.98918e-06
-0.00153563
-4.84006e-05
2.57643e-06
-0.00151333
-5.2515e-05
-1.57125e-06
-0.00146317
-5.6309e-06
-0.0013893
-4.74444e-05
3.41042e-05
1.32464e-06
-0.00172879
2.59817e-05
3.90071e-06
-0.00175038
1.62265e-05
5.81848e-06
-0.0017636
4.6502e-06
7.10852e-06
-0.00177186
-8.88135e-06
7.66869e-06
-0.00177619
-2.45499e-05
7.45646e-06
-0.00177627
-4.16451e-05
6.12281e-06
-0.00176863
-5.77413e-05
3.51442e-06
-0.0017454
-6.56343e-05
-1.36641e-06
-0.00168916
-6.44479e-06
-0.00160433
-6.19404e-05
3.8348e-05
1.26181e-06
-0.00195756
2.91109e-05
4.16661e-06
-0.00198205
1.83284e-05
6.24273e-06
-0.00199692
5.74191e-06
7.59436e-06
-0.00200656
-8.91637e-06
8.1694e-06
-0.00201178
-2.60873e-05
7.96197e-06
-0.00201226
-4.55568e-05
6.62066e-06
-0.00200407
-6.55388e-05
3.96975e-06
-0.00197989
-7.80751e-05
-1.22177e-06
-0.00191781
-7.46044e-06
-0.00182236
-7.67291e-05
4.17095e-05
8.09099e-07
-0.00219008
3.1475e-05
3.71876e-06
-0.00221748
1.98211e-05
5.70996e-06
-0.00223413
6.43901e-06
6.97226e-06
-0.00224517
-9.02703e-06
7.4869e-06
-0.00225121
-2.72569e-05
7.28852e-06
-0.00225206
-4.8544e-05
6.11647e-06
-0.00224343
-7.18348e-05
3.68068e-06
-0.00221865
-8.97119e-05
-9.85714e-07
-0.00215232
-8.63285e-06
-0.00204779
-9.18128e-05
4.4874e-05
4.70423e-07
-0.00243654
3.37699e-05
2.29165e-06
-0.00246582
2.13149e-05
3.56901e-06
-0.0024847
7.29822e-06
4.26963e-06
-0.0024978
-8.70776e-06
4.47588e-06
-0.00250496
-2.76095e-05
4.19556e-06
-0.00250627
-5.02466e-05
3.35308e-06
-0.00249737
-7.66041e-05
1.6233e-06
-0.00247346
-9.98045e-05
-1.31155e-06
-0.00240631
-8.71602e-06
-0.00229389
-0.000106751
4.55827e-05
-0.00267447
3.3974e-05
-0.00270361
2.12158e-05
-0.00272488
7.06697e-06
-0.00273954
-8.8501e-06
-0.00274694
-2.75444e-05
-0.00274729
-5.01968e-05
-0.00273669
-7.8183e-05
-0.00271119
-0.000105897
-0.00264802
-0.00253951
-0.000121912
6.19272e-06
-4.90456e-08
-0.000657683
4.31209e-06
2.31628e-07
-0.00066084
1.90072e-06
4.65078e-07
-0.000662091
-7.72164e-07
5.75861e-07
-0.000662557
-3.41926e-06
5.41684e-07
-0.00066257
-5.70496e-06
3.3159e-07
-0.000662224
-7.26203e-06
-5.96839e-08
-0.00066142
-7.73778e-06
-5.7799e-07
-0.000659509
-6.81245e-06
-1.11474e-06
-0.000654427
-1.53266e-06
-0.000640538
-4.4404e-06
1.0701e-05
1.47209e-07
-0.000841261
7.4528e-06
8.60953e-07
-0.00085205
3.1209e-06
1.40415e-06
-0.000858596
-1.85272e-06
1.68776e-06
-0.000861935
-6.97264e-06
1.66697e-06
-0.000862863
-1.15409e-05
1.28825e-06
-0.000861225
-1.46267e-05
5.29981e-07
-0.000854604
-1.55528e-05
-5.16596e-07
-0.000839022
-1.41229e-05
-1.68984e-06
-0.000812851
-2.66781e-06
-0.000775761
-1.08298e-05
1.54818e-05
5.55774e-07
-0.00105096
1.13635e-05
1.56887e-06
-0.0010636
5.95399e-06
2.36081e-06
-0.0010715
-4.27733e-07
2.82531e-06
-0.00107605
-7.40912e-06
2.89325e-06
-0.00107826
-1.43168e-05
2.48587e-06
-0.00107799
-1.98404e-05
1.52526e-06
-0.00107224
-2.24942e-05
4.63912e-08
-0.00105459
-2.12986e-05
-1.83994e-06
-0.00102126
-3.50704e-06
-0.000973022
-1.67504e-05
2.00394e-05
8.75226e-07
-0.00127135
1.49714e-05
2.35975e-06
-0.00128623
8.40405e-06
3.52209e-06
-0.00129542
5.2112e-07
4.26074e-06
-0.00130061
-8.40732e-06
4.49005e-06
-0.00130296
-1.78244e-05
4.11926e-06
-0.00130253
-2.62991e-05
2.98468e-06
-0.00129657
-3.15696e-05
1.05009e-06
-0.00127776
-3.11854e-05
-1.70403e-06
-0.00123879
-4.19873e-06
-0.00118072
-2.5489e-05
2.48729e-05
1.17836e-06
-0.00149759
1.86897e-05
3.2075e-06
-0.00151503
1.08727e-05
4.75359e-06
-0.00152545
1.52166e-06
5.75095e-06
-0.00153124
-9.15626e-06
6.106e-06
-0.00153363
-2.07709e-05
5.73923e-06
-0.00153265
-3.2037e-05
4.42941e-06
-0.00152581
-4.03957e-05
2.11526e-06
-0.00150604
-4.1465e-05
-1.51417e-06
-0.00146229
-4.91202e-06
-0.00139513
-3.49249e-05
2.99872e-05
1.39692e-06
-0.00172355
2.26014e-05
3.95172e-06
-0.00174373
1.35035e-05
5.81097e-06
-0.00175556
2.71384e-06
7.0085e-06
-0.00176233
-9.64101e-06
7.45789e-06
-0.00176519
-2.33603e-05
7.10913e-06
-0.00176392
-3.7364e-05
5.68855e-06
-0.00175589
-4.91431e-05
3.10019e-06
-0.00173461
-5.25262e-05
-1.28115e-06
-0.00168601
-5.58613e-06
-0.00161027
-4.59237e-05
3.44449e-05
1.59387e-06
-0.00195111
2.58991e-05
4.4868e-06
-0.00197404
1.56727e-05
6.50166e-06
-0.00198739
3.72128e-06
7.77046e-06
-0.00199537
-9.95042e-06
8.25035e-06
-0.0019989
-2.53556e-05
7.91374e-06
-0.00199766
-4.16679e-05
6.45411e-06
-0.00198852
-5.66742e-05
3.74501e-06
-0.00196553
-6.29773e-05
-1.07937e-06
-0.00191171
-6.45244e-06
-0.00182757
-5.69016e-05
3.79759e-05
1.50299e-06
-0.00218226
2.84175e-05
4.35267e-06
-0.00220779
1.728e-05
6.25236e-06
-0.00222274
4.44544e-06
7.44171e-06
-0.002232
-1.01774e-05
7.89043e-06
-0.00223622
-2.68427e-05
7.60519e-06
-0.00223509
-4.50738e-05
6.32094e-06
-0.00222507
-6.30259e-05
3.78548e-06
-0.00220074
-7.29646e-05
-7.51611e-07
-0.00214271
-7.50951e-06
-0.00205144
-6.82635e-05
4.11761e-05
1.22397e-06
-0.00242743
3.07462e-05
2.9431e-06
-0.00245398
1.88224e-05
4.15343e-06
-0.00247067
5.3432e-06
4.8337e-06
-0.00248172
-9.8817e-06
5.0431e-06
-0.00248689
-2.73274e-05
4.76746e-06
-0.00248598
-4.69468e-05
3.89163e-06
-0.00247532
-6.77224e-05
2.12869e-06
-0.00245103
-8.167e-05
-8.16765e-07
-0.00239229
-7.34067e-06
-0.00229596
-7.97644e-05
4.19153e-05
-0.00266409
3.10774e-05
-0.00268983
1.89277e-05
-0.00270858
5.34527e-06
-0.00272113
-9.84842e-06
-0.0027267
-2.72618e-05
-0.0027251
-4.71992e-05
-0.00271286
-6.96186e-05
-0.00268664
-8.75338e-05
-0.00263092
-0.00254309
-9.13008e-05
4.73059e-06
-2.56032e-07
-0.000656504
3.21542e-06
-7.54242e-08
-0.00065925
1.31931e-06
8.94757e-08
-0.000660285
-7.42095e-07
1.58673e-07
-0.000660654
-2.74972e-06
1.10312e-07
-0.000660672
-4.45155e-06
-8.54289e-08
-0.000660437
-5.57603e-06
-4.34848e-07
-0.00065986
-5.85768e-06
-8.90273e-07
-0.000658337
-5.05918e-06
-1.33628e-06
-0.000653889
-1.63457e-06
-0.000640881
-3.08106e-06
7.8707e-06
6.48955e-08
-0.000840014
5.14038e-06
5.94091e-07
-0.000849989
1.58781e-06
1.00567e-06
-0.00085596
-2.43313e-06
1.21015e-06
-0.000858965
-6.51697e-06
1.16436e-06
-0.000859834
-1.00907e-05
8.17084e-07
-0.000858553
-1.23566e-05
1.49895e-07
-0.000852923
-1.27447e-05
-7.54383e-07
-0.00083877
-1.127e-05
-1.72173e-06
-0.00081394
-2.47114e-06
-0.000777737
-8.45782e-06
1.20472e-05
4.98812e-07
-0.00104929
8.60608e-06
1.33219e-06
-0.00106089
4.11825e-06
1.9901e-06
-0.001068
-1.12751e-06
2.36041e-06
-0.00107195
-6.78845e-06
2.38256e-06
-0.00107382
-1.22803e-05
1.99326e-06
-0.00107368
-1.64865e-05
1.14115e-06
-0.00106902
-1.80976e-05
-1.34418e-07
-0.0010536
-1.65432e-05
-1.69285e-06
-0.00102284
-3.01987e-06
-0.00097656
-1.24566e-05
1.61661e-05
8.60245e-07
-0.00126901
1.18892e-05
2.22094e-06
-0.00128284
6.2664e-06
3.27292e-06
-0.00129108
-4.52027e-07
3.90847e-06
-0.00129544
-7.92639e-06
4.06086e-06
-0.00129717
-1.55812e-05
3.66505e-06
-0.00129655
-2.2154e-05
2.61532e-06
-0.00129147
-2.5649e-05
8.98371e-07
-0.0012753
-2.43193e-05
-1.41158e-06
-0.0012404
-3.44076e-06
-0.00118583
-1.87884e-05
2.0913e-05
1.25543e-06
-0.00149443
1.55424e-05
3.21029e-06
-0.00151065
8.59738e-06
4.66462e-06
-0.0015199
3.24763e-07
5.55416e-06
-0.00152461
-8.91496e-06
5.80977e-06
-0.00152614
-1.85802e-05
5.36913e-06
-0.00152468
-2.74305e-05
4.08794e-06
-0.00151843
-3.31967e-05
1.95219e-06
-0.00150132
-3.25699e-05
-1.13934e-06
-0.00146319
-3.93562e-06
-0.0014015
-2.57025e-05
2.60442e-05
1.66216e-06
-0.00171944
1.94531e-05
4.16592e-06
-0.0017381
1.1135e-05
5.93725e-06
-0.00174851
1.30638e-06
7.02439e-06
-0.00175397
-9.69913e-06
7.36356e-06
-0.00175573
-2.14189e-05
6.90533e-06
-0.00175374
-3.26417e-05
5.45576e-06
-0.00174603
-4.10339e-05
2.98004e-06
-0.00172725
-4.17736e-05
-8.3832e-07
-0.00168557
-4.42365e-06
-0.0016174
-3.4156e-05
3.05408e-05
2.13843e-06
-0.00194598
2.27781e-05
4.96509e-06
-0.00196708
1.32663e-05
6.8781e-06
-0.00197881
2.17582e-06
8.03772e-06
-0.00198529
-1.0255e-05
8.41538e-06
-0.00198752
-2.37101e-05
7.9701e-06
-0.00198527
-3.70426e-05
6.45275e-06
-0.00197618
-4.79831e-05
3.79124e-06
-0.0019554
-5.04724e-05
-5.44145e-07
-0.00190952
-5.09359e-06
-0.00183492
-4.24626e-05
3.41005e-05
2.34902e-06
-0.00217586
2.53316e-05
5.07846e-06
-0.00219913
1.48859e-05
6.84785e-06
-0.00221226
2.84553e-06
7.9364e-06
-0.00221986
-1.06385e-05
8.30564e-06
-0.00222263
-2.54513e-05
7.94176e-06
-0.00222025
-4.06443e-05
6.60044e-06
-0.00221002
-5.40727e-05
4.0818e-06
-0.0021876
-5.89537e-05
-1.33251e-07
-0.00213824
-5.9799e-06
-0.00205831
-5.11988e-05
3.72341e-05
2.03414e-06
-0.00241935
2.76123e-05
3.61703e-06
-0.0024429
1.64023e-05
4.73517e-06
-0.00245735
3.70672e-06
5.3706e-06
-0.00246646
-1.04377e-05
5.5619e-06
-0.00247
-2.61124e-05
5.2776e-06
-0.00246764
-4.26636e-05