/*--------------------------------*- C++ -*----------------------------------*\
| =========                 |                                                 |
| \\      /  F ield         | foam-extend: Open Source CFD                    |
|  \\    /   O peration     | Version:     4.0                                |
|   \\  /    A nd           | Web:         http://www.foam-extend.org         |
|    \\/     M anipulation  |                                                 |
\*---------------------------------------------------------------------------*/
FoamFile
{
    version     2.0;
    format      ascii;
    class       volScalarField;
    location    "100";
    object      rho;
}
// * * * * * * * * * * * * * * * * * * * * * * * * * * * * * * * * * * * * * //

dimensions      [1 -3 0 0 0 0 0];

internalField   nonuniform List<scalar> 
34480
(
1.47256
1.4709
1.46928
1.46786
1.4668
1.46628
1.46673
1.46907
1.4707
1.46182
1.46555
1.4646
1.46369
1.46263
1.46142
1.45986
1.45785
1.45624
1.45393
1.43613
1.46493
1.46276
1.4611
1.45956
1.45817
1.45661
1.45456
1.45233
1.44985
1.42379
1.46716
1.4633
1.46034
1.4577
1.4554
1.45324
1.45114
1.44864
1.44636
1.41273
1.47156
1.46581
1.46125
1.4571
1.45347
1.45028
1.44792
1.44538
1.44338
1.40306
1.47821
1.47051
1.46404
1.45809
1.45285
1.44831
1.44534
1.44275
1.44085
1.39452
1.48526
1.47533
1.46671
1.45873
1.45172
1.4457
1.44186
1.43922
1.43735
1.3862
1.49452
1.48244
1.47156
1.46159
1.45297
1.44573
1.44102
1.43837
1.43656
1.38175
1.50236
1.48837
1.47532
1.46342
1.4534
1.44533
1.43995
1.4371
1.43505
1.3782
1.50504
1.49025
1.47646
1.46416
1.4542
1.44681
1.4425
1.44126
1.44068
1.38279
1.47015
1.46879
1.46747
1.46637
1.46564
1.4654
1.46586
1.46722
1.47001
1.47275
1.46324
1.46261
1.46193
1.46117
1.46043
1.45957
1.45834
1.45693
1.45708
1.45571
1.46322
1.46137
1.45982
1.4585
1.45753
1.45669
1.45563
1.4543
1.45592
1.45537
1.46606
1.46256
1.45971
1.45724
1.45533
1.45382
1.45269
1.45142
1.4545
1.45458
1.47083
1.46553
1.46113
1.45722
1.45401
1.45139
1.44989
1.44862
1.45292
1.45306
1.47751
1.47037
1.46421
1.45865
1.45392
1.44993
1.44768
1.4462
1.4513
1.45095
1.48426
1.47508
1.46695
1.45956
1.45323
1.44778
1.44456
1.44271
1.44823
1.44732
1.49307
1.4819
1.47172
1.46251
1.4547
1.44806
1.44388
1.4416
1.44718
1.44598
1.50042
1.48747
1.47532
1.46433
1.45515
1.44766
1.44275
1.44001
1.44497
1.44477
1.50328
1.48941
1.47649
1.46503
1.45571
1.44859
1.44424
1.44247
1.44781
1.45017
1.46807
1.46715
1.46625
1.46559
1.46527
1.46541
1.46613
1.4674
1.46898
1.46989
1.46157
1.46131
1.46092
1.4605
1.46017
1.45983
1.45917
1.45809
1.45753
1.45564
1.46163
1.46023
1.45903
1.45815
1.45775
1.45761
1.45739
1.45681
1.458
1.45769
1.46441
1.46152
1.45914
1.45726
1.45611
1.45556
1.45553
1.45552
1.45879
1.46055
1.46886
1.46437
1.46063
1.4575
1.45528
1.45391
1.4538
1.45423
1.4595
1.46335
1.47496
1.46884
1.46355
1.45901
1.45553
1.45309
1.45255
1.45315
1.46009
1.46579
1.48089
1.47297
1.466
1.45988
1.45507
1.45146
1.45028
1.45082
1.45897
1.46647
1.48876
1.47911
1.47038
1.46272
1.45663
1.45202
1.45015
1.45052
1.45935
1.4687
1.49527
1.48403
1.47361
1.46443
1.45709
1.45164
1.44916
1.44942
1.45802
1.46981
1.49785
1.48576
1.47465
1.46499
1.45742
1.45209
1.44984
1.45089
1.45978
1.47475
1.46634
1.46584
1.46528
1.46489
1.46476
1.46496
1.46552
1.4663
1.46686
1.46606
1.46042
1.46052
1.46041
1.46024
1.46014
1.46003
1.45956
1.45832
1.45659
1.45332
1.46076
1.45981
1.45894
1.45836
1.45824
1.45847
1.45864
1.45819
1.45813
1.4564
1.46359
1.46131
1.45938
1.45793
1.4572
1.45719
1.45776
1.45824
1.46048
1.46109
1.46783
1.46414
1.46101
1.45848
1.45687
1.45626
1.45695
1.45824
1.46295
1.46619
1.47343
1.46829
1.4638
1.46006
1.45743
1.456
1.45652
1.45834
1.46536
1.47134
1.47865
1.47191
1.46597
1.46092
1.45718
1.45485
1.455
1.45707
1.466
1.47487
1.48565
1.47739
1.46996
1.4636
1.45881
1.45566
1.45536
1.45752
1.46776
1.47971
1.49121
1.48154
1.47271
1.46511
1.4593
1.45542
1.45462
1.4569
1.46747
1.48286
1.49341
1.48298
1.47354
1.46553
1.45948
1.45562
1.45489
1.45774
1.46867
1.48815
1.46522
1.46503
1.46473
1.46451
1.46447
1.46465
1.46502
1.46543
1.46541
1.46395
1.45994
1.46034
1.46045
1.46046
1.46048
1.46046
1.46
1.45858
1.45613
1.45213
1.46056
1.46003
1.45947
1.45913
1.45917
1.45955
1.45982
1.45929
1.45813
1.45531
1.46342
1.46174
1.46026
1.45918
1.45875
1.45901
1.45979
1.46033
1.46122
1.46043
1.46748
1.46455
1.46202
1.46004
1.45889
1.45874
1.45978
1.46133
1.46462
1.46624
1.47262
1.46841
1.46469
1.46169
1.45973
1.45899
1.46005
1.46236
1.46811
1.47238
1.4772
1.47158
1.46661
1.46251
1.45967
1.45827
1.45918
1.462
1.46996
1.47716
1.48339
1.47644
1.47021
1.46502
1.46133
1.45931
1.45998
1.46313
1.47281
1.48323
1.48808
1.47987
1.47247
1.46628
1.46178
1.4592
1.45956
1.46299
1.47348
1.48745
1.48992
1.48101
1.47309
1.46653
1.46181
1.45919
1.45957
1.46348
1.47445
1.49281
1.46475
1.46478
1.46465
1.46455
1.46454
1.46465
1.46487
1.46501
1.46465
1.46283
1.46006
1.4607
1.46098
1.46111
1.46118
1.46118
1.46068
1.45909
1.4562
1.4517
1.46094
1.46078
1.46049
1.46033
1.46046
1.46085
1.4611
1.46039
1.45852
1.45493
1.46379
1.46267
1.4616
1.46085
1.4606
1.46096
1.46174
1.46214
1.46199
1.46012
1.46767
1.46547
1.4635
1.46199
1.46119
1.46129
1.46239
1.46385
1.46581
1.46604
1.47238
1.46905
1.46606
1.4637
1.46228
1.46199
1.46323
1.46554
1.46979
1.47236
1.4764
1.47181
1.46775
1.46449
1.46238
1.46164
1.46291
1.46587
1.47228
1.4775
1.48187
1.47612
1.47098
1.46682
1.46405
1.46287
1.46409
1.46754
1.47579
1.48393
1.48576
1.47889
1.47278
1.46782
1.46441
1.46283
1.46391
1.4678
1.47719
1.48858
1.48725
1.47975
1.4732
1.46792
1.46431
1.46266
1.46376
1.46809
1.47812
1.4936
1.46496
1.46513
1.46511
1.46506
1.46507
1.46513
1.46524
1.46522
1.4647
1.46274
1.46079
1.46158
1.46198
1.46218
1.46228
1.46227
1.46174
1.46007
1.45698
1.45227
1.46186
1.46199
1.46193
1.46191
1.46207
1.46242
1.46257
1.46173
1.45943
1.4554
1.46465
1.46401
1.46331
1.46281
1.46269
1.46304
1.46369
1.46388
1.46303
1.46042
1.46832
1.46677
1.46531
1.46419
1.46366
1.46386
1.46485
1.46604
1.46698
1.46615
1.47263
1.47009
1.46775
1.46595
1.46494
1.46491
1.46613
1.46816
1.47106
1.47227
1.47612
1.47249
1.46924
1.46669
1.46517
1.46487
1.46623
1.46897
1.47379
1.47727
1.48095
1.4763
1.47214
1.46887
1.46684
1.46626
1.4677
1.47103
1.47759
1.48355
1.48413
1.47849
1.47352
1.46961
1.46709
1.46624
1.46769
1.47156
1.4794
1.48817
1.48532
1.4791
1.47376
1.46958
1.46689
1.46597
1.46746
1.47173
1.48032
1.49262
1.46582
1.46606
1.4661
1.46609
1.4661
1.46613
1.46617
1.46607
1.46548
1.46352
1.46206
1.46295
1.46343
1.46368
1.46379
1.46376
1.46324
1.46157
1.45843
1.45368
1.46326
1.46363
1.46375
1.46382
1.46399
1.46427
1.46433
1.4634
1.4609
1.45665
1.46593
1.4657
1.46531
1.465
1.46495
1.46525
1.46574
1.46571
1.46443
1.46135
1.46938
1.46839
1.46736
1.46657
1.46621
1.46644
1.46724
1.46809
1.4683
1.46671
1.47328
1.47144
1.46967
1.46833
1.46763
1.46774
1.4688
1.47043
1.47226
1.47238
1.47629
1.47351
1.47097
1.46903
1.46795
1.46792
1.4692
1.47153
1.47496
1.47698
1.48055
1.47689
1.47359
1.47107
1.46961
1.46943
1.47089
1.47383
1.47879
1.48284
1.48311
1.47856
1.4746
1.47156
1.46975
1.46939
1.47096
1.47448
1.48072
1.48716
1.48403
1.47897
1.47469
1.47144
1.46948
1.46908
1.4707
1.4746
1.48161
1.49099
1.46727
1.46753
1.46761
1.46762
1.46763
1.46764
1.46764
1.46751
1.46692
1.46501
1.46384
1.46477
1.46531
1.46558
1.4657
1.46567
1.46517
1.46358
1.46049
1.4558
1.4651
1.46564
1.46589
1.46603
1.46619
1.46641
1.4664
1.46545
1.46291
1.45861
1.46761
1.4677
1.46754
1.46738
1.46738
1.46761
1.46793
1.46774
1.46622
1.4629
1.47081
1.47028
1.46959
1.46905
1.46882
1.46902
1.46962
1.47015
1.46985
1.46777
1.4743
1.47305
1.47176
1.47078
1.47031
1.47048
1.47133
1.47253
1.47354
1.47285
1.47686
1.4748
1.47287
1.47142
1.47068
1.4708
1.4719
1.47376
1.47606
1.47691
1.48061
1.47781
1.47524
1.47334
1.47233
1.47238
1.47371
1.47617
1.47975
1.48223
1.48261
1.47902
1.47592
1.47361
1.47234
1.4723
1.47379
1.47681
1.48158
1.48606
1.4833
1.47927
1.47591
1.47342
1.47204
1.47197
1.47354
1.47689
1.4824
1.48934
1.46923
1.46948
1.46957
1.4696
1.46961
1.46961
1.46959
1.46945
1.4689
1.46711
1.46605
1.46701
1.46757
1.46786
1.46798
1.46795
1.4675
1.46602
1.46307
1.45851
1.46734
1.468
1.46835
1.46853
1.46868
1.46883
1.46878
1.46786
1.46539
1.46115
1.46963
1.46996
1.46998
1.46993
1.46994
1.4701
1.47029
1.46998
1.46838
1.46498
1.47256
1.47238
1.47197
1.47162
1.47148
1.47163
1.47204
1.4723
1.47168
1.4693
1.47564
1.47487
1.47396
1.47327
1.47296
1.47313
1.47377
1.4746
1.475
1.47374
1.47777
1.47632
1.47489
1.47383
1.47334
1.47351
1.47441
1.4758
1.47723
1.47718
1.48107
1.47899
1.47705
1.47565
1.47496
1.47513
1.47627
1.47821
1.48069
1.48192
1.48256
1.4798
1.47743
1.47571
1.47485
1.47498
1.4763
1.47875
1.48227
1.48519
1.48308
1.47994
1.47735
1.47549
1.47455
1.47467
1.47607
1.47882
1.483
1.48799
1.4716
1.47184
1.47193
1.47196
1.47197
1.47197
1.47194
1.47181
1.47131
1.46968
1.46863
1.4696
1.47017
1.47046
1.47058
1.47055
1.47016
1.46883
1.46606
1.46168
1.46991
1.47066
1.47107
1.47127
1.47141
1.47151
1.47143
1.47058
1.46825
1.46416
1.47195
1.47245
1.47259
1.47261
1.47264
1.47274
1.47282
1.47245
1.47085
1.4675
1.47459
1.47467
1.47446
1.47425
1.47416
1.47428
1.47453
1.47459
1.47378
1.47127
1.47728
1.47686
1.47625
1.47577
1.47558
1.47573
1.47619
1.4767
1.47668
1.47505
1.479
1.47802
1.47699
1.47624
1.47592
1.4761
1.4768
1.47779
1.47856
1.47787
1.48189
1.48041
1.47897
1.47796
1.47751
1.47772
1.47864
1.4801
1.48173
1.48203
1.48292
1.48085
1.47908
1.47783
1.47725
1.47746
1.47856
1.48047
1.48299
1.48472
1.48331
1.48092
1.47897
1.47761
1.47698
1.47719
1.47838
1.48053
1.48362
1.48713
1.47431
1.47451
1.4746
1.47463
1.47464
1.47464
1.47461
1.4745
1.47407
1.47262
1.47151
1.47248
1.47304
1.47332
1.47344
1.47341
1.47308
1.47191
1.46937
1.4652
1.47277
1.47357
1.47401
1.47423
1.47434
1.47441
1.47431
1.47355
1.47141
1.46753
1.47454
1.47513
1.47535
1.47541
1.47544
1.4755
1.47551
1.47511
1.47359
1.47036
1.47688
1.47713
1.47705
1.47693
1.47688
1.47696
1.4771
1.47702
1.47612
1.47358
1.47916
1.47901
1.47861
1.47829
1.47817
1.47829
1.47861
1.47889
1.4786
1.47675
1.48049
1.47988
1.47916
1.47863
1.47843
1.4786
1.47912
1.47979
1.48011
1.47898
1.48303
1.48201
1.48098
1.48026
1.47998
1.48018
1.4809
1.48196
1.48296
1.4826
1.48363
1.48212
1.48082
1.47993
1.47956
1.47979
1.48066
1.48209
1.48384
1.48474
1.48394
1.48217
1.48073
1.47976
1.47936
1.47959
1.48054
1.48217
1.48438
1.48679
1.47727
1.47744
1.47751
1.47754
1.47755
1.47755
1.47753
1.47743
1.47709
1.47584
1.47464
1.47559
1.47613
1.47639
1.47649
1.47647
1.47619
1.4752
1.47291
1.46899
1.47587
1.4767
1.47713
1.47735
1.47744
1.47748
1.47737
1.4767
1.47479
1.47116
1.47735
1.47797
1.47822
1.4783
1.47833
1.47835
1.47832
1.47792
1.47653
1.47348
1.47938
1.47971
1.47972
1.47966
1.47963
1.47968
1.47974
1.47959
1.47867
1.47619
1.48126
1.48127
1.48103
1.48082
1.48075
1.48084
1.48105
1.48118
1.48073
1.47878
1.48222
1.48186
1.48137
1.48102
1.48089
1.48103
1.4814
1.48184
1.48187
1.48049
1.48445
1.48377
1.48305
1.48256
1.48238
1.48256
1.4831
1.48384
1.48441
1.48364
1.48463
1.48356
1.48264
1.48202
1.48179
1.482
1.48266
1.4837
1.48489
1.48522
1.48492
1.48364
1.48261
1.48193
1.48168
1.4819
1.48263
1.48382
1.48537
1.487
1.48042
1.48056
1.48062
1.48065
1.48065
1.48065
1.48063
1.48056
1.48029
1.47926
1.47796
1.47887
1.47936
1.4796
1.47969
1.47967
1.47944
1.47862
1.47661
1.47298
1.47917
1.47999
1.4804
1.4806
1.48067
1.48069
1.48057
1.48
1.47834
1.47499
1.48033
1.48094
1.48118
1.48126
1.48129
1.48129
1.48123
1.48086
1.47962
1.4768
1.48205
1.4824
1.48245
1.48243
1.48241
1.48244
1.48246
1.48228
1.48141
1.47904
1.48354
1.48363
1.48349
1.48336
1.48332
1.48339
1.48352
1.48356
1.48306
1.48112
1.48415
1.48395
1.48363
1.4834
1.48332
1.48343
1.4837
1.48397
1.48385
1.48237
1.4861
1.48567
1.48517
1.48484
1.48474
1.48489
1.48528
1.48579
1.48609
1.48511
1.48589
1.48514
1.4845
1.48408
1.48395
1.48412
1.48461
1.48535
1.48614
1.48615
1.48622
1.48531
1.48459
1.48413
1.48398
1.48417
1.48471
1.48555
1.48662
1.4877
1.48373
1.48384
1.48389
1.48391
1.48392
1.48391
1.4839
1.48385
1.48365
1.48284
1.48144
1.48228
1.48271
1.48291
1.48298
1.48296
1.48278
1.48213
1.48043
1.47712
1.48266
1.48342
1.48379
1.48395
1.48401
1.484
1.48389
1.48342
1.48202
1.479
1.48346
1.48401
1.48421
1.48428
1.4843
1.4843
1.48424
1.48392
1.48286
1.48029
1.48486
1.48518
1.48524
1.48523
1.48523
1.48525
1.48525
1.48508
1.48431
1.48212
1.48597
1.48608
1.48599
1.48591
1.48589
1.48595
1.48605
1.48605
1.48558
1.48375
1.48625
1.48615
1.48594
1.48579
1.48575
1.48584
1.48603
1.48621
1.48604
1.4846
1.48796
1.48769
1.48735
1.48713
1.48708
1.4872
1.48748
1.48784
1.488
1.48698
1.48736
1.48685
1.48641
1.48613
1.48606
1.4862
1.48656
1.48707
1.4876
1.48747
1.48781
1.48718
1.48668
1.48638
1.48629
1.48645
1.48684
1.48743
1.48816
1.48887
1.4872
1.48727
1.48731
1.48732
1.48733
1.48732
1.48731
1.48728
1.48715
1.48654
1.48505
1.48579
1.48614
1.48629
1.48634
1.48632
1.48619
1.4857
1.48433
1.4814
1.48631
1.48697
1.48727
1.48739
1.48743
1.48742
1.48732
1.48696
1.48582
1.48317
1.48671
1.48715
1.48731
1.48736
1.48737
1.48737
1.48732
1.48708
1.48622
1.48396
1.48778
1.48804
1.48808
1.48807
1.48807
1.48809
1.48811
1.48799
1.48737
1.48542
1.48851
1.4886
1.48854
1.48849
1.48848
1.48853
1.48862
1.48863
1.48827
1.48665
1.4885
1.48845
1.4883
1.48821
1.48819
1.48826
1.48841
1.48855
1.48841
1.48715
1.48999
1.48981
1.48959
1.48944
1.48942
1.48952
1.48973
1.48999
1.49011
1.4892
1.48901
1.48865
1.48836
1.48818
1.48814
1.48825
1.48851
1.48887
1.48924
1.48909
1.48967
1.48924
1.48891
1.48871
1.48867
1.48879
1.48908
1.48948
1.48998
1.49045
1.49084
1.49087
1.49089
1.49089
1.4909
1.49089
1.49089
1.49087
1.49079
1.49037
1.48875
1.48934
1.48959
1.48969
1.48972
1.48971
1.48962
1.48929
1.48827
1.4858
1.4901
1.49061
1.49081
1.49088
1.4909
1.49089
1.49083
1.49058
1.48973
1.4875
1.49003
1.49034
1.49043
1.49045
1.49046
1.49047
1.49046
1.49031
1.48969
1.48781
1.49075
1.49091
1.49092
1.49091
1.49091
1.49094
1.49098
1.49094
1.49052
1.48893
1.4911
1.49114
1.49108
1.49104
1.49105
1.4911
1.49119
1.49125
1.49104
1.48976
1.49084
1.49079
1.49068
1.49062
1.49062
1.49069
1.49082
1.49096
1.49091
1.48994
1.49211
1.49197
1.49181
1.49172
1.49172
1.4918
1.49198
1.49219
1.49234
1.49165
1.49073
1.49048
1.49028
1.49017
1.49016
1.49025
1.49045
1.49071
1.49099
1.4909
1.49178
1.49149
1.49126
1.49114
1.49112
1.49122
1.49144
1.49173
1.49208
1.4924
1.49476
1.49474
1.49475
1.49475
1.49475
1.49475
1.49475
1.49474
1.4947
1.49445
1.49242
1.49282
1.49296
1.49301
1.49302
1.49303
1.493
1.49283
1.49217
1.49025
1.49386
1.49418
1.49427
1.49429
1.4943
1.49431
1.4943
1.49419
1.49366
1.49194
1.4933
1.49346
1.49349
1.49349
1.49351
1.49354
1.49358
1.49355
1.4932
1.4918
1.49362
1.49367
1.49365
1.49363
1.49365
1.4937
1.49378
1.49384
1.49366
1.49255
1.49357
1.49355
1.49349
1.49346
1.49348
1.49356
1.49367
1.49379
1.49377
1.49295
1.4931
1.49303
1.49295
1.49291
1.49293
1.49301
1.49315
1.49331
1.49338
1.4928
1.49407
1.49395
1.49382
1.49377
1.49378
1.49387
1.49403
1.49424
1.49445
1.49408
1.49232
1.49214
1.492
1.49193
1.49194
1.49203
1.49219
1.4924
1.49264
1.49266
1.49414
1.49393
1.49378
1.4937
1.4937
1.4938
1.49397
1.4942
1.49448
1.49471
1.49918
1.49916
1.49916
1.49916
1.49916
1.49917
1.49918
1.49919
1.49919
1.49907
1.49583
1.49602
1.49606
1.49607
1.49609
1.49613
1.49618
1.49618
1.4959
1.49464
1.49738
1.49748
1.49747
1.49746
1.49749
1.49754
1.49763
1.49769
1.49752
1.49647
1.49645
1.49646
1.49643
1.49642
1.49646
1.49654
1.49666
1.49679
1.49676
1.49599
1.49631
1.49626
1.4962
1.49618
1.49622
1.49632
1.49647
1.49666
1.49676
1.49625
1.49588
1.49579
1.49571
1.49569
1.49573
1.49584
1.49601
1.49622
1.49641
1.49613
1.49521
1.4951
1.49502
1.495
1.49503
1.49514
1.49531
1.49553
1.49575
1.49561
1.49562
1.49548
1.49537
1.49533
1.49536
1.49546
1.49564
1.49588
1.49617
1.49617
1.49352
1.49338
1.49327
1.49323
1.49326
1.49335
1.49352
1.49372
1.49396
1.49408
1.4969
1.49673
1.49661
1.49656
1.49658
1.49668
1.49684
1.49705
1.4973
1.49752
1.50384
1.5038
1.50376
1.50374
1.50374
1.50377
1.50382
1.5039
1.50399
1.50407
1.49913
1.49906
1.49897
1.49893
1.49896
1.49905
1.49921
1.49943
1.49968
1.49955
1.50083
1.50063
1.50048
1.50042
1.50044
1.50056
1.50077
1.50109
1.50149
1.50166
1.49971
1.49952
1.49939
1.49935
1.49939
1.49952
1.49974
1.50008
1.50052
1.50084
1.49909
1.49888
1.49875
1.4987
1.49875
1.49888
1.49912
1.49947
1.49994
1.50039
1.49828
1.49808
1.49795
1.49791
1.49795
1.49809
1.49832
1.49866
1.49913
1.49964
1.49738
1.4972
1.49708
1.49705
1.49709
1.49721
1.49743
1.49775
1.49818
1.49866
1.49701
1.49681
1.49668
1.49664
1.49668
1.4968
1.49701
1.49731
1.49772
1.49821
1.49456
1.49442
1.49432
1.49429
1.49432
1.49443
1.4946
1.49484
1.49513
1.49541
1.49987
1.49971
1.4996
1.49956
1.49959
1.49969
1.49986
1.50008
1.50034
1.50059
1.52671
1.53381
1.53429
1.52908
1.52562
1.53394
1.53468
1.52811
1.53885
1.54816
1.54983
1.54154
1.55427
1.56495
1.56905
1.56155
1.56985
1.58194
1.58933
1.58392
1.58344
1.59668
1.60761
1.60476
1.59317
1.60705
1.62115
1.62079
1.60195
1.61595
1.63273
1.6347
1.60473
1.6181
1.63655
1.6403
1.60294
1.61545
1.63461
1.64023
1.46954
1.46992
1.47104
1.47285
1.46702
1.46921
1.47047
1.47136
1.47894
1.48288
1.48493
1.48604
1.4932
1.49905
1.50192
1.5031
1.50795
1.51551
1.51903
1.52007
1.52239
1.53139
1.53554
1.53644
1.53431
1.54439
1.54908
1.54987
1.54615
1.55688
1.56202
1.56273
1.55356
1.5645
1.56985
1.57028
1.55899
1.57012
1.57564
1.57513
1.4704
1.47073
1.47126
1.47194
1.46044
1.46174
1.46277
1.46377
1.46944
1.47198
1.47367
1.47497
1.48138
1.48543
1.488
1.48969
1.49478
1.50044
1.50399
1.50598
1.5086
1.51581
1.52034
1.52258
1.52053
1.52905
1.53444
1.53683
1.53286
1.54234
1.54839
1.55086
1.54095
1.5509
1.5573
1.55963
1.54694
1.55719
1.56369
1.56535
1.46405
1.46371
1.4639
1.46457
1.45165
1.45144
1.45184
1.45285
1.45842
1.45912
1.46011
1.4615
1.46871
1.47062
1.47236
1.47418
1.48061
1.48381
1.48637
1.48865
1.4933
1.49779
1.50119
1.50392
1.50449
1.51011
1.5143
1.51737
1.5163
1.52281
1.52765
1.53091
1.52382
1.53082
1.53616
1.53936
1.52887
1.53634
1.54205
1.54493
1.46161
1.4611
1.46114
1.46168
1.44879
1.44809
1.44813
1.44891
1.45366
1.45349
1.454
1.45514
1.46206
1.46282
1.46399
1.46554
1.4723
1.47415
1.47606
1.47804
1.48367
1.48664
1.48929
1.49171
1.49386
1.49784
1.50116
1.50394
1.50493
1.50968
1.51353
1.51656
1.51206
1.51717
1.52139
1.5245
1.51746
1.52292
1.52732
1.53024
1.46019
1.45957
1.45952
1.46002
1.44762
1.44666
1.44648
1.44709
1.45164
1.45096
1.45109
1.452
1.45875
1.45869
1.45933
1.4606
1.46743
1.4682
1.46948
1.47117
1.47726
1.47897
1.48093
1.48303
1.48622
1.48882
1.49139
1.49385
1.49633
1.49964
1.50268
1.50537
1.50305
1.50668
1.50997
1.51275
1.50852
1.51245
1.51577
1.5183
1.45997
1.45929
1.4592
1.45969
1.44798
1.44692
1.44662
1.44712
1.45154
1.45065
1.45057
1.45128
1.45782
1.45736
1.45765
1.45864
1.46535
1.46549
1.46629
1.46763
1.47379
1.47466
1.47604
1.47774
1.48142
1.48302
1.48494
1.48697
1.49039
1.49261
1.49495
1.49719
1.49654
1.49905
1.50157
1.50386
1.50184
1.50463
1.50706
1.50906
1.46068
1.45997
1.45986
1.46034
1.44933
1.44824
1.44788
1.4483
1.45258
1.4516
1.45139
1.45197
1.4582
1.45753
1.45761
1.4584
1.46482
1.4646
1.46508
1.46614
1.47211
1.47244
1.47338
1.47473
1.47853
1.47942
1.4808
1.48243
1.48633
1.48774
1.48947
1.49127
1.49178
1.49343
1.49528
1.49711
1.49674
1.49871
1.50045
1.50196
1.46217
1.46146
1.46134
1.46182
1.4515
1.45042
1.45003
1.4504
1.45452
1.45352
1.45325
1.45374
1.45952
1.45877
1.45872
1.45936
1.46534
1.46494
1.4652
1.46606
1.47162
1.47163
1.47225
1.47333
1.47695
1.47739
1.47837
1.47966
1.48367
1.48451
1.48576
1.48718
1.48833
1.48935
1.49067
1.49211
1.49293
1.49432
1.49554
1.49663
1.46431
1.46359
1.46347
1.46396
1.45432
1.45325
1.45286
1.45321
1.45714
1.45615
1.45586
1.4563
1.46155
1.46077
1.46065
1.46121
1.46663
1.46612
1.46626
1.46697
1.47198
1.47179
1.47221
1.47309
1.47633
1.47647
1.47715
1.47819
1.48207
1.4825
1.48339
1.48451
1.48592
1.48649
1.48742
1.48856
1.4902
1.49118
1.49204
1.4928
1.46695
1.46625
1.46614
1.46663
1.45763
1.45661
1.45624
1.45656
1.46028
1.45933
1.45905
1.45946
1.46412
1.46334
1.46321
1.4637
1.4685
1.46795
1.46802
1.46863
1.47299
1.47269
1.47297
1.4737
1.47645
1.47639
1.47687
1.47771
1.48131
1.48147
1.48208
1.48299
1.48442
1.48466
1.4853
1.48623
1.48844
1.48913
1.48972
1.49024
1.47
1.46932
1.46923
1.46973
1.46131
1.46035
1.46001
1.46034
1.46381
1.46292
1.46266
1.46306
1.46708
1.46634
1.46621
1.46668
1.47081
1.47025
1.47029
1.47084
1.47451
1.47414
1.47434
1.47496
1.47718
1.47698
1.47731
1.47801
1.48128
1.48123
1.48165
1.4824
1.48373
1.48373
1.48416
1.48494
1.48752
1.48802
1.48842
1.48876
1.47337
1.47273
1.47265
1.47314
1.46528
1.46439
1.4641
1.46443
1.46762
1.4668
1.46659
1.46699
1.47033
1.46964
1.46954
1.46999
1.47345
1.47291
1.47293
1.47343
1.47644
1.47603
1.47616
1.47671
1.4784
1.4781
1.47832
1.47893
1.48188
1.48167
1.48195
1.48259
1.48376
1.48359
1.48388
1.48455
1.48734
1.48771
1.48798
1.48819
1.47699
1.47639
1.47633
1.47681
1.46945
1.46864
1.46841
1.46877
1.47165
1.4709
1.47074
1.47114
1.47379
1.47315
1.47308
1.47351
1.47635
1.47582
1.47583
1.4763
1.47869
1.47825
1.47833
1.47883
1.48006
1.47968
1.47982
1.48036
1.48303
1.48271
1.48288
1.48345
1.48443
1.48415
1.48433
1.48493
1.48782
1.48809
1.48827
1.48839
1.48082
1.48026
1.48022
1.48068
1.4738
1.47306
1.4729
1.47327
1.47586
1.47518
1.47506
1.47546
1.47741
1.47682
1.47677
1.47719
1.47946
1.47894
1.47893
1.47936
1.48124
1.48077
1.4808
1.48126
1.48213
1.48168
1.48174
1.48223
1.4847
1.48429
1.48438
1.48491
1.48567
1.48532
1.48542
1.48596
1.48885
1.48906
1.48917
1.48924
1.48482
1.48433
1.4843
1.48472
1.47829
1.47762
1.47751
1.47789
1.48023
1.4796
1.47951
1.47989
1.4812
1.48063
1.48057
1.48097
1.48279
1.48226
1.48222
1.48262
1.4841
1.48359
1.48358
1.484
1.4846
1.4841
1.4841
1.48457
1.48689
1.48642
1.48644
1.48694
1.48739
1.48701
1.48706
1.48754
1.49038
1.49053
1.49061
1.49064
1.489
1.48858
1.48856
1.48892
1.48291
1.48229
1.4822
1.48257
1.48476
1.48417
1.48407
1.48443
1.48515
1.48459
1.48451
1.48488
1.48635
1.4858
1.48573
1.48611
1.48727
1.48674
1.48668
1.48709
1.48749
1.48696
1.48692
1.48736
1.48952
1.48904
1.48903
1.48948
1.48945
1.48909
1.48911
1.48952
1.49231
1.49243
1.49248
1.49249
1.49343
1.4931
1.49308
1.49336
1.48758
1.48701
1.48691
1.48725
1.48941
1.48885
1.48874
1.48907
1.4893
1.48875
1.48865
1.489
1.49017
1.48963
1.48953
1.4899
1.49073
1.49022
1.49014
1.49052
1.49071
1.49021
1.49015
1.49055
1.49242
1.49199
1.49196
1.49236
1.49159
1.49129
1.4913
1.49162
1.49464
1.49472
1.49476
1.49476
1.49839
1.49815
1.49813
1.49833
1.49229
1.49176
1.49165
1.49198
1.49429
1.49377
1.49366
1.49397
1.49385
1.49334
1.49323
1.49355
1.49434
1.49386
1.49377
1.4941
1.49447
1.49404
1.49396
1.49429
1.49414
1.49373
1.49368
1.49401
1.49519
1.49489
1.49487
1.49516
1.49341
1.49319
1.49319
1.49341
1.49753
1.49759
1.49762
1.49762
1.5038
1.50367
1.50368
1.50379
1.49781
1.49736
1.49727
1.49754
1.50029
1.49991
1.49983
1.50011
1.49962
1.49926
1.49919
1.49946
1.4995
1.49921
1.49916
1.49941
1.49901
1.49878
1.49875
1.49897
1.4982
1.498
1.49798
1.49818
1.49813
1.49803
1.49803
1.49817
1.49507
1.49494
1.49494
1.49507
1.50083
1.50089
1.50091
1.5009
1.5141
1.50371
1.49409
1.48791
1.48372
1.48071
1.47838
1.4765
1.47503
1.47394
1.51021
1.49632
1.48617
1.48005
1.47577
1.47261
1.47012
1.46812
1.46675
1.46605
1.51934
1.50361
1.4923
1.48578
1.48078
1.47673
1.47319
1.47005
1.46764
1.46621
1.53089
1.5141
1.50171
1.49494
1.48928
1.4845
1.48005
1.47587
1.4723
1.46974
1.54191
1.52516
1.51196
1.50536
1.49931
1.49404
1.48887
1.48381
1.47919
1.47553
1.55211
1.53602
1.52275
1.51681
1.51078
1.50537
1.49971
1.49394
1.48839
1.48359
1.55906
1.54379
1.53116
1.52636
1.52087
1.5158
1.51001
1.50382
1.4976
1.49192
1.56575
1.55114
1.53973
1.53625
1.53162
1.52723
1.52168
1.51547
1.50895
1.50245
1.56688
1.55234
1.54223
1.53993
1.53641
1.53326
1.5288
1.52352
1.51759
1.511
1.5685
1.55279
1.54423
1.54199
1.53878
1.53594
1.53183
1.52685
1.52109
1.51419
1.47732
1.47918
1.47927
1.47848
1.47724
1.47584
1.47444
1.47311
1.47193
1.47106
1.47144
1.47293
1.47233
1.47109
1.46954
1.46794
1.4664
1.46499
1.46392
1.46339
1.48428
1.48467
1.48201
1.47909
1.47607
1.47315
1.47037
1.46776
1.46559
1.46425
1.49942
1.49875
1.4941
1.48982
1.48563
1.48167
1.47787
1.47421
1.4709
1.46847
1.51506
1.51313
1.5068
1.50163
1.49658
1.49183
1.48715
1.48254
1.47815
1.47464
1.53032
1.5273
1.51983
1.5143
1.5088
1.50352
1.49814
1.49269
1.48733
1.48273
1.5427
1.53858
1.53051
1.52513
1.51961
1.5142
1.50839
1.50234
1.49622
1.49075
1.55476
1.54935
1.54117
1.53625
1.53102
1.52578
1.51991
1.51362
1.50709
1.50081
1.56167
1.5541
1.54605
1.54166
1.53709
1.53265
1.52748
1.52173
1.51545
1.50889
1.56799
1.55744
1.54975
1.54527
1.54075
1.53639
1.53133
1.52562
1.51931
1.51231
1.47298
1.47403
1.47409
1.47356
1.47274
1.47181
1.47086
1.46994
1.46914
1.46862
1.46479
1.46584
1.46584
1.46537
1.46467
1.46386
1.46301
1.4622
1.46162
1.46145
1.47575
1.47594
1.47449
1.47269
1.47078
1.46882
1.46684
1.46494
1.46334
1.4624
1.49006
1.48922
1.48622
1.48317
1.48013
1.47713
1.47413
1.47117
1.46847
1.4665
1.50563
1.50363
1.49908
1.49494
1.49089
1.48694
1.48296
1.479
1.47524
1.47226
1.52134
1.5183
1.51249
1.50757
1.50276
1.49803
1.49321
1.48835
1.48364
1.47965
1.5346
1.5305
1.52375
1.51844
1.51319
1.50797
1.50253
1.49701
1.49153
1.48676
1.54761
1.54234
1.535
1.52959
1.52417
1.51879
1.51311
1.50727
1.50136
1.49583
1.55535
1.54828
1.54066
1.53549
1.53051
1.5257
1.5205
1.51494
1.50907
1.50317
1.56105
1.55218
1.54467
1.5394
1.53441
1.52959
1.52437
1.51875
1.51276
1.50639
1.46602
1.46766
1.46844
1.46861
1.46844
1.46807
1.46759
1.46709
1.46666
1.46647
1.45503
1.45731
1.45886
1.45978
1.4602
1.46027
1.46013
1.45989
1.45976
1.45994
1.46382
1.4657
1.4665
1.46653
1.46601
1.46512
1.46399
1.46277
1.46172
1.46116
1.47652
1.47778
1.47758
1.47659
1.47506
1.47317
1.47106
1.46884
1.46676
1.46523
1.4909
1.49143
1.49011
1.48803
1.48545
1.48255
1.47943
1.47621
1.47312
1.47067
1.50597
1.5058
1.50338
1.50034
1.49681
1.49299
1.48895
1.48483
1.48084
1.47747
1.51907
1.51817
1.51477
1.51099
1.50674
1.50222
1.49746
1.49263
1.48789
1.48378
1.53209
1.53044
1.52624
1.52196
1.51723
1.51231
1.50717
1.50195
1.49673
1.49189
1.53992
1.53726
1.53257
1.52821
1.52364
1.51899
1.51405
1.50888
1.50353
1.49828
1.54594
1.54198
1.53688
1.53217
1.52744
1.52269
1.51766
1.51237
1.50684
1.50114
1.46304
1.46461
1.46544
1.46577
1.4658
1.46567
1.46544
1.4652
1.46501
1.46505
1.45094
1.45343
1.45535
1.45671
1.45759
1.45811
1.45839
1.45854
1.45874
1.45917
1.45752
1.46
1.46166
1.46255
1.46282
1.46262
1.4621
1.46142
1.46083
1.46061
1.46816
1.47034
1.47148
1.47169
1.47118
1.47015
1.46876
1.46719
1.46568
1.46458
1.4808
1.48253
1.48294
1.48228
1.48085
1.47887
1.47654
1.47404
1.47161
1.46969
1.49454
1.49576
1.49535
1.49379
1.49141
1.48851
1.48529
1.48194
1.47869
1.47593
1.50678
1.50746
1.50623
1.50384
1.50064
1.49696
1.49299
1.48894
1.48497
1.48153
1.51926
1.5194
1.51741
1.51432
1.51051
1.50632
1.5019
1.49739
1.4929
1.48875
1.52701
1.52663
1.52413
1.52077
1.51687
1.51268
1.50821
1.50358
1.49883
1.49425
1.53314
1.53166
1.52846
1.52464
1.52049
1.51613
1.51153
1.50672
1.50177
1.49674
1.46141
1.46298
1.46385
1.46425
1.4644
1.4644
1.46432
1.46423
1.4642
1.46439
1.44904
1.45157
1.45361
1.45517
1.45632
1.45711
1.45766
1.45806
1.45849
1.45909
1.45431
1.45698
1.45897
1.46028
1.461
1.46126
1.46116
1.46088
1.46064
1.46068
1.46321
1.46584
1.46757
1.46843
1.46856
1.46812
1.46728
1.46623
1.46521
1.46449
1.47404
1.47644
1.47772
1.47793
1.47729
1.47603
1.47437
1.4725
1.47069
1.46927
1.4861
1.48815
1.48885
1.48831
1.48684
1.48476
1.48229
1.47968
1.47714
1.47497
1.49703
1.49866
1.49873
1.49744
1.49519
1.49236
1.4892
1.48593
1.48271
1.47991
1.50853
1.50975
1.50918
1.50719
1.50432
1.50096
1.49731
1.49355
1.4898
1.48633
1.51593
1.51691
1.51589
1.51353
1.51041
1.50685
1.50301
1.49899
1.4949
1.491
1.52169
1.52175
1.52001
1.51717
1.51377
1.51002
1.506
1.50179
1.49748
1.49314
1.46111
1.46265
1.46351
1.46393
1.46412
1.46417
1.46417
1.46416
1.46422
1.4645
1.44896
1.45141
1.45345
1.45507
1.45632
1.45724
1.45791
1.45845
1.45899
1.45969
1.45339
1.45601
1.45805
1.45953
1.46047
1.46097
1.46114
1.46112
1.46112
1.46136
1.461
1.46363
1.46553
1.46667
1.46714
1.46707
1.46662
1.46596
1.46532
1.46493
1.47024
1.47277
1.47437
1.47501
1.47485
1.4741
1.47295
1.47162
1.47033
1.46936
1.48055
1.48288
1.48407
1.48412
1.48328
1.48184
1.48003
1.47807
1.47616
1.47453
1.48993
1.49196
1.49269
1.49212
1.49063
1.48855
1.48614
1.48358
1.48105
1.47886
1.50015
1.50187
1.5021
1.50095
1.49891
1.49633
1.49344
1.4904
1.48736
1.48455
1.50692
1.50856
1.50843
1.50688
1.50451
1.50165
1.49847
1.49512
1.4917
1.48846
1.51216
1.51298
1.51217
1.5102
1.50757
1.50449
1.50112
1.49757
1.49393
1.49027
1.46179
1.46332
1.46415
1.46456
1.46476
1.46484
1.46487
1.46491
1.46501
1.46533
1.45005
1.45244
1.45443
1.45606
1.45733
1.45829
1.45901
1.45959
1.46018
1.46091
1.45393
1.45645
1.45847
1.45999
1.46102
1.46164
1.46194
1.46207
1.46222
1.46258
1.46052
1.46304
1.46492
1.46616
1.4668
1.46694
1.46673
1.46635
1.466
1.46587
1.46844
1.47088
1.47253
1.47336
1.47348
1.47305
1.4723
1.47139
1.47053
1.46993
1.47719
1.47949
1.48083
1.48119
1.48077
1.47981
1.47853
1.47711
1.47573
1.47458
1.48503
1.48712
1.48812
1.48801
1.48708
1.48561
1.48382
1.48189
1.47997
1.47832
1.49386
1.49574
1.49639
1.49583
1.49444
1.49254
1.49032
1.48793
1.48555
1.48334
1.49982
1.5017
1.50204
1.50111
1.4994
1.49719
1.49466
1.49196
1.48919
1.48658
1.50453
1.50561
1.50535
1.50406
1.5021
1.49969
1.49698
1.49409
1.4911
1.48808
1.4633
1.46478
1.46558
1.46597
1.46616
1.46624
1.46629
1.46634
1.46646
1.46679
1.45209
1.4544
1.45634
1.45792
1.45916
1.4601
1.46079
1.46136
1.46195
1.46267
1.45558
1.45798
1.45993
1.46142
1.46246
1.46309
1.46343
1.46363
1.46387
1.4643
1.46129
1.46365
1.46546
1.46669
1.46737
1.4676
1.46753
1.46735
1.46721
1.46726
1.46809
1.47035
1.47193
1.4728
1.47305
1.47284
1.47236
1.47178
1.47125
1.47095
1.47546
1.47759
1.47891
1.47941
1.47926
1.47865
1.47777
1.47679
1.47584
1.47508
1.48188
1.48386
1.48493
1.48509
1.48455
1.48354
1.48226
1.48085
1.47944
1.47826
1.48938
1.49122
1.49205
1.49188
1.49099
1.48963
1.48797
1.48616
1.48435
1.48268
1.49444
1.49632
1.4969
1.4964
1.49521
1.49357
1.49163
1.48951
1.48734
1.4853
1.49866
1.49973