/*--------------------------------*- C++ -*----------------------------------*\
| =========                 |                                                 |
| \\      /  F ield         | foam-extend: Open Source CFD                    |
|  \\    /   O peration     | Version:     4.0                                |
|   \\  /    A nd           | Web:         http://www.foam-extend.org         |
|    \\/     M anipulation  |                                                 |
\*---------------------------------------------------------------------------*/
FoamFile
{
    version     2.0;
    format      ascii;
    class       volScalarField;
    location    "100";
    object      T;
}
// * * * * * * * * * * * * * * * * * * * * * * * * * * * * * * * * * * * * * //

dimensions      [0 0 0 1 0 0 0];

internalField   nonuniform List<scalar> 
34480
(
289.59
289.329
289.124
288.935
288.751
288.569
288.395
288.328
288.556
288.63
290.269
289.754
289.365
289.073
288.862
288.777
288.909
289.337
290.168
290.154
290.403
289.893
289.491
289.152
288.845
288.605
288.566
288.801
289.462
288.878
290.306
289.823
289.426
289.064
288.701
288.339
288.094
288.038
288.387
287.092
290.204
289.726
289.322
288.935
288.53
288.078
287.651
287.29
287.277
285.245
290.199
289.699
289.267
288.845
288.398
287.878
287.309
286.664
286.261
283.496
290.23
289.693
289.219
288.755
288.267
287.695
287.02
286.13
285.314
281.826
290.285
289.691
289.16
288.646
288.122
287.523
286.796
285.729
284.491
280.271
290.337
289.644
289.005
288.401
287.815
287.178
286.415
285.235
283.596
278.675
290.824
290.051
289.346
288.714
288.148
287.581
286.906
285.785
283.893
278.279
289.559
289.335
289.189
289.083
289.013
288.988
289.041
289.267
289.745
290.607
290.156
289.692
289.369
289.159
289.05
289.085
289.388
290.095
291.277
292.714
290.172
289.726
289.405
289.168
288.993
288.912
289.083
289.682
290.831
292.147
289.968
289.56
289.26
289.02
288.816
288.662
288.691
289.103
290.108
291.19
289.763
289.375
289.083
288.836
288.616
288.416
288.333
288.549
289.373
290.2
289.651
289.258
288.957
288.694
288.455
288.225
288.065
288.109
288.731
289.296
289.572
289.163
288.844
288.559
288.301
288.048
287.836
287.737
288.142
288.425
289.519
289.082
288.735
288.426
288.152
287.89
287.659
287.464
287.637
287.591
289.426
288.93
288.522
288.163
287.857
287.576
287.329
287.077
287.028
286.62
289.772
289.247
288.811
288.452
288.176
287.955
287.773
287.557
287.331
286.387
289.621
289.421
289.303
289.229
289.195
289.209
289.294
289.511
289.977
290.809
290.214
289.785
289.495
289.32
289.246
289.315
289.641
290.348
291.505
292.993
290.224
289.809
289.519
289.316
289.18
289.149
289.366
290.009
291.211
292.763
290.029
289.647
289.372
289.163
289.002
288.907
289.009
289.51
290.661
292.168
289.835
289.466
289.196
288.978
288.801
288.667
288.678
289.026
290.085
291.516
289.728
289.352
289.071
288.837
288.641
288.479
288.428
288.641
289.586
290.923
289.646
289.254
288.957
288.703
288.488
288.302
288.208
288.308
289.117
290.338
289.586
289.169
288.848
288.573
288.342
288.145
288.029
288.049
288.7
289.77
289.456
288.995
288.627
288.313
288.057
287.842
287.706
287.666
288.162
289.095
289.757
289.281
288.89
288.574
288.34
288.168
288.072
288.037
288.366
289.037
289.668
289.497
289.405
289.355
289.342
289.37
289.454
289.632
289.995
290.68
290.264
289.878
289.625
289.482
289.434
289.514
289.827
290.484
291.528
292.888
290.268
289.895
289.64
289.472
289.373
289.373
289.598
290.214
291.317
292.761
290.086
289.737
289.492
289.318
289.198
289.152
289.289
289.801
290.884
292.321
289.903
289.56
289.315
289.132
288.999
288.923
288.996
289.394
290.432
291.847
289.8
289.446
289.191
288.991
288.841
288.742
288.772
289.075
290.056
291.443
289.717
289.346
289.075
288.857
288.689
288.569
288.568
288.791
289.699
291.048
289.652
289.259
288.967
288.729
288.546
288.414
288.394
288.56
289.373
290.656
289.5
289.075
288.747
288.476
288.272
288.126
288.088
288.201
288.907
290.141
289.767
289.337
288.989
288.713
288.522
288.403
288.39
288.499
289.057
290.136
289.696
289.555
289.484
289.451
289.447
289.473
289.539
289.672
289.949
290.52
290.302
289.961
289.744
289.626
289.594
289.672
289.95
290.538
291.467
292.702
290.309
289.979
289.76
289.622
289.549
289.564
289.771
290.327
291.305
292.61
290.143
289.829
289.614
289.47
289.384
289.368
289.514
289.991
290.953
292.249
289.972
289.656
289.438
289.286
289.19
289.157
289.262
289.657
290.592
291.873
289.875
289.545
289.316
289.148
289.037
288.988
289.068
289.401
290.309
291.583
289.791
289.444
289.2
289.015
288.888
288.822
288.883
289.166
290.045
291.311
289.723
289.355
289.093
288.89
288.749
288.672
288.72
288.965
289.796
291.041
289.554
289.166
288.875
288.646
288.487
288.397
288.432
288.636
289.4
290.64
289.791
289.407
289.1
288.864
288.711
288.638
288.687
288.888
289.534
290.677
289.721
289.603
289.549
289.526
289.525
289.546
289.593
289.691
289.912
290.417
290.337
290.036
289.85
289.753
289.729
289.796
290.035
290.555
291.391
292.537
290.348
290.059
289.872
289.759
289.704
289.723
289.901
290.386
291.25
292.439
290.199
289.918
289.731
289.614
289.553
289.555
289.692
290.113
290.95
292.111
290.039
289.751
289.56
289.436
289.369
289.364
289.479
289.842
290.651
291.785
289.947
289.643
289.44
289.303
289.224
289.211
289.316
289.641
290.434
291.554
289.863
289.542
289.326
289.172
289.08
289.055
289.152
289.451
290.234
291.352
289.792
289.453
289.22
289.051
288.947
288.912
289.002
289.28
290.045
291.155
289.612
289.262
289.008
288.817
288.698
288.653
288.736
288.986
289.709
290.824
289.826
289.487
289.22
289.021
288.903
288.868
288.959
289.209
289.841
290.876
289.748
289.65
289.608
289.592
289.592
289.606
289.639
289.712
289.896
290.356
290.371
290.105
289.944
289.861
289.842
289.896
290.097
290.556
291.32
292.397
290.388
290.135
289.975
289.881
289.839
289.854
290
290.418
291.185
292.282
290.252
290.002
289.84
289.745
289.701
289.712
289.832
290.192
290.918
291.967
290.102
289.841
289.674
289.575
289.53
289.542
289.654
289.972
290.66
291.666
290.013
289.737
289.56
289.449
289.396
289.406
289.518
289.816
290.488
291.467
289.93
289.637
289.448
289.324
289.259
289.263
289.375
289.663
290.333
291.302
289.856
289.549
289.346
289.207
289.133
289.13
289.241
289.52
290.186
291.146
289.671
289.36
289.142
288.986
288.899
288.888
288.997
289.259
289.895
290.854
289.869
289.574
289.345
289.18
289.093
289.087
289.202
289.466
290.032
290.898
289.786
289.702
289.669
289.656
289.656
289.666
289.689
289.746
289.903
290.328
290.408
290.17
290.027
289.955
289.937
289.979
290.147
290.553
291.258
292.282
290.43
290.205
290.066
289.988
289.952
289.964
290.08
290.436
291.124
292.147
290.303
290.078
289.937
289.86
289.828
289.842
289.942
290.245
290.877
291.835
290.159
289.923
289.779
289.7
289.671
289.692
289.793
290.064
290.648
291.546
290.072
289.824
289.672
289.584
289.55
289.572
289.681
289.942
290.504
291.363
289.989
289.727
289.564
289.465
289.423
289.443
289.557
289.817
290.379
291.218
289.915
289.641
289.467
289.356
289.306
289.323
289.44
289.699
290.259
291.084
289.729
289.459
289.275
289.149
289.089
289.101
289.218
289.467
290
290.81
289.917
289.666
289.473
289.34
289.277
289.292
289.415
289.668
290.147
290.834
289.835
289.763
289.736
289.727
289.726
289.733
289.749
289.795
289.931
290.324
290.449
290.231
290.101
290.036
290.019
290.052
290.19
290.551
291.205
292.18
290.473
290.27
290.146
290.078
290.049
290.056
290.146
290.449
291.071
292.031
290.351
290.145
290.022
289.958
289.935
289.949
290.031
290.283
290.836
291.719
290.21
289.997
289.873
289.81
289.792
289.816
289.904
290.13
290.627
291.438
290.124
289.902
289.773
289.705
289.684
289.713
289.81
290.032
290.503
291.262
290.04
289.809
289.672
289.594
289.568
289.597
289.703
289.928
290.394
291.126
289.967
289.728
289.582
289.495
289.463
289.49
289.602
289.83
290.292
291.003
289.786
289.556
289.404
289.304
289.265
289.29
289.403
289.625
290.057
290.733
289.97
289.761
289.601
289.495
289.452
289.479
289.599
289.826
290.213
290.739
289.896
289.836
289.813
289.805
289.805
289.809
289.822
289.858
289.976
290.336
290.493
290.288
290.168
290.109
290.092
290.117
290.232
290.551
291.157
292.087
290.518
290.329
290.216
290.156
290.13
290.134
290.205
290.462
291.024
291.927
290.395
290.204
290.095
290.041
290.024
290.038
290.104
290.314
290.8
291.617
290.255
290.062
289.956
289.907
289.896
289.919
289.993
290.181
290.607
291.343
290.169
289.973
289.866
289.813
289.801
289.83
289.914
290.098
290.493
291.171
290.085
289.884
289.771
289.711
289.696
289.727
289.819
290.008
290.393
291.039
290.014
289.81
289.69
289.623
289.604
289.635
289.734
289.926
290.302
290.92
289.842
289.651
289.527
289.451
289.426
289.457
289.559
289.746
290.086
290.648
290.026
289.856
289.727
289.644
289.616
289.649
289.758
289.95
290.252
290.642
289.97
289.918
289.9
289.893
289.893
289.896
289.906
289.935
290.036
290.359
290.538
290.343
290.23
290.175
290.159
290.178
290.273
290.553
291.112
291.995
290.563
290.382
290.276
290.222
290.2
290.202
290.259
290.476
290.983
291.83
290.434
290.255
290.157
290.112
290.1
290.111
290.166
290.341
290.769
291.526
290.294
290.121
290.03
289.991
289.985
290.006
290.067
290.222
290.589
291.26
290.208
290.038
289.949
289.909
289.903
289.929
289.998
290.149
290.482
291.093
290.124
289.953
289.861
289.817
289.808
289.837
289.914
290.067
290.386
290.961
290.058
289.888
289.792
289.741
289.73
289.761
289.844
289.999
290.302
290.844
289.898
289.743
289.645
289.587
289.572
289.604
289.691
289.841
290.103
290.57
290.085
289.95
289.848
289.785
289.768
289.801
289.895
290.051
290.279
290.56
290.053
290.01
289.995
289.99
289.989
289.992
289.999
290.023
290.107
290.391
290.582
290.394
290.286
290.235
290.22
290.235
290.314
290.556
291.066
291.9
290.604
290.429
290.329
290.28
290.261
290.262
290.309
290.492
290.944
291.734
290.468
290.3
290.213
290.174
290.164
290.175
290.22
290.367
290.742
291.44
290.33
290.174
290.098
290.067
290.063
290.081
290.131
290.259
290.575
291.188
290.244
290.098
290.026
289.996
289.993
290.015
290.069
290.191
290.473
291.027
290.161
290.018
289.945
289.912
289.908
289.932
289.993
290.115
290.377
290.895
290.101
289.962
289.887
289.85
289.844
289.872
289.938
290.059
290.301
290.78
289.955
289.832
289.756
289.713
289.705
289.734
289.804
289.921
290.118
290.504
290.146
290.041
289.963
289.916
289.906
289.937
290.013
290.135
290.302
290.501
290.144
290.109
290.097
290.093
290.092
290.094
290.1
290.119
290.186
290.429
290.623
290.441
290.34
290.293
290.279
290.291
290.356
290.561
291.019
291.799
290.641
290.47
290.377
290.332
290.316
290.318
290.356
290.51
290.907
291.637
290.497
290.341
290.263
290.23
290.222
290.232
290.27
290.392
290.719
291.358
290.362
290.225
290.162
290.137
290.134
290.149
290.189
290.294
290.565
291.125
290.279
290.156
290.098
290.076
290.074
290.091
290.133
290.23
290.467
290.972
290.196
290.08
290.023
289.999
289.997
290.017
290.063
290.157
290.371
290.839
290.146
290.036
289.978
289.951
289.948
289.971
290.022
290.113
290.303
290.727
290.013
289.918
289.861
289.829
289.825
289.85
289.904
289.992
290.137
290.453
290.208
290.129
290.07
290.035
290.03
290.057
290.117
290.209
290.328
290.465
290.24
290.212
290.203
290.199
290.199
290.201
290.205
290.219
290.272
290.472
290.658
290.484
290.391
290.349
290.337
290.347
290.399
290.568
290.969
291.689
290.671
290.507
290.422
290.383
290.369
290.372
290.404
290.53
290.873
291.538
290.521
290.379
290.312
290.284
290.278
290.287
290.318
290.418
290.698
291.278
290.394
290.276
290.225
290.205
290.203
290.214
290.245
290.329
290.56
291.067
290.314
290.213
290.169
290.152
290.15
290.163
290.195
290.269
290.467
290.924
290.234
290.141
290.098
290.08
290.079
290.094
290.128
290.199
290.371
290.791
290.194
290.109
290.066
290.047
290.046
290.063
290.101
290.168
290.314
290.685
290.072
290.001
289.959
289.936
289.934
289.954
289.995
290.059
290.164
290.418
290.27
290.213
290.169
290.144
290.142
290.163
290.209
290.276
290.36
290.452
290.34
290.318
290.311
290.308
290.308
290.31
290.313
290.323
290.362
290.519
290.688
290.525
290.443
290.406
290.396
290.404
290.445
290.579
290.919
291.571
290.694
290.543
290.468
290.434
290.423
290.427
290.454
290.554
290.842
291.437
290.542
290.418
290.362
290.34
290.335
290.342
290.367
290.448
290.682
291.201
290.427
290.33
290.289
290.274
290.272
290.28
290.303
290.369
290.56
291.015
290.353
290.273
290.239
290.226
290.225
290.234
290.257
290.313
290.472
290.881
290.275
290.204
290.172
290.159
290.158
290.169
290.194
290.245
290.379
290.748
290.248
290.184
290.153
290.138
290.138
290.152
290.179
290.227
290.336
290.653
290.134
290.081
290.05
290.034
290.034
290.049
290.08
290.125
290.199
290.398
290.333
290.292
290.26
290.243
290.242
290.259
290.293
290.341
290.399
290.46
290.44
290.425
290.421
290.419
290.418
290.42
290.422
290.429
290.456
290.573
290.711
290.566
290.496
290.467
290.459
290.465
290.496
290.597
290.873
291.447
290.713
290.581
290.518
290.492
290.484
290.487
290.508
290.586
290.818
291.338
290.563
290.461
290.417
290.401
290.397
290.402
290.421
290.483
290.671
291.127
290.464
290.387
290.357
290.346
290.344
290.35
290.367
290.416
290.567
290.967
290.396
290.335
290.311
290.301
290.3
290.307
290.323
290.364
290.486
290.841
290.321
290.268
290.245
290.236
290.235
290.244
290.261
290.298
290.398
290.711
290.307
290.261
290.238
290.228
290.228
290.238
290.259
290.293
290.372
290.63
290.196
290.158
290.135
290.124
290.124
290.136
290.159
290.191
290.243
290.392
290.397
290.367
290.344
290.332
290.332
290.345
290.37
290.404
290.445
290.485
290.541
290.534
290.531
290.53
290.53
290.531
290.533
290.537
290.554
290.635
290.729
290.608
290.554
290.532
290.526
290.53
290.552
290.623
290.833
291.321
290.733
290.625
290.577
290.558
290.552
290.555
290.571
290.628
290.805
291.245
290.588
290.51
290.478
290.466
290.464
290.468
290.482
290.527
290.669
291.056
290.506
290.45
290.428
290.42
290.419
290.423
290.436
290.47
290.583
290.919
290.444
290.4
290.382
290.375
290.375
290.38
290.393
290.422
290.511
290.803
290.371
290.334
290.318
290.311
290.311
290.318
290.332
290.358
290.428
290.677
290.371
290.338
290.322
290.315
290.315
290.324
290.339
290.364
290.42
290.616
290.255
290.228
290.211
290.203
290.204
290.214
290.231
290.256
290.292
290.396
290.46
290.439
290.422
290.413
290.414
290.424
290.443
290.468
290.497
290.524
290.65
290.65
290.649
290.647
290.647
290.648
290.65
290.653
290.662
290.713
290.742
290.65
290.613
290.598
290.594
290.597
290.611
290.657
290.803
291.195
290.755
290.676
290.644
290.632
290.628
290.631
290.643
290.681
290.805
291.158
290.619
290.564
290.544
290.536
290.534
290.538
290.549
290.58
290.678
290.985
290.552
290.513
290.498
290.493
290.493
290.497
290.508
290.532
290.609
290.87
290.493
290.462
290.45
290.445
290.446
290.451
290.463
290.484
290.544
290.762
290.422
290.396
290.385
290.38
290.382
290.388
290.401
290.421
290.468
290.645
290.432
290.408
290.396
290.391
290.393
290.4
290.414
290.435
290.474
290.609
290.304
290.284
290.272
290.266
290.268
290.276
290.291
290.31
290.337
290.405
290.524
290.509
290.496
290.49
290.492
290.5
290.516
290.535
290.558
290.576
290.791
290.789
290.788
290.787
290.787
290.788
290.789
290.792
290.797
290.823
290.747
290.687
290.664
290.656
290.655
290.658
290.668
290.694
290.78
291.062
290.782
290.732
290.713
290.706
290.705
290.709
290.72
290.744
290.82
291.072
290.657
290.622
290.61
290.605
290.606
290.612
290.623
290.645
290.704
290.916
290.599
290.573
290.563
290.56
290.561
290.568
290.58
290.601
290.649
290.821
290.539
290.517
290.508
290.505
290.508
290.515
290.528
290.548
290.588
290.726
290.469
290.451
290.443
290.44
290.442
290.45
290.463
290.483
290.516
290.622
290.477
290.459
290.449
290.446
290.448
290.456
290.47
290.49
290.52
290.601
290.329
290.314
290.305
290.301
290.303
290.311
290.325
290.342
290.365
290.406
290.6
290.587
290.578
290.574
290.576
290.583
290.597
290.614
290.634
290.65
290.97
290.96
290.957
290.955
290.956
290.957
290.96
290.965
290.97
290.983
290.747
290.715
290.704
290.7
290.701
290.706
290.717
290.734
290.775
290.926
290.824
290.794
290.781
290.777
290.778
290.785
290.799
290.821
290.864
291.001
290.713
290.691
290.681
290.678
290.681
290.69
290.705
290.728
290.766
290.876
290.657
290.637
290.628
290.625
290.628
290.638
290.654
290.678
290.714
290.803
290.592
290.574
290.565
290.563
290.566
290.576
290.593
290.616
290.65
290.722
290.52
290.505
290.497
290.494
290.498
290.507
290.523
290.545
290.575
290.632
290.506
290.49
290.481
290.478
290.481
290.49
290.505
290.527
290.557
290.605
290.332
290.319
290.312
290.309
290.312
290.32
290.334
290.351
290.372
290.399
290.696
290.684
290.675
290.672
290.674
290.682
290.695
290.712
290.732
290.749
295.922
297.124
297.666
297.404
298.147
299.718
300.619
300.714
298.436
300.409
301.554
301.845
298.18
300.527
301.819
302.065
297.779
300.459
301.83
301.99
297.405
300.388
301.822
301.951
297.05
300.311
301.802
301.957
296.724
300.232
301.784
302.01
296.351
300.12
301.767
302.109
296.173
300.158
301.957
302.521
293.873
294.295
294.379
294.141
296.342
296.924
297.125
296.957
296.907
297.612
297.851
297.619
297.069
297.893
298.176
297.897
297.176
298.129
298.462
298.15
297.311
298.398
298.787
298.465
297.402
298.626
299.07
298.753
297.434
298.793
299.294
299
297.255
298.764
299.349
299.122
297.055
298.736
299.468
299.497
291.833
292.021
292.077
292.017
294.59
294.932
295.067
295.008
294.893
295.323
295.487
295.407
294.892
295.407
295.596
295.494
294.912
295.52
295.74
295.618
295.046
295.756
296.013
295.879
295.199
296.015
296.311
296.168
295.334
296.251
296.586
296.439
295.317
296.315
296.687
296.557
295.452
296.478
296.911
296.918
291.398
291.554
291.593
291.523
294.025
294.293
294.397
294.344
294.127
294.439
294.565
294.515
293.94
294.293
294.438
294.396
293.811
294.215
294.385
294.35
293.838
294.307
294.506
294.477
293.932
294.472
294.702
294.675
294.051
294.662
294.922
294.898
294.076
294.744
295.033
295.02
294.36
295.032
295.38
295.444
291.127
291.27
291.301
291.225
293.673
293.906
293.988
293.922
293.684
293.94
294.036
293.976
293.4
293.668
293.776
293.735
293.159
293.448
293.575
293.556
293.076
293.399
293.55
293.554
293.075
293.442
293.619
293.642
293.116
293.529
293.733
293.772
293.085
293.541
293.768
293.821
293.313
293.757
294.036
294.139
291.003
291.146
291.175
291.092
293.453
293.671
293.742
293.665
293.399
293.629
293.706
293.633
293.068
293.296
293.378
293.321
292.77
293.002
293.096
293.062
292.617
292.862
292.974
292.968
292.542
292.809
292.942
292.964
292.508
292.803
292.959
293.006
292.408
292.73
292.907
292.976
292.547
292.843
293.054
293.165
290.935
291.079
291.107
291.02
293.284
293.494
293.557
293.475
293.182
293.396
293.462
293.379
292.824
293.027
293.092
293.022
292.497
292.694
292.764
292.713
292.306
292.503
292.585
292.559
292.184
292.389
292.487
292.49
292.097
292.315
292.431
292.464
291.94
292.174
292.307
292.363
291.976
292.172
292.327
292.424
290.902
291.047
291.074
290.983
293.146
293.35
293.409
293.324
293.009
293.213
293.271
293.184
292.635
292.823
292.877
292.799
292.293
292.468
292.523
292.46
292.08
292.248
292.308
292.267
291.93
292.098
292.169
292.153
291.812
291.983
292.068
292.079
291.615
291.794
291.892
291.922
291.555
291.683
291.792
291.869
290.89
291.034
291.059
290.966
293.023
293.219
293.274
293.189
292.86
293.055
293.108
293.02
292.479
292.656
292.703
292.622
292.131
292.293
292.338
292.268
291.906
292.057
292.103
292.051
291.742
291.887
291.94
291.909
291.607
291.749
291.812
291.805
291.383
291.529
291.6
291.605
291.241
291.322
291.397
291.454
290.89
291.032
291.055
290.96
292.904
293.093
293.145
293.06
292.725
292.911
292.959
292.872
292.343
292.512
292.554
292.472
291.998
292.15
292.188
292.116
291.77
291.909
291.947
291.889
291.599
291.729
291.772
291.731
291.458
291.584
291.633
291.611
291.215
291.343
291.395
291.378
291.006
291.055
291.106
291.147
290.896
291.035
291.056
290.958
292.783
292.965
293.013
292.931
292.594
292.771
292.816
292.73
292.22
292.38
292.418
292.338
291.885
292.028
292.063
291.991
291.661
291.791
291.825
291.765
291.489
291.612
291.647
291.601
291.35
291.468
291.508
291.474
291.094
291.212
291.251
291.216
290.834
290.86
290.894
290.925
290.905
291.038
291.056
290.958
292.657
292.831
292.876
292.796
292.464
292.632
292.673
292.591
292.102
292.254
292.29
292.213
291.785
291.921
291.954
291.885
291.572
291.697
291.728
291.669
291.406
291.524
291.556
291.506
291.274
291.388
291.422
291.38
291.005
291.118
291.148
291.098
290.711
290.723
290.745
290.768
290.912
291.039
291.053
290.955
292.523
292.688
292.731
292.654
292.331
292.49
292.529
292.451
291.988
292.133
292.167
292.094
291.695
291.826
291.857
291.792
291.499
291.621
291.651
291.592
291.342
291.458
291.489
291.436
291.22
291.334
291.364
291.314
290.938
291.049
291.072
291.01
290.629
290.631
290.646
290.664
290.915
291.034
291.045
290.949
292.378
292.535
292.575
292.502
292.194
292.344
292.381
292.308
291.877
292.014
292.048
291.98
291.616
291.742
291.772
291.71
291.441
291.56
291.589
291.531
291.294
291.409
291.438
291.382
291.182
291.296
291.323
291.265
290.884
290.993
291.011
290.94
290.581
290.576
290.586
290.601
290.914
291.022
291.03
290.938
292.223
292.371
292.41
292.341
292.055
292.197
292.232
292.165
291.77
291.901
291.933
291.87
291.545
291.667
291.698
291.638
291.392
291.51
291.538
291.479
291.253
291.369
291.396
291.335
291.15
291.265
291.289
291.222
290.836
290.94
290.954
290.878
290.56
290.551
290.558
290.571
290.908
291.004
291.009
290.926
292.059
292.199
292.235
292.171
291.918
292.051
292.085
292.023
291.668
291.793
291.825
291.765
291.483
291.602
291.631
291.571
291.348
291.464
291.491
291.427
291.212
291.328
291.352
291.283
291.117
291.23
291.249
291.174
290.786
290.883
290.893
290.816
290.562
290.551
290.555
290.567
290.904
290.985
290.989
290.918
291.89
292.021
292.056
291.995
291.786
291.912
291.944
291.885
291.573
291.693
291.722
291.662
291.421
291.537
291.563
291.499
291.296
291.41
291.433
291.363
291.159
291.271
291.289
291.214
291.069
291.176
291.191
291.111
290.73
290.815
290.821
290.751
290.582
290.571
290.574
290.584
290.912
290.977
290.98
290.924
291.72
291.841
291.872
291.813
291.662
291.779
291.808
291.748
291.475
291.589
291.614
291.549
291.346
291.456
291.477
291.406
291.221
291.328
291.344
291.269
291.076
291.178
291.191
291.113
290.995
291.09
291.099
291.022
290.663
290.732
290.736
290.677
290.619
290.609
290.611
290.619
290.957
291.005
291.008
290.968
291.537
291.648
291.673
291.611
291.531
291.638
291.66
291.595
291.356
291.459
291.476
291.406
291.235
291.333
291.346
291.273
291.105
291.196
291.205
291.132
290.957
291.039
291.046
290.975
290.888
290.961
290.966
290.902
290.581
290.63
290.632
290.59
290.68
290.675
290.676
290.682
291.057
291.087
291.09
291.067
291.309
291.4
291.414
291.352
291.366
291.453
291.465
291.402
291.202
291.281
291.289
291.226
291.091
291.162
291.167
291.107
290.967
291.03
291.033
290.979
290.833
290.885
290.888
290.84
290.774
290.82
290.823
290.783
290.492
290.52
290.522
290.498
290.774
290.775
290.777
290.778
293.083
292.146
291.489
291.122
290.824
290.587
290.385
290.205
290.026
289.824
296.107
294.97
293.965
293.258
292.699
292.237
291.833
291.459
291.094
290.725
296.472
295.242
294.104
293.349
292.769
292.307
291.911
291.552
291.204
290.851
296.635
295.235
293.997
293.206
292.603
292.127
291.728
291.375
291.046
290.719
296.9
295.287
293.965
293.14
292.509
292.014
291.6
291.241
290.915
290.598
297.339
295.503
294.121
293.269
292.613
292.099
291.664
291.283
290.936
290.602
297.813
295.764
294.346
293.474
292.797
292.264
291.803
291.395
291.019
290.656
298.303
296.056
294.622
293.736
293.041
292.49
292.005
291.567
291.153
290.744
298.65
296.259
294.824
293.953
293.271
292.736
292.245
291.78
291.323
290.846
299.555
297.085
295.688
294.831
294.128
293.54
292.982
292.448
291.929
291.38
293.038
292.185
291.525
291.077
290.755
290.509
290.312
290.144
289.985
289.808
295.948
294.768
293.791
293.059
292.489
292.024
291.627
291.273
290.939
290.609
296.201
294.838
293.751
292.984
292.401
291.94
291.556
291.221
290.91
290.601
296.104
294.623
293.459
292.673
292.078
291.613
291.233
290.911
290.624
290.347
296.017
294.449
293.217
292.415
291.806
291.336
290.955
290.639
290.365
290.109
296.051
294.421
293.139
292.329
291.71
291.235
290.85
290.529
290.249
289.991
296.102
294.424
293.112
292.303
291.676
291.201
290.808
290.477
290.185
289.915
296.16
294.449
293.133
292.338
291.71
291.233
290.831
290.485
290.173
289.879
296.096
294.362
293.073
292.322
291.721
291.27
290.867
290.504
290.166
289.832
296.517
294.788
293.597
292.89
292.293
291.81
291.362
290.951
290.571
290.203
291.777
291.375
291.051
290.804
290.603
290.435
290.288
290.154
290.018
289.857
294.655
294.005
293.381
292.833
292.359
291.949
291.591
291.267
290.958
290.649
294.926
294.156
293.435
292.827
292.316
291.891
291.532
291.22
290.928
290.638
294.873
294.019
293.219
292.566
292.029
291.591
291.232
290.93
290.66
290.399
294.848
293.914
293.038
292.347
291.788
291.341
290.98
290.683
290.423
290.178
294.951
293.945
293.002
292.285
291.711
291.258
290.892
290.588
290.321
290.071
295.075
294.003
293.005
292.273
291.69
291.233
290.858
290.541
290.259
289.996
295.199
294.072
293.042
292.311
291.726
291.265
290.878
290.543
290.24
289.956
295.195
294.021
292.986
292.282
291.712
291.26
290.864
290.51
290.183
289.866
295.599
294.413
293.435
292.758
292.183
291.704
291.27
290.875
290.513
290.177
291.313
290.986
290.753
290.583
290.447
290.332
290.228
290.13
290.021
289.88
294.063
293.54
293.03
292.57
292.165
291.811
291.501
291.218
290.946
290.667
294.223
293.647
293.079
292.571
292.132
291.762
291.449
291.174
290.916
290.653
294.103
293.495
292.883
292.34
291.877
291.494
291.179
290.913
290.672
290.434
294.042
293.395
292.73
292.154
291.671
291.278
290.96
290.697
290.462
290.234
294.136
293.442
292.725
292.122
291.624
291.222
290.895
290.621
290.374
290.138
294.279
293.531
292.763
292.137
291.625
291.213
290.873
290.581
290.317
290.066
294.434
293.634
292.828
292.194
291.674
291.252
290.894
290.581
290.295
290.023
294.479
293.624
292.797
292.171
291.653
291.226
290.852
290.517
290.207
289.908
294.838
293.977
293.191
292.58
292.052
291.598
291.189
290.818
290.48
290.174
291.002
290.704
290.513
290.39
290.299
290.224
290.156
290.087
290.004
289.883
293.629
293.148
292.699
292.301
291.954
291.653
291.39
291.149
290.914
290.667
293.692
293.191
292.709
292.281
291.912
291.601
291.339
291.109
290.888
290.656
293.491
293.001
292.507
292.062
291.679
291.362
291.101
290.88
290.674
290.462
293.357
292.872
292.36
291.897
291.503
291.18
290.918
290.696
290.491
290.284
293.392
292.902
292.367
291.888
291.483
291.151
290.876
290.639
290.418
290.199
293.499
292.991
292.425
291.927
291.508
291.16
290.866
290.607
290.366
290.131
293.634
293.102
292.511
292.003
291.571
291.206
290.889
290.606
290.342
290.085
293.667
293.099
292.491
291.981
291.539
291.158
290.818
290.511
290.226
289.947
293.934
293.399
292.833
292.329
291.873
291.466
291.094
290.756
290.448
290.172
290.844
290.547
290.37
290.266
290.198
290.146
290.101
290.053
289.988
289.883
293.349
292.878
292.457
292.091
291.78
291.516
291.289
291.084
290.883
290.665
293.324
292.844
292.407
292.028
291.71
291.448
291.232
291.043
290.859
290.657
293.057
292.606
292.176
291.8
291.485
291.228
291.021
290.844
290.673
290.488
292.856
292.436
292.015
291.641
291.327
291.074
290.867
290.688
290.515
290.329
292.824
292.431
292.014
291.64
291.324
291.063
290.843
290.646
290.454
290.253
292.874
292.497
292.074
291.692
291.363
291.084
290.841
290.619
290.405
290.187
292.963
292.594
292.166
291.776
291.433
291.132
290.862
290.615
290.377
290.139
292.956
292.572
292.138
291.744
291.385
291.061
290.765
290.493
290.236
289.982
293.124
292.815
292.43
292.04
291.665
291.315
290.991
290.692
290.418
290.172
290.753
290.456
290.286
290.193
290.138
290.1
290.068
290.034
289.983
289.891
293.146
292.68
292.275
291.929
291.642
291.405
291.207
291.032
290.859
290.668
293.053
292.583
292.172
291.825
291.543
291.319
291.142
290.989
290.836
290.663
292.736
292.301
291.911
291.583
291.319
291.114
290.953
290.815
290.675
290.515
292.483
292.091
291.726
291.418
291.171
290.977
290.821
290.68
290.536
290.371
292.394
292.047
291.706
291.412
291.172
290.975
290.804
290.645
290.481
290.3
292.39
292.08
291.753
291.463
291.214
290.998
290.804
290.62
290.433
290.235
292.429
292.149
291.833
291.542
291.279
291.04
290.818
290.608
290.4
290.183
292.366
292.087
291.779
291.486
291.207
290.944
290.696
290.464
290.239
290.01
292.435
292.272
292.024
291.738
291.443
291.156
290.882
290.626
290.389
290.176
290.703
290.407
290.243
290.158
290.111
290.082
290.059
290.034
289.991
289.91
292.989
292.529
292.135
291.805
291.536
291.321
291.147
290.996
290.847
290.678
292.849
292.387
291.993
291.669
291.414
291.222
291.076
290.952
290.827
290.677
292.499
292.074
291.709
291.415
291.191
291.028
290.905
290.799
290.685
290.544
292.209
291.831
291.503
291.242
291.046
290.902
290.786
290.677
290.557
290.409
292.076
291.75
291.458
291.224
291.042
290.896
290.768
290.641
290.503
290.34
292.027
291.748
291.483
291.26
291.074
290.912
290.76
290.611
290.452
290.273
292.021
291.783
291.539
291.321
291.124
290.939
290.763
290.59
290.411
290.216
291.899
291.673
291.447
291.233
291.024
290.818
290.618
290.426
290.235
290.034
291.88
291.801
291.649
291.447
291.225
290.998
290.776
290.563
290.364
290.184
290.676
290.385
290.229
290.15
290.11
290.087
290.07
290.051
290.015
289.943
292.854
292.403
292.022
291.706
291.454
291.259
291.108
290.979
290.85
290.699
292.683
292.232
291.854
291.55
291.32
291.154
291.035
290.937
290.833
290.7
292.316
291.901
291.558
291.292
291.101
290.972
290.879
290.797
290.702
290.576
292.005
291.639
291.338
291.114
290.957
290.849
290.764
290.68
290.578
290.444
291.842
291.529
291.272
291.079
290.94
290.833
290.736
290.636
290.519
290.372
291.758
291.494
291.268
291.092
290.953
290.831
290.715
290.596
290.461
290.302
291.716
291.494
291.294
291.126
290.978
290.839
290.702
290.563
290.413
290.24
291.54
291.334
291.159
291.003
290.85
290.694
290.539
290.384
290.226
290.053
291.45
291.415