/*--------------------------------*- C++ -*----------------------------------*\
| =========                 |                                                 |
| \\      /  F ield         | foam-extend: Open Source CFD                    |
|  \\    /   O peration     | Version:     4.0                                |
|   \\  /    A nd           | Web:         http://www.foam-extend.org         |
|    \\/     M anipulation  |                                                 |
\*---------------------------------------------------------------------------*/
FoamFile
{
    version     2.0;
    format      ascii;
    class       volVectorField;
    location    "100";
    object      Urel;
}
// * * * * * * * * * * * * * * * * * * * * * * * * * * * * * * * * * * * * * //

dimensions      [0 1 -1 0 0 0 0];

internalField   nonuniform List<vector> 
34480
(
(147.563 -8.78541 -17.584)
(149.183 -7.86017 -19.2213)
(150.38 -6.89359 -20.9908)
(151.416 -5.84516 -22.9017)
(152.346 -4.71401 -25.1132)
(153.177 -3.43943 -27.7585)
(153.851 -1.95766 -31.2245)
(153.895 -0.131432 -35.6985)
(151.865 2.19728 -42.9729)
(144.748 6.24164 -67.5989)
(142.427 -12.3432 -24.1946)
(145.431 -10.5013 -26.2351)
(147.656 -8.67364 -28.3532)
(149.269 -6.84896 -30.5294)
(150.381 -5.06268 -32.8779)
(150.843 -3.29931 -35.5393)
(150.271 -1.49945 -38.8182)
(148.376 0.476844 -43.3306)
(144.212 2.74273 -50.8066)
(136.627 6.89215 -79.3337)
(141.925 -16.2095 -30.6299)
(144.911 -13.8479 -32.9567)
(147.18 -11.5211 -35.3431)
(149.015 -9.20031 -37.7601)
(150.602 -6.94156 -40.3717)
(151.786 -4.74476 -43.3719)
(151.921 -2.57086 -47.0031)
(150.667 -0.275825 -52.1718)
(146.908 2.21099 -60.4085)
(139.636 6.76223 -92.5562)
(142.896 -19.2547 -37.5369)
(145.756 -16.3977 -40.145)
(147.958 -13.6007 -42.7807)
(149.851 -10.7889 -45.4181)
(151.635 -8.00791 -48.2591)
(153.275 -5.26231 -51.5498)
(154.15 -2.58648 -55.5312)
(153.787 0.143194 -61.3863)
(150.72 3.02611 -70.5015)
(143.826 8.05695 -105.836)
(144.078 -22.9769 -44.2795)
(146.875 -19.7808 -47.1959)
(149.053 -16.6235 -50.1131)
(151.001 -13.4171 -52.9791)
(152.899 -10.2157 -56.0327)
(154.825 -7.00453 -59.5872)
(156.334 -3.8203 -63.928)
(156.902 -0.551863 -70.516)
(154.672 2.91591 -80.618)
(148.126 8.62059 -118.704)
(144.748 -26.1641 -51.4433)
(147.594 -22.5864 -54.6621)
(149.838 -19.0186 -57.8195)
(151.891 -15.3657 -60.8742)
(153.903 -11.6729 -64.0736)
(156.022 -7.91309 -67.7933)
(158.013 -4.12944 -72.3578)
(159.457 -0.262604 -79.515)
(158.219 3.83027 -90.5389)
(152.041 10.186 -130.861)
(145.214 -30.5094 -58.1792)
(148.189 -26.6312 -61.728)
(150.564 -22.718 -65.2048)
(152.76 -18.6888 -68.5095)
(154.896 -14.5949 -71.8999)
(157.153 -10.4016 -75.7868)
(159.48 -6.09588 -80.5398)
(161.681 -1.59654 -88.1725)
(161.54 3.32565 -100.15)
(155.796 10.5282 -142.267)
(145.569 -34.0529 -65.4624)
(148.75 -29.792 -69.3539)
(151.323 -25.4607 -73.1271)
(153.665 -20.9971 -76.6711)
(155.865 -16.4293 -80.2051)
(158.121 -11.7224 -84.1448)
(160.546 -6.80397 -88.8737)
(163.269 -1.61291 -96.5893)
(164.326 4.17447 -109.217)
(159.253 12.1316 -152.541)
(146.145 -39.1134 -71.7516)
(149.802 -34.5986 -76.035)
(152.827 -30.0148 -80.2594)
(155.506 -25.2836 -84.21)
(157.87 -20.4277 -88.0655)
(160.149 -15.425 -92.2004)
(162.564 -10.1249 -97.0217)
(165.551 -4.41189 -104.734)
(167.666 2.44406 -117.901)
(163.26 11.9117 -161.789)
(146.167 -42.2833 -79.3471)
(150.094 -37.706 -83.9127)
(153.294 -32.9304 -88.4279)
(155.898 -27.8865 -92.6954)
(157.918 -22.5601 -96.7991)
(159.608 -16.9594 -101.004)
(161.342 -10.9744 -105.734)
(163.837 -4.46442 -112.95)
(166.63 3.35109 -125.664)
(164.13 14.3552 -168.062)
(146.752 2.58598 3.93125)
(148.311 2.16365 3.178)
(149.329 1.71636 2.17571)
(150.063 1.30056 0.984751)
(150.554 0.916526 -0.508326)
(150.728 0.621302 -2.28833)
(150.382 0.456112 -4.46283)
(148.93 0.458145 -7.03834)
(145.939 0.581997 -9.63782)
(140.441 1.12949 -14.4984)
(141.638 3.04016 4.80607)
(144.566 3.00463 3.83286)
(146.656 2.87801 2.63736)
(148.054 2.67516 1.25388)
(148.863 2.3873 -0.375255)
(148.895 2.03346 -2.31014)
(147.561 1.65135 -4.59404)
(144.153 1.30706 -7.47934)
(138.392 0.905424 -10.6003)
(131.331 1.26911 -19.8159)
(141.347 3.14279 5.7585)
(144.236 3.09569 4.70759)
(146.355 2.94073 3.43609)
(147.954 2.70847 1.97538)
(149.193 2.37318 0.226316)
(149.92 1.939 -1.98406)
(149.32 1.43326 -4.69114)
(146.481 0.947591 -8.39588)
(140.882 0.327971 -12.6396)
(134.21 0.868821 -26.4934)
(142.408 4.01369 6.25382)
(145.159 3.95651 5.13946)
(147.214 3.77201 3.81975)
(148.872 3.52592 2.30714)
(150.29 3.19927 0.469894)
(151.426 2.79827 -1.92938)
(151.527 2.28427 -4.96213)
(149.531 1.73647 -9.45138)
(144.426 1.02411 -14.7772)
(138.164 1.86441 -33.1679)
(143.603 4.18586 6.95319)
(146.301 3.98722 5.75014)
(148.343 3.68119 4.34025)
(150.064 3.34336 2.75492)
(151.592 2.9374 0.832841)
(152.977 2.48324 -1.71536)
(153.648 1.9448 -5.01602)
(152.564 1.41631 -10.2886)
(148.152 0.769424 -16.7197)
(142.217 2.0404 -39.3982)
(144.268 4.94783 7.24564)
(147.025 4.66184 5.95722)
(149.137 4.27981 4.49668)
(150.971 3.8844 2.87844)
(152.619 3.44629 0.935247)
(154.178 3.00687 -1.67466)
(155.263 2.53195 -5.09054)
(155.038 2.07639 -10.9487)
(151.512 1.52927 -18.4035)
(145.896 3.13427 -45.0319)
(144.758 4.56755 7.97827)
(147.642 4.11146 6.58175)
(149.88 3.59007 4.98906)
(151.855 3.07843 3.27168)
(153.629 2.54015 1.25158)
(155.324 2.01586 -1.43912)
(156.698 1.51982 -4.93858)
(157.215 1.13874 -11.2435)
(154.715 0.89707 -19.7453)
(149.486 2.97753 -49.9426)
(145.114 5.08267 8.13213)
(148.189 4.53978 6.62752)
(150.611 3.94329 4.94996)
(152.736 3.35505 3.16397)
(154.594 2.76632 1.12283)
(156.325 2.21835 -1.55337)
(157.796 1.78871 -4.96883)
(158.828 1.5314 -11.3146)
(157.479 1.64144 -20.5421)
(152.903 3.93606 -53.683)
(145.809 4.0872 9.23659)
(149.273 3.32005 7.61107)
(152.086 2.49148 5.72046)
(154.517 1.68548 3.72793)
(156.552 0.905843 1.49448)
(158.361 0.172414 -1.33195)
(159.883 -0.36323 -4.86106)
(161.209 -0.661463 -11.1992)
(160.909 -0.0545481 -21.0295)
(156.999 2.90607 -56.3014)
(145.977 5.01025 8.97689)
(149.645 3.83465 7.36158)
(152.642 2.70755 5.45075)
(155.066 1.68951 3.37919)
(156.892 0.830029 1.08107)
(158.306 0.130922 -1.70307)
(159.391 -0.285118 -5.14998)
(160.46 -0.354534 -11.0798)
(160.959 0.628868 -20.9575)
(158.747 4.62863 -56.4434)
(146.285 1.91829 2.95832)
(147.684 1.60903 2.35912)
(148.512 1.26487 1.51645)
(149.025 0.938052 0.52047)
(149.264 0.63204 -0.685959)
(149.177 0.387647 -2.02918)
(148.616 0.226701 -3.49526)
(147.214 0.16077 -4.96236)
(144.247 0.112283 -6.07331)
(138.832 0.186581 -7.31342)
(141.147 2.51582 3.91855)
(143.884 2.54626 3.06898)
(145.761 2.46058 1.99336)
(146.926 2.2771 0.740236)
(147.472 2.00298 -0.709375)
(147.216 1.65716 -2.34988)
(145.592 1.25957 -4.12183)
(141.949 0.847916 -6.01542)
(135.84 0.327847 -7.48229)
(127.808 0.0941027 -10.6464)
(140.951 2.67744 4.88208)
(143.651 2.64962 3.93468)
(145.569 2.50502 2.7629)
(146.938 2.27263 1.40216)
(147.885 1.93784 -0.21245)
(148.231 1.5045 -2.19114)
(147.203 0.999384 -4.47897)
(143.846 0.478879 -7.17626)
(137.305 -0.234438 -9.48402)
(128.557 -0.434625 -15.2089)
(142.024 3.53388 5.38757)
(144.607 3.47599 4.35455)
(146.482 3.30258 3.12005)
(147.918 3.06482 1.68617)
(149.033 2.74796 -0.0454522)
(149.731 2.34821 -2.25593)
(149.272 1.83672 -4.94624)
(146.502 1.25484 -8.44739)
(139.891 0.406686 -11.6577)
(130.698 0.343765 -20.2715)
(143.199 3.65088 6.13081)
(145.755 3.45757 4.99049)
(147.635 3.17855 3.64952)
(149.14 2.86895 2.11947)
(150.366 2.49339 0.273623)
(151.288 2.05363 -2.12088)
(151.289 1.51872 -5.13614)
(149.216 0.958249 -9.46505)
(142.791 0.14016 -13.7064)
(133.275 0.390301 -25.4296)
(143.849 4.4128 6.46753)
(146.479 4.14943 5.22428)
(148.436 3.80874 3.81965)
(150.057 3.45213 2.23922)
(151.404 3.0508 0.34699)
(152.497 2.62774 -2.14127)
(152.836 2.14803 -5.32011)
(151.436 1.65144 -10.3007)
(145.43 0.89419 -15.5608)
(135.69 1.39464 -30.4065)
(144.36 4.03756 7.25344)
(147.115 3.61817 5.88793)
(149.191 3.14989 4.34197)
(150.949 2.69072 2.64784)
(152.421 2.20527 0.65395)
(153.655 1.71789 -1.94937)
(154.245 1.22765 -5.25822)
(153.448 0.806702 -10.7681)
(148.055 0.32449 -17.114)
(138.199 1.23379 -34.9726)
(144.746 4.64538 7.40159)
(147.673 4.15224 5.92883)
(149.911 3.61482 4.31198)
(151.806 3.08401 2.55788)
(153.367 2.55322 0.537146)
(154.667 2.05256 -2.07806)
(155.378 1.63069 -5.35563)
(155.032 1.32361 -11.0201)
(150.445 1.16241 -18.1852)
(140.7 2.20845 -38.6168)
(145.654 3.71492 8.4257)
(148.874 2.9927 6.84591)
(151.417 2.23416 5.04549)
(153.558 1.506 3.11551)
(155.262 0.813463 0.918724)
(156.649 0.1786 -1.85418)
(157.463 -0.28517 -5.30733)
(157.453 -0.558282 -11.1115)
(153.687 -0.208558 -19.0118)
(143.982 1.28039 -41.189)
(146.042 4.67312 8.1048)
(149.373 3.57202 6.56707)
(152.065 2.5491 4.78865)
(154.21 1.62827 2.82786)
(155.763 0.859068 0.612812)
(156.86 0.249464 -2.09946)
(157.396 -0.0955478 -5.4852)
(157.334 -0.12435 -11.0109)
(154.412 0.641348 -19.297)
(145.513 3.00966 -41.6069)
(145.907 1.3048 2.13501)
(147.113 1.0947 1.70233)
(147.763 0.844748 1.04575)
(148.11 0.600302 0.276058)
(148.204 0.364304 -0.624668)
(148.02 0.162273 -1.56376)
(147.47 0.00394506 -2.48694)
(146.321 -0.10516 -3.2618)
(144.029 -0.222318 -3.62575)
(139.636 -0.350595 -3.46903)
(140.66 1.99162 3.04664)
(143.158 2.07347 2.34448)
(144.813 2.02465 1.42858)
(145.772 1.86819 0.359502)
(146.134 1.62164 -0.848857)
(145.752 1.29912 -2.14363)
(144.112 0.907724 -3.42283)
(140.641 0.473777 -4.57458)
(135.071 -0.0547042 -5.18818)
(127.814 -0.50439 -5.70176)
(140.52 2.18837 3.98625)
(142.985 2.17823 3.17143)
(144.682 2.04847 2.13785)
(145.821 1.82559 0.926994)
(146.516 1.5047 -0.492885)
(146.62 1.0913 -2.15833)
(145.451 0.607153 -3.9698)
(142.111 0.0948773 -5.81863)
(135.987 -0.584377 -6.99098)
(127.918 -1.08555 -8.65995)
(141.578 3.02675 4.47786)
(143.958 2.97877 3.55945)
(145.636 2.82355 2.44646)
(146.837 2.59923 1.13891)
(147.665 2.29832 -0.431081)
(148.024 1.91845 -2.36344)
(147.268 1.43289 -4.61018)
(144.314 0.859546 -7.18607)
(137.909 0.017275 -8.98993)
(129.258 -0.494723 -12.1865)
(142.726 3.09343 5.25104)
(145.114 2.92238 4.2092)
(146.813 2.67635 2.97204)
(148.085 2.39386 1.54281)
(149.005 2.04688 -0.175393)
(149.529 1.63562 -2.33156)
(149.093 1.12776 -4.94601)
(146.621 0.57249 -8.30221)
(140.128 -0.274979 -10.9031)
(131.001 -0.612163 -15.9886)
(143.364 3.86275 5.61476)
(145.844 3.64262 4.45676)
(147.626 3.3491 3.14343)
(149.011 3.02876 1.64517)
(150.046 2.66049 -0.147249)
(150.711 2.26442 -2.43496)
(150.503 1.80152 -5.26364)
(148.49 1.29335 -9.25823)
(142.085 0.44986 -12.6859)
(132.585 0.238636 -19.8641)
(143.896 3.50096 6.43756)
(146.503 3.13914 5.14796)
(148.397 2.72726 3.68624)
(149.914 2.31389 2.06105)
(151.068 1.87233 0.142902)
(151.862 1.42583 -2.29824)
(151.834 0.958888 -5.31623)
(150.232 0.52372 -9.86707)
(144.087 -0.0976649 -14.2373)
(134.314 -0.000632774 -23.6085)
(144.312 4.20785 6.56709)
(147.076 3.7852 5.1762)
(149.114 3.30925 3.65678)
(150.757 2.82974 1.98004)
(152.001 2.34705 0.0321128)
(152.872 1.89293 -2.44578)
(152.953 1.49004 -5.49224)
(151.677 1.15532 -10.2804)
(146.002 0.78899 -15.4047)
(136.15 0.937307 -26.745)
(145.374 3.33939 7.54089)
(148.35 2.68376 6.05734)
(150.63 1.99595 4.37314)
(152.479 1.33949 2.54054)
(153.846 0.720251 0.430623)
(154.795 0.167729 -2.20366)
(154.972 -0.238095 -5.45169)
(154.009 -0.488561 -10.5017)
(148.929 -0.356382 -16.4215)
(138.94 0.0730971 -29.1268)
(145.926 4.32646 7.18994)
(148.939 3.32185 5.77276)
(151.346 2.40279 4.1392)
(153.222 1.57631 2.30848)
(154.503 0.891284 0.211925)
(155.262 0.361801 -2.35574)
(155.261 0.0738503 -5.54024)
(154.297 0.0709615 -10.4123)
(150.009 0.64817 -16.9452)
(140.494 1.84635 -29.8145)
(145.648 0.795887 1.52812)
(146.662 0.648973 1.22869)
(147.162 0.468328 0.735754)
(147.397 0.288469 0.168646)
(147.427 0.107052 -0.477772)
(147.251 -0.0606469 -1.11476)
(146.821 -0.210857 -1.69104)
(145.971 -0.335921 -2.10736)
(144.236 -0.460776 -2.22456)
(140.599 -0.594973 -1.97003)
(140.266 1.52463 2.28472)
(142.503 1.62678 1.72184)
(143.942 1.60174 0.974012)
(144.733 1.4726 0.104598)
(144.981 1.26116 -0.853672)
(144.581 0.975529 -1.83068)
(143.073 0.615153 -2.71928)
(139.92 0.203567 -3.39404)
(134.961 -0.267062 -3.63924)
(128.423 -0.694713 -3.52912)
(140.124 1.71187 3.15413)
(142.327 1.70931 2.47946)
(143.804 1.59548 1.60363)
(144.744 1.39182 0.572925)
(145.259 1.09965 -0.616489)
(145.237 0.723661 -1.95154)
(144.102 0.279521 -3.32217)
(141.023 -0.192395 -4.54379)
(135.565 -0.768974 -5.14747)
(128.331 -1.26161 -5.46723)
(141.124 2.51881 3.60209)
(143.285 2.48819 2.81587)
(144.764 2.35894 1.84813)
(145.757 2.15738 0.70209)
(146.36 1.88341 -0.659865)
(146.495 1.53802 -2.26909)
(145.632 1.09628 -4.05179)
(142.807 0.564689 -5.86521)
(137.051 -0.179265 -6.8804)
(129.299 -0.765931 -7.85214)
(142.228 2.539 4.38628)
(144.432 2.40586 3.46606)
(145.948 2.20103 2.35804)
(147.006 1.95034 1.06606)
(147.676 1.63589 -0.475108)
(147.906 1.26135 -2.33535)
(147.23 0.796022 -4.49127)
(144.721 0.275267 -6.97549)
(138.789 -0.49262 -8.56134)
(130.587 -1.00297 -10.5126)
(142.847 3.32314 4.75789)
(145.159 3.16359 3.71334)
(146.762 2.924 2.51802)
(147.928 2.64193 1.13882)
(148.697 2.30694 -0.503358)
(149.025 1.94111 -2.52691)
(148.473 1.50859 -4.92566)
(146.241 1.01779 -7.97488)
(140.225 0.206686 -10.156)
(131.643 -0.283999 -13.3275)
(143.392 2.98184 5.60002)
(145.834 2.69426 4.41903)
(147.545 2.34349 3.06932)
(148.832 1.97508 1.55045)
(149.709 1.57355 -0.240321)
(150.142 1.16478 -2.45234)
(149.696 0.729088 -5.08955)
(147.707 0.30301 -8.67128)
(141.709 -0.342952 -11.5777)
(132.804 -0.619026 -16.1709)
(143.84 3.78886 5.70137)
(146.423 3.45051 4.42718)
(148.26 3.03962 3.03078)
(149.664 2.61134 1.4661)
(150.627 2.17377 -0.358025)
(151.135 1.76018 -2.62722)
(150.766 1.37848 -5.34462)
(148.987 1.03663 -9.20561)
(143.188 0.564417 -12.7065)
(134.109 0.261272 -18.6634)
(145.032 2.97007 6.63856)
(147.755 2.39395 5.28384)
(149.777 1.77882 3.73507)
(151.351 1.19251 2.02699)
(152.421 0.641706 0.0483131)
(153 0.159974 -2.37687)
(152.706 -0.19961 -5.30298)
(151.173 -0.434828 -9.49348)
(145.757 -0.454273 -13.7547)
(136.464 -0.590601 -20.7332)
(145.713 3.9801 6.26595)
(148.409 3.08452 4.99491)
(150.537 2.26897 3.51629)
(152.151 1.5347 1.83238)
(153.178 0.930418 -0.114009)
(153.64 0.4749 -2.47904)
(153.241 0.23535 -5.35898)
(151.71 0.245655 -9.44164)
(146.953 0.669619 -14.3476)
(137.976 1.18501 -21.4433)
(145.419 0.391992 1.11986)
(146.269 0.277709 0.916318)
(146.653 0.141454 0.54859)
(146.816 0.00721686 0.139276)
(146.823 -0.134496 -0.31977)
(146.686 -0.27446 -0.751438)
(146.378 -0.411601 -1.12011)
(145.756 -0.534806 -1.35961)
(144.382 -0.645623 -1.39581)
(141.156 -0.74541 -1.1838)
(139.919 1.13622 1.65807)
(141.911 1.2308 1.21633)
(143.16 1.21614 0.625181)
(143.821 1.11121 -0.0570432)
(144.005 0.936923 -0.790903)
(143.646 0.695253 -1.50954)
(142.327 0.381526 -2.11673)
(139.497 0.0169782 -2.5002)
(135 -0.377441 -2.55996)
(128.902 -0.729824 -2.28507)
(139.751 1.27831 2.42785)
(141.7 1.27197 1.88663)
(142.973 1.17295 1.17105)
(143.748 0.995084 0.327748)
(144.139 0.741917 -0.629353)
(144.073 0.415542 -1.66361)
(143.069 0.0263418 -2.67393)
(140.329 -0.387053 -3.4662)
(135.478 -0.853844 -3.75469)
(128.87 -1.26347 -3.62317)
(140.683 2.04509 2.80492)
(142.626 2.03489 2.15398)
(143.918 1.93657 1.34219)
(144.73 1.76548 0.375865)
(145.162 1.52738 -0.757552)
(145.166 1.22626 -2.04591)
(144.325 0.840669 -3.40918)
(141.777 0.37033 -4.64922)
(136.729 -0.252016 -5.20279)
(129.768 -0.782861 -5.3012)
(141.739 2.02333 3.57775)
(143.754 1.9369 2.78873)
(145.091 1.77847 1.82533)
(145.955 1.56425 0.694841)
(146.424 1.287 -0.637374)
(146.457 0.95436 -2.18289)
(145.694 0.540815 -3.89173)
(143.349 0.071707 -5.67037)
(138.171 -0.57651 -6.6329)
(130.904 -1.07707 -7.18509)
(142.341 2.82595 3.93485)
(144.473 2.7348 3.01925)
(145.894 2.55221 1.96079)
(146.854 2.31078 0.728591)
(147.402 2.01166 -0.724272)
(147.488 1.67873 -2.44829)
(146.76 1.28429 -4.39926)
(144.557 0.829569 -6.63835)
(139.264 0.112969 -8.01099)
(131.726 -0.431085 -9.19522)
(142.896 2.50603 4.77559)
(145.156 2.299 3.72354)
(146.677 2.01096 2.50681)
(147.748 1.68825 1.12426)
(148.387 1.32734 -0.495639)
(148.547 0.955403 -2.43093)
(147.857 0.554598 -4.64457)
(145.766 0.151436 -7.35732)
(140.381 -0.447662 -9.26037)
(132.589 -0.843034 -11.2803)
(143.372 3.40534 4.83773)
(145.755 3.15447 3.70264)
(147.387 2.8094 2.44877)
(148.564 2.43317 1.02407)
(149.281 2.04216 -0.633665)
(149.502 1.66893 -2.64015)
(148.851 1.31233 -4.96346)
(146.87 0.974829 -7.95604)
(141.524 0.474834 -10.2855)
(133.579 -0.0085991 -13.1639)
(144.658 2.61376 5.74575)
(147.116 2.12161 4.54037)
(148.885 1.57932 3.14219)
(150.203 1.06139 1.58119)
(151.012 0.576347 -0.229289)
(151.292 0.158868 -2.39681)
(150.686 -0.159037 -4.93286)
(148.873 -0.381555 -8.26433)
(143.771 -0.494541 -11.2536)
(135.656 -0.881117 -14.8411)
(145.418 3.6407 5.35483)
(147.8 2.86004 4.2446)
(149.656 2.14661 2.92869)
(151.022 1.50202 1.40607)
(151.819 0.9753 -0.362472)
(152.032 0.588173 -2.4817)
(151.361 0.391232 -4.99431)
(149.54 0.408554 -8.27948)
(144.961 0.711358 -11.8184)
(137.203 0.87003 -15.4489)
(145.16 0.0783277 0.870842)
(145.88 -0.0235919 0.729985)
(146.18 -0.134863 0.448072)
(146.297 -0.239494 0.149198)
(146.298 -0.353678 -0.184113)
(146.203 -0.47155 -0.487289)
(145.99 -0.593505 -0.740319)
(145.527 -0.706119 -0.90078)
(144.389 -0.796751 -0.92442)
(141.427 -0.853546 -0.778779)
(139.589 0.83156 1.16887)
(141.374 0.89898 0.825799)
(142.468 0.884278 0.368354)
(143.033 0.799178 -0.154596)
(143.185 0.66003 -0.705958)
(142.89 0.46356 -1.2308)
(141.765 0.202668 -1.65122)
(139.226 -0.104963 -1.87393)
(135.065 -0.422744 -1.85611)
(129.243 -0.689027 -1.57785)
(139.39 0.909425 1.82846)
(141.116 0.890472 1.40425)
(142.216 0.803821 0.836819)
(142.861 0.654306 0.168476)
(143.169 0.444708 -0.578501)
(143.105 0.174056 -1.36268)
(142.268 -0.150833 -2.10146)
(139.874 -0.494559 -2.62118)
(135.51 -0.858569 -2.74028)
(129.344 -1.17227 -2.48434)
(140.262 1.63664 2.1151)
(142.009 1.64655 1.59079)
(143.133 1.57994 0.931728)
(143.795 1.44259 0.144878)
(144.104 1.24451 -0.764585)
(144.043 0.992226 -1.76401)
(143.29 0.669986 -2.77957)
(141.07 0.272987 -3.61423)
(136.647 -0.23104 -3.88834)
(130.299 -0.673037 -3.66605)
(141.28 1.57897 2.85474)
(143.111 1.54044 2.19442)
(144.277 1.42818 1.3793)
(144.973 1.25177 0.419269)
(145.289 1.01388 -0.694082)
(145.204 0.725302 -1.93789)
(144.451 0.368485 -3.25105)
(142.366 -0.0386106 -4.49372)
(137.915 -0.564099 -5.05706)
(131.428 -0.993013 -5.02608)
(141.87 2.39881 3.17442)
(143.814 2.37372 2.39157)
(145.055 2.24546 1.47887)
(145.831 2.04459 0.409359)
(146.203 1.78333 -0.833461)
(146.131 1.4855 -2.25319)
(145.349 1.13355 -3.78497)
(143.318 0.726175 -5.37597)
(138.795 0.124301 -6.21158)
(132.183 -0.375706 -6.47688)
(142.434 2.09428 3.99201)
(144.496 1.96358 3.07773)
(145.827 1.73502 2.00661)
(146.699 1.45726 0.780326)
(147.144 1.13829 -0.640462)
(147.114 0.80406 -2.27928)
(146.317 0.440989 -4.07375)
(144.307 0.0694605 -6.06123)
(139.675 -0.451014 -7.27802)
(132.92 -0.842283 -7.99602)
(142.932 3.06963 4.00385)
(145.095 2.89991 3.01895)
(146.521 2.61746 1.91997)
(147.487 2.29254 0.654884)
(147.999 1.94957 -0.807114)
(148.011 1.61838 -2.52332)
(147.217 1.29271 -4.43442)
(145.244 0.969989 -6.66885)
(140.585 0.491614 -8.17241)
(133.752 -0.0265689 -9.37893)
(144.27 2.27572 4.88759)
(146.454 1.86479 3.84104)
(147.978 1.39321 2.603)
(149.061 0.940863 1.20517)
(149.651 0.518754 -0.411004)
(149.708 0.160277 -2.29523)
(148.932 -0.117543 -4.42178)
(147.063 -0.323058 -6.97127)
(142.579 -0.482065 -9.00653)
(135.689 -0.938322 -10.6605)
(145.057 3.31515 4.47804)
(147.129 2.64931 3.53328)
(148.723 2.03515 2.38416)
(149.859 1.47705 1.03327)
(150.455 1.02442 -0.537167)
(150.475 0.700005 -2.38523)
(149.654 0.540477 -4.50524)
(147.764 0.562097 -7.05666)
(143.694 0.773571 -9.51147)
(137.35 0.777579 -11.1789)
(144.831 -0.165315 0.735078)
(145.449 -0.264367 0.632175)
(145.689 -0.362677 0.404117)
(145.778 -0.448909 0.176457)
(145.78 -0.544337 -0.0783625)
(145.716 -0.644752 -0.306051)
(145.568 -0.751746 -0.498026)
(145.21 -0.851744 -0.626023)
(144.232 -0.923691 -0.657588)
(141.471 -0.942778 -0.561547)
(139.255 0.602737 0.802231)
(140.877 0.634653 0.537543)
(141.855 0.614517 0.187607)
(142.351 0.545268 -0.208712)
(142.489 0.437036 -0.621163)
(142.258 0.282743 -1.00769)
(141.307 0.0733832 -1.30934)
(139.017 -0.178241 -1.44823)
(135.101 -0.429758 -1.40292)
(129.45 -0.622328 -1.15056)
(139.031 0.614882 1.35962)
(140.578 0.580156 1.03184)
(141.542 0.503886 0.591226)
(142.089 0.382209 0.0730013)
(142.342 0.215732 -0.49873)
(142.298 0.000949734 -1.08792)
(141.624 -0.257608 -1.63293)
(139.547 -0.529369 -1.99025)
(135.568 -0.803728 -2.0281)
(129.709 -1.03275 -1.75507)
(139.867 1.31395 1.54741)
(141.449 1.3424 1.13341)
(142.43 1.30484 0.612465)
(142.972 1.20011 -0.0102376)
(143.194 1.0414 -0.71851)
(143.109 0.837567 -1.47546)
(142.47 0.579854 -2.21959)
(140.574 0.261065 -2.78164)
(136.67 -0.135605 -2.89354)
(130.783 -0.490661 -2.56194)
(140.861 1.22856 2.23618)
(142.521 1.23305 1.69295)
(143.53 1.16166 1.01872)
(144.086 1.02057 0.223706)
(144.291 0.821096 -0.680519)
(144.145 0.576073 -1.65614)
(143.457 0.277015 -2.64169)
(141.662 -0.0626851 -3.4965)
(137.842 -0.475693 -3.80299)
(131.979 -0.822445 -3.53517)
(141.447 2.06002 2.49836)
(143.201 2.09046 1.84241)
(144.27 2.00862 1.07433)
(144.886 1.84513 0.170269)
(145.125 1.62177 -0.86092)
(144.963 1.36059 -1.99575)
(144.208 1.05361 -3.16258)
(142.417 0.699992 -4.2616)
(138.598 0.210874 -4.73356)
(132.753 -0.215861 -4.58519)
(142.02 1.75952 3.27267)
(143.873 1.69262 2.49498)
(145.017 1.51583 1.57312)
(145.714 1.27995 0.511793)
(146.008 1.00299 -0.699236)
(145.861 0.707877 -2.04751)
(145.056 0.385689 -3.45916)
(143.234 0.0526354 -4.87451)
(139.338 -0.382525 -5.61648)
(133.463 -0.72668 -5.69824)
(142.53 2.78878 3.2245)
(144.46 2.68672 2.39087)
(145.682 2.46021 1.45117)
(146.459 2.18385 0.355879)
(146.808 1.88884 -0.896322)
(146.684 1.60104 -2.32006)
(145.854 1.31232 -3.8386)
(144.024 1.01541 -5.44963)
(140.096 0.584413 -6.37095)
(134.233 0.0937407 -6.70439)
(143.88 1.95936 4.08699)
(145.783 1.62145 3.19915)
(147.073 1.21617 2.12429)
(147.947 0.825469 0.898144)
(148.36 0.462778 -0.510135)
(148.266 0.158481 -2.10668)
(147.434 -0.0797804 -3.83927)
(145.667 -0.261627 -5.73167)
(141.909 -0.429788 -7.06713)
(136.134 -0.867551 -7.65817)
(144.642 3.01017 3.65478)
(146.41 2.45406 2.87171)
(147.757 1.9346 1.88899)
(148.683 1.45886 0.715092)
(149.112 1.07623 -0.646121)
(148.997 0.808761 -2.21503)
(148.126 0.682082 -3.94819)
(146.325 0.706397 -5.86786)
(142.903 0.852211 -7.50063)
(137.923 0.806195 -8.11059)
(144.414 -0.356431 0.673404)
(144.947 -0.454154 0.591307)
(145.145 -0.545235 0.394259)
(145.216 -0.619731 0.209188)
(145.219 -0.702068 0.000149172)
(145.176 -0.788624 -0.18618)
(145.07 -0.882442 -0.348049)
(144.785 -0.971107 -0.465946)
(143.929 -1.02855 -0.510633)
(141.352 -1.01917 -0.450293)
(138.906 0.438772 0.539539)
(140.412 0.43615 0.336265)
(141.307 0.4098 0.0689304)
(141.755 0.353462 -0.231976)
(141.886 0.271134 -0.543757)
(141.709 0.153489 -0.835294)
(140.906 -0.00985114 -1.06391)
(138.83 -0.211971 -1.16177)
(135.109 -0.410909 -1.10993)
(129.581 -0.547766 -0.882718)
(138.668 0.39587 1.01338)
(140.087 0.34816 0.761063)
(140.951 0.281483 0.421888)
(141.426 0.185106 0.0236891)
(141.641 0.0574945 -0.411747)
(141.62 -0.105995 -0.856432)
(141.086 -0.302758 -1.26846)
(139.286 -0.508051 -1.53378)
(135.619 -0.709127 -1.53994)
(129.99 -0.872357 -1.28505)
(139.499 1.08595 1.10396)
(140.951 1.1314 0.78032)
(141.816 1.11802 0.375579)
(142.265 1.0415 -0.107671)
(142.427 0.917741 -0.648371)
(142.337 0.757953 -1.21298)
(141.81 0.559977 -1.75487)
(140.205 0.316204 -2.1407)
(136.731 0.0125129 -2.16762)
(131.205 -0.268104 -1.81746)
(140.485 0.982331 1.72991)
(141.99 1.02113 1.28669)
(142.861 0.981757 0.737671)
(143.302 0.870554 0.0913701)
(143.43 0.705917 -0.627724)
(143.262 0.501747 -1.37915)
(142.663 0.257579 -2.1077)
(141.146 -0.0152212 -2.69364)
(137.856 -0.330258 -2.84384)
(132.496 -0.600314 -2.50065)
(141.076 1.8165 1.91979)
(142.644 1.88681 1.37827)
(143.551 1.83994 0.745142)
(144.032 1.70816 -0.00182985)
(144.177 1.5206 -0.835536)
(143.976 1.29655 -1.72071)
(143.294 1.03523 -2.58782)
(141.764 0.737712 -3.33042)
(138.547 0.350334 -3.56364)
(133.33 0.000526495 -3.2477)
(141.658 1.50567 2.63465)
(143.298 1.48502 1.98479)
(144.263 1.34931 1.20747)
(144.809 1.15029 0.309193)
(144.992 0.913639 -0.697351)
(144.786 0.658451 -1.78012)
(144.038 0.379928 -2.86353)
(142.457 0.0908898 -3.84938)
(139.213 -0.263133 -4.26968)
(134.064 -0.551792 -4.0591)
(142.168 2.56416 2.51966)
(143.855 2.51214 1.83029)
(144.882 2.33245 1.04644)
(145.495 2.10023 0.121613)
(145.72 1.85122 -0.921332)
(145.52 1.60686 -2.07015)
(144.732 1.35954 -3.24048)
(143.123 1.09832 -4.36622)
(139.88 0.726283 -4.88505)
(134.822 0.284662 -4.78804)
(143.493 1.66602 3.36292)
(145.116 1.38937 2.62588)
(146.186 1.04409 1.7105)
(146.878 0.710033 0.65663)
(147.153 0.402405 -0.542717)
(146.971 0.147568 -1.86475)
(146.167 -0.0517743 -3.24197)
(144.598 -0.20419 -4.61506)
(141.557 -0.354794 -5.45993)
(136.747 -0.733634 -5.50986)
(144.182 2.73203 2.90071)
(145.659 2.27674 2.26884)
(146.775 1.84564 1.44735)
(147.515 1.44708 0.449872)
(147.81 1.12958 -0.700652)
(147.613 0.913154 -1.99773)
(146.768 0.815261 -3.37259)
(145.159 0.841529 -4.77549)
(142.4 0.942463 -5.8107)
(138.616 0.893942 -5.8894)
(143.902 -0.507824 0.65648)
(144.363 -0.601181 0.583923)
(144.528 -0.686249 0.403056)
(144.587 -0.752192 0.24143)
(144.591 -0.824765 0.0572746)
(144.56 -0.900324 -0.108256)
(144.482 -0.98322 -0.256905)
(144.25 -1.0628 -0.37527)
(143.5 -1.11055 -0.433179)
(141.118 -1.08282 -0.399806)
(138.546 0.329827 0.363541)
(139.974 0.300089 0.207754)
(140.812 0.269888 0.00126421)
(141.226 0.224508 -0.231235)
(141.351 0.163052 -0.473333)
(141.215 0.0755312 -0.70201)
(140.535 -0.0491752 -0.887032)
(138.653 -0.210294 -0.966564)
(135.107 -0.370235 -0.91456)
(129.685 -0.470126 -0.702275)
(138.306 0.248575 0.775396)
(139.643 0.194952 0.579182)
(140.437 0.138071 0.315922)
(140.86 0.0631827 0.00712569)
(141.047 -0.0321719 -0.328807)
(141.041 -0.152428 -0.671553)
(140.616 -0.29652 -0.994945)
(139.055 -0.445896 -1.20985)
(135.661 -0.590904 -1.20773)
(130.226 -0.708777 -0.974964)
(139.163 0.951408 0.776754)
(140.516 1.01248 0.522999)
(141.288 1.0172 0.20952)
(141.664 0.962444 -0.16329)
(141.785 0.866914 -0.573498)
(141.699 0.743891 -0.993378)
(141.266 0.596402 -1.39016)
(139.91 0.417741 -1.66434)
(136.799 0.190348 -1.65067)
(131.575 -0.0322293 -1.31448)
(140.152 0.838515 1.33328)
(141.518 0.901029 0.970964)
(142.266 0.883106 0.526714)
(142.616 0.794587 0.00638331)
(142.693 0.659338 -0.559553)
(142.528 0.491611 -1.13362)
(142.02 0.29631 -1.66995)
(140.751 0.0840839 -2.07594)
(137.9 -0.150294 -2.13675)
(132.958 -0.356571 -1.79031)
(140.751 1.664 1.44266)
(142.138 1.75647 0.999628)
(142.898 1.73169 0.485782)
(143.27 1.62447 -0.12038)
(143.351 1.46872 -0.781665)
(143.147 1.28081 -1.46027)
(142.561 1.06403 -2.09401)
(141.282 0.821081 -2.58959)
(138.564 0.52043 -2.67523)
(133.86 0.239612 -2.31159)
(141.342 1.32798 2.08738)
(142.769 1.33441 1.5517)
(143.568 1.22794 0.907517)
(143.988 1.05965 0.161671)
(144.095 0.859937 -0.657868)
(143.874 0.644141 -1.51175)
(143.221 0.410586 -2.3291)
(141.894 0.169017 -3.0075)
(139.203 -0.112259 -3.22186)
(134.643 -0.350121 -2.89538)
(141.838 2.39163 1.90286)
(143.282 2.37089 1.34493)
(144.126 2.22782 0.706709)
(144.6 2.03424 -0.0554597)
(144.736 1.8277 -0.901849)
(144.509 1.62532 -1.80641)
(143.81 1.42139 -2.68556)
(142.455 1.20289 -3.45285)
(139.812 0.89386 -3.70727)
(135.414 0.505501 -3.42022)
(143.106 1.39475 2.72903)
(144.459 1.16614 2.12904)
(145.328 0.873229 1.36339)
(145.864 0.589984 0.474833)
(146.038 0.332303 -0.525577)
(145.817 0.122184 -1.59904)
(145.093 -0.0395289 -2.67251)
(143.771 -0.158845 -3.65521)
(141.377 -0.275223 -4.17551)
(137.383 -0.577332 -3.98917)
(143.684 2.4862 2.22677)
(144.889 2.12032 1.73086)
(145.795 1.76975 1.06093)
(146.373 1.44215 0.233514)
(146.566 1.1841 -0.713927)
(146.332 1.01276 -1.75844)
(145.565 0.939939 -2.81789)
(144.199 0.968108 -3.81572)
(142.05 1.04075 -4.43458)
(139.252 1.00856 -4.27323)
(143.301 -0.628075 0.664626)
(143.698 -0.712359 0.594503)
(143.837 -0.790368 0.420957)
(143.885 -0.848911 0.27076)
(143.89 -0.913474 0.0989275)
(143.867 -0.980107 -0.0577282)
(143.807 -1.05408 -0.202301)
(143.617 -1.12686 -0.326029)
(142.968 -1.16944 -0.396192)
(140.8 -1.13324 -0.385757)
(138.183 0.268983 0.260594)
(139.563 0.222963 0.140105)
(140.359 0.192832 -0.024109)
(140.746 0.157025 -0.210741)
(140.866 0.111618 -0.407402)
(140.758 0.0473567 -0.596653)
(140.18 -0.0466321 -0.756937)
(138.486 -0.175108 -0.830685)
(135.121 -0.307792 -0.77991)
(129.81 -0.387908 -0.573733)
(137.957 0.166854 0.628869)
(139.245 0.115985 0.471684)
(139.991 0.0691754 0.260901)
(140.374 0.011025 0.0133552)
(140.538 -0.0600595 -0.255082)
(140.539 -0.147162 -0.529999)
(140.194 -0.250165 -0.796207)
(138.841 -0.356341 -0.984579)
(135.704 -0.461048 -0.984087)
(130.458 -0.551382 -0.769163)
(138.863 0.901441 0.550782)
(140.137 0.976009 0.347988)
(140.832 0.992015 0.101249)
(141.152 0.951631 -0.190229)
(141.244 0.876574 -0.505403)
(141.165 0.781567 -0.822284)
(140.805 0.673054 -1.11879)
(139.655 0.545879 -1.32295)
(136.865 0.377842 -1.29145)
(131.919 0.197962 -0.977374)
(139.857 0.785592 1.03516)
(141.094 0.860524 0.735326)
(141.734 0.853248 0.374016)
(142.013 0.779628 -0.0457136)
(142.059 0.667432 -0.492204)
(141.909 0.530489 -0.933461)
(141.486 0.376223 -1.33279)
(140.427 0.21446 -1.62224)
(137.944 0.0422526 -1.63486)
(133.366 -0.115694 -1.31234)
(140.463 1.58883 1.06263)
(141.677 1.6862 0.701345)
(142.304 1.67105 0.287938)
(142.588 1.58092 -0.198487)
(142.631 1.45183 -0.717514)
(142.445 1.2974 -1.23417)
(141.96 1.12232 -1.69571)
(140.908 0.929522 -2.02797)
(138.601 0.699429 -2.02987)
(134.325 0.47398 -1.67195)
(141.062 1.2145 1.63239)
(142.28 1.23013 1.19494)
(142.928 1.14167 0.668031)