/*--------------------------------*- C++ -*----------------------------------*\
| =========                 |                                                 |
| \\      /  F ield         | foam-extend: Open Source CFD                    |
|  \\    /   O peration     | Version:     4.0                                |
|   \\  /    A nd           | Web:         http://www.foam-extend.org         |
|    \\/     M anipulation  |                                                 |
\*---------------------------------------------------------------------------*/
FoamFile
{
    version     2.0;
    format      ascii;
    class       volScalarField;
    location    "900";
    object      alphat;
}
// * * * * * * * * * * * * * * * * * * * * * * * * * * * * * * * * * * * * * //

dimensions      [1 -1 -1 0 0 0 0];

internalField   nonuniform List<scalar> 
34480
(
0.00188944
0.00188819
0.00188799
0.00188878
0.00189082
0.00189461
0.00190208
0.00192044
0.00195994
0.00203145
0.0160103
0.0151917
0.0148772
0.0145961
0.0129634
0.008268
0.00342224
0.00135896
0.000996142
0.00147111
0.044392
0.0427226
0.0410235
0.0375597
0.0287347
0.0147388
0.00515131
0.00184263
0.00125072
0.00182283
0.0485233
0.0463764
0.0444345
0.0403713
0.029769
0.0142082
0.00481947
0.00178621
0.0012941
0.00198339
0.0477837
0.0453914
0.043634
0.0397694
0.0288669
0.0132047
0.00442242
0.00169166
0.0013044
0.00210051
0.0459964
0.0435464
0.0418931
0.0380781
0.0268097
0.0116031
0.00386213
0.00155851
0.00131188
0.00223006
0.0438433
0.0415541
0.0400981
0.0364494
0.025204
0.0105163
0.00349107
0.00146501
0.00132073
0.0023424
0.0364054
0.034732
0.0337005
0.0309232
0.0213643
0.00860756
0.00281085
0.00124487
0.00124643
0.00235404
0.0124302
0.01211
0.0120048
0.0117267
0.00992126
0.00511767
0.00167867
0.000741369
0.000843522
0.00180135
0.00180305
0.00180262
0.00180398
0.00180699
0.00181157
0.00181754
0.00182547
0.00183658
0.00185295
0.00181362
0.00188932
0.00188749
0.00188689
0.00188737
0.00188917
0.0018925
0.00189792
0.0019074
0.00192522
0.00196658
0.0150606
0.0144194
0.0142148
0.0143894
0.0147943
0.0148255
0.0129684
0.00766117
0.0025129
0.00207714
0.0408893
0.0396559
0.0389845
0.0384389
0.0368142
0.0320814
0.0230733
0.0113363
0.00330191
0.00282879
0.0449493
0.0432939
0.0424982
0.0419222
0.0400668
0.0345409
0.0242803
0.0114743
0.00331268
0.00318354
0.0447273
0.0427979
0.0420678
0.0417134
0.0402243
0.0349314
0.0245132
0.0113045
0.00324436
0.00345817
0.0434779
0.0414426
0.0407304
0.0405114
0.0392932
0.0342797
0.023998
0.0108548
0.00317115
0.0037925
0.0418504
0.0398965
0.0392718
0.0391352
0.0381556
0.0335109
0.0235611
0.0105469
0.00313516
0.00411463
0.0351647
0.0337076
0.0332426
0.0332269
0.0327194
0.0293998
0.0211184
0.00938012
0.00286565
0.00419919
0.0123725
0.0120645
0.0120013
0.0120611
0.0121975
0.0120604
0.0106395
0.00545917
0.00171796
0.00283339
0.00179884
0.0017961
0.00179534
0.00179629
0.00179888
0.00180282
0.00180885
0.00181847
0.0018424
0.00188904
0.00188479
0.00188325
0.00188272
0.00188316
0.00188469
0.00188735
0.00189124
0.00189724
0.00190622
0.00191993
0.0141634
0.013745
0.0136015
0.0137446
0.0141771
0.0147995
0.0151701
0.0142321
0.0101208
0.00589014
0.0373544
0.0363873
0.0360461
0.0361881
0.0365
0.0360629
0.0330926
0.0253991
0.0133592
0.00715026
0.0412123
0.0399229
0.0395005
0.0397284
0.0402243
0.0398562
0.0362934
0.0266517
0.012538
0.00722277
0.0413955
0.0399043
0.0395019
0.0398501
0.0406624
0.040788
0.0374568
0.0267119
0.0114028
0.00717145
0.0406247
0.0390432
0.0386201
0.0390338
0.0400749
0.0406979
0.037784
0.0261728
0.0102789
0.00723606
0.0394977
0.037955
0.0375724
0.0379895
0.0391352
0.0401265
0.0377303
0.0255064
0.00935117
0.00732309
0.0336552
0.0325028
0.0321962
0.0325195
0.0334755
0.0346602
0.0334981
0.0226182
0.00794935
0.00705348
0.012267
0.0120106
0.0119644
0.0120269
0.0122304
0.0124829
0.0126498
0.0106602
0.00448419
0.00448485
0.00179177
0.00178864
0.00178754
0.00178821
0.0017907
0.00179489
0.00180175
0.00181335
0.00183974
0.00189266
0.00187669
0.00187563
0.00187527
0.0018756
0.00187671
0.00187846
0.0018807
0.00188378
0.00188775
0.00189248
0.0135603
0.013316
0.0132194
0.0133084
0.0135908
0.0140247
0.0144753
0.0148929
0.0146199
0.0129042
0.0341693
0.033489
0.0332914
0.0334902
0.0340532
0.0347223
0.034724
0.0324647
0.0256998
0.0174403
0.0377667
0.036839
0.0365763
0.0368689
0.0376787
0.0386805
0.0387127
0.0353489
0.0257827
0.0167391
0.0382785
0.0372065
0.0369481
0.037311
0.0383323
0.0397178
0.0400916
0.0361916
0.0246012
0.0158555
0.0379341
0.0367789
0.0364863
0.0368896
0.0380611
0.0398173
0.0406529
0.0363833
0.023088
0.0152828
0.037256
0.0360995
0.0358256
0.0362213
0.0374381
0.0393974
0.0406276
0.0360806
0.0214546
0.0147854
0.0322465
0.0313727
0.0311439
0.0314363
0.0323582
0.0340155
0.0355167
0.0320271
0.0184654
0.0136835
0.012202
0.0119907
0.0119564
0.0120044
0.0121603
0.0123656
0.0125848
0.0127117
0.00957536
0.00832318
0.00178307
0.00177984
0.00177864
0.00177925
0.00178178
0.00178627
0.00179369
0.00180618
0.00183202
0.00187894
0.00186576
0.00186515
0.00186495
0.00186517
0.00186587
0.00186687
0.00186801
0.00186942
0.001871
0.00187247
0.0132592
0.0131315
0.0130692
0.0131222
0.0132904
0.013523
0.0137407
0.0140361
0.0143263
0.0144624
0.0316181
0.031221
0.0311131
0.0312345
0.0316145
0.0322222
0.0329012
0.0331668
0.0316876
0.0275236
0.0348829
0.0342919
0.0341265
0.0343217
0.0349171
0.0359013
0.0369933
0.0371912
0.0341197
0.0275011
0.0356001
0.0348934
0.0347241
0.0349681
0.0357165
0.0369883
0.038445
0.0386616
0.034232
0.0262889
0.0355814
0.0347874
0.0345785
0.0348589
0.0357269
0.0372786
0.0391652
0.0395308
0.0338031
0.025338
0.035258
0.0344289
0.0342257
0.0345068
0.0354198
0.0371079
0.0392701
0.0397117
0.0327784
0.0243602
0.0310065
0.0303649
0.0301899
0.0304016
0.0310823
0.0324086
0.0343014
0.0351087
0.0288903
0.0222214
0.0121844
0.0120103
0.0119851
0.012018
0.0121251
0.0122531
0.0123335
0.0127382
0.0125941
0.0122068
0.00177291
0.0017697
0.00176846
0.00176904
0.00177155
0.00177612
0.0017836
0.00179578
0.00181826
0.00185458
0.00185254
0.00185227
0.00185219
0.00185233
0.00185271
0.00185317
0.00185368
0.00185425
0.00185481
0.00185519
0.0131957
0.0131446
0.013108
0.0131405
0.0132386
0.0133427
0.0134361
0.0135575
0.013685
0.0137879
0.0298381
0.0296493
0.0296013
0.0296581
0.0298474
0.0301693
0.0306266
0.0311777
0.0314936
0.0311397
0.0327019
0.0323704
0.0322742
0.0323801
0.0327242
0.0333467
0.0342574
0.0352881
0.0355422
0.034005
0.0334676
0.0330438
0.0329412
0.0330815
0.0335378
0.034374
0.0356194
0.0370019
0.0369648
0.0340863
0.0336426
0.0331325
0.0329905
0.0331643
0.0337233
0.0347845
0.0364159
0.0382476
0.0378868
0.0338305
0.0335574
0.0329936
0.0328498
0.033031
0.0336432
0.0348258
0.0366849
0.0387897
0.0379679
0.0330491
0.0299559
0.0295054
0.0293777
0.0295206
0.0299821
0.0308924
0.0323687
0.034315
0.0337909
0.0299035
0.0122176
0.0120753
0.0120588
0.0120798
0.0121478
0.0122065
0.012166
0.0123698
0.0127801
0.0136539
0.00176113
0.00175805
0.00175684
0.00175738
0.0017598
0.00176424
0.00177135
0.00178245
0.00180074
0.00182702
0.00183739
0.00183735
0.00183735
0.00183742
0.0018376
0.00183775
0.00183793
0.00183812
0.00183828
0.0018383
0.0132954
0.0132971
0.0132804
0.0133007
0.0133542
0.0133949
0.0134368
0.0134845
0.0135208
0.0135166
0.028756
0.0286848
0.0286706
0.0286933
0.0287714
0.0289013
0.0290974
0.0293673
0.0296495
0.0298756
0.0312106
0.0310414
0.0309894
0.0310407
0.0312168
0.0315408
0.0320443
0.0327426
0.0334299
0.0338262
0.0318995
0.0316651
0.0316082
0.0316811
0.0319318
0.0323969
0.033137
0.0341967
0.0351682
0.0354486
0.0321482
0.0318393
0.0317476
0.0318477
0.0321802
0.0328167
0.0338596
0.0354038
0.0367301
0.0367585
0.0321932
0.0318276
0.0317307
0.0318398
0.0322241
0.0329676
0.0342028
0.0360767
0.0375469
0.0371156
0.0291226
0.0288199
0.028731
0.0288222
0.0291163
0.0296866
0.0306227
0.0322086
0.033622
0.0335537
0.0123104
0.0121935
0.0121848
0.0121968
0.0122344
0.0122359
0.0121199
0.0121297
0.0123182
0.013007
0.0017476
0.00174475
0.00174361
0.00174411
0.00174636
0.00175047
0.00175689
0.00176649
0.00178077
0.00179921
0.00182052
0.00182062
0.00182066
0.0018207
0.00182074
0.00182077
0.0018208
0.00182081
0.00182082
0.00182072
0.0135036
0.0135421
0.0135416
0.0135539
0.0135757
0.0135943
0.0136163
0.0136372
0.0136421
0.0136029
0.0281812
0.0281665
0.0281687
0.0281773
0.0282042
0.028248
0.0283168
0.0284105
0.0285094
0.0285971
0.0302746
0.0301929
0.0301659
0.0301897
0.0302758
0.0304329
0.0306737
0.0310083
0.0313789
0.0317127
0.0308256
0.0307042
0.0306752
0.0307108
0.0308408
0.0310787
0.0314534
0.0320055
0.032639
0.0332039
0.0310671
0.0308888
0.0308322
0.0308872
0.0310758
0.0314318
0.0320098
0.0329067
0.0339662
0.0348896
0.0311613
0.0309337
0.0308712
0.0309335
0.0311645
0.0316039
0.0323248
0.0334871
0.0348602
0.035969
0.0285116
0.0283168
0.0282582
0.0283133
0.0284903
0.0288215
0.0293442
0.030289
0.0315388
0.0327483
0.0124686
0.0123715
0.0123697
0.012375
0.0123899
0.0123474
0.0121944
0.0120921
0.0120732
0.0123301
0.00173219
0.00172965
0.00172861
0.00172907
0.00173109
0.00173473
0.00174027
0.0017482
0.00175899
0.00177172
0.00180206
0.00180219
0.00180226
0.00180227
0.00180227
0.00180225
0.00180222
0.00180218
0.00180212
0.00180199
0.0138021
0.0138511
0.0138646
0.0138713
0.0138801
0.013892
0.0139055
0.0139158
0.013909
0.0138576
0.0279333
0.0279398
0.0279491
0.0279526
0.0279595
0.0279728
0.0279944
0.0280223
0.0280464
0.0280609
0.0297297
0.0296908
0.0296768
0.0296881
0.0297309
0.0298082
0.0299226
0.030073
0.0302318
0.0303656
0.0301367
0.0300765
0.0300628
0.0300797
0.0301459
0.0302647
0.0304454
0.0306994
0.0309892
0.0312515
0.0303315
0.0302323
0.0301985
0.0302279
0.0303325
0.0305258
0.0308296
0.0312828
0.0318391
0.0323848
0.0304264
0.0302887
0.0302499
0.030284
0.0304195
0.0306711
0.0310697
0.0316923
0.0324793
0.033262
0.0281096
0.0279894
0.0279529
0.0279844
0.0280844
0.0282614
0.028526
0.029006
0.0297073
0.0305543
0.0126974
0.012615
0.012619
0.0126198
0.0126176
0.0125447
0.0123814
0.012231
0.0121055
0.0121591
0.00171482
0.00171263
0.00171174
0.00171214
0.00171388
0.00171696
0.00172155
0.00172784
0.00173577
0.0017444
0.001782
0.00178213
0.00178221
0.00178221
0.0017822
0.00178216
0.00178211
0.00178206
0.001782
0.00178186
0.0141739
0.0142276
0.0142435
0.01425
0.0142567
0.0142653
0.0142744
0.0142793
0.0142669
0.0142093
0.0278781
0.0278908
0.027901
0.0279035
0.0279054
0.027909
0.0279154
0.0279226
0.0279246
0.0279184
0.0294355
0.0294161
0.0294087
0.0294145
0.0294373
0.0294779
0.029536
0.0296078
0.0296775
0.0297278
0.0297213
0.0296919
0.0296856
0.0296938
0.0297283
0.029789
0.029878
0.0299949
0.0301193
0.0302195
0.0298607
0.0298065
0.0297866
0.0298023
0.0298603
0.0299652
0.0301241
0.0303467
0.0306096
0.0308526
0.0299349
0.0298527
0.029829
0.0298474
0.0299264
0.0300694
0.0302878
0.0306082
0.0310005
0.0313666
0.0278898
0.0278185
0.0277973
0.0278143
0.0278663
0.0279492
0.0280702
0.0282888
0.0286171
0.0290289
0.0130008
0.0129289
0.0129382
0.0129358
0.0129208
0.0128309
0.0126742
0.012515
0.0123503
0.0123447
0.00169542
0.00169361
0.00169286
0.0016932
0.00169464
0.00169715
0.00170081
0.00170562
0.00171129
0.00171704
0.0017603
0.00176043
0.00176049
0.0017605
0.00176048
0.00176045
0.0017604
0.00176035
0.00176029
0.00176016
0.014614
0.0146716
0.0146893
0.0146959
0.0147013
0.0147077
0.0147138
0.0147154
0.0146995
0.0146373
0.0279309
0.0279448
0.0279544
0.0279569
0.0279577
0.0279587
0.0279605
0.0279618
0.0279581
0.0279471
0.0292898
0.0292796
0.0292753
0.0292787
0.0292918
0.029315
0.0293471
0.029385
0.029419
0.0294395
0.0294859
0.0294709
0.0294678
0.0294721
0.0294912
0.0295245
0.0295713
0.0296288
0.0296848
0.0297243
0.0295773
0.0295478
0.029536
0.0295446
0.0295773
0.0296353
0.0297202
0.0298316
0.0299559
0.0300642
0.0296277
0.0295782
0.0295636
0.0295739
0.0296207
0.0297031
0.0298249
0.0299922
0.030184
0.0303457
0.0278178
0.0277771
0.027766
0.0277745
0.0277981
0.0278285
0.0278754
0.0279631
0.0280982
0.0282895
0.0133835
0.0133192
0.0133335
0.0133287
0.0133032
0.0132096
0.0130696
0.012923
0.0127561
0.012752
0.00167395
0.00167252
0.00167192
0.00167219
0.00167334
0.0016753
0.00167811
0.00168166
0.00168562
0.00168939
0.00173688
0.001737
0.00173706
0.00173706
0.00173705
0.00173702
0.00173698
0.00173694
0.00173689
0.00173677
0.0151264
0.0151879
0.0152072
0.0152138
0.0152182
0.0152229
0.0152269
0.0152261
0.0152076
0.0151412
0.0280424
0.028056
0.0280645
0.0280671
0.0280677
0.0280682
0.0280688
0.0280684
0.0280636
0.0280519
0.0292265
0.0292206
0.0292181
0.0292202
0.0292282
0.0292421
0.0292611
0.0292828
0.0293013
0.0293105
0.0293609
0.0293524
0.0293505
0.029353
0.0293646
0.0293845
0.0294115
0.0294428
0.0294707
0.029488
0.0294172
0.0294007
0.0293936
0.0293986
0.0294176
0.0294508
0.0294976
0.0295556
0.0296165
0.0296685
0.0294497
0.0294189
0.0294098
0.0294159
0.0294445
0.0294938
0.0295643
0.0296555
0.0297523
0.0298275
0.0278577
0.0278357
0.027831
0.0278347
0.0278421
0.0278473
0.0278591
0.0278864
0.027932
0.028029
0.013852
0.0137932
0.0138126
0.0138059
0.0137709
0.0136872
0.0135691
0.0134449
0.0132938
0.0133134
0.0016504
0.0016493
0.00164885
0.00164906
0.00164992
0.00165141
0.0016535
0.00165603
0.00165872
0.00166116
0.00171166
0.00171177
0.00171182
0.00171182
0.00171181
0.00171179
0.00171176
0.00171173
0.00171169
0.00171158
0.0157224
0.0157878
0.0158085
0.0158151
0.0158188
0.0158221
0.0158245
0.0158218
0.0158013
0.0157307
0.0281854
0.0281981
0.0282055
0.028208
0.0282087
0.0282091
0.0282094
0.0282086
0.028204
0.0281925
0.0292053
0.0292019
0.0292004
0.0292016
0.0292066
0.0292151
0.0292265
0.0292394
0.0292502
0.0292546
0.0292992
0.0292936
0.0292919
0.0292936
0.0293012
0.0293142
0.0293312
0.0293501
0.0293658
0.0293744
0.0293326
0.029323
0.0293185
0.0293215
0.0293329
0.0293526
0.0293794
0.029411
0.0294423
0.0294696
0.0293556
0.0293354
0.0293294
0.0293334
0.0293517
0.0293828
0.0294256
0.0294784
0.0295304
0.029569
0.0279793
0.0279661
0.0279652
0.0279664
0.027965
0.0279617
0.0279591
0.0279614
0.0279693
0.0280276
0.0144224
0.014362
0.0143873
0.0143786
0.0143407
0.0142745
0.01418
0.0140809
0.0139524
0.0140016
0.00162475
0.00162394
0.00162361
0.00162376
0.0016244
0.00162549
0.00162698
0.00162873
0.00163051
0.00163207
0.00168455
0.00168465
0.00168469
0.00168469
0.00168468
0.00168466
0.00168464
0.00168462
0.00168459
0.00168449
0.0164197
0.0164892
0.0165111
0.0165178
0.0165208
0.0165231
0.0165242
0.0165202
0.016498
0.0164231
0.028345
0.0283567
0.0283629
0.0283652
0.028366
0.0283664
0.0283667
0.0283658
0.0283618
0.0283509
0.0292038
0.0292018
0.029201
0.0292017
0.0292046
0.0292096
0.0292163
0.029224
0.0292305
0.0292328
0.029271
0.0292669
0.0292653
0.0292665
0.0292717
0.0292806
0.0292921
0.0293044
0.0293142
0.0293192
0.0292906
0.0292845
0.0292816
0.0292834
0.0292905
0.0293025
0.0293184
0.0293364
0.0293534
0.029369
0.0293112
0.0292972
0.0292931
0.029296
0.0293082
0.0293287
0.0293561
0.0293885
0.0294188
0.0294416
0.0281556
0.0281441
0.0281453
0.0281452
0.0281421
0.028137
0.0281304
0.0281244
0.0281187
0.0281612
0.0151206
0.0150514
0.0150747
0.0150658
0.0150377
0.0149886
0.014917
0.0148421
0.014737
0.0148142
0.001597
0.00159643
0.00159619
0.0015963
0.00159675
0.00159752
0.00159855
0.00159972
0.00160087
0.00160185
0.00165547
0.00165555
0.00165559
0.00165559
0.00165558
0.00165557
0.00165556
0.00165554
0.00165552
0.00165542
0.017244
0.017318
0.017341
0.0173475
0.01735
0.0173514
0.0173517
0.0173469
0.0173234
0.0172436
0.0285126
0.028523
0.0285281
0.0285301
0.0285309
0.0285314
0.0285317
0.028531
0.0285277
0.0285178
0.0292099
0.0292088
0.0292083
0.0292087
0.0292103
0.029213
0.0292167
0.0292211
0.0292251
0.0292265
0.029259
0.0292557
0.0292542
0.0292549
0.0292586
0.0292648
0.0292728
0.0292812
0.0292878
0.0292911
0.0292703
0.0292662
0.0292642
0.0292653
0.0292698
0.0292772
0.0292869
0.0292976
0.0293074
0.0293171
0.029293
0.0292828
0.0292799
0.0292821
0.0292906
0.0293045
0.0293226
0.0293436
0.0293625
0.0293784
0.0283636
0.0283525
0.0283535
0.0283535
0.0283511
0.028347
0.0283409
0.0283339
0.028325
0.0283603
0.0159731
0.0158961
0.0159134
0.0159078
0.0158891
0.0158555
0.0158052
0.0157514
0.0156679
0.0157685
0.00156716
0.00156676
0.00156659
0.00156667
0.00156698
0.0015675
0.00156818
0.00156893
0.00156966
0.00157027
0.00162438
0.00162444
0.00162447
0.00162447
0.00162447
0.00162446
0.00162445
0.00162444
0.00162442
0.00162433
0.0182322
0.0183113
0.0183349
0.0183412
0.0183431
0.0183439
0.0183436
0.0183384
0.0183142
0.0182291
0.0286817
0.0286907
0.0286948
0.0286963
0.0286971
0.0286976
0.0286981
0.0286977
0.0286953
0.0286867
0.0292173
0.0292167
0.0292165
0.0292166
0.0292173
0.0292186
0.0292204
0.0292227
0.0292252
0.0292266
0.0292531
0.0292504
0.0292491
0.0292495
0.029252
0.0292563
0.0292617
0.0292675
0.0292722
0.0292747
0.0292593
0.0292564
0.029255
0.0292556
0.0292584
0.0292631
0.0292691
0.0292756
0.0292814
0.029288
0.0292855
0.029278
0.0292758
0.0292775
0.0292834
0.0292929
0.0293051
0.0293189
0.0293314
0.0293438
0.0285841
0.0285735
0.0285741
0.0285742
0.0285731
0.0285707
0.0285667
0.0285614
0.0285533
0.028584
0.0170184
0.0169356
0.0169467
0.0169441
0.0169337
0.0169142
0.0168832
0.0168468
0.0167828
0.0169002
0.00153522
0.00153496
0.00153485
0.0015349
0.0015351
0.00153544
0.00153588
0.00153634
0.00153679
0.00153716
0.00159132
0.00159139
0.00159141
0.00159141
0.00159141
0.0015914
0.00159139
0.00159138
0.00159136
0.00159128
0.0194384
0.0195231
0.0195467
0.0195526
0.019554
0.0195544
0.0195537
0.0195486
0.0195244
0.0194334
0.028846
0.0288534
0.0288563
0.0288574
0.0288581
0.0288587
0.0288592
0.0288592
0.0288578
0.028851
0.0292228
0.0292225
0.0292224
0.0292224
0.0292226
0.029223
0.0292237
0.0292248
0.0292263
0.0292279
0.0292479
0.0292458
0.0292446
0.0292448
0.0292464
0.0292492
0.0292528
0.0292567
0.0292601
0.0292622
0.0292508
0.0292487
0.0292477
0.029248
0.0292497
0.0292525
0.0292562
0.0292601
0.0292637
0.0292683
0.0292787
0.0292732
0.0292717
0.0292729
0.0292769
0.0292832
0.0292911
0.0293
0.0293084
0.0293187
0.0287993
0.0287895
0.0287899
0.0287902
0.02879
0.0287893
0.0287874
0.0287844
0.0287782
0.0288045
0.0183139
0.0182278
0.0182324
0.0182324
0.0182295
0.0182228
0.0182095
0.0181872
0.0181416
0.0182677
0.00150129
0.00150113
0.00150106
0.00150109
0.00150121
0.00150142
0.00150169
0.00150197
0.00150224
0.00150246
0.00155656
0.00155661
0.00155662
0.00155662
0.00155662
0.00155662
0.00155661
0.0015566
0.00155658
0.00155651
0.0209455
0.0210353
0.0210579
0.021063
0.021064
0.0210641
0.0210633
0.0210587
0.0210357
0.020939
0.0289966
0.0290021
0.0290038
0.0290044
0.0290049
0.0290055
0.0290061
0.0290065
0.029006
0.0290017
0.0292245
0.0292243
0.0292243
0.0292242
0.0292242
0.0292242
0.0292243
0.0292247
0.0292257
0.0292276
0.0292408
0.0292392
0.0292383
0.0292383
0.0292392
0.0292409
0.0292431
0.0292456
0.0292479
0.0292499
0.0292415
0.02924
0.0292393
0.0292395
0.0292404
0.029242
0.0292441
0.0292463
0.0292485
0.0292516
0.0292661
0.0292624
0.0292614
0.0292622
0.0292646
0.0292685
0.0292732
0.0292786
0.0292839
0.0292923
0.0289895
0.0289813
0.0289814
0.0289819
0.0289822
0.0289824
0.028982
0.0289808
0.0289767
0.0289975
0.0199439
0.0198576
0.0198546
0.0198565
0.0198606
0.0198662
0.0198704
0.0198603
0.0198348
0.0199582
0.00146557
0.00146547
0.00146542
0.00146544
0.00146551
0.00146564
0.0014658
0.00146597
0.00146614
0.00146625
0.00152026
0.00152032
0.00152032
0.00152032
0.00152032
0.00152032
0.00152031
0.00152031
0.0015203
0.00152026
0.0228869
0.0229789
0.0229986
0.0230026
0.0230033
0.0230032
0.0230023
0.0229984
0.0229782
0.0228785
0.0291213
0.0291242
0.0291248
0.0291249
0.0291251
0.0291256
0.0291263
0.0291271
0.0291273
0.0291258
0.0292218
0.0292216
0.0292216
0.0292216
0.0292216
0.0292215
0.0292214
0.0292214
0.0292219
0.0292239
0.0292315
0.0292304
0.0292299
0.0292299
0.0292304
0.0292313
0.0292325
0.0292338
0.0292353
0.0292369
0.029231
0.0292302
0.0292298
0.0292299
0.0292304
0.0292312
0.0292322
0.0292332
0.0292343
0.0292362
0.0292461
0.0292439
0.0292433
0.0292438
0.0292451
0.0292472
0.0292497
0.0292524
0.0292554
0.0292613
0.029133
0.029127
0.029127
0.0291273
0.0291277
0.029128
0.029128
0.0291277
0.0291256
0.0291401
0.0220463
0.021967
0.0219647
0.0219663
0.0219694
0.0219737
0.0219782
0.0219815
0.0219832
0.0220885
0.00142817
0.0014281
0.00142807
0.00142809
0.00142813
0.00142821
0.00142831
0.00142841
0.00142853
0.00142859
0.00148167
0.00148166
0.00148165
0.00148164
0.00148164
0.00148164
0.00148165
0.00148167
0.00148169
0.00148171
0.0255009
0.0255812
0.0255948
0.0255976
0.0255981
0.0255979
0.0255968
0.0255936
0.0255788
0.0254897
0.0292064
0.0292065
0.0292061
0.0292058
0.0292058
0.0292062
0.0292069
0.0292078
0.0292088
0.0292094
0.0292159
0.0292159
0.029216
0.029216
0.0292161
0.029216
0.029216
0.0292159
0.029216
0.0292172
0.0292221
0.0292215
0.0292213
0.0292213
0.0292216
0.0292221
0.0292227
0.0292234
0.0292241
0.029225
0.0292216
0.0292212
0.0292211
0.0292211
0.0292214
0.0292219
0.0292224
0.0292229
0.0292233
0.029224
0.0292253
0.0292243
0.029224
0.0292243
0.029225
0.0292261
0.0292274
0.0292286
0.02923
0.0292328
0.0292172
0.0292137
0.0292134
0.0292134
0.0292135
0.0292135
0.0292134
0.0292134
0.0292132
0.0292214
0.0249449
0.0248855
0.0248842
0.0248852
0.0248873
0.0248901
0.024893
0.024895
0.0248958
0.0249747
0.00138834
0.00138829
0.00138827
0.00138828
0.00138832
0.00138838
0.00138845
0.00138853
0.00138861
0.00138865
0.00234377
0.00236441
0.00235417
0.00232054
0.0014103
0.00143231
0.0014293
0.00142494
0.00188339
0.00192421
0.00191457
0.00189022
0.00226859
0.00232542
0.00230538
0.00225927
0.00261561
0.00268537
0.00265286
0.00258816
0.00295718
0.00303806
0.00299833
0.00292495
0.00323936
0.00332851
0.00328705
0.00321347
0.00340797
0.00350367
0.0034648
0.00339554
0.00304268
0.00313144
0.00309395
0.00303736
0.00237319
0.00238994
0.00235573
0.00227501
0.0020285
0.00203398
0.00203499
0.00203203
0.00236683
0.00244198
0.00233889
0.00214634
0.00331319
0.00342179
0.00328819
0.00304965
0.00407185
0.00423507
0.00407393
0.00377518
0.0048542
0.00508549
0.00488851
0.00451108
0.00583721
0.00615848
0.00591424
0.00542577
0.0068099
0.00721837
0.00691419
0.00631109
0.00751794
0.00801009
0.00764946
0.0069476
0.00595063
0.00638195
0.00602579
0.00542086
0.00218151
0.00221388
0.0022071
0.00217139
0.00193382
0.00193578
0.00193587
0.00193463
0.00409569
0.00406271
0.00406686
0.00415635
0.00500729
0.0049792
0.00499272
0.00509629
0.00549912
0.00551267
0.00552751
0.00557762
0.00600891
0.00605962
0.00605848
0.00601738
0.00675647
0.00685136
0.00680448
0.00662421
0.00752192
0.00764401
0.00752192
0.00718061
0.00807591
0.00823448
0.00803703
0.00753328
0.00616031
0.00629725
0.00610948
0.00562223
0.00204826
0.00206537
0.00206345
0.00204572
0.00189508
0.00189526
0.00189535
0.00189539
0.0102824
0.00999364
0.0101219
0.0106338
0.0119913
0.0116417
0.0119355
0.012829
0.0114569
0.0112674
0.0116345
0.0125326
0.0110899
0.0110267
0.0114216
0.0122579
0.0112043
0.0112481
0.0116344
0.0123672
0.0114041
0.0115093
0.0118433
0.0124286
0.0113724
0.0115534
0.0118175
0.0121951
0.00804828
0.0082347
0.00834967
0.00839298
0.00195762
0.00196808
0.00196908
0.00196114
0.00187331
0.00187333
0.00187334
0.00187336
0.0145132
0.0144446
0.0144663
0.0145729
0.0239089
0.023573
0.0237517
0.0243752
0.0222914
0.0219921
0.0223401
0.0232684
0.020399
0.0202202
0.0207014
0.0218162
0.0193341
0.0193108
0.019886
0.0210956
0.018518
0.0186042
0.0192033
0.0204097
0.0173501
0.0175749
0.0181361
0.0191648
0.0109082
0.011151
0.0113921
0.0117117
0.00189495
0.00190146
0.00190295
0.0018996
0.00185554
0.00185549
0.00185546
0.00185546
0.0141049
0.0140254
0.0140113
0.014064
0.0304645
0.030347
0.0303645
0.0305067
0.0318575
0.0316132
0.0316992
0.0320744
0.0304734
0.0301878
0.03041
0.0310721
0.029051
0.0288427
0.0292402
0.0301784
0.0274663
0.0273548
0.0278831
0.0290237
0.0248099
0.0248949
0.0254665
0.0265587
0.0132062
0.0134472
0.0136254
0.0137881
0.00184752
0.00185147
0.00185278
0.00185147
0.00183854
0.00183848
0.00183845
0.00183844
0.0137982
0.0137043
0.0136841
0.013737
0.0299778
0.0299724
0.0299796
0.0300006
0.0337456
0.033743
0.03377
0.0338252
0.034887
0.03484
0.0349
0.0350561
0.0354034
0.0353248
0.0354663
0.035798
0.0347577
0.0346577
0.0349009
0.0354424
0.0311626
0.0312136
0.0315389
0.0321102
0.013356
0.01364
0.0137029
0.0135923
0.00180961
0.00181201
0.00181299
0.00181252
0.00182094
0.00182087
0.00182084
0.00182083
0.0138747
0.0137756
0.0137539
0.0138085
0.0286812
0.0286694
0.0286681
0.0286783
0.031834
0.0318562
0.0318696
0.0318755
0.0333941
0.0334385
0.0334697
0.0334901
0.0351366
0.0352135
0.0352769
0.0353294
0.0360035
0.0360764
0.036168
0.0362786
0.0327146
0.0328871
0.0330216
0.0331205
0.0124293
0.0126927
0.012735
0.0125927
0.00177713
0.00177866
0.00177932
0.00177912
0.00180221
0.00180214
0.0018021
0.0018021
0.0141326
0.0140309
0.0140088
0.0140648
0.0281175
0.0281017
0.028098
0.028107
0.0304121
0.0304177
0.0304206
0.0304216
0.0313573
0.0313784
0.0313907
0.0313953
0.0326473
0.0327074
0.0327408
0.0327494
0.0335896
0.033675
0.0337228
0.0337378
0.0308758
0.0310558
0.0311302
0.0311062
0.0119878
0.0122189
0.0122628
0.0121383
0.00174733
0.00174836
0.00174879
0.00174864
0.0017821
0.00178202
0.00178198
0.00178199
0.0144909
0.0143866
0.0143639
0.0144214
0.0279677
0.0279523
0.0279487
0.0279574
0.0297416
0.0297411
0.0297408
0.0297414
0.0302521
0.0302573
0.0302606
0.0302626
0.0309668
0.0309922
0.0310064
0.0310099
0.0315061
0.0315445
0.0315661
0.0315723
0.0291373
0.0292578
0.0293028
0.0292732
0.0120583
0.012283
0.0123266
0.0122021
0.00171867
0.00171943
0.0017197
0.00171954
0.00176042
0.00176034
0.0017603
0.00176031
0.014927
0.0148198
0.0147964
0.0148555
0.0279938
0.0279795
0.0279764
0.0279848
0.0294441
0.0294424
0.0294418
0.0294424
0.0297336
0.0297344
0.0297352
0.0297364
0.0301136
0.0301243
0.0301306
0.0301324
0.0303859
0.0304002
0.0304092
0.030413
0.0282724
0.0283555
0.028384
0.0283568
0.0124203
0.0126553
0.0126996
0.012566
0.00169031
0.0016909
0.00169107
0.00169089
0.00173705
0.00173697
0.00173693
0.00173694
0.0154405
0.0153297
0.0153055
0.0153664
0.0280959
0.0280828
0.02808
0.0280878
0.0293123
0.0293107
0.0293101
0.0293109
0.0294907
0.0294906
0.0294908
0.0294915
0.0296939
0.0296995
0.0297027
0.0297038
0.0298352
0.0298413
0.0298455
0.0298476
0.0279696
0.028035
0.0280554
0.0280298
0.0129593
0.0132123
0.0132589
0.0131134
0.00166168
0.00166216
0.00166227
0.00166209
0.00171188
0.00171179
0.00171176
0.00171177
0.0160412
0.0159261
0.0159008
0.0159639
0.0282333
0.0282212
0.0282186
0.0282257
0.0292555
0.0292541
0.0292537
0.0292544
0.029375
0.0293746
0.0293747
0.0293752
0.0294849
0.0294882
0.0294902
0.0294909
0.0295675
0.0295708
0.0295732
0.0295745
0.0279584
0.0280143
0.0280306
0.0280067
0.0136311
0.0139061
0.0139561
0.0137973
0.00163235
0.00163276
0.00163284
0.00163264
0.00168481
0.00168472
0.00168469
0.0016847
0.0167466
0.0166262
0.0165996
0.0166653
0.0283878
0.0283766
0.0283741
0.0283806
0.0292332
0.0292321
0.0292318
0.0292325
0.0293186
0.0293182
0.0293182
0.0293186
0.029379
0.0293812
0.0293824
0.0293829
0.0294381
0.0294402
0.0294418
0.0294427
0.028094
0.0281432
0.028157
0.028135
0.0144277
0.0147277
0.0147818
0.0146082
0.00160199
0.00160235
0.0016024
0.00160221
0.00165577
0.00165568
0.00165564
0.00165566
0.0175826
0.0174556
0.0174273
0.0174961
0.0285501
0.0285397
0.0285373
0.0285432
0.0292267
0.0292258
0.0292256
0.0292262
0.0292898
0.0292893
0.0292893
0.0292897
0.0293238
0.0293252
0.029326
0.0293263
0.0293751
0.0293766
0.0293778
0.0293785
0.0283004
0.0283442
0.028356
0.0283357
0.0153642
0.0156921
0.0157507
0.0155607
0.00157032
0.00157065
0.00157068
0.00157049
0.00162471
0.00162461
0.00162457
0.0016246
0.0185863
0.018451
0.0184204
0.018493
0.0287138
0.0287044
0.0287022
0.0287073
0.0292265
0.0292258
0.0292257
0.0292262
0.0292731
0.0292726
0.0292725
0.0292729
0.0292927
0.0292935
0.029294
0.0292942
0.0293417
0.0293428
0.0293437
0.0293443
0.028535
0.0285738
0.0285838
0.0285652
0.0164747
0.016834
0.016897
0.0166887
0.00153716
0.00153745
0.00153747
0.0015373
0.00159169
0.00159158
0.00159154
0.00159157
0.019812
0.0196657
0.0196321
0.0197095
0.0288726
0.0288644
0.0288624
0.0288667
0.0292276
0.0292271
0.029227
0.0292275
0.0292607
0.0292602
0.0292601
0.0292606
0.0292717
0.0292722
0.0292725
0.0292726
0.029318
0.0293189
0.0293195
0.0293199
0.0287692
0.0288031
0.0288113
0.0287943
0.0178145
0.0182075
0.0182749
0.0180467
0.00150244
0.00150269
0.0015027
0.00150255
0.00155694
0.00155683
0.00155679
0.00155682
0.0213405
0.0211786
0.0211407
0.0212249
0.0290193
0.0290129
0.0290112
0.0290145
0.029227
0.0292266
0.0292265
0.0292268
0.0292488
0.0292484
0.0292484
0.029249
0.0292541
0.0292544
0.0292545
0.0292546
0.0292931
0.0292937
0.0292942
0.0292944
0.0289776
0.0290065
0.0290128
0.0289974
0.0194647
0.0198877
0.0199579
0.0197119
0.00146625
0.00146645
0.00146646
0.00146634
0.00152072
0.00152061
0.00152058
0.00152062
0.0232978
0.0231131
0.0230696
0.0231638
0.0291404
0.0291363
0.0291352
0.0291373
0.0292231
0.0292227
0.0292225
0.0292227
0.0292366
0.0292363
0.0292364
0.0292369
0.029238
0.0292382
0.0292383
0.0292383
0.0292632
0.0292637
0.0292639
0.0292639
0.0291348
0.0291574
0.0291618
0.0291487
0.0215589
0.0220115
0.0220788
0.0218113
0.0014287
0.00142886
0.00142887
0.00142877
0.0014822
0.00148211
0.0014821
0.00148215
0.0258801
0.0256704
0.0256246
0.0257324
0.029219
0.0292173
0.0292168
0.029218
0.0292163
0.0292158
0.0292156
0.0292155
0.0292252
0.0292252
0.0292252
0.0292255
0.029225
0.0292252
0.0292252
0.0292251
0.0292343
0.0292345
0.0292345
0.0292344
0.0292249
0.0292379
0.02924
0.029232
0.0245125
0.0249385
0.0249884
0.0247281
0.00138903
0.00138916
0.00138916
0.00138906
0.00215658
0.00204003
0.00197558
0.00194307
0.00192391
0.00191146
0.0019032
0.00189791
0.0018946
0.00189237
0.00175191
0.00159336
0.00478351
0.00945118
0.0139676
0.0171541
0.0186627
0.0188203
0.0182028
0.0172794
0.00236252
0.00259351
0.00735063
0.0155926
0.0250056
0.0331325
0.039132
0.0429559
0.044849
0.0452472
0.0027658
0.00365382
0.0083324
0.0178939
0.029206
0.0385557
0.045042
0.0487863
0.0502334
0.0500384
0.0030743
0.0039561
0.00877458
0.0194156
0.0321082
0.0419639
0.0481475
0.0510011
0.0513146
0.0501156
0.00339024
0.00408842
0.00900593
0.0204888
0.0342624
0.0442663
0.0498382
0.0516259
0.0508489
0.0488277
0.00363693
0.00411
0.00905357
0.0212458
0.0358636
0.0456669
0.0503361
0.0509667
0.0492495