/*--------------------------------*- C++ -*----------------------------------*\
| =========                 |                                                 |
| \\      /  F ield         | foam-extend: Open Source CFD                    |
|  \\    /   O peration     | Version:     4.0                                |
|   \\  /    A nd           | Web:         http://www.foam-extend.org         |
|    \\/     M anipulation  |                                                 |
\*---------------------------------------------------------------------------*/
FoamFile
{
    version     2.0;
    format      ascii;
    class       volScalarField;
    location    "900";
    object      divFlux;
}
// * * * * * * * * * * * * * * * * * * * * * * * * * * * * * * * * * * * * * //

dimensions      [1 -3 -1 0 0 0 0];

internalField   nonuniform List<scalar> 
34480
(
0.0191366
0.00133294
0.00188649
0.000453823
4.88183e-05
3.71969e-05
5.13165e-06
0.0168915
0.570431
8.35045e-06
0.00502491
0.00292739
0.000762184
1.81542e-06
1.80428e-05
6.27278e-06
1.06215e-06
4.27036e-07
0.25504
3.58422e-07
0.00300004
0.00207526
0.000989095
0.000221598
1.10137e-05
1.15553e-05
5.17804e-07
3.73886e-08
0.0109506
9.47085e-08
0.000418294
0.000341036
0.000233281
9.16746e-05
2.6207e-05
6.2551e-07
5.91451e-08
3.18597e-07
0.0379463
8.08711e-08
0.000275824
0.000220451
0.000132019
5.33927e-05
1.85342e-05
2.81121e-06
2.12012e-07
2.04943e-07
1.81968e-08
8.04456e-08
9.60878e-05
6.64131e-05
2.63661e-05
6.12335e-06
1.58449e-06
8.57279e-07
3.84596e-07
4.10656e-08
3.93473e-08
1.75259e-08
1.55188e-05
9.20678e-06
2.24046e-06
1.43618e-06
2.10311e-07
2.16165e-07
9.81551e-08
1.59858e-08
3.04953e-08
1.57313e-08
8.26473e-06
1.42637e-05
4.82798e-06
2.01096e-06
4.762e-07
3.21743e-07
3.58307e-08
5.81905e-09
8.01838e-09
7.42273e-09
2.38876e-06
3.79376e-06
2.87662e-07
1.43135e-06
6.4172e-07
3.33148e-07
7.31026e-08
1.99939e-09
1.79112e-09
2.74916e-09
1.58775e-05
3.92542e-05
1.37955e-05
3.8809e-06
9.71751e-07
2.65217e-07
6.82708e-08
1.48913e-09
7.48382e-09
1.5884e-08
0.0417461
0.00665078
0.000647437
0.000231818
4.45336e-05
8.39001e-05
3.33616e-05
3.72034e-07
4.90324e-06
0.0434821
0.0170236
0.00572518
0.000523618
9.46035e-05
7.34449e-06
9.89722e-06
6.7572e-06
2.46877e-06
1.81642e-06
0.0451077
0.0152229
0.00602544
0.00163864
0.000223695
4.06391e-05
1.13492e-05
1.78615e-06
1.51119e-06
1.11208e-06
0.0202226
0.00466776
0.00172279
0.000664356
0.000206798
3.02331e-05
4.13639e-06
1.19352e-06
1.12451e-07
1.80923e-07
0.0341812
0.00393861
0.00132196
0.000510846
0.00017816
4.28728e-05
2.04865e-06
1.37704e-06
5.40108e-07
4.1001e-07
6.31695e-07
0.000440916
0.00021331
4.94958e-05
9.45785e-06
1.46345e-05
4.04527e-06
3.1185e-07
3.52422e-07
1.44291e-08
4.03174e-07
0.000335814
4.31975e-05
5.09638e-06
6.71443e-06
8.55975e-07
1.31383e-07
3.01574e-07
2.80561e-07
4.14594e-08
2.15662e-07
0.00102625
0.000194345
5.01638e-05
1.9921e-05
8.74638e-06
3.4244e-06
7.86819e-07
5.29459e-08
3.13416e-07
2.24211e-07
0.00094408
9.47009e-05
2.94818e-05
3.53025e-05
1.40295e-05
8.06045e-06
9.28344e-07
1.67461e-06
4.72033e-07
4.31437e-07
0.00507411
0.00134777
0.000472128
0.000174744
4.62033e-05
1.56304e-05
2.64612e-06
2.05827e-06
3.83815e-06
9.00672e-07
0.0372338
0.0100493
0.00143429
0.000454925
0.000201017
2.34628e-06
3.5117e-05
1.23034e-05
0.0046466
0.022744
0.0162465
0.00553113
0.0001017
8.53573e-05
2.90489e-05
8.04236e-07
6.27688e-06
3.08964e-06
0.000381901
0.00398522
0.0121706
0.0060398
0.00138944
0.000101622
5.30563e-05
2.75662e-06
9.4873e-07
1.95203e-06
0.00307788
0.0133927
0.00246207
0.00146283
0.000542917
0.000157667
9.91482e-06
1.76881e-06
2.15829e-06
1.32132e-06
5.69453e-07
9.45585e-07
0.00174238
0.000950084
0.000364126
0.000129318
2.44177e-05
1.64756e-06
1.92345e-06
2.42001e-07
1.58986e-07
4.69944e-08
0.000337272
0.000149168
3.8589e-05
8.20571e-06
7.31351e-06
3.11181e-06
2.66742e-07
1.42009e-07
6.57823e-08
1.63794e-07
0.000113859
3.22992e-05
4.19079e-06
1.46962e-06
9.10711e-07
6.46812e-07
8.71157e-09
4.26339e-08
8.33319e-08
1.7636e-07
0.000224454
6.92902e-05
1.65932e-05
4.10695e-06
2.47183e-06
3.62045e-07
2.85185e-07
6.34361e-08
3.54007e-08
1.16042e-07
0.000343492
9.12218e-05
1.08441e-05
4.22871e-07
2.39539e-06
4.28055e-07
5.81551e-07
9.93191e-08
1.86075e-07
2.82998e-07
0.000751069
0.000293723
8.02391e-05
2.55226e-05
8.71586e-06
1.74324e-06
6.5284e-07
4.09906e-07
1.478e-07
3.4672e-07
0.0478945
0.0125339
0.00304259
0.000111002
0.000317612
0.000122302
1.07591e-05
2.23228e-05
2.44905e-05
0.0013317
0.0169647
0.00476323
0.000238788
1.11868e-05
3.29e-05
1.24372e-05
7.79903e-07
2.45198e-06
0.00398396
0.0175163
0.0138127
0.00635423
0.00110874
3.32105e-05
4.61634e-05
4.03125e-07
4.41833e-06
1.57241e-06
0.00852785
0.0527266
0.00271342
0.00158294
0.000546911
0.000108907
1.08901e-08
4.81982e-06
7.64212e-07
2.00317e-08
0.0155447
0.0968657
0.00179809
0.00099995
0.000383994
0.000112931
1.61981e-05
1.9933e-06
1.08037e-06
2.61889e-08
0.00614205
0.118596
0.00032459
0.00013231
1.41968e-05
1.50794e-05
8.72521e-06
1.73692e-06
3.79621e-07
2.33156e-07
1.79135e-07
0.119554
8.20017e-05
1.50513e-05
4.83191e-06
1.64998e-06
2.96539e-07
5.63547e-07
2.94494e-09
1.52932e-07
1.01519e-07
0.0683891
0.000156728
5.33793e-05
1.38725e-05
4.8311e-06
1.92647e-06
4.00512e-07
6.21382e-08
7.32186e-08
7.22615e-08
0.0272107
0.000238597
5.76588e-05
3.35301e-06
2.54001e-06
2.12605e-06
6.44808e-07
2.06782e-07
4.32036e-08
5.01978e-10
1.44413e-07
0.000508597
0.000204709
5.69771e-05
1.82309e-05
5.69177e-06
1.31811e-06
2.34399e-07
1.39578e-07
2.7302e-09
1.77229e-07
0.0687357
0.0134368
0.00474813
0.000778762
0.000104614
0.000156033
7.83785e-05
2.06115e-05
0.000490875
0.00892427
0.0160024
0.00361239
0.000375703
8.51668e-05
2.29147e-06
1.18451e-05
1.71826e-06
1.71266e-06
0.00847151
0.0285822
0.0157887
0.00655375
0.000726476
0.000120601
3.48626e-05
9.1407e-06
1.10943e-06
4.79854e-07
0.0125545
0.0532689
0.00314402
0.00174911
0.000498084
6.19748e-05
9.52518e-06
3.01374e-06
1.64876e-06
5.96851e-07
0.0210076
0.0927825
0.00200773
0.00109905
0.000388534
9.1253e-05
6.72286e-06
4.13313e-06
1.43241e-08
2.76608e-07
0.0187854
0.123387
0.000299896
9.69662e-05
1.20868e-05
2.08003e-05
8.46867e-06
5.176e-09
2.37668e-07
3.58427e-07
0.0213901
0.150614
5.33304e-05
2.46813e-06
3.83083e-06
8.42876e-07
1.50829e-06
1.03273e-07
7.74166e-08
2.81985e-07
1.80461e-07
0.141067
0.000116439
4.428e-05
1.20642e-05
5.29413e-06
1.21158e-06
5.02817e-07
9.02079e-08
1.71929e-07
0.000375298
0.145807
0.000157889
3.05507e-05
2.97136e-06
4.81556e-06
1.90614e-06
7.02567e-07
8.39982e-10
1.05651e-07
3.68037e-08
0.100693
0.000358363
0.000147476
4.1654e-05
1.34542e-05
3.80714e-06
9.46168e-07
6.15132e-08
4.27198e-08
7.32911e-09
0.147928
0.0840518
0.0112034
0.00508875
0.00155044
0.00033173
8.08776e-06
6.95741e-05
6.34787e-05
5.02208e-05
0.00446241
0.0131202
0.00226381
0.000242127
0.0001143
2.61233e-05
8.4542e-06
5.20318e-06
1.00622e-06
0.00573741
0.022342
0.0177371
0.00653125
0.000314252
0.000171668
9.86054e-06
1.05246e-05
4.43576e-07
8.9555e-08
0.0124828
0.04274
0.0037046
0.00189733
0.000411264
1.8567e-05
1.3924e-05
1.16241e-06
5.21158e-07
7.17925e-08
0.0228358
0.0748712
0.00233865
0.00123168
0.000374646
6.69799e-05
3.50035e-06
3.22585e-06
2.77232e-08
2.04697e-07
0.025471
0.10368
0.000256448
4.27671e-05
3.55801e-05
2.53835e-05
5.30224e-06
7.03914e-07
5.05477e-07
2.95468e-08
0.0350125
0.13738
2.58604e-05
1.83288e-06
2.76997e-06
1.86703e-06
1.39965e-06
2.62285e-08
1.842e-07
8.17607e-08
0.0202456
0.144907
9.7419e-05
3.73852e-05
1.2351e-05
4.36892e-06
1.09556e-06
2.72133e-07
4.01805e-08
4.61932e-08
0.0343788
0.171857
9.52495e-05
1.10832e-05
8.91383e-06
5.59611e-06
1.96544e-06
4.26388e-07
5.06703e-08
4.28036e-09
0.00574576
0.165269
0.000267892
0.000110491
3.24343e-05
9.93547e-06
2.86115e-06
4.98279e-07
9.57587e-08
7.74924e-08
0.0293163
0.205655
0.0772658
0.00676046
0.00364022
0.00153249
0.000610147
0.000224218
6.80081e-05
5.67805e-06
4.04637e-05
0.0001239
0.00831274
0.00116677
1.74999e-05
8.73971e-05
5.51015e-05
3.74123e-06
5.82268e-06
1.13483e-06
0.00133038
0.012263
0.0192445
0.00625373
0.000108871
0.000170407
1.35402e-05
8.7402e-06
1.19004e-06
8.96683e-07
0.00821431
0.0286609
0.00430076
0.00198437
0.0002985
1.93761e-05
8.98712e-06
2.53665e-06
2.5639e-07
2.89761e-07
0.0188441
0.0537675
0.00279221
0.00137349
0.000346727
3.69884e-05
9.16385e-06
2.14752e-06
4.29133e-07
1.95237e-07
0.0240609
0.0772555
0.000172665
2.13134e-05
5.85269e-05
2.45063e-05
1.93727e-06
1.39013e-06
3.68061e-07
2.18115e-07
0.0373556
0.108759
1.17199e-05
2.38233e-06
1.45966e-06
3.8063e-06
9.59806e-07
2.27432e-07
3.28907e-07
9.80903e-08
0.0290735
0.120169
8.59013e-05
3.4639e-05
1.19816e-05
3.35756e-06
9.78518e-07
1.04252e-07
1.78662e-07
8.46436e-08
0.0473999
0.153461
4.92422e-05
4.92324e-06
1.3123e-05
5.76505e-06
1.82558e-06
1.47875e-07
1.25532e-07
8.00675e-08
0.0270039
0.157516
0.00021118
8.76769e-05
2.62485e-05
7.71559e-06
2.13839e-06
2.20999e-07
7.61556e-08
6.4991e-08
0.0456982
0.187808
0.0482243
0.00254665
0.00135122
0.000610393
0.000315746
0.000178432
0.000102995
7.72519e-05
0.000100275
0.000167188
0.00331173
0.000521373
0.00034521
3.10513e-05
5.9254e-05
2.09015e-05
2.29836e-06
6.56624e-07
1.60343e-05
0.0040505
0.0200515
0.00563469
0.000484099
0.000131105
3.35923e-05
4.80561e-06
2.68517e-06
8.33286e-07
0.00311842
0.0152782
0.00479689
0.00198982
0.000161016
3.92161e-05
1.48882e-06
3.09435e-06
5.84132e-07
4.19535e-07
0.0118032
0.0334594
0.00333689
0.00151896
0.000297101
7.52246e-06
1.11527e-05
5.97561e-07
6.63861e-07
1.65239e-07
0.017289
0.0512583
5.2987e-05
9.76343e-05
7.527e-05
1.90896e-05
1.27022e-06
1.70655e-06
1.0214e-07
4.75301e-08
0.0315557
0.0783404
8.38077e-06
3.11763e-06
7.45956e-06
4.24213e-06
3.75689e-07
7.00423e-07
1.30352e-07
3.53755e-08
0.0266821
0.0888609
7.92238e-05
3.42623e-05
1.02055e-05
2.87477e-06
5.72644e-07
2.79311e-07
7.08794e-08
2.43321e-08
0.0464797
0.121223
1.38533e-05
1.91078e-05
1.52437e-05
5.86386e-06
1.21213e-06
1.6009e-07
6.3736e-09
3.19929e-09
0.0301733
0.121663
0.000175029
7.40316e-05
2.16988e-05
6.54743e-06
1.30335e-06
1.96536e-07
8.53916e-08
3.91101e-08
0.0465847
0.146728
0.0133304
0.0012297
0.000418167
1.17925e-05
5.6843e-05
1.17639e-05
4.28651e-06
1.48408e-05
4.91599e-05
7.86525e-05
0.000696045
0.00074537
0.000513685
0.000205259
2.46266e-05
3.72868e-05
3.87732e-06
1.68886e-05
2.59446e-05
2.69539e-05
0.0196171
0.00465989
0.000796073
5.13866e-05
4.4343e-05
4.09409e-07
4.26685e-06
9.28801e-07
2.93626e-07
0.00659251
0.00510849
0.00186967
2.15492e-05
4.09491e-05
6.86453e-06
1.98228e-06
1.46321e-06
1.94081e-07
0.00587172
0.0182945
0.00396342
0.00164902
0.00022641
1.782e-05
9.82895e-06
1.16091e-06
2.99628e-07
2.18642e-07
0.0102323
0.0302589
0.000107793
0.00018211
8.17777e-05
1.06173e-05
4.15048e-06
1.05225e-06
2.89428e-07
6.83443e-05
0.023149
0.0514176
1.59303e-05
1.62741e-05
1.2288e-05
3.65496e-06
8.15911e-07
7.40937e-07
2.45086e-08
2.16686e-08
0.0191103
0.0584063
7.8741e-05
3.22628e-05
8.60488e-06
2.13055e-06
5.83417e-07
3.29562e-07
1.46455e-08
0.00221823
0.038574
0.0866714
1.90264e-05
3.00816e-05
1.6718e-05
5.16787e-06
7.76005e-07
1.1518e-07
6.42236e-08
4.1197e-08
0.0253187
0.0831352
0.000154295
6.50073e-05
1.92161e-05
5.27398e-06
8.38921e-07
9.13746e-09
8.42819e-08
0.000767411
0.039839
0.10402
0.00192239
0.00188366
0.000991858
0.000161133
0.000136531
0.000153229
0.000101437
6.13704e-05
5.71458e-05
0.000103844
0.000516801
0.00200303
0.000316453
0.000386828
7.73019e-05
3.4379e-05
3.59929e-05
1.81708e-05
1.96954e-06
2.1079e-05
0.0175734
0.00321139
0.000982723
5.29898e-05
4.79958e-05
9.76731e-06
3.46697e-06
1.72269e-06
6.05902e-07
0.00199566
0.00504359
0.00160548
0.000102542
2.40011e-05
1.32157e-05
1.23743e-06
1.5563e-06
5.20403e-07
0.00202806
0.00886657
0.00463767
0.00174592
0.000137171
3.61177e-05
5.36405e-06
1.9544e-06
8.78473e-08
1.13645e-07
0.0051925
0.0163071
0.000310558
0.000266243
7.64201e-05
2.87714e-07
5.30577e-06
1.01637e-07
3.73461e-07
0.00252796
0.0158697
0.0316698
4.13986e-05
3.34933e-05
1.51065e-05
1.3582e-06
1.86787e-06
4.71336e-07
1.53231e-07
3.71726e-08
0.0114
0.0344395
7.66294e-05
2.93144e-05
6.72169e-06
1.69287e-06
8.55819e-07
2.08953e-07
3.75897e-08
0.00749735
0.0294447
0.0577596
4.80985e-05
3.9471e-05
1.7015e-05
4.06021e-06
5.68835e-07
3.80822e-08
1.29821e-08
1.81015e-08
0.0178696
0.0519808
0.000141854
6.03668e-05
1.75244e-05
4.02602e-06
4.93018e-07
2.0268e-07
1.19398e-08
0.0056361
0.0305901
0.0687272
0.0165865
0.00228873
0.00198733
0.00108652
0.000474374
0.000204393
0.00011499
0.00010768
0.000152447
0.000250893
0.00706484
0.00434261
0.000547458
0.000396863
0.000230543
5.06413e-05
1.28665e-05
2.75454e-05
4.00821e-05
6.90574e-05
0.0129424
0.00121703
0.00100445
0.000187683
3.3294e-05
2.13508e-05
1.82256e-07
3.65638e-06
2.85168e-08
0.000103808
0.00446119
0.00117113
0.000186701
9.51251e-06
1.32645e-05
5.32737e-06
5.98831e-07
1.37397e-06
5.10126e-07
0.00362083
0.00531193
0.00178908
3.40865e-05
4.40794e-05
4.44145e-07
1.71473e-06
4.28336e-07
6.68979e-08
0.00219794
0.00812245
0.000541856
0.000340871
5.68428e-05
1.10878e-05
4.4459e-06
8.55946e-07
2.72467e-07
0.00311458
0.0105506
0.0188689
7.95143e-05
5.2385e-05
1.37346e-05
2.15198e-06
2.24681e-06
3.08509e-08
2.41432e-07
5.00437e-08
0.00541713
0.0182837
7.22043e-05
2.47781e-05
4.97262e-06
2.01851e-06
9.49316e-07
9.92677e-08
1.14332e-07
0.00883258
0.0215432
0.037024
7.55121e-05
4.70841e-05
1.5973e-05
3.12388e-06
2.76031e-07
4.86157e-08
3.89769e-08
3.61455e-09
0.0105873
0.0295553
0.000137415
5.89838e-05
1.58549e-05
2.99451e-06
8.45822e-08
1.08549e-07
4.5356e-08
0.00661616
0.0216796
0.0428738
0.0325193
0.000452906
0.000499267
0.000520439
0.000236863
5.22106e-05
3.55273e-05
9.50155e-05
0.000169191
0.000277711
0.0245873
0.00722668
0.00220151
6.04823e-05
0.000236915
0.000137577
6.16942e-05
4.62608e-05
6.36017e-05
9.58349e-05
0.0047175
0.00150618
0.000735196
0.000330026
1.17859e-05
3.18035e-05
1.12021e-05
2.31493e-06
6.96788e-06
8.6098e-06
0.00316761
0.000553156
0.000199608
5.04918e-05
4.16407e-06
8.83707e-06
2.48991e-06
5.00498e-07
6.17392e-07
0.000971909
0.00591615
0.00175462
7.42605e-05
4.01441e-05
5.8923e-06
4.76991e-07
3.97815e-07
1.68003e-07
0.000729466
0.00373648
0.000780811
0.000391047
2.32895e-05
1.90033e-05
1.59909e-06
1.47436e-06
8.3114e-08
0.00295718
0.00693258
0.0110267
0.000125981
6.69108e-05
6.99579e-06
5.73745e-06
1.69895e-06
4.98513e-07
1.33065e-07
1.15245e-07
0.00138141
0.00833653
6.30457e-05
1.88777e-05
4.52904e-06
2.70045e-06
8.49088e-07
1.14912e-07
0.00283415
0.00836895
0.0154179
0.0232488
0.000100981
5.2182e-05
1.42815e-05
2.22086e-06
4.7211e-08
5.20834e-08
5.72357e-08
3.41249e-08
0.00474079
0.0147126
0.00014006
5.97038e-05
1.41381e-05
1.62513e-06
4.13893e-07
5.75997e-08
1.35529e-08
0.00584336
0.0143871
0.0254172
0.00441142
0.00219995
0.000522851
0.000150771
8.0184e-05
7.86947e-05
0.000150391
0.000141084
8.31217e-05
2.4097e-06
0.0508591
0.00914912
0.00401344
0.000945359
4.8978e-05
5.66586e-05
8.7913e-07
5.00219e-05
8.10999e-05
9.98928e-05
0.00905193
0.00502692
1.7628e-05
0.000432759
0.000112999
1.24604e-05
2.17609e-05
1.01661e-05
4.30027e-05
5.00788e-06
0.00100697
0.000234685
0.00011012
8.39457e-05
1.75678e-05
5.83666e-06
5.26218e-06
1.0244e-06
1.15345e-06
1.48634e-06
0.00635121
0.00161569
0.000175891
2.39044e-05
8.90787e-06
9.64196e-07
8.34495e-09
1.31692e-07
0.000235922
0.00164528
0.000981998
0.000398075
2.1366e-05
2.07005e-05
2.61279e-06
1.27751e-06
0.000880179
0.0025399
0.00455093
0.00637395
0.000165236
6.9515e-05
4.93478e-06
7.85636e-06
1.40564e-07
7.99924e-07
1.37128e-07
5.26877e-08
4.98879e-08
0.00271896
0.000618852
1.36948e-05
5.75892e-06
3.38782e-06
3.93497e-07
0.00166848
0.00427415
0.00718943
0.0109031
0.0144414
0.000122147
5.49123e-05
1.21199e-05
1.42932e-06
1.1013e-07
1.47772e-07
1.161e-08
1.28075e-08
0.000714045
0.0056743
0.0001496
6.16131e-05
1.15982e-05
1.25658e-07
4.47559e-07
6.79595e-08
0.000474368
0.00449238
0.00899367
0.0143288
0.0183278
0.00294735
0.000411011
0.00117857
0.00155938
0.00148048
0.00129113
0.00108611
0.000876863
0.000655302
0.0743618
0.00877242
0.00498193
0.00175382
0.000360891
4.87027e-05
0.000116661
0.00010866
0.000103854
0.000110692
0.0302481
0.00925594
0.00132334
0.000420069
0.000384817
0.000297677
0.000353753
0.000401287
0.000658479
0.000400223
0.00204117
0.00113396
0.000110696
7.63013e-05
4.18152e-05
5.41685e-06
6.30149e-06
5.61501e-06
2.68317e-06
5.60745e-07
0.00647491
0.0013429
0.000253662
2.48096e-06
8.59493e-06
2.34152e-06
8.85652e-07
5.52601e-07
0.000231526
0.000797984
0.000728322
0.000338141
6.86658e-05
1.30089e-05
1.63674e-05
0.00055266
0.00127219
0.00201051
0.00294366
0.00362655
0.00017219
5.14609e-05
1.96249e-05
6.71839e-06
1.97584e-06
4.23155e-07
3.13955e-07
6.37888e-08
8.02536e-09
1.04475e-07
0.00243147
0.0018739
0.00154068
0.00168101
0.00220565
0.00308643
0.00440471
0.00574321
0.00756926
0.0088623
0.000137919
5.4898e-05
9.85345e-06
7.30849e-07
3.24842e-07
1.61606e-07
4.17688e-08
9.82511e-09
4.66572e-08
0.000781879
0.000164675
6.3021e-05
7.70349e-06
1.01977e-06
3.58686e-07
5.64782e-08
0.00111971
0.00306849
0.005222
0.00756575
0.00115719
0.0111067
0.00906276
0.00659455
0.00521915
0.00436485
0.00365992
0.00296465
0.00223939
0.00145864
0.08488
0.00562484
0.0045225
0.00227788
0.000859622
0.000252276
6.18127e-05
3.60815e-05
6.75668e-05
0.000116227
0.0600451
0.0125838
0.00276509
0.000470567
0.000932219
0.000859184
0.000783341
0.000719226
0.000809271
0.000528031
0.00568124
0.00199529
0.00044044
6.62248e-07
5.34247e-05
3.02092e-05
8.96908e-06
1.84651e-07
2.09555e-06
6.86707e-07
0.00609172
0.000908187
0.000285006
3.66576e-05
2.18874e-06
1.50219e-06
1.1869e-07
0.000145621
0.000314105
0.000473015
0.000162348
0.000756325
0.000583771
0.000506038
0.000611927
0.000816002
0.00109006
0.00135652
0.00171808
0.00189621
0.000112753
5.46828e-06
3.14736e-05
8.755e-07
3.21342e-06
7.31071e-07
1.81879e-07
2.00008e-07
6.91257e-08
1.75067e-07
0.00252334
0.00255886
0.00244634
0.00249501
0.00270412
0.00306586
0.00362103
0.00411171
0.00490307
0.00515881
0.000144205
5.24664e-05
7.63424e-06
1.73977e-09
6.12562e-07
3.41954e-09
7.74646e-08
3.05659e-08
1.06336e-08
8.0074e-08
0.000182136
6.1106e-05
2.93607e-06
1.55185e-06
1.17629e-07
0.000209546
0.000933804
0.00170441
0.00258981
0.00346241
0.191871
0.0105334
0.0128373
0.0130919
0.0118797
0.00993964
0.00780478
0.00572305
0.00373967
0.0017806
0.0690703
0.00137507
0.00285364
0.00223812
0.00126926
0.000612937
0.000240128
9.80614e-06
0.000193713
0.000431599
0.0926661
0.0148775
0.0051989
0.000962259
0.00021929
0.000443539
0.000427743
0.000367159
0.000343823
0.000233247
0.00903266
0.00261319
0.00080434
0.000173583
8.6998e-06
2.09731e-05
1.68456e-05
8.83285e-06
3.96192e-06
2.09726e-06
0.00476555
0.000384229
0.000306576
0.000140778
9.52981e-05
0.000105982
0.000130258
0.000150897
0.00017278
0.000181299
3.36162e-06
0.000357618
0.000474516
0.000402351
0.000389866
0.000422005
0.000474711
0.000521959
0.000589331
0.000599683
4.81306e-05
6.90815e-05
3.05134e-05
8.46766e-06
1.29302e-06
1.83934e-06
8.66076e-07
3.2625e-07
1.63832e-07
1.8373e-07
0.00118287
0.00159782
0.00168368
0.00169163
0.00173016
0.00181248
0.00195332
0.00205055
0.00227122
0.00220646
0.000138927
4.78815e-05
5.57703e-06
1.14408e-06
6.05237e-07
3.26858e-07
7.5123e-08
3.16498e-09
3.10085e-08
8.07093e-08
0.000217636
5.40842e-05
1.67852e-06
1.32101e-06
7.64801e-08
0.000128457
0.000341176
0.000529805
0.000785033
0.000995573
0.353475
0.0424174
0.0397362
0.0308323
0.0226311
0.0160482
0.01088
0.00671004
0.00310024
0.000353696
0.0455943
0.00539949
0.0020018
0.000615328
0.000312648
0.000216265
5.96504e-05
0.000218774
0.000646678
0.00120486
0.115246
0.0133518
0.00667074
0.00312616
0.00176653
0.00129804
0.00117151
0.00115866
0.0012881
0.00103532
0.0108287
0.0027048
0.000938911
0.000284547
8.12238e-05
1.824e-05
7.26574e-07
2.51444e-06
2.54807e-06
6.19594e-06
0.0027475
0.000567381
0.000107204
0.000105489
0.000160188
0.000200523
0.000233589
0.000264529
0.000309423
0.000318803
0.000191483
0.000620496
0.000256067
0.00024265
0.000284761
0.000326856
0.000372506
0.000422052
0.000503062
0.00052373
0.000323351
0.000153887
5.74186e-06
1.43097e-05
5.74482e-06
1.48033e-06
1.88883e-07
4.96011e-08
5.95815e-08
1.11816e-07
0.00183392
0.00118159
0.000912358
0.000891453
0.000920003
0.000965233
0.00102723
0.00108825
0.00122355
0.00116984
0.000120139
4.26226e-05
2.68806e-06
2.57541e-06
4.54666e-07
1.84962e-08
4.46915e-08
2.34993e-08
2.21902e-08
9.87486e-08
0.000186037
4.14765e-05
4.55221e-06
8.42478e-07
4.24239e-07
7.2762e-08
3.19394e-05
5.31001e-05
9.87097e-05
0.000121184
1.09503
0.0405942
0.0361105
0.0264222
0.0182457
0.0119874
0.0071742
0.00326344
0.000246549
0.00375694
0.00713304
0.000939512
0.00193443
0.00215774
0.00170082
0.00101888
0.000271224
0.000533388
0.00145799
0.00246605
0.0974295
0.00897766
0.00619478
0.00464355
0.00396781
0.0036831
0.00356946
0.00351005
0.00366585
0.00292706
0.00963655
0.002521
0.000963376
0.000334129
0.000120058
4.5327e-05
1.897e-05
1.02136e-05
8.12623e-06
1.07733e-05
0.00024014
0.00169272
0.00095897
0.000743961
0.000711658
0.000729661
0.000766275
0.000812396
0.000888081
0.00090214
0.000754917
0.00147004
0.00105286
0.000944408
0.000946253
0.000984371
0.00104456
0.00112031
0.0012544
0.00131047
0.000648015
0.000196917
4.39473e-05
5.49679e-06
6.73078e-07
8.61528e-07
4.09549e-07
1.44268e-07
9.82306e-09
5.63611e-08
0.00653383
0.00582365
0.00543192
0.00535996
0.00538103
0.00545126
0.00557818
0.00569901
0.00609755
0.00575548
9.42808e-05
3.6389e-05
3.44841e-06
8.82762e-07
4.6551e-07
1.22929e-07
2.52558e-08
2.51835e-09
3.54257e-09
4.096e-08
9.25622e-05
0.000269744
0.000185492
0.000203122
0.000234987
0.000293649
0.000407929
0.000440652
0.000702368
0.000667298
1.11851
0.0124656
0.00866481
0.0049702
0.0018803
0.000633387
0.00276964
0.00487668
0.00660268
0.00838033
0.00030877
0.00617802
0.00417911
0.00257578
0.00140806
0.000501398
0.000283398
0.00105527
0.00190467
0.0027147
0.035549
0.0073373
0.00633472
0.00585542
0.00568884
0.00566159
0.00571374
0.00582782
0.00617748
0.00544923
0.0095451
0.00146734
0.000610015
0.000227785
8.2877e-05
2.63162e-05
3.03813e-06
6.86336e-06
1.07642e-05
1.36995e-05
0.00366451
0.00159994
0.00117266
0.0010062
0.000955649
0.000948442
0.000961427
0.000988416
0.00104518
0.00110328
0.00139238
0.00134913
0.00114665
0.00107735
0.0010658
0.00107743
0.00110422
0.00114595
0.00123417
0.00134623
0.000798498
9.47777e-05
2.91831e-05
7.88164e-06
2.04099e-06
4.94407e-07
8.74851e-08
7.44787e-09
3.58018e-08
4.37413e-08
0.00977932
0.0093909
0.00907663
0.00899122
0.00897828
0.00900376
0.00907988
0.00917373
0.00963579
0.00926052
6.82732e-05
1.91133e-05
4.03514e-06
4.92751e-07
3.25969e-09
1.66793e-08
1.25571e-08
4.31265e-09
4.87273e-09
8.39265e-09
0.0061513
0.00623955
0.00616048
0.00619845
0.00621867
0.00624749
0.00632235
0.00630203
0.0067806
0.00639031
0.152636
0.0277612
0.0252971
0.0231121
0.0213912
0.0200157
0.0188363
0.0177258
0.016397
0.0158299
0.0168967
6.49373e-05
2.03254e-05
7.23046e-05
0.00019845
0.00034832
0.000524587
0.000733544
0.000974379
0.00110918
0.00178201
0.0043623
0.0040071
0.00377261
0.00365997
0.00359481
0.00355595
0.00354712
0.0036287
0.00354864
0.00489814
0.000310186
0.000127533
5.03849e-05
2.17103e-05
1.09348e-05
6.73333e-06
5.02423e-06
4.48307e-06
4.81312e-06
0.00175481
0.000683704
0.000574864
0.000533738
0.000517936
0.000510473
0.000506185
0.000504649
0.000514206
0.000520502
0.000353678
0.000586357
0.000537867
0.000522811
0.000517246
0.000513537
0.000510354
0.000508948
0.000522229
0.000549509
0.000272433
1.95501e-05
5.05717e-06
1.1304e-06
2.14702e-07
3.35499e-08
1.65459e-09
1.41531e-08
3.25572e-08
7.99547e-08
0.00577155
0.00578175
0.0056998
0.0056698
0.00565334
0.00564228
0.00564393
0.00565616
0.00585615
0.00583838
1.57951e-05
5.01626e-06
1.26958e-06
2.4907e-07
3.53017e-08
2.99908e-09
7.65391e-09
6.20643e-09
3.26983e-09
2.12643e-08
0.0276834
0.0279051
0.0278987
0.0279137
0.0278836
0.0278279
0.0277689
0.0276592
0.0278847
0.026547
15.1491
10.4058
11.8167
18.6514
9.3136
7.63139
8.44814
12.1806
0.604929
0.600337
0.837781
1.76364
7.4163
6.33125
6.77371
9.35869
13.7098
12.2305
13.3048
19.7983
17.6269
15.6019
18.5218
29.7311
19.4942
16.7528
21.642
37.0436
19.5633
16.3866
22.9902
41.3243
17.7162
14.862
22.3689
41.5576
15.3303
13.1269
21.4381
40.4906
0.824313
0.0341772
8.75604e-05
0.304783
0.722972
0.0531416
2.70527e-05
0.298844
0.276339
0.0220787
8.73886e-06
0.0472499
1.86966
0.21756
1.0331e-06
0.595092
3.72412
0.500642
2.24387e-06
1.14267
5.45205
0.805001
1.21985e-06
1.77489
6.78778
1.03994
2.3158e-06
2.43714
7.61489
1.23404
1.90207e-06
2.99168
7.76116
1.42319
0.205575
3.30258
7.53162
1.93125
0.8784
3.3553
0.264939
0.181439
0.168665
0.212591
0.125976
0.0847647
0.0796966
0.119521
0.462344
0.243959
0.202948
0.275157
1.4016
0.724926
0.649846
0.957779
2.52217
1.24043
1.158
1.81286
3.63232
1.71156
1.65875
2.73746
4.54614
2.04384
2.05114
3.58065
5.18351
2.24072
2.32466
4.25769
5.36425
2.15891
2.35288
4.5446
5.27392
2.05699
2.39419
4.56778
0.00164374
0.00043087
5.93423e-05
0.00060325
0.0423006
0.0217525
0.0151323
0.0197599
0.195621
0.105999
0.0810609
0.108076
0.502028
0.274338
0.226508
0.300073
0.936854
0.500327
0.438743
0.582661
1.45823
0.761585
0.701681
0.943947
1.96714
0.99414
0.954419
1.31983
2.42315
1.19821
1.19592
1.69719
2.63364
1.21729
1.298
1.91377
2.67743
1.237
1.45347
2.0873
0.0167619
0.0122574
0.0105225
0.012317
0.0506883
0.0356965
0.0308466
0.0363485
0.119002
0.0869586
0.0755739
0.0862947
0.253189
0.183162
0.159878
0.18365
0.444202
0.309746
0.272992
0.315611
0.693561
0.465314
0.41862
0.487686
0.9528
0.610616
0.562728
0.664251
1.22378
0.757594
0.721154
0.863449
1.39901
0.812093
0.827922
1.00479
1.51818
0.896665
1.00948
1.17756
0.00736067
0.00441812
0.00321391
0.00470561
0.0317456
0.0219171
0.0195027
0.023567
0.0661069
0.050237
0.0459394
0.0514849
0.131176
0.103719
0.0949494
0.104951
0.21833
0.172442
0.157472
0.173426
0.338231
0.262438
0.240993
0.265725
0.463712
0.349168
0.323263
0.356702
0.615062
0.449591
0.424065
0.470162
0.736669
0.509152
0.51008
0.561667
0.818777
0.571081
0.626496
0.661495
0.00244449
0.000360607
0.000346454
0.000354299
0.0173567
0.0109768
0.00970393
0.0126586
0.0381352
0.0283708
0.026458
0.030302
0.075734
0.0610846
0.0573827
0.0631463
0.121504
0.101003
0.0948135
0.102669
0.18551
0.155231
0.146059
0.157528
0.247382
0.205809
0.194153
0.208036
0.332531
0.271822
0.259146
0.278533
0.40626
0.319908
0.319779
0.336639
0.450414
0.3593
0.38574
0.391289
0.000515589
0.000174534
0.000158714
0.000142187
0.00694227
0.00289615
0.00222385
0.00406322
0.0189999
0.0130233
0.012125
0.0146215
0.0423147
0.0335493
0.0317066
0.0352308
0.0688816
0.0575794
0.0546129
0.0591384
0.107811
0.0922419
0.0878782
0.0943601
0.140871
0.122414
0.116985
0.123797
0.192107
0.166532
0.160414
0.170253
0.226107
0.194066
0.193409
0.199545
0.252422
0.222863
0.235197
0.235272
0.000271725
0.000136149
0.000129917
0.00014314
0.00110784
3.06335e-05
3.6856e-05
4.63116e-05
0.0081159
0.00441891
0.00398235
0.00562774
0.0224588
0.017157
0.0161609
0.0182721
0.0379249
0.0314472
0.0298873
0.0325274
0.062998
0.0541463
0.0517945
0.0557282
0.0812306
0.0720485
0.0692151
0.0727791
0.114201
0.101998
0.098751
0.104364
0.125192
0.113512
0.112482
0.115183
0.144306
0.136569
0.141999
0.141512
0.00109673
0.000422712
0.000402706
0.000420187
0.00014025
9.95499e-05
0.000104041
0.000117779
0.00240732
0.000133421
1.08069e-05
0.00100265
0.0111365
0.00792485
0.00735608
0.00854988
0.0198558
0.0160819
0.0152356
0.0167309
0.0359823
0.0307009
0.0293561
0.0317672
0.0452227
0.0405407
0.0389738
0.0407454
0.0672996
0.0609067
0.0590591
0.0624902
0.0690062
0.0645472
0.0635908
0.0649758
0.0830785
0.0819873
0.0842856
0.0839352
0.00125219
0.000444204
0.000409082
0.000399881
0.00019757
0.000115207
0.000109874
0.000107967
8.14803e-06
8.00517e-06
8.34263e-06
9.81648e-06
0.00509581
0.00319041
0.00285304
0.00346662
0.00987611
0.00766641
0.00720632
0.00803525
0.0202679
0.0169776
0.0161861
0.0176886
0.0240765
0.021678
0.0208031
0.0215678
0.0392897
0.0355452
0.0344666
0.0366819
0.0372279
0.0352988
0.034577
0.0352785
0.0474193
0.0478364
0.048836
0.0485696
0.000905725
0.000363657
0.000358233
0.000376196
0.000265858
0.000147563
0.000152924
0.000176834
2.30505e-05
1.6251e-05
2.08545e-05
2.99498e-05
0.00207214
0.001009
0.000807563
0.00106258
0.00459092
0.00332718
0.00308404
0.00352914
0.0112529
0.00916787
0.00869707
0.00964542
0.0119837
0.0108251
0.0103496
0.0105635
0.0227527
0.020339
0.0197087
0.0212133
0.0189406
0.0179895
0.0175034
0.0177972
0.026395
0.0268779
0.0273765
0.0271266
0.000324049
6.41713e-05
0.00012344
0.000185683
0.000238538
0.000102054
9.02517e-05
7.82618e-05
7.32958e-06
3.26708e-06
8.24946e-06
2.03515e-05
0.000715752
0.000187389
6.8676e-05
0.000111294
0.00199507
0.00130591
0.00118482
0.00141455
0.00614586
0.00484459
0.00456674
0.00515958
0.00526472
0.00482122
0.00458333
0.00451258
0.0129876
0.0113488
0.0109867
0.0120424
0.00853063
0.00807846
0.00777984
0.00782135
0.0140623
0.0143327
0.0146419
0.0144009
0.00255344
0.000229666
5.0443e-05
0.000117422
0.000335843
0.000194406
0.000217887
0.000277565
3.09722e-05
3.13951e-05
4.24544e-05
6.5682e-05
0.000184687
4.00292e-06
6.46005e-06
1.14038e-05
0.000859502
0.000506692
0.000451253
0.000564611
0.00327722
0.00250709
0.00234951
0.00270289
0.00178062
0.00173248
0.00163441
0.00144829
0.00722909
0.00611323
0.00591252
0.00664954
0.00290076
0.00276786
0.00260295
0.00250092
0.00694559
0.00703873
0.00726593
0.00705164
0.00288302
0.000494927
0.0008863
0.00140118
0.000640244
0.000333138
0.000361289
0.00043766
4.22431e-06
4.43572e-06
1.36131e-05
3.38284e-05
1.11666e-05
8.07068e-06
1.05451e-05
1.68484e-05
0.000407324
0.000245256
0.000222826
0.000276162
0.00160565
0.00120901
0.00112946
0.0013129
0.000256568
0.000373026
0.000350474
0.000170649
0.00377546
0.00306726
0.00296421
0.00343798
0.000269501
0.000333388
0.000257115
0.000102049
0.0028563
0.00284632
0.00301777
0.00286833
0.00152549
0.00262741
0.00315685
0.00409412
0.00164676
0.00086851
0.00098391
0.00126194
0.00010801
8.48665e-05
0.000114777
0.000185846
1.28467e-05
7.94047e-06
1.42594e-05
2.51152e-05
0.000128671
8.58829e-05
7.90954e-05
9.19601e-05
0.000467911
0.000350478
0.000324781
0.000375066