/*--------------------------------*- C++ -*----------------------------------*\
| =========                 |                                                 |
| \\      /  F ield         | foam-extend: Open Source CFD                    |
|  \\    /   O peration     | Version:     4.0                                |
|   \\  /    A nd           | Web:         http://www.foam-extend.org         |
|    \\/     M anipulation  |                                                 |
\*---------------------------------------------------------------------------*/
FoamFile
{
    version     2.0;
    format      ascii;
    class       volScalarField;
    location    "900";
    object      epsilon;
}
// * * * * * * * * * * * * * * * * * * * * * * * * * * * * * * * * * * * * * //

dimensions      [0 2 -3 0 0 0 0];

internalField   nonuniform List<scalar> 
34480
(
4921.84
4919.76
4919.49
4920.98
4924.27
4929.37
4942.12
4996.83
5188.58
5722.17
659.635
605.397
604.546
657.007
844.13
1586.95
5131.97
22971.8
104176
383660
620.6
525.863
512.844
573.417
816.577
1842.6
7076.84
35217.8
172726
698715
524.682
440.819
429.593
488.324
739.486
1896.48
8256.76
44510.9
232254
1.00886e+06
455.173
385.012
378.439
435.236
689.392
1940.51
9223.24
52735.5
289340
1.331e+06
390.625
332.527
327.064
379.851
632.14
1969.45
10176.1
61250.7
351022
1.69602e+06
351.026
301.967
298.224
346.982
594.134
1974.49
10779.8
67411.4
400734
2.01921e+06
319.873
281.636
277.691
318.009
536.412
1830.72
10398.8
67174.1
412957
2.16349e+06
459.497
435.996
433.647
459.258
598.442
1415.92
6870.42
43821.8
276284
1.4966e+06
5705.38
5704.64
5709.3
5720.66
5737.09
5757.13
5781.06
5816.84
5883.43
5952.41
4847.56
4845.13
4844.54
4846.01
4850.03
4856.82
4867.82
4894.35
4957.95
5181.94
515.862
481.944
476.23
490.514
535.413
653.309
1011.98
2377.76
11928.5
104662
450.184
387.268
373.74
393.455
463.036
652.322
1241.51
3594.69
21480.1
198352
400.946
340.809
327.729
347.864
420.205
626.071
1306.01
4317.28
30350.4
295037
365.668
312.034
301.996
321.702
393.534
603.752
1332.53
4842.13
38874.1
396737
325.532
279.23
269.891
287.62
354.163
557.905
1303.68
5214.11
47590.7
509074
301.217
260.549
252.785
268.396
329.952
523.861
1263.45
5393.1
54518.5
608552
282.193
249.783
242.391
254.227
302.252
458.31
1080.28
4857.92
55338.3
653136
432.509
411.062
406.145
413.669
443.874
532.251
850.641
2998.37
36659.7
468865
5588.5
5583.4
5583.23
5589.34
5600.62
5615.12
5634.11
5666.67
5733.84
5907.23
4762.83
4760.62
4759.83
4760.64
4763.23
4767.04
4771.54
4782.62
4807.18
4863.44
402.498
388.262
385.538
390.381
405.765
441.894
531.84
766.783
1540.07
5870.45
311.135
279.778
272.958
282.237
312.949
383.345
556.338
1040.52
2889.37
15141.3
291.972
258.498
250.993
261.763
297.306
382.121
603.053
1290.46
4440.43
29063.5
281.293
248.959
242.798
254.032
291.593
383.353
634.463
1492.74
6180.64
47973.3
261.136
231.544
225.337
236.003
272.12
363.997
630.067
1638.34
8214.57
73454.6
249.812
222.459
217.131
226.844
261.262
350.646
620.907
1737.11
10254.1
102091
242.498
220.023
214.795
222.566
250.122
323.156
552.787
1606.65
11158
123671
402.499
386.474
382.857
388.552
409
461.955
608.314
1242.59
7771.97
92896.7
5479.5
5471.78
5468.9
5472
5480.42
5492.23
5508.33
5538.6
5610.37
5795.38
4667.33
4666.11
4665.7
4666.32
4668.03
4669.89
4670.53
4673.47
4681.09
4697.61
330.031
325.334
324.47
325.62
329.872
340.784
367.763
425.35
548.097
960.866
221.592
208.192
205.324
209.382
222.869
251.446
312.269
449.719
780.281
2114.36
215.95
199.391
195.535
201.133
219.243
259.094
348.709
570.098
1177.02
4168.36
218.164
200.495
197.074
203.424
224.257
271.268
382.538
680.852
1619.81
7181.21
210.781
193.247
189.382
195.932
217.4
267.973
394.848
767.104
2131.06
11646.5
208.121
190.774
187.295
193.592
215.202
267.175
403.286
832.809
2652.59
17208.5
209.624
194.679
191.076
196.473
214.699
259.589
381.543
800.442
2887.09
22008.2
375.59
363.826
361.082
365.307
380.265
417.3
509.522
785.483
2201.55
16719
5358
5350.42
5347.36
5349.99
5357.91
5370.06
5386.77
5417.12
5483.27
5625.88
4562.54
4562.2
4562.12
4562.51
4563.34
4563.53
4561.98
4560.89
4560.89
4562.67
286.408
285.212
285.065
284.887
285.055
287.351
295.065
309.446
332.676
381.668
169.444
164.337
163.285
164.688
169.728
180.036
200.067
239.631
311.113
490.917
167.6
159.98
158.062
160.577
168.867
186.211
221.304
296.403
445.612
895.539
174.445
165.38
163.549
166.712
177.259
199.791
247.693
358.789
603.897
1502.39
173.769
163.851
161.463
165.096
176.958
203.434
263.01
413.505
787.416
2441.58
175.902
165.293
163.025
166.741
179.507
208.574
276.67
460.2
971.376
3653.2
183.138
173.486
170.992
174.442
185.879
212.671
277.766
466.157
1065.41
4774.38
351.392
342.94
340.811
343.719
354.253
379.57
438.744
582.894
1014.28
3847.21
5228.76
5221.44
5218.31
5220.51
5227.81
5239.63
5255.89
5283.8
5338.92
5440.68
4449.37
4449.72
4449.9
4450.11
4450.3
4449.37
4447.34
4445.25
4443.47
4442.27
260.378
260.049
260.064
259.608
258.826
259.085
261.067
264.644
269.774
278.008
140.418
138.734
138.467
138.833
140.432
143.705
149.701
160.396
176.607
205.416
138.305
135.013
134.12
135.16
138.701
145.784
158.821
183.534
223.646
304.907
145.438
141.085
140.202
141.661
146.665
156.787
176.257
216.385
287.383
459.268
147.506
142.18
140.792
142.7
148.922
162.07
188.745
248.625
365.377
703.067
151.69
145.495
144.11
146.19
153.398
168.916
201.593
279.719
445.849
1016
162.144
156.2
154.569
156.694
163.6
179.011
212.821
298.876
502.669
1325.63
329.642
323.839
322.255
324.216
331.549
348.91
387.554
468.485
641.419
1296.51
5091.19
5084.36
5081.32
5083.2
5089.83
5100.85
5115.98
5140.49
5183.09
5249.86
4328.53
4329.34
4329.71
4329.78
4329.55
4328.21
4326.33
4324.31
4322.47
4320.96
244.323
243.865
243.797
243.397
242.721
242.691
243.106
243.995
245.344
247.603
124.576
124.158
124.174
124.2
124.573
125.433
127.022
129.707
133.31
138.312
121.154
119.8
119.402
119.806
121.258
124.069
128.856
136.944
148.204
164.612
126.921
124.961
124.585
125.21
127.471
131.83
139.508
153.615
174.95
211.112
129.608
126.876
126.106
127.06
130.198
136.513
148.17
171.433
209.949
286.286
134.226
130.748
129.947
131.048
134.972
143.001
158.318
190.838
248.639
382.013
146.095
142.605
141.586
142.842
146.859
155.473
172.8
211.765
287.969
491.066
310.435
306.634
305.474
306.767
311.847
323.935
349.662
397.064
480.79
668.658
4945.05
4938.91
4936.09
4937.69
4943.56
4953.35
4966.8
4987.47
5019.58
5063.05
4200.52
4201.59
4202.08
4202.07
4201.57
4200.38
4198.87
4197.25
4195.79
4194.53
233.517
232.701
232.477
232.209
231.92
231.856
231.909
232.182
232.747
234.003
115.95
115.938
116.028
115.973
115.977
116.093
116.396
116.97
117.706
118.618
111.345
110.814
110.643
110.793
111.382
112.504
114.311
117.085
120.492
124.284
115.439
114.626
114.498
114.746
115.732
117.565
120.585
125.588
132.28
140.675
117.807
116.473
116.065
116.525
118.065
121.048
126.16
135.272
148.625
167.827
122.055
120.175
119.738
120.293
122.375
126.464
133.664
147.248
168.389
202.616
134.185
132.245
131.64
132.357
134.623
139.344
148.258
166.025
196.447
252.595
293.575
291.227
290.375
291.225
294.788
303.472
320.941
349.732
394.874
463.068
4790.2
4784.87
4782.38
4783.73
4788.77
4797.06
4808.51
4825.25
4848.88
4877.55
4065.91
4066.83
4067.39
4067.33
4066.84
4065.95
4064.83
4063.65
4062.59
4061.62
224.989
224.129
223.748
223.598
223.501
223.441
223.447
223.609
224.031
225.093
111.195
111.287
111.374
111.318
111.244
111.17
111.142
111.193
111.29
111.451
105.87
105.67
105.596
105.652
105.897
106.362
107.086
108.118
109.262
110.289
108.518
108.222
108.2
108.29
108.71
109.471
110.671
112.498
114.714
116.9
110.278
109.664
109.457
109.673
110.414
111.81
114.085
117.769
122.704
128.273
113.856
112.874
112.649
112.916
114.006
116.079
119.523
125.371
133.586
143.497
125.575
124.57
124.23
124.629
125.873
128.429
133.056
141.338
154.202
172.081
278.72
277.381
276.732
277.308
279.889
286.365
298.424
316.486
342.344
371.803
4626.62
4622.19
4620.08
4621.19
4625.36
4632.06
4641.41
4654.45
4671.38
4690.2
3924.79
3925.53
3925.98
3925.95
3925.61
3924.98
3924.2
3923.37
3922.64
3921.89
217.338
216.485
216.133
216.009
215.945
215.913
215.935
216.089
216.494
217.502
108.485
108.583
108.651
108.61
108.536
108.443
108.362
108.314
108.296
108.328
102.9
102.826
102.793
102.815
102.926
103.135
103.453
103.882
104.319
104.647
104.477
104.393
104.407
104.437
104.616
104.936
105.425
106.121
106.887
107.516
105.64
105.38
105.28
105.379
105.732
106.384
107.411
108.95
110.875
112.761
108.52
108.021
107.911
108.037
108.607
109.667
111.354
113.977
117.362
120.648
119.48
119.01
118.83
119.05
119.72
121.1
123.509
127.451
133.109
139.696
265.425
264.756
264.23
264.645
266.614
271.581
280.002
291.627
307.035
320.916
4454.44
4450.92
4449.23
4450.11
4453.4
4458.6
4465.92
4475.7
4487.5
4499.64
3777.24
3777.84
3778.19
3778.18
3777.96
3777.54
3777.01
3776.45
3775.96
3775.37
209.856
209.016
208.692
208.586
208.543
208.532
208.571
208.725
209.123
210.094
106.832
106.906
106.953
106.927
106.873
106.804
106.738
106.692
106.674
106.699
101.343
101.314
101.298
101.309
101.365
101.47
101.628
101.831
102.026
102.151
102.204
102.193
102.212
102.221
102.302
102.448
102.664
102.949
103.227
103.421
102.898
102.8
102.754
102.8
102.968
103.274
103.744
104.405
105.181
105.907
105.171
104.919
104.867
104.928
105.233
105.791
106.646
107.88
109.344
110.557
115.214
115.03
114.944
115.066
115.424
116.172
117.417
119.314
121.826
124.537
253.208
252.965
252.5
252.829
254.431
258.255
264.159
271.763
281.221
287.812
4273.94
4271.29
4270
4270.67
4273.15
4277.02
4282.54
4289.59
4297.58
4305.27
3623.4
3623.88
3624.16
3624.16
3624.02
3623.74
3623.39
3623.03
3622.7
3622.23
202.18
201.362
201.064
200.971
200.942
200.942
200.986
201.132
201.516
202.447
105.711
105.759
105.788
105.772
105.738
105.694
105.653
105.625
105.625
105.659
100.558
100.545
100.537
100.543
100.574
100.633
100.719
100.826
100.928
100.987
100.979
100.985
100.997
101.001
101.044
101.123
101.234
101.371
101.484
101.55
101.349
101.32
101.299
101.321
101.403
101.55
101.77
102.062
102.379
102.692
103.146
103.013
102.988
103.021
103.194
103.504
103.96
104.579
105.246
105.734
112.215
112.17
112.136
112.205
112.401
112.804
113.436
114.344
115.426
116.631
241.603
241.613
241.165
241.453
242.847
245.683
249.802
254.807
260.742
263.612
4085.54
4083.66
4082.75
4083.23
4084.98
4087.8
4091.79
4096.69
4101.94
4106.71
3463.46
3463.85
3464.07
3464.08
3463.99
3463.81
3463.58
3463.34
3463.13
3462.74
194.121
193.331
193.057
192.975
192.953
192.957
192.999
193.131
193.492
194.379
104.85
104.878
104.893
104.884
104.864
104.839
104.817
104.804
104.818
104.861
100.181
100.174
100.17
100.173
100.191
100.225
100.273
100.333
100.392
100.426
100.353
100.355
100.359
100.361
100.391
100.443
100.514
100.595
100.652
100.683
100.522
100.518
100.507
100.519
100.561
100.634
100.741
100.874
101.006
101.157
101.962
101.884
101.871
101.892
101.999
102.185
102.447
102.783
103.113
103.332
110.034
110.057
110.05
110.092
110.204
110.413
110.722
111.143
111.565
112.138
230.087
230.335
229.875
230.148
231.318
233.315
236.151
239.433
243.209
244.105
3889.86
3888.57
3887.98
3888.31
3889.48
3891.49
3894.25
3897.53
3900.86
3903.76
3297.71
3298.03
3298.2
3298.21
3298.15
3298.04
3297.89
3297.74
3297.6
3297.26
185.56
184.805
184.554
184.482
184.464
184.468
184.504
184.618
184.952
185.792
104.116
104.128
104.133
104.128
104.118
104.106
104.097
104.094
104.115
104.163
100.012
100.009
100.007
100.009
100.018
100.036
100.061
100.093
100.129
100.154
100.054
100.049
100.046
100.049
100.071
100.111
100.164
100.221
100.259
100.281
100.109
100.111
100.106
100.112
100.135
100.174
100.229
100.294
100.349
100.433
101.286
101.234
101.224
101.241
101.313
101.433
101.596
101.797
101.978
102.1
108.348
108.407
108.414
108.442
108.502
108.604
108.743
108.925
109.042
109.341
218.186
218.68
218.321
218.563
219.379
220.748
222.654
224.783
227.192
227.045
3687.61
3686.74
3686.36
3686.57
3687.37
3688.73
3690.57
3692.66
3694.69
3696.43
3126.54
3126.81
3126.93
3126.94
3126.91
3126.84
3126.75
3126.65
3126.55
3126.26
176.412
175.695
175.467
175.406
175.391
175.394
175.421
175.516
175.82
176.609
103.444
103.445
103.444
103.441
103.437
103.434
103.432
103.436
103.461
103.512
99.946
99.9456
99.9461
99.9467
99.9502
99.9568
99.9675
99.9828
100.005
100.026
99.9276
99.9173
99.9103
99.9125
99.9304
99.9621
100.003
100.046
100.077
100.097
99.9235
99.9246
99.9208
99.9242
99.9377
99.9609
99.9914
100.025
100.05
100.104
100.897
100.857
100.85
100.864
100.915
100.997
101.105
101.235
101.348
101.436
106.939
107.01
107.027
107.045
107.075
107.121
107.173
107.24
107.22
107.398
205.663
206.297
206.073
206.242
206.788
207.691
208.926
210.281
211.801
211.141
3479.56
3478.99
3478.75
3478.89
3479.41
3480.29
3481.45
3482.72
3483.88
3484.91
2950.5
2950.72
2950.81
2950.82
2950.8
2950.76
2950.7
2950.63
2950.57
2950.32
166.59
165.917
165.714
165.664
165.652
165.653
165.672
165.747
166.019
166.756
102.807
102.801
102.797
102.795
102.795
102.796
102.8
102.807
102.832
102.885
99.9312
99.9323
99.9338
99.9336
99.9333
99.9336
99.9355
99.9408
99.954
99.9755
99.8865
99.8738
99.8656
99.867
99.8806
99.9048
99.936
99.969
99.9942
100.015
99.8561
99.8548
99.8516
99.8534
99.862
99.8764
99.8948
99.9144
99.9271
99.9643
100.658
100.625
100.618
100.629
100.666
100.724
100.798
100.885
100.962
101.039
105.672
105.738
105.76
105.773
105.787
105.804
105.815
105.829
105.755
105.877
192.345
193.031
192.916
193.029
193.375
193.936
194.688
195.526
196.45
195.597
3266.58
3266.23
3266.08
3266.17
3266.49
3267.02
3267.71
3268.43
3269.05
3269.65
2770.33
2770.5
2770.56
2770.57
2770.56
2770.54
2770.5
2770.45
2770.4
2770.2
155.998
155.373
155.198
155.16
155.151
155.15
155.161
155.216
155.453
156.137
102.199
102.189
102.183
102.182
102.183
102.187
102.193
102.202
102.226
102.278
99.9402
99.9412
99.9427
99.942
99.9399
99.9371
99.9348
99.9351
99.9434
99.967
99.8854
99.8732
99.8657
99.8663
99.8757
99.8927
99.9148
99.9386
99.9586
99.9796
99.8477
99.845
99.8421
99.843
99.8483
99.8573
99.8685
99.8802
99.8876
99.9137
100.482
100.456
100.449
100.457
100.482
100.522
100.571
100.629
100.684
100.756
104.468
104.522
104.543
104.553
104.559
104.563
104.557
104.549
104.462
104.553
178.086
178.755
178.726
178.798
178.996
179.307
179.714
180.206
180.716
179.871
3049.75
3049.55
3049.47
3049.52
3049.7
3049.99
3050.37
3050.74
3051.04
3051.37
2587.03
2587.16
2587.2
2587.21
2587.21
2587.19
2587.16
2587.13
2587.09
2586.92
144.498
143.93
143.79
143.765
143.759
143.756
143.76
143.796
143.991
144.621
101.625
101.613
101.607
101.606
101.608
101.613
101.62
101.628
101.647
101.695
99.9565
99.9556
99.9562
99.9551
99.9527
99.9494
99.9462
99.9451
99.951
99.9773
99.9021
99.8922
99.8864
99.8864
99.8922
99.9028
99.9168
99.9324
99.9471
99.9657
99.8682
99.8655
99.8633
99.8635
99.8663
99.8712
99.8772
99.8836
99.8879
99.9043
100.32
100.299
100.294
100.299
100.314
100.338
100.368
100.404
100.441
100.505
103.295
103.334
103.352
103.358
103.36
103.357
103.345
103.33
103.252
103.316
162.727
163.325
163.366
163.41
163.499
163.625
163.779
164.031
164.232
163.527
2830.38
2830.28
2830.23
2830.26
2830.35
2830.49
2830.68
2830.83
2830.96
2831.13
2401.73
2401.86
2401.88
2401.89
2401.89
2401.88
2401.86
2401.84
2401.81
2401.69
131.859
131.369
131.275
131.262
131.26
131.256
131.253
131.27
131.406
131.971
101.104
101.091
101.086
101.084
101.086
101.09
101.096
101.104
101.115
101.152
99.9676
99.9642
99.9636
99.9624
99.9606
99.9583
99.9562
99.9557
99.9605
99.9872
99.9276
99.9208
99.9171
99.9168
99.9199
99.9256
99.9333
99.9422
99.9516
99.9656
99.9031
99.9014
99.9001
99.9
99.901
99.9028
99.9051
99.9074
99.9094
99.9175
100.154
100.14
100.136
100.138
100.146
100.158
100.173
100.191
100.212
100.262
102.167
102.19
102.201
102.203
102.201
102.193
102.179
102.162
102.108
102.148
145.866
146.333
146.362
146.395
146.456
146.539
146.626
146.696
146.641
146.151
2609.89
2609.84
2609.83
2609.84
2609.87
2609.91
2609.96
2610.01
2610.05
2610.14
2215
2215.07
2215.07
2215.07
2215.07
2215.07
2215.07
2215.06
2215.06
2215.01
117.519
117.176
117.142
117.144
117.145
117.141
117.132
117.128
117.177
117.606
100.638
100.626
100.62
100.617
100.618
100.621
100.626
100.633
100.641
100.661
99.9753
99.9717
99.9707
99.9699
99.969
99.968
99.9672
99.9673
99.9706
99.9905
99.9618
99.9581
99.9562
99.956
99.9574
99.9599
99.9634
99.9675
99.9724
99.9803
99.9472
99.9466
99.9461
99.946
99.9461
99.9463
99.9464
99.9464
99.9465
99.9491
100.027
100.02
100.019
100.019
100.022
100.027
100.032
100.038
100.047
100.074
101.119
101.124
101.127
101.126
101.121
101.112
101.1
101.087
101.067
101.093
126.017
126.293
126.307
126.326
126.358
126.402
126.447
126.476
126.435
126.123
2389.04
2389.02
2389.02
2389.02
2389.03
2389.03
2389.02
2389.02
2389
2389.05
7170.32
7278.7
7234.99
7030.95
657826
681431
686547
695234
1.49046e+06
1.57412e+06
1.58032e+06
1.56101e+06
2.51206e+06
2.68532e+06
2.68064e+06
2.59869e+06
3.74294e+06
4.03069e+06
4.00146e+06
3.83684e+06
5.28475e+06
5.71773e+06
5.66466e+06
5.45061e+06
6.83688e+06
7.42289e+06
7.35853e+06
7.15662e+06
7.84505e+06
8.55873e+06
8.50502e+06
8.36734e+06
5.59751e+06
6.1481e+06
6.08787e+06
6.0451e+06
7888.24
8134.42
7973.65
7559.77
5742.08
5792.98
5794.84
5756.35
308231
322852
343103
375451
686289
774740
817758
854774
1.17188e+06
1.39147e+06
1.4529e+06
1.47834e+06
1.75495e+06
2.16069e+06
2.23214e+06
2.24402e+06
2.44652e+06
3.08641e+06
3.187e+06
3.22441e+06
3.11547e+06
4.00601e+06
4.17031e+06
4.28855e+06
3.55441e+06
4.66408e+06
4.91152e+06
5.1426e+06
2.79372e+06
3.78786e+06
3.9864e+06
4.29416e+06
7119.57
7350.29
7281.02
7058.9
4930.48
4940.83
4939.58
4929.8
21663.6
25821.2
24423.1
19854.9
61319.5
72802.1
67992.4
55182.6
128089
151523
139443
112775
227278
268388
243941
197248
370960
438933
398690
323719
543499
644401
588100
481613
700882
834466
765727
632309
583628
693360
627268
521609
6337.18
6424.21
6401.5
6305.57
4708.24
4710.13
4710.48
4709.52
1603.92
1710.07
1673.31
1540.66
4692.25
5137.27
4964.74
4393.4
11188.9
12404.9
11803.8
10103.5
22469.4
25068.3
23476.5
19533.8
41592.8
46666.7
43222.7
35228.1
68191.7
76637.5
70376.8
56663.4
97143
109552
99991.5
79856.7
83507.4
93587.5
83959.5
66864.2
5897.29
5938.91
5935.88
5897.95
4560.61
4561.44
4561.53
4560.84
426.701
437.995
439.191
432.24
711.286
754.738
757.107
726.878
1591.66
1726.68
1715.27
1596.39
3194.82
3509.22
3431.98
3091.74
6131.6
6797.5
6546.74
5718.55
10493.3
11661.6
11059.3
9412.37
15711.7
17535.1
16416.2
13653.5
13907.5
15404
14096.1
11537.9
5573.03
5595.05
5596.54
5581.08
4438.17
4438.88
4438.88
4438.12
277.638
280.01
280.354
279.005
227.657
232.102
233.426
232.204
386.22
402.707
406.149
399.082
674.029
716.461
719.554
693.07
1215.84
1315.41
1309.82
1229.7
2025.89
2211.27
2172.61
1986.21
3055.75
3365.89
3262.81
2901
2941.58
3192.35
3027.78
2662.6
5313.53
5324.31
5326.51
5321.12
4316.58
4317.26
4317.25
4316.53
243.193
244.882
245.114
243.998
140.922
141.47
141.653
141.559
176.513
178.987
179.904
179.531
243.787
250.622
252.631
250.766
369.989
387.542
391.046
383.65
550.863
584.417
586.781
566.809
799.2
859.032
855.744
809.872
988.394
1033.89
1013.7
964.725
5092.13
5096.99
5098.91
5097.84
4190.27
4190.91
4190.91
4190.26
229.187
230.791
231.038
229.991
118.677
118.725
118.706
118.648
126.28
126.654
126.806
126.793
146.443
147.648
148.144
148.078
184.064
187.651
188.922
188.311
234.686
241.451
243.27
241.404
316.322
329.337
331.4
325.668
544.473
550.659
548.198
544.218
4890.92
4892.89
4894.23
4894.59
4057.53
4058.11
4058.11
4057.54
220.377
221.966
222.237
221.234
111.207
111.219
111.192
111.137
110.635
110.676
110.684
110.68
118.033
118.248
118.352
118.376
132.136
133.017
133.403
133.367
150.391
151.895
152.515
152.471
188.293
191.517
192.499
191.804
400.998
398.333
397.725
400.348
4696.49
4697.13
4697.95
4698.57
3918.01
3918.52
3918.53
3918.04
212.946
214.504
214.786
213.824
108.085
108.111
108.097
108.048
104.69
104.683
104.674
104.67
107.753
107.785
107.804
107.817
113.952
114.227
114.358
114.355
122.281
122.631
122.83
122.916
145.176
146.058
146.418
146.35
335.939
331.011
330.347
333.815
4502.5
4502.53
4503
4503.57
3771.71
3772.16
3772.17
3771.75
205.711
207.225
207.508
206.586
106.491
106.529
106.525
106.479
102.143
102.136
102.129
102.127
103.478
103.482
103.485
103.491
106.414
106.534
106.591
106.583
110.976
111.054
111.123
111.186
127.149
127.397
127.516
127.51
298.13
292.672
291.851
295.256
4306.31
4306.12
4306.36
4306.81
3618.82
3619.21
3619.22
3618.86
198.246
199.706
199.985
199.105
105.483
105.528
105.528
105.485
100.976
100.974
100.971
100.969
101.571
101.572
101.574
101.576
102.979
103.049
103.08
103.069
105.855
105.867
105.895
105.936
118.31
118.366
118.394
118.382
271.95
266.487
265.593
268.813
4106.73
4106.49
4106.62
4106.92
3459.62
3459.94
3459.95
3459.66
190.369
191.77
192.043
191.205
104.711
104.757
104.759
104.719
100.421
100.422
100.421
100.42
100.694
100.696
100.698
100.699
101.348
101.395
101.415
101.405
103.382
103.379
103.393
103.42
113.432
113.425
113.416
113.394
251.354
246.062
245.157
248.189
3903.18
3903
3903.06
3903.24
3294.48
3294.74
3294.74
3294.5
181.982
183.321
183.585
182.792
104.036
104.081
104.085
104.047
100.154
100.157
100.157
100.155
100.287
100.289
100.29
100.29
100.568
100.601
100.613
100.604
102.137
102.132
102.14
102.158
110.428
110.402
110.377
110.346
233.544
228.494
227.612
230.462
3695.48
3695.4
3695.43
3695.49
3123.85
3124.06
3124.05
3123.86
173.012
174.285
174.542
173.796
103.407
103.449
103.453
103.418
100.03
100.034
100.035
100.032
100.098
100.099
100.099
100.1
100.199
100.221
100.229
100.222
101.476
101.472
101.477
101.489
108.347
108.32
108.289
108.25
217.044
212.279
211.44
214.106
3483.73
3483.79
3483.8
3483.75
2948.32
2948.47
2948.45
2948.29
163.385
164.592
164.841
164.144
102.805
102.844
102.848
102.815
99.9818
99.9856
99.986
99.9831
100.012
100.01
100.01
100.012
100.03
100.044
100.048
100.042
101.086
101.085
101.088
101.094
106.716
106.699
106.667
106.618
200.988
196.549
195.772
198.24
3268.34
3268.51
3268.53
3268.39
2768.64
2768.74
2768.71
2768.58
153.013
154.155
154.399
153.754
102.228
102.265
102.268
102.237
99.9746
99.9771
99.9768
99.9737
99.9739
99.9706
99.9705
99.9742
99.956
99.9627
99.9646
99.962
100.808
100.809
100.811
100.814
105.283
105.283
105.256
105.198
184.802
180.752
180.055
182.297
3050.01
3050.27
3050.29
3050.09
2585.85
2585.9
2585.85
2585.75
141.791
142.877
143.119
142.524
101.674
101.708
101.71
101.683
99.9853
99.9861
99.9847
99.9815
99.9603
99.9563
99.9566
99.9616
99.928
99.9298
99.9306
99.9307
100.559
100.563
100.564
100.563
103.914
103.934
103.914
103.85
168.04
164.501
163.909
165.86
2829.77
2830.1
2830.12
2829.9
2401.15
2401.12
2401.06
2401.01
129.54
130.584
130.823
130.268
101.151
101.179
101.182
101.161
99.9951
99.994
99.9914
99.9886
99.9625
99.9591
99.9597
99.9648
99.9281
99.9272
99.9274
99.9293
100.312
100.316
100.316
100.313
102.556
102.585
102.575
102.518
150.068
147.114
146.671
148.316
2608.94
2609.32
2609.34
2609.1
2215.02
2214.87
2214.81
2214.85
115.839
116.808
117.012
116.486
100.66
100.677
100.68
100.67
99.9967
99.9944
99.9914
99.9893
99.9808
99.9791
99.9797
99.9829
99.9535
99.9526
99.9527
99.954
100.106
100.109
100.109
100.106
101.269
101.28
101.276
101.253
128.648
126.628
126.389
127.545
2388.28
2388.67
2388.68
2388.41
6101.79
5437.52
5166.74
5070.24
5014.78
4975.6
4949.38
4934.22
4926.37
4921.92
796770
191529
33197.8
11674.4
5280.68
2830.32
1748.83
1214.81
932.324
769.958
1.41491e+06
242920
43769.9
14983.9
6714.39
3604.86
2181.56
1449.67
1043.01
801.829
1.97779e+06
233788
46121.6
14826.6
6400.51
3346.73
1974.78
1282.36
904.399
684.756
2.42768e+06
248443
48208
14341
6002.4
3050.46
1762.54
1127.26
785.522
591.512
2.89441e+06
271899
50345.4
13741.1
5535.93
2714.53
1531.86
964.532
667.882
503.178
3.26604e+06
289769
51108
12913.7
5049.97
2412.48
1346.36
845.418
586.564
445.366
3.34346e+06
282041
46832.9
10788.1
4071.23
1902.66
1070.88
688.775
496.715
391.429
2.30382e+06
178676
26850.3
5603.64
2234.94
1220.99
849.808
667.286
565.823
505.072
6021.1
5991.98
5846.44
5821.05
5777.47
5753.03
5733.68
5723.2
5715.97
5709.64
5435.89
5167.03
5036.9
4964.26
4918.54
4888.27
4868.55
4856.7
4850.62
4847.08
179658
44735.9
13569.2
5308.4
2632.53
1568.35
1068.02
806.309
660.569
576.949
372333
85534.8
23240.1
8217.84
3859.87
2173.52
1376.38
952.741
710.15
567.306
588088
124523
30302.7
9537.42
4182.36
2238.2
1359.51
908.551
657.907
514.493
819159
162410
35871.7
10275.7
4260.93
2190.27
1293.46
847.864
604.813
469.282
1.09667e+06
204134
41127.1
10710.8
4185.32
2059.19
1180.8
758.769
536.266
415.378
1.37149e+06
240557
44620
10681.2
3987.93
1904.62
1076.94
689.186
487.276
379.574
1.54414e+06
254405
43256.4
9398.53
3336.64
1557.21
886.382
580.27
425.791
343.513
1.16786e+06
175801
26384.1
5165.97
1940.06
1080.34
766.351
612.448
525.116
475.195
6248.97
5949.87
5790.66
5731.69
5680.88
5650.17
5627.9
5614.18
5604.41
5595.95
4895.55
4860.5
4832.91
4810.02
4792.09
4779.05
4770.34
4765.14
4762.5
4760.91
9198.5
4174.08
2296.09
1431.99
986.462
737.955
593.933
508.194
455.56
423.784
23809.6
9484.57
4610.68
2527.57
1532.88
1005.92
710.926
538.263
432.31
367.035
44918.4
15771.8
6860.3
3376.66
1881.46
1150
766.572
553.192
427.669
353.221
72609.5
22587.8
8901.55
4011.34
2097.23
1219.56
784.238
552.244
419.06
342.264
110674
30638.7
10914.8
4499.29
2210.09
1222.55
758.681
521.322
390.57
317.433
154078
38349.1
12430.2
4739.19
2222.83
1189.59
725.304
495.08
370.135
301.547
189151
42306.7
12378.6
4334.88
1949.58
1023.34
629.003
439.06
339.396
284.748
140018
27387.9
7218.16
2520.08
1296.2
837.614
640.053
535.163
472.214
435.543
6012.81
5832
5708.25
5634.7
5581.97
5549.1
5526.21
5510.54
5498.85
5488.86
4704.4
4695.95
4686.75
4678.49
4672.2
4667.9
4665.23
4663.9
4663.76
4663.89
1210.57
907.877
709.352
571.272
480.552
422.405
385.095
360.69
344.159
333.724
3008.63
1905.62
1261.04
855.693
610.119
460.22
367.343
308.44
269.584
244.268
6157.2
3443.77
2036.97
1241.86
807.665
561.957
418.878
332.688
278.573
244.876
10618.4
5288.34
2849.04
1596.69
971.253
639.666
457.406
352.924
289.02
250.259
17149.9
7585.79
3728.68
1924.03
1096.57
683.693
469.19
351.653
283.111
242.931
24927.6
9845.29
4458.88
2148.18
1168.3
703.006
472.198
350.232
280.19
239.821
31746.7
11137.5
4624.3
2079.23
1091.44
647.326
438.391
331.086
271.521
237.226
23291
7301.53
2939.76
1434.13
901.676
661.427
541.55
472.126
427.608
400.981
5783.8
5656.65
5558.68
5495.28
5451.62
5423.03
5402.47
5387.65
5376.4
5366.98
4559.5
4558.22
4556.99
4556.03
4555.45
4555.19
4555.23
4555.65
4556.66
4557.95
414.122
384.012
357.479
335.807
319.531
307.596
298.864
292.412
287.523
284.077
634.905
510.05
409.876
333.639
279.62
242.255
216.653
199.007
186.344
177.569
1276.8
918.144
661.457
483.913
368.75
294.499
246.548
215.156
193.954
180.068
2255.02
1468.22
966.454
649.496
460.896
347.531
278.778
236.211
208.124
190.065
3782.21
2224.12
1339.66
827.214
546.61
388.605
298.271
244.931
211.594
190.968
5655.73
3023.61
1688.06
974.019
611.698
418.518
313.32
253.643
216.82
194.321
7404.91
3580.79
1854.42
1008.73
614.191
415.282
312.199
255.132
221.157
200.501
5623.9
2625.05
1431.03
901.639
664.672
538.877
466.719
421.233
390.026
370.889
5531.11
5456.03
5391.43
5345.56
5312.06
5288.1
5270
5256.37
5245.78
5237.07
4437.47
4437.6
4437.94
4438.43
4439.02
4439.67
4440.34
4441.2
4442.5
4444.13
279.027
275.801
272.225
268.827
265.839
263.295
261.179
259.42
257.921
256.623
225.884
210.676
194.845
180.787
169.478
160.819
154.373
149.578
145.776
142.968
371.648
320.424
272.456
233.141
203.712
182.46
167.347
156.573
148.706
143.33
610.001
485.574
380.958
302.534
248.619
212.439
188.352
172.189
160.537
152.585
1008.77
735.132
528.595
386.501
296.479
239.96
204.434
181.662
166.253
156.206
1515.9
1019.79
680.69
465.682
339.454
264.644
219.861
192.357
173.886
161.896
2039.81
1265.49
790.433
514.433
364.745
280.632
232.377
203.303
184.615
172.661
1810.3
1181.12
824.521
628.725
520.021
453.04
409.531
379.914
358.259
344.676
5299.57
5258.61
5219.33
5187.9
5162.83
5143.36
5127.94
5115.87
5106.28
5098.52
4316.1
4316.43
4316.93
4317.55
4318.24
4318.93
4319.62
4320.43
4321.65
4323.2
245.114
244.806
244.397
243.917
243.384
242.828
242.278
241.728
241.156
240.457
140.953
138.792
136.254
133.762
131.551
129.713
128.256
127.1
126.036
125.188
176.55
168.219
158.829
149.988
142.485
136.446
131.713
128.029
125.125
123.095
241.38
219.962
197.759
178.542
163.543
152.358
144.18
138.221
133.48
130.06
355.676
303.863
255.157
216.352
188.326
168.718
155.113
145.593
138.596
133.836
504.065
404.81
318.922
255.938
213.695
185.805
167.353
155.019
145.94
139.7
682.424
514.715
383.863
295.717
240.599
205.87
183.702
169.129
159.034
152.305
827.42
676.021
560.023
482.052
429.539
392.717
366.159
346.827
331.848
322.257
5088.83
5067.46
5044.08
5022.85
5004.45
4989.13
4976.46
4966.19
4957.83
4951.18
4189.95
4190.26
4190.65
4191.12
4191.63
4192.15
4192.64
4193.25
4194.25
4195.61
231.241
231.361
231.415
231.399
231.304
231.144
230.932
230.653
230.283
229.695
118.605
118.293
117.941
117.569
117.204
116.887
116.643
116.444
116.178
115.933
126.365
124.809
122.831
120.705
118.66
116.832
115.266
113.946
112.839
112.07
146.832
142.784
137.874
133.015
128.735
125.206
122.397
120.194
118.25
116.776
184.106
173.311
161.362
150.444
141.513
134.56
129.255
125.221
122.024
119.795
232.375
211.249
189.098
170.464
156.25
145.783
138.145
132.613
128.155
124.933
304.368
265.22
228.358
199.674
179.07
164.512
154.235
146.919
141.509
137.802
516.668
473.762
431.414
397.272
370.376
349.419
332.953
320.253
309.893
303.172
4890.35
4878.96
4864.88
4850.69
4837.5
4825.86
4815.84
4807.46
4800.46
4794.96
4057.33
4057.61
4057.88
4058.19
4058.53
4058.85
4059.15
4059.54
4060.3
4061.45
222.478
222.662
222.765
222.799
222.764
222.669
222.516
222.282
221.931
221.328
111.16
111.124
111.116
111.106
111.089
111.085
111.105
111.128
111.074
110.999
110.598
110.263
109.798
109.217
108.584
107.965
107.396
106.885
106.435
106.133
118.176
117.327
116.164
114.841
113.535
112.365
111.372
110.546
109.728
109.075
132.493
129.873
126.656
123.31
120.248
117.634
115.475
113.715
112.227
111.183
151.041
146.092
139.986
134.131
129.097
125.007
121.76
119.244
117.033
115.359
187.156