/*--------------------------------*- C++ -*----------------------------------*\
| =========                 |                                                 |
| \\      /  F ield         | foam-extend: Open Source CFD                    |
|  \\    /   O peration     | Version:     4.0                                |
|   \\  /    A nd           | Web:         http://www.foam-extend.org         |
|    \\/     M anipulation  |                                                 |
\*---------------------------------------------------------------------------*/
FoamFile
{
    version     2.0;
    format      ascii;
    class       volScalarField;
    location    "900";
    object      k;
}
// * * * * * * * * * * * * * * * * * * * * * * * * * * * * * * * * * * * * * //

dimensions      [0 2 -2 0 0 0 0];

internalField   nonuniform List<scalar> 
34480
(
8.75726
8.75486
8.75458
8.75632
8.76011
8.76604
8.78109
8.84587
9.07097
9.68297
9.32993
8.70877
8.61226
8.89149
9.49407
10.3878
12.0002
15.9517
28.9596
67.4979
15.0764
13.6179
13.1781
13.3315
13.9101
14.9546
17.3022
23.0193
41.8148
101.665
14.4984
12.9949
12.5568
12.7593
13.4788
14.9039
18.0893
25.5036
49.3716
127.82
13.4049
12.019
11.6829
11.9602
12.8211
14.5418
18.3271
27.0418
55.3891
151.552
12.1832
10.9396
10.6414
10.9325
11.8314
13.7336
17.9936
27.9871
61.2324
176.733
11.2802
10.188
9.9457
10.2276
11.1268
13.0985
17.6193
28.4926
65.7287
198.188
9.80904
8.99184
8.79473
9.0142
9.7284
11.4034
15.5179
26.2065
64.8199
205.961
6.87358
6.60988
6.56309
6.6744
7.00563
7.73566
9.75079
16.3418
43.6603
150.181
9.23418
9.23341
9.23843
9.25067
9.26835
9.28988
9.31565
9.3541
9.42544
9.49921
8.66872
8.66591
8.66526
8.66699
8.6717
8.67966
8.6927
8.72427
8.79976
9.06312
7.98295
7.55343
7.45621
7.61288
8.06182
8.90819
10.3566
12.1765
15.5617
41.6871
12.2947
11.2354
10.9454
11.1509
11.8345
13.1037
15.3114
18.2197
23.9241
66.8335
12.1705
11.0179
10.7067
10.9556
11.7683
13.3293
16.1214
20.1031
28.4888
86.3951
11.5981
10.4862
10.2302
10.5147
11.4178
13.1726
16.3758
21.1523
31.9283
104.419
10.789
9.76141
9.51656
9.79872
10.7072
12.5474
16.0331
21.5227
34.9463
123.917
10.1863
9.25599
9.04817
9.30865
10.1904
12.0302
15.6531
21.6005
37.2358
141.298
9.03481
8.32748
8.14912
8.34491
9.02844
10.5356
13.6988
19.3316
35.8738
147.968
6.63829
6.39466
6.34174
6.41717
6.68432
7.2763
8.63368
11.5953
22.6367
103.136
9.10767
9.10215
9.10197
9.10859
9.12082
9.1365
9.15713
9.19241
9.26493
9.4508
8.56727
8.56471
8.56381
8.56476
8.56778
8.57224
8.57758
8.59085
8.62026
8.6875
6.82616
6.60741
6.55062
6.62545
6.85744
7.30625
8.10598
9.41199
11.2214
16.6665
9.75247
9.13185
8.97876
9.14702
9.66917
10.6289
12.2501
14.6477
17.6427
29.4241
9.92824
9.19931
9.01827
9.23546
9.89969
11.1629
13.3637
16.7149
21.179
40.9032
9.77079
9.0303
8.87459
9.11719
9.8634
11.3183
13.9345
18.008
23.8288
52.3079
9.32692
8.61513
8.45475
8.69878
9.46139
11.0199
13.9512
18.6812
26.0811
64.9609
8.99939
8.3304
8.19066
8.41866
9.16753
10.7477
13.8509
19.0066
27.8114
77.0417
8.18263
7.66456
7.53928
7.71322
8.29381
9.58675
12.3113
17.2104
26.7441
83.1753
6.36812
6.17856
6.1396
6.20168
6.41485
6.88358
7.94229
10.3989
16.7805
57.5177
8.98887
8.98045
8.97729
8.98067
8.98987
9.00272
9.02033
9.05337
9.13142
9.33099
8.45225
8.45085
8.4504
8.45114
8.45313
8.45528
8.45601
8.45955
8.46876
8.48873
6.03996
5.94469
5.91592
5.9457
6.04553
6.23832
6.57815
7.16769
8.05026
10.0006
7.86017
7.54595
7.47268
7.56781
7.86999
8.43509
9.39011
10.8795
12.7222
17.2121
8.16175
7.74965
7.64825
7.78716
8.21556
9.04193
10.4808
12.7818
15.6379
23.6319
8.26245
7.8137
7.72139
7.88273
8.38566
9.38053
11.1765
14.1372
17.9115
30.1418
8.08587
7.62818
7.5232
7.69413
8.22925
9.33751
11.4366
15.0469
19.8927
37.6299
7.9667
7.51322
7.4181
7.58339
8.12581
9.28101
11.5628
15.6229
21.3982
44.9571
7.43698
7.07395
6.98457
7.1157
7.54405
8.49871
10.5132
14.4266
20.6996
48.8492
6.12721
5.98216
5.95279
5.99967
6.15892
6.50142
7.2372
9.00961
13.0248
33.2027
8.8555
8.84716
8.8438
8.84669
8.8554
8.86871
8.88713
8.9205
8.99296
9.14812
8.32516
8.32482
8.32477
8.32522
8.32617
8.32634
8.32442
8.32309
8.32309
8.32529
5.55818
5.5213
5.50729
5.51627
5.55171
5.62012
5.73722
5.93375
6.21062
6.67914
6.60412
6.46531
6.4342
6.47377
6.60971
6.86859
7.3103
8.02401
8.92449
10.4349
6.90189
6.68889
6.63367
6.70467
6.93228
7.37633
8.1541
9.44827
11.074
14.0659
7.11623
6.86354
6.81016
6.89929
7.18703
7.75891
8.7968
10.5986
12.9046
17.7866
7.10155
6.82258
6.75386
6.85667
7.18365
7.86159
9.15004
11.5038
14.6321
22.2258
7.1162
6.82119
6.75593
6.86033
7.20886
7.94733
9.40286
12.1689
16.0017
26.6315
6.80808
6.56168
6.4973
6.58529
6.87067
7.49821
8.80304
11.5114
15.7207
29.0333
5.91515
5.80566
5.78317
5.81566
5.92811
6.16361
6.63853
7.75784
10.1308
19.307
8.71253
8.70441
8.70093
8.70337
8.71147
8.72454
8.74259
8.77353
8.83442
8.94624
8.18686
8.18734
8.1876
8.18784
8.18802
8.18683
8.18433
8.18176
8.17957
8.17812
5.28292
5.27037
5.26355
5.26515
5.27582
5.29757
5.33421
5.39231
5.46728
5.5689
5.83497
5.78324
5.77353
5.78626
5.83651
5.93324
6.09769
6.36346
6.70544
7.18596
6.0646
5.96389
5.9361
5.96834
6.07607
6.28461
6.64298
7.23995
8.01031
9.13772
6.29344
6.1622
6.13439
6.17886
6.32795
6.61928
7.13689
8.04859
9.25405
11.2141
6.35532
6.19543
6.15316
6.2106
6.39531
6.77082
7.46736
8.76894
10.5554
13.8029
6.43998
6.25775
6.21577
6.27741
6.48708
6.92055
7.74951
9.36927
11.6696
16.3848
6.28969
6.13059
6.08683
6.1431
6.32327
6.70859
7.47711
9.10471
11.6789
17.7748
5.73075
5.65059
5.63441
5.65621
5.73357
5.8911
6.18959
6.84695
8.11429
11.8706
8.55903
8.55139
8.54799
8.55009
8.5575
8.56979
8.58675
8.61415
8.66167
8.73584
8.03789
8.03894
8.03942
8.0395
8.03917
8.0375
8.03516
8.03265
8.03035
8.02851
5.1339
5.13006
5.12636
5.12587
5.1284
5.13488
5.14597
5.16306
5.18288
5.20486
5.39162
5.37711
5.37651
5.3789
5.39327
5.4223
5.47266
5.55297
5.65362
5.7783
5.54088
5.49662
5.4835
5.49692
5.54435
5.63475
5.78439
6.02312
6.32587
6.70142
5.73484
5.6718
5.65899
5.6793
5.75119
5.88786
6.12065
6.51772
7.045
7.76106
5.81824
5.7316
5.70699
5.73718
5.83578
6.03054
6.37553
7.00326
7.88091
9.19192
5.92797
5.82058
5.7951
5.82927
5.94928
6.18954
6.62605
7.45997
8.66881
10.661
5.88111
5.78347
5.75522
5.78947
5.89786
6.12283
6.54789
7.42106
8.81991
11.4758
5.57701
5.51975
5.50867
5.52271
5.57459
5.67746
5.86293
6.23831
6.89845
8.3326
8.39445
8.38751
8.38432
8.38613
8.39276
8.40379
8.419
8.44234
8.47853
8.52737
7.87861
7.87996
7.88059
7.88057
7.87992
7.87843
7.87653
7.8745
7.87266
7.87111
5.05608
5.05483
5.05247
5.05172
5.05224
5.05437
5.05824
5.06426
5.07054
5.07639
5.14658
5.14581
5.14829
5.14764
5.14948
5.15492
5.16643
5.18602
5.2097
5.23666
5.22843
5.21017
5.20427
5.20958
5.22983
5.26794
5.32862
5.4193
5.52727
5.64081
5.37274
5.34503
5.34015
5.34872
5.38166
5.44258
5.5417
5.70056
5.90311
6.1356
5.44899
5.40463
5.39104
5.40619
5.45676
5.55384
5.71731
5.99657
6.37852
6.86243
5.55719
5.49666
5.4821
5.50001
5.56626
5.69476
5.91553
6.31181
6.87639
7.65105
5.57236
5.5158
5.49858
5.51853
5.58091
5.70698
5.93359
6.37036
7.05806
8.14062
5.45374
5.41364
5.40645
5.41521
5.44945
5.51569
5.6306
5.84377
6.19158
6.76044
8.21828
8.2122
8.20935
8.21088
8.21663
8.22607
8.23916
8.25828
8.28521
8.3178
7.70937
7.71054
7.71125
7.71117
7.71054
7.70942
7.708
7.70649
7.70515
7.70394
5.01581
5.01533
5.0136
5.01307
5.01331
5.01441
5.01645
5.01962
5.02271
5.02503
5.01563
5.01886
5.02185
5.02077
5.01925
5.01803
5.0184
5.02103
5.02442
5.02866
5.04983
5.04267
5.04005
5.04216
5.05092
5.06735
5.09269
5.12815
5.16696
5.20122
5.14789
5.13705
5.13585
5.13919
5.1538
5.18025
5.22169
5.28369
5.35757
5.4287
5.20616
5.18481
5.17767
5.18501
5.21024
5.25752
5.33388
5.455
5.61288
5.78382
5.30029
5.26752
5.25967
5.26861
5.30431
5.37171
5.48208
5.6653
5.91382
6.19671
5.34894
5.31836
5.30853
5.31971
5.35406
5.42204
5.53989
5.75116
6.07132
6.49634
5.35883
5.33107
5.32666
5.33203
5.35454
5.39711
5.46847
5.59019
5.77525
6.02241
8.03009
8.02498
8.02254
8.02382
8.02862
8.03636
8.04716
8.06223
8.08176
8.10342
7.52994
7.53088
7.53146
7.53142
7.53098
7.53018
7.52917
7.52811
7.52717
7.52623
4.99444
4.9942
4.99298
4.99265
4.99293
4.99383
4.99541
4.99777
5.00006
5.00142
4.94763
4.95135
4.95394
4.95315
4.95133
4.94907
4.94719
4.9461
4.94529
4.94512
4.95207
4.9493
4.94811
4.94902
4.95309
4.96072
4.97219
4.98734
5.00254
5.01378
5.01412
5.01059
5.01075
5.01198
5.01845
5.03003
5.04763
5.07224
5.09917
5.12114
5.05352
5.04397
5.04039
5.04388
5.05627
5.07908
5.11476
5.16755
5.23267
5.2955
5.1301
5.11288
5.10885
5.11319
5.13228
5.16752
5.22305
5.30843
5.41706
5.52113
5.19428
5.1792
5.17405
5.18012
5.19819
5.2334
5.29305
5.39325
5.53834
5.7096
5.28866
5.26944
5.2669
5.27025
5.28524
5.31294
5.35761
5.42801
5.52665
5.64291
7.8296
7.82549
7.82351
7.82454
7.82838
7.83445
7.84303
7.85447
7.86826
7.88244
7.34003
7.34079
7.34126
7.34124
7.34095
7.3404
7.3397
7.33898
7.33834
7.3376
4.98226
4.98217
4.98134
4.98116
4.98148
4.9823
4.98365
4.98559
4.98753
4.98844
4.91315
4.91633
4.91834
4.91791
4.91656
4.91475
4.91304
4.91171
4.91065
4.91005
4.90101
4.89989
4.8993
4.89977
4.90189
4.90583
4.91163
4.91894
4.92578
4.92998
4.93802
4.9372
4.93765
4.93811
4.94117
4.94661
4.95462
4.96507
4.97526
4.98232
4.96206
4.95816
4.95641
4.95808
4.96418
4.97524
4.99208
5.0155
5.0427
5.06773
5.02244
5.01345
5.01145
5.01359
5.02397
5.04275
5.07133
5.11234
5.16072
5.20091
5.09196
5.08554
5.08319
5.08642
5.09545
5.11285
5.14191
5.18823
5.25176
5.32496
5.23874
5.22527
5.2239
5.22613
5.23643
5.25492
5.28335
5.32488
5.37746
5.43535
7.61663
7.61349
7.61196
7.61276
7.61568
7.62028
7.62683
7.6352
7.64468
7.65378
7.13937
7.13999
7.14036
7.14036
7.14017
7.1398
7.13934
7.13885
7.13842
7.13782
4.97448
4.97453
4.97402
4.97394
4.97425
4.97494
4.97605
4.97763
4.97928
4.97984
4.89603
4.8985
4.89996
4.89979
4.89895
4.89779
4.89666
4.89576
4.89515
4.89482
4.87577
4.87526
4.87496
4.87523
4.87644
4.87867
4.88188
4.88581
4.88938
4.89122
4.89675
4.89667
4.89698
4.8972
4.89888
4.90186
4.90608
4.91117
4.91546
4.91793
4.90999
4.90857
4.90773
4.90857
4.91164
4.91713
4.92525
4.93592
4.94746
4.9584
4.95749
4.95262
4.9516
4.95277
4.95869
4.96918
4.98458
5.00535
5.02777
5.04431
5.0272
5.02524
5.02447
5.02619
5.03042
5.03852
5.05182
5.07226
5.09809
5.13163
5.20438
5.19472
5.19405
5.19569
5.20312
5.21586
5.23441
5.2596
5.28768
5.31811
7.39112
7.38886
7.38776
7.38834
7.39043
7.39384
7.39864
7.40455
7.41087
7.41662
6.92772
6.92823
6.92852
6.92853
6.92841
6.92817
6.92786
6.92754
6.92725
6.92675
4.96879
4.96899
4.96874
4.96872
4.96898
4.96951
4.97037
4.9716
4.97296
4.9732
4.88766
4.8895
4.89053
4.89052
4.89006
4.88941
4.88878
4.88828
4.88809
4.88804
4.86418
4.86393
4.86378
4.86395
4.86466
4.86594
4.86778
4.86999
4.87205
4.87301
4.87556
4.87549
4.87556
4.87571
4.87682
4.87878
4.88145
4.88445
4.88665
4.88773
4.88198
4.88154
4.88111
4.88155
4.88318
4.88602
4.8901
4.89515
4.90015
4.90547
4.92009
4.91719
4.91661
4.91737
4.92102
4.92732
4.93619
4.94754
4.95872
4.96628
4.98772
4.98782
4.98788
4.98881
4.99065
4.99407
4.99949
5.0077
5.01639
5.0333
5.18115
5.17406
5.17379
5.17515
5.18075
5.18985
5.20236
5.21817
5.2332
5.25042
7.1532
7.15162
7.1509
7.15129
7.15273
7.15518
7.15858
7.16259
7.16666
7.17023
6.70491
6.70533
6.70556
6.70557
6.7055
6.70534
6.70514
6.70493
6.70474
6.7043
4.9641
4.96447
4.96442
4.96445
4.96464
4.96501
4.96562
4.96653
4.96764
4.96757
4.88362
4.88497
4.88566
4.88573
4.88552
4.88522
4.88494
4.88473
4.88482
4.88499
4.85949
4.85939
4.85934
4.85944
4.85982
4.86051
4.8615
4.86272
4.86396
4.86458
4.86536
4.86513
4.865
4.86513
4.86596
4.86742
4.86935
4.87142
4.87285
4.87354
4.86786
4.86772
4.86748
4.86773
4.86864
4.87021
4.87237
4.8749
4.87715
4.88008
4.89937
4.8974
4.897
4.89759
4.90003
4.90411
4.90964
4.91643
4.92262
4.92683
4.96401
4.96489
4.96536
4.9659
4.96659
4.96778
4.96946
4.97209
4.97325
4.98308
5.16528
5.15999
5.15999
5.16122
5.16553
5.1723
5.18105
5.19138
5.19936
5.21021
6.90306
6.90196
6.90149
6.90175
6.90275
6.90445
6.90674
6.90935
6.91188
6.91406
6.47087
6.47122
6.47139
6.4714
6.47136
6.47126
6.47113
6.47099
6.47086
6.47048
4.95993
4.96047
4.96056
4.96063
4.96075
4.96098
4.96138
4.962
4.96291
4.96255
4.88167
4.88263
4.88306
4.88316
4.88311
4.88303
4.88298
4.88297
4.88324
4.88358
4.85813
4.85813
4.85815
4.85819
4.85835
4.85865
4.8591
4.85971
4.86046
4.86096
4.8609
4.86052
4.86028
4.86037
4.86102
4.86215
4.86361
4.86515
4.86625
4.86685
4.86132
4.86122
4.86105
4.86119
4.86174
4.86267
4.8639
4.86526
4.86635
4.86818
4.88802
4.88651
4.8862
4.88668
4.88841
4.89121
4.89489
4.89928
4.90315
4.90616
4.94917
4.95018
4.95082
4.95117
4.95137
4.9516
4.95166
4.95193
4.95004
4.95678
5.15383
5.14983
5.15001
5.15115
5.15458
5.15978
5.16613
5.17316
5.17725
5.18504
6.64091
6.64019
6.63988
6.64006
6.64072
6.64184
6.64331
6.64493
6.64641
6.64773
6.22566
6.22595
6.22607
6.22608
6.22606
6.226
6.22591
6.22582
6.22573
6.2254
4.95603
4.95673
4.95692
4.95702
4.95709
4.9572
4.95742
4.9578
4.95857
4.95796
4.88063
4.88129
4.88153
4.88162
4.88166
4.88172
4.88182
4.88193
4.88232
4.88283
4.85828
4.85834
4.85838
4.85839
4.85841
4.85846
4.85859
4.85883
4.85928
4.85981
4.85922
4.85879
4.85851
4.85857
4.85905
4.8599
4.86099
4.86214
4.86302
4.86362
4.85865
4.85852
4.85839
4.85846
4.85881
4.85939
4.86013
4.86092
4.8615
4.86277
4.88136
4.88014
4.87987
4.88025
4.88149
4.88346
4.88598
4.88894
4.89158
4.8942
4.9384
4.93926
4.93992
4.94018
4.94022
4.94012
4.93962
4.93907
4.93621
4.94145
5.14453
5.14151
5.14178
5.14285
5.14564
5.14975
5.15451
5.15946
5.16131
5.1676
6.36709
6.36664
6.36645
6.36656
6.36698
6.36766
6.36856
6.3695
6.37031
6.37109
5.96956
5.9698
5.96989
5.96991
5.96989
5.96986
5.9698
5.96974
5.96967
5.96939
4.95222
4.95306
4.95329
4.95342
4.95345
4.95347
4.95355
4.95375
4.95444
4.95368
4.87984
4.88025
4.88036
4.88042
4.8805
4.88064
4.88081
4.88101
4.88144
4.88212
4.859
4.85905
4.85909
4.85907
4.85902
4.85895
4.85891
4.85897
4.85925
4.85988
4.85879
4.85838
4.85812
4.85815
4.85848
4.85906
4.85982
4.86064
4.86133
4.86193
4.85785
4.85771
4.85759
4.85763
4.85784
4.85819
4.85864
4.85911
4.85945
4.86034
4.87649
4.8755
4.87526
4.87553
4.87639
4.87772
4.87941
4.88138
4.88325
4.88567
4.92847
4.92906
4.92967
4.92989
4.9299
4.92973
4.92916
4.92846
4.9256
4.92982
5.13535
5.13311
5.13342
5.13442
5.1367
5.13998
5.14362
5.14716
5.14766
5.15309
6.08214
6.08188
6.08176
6.08183
6.08207
6.08246
6.08296
6.08345
6.08385
6.08431
5.70328
5.70346
5.70352
5.70353
5.70352
5.7035
5.70346
5.70342
5.70336
5.70312
4.94815
4.94903
4.94928
4.94943
4.94945
4.9494
4.94936
4.94942
4.95005
4.94937
4.87887
4.87906
4.87908
4.87911
4.8792
4.87935
4.87955
4.87978
4.88015
4.88095
4.8597
4.85968
4.85969
4.85965
4.85958
4.85948
4.8594
4.85939
4.85959
4.86034
4.85883
4.85849
4.85829
4.85829
4.85849
4.85885
4.85933
4.85987
4.86036
4.86092
4.85789
4.85777
4.85768
4.85769
4.8578
4.85799
4.85823
4.85848
4.85868
4.85924
4.87161
4.87086
4.87066
4.87083
4.87135
4.87217
4.87319
4.87439
4.87566
4.8778
4.91723
4.91757
4.91806
4.91823
4.91823
4.91805
4.91755
4.9169
4.91449
4.91769
5.1234
5.12184
5.12214
5.12304
5.12486
5.12742
5.13017
5.13261
5.13228
5.13694
5.78689
5.78675
5.78668
5.78672
5.78684
5.78703
5.78729
5.7875
5.78767
5.78792
5.42754
5.42777
5.42781
5.42782
5.42781
5.4278
5.42778
5.42775
5.4277
5.42753
4.94229
4.943
4.94333
4.94351
4.94353
4.94344
4.9433
4.9432
4.94361
4.94342
4.87735
4.87732
4.87728
4.87727
4.87733
4.87747
4.87766
4.87787
4.87812
4.87883
4.85994
4.85983
4.85981
4.85977
4.85971
4.85964
4.85957
4.85957
4.85974
4.86054
4.85904
4.8588
4.85868
4.85867
4.85877
4.85896
4.85922
4.85952
4.85984
4.86027
4.85831
4.85823
4.85818
4.85818
4.85822
4.85829
4.85838
4.85847
4.85856
4.85885
4.86614
4.86565
4.86551
4.86559
4.86585
4.86626
4.86676
4.86735
4.86809
4.86975
4.90349
4.90361
4.90392
4.904
4.90391
4.90367
4.90321
4.90265
4.90103
4.90308
5.1014
5.10043
5.10068
5.10142
5.10276
5.1046
5.10652
5.10799
5.10718
5.11074
5.48233
5.48226
5.48224
5.48225
5.48229
5.48235
5.48242
5.48249
5.48255
5.48268
5.1425
5.14259
5.14259
5.14259
5.14259
5.14259
5.14259
5.14258
5.14258
5.1425
4.92671
4.92714
4.92766
4.92792
4.92798
4.92786
4.9276
4.92727
4.92699
4.92754
4.87416
4.87391
4.87376
4.87369
4.8737
4.8738
4.87397
4.87419
4.87442
4.87488
4.85981
4.85969
4.85965
4.85963
4.8596
4.85957
4.85954
4.85955
4.85966
4.86029
4.85945
4.85933
4.85926
4.85926
4.8593
4.85938
4.8595
4.85963
4.8598
4.86005
4.85899
4.85896
4.85894
4.85894
4.85894
4.85895
4.85896
4.85896
4.85897
4.85907
4.86154
4.86133
4.86126
4.86128
4.86138
4.86153
4.8617
4.8619
4.86221
4.86311
4.8867
4.88662
4.8867
4.88667
4.88651
4.88622
4.88581
4.8854
4.88479
4.88596
5.04538
5.04489
5.04505
5.04551
5.0463
5.04736
5.04845
5.04914
5.04837
5.05021
5.16853
5.1685
5.16851
5.16851
5.16851
5.16851
5.16851
5.1685
5.16848
5.16855
11.2557
11.3687
11.323
11.1091
82.7343
84.6991
85.1197
85.8306
142.676
147.962
148.348
147.135
202.04
211.222
210.976
206.657
263.562
276.9
275.56
267.962
331.734
349.614
347.448
338.656
393.915
416.118
413.712
406.133
431.834
457.652
455.74
450.837
344.901
367.17
364.761
363.07
11.463
11.7003
11.5454
11.1418
9.70628
9.76349
9.76549
9.72212
76.2345
79.2123
79.8879
80.0641
133.668
144.193
145.157
143.016
192.377
213.496
213.864
207.941
255.488
289.687
288.543
278.476
328.877
378.736
377.015
364.143
398.941
464.873
464.107
450.939
445.588
525.872
527.293
515.779
350.648
422.04
420.679
415.411
10.705
10.9351
10.8661
10.6439
8.76824
8.78049
8.779
8.76739
26.6284
28.9443
28.1613
25.6704
49.3228
53.5619
51.8248
47.1758
74.3918
80.9464
77.7426
70.2474
103.163
112.463
107.187
96.0971
139.158
152.244
144.571
128.618
177.072
194.096
183.904
162.752
207.508
228.284
216.009
190.263
165.045
181.584
170.097
149.014
9.90514
9.99562
9.97198
9.87208
8.50252
8.50479
8.5052
8.50406
11.5271
11.7332
11.6802
11.4875
21.2309
21.8845
21.7821
21.2438
31.9483
33.3487
33.0523
31.7393
44.4071
46.7467
46.0331
43.506
60.5247
64.19
62.8141
58.481
77.9594
82.9526
80.6175
74.1322
92.5976
99.0089
95.6397
86.8719
72.102
77.116
73.5283
65.834
9.4412
9.48557
9.48232
9.44185
8.32375
8.32476
8.32487
8.32403
7.07275
7.14845
7.16343
7.13262
11.6991
11.9648
12.0285
11.9396
16.8625
17.4414
17.5195
17.2493
22.8031
23.7868
23.7992
23.1897
30.6767
32.2667
32.1293
30.9301
39.1905
41.3882
40.9414
38.9431
46.2882
49.1836
48.3316
45.3189
34.4837
36.6645
35.4406
32.5188
9.09185
9.11579
9.11739
9.10056
8.17406
8.17493
8.17493
8.17401
5.6284
5.63638
5.63696
5.6339
7.48085
7.53867
7.56215
7.55987
9.94926
10.1195
10.176
10.1464
12.8339
13.1676
13.2435
13.1381
16.7968
17.4043
17.4847
17.2111
21.049
21.9393
21.9526
21.4151
24.5132
25.7607
25.6483
24.6986
17.5276
18.4161
18.0494
17.0278
8.8074
8.81931
8.82172
8.81575
8.02407
8.02491
8.02489
8.02401
5.21163
5.21187
5.21045
5.20859
5.84198
5.85269
5.85713
5.85717
6.92958
6.97741
6.99787
6.99622
8.27025
8.37907
8.41945
8.40689
10.2481
10.4753
10.5429
10.4912
12.3759
12.7265
12.7956
12.6729
14.0884
14.6146
14.6606
14.3906
10.2481
10.5888
10.5073
10.2088
8.56103
8.56648
8.56863
8.56741
7.86676
7.86757
7.86757
7.86675
5.07382
5.07335
5.07206
5.07055
5.24546
5.2454
5.24483
5.24445
5.69614
5.70643
5.71096
5.71113
6.27666
6.30634
6.31969
6.32013
7.20947
7.28681
7.3177
7.31114
8.23372
8.3591
8.40063
8.38092
9.09808
9.30641
9.35378
9.28616
7.35303
7.47117
7.466
7.39701
8.33401
8.33625
8.33778
8.33816
7.69974
7.70049
7.7005
7.69977
5.02126
5.02118
5.02028
5.01892
5.02814
5.027
5.02604
5.02557
5.21301
5.21439
5.21479
5.21473
5.46349
5.47018
5.47356
5.47445
5.89273
5.91752
5.92896
5.92885
6.37295
6.41246
6.42981
6.43017
6.82807
6.90568
6.93126
6.91592
6.20676
6.24468
6.25063
6.23917
8.11167
8.11241
8.11335
8.11406
7.52223
7.5229
7.52292
7.52228
4.99762
4.9978
4.99714
4.99589
4.9439
4.94314
4.9425
4.94211
5.01579
5.01555
5.01527
5.0152
5.12914
5.13028
5.13096
5.13141
5.3325
5.34096
5.34515
5.34534
5.56963
5.58073
5.58703
5.58946
5.82975
5.85917
5.8707
5.86628
5.70419
5.71427
5.71838
5.71912
7.88674
7.8868
7.88734
7.88799
7.33382
7.33442
7.33444
7.33389
4.98481
4.98512
4.9846
4.98342
4.90935
4.90899
4.90861
4.90827
4.93005
4.92972
4.92948
4.92946
4.98422
4.98432
4.98443
4.98465
5.08355
5.08722
5.08904
5.08897
5.21353
5.21644
5.21875
5.22051
5.37793
5.39086
5.39597
5.3932
5.45834
5.45879
5.46049
5.46324
7.65596
7.65574
7.65604
7.65655
7.1343
7.13482
7.13484
7.13437
4.97641
4.97676
4.97631
4.9752
4.89458
4.89447
4.89423
4.89391
4.89102
4.89082
4.89068
4.89069
4.91848
4.91847
4.9185
4.91861
4.96713
4.96921
4.97019
4.97002
5.04742
5.04813
5.0491
5.05022
5.16235
5.16947
5.17188
5.16923
5.3285
5.32576
5.32607
5.32876
7.41756
7.41729
7.41744
7.4178
6.92353
6.92398
6.92399
6.92359
4.96999
4.97032
4.96991
4.96887
4.88808
4.8881
4.88794
4.88762
4.87288
4.87278
4.87271
4.87273
4.88793
4.88793
4.88795
4.88801
4.91112
4.9125
4.91311
4.91292
4.96705
4.9672
4.9677
4.96843
5.05557
5.06038
5.06159
5.05894
5.25633
5.25278
5.25245
5.25467
7.1704
7.17019
7.17027
7.17048
6.70143
6.70181
6.70182
6.70148
4.96459
4.96487
4.96448
4.96352
4.88517
4.88525
4.88512
4.8848
4.86454
4.86451
4.86449
4.86449
4.87354
4.87352
4.87354
4.87359
4.88398
4.88492
4.88531
4.88513
4.92721
4.92723
4.92753
4.92803
5.00148
5.00521
5.00583
5.00318
5.21449
5.21106
5.21048
5.21214
6.91372
6.91365
6.91368
6.91375
6.46802
6.46833
6.46833
6.46804
4.9598
4.96001
4.95963
4.95877
4.88385
4.88396
4.88385
4.88351
4.86101
4.86102
4.86101
4.861
4.86667
4.86661
4.86661
4.86667
4.87088
4.87149
4.87173
4.87158
4.90669
4.9067
4.9069
4.90724
4.97311
4.97628
4.97659
4.97391
5.18891
5.18604
5.18539
5.18643
6.64705
6.64713
6.64715
6.64708
6.22341
6.22365
6.22363
6.22339
4.95544
4.95557
4.9552
4.95445
4.8832
4.88333
4.88323
4.88288
4.8599
4.85992
4.85991
4.85989
4.8633
4.86319
4.86318
4.86327
4.86457
4.86493
4.86507
4.86496
4.89503
4.89505
4.89519
4.89541
4.95649
4.95941
4.95954
4.95681
5.17174
5.16972
5.16913
5.16946
6.37018
6.37042
6.37043
6.37025
5.96793
5.9681
5.96806
5.96786
4.9514
4.95145
4.95112
4.9505
4.88268
4.88286
4.88276
4.8824
4.85998
4.85998
4.85996
4.85993
4.86155
4.8614
4.86139
4.86153
4.86146
4.86163
4.86169
4.86166
4.8868
4.88686
4.88696
4.88707
4.94375
4.94661
4.94667
4.94386
5.15791
5.15699
5.15654
5.15605
6.08324
6.0836
6.08362
6.08336
5.70228
5.70236
5.70229
5.70214
4.94747
4.9475
4.94725
4.94676
4.8818
4.88205
4.88197
4.8816
4.86044
4.86041
4.86037
4.86033
4.86056
4.86041
4.86041
4.86059
4.85985
4.85989
4.85991
4.85995
4.87915
4.87927
4.87933
4.87934
4.92992
4.9328
4.93287
4.93006
5.14249
5.14299
5.14277
5.14132
5.78677
5.78722
5.78725
5.78694
5.42739
5.42736
5.42727
5.42718
4.94242
4.94259
4.94245
4.94201
4.87984
4.88016
4.88013
4.87979
4.86065
4.86058
4.86051
4.86047
4.86005
4.85992
4.85994
4.86012
4.85912
4.85908
4.85909
4.85916
4.87112
4.87127
4.87129
4.87123
4.91208
4.91463
4.91473
4.91232
5.11637
5.11866
5.11876
5.11612
5.48167
5.48219
5.48222
5.48188
5.14315
5.14292
5.14283
5.14289
4.92803
4.92859
4.92851
4.92775
4.87543
4.87567
4.8757
4.87555
4.8604
4.86031
4.86023
4.86019
4.86003
4.85997
4.85999
4.8601
4.8592
4.85918
4.85918
4.85922
4.86407
4.86418
4.86417
4.8641
4.89019
4.89147
4.89155
4.89035
5.05359
5.05726
5.05756
5.05403
5.16806
5.16862
5.16863
5.16825
10.1087
9.36114
9.04764
8.93457
8.86927
8.82299
8.79194
8.77397
8.76466
8.75945
103.685
49.0404
35.694
29.912
24.5298
19.9385
16.3671
13.7097
11.8182
10.4679
160.364
70.5128
50.8866
43.5721
37.0426
31.2981
26.4911
22.6431
19.6349
17.2968
205.353
82.2151
55.7195
46.4791
39.1189
32.5521
27.0552
22.706
19.358
16.8157
240.334
88.3392
58.5553
47.664
39.7551
32.4443
26.4415
21.7771
18.2419
15.6467
276.267
94.076
60.694
47.9524
39.454
31.4391
25.0813
20.2665
16.7431
14.2439
305.025
97.5472
61.4121
47.3814
38.5862
30.1229
23.6444
18.8618
15.4492
13.1173
313.062
93.2246
56.4072
41.8654
33.4948
25.4468
19.6845
15.6386
12.9449
11.1673
222.949
55.8133
30.4171
20.9512
16.1217
12.1192
9.89183
8.57488
7.78046
7.2647
9.5734
9.5426
9.38747
9.36035
9.31363
9.28742
9.26665
9.25542
9.2477
9.24098
9.35901
9.04782
8.89521
8.80943
8.75523
8.71924
8.69577
8.68164
8.6744
8.67022
53.1168
28.6722
22.5502
19.443
16.6723
14.2104
12.1847
10.6326
9.50411
8.7218
89.5759
46.0616
35.6634
30.9141
27.1009
23.4488
20.2506
17.6151
15.5126
13.9202
121.445
58.2414
42.657
35.4668
30.4039
25.643
21.601
18.3578
15.8369
13.9821
151.377
68.3033
47.6254
38.3243
32.1829
26.4954
21.8304
18.1892
15.4102
13.4343
185.19
78.3951
51.9271
40.261
33.0141
26.446
21.2771
17.3667
14.5007
12.5357
215.76
85.9785
54.5055
41.0058
33.0596
25.9129
20.4942
16.5154
13.67
11.7882
231.762
86.3226
51.7671
37.2707
29.3098
22.3508
17.411
13.9753
11.6933
10.2397
166.534
54.4999
28.9679
19.2732
14.5891
11.1551
9.23037
8.10238
7.41622
6.99127
9.81394
9.498
9.32779
9.2644
9.20963
9.17647
9.1524
9.13758
9.12702
9.11794
8.72787
8.68615
8.65321
8.62583
8.60436
8.58873
8.57829
8.57205
8.5689
8.56703
19.9725
16.5832
14.4976
12.6831
11.1219
9.82624
8.81866
8.0773
7.54641
7.18104
35.7913
28.6004
24.8268
21.6178
18.8685
16.4803
14.502
12.9146
11.6576
10.7145
50.743
37.7228
31.3784
26.2305
22.1705
18.7741
16.0516
13.9223
12.2819
11.0894
65.6868
45.4213
36.4448
29.4494
24.2541
20.02
16.7311
14.2315
12.3402
11.009
82.7053
53.0732
40.9725
31.9334
25.5883
20.5319
16.7399
13.9458
11.9216
10.5495
98.5277
58.9298
43.9847
33.2864
26.1569
20.5476
16.4753
13.5658
11.5074
10.1575
107.874
59.5703
42.4816
30.8527
23.6054
18.0862
14.329
11.7926
10.1266
9.06888
75.6346
36.5484
23.7946
16.1957
12.1628
9.64102
8.26325
7.45427
6.95056
6.63435
9.56507
9.37222
9.23918
9.15969
9.1025
9.06677
9.04187
9.02481
9.01208
9.00125
8.49902
8.48883
8.47771
8.46773
8.46013
8.45494
8.45172
8.45011
8.44995
8.45014
10.9556
10.1409
9.28536
8.44334
7.74104
7.20252
6.80756
6.5242
6.32099
6.18101
19.8098
17.9687
16.1217
14.2665
12.6689
11.3545
10.3043
9.47965
8.83258
8.35079
28.3376
24.5059
21.0907
17.9211
15.3562
13.2997
11.6888
10.4479
9.50122
8.8199
37.0307
30.5011
25.3142
20.7803
17.3015
14.5866
12.5225
10.9814
9.82484
9.01405
47.2188
36.8078
29.4176
23.2765
18.789
15.3738
12.8628
11.0479
9.74673
8.86792
56.7774
41.9198
32.4476
24.9165
19.6642
15.7474
12.9603
11.0118
9.64362
8.7435
62.5418
43.1618
32.0157
23.6327
18.1548
14.2394
11.63
9.90618
8.77686
8.05104
42.5959
26.1485
17.924
12.7489
9.99156
8.36967
7.45834
6.90793
6.5513
6.32202
9.32066
9.18348
9.07716
9.00804
8.96031
8.92899
8.90644
8.89018
8.87782
8.86752
8.32349
8.32193
8.32042
8.31925
8.31853
8.31823
8.31827
8.31879
8.32002
8.32162
7.00869
6.76539
6.5101
6.27317
6.07692
5.92213
5.80348
5.71438
5.64845
5.6037
11.5887
10.9002
10.129
9.36162
8.68501
8.12019
7.66687
7.31135
7.02989
6.81986
16.3784
14.8966
13.33
11.8326
10.5578
9.51514
8.69296
8.06084
7.57897
7.23442
21.444
18.8537
16.3039
13.9773
12.0873
10.5938
9.45661
8.61336
7.97835
7.53138
27.6646
23.3673
19.4635
16.0561
13.4152
11.3954
9.91119
8.84676
8.08296
7.56482
33.6193
27.3096
22.0214
17.6038
14.3396
11.9177
10.1992
9.0092
8.16759
7.60602
37.3054
28.7506
22.238
17.1273
13.6062
11.1315
9.48716
8.40512
7.68586
7.21323
24.4757
17.3105
12.7889
9.93994
8.3504
7.39525
6.82278
6.46128
6.21518
6.0536
9.04721
8.96511
8.89424
8.84374
8.80679
8.7803
8.76029
8.74519
8.73347
8.72385
8.17427
8.17442
8.17482
8.17542
8.17615
8.17694
8.17778
8.17883
8.18043
8.18244
5.61784
5.57188
5.51919
5.46736
5.42057
5.38034
5.34736
5.32162
5.303
5.29211
7.50383
7.30899
7.06161
6.80734
6.57672
6.38145
6.22358
6.09837
5.9953
5.91682
9.95935
9.45155
8.83797
8.22411
7.68059
7.22855
6.8683
6.58816
6.37108
6.21583
12.7059
11.7458
10.6467
9.59419
8.70361
7.992
7.44738
7.04132
6.72786
6.50359
16.2984
14.5874
12.7474
11.0608
9.69598
8.64314
7.86508
7.3035
6.89278
6.61051
19.8349
17.2272
14.5793
12.265
10.4795
9.14973
8.20088
7.54
7.05955
6.73096
22.109
18.4201
15.0055
12.2282
10.2361
8.83701
7.89596
7.26639
6.83458
6.54316
14.3859
11.5347
9.42506
8.04895
7.21301
6.67745
6.33048
6.10046
5.93549
5.82567
8.79298
8.74761
8.70401
8.66904
8.64112
8.61939
8.60217
8.58869
8.57796
8.56931
8.02451
8.0249
8.02551
8.02628
8.02713
8.028
8.02884
8.02985
8.03136
8.03329
5.20478
5.1947
5.18413
5.17326
5.16232
5.15192
5.14294
5.136
5.13196
5.13133
5.84454
5.79615
5.73434
5.66948
5.60865
5.55566
5.51198
5.47632
5.444
5.41825
6.95042
6.79095
6.58703
6.37485
6.17914
6.01066
5.87165
5.75943
5.66919
5.60455
8.2955
7.96095
7.54853
7.13923
6.78105
6.4883
6.25885
6.08292
5.93973
5.8343
10.2244
9.55875
8.78177
8.04444
7.42771
6.94282
6.576
6.30339
6.09598
5.95086
12.1975
11.1345
9.93996
8.86184
8.0017
7.35106
6.87605
6.53609
6.27643
6.0929
13.5412
11.97
10.3615
9.01571
8.01419
7.29681
6.79801
6.45183
6.20387
6.03214
9.43366
8.39176
7.51219
6.88825
6.46423
6.16983
5.96389
5.82083
5.71269
5.64025
8.55835
8.53436
8.5081
8.48423
8.4635
8.44624
8.43195
8.42035
8.41091
8.40341
7.86736
7.86774
7.86821
7.8688
7.86945
7.87009
7.87071
7.87147
7.87273
7.87443
5.06942
5.06619
5.06346
5.06063
5.05741
5.05407
5.05115
5.04916
5.0489
5.05057
5.24161
5.23192
5.22055
5.20827
5.19606
5.18516
5.17641
5.16918
5.16069
5.1532
5.70013
5.6568
5.59884
5.53421
5.47014
5.41143
5.36019
5.31654
5.27987
5.2539
6.29382
6.19407
6.06324
5.92573
5.79849
5.68945
5.6001
5.52843
5.46552
5.41751
7.23488
7.0022
6.71613
6.43151
6.18188
5.977
5.81466
5.68801
5.58661
5.51467
8.24707
7.85376
7.38017
6.93521
6.56426
6.27253
6.04972
5.88293
5.74702
5.6474
9.01319
8.39259
7.71912
7.13204
6.67266
6.32853
6.07662
5.89313
5.75538
5.65806
7.19589
6.8315
6.47668
6.19445
5.98023
5.81937
5.69874
5.6113
5.54161
5.495
8.33437
8.32142
8.30542
8.28927
8.27424
8.26098
8.24955
8.23997
8.23198
8.22571
7.70047
7.7008
7.70114
7.70153
7.70196
7.70237
7.70274
7.70324
7.70421
7.70565
5.01836
5.01646
5.01502
5.01359
5.01192
5.01019
5.00876
5.00796
5.00841
5.01016
5.02461
5.02288
5.0219
5.02089
5.01976
5.019
5.01904
5.0193
5.01774
5.01584
5.21193
5.20081
5.18514
5.16555
5.14408
5.12294
5.10338
5.08577
5.0704
5.05981
5.46866
5.4423
5.40502
5.36192
5.31867
5.27929
5.24542
5.21688
5.18932
5.16738
5.90627
5.8314
5.73527
5.63215
5.53525
5.45079
5.37999
5.32165
5.27246
5.23741
6.39752
6.26853
6.10012
5.9309
5.78008
5.65423
5.55249
5.47231
5.40207
5.34856
6.8284
6.60136
6.34335
6.10306
5.90187
5.74182
5.61781
5.52291
5.44839
5.39512
6.18715
6.0551
5.90911
5.77892
5.67011
5.58231
5.51221
5.45942
5.41499
5.38557
8.11214
8.10493