/*--------------------------------*- C++ -*----------------------------------*\
| =========                 |                                                 |
| \\      /  F ield         | foam-extend: Open Source CFD                    |
|  \\    /   O peration     | Version:     4.0                                |
|   \\  /    A nd           | Web:         http://www.foam-extend.org         |
|    \\/     M anipulation  |                                                 |
\*---------------------------------------------------------------------------*/
FoamFile
{
    version     2.0;
    format      ascii;
    class       volScalarField;
    location    "900";
    object      MaU;
}
// * * * * * * * * * * * * * * * * * * * * * * * * * * * * * * * * * * * * * //

dimensions      [0 0 0 0 0 0 0];

internalField   nonuniform List<scalar> 
34480
(
0.62205
0.623081
0.623642
0.623782
0.623506
0.622743
0.621353
0.618653
0.612578
0.606727
0.625203
0.62612
0.626632
0.626702
0.626176
0.624916
0.622941
0.619997
0.612955
0.607321
0.627096
0.627965
0.628405
0.628368
0.627688
0.626401
0.624688
0.622458
0.615469
0.610396
0.626848
0.627748
0.628278
0.628397
0.62797
0.627116
0.625934
0.624458
0.617923
0.613452
0.627005
0.628031
0.628729
0.629099
0.629023
0.628674
0.628064
0.627391
0.621697
0.617833
0.626296
0.627411
0.628228
0.628759
0.628946
0.629022
0.628963
0.629136
0.624672
0.621742
0.626228
0.627518
0.628472
0.629165
0.62958
0.630007
0.630453
0.631461
0.628486
0.62646
0.625473
0.626829
0.627758
0.628347
0.628649
0.629027
0.629623
0.631178
0.629749
0.628993
0.625169
0.626691
0.627733
0.628445
0.6289
0.629418
0.630252
0.632307
0.632178
0.631403
0.621373
0.622646
0.622889
0.622179
0.62069
0.618819
0.617049
0.616697
0.616231
0.617718
0.61215
0.613634
0.614226
0.613998
0.612878
0.610592
0.606514
0.599285
0.588608
0.574737
0.616488
0.617876
0.618447
0.618221
0.61701
0.614448
0.609935
0.602106
0.589434
0.573211
0.61926
0.620581
0.621116
0.620873
0.619609
0.617024
0.612611
0.604983
0.591528
0.574234
0.619826
0.621164
0.62178
0.621693
0.620662
0.618448
0.614464
0.607305
0.593522
0.575921
0.620666
0.622096
0.622854
0.623001
0.622296
0.620561
0.617124
0.610641
0.597008
0.579671
0.620501
0.622001
0.62287
0.62318
0.622734
0.621433
0.618559
0.61289
0.599853
0.583403
0.620887
0.622522
0.623512
0.623987
0.623774
0.622857
0.620532
0.615738
0.603673
0.588395
0.620451
0.622138
0.623113
0.623515
0.623251
0.622396
0.620364
0.616299
0.605454
0.59195
0.620376
0.622179
0.623248
0.623758
0.623659
0.623024
0.621376
0.618063
0.608507
0.595881
0.616753
0.618382
0.618901
0.618395
0.616922
0.614648
0.611326
0.606715
0.597646
0.588189
0.604471
0.606052
0.606629
0.606324
0.6051
0.602803
0.599132
0.593587
0.585523
0.575288
0.6091
0.610703
0.6113
0.610954
0.609551
0.606828
0.602273
0.595013
0.583577
0.568274
0.612154
0.613771
0.614377
0.614044
0.612596
0.609716
0.604779
0.596649
0.582637
0.562751
0.61322
0.614899
0.615596
0.615396
0.614099
0.611385
0.606473
0.597955
0.58185
0.557963
0.614548
0.616327
0.617156
0.61716
0.616118
0.613736
0.609087
0.600586
0.583033
0.555955
0.614813
0.616671
0.617611
0.617772
0.616953
0.614912
0.610627
0.602432
0.584036
0.554676
0.615571
0.617547
0.6186
0.618925
0.618323
0.616621
0.612759
0.605063
0.5864
0.555461
0.615434
0.617456
0.618509
0.618789
0.618165
0.616552
0.612967
0.605816
0.5874
0.555698
0.615603
0.6177
0.618826
0.619194
0.618692
0.617265
0.61404
0.607564
0.589821
0.556787
0.612206
0.614143
0.614864
0.614475
0.612963
0.610342
0.60597
0.59873
0.58156
0.548976
0.598818
0.600201
0.600681
0.600384
0.599305
0.597388
0.594534
0.590642
0.585683
0.580109
0.603196
0.604722
0.605266
0.604883
0.603507
0.60099
0.597077
0.591409
0.583519
0.574412
0.606118
0.607774
0.608365
0.607966
0.606456
0.603608
0.598989
0.591961
0.581341
0.568279
0.607396
0.609187
0.609878
0.60956
0.608076
0.605152
0.600165
0.592171
0.578942
0.561691
0.609008
0.610934
0.611747
0.611584
0.610245
0.607446
0.602376
0.593823
0.578387
0.55722
0.609581
0.611608
0.61253
0.612497
0.611308
0.608694
0.603699
0.594914
0.57772
0.553144
0.610626
0.612769
0.613794
0.613908
0.612889
0.610509
0.605714
0.596953
0.578518
0.551067
0.61075
0.612937
0.613973
0.61406
0.613027
0.610704
0.60605
0.597478
0.578383
0.548736
0.61113
0.613365
0.614458
0.614621
0.613691
0.611501
0.607037
0.598815
0.579721
0.547592
0.607967
0.610058
0.610869
0.610494
0.60886
0.605854
0.600624
0.591803
0.572922
0.539624
0.594832
0.595919
0.596285
0.596055
0.595249
0.593876
0.591949
0.589535
0.586777
0.58402
0.598675
0.599969
0.60043
0.600095
0.598939
0.596907
0.593924
0.589953
0.585032
0.580053
0.601169
0.602702
0.603247
0.602863
0.601481
0.598975
0.595127
0.589708
0.582416
0.574637
0.602395
0.604143
0.604801
0.604447
0.60297
0.600182
0.595687
0.589019
0.579229
0.5681
0.604069
0.606006
0.606787
0.606535
0.605088
0.602218
0.597338
0.589736
0.577591
0.562941
0.60479
0.60687
0.607763
0.607607
0.606222
0.603364
0.598276
0.59003
0.575769
0.55769
0.606001
0.608218
0.60921
0.609174
0.607897
0.605141
0.600008
0.591382
0.57537
0.554083
0.606309
0.608582
0.609598
0.609545
0.608248
0.60549
0.600327
0.591533
0.574275
0.55019
0.606854
0.609165
0.610227
0.610237
0.609015
0.606346
0.601241
0.592429
0.574565
0.547446
0.603907
0.606088
0.60696
0.606593
0.604886
0.601653
0.596027
0.586698
0.568627
0.539449
0.592043
0.592849
0.59311
0.592953
0.592405
0.591501
0.590286
0.588854
0.587332
0.585851
0.595317
0.596321
0.596683
0.596424
0.59554
0.594035
0.591923
0.58929
0.586318
0.583555
0.597269
0.598571
0.599037
0.598708
0.59755
0.595517
0.592546
0.588642
0.583897
0.579306
0.598276
0.599853
0.600444
0.600102
0.598759
0.596313
0.592574
0.587406
0.580601
0.573665
0.599838
0.601657
0.602374
0.602085
0.600671
0.597981
0.593663
0.587404
0.578487
0.568862
0.60057
0.602578
0.603412
0.603181
0.601743
0.598909
0.594165
0.587017
0.576043
0.563575
0.601836
0.604012
0.604946
0.604803
0.603402
0.600535
0.595534
0.587722
0.574888
0.55955
0.602243
0.604497
0.605468
0.605312
0.603869
0.600929
0.595736
0.587472
0.573152
0.555105
0.602901
0.6052
0.606211
0.606103
0.604704
0.601795
0.59654
0.587991
0.572712
0.551697
0.600138
0.602322
0.603211
0.602846
0.601116
0.597814
0.592175
0.583138
0.567373
0.544152
0.590067
0.590654
0.590833
0.590735
0.590388
0.589829
0.589101
0.588281
0.587444
0.586593
0.592855
0.593583
0.593851
0.593668
0.593041
0.591996
0.590583
0.588903
0.587127
0.585557
0.594268
0.5953
0.595675
0.595417
0.594514
0.592968
0.5908
0.588108
0.585097
0.582378
0.594985
0.596316
0.596818
0.596521
0.595388
0.593381
0.59045
0.586639
0.58207
0.57778
0.596323
0.597932
0.598561
0.598277
0.597
0.594649
0.59106
0.586175
0.579888
0.573673
0.596961
0.598797
0.599548
0.599287
0.597914
0.595304
0.591162
0.585307
0.577232
0.568849
0.59819
0.600228
0.60108
0.600876
0.599472
0.596716
0.592168
0.585501
0.575703
0.565003
0.598613
0.600756
0.601657
0.601437
0.599964
0.597065
0.592202
0.584908
0.573633
0.560627
0.599337
0.60154
0.602479
0.602294
0.600832
0.597904
0.592882
0.585144
0.572795
0.557254
0.596719
0.598824
0.599693
0.599334
0.597644
0.594431
0.589096
0.580884
0.567906
0.550433
0.588623
0.589058
0.589178
0.589121
0.588912
0.58858
0.588158
0.587695
0.587226
0.586682
0.591048
0.59155
0.591739
0.591618
0.591198
0.590507
0.589598
0.588551
0.587485
0.586555
0.591992
0.592763
0.593048
0.59286
0.592196
0.591081
0.589567
0.587767
0.585872
0.584237
0.592419
0.59348
0.593886
0.593647
0.592746
0.591188
0.588996
0.586285
0.583272
0.58062
0.593479
0.594828
0.595356
0.595104
0.594021
0.592082
0.589243
0.585583
0.581259
0.577279
0.593961
0.595559
0.596209
0.595953
0.594724
0.592461
0.58903
0.584439
0.578671
0.573113
0.595091
0.596916
0.597668
0.597441
0.596129
0.593638
0.589723
0.584293
0.577061
0.569736
0.595459
0.597412
0.598222
0.597973
0.596566
0.593878
0.589574
0.583451
0.574901
0.565757
0.59621
0.598245
0.599095
0.598868
0.59744
0.594669
0.590137
0.583499
0.573918
0.562797
0.593697
0.59565
0.596466
0.596123
0.594534
0.591544
0.586737
0.579647
0.569413
0.556787
0.587525
0.587861
0.587943
0.587912
0.58779
0.587599
0.587359
0.587099
0.586829
0.586447
0.589705
0.590037
0.590166
0.59009
0.589821
0.589382
0.588812
0.588169
0.587523
0.586949
0.590271
0.590818
0.591024
0.590894
0.590429
0.589659
0.588638
0.587464
0.586278
0.585279
0.590456
0.59126
0.591573
0.591392
0.590711
0.589555
0.587979
0.586107
0.584142
0.582498
0.591231
0.592308
0.592733
0.592524
0.591653
0.590128
0.587976
0.585322
0.582397
0.579863
0.59153
0.592859
0.5934
0.59317
0.59213
0.590263
0.587543
0.584071
0.580035
0.57639
0.592529
0.594096
0.594738
0.594516
0.593358
0.591221
0.588002
0.583748
0.578538
0.573598
0.592786
0.594497
0.595202
0.594952
0.593679
0.591313
0.587679
0.582751
0.576447
0.570144
0.593543
0.595355
0.5961
0.595863
0.594543
0.592055
0.588154
0.582706
0.575503
0.567746
0.591099
0.592844
0.593582
0.593264
0.591826
0.589159
0.58501
0.579148
0.571347
0.562505
0.58666
0.586933
0.586991
0.586976
0.586906
0.586798
0.586663
0.586517
0.586355
0.586062
0.588689
0.5889
0.588986
0.588941
0.588774
0.588502
0.588152
0.587758
0.587359
0.586989
0.588961
0.589331
0.589474
0.589387
0.589074
0.588561
0.587893
0.587141
0.5864
0.585781
0.588974
0.589556
0.589788
0.589657
0.589165
0.58834
0.587243
0.58598
0.58471
0.58369
0.589485
0.590308
0.590636
0.590473
0.589803
0.588653
0.587078
0.585208
0.583257
0.581653
0.589607
0.590666
0.591099
0.590906
0.590066
0.588592
0.586515
0.583971
0.581194
0.578828
0.59047
0.591763
0.592291
0.592093
0.59112
0.589367
0.586823
0.583601
0.579921
0.576635
0.590577
0.592017
0.59261
0.592379
0.591282
0.589291
0.586347
0.582522
0.577982
0.573714
0.591333
0.59289
0.593523
0.593297
0.592137
0.590002
0.586781
0.582478
0.577201
0.571907
0.588928
0.590429
0.591072
0.590789
0.589536
0.587251
0.583807
0.579143
0.573365
0.567332
0.585961
0.586195
0.586236
0.58623
0.586191
0.58613
0.586054
0.585971
0.58587
0.58563
0.587904
0.588035
0.588091
0.588065
0.587964
0.587799
0.587586
0.587344
0.587091
0.586843
0.58795
0.588187
0.588281
0.588226
0.588022
0.58769
0.587263
0.586789
0.586328
0.585942
0.587867
0.58827
0.588436
0.588346
0.588003
0.587433
0.58669
0.585855
0.585041
0.58441
0.588149
0.588751
0.588995
0.588873
0.588379
0.587543
0.586425
0.585139
0.583856
0.582852
0.588119
0.588927
0.589262
0.589109
0.588459
0.587339
0.585805
0.583991
0.582111
0.580594
0.588859
0.589886
0.590306
0.590141
0.589358
0.587979
0.586038
0.583669
0.581116
0.57896
0.588793
0.589958
0.590439
0.590238
0.589334
0.587727
0.585428
0.582556
0.579354
0.576514
0.58956
0.590849
0.591371
0.59117
0.590195
0.588439
0.585878
0.582593
0.578814
0.575267
0.58717
0.58841
0.58895
0.588708
0.587657
0.585774
0.583018
0.579435
0.575262
0.571239
0.585389
0.585596
0.585627
0.585626
0.585603
0.58557
0.585526
0.585479
0.585412
0.585207
0.587294
0.587371
0.587407
0.587392
0.587332
0.587233
0.587104
0.586953
0.586788
0.586616
0.587152
0.587296
0.587354
0.587319
0.58719
0.586981
0.586714
0.586419
0.586134
0.585894
0.587048
0.587315
0.58743
0.58737
0.587139
0.586757
0.586265
0.585722
0.585205
0.584821
0.587137
0.58756
0.587733
0.587647
0.587294
0.586706
0.585936
0.585071
0.584239
0.583623
0.586989
0.587583
0.587832
0.587717
0.587233
0.586411
0.585313
0.584051
0.582797
0.581843
0.587635
0.58842
0.588744
0.588613
0.588009
0.586963
0.58553
0.583835
0.582094
0.580701
0.587379
0.588285
0.588662
0.588498
0.587781
0.586534
0.584799
0.582707
0.580493
0.578639
0.588185
0.589216
0.589631
0.589464
0.588677
0.587289
0.585324
0.582894
0.580244
0.577906
0.585789
0.586773
0.587211
0.587013
0.586164
0.584669
0.58254
0.579874
0.576931
0.574305
0.584921
0.585108
0.585131
0.585133
0.58512
0.585101
0.585077
0.585048
0.585002
0.584822
0.586823
0.586865
0.586887
0.58688
0.586844
0.586785
0.586706
0.586611
0.586499
0.586378
0.586509
0.586586
0.586619
0.586597
0.586517
0.586388
0.586224
0.586045
0.585871
0.585729
0.58645
0.586619
0.586696
0.586659
0.586507
0.586257
0.585938
0.58559
0.585265
0.585039
0.586377
0.586661
0.58678
0.58672
0.586477
0.586076
0.585558
0.58499
0.58446
0.584096
0.586149
0.586568
0.586748
0.586664
0.586316
0.585734
0.584968
0.584111
0.583288
0.582704
0.586731
0.587311
0.587552
0.587453
0.587005
0.586239
0.585213
0.584032
0.582864
0.581982
0.586277
0.586954
0.587239
0.587109
0.586564
0.585631
0.584363
0.582882
0.581381
0.580197
0.587163
0.58796
0.588278
0.588147
0.587537
0.586481
0.585024
0.583278
0.581457
0.57994
0.58474
0.585489
0.585832
0.585675
0.585016
0.583872
0.582281
0.580359
0.578329
0.576652
0.584541
0.584712
0.584729
0.584731
0.584724
0.584714
0.5847
0.584683
0.58465
0.58449
0.586475
0.586494
0.586508
0.586504
0.586483
0.586447
0.586398
0.586336
0.586258
0.586173
0.585975
0.586008
0.586023
0.586008
0.585959
0.585882
0.585784
0.585677
0.585576
0.5855
0.586025
0.586126
0.586177
0.586154
0.586058
0.585898
0.585694
0.585474
0.585272
0.585149
0.585813
0.585994
0.586073
0.586032
0.585869
0.585603
0.585264
0.584898
0.584568
0.584369
0.58554
0.585825
0.58595
0.585892
0.585651
0.585249
0.58473
0.584161
0.583629
0.583287
0.586087
0.5865
0.586673
0.586602
0.586281
0.585739
0.585026
0.584223
0.583455
0.58291
0.585423
0.585909
0.586116
0.586019
0.585619
0.584944
0.584046
0.583028
0.582029
0.581295
0.586446
0.587041
0.587277
0.587178
0.586725
0.58595
0.584904
0.583685
0.58246
0.581489
0.583967
0.584512
0.584771
0.584652
0.584159
0.583314
0.582165
0.580821
0.579451
0.578406
0.584233
0.584388
0.5844
0.584403
0.584399
0.584393
0.584385
0.584375
0.584352
0.584209
0.586244
0.586249
0.586258
0.586255
0.586243
0.586221
0.586189
0.586147
0.586092
0.586033
0.58552
0.585523
0.585526
0.585515
0.585486
0.58544
0.585384
0.585323
0.585269
0.585242
0.585738
0.585794
0.585827
0.585814
0.585754
0.585654
0.585526
0.585387
0.585265
0.58521
0.585403
0.585512
0.585562
0.585535
0.58543
0.585258
0.585041
0.58481
0.58461
0.584518
0.585118
0.585305
0.58539
0.585351
0.585188
0.58492
0.584577
0.584206
0.583868
0.583682
0.585648
0.58593
0.58605
0.586
0.585779
0.585408
0.584927
0.584395
0.583901
0.583577
0.584759
0.585094
0.58524
0.58517
0.584887
0.584416
0.583798
0.583116
0.582464
0.582027
0.585988
0.586419
0.586588
0.586518
0.586193
0.585645
0.584919
0.584091
0.583284
0.58267
0.583403
0.583783
0.583972
0.583885
0.583529
0.582928
0.582124
0.581213
0.580308
0.579676
0.58396
0.584098
0.584106
0.584109
0.584106
0.584103
0.584099
0.584093
0.584077
0.583953
0.586137
0.586135
0.586141
0.58614
0.586132
0.586117
0.586096
0.586066
0.586026
0.585984
0.585122
0.585106
0.585102
0.585094
0.585076
0.58505
0.585018
0.584987
0.584963
0.584974
0.585566
0.585594
0.585614
0.585607
0.58557
0.585508
0.585429
0.585344
0.585273
0.585262
0.585127
0.585187
0.585218
0.585201
0.585135
0.585026
0.58489
0.584748
0.584629
0.584605
0.584856
0.584974
0.58503
0.585005
0.584899
0.584725
0.584503
0.584266
0.584055
0.583965
0.585369
0.585553
0.585633
0.585599
0.585451
0.585205
0.584892
0.58455
0.584241
0.584058
0.584244
0.584465
0.584565
0.584517
0.584324
0.584005
0.583592
0.583146
0.582727
0.582482
0.585757
0.58606
0.586177
0.586128
0.585905
0.585531
0.585043
0.584496
0.583978
0.583592
0.582965
0.583216
0.58335
0.583289
0.583042
0.58263
0.582085
0.581485
0.580899
0.580532
0.583625
0.583742
0.583746
0.583748
0.583747
0.583746
0.583745
0.583742
0.583733
0.583628
0.586179
0.586176
0.58618
0.58618
0.586175
0.586164
0.586149
0.586126
0.586095
0.586065
0.58478
0.584755
0.584749
0.584742
0.584732
0.584717
0.5847
0.584685
0.58468
0.584717
0.585493
0.585503
0.585513
0.585509
0.585487
0.585449
0.585402
0.585352
0.585313
0.585331
0.584975
0.585007
0.585027
0.585017
0.584976
0.584909
0.584825
0.584738
0.584669
0.584682
0.584743
0.584816
0.584853
0.584837
0.58477
0.58466
0.58452
0.58437
0.584239
0.584204
0.585223
0.585335
0.585385
0.585362
0.585265
0.585108
0.58491
0.584698
0.584513
0.58442
0.583874
0.584016
0.584083
0.584052
0.583925
0.583715
0.583446
0.583159
0.58289
0.582762
0.585747
0.585953
0.586031
0.585998
0.585849
0.585603
0.585286
0.584936
0.584613
0.584369
0.582516
0.582675
0.582768
0.582727
0.582562
0.582287
0.581929
0.581546
0.581169
0.58097
0.583004
0.583095
0.583097
0.583098
0.583098
0.583099
0.5831
0.5831
0.583098
0.583017
0.586436
0.586437
0.586439
0.586439
0.586435
0.586427
0.586415
0.586398
0.586375
0.586351
0.58454
0.584517
0.584514
0.584512
0.584506
0.584497
0.584486
0.584477
0.584477
0.584526
0.585502
0.5855
0.585502
0.585497
0.585483
0.585462
0.585436
0.58541
0.585395
0.58543
0.58495
0.584966
0.584979
0.584974
0.584949
0.584908
0.584858
0.584805
0.584764
0.58479
0.584773
0.584818
0.584841
0.584832
0.58479
0.584722
0.584635
0.584543
0.584462
0.584451
0.585195
0.585258
0.585285
0.585268
0.585207
0.585109
0.584989
0.584863
0.58476
0.584721
0.583726
0.58382
0.583867
0.583849
0.583767
0.583632
0.583458
0.583273
0.583094
0.583024
0.586011
0.586143
0.586192
0.586168
0.586071
0.585913
0.585714
0.585499
0.585308
0.585152
0.581829
0.581926
0.581991
0.581964
0.581856
0.581678
0.581446
0.581205
0.580959
0.580862
0.581779
0.581841
0.581844
0.581846
0.581848
0.581848
0.581848
0.581847
0.581848
0.581789
0.587046
0.587042
0.587034
0.587028
0.587022
0.587018
0.587015
0.587012
0.587007
0.586993
0.584516
0.58451
0.584517
0.584522
0.58452
0.584514
0.584503
0.584489
0.584479
0.584513
0.585564
0.585552
0.585546
0.585539
0.585529
0.585518
0.585506
0.585499
0.585502
0.585546
0.585033
0.585043
0.585051
0.585048
0.585033
0.585008
0.584978
0.584946
0.584922
0.584944
0.584917
0.584945
0.584959
0.584952
0.584926
0.584883
0.58483
0.584774
0.584725
0.584721
0.585266
0.585296
0.585309
0.585295
0.585255
0.585194
0.585121
0.58505
0.584998
0.584992
0.583959
0.58403
0.584066
0.584055
0.584002
0.583914
0.5838
0.583676
0.583547
0.583486
0.586676
0.586748
0.586774
0.586754
0.586689
0.586587
0.586463
0.586336
0.586237
0.586154
0.58063
0.580694
0.580739
0.580721
0.58065
0.580532
0.58038
0.580224
0.580054
0.580008
0.580037
0.580076
0.580087
0.580094
0.580096
0.580094
0.580087
0.580076
0.580061
0.580011
0.588038
0.587994
0.58796
0.587938
0.587928
0.587929
0.587942
0.587968
0.588008
0.58805
0.584768
0.58479
0.584809
0.584818
0.584819
0.584814
0.584801
0.584781
0.584754
0.584745
0.585634
0.585613
0.585601
0.585592
0.585583
0.585577
0.585574
0.585578
0.585594
0.58564
0.585171
0.585178
0.585182
0.585179
0.585168
0.585151
0.585132
0.585113
0.5851
0.58511
0.5851
0.585117
0.585125
0.585119
0.585099
0.58507
0.585034
0.584999
0.58497
0.584966
0.585375
0.58539
0.585395
0.585383
0.585353
0.58531
0.58526
0.585215
0.585189
0.5852
0.584566
0.584631
0.58466
0.584652
0.584613
0.584549
0.584466
0.584375
0.584275
0.584197
0.587725
0.587749
0.587759
0.58774
0.58769
0.587616
0.587529
0.587448
0.587408
0.58742
0.57904
0.579096
0.579129
0.579115
0.579061
0.578973
0.578863
0.578749
0.578624
0.578586
0.437809
0.417063
0.423927
0.464841
0.389877
0.36662
0.377562
0.43474
0.346889
0.319723
0.336911
0.415735
0.309033
0.279598
0.303715
0.40493
0.277712
0.24757
0.278834
0.402541
0.250824
0.221123
0.260753
0.398605
0.229209
0.201296
0.249638
0.395762
0.208887
0.184419
0.241551
0.393504
0.190983
0.172547
0.237922
0.395003
0.171548
0.16122
0.233579
0.390487
0.497661
0.487423
0.48773
0.497453
0.46691
0.454211
0.455298
0.467961
0.436172
0.419378
0.421509
0.439026
0.407345
0.386313
0.389803
0.412427
0.38283
0.357298
0.362402
0.390317
0.360941
0.330493
0.336109
0.369179
0.343194
0.307738
0.313075
0.351179
0.326874
0.286595
0.291376
0.334421
0.313435
0.269098
0.273311
0.320727
0.298209
0.251415
0.253159
0.30311
0.564753
0.562488
0.561952
0.563123
0.546542
0.54276
0.542038
0.544369
0.526619
0.520645
0.519797
0.524134
0.50454
0.496206
0.495355
0.50216
0.483647
0.472866
0.472168
0.481836
0.462644
0.449266
0.448739
0.461346
0.443784
0.427726
0.427333
0.442839
0.425231
0.406604
0.406309
0.424542
0.409029
0.388691
0.388402
0.408533
0.390221
0.370337
0.369301
0.388933
0.577082
0.575949
0.575596
0.575988
0.566911
0.56541
0.564899
0.565309
0.555049
0.55248
0.551736
0.552664
0.540394
0.536533
0.535596
0.537326
0.526025
0.520724
0.519664
0.522494
0.510488
0.503612
0.502474
0.506661
0.495924
0.487397
0.486223
0.491968
0.480657
0.470549
0.469391
0.476777
0.466461
0.45539
0.454263
0.462928
0.448693
0.43865
0.437247
0.445434
0.583814
0.583177
0.582973
0.583202
0.577405
0.576835
0.576587
0.576648
0.569875
0.568849
0.568404
0.568515
0.559865
0.558156
0.55748
0.557769
0.549952
0.547386
0.546483
0.547113
0.538668
0.535097
0.533988
0.535137
0.527951
0.523283
0.52201
0.523864
0.516189
0.510442
0.509075
0.511782
0.505025
0.498617
0.497239
0.500713
0.490306
0.48503
0.483517
0.486426
0.58626
0.585742
0.585594
0.585816
0.582232
0.581936
0.581811
0.581853
0.577068
0.576566
0.57633
0.576354
0.569916
0.569085
0.568689
0.568709
0.562892
0.561603
0.561011
0.561075
0.554575
0.552698
0.551893
0.552077
0.546747
0.544184
0.543177
0.543589
0.537857
0.534586
0.53343
0.534192
0.52943
0.52571
0.524512
0.525668
0.517512
0.514906
0.513626
0.514107
0.587251
0.586784
0.586659
0.586878
0.584804
0.584633
0.584567
0.584605
0.581187
0.580918
0.580794
0.580814
0.575875
0.575443
0.575225
0.575216
0.570691
0.57002
0.569672
0.569637
0.564333
0.563334
0.562824
0.562778
0.558482
0.557077
0.556393
0.55638
0.551681
0.549837
0.549005
0.549098
0.545513
0.543361
0.542468
0.542736
0.535793
0.534751
0.533805
0.533309
0.587449
0.587005
0.58689
0.587105
0.586045
0.585927
0.585887
0.585923
0.583514
0.583352
0.583283
0.583306
0.579549
0.579305
0.579182
0.579181
0.575665
0.575295
0.575095
0.575062
0.570694
0.570142
0.569835
0.569767
0.566241
0.565454
0.565024
0.564933
0.560955
0.559907
0.559361
0.559282
0.556529
0.555284
0.55467
0.554646
0.548402
0.548281
0.547648
0.546826
0.587277
0.586847
0.586736
0.586945
0.586575
0.586488
0.586461
0.586493
0.584803
0.584697
0.584655
0.584678
0.581853
0.581707
0.581636
0.58164
0.578946
0.578736
0.578619
0.578598
0.575045
0.574733
0.574551
0.574498
0.571664
0.571216
0.570953
0.570869
0.567507
0.566908
0.566564
0.566466
0.564335
0.563614
0.563213
0.563118
0.557394
0.557804
0.557412
0.556526
0.586934
0.586514
0.586405
0.586607
0.586704
0.586637
0.586617
0.586644
0.585453
0.58538
0.585353
0.585373
0.583283
0.583191
0.583147
0.583153
0.581115
0.580991
0.580922
0.58091
0.578063
0.577884
0.577775
0.577737
0.575543
0.575287
0.575126
0.575062
0.572249
0.571906
0.571694
0.571611
0.570003
0.569586
0.569333
0.569237
0.563972
0.564674
0.564447
0.563587
0.586531
0.586119
0.586011
0.586207
0.586625
0.586573
0.586557
0.586578
0.585714
0.585663
0.585645
0.585662
0.584151
0.584093
0.584066
0.584071
0.582538
0.582467
0.582426
0.582417
0.580163
0.580062
0.579996
0.579968
0.578345
0.578199
0.578101
0.578053
0.575706
0.575513
0.575383
0.575317
0.574186
0.573947
0.573789
0.57371
0.568858
0.569707
0.569585
0.568777
0.586127
0.585721
0.585614
0.585803
0.586453
0.586414
0.586401
0.586416
0.585741
0.585708
0.585696
0.585709
0.584663
0.584627
0.58461
0.584613
0.583455
0.583417
0.583394
0.583386
0.581619
0.581565
0.581526
0.581503
0.580373
0.580295
0.580235
0.580195
0.578218
0.578114
0.578035
0.577981
0.577295
0.577162
0.577064
0.576999
0.572509
0.573415
0.573356
0.572607
0.585753
0.585352
0.585245
0.585429
0.586261
0.586232
0.586221
0.586231
0.585636
0.585616
0.585609
0.585618
0.584956
0.584937
0.584927
0.584927
0.584031
0.584016
0.584004
0.583996
0.582618
0.582597
0.582574
0.582552
0.581837
0.581802
0.581766
0.581731
0.580016
0.57997
0.579922
0.579875
0.579607
0.57954
0.57948
0.579425
0.575235
0.576143
0.57612
0.575431
0.585419
0.585023
0.584917
0.585097
0.586094
0.586074
0.586065
0.58607
0.585458
0.585449
0.585446
0.585452
0.585125
0.585119
0.585114
0.585111
0.584381
0.584384
0.584379
0.584368
0.583299
0.583299
0.583288
0.583265
0.58289
0.582884
0.582863
0.582829
0.581271
0.581261
0.581233
0.581189
0.581328
0.581302
0.581265
0.581217
0.577258
0.578128
0.578124
0.577498
0.585124
0.58473
0.584626
0.584805
0.585986
0.585972
0.585965
0.585967
0.585244
0.585244
0.585245
0.585248
0.585235
0.58524
0.585238
0.585232
0.58459
0.584607
0.584607
0.584593
0.583765
0.583782
0.583777
0.583751
0.583644
0.58366
0.583649
0.583614
0.582107
0.582122
0.582107
0.582062
0.582615
0.582615
0.582594
0.58255
0.578738
0.579541
0.579546
0.578988
0.584835
0.584444
0.584345
0.584524
0.585963
0.585955
0.585949
0.585948
0.585015
0.585024
0.585027
0.585028
0.585331
0.585345
0.585346
0.585336
0.584725
0.584752
0.584755
0.584737
0.584099
0.584128
0.584127
0.584097
0.584189
0.58422
0.584216
0.584178
0.582628
0.582659
0.58265
0.582604
0.5836
0.583616
0.583604
0.583565
0.579774
0.580486
0.580494
0.580011
0.584455
0.584069
0.583978
0.58416
0.586064
0.586059
0.586053
0.58605
0.584793
0.584809
0.584815
0.584813
0.58544
0.585462
0.585466
0.585452
0.584836
0.584872
0.584876
0.584853
0.584371
0.584408
0.584409
0.584375
0.584595
0.584637
0.584638
0.584598
0.582939
0.582978
0.582973
0.582925
0.58441
0.584434
0.584428
0.584393
0.58038
0.580977
0.580985
0.580584
0.583755
0.583385
0.583308
0.583492
0.586363
0.586361
0.586356
0.58635
0.584629
0.584651
0.584657
0.58465
0.585573
0.585604
0.58561
0.585592
0.584963
0.585003
0.585008
0.584979
0.58463
0.584671
0.584672
0.584635
0.58492
0.58497
0.584974
0.584933
0.583189
0.583228
0.583223
0.583176
0.585204
0.585231
0.585229
0.5852
0.580431
0.580893
0.580897
0.580588
0.582386
0.582059
0.582005
0.582177
0.587019
0.58702
0.587017
0.587013
0.584619
0.584641
0.584644
0.584629
0.585713
0.585751
0.585759
0.585739
0.585112
0.585152
0.585156
0.585124
0.584886
0.584926
0.584928
0.584891
0.585191
0.585242
0.585248
0.585209
0.583578
0.583604
0.583598
0.583559
0.586221
0.586248
0.586251
0.586231
0.579702
0.579995
0.579993
0.579795
0.580362
0.58016
0.580135
0.580244
0.588121
0.588137
0.588146
0.58815
0.584805
0.584819
0.584816
0.584794
0.585804
0.585844
0.585853
0.585834
0.58524
0.585274
0.585276
0.585249
0.585087
0.585119
0.585121
0.585093
0.58537
0.585415
0.585422
0.585391
0.584162
0.58416
0.584152
0.584136
0.587594
0.587637
0.587646
0.587625
0.578318
0.578395
0.578391
0.578345
0.593371
0.601833
0.605871
0.608982
0.612109
0.614869
0.617114
0.618871
0.620253
0.621424
0.593762
0.597125
0.604601
0.609665
0.614148
0.617552
0.620042
0.621843
0.623137
0.624151
0.597463
0.593823
0.604832
0.61053
0.615805
0.619396
0.621974
0.623824
0.625124
0.626091
0.600688
0.589767
0.604383
0.609923
0.615763
0.619302
0.62187
0.623678
0.62494
0.625874
0.604834
0.587483
0.604789
0.610067
0.616341
0.619734
0.622281
0.624016
0.625197
0.626054
0.607543
0.58449
0.604179
0.608963
0.615678
0.618889
0.621463
0.623166
0.624371
0.625282
0.611182
0.582904
0.604653
0.608706
0.615814
0.618768
0.621373
0.62304
0.62424
0.625148
0.612438
0.579589
0.603385
0.606664
0.614266
0.617046
0.619831
0.621605
0.623029
0.624195
0.61384
0.577918
0.603653
0.60564
0.613412
0.615755
0.61878
0.620708
0.622335
0.623699
0.59821
0.562088
0.590436
0.592811
0.602457
0.606374
0.611079
0.614286
0.61696
0.619119
0.536141
0.558208
0.574535
0.586136
0.594077
0.599607
0.603607
0.606597
0.608909
0.61084
0.52193
0.552472
0.574543
0.588464
0.597308
0.6033
0.607555
0.610653
0.612931
0.61465
0.511586
0.549191
0.575448
0.590399
0.599815
0.606058
0.610443
0.613598
0.615866
0.617521
0.503149
0.546042
0.575457
0.590701
0.600505
0.606816
0.611208
0.614325
0.616545
0.618151
0.498526
0.544992
0.576427
0.591715
0.601796
0.608055
0.612393
0.615419
0.617544
0.61906
0.495126
0.543641
0.576523
0.591551
0.60186
0.607997
0.612286
0.61524
0.61734
0.61887
0.494489
0.543786
0.577712
0.592195
0.602654
0.608571
0.612795
0.615668
0.617727
0.619235
0.493469
0.54259
0.577409
0.591185
0.601829
0.607544
0.611811
0.614724
0.616925
0.618624
0.493747
0.542716
0.578407
0.590954
0.60142
0.606688
0.611062
0.614099
0.616471
0.618362
0.484561
0.532642
0.569083
0.581174
0.592669
0.598954
0.604509
0.608468
0.6116
0.613979
0.567136
0.573449
0.579527
0.584893
0.589465
0.593288
0.596455
0.599073
0.601265
0.603164
0.553373
0.564831
0.575031
0.583356
0.590022
0.595274
0.599378
0.602578
0.605069
0.606995
0.540232
0.557398
0.571728
0.582575
0.590854
0.597086
0.601787
0.605344
0.608024
0.610022
0.5271
0.549908
0.568168
0.581086
0.590615
0.597494
0.60254
0.606275
0.609045
0.611077
0.517102
0.544882
0.566514
0.580986
0.591415
0.598671
0.603884
0.607667
0.610437
0.612441
0.5081
0.540119
0.564649
0.580219
0.591306
0.59876
0.604057
0.607853
0.610637
0.612669
0.501911
0.537362
0.564306
0.580534
0.592062
0.599548
0.604855
0.608619
0.61139
0.613414
0.496064
0.534124
0.563111
0.579638
0.591475
0.598918
0.604266
0.608075
0.610954
0.613126
0.492198
0.532617
0.563344
0.57955
0.591291
0.598466
0.603882
0.607794
0.610808
0.613136
0.482032
0.523674
0.555604
0.571766
0.584212
0.592111
0.598339
0.602912
0.606458
0.609069
0.576834
0.57929
0.582203
0.585147
0.587917
0.590423
0.592639
0.594578
0.596292
0.597856
0.567495
0.572362
0.577813
0.582968
0.587513
0.591381
0.594613
0.597284
0.599467
0.601217
0.556903
0.565025
0.573427
0.58083
0.587034
0.592091
0.596163
0.59941
0.601968
0.603944
0.544626
0.556695
0.568378
0.578006
0.585721
0.591759
0.596468
0.600126
0.60295
0.605088
0.533885
0.55016
0.565074
0.576677
0.585651
0.592424
0.597568
0.601475
0.604445
0.606652
0.523152
0.543663
0.561653
0.574934
0.584936
0.592247
0.597693
0.601767
0.604848
0.607141
0.514499
0.539062
0.559861
0.574463
0.585252
0.592902
0.59853
0.602689
0.605829
0.608154
0.506009
0.534278
0.557589
0.573159
0.584535
0.592386
0.59816
0.602423
0.605681
0.608137
0.49937
0.531254
0.556761
0.572737
0.58432
0.592161
0.598053
0.602428
0.605797
0.60838
0.488412
0.522896
0.549845
0.566209
0.578433
0.586838
0.593303
0.598149
0.60189
0.604605
0.583193
0.584
0.585175
0.586542
0.587974
0.589388
0.590731
0.591982
0.593161
0.594317
0.57728
0.579253
0.581819
0.584566
0.587254
0.589749
0.591991
0.593954
0.595635
0.597037
0.569647
0.573128
0.577454
0.581842
0.585929
0.589555
0.592673
0.595295
0.597456
0.599193
0.55987
0.565494
0.572034
0.578263
0.583791
0.588489
0.592392
0.59558
0.598146
0.600158
0.550712
0.558941
0.567928
0.576003
0.582875
0.588497
0.593026
0.596637
0.599489
0.601678
0.540824
0.55199
0.563535
0.573369
0.581448
0.587839
0.592869
0.596806
0.599887
0.60224
0.532275
0.546565
0.560644
0.572047
0.581147
0.588131
0.593528
0.597689
0.600923
0.60337
0.52349
0.540943
0.557441
0.570159
0.580084
0.587505
0.593187
0.597543
0.600939