/*--------------------------------*- C++ -*----------------------------------*\
| =========                 |                                                 |
| \\      /  F ield         | foam-extend: Open Source CFD                    |
|  \\    /   O peration     | Version:     4.0                                |
|   \\  /    A nd           | Web:         http://www.foam-extend.org         |
|    \\/     M anipulation  |                                                 |
\*---------------------------------------------------------------------------*/
FoamFile
{
    version     2.0;
    format      ascii;
    class       volScalarField;
    location    "900";
    object      p;
}
// * * * * * * * * * * * * * * * * * * * * * * * * * * * * * * * * * * * * * //

dimensions      [1 -1 -2 0 0 0 0];

internalField   nonuniform List<scalar> 
34480
(
108119
108017
107975
107988
108070
108248
108587
109263
110221
110557
107968
107867
107825
107834
107911
108083
108416
109078
110101
110056
107826
107721
107679
107679
107741
107883
108175
108767
109783
109182
107771
107661
107611
107596
107632
107728
107960
108452
109399
108215
107715
107590
107529
107494
107501
107549
107721
108106
108948
107216
107759
107631
107559
107510
107496
107504
107618
107894
108594
106331
107690
107544
107462
107398
107365
107343
107408
107585
108122
105393
107792
107649
107567
107517
107498
107487
107538
107643
107997
104796
107693
107545
107458
107404
107389
107391
107434
107482
107630
104049
107784
107648
107616
107665
107791
107972
108207
108431
108577
104510
108873
108748
108702
108725
108828
109029
109361
109885
110696
111759
108661
108528
108480
108505
108616
108838
109221
109868
111001
112593
108466
108328
108280
108299
108403
108616
109005
109703
111073
113043
108360
108214
108157
108162
108248
108434
108798
109484
110991
113209
108263
108102
108034
108018
108080
108229
108552
109191
110764
113121
108269
108104
108024
107994
108034
108148
108425
108994
110568
112949
108171
107990
107899
107852
107873
107954
108186
108679
110206
112553
108250
108071
107978
107939
107965
108047
108260
108686
110114
112334
108139
107956
107857
107810
107828
107905
108102
108479
109759
111891
108219
108047
107989
108020
108140
108342
108663
109144
110371
112296
109443
109329
109289
109316
109418
109602
109884
110283
110811
111420
109227
109095
109050
109084
109206
109434
109795
110334
111144
112145
109019
108874
108828
108861
108990
109234
109637
110280
111368
112787
108882
108726
108671
108695
108817
109058
109479
110180
111489
113286
108756
108584
108519
108527
108633
108856
109271
109987
111461
113582
108731
108554
108478
108473
108564
108764
109161
109863
111446
113812
108607
108415
108330
108310
108384
108559
108930
109602
111246
113802
108665
108474
108386
108370
108446
108619
108978
109616
111259
113918
108543
108348
108254
108230
108294
108453
108793
109407
110986
113753
108610
108423
108357
108388
108521
108763
109179
109859
111401
114165
109848
109760
109729
109751
109831
109968
110165
110417
110709
110989
109670
109553
109514
109546
109653
109845
110132
110520
111022
111539
109486
109347
109302
109337
109460
109686
110039
110548
111296
112130
109345
109189
109134
109164
109292
109535
109936
110544
111534
112712
109211
109035
108970
108988
109109
109353
109778
110451
111652
113169
109169
108983
108908
108916
109029
109265
109699
110406
111782
113606
109029
108829
108745
108740
108840
109062
109492
110213
111723
113828
109070
108869
108782
108780
108882
109104
109534
110257
111844
114170
108938
108734
108642
108632
108725
108937
109355
110080
111676
114225
108991
108794
108721
108750
108892
109159
109627
110399
111986
114675
110134
110072
110051
110067
110123
110216
110342
110493
110653
110791
110003
109911
109879
109905
109991
110137
110345
110607
110908
111183
109861
109740
109701
109732
109839
110029
110310
110684
111163
111632
109735
109590
109539
109569
109690
109912
110257
110741
111423
112141
109607
109439
109378
109400
109524
109762
110152
110724
111606
112594
109560
109378
109306
109322
109445
109689
110109
110746
111815
113074
109414
109215
109135
109141
109257
109499
109935
110618
111849
113379
109445
109243
109159
109167
109286
109533
109983
110699
112052
113821
109306
109100
109011
109014
109128
109371
109821
110563
111978
114003
109349
109148
109072
109101
109248
109529
110014
110797
112234
114454
110338
110298
110284
110295
110331
110389
110465
110552
110637
110704
110250
110183
110159
110178
110240
110344
110485
110653
110830
110977
110156
110058
110025
110050
110136
110285
110494
110757
111058
111324
110052
109927
109882
109910
110014
110202
110479
110845
111300
111732
109943
109790
109735
109759
109874
110088
110422
110880
111500
112127
109899
109730
109664
109684
109805
110037
110414
110952
111738
112576
109755
109566
109492
109505
109626
109867
110274
110876
111820
112883
109783
109589
109509
109525
109651
109902
110336
110989
112067
113345
109641
109441
109358
109369
109493
109746
110190
110886
112056
113576
109677
109481
109405
109434
109580
109860
110331
111066
112278
113985
110488
110464
110456
110462
110484
110519
110563
110612
110657
110691
110434
110387
110370
110384
110426
110495
110586
110690
110793
110874
110384
110309
110283
110302
110367
110476
110625
110802
110990
111146
110304
110202
110165
110188
110273
110422
110633
110898
111199
111463
110219
110088
110041
110063
110163
110344
110613
110964
111392
111792
110185
110035
109977
109998
110109
110315
110635
111067
111632
112185
110050
109878
109811
109828
109944
110168
110526
111030
111731
112457
110080
109901
109828
109848
109971
110211
110603
111166
111992
112893
109938
109751
109675
109691
109816
110062
110473
111086
112007
113111
109972
109786
109714
109743
109883
110148
110582
111232
112205
113458
110605
110590
110586
110589
110602
110622
110648
110674
110699
110716
110571
110541
110529
110538
110565
110610
110667
110729
110789
110834
110558
110504
110485
110498
110544
110621
110722
110838
110955
111046
110500
110421
110391
110409
110475
110587
110742
110927
111124
111287
110440
110333
110294
110313
110395
110540
110748
111007
111299
111555
110421
110293
110244
110264
110359
110533
110791
111124
111523
111890
110297
110147
110088
110107
110211
110407
110708
111111
111621
112115
110335
110175
110111
110132
110246
110462
110799
111263
111878
112506
110195
110025
109958
109977
110095
110321
110682
111195
111896
112677
110230
110061
109994
110022
110151
110392
110774
111322
112073
112965
110699
110691
110688
110690
110698
110709
110723
110738
110751
110760
110676
110657
110650
110655
110672
110700
110735
110772
110806
110832
110693
110655
110641
110650
110682
110733
110800
110874
110946
110999
110650
110592
110569
110582
110630
110712
110821
110947
111074
111176
110614
110531
110500
110515
110579
110690
110845
111029
111226
111390
110609
110505
110465
110482
110561
110701
110901
111149
111426
111668
110498
110372
110323
110340
110430
110594
110835
111146
111509
111844
110547
110411
110356
110376
110476
110661
110940
111306
111754
112185
110411
110262
110204
110223
110329
110527
110830
111243
111762
112301
110450
110301
110242
110267
110382
110593
110915
111358
111921
112539
110778
110773
110772
110773
110777
110783
110791
110799
110806
110811
110759
110747
110742
110746
110756
110773
110793
110816
110836
110850
110797
110771
110762
110768
110789
110822
110865
110911
110955
110987
110764
110722
110705
110714
110748
110805
110880
110964
111046
111109
110749
110686
110662
110674
110722
110804
110915
111044
111174
111278
110756
110675
110643
110657
110719
110827
110977
111156
111346
111504
110658
110555
110516
110531
110604
110736
110923
111154
111408
111633
110720
110608
110562
110580
110665
110817
111038
111317
111636
111928
110586
110461
110412
110430
110521
110687
110931
111251
111626
111992
110633
110507
110457
110479
110576
110753
111015
111360
111772
112191
110845
110842
110842
110842
110845
110848
110852
110857
110861
110863
110824
110817
110814
110816
110822
110832
110844
110858
110869
110878
110879
110862
110856
110860
110873
110894
110921
110950
110976
110995
110849
110820
110808
110814
110837
110876
110926
110981
111033
111072
110852
110806
110789
110797
110832
110890
110968
111055
111140
111206
110869
110808
110783
110794
110841
110922
111030
111156
111284
111386
110781
110701
110670
110682
110740
110841
110981
111148
111323
111472
110858
110769
110732
110748
110816
110936
111105
111311
111534
111728
110724
110622
110583
110598
110673
110806
110997
111236
111502
111747
110781
110679
110637
110655
110736
110878
111083
111344
111637
111917
110903
110901
110901
110901
110903
110905
110907
110909
110911
110913
110876
110872
110870
110871
110874
110880
110888
110895
110902
110908
110945
110934
110930
110932
110941
110954
110970
110988
111003
111014
110912
110892
110884
110888
110903
110929
110961
110997
111030
111055
110929
110897
110885
110890
110915
110955
111008
111066
111121
111163
110953
110908
110890
110898
110932
110990
111067
111154
111239
111304
110873
110812
110789
110798
110842
110917
111018
111137
111255
111353
110964
110897
110869
110881
110934
111025
111150
111298
111452
111578
110829
110749
110718
110730
110789
110892
111036
111210
111395
111556
110899
110818
110785
110800
110863
110974
111129
111320
111524
111708
110953
110952
110952
110952
110953
110954
110955
110956
110957
110958
110915
110913
110912
110912
110914
110918
110922
110927
110932
110935
110998
110991
110989
110990
110995
111003
111013
111023
111033
111038
110957
110944
110938
110940
110950
110967
110988
111011
111032
111048
110987
110965
110956
110960
110976
111004
111038
111076
111111
111138
111013
110982
110969
110975
110999
111039
111092
111150
111206
111248
110939
110895
110878
110885
110916
110970
111042
111123
111202
111266
111046
110997
110976
110985
111024
111091
111181
111284
111388
111469
110905
110844
110820
110830
110874
110951
111056
111179
111304
111410
110990
110928
110903
110914
110963
111046
111160
111295
111434
111553
110996
110995
110995
110995
110995
110996
110997
110997
110998
110998
110943
110942
110941
110941
110943
110945
110948
110951
110954
110957
111041
111037
111036
111037
111040
111044
111050
111056
111062
111064
110988
110980
110976
110977
110983
110993
111007
111021
111035
111045
111028
111013
111007
111010
111021
111039
111061
111085
111108
111124
111055
111034
111025
111029
111045
111072
111108
111146
111183
111209
110985
110954
110942
110947
110969
111006
111055
111110
111161
111203
111108
111073
111058
111065
111093
111140
111203
111273
111342
111392
110956
110910
110893
110900
110933
110988
111062
111147
111230
111299
111059
111015
110996
111004
111040
111100
111181
111273
111366
111442
111033
111032
111032
111032
111032
111033
111033
111033
111033
111033
110960
110959
110959
110959
110959
110961
110963
110965
110967
110970
111076
111074
111073
111074
111076
111079
111082
111085
111088
111089
111007
111002
110999
110999
111003
111010
111018
111027
111036
111043
111055
111046
111042
111044
111051
111062
111076
111092
111106
111115
111081
111067
111061
111063
111074
111092
111115
111140
111164
111180
111015
110994
110986
110989
111004
111029
111061
111097
111130
111157
111154
111130
111119
111124
111144
111176
111219
111265
111310
111341
110985
110953
110941
110946
110968
111007
111057
111114
111168
111213
111114
111083
111069
111075
111100
111142
111198
111260
111320
111368
111069
111068
111068
111068
111069
111069
111069
111069
111068
111068
110964
110963
110963
110963
110963
110964
110966
110968
110970
110973
111104
111103
111103
111104
111105
111106
111108
111110
111111
111111
111016
111012
111011
111011
111013
111017
111022
111028
111033
111038
111071
111065
111062
111063
111067
111075
111083
111093
111101
111107
111093
111084
111079
111081
111088
111099
111114
111130
111145
111156
111032
111019
111013
111015
111025
111042
111062
111085
111105
111122
111186
111171
111163
111166
111179
111201
111229
111259
111289
111306
110996
110973
110965
110968
110984
111009
111043
111080
111114
111144
111162
111141
111131
111136
111153
111181
111218
111258
111297
111326
111116
111115
111116
111116
111116
111116
111116
111116
111115
111115
110953
110951
110951
110951
110951
110952
110953
110955
110957
110960
111124
111124
111123
111124
111124
111125
111126
111127
111128
111127
111016
111014
111013
111013
111015
111017
111020
111023
111026
111030
111073
111070
111068
111068
111071
111075
111081
111087
111092
111096
111091
111085
111082
111083
111087
111094
111104
111114
111123
111130
111038
111030
111027
111028
111035
111045
111058
111071
111083
111093
111202
111192
111187
111189
111197
111211
111230
111249
111268
111278
110987
110971
110966
110968
110979
110995
111016
111040
111061
111081
111218
111205
111198
111201
111212
111231
111255
111280
111306
111322
111201
111201
111201
111201
111201
111201
111201
111200
111199
111198
110917
110916
110916
110915
110916
110916
110917
110919
110920
110924
111127
111127
111126
111126
111126
111127
111128
111129
111130
111129
111009
111008
111008
111008
111009
111011
111012
111014
111015
111016
111064
111061
111060
111060
111062
111064
111068
111071
111075
111077
111076
111072
111070
111070
111073
111078
111083
111089
111095
111100
111034
111029
111028
111029
111033
111039
111047
111055
111061
111066
111190
111183
111180
111181
111186
111195
111207
111220
111233
111240
110950
110940
110937
110939
110945
110956
110969
110983
110995
111009
111308
111299
111294
111296
111303
111315
111331
111347
111364
111373
111352
111351
111351
111351
111351
111351
111351
111351
111350
111350
110844
110844
110845
110846
110847
110847
110847
110846
110846
110848
111102
111100
111099
111098
111098
111098
111100
111101
111103
111105
110998
110999
111000
111000
111001
111002
111002
111002
111002
111001
111045
111044
111043
111043
111044
111046
111048
111050
111052
111053
111052
111050
111049
111049
111051
111054
111057
111061
111065
111068
111021
111019
111019
111020
111023
111027
111032
111036
111039
111041
111135
111129
111126
111127
111131
111137
111145
111154
111164
111171
110871
110867
110865
110867
110872
110879
110887
110896
110901
110907
111451
111446
111442
111444
111449
111457
111468
111479
111491
111496
111522
111519
111518
111517
111517
111518
111518
111520
111522
111525
110746
110752
110756
110759
110760
110759
110758
110755
110749
110742
111053
111050
111048
111047
111047
111048
111049
111050
111053
111057
110989
110991
110992
110993
110993
110994
110994
110993
110992
110989
111025
111024
111024
111024
111025
111026
111028
111029
111030
111030
111030
111028
111028
111028
111030
111032
111035
111038
111040
111041
111009
111007
111007
111008
111010
111014
111018
111021
111023
111022
111057
111051
111049
111050
111053
111058
111064
111072
111080
111087
110772
110771
110770
110772
110776
110782
110789
110795
110797
110793
111604
111599
111596
111598
111602
111609
111618
111627
111636
111640
122779
123991
123818
122552
125953
127357
126960
125351
128869
130454
129871
127896
131029
132732
131963
129712
132689
134474
133531
131078
134031
135876
134954
132387
134951
136831
136043
133410
135769
137655
137032
134360
135679
137536
137057
134393
135261
137105
136881
134372
113130
113319
113358
113240
115387
115758
115817
115530
117627
118179
118240
117736
119761
120481
120529
119783
121709
122567
122586
121584
123557
124526
124512
123302
125086
126141
126099
124734
126583
127698
127640
126167
127355
128503
128443
126920
127994
129177
129166
127690
111940
112030
112058
112032
113248
113416
113455
113389
114695
114961
115014
114886
116173
116545
116607
116397
117599
118076
118136
117823
119077
119656
119710
119284
120367
121039
121085
120541
121743
122492
122529
121873
122558
123354
123386
122635
123367
124202
124251
123445
111104
111127
111138
111139
111848
111901
111921
111914
112768
112872
112905
112881
113805
113974
114024
113971
114841
115083
115146
115051
115975
116296
116371
116219
116982
117381
117464
117245
118138
118609
118695
118404
118848
119370
119462
119106
119617
120181
120291
119896
110836
110846
110851
110852
111304
111328
111339
111339
111892
111941
111961
111958
112609
112693
112725
112716
113346
113473
113519
113497
114192
114370
114430
114388
114935
115167
115239
115168
115855
116140
116223
116116
116432
116758
116854
116715
117103
117466
117581
117420
110722
110726
110728
110729
111025
111034
111040
111041
111428
111448
111459
111461
111933
111972
111992
111995
112467
112532
112562
112564
113108
113204
113247
113244
113652
113784
113839
113827
114383
114553
114619
114592
114842
115042
115122
115081
115389
115616
115711
115659
110700
110702
110703
110703
110898
110903
110905
110906
111196
111206
111212
111213
111561
111580
111592
111595
111958
111991
112010
112015
112450
112503
112531
112537
112848
112923
112961
112967
113432
113532
113580
113581
113781
113903
113962
113958
114210
114350
114419
114409
110721
110722
110722
110722
110846
110849
110850
110851
111073
111078
111081
111082
111339
111350
111357
111359
111643
111661
111673
111677
112031
112061
112078
112084
112323
112366
112391
112399
112795
112854
112887
112894
113042
113116
113156
113162
113376
113461
113508
113512
110762
110763
110763
110763
110839
110840
110841
110841
111015
111017
111019
111020
111206
111212
111216
111218
111440
111451
111457
111460
111749
111766
111777
111781
111962
111988
112003
112010
112349
112384
112405
112412
112508
112552
112578
112586
112772
112823
112853
112860
110812
110813
110813
110813
110854
110855
110856
110856
110996
110997
110998
110999
111127
111131
111133
111135
111308
111315
111319
111321
111553
111563
111570
111573
111703
111718
111728
111733
112024
112046
112059
112065
112114
112141
112158
112163
112327
112359
112378
112384
110864
110864
110864
110864
110881
110881
110881
110882
111000
111001
111002
111002
111084
111086
111088
111089
111225
111229
111232
111233
111417
111424
111428
111430
111515
111525
111531
111534
111787
111800
111809
111812
111821
111838
111849
111853
111999
112019
112031
112035
110913
110913
110913
110913
110910
110910
110910
110911
111018
111018
111019
111019
111063
111064
111065
111066
111175
111177
111178
111179
111325
111329
111332
111333
111380
111386
111390
111392
111615
111624
111629
111631
111603
111614
111621
111623
111758
111771
111778
111781
110958
110958
110958
110958
110937
110937
110937
110937
111041
111041
111042
111041
111053
111054
111055
111055
111145
111146
111147
111148
111262
111264
111266
111267
111283
111287
111289
111291
111493
111498
111502
111503
111440
111447
111452
111454
111584
111592
111597
111599
110998
110998
110998
110998
110958
110958
110958
110959
111066
111066
111066
111066
111049
111050
111050
111050
111129
111129
111130
111130
111218
111220
111221
111222
111213
111215
111217
111218
111408
111411
111414
111414
111319
111323
111326
111328
111461
111466
111469
111471
111033
111033
111033
111033
110971
110971
110971
110972
111090
111090
111090
111090
111045
111046
111046
111047
111118
111119
111119
111119
111187
111188
111189
111189
111163
111164
111165
111166
111351
111353
111355
111355
111226
111229
111231
111232
111379
111382
111384
111385
111068
111068
111068
111068
110973
110974
110974
110974
111112
111112
111112
111112
111040
111040
111040
111040
111110
111110
111110
111110
111161
111162
111162
111163
111125
111125
111126
111126
111314
111315
111316
111316
111153
111155
111156
111156
111332
111333
111335
111336
111114
111114
111114
111114
110961
110961
110961
110962
111128
111128
111128
111128
111030
111030
111030
111030
111097
111098
111098
111098
111134
111135
111136
111136
111093
111093
111093
111094
111285
111286
111287
111287
111086
111088
111089
111089
111324
111325
111325
111326
111198
111198
111198
111197
110924
110924
110925
110925
111132
111132
111132
111132
111015
111015
111015
111015
111079
111079
111079
111079
111104
111104
111105
111105
111064
111063
111063
111064
111248
111250
111250
111250
111011
111012
111012
111013
111374
111373
111374
111375
111350
111350
111350
111350
110845
110844
110844
110845
111111
111112
111112
111112
110998
110997
110997
110997
111055
111055
111055
111055
111070
111070
111071
111070
111036
111035
111035
111035
111184
111186
111187
111186
110903
110902
110902
110902
111501
111501
111502
111503
111526
111527
111527
111528
110725
110721
110720
110719
111066
111067
111068
111068
110983
110982
110981
110981
111030
111030
111030
111030
111040
111040
111040
111040
111015
111014
111013
111014
111102
111106
111106
111105
110767
110760
110759
110763
111662
111664
111665
111662
116206
113704
111788
110506
109704
109186
108832
108581
108401
108265
117242
114078
111721
110329
109506
108982
108632
108390
108221
108096
117609
114122
111457
110143
109320
108800
108449
108205
108040
107934
117616
114039
111149
110001
109196
108710
108375
108144
107985
107879
117360
113841
110869
109847
109052
108603
108284
108067
107915
107820
117006
113735
110724
109838
109047
108639
108332
108127
107978
107873
116389
113499
110455
109712
108915
108551
108250
108056
107907
107808
115989
113536
110462
109863
109056
108726
108418
108219
108058
107930
115280
113211
110158
109737
108953
108668
108351
108147
107978
107841
115725
113901
110824
110425
109520
109132
108704
108413
108174
107966
112689
111949
111292
110742
110290
109921
109623
109383
109190
109039
114291
112936
111809
110960
110319
109838
109475
109199
108987
108828
115586
113649
112117
111048
110265
109702
109293
108991
108769
108621
116583
114152
112284
111087
110223
109629
109205
108898
108672
108518
117224
114438
112304
111032
110119
109518
109092
108790
108565
108419
117715
114708
112360
111061
110121
109529
109108
108812
108589
108434
117878
114758
112236
110946
109989
109415
109000
108711
108488
108337
118101
114974
112319
111072
110106
109552
109134
108841
108609
108435
117890
114785
112085
110945
110007
109484
109058
108758
108519
108335
118299
115295
112560
111439
110426
109829
109327
108963
108676
108441
111877
111564
111213
110875
110570
110303
110075
109882
109721
109591
113034
112398
111733
111158
110686
110306
109998
109750
109551
109397
114230
113189
112172
111355
110721
110234
109859
109569
109346
109188
115353
113881
112534
111527
110771
110213
109795
109478
109236
109064
116294
114396
112747
111588
110741
110137
109693
109364
109112
108940
117180
114889
112970
111701
110787
110158
109700
109365
109109
108926
117790
115147
112993
111648
110686
110046
109581
109244
108984
108803
118447
115522
113179
111801
110807
110165
109691
109347
109078
108878
118623
115484
113055
111714
110728
110095
109610
109255
108977
108767
119128
115902
113427
112080
111038
110352
109813
109413
109103
108857
111116
111021
110887
110735
110580
110429
110289
110163
110051
109958
111841
111615
111329
111038
110762
110513
110293
110104
109944
109816
112712
112281
111777
111303
110885
110531
110235
109992
109795
109649
113659
112978
112233
111578
111028
110581
110221
109933
109704
109533
114537
113570
112576
111753
111087
110567
110160
109842
109589
109409
115444
114175
112934
111964
111202
110627
110186
109846
109579
109382
116148
114572
113093
111999
111159
110545
110079
109726
109447
109247
116946
115083
113395
112209
111310
110668
110182
109813
109524
109305
117325
115218
113399
112179
111253
110595
110090
109709
109410
109182
117929
115646
113731
112462
111484
110785
110241
109828
109506
109253
110844
110804
110743
110667
110585
110500
110418
110340
110269
110208
111313
111218
111082
110926
110764
110607
110461
110328
110213
110116
111900
111710
111456
111185
110923
110682
110468
110281
110123
110002
112611
112290
111886
111481
111108
110780
110498
110259
110062
109908
113319
112833
112256
111711
111229
110821
110481
110201
109971
109799
114105
113427
112664
111981
111399
110922
110534
110221
109967
109774
114745
113853
112896
112084
111411
110877
110451
110113
109839
109637
115522
114410
113268
112346
111598
111018
110559
110198
109908
109686
115962
114648
113367
112368
111566
110951
110466
110089
109788
109557
116558
115066
113672
112606
111751
111099
110584
110182
109864
109614
110726
110709
110680
110643
110601
110555
110509
110464
110421
110384
111033
110990
110923
110840
110749
110655
110563
110476
110398
110331
111443
111357
111228
111076
110917
110760
110612
110478
110360
110267
111961
111809
111593
111351
111109
110880
110672
110487
110328
110200
112504
112263
111937
111593
111261
110959
110692
110462
110266
110116
113144
112791
112339
111884
111463
111092
110772
110503
110277
110099
113669
113182
112590
112023
111515
111081
110715
110413
110161
109970
114358
113723
112988
112316
111728
111239
110833
110502
110231
110018
114773
113990
113129
112368
111716
111183
110746
110395
110109
109887
115291
114372
113410
112580
111877
111308
110844
110472
110173
109936
110702
110694
110679
110660
110638
110613
110587
110562
110537
110516
110902
110881
110845
110800
110748
110692
110636
110582
110532
110488
111205
111161
111091
111003
110906
110806
110708
110615
110532
110466
111581
111504
111384
111239
111083
110928
110780
110644
110523
110423
111993
111867
111681
111465
111242
111026
110825
110646
110489
110365
112500
112313
112045
111749
111453
111176
110925
110705
110515
110362
112908
112642
112280
111896
111525
111188
110890
110634
110415
110245
113490
113131
112667
112195
111752
111360
111020
110733
110492
110298
113832
113372
112808
112255
111749
111312
110940
110630
110372
110168
114254
113704
113061
112448
111897
111426
111029
110700
110430
110213
110722
110717
110710
110700
110688
110675
110661
110647
110633
110620
110849
110837
110818
110793
110764
110732
110698
110665
110634
110606
111077
111054
111014
110963
110904
110841
110778
110716
110660
110615
111352
111310
111241
111152
111053
110950
110849
110753
110665
110591
111667
111598
111488
111352
111203
111053
110908
110774
110654
110557
112069
111965
111804
111611
111408
111207
111018
110846
110695
110569
112376
112227
112004
111747
111483
111230
110998
110791
110610
110466
112858
112652
112360
112035
111712
111410
111138
110900
110696
110528
113109
112839
112475
112086
111710
111367
111063
110803
110580
110401
113445
113120
112700
112264
111848
111475
111149
110871
110638
110447
110763
110761
110757
110751
110745
110738
110730
110722
110714
110708
110840
110834
110824
110810
110793
110774
110755
110735
110716
110698
111017
111004
110981
110950
110915
110876
110836
110796
110760
110731
111214
111190
111148
111095
111032
110965
110897
110831
110770
110716
111455
111415
111348
111262
111165
111063
110961
110865
110776
110704
111773
111713
111614
111489
111351
111209
111072
110943
110827
110728
111999
111912
111772
111602
111418
111234
111059
110899
110754
110638
112396
112275
112089
111870
111640
111415
111206
111017
110851
110711
112562
112403
112169
111903
111631
111371
111133
110923
110738
110587
112830
112638
112367
112065
111762
111478
111220
110994
110799
110637
110813
110811
110809
110806
110803
110799
110795
110791
110786
110783
110855
110852
110846
110838
110829
110818
110806
110795
110783
110773
110997
110989
110976
110958
110936
110912
110887
110862
110839
110821
111133
111118
111094
111061
111021
110978
110934
110890
110848
110811
111318
111294
111253
111198
111135
111067
110997
110930
110866
110814
111569
111533
111471
111390
111298
111200
111103
111009
110923
110848
111728
111675
111586
111474
111348
111218
111090
110969
110859
110768
112056
111984
111865
111719
111559
111396
111240
111095
110965
110853
112152
112057
111908
111728
111536
111346
111165
111001
110853
110731
112369
112255
112082
111877
111662
111451
111255
111077
110921
110789
110864
110863
110862
110861
110859
110857
110854
110852
110849
110848
110882
110880
110876
110872
110866
110860
110853
110847
110840
110833
111001
110996
110988
110977
110964
110950
110934
110919
110904
110894
111088
111079
111064
111044
111020
110992
110963
110934
110907
110881
111231
111216
111191
111156
111115
111071
111024
110978
110934
110898
111427
111405
111366
111314
111253
111187
111120
111054
110992
110937
111531
111499
111443
111369
111284
111193
111102
111015
110933
110865
111807
111763
111688
111591
111482
111367
111254
111147
111049
110962
111847
111789
111694
111574
111441
111305
111172
111049
110934
110839
112028
111959
111849
111712
111563
111412
111266
111132
111011
110907
110913
110913
110912
110911
110910
110909
110908
110907
110905
110904
110911
110910
110908
110905
110902
110898
110895
110890
110886
110882
111018
111015
111010
111003
110996
110987
110977
110967
110959
110953
111065
111060
111051
111039
111023
111006
110988
110969
110951
110934
111178
111169
111153
111131
111105
111076
111045
111014
110985
110961
111331
111317
111293
111259
111220
111176
111130
111084
111041
111002
111391
111370
111334
111286
111229
111168
111105
111043
110984
110935
111628
111601
111553
111489
111416
111337
111257
111180
111109
111044
111620
111584
111523
111444
111354
111259
111164
111074
110988
110917
111778
111736
111665
111576
111474
111369
111264
111165
111075
110996
110958
110958
110957
110957
110956
110956
110955
110954
110953
110953
110938
110937
110936
110935
110933
110931
110928
110926
110923
110920
111041
111039
111036
111032
111027
111022
111016
111010
111005
111002
111055
111052
111047
111039
111030
111019
111007
110995
110983
110972
111147
111142
111132
111118
111101
111082
111062
111042
111023
111007
111266
111257
111242
111220
111195
111166
111135
111105
111075
111048
111290
111277
111254
111223
111185
111144
111101
111058
111017
110983
111501
111484
111453
111412
111364
111311
111256
111202
111151
111104
111451
111429
111390
111339
111278
111213
111147
111083
111021
110969
111597
111571
111527
111469
111401
111329
111256
111186
111120
111062
110998
110998
110997
110997
110997
110996
110996
110996
110995
110995
110959
110959
110958
110958
110956
110955
110954
110952
110950
110947
111065
111064
111062
111060
111057
111053
111050
111046
111043
111043
111051
111049
111045
111041
111035
111028
111021
111014
111006
110998
111130
111126
111120
111111
111101
111089
111076
111063
111051
111041
111221
111216
111206
111192
111176
111157
111137
111117
111097
111079
111218
111210
111195