/*--------------------------------*- C++ -*----------------------------------*\
| =========                 |                                                 |
| \\      /  F ield         | foam-extend: Open Source CFD                    |
|  \\    /   O peration     | Version:     4.0                                |
|   \\  /    A nd           | Web:         http://www.foam-extend.org         |
|    \\/     M anipulation  |                                                 |
\*---------------------------------------------------------------------------*/
FoamFile
{
    version     2.0;
    format      ascii;
    class       surfaceScalarField;
    location    "900";
    object      phi;
}
// * * * * * * * * * * * * * * * * * * * * * * * * * * * * * * * * * * * * * //

dimensions      [1 0 -1 0 0 0 0];

internalField   nonuniform List<scalar> 
97302
(
-0.000109817
8.47706e-07
-0.000868021
0.000877355
-0.000119594
1.03709e-06
-0.000869061
0.000877801
-0.000129487
1.10069e-06
-0.000869611
0.000878404
-0.000140068
1.04495e-06
-0.000869671
0.000879206
-0.000152162
8.6009e-07
-0.000869239
0.000880473
-0.00016725
5.35484e-07
-0.000868095
0.000882647
-0.000188418
4.41678e-08
-0.000865635
0.000886758
-0.000222655
-6.57572e-07
-0.000860029
0.000894924
-0.000271171
-1.68873e-06
-0.00085023
0.000900434
-4.41726e-06
-0.000822634
-0.000352743
0.000908623
-0.000150945
1.37961e-06
-0.00116337
0.00117351
-0.000161153
1.74229e-06
-0.00116448
0.00117399
-0.000171447
1.8738e-06
-0.00116517
0.00117469
-0.00018236
1.79768e-06
-0.00116524
0.0011754
-0.000194685
1.4966e-06
-0.00116448
0.00117617
-0.000210132
9.57726e-07
-0.0011625
0.00117752
-0.000232544
1.21546e-07
-0.0011589
0.00118124
-0.000271278
-1.10639e-06
-0.00115206
0.00119124
-0.000327914
-3.02276e-06
-0.00113962
0.00119758
-7.54546e-06
-0.00110147
-0.00043212
0.0012088
-0.000191165
1.57061e-06
-0.00145738
0.00146822
-0.000201647
2.07431e-06
-0.00145864
0.00146879
-0.0002121
2.27995e-06
-0.00145941
0.00146946
-0.000223028
2.22967e-06
-0.00145931
0.00146981
-0.000235357
1.90192e-06
-0.00145805
0.00146997
-0.000251217
1.28367e-06
-0.00145546
0.001471
-0.000275079
2.92695e-07
-0.00145164
0.00147533
-0.000318019
-1.1696e-06
-0.00144508
0.00148808
-0.000381239
-3.54843e-06
-0.00143185
0.0014956
-9.29736e-06
-0.00138302
-0.000500038
0.00150357
-0.000231294
1.6837e-06
-0.00174752
0.00175874
-0.000242068
2.34041e-06
-0.00174904
0.00175955
-0.000252821
2.63555e-06
-0.00175012
0.00176052
-0.000264074
2.63423e-06
-0.00175029
0.00176114
-0.000276819
2.30517e-06
-0.00174926
0.0017616
-0.000293377
1.63701e-06
-0.00174697
0.00176318
-0.000318545
5.24256e-07
-0.00174353
0.00176847
-0.000364667
-1.12499e-06
-0.00173741
0.00178349
-0.000432626
-3.90993e-06
-0.00172385
0.00179218
-1.08344e-05
-0.00166408
-0.000560264
0.00179325
-0.000271343
1.8814e-06
-0.00203858
0.00204994
-0.000282291
2.61951e-06
-0.00204054
0.00205121
-0.000293222
2.95933e-06
-0.0020422
0.00205281
-0.00030468
2.97887e-06
-0.00204291
0.00205403
-0.000317727
2.64603e-06
-0.00204248
0.00205519
-0.000334805
1.94986e-06
-0.00204089
0.00205766
-0.000361003
7.70935e-07
-0.00203817
0.00206412
-0.000409697
-9.75094e-07
-0.00203281
0.00208136
-0.000481642
-4.03894e-06
-0.00201975
0.00209183
-1.20672e-05
-0.00194838
-0.000614847
0.00208282
-0.000311989
1.98993e-06
-0.00232809
0.00233969
-0.000323051
2.76021e-06
-0.00233059
0.00234151
-0.000334061
3.08784e-06
-0.00233274
0.00234362
-0.000345588
3.07785e-06
-0.00233395
0.00234537
-0.000358747
2.70868e-06
-0.00233411
0.00234721
-0.000376062
1.98001e-06
-0.00233333
0.00235061
-0.000402897
7.72425e-07
-0.00233159
0.00235842
-0.000453505
-9.79179e-07
-0.00232743
0.00237804
-0.000528793
-4.09236e-06
-0.00231602
0.00239136
-1.29859e-05
-0.00223276
-0.00066567
0.00237056
-0.000352501
2.05812e-06
-0.00261735
0.00262901
-0.000363516
2.73372e-06
-0.00262056
0.0026316
-0.000374458
2.98182e-06
-0.00262336
0.00263441
-0.000385899
2.87583e-06
-0.00262511
0.00263675
-0.000399007
2.42273e-06
-0.00262591
0.0026393
-0.000416339
1.61843e-06
-0.002626
0.00264369
-0.000443506
4.00214e-07
-0.00262546
0.002653
-0.000495451
-1.24488e-06
-0.002623
0.00267521
-0.000573526
-3.96511e-06
-0.00261441
0.00269236
-1.30519e-05
-0.00251907
-0.000712478
0.00265809
-0.00039431
1.83465e-06
-0.00290728
0.00291934
-0.000405391
2.30941e-06
-0.00291119
0.0029227
-0.000416342
2.35655e-06
-0.00291418
0.00292576
-0.000427738
2.02986e-06
-0.00291592
0.00292816
-0.00044071
1.36804e-06
-0.00291665
0.00293067
-0.000457756
3.75871e-07
-0.00291693
0.00293522
-0.000484633
-9.12924e-07
-0.00291713
0.00294532
-0.000536751
-2.42474e-06
-0.00291621
0.00296951
-0.000616275
-4.16729e-06
-0.00291116
0.00299088
-1.2106e-05
-0.00280556
-0.00075567
0.00294401
-0.000435526
9.99982e-07
-0.00319372
0.00320594
-0.000446199
1.08253e-06
-0.00319861
0.00321051
-0.000456779
8.00747e-07
-0.00320228
0.00321441
-0.000467893
7.20004e-08
-0.00320465
0.00321772
-0.000480695
-9.85747e-07
-0.00320614
0.0032213
-0.000497569
-2.34198e-06
-0.00320742
0.00322702
-0.000524276
-3.80428e-06
-0.00320908
0.00323868
-0.000576088
-5.09474e-06
-0.00321056
0.00326504
-0.0006555
-5.46009e-06
-0.00320809
0.0032888
-1.01116e-05
-0.003092
-0.000792361
0.00322686
-0.000476999
-0.00346104
0.00347388
-0.000488309
-0.00346553
0.00347793
-0.000499501
-0.00346692
0.00347891
-0.000511229
-0.00346485
0.00347665
-0.000524517
-0.00346006
0.00347236
-0.000541482
-0.0034537
0.00346832
-0.000567362
-0.00344706
0.00346913
-0.000616364
-0.00344178
0.00348568
-0.000689385
-0.00343926
0.00350682
-0.00333198
-0.000818558
0.00345104
1.44707e-05
7.76964e-07
-0.000859494
5.42041e-06
1.00104e-06
-0.000861012
-3.6606e-06
1.08621e-06
-0.000861616
-1.29563e-05
1.03457e-06
-0.00086141
-2.26666e-05
8.35356e-07
-0.000860364
-3.30116e-05
4.69729e-07
-0.00085822
-4.41417e-05
-9.6889e-08
-0.000854408
-5.54777e-05
-9.43352e-07
-0.00084775
-6.62302e-05
-2.26418e-06
-0.000837214
-4.0154e-06
-0.000820855
-6.39939e-05
1.54936e-05
1.27793e-06
-0.00115346
5.53413e-06
1.6926e-06
-0.00115522
-4.43096e-06
1.85885e-06
-0.00115597
-1.47164e-05
1.79526e-06
-0.00115572
-2.55848e-05
1.47733e-06
-0.00115426
-3.73993e-05
8.81314e-07
-0.00115109
-5.09983e-05
-5.5982e-08
-0.00114534
-6.74295e-05
-1.45143e-06
-0.00113512
-8.8095e-05
-3.68882e-06
-0.00111752
-6.72151e-06
-0.00108822
-9.86336e-05
1.69178e-05
1.48393e-06
-0.00144634
6.26953e-06
2.05283e-06
-0.00144835
-4.31241e-06
2.29999e-06
-0.00144927
-1.51546e-05
2.26419e-06
-0.00144894
-2.65927e-05
1.9086e-06
-0.00144704
-3.93621e-05
1.2071e-06
-0.00144302
-5.52096e-05
6.5016e-08
-0.00143591
-7.68727e-05
-1.64074e-06
-0.00142322
-0.00010845
-4.49259e-06
-0.00139947
-8.57272e-06
-0.00135565
-0.000133963
1.82751e-05
1.61284e-06
-0.00173583
7.14186e-06
2.3524e-06
-0.00173821
-3.93537e-06
2.69821e-06
-0.00173944
-1.53432e-05
2.71741e-06
-0.00173933
-2.75353e-05
2.35975e-06
-0.00173752
-4.1505e-05
1.60095e-06
-0.0017334
-5.95642e-05
3.05063e-07
-0.00172571
-8.58505e-05
-1.64235e-06
-0.00171112
-0.000127937
-5.03536e-06
-0.00168122
-1.01185e-05
-0.00162123
-0.000169239
1.95333e-05
1.82171e-06
-0.00202654
8.10426e-06
2.65272e-06
-0.00202941
-3.26812e-06
3.04993e-06
-0.00203118
-1.50291e-05
3.09669e-06
-0.00203153
-2.77696e-05
2.74008e-06
-0.00203012
-4.2669e-05
1.95611e-06
-0.00202635
-6.25059e-05
5.69794e-07
-0.00201859
-9.27208e-05
-1.52379e-06
-0.00200272
-0.000144845
-5.30929e-06
-0.00196735
-1.12693e-05
-0.00189028
-0.000201789
2.0368e-05
1.96142e-06
-0.00231567
8.74258e-06
2.83493e-06
-0.00231914
-2.78134e-06
3.22864e-06
-0.00232139
-1.47049e-05
3.25698e-06
-0.00232218
-2.77385e-05
2.87567e-06
-0.00232121
-4.32237e-05
2.07249e-06
-0.00231796
-6.43704e-05
6.53487e-07
-0.00231053
-9.77985e-05
-1.47457e-06
-0.00229405
-0.000159375
-5.39675e-06
-0.00225436
-1.20362e-05
-0.00216002
-0.000231348
2.08771e-05
2.02206e-06
-0.00260472
9.25237e-06
2.80086e-06
-0.0026089
-2.24074e-06
3.12148e-06
-0.00261176
-1.41174e-05
3.06757e-06
-0.00261304
-2.72173e-05
2.63569e-06
-0.00261257
-4.2992e-05
1.7995e-06
-0.00260995
-6.50336e-05
3.83527e-07
-0.00260315
-0.000101011
-1.70374e-06
-0.00258679
-0.000171307
-5.35848e-06
-0.00254415
-1.23131e-05
-0.00243266
-0.000257441
2.06755e-05
1.82658e-06
-0.00289425
9.02458e-06
2.40898e-06
-0.00289915
-2.38151e-06
2.55952e-06
-0.00290222
-1.41034e-05
2.33818e-06
-0.00290347
-2.70345e-05
1.77768e-06
-0.00290286
-4.26989e-05
8.50491e-07
-0.00290032
-6.49919e-05
-5.31641e-07
-0.00289392
-0.000102424
-2.47522e-06
-0.00287801
-0.00018014
-5.24772e-06
-0.00283355
-1.18693e-05
-0.00270605
-0.000280094
2.01667e-05
9.95105e-07
-0.0031804
8.96909e-06
1.15635e-06
-0.00318616
-1.95181e-06
1.00757e-06
-0.0031898
-1.31808e-05
4.30306e-07
-0.00319151
-2.57572e-05
-4.4338e-07
-0.00319134
-4.13148e-05
-1.61917e-06
-0.0031894
-6.39589e-05
-3.03277e-06
-0.00318394
-0.000102692
-4.67622e-06
-0.00316963
-0.000186364
-6.11066e-06
-0.00312356
-9.99501e-06
-0.00297771
-0.000302524
1.89892e-05
-0.00344739
7.53754e-06
-0.00345293
-3.43819e-06
-0.00345493
-1.45965e-05
-0.00345326
-2.68586e-05
-0.00344824
-4.1825e-05
-0.00344035
-6.34349e-05
-0.00342848
-0.000100922
-0.00340897
-0.000185971
-0.00336032
-0.00320724
-0.000320697
1.20863e-05
6.58786e-07
-0.000852738
4.50934e-06
8.986e-07
-0.000854333
-3.19227e-06
9.91233e-07
-0.000854906
-1.09291e-05
9.32636e-07
-0.000854605
-1.85782e-05
7.15366e-07
-0.00085343
-2.58956e-05
3.2305e-07
-0.000851225
-3.23305e-05
-2.66786e-07
-0.000847706
-3.65785e-05
-1.09206e-06
-0.00084241
-3.67561e-05
-2.23564e-06
-0.000834801
-3.49807e-06
-0.000825061
-2.90523e-05
1.39625e-05
1.11866e-06
-0.00114489
4.98488e-06
1.55733e-06
-0.0011469
-4.07017e-06
1.73266e-06
-0.00114766
-1.32913e-05
1.65684e-06
-0.00114722
-2.2683e-05
1.30576e-06
-0.00114545
-3.20953e-05
6.53424e-07
-0.00114201
-4.11279e-05
-3.54588e-07
-0.00113622
-4.86301e-05
-1.79155e-06
-0.00112692
-5.21413e-05
-3.86956e-06
-0.00111238
-6.26091e-06
-0.00109278
-4.48201e-05
1.61619e-05
1.36252e-06
-0.00143617
6.02782e-06
1.96202e-06
-0.00143862
-4.12758e-06
2.21821e-06
-0.0014396
-1.44942e-05
2.1631e-06
-0.00143908
-2.51653e-05
1.7551e-06
-0.00143682
-3.62055e-05
9.56714e-07
-0.00143228
-4.77313e-05
-3.28866e-07
-0.00142441
-5.92819e-05
-2.20128e-06
-0.00141126
-6.84601e-05
-5.06811e-06
-0.00138909
-8.55719e-06
-0.00135669
-6.51222e-05
1.79439e-05
1.54326e-06
-0.00172467
7.02077e-06
2.3238e-06
-0.00172765
-3.92934e-06
2.68033e-06
-0.00172896
-1.52088e-05
2.6756e-06
-0.00172857
-2.70606e-05
2.25263e-06
-0.00172616
-3.98165e-05
1.37127e-06
-0.00172106
-5.40414e-05
-1.18798e-07
-0.0017117
-6.99417e-05
-2.34059e-06
-0.00169508
-8.58333e-05
-5.95784e-06
-0.00166444
-1.05613e-05
-0.00161647
-8.85932e-05
1.94821e-05
1.79757e-06
-0.00201475
8.04446e-06
2.67589e-06
-0.00201832
-3.40536e-06
3.08788e-06
-0.00202014
-1.52758e-05
3.11227e-06
-0.0020201
-2.79885e-05
2.68841e-06
-0.00201785
-4.21284e-05
1.77275e-06
-0.00201261
-5.87139e-05
1.59535e-07
-0.00200229
-7.87571e-05
-2.30202e-06
-0.00198271
-0.000102052
-6.54514e-06
-0.00194347
-1.21914e-05
-0.00187803
-0.000112673
2.05423e-05
1.98505e-06
-0.00230333
8.75324e-06
2.91039e-06
-0.00230759
-2.99683e-06
3.32415e-06
-0.00230988
-1.5208e-05
3.3385e-06
-0.0023102
-2.84586e-05
2.89656e-06
-0.00230817
-4.35835e-05
1.9652e-06
-0.00230303
-6.2091e-05
3.09298e-07
-0.00229217
-8.59101e-05
-2.24373e-06
-0.00227029
-0.00011707
-6.83495e-06
-0.00222291
-1.33501e-05
-0.00213894
-0.000136993
2.11863e-05
2.06668e-06
-0.002592
9.29898e-06
2.89785e-06
-0.002597
-2.50944e-06
3.24572e-06
-0.00259987
-1.47824e-05
3.19272e-06
-0.00260062
-2.82639e-05
2.72641e-06
-0.00259892
-4.39992e-05
1.80349e-06
-0.00259405
-6.39856e-05
1.88519e-07
-0.00258304
-9.11e-05
-2.34021e-06
-0.00255958
-0.00013021
-6.88515e-06
-0.00250499
-1.40318e-05
-0.00240201
-0.00016018
2.10645e-05
1.88053e-06
-0.00288107
9.12628e-06
2.51225e-06
-0.00288683
-2.61481e-06
2.70787e-06
-0.00288994
-1.47631e-05
2.52987e-06
-0.00289066
-2.81565e-05
1.99525e-06
-0.00288873
-4.40287e-05
1.06198e-06
-0.0028837
-6.48498e-05
-4.18755e-07
-0.0028725
-9.4402e-05
-2.71051e-06
-0.00284809
-0.00014093
-6.43246e-06
-0.00278748
-1.37263e-05
-0.00266571
-0.000181574
2.04704e-05
1.06498e-06
-0.00316689
8.97169e-06
1.25858e-06
-0.0031734
-2.28396e-06
1.19079e-06
-0.00317703
-1.39009e-05
7.24864e-07
-0.00317809
-2.68688e-05
-1.47789e-08
-0.00317637
-4.26641e-05
-1.04609e-06
-0.00317149
-6.42681e-05
-2.35551e-06
-0.0031604
-9.625e-05
-4.0875e-06
-0.00313627
-0.000149146
-6.33354e-06
-0.00307076
-1.14438e-05
-0.0029275
-0.000201638
1.92858e-05
-0.00343368
7.7032e-06
-0.00344009
-3.44836e-06
-0.00344259
-1.4853e-05
-0.00344113
-2.73873e-05
-0.00343572
-4.25357e-05
-0.00342625
-6.33198e-05
-0.00341005
-9.51975e-05
-0.00338118
-0.000150874
-0.00331098
-0.00315314
-0.000216418
9.3844e-06
4.8522e-07
-0.000847808
3.53268e-06
7.28835e-07
-0.00084921
-2.50891e-06
8.2561e-07
-0.00084969
-8.46733e-06
7.65074e-07
-0.000849412
-1.4036e-05
5.44931e-07
-0.000848406
-1.87921e-05
1.55659e-07
-0.000846625
-2.20931e-05
-4.10213e-07
-0.000843995
-2.28984e-05
-1.1548e-06
-0.00084045
-1.96209e-05
-2.07355e-06
-0.000836005
-2.94346e-06
-0.000831082
-1.06569e-05
1.18119e-05
8.70373e-07
-0.00113799
4.2298e-06
1.31946e-06
-0.00113991
-3.49715e-06
1.49949e-06
-0.00114061
-1.12293e-05
1.41513e-06
-0.00114014
-1.87496e-05
1.04665e-06
-0.00113844
-2.56691e-05
3.7454e-07
-0.00113531
-3.12272e-05
-6.33519e-07
-0.00113044
-3.39035e-05
-2.00014e-06
-0.0011234
-3.08561e-05
-3.78163e-06
-0.00111372
-5.56535e-06
-0.00110277
-1.82405e-05
1.46161e-05
1.14453e-06
-0.00142739
5.49038e-06
1.76003e-06
-0.00142993
-3.72826e-06
2.01764e-06
-0.0014309
-1.30357e-05
1.94002e-06
-0.0014303
-2.23236e-05
1.48743e-06
-0.00142798
-3.12979e-05
6.23015e-07
-0.00142356
-3.9281e-05
-7.32371e-07
-0.00141633
-4.46645e-05
-2.63274e-06
-0.00140525
-4.35235e-05
-5.26906e-06
-0.00138875
-8.09315e-06
-0.00136879
-2.89018e-05
1.68246e-05
1.38089e-06
-0.0017146
6.58144e-06
2.18895e-06
-0.00171783
-3.75983e-06
2.54713e-06
-0.00171914
-1.43294e-05
2.50964e-06
-0.00171857
-2.51702e-05
2.01994e-06
-0.00171586
-3.61947e-05
1.03367e-06
-0.00171044
-4.69368e-05
-5.87107e-07
-0.0017011
-5.5819e-05
-2.93715e-06
-0.00168589
-5.79973e-05
-6.43908e-06
-0.00166109
-1.04084e-05
-0.0016289
-4.32482e-05
1.86959e-05
1.68706e-06
-0.00200374
7.6648e-06
2.6014e-06
-0.00200771
-3.43937e-06
3.01875e-06
-0.0020095
-1.48846e-05
3.00782e-06
-0.00200915
-2.69052e-05
2.50607e-06
-0.00200631
-3.96653e-05
1.46056e-06
-0.00200028
-5.30049e-05
-3.31621e-07
-0.0019892
-6.55703e-05
-3.01891e-06
-0.00197006
-7.21368e-05
-7.30718e-06
-0.00193604
-1.24255e-05
-0.00188897
-5.91811e-05
2.004e-05
1.93282e-06
-0.00229153
8.44876e-06
2.90014e-06
-0.0022963
-3.16139e-06
3.32471e-06
-0.00229857
-1.51824e-05
3.31074e-06
-0.00229848
-2.80243e-05
2.79433e-06
-0.00229561
-4.21274e-05
1.7277e-06
-0.00228919
-5.7738e-05
-1.34841e-07
-0.00227676
-7.39421e-05
-2.99291e-06
-0.00225411
-8.58216e-05
-7.81276e-06
-0.00221052
-1.39531e-05
-0.00214668
-7.65539e-05
2.08815e-05
2.05398e-06
-0.00257962
9.04188e-06
2.92921e-06
-0.00258519
-2.77004e-06
3.29454e-06
-0.00258803
-1.50224e-05
3.22602e-06
-0.00258829
-2.83121e-05
2.70122e-06
-0.00258553
-4.3341e-05
1.66463e-06
-0.00257896
-6.08212e-05
-1.43791e-07
-0.00256555
-8.04204e-05
-3.00715e-06
-0.00253997
-9.82134e-05
-7.98242e-06
-0.00248703
-1.49997e-05
-0.00240513
-9.40462e-05
2.09125e-05
1.89102e-06
-0.00286814
8.95395e-06
2.5645e-06
-0.0028745
-2.86184e-06
2.79125e-06
-0.00287762
-1.50861e-05
2.63464e-06
-0.00287784
-2.84282e-05
2.09311e-06
-0.00287478
-4.38391e-05
1.11573e-06
-0.00286774
-6.25631e-05
-4.89281e-07
-0.00285343
-8.49929e-05
-3.08133e-06
-0.00282558
-0.00010888
-7.36644e-06
-0.00276421
-1.48397e-05
-0.00266362
-0.000111129
2.03823e-05
1.10883e-06
-0.00315352
8.8086e-06
1.32971e-06
-0.0031606
-2.57911e-06
1.32763e-06
-0.00316418
-1.43289e-05
9.48359e-07
-0.00316465
-2.72843e-05
3.04283e-07
-0.00316162
-4.26305e-05
-6.38978e-07
-0.00315439
-6.22412e-05
-1.91148e-06
-0.00313936
-8.76239e-05
-3.74707e-06
-0.00311022
-0.000117455
-6.46137e-06
-0.00304184
-1.21607e-05
-0.00291983
-0.000127803
1.9273e-05
-0.00342018
7.73805e-06
-0.00342722
-3.43304e-06
-0.00343009
-1.48886e-05
-0.00342873
-2.73859e-05
-0.00342292
-4.21473e-05
-0.00341213
-6.11471e-05
-0.00339296
-8.69908e-05
-0.00335908
-0.000120032
-0.0032844
-0.00314476
-0.000140576
6.89415e-06
2.97657e-07
-0.000844354
2.63154e-06
5.2863e-07
-0.000845476
-1.83795e-06
6.23929e-07
-0.000845845
-6.18391e-06
5.66693e-07
-0.000845633
-1.00613e-05
3.59575e-07
-0.000844888
-1.30644e-05
1.04336e-09
-0.000843623
-1.46983e-05
-5.01048e-07
-0.00084186
-1.43559e-05
-1.1252e-06
-0.000839667
-1.13625e-05
-1.82466e-06
-0.000837173
-2.42062e-06
-0.000834598
-5.42544e-06
9.47946e-06
5.78803e-07
-0.0011327
3.41301e-06
1.01731e-06
-0.00113433
-2.84508e-06
1.19508e-06
-0.00113492
-9.01273e-06
1.10842e-06
-0.00113451
-1.47463e-05
7.43465e-07
-0.00113309
-1.95754e-05
9.2042e-08
-0.00113057
-2.27815e-05
-8.51696e-07
-0.00112688
-2.32569e-05
-2.06607e-06
-0.00112198
-1.93332e-05
-3.5035e-06
-0.00111596
-4.78983e-06
-0.00110988
-9.86008e-06
1.26418e-05
8.55159e-07
-0.00142019
4.81007e-06
1.46661e-06
-0.00142255
-3.17947e-06
1.71897e-06
-0.00142343
-1.11398e-05
1.62351e-06
-0.00142285
-1.87945e-05
1.14592e-06
-0.00142072
-2.56708e-05
2.59529e-07
-0.00141685
-3.08903e-05
-1.08363e-06
-0.00141088
-3.28707e-05
-2.88652e-06
-0.00140245
-2.87168e-05
-5.16461e-06
-0.00139124
-7.34359e-06
-0.00137936
-1.55865e-05
1.51857e-05
1.13022e-06
-0.00170592
5.96896e-06
1.94927e-06
-0.0017091
-3.41996e-06
2.30313e-06
-0.00171034
-1.29089e-05
2.23451e-06
-0.00170969
-2.23322e-05
1.69182e-06
-0.00170698
-3.13245e-05
6.37095e-07
-0.00170183
-3.89928e-05
-1.03396e-06
-0.00169348
-4.34028e-05
-3.36561e-06
-0.00168101
-4.02262e-05
-6.53657e-06
-0.0016629
-9.77417e-06
-0.0016425
-2.41931e-05
1.73747e-05
1.48057e-06
-0.00199387
7.10391e-06
2.41823e-06
-0.0019979
-3.31118e-06
2.83546e-06
-0.00199962
-1.39414e-05
2.7873e-06
-0.00199907
-2.47913e-05
2.21359e-06
-0.00199598
-3.56856e-05
1.06166e-06
-0.00198981
-4.58467e-05
-8.41581e-07
-0.00197923
-5.31447e-05
-3.60138e-06
-0.00196253
-5.19418e-05
-7.6353e-06
-0.00193614
-1.2009e-05
-0.00190452
-3.4157e-05
1.90174e-05
1.78426e-06
-0.00228067
7.96138e-06
2.78482e-06
-0.00228561
-3.18544e-06
3.21539e-06
-0.00228781
-1.46361e-05
3.16856e-06
-0.00228741
-2.65654e-05
2.57743e-06
-0.00228405
-3.90431e-05
1.38735e-06
-0.00227704
-5.15469e-05
-6.28814e-07
-0.00226447
-6.19674e-05
-3.64558e-06
-0.00224365
-6.37323e-05
-8.33552e-06
-0.00220806
-1.37859e-05
-0.00216293
-4.57012e-05
2.00878e-05
1.95635e-06
-0.00256796
8.60655e-06
2.87114e-06
-0.00257379
-2.91501e-06
3.2504e-06
-0.00257655
-1.47933e-05
3.16117e-06
-0.0025764
-2.73961e-05
2.57256e-06
-0.00257293
-4.10535e-05
1.41947e-06
-0.00256534
-5.56013e-05
-5.54036e-07
-0.00255108
-6.91283e-05
-3.62284e-06
-0.00252647
-7.46347e-05
-8.62285e-06
-0.00248124
-1.50723e-05
-0.00242077
-5.77039e-05
2.03172e-05
1.82503e-06
-0.00285579
8.61637e-06
2.54052e-06
-0.00286247
-3.01482e-06
2.7935e-06
-0.00286553
-1.50033e-05
2.64916e-06
-0.00286534
-2.78422e-05
2.08855e-06
-0.00286146
-4.2117e-05
1.0512e-06
-0.0028531
-5.81428e-05
-6.74631e-07
-0.00283728
-7.44714e-05
-3.4699e-06
-0.00280941
-8.43257e-05
-7.95461e-06
-0.00275502
-1.50363e-05
-0.00267796
-7.00225e-05
1.99107e-05
1.10544e-06
-0.00314063
8.51104e-06
1.35408e-06
-0.00314801
-2.78077e-06
1.40934e-06
-0.0031515
-1.43972e-05
1.10037e-06
-0.00315149
-2.69757e-05
5.28182e-07
-0.00314748
-4.13087e-05
-3.57973e-07
-0.00313865
-5.8217e-05
-1.6221e-06
-0.00312151
-7.73673e-05
-3.53428e-06
-0.00309101
-9.2056e-05
-6.44723e-06
-0.00302866
-1.2038e-05
-0.00293228
-8.25993e-05
1.89113e-05
-0.00340717
7.62554e-06
-0.00341458
-3.38166e-06
-0.00341767
-1.46693e-05
-0.00341634
-2.68218e-05
-0.00341024
-4.07144e-05
-0.00339859
-5.73138e-05
-0.00337799
-7.71314e-05
-0.0033428
-9.45927e-05
-0.00327338
-0.00315941
-9.19781e-05
4.85793e-06
1.24282e-07
-0.000841979
1.89046e-06
3.29634e-07
-0.000842839
-1.26726e-06
4.18481e-07
-0.000843105
-4.30586e-06
3.68554e-07
-0.000842963
-6.91795e-06
1.86426e-07
-0.000842463
-8.77956e-06
-1.23526e-07
-0.000841638
-9.55958e-06
-5.43372e-07
-0.000840536
-8.94069e-06
-1.04098e-06
-0.000839245
-6.68995e-06
-1.55879e-06
-0.000837865
-1.96627e-06
-0.000836422
-2.89997e-06
7.26832e-06
2.85038e-07
-0.00112879
2.63008e-06
6.92204e-07
-0.00113005
-2.21463e-06
8.6046e-07
-0.00113052
-6.93196e-06
7.78284e-07
-0.00113021
-1.11477e-05
4.3748e-07
-0.00112912
-1.44182e-05
-1.58791e-07
-0.00112727
-1.61803e-05
-9.94928e-07
-0.00112467
-1.57485e-05
-2.02238e-06
-0.00112143
-1.23357e-05
-3.14794e-06
-0.00111779
-4.07238e-06
-0.00111436
-5.75079e-06
1.05238e-05
5.32529e-07
-0.00141452
4.07428e-06
1.1161e-06
-0.00141653
-2.57633e-06
1.35563e-06
-0.00141728
-9.11902e-06
1.25052e-06
-0.00141678
-1.51784e-05
7.7347e-07
-0.001415
-2.0233e-05
-8.758e-08
-0.00141186
-2.34822e-05
-1.34676e-06
-0.00140727
-2.3745e-05
-2.96447e-06
-0.00140124
-1.93054e-05
-4.85591e-06
-0.00139397
-6.51699e-06
-0.00138692
-9.30413e-06
1.32391e-05
8.18617e-07
-0.00169875
5.25197e-06
1.62604e-06
-0.00170162
-2.97032e-06
1.96854e-06
-0.00170273
-1.11829e-05
1.87596e-06
-0.0017021
-1.90571e-05
1.30489e-06
-0.00169964
-2.60777e-05
2.31209e-07
-0.00169513
-3.12834e-05
-1.40514e-06
-0.00168822
-3.30141e-05
-3.59516e-06
-0.00167864
-2.82736e-05
-6.34224e-06
-0.00166615
-8.92075e-06
-0.00165348
-1.48922e-05
1.56612e-05
1.19471e-06
-0.00198536
6.41428e-06
2.13596e-06
-0.00198917
-3.04677e-06
2.54646e-06
-0.00199074
-1.25972e-05
2.46553e-06
-0.00199011
-2.20315e-05
1.83953e-06
-0.00198709
-3.0933e-05
6.25091e-07
-0.0019813
-3.82863e-05
-1.30342e-06
-0.00197198
-4.20347e-05
-3.9913e-06
-0.00195839
-3.7732e-05
-7.60747e-06
-0.00193918
-1.12246e-05
-0.00191858
-2.13656e-05
1.75655e-05
1.54576e-06
-0.002271
7.33157e-06
2.56425e-06
-0.0022758
-3.06958e-06
2.99495e-06
-0.00227786
-1.36522e-05
2.91638e-06
-0.00227728
-2.43523e-05
2.26349e-06
-0.00227377
-3.49268e-05
9.84215e-07
-0.00226682
-4.44463e-05
-1.10656e-06
-0.00225514
-5.06246e-05
-4.12826e-06
-0.00223733
-4.76264e-05
-8.4579e-06
-0.0022102
-1.3113e-05
-0.00217951
-2.91592e-05
1.8858e-05
1.77259e-06
-0.00255734
8.02393e-06
2.71709e-06
-0.00256311
-2.92817e-06
3.10594e-06
-0.0025657
-1.41276e-05
2.99552e-06
-0.00256528
-2.5691e-05
2.3505e-06
-0.00256145
-3.75917e-05
1.1039e-06
-0.00255356
-4.91038e-05
-9.71507e-07
-0.0025397
-5.78738e-05
-4.09809e-06
-0.00251773
-5.69146e-05
-8.83458e-06
-0.00248182
-1.4486e-05
-0.00243904
-3.72637e-05
1.93048e-05
1.67683e-06
-0.00284433
8.13416e-06
2.4307e-06
-0.00285102
-3.05147e-06
2.70473e-06
-0.00285394
-1.45135e-05
2.56664e-06
-0.00285345
-2.64981e-05
1.98375e-06
-0.00284911
-3.92064e-05
8.93026e-07
-0.00284018
-5.22594e-05
-9.11523e-07
-0.00282429
-6.35207e-05
-3.77503e-06
-0.00279847
-6.53704e-05
-8.15224e-06
-0.00275385
-1.44818e-05
-0.00269746
-4.5872e-05
1.90545e-05
1.04807e-06
-0.00312853
8.08257e-06
1.32261e-06
-0.00313593
-2.87211e-06
1.42636e-06
-0.00313927
-1.40846e-05
1.17265e-06
-0.00313888
-2.59602e-05
6.52922e-07
-0.00313428
-3.8892e-05
-1.95281e-07
-0.00312463
-5.2851e-05
-1.45434e-06
-0.003107
-6.6476e-05
-3.37804e-06
-0.00307778
-7.18044e-05
-6.26961e-06
-0.00302521
-1.12629e-05
-0.00295267
-5.4636e-05
1.81933e-05
-0.00339494
7.36622e-06
-0.00340243
-3.27784e-06
-0.0034056
-1.41679e-05
-0.00340428
-2.56857e-05
-0.00339807
-3.83383e-05
-0.00338614
-5.22828e-05
-0.0033655
-6.66959e-05
-0.00333176
-7.41792e-05
-0.00327217
-0.00318426
-6.05899e-05
3.33021e-06
-1.78412e-08
-0.000840337
1.32941e-06
1.54824e-07
-0.000840993
-8.29046e-07
2.34012e-07
-0.000841181
-2.89209e-06
1.93442e-07
-0.000841093
-4.61809e-06
4.23716e-08
-0.000840779
-5.77266e-06
-2.11728e-07
-0.000840272
-6.14908e-06
-5.46413e-07
-0.000839614
-5.5936e-06
-9.28319e-07
-0.000838872
-4.05592e-06
-1.30409e-06
-0.000838099
-1.58039e-06
-0.000837202
-1.69496e-06
5.35536e-06
2.0547e-08
-0.00112594
1.9389e-06
3.80708e-07
-0.00112686
-1.67179e-06
5.33528e-07
-0.00112721
-5.15713e-06
4.61148e-07
-0.00112699
-8.17411e-06
1.59972e-07
-0.00112622
-1.03564e-05
-3.58356e-07
-0.00112494
-1.13062e-05
-1.06465e-06
-0.0011232
-1.06355e-05
-1.89889e-06
-0.00112113
-8.0389e-06
-2.75937e-06
-0.00111893
-3.42006e-06
-0.00111692
-3.63693e-06
8.47677e-06
2.13179e-07
-0.00141018
3.34842e-06
7.4612e-07
-0.00141176
-1.99577e-06
9.65259e-07
-0.00141237
-7.19679e-06
8.5918e-07
-0.00141198
-1.18521e-05
4.07395e-07
-0.00141059
-1.54728e-05
-3.88134e-07
-0.00140821
-1.74265e-05
-1.51317e-06
-0.00140487
-1.69483e-05
-2.89964e-06
-0.00140072
-1.31738e-05
-4.41838e-06
-0.00139609
-5.67207e-06
-0.00139185
-5.99382e-06
1.11749e-05
4.79902e-07
-0.00169301
4.48639e-06
1.25007e-06
-0.00169544
-2.47738e-06
1.57314e-06
-0.00169637
-9.35899e-06
1.46624e-06
-0.00169583
-1.5737e-05
8.95627e-07
-0.00169375
-2.10522e-05
-1.45859e-07
-0.00169005
-2.44522e-05
-1.67519e-06
-0.00168466
-2.47244e-05
-3.63794e-06
-0.00167763
-2.00972e-05
-5.93231e-06
-0.00166927
-7.95457e-06
-0.00166141
-9.87926e-06
1.37016e-05
8.56754e-07
-0.00197825
5.639e-06
1.77605e-06
-0.00198163
-2.69264e-06
2.17151e-06
-0.00198301
-1.10135e-05
2.06612e-06
-0.00198239
-1.89665e-05
1.41569e-06
-0.00197965
-2.60032e-05
1.92648e-07
-0.0019746
-3.1107e-05
-1.67539e-06
-0.00196688
-3.26194e-05
-4.17311e-06
-0.00195634
-2.75762e-05
-7.29023e-06
-0.00194286
-1.02189e-05
-0.00192961
-1.4285e-05
1.57871e-05
1.2363e-06
-0.00226267
6.5909e-06
2.25029e-06
-0.00226708
-2.84107e-06
2.67323e-06
-0.00226892
-1.23432e-05
2.56816e-06
-0.00226828
-2.16555e-05
1.87628e-06
-0.00226492
-3.0319e-05
5.56815e-07
-0.00225853
-3.72657e-05
-1.5197e-06
-0.00224835
-4.04856e-05
-4.40578e-06
-0.00223388
-3.56874e-05
-8.23479e-06
-0.00221406
-1.21024e-05
-0.00219356
-1.97473e-05
1.72586e-05
1.51354e-06
-0.00254795
7.31556e-06
2.47077e-06
-0.00255339
-2.82167e-06
2.86263e-06
-0.00255576
-1.30953e-05
2.73373e-06
-0.00255517
-2.33963e-05
2.04888e-06
-0.00255132
-3.3416e-05
7.48162e-07
-0.00254373
-4.21378e-05
-1.34873e-06
-0.00253115
-4.73217e-05
-4.38635e-06
-0.00251256
-4.33635e-05
-8.66127e-06
-0.00248535
-1.34254e-05
-0.00245581
-2.5276e-05
1.79158e-05
1.45122e-06
-0.00283398
7.52075e-06
2.23364e-06
-0.00284038
-2.97525e-06
2.52187e-06
-0.00284311
-1.36552e-05
2.38654e-06
-0.00284243
-2.45306e-05
1.78564e-06
-0.00283797
-3.54741e-05
6.61445e-07
-0.00282915
-4.56654e-05
-1.16492e-06
-0.00281428
-5.2866e-05
-3.95937e-06
-0.0027917
-5.05205e-05
-7.98217e-06
-0.00275688
-1.33459e-05
-0.00271676
-3.13023e-05
1.78334e-05
9.366e-07
-0.00311748
7.52836e-06
1.23155e-06
-0.00312462
-2.85351e-06
1.37424e-06
-0.00312774
-1.34102e-05
1.16286e-06
-0.0031271
-2.4319e-05
6.82021e-07
-0.00312226
-3.56237e-05
-1.35826e-07
-0.00311253
-4.67277e-05
-1.37708e-06
-0.00309569
-5.57877e-05
-3.24352e-06
-0.00306943
-5.56688e-05
-5.94589e-06
-0.00302736
-1.00961e-05
-0.00297454
-3.70438e-05
1.71316e-05
-0.00338377
6.96517e-06
-0.00339103
-3.11558e-06
-0.00339415
-1.33872e-05
-0.00339284
-2.40243e-05
-0.00338675
-3.51952e-05
-0.0033751
-4.64929e-05
-0.00335558
-5.63741e-05
-0.00332512
-5.78665e-05
-0.00327662
-0.00321166
-4.05637e-05
2.24923e-06
-1.22471e-07
-0.000839176
9.29915e-07
1.65404e-08
-0.00083969
-5.13045e-07
8.49186e-08
-0.000839823
-1.88726e-06
5.39616e-08
-0.000839773
-3.01613e-06
-6.54214e-08
-0.000839585
-3.73804e-06
-2.64976e-07
-0.000839285
-3.92679e-06
-5.22107e-07
-0.000838903
-3.50937e-06
-8.07211e-07
-0.000838482
-2.49426e-06
-1.07634e-06
-0.000838038
-1.26248e-06
-0.000837419
-1.0156e-06
3.80736e-06
-1.95914e-07
-0.00112388
1.3665e-06
1.09144e-07
-0.00112451
-1.24063e-06
2.42972e-07
-0.00112476
-3.74339e-06
1.83418e-07
-0.00112461
-5.85792e-06
-6.98602e-08
-0.0011241
-7.30444e-06
-5.00658e-07
-0.00112326
-7.81676e-06
-1.07396e-06
-0.00112214
-7.18566e-06
-1.72922e-06
-0.00112084
-5.31897e-06
-2.37364e-06
-0.0011195
-2.83862e-06
-0.00111827
-2.39486e-06
6.64172e-06
-7.43935e-08
-0.00140691
2.68237e-06
3.90462e-07
-0.00140809
-1.48188e-06
5.83098e-07
-0.00140854
-5.49986e-06
4.83224e-07
-0.00140826
-8.99459e-06
7.5824e-08
-0.00140724
-1.15508e-05
-6.269e-07
-0.00140553
-1.27044e-05
-1.5916e-06
-0.0014032
-1.19916e-05
-2.73741e-06
-0.00140042
-9.0326e-06
-3.92546e-06
-0.00139749
-4.85533e-06
-0.0013949
-3.95965e-06
9.15433e-06
1.46575e-07
-0.00168855
3.72514e-06
8.55357e-07
-0.00169047
-1.99196e-06
1.1511e-06
-0.00169122
-7.59133e-06
1.0396e-06
-0.00169079
-1.2626e-05
4.96581e-07
-0.00168913
-1.65667e-05
-4.69282e-07
-0.00168627
-1.87285e-05
-1.84094e-06
-0.00168225
-1.82977e-05
-3.53333e-06
-0.00167727
-1.43418e-05
-5.39379e-06
-0.00167175
-6.94834e-06
-0.00166689
-6.77337e-06
1.16452e-05
4.9753e-07
-0.00197249
4.82608e-06
1.36728e-06
-0.00197532
-2.29323e-06
1.73859e-06
-0.00197647
-9.33556e-06
1.6188e-06
-0.00197593
-1.58617e-05
9.74367e-07
-0.0019736
-2.12873e-05
-2.04193e-07
-0.00196944
-2.4718e-05
-1.94049e-06
-0.00196335
-2.4938e-05
-4.16951e-06
-0.00195548
-2.01873e-05
-6.76968e-06
-0.00194624
-9.08822e-06
-0.00193777
-9.88543e-06
1.38065e-05
8.819e-07
-0.0022557
5.77944e-06
1.86428e-06
-0.00225955
-2.53301e-06
2.27004e-06
-0.00226114
-1.0829e-05
2.14645e-06
-0.00226051
-1.87163e-05
1.44393e-06
-0.0022575
-2.5626e-05
1.38608e-07
-0.00225196
-3.05285e-05
-1.84149e-06
-0.00224355
-3.18332e-05
-4.48472e-06
-0.00223226
-2.67461e-05
-7.74925e-06
-0.00221816
-1.08771e-05
-0.00220464
-1.38747e-05
1.53848e-05
1.1979e-06
-0.0025399
6.51249e-06
2.14489e-06
-0.0025448
-2.61727e-06
2.53121e-06
-0.00254689
-1.17869e-05
2.38911e-06
-0.00254625
-2.07142e-05
1.68744e-06
-0.00254264
-2.89107e-05
3.80636e-07
-0.00253577
-3.52839e-05
-1.65676e-06
-0.00252496
-3.79387e-05
-4.48543e-06
-0.00250991
-3.29302e-05
-8.1901e-06
-0.00248992
-1.20625e-05
-0.00246984
-1.77126e-05
1.62214e-05
1.16042e-06
-0.00282491
6.79994e-06
1.95554e-06
-0.00283077
-2.79928e-06
2.24963e-06
-0.00283323
-1.24934e-05
2.11622e-06
-0.00283246
-2.20991e-05
1.50846e-06
-0.00282818
-3.12534e-05
3.80848e-07
-0.00282
-3.89368e-05
-1.40571e-06
-0.00280685
-4.31001e-05
-4.02216e-06
-0.002788
-3.88626e-05
-7.54525e-06
-0.00276176
-1.18722e-05
-0.00273378
-2.20282e-05
1.62981e-05
7.76379e-07
-0.00310769