/*--------------------------------*- C++ -*----------------------------------*\
| =========                 |                                                 |
| \\      /  F ield         | foam-extend: Open Source CFD                    |
|  \\    /   O peration     | Version:     4.0                                |
|   \\  /    A nd           | Web:         http://www.foam-extend.org         |
|    \\/     M anipulation  |                                                 |
\*---------------------------------------------------------------------------*/
FoamFile
{
    version     2.0;
    format      ascii;
    class       volScalarField;
    location    "900";
    object      T;
}
// * * * * * * * * * * * * * * * * * * * * * * * * * * * * * * * * * * * * * //

dimensions      [0 0 0 1 0 0 0];

internalField   nonuniform List<scalar> 
34480
(
278.921
278.808
278.726
278.67
278.635
278.624
278.636
278.717
278.988
278.958
278.388
278.265
278.169
278.1
278.065
278.066
278.089
278.132
278.35
277.912
278.296
278.159
278.05
277.972
277.931
277.915
277.892
277.834
277.958
277.177
278.355
278.196
278.062
277.955
277.878
277.808
277.718
277.552
277.549
276.409
278.39
278.205
278.041
277.899
277.778
277.651
277.489
277.21
277.047
275.54
278.481
278.27
278.081
277.911
277.753
277.574
277.344
276.949
276.596
274.695
278.527
278.29
278.074
277.877
277.687
277.462
277.17
276.66
276.094
273.796
278.612
278.35
278.12
277.914
277.715
277.476
277.149
276.555
275.778
273.054
278.674
278.391
278.143
277.918
277.696
277.431
277.062
276.385
275.396
272.312
279.488
279.192
278.974
278.82
278.706
278.577
278.359
277.82
276.79
273.272
279.453
279.359
279.322
279.336
279.407
279.552
279.809
280.262
280.928
281.797
278.822
278.734
278.698
278.713
278.791
278.956
279.244
279.74
280.532
281.555
278.636
278.552
278.518
278.535
278.618
278.786
279.071
279.557
280.402
281.513
278.599
278.513
278.475
278.482
278.55
278.695
278.953
279.412
280.283
281.434
278.545
278.453
278.405
278.397
278.444
278.559
278.784
279.201
280.069
281.228
278.555
278.459
278.403
278.385
278.415
278.502
278.691
279.059
279.895
281.024
278.529
278.425
278.362
278.332
278.348
278.41
278.564
278.877
279.658
280.74
278.558
278.45
278.388
278.363
278.381
278.439
278.574
278.84
279.546
280.533
278.579
278.463
278.395
278.362
278.369
278.412
278.522
278.74
279.364
280.266
279.341
279.237
279.204
279.237
279.332
279.477
279.688
279.98
280.553
281.177
279.929
279.829
279.793
279.812
279.889
280.033
280.262
280.606
281.103
281.728
279.291
279.189
279.152
279.174
279.263
279.435
279.723
280.178
280.886
281.821
279.089
278.986
278.947
278.969
279.062
279.246
279.559
280.071
280.94
282.154
279.021
278.914
278.869
278.882
278.966
279.14
279.453
279.991
280.991
282.45
278.936
278.822
278.769
278.769
278.837
278.99
279.288
279.827
280.921
282.579
278.919
278.8
278.74
278.73
278.783
278.915
279.19
279.712
280.862
282.667
278.871
278.744
278.676
278.656
278.695
278.806
279.055
279.547
280.718
282.633
278.88
278.75
278.683
278.665
278.706
278.81
279.042
279.499
280.657
282.627
278.884
278.75
278.678
278.654
278.687
278.779
278.988
279.404
280.523
282.568
279.615
279.492
279.446
279.471
279.568
279.735
280.011
280.465
281.528
283.489
280.272
280.186
280.156
280.175
280.242
280.361
280.538
280.778
281.082
281.423
279.662
279.566
279.532
279.556
279.643
279.801
280.046
280.399
280.886
281.444
279.47
279.365
279.328
279.353
279.449
279.629
279.92
280.359
281.015
281.811
279.389
279.275
279.232
279.252
279.346
279.532
279.846
280.347
281.163
282.211
279.287
279.165
279.113
279.123
279.209
279.387
279.708
280.246
281.199
282.483
279.251
279.122
279.063
279.065
279.141
279.308
279.625
280.179
281.242
282.731
279.184
279.048
278.983
278.975
279.041
279.193
279.499
280.052
281.195
282.86
279.177
279.038
278.972
278.966
279.033
279.181
279.478
280.02
281.204
283.003
279.168
279.026
278.956
278.946
279.005
279.145
279.43
279.951
281.138
283.082
279.867
279.735
279.683
279.707
279.811
280.001
280.33
280.879
282.036
284.009
280.509
280.442
280.419
280.433
280.483
280.568
280.687
280.835
281.004
281.173
279.945
279.864
279.835
279.856
279.928
280.055
280.241
280.487
280.791
281.097
279.78
279.684
279.65
279.674
279.761
279.918
280.159
280.496
280.945
281.421
279.703
279.593
279.551
279.574
279.667
279.842
280.124
280.539
281.142
281.819
279.598
279.476
279.426
279.442
279.534
279.715
280.022
280.496
281.243
282.131
279.553
279.421
279.365
279.375
279.462
279.643
279.963
280.478
281.356
282.448
279.476
279.336
279.273
279.275
279.357
279.531
279.855
280.395
281.381
282.666
279.458
279.314
279.249
279.253
279.335
279.51
279.836
280.387
281.449
282.899
279.437
279.291
279.224
279.223
279.301
279.47
279.793
280.346
281.447
283.075
280.105
279.968
279.913
279.936
280.044
280.248
280.599
281.177
282.277
283.999
280.669
280.62
280.604
280.613
280.647
280.703
280.777
280.865
280.958
281.048
280.154
280.091
280.068
280.085
280.139
280.233
280.364
280.527
280.711
280.881
280.024
279.942
279.913
279.934
280.006
280.133
280.318
280.56
280.852
281.134
279.96
279.862
279.825
279.846
279.93
280.083
280.316
280.637
281.055
281.478
279.863
279.749
279.704
279.722
279.811
279.979
280.249
280.637
281.185
281.77
279.817
279.691
279.638
279.653
279.744
279.922
280.218
280.662
281.335
282.09
279.738
279.601
279.542
279.551
279.639
279.82
280.133
280.619
281.407
282.332
279.713
279.571
279.51
279.52
279.611
279.796
280.122
280.636
281.513
282.599
279.685
279.541
279.477
279.484
279.572
279.756
280.086
280.619
281.556
282.816
280.322
280.186
280.13
280.153
280.262
280.468
280.819
281.376
282.333
283.706
280.778
280.742
280.731
280.737
280.758
280.793
280.837
280.887
280.938
280.99
280.306
280.261
280.244
280.255
280.294
280.359
280.447
280.551
280.66
280.757
280.21
280.146
280.123
280.139
280.195
280.291
280.426
280.592
280.778
280.945
280.165
280.082
280.051
280.07
280.14
280.265
280.447
280.683
280.964
281.226
280.082
279.982
279.942
279.96
280.04
280.186
280.41
280.712
281.098
281.476
280.042
279.928
279.881
279.897
279.983
280.146
280.403
280.766
281.26
281.769
279.966
279.838
279.785
279.797
279.886
280.058
280.341
280.754
281.354
282.001
279.94
279.806
279.749
279.763
279.856
280.037
280.34
280.792
281.481
282.265
279.908
279.77
279.711
279.723
279.814
279.998
280.312
280.792
281.548
282.481
280.516
280.384
280.33
280.353
280.458
280.659
280.989
281.494
282.28
283.318
280.853
280.826
280.819
280.822
280.835
280.855
280.881
280.909
280.938
280.971
280.417
280.386
280.374
280.382
280.408
280.451
280.507
280.572
280.637
280.695
280.351
280.304
280.286
280.297
280.339
280.408
280.502
280.613
280.73
280.83
280.324
280.259
280.233
280.248
280.304
280.401
280.537
280.704
280.889
281.052
280.259
280.175
280.142
280.158
280.225
280.346
280.521
280.747
281.013
281.256
280.229
280.129
280.089
280.105
280.181
280.322
280.535
280.818
281.171
281.51
280.159
280.045
279.998
280.012
280.094
280.249
280.492
280.827
281.27
281.714
280.137
280.015
279.964
279.98
280.068
280.235
280.502
280.88
281.403
281.955
280.102
279.975
279.922
279.936
280.026
280.199
280.481
280.891
281.477
282.148
280.682
280.561
280.51
280.531
280.63
280.816
281.113
281.547
282.168
282.922
280.905
280.885
280.88
280.881
280.889
280.9
280.915
280.931
280.947
280.97
280.5
280.479
280.471
280.476
280.493
280.52
280.555
280.595
280.634
280.67
280.458
280.424
280.411
280.419
280.448
280.496
280.559
280.631
280.704
280.766
280.446
280.396
280.377
280.388
280.43
280.502
280.599
280.715
280.835
280.936
280.398
280.331
280.305
280.318
280.372
280.466
280.599
280.763
280.943
281.098
280.38
280.297
280.263
280.278
280.342
280.458
280.626
280.84
281.087
281.31
280.318
280.22
280.18
280.194
280.266
280.399
280.598
280.86
281.179
281.48
280.303
280.196
280.152
280.168
280.247
280.394
280.619
280.922
281.308
281.69
280.267
280.154
280.108
280.123
280.205
280.36
280.602
280.938
281.379
281.848
280.82
280.712
280.666
280.686
280.775
280.94
281.196
281.555
282.028
282.559
280.942
280.925
280.922
280.923
280.927
280.933
280.942
280.95
280.96
280.978
280.562
280.549
280.544
280.546
280.557
280.573
280.595
280.619
280.644
280.667
280.539
280.516
280.507
280.512
280.532
280.563
280.605
280.651
280.697
280.735
280.538
280.502
280.487
280.495
280.526
280.577
280.644
280.722
280.8
280.863
280.506
280.455
280.435
280.445
280.486
280.557
280.655
280.77
280.89
280.988
280.498
280.433
280.406
280.418
280.47
280.561
280.689
280.846
281.016
281.161
280.445
280.365
280.332
280.345
280.405
280.513
280.67
280.869
281.094
281.295
280.439
280.35
280.313
280.328
280.396
280.519
280.701
280.936
281.213
281.473
280.403
280.307
280.267
280.281
280.353
280.486
280.685
280.95
281.274
281.595
280.929
280.837
280.797
280.814
280.892
281.033
281.245
281.53
281.881
282.245
280.967
280.953
280.951
280.951
280.953
280.957
280.962
280.967
280.973
280.987
280.61
280.602
280.598
280.6
280.606
280.616
280.629
280.644
280.66
280.675
280.601
280.586
280.581
280.584
280.597
280.617
280.643
280.673
280.701
280.725
280.606
280.581
280.571
280.576
280.597
280.633
280.678
280.73
280.78
280.819
280.588
280.551
280.536
280.544
280.574
280.626
280.695
280.774
280.853
280.914
280.59
280.54
280.52
280.529
280.569
280.638
280.733
280.844
280.96
281.053
280.545
280.481
280.455
280.465
280.514
280.599
280.719
280.864
281.021
281.153
280.549
280.477
280.448
280.46
280.516
280.615
280.757
280.933
281.129
281.302
280.512
280.432
280.4
280.412
280.473
280.581
280.74
280.942
281.173
281.39
281.011
280.935
280.902
280.917
280.981
281.097
281.267
281.486
281.74
281.983
280.984
280.971
280.97
280.97
280.971
280.973
280.976
280.978
280.982
280.995
280.647
280.642
280.64
280.641
280.644
280.65
280.658
280.668
280.678
280.688
280.65
280.641
280.638
280.64
280.648
280.661
280.677
280.695
280.713
280.728
280.656
280.64
280.633
280.636
280.651
280.674
280.704
280.738
280.77
280.793
280.651
280.625
280.614
280.619
280.641
280.677
280.725
280.778
280.829
280.867
280.66
280.623
280.608
280.615
280.645
280.695
280.763
280.841
280.918
280.976
280.62
280.572
280.552
280.56
280.597
280.662
280.75
280.854
280.961
281.046
280.636
280.581
280.557
280.567
280.612
280.689
280.795
280.924
281.059
281.173
280.596
280.532
280.506
280.517
280.565
280.651
280.772
280.922
281.084
281.227
281.068
281.008
280.981
280.993
281.045
281.137
281.268
281.431
281.61
281.769
280.993
280.982
280.98
280.98
280.981
280.982
280.983
280.985
280.988
280.999
280.675
280.672
280.671
280.671
280.674
280.677
280.682
280.688
280.695
280.702
280.69
280.685
280.683
280.684
280.689
280.697
280.707
280.718
280.729
280.738
280.693
280.683
280.678
280.68
280.69
280.705
280.725
280.746
280.766
280.78
280.698
280.68
280.673
280.676
280.691
280.716
280.748
280.783
280.816
280.838
280.712
280.686
280.675
280.68
280.701
280.737
280.784
280.837
280.887
280.923
280.676
280.64
280.625
280.631
280.659
280.706
280.769
280.842
280.913
280.968
280.704
280.663
280.645
280.653
280.687
280.744
280.822
280.913
281.005
281.077
280.657
280.608
280.589
280.597
280.634
280.7
280.79
280.897
281.009
281.102
281.103
281.057
281.036
281.046
281.086
281.156
281.254
281.371
281.495
281.597
280.995
280.985
280.984
280.984
280.984
280.985
280.986
280.987
280.989
280.998
280.696
280.694
280.694
280.694
280.695
280.697
280.7
280.704
280.709
280.714
280.722
280.721
280.72
280.72
280.723
280.728
280.734
280.741
280.747
280.752
280.719
280.713
280.71
280.711
280.717
280.727
280.74
280.753
280.766
280.773
280.732
280.721
280.716
280.719
280.729
280.745
280.766
280.788
280.809
280.821
280.749
280.731
280.724
280.727
280.742
280.767
280.799
280.834
280.866
280.888
280.715
280.69
280.679
280.684
280.703
280.737
280.781
280.83
280.877
280.911
280.757
280.727
280.714
280.72
280.745
280.786
280.841
280.904
280.965
281.01
280.7
280.664
280.649
280.655
280.683
280.731
280.795
280.871
280.946
281.005
281.119
281.086
281.07
281.077
281.107
281.159
281.229
281.312
281.395
281.459
280.992
280.982
280.982
280.982
280.982
280.982
280.983
280.983
280.985
280.993
280.709
280.709
280.708
280.708
280.709
280.711
280.712
280.715
280.718
280.722
280.75
280.75
280.75
280.751
280.753
280.755
280.759
280.763
280.766
280.768
280.737
280.733
280.731
280.732
280.736
280.742
280.75
280.758
280.766
280.769
280.757
280.751
280.748
280.749
280.756
280.766
280.78
280.794
280.806
280.812
280.775
280.763
280.758
280.761
280.771
280.787
280.808
280.831
280.852
280.863
280.742
280.725
280.718
280.721
280.734
280.757
280.787
280.819
280.85
280.87
280.797
280.777
280.768
280.772
280.789
280.818
280.856
280.898
280.938
280.965
280.727
280.701
280.69
280.695
280.715
280.749
280.793
280.844
280.894
280.931
281.12
281.097
281.085
281.091
281.112
281.149
281.198
281.254
281.309
281.348
280.985
280.977
280.976
280.976
280.976
280.976
280.976
280.977
280.978
280.985
280.715
280.715
280.715
280.715
280.715
280.716
280.717
280.719
280.722
280.724
280.775
280.776
280.776
280.777
280.778
280.779
280.781
280.783
280.785
280.784
280.747
280.746
280.744
280.745
280.747
280.751
280.756
280.761
280.765
280.766
280.774
280.771
280.769
280.77
280.774
280.781
280.789
280.798
280.805
280.807
280.791
280.784
280.78
280.782
280.788
280.799
280.813
280.827
280.84
280.846
280.759
280.748
280.743
280.745
280.754
280.769
280.789
280.81
280.829
280.84
280.829
280.815
280.809
280.812
280.824
280.844
280.869
280.896
280.922
280.937
280.74
280.722
280.714
280.717
280.731
280.754
280.784
280.818
280.85
280.874
281.112
281.096
281.088
281.092
281.107
281.132
281.165
281.202
281.238
281.26
280.98
280.973
280.973
280.973
280.973
280.973
280.973
280.973
280.974
280.98
280.712
280.712
280.712
280.712
280.712
280.713
280.714
280.715
280.717
280.719
280.796
280.797
280.798
280.798
280.799
280.8
280.801
280.802
280.802
280.8
280.752
280.751
280.751
280.751
280.752
280.754
280.757
280.761
280.763
280.762
280.784
280.782
280.78
280.781
280.784
280.788
280.793
280.798
280.802
280.802
280.798
280.793
280.791
280.792
280.796
280.803
280.812
280.821
280.829
280.831
280.768
280.761
280.758
280.76
280.766
280.775
280.788
280.801
280.812
280.818
280.852
280.843
280.839
280.841
280.848
280.861
280.878
280.895
280.912
280.92
280.74
280.727
280.722
280.724
280.733
280.749
280.768
280.79
280.81
280.825
281.102
281.092
281.086
281.089
281.099
281.116
281.138
281.161
281.184
281.196
280.993
280.986
280.986
280.986
280.986
280.986
280.986
280.986
280.986
280.991
280.695
280.695
280.695
280.695
280.695
280.696
280.696
280.697
280.699
280.701
280.81
280.812
280.812
280.812
280.813
280.813
280.814
280.814
280.814
280.811
280.751
280.751
280.751
280.752
280.752
280.754
280.755
280.757
280.758
280.756
280.785
280.784
280.783
280.784
280.785
280.788
280.791
280.794
280.797
280.795
280.796
280.793
280.792
280.792
280.795
280.799
280.804
280.81
280.815
280.816
280.77
280.766
280.764
280.766
280.769
280.775
280.783
280.79
280.797
280.799
280.86
280.855
280.852
280.853
280.858
280.866
280.877
280.888
280.899
280.904
280.722
280.714
280.711
280.713
280.719
280.728
280.741
280.754
280.766
280.775
281.104
281.098
281.094
281.096
281.103
281.114
281.128
281.143
281.158
281.163
281.037
281.035
281.035
281.035
281.035
281.035
281.035
281.035
281.035
281.038
280.657
280.657
280.658
280.658
280.658
280.659
280.659
280.659
280.659
280.66
280.812
280.812
280.812
280.812
280.812
280.812
280.813
280.814
280.814
280.812
280.747
280.748
280.748
280.749
280.75
280.75
280.751
280.751
280.751
280.749
280.78
280.779
280.779
280.779
280.78
280.782
280.783
280.785
280.787
280.786
280.787
280.785
280.785
280.785
280.787
280.789
280.792
280.796
280.799
280.799
280.766
280.764
280.763
280.764
280.766
280.77
280.775
280.779
280.782
280.783
280.846
280.842
280.84
280.84
280.843
280.849
280.856
280.863
280.871
280.875
280.68
280.676
280.674
280.675
280.679
280.686
280.693
280.701
280.707
280.712
281.136
281.132
281.129
281.131
281.135
281.142
281.151
281.161
281.171
281.174
281.116
281.113
281.112
281.112
281.112
281.112
281.112
281.113
281.114
281.117
280.595
280.598
280.6
280.601
280.602
280.602
280.601
280.6
280.597
280.595
280.796
280.795
280.794
280.793
280.793
280.794
280.794
280.796
280.797
280.798
280.743
280.744
280.745
280.746
280.746
280.747
280.747
280.746
280.746
280.743
280.771
280.771
280.771
280.771
280.772
280.773
280.774
280.775
280.776
280.775
280.776
280.775
280.774
280.775
280.776
280.778
280.78
280.782
280.784
280.784
280.759
280.758
280.758
280.758
280.76
280.763
280.766
280.769
280.77
280.77
280.809
280.805
280.803
280.803
280.806
280.81
280.815
280.82
280.827
280.831
280.615
280.613
280.613
280.614
280.617
280.622
280.627
280.632
280.634
280.634
281.189
281.186
281.184
281.185
281.188
281.193
281.2
281.207
281.215
281.217
289.545
291.298
291.565
289.985
290.711
292.836
293.248
291.6
292.346
294.965
295.503
293.545
293.601
296.66
297.331
295.163
294.523
297.991
298.803
296.493
295.247
299.093
300.066
297.922
295.779
299.985
301.148
299.327
296.241
300.769
302.138
300.688
296.451
301.278
302.86
301.829
297.003
302.019
303.864
303.408
286.247
286.794
286.776
286.253
287.555
288.199
288.14
287.49
289.145
289.95
289.842
288.989
290.569
291.52
291.354
290.311
291.733
292.825
292.596
291.371
292.741
293.974
293.731
292.353
293.538
294.901
294.674
293.163
294.225
295.696
295.493
293.873
294.657
296.193
296.021
294.336
295.431
296.943
296.881
295.25
282.365
282.501
282.533
282.462
283.118
283.341
283.382
283.244
284.277
284.618
284.664
284.415
285.531
285.991
286.034
285.657
286.683
287.259
287.29
286.772
287.809
288.498
288.516
287.865
288.792
289.59
289.598
288.823
289.723
290.614
290.614
289.736
290.475
291.409
291.409
290.48
291.706
292.572
292.611
291.76
281.607
281.676
281.697
281.673
281.897
281.988
282.018
281.994
282.604
282.756
282.8
282.745
283.47
283.695
283.748
283.647
284.304
284.606
284.665
284.503
285.189
285.572
285.633
285.399
286.002
286.465
286.525
286.212
286.832
287.368
287.424
287.031
287.582
288.152
288.205
287.758
288.915
289.413
289.479
289.075
281.184
281.224
281.236
281.222
281.258
281.293
281.308
281.304
281.71
281.772
281.799
281.792
282.314
282.416
282.456
282.439
282.905
283.056
283.109
283.071
283.569
283.776
283.84
283.772
284.19
284.457
284.529
284.422
284.861
285.184
285.259
285.106
285.495
285.847
285.921
285.729
286.739
287.021
287.1
286.945
281.023
281.055
281.064
281.05
280.962
280.98
280.988
280.985
281.27
281.301
281.315
281.314
281.705
281.756
281.78
281.778
282.13
282.207
282.242
282.238
282.627
282.739
282.786
282.775
283.091
283.241
283.3
283.275
283.612
283.801
283.867
283.823
284.111
284.323
284.391
284.325
285.228
285.373
285.444
285.417
280.949
280.978
280.986
280.972
280.803
280.814
280.818
280.815
281.018
281.034
281.042
281.04
281.342
281.368
281.382
281.382
281.657
281.698
281.719
281.721
282.041
282.101
282.132
282.134
282.392
282.476
282.516
282.517
282.797
282.906
282.955
282.949
283.175
283.3
283.352
283.336
284.17
284.229
284.283
284.312
280.923
280.95
280.958
280.944
280.726
280.733
280.736
280.733
280.874
280.884
280.889
280.887
281.117
281.132
281.14
281.14
281.354
281.377
281.389
281.391
281.656
281.69
281.708
281.712
281.925
281.972
281.998
282.004
282.243
282.306
282.338
282.343
282.522
282.596
282.632
282.633
283.416
283.423
283.46
283.508
280.919
280.945
280.952
280.939
280.693
280.698
280.7
280.698
280.795
280.802
280.804
280.803
280.976
280.985
280.989
280.989
281.154
281.167
281.174
281.175
281.392
281.411
281.422
281.425
281.597
281.624
281.64
281.645
281.849
281.885
281.906
281.912
282.054
282.097
282.121
282.127
282.863
282.838
282.861
282.914
280.924
280.95
280.957
280.944
280.684
280.688
280.69
280.688
280.755
280.759
280.761
280.76
280.888
280.894
280.896
280.896
281.021
281.029
281.033
281.034
281.208
281.218
281.225
281.227
281.361
281.377
281.386
281.39
281.562
281.583
281.596
281.601
281.711
281.736
281.751
281.757
282.446
282.404
282.418
282.469
280.931
280.957
280.964
280.951
280.688
280.692
280.693
280.691
280.739
280.742
280.743
280.742
280.835
280.838
280.84
280.84
280.934
280.938
280.941
280.941
281.079
281.085
281.089
281.091
281.19
281.199
281.205
281.208
281.352
281.364
281.371
281.375
281.456
281.47
281.48
281.485
282.127
282.075
282.083
282.132
280.938
280.963
280.97
280.958
280.698
280.701
280.702
280.701
280.737
280.739
280.74
280.739
280.803
280.805
280.806
280.806
280.877
280.88
280.881
280.882
280.99
280.993
280.996
280.997
281.066
281.071
281.075
281.077
281.199
281.205
281.21
281.213
281.265
281.273
281.279
281.283
281.878
281.823
281.827
281.872
280.941
280.966
280.973
280.961
280.709
280.711
280.712
280.711
280.744
280.745
280.745
280.745
280.785
280.786
280.787
280.787
280.842
280.843
280.844
280.844
280.929
280.93
280.931
280.933
280.977
280.979
280.981
280.983
281.089
281.091
281.094
281.097
281.123
281.126
281.13
281.133
281.684
281.628
281.629
281.671
280.941
280.965
280.972
280.961
280.719
280.72
280.721
280.721
280.754
280.755
280.755
280.755
280.775
280.775
280.775
280.776
280.82
280.82
280.821
280.821
280.887
280.887
280.888
280.889
280.912
280.912
280.914
280.916
281.012
281.012
281.014
281.017
281.016
281.017
281.019
281.022
281.529
281.476
281.476
281.514
280.937
280.961
280.967
280.956
280.725
280.726
280.726
280.726
280.768
280.768
280.767
280.767
280.768
280.768
280.768
280.768
280.808
280.807
280.807
280.807
280.858
280.857
280.858
280.859
280.866
280.865
280.865
280.868
280.96
280.959
280.96
280.963
280.935
280.935
280.936
280.939
281.405
281.356
281.356
281.39
280.931
280.955
280.961
280.95
280.726
280.726
280.727
280.727
280.782
280.781
280.781
280.781
280.762
280.761
280.761
280.762
280.799
280.798
280.797
280.799
280.838
280.836
280.836
280.838
280.832
280.83
280.831
280.833
280.928
280.926
280.927
280.93
280.873
280.872
280.873
280.875
281.307
281.263
281.263
281.292
280.929
280.953
280.959
280.947
280.719
280.719
280.72
280.72
280.795
280.794
280.794
280.794
280.755
280.754
280.754
280.755
280.792
280.79
280.79
280.791
280.821
280.819
280.819
280.821
280.807
280.805
280.805
280.807
280.909
280.907
280.907
280.91
280.822
280.821
280.821
280.823
281.232
281.196
281.195
281.22
280.946
280.968
280.973
280.962
280.7
280.7
280.7
280.701
280.805
280.804
280.804
280.804
280.747
280.745
280.745
280.746
280.785
280.782
280.782
280.784
280.805
280.803
280.802
280.805
280.787
280.784
280.784
280.786
280.894
280.891
280.892
280.894
280.772
280.77
280.771
280.772
281.19
281.162
281.161
281.18
281.002
281.022
281.025
281.014
280.659
280.659
280.659
280.659
280.806
280.804
280.804
280.805
280.738
280.736
280.736
280.737
280.775
280.773
280.773
280.775
280.789
280.787
280.787
280.789
280.77
280.767
280.767
280.769
280.87
280.868
280.868
280.871
280.709
280.707
280.707
280.708
281.193
281.175
281.175
281.187
281.095
281.108
281.109
281.103
280.59
280.589
280.589
280.588
280.794
280.793
280.794
280.795
280.733
280.73
280.73
280.731
280.767
280.765
280.765
280.767
280.777
280.775
280.775
280.776
280.759
280.757
280.756
280.758
280.834
280.834
280.834
280.835
280.623
280.62
280.62
280.621
281.233
281.229
281.229
281.232
282.294
280.995
280.451
280.105
279.811
279.57
279.378
279.226
279.104
278.998
282.469
281.232
280.398
279.874
279.459
279.151
278.922
278.75
278.619
278.51
283.044
281.745
280.62
279.984
279.486
279.141
278.887
278.696
278.551
278.432
283.642
282.288
280.898
280.199
279.638
279.27
278.997
278.792
278.634
278.505
284.129
282.758
281.126
280.378
279.758
279.371
279.08
278.862
278.694
278.557
284.694
283.266
281.415
280.634
279.956
279.552
279.239
279.006
278.822
278.668
285.188
283.681
281.635
280.832
280.1
279.683
279.349
279.101
278.903
278.737
285.764
284.182
281.953
281.136
280.347
279.912
279.548
279.275
279.047
278.848
286.222
284.583
282.176
281.381
280.557
280.116
279.717
279.414
279.158
278.933
287.947
286.304
283.745
282.894
281.945
281.38
280.858
280.453
280.114
279.814
284.075
282.768
281.784
281.075
280.584
280.24
279.99
279.802
279.657
279.535
284.55
282.768
281.443
280.587
280.035
279.659
279.39
279.193
279.048
278.939
285.147
282.965
281.386
280.463
279.873
279.478
279.199
278.998
278.853
278.747
285.636
283.158
281.39
280.447
279.83
279.43
279.15
278.951
278.809
278.706
285.91
283.227
281.335
280.385
279.749
279.352
279.075
278.881
278.745
278.648
286.119
283.313
281.332
280.397
279.745
279.355
279.081
278.892
278.758
278.659
286.176
283.311
281.262
280.357
279.695
279.318
279.048
278.864
278.732
278.636
286.244
283.384
281.282
280.42
279.747
279.383
279.111
278.925
278.784
278.675
286.214
283.385
281.235
280.452
279.792
279.457
279.178
278.983
278.83
278.709
287.122
284.442
282.297
281.564
280.855
280.465
280.117
279.867
279.669
279.518
282.219
281.838
281.469
281.141
280.86
280.624
280.428
280.265
280.128
280.01
282.711
282.027
281.411
280.901
280.489
280.161
279.904
279.703
279.546
279.424
283.484
282.472
281.61
280.947
280.434
280.044
279.748
279.523
279.353
279.225
284.25
282.921
281.83
281.041
280.451
280.02
279.701
279.464
279.288
279.158
284.826
283.222
281.934
281.051
280.403
279.947
279.617
279.376
279.2
279.071
285.342
283.505
282.05
281.1
280.411
279.942
279.606
279.365
279.187
279.057
285.696
283.67
282.074
281.082
280.365
279.893
279.556
279.316
279.139
279.009
286.025
283.86
282.147
281.137
280.401
279.932
279.593
279.35
279.166
279.028
286.237
283.955
282.143
281.155
280.426
279.975
279.632
279.383
279.191
279.042
287.224
284.937
283.088
282.121
281.363
280.876
280.489
280.202
279.979
279.815
281.622
281.472
281.295
281.115
280.945
280.791
280.654
280.535
280.428
280.331
281.862
281.568
281.236
280.92
280.64
280.401
280.199
280.033
279.896
279.786
282.493
282.007
281.5
281.047
280.665
280.351
280.097
279.893
279.732
279.607
283.221
282.509
281.808
281.223
280.748
280.373
280.078
279.849
279.67
279.535
283.85
282.9
282.011
281.306
280.754
280.333
280.011
279.764
279.577
279.437
284.47
283.285
282.219
281.415
280.799
280.345
280.003
279.746
279.551
279.406
284.964
283.557
282.329
281.445
280.781
280.304
279.951
279.688
279.489
279.342
285.441
283.836
282.466
281.525
280.825
280.337
279.974
279.706
279.499
279.343
285.815
284.02
282.527
281.563
280.853
280.365
279.996
279.72
279.507
279.343
286.858
284.962
283.41
282.439
281.7
281.185
280.786
280.484
280.25
280.08
281.223
281.173
281.102
281.018
280.93
280.844
280.761
280.684
280.611
280.54
281.266
281.146
280.989
280.82
280.654
280.5
280.361
280.239
280.134
280.047
281.724
281.513
281.249
280.981
280.729
280.505
280.311
280.148
280.013
279.904
282.313
281.976
281.581
281.201
280.862
280.572
280.329
280.131
279.97
279.844
282.859
282.371
281.831
281.341
280.92
280.572
280.291
280.065
279.886
279.749
283.441
282.786
282.098
281.503
281.008
280.614
280.301
280.055
279.862
279.713
283.939
283.107
282.273
281.584
281.028
280.596
280.26
280
279.797
279.643
284.443
283.438
282.465
281.7
281.094
280.636
280.282
280.01
279.797
279.633
284.864
283.679
282.582
281.766
281.131
280.66
280.294
280.013
279.792
279.622
285.899
284.593
283.426
282.579
281.914
281.418
281.03
280.729
280.494
280.323
281.059
281.039
281.006
280.964
280.918
280.87
280.822
280.775
280.727
280.677
280.964
280.905
280.826
280.735
280.638
280.542
280.452
280.368
280.294
280.23
281.284
281.182
281.042
280.885
280.726
280.576
280.439
280.317
280.213
280.126
281.732
281.566
281.345
281.108
280.879
280.669
280.485
280.326
280.193
280.085
282.164
281.913
281.594
281.27
280.968
280.703
280.475
280.284
280.127
280.003
282.656
282.302
281.875
281.461
281.089
280.772
280.507
280.289
280.111
279.972
283.093
282.621
282.079
281.577
281.141
280.779
280.483
280.244
280.051
279.902
283.558
282.958
282.3
281.72
281.229
280.832
280.511
280.254
280.048
279.888
283.954
283.213
282.449
281.808
281.278
280.857
280.52
280.251
280.037
279.869
284.936
284.092
283.258
282.576
282.014
281.569
281.212
280.928
280.703
280.537
280.984
280.976
280.961
280.94
280.916
280.89
280.862
280.834
280.804
280.768
280.801
280.77
280.729
280.678
280.623
280.565
280.508
280.454
280.404
280.36
281.023
280.97
280.893
280.803
280.706
280.608
280.516
280.43
280.354
280.289
281.36
281.274
281.149
281.005
280.856
280.711
280.578
280.458
280.354
280.268
281.69
281.558
281.371
281.164
280.957
280.764
280.59
280.438
280.309
280.203
282.089
281.897
281.637
281.361
281.094
280.852
280.64
280.458
280.305
280.182
282.447
282.183
281.841
281.492
281.167
280.88
280.633
280.426
280.255
280.118
282.844
282.495
282.067
281.649
281.27
280.945
280.67
280.442
280.254
280.105
283.18
282.735
282.224
281.748
281.329
280.975
280.68
280.438
280.24
280.083
284.086
283.567
282.996
282.478
282.026
281.649
281.336
281.08
280.873
280.72
280.958
280.956
280.948
280.937
280.924
280.91
280.895
280.878
280.859
280.832
280.722
280.704
280.681
280.652
280.619
280.584
280.549
280.515
280.483
280.454
280.875
280.845
280.801
280.748
280.689
280.627
280.566
280.508
280.455
280.409
281.126
281.078
281.006
280.919
280.823
280.726
280.633
280.547
280.47
280.404
281.375
281.302
281.192
281.061
280.923
280.787
280.659
280.544
280.442
280.358
281.692
281.585
281.427
281.246
281.061
280.884
280.721
280.576
280.451
280.348
281.975
281.826
281.612
281.376
281.141
280.923
280.727
280.557
280.411
280.293
282.3
282.098
281.824
281.532
281.252
280.997
280.772
280.58
280.417
280.286
282.568
282.306
281.972
281.633
281.314
281.03
280.784
280.576
280.402
280.262
283.392
283.082
282.703
282.325
281.977
281.672
281.409
281.189
281.006
280.87
280.955
280.955
280.951
280.946
280.939
280.931
280.922
280.912
280.899
280.878
280.689
280.677
280.663
280.646
280.626
280.605
280.584
280.562
280.542
280.524
280.793
280.775
280.75
280.717
280.681
280.642
280.603
280.565
280.529
280.498
280.98
280.952
280.909
280.855
280.795
280.731
280.668
280.608
280.553
280.505
281.166
281.124
281.058
280.975
280.884
280.791
280.7
280.615
280.539
280.475
281.415
281.354
281.258
281.14
281.014
280.887
280.767
280.657
280.559
280.477
281.632
281.546
281.413
281.256
281.091
280.931
280.781
280.646
280.528
280.431
281.893
281.776
281.602
281.404
281.202
281.009
280.833
280.677
280.542
280.431
282.1
281.946
281.731
281.495
281.261
281.042
280.846
280.674
280.527
280.406
282.846
282.663
282.415
282.149