/*--------------------------------*- C++ -*----------------------------------*\
| =========                 |                                                 |
| \\      /  F ield         | foam-extend: Open Source CFD                    |
|  \\    /   O peration     | Version:     4.0                                |
|   \\  /    A nd           | Web:         http://www.foam-extend.org         |
|    \\/     M anipulation  |                                                 |
\*---------------------------------------------------------------------------*/
FoamFile
{
    version     2.0;
    format      ascii;
    class       volVectorField;
    location    "900";
    object      Urel;
}
// * * * * * * * * * * * * * * * * * * * * * * * * * * * * * * * * * * * * * //

dimensions      [0 1 -1 0 0 0 0];

internalField   nonuniform List<vector> 
34480
(
(208.458 -9.83923 -19.0553)
(208.789 -9.33594 -21.5106)
(208.955 -8.60883 -23.933)
(208.97 -7.68274 -26.3638)
(208.83 -6.5963 -28.9413)
(208.5 -5.35216 -31.8409)
(207.898 -3.93022 -35.4622)
(206.746 -2.21391 -40.1487)
(204.083 0.026678 -48.0634)
(197.134 4.24126 -75.1974)
(209.31 -12.9235 -26.7374)
(209.598 -11.7933 -29.5116)
(209.741 -10.5061 -32.1704)
(209.727 -9.07741 -34.7735)
(209.503 -7.54482 -37.4379)
(209.01 -5.92868 -40.3707)
(208.213 -4.24869 -44.0301)
(206.928 -2.45008 -49.1574)
(203.788 -0.367396 -57.963)
(195.614 3.60753 -88.4904)
(209.907 -17.2464 -33.6413)
(210.177 -15.6903 -36.7135)
(210.293 -13.9527 -39.6593)
(210.241 -12.0319 -42.483)
(209.964 -9.98547 -45.3114)
(209.456 -7.84848 -48.4025)
(208.724 -5.64885 -52.2827)
(207.601 -3.31655 -57.9803)
(204.317 -0.68057 -67.675)
(195.127 4.03667 -101.167)
(209.839 -20.6455 -41.0196)
(210.113 -18.5545 -44.3881)
(210.251 -16.2864 -47.5764)
(210.241 -13.8257 -50.6054)
(210.034 -11.2301 -53.6099)
(209.648 -8.53793 -56.8777)
(209.061 -5.78193 -60.9371)
(208.115 -2.88318 -67.0377)
(204.824 0.335222 -77.3683)
(194.86 5.73411 -112.794)
(209.903 -25.1057 -47.8564)
(210.213 -22.6026 -51.505)
(210.399 -19.8878 -54.982)
(210.46 -16.9434 -58.2632)
(210.354 -13.8456 -61.5085)
(210.112 -10.6323 -65.0182)
(209.681 -7.32968 -69.3168)
(208.928 -3.84794 -75.8424)
(205.752 -0.00519244 -86.85)
(195.172 6.09407 -123.819)
(209.693 -28.3298 -55.4373)
(210.025 -25.3276 -59.3254)
(210.241 -22.1015 -62.9728)
(210.346 -18.6292 -66.3998)
(210.315 -14.9772 -69.7585)
(210.197 -11.1886 -73.3737)
(209.924 -7.29151 -77.7528)
(209.393 -3.19909 -84.508)
(206.478 1.29129 -96.0069)
(195.525 8.0295 -134.143)
(209.689 -33.065 -62.2962)
(210.072 -29.6764 -66.4262)
(210.326 -26.0304 -70.3232)
(210.476 -22.1129 -73.9567)
(210.51 -17.9978 -77.5072)
(210.492 -13.721 -81.3007)
(210.363 -9.28543 -85.8483)
(210.055 -4.58702 -92.8852)
(207.484 0.646531 -104.963)
(196.262 8.22025 -144.106)
(209.466 -36.1849 -70.1548)
(209.86 -32.3303 -74.4923)
(210.1 -28.1729 -78.5169)
(210.212 -23.7233 -82.2587)
(210.206 -19.0333 -85.8606)
(210.168 -14.1587 -89.653)
(210.085 -9.09467 -94.1304)
(209.936 -3.7337 -101.118)
(207.783 2.34908 -113.381)
(196.62 10.8329 -153.038)
(209.394 -41.4002 -77.002)
(209.835 -37.1827 -81.5249)
(210.105 -32.6543 -85.7328)
(210.252 -27.849 -89.6267)
(210.289 -22.8199 -93.3872)
(210.29 -17.5952 -97.3199)
(210.272 -12.1161 -101.956)
(210.265 -6.23044 -109.091)
(208.452 0.78251 -121.718)
(197.197 10.7554 -161.318)
(208.428 -44.579 -84.9801)
(208.782 -39.9817 -89.7813)
(208.795 -34.9537 -94.1908)
(208.489 -29.6101 -98.269)
(207.912 -23.962 -102.137)
(207.163 -18.0498 -106.072)
(206.336 -11.8076 -110.545)
(205.612 -5.04534 -117.165)
(203.779 2.97128 -128.937)
(193.783 14.3235 -166.602)
(205.341 1.86299 3.03325)
(205.826 1.0629 1.58226)
(206.019 0.381402 0.0309527)
(205.943 -0.161257 -1.5682)
(205.572 -0.589151 -3.27855)
(204.82 -0.902775 -5.11295)
(203.483 -1.10585 -7.12542)
(201.129 -1.20968 -9.29174)
(197.671 -1.29123 -11.2302)
(193.088 -1.18392 -14.3906)
(206.555 2.74857 2.86669)
(207.012 2.04553 1.23884)
(207.199 1.40515 -0.415563)
(207.121 0.835073 -2.11451)
(206.72 0.313287 -3.92495)
(205.875 -0.16677 -5.90501)
(204.389 -0.62079 -8.14747)
(201.809 -1.08306 -10.9053)
(197.633 -1.66718 -13.963)
(191.923 -1.88464 -20.5574)
(207.411 2.43346 3.40606)
(207.852 1.63005 1.65498)
(208.029 0.911196 -0.146645)
(207.946 0.297203 -1.98341)
(207.526 -0.251707 -3.92778)
(206.67 -0.749135 -6.06487)
(205.203 -1.22475 -8.58281)
(202.642 -1.69539 -12.0161)
(198.109 -2.26486 -16.2803)
(191.496 -2.15827 -26.6993)
(207.579 3.0299 3.43313)
(208.027 2.26212 1.59568)
(208.231 1.56237 -0.266476)
(208.197 0.964542 -2.16642)
(207.848 0.42978 -4.18762)
(207.103 -0.0548801 -6.45857)
(205.758 -0.523153 -9.20342)
(203.302 -0.967928 -13.1835)
(198.559 -1.4784 -18.4277)
(191.162 -1.03094 -32.4604)
(207.837 2.5351 3.99025)
(208.318 1.6854 2.0957)
(208.569 0.927789 0.135594)
(208.609 0.30122 -1.86112)
(208.36 -0.248787 -4.00898)
(207.759 -0.734512 -6.46466)
(206.572 -1.19057 -9.46794)
(204.289 -1.58819 -13.984)
(199.484 -2.00453 -20.1845)
(191.407 -1.15898 -37.7228)
(207.778 3.288 3.79985)
(208.282 2.44573 1.89162)
(208.569 1.69483 -0.0402934)
(208.66 1.0791 -2.01919)
(208.492 0.553503 -4.15333)
(208.025 0.103181 -6.64568)
(207.01 -0.303002 -9.73459)
(204.956 -0.627837 -14.5811)
(200.252 -0.910948 -21.503)
(191.673 0.301597 -42.2619)
(207.899 2.50579 4.32463)
(208.447 1.56304 2.40709)
(208.773 0.736394 0.423861)
(208.917 0.0642075 -1.5944)
(208.823 -0.501424 -3.79151)
(208.474 -0.971926 -6.38673)
(207.625 -1.36266 -9.63139)
(205.823 -1.62043 -14.8306)
(201.34 -1.70614 -22.5168)
(192.361 -0.0281253 -46.307)
(207.76 3.36075 3.84944)
(208.325 2.39956 1.96217)
(208.645 1.58545 0.0665119)
(208.766 0.932922 -1.87813)
(208.656 0.418147 -3.98329)
(208.329 0.0101831 -6.49829)
(207.575 -0.292554 -9.6685)
(205.997 -0.446007 -14.9137)
(201.854 -0.230172 -22.9935)
(192.77 1.83645 -49.2829)
(207.749 2.08874 4.381)
(208.349 1.0103 2.54416)
(208.698 0.0926377 0.665164)
(208.853 -0.67141 -1.24713)
(208.796 -1.30934 -3.35774)
(208.538 -1.83272 -5.91618)
(207.904 -2.1913 -9.22722)
(206.556 -2.32261 -14.7002)
(202.762 -1.73598 -23.4205)
(193.448 1.03019 -51.5606)
(206.82 2.91979 3.75664)
(207.366 1.74647 1.91863)
(207.543 0.840783 0.0926798)
(207.379 0.101712 -1.78605)
(206.892 -0.449438 -3.81744)
(206.123 -0.838502 -6.24766)
(204.966 -1.00143 -9.3665)
(203.224 -0.823697 -14.4702)
(199.584 0.232449 -22.964)
(191.109 4.06149 -51.397)
(202.95 1.37722 2.36602)
(203.458 0.784698 1.25131)
(203.643 0.254854 0.0222543)
(203.544 -0.178418 -1.22863)
(203.149 -0.528124 -2.52208)
(202.408 -0.791647 -3.80391)
(201.23 -0.978599 -5.02645)
(199.46 -1.11439 -6.04047)
(196.906 -1.28398 -6.4942)
(193.673 -1.46697 -6.52411)
(204.263 2.29908 2.38049)
(204.78 1.757 1.01884)
(204.972 1.23407 -0.378601)
(204.859 0.747591 -1.79978)
(204.404 0.286628 -3.27085)
(203.523 -0.154659 -4.79478)
(202.055 -0.589847 -6.33493)
(199.725 -1.04979 -7.82969)
(196.084 -1.64398 -8.78143)
(191.194 -2.20618 -9.8105)
(205.207 2.07622 3.04227)
(205.733 1.39417 1.49765)
(205.931 0.761984 -0.109005)
(205.821 0.204889 -1.74401)
(205.348 -0.31012 -3.45201)
(204.41 -0.793769 -5.25078)
(202.807 -1.27088 -7.14992)
(200.171 -1.77203 -9.24439)
(195.667 -2.43856 -10.9763)
(189.198 -2.99747 -13.5931)
(205.53 2.75785 3.11459)
(206.079 2.08608 1.44567)
(206.307 1.45275 -0.257598)
(206.238 0.894362 -1.99732)
(205.81 0.377278 -3.83545)
(204.917 -0.109256 -5.83195)
(203.308 -0.59762 -8.03191)
(200.515 -1.10501 -10.6894)
(195.291 -1.79113 -13.1793)
(187.356 -2.25948 -17.5903)
(205.939 2.30043 3.70768)
(206.525 1.53183 1.95041)
(206.796 0.830353 0.120465)
(206.792 0.235964 -1.74708)
(206.441 -0.300947 -3.75099)
(205.645 -0.78959 -5.98417)
(204.102 -1.26501 -8.52008)
(201.275 -1.73367 -11.7773)
(195.519 -2.38319 -15.1124)
(186.29 -2.65949 -21.6257)
(206.014 3.0993 3.53968)
(206.626 2.32472 1.74883)
(206.933 1.62106 -0.0729653)
(206.978 1.03178 -1.94565)
(206.696 0.513948 -3.96647)
(206.004 0.0549858 -6.27954)
(204.568 -0.380419 -8.97568)
(201.807 -0.791952 -12.658)
(195.717 -1.35326 -16.7003)
(185.419 -1.40016 -25.4098)
(206.251 2.32952 4.08682)
(206.902 1.44929 2.26924)
(207.246 0.669701 0.379357)
(207.343 0.0284004 -1.55126)
(207.129 -0.520841 -3.65865)
(206.539 -0.986003 -6.1105)
(205.227 -1.38832 -9.02968)
(202.594 -1.71836 -13.17)
(196.342 -2.11543 -18.0087)
(185.137 -1.82692 -29.0455)
(206.205 3.2179 3.61653)
(206.87 2.31818 1.82627)
(207.213 1.54999 0.021786)
(207.296 0.928922 -1.83918)
(207.076 0.430777 -3.86349)
(206.516 0.0303003 -6.25967)
(205.29 -0.284247 -9.16781)
(202.815 -0.513124 -13.4883)
(196.59 -0.641013 -18.8477)
(184.743 -0.0686071 -31.9691)
(206.269 1.92895 4.15317)
(206.957 0.913317 2.40209)
(207.323 0.0560657 0.598037)
(207.433 -0.646679 -1.24394)
(207.253 -1.22402 -3.27811)
(206.752 -1.68544 -5.71576)
(205.637 -1.99358 -8.78764)
(203.36 -2.12681 -13.4485)
(197.278 -1.85421 -19.6125)
(184.664 -0.77287 -34.3636)
(205.401 2.81689 3.49711)
(206.04 1.72244 1.77817)
(206.278 0.889225 0.0616085)
(206.152 0.216957 -1.71682)
(205.655 -0.272066 -3.64765)
(204.781 -0.600618 -5.94525)
(203.308 -0.716452 -8.83695)
(200.796 -0.539783 -13.2377)
(194.857 0.227789 -19.5111)
(182.198 2.32464 -34.7816)
(201.184 0.898497 1.73266)
(201.624 0.498343 0.943719)
(201.778 0.117022 0.0390721)
(201.682 -0.205828 -0.867294)
(201.338 -0.47601 -1.7743)
(200.727 -0.688129 -2.60046)
(199.82 -0.854413 -3.2808)
(198.589 -0.998262 -3.6801)
(197.028 -1.17499 -3.5818)
(195.282 -1.40632 -2.76381)
(202.427 1.79932 1.85643)
(202.914 1.42316 0.786088)
(203.088 1.02828 -0.324084)
(202.965 0.638209 -1.43936)
(202.525 0.253316 -2.55114)
(201.721 -0.129716 -3.62933)
(200.474 -0.521619 -4.59753)
(198.675 -0.944148 -5.32849)
(196.188 -1.46349 -5.39709)
(193.33 -2.0125 -4.63076)
(203.331 1.63547 2.59231)
(203.865 1.0953 1.2996)
(204.056 0.569727 -0.0618508)
(203.927 0.0887297 -1.43665)
(203.44 -0.371988 -2.84016)
(202.523 -0.821364 -4.25334)
(201.042 -1.27874 -5.60936)
(198.795 -1.77054 -6.81855)
(195.429 -2.39945 -7.29217)
(191.306 -3.07491 -6.9449)
(203.722 2.39961 2.69773)
(204.301 1.84815 1.24675)
(204.524 1.30229 -0.245452)
(204.42 0.802572 -1.76174)
(203.939 0.323653 -3.33618)
(202.992 -0.144562 -4.98428)
(201.382 -0.631371 -6.65952)
(198.808 -1.15876 -8.34974)
(194.594 -1.86439 -9.29166)
(189.111 -2.61373 -9.58125)
(204.22 1.98549 3.32818)
(204.846 1.32224 1.75471)
(205.111 0.696585 0.103526)
(205.055 0.150777 -1.57449)
(204.616 -0.356971 -3.35188)
(203.7 -0.835087 -5.27418)
(202.048 -1.31587 -7.3211)
(199.267 -1.81917 -9.57939)
(194.314 -2.53379 -11.1427)
(187.515 -3.2587 -12.4284)
(204.391 2.83545 3.18676)
(205.051 2.15193 1.5561)
(205.35 1.51374 -0.111925)
(205.335 0.966122 -1.82304)
(204.942 0.47163 -3.65174)
(204.08 0.0176486 -5.69202)
(202.443 -0.433362 -7.94559)
(199.563 -0.899568 -10.6347)
(194.016 -1.57953 -12.7473)
(186.027 -2.22503 -15.2149)
(204.717 2.08753 3.76221)
(205.416 1.29098 2.08277)
(205.749 0.574038 0.325148)
(205.78 -0.0246381 -1.46818)
(205.439 -0.547213 -3.41254)
(204.646 -1.00108 -5.6264)
(203.061 -1.41148 -8.15145)
(200.16 -1.7913 -11.329)
(194.165 -2.34466 -14.1274)
(185.104 -2.80259 -18.042)
(204.752 3.02134 3.30357)
(205.465 2.20212 1.64447)
(205.801 1.49289 -0.0358246)
(205.824 0.913005 -1.77147)
(205.479 0.439583 -3.65114)
(204.704 0.0512974 -5.83628)
(203.161 -0.273018 -8.39572)
(200.304 -0.559829 -11.8144)
(194.061 -0.900374 -15.1102)
(184.13 -1.19626 -20.4202)
(204.881 1.72707 3.86999)
(205.608 0.790545 2.23569)
(205.962 -0.000176787 0.53503)
(206.009 -0.642238 -1.20383)
(205.697 -1.16454 -3.11445)
(204.965 -1.5735 -5.35412)
(203.48 -1.84694 -8.07376)
(200.718 -1.99533 -11.8471)
(194.412 -1.94125 -15.9843)
(183.52 -1.87612 -22.491)
(204.077 2.68742 3.19346)
(204.76 1.68386 1.61498)
(205.025 0.925967 0.0251591)
(204.903 0.31897 -1.63113)
(204.37 -0.113388 -3.42778)
(203.383 -0.390862 -5.53349)
(201.658 -0.47363 -8.099)
(198.708 -0.310517 -11.6802)
(192.429 0.237695 -16.0498)
(181.056 1.22411 -22.9627)
(199.934 0.501815 1.22396)
(200.278 0.246395 0.696092)
(200.395 -0.0140979 0.0634286)
(200.322 -0.243119 -0.558367)
(200.066 -0.444293 -1.16666)
(199.63 -0.609928 -1.68174)
(199.021 -0.749703 -2.05669)
(198.259 -0.878603 -2.20168)
(197.392 -1.02323 -2.02395)
(196.527 -1.187 -1.44006)
(201.019 1.33504 1.37362)
(201.429 1.09907 0.573268)
(201.576 0.821098 -0.263941)
(201.469 0.524379 -1.0954)
(201.101 0.21733 -1.89398)
(200.457 -0.0993258 -2.61683)
(199.512 -0.429972 -3.18934)
(198.259 -0.78399 -3.50391)
(196.712 -1.1877 -3.33071)
(195.152 -1.58804 -2.53441)
(201.791 1.18158 2.13302)
(202.281 0.777894 1.10016)
(202.456 0.360693 -0.00499003)
(202.333 -0.0381776 -1.11108)
(201.891 -0.434221 -2.20899)
(201.091 -0.832579 -3.25795)
(199.865 -1.24646 -4.17291)
(198.145 -1.69325 -4.82513)
(195.845 -2.22502 -4.81923)
(193.404 -2.77299 -3.95506)
(202.167 2.00431 2.24881)
(202.728 1.57917 1.03775)
(202.939 1.12932 -0.220326)
(202.825 0.698391 -1.4897)
(202.35 0.270919 -2.77556)
(201.456 -0.160307 -4.05923)
(200.019 -0.619432 -5.25796)
(197.893 -1.1252 -6.25836)
(194.798 -1.76377 -6.4789)
(191.299 -2.45038 -5.65332)
(202.686 1.62557 2.90621)
(203.31 1.07946 1.54482)
(203.562 0.540719 0.100609)
(203.48 0.0541041 -1.35783)
(203.011 -0.412147 -2.87142)
(202.084 -0.864374 -4.44272)
(200.512 -1.33045 -6.00289)
(198.071 -1.83316 -7.47901)
(194.212 -2.5124 -8.10352)
(189.585 -3.2656 -7.59697)
(202.904 2.52194 2.78812)
(203.575 1.94412 1.34764)
(203.863 1.38346 -0.137333)
(203.81 0.88783 -1.6545)
(203.36 0.428172 -3.24784)
(202.432 -0.00681251 -4.96023)
(200.787 -0.454368 -6.73801)
(198.125 -0.940108 -8.59127)
(193.579 -1.62807 -9.58095)
(187.844 -2.40892 -9.53816)
(203.281 1.79893 3.39084)
(203.998 1.10169 1.8793)
(204.319 0.45888 0.282674)
(204.304 -0.0884203 -1.34115)
(203.886 -0.575631 -3.07743)
(202.985 -1.00932 -4.99011)
(201.314 -1.41709 -7.06145)
(198.509 -1.82383 -9.37878)
(193.375 -2.42163 -10.8987)
(186.57 -3.12856 -11.5919)
(203.374 2.78408 2.94582)
(204.108 2.06077 1.44469)
(204.436 1.42132 -0.0857153)
(204.416 0.890766 -1.66685)
(203.992 0.449973 -3.3604)
(203.09 0.0811361 -5.27161)
(201.407 -0.243826 -7.4058)
(198.535 -0.566324 -9.96953)
(192.984 -1.01074 -11.8846)
(185.232 -1.66233 -13.3442)
(203.553 1.48783 3.54887)
(204.3 0.64488 2.05642)
(204.642 -0.0723826 0.483546)
(204.642 -0.65208 -1.12451)
(204.241 -1.12102 -2.87561)
(203.367 -1.48309 -4.86827)
(201.7 -1.72902 -7.17311)
(198.81 -1.89073 -10.0524)
(193.022 -1.97659 -12.7012)
(184.231 -2.37576 -14.9268)
(202.807 2.53385 2.85279)
(203.514 1.63149 1.4316)
(203.796 0.952692 -0.0156091)
(203.677 0.411055 -1.5299)
(203.125 0.0325754 -3.16407)
(202.074 -0.199572 -5.03632)
(200.242 -0.257881 -7.22083)
(197.187 -0.114309 -9.97373)
(191.302 0.268226 -12.8221)
(181.809 0.659588 -15.229)
(199.056 0.204658 0.853747)
(199.311 0.0465447 0.51618)
(199.393 -0.126048 0.0883188)
(199.344 -0.282954 -0.321476)
(199.17 -0.428623 -0.718382)
(198.884 -0.554062 -1.03448)
(198.501 -0.665698 -1.24424)
(198.049 -0.770793 -1.29345)
(197.57 -0.880293 -1.1487)
(197.105 -0.990088 -0.788228)
(199.97 0.950711 0.969719)
(200.288 0.819265 0.394614)
(200.402 0.636912 -0.208914)
(200.32 0.422075 -0.801755)
(200.04 0.18745 -1.35188)
(199.564 -0.0632338 -1.81868)
(198.898 -0.328328 -2.14426)
(198.069 -0.608367 -2.25639)
(197.135 -0.90642 -2.04593)
(196.269 -1.17996 -1.45025)
(200.575 0.764699 1.71172)
(200.989 0.475483 0.917603)
(201.138 0.156455 0.0527661)
(201.033 -0.162837 -0.805546)
(200.665 -0.491213 -1.634)
(200.019 -0.829554 -2.38446)
(199.076 -1.18471 -2.98005)
(197.842 -1.56496 -3.31331)
(196.348 -1.98928 -3.15904)
(194.907 -2.39909 -2.37981)
(200.885 1.61378 1.81041)
(201.387 1.30512 0.835994)
(201.576 0.949563 -0.187464)
(201.467 0.590753 -1.21254)
(201.039 0.222109 -2.22304)
(200.259 -0.15937 -3.18003)
(199.07 -0.570185 -3.99616)
(197.432 -1.02256 -4.54557)
(195.288 -1.56073 -4.45941)
(193.114 -2.115 -3.48792)
(201.37 1.25322 2.4762)
(201.952 0.822768 1.33553)
(202.182 0.374206 0.109533)
(202.089 -0.0471629 -1.11998)
(201.635 -0.463056 -2.36653)
(200.773 -0.876402 -3.6014)
(199.392 -1.3085 -4.73721)
(197.398 -1.77917 -5.6473)
(194.578 -2.37687 -5.80166)
(191.554 -3.02747 -4.8287)
(201.592 2.18281 2.37148)
(202.236 1.71489 1.13637)
(202.504 1.23786 -0.148687)
(202.428 0.801235 -1.45529)
(201.966 0.385087 -2.79862)
(201.055 -0.0189571 -4.17922)
(199.534 -0.443577 -5.51348)
(197.249 -0.914603 -6.71184)
(193.773 -1.5477 -7.07767)
(189.851 -2.27869 -6.17156)
(201.987 1.48146 2.99454)
(202.686 0.891231 1.66972)
(202.987 0.329757 0.253958)
(202.939 -0.159593 -1.17979)
(202.486 -0.60423 -2.68615)
(201.559 -1.00885 -4.28035)
(199.948 -1.40014 -5.90382)
(197.437 -1.80767 -7.50199)
(193.353 -2.38291 -8.25665)
(188.509 -3.10326 -7.6442)
(202.11 2.5185 2.56063)
(202.835 1.90044 1.23603)
(203.146 1.33849 -0.125197)
(203.094 0.8637 -1.53069)
(202.628 0.462083 -3.0137)
(201.678 0.119795 -4.62708)
(200.004 -0.193353 -6.32503)
(197.341 -0.524051 -8.13519)
(192.775 -0.993146 -9.16522)
(187.06 -1.72559 -8.88645)
(202.324 1.21935 3.20192)
(203.063 0.479739 1.86984)
(203.387 -0.15884 0.444388)
(203.351 -0.674746 -1.01071)
(202.898 -1.09135 -2.57641)
(201.956 -1.41005 -4.29771)
(200.259 -1.63115 -6.18219)
(197.497 -1.79615 -8.27166)
(192.6 -1.95454 -9.86196)
(185.914 -2.49942 -10.0148)
(201.626 2.36242 2.48497)
(202.33 1.56848 1.23321)
(202.616 0.971644 -0.0583188)
(202.498 0.49546 -1.41416)
(201.941 0.168466 -2.86438)
(200.877 -0.0235175 -4.47935)
(199.057 -0.0638527 -6.26928)
(196.136 0.0588061 -8.28481)
(191.066 0.32035 -10.0069)
(183.661 0.428214 -10.172)
(198.431 -0.00183522 0.603674)
(198.616 -0.100337 0.395269)
(198.673 -0.214272 0.109716)
(198.642 -0.319832 -0.154078)
(198.532 -0.423588 -0.411436)
(198.356 -0.516195 -0.607102)
(198.126 -0.601566 -0.732011)
(197.867 -0.681864 -0.753516)
(197.604 -0.760307 -0.663698)
(197.336 -0.83049 -0.461899)
(199.2 0.661315 0.653895)
(199.429 0.600497 0.252828)
(199.514 0.49006 -0.165763)
(199.456 0.341725 -0.572516)
(199.258 0.16967 -0.938436)
(198.928 -0.0207083 -1.23163)
(198.483 -0.223786 -1.41268)
(197.955 -0.435228 -1.4389)
(197.397 -0.648115 -1.26315)
(196.904 -0.827019 -0.870769)
(199.638 0.413098 1.35246)
(199.965 0.210488 0.760618)
(200.084 -0.0268084 0.104122)
(200.002 -0.274745 -0.542783)
(199.716 -0.53812 -1.152)
(199.226 -0.814551 -1.6783)
(198.54 -1.10567 -2.06158)
(197.69 -1.41222 -2.22841)
(196.742 -1.73492 -2.06282)
(195.888 -2.02595 -1.508)
(199.858 1.25858 1.41018)
(200.281 1.04724 0.651683)
(200.441 0.776958 -0.153428)
(200.346 0.488078 -0.954224)
(199.986 0.180576 -1.72283)
(199.35 -0.144539 -2.41335)
(198.421 -0.495515 -2.94966)
(197.217 -0.877363 -3.22881)
(195.779 -1.30626 -3.04098)
(194.434 -1.72551 -2.24171)
(200.274 0.896211 2.06402)
(200.787 0.570069 1.13642)
(200.988 0.208215 0.125066)
(200.898 -0.146303 -0.882271)
(200.49 -0.506605 -1.87987)
(199.74 -0.871828 -2.82227)
(198.598 -1.25593 -3.62329)
(197.049 -1.67235 -4.15786)
(195.065 -2.1694 -4.09837)
(193.114 -2.68698 -3.17912)
(200.469 1.8409 1.95946)
(201.055 1.4779 0.931195)
(201.295 1.08487 -0.149375)
(201.211 0.710814 -1.24254)
(200.772 0.344199 -2.34124)
(199.939 -0.0196775 -3.41807)
(198.619 -0.405865 -4.3807)
(196.759 -0.835309 -5.10899)
(194.21 -1.37964 -5.14161)
(191.58 -1.99415 -4.10256)
(200.853 1.15354 2.59219)
(201.504 0.670103 1.46157)
(201.777 0.192548 0.236857)
(201.711 -0.234868 -0.997432)
(201.261 -0.631496 -2.26958)
(200.376 -0.999388 -3.55931)
(198.921 -1.36143 -4.7876)
(196.794 -1.7456 -5.83494)
(193.69 -2.25903 -6.13698)
(190.325 -2.89214 -5.15285)
(200.981 2.23855 2.16383)
(201.667 1.72839 1.02523)
(201.955 1.24783 -0.155148)
(201.883 0.833008 -1.37265)
(201.411 0.475436 -2.63496)
(200.481 0.165286 -3.95393)
(198.925 -0.125639 -5.25275)
(196.595 -0.440051 -6.45878)
(193.021 -0.877948 -6.92055)
(188.928 -1.55002 -6.00868)
(201.215 0.931996 2.84231)
(201.92 0.299898 1.68129)
(202.22 -0.257297 0.416635)
(202.16 -0.708937 -0.870751)
(201.69 -1.07428 -2.23681)
(200.75 -1.35232 -3.68359)
(199.14 -1.54968 -5.17688)
(196.662 -1.70836 -6.63217)
(192.732 -1.88783 -7.49952)
(187.827 -2.40806 -6.78904)
(200.552 2.18121 2.10138)
(201.227 1.49901 1.02526)
(201.506 0.985454 -0.10175)
(201.391 0.574311 -1.28786)
(200.849 0.29646 -2.54147)
(199.819 0.139986 -3.89296)
(198.109 0.112707 -5.30592)
(195.477 0.214864 -6.71305)
(191.337 0.389791 -7.64518)
(185.812 0.384499 -6.8594)
(197.972 -0.138785 0.443139)
(198.109 -0.20296 0.318679)
(198.147 -0.280116 0.126633)
(198.129 -0.351054 -0.0419722)
(198.063 -0.424651 -0.211257)
(197.958 -0.491849 -0.335997)
(197.825 -0.555146 -0.417511)
(197.679 -0.614113 -0.434626)
(197.531 -0.66875 -0.388858)
(197.36 -0.712856 -0.283015)
(198.633 0.461826 0.417627)
(198.791 0.445337 0.143917)
(198.851 0.385679 -0.136658)
(198.813 0.288212 -0.406193)
(198.68 0.167008 -0.641813)
(198.463 0.0280312 -0.821238)
(198.176 -0.121497 -0.919732)
(197.847 -0.2752 -0.913632)
(197.512 -0.423358 -0.784329)
(197.22 -0.537485 -0.533489)
(198.925 0.136538 1.06249)
(199.169 -0.00573283 0.632006)
(199.259 -0.179305 0.145515)
(199.2 -0.36709 -0.331274)
(198.99 -0.57209 -0.771614)
(198.637 -0.790375 -1.1382)
(198.159 -1.02001 -1.38792)
(197.591 -1.2571 -1.47543)
(196.994 -1.49411 -1.34363)
(196.48 -1.69333 -0.979915)
(199.057 0.957085 1.06379)
(199.393 0.82074 0.490804)
(199.522 0.622595 -0.122768)
(199.446 0.397394 -0.729203)
(199.16 0.149085 -1.29708)
(198.667 -0.118375 -1.78286)
(197.975 -0.406553 -2.12698)
(197.12 -0.714689 -2.25592)
(196.172 -1.0426 -2.05849)
(195.34 -1.34583 -1.46913)
(199.387 0.575635 1.68859)
(199.816 0.336739 0.954667)
(199.984 0.0531695 0.142685)
(199.903 -0.236878 -0.660888)
(199.559 -0.540069 -1.43945)
(198.943 -0.852306 -2.14306)
(198.043 -1.18114 -2.69736)
(196.885 -1.53275 -3.00102)
(195.521 -1.92843 -2.86509)
(194.271 -2.31942 -2.13997)
(199.534 1.51619 1.57149)
(200.042 1.24634 0.739782)
(200.249 0.932653 -0.142872)
(200.167 0.621235 -1.03142)
(199.776 0.307276 -1.90443)
(199.057 -0.0104354 -2.72064)
(197.968 -0.348321 -3.39368)
(196.515 -0.720456 -3.81026)
(194.698 -1.16411 -3.68437)
(192.954 -1.64757 -2.77658)
(199.887 0.833246 2.2017)
(200.468 0.449559 1.26192)
(200.709 0.0540123 0.228621)
(200.636 -0.310354 -0.807437)
(200.217 -0.655721 -1.85468)
(199.422 -0.981294 -2.87188)
(198.175 -1.30478 -3.77653)
(196.451 -1.64836 -4.43492)
(194.165 -2.081 -4.48654)
(191.864 -2.59366 -3.52776)
(199.999 1.95898 1.77172)
(200.621 1.55297 0.819228)
(200.879 1.15371 -0.177005)
(200.8 0.80052 -1.20337)
(200.35 0.489971 -2.2474)
(199.493 0.215943 -3.29347)
(198.123 -0.0452292 -4.25269)
(196.179 -0.327669 -5.01378)
(193.478 -0.703705 -5.12882)
(190.607 -1.25409 -4.10471)
(200.24 0.637448 2.48451)
(200.889 0.111313 1.49685)
(201.16 -0.364737 0.399142)
(201.087 -0.753014 -0.714028)
(200.63 -1.06855 -1.8776)
(199.746 -1.3082 -3.06346)
(198.3 -1.48201 -4.2148)
(196.187 -1.62752 -5.19386)
(193.152 -1.7984 -5.60237)
(189.653 -2.22494 -4.64859)
(199.601 1.99967 1.71473)
(200.225 1.42828 0.813914)
(200.486 0.997258 -0.145044)
(200.376 0.649784 -1.15638)
(199.869 0.418447 -2.21004)
(198.915 0.293197 -3.30674)
(197.381 0.275351 -4.38135)
(195.122 0.358701 -5.31613)
(191.874 0.472229 -5.7269)
(187.896 0.43323 -4.65747)
(197.621 -0.227946 0.344323)
(197.727 -0.273145 0.272805)
(197.753 -0.328365 0.139663)
(197.744 -0.376905 0.0306214)
(197.705 -0.429704 -0.0848269)
(197.645 -0.478182 -0.16865)
(197.569 -0.524321 -0.227932)
(197.487 -0.56668 -0.247457)
(197.401 -0.604194 -0.23179)
(197.281 -0.631691 -0.182536)
(198.212 0.337883 0.244799)
(198.316 0.347645 0.0608083)
(198.357 0.322181 -0.121166)
(198.333 0.261853 -0.293597)
(198.248 0.180017 -0.440045)
(198.11 0.0823815 -0.546195)
(197.93 -0.0239115 -0.59747)
(197.728 -0.132219 -0.581022)
(197.525 -0.233189 -0.490764)
(197.345 -0.304096 -0.331484)
(198.386 -0.06815 0.838049)
(198.558 -0.171108 0.530352)
(198.624 -0.297514 0.175959)
(198.583 -0.437117 -0.170258)
(198.436 -0.592558 -0.485739)
(198.192 -0.759869 -0.742206)
(197.87 -0.935126 -0.910545)
(197.5 -1.11252 -0.964654)
(197.126 -1.2821 -0.876517)
(196.811 -1.41458 -0.653283)
(198.443 0.716382 0.776393)
(198.697 0.633956 0.355408)
(198.796 0.493564 -0.0982342)
(198.738 0.323366 -0.544053)
(198.523 0.129118 -0.952434)
(198.158 -0.083459 -1.28691)
(197.661 -0.311807 -1.50421)
(197.071 -0.55156 -1.55587)
(196.453 -0.794802 -1.38622)
(195.937 -1.00697 -0.972796)
(198.684 0.304522 1.36092)
(199.026 0.13408 0.794488)
(199.161 -0.0824709 0.158823)
(199.094 -0.313516 -0.466648)
(198.818 -0.561419 -1.06102)
(198.335 -0.820043 -1.57789)
(197.653 -1.09206 -1.95843)
(196.815 -1.37774 -2.12941)
(195.893 -1.68264 -1.98677)
(195.096 -1.96645 -1.46011)
(198.775 1.22351 1.22188)
(199.197 1.03117 0.567941)
(199.368 0.788522 -0.132303)
(199.295 0.536672 -0.833953)
(198.965 0.275563 -1.50845)
(198.374 0.00674717 -2.11129)
(197.513 -0.278296 -2.56968)
(196.417 -0.587443 -2.79288)
(195.146 -0.934676 -2.61044)
(194.002 -1.29646 -1.89715)
(199.087 0.536093 1.83797)
(199.585 0.240324 1.07666)
(199.79 -0.0788927 0.226297)
(199.719 -0.381909 -0.621952)
(199.35 -0.675151 -1.46341)
(198.671 -0.95527 -2.24815)
(197.649 -1.23496 -2.90109)
(196.302 -1.52899 -3.30214)
(194.658 -1.87815 -3.23393)
(193.106 -2.26936 -2.43695)
(199.166 1.69354 1.39921)
(199.709 1.3827 0.624408)
(199.933 1.06096 -0.192511)
(199.853 0.768462 -1.03333)
(199.448 0.505883 -1.87176)
(198.697 0.270214 -2.67707)
(197.544 0.0435538 -3.36197)
(195.985 -0.199186 -3.81567)
(193.998 -0.505074 -3.74043)
(192.02 -0.923556 -2.82065)
(199.407 0.347223 2.14255)
(199.984 -0.0796015 1.32254)
(200.221 -0.477734 0.390516)
(200.145 -0.805169 -0.550181)
(199.725 -1.07306 -1.51859)
(198.933 -1.2765 -2.46873)
(197.693 -1.4268 -3.33615)
(195.966 -1.55472 -3.97608)
(193.69 -1.70325 -4.11782)
(191.252 -2.02601 -3.21058)
(198.781 1.82764 1.33756)
(199.337 1.36207 0.605284)
(199.572 1.01055 -0.187841)
(199.47 0.72414 -1.02599)
(199.013 0.536198 -1.88512)
(198.164 0.438188 -2.74698)
(196.845 0.427125 -3.5331)
(194.985 0.494043 -4.11951)
(192.517 0.564618 -4.21034)
(189.735 0.525303 -3.17016)
(197.344 -0.287557 0.286261)
(197.43 -0.322504 0.247491)
(197.448 -0.365169 0.150234)
(197.443 -0.399717 0.0772674)
(197.421 -0.438664 -0.00601539)
(197.387 -0.473941 -0.0666631)
(197.344 -0.507503 -0.114503)
(197.298 -0.537696 -0.137551)
(197.247 -0.563296 -0.141118)
(197.155 -0.580282 -0.124926)
(197.892 0.272522 0.118301)
(197.959 0.297444 -0.00402147)
(197.985 0.294227 -0.117527)
(197.971 0.260142 -0.223024)
(197.919 0.207671 -0.309559)
(197.833 0.141703 -0.368511)
(197.723 0.0685678 -0.391821)
(197.599 -0.00577552 -0.372259)
(197.474 -0.0734918 -0.309105)
(197.358 -0.116418 -0.205176)
(197.975 -0.21137 0.669811)
(198.091 -0.290018 0.452065)
(198.136 -0.382876 0.196243)
(198.109 -0.485517 -0.0535903)
(198.01 -0.60099 -0.279644)
(197.848 -0.725935 -0.461789)
(197.637 -0.855909 -0.581075)
(197.4 -0.984948 -0.623276)
(197.166 -1.10359 -0.573834)
(196.971 -1.1895 -0.446627)
(197.978 0.535093 0.545729)
(198.162 0.489039 0.244616)
(198.235 0.392791 -0.0809836)
(198.194 0.268 -0.399301)
(198.038 0.120762 -0.685344)
(197.778 -0.0425864 -0.91086)
(197.432 -0.217591 -1.04617)
(197.035 -0.398285 -1.06088)
(196.635 -0.5744 -0.928972)
(196.315 -0.719524 -0.646293)
(198.137 0.0883721 1.08497)
(198.398 -0.0311999 0.65732)
(198.502 -0.192915 0.171012)
(198.45 -0.372394 -0.305185)
(198.238 -0.569465 -0.750413)
(197.874 -0.777335 -1.12571)
(197.376 -0.995291 -1.38745)
(196.786 -1.21988 -1.48674)
(196.171 -1.44905 -1.36832)
(195.666 -1.64923 -1.00579)
(198.174 0.971629 0.919316)
(198.509 0.840095 0.419304)
(198.646 0.658033 -0.120119)
(198.585 0.46023 -0.65834)
(198.319 0.249509 -1.16523)
(197.853 0.0293417 -1.59976)
(197.197 -0.202821 -1.90479)
(196.395 -0.450197 -2.01492)
(195.521 -0.713325 -1.83109)
(194.778 -0.974438 -1.30155)
(198.444 0.273723 1.51162)
(198.854 0.0515389 0.909966)
(199.022 -0.199703 0.227053)
(198.959 -0.445496 -0.450789)
(198.65 -0.68808 -1.11164)
(198.094 -0.922248 -1.7056)
(197.288 -1.1566 -2.17017)
(196.269 -1.39886 -2.4099)
(195.109 -1.67186 -2.30113)
(194.076 -1.9578 -1.68951)
(198.476 1.45345 1.05832)
(198.932 1.22524 0.44607)
(199.12 0.974268 -0.203452)
(199.046 0.739159 -0.871669)
(198.699 0.523485 -1.52461)
(198.068 0.326567 -2.1261)
(197.137 0.136607 -2.59846)
(195.929 -0.0640819 -2.85056)
(194.5 -0.303813 -2.68806)
(193.161 -0.608121 -1.94172)
(198.717 0.0713312 1.82857)
(199.21 -0.266746 1.16375)
(199.412 -0.592846 0.38932)
(199.339 -0.863598 -0.388061)
(198.971 -1.08687 -1.17666)
(198.294 -1.25655 -1.92302)
(197.273 -1.38382 -2.56506)
(195.912 -1.49185 -2.97504)
(194.247 -1.61318 -2.98047)
(192.583 -1.84587 -2.22956)
(198.093 1.67448 0.980957)
(198.57 1.30634 0.404879)
(198.774 1.02907 -0.230221)
(198.684 0.79982 -0.90302)
(198.286 0.651599 -1.58041)
(197.561 0.577117 -2.23459)
(196.469 0.570925 -2.78539)
(194.993 0.623956 -3.12657)
(193.169 0.664744 -3.03925)
(191.271 0.636809 -2.15106)
(197.117 -0.331517 0.255097)
(197.191 -0.36092 0.236214)
(197.204 -0.396806 0.16011)
(197.202 -0.422918 0.108205)
(197.19 -0.452914 0.0436938)
(197.17 -0.479252 -0.00429072)
(197.146 -0.503988 -0.0464604)
(197.12 -0.525595 -0.0727768)
(197.088 -0.543027 -0.0885965)
(197.013 -0.553315 -0.0920313)
(197.645 0.250334 0.0233712)
(197.686 0.28425 -0.0570121)
(197.704 0.295318 -0.123656)
(197.696 0.279405 -0.183449)
(197.664 0.24812 -0.229803)
(197.612 0.205525 -0.257783)
(197.545 0.156817 -0.263345)
(197.469 0.106938 -0.242015)
(197.389 0.0620156 -0.195527)
(197.312 0.0367022 -0.123409)
(197.657 -0.306201 0.546853)
(197.732 -0.370489 0.392922)
(197.761 -0.440145 0.208219)
(197.744 -0.515475 0.0272596)
(197.68 -0.600018 -0.136402)
(197.575 -0.691323 -0.269137)
(197.44 -0.785326 -0.358809)
(197.29 -0.876816 -0.398053)
(197.145 -0.957935 -0.378114)
(197.023 -1.01186 -0.314402)
(197.631 0.406264 0.365168)
(197.758 0.383416 0.155749)
(197.81 0.31958 -0.0709416)
(197.782 0.23087 -0.291446)
(197.674 0.122802 -0.486294)
(197.494 0.00140292 -0.634727)
(197.26 -0.128458 -0.717304)
(196.997 -0.260644 -0.715354)
(196.741 -0.385276 -0.618317)
(196.543 -0.48259 -0.426997)
(197.718 -0.0733329 0.85916)