/*--------------------------------*- C++ -*----------------------------------*\
| =========                 |                                                 |
| \\      /  F ield         | foam-extend: Open Source CFD                    |
|  \\    /   O peration     | Version:     4.0                                |
|   \\  /    A nd           | Web:         http://www.foam-extend.org         |
|    \\/     M anipulation  |                                                 |
\*---------------------------------------------------------------------------*/
FoamFile
{
    version     2.0;
    format      ascii;
    class       volScalarField;
    location    "3900";
    object      divFlux;
}
// * * * * * * * * * * * * * * * * * * * * * * * * * * * * * * * * * * * * * //

dimensions      [1 -3 -1 0 0 0 0];

internalField   nonuniform List<scalar> 
34480
(
2.0606e-05
7.82013e-06
7.77309e-06
7.17393e-06
6.65739e-06
6.24586e-06
5.92959e-06
0.000298275
0.0001809
5.29266e-06
6.15202e-06
3.29641e-06
3.20334e-06
2.96606e-06
2.79956e-06
2.72338e-06
2.7196e-06
2.72304e-06
0.00346375
2.63175e-06
1.68923e-06
1.07199e-06
1.0456e-06
9.89285e-07
9.76776e-07
1.0099e-06
1.06516e-06
1.10255e-06
0.00334088
1.08867e-06
6.05397e-07
4.08288e-07
3.99201e-07
3.81904e-07
3.83966e-07
4.03783e-07
4.28678e-07
4.45822e-07
0.000801379
4.40553e-07
2.43333e-07
1.6724e-07
1.66979e-07
1.58469e-07
1.59909e-07
1.6927e-07
1.77713e-07
1.84848e-07
1.86812e-07
1.82754e-07
1.00602e-07
7.50291e-08
7.14208e-08
6.94735e-08
7.04472e-08
7.354e-08
7.7091e-08
8.02411e-08
8.02983e-08
7.91529e-08
4.60993e-08
3.39063e-08
3.34481e-08
3.23281e-08
3.23281e-08
3.41099e-08
3.46699e-08
3.635e-08
3.691e-08
3.59936e-08
2.15752e-08
1.94274e-08
1.58535e-08
1.57618e-08
1.57618e-08
1.74572e-08
1.70906e-08
1.84194e-08
1.75946e-08
1.81444e-08
1.79528e-08
9.0389e-09
1.01219e-08
9.53875e-09
9.0389e-09
8.95559e-09
9.70536e-09
9.41379e-09
9.12221e-09
9.66371e-09
6.48152e-09
9.85115e-09
6.72017e-09
7.59837e-09
6.26197e-09
6.07106e-09
6.14742e-09
5.91833e-09
6.37652e-09
6.98744e-09
2.78511e-05
1.00599e-05
9.8882e-06
9.24334e-06
8.68918e-06
8.26664e-06
7.98732e-06
7.83965e-06
7.82744e-06
0.00106585
9.3572e-06
4.77951e-06
4.66482e-06
4.37458e-06
4.17588e-06
4.09106e-06
4.09314e-06
4.17146e-06
4.30973e-06
0.00345641
2.86648e-06
1.76647e-06
1.72903e-06
1.65734e-06
1.6535e-06
1.71348e-06
1.80182e-06
1.90448e-06
2.01143e-06
0.00431091
1.1819e-06
7.57272e-07
7.50138e-07
7.26213e-07
7.34413e-07
7.73068e-07
8.18965e-07
8.68801e-07
9.20874e-07
0.00149797
5.99422e-07
3.30417e-07
3.49524e-07
3.34738e-07
3.40397e-07
3.59261e-07
3.80193e-07
4.0362e-07
4.27048e-07
4.39051e-07
2.83612e-07
1.62927e-07
1.68251e-07
1.63353e-07
1.63566e-07
1.73735e-07
1.82893e-07
1.93436e-07
2.05043e-07
2.08946e-07
1.72094e-07
7.72867e-08
7.84699e-08
8.70363e-08
7.8044e-08
8.74149e-08
9.15798e-08
9.61706e-08
1.02276e-07
1.03749e-07
3.49867e-08
6.59374e-08
3.65041e-08
5.00068e-08
4.0934e-08
4.65566e-08
4.87716e-08
5.15403e-08
5.46923e-08
5.63429e-08
5.85533e-08
8.13182e-10
3.98846e-08
3.28758e-08
2.79193e-08
3.0746e-08
3.05137e-08
3.22562e-08
3.52766e-08
3.58865e-08
1.81654e-07
3.25854e-08
9.40645e-09
3.18045e-08
2.12976e-08
2.28949e-08
2.41018e-08
2.52732e-08
2.7261e-08
2.83037e-08
2.56847e-05
7.7263e-06
7.73841e-06
7.24324e-06
6.82763e-06
6.53091e-06
6.367e-06
6.34813e-06
3.08992e-05
0.000874142
8.22617e-06
3.42285e-06
3.41825e-06
3.2015e-06
3.02465e-06
2.90788e-06
2.8712e-06
2.9354e-06
8.12649e-05
0.00135332
2.34195e-06
1.22124e-06
1.21158e-06
1.13939e-06
1.09401e-06
1.07418e-06
1.09318e-06
1.16228e-06
0.000120333
0.00127421
8.72512e-07
4.92171e-07
4.86363e-07
4.59634e-07
4.42871e-07
4.36898e-07
4.45709e-07
4.79829e-07
5.385e-07
6.72499e-07
3.77034e-07
1.99404e-07
2.07833e-07
1.94144e-07
1.87186e-07
1.84131e-07
1.886e-07
2.03364e-07
2.31281e-07
2.94023e-07
1.52667e-07
9.162e-08
9.02341e-08
8.53338e-08
8.32054e-08
8.177e-08
8.23144e-08
9.02836e-08
1.03598e-07
1.32892e-07
7.97736e-08
4.0434e-08
4.21939e-08
4.0258e-08
3.82341e-08
3.76621e-08
3.81021e-08
4.149e-08
4.81336e-08
6.36044e-08
1.46222e-08
3.12429e-08
1.95614e-08
2.08682e-08
1.9601e-08
1.95614e-08
1.85715e-08
2.13038e-08
2.53824e-08
3.24803e-08
2.89999e-08
7.45163e-09
1.60552e-08
1.25274e-08
1.16274e-08
1.20234e-08
1.19154e-08
1.27434e-08
1.41473e-08
1.95898e-08
2.19073e-08
1.30014e-08
3.89381e-09
1.05925e-08
7.49063e-09
8.2166e-09
8.0516e-09
8.1506e-09
9.47053e-09
1.44615e-08
2.49055e-05
7.03816e-06
7.07657e-06
6.62332e-06
6.24846e-06
5.9943e-06
5.86055e-06
5.85592e-06
1.58086e-05
0.000374108
8.21367e-06
3.19181e-06
3.20672e-06
3.00849e-06
2.84049e-06
2.72172e-06
2.66434e-06
2.68339e-06
3.50194e-05
0.0011442
2.3781e-06
1.18394e-06
1.17864e-06
1.10428e-06
1.0491e-06
1.01457e-06
1.00794e-06
1.04277e-06
0.000121789
0.00228959
8.79186e-07
4.88124e-07
4.80332e-07
4.53153e-07
4.3263e-07
4.17967e-07
4.16985e-07
4.34839e-07
0.000113093
0.00210544
3.77828e-07
2.03779e-07
2.09038e-07
1.95313e-07
1.8611e-07
1.79904e-07
1.78853e-07
1.87582e-07
4.5119e-05
0.00156975
1.53607e-07
9.55265e-08
9.28576e-08
8.75659e-08
8.29645e-08
8.01116e-08
7.97434e-08
8.35627e-08
1.07473e-05
0.000986833
7.7389e-08
4.20472e-08
4.32743e-08
4.08201e-08
3.75889e-08
3.7548e-08
3.64027e-08
3.93477e-08
4.51966e-08
0.000414783
2.00486e-08
2.92653e-08
2.03201e-08
2.04305e-08
1.98415e-08
1.92157e-08
1.89949e-08
1.98783e-08
2.30073e-08
0.000156035
3.18369e-08
8.90175e-09
1.61637e-08
1.3453e-08
1.23821e-08
1.18467e-08
1.17463e-08
1.31184e-08
1.42562e-08
1.90459e-08
1.03399e-08
1.72095e-08
4.04929e-09
1.0522e-08
7.48506e-09
8.09858e-09
7.60776e-09
8.92685e-09
9.35632e-09
1.38581e-08
2.38008e-05
6.30719e-06
6.37452e-06
5.97165e-06
5.63899e-06
5.40891e-06
5.28791e-06
5.27547e-06
2.03436e-05
0.000143521
8.02862e-06
2.91837e-06
2.94857e-06
2.77374e-06
2.62167e-06
2.51485e-06
2.45394e-06
2.44513e-06
3.60609e-06
0.00057918
2.38674e-06
1.12113e-06
1.12531e-06
1.05543e-06
1.0006e-06
9.6094e-07
9.41399e-07
9.47148e-07
7.64721e-05
0.00133455
8.8326e-07
4.74909e-07
4.65669e-07
4.3872e-07
4.17217e-07
4.02131e-07
3.93234e-07
3.99023e-07
7.88318e-05
0.00142013
3.73985e-07
2.00831e-07
2.03325e-07
1.91396e-07
1.81814e-07
1.75214e-07
1.71303e-07
1.74187e-07
5.29466e-05
0.00127936
1.52726e-07
9.56919e-08
9.19275e-08
8.64948e-08
8.19605e-08
7.95222e-08
7.764e-08
7.86239e-08
4.00969e-05
0.0010153
7.50211e-08
4.41838e-08
4.25107e-08
4.12559e-08
3.87844e-08
3.70353e-08
3.64269e-08
3.73395e-08
5.85477e-06
0.000666256
2.39326e-08
2.79247e-08
2.10462e-08
2.10804e-08
1.94036e-08
1.90614e-08
1.8856e-08
1.91983e-08
8.61153e-06
0.000498901
3.53668e-08
7.80872e-09
1.50886e-08
1.26308e-08
1.19153e-08
1.22886e-08
1.16975e-08
1.19464e-08
1.50575e-08
0.000305572
3.493e-09
1.92781e-08
3.62178e-09
9.95275e-09
7.75687e-09
8.29871e-09
7.9565e-09
7.9565e-09
9.5535e-09
0.000402613
2.24387e-05
5.54305e-06
5.62328e-06
5.27982e-06
4.99297e-06
4.79374e-06
4.67865e-06
4.65304e-06
4.71977e-06
2.4707e-05
7.6899e-06
2.61622e-06
2.65985e-06
2.50997e-06
2.37615e-06
2.28027e-06
2.22317e-06
2.20424e-06
1.56131e-05
0.000222857
2.35858e-06
1.03343e-06
1.04775e-06
9.86346e-07
9.34713e-07
8.96791e-07
8.7344e-07
8.65041e-07
3.50192e-05
0.00071834
8.74877e-07
4.52415e-07
4.45204e-07
4.19647e-07
3.98544e-07
3.81815e-07
3.72139e-07
3.67976e-07
4.1534e-05
0.000847756
3.69228e-07
1.94244e-07
1.96017e-07
1.83928e-07
1.75565e-07
1.68294e-07
1.64112e-07
1.62522e-07
3.68491e-05
0.000863141
1.50168e-07
9.21001e-08
8.91176e-08
8.40275e-08
8.0528e-08
7.66706e-08
7.45629e-08
7.46027e-08
3.51593e-05
0.000779308
7.22584e-08
4.39027e-08
4.19585e-08
4.01204e-08
3.77167e-08
3.63028e-08
3.58079e-08
3.5207e-08
1.93058e-05
0.00059386
2.41773e-08
2.69779e-08
2.05515e-08
2.09651e-08
1.94699e-08
1.88018e-08
1.83882e-08
1.80701e-08
2.61084e-05
0.00052394
3.49099e-08
9.39945e-09
1.35063e-08
1.33038e-08
1.16264e-08
1.20313e-08
1.20602e-08
1.23205e-08
9.53833e-06
0.000446711
1.95728e-09
2.03607e-08
3.97669e-09
1.03659e-08
7.13153e-09
7.90036e-09
7.84733e-09
8.48361e-09
2.60333e-05
0.000523269
2.09069e-05
4.84647e-06
4.87721e-06
4.56581e-06
4.32164e-06
4.15531e-06
4.05219e-06
4.02205e-06
4.05914e-06
1.78353e-06
7.23035e-06
2.30485e-06
2.35443e-06
2.22389e-06
2.10973e-06
2.025e-06
1.9728e-06
1.95054e-06
1.04667e-05
7.13539e-05
2.27688e-06
9.31671e-07
9.51782e-07
8.98813e-07
8.52853e-07
8.19375e-07
7.95655e-07
7.82938e-07
1.34759e-05
0.000378071
8.45189e-07
4.1713e-07
4.13162e-07
3.9071e-07
3.71412e-07
3.56649e-07
3.45707e-07
3.39471e-07
1.64219e-05
0.000490245
3.61705e-07
1.83872e-07
1.8497e-07
1.75464e-07
1.66042e-07
1.59916e-07
1.54593e-07
1.51762e-07
1.75223e-05
0.000542577
1.46815e-07
8.80225e-08
8.53238e-08
7.98155e-08
7.64513e-08
7.40483e-08
7.06472e-08
7.02036e-08
2.01631e-05
0.000536356
6.91905e-08
4.26208e-08
4.00577e-08
3.7856e-08
3.65415e-08
3.51614e-08
3.3584e-08
3.41427e-08
1.59051e-05
0.000441421
2.51119e-08
2.59077e-08
2.01701e-08
1.98744e-08
1.86322e-08
1.83956e-08
1.78929e-08
1.7745e-08
2.5613e-05
0.000432956
3.44126e-08
1.02706e-08
1.22871e-08
1.35776e-08
1.12654e-08
1.11578e-08
1.12116e-08
1.14805e-08
1.94212e-05
0.000408925
5.45481e-09
2.03328e-08
3.69687e-09
8.97107e-09
7.88666e-09
7.12264e-09
8.03453e-09
7.71414e-09
3.31024e-05
0.00046875
1.88076e-05
4.33999e-06
4.26779e-06
3.92682e-06
3.69713e-06
3.54381e-06
3.45299e-06
3.41837e-06
3.43819e-06
3.65391e-06
6.65327e-06
1.99541e-06
2.04507e-06
1.93351e-06
1.83357e-06
1.76026e-06
1.71273e-06
1.68988e-06
2.89896e-06
1.46946e-05
2.15287e-06
8.22481e-07
8.46456e-07
8.0373e-07
7.62242e-07
7.31366e-07
7.09921e-07
6.96009e-07
4.86981e-06
0.000180765
8.02897e-07
3.77904e-07
3.74238e-07
3.54786e-07
3.38153e-07
3.24497e-07
3.13706e-07
3.07772e-07
5.27435e-06
0.000266911
3.46571e-07
1.68106e-07
1.70816e-07
1.61468e-07
1.53652e-07
1.47289e-07
1.43479e-07
1.39708e-07
5.78806e-06
0.000321694
1.43825e-07
8.09353e-08
8.02823e-08
7.53334e-08
7.18623e-08
6.83912e-08
6.74289e-08
6.51606e-08
7.97733e-06
0.000349954
6.63895e-08
3.95607e-08
3.88581e-08
3.61393e-08
3.44285e-08
3.36648e-08
3.25345e-08
3.15875e-08
8.83053e-06
0.000302653
2.3868e-08
2.37548e-08
1.94657e-08
1.88608e-08
1.80635e-08
1.72662e-08
1.67163e-08
1.71837e-08
1.91135e-05
0.000325677
3.066e-08
1.23723e-08
1.08976e-08
1.24723e-08
1.10476e-08
1.07226e-08
1.08476e-08
1.08976e-08
1.81928e-05
0.000311872
9.06477e-09
2.07579e-08
3.73459e-09
9.16465e-09
7.14842e-09
7.83577e-09
7.14842e-09
7.44628e-09
3.05047e-05
0.000366681
1.48345e-05
3.82133e-06
3.67682e-06
3.31643e-06
3.09468e-06
2.96231e-06
2.88891e-06
2.85781e-06
2.87089e-06
3.03334e-06
5.98603e-06
1.69404e-06
1.74794e-06
1.65027e-06
1.56257e-06
1.50084e-06
1.45915e-06
1.43755e-06
1.428e-06
4.09304e-07
1.98358e-06
7.09732e-07
7.32301e-07
7.00172e-07
6.64773e-07
6.37194e-07
6.17079e-07
6.04887e-07
1.56165e-06
7.97275e-05
7.4089e-07
3.35871e-07
3.31824e-07
3.16084e-07
3.00429e-07
2.88437e-07
2.78554e-07
2.72782e-07
1.56792e-06
0.000135599
3.26464e-07
1.5091e-07
1.5332e-07
1.45542e-07
1.38678e-07
1.33237e-07
1.28746e-07
1.25898e-07
1.00525e-06
0.000176901
1.37474e-07
7.26205e-08
7.34192e-08
6.87866e-08
6.54319e-08
6.34511e-08
6.08312e-08
1.22846e-05
1.42848e-06
0.0002148
6.37546e-08
3.57831e-08
3.57547e-08
3.36531e-08
3.20628e-08
3.02452e-08
3.01884e-08
2.92796e-08
3.56101e-06
0.00019009
2.40008e-08
2.15465e-08
1.87094e-08
1.73037e-08
1.64602e-08
1.62046e-08
1.54378e-08
1.01755e-05
1.2389e-05
0.000227274
2.50059e-08
1.40112e-08
9.61961e-09
1.14552e-08
1.0642e-08
1.00611e-08
9.99138e-09
1.00378e-08
1.36208e-05
0.000214195
1.15663e-08
1.99363e-08
4.51548e-09
7.32701e-09
6.96492e-09
6.19814e-09
6.15554e-09
4.8275e-06
2.4394e-05
0.000264451
1.08895e-05
3.38727e-06
3.17811e-06
2.76002e-06
2.50701e-06
2.37007e-06
2.30003e-06
2.28344e-06
2.29328e-06
2.40708e-06
5.29166e-06
1.38392e-06
1.45901e-06
1.37866e-06
1.30168e-06
1.24614e-06
1.21121e-06
1.19282e-06
1.18662e-06
1.11513e-06
1.78917e-06
6.02148e-07
6.17925e-07
5.94663e-07
5.65912e-07
5.4189e-07
5.2445e-07
5.12736e-07
8.65133e-08
3.1637e-05
6.64167e-07
2.91546e-07
2.86813e-07
2.74101e-07
2.61112e-07
2.49925e-07
2.41925e-07
2.35272e-07
4.40903e-07
6.4255e-05
2.98879e-07
1.33774e-07
1.34928e-07
1.28003e-07
1.22606e-07
1.17752e-07
1.13781e-07
1.10081e-07
4.05903e-07
9.10125e-05
1.29742e-07
6.40652e-08
6.42731e-08
6.14218e-08
5.89566e-08
5.65212e-08
5.44124e-08
1.7604e-05
1.34507e-06
0.000125569
6.10685e-08
3.11267e-08
3.26844e-08
3.01763e-08
2.8645e-08
2.80378e-08
2.68762e-08
2.65066e-08
8.17427e-07
0.000108956
2.34793e-08
1.78919e-08
1.69415e-08
1.60148e-08
1.50881e-08
1.45416e-08
1.47317e-08
1.90128e-05
7.37782e-06
0.000150101
1.92458e-08
1.45157e-08
7.75468e-09
1.06492e-08
9.24514e-09
9.09393e-09
9.37474e-09
8.98593e-09
8.81653e-06
0.000136379
1.41354e-08
1.91473e-08
4.25715e-09
6.98965e-09
5.96002e-09
6.31643e-09
6.27683e-09
1.01692e-05
1.79097e-05
0.000180306
6.65178e-06
3.08078e-06
2.9772e-06
2.59162e-06
2.29129e-06
2.0937e-06
1.97326e-06
1.91239e-06
1.89814e-06
1.97357e-06
4.70981e-06
1.0648e-06
1.18985e-06
1.14007e-06
1.07206e-06
1.02045e-06
9.87983e-07
9.6976e-07
9.59295e-07
8.93766e-07
1.55285e-06
5.10939e-07
5.07471e-07
4.91722e-07
4.70362e-07
4.50106e-07
4.3471e-07
4.24704e-07
4.14477e-07
1.08077e-05
5.77133e-07
2.47175e-07
2.40475e-07
2.30958e-07
2.20871e-07
2.10821e-07
2.03991e-07
1.97806e-07
2.99121e-08
2.73602e-05
2.63018e-07
1.15304e-07
1.1502e-07
1.10602e-07
1.05396e-07
1.01104e-07
9.74438e-08
9.44775e-08
5.62069e-07
4.39676e-05
1.18766e-07
5.54985e-08
5.64096e-08
5.35657e-08
5.10807e-08
4.89546e-08
4.73808e-08
1.68743e-05
2.25964e-06
7.13204e-05
5.83323e-08
2.6384e-08
2.87647e-08
2.6384e-08
2.57459e-08
2.4396e-08
2.34879e-08
2.31443e-08
2.05206e-07
5.66486e-05
2.4634e-08
1.48217e-08
1.54402e-08
1.43799e-08
1.37614e-08
1.31429e-08
9.17597e-07
2.11616e-05
4.06037e-06
9.61986e-05
1.21318e-08
1.55627e-08
7.59056e-09
8.75525e-09
8.67493e-09
8.13275e-09
7.87169e-09
7.99218e-09
4.88242e-06
7.99373e-05
1.57105e-08
1.62722e-08
4.97001e-09
5.70631e-09
5.94561e-09
5.28294e-09
5.15409e-09
1.12186e-05
1.2378e-05
0.000117761
4.80977e-07
1.28656e-06
1.49716e-06
1.50591e-06
1.46255e-06
1.40873e-06
1.36894e-06
1.34049e-06
1.32207e-06
1.34234e-06
4.46696e-06
7.08086e-07
8.95054e-07
8.9757e-07
8.50828e-07
8.08141e-07
7.78366e-07
7.61425e-07
7.5334e-07
6.94513e-07
1.25202e-06
4.41844e-07
4.06319e-07
3.93054e-07
3.77406e-07
3.62847e-07
3.50034e-07
3.40321e-07
3.32641e-07
3.35502e-06
4.83707e-07
2.09933e-07
1.95319e-07
1.88491e-07
1.81013e-07
1.73261e-07
1.67186e-07
1.61539e-07
1.5709e-07
8.93148e-06
2.24935e-07
9.65422e-08
9.56328e-08
9.17899e-08
8.76537e-08
8.44855e-08
8.07012e-08
7.8237e-08
3.67189e-07
1.97374e-05
1.04041e-07
4.67163e-08
4.78201e-08
4.47912e-08
4.32768e-08
4.15057e-08
1.21704e-06
1.43122e-05
2.35946e-06
3.98242e-05
5.52052e-08
2.14017e-08
2.44362e-08
2.30673e-08
2.1858e-08
2.09682e-08
2.01011e-08
1.96676e-08
2.44659e-07
2.5387e-05
2.65553e-08
1.11914e-08
1.27315e-08
1.27726e-08
1.14583e-08
1.14173e-08
1.64391e-05
2.02918e-05
1.99084e-06
6.09814e-05
4.7509e-09
1.5233e-08
6.70177e-09
8.12052e-09
7.18713e-09
7.29914e-09
7.07512e-09
7.29914e-09
2.07712e-06
4.15758e-05
1.51331e-08
1.3262e-08
4.92832e-09
4.89409e-09
4.87698e-09
5.03099e-09
4.67164e-09
1.01522e-05
8.18049e-06
7.43476e-05
1.66647e-05
1.67237e-06
1.77765e-06
1.73982e-06
1.68295e-06
1.64499e-06
1.62449e-06
1.62891e-06
1.6481e-06
1.71789e-06
4.52743e-06
3.16699e-07
5.91209e-07
6.72293e-07
6.66208e-07
6.43038e-07
6.23495e-07
6.07937e-07
5.95839e-07
5.33989e-07
8.44023e-07
3.97735e-07
3.23667e-07
3.03164e-07
2.93619e-07
2.83139e-07
2.74358e-07
2.67428e-07
3.62018e-07
2.22728e-06
3.72611e-07
1.79778e-07
1.55518e-07
1.48057e-07
1.43428e-07
1.37605e-07
1.32499e-07
1.28426e-07
1.24338e-07
7.37688e-08
1.85524e-07
7.86225e-08
7.7068e-08
7.36319e-08
7.07139e-08
6.80413e-08
6.54506e-08
6.28598e-08
1.81325e-07
8.27425e-06
8.5925e-08
3.87999e-08
3.87522e-08
3.71296e-08
3.51251e-08
3.41945e-08
8.90095e-06
1.17111e-05
2.16513e-06
2.21877e-05
4.93281e-08
1.74353e-08
2.00654e-08
1.90473e-08
1.76686e-08
1.73929e-08
1.68414e-08
1.5696e-08
1.59505e-08
8.04537e-06
2.95165e-06
8.70492e-09
1.0423e-08
1.05757e-08
9.71668e-09
1.57317e-05
2.4228e-05
1.8435e-05
7.48356e-07
3.89771e-05
1.56935e-09
1.42652e-08
5.58809e-09
6.47316e-09
6.38639e-09
5.8484e-09
5.90047e-09
5.91782e-09
2.89782e-07
1.69393e-05
1.13327e-08
9.97439e-09
4.99515e-09
4.13611e-09
3.92931e-09
4.04066e-09
1.96728e-06
8.32809e-06
5.23547e-06
4.5727e-05
2.61372e-07
1.1226e-06
1.21503e-06
1.27198e-06
1.31502e-06
1.3339e-06
1.30765e-06
1.21955e-06
1.06575e-06
8.35764e-07
5.52258e-06
8.59374e-08
3.40622e-07
4.41511e-07
4.45127e-07
4.24873e-07
4.09634e-07
4.06728e-07
4.15468e-07
3.93858e-07
5.79729e-05
6.9228e-06
9.42238e-06
7.11887e-06
5.84545e-06
4.90263e-06
3.73001e-06
1.49738e-06
1.74306e-06
3.96922e-06
2.37334e-07
1.61035e-07
1.23516e-07
1.12468e-07
1.09555e-07
1.04675e-07
1.01214e-07
9.74579e-08
9.35388e-08
8.00702e-08
1.4686e-07
6.40649e-08
5.95268e-08
5.75494e-08
5.46592e-08
5.27071e-08
5.08564e-08
4.83972e-08
1.13375e-07
3.56549e-06
9.76853e-06
3.09233e-08
3.04131e-08
2.9437e-08
2.77511e-08
7.38567e-06
1.19316e-05
9.6131e-06
1.92208e-06
1.25962e-05
4.14222e-08
1.3862e-08
1.6031e-08
1.53211e-08
1.47493e-08
1.35268e-08
1.34873e-08
1.3093e-08
1.2462e-08
1.18345e-08
5.02642e-05
4.56816e-05
4.11005e-05
3.6511e-05
3.47314e-05
3.23307e-05
2.7578e-05
1.65826e-05
6.0693e-09
2.57343e-05
6.47552e-09
1.1987e-08
5.79181e-09
4.88835e-09
5.64661e-09
4.77542e-09
4.59796e-09
4.66249e-09
5.16262e-09
2.04235e-06
5.78899e-09
5.75282e-09
4.68803e-09
3.23874e-09
3.56409e-09
3.22395e-09
5.08703e-06
6.38152e-06
3.25966e-06
2.74796e-05
6.82535e-05
9.05726e-06
9.4104e-06
9.08873e-06
8.68918e-06
8.05656e-06
7.17065e-06
6.10528e-06
4.91613e-06
3.63882e-06
4.17842e-06
4.33314e-07
5.43189e-08
1.91477e-07
2.99496e-07
3.29069e-07
3.2348e-07
3.17149e-07
3.27831e-07
3.43655e-07
0.000199908
0.000128075
6.98234e-05
3.98305e-05
2.24256e-05
1.26029e-05
6.47787e-06
1.53429e-06
3.81085e-06
7.10074e-06
7.98781e-08
1.43063e-07
9.91241e-08
8.39874e-08
7.92168e-08
7.71271e-08
7.49824e-08
7.2439e-08
6.87545e-08
5.77858e-08
1.07164e-07
5.12374e-08
4.48504e-08
4.22343e-08
4.0231e-08
3.88169e-08
3.72614e-08
1.69951e-07
1.51096e-07
2.1081e-06
3.93734e-05
3.00193e-05
1.96683e-05
1.57417e-05
1.5037e-05
1.43056e-05
1.23465e-05
7.94485e-06
1.71012e-06
7.40592e-06
3.20164e-08
1.01736e-08
1.20434e-08
1.15118e-08
1.12002e-08
1.04669e-08
9.99032e-09
9.73369e-09
9.45872e-09
8.20942e-09
0.000219222
4.34954e-05
7.99338e-05
7.01289e-05
5.46481e-05
4.07492e-05
2.86821e-05
1.51796e-05
4.69345e-07
1.80567e-05
9.51018e-09
9.01378e-09
4.4694e-09
4.37941e-09
3.82448e-09
3.82448e-09
4.24443e-09
3.6745e-09
3.44953e-09
3.675e-09
5.11662e-10
2.87336e-09
3.32705e-09
2.85961e-09
2.46092e-09
2.55716e-09
5.26782e-06
4.37713e-06
1.91206e-06
1.57283e-05
0.000202929
2.30492e-05
2.63611e-05
2.54313e-05
2.21671e-05
1.79465e-05
1.36327e-05
9.57694e-06
5.8307e-06
2.20934e-06
1.18996e-05
9.05338e-07
6.57206e-07
5.76534e-07
5.602e-07
5.25174e-07
4.39345e-07
2.80455e-07
1.42442e-08
3.92503e-07
0.000339232
0.000241678
0.000117356
6.11217e-05
3.07682e-05
1.49797e-05
6.16277e-06
1.32358e-08
6.7326e-06
1.12831e-05
7.75151e-08
1.19986e-07
8.04293e-08
6.13477e-08
5.48295e-08
5.20433e-08
5.14553e-08
4.97939e-08
4.8733e-08
3.90905e-08
1.83432e-05
4.08838e-08
3.38289e-08
2.07443e-07
1.59486e-06
2.41491e-06
2.46758e-06
1.63075e-06
2.32004e-07
1.84968e-06
3.98189e-05
4.50285e-05
3.52072e-05
2.63132e-05
1.99958e-05
1.51518e-05
1.09221e-05
6.33742e-06
1.48893e-06
4.41112e-06
2.32906e-08
7.54917e-09
8.60571e-09
8.17969e-09
7.70254e-09
7.82183e-09
7.15723e-09
6.88457e-09
6.47559e-09
6.46624e-09
0.000486733
1.65127e-05
8.40157e-05
8.30463e-05
6.35198e-05
4.44229e-05
2.87546e-05
1.43033e-05
8.2827e-07
1.37505e-05
1.03502e-08
6.42756e-09
3.73663e-09
3.06738e-09
2.66305e-09
2.98373e-09
2.63516e-09
2.52362e-09
2.77459e-09
2.56742e-09
6.90743e-09
1.03524e-09
2.19829e-09
2.12161e-09
1.90433e-09
3.63357e-08
2.91115e-06
2.17839e-06
9.15691e-07
7.57994e-06
0.00062967
8.26681e-05
7.52964e-05
5.58327e-05
3.87575e-05
2.56631e-05
1.59089e-05
8.49382e-06
2.41065e-06
3.19899e-06
6.93561e-06
2.2814e-06
2.16299e-06
1.98286e-06
1.60082e-06
1.06849e-06
4.29728e-07
3.1727e-07
1.23253e-06
2.30612e-06
0.000486844
0.000365359
0.000159285
7.48745e-05
3.29715e-05
1.31057e-05
3.22751e-06
3.08118e-06
1.04895e-05
1.63859e-05
1.55447e-07
8.27543e-08
5.76963e-08
4.39851e-08
3.54542e-08
3.20324e-08
2.85511e-08
2.69828e-08
2.70065e-08
2.64294e-08
5.89249e-05
3.53721e-05
2.04374e-05
1.31782e-05
8.93818e-06
6.15602e-06
4.02848e-06
2.09375e-06
2.74319e-07
1.63386e-06
2.92275e-05
3.71504e-05
3.07045e-05
2.28627e-05
1.65934e-05
1.17759e-05
7.92156e-06
4.41993e-06
1.15534e-06
2.41278e-06
1.49812e-08
5.27536e-09
5.49715e-09
5.38626e-09
5.51299e-09
5.24368e-09
4.73674e-09
4.59416e-09
4.00801e-09
3.8089e-09
0.000834381
0.000119417
6.16224e-05
7.95852e-05
6.31482e-05
4.36399e-05
2.73135e-05
1.33339e-05
1.11494e-06
1.09906e-05
9.43669e-09
3.99217e-09
2.57935e-09
2.08681e-09
1.98312e-09
1.84054e-09
1.91831e-09
1.68501e-09
1.71093e-09
1.63398e-09
1.00737e-08
2.37629e-10
1.10497e-09
1.58023e-09
9.50516e-10
1.39013e-09
1.4733e-09
2.60204e-07
2.45768e-07
2.15107e-06
0.00220357
4.67732e-05
3.64313e-05
2.16503e-05
1.10933e-05
4.28153e-06
2.19483e-07
3.57339e-06
6.65462e-06
1.00073e-05
1.67305e-05
1.03739e-05
7.70103e-06
5.27098e-06
3.21972e-06
1.53659e-06
9.2185e-08
1.28024e-06
2.77152e-06
4.35753e-06
0.000553512
0.000459763
0.00017832
7.48057e-05
2.77736e-05
7.72892e-06
8.79714e-07
5.80964e-06
1.2279e-05
1.87366e-05
1.17708e-07
3.66929e-08
3.13358e-08
2.4808e-08
1.98044e-08
1.54084e-08
1.0935e-08
6.16334e-09
8.94679e-10
1.19032e-08
5.0581e-05
3.42703e-05
1.93661e-05
1.20496e-05
7.73426e-06
4.98687e-06
3.05999e-06
1.53239e-06
2.22903e-07
1.05574e-06
1.65349e-05
1.99944e-05
1.69644e-05
1.26765e-05
9.08331e-06
6.29728e-06
4.12207e-06
2.28365e-06
6.71688e-07
1.00603e-06
8.07228e-09
3.07799e-09
3.37253e-09
3.44617e-09
3.07799e-09
2.87181e-09
3.07799e-09
2.93072e-09
2.8129e-09
2.28964e-09
0.00106779
0.000215542
2.05308e-05
5.769e-05
4.97512e-05
3.49285e-05
2.17198e-05
1.06542e-05
1.16519e-06
7.89635e-06
8.14085e-09
2.73525e-09
1.47004e-09
1.39775e-09
1.42185e-09
1.16881e-09
9.63964e-10
1.04831e-09
1.42185e-09
9.0569e-10
1.24134e-06
7.92177e-07
8.28406e-10
9.94087e-10
1.03827e-09
4.95542e-07
8.03764e-07
3.80526e-07
2.03004e-07
1.2483e-06
0.00200318
0.000678496
0.000483082
0.00032981
0.000229775
0.000157748
0.000102409
5.92326e-05
1.49073e-05
2.06182e-05
4.70003e-06
5.93962e-06
3.10586e-06
1.00415e-06
2.86806e-07
1.09686e-06
1.69341e-06
2.25277e-06
2.87179e-06
3.31932e-06
0.000287493
0.0003727
0.000125044
4.6287e-05
1.34345e-05
9.32591e-07
3.63353e-06
6.01385e-06
9.68576e-06
1.44377e-05
3.15683e-08
6.70514e-09
1.27223e-08
1.90373e-08
2.03311e-08
2.43665e-08
2.74983e-08
2.87407e-08
3.01064e-08
3.0061e-08
2.06629e-05
1.52873e-05
8.38167e-06
5.05953e-06
3.14396e-06
1.96261e-06
1.17329e-06
5.86062e-07
9.83284e-08
3.84943e-07
6.22933e-06
5.83704e-06
4.94785e-06
3.69471e-06
2.62987e-06
1.80062e-06
1.16395e-06
6.48021e-07
2.1457e-07
2.34731e-07
3.77357e-09
1.12266e-09
1.47862e-09
1.86197e-09
1.08158e-09
2.06733e-09
1.16373e-09
1.24588e-09
1.3554e-09
7.63989e-10
0.000713983
0.000178259
8.18892e-06
2.39202e-05
2.3577e-05
1.70877e-05
1.06987e-05
5.31525e-06
7.11032e-07
3.64959e-06
6.7777e-09
5.71286e-10
7.05706e-10
5.37681e-10
4.92874e-10
7.05706e-10
3.80857e-10
8.73731e-10
4.48067e-11
7.7785e-10
9.12182e-05
0.000129181
8.53927e-05
5.05289e-05
2.88812e-05
1.62595e-05
8.69805e-06
3.48526e-06
8.42352e-07
5.5567e-06
0.00269442
0.000684056
0.000508944
0.000381996
0.000285462
0.0002101
0.000149846
0.000100641
5.89585e-05
2.48438e-05
5.61983e-06
1.06934e-05
7.45612e-06
4.97028e-06
3.283e-06
2.16893e-06
1.40867e-06
8.27797e-07
2.5885e-07
5.17085e-07
9.73446e-05
8.39257e-05
1.99149e-05
5.66226e-06
3.53874e-07
1.17617e-06
1.46427e-06
1.55854e-06
2.03977e-06
3.2768e-06
2.83647e-08
7.48382e-09
2.80643e-09
7.35018e-10
2.76825e-09
4.41965e-09
6.93972e-09
9.11613e-09
1.05384e-08
1.20276e-08
1.70899e-06
1.788e-06
9.40065e-07
5.50404e-07
3.32223e-07
2.01098e-07
1.17985e-07
5.92378e-08
1.17003e-08
4.29392e-08
7.92285e-07
4.5248e-07
3.69991e-07
2.72152e-07
1.90394e-07
1.27979e-07
8.1315e-08
4.5447e-08
1.69818e-08
1.48913e-08
1.11224e-09
4.83648e-10
4.96376e-10
8.90931e-11
7.00017e-10
1.90914e-10
3.81828e-10
8.90931e-11
5.21831e-10
4.07283e-10
5.29926e-05
2.82648e-05
2.46209e-06
2.70051e-06
2.98607e-06
2.22376e-06
1.40323e-06
7.02903e-07
1.04193e-07
4.79614e-07
2.38682e-09
3.74885e-10
1.77029e-10
3.33231e-10
4.06126e-10
5.20674e-11
1.66616e-10
2.7075e-10
1.35375e-10
1.14548e-10
0.000264475
0.000160004
9.48797e-05
5.41755e-05
3.04799e-05
1.69266e-05
8.8812e-06
3.55135e-06
8.03613e-07
5.38747e-06
0.526045
0.418989
0.530177
0.91966
0.686135
0.623873
0.739209
1.11568
0.849565
0.791476
0.937829
1.44121
0.616623
0.593169
0.702735
1.09972
0.450475
0.449041
0.533196
0.863247
0.298385
0.2949
0.365794
0.622465
0.198608
0.18959
0.253237
0.454955
0.128179
0.118209
0.169376
0.315488
0.0885085
0.0808566
0.122072
0.230921
0.0666744
0.061546
0.0993261
0.187998
0.0358367
0.00179664
1.53391e-05
0.0190184
0.078514
0.00652129
1.14613e-05
0.0409467
0.136612
0.0152016
6.18229e-06
0.0704176
0.124977
0.01702
3.1787e-06
0.0603763
0.110281
0.0169891
1.64141e-06
0.0489158
0.0853273
0.0142355
8.43432e-07
0.0375715
0.0644074
0.0110611
4.43195e-07
0.0305208
0.0464295
0.00833554
2.55964e-07
0.0231907
0.0357143
0.00714039
0.00104025
0.0184273
0.0300912
0.00824207
0.00381991
0.015497
0.0171109
0.0134528
0.0141307
0.0196838
0.038716
0.0266647
0.0261762
0.0408106
0.0749415
0.0486862
0.0492554
0.0796669
0.0710483
0.0430708
0.0446841
0.0749924
0.0650917
0.0370593
0.0395649
0.0699538
0.0519821
0.0280367
0.0306759
0.0566872
0.0404074
0.0206521
0.0232302
0.0451981
0.0299271
0.0145359
0.0166864
0.0336706
0.0234752
0.0104521
0.0123907
0.025981
0.0200688
0.00850259
0.0105667
0.0215222
0.00192522
0.00139068
0.00133938
0.00195133
0.0060948
0.00417438
0.00386337
0.00631524
0.0162345
0.0110082
0.0104768
0.0165938
0.0190428
0.0125541
0.0123938
0.0189686
0.0207132
0.0131682
0.0136018
0.0207284
0.0189473
0.011629
0.0124452
0.0190372
0.0164196
0.0096708
0.0106882
0.0167357
0.0133831
0.00760249
0.00860362
0.0136669
0.0111857
0.0058347
0.00691282
0.0112338
0.00993743
0.00508034
0.00647991
0.0100732
0.000611936
0.000571188
0.000600954
0.000818737
0.00226748
0.00210394
0.00236525
0.00340777
0.00609202
0.00574196
0.0064029
0.00889202
0.00729238
0.00654751
0.00705794
0.00959936
0.00837884
0.00713371
0.00763172
0.0103478
0.00813487
0.00655844
0.00703989
0.00951374
0.00745434
0.00568181
0.00617835
0.00841178
0.00648544
0.00469213
0.00517347
0.00704883
0.00583365
0.00387309
0.00445802
0.00604518
0.00558552
0.00368971
0.00456063
0.00582542
0.000113128
0.000105307
0.000105211
0.000164535
0.000766634
0.000721897
0.000845923
0.00123469
0.00245417
0.00248838
0.00298599
0.00410867
0.00301905
0.00305271
0.00354253
0.00471718
0.00358359
0.0035498
0.00403759
0.00531249
0.00361391
0.00344865
0.00386806
0.00503526
0.00342418
0.00312988
0.00349235
0.00451858
0.00315307
0.00273698
0.00304577
0.00389774
0.00305381
0.00243983
0.00279305
0.00347011
0.00302784
0.0023813
0.00289231
0.00336811
1.05684e-05
1.00503e-05
5.43463e-06
2.428e-05
0.000270937
0.000251636
0.000301067
0.000459933
0.00117328
0.00119786
0.0014802
0.00206818
0.00149167
0.00157089
0.00189595
0.00252736
0.00179891
0.00191327
0.00227553
0.00297651
0.00184266
0.00193152
0.00226021
0.00291501
0.00174857
0.0017955
0.00207839
0.0026464
0.00166949
0.00164244
0.00187372
0.00235135
0.00169557
0.00155538
0.00178864
0.00213868
0.00169383
0.00153223
0.00182944
0.00205648
1.28434e-05
4.61561e-06
4.44517e-06
4.58903e-06
7.50678e-05
6.32026e-05
7.54366e-05
0.000129328
0.000536176
0.000529036
0.000659685
0.000947087
0.000755169
0.00079542
0.0009722
0.00130426
0.000954674
0.00103518
0.00125492
0.00164661
0.00102072
0.00110774
0.00132595
0.00171286
0.000971252
0.00105429
0.00125069
0.00158558
0.000959373
0.00101052
0.00117653
0.00146865
0.000961694
0.000966003
0.0011137
0.00131119
0.000975936
0.000979196
0.0011541
0.00128476
1.04806e-05
3.64794e-06
3.49438e-06
3.62669e-06
1.17418e-05
6.03726e-06
5.8826e-06
2.00073e-05
0.000232616
0.000210067
0.000261851
0.000400848
0.000376872
0.000390856
0.000479371
0.000649221
0.00050345
0.000548135
0.000670013
0.000883479
0.000577558
0.000635063
0.00076765
0.000995688
0.000554116
0.000618775
0.000742706
0.000939193
0.000574563
0.000627482
0.000738665
0.000921571
0.000548056
0.000583895
0.000672847
0.000789217
0.000579419
0.000624037
0.000727866
0.000809817
8.09101e-06
2.70797e-06
2.59713e-06
2.72113e-06
2.47644e-06
9.79856e-07
9.49441e-07
1.05125e-06
8.75795e-05
6.04775e-05
7.35986e-05
0.000138254
0.000181521
0.000181891
0.000222561
0.000305764
0.000256173
0.000276671
0.000339725
0.00045176
0.000321482
0.000353859
0.000429859
0.000561547
0.000307203
0.000349111
0.000421515
0.000531401
0.000343607
0.000382252
0.000452651
0.000566659
0.000313609
0.000346235
0.000398763
0.000468288
0.00035
0.000393654
0.000455659
0.00050788
6.58963e-06
2.14184e-06
2.06725e-06
2.11419e-06
2.07197e-06
7.30841e-07
7.14687e-07
7.96865e-07
2.21582e-05
3.06956e-07
3.008e-07
2.17202e-05
8.32031e-05
7.85208e-05
9.51027e-05
0.000133309
0.000125166
0.000132395
0.000163063
0.000220068
0.00017687
0.000192977
0.00023521
0.000310956
0.000163242
0.000187848
0.000227755
0.000285673
0.000204618
0.000228847
0.000272213
0.000343513
0.000177278
0.000199544
0.00022979
0.000270369
0.00021208
0.00024432
0.000281744
0.000314338
3.87793e-06
1.21732e-06
1.18686e-06
1.32287e-06
1.5183e-06
5.09756e-07
5.03901e-07
5.5581e-07
6.06415e-07
2.27247e-07
2.16993e-07
2.45912e-07
3.47655e-05
2.94689e-05
3.4685e-05
4.97695e-05
5.73709e-05
5.83492e-05
7.19963e-05
9.96763e-05
9.62021e-05
0.000103131
0.000125996
0.000169583
8.11928e-05
9.47299e-05
0.000115279
0.000142939
0.000121871
0.000135527
0.000161902
0.000207161
9.56266e-05
0.000108661
0.000125096
0.000147201
0.000127266
0.000148348
0.000171175
0.000190678
6.56792e-06
1.80271e-06
1.61007e-06
1.54386e-06
1.16058e-06
3.92591e-07
3.9012e-07
4.48928e-07