/*--------------------------------*- C++ -*----------------------------------*\
| =========                 |                                                 |
| \\      /  F ield         | foam-extend: Open Source CFD                    |
|  \\    /   O peration     | Version:     4.0                                |
|   \\  /    A nd           | Web:         http://www.foam-extend.org         |
|    \\/     M anipulation  |                                                 |
\*---------------------------------------------------------------------------*/
FoamFile
{
    version     2.0;
    format      ascii;
    class       volScalarField;
    location    "450";
    object      epsilon;
}
// * * * * * * * * * * * * * * * * * * * * * * * * * * * * * * * * * * * * * //

dimensions      [0 2 -3 0 0 0 0];

internalField   nonuniform List<scalar> 
34480
(
4880.1
4874.71
4872.41
4872.8
4876.44
4886.27
4913.4
4999.07
5278.8
6020.93
624.699
584.535
587.265
645.631
865.392
1816.4
6556.51
30477
137702
499946
499.174
432.617
430.445
499.455
774.49
2017.85
8606.37
44112.5
215333
857475
415.852
355.038
352.327
416.342
688.221
2011.35
9489.49
52149.2
270681
1.15843e+06
363.307
310.209
309.244
368.371
633.179
1995.4
10070.4
58220.6
317420
1.43917e+06
316.377
270.459
269.173
322.691
579.442
1982.78
10659.9
64327.4
365517
1.73979e+06
288.368
248.084
247.181
295.571
542.069
1947.98
10912.3
67993.9
399903
1.98368e+06
272.071
239.362
237.524
277.444
494.903
1797.05
10345.2
66179.8
401375
2.06777e+06
432.988
410.226
407.888
432.179
569.261
1388.59
6801.33
42815
265570
1.41308e+06
5657.11
5655.85
5659.76
5669.38
5682.93
5698.9
5716.75
5744.04
5802.58
5860.79
4806.58
4800.49
4797.65
4797.83
4801.45
4810.65
4830.78
4873.64
4978.79
5297.62
506.928
479.522
473.686
488.152
533.166
658.544
1072.28
2812.23
15479.1
132120
377.195
328.736
319.269
340.374
409.673
606.057
1255.18
4078.43
26633.7
239865
329.883
281.647
271.666
291.999
360.718
561.255
1255.25
4589.25
35292.6
337970
302.383
257.307
248.983
267.745
333.281
529.109
1234.14
4885.81
42756
432524
272.498
231.978
223.946
240.082
299.182
483.686
1180.69
5071.7
49996.3
531365
254.925
218.242
211.225
224.865
278.27
450.299
1124.96
5094.7
55110.6
612244
246.434
216.208
209.432
219.462
260.706
398.138
959.651
4516.87
54507.5
640422
411.823
389.713
384.325
389.961
414.688
489.977
778.253
2793.31
35641.2
453605
5534.53
5529.37
5529
5533.88
5542.57
5553.53
5566.86
5590.46
5647.25
5809.23
4722.43
4716.65
4713.78
4713.54
4716.04
4722.38
4735.83
4762.96
4819.46
4933.99
409.851
397.14
392.708
397.366
413.1
451.849
556.272
869.666
1978.77
7948.82
273.535
247.021
240.438
249.845
280.142
353.046
546.022
1138.92
3575.81
19324.1
250.948
221.047
213.429
223.612
256.562
337.295
559.515
1317.13
5133.54
34734.7
242.016
211.666
204.895
214.956
248.22
331.104
568.209
1451.53
6801.23
54612.9
226.474
197.757
191.117
200.204
231.099
311.209
552.982
1547.31
8730.65
80368.6
218.053
191.046
185.226
193.121
221.686
297.665
537.111
1605.15
10570.5
107752
217.48
194.752
189.266
195.352
217.832
279.06
479.744
1469.95
11252.3
126900
386.917
369.421
365.147
369.211
385.567
428.006
556.335
1153.22
7748.81
93975.4
5422.76
5415.14
5412.26
5414.43
5420.52
5429.56
5440.87
5462.95
5525.43
5704.23
4627.65
4622.91
4620.52
4620.3
4622.18
4626.72
4635.81
4653.07
4687.41
4750.92
344.983
339.639
336.503
337.254
342.115
354.83
388.242
479.549
692.066
1318.49
204.319
191.29
187.063
190.984
204.999
236.586
310.383
495.474
964.901
2739.45
194.079
176.899
171.538
176.615
193.854
233.034
326.882
581.529
1339.68
4990.16
195.355
176.18
171.165
176.72
195.504
238.884
346.52
659.883
1745.5
8193.56
189.327
170.011
164.976
170.463
189.018
233.673
350.657
720.937
2222.21
12869.4
187.194
168.211
163.768
168.824
186.843
231.308
352.961
765.294
2698.39
18496.5
192.771
176.284
172.107
176.311
191.222
228.965
335.98
729.408
2889.88
23124.9
363.903
350.392
347.072
350.092
362.045
391.254
471.612
731.478
2179.02
17398.4
5299.45
5291.86
5288.71
5290.39
5296.13
5305.81
5318.62
5341.96
5400.6
5541.45
4523.75
4520.01
4518.08
4517.8
4519.03
4522.04
4528
4538.98
4561.08
4602.54
304.073
301.443
299.003
298.263
298.866
302.126
313.142
346.469
412.319
521.141
162.719
156.354
153.501
154.688
160.585
173.713
202.533
267.825
392.884
662.522
156.893
147.04
143.214
145.372
153.784
172.102
212.069
307.576
513.984
1089.41
162.104
150.124
146.434
149.168
159.128
180.979
229.882
353.961
654.404
1718.68
161.287
148.467
144.692
147.741
158.337
182.531
239.464
395.081
820.873
2698.69
162.748
149.629
146.279
149.288
160.188
185.665
248.027
428.747
984.065
3941.39
172.394
160.631
157.479
160.208
169.741
192.674
250.703
430.565
1060.51
5062.31
342.765
332.557
329.997
332.077
340.457
360.173
411.031
548.337
993.237
4055.38
5169.06
5161.68
5158.39
5159.69
5165.05
5174.74
5188.14
5210.42
5259.99
5362.35
4411.63
4408.71
4407.17
4406.85
4407.61
4409.58
4413.68
4421.63
4438.42
4471.3
278.207
276.229
274.139
273.015
272.376
272.786
277.051
293.227
326.082
368.885
138.952
135.56
133.509
133.6
135.973
141.439
153.283
179.053
222.591
282.769
133.823
127.913
125.14
125.902
129.887
138.299
155.381
192.859
261.049
377.344
139.434
131.861
129.183
130.4
135.475
146.088
167.808
217.823
316.805
529.998
140.87
132.389
129.631
131.232
137.067
149.718
176.718
243.219
387.655
780.588
143.93
135
132.559
134.262
140.625
154.719
185.833
266.689
458.038
1100.23
155.858
147.658
145.37
147.082
152.979
166.494
197.389
282.555
505.796
1414.09
323.363
315.942
314.064
315.46
321.206
334.353
366.839
445.445
628.455
1368.23
5031.17
5024.25
5021.04
5022.1
5027.09
5036.42
5049.6
5069.78
5108.59
5177.05
4291.95
4289.65
4288.41
4288.09
4288.54
4289.84
4292.77
4299.09
4313.16
4341.47
260.993
258.915
256.996
255.875
255.065
254.86
257.188
267.429
289.853
319.921
125.727
123.57
121.976
121.691
122.642
125.093
130.664
142.979
163.569
186.747
120.079
116.22
114.145
114.3
116.202
120.182
127.951
144.131
171.477
202.832
124.592
119.624
117.668
118.131
120.667
125.784
135.58
156.51
194.011
244.497
126.601
120.916
118.921
119.71
122.844
129.352
142.153
170.937
226.3
320.549
130.02
123.962
122.218
123.126
126.732
134.353
149.726
185.97
260.276
417.907
142.889
137.273
135.658
136.687
140.207
147.954
164.259
204.9
295.281
530.099
305.815
300.645
299.329
300.233
304.081
312.662
333.648
380.59
473.001
703.296
4885.63
4879.39
4876.4
4877.31
4881.86
4890.52
4902.71
4920.16
4949.8
4995.63
4165.21
4163.37
4162.35
4162.06
4162.32
4163.21
4165.4
4170.66
4182.92
4207.85
248.36
246.016
244.195
243.189
242.527
242.369
244.186
251.917
269.837
295.722
118.392
116.743
115.425
115.044
115.433
116.684
119.81
127.122
140.117
155.258
112.114
109.352
107.751
107.668
108.608
110.618
114.558
122.754
136.789
150.307
115.158
111.743
110.297
110.417
111.678
114.187
118.859
128.522
145.652
161.968
116.953
113.064
111.627
111.986
113.645
116.991
123.242
136.405
160.802
188.884
120.083
115.962
114.731
115.186
117.184
121.262
128.97
145.719
178.127
224.312
132.998
129.211
128.101
128.695
130.722
135.052
143.683
163.484
204.296
276.847
290.026
286.621
285.745
286.317
288.847
294.347
308.057
336.971
389.141
484.552
4732.34
4726.94
4724.28
4725.08
4729.12
4736.82
4747.51
4761.92
4784.01
4815.45
4031.76
4030.26
4029.42
4029.16
4029.32
4029.95
4031.64
4036.05
4046.8
4068.74
237.95
235.381
233.633
232.758
232.29
232.307
233.985
240.402
255.783
279.138
114.231
112.805
111.671
111.289
111.449
112.181
114.22
119.326
129.156
141.766
107.597
105.469
104.206
104.043
104.525
105.615
107.853
112.751
121.829
131.017
109.308
106.855
105.776
105.752
106.38
107.644
110.039
115.14
124.878
133.613
110.624
107.908
106.878
107.02
107.887
109.613
112.788
119.356
132.103
144.55
113.208
110.389
109.529
109.737
110.826
112.997
116.96
125.168
141.365
160.044
125.63
123.119
122.377
122.704
123.825
126.174
130.75
140.721
161.132
190.502
275.773
273.713
273.168
273.526
275.17
278.643
287.66
305.884
336.994
386.275
4571.25
4566.78
4564.54
4565.24
4568.71
4575.27
4584.19
4595.58
4611.58
4633.3
3891.87
3890.63
3889.92
3889.7
3889.81
3890.27
3891.59
3895.25
3904.64
3923.78
228.491
225.784
224.102
223.346
223.041
223.201
224.8
230.406
244.086
265.318
111.718
110.408
109.408
109.054
109.112
109.586
111.053
114.985
123.165
134.445
105.06
103.341
102.334
102.156
102.407
103.031
104.418
107.741
114.643
122.575
105.747
103.929
103.123
103.049
103.359
104.014
105.33
108.389
115.066
122.165
106.585
104.662
103.928
103.966
104.41
105.298
106.962
110.546
118.378
126.936
108.591
106.656
106.06
106.143
106.726
107.878
109.96
114.255
123.503
134.758
120.235
118.603
118.121
118.291
118.878
120.101
122.501
127.665
138.801
154.941
262.743
261.679
261.373
261.601
262.666
264.835
270.752
282.383
301.439
330.549
4402.44
4398.93
4397.12
4397.73
4400.6
4405.95
4413.06
4421.68
4432.93
4447.85
3745.76
3744.74
3744.14
3743.97
3744.05
3744.4
3745.43
3748.44
3756.51
3773.02
219.332
216.563
214.952
214.299
214.109
214.353
215.85
220.886
233.304
252.606
110.019
108.786
107.894
107.575
107.582
107.908
109.023
112.225
119.389
129.687
103.614
102.192
101.387
101.219
101.345
101.711
102.621
105.071
110.857
118.386
103.6
102.233
101.633
101.55
101.699
102.045
102.811
104.838
110.037
116.968
104.069
102.702
102.185
102.177
102.394
102.841
103.728
105.834
111.287
118.906
105.571
104.246
103.838
103.862
104.169
104.777
105.887
108.267
114.147
123.105
116.307
115.275
114.975
115.055
115.338
115.932
117.144
119.856
126.35
137.56
250.569
250.223
250.083
250.237
250.931
252.279
256.107
263.517
275.311
293.801
4226.08
4223.47
4222.1
4222.62
4224.89
4229.05
4234.48
4240.73
4248.38
4258.57
3593.67
3592.85
3592.35
3592.22
3592.29
3592.54
3593.33
3595.79
3602.66
3616.7
210.137
207.368
205.839
205.276
205.163
205.436
206.795
211.348
222.799
240.39
108.698
107.53
106.736
106.454
106.436
106.667
107.539
110.231
116.702
126.229
102.74
101.554
100.915
100.768
100.823
101.037
101.652
103.551
108.677
116.144
102.297
101.269
100.829
100.753
100.82
101.005
101.472
102.909
107.259
114.424
102.527
101.561
101.204
101.177
101.273
101.488
101.959
103.267
107.387
114.862
103.634
102.736
102.463
102.461
102.619
102.939
103.537
104.914
108.947
117.01
113.417
112.79
112.613
112.643
112.758
113.012
113.576
114.99
118.963
127.861
238.881
239.034
239.006
239.12
239.581
240.42
242.818
247.45
254.712
266.844
4042.46
4040.65
4039.68
4040.1
4041.81
4044.89
4048.87
4053.22
4058.23
4065.1
3435.88
3435.23
3434.83
3434.74
3434.79
3434.97
3435.57
3437.54
3443.35
3455.19
200.716
197.999
196.575
196.096
196.029
196.29
197.479
201.551
212.172
228.426
107.535
106.438
105.742
105.499
105.471
105.637
106.328
108.628
114.59
123.581
102.149
101.168
100.671
100.547
100.562
100.683
101.105
102.615
107.273
114.891
101.486
100.724
100.409
100.345
100.37
100.471
100.766
101.823
105.576
113.064
101.588
100.917
100.675
100.642
100.674
100.768
101.014
101.856
105.104
112.588
102.403
101.808
101.629
101.618
101.697
101.866
102.19
103.014
105.899
113.394
111.221
110.862
110.765
110.77
110.797
110.876
111.094
111.808
114.309
121.795
227.332
227.819
227.861
227.955
228.268
228.797
230.215
232.994
237.357
245.315
3851.98
3850.82
3850.17
3850.51
3851.75
3853.9
3856.69
3859.57
3862.71
3867.27
3272.68
3272.19
3271.9
3271.84
3271.88
3272
3272.43
3273.98
3278.85
3288.77
190.937
188.327
187.039
186.64
186.599
186.821
187.819
191.391
201.21
216.489
106.423
105.419
104.829
104.629
104.599
104.722
105.27
107.237
112.778
121.522
101.694
100.901
100.526
100.427
100.421
100.486
100.777
101.982
106.221
114.134
100.963
100.412
100.193
100.141
100.147
100.202
100.395
101.183
104.417
112.163
101.012
100.556
100.396
100.363
100.364
100.397
100.523
101.075
103.657
111.044
101.616
101.233
101.118
101.106
101.146
101.236
101.416
101.917
104.004
110.876
109.465
109.274
109.227
109.218
109.206
109.202
109.247
109.584
111.172
117.531
215.618
216.31
216.395
216.478
216.699
217.04
217.801
219.347
221.829
226.868
3655.12
3654.46
3654.08
3654.34
3655.18
3656.6
3658.46
3660.27
3662.11
3665.05
3104.45
3104.13
3103.93
3103.91
3103.94
3104.01
3104.29
3105.48
3109.49
3117.77
180.694
178.256
177.134
176.814
176.785
176.956
177.75
180.791
189.767
204.47
105.32
104.444
103.971
103.814
103.788
103.88
104.311
105.964
111.077
119.874
101.308
100.694
100.425
100.349
100.334
100.367
100.565
101.508
105.277
113.512
100.612
100.229
100.08
100.04
100.038
100.071
100.2
100.782
103.492
111.282
100.653
100.352
100.246
100.216
100.204
100.211
100.274
100.639
102.648
109.67
101.099
100.862
100.79
100.78
100.8
100.852
100.955
101.263
102.741
108.777
107.967
107.873
107.853
107.839
107.813
107.78
107.751
107.893
108.885
114.168
203.476
204.275
204.381
204.457
204.62
204.848
205.204
205.946
207.202
210.135
3452.5
3452.19
3452
3452.19
3452.73
3453.61
3454.76
3455.82
3456.81
3458.59
2931.68
2931.53
2931.42
2931.43
2931.46
2931.48
2931.65
2932.5
2935.69
2942.54
169.898
167.697
166.77
166.526
166.503
166.618
167.211
169.681
177.664
192.112
104.225
103.515
103.161
103.045
103.027
103.098
103.429
104.765
109.344
118.374
100.97
100.525
100.344
100.29
100.273
100.289
100.421
101.125
104.304
112.664
100.371
100.117
100.018
99.988
99.9837
100.006
100.096
100.511
102.659
110.102
100.425
100.23
100.16
100.134
100.12
100.118
100.152
100.39
101.874
108.153
100.742
100.602
100.558
100.55
100.562
100.594
100.658
100.845
101.839
106.783
106.605
106.559
106.551
106.537
106.511
106.475
106.427
106.477
107.073
111.262
190.667
191.497
191.608
191.68
191.803
191.963
192.129
192.372
192.834
194.265
3244.86
3244.77
3244.7
3244.85
3245.17
3245.66
3246.28
3246.85
3247.3
3248.25
2755.04
2755.05
2755.04
2755.07
2755.09
2755.08
2755.15
2755.7
2758.09
2763.59
158.44
156.57
155.848
155.678
155.659
155.728
156.133
158.001
164.72
178.895
103.173
102.648
102.403
102.323
102.311
102.369
102.615
103.627
107.477
116.617
100.681
100.387
100.276
100.24
100.226
100.234
100.32
100.805
103.254
111.204
100.207
100.047
99.9831
99.9601
99.9567
99.9738
100.037
100.318
101.875
108.408
100.277
100.154
100.106
100.084
100.072
100.07
100.092
100.243
101.251
106.362
100.479
100.4
100.373
100.366
100.374
100.396
100.437
100.548
101.162
104.809
105.302
105.272
105.267
105.255
105.235
105.208
105.168
105.184
105.52
108.615
176.945
177.744
177.849
177.915
178.011
178.125
178.228
178.279
178.23
178.67
3033.12
3033.14
3033.15
3033.25
3033.42
3033.67
3033.95
3034.16
3034.3
3034.68
2575.58
2575.66
2575.7
2575.74
2575.74
2575.72
2575.72
2576.02
2577.61
2581.74
146.103
144.722
144.265
144.164
144.154
144.194
144.441
145.676
150.726
163.844
102.213
101.861
101.7
101.645
101.64
101.689
101.865
102.562
105.46
114.052
100.452
100.279
100.217
100.193
100.184
100.192
100.248
100.546
102.18
108.84
100.103
100.006
99.9639
99.9469
99.9453
99.9601
100.006
100.182
101.172
106.169
100.18
100.103
100.069
100.053
100.045
100.046
100.063
100.156
100.761
104.366
100.267
100.224
100.207
100.203
100.208
100.223
100.249
100.311
100.644
102.946
104.014
103.985
103.978
103.968
103.955
103.938
103.914
103.925
104.103
106.175
161.996
162.709
162.798
162.857
162.93
163.011
163.073
163.072
162.92
162.689
2818.47
2818.53
2818.57
2818.63
2818.71
2818.81
2818.91
2818.93
2818.89
2818.94
2394.11
2394.42
2394.47
2394.5
2394.51
2394.49
2394.46
2394.58
2395.43
2398.05
132.739
131.86
131.651
131.623
131.624
131.634
131.736
132.368
135.413
145.727
101.39
101.167
101.061
101.021
101.02
101.06
101.182
101.602
103.416
110.207
100.282
100.192
100.158
100.142
100.138
100.149
100.188
100.348
101.221
105.661
100.047
99.99
99.9622
99.9503
99.9504
99.9635
99.9974
100.099
100.618
103.668
100.118
100.071
100.047
100.036
100.032
100.036
100.053
100.109
100.414
102.443
100.098
100.076
100.066
100.062
100.065
100.074
100.091
100.124
100.275
101.417
102.735
102.703
102.693
102.684
102.675
102.666
102.656
102.668
102.76
103.965
145.288
145.854
145.923
145.969
146.02
146.073
146.106
146.078
145.897
145.327
2602.29
2602.35
2602.38
2602.42
2602.45
2602.47
2602.48
2602.45
2602.36
2602.29
2211.58
2211.6
2211.62
2211.64
2211.64
2211.63
2211.63
2211.66
2211.96
2213.05
117.865
117.446
117.413
117.429
117.436
117.432
117.445
117.621
118.722
123.975
100.723
100.584
100.519
100.492
100.493
100.52
100.592
100.791
101.594
105.285
100.16
100.115
100.094
100.084
100.083
100.093
100.12
100.194
100.521
102.457
100.031
99.9986
99.9818
99.9746
99.9756
99.9853
100.008
100.059
100.259
101.524
100.082
100.054
100.04
100.033
100.032
100.037
100.05
100.083
100.202
100.996
100.009
99.9982
99.9918
99.9892
99.9907
99.9962
100.006
100.024
100.078
100.468
101.496
101.464
101.452
101.444
101.437
101.433
101.432
101.446
101.502
102.058
125.621
125.961
126.001
126.029
126.057
126.085
126.098
126.068
125.932
125.399
2385.41
2385.43
2385.45
2385.47
2385.47
2385.47
2385.46
2385.42
2385.36
2385.32
7783.3
7900.51
7841.63
7581.06
906664
932448
937201
945392
1.87628e+06
1.96487e+06
1.9698e+06
1.93338e+06
2.90783e+06
3.08127e+06
3.072e+06
2.94614e+06
4.03275e+06
4.30152e+06
4.26907e+06
4.07108e+06
5.35724e+06
5.73936e+06
5.68486e+06
5.44225e+06
6.60038e+06
7.09338e+06
7.02393e+06
6.78047e+06
7.34455e+06
7.92606e+06
7.85924e+06
7.65808e+06
5.16904e+06
5.61134e+06
5.55139e+06
5.45597e+06
7703.12
7922.54
7781.52
7441.91
6035.18
6104.52
6106.88
6045.94
374452
384375
404332
432687
788192
868380
909801
932039
1.27412e+06
1.4771e+06
1.53386e+06
1.52997e+06
1.81403e+06
2.17662e+06
2.2526e+06
2.24546e+06
2.42105e+06
2.97992e+06
3.09636e+06
3.11305e+06
2.97703e+06
3.74247e+06
3.92281e+06
4.00138e+06
3.3192e+06
4.2633e+06
4.52448e+06
4.69247e+06
2.57873e+06
3.41574e+06
3.646e+06
3.89075e+06
6969.83
7174.16
7118.67
6902.37
5068.52
5089.25
5088.1
5068.43
27368.4
31986.3
30309.6
24653.7
73187.7
85354.1
79637.7
64055.7
144337
168035
154079
122454
244196
284144
258775
205223
382025
445041
405902
323072
538937
628180
575185
461512
675722
789839
727303
588492
554849
644645
587882
479944
6232.22
6311.53
6289.72
6197.2
4804.33
4813.59
4814.48
4807.55
2253.57
2405.17
2348.48
2146.24
6044.82
6587.91
6334.16
5552.07
13240.7
14588.9
13774.3
11604.6
25097.2
27771.8
25788.6
21037.2
44386.3
49244.6
45206.3
36051
69927.2
77459
70466.7
55444.2
96589.9
107077
96850.7
75577.2
81822.5
89528
79767.7
62328.7
5808.89
5847.32
5843.72
5807.13
4636
4643.24
4643.79
4637.77
627.803
652.718
655.042
637.364
996.331
1063.51
1065.04
1012.78
1975.25
2149.7
2128.28
1959.05
3669.73
4031.97
3919.33
3480.21
6673.69
7367.37
7032.93
6040.43
10942
12049.8
11301.5
9437.5
15871.5
17473.5
16158.8
13174
13873.8
14993.1
13553.6
10945.1
5495.21
5515.77
5516.9
5502.31
4497.92
4504.27
4504.58
4498.92
400.511
410.287
411.534
404.594
338.53
350.771
353.109
346.36
502.438
530.089
534.593
518.593
796.218
852.499
854.347
812.275
1344.6
1456.55
1442.65
1336.86
2131.85
2314.65
2253.89
2033.63
3107.64
3382.97
3240.45
2846.12
2971.27
3143.06
2941.09
2582.31
5243
5253.24
5255.33
5250.52
4364.25
4369.94
4370.14
4364.87
340.934
348.454
349.291
343.504
207.72
212.511
213.074
209.547
230.682
237.273
238.578
234.661
289.841
300.584
302.718
296.783
411.499
431.857
434.305
421.702
581.272
613.242
611.683
586.006
814.967
864.372
852.838
802.875
1011.06
1032.99
1002.58
958.363
5027.55
5032.3
5034.25
5033.5
4227.49
4232.54
4232.63
4227.78
313.313
319.965
320.629
315.311
169.303
172.499
172.591
169.644
161.201
163.714
163.782
161.357
171.876
174.342
174.6
172.56
204.109
207.827
208.43
206.083
248.439
253.245
253.529
250.512
325.424
333.048
332.202
326.529
562.853
559.084
552.246
550.323
4831.58
4833.53
4834.89
4835.41
4085.32
4089.69
4089.67
4085.27
294.473
300.508
301.042
296.061
153.384
156.018
155.991
153.34
137.696
139.143
138.9
136.93
136.668
137.353
137.06
135.694
146.179
146.545
146.24
145.22
160.541
160.266
159.781
159.33
196.841
196.528
195.778
195.489
416.212
408.265
404.94
408.194
4641.96
4642.48
4643.25
4644.01
3937.29
3940.95
3940.82
3936.88
278.406
283.821
284.204
279.529
144.387
146.637
146.545
144.133
127.467
128.468
128.129
126.423
123.526
123.727
123.284
122.144
126.009
125.629
125.061
124.297
131.717
130.569
129.81
129.596
153.906
152.218
151.267
151.484
348.361
340.316
337.702
341.127
4452.57
4452.34
4452.69
4453.44
3783.44
3786.37
3786.14
3782.69
263.246
267.993
268.19
263.813
138.013
139.891
139.726
137.529
122.026
122.726
122.324
120.802
117.692
117.698
117.193
116.165
117.61
117.053
116.412
115.745
120.253
119.08
118.283
118.057
135.926
134.207
133.259
133.447
307.995
300.625
298.359
301.444
4260.96
4260.33
4260.43
4261.13
3624.06
3626.27
3625.94
3622.99
248.382
252.402
252.376
248.293
132.866
134.347
134.084
132.086
118.673
119.097
118.617
117.233
114.755
114.619
114.057
113.103
113.671
113.053
112.387
111.802
115.006
113.955
113.193
112.974
126.958
125.46
124.61
124.775
279.467
272.808
270.852
273.698
4066
4065.19
4065.14
4065.8
3459.55
3461.05
3460.63
3458.22
233.675
236.912
236.624
232.83
128.483
129.531
129.139
127.326
116.395
116.533
115.95
114.685
113.108
112.82
112.189
111.32
111.658
110.985
110.308
109.836
112.303
111.367
110.664
110.506
121.804
120.539
119.82
120.012
256.739
250.68
249.012
251.74
3867.14
3866.28
3866.17
3866.78
3290.41
3291.22
3290.73
3288.86
219.079
221.505
220.935
217.439
124.72
125.303
124.751
123.112
114.755
114.587
113.881
112.751
112.057
111.593
110.892
110.156
110.499
109.76
109.089
108.78
110.644
109.795
109.172
109.129
118.376
117.319
116.738
116.985
237.054
231.481
230.07
232.744
3664.18
3663.36
3663.23
3663.78
3117.12
3117.31
3116.77
3115.42
204.637
206.245
205.392
202.227
121.52
121.615
120.88
119.424
113.501
113.013
112.189
111.253
111.233
110.58
109.835
109.311
109.643
108.843
108.211
108.114
109.307
108.53
108.01
108.118
115.695
114.831
114.384
114.681
219
213.841
212.651
215.285
3457.18
3456.47
3456.34
3456.81
2940.21
2939.9
2939.34
2938.47
190.346
191.148
190.029
187.266
118.786
118.386
117.471
116.253
112.401
111.609
110.715
110.075
110.363
109.545
108.813
108.581
108.737
107.912
107.364
107.5
107.902
107.207
106.813
107.073
113.258
112.588
112.263
112.569
201.8
197.036
196.036
198.594
3246.47
3245.92
3245.8
3246.17
2760.38
2759.72
2759.18
2758.73
175.861
175.918
174.606
172.37
116.312
115.449
114.407
113.542
111.153
110.134
109.269
109.036
109.176
108.271
107.632
107.726
107.512
106.736
106.313
106.641
106.239
105.657
105.397
105.757
110.799
110.338
110.111
110.355
184.99
180.669
179.833
182.243
3032.68
3032.3
3032.2
3032.46
2578.51
2577.67
2577.19
2577.1
160.486
159.989
158.669
157.144
113.725
112.518
111.474
111.095
109.354
108.275
107.577
107.779
107.406
106.554
106.079
106.423
105.801
105.169
104.884
105.283
104.309
103.88
103.732
104.089
108.197
107.95
107.786
107.902
167.626
163.73
163.044
165.273
2816.95
2816.77
2816.7
2816.84
2395.55
2394.72
2394.35
2394.51
143.12
142.496
141.493
140.797
110.451
109.179
108.301
108.38
106.641
105.751
105.314
105.764
104.951
104.318
104.018
104.392
103.656
103.246
103.067
103.368
102.333
102.074
101.988
102.228
105.456
105.382
105.252
105.229
148.834
145.515
145.006
146.952
2600.6
2600.61
2600.58
2600.59
2211.73
2211.04
2210.83
2211.16
122.503
122.355
121.936
121.755
105.9
104.965
104.342
104.503
103.189
102.672
102.43
102.743
102.219
101.864
101.666
101.853
101.545
101.327
101.197
101.32
100.785
100.647
100.578
100.68
102.773
102.74
102.64
102.588
127.342
125.024
124.747
126.146
2384.26
2384.46
2384.44
2384.32
6527.42
5643.64
5252.82
5103.97
5017.52
4961.36
4926.58
4906.34
4893.61
4885.03
948673
209053
37069.3
12358.4
5268.57
2689.24
1603.45
1095.36
840.919
705.695
1.57845e+06
241853
46018.1
14935.7
6249.04
3152.31
1817.91
1168.97
825.764
633.411
2.02275e+06
228827
45392.6
13746.4
5572.31
2758.69
1572.69
1003.32
703.786
534.671
2.35675e+06
233686
44423.1
12464.9
4951.63
2420.13
1374.08
876.518
615.071
467.1
2.66571e+06
243215
44305
11503.6
4460.86
2135.11
1198.83
759.624
533.034
405.526
2.86393e+06
249071
43581
10607.6
4042.4
1909.74
1069.55
678.857
478.2
366.146
2.82879e+06
237135
39407
8853.99
3295.19
1540.29
876.955
573.094
420.38
333.911
1.91305e+06
150035
22843.1
4759.62
1928.68
1087.81
778.552
623.099
534.473
478.535
6018.79
5949.63
5805.54
5776.13
5732.89
5708.58
5689.11
5677.79
5669.64
5662.41
5632.86
5281.17
5099.71
4990.33
4920.05
4874.87
4846.8
4829.87
4819.02
4811.3
207941
52482.8
15993.7
6046.64
2839.63
1597.63
1042.34
769.925
628.214
553.334
404195
93377
25556.4
8748.48
3864.3
2038.5
1224.12
815.79
594.064
470.592
595291
126069
30657.2
9352.04
3864.29
1955.93
1144.72
749.601
538.444
420.514
798092
156644
34204.7
9440.22
3711.86
1832.22
1061.16
692.526
496.634
387.228
1.02685e+06
188646
37566.4
9462.35
3549.92
1702.06
969.061
625.37
447.2
348.851
1.23634e+06
214203
39466.6
9217.17
3349.4
1579.03
893.584
576.493
413.127
323.939
1.35779e+06
221434
37636.8
8062
2822.08
1314.14
754.023
499.892
372.548
302.735
1.01871e+06
152080
23023
4547.04
1735.37
990.232
717.244
581.123
502.888
456.518
6168.92
5885.81
5732.73
5675.09
5626.23
5596.8
5575.1
5561.34
5551.41
5542.72
5000.61
4929.67
4871.12
4822.92
4787.16
4763.16
4748.05
4738.18
4731.11
4725.48
11678.2
5274.9
2858.58
1707.97
1108.33
783.061
605.669
508.584
454.829
425.262
27947.9
11168.6
5361.88
2820.44
1611.42
994.454
667.952
487.5
382.623
321.403
48433.1
17007
7261.52
3420.78
1802.83
1049.97
677.786
480.731
368.982
303.619
73846.6
22828.2
8773.32
3781.25
1888.17
1063.52
674.169
473.853
361.54
295.881
107316
29488.3
10268.9
4076.8
1937.57
1052.06
650.34
449.253
340.297
277.799
143160
35445.5
11319.8
4199.47
1930.04
1024.11
625.535
430.261
325.654
266.539
170449
38031.9
11075.8
3817.96
1702.33
893.549
553.272
390.476
306.064
258.351
125012
24471.9
6511.78
2292.78
1199.44
788.981
610.759
514.725
456.907
422.585
5929.53
5758.74
5640.57
5571.4
5522.18
5491.33
5469.43
5454.16
5442.74
5432.69
4779.96
4742.92
4709.18
4681.69
4662.27
4649.94
4642.35
4637.03
4632.72
4628.87
1645.94
1207.13
916.605
699.345
551.137
458.644
404.301
373.324
355.966
346.299
3741.44
2362.6
1544.36
1005.89
674.229
477.432
362.454
294.16
251.753
225.471
6914.31
3853.09
2235.35
1304.85
804.368
535.084
387.865
303.917
253.043
221.251
11108
5501.64
2888.66
1551.5
905.636
580.874
411.267
317.591
261.541
226.374
17031.7
7518.24
3607.6
1796.51
994.795
611.331
418.947
316.011
257.041
221.073
23710.2
9408.2
4185.45
1962.91
1048.11
626.348
421.689
315.151
255.019
218.991
29264.9
10391.4
4274.94
1888.88
982.809
582.835
397.242
302.916
251.528
220.958
21378.7
6831.63
2757.31
1350.68
858.11
635.414
523.513
458.137
416.585
391.918
5703.31
5582.27
5489.01
5430.02
5389.62
5362.95
5343.47
5329.28
5318.51
5309.02
4616.72
4590
4568.2
4552.15
4541.64
4535.3
4531.42
4528.54
4526
4523.48
584.697
518.864
460.13
405.871
363.578
335.155
318.003
308.396
303.38
300.687
858.53
678.319
530.376
407.637
317.873
258.26
220.806
197.341
181.761
171.332
1520.99
1079.33
756.176
525.189
378.257
289.655
237.058
205.052
184.23
170.068
2460.75
1584.63
1012.49
650.354
443.615
327.147
260.824
221.668
196.434
179.062
3887.69
2278.42
1336.83
796.086
512.075
359.841
276.278
228.446
199.249
180.026
5553.07
2988.78
1634.6
917.131
565.684
384.72
288.739
235.448
203.421
182.776
7049.19
3466.79
1770.66
944.46
569.479
384.823
290.732
239.478
209.876
191.244
5390.9
2566.66
1388.6
873.031
645.342
524.529
455.002
411.131
381.746
364.566
5456.48
5383.77
5322.3
5279.83
5248.92
5226.62
5209.61
5196.73
5186.78
5177.94
4480.64
4458.15
4441.01
4429.25
4421.98
4417.76
4415.24
4413.41
4411.88
4410.26
385.829
361.586
338.334
315.771
297.823
285.924
279.173
275.89
274.604
273.928
321.56
287.103
252.542
218.774
191.271
171.996
159.7
151.961
146.503
142.42
463.253
386.987
315.655
254.938
211.244
182.828
165.123
153.904
146.078
140.123
689.129
537.556
407.286
308.948
245.027
205.758
181.856
166.974
156.596
148.528
1066.91
772.982
540.875
381.634
285.694
229.048
195.289
174.672
161.268
151.632
1527.7
1036.7
677.696
450.767
322.9
250.294
208.288
183.37
167.377
156.188
1996.37
1264.72
777.971
496.001
347.983
267.179
221.784
195.152
178.887
168.119
1803.81
1191.17
819.345
619.785
511.021
444.383
401.229
372.088
351.671
340.197
5230.22
5189.51
5152.02
5122.9
5099.75
5081.67
5067.25
5055.95
5047.05
5039.07
4348.44
4328.52
4313.86
4304.17
4298.32
4294.97
4293.01
4291.71
4290.79
4289.81
329.094
310.879
294.537
279.966
269.128
262.398
258.935
257.577
257.314
257.035
197.725
183.388
169.68
156.242
145.292
137.82
133.36
130.798
128.93
127.248
220.009
200.277
180.359
161.682
147.37
137.834
131.931
128.272
125.604
123.207
274.969
243.861
211.582
183.499
163.444
150.397
142.17
136.984
133.121
129.551
381.326
323.661
264.793
217.428
185.39
164.77
151.544
143.068
137.316
132.756
516.735
420.078
324.4
253.394
208.11
179.825
161.999
150.8
143.221
137.436
683.101
528.431
387.801
292.473
235.189
200.374
178.781
165.229
156.621
150.722
845.05
691.648
562.26
478.648
424.054
386.294
359.349
340.079
326.091
318.81
5024.47
5001.9
4979.29
4959.54
4942.52
4928.31
4916.52
4906.97
4899.28
4892.33
4213.01
4195.26
4182.45
4174.11
4169.1
4166.22
4164.55
4163.58
4163.04
4162.52
302.496
286.177
272.329
260.968
253.064
248.398
246.122
245.344
245.26
244.939
160.47
150.017
141.058
133.128
127.137
123.364
121.401
120.532
119.938
119.185
153.376
144.198
135.767
128.014
122.162
118.43
116.358
115.326
114.645
113.775
165.295
156.223
146.192
136.685
129.594
124.956
122.149
120.587
119.435
117.97
197.616
184.813
168.145
152.66
141.207
133.352
128.09
124.73
122.501
120.511
241.054
221.882
194.785
171.309
154.657
143.345
135.709
130.787
127.405
124.568
311.115
277.57
234.727
200.923
177.976
162.567
152.165
145.331
140.96
137.943
532.246
484.56
432.874
394.291
365.432
343.472
326.537
313.836
304.388
300.121
4830.62
4817.17
4803.21
4789.93
4777.71
4766.94
4757.64
4749.9
4743.51
4737.67
4072.13
4056.49
4045.33
4038.11
4033.76
4031.24
4029.81
4029.11
4028.85
4028.67
284.303
269.298
257.12
247.713
241.457
237.844
236.079
235.477
235.364
234.961
145.295
136.19
128.91
123.053
118.961
116.572
115.49
115.197
115.08
114.726
130.916
124.401
119.049
114.557
111.397
109.566
108.767
108.643
108.731
108.542
131.453
126.912
122.205
117.822
114.662
112.743
111.784
111.525
111.462
110.977
142.16
138.197
131.92
125.628
120.84
117.522
115.34
114.099
113.441
112.716
158.396
154.233
144.82
135.742
128.912
124.054
120.677
118.571
117.218
115.938
194.839