/*--------------------------------*- C++ -*----------------------------------*\
| =========                 |                                                 |
| \\      /  F ield         | foam-extend: Open Source CFD                    |
|  \\    /   O peration     | Version:     4.0                                |
|   \\  /    A nd           | Web:         http://www.foam-extend.org         |
|    \\/     M anipulation  |                                                 |
\*---------------------------------------------------------------------------*/
FoamFile
{
    version     2.0;
    format      ascii;
    class       volScalarField;
    location    "450";
    object      k;
}
// * * * * * * * * * * * * * * * * * * * * * * * * * * * * * * * * * * * * * //

dimensions      [0 2 -2 0 0 0 0];

internalField   nonuniform List<scalar> 
34480
(
8.70064
8.69421
8.69144
8.69198
8.69642
8.70823
8.74049
8.84197
9.16896
10.0093
8.65217
8.11815
8.03008
8.29178
8.85957
9.83768
12.001
17.612
35.0703
82.2139
13.1189
11.9425
11.6304
11.8502
12.4497
13.6557
16.6702
24.4329
48.9628
119.86
12.5484
11.3056
10.986
11.2457
11.9603
13.4468
17.0072
25.979
55.1361
144.226
11.6199
10.4433
10.1944
10.5037
11.3291
13.0316
16.9649
26.7298
59.4052
164.36
10.6329
9.54954
9.32192
9.62587
10.4721
12.3023
16.551
27.171
63.5812
184.966
9.90849
8.93466
8.74241
9.02354
9.8598
11.7297
16.1408
27.3001
66.4026
201.036
8.74494
8.00829
7.84914
8.0611
8.72106
10.2975
14.2656
24.9852
64.2565
204.143
6.51533
6.2653
6.22153
6.31612
6.60865
7.29171
9.24097
15.7791
42.988
146.931
9.18203
9.1798
9.18354
9.19381
9.2086
9.2263
9.24614
9.27618
9.34009
9.40314
8.61384
8.60662
8.60323
8.60351
8.60796
8.6191
8.64322
8.69418
8.81776
9.18871
7.57111
7.17174
7.06042
7.20657
7.64511
8.5438
10.2226
12.7096
18.1828
51.6142
10.9687
10.053
9.81001
10.0534
10.7635
12.1188
14.574
18.3096
26.9617
79.9813
10.7846
9.75379
9.47893
9.75232
10.5561
12.1104
14.9589
19.4479
30.6484
99.0017
10.2836
9.25641
9.01744
9.3045
10.1565
11.8252
14.9472
19.959
33.1636
115.436
9.61899
8.6453
8.41384
8.68063
9.50698
11.2002
14.5102
20.0537
35.4676
132.752
9.12316
8.22572
8.02321
8.256
9.0337
10.689
14.0799
19.9751
37.0921
147.013
8.1986
7.51203
7.34186
7.50864
8.09572
9.42562
12.3533
17.8649
35.2905
150.314
6.3433
6.09737
6.04243
6.10056
6.32202
6.83733
8.08426
10.9461
22.2325
103.351
9.04993
9.04356
9.04272
9.04794
9.05755
9.06991
9.08496
9.11104
9.17344
9.34988
8.51385
8.50702
8.50359
8.50337
8.50647
8.5142
8.53036
8.56235
8.6288
8.76292
6.61468
6.38564
6.3009
6.36777
6.60672
7.12033
8.14978
10.0062
12.827
20.2634
8.94687
8.36636
8.20435
8.38603
8.93639
9.99362
11.8871
14.9391
19.3549
34.1909
9.03124
8.31891
8.11863
8.33703
8.99544
10.2756
12.5891
16.3566
22.203
45.5955
8.87742
8.12768
7.94385
8.17346
8.87656
10.2749
12.8743
17.1469
24.2115
56.8055
8.5028
7.76727
7.58424
7.80271
8.49206
9.93133
12.7426
17.5142
26.0436
69.3516
8.22136
7.52476
7.36369
7.5576
8.21098
9.62864
12.5397
17.6369
27.4346
80.9196
7.55926
7.01991
6.88457
7.02595
7.51726
8.64867
11.16
15.9297
26.1994
86.0216
6.13185
5.9294
5.88498
5.93169
6.1072
6.5138
7.48282
9.83138
16.4606
59.0107
8.92874
8.91972
8.91618
8.91845
8.92525
8.93551
8.9484
8.97291
9.04177
9.23706
8.4005
8.39492
8.39207
8.39186
8.3942
8.39976
8.41072
8.43069
8.47101
8.54532
5.95652
5.83034
5.76755
5.79061
5.90575
6.16143
6.68899
7.73066
9.36415
12.3076
7.41637
7.08516
6.97447
7.0713
7.40543
8.07108
9.29238
11.3756
14.1652
19.956
7.62632
7.1707
7.0223
7.1544
7.58827
8.45385
10.0414
12.7787
16.5316
25.9867
7.69471
7.18182
7.04011
7.18764
7.66797
8.64399
10.4826
13.7132
18.2835
32.1603
7.53646
7.01006
6.86628
7.01574
7.50312
8.53871
10.5872
14.3262
19.8994
39.5943
7.42024
6.90477
6.77786
6.91623
7.39106
8.4334
10.5929
14.6697
21.1121
46.8855
6.98891
6.58089
6.47453
6.58033
6.94362
7.7813
9.64388
13.4793
20.2766
50.5934
5.93851
5.77523
5.73984
5.7753
5.90711
6.20576
6.88218
8.58083
12.7542
34.3615
8.79376
8.78486
8.78106
8.78281
8.78923
8.80023
8.81484
8.84083
8.90582
9.06082
8.27533
8.27095
8.26864
8.26835
8.2699
8.27359
8.2808
8.2932
8.31907
8.36742
5.55019
5.47428
5.42546
5.428
5.48043
5.60378
5.86419
6.39783
7.24514
8.36983
6.39058
6.20896
6.12989
6.16589
6.33382
6.68491
7.35705
8.57113
10.2049
12.4485
6.6135
6.32956
6.21743
6.28022
6.52277
7.01846
7.95055
9.65466
11.985
15.7047
6.78368
6.4415
6.33188
6.41091
6.69516
7.27864
8.39455
10.4934
13.4387
19.0647
6.75937
6.39087
6.27824
6.36699
6.67153
7.32042
8.61464
11.1587
14.8793
23.3716
6.75132
6.37829
6.27867
6.36581
6.67545
7.35189
8.75268
11.6087
15.9861
27.7385
6.50195
6.19902
6.11567
6.18716
6.43234
6.98951
8.20852
10.9092
15.5465
30.1209
5.76571
5.63566
5.60749
5.63235
5.72631
5.93358
6.37387
7.46106
9.95989
20.0781
8.64975
8.64114
8.63722
8.63858
8.64461
8.65565
8.67098
8.69594
8.75129
8.86492
8.13912
8.13572
8.13386
8.13351
8.13448
8.13691
8.14188
8.15073
8.17041
8.20881
5.31659
5.26297
5.2229
5.21771
5.24347
5.31039
5.45774
5.76935
6.28559
6.90011
5.75916
5.65577
5.59688
5.60306
5.68079
5.853
6.19652
6.84624
7.75856
8.75205
5.93474
5.75527
5.67026
5.69402
5.8195
6.07886
6.5708
7.50333
8.83319
10.4024
6.12085
5.89374
5.81056
5.84762
6.00352
6.32087
6.92356
8.1027
9.835
12.1822
6.16197
5.9075
5.82178
5.87042
6.0488
6.42261
7.15573
8.65743
10.9502
14.6379
6.21211
5.94778
5.8723
5.9236
6.11425
6.52141
7.3426
9.08931
11.8633
17.1575
6.09536
5.87598
5.81312
5.85933
6.01718
6.36626
7.09953
8.77261
11.7215
18.5329
5.61298
5.51179
5.49039
5.50733
5.5727
5.71298
5.99301
6.64573
8.02808
12.3671
8.496
8.48794
8.48412
8.48524
8.49089
8.50157
8.51675
8.53952
8.58323
8.65998
7.99237
7.98969
7.98818
7.98782
7.98839
7.99
7.99356
8.00062
8.01722
8.05043
5.18915
5.14488
5.11024
5.10243
5.1169
5.15954
5.25851
5.47544
5.85679
6.32935
5.39526
5.32842
5.28179
5.27589
5.31149
5.39853
5.58196
5.94428
6.48159
7.02219
5.50761
5.38734
5.3217
5.32662
5.38997
5.52307
5.77655
6.26473
6.99194
7.69177
5.66429
5.51041
5.44751
5.4619
5.54375
5.70843
6.01551
6.62159
7.55893
8.52864
5.72527
5.54921
5.48509
5.50962
5.60977
5.81498
6.20448
7.00321
8.2911
9.86407
5.79745
5.61217
5.55633
5.5845
5.697
5.93062
6.38206
7.34072
8.94531
11.2786
5.76994
5.6142
5.56817
5.59662
5.69398
5.9033
6.32189
7.26157
8.98139
12.0724
5.48294
5.40585
5.39021
5.40133
5.44566
5.53828
5.71441
6.09707
6.86071
8.67853
8.33205
8.32476
8.32121
8.32218
8.32737
8.33734
8.35149
8.37136
8.40507
8.45699
7.83534
7.83317
7.83193
7.83158
7.83192
7.83302
7.83568
7.84169
7.85629
7.88573
5.12123
5.08104
5.04986
5.04123
5.05045
5.08132
5.15641
5.32676
5.64387
6.06616
5.19466
5.14424
5.10532
5.09545
5.11247
5.16121
5.27191
5.50257
5.87035
6.26421
5.25122
5.16436
5.11267
5.10964
5.14209
5.21292
5.35096
5.62329
6.05125
6.43392
5.36317
5.25531
5.20764
5.21105
5.25315
5.33787
5.49524
5.80821
6.31937
6.7552
5.41956
5.29649
5.24909
5.26026
5.31498
5.42515
5.6288
6.03976
6.73715
7.4214
5.4918
5.36252
5.32198
5.3363
5.40061
5.5309
5.77282
6.27237
7.14931
8.175
5.51969
5.41106
5.37829
5.39497
5.45256
5.57354
5.80596
6.30735
7.25641
8.64789
5.37607
5.31855
5.30761
5.31471
5.34419
5.40412
5.51425
5.73745
6.17292
7.02546
8.15743
8.15109
8.14793
8.14879
8.15344
8.16238
8.17491
8.19148
8.21689
8.25291
7.66807
7.6663
7.66525
7.66494
7.66515
7.66593
7.66799
7.6732
7.68619
7.71228
5.08421
5.04603
5.01708
5.00813
5.01435
5.03824
5.09893
5.24156
5.52029
5.91203
5.08689
5.04423
5.01053
4.99987
5.00846
5.03906
5.11458
5.28159
5.5696
5.9111
5.10275
5.03585
4.99455
4.9887
5.00578
5.04579
5.12796
5.29898
5.59023
5.86802
5.17157
5.09332
5.05713
5.05581
5.07724
5.12145
5.20599
5.38139
5.69349
5.95387
5.21384
5.12678
5.0921
5.09635
5.12561
5.1842
5.29215
5.51095
5.91072
6.26751
5.27549
5.18541
5.15641
5.16299
5.19883
5.27026
5.39988
5.66186
6.15105
6.6581
5.33488
5.26039
5.2377
5.24694
5.27948
5.34678
5.47339
5.7377
6.26295
6.94546
5.2914
5.24939
5.24212
5.24659
5.26595
5.30415
5.37265
5.50301
5.75803
6.23281
7.97174
7.96646
7.96377
7.96453
7.96856
7.97626
7.98682
8.00007
8.0187
8.04387
7.49051
7.48905
7.48816
7.4879
7.48804
7.48861
7.49023
7.49473
7.50627
7.52925
5.06225
5.0251
4.99753
4.98838
4.99251
5.01146
5.062
5.18557
5.43741
5.80214
5.02882
4.99041
4.96057
4.9502
4.95458
4.97547
5.03146
5.16318
5.4077
5.72105
5.01859
4.96483
4.93161
4.92516
4.93426
4.95809
5.01106
5.13078
5.3567
5.59929
5.05295
4.99477
4.96737
4.96441
4.97519
4.99878
5.04704
5.15634
5.37651
5.59012
5.08025
5.01821
4.99316
4.99407
5.00931
5.04019
5.09861
5.22304
5.47898
5.73241
5.12819
5.06558
5.04514
5.04769
5.06721
5.10592
5.17598
5.31887
5.61353
5.93846
5.20379
5.15364
5.1384
5.14316
5.1605
5.19617
5.26334
5.40321
5.70619
6.11272
5.22672
5.19675
5.19224
5.19512
5.20781
5.23197
5.2743
5.35058
5.50239
5.80816
7.77462
7.77043
7.76824
7.76892
7.77229
7.77863
7.78714
7.7973
7.81057
7.82807
7.30255
7.30136
7.3006
7.30039
7.30049
7.30091
7.3022
7.30601
7.31622
7.33629
5.04718
5.01046
4.98377
4.9745
4.97704
4.99217
5.03484
5.14405
5.37537
5.71374
4.99587
4.96026
4.93352
4.92383
4.92586
4.9408
4.9843
5.09345
5.31043
5.60157
4.97067
4.92651
4.89981
4.89368
4.89839
4.913
4.94906
5.03941
5.23045
5.45987
4.98064
4.93694
4.91641
4.91318
4.91845
4.93132
4.96048
5.03509
5.20891
5.41607
4.99608
4.95192
4.93414
4.93356
4.94114
4.95711
4.9892
5.06484
5.24707
5.47322
5.03135
4.98815
4.974
4.97462
4.98502
5.00581
5.04402
5.1257
5.31918
5.5826
5.1143
5.08132
5.07144
5.07361
5.08205
5.09963
5.13361
5.20775
5.39159
5.68654
5.17905
5.15824
5.15577
5.15774
5.16615
5.18146
5.20745
5.25204
5.34338
5.5605
7.56581
7.56266
7.56098
7.56156
7.56427
7.56926
7.57583
7.58331
7.59246
7.60452
7.10405
7.1031
7.10247
7.1023
7.10238
7.10269
7.10369
7.10688
7.11582
7.13323
5.03498
4.99833
4.9724
4.96319
4.96454
4.97659
5.01283
5.11051
5.32561
5.63897
4.97482
4.94144
4.91748
4.90866
4.90931
4.92023
4.95486
5.04785
5.24555
5.51753
4.94208
4.90557
4.88429
4.87888
4.88105
4.89005
4.91538
4.98675
5.15657
5.3818
4.93653
4.90382
4.88871
4.8858
4.88821
4.89534
4.91379
4.96803
5.1148
5.32772
4.9442
4.91312
4.90077
4.89963
4.90307
4.91099
4.92869
4.97718
5.1171
5.33937
4.96953
4.94018
4.9306
4.9304
4.93582
4.9469
4.96789
5.0166
5.15259
5.39282
5.05524
5.03416
5.02805
5.02879
5.03224
5.03983
5.05554
5.09445
5.21116
5.45365
5.14506
5.13113
5.13012
5.13163
5.13736
5.14719
5.16305
5.18895
5.24414
5.40729
7.34514
7.34292
7.3417
7.34219
7.34426
7.348
7.35287
7.35815
7.36423
7.37243
6.89489
6.89414
6.89363
6.89351
6.89358
6.8938
6.89456
6.8972
6.90498
6.91996
5.02358
4.98705
4.96215
4.95331
4.95381
4.96333
4.9941
5.08192
5.28383
5.57569
4.95888
4.92772
4.90657
4.89878
4.89867
4.90673
4.93459
5.01492
5.19812
5.45531
4.92329
4.8933
4.87667
4.87211
4.87283
4.87829
4.89634
4.95404
5.10874
5.33569
4.90909
4.88502
4.87417
4.87176
4.87271
4.87672
4.88881
4.92965
5.05729
5.27918
4.91258
4.89114
4.88277
4.88151
4.88275
4.88637
4.89607
4.92832
5.04018
5.26374
4.93084
4.91138
4.90507
4.90461
4.90737
4.91326
4.9249
4.95489
5.05436
5.28064
5.01711
5.0041
5.00053
5.00053
5.00134
5.0037
5.00969
5.02957
5.1061
5.3166
5.12158
5.11272
5.11272
5.11403
5.11811
5.12459
5.13426
5.14907
5.18213
5.30744
7.11249
7.11105
7.11023
7.11062
7.11214
7.1148
7.11825
7.12181
7.12567
7.13115
6.67494
6.6744
6.67401
6.67394
6.67399
6.67413
6.6747
6.67684
6.68355
6.69643
5.01176
4.97595
4.95278
4.94469
4.94465
4.95207
4.97795
5.0566
5.24718
5.52358
4.94471
4.91626
4.8982
4.89163
4.89118
4.89718
4.91959
4.98902
5.16015
5.40917
4.9093
4.88522
4.87261
4.86896
4.8689
4.87211
4.885
4.93179
5.07314
5.30652
4.89145
4.87425
4.8667
4.86479
4.86504
4.86734
4.87548
4.90658
5.0176
5.24737
4.89328
4.8789
4.87335
4.87216
4.8723
4.87373
4.87899
4.90087
4.99104
5.21322
4.90675
4.89429
4.89026
4.88979
4.89117
4.89435
4.90091
4.91975
4.99319
5.2035
4.99242
4.98467
4.98273
4.98237
4.98195
4.98182
4.98298
4.99267
5.04355
5.22753
5.10581
5.10062
5.10129
5.10255
5.10562
5.11008
5.116
5.12424
5.14333
5.23875
6.86787
6.86703
6.86652
6.86683
6.86788
6.86967
6.87199
6.87426
6.87658
6.8801
6.44413
6.44381
6.44356
6.44352
6.44356
6.44364
6.44403
6.44572
6.4514
6.46247
4.99875
4.96493
4.94446
4.93756
4.93727
4.9429
4.96416
5.03343
5.21292
5.48178
4.93084
4.90605
4.89143
4.8862
4.88568
4.89018
4.90799
4.9671
5.12616
5.37488
4.89778
4.87923
4.87013
4.86736
4.86694
4.86877
4.87786
4.91506
5.0417
5.28356
4.87973
4.86794
4.86285
4.8614
4.86136
4.86274
4.86831
4.89171
4.98583
5.21818
4.88138
4.87203
4.8684
4.86734
4.86702
4.86743
4.87029
4.88517
4.95635
5.1696
4.89149
4.88386
4.88137
4.88097
4.88169
4.88349
4.88731
4.8992
4.95232
5.13968
4.9756
4.97103
4.97003
4.96955
4.9687
4.96764
4.96675
4.97118
5.0047
5.16164
5.09548
5.09287
5.09397
5.09524
5.09768
5.10093
5.10463
5.10896
5.11897
5.18882
6.61133
6.61092
6.61065
6.61089
6.61157
6.61269
6.61415
6.61551
6.61678
6.61889
6.20253
6.20244
6.20231
6.20232
6.20234
6.20237
6.20261
6.20386
6.2085
6.21794
4.98426
4.95432
4.93761
4.93228
4.93195
4.93602
4.95272
5.01153
5.1775
5.4467
4.91701
4.89695
4.88595
4.88206
4.88164
4.88504
4.89884
4.94738
5.09152
5.34593
4.88788
4.87452
4.8684
4.86642
4.86592
4.86692
4.87315
4.90139
5.00953
5.25587
4.87181
4.86414
4.86082
4.85974
4.85961
4.86051
4.86435
4.88132
4.95699
5.18121
4.87391
4.868
4.86562
4.86473
4.86429
4.86432
4.86593
4.87586
4.92931
5.12227
4.88139
4.87695
4.87544
4.87513
4.87555
4.87665
4.87899
4.88638
4.92287
5.07858
4.96254
4.95969
4.95917
4.95869
4.95785
4.95669
4.95527
4.95718
4.97853
5.1061
5.08869
5.08787
5.0892
5.09048
5.09252
5.09502
5.09743
5.09943
5.10339
5.15075
6.34308
6.34294
6.34284
6.34301
6.34343
6.34407
6.34489
6.34562
6.34621
6.34732
5.95039
5.95055
5.95055
5.95058
5.9506
5.95059
5.9507
5.95154
5.95507
5.96288
4.96871
4.94479
4.93273
4.92918
4.92896
4.93165
4.94376
4.99037
5.13671
5.40933
4.90387
4.88917
4.88154
4.87882
4.87857
4.88116
4.89142
4.92887
5.05221
5.31094
4.87957
4.87083
4.86708
4.86576
4.86532
4.86589
4.86996
4.88976
4.97453
5.21126
4.86651
4.86179
4.85966
4.85887
4.85875
4.85941
4.86206
4.87361
4.92942
5.12893
4.86911
4.86545
4.86385
4.86314
4.86276
4.86273
4.86373
4.87008
4.90698
5.0663
4.87406
4.87162
4.87071
4.87049
4.87076
4.87149
4.87296
4.87735
4.90033
5.01698
4.95021
4.94814
4.94779
4.94738
4.94673
4.94585
4.94464
4.9455
4.95831
5.05487
5.08363
5.084
5.08541
5.08669
5.08843
5.09041
5.09204
5.09265
5.09258
5.12054
6.0635
6.06351
6.06351
6.06363
6.06386
6.06418
6.06457
6.06486
6.06506
6.06547
5.68856
5.68881
5.68887
5.68892
5.68893
5.68889
5.6889
5.68937
5.69176
5.69778
4.95327
4.93716
4.93012
4.92835
4.92831
4.92981
4.93739
4.97002
5.08664
5.35222
4.89241
4.88271
4.87771
4.87583
4.87574
4.87773
4.88495
4.9112
5.00626
5.25307
4.87307
4.86801
4.86594
4.8651
4.86482
4.86522
4.86777
4.8801
4.93789
5.13948
4.86316
4.86038
4.85901
4.85844
4.85838
4.85891
4.86073
4.86793
4.90402
5.05919
4.86595
4.86371
4.86262
4.86207
4.86181
4.86186
4.86258
4.8664
4.88886
5.00299
4.86805
4.86679
4.86624
4.86608
4.86625
4.86674
4.86766
4.87008
4.88275
4.9575
4.93626
4.93451
4.93418
4.93384
4.9334
4.93285
4.9321
4.93263
4.9397
5.00587
5.0776
5.07868
5.08005
5.08127
5.08273
5.08428
5.08536
5.08509
5.08255
5.09481
5.77331
5.77338
5.77343
5.77351
5.77362
5.77375
5.77388
5.77392
5.77386
5.77387
5.41764
5.41805
5.41813
5.41818
5.41819
5.41815
5.41811
5.41831
5.4196
5.42349
4.939
4.93123
4.9288
4.92855
4.92868
4.92921
4.9327
4.95066
5.02605
5.24932
4.88315
4.87702
4.87373
4.87241
4.87241
4.87391
4.87862
4.89453
4.95567
5.15539
4.86838
4.86576
4.86463
4.86411
4.864
4.86439
4.866
4.87257
4.90419
5.04129
4.86144
4.8598
4.8589
4.85851
4.85852
4.85897
4.86021
4.86422
4.8834
4.97978
4.86393
4.86255
4.8618
4.86141
4.86129
4.86143
4.86203
4.86422
4.87561
4.94081
4.86305
4.86244
4.8621
4.86198
4.86208
4.86239
4.86296
4.86419
4.86996
4.9075
4.91909
4.91755
4.91717
4.91687
4.91658
4.91627
4.91593
4.91639
4.92007
4.95927
5.06397
5.06534
5.06655
5.06759
5.06871
5.06982
5.07043
5.06962
5.0659
5.06711
5.47349
5.47356
5.47361
5.47365
5.47369
5.47373
5.47374
5.47368
5.47356
5.47343
5.13781
5.13792
5.13795
5.13797
5.13798
5.13797
5.13795
5.13801
5.13847
5.14009
4.92111
4.92014
4.9208
4.92144
4.92167
4.92165
4.92226
4.92771
4.95703
5.07903
4.87533
4.87131
4.86922
4.86834
4.86837
4.86934
4.87193
4.87933
4.90705
5.01891
4.86504
4.86368
4.863
4.86266
4.86264
4.863
4.86399
4.86685
4.8788
4.93979
4.86104
4.86006
4.85951
4.85928
4.85931
4.85964
4.86042
4.86232
4.86967
4.91023
4.86276
4.86194
4.86147
4.86123
4.8612
4.86137
4.86183
4.863
4.86737
4.89313
4.86037
4.86008
4.85988
4.85979
4.85984
4.86002
4.86035
4.86097
4.86299
4.87584
4.89781
4.89656
4.89616
4.89589
4.89568
4.89552
4.89548
4.89596
4.898
4.91631
5.02076
5.02187
5.02269
5.02338
5.02406
5.02469
5.02494
5.0241
5.02085
5.01691
5.16419
5.16422
5.16425
5.16427
5.16428
5.16427
5.16425
5.1642
5.1641
5.16403
11.8822
12.0016
11.9419
11.6773
102.019
103.956
104.318
105.001
166.115
171.339
171.617
169.54
222.712
231.514
231.004
224.618
277.213
289.425
287.905
278.783
335.201
350.98
348.704
338.509
385.289
404.255
401.586
392.004
413.511
435.044
432.585
424.883
326.903
345.258
342.838
338.697
11.2792
11.4925
11.3553
11.0213
10.0231
10.1
10.1032
10.0369
95.1782
98.0331
98.9567
98.623
159.027
169.546
170.601
166.681
217.037
237.86
237.861
228.703
275.149
307.424
306.327
293.221
339.641
385.189
384.139
367.983
397.332
456.069
456.151
438.929
432.231
502.543
505.084
488.78
335.274
396.81
398.167
389.055
10.5582
10.7644
10.7096
10.49
8.92183
8.94612
8.94478
8.92168
32.9816
35.807
34.8835
31.6369
58.4778
63.3943
61.2557
55.2584
84.0826
91.2202
87.2664
77.8487
112.216
121.763
115.682
102.144
146.408
159.023
150.578
131.903
180.544
195.998
185.129
161.386
206.113
224.158
211.526
183.64
161.598
175.162
164.038
142.016
9.79883
9.88183
9.85874
9.76118
8.61004
8.62117
8.6222
8.61377
14.7584
15.1362
15.0669
14.701
25.5987
26.5401
26.3719
25.4867
36.3243
38.0634
37.594
35.6838
48.4296
51.0221
49.9558
46.5601
64.0047
67.6732
65.7345
60.3063
80.2548
84.813
81.733
74.0717
93.2069
98.6742
94.4893
84.661
71.8102
75.6046
71.5194
63.4454
9.35
9.39107
9.38708
9.3479
8.40854
8.41734
8.41798
8.41057
9.33739
9.54211
9.57661
9.45817
14.5767
15.0406
15.1278
14.8992
19.5384
20.3686
20.4506
19.9516
25.0778
26.3009
26.2492
25.2966
32.5505
34.2804
33.9702
32.3225
40.4407
42.5624
41.8147
39.3182
46.7824
49.3209
48.0678
44.5954
34.6304
36.2371
34.7133
31.6738
9.01081
9.03312
9.03435
9.01867
8.24158
8.24929
8.24963
8.24266
7.39268
7.49813
7.51349
7.44288
9.58554
9.76945
9.81242
9.72547
11.7852
12.1052
12.1814
12.0372
14.2912
14.7686
14.8442
14.5879
17.9258
18.6283
18.6646
18.2083
21.7668
22.6388
22.5406
21.8153
24.8224
25.8947
25.6021
24.5
17.6985
18.2918
17.7688
16.7545
8.73356
8.74476
8.7471
8.74206
8.07833
8.08521
8.0854
8.07892
6.7154
6.79988
6.80969
6.74599
7.4866
7.58827
7.60294
7.53391
8.26955
8.4058
8.43482
8.35753
9.27401
9.45533
9.49691
9.40501
10.9894
11.254
11.3047
11.1725
12.8278
13.1481
13.1695
12.9794
14.295
14.7003
14.6628
14.3565
10.4022
10.5774
10.4207
10.1523
8.49322
8.49837
8.50061
8.50005
7.90956
7.9156
7.91564
7.9097
6.41538
6.49203
6.49962
6.43856
6.6126
6.68738
6.6917
6.62745
6.73762
6.80611
6.81017
6.74891
7.02065
7.08536
7.09271
7.04047
7.74803
7.82882
7.84315
7.79326
8.56874
8.65122
8.66033
8.61561
9.27942
9.3892
9.38541
9.31886
7.50644
7.52475
7.47625
7.43036
8.27159
8.2736
8.27518
8.27604
7.7321
7.73725
7.73715
7.73177
6.23779
6.30927
6.3153
6.25589
6.21448
6.27916
6.28045
6.21958
6.07683
6.1214
6.11699
6.06292
6.06659
6.09138
6.08457
6.04396
6.33291
6.34747
6.34021
6.30976
6.67072
6.66619
6.65479
6.64159
7.02607
7.02306
7.00909
7.00113
6.35735
6.33087
6.30657
6.30834
8.05417
8.05456
8.05545
8.05658
7.54503
7.54925
7.549
7.54421
6.10294
6.1688
6.1729
6.11501
5.99265
6.0504
6.05013
5.99265
5.76333
5.797
5.7897
5.74087
5.65404
5.66536
5.65399
5.61855
5.72641
5.72054
5.70524
5.68004
5.86116
5.83309
5.81274
5.80354
6.04927
6.01409
5.99241
5.99353
5.84537
5.81202
5.79329
5.80069
7.8339
7.83342
7.83384
7.83493
7.34799
7.35126
7.35086
7.3467
5.98438
6.04341
6.04496
5.9887
5.84038
5.89095
5.88892
5.8348
5.59101
5.61699
5.60785
5.56311
5.45958
5.46512
5.4519
5.41936
5.45237
5.44079
5.423
5.4001
5.50509
5.4748
5.4525
5.44275
5.61031
5.57162
5.54856
5.54941
5.58512
5.55588
5.54018
5.5459
7.60769
7.60676
7.60688
7.60791
7.14093
7.14324
7.1427
7.13919
5.8733
5.92392
5.92217
5.86777
5.71929
5.76147
5.75697
5.70616
5.48205
5.5006
5.48919
5.44766
5.35789
5.35918
5.34428
5.31371
5.31855
5.30487
5.28621
5.26541
5.33685
5.3095
5.28788
5.27812
5.39899
5.36459
5.3434
5.344
5.43706
5.4141
5.4014
5.40529
7.37388
7.37275
7.37271
7.37365
6.92386
6.92524
6.92457
6.92174
5.76802
5.80843
5.8025
5.75025
5.61596
5.64825
5.64033
5.59272
5.40567
5.4161
5.40163
5.36293
5.29857
5.29528
5.27832
5.24989
5.24753
5.23208
5.21301
5.19524
5.24959
5.2255
5.2055
5.19729
5.28972
5.26083
5.24276
5.24434
5.3434
5.32614
5.31632
5.31925
7.13138
7.13022
7.13009
7.13094
6.69691
6.6974
6.69663
6.69447
5.66965
5.69801
5.68702
5.63728
5.52633
5.54718
5.53484
5.49039
5.34846
5.34989
5.33169
5.29627
5.25906
5.25043
5.23132
5.20636
5.20487
5.18733
5.16834
5.15515
5.19645
5.17494
5.15717
5.15215
5.22722
5.2035
5.18894
5.19229
5.27707
5.26416
5.25689
5.25957
6.87944
6.87836
6.8782
6.87895
6.46016
6.45987
6.45902
6.4575
5.58004
5.59473
5.57788
5.53127
5.44918
5.45724
5.43965
5.3988
5.30291
5.29473
5.27282
5.24236
5.22733
5.21296
5.19236
5.17313
5.17283
5.15327
5.13532
5.1283
5.15427
5.13488
5.12004
5.11942
5.18436
5.16546
5.15442
5.15946
5.22447
5.21454
5.20929
5.21223
6.61757
6.61664
6.61648
6.61711
6.21371
6.21282
6.21194
6.21101
5.49991
5.49978
5.47672
5.4345
5.38249
5.37691
5.3539
5.31831
5.26216
5.24468
5.22031
5.19779
5.19478
5.17528
5.1548
5.14384
5.14032
5.11974
5.10413
5.10412
5.11047
5.09337
5.08213
5.08612
5.14663
5.13258
5.12475
5.13042
5.17888
5.1707
5.16695
5.17042
6.34552
6.34479
6.34465
6.34514
5.95788
5.95659
5.95575
5.95534
5.42639
5.41133
5.38277
5.34766
5.32097
5.302
5.27482
5.24791
5.21727
5.19254
5.16856
5.15745
5.15325
5.13076
5.11275
5.11139
5.09919
5.07959
5.06756
5.07361
5.05867
5.04454
5.03715
5.0445
5.10586
5.09698
5.09167
5.09608
5.13739
5.13004
5.12731
5.1314
6.06335
6.06285
6.06274
6.06308
5.69319
5.69176
5.69102
5.69103
5.34957
5.32181
5.29077
5.2674
5.25399
5.22437
5.19636
5.18239
5.15646
5.1291
5.10949
5.11117
5.09496
5.07331
5.05986
5.06632
5.04415
5.02814
5.02006
5.02892
4.99814
4.98781
4.98363
4.99162
5.05755
5.05389
5.05008
5.05128
5.09865
5.09174
5.08972
5.09423
5.77176
5.77154
5.77146
5.77163
5.42032
5.419
5.41843
5.41875
5.24827
5.21488
5.18788
5.1809
5.16476
5.13178
5.10764
5.10682
5.06906
5.04593
5.0335
5.04335
5.01671
5.00037
4.99178
5.00015
4.97626
4.96579
4.96068
4.96761
4.93529
4.92899
4.92652
4.93206
4.99991
5.00015
4.99694
4.99464
5.05953
5.05366
5.0523
5.0564
5.47169
5.47174
5.4717
5.4717
5.13884
5.13781
5.1375
5.138
5.08727
5.06212
5.04691
5.05248
5.03531
5.00985
4.99206
4.99474
4.96006
4.94605
4.93895
4.94648
4.93015
4.92051
4.91465
4.91892
4.90912
4.90315
4.89927
4.90211
4.88521
4.88142
4.87935
4.88183
4.93639
4.93654
4.93377
4.93141
5.00373
5.00003
4.99937
5.00194
5.16313
5.16344
5.16342
5.16322
10.5681
9.58759
9.13922
8.96667
8.86585
8.79975
8.7583
8.73409
8.71893
8.70869
124.856
59.8161
40.7386
31.8578
24.8372
19.4825
15.5713
12.7936
10.898
9.63148
184.119
82.9182
55.8107
44.2761
35.5507
28.8865
23.7953
19.9513
17.0805
14.9742
220.794
89.3785
57.7208
44.8261
35.946
29.036
23.7316
19.7207
16.7188
14.4962
246.616
89.6434
57.0563
43.8595
35.3892
28.3714
22.9442
18.8401
15.7819
13.5401
271.359
90.9584
56.9214
43.0874
34.7518
27.4262
21.8167
17.6318
14.6087
12.4422
287.871
90.9654
56.2533
42.1093
33.9682
26.4069
20.7137
16.5434
13.603
11.5607
286.742
84.9647
51.0888
37.1427
29.6072
22.453
17.3829
13.8584
11.5414
9.98246
200.47
50.7608
27.8101
18.8738
14.5112
11.0396
9.14538
8.02748
7.35374
6.89519
9.57731
9.5024
9.34858
9.31625
9.26939
9.24279
9.2214
9.20874
9.19942
9.19086
9.57465
9.17054
8.95998
8.83267
8.75041
8.69717
8.66388
8.64368
8.63075
8.62158
65.4736
35.1862
26.6428
21.6327
17.6424
14.4496
12.023
10.2631
9.04278
8.2499
104.399
53.7488
40.2293
32.7251
27.1535
22.5466
18.9051
16.0915
13.9531
12.4178
132.452
63.6955
45.1074
35.4265
28.9546
23.6872
19.5999
16.4745
14.1128
12.4042
157.152
70.5561
47.5672
36.4806
29.611
23.9328
19.5512
16.2276
13.7366
11.9547
184.161
77.6773
50.0822
37.415
30.0206
23.7958
19.0677
15.5491
13.011
11.2443
206.479
82.4874
51.4278
37.6772
30.0036
23.3856
18.4525
14.8663
12.3435
10.6445
215.654
81.008
48.2669
34.1188
26.6411
20.2404
15.7488
12.6655
10.6566
9.35301
153.298
50.8571
27.0962
17.8118
13.4501
10.3663
8.67102
7.68096
7.08641
6.70529
9.73461
9.43478
9.27073
9.20799
9.15474
9.12246
9.09854
9.08319
9.07197
9.06187
8.84273
8.75906
8.69069
8.63443
8.59244
8.56407
8.54615
8.53459
8.52617
8.51951
24.2946
19.7698
16.9041
14.2954
12.0429
10.2454
8.92325
7.99932
7.37179
6.96649
41.3219
32.5879
27.6152
23.1783
19.4241
16.3631
13.9966
12.1977
10.8357
9.86146
55.2252
40.5689
32.8427
26.4685
21.6064
17.8372
15.0074
12.8846
11.2882
10.1336
68.1986
46.6138
36.3625
28.4428
22.8433
18.5735
15.4087
13.0656
11.3217
10.0719
82.9544
52.8269
39.805
30.2335
23.8264
18.9455
15.3874
12.8114
10.9768
9.70248
95.9747
57.3652
42.0721
31.2363
24.2915
18.9673
15.1635
12.4829
10.6235
9.37383
102.696
57.1012
40.2919
28.8419
21.9048
16.6997
13.2074
10.8917
9.40678
8.44285
71.6976
34.9668
22.5598
15.2067
11.4294
9.12143
7.87742
7.149
6.70468
6.41723
9.48093
9.29897
9.17137
9.09587
9.04202
9.00811
8.98391
8.9669
8.95408
8.94249
8.58152
8.53759
8.49807
8.46585
8.44298
8.42839
8.41945
8.41343
8.40837
8.40388
13.6762
12.3889
11.0877
9.71897
8.52793
7.62665
7.00227
6.58418
6.30348
6.11951
23.2033
20.7466
18.2951
15.7021
13.4244
11.6106
10.2441
9.22837
8.4666
7.92181
31.0529
26.5118
22.3663
18.4427
15.3247
12.9647
11.2275
9.94762
8.99205
8.29609
38.5923
31.4685
25.5807
20.4516
16.6587
13.8566
11.8231
10.35
9.26169
8.47021
47.5749
36.9502
29.0109
22.4745
17.866
14.4915
12.0848
10.3853
9.19001
8.35077
55.755
41.3556
31.5814
23.8511
18.6129
14.8021
12.1472
10.3291
9.08286
8.23343
60.2961
42.1277
30.9368
22.5119
17.1297
13.3555
10.8931
9.30531
8.29528
7.62761
41.1349
25.4928
17.2479
12.1691
9.54728
8.03343
7.19085
6.68459
6.36688
6.15737
9.23879
9.10843
9.0066
8.94171
8.89718
8.86768
8.84601
8.83014
8.81801
8.80702
8.38595
8.35428
8.32875
8.30995
8.29758
8.29011
8.28564
8.28255
8.27964
8.27678
9.02934
8.43654
7.83463
7.21479
6.67879
6.27934
6.00853
5.83002
5.7089
5.62611
14.0985
13.0076
11.8305
10.5581
9.40082
8.4739
7.78682
7.28807
6.915
6.6434
18.4414
16.4803
14.4387
12.4263
10.75
9.47001
8.53768
7.86338
7.36111
6.98658
22.782
19.7769
16.7728
14.0157
11.8646
10.2685
9.12296
8.30923
7.70707
7.25322
28.3057
23.8205
19.5338
15.7867
12.9859
10.9378
9.49165
8.48925
7.78702
7.28038
33.5023
27.3874
21.8173
17.1423
13.786
11.3748
9.715
8.59981
7.83519
7.29769
36.5599
28.5804
21.8705
16.5774
13.0224
10.5933
9.02432
8.02312
7.38242
6.94591
24.1117
17.1595
12.4907
9.63695
8.09314
7.17965
6.63654
6.29726
6.07728
5.92988
8.97079
8.89144
8.82356
8.77644
8.7421
8.71726
8.69822
8.68372
8.67246
8.66218
8.22137
8.19474
8.17461
8.16079
8.15221
8.14726
8.14442
8.14256
8.14085
8.13909
7.18961
6.8507
6.51217
6.17269
5.88562
5.67776
5.54214
5.45653
5.39919
5.35746
9.37762
8.87909
8.32355
7.7086
7.14425
6.70229
6.38922
6.17178
6.00785
5.88151
11.4766
10.6374
9.69787
8.73212
7.90954
7.28988
6.85255
6.54546
6.31477
6.13234
13.7372
12.504
11.1091
9.75757
8.67076
7.87239
7.31222
6.92313
6.63019
6.39276
16.9102
15.0786
12.9847
11.0378
9.52655
8.42709
7.65904
7.13315
6.76211
6.48101
20.018
17.525
14.662
12.1128
10.2113
8.85637
7.92941
7.31148
6.88198
6.5649
21.968
18.5973
14.9815
12.0029
9.93424
8.53488
7.62524
7.04046
6.66066
6.39246
14.402
11.5854
9.32762
7.90449
7.06657
6.53799
6.19917
5.97899
5.83216
5.73303
8.72151
8.67651
8.63467
8.60209
8.57615
8.55582
8.53956
8.52675
8.51661
8.50727
8.05993
8.0363
8.01901
8.00755
8.00062
7.9967
7.99452
7.99323
7.99222
7.99123
6.52778
6.24477
5.97982
5.73487
5.54011
5.40591
5.32278
5.2736
5.24188
5.21672
7.28847
6.9739
6.6562
6.32427
6.03306
5.81779
5.67695
5.58691
5.51833
5.45891
8.06079
7.64872
7.20615
6.75281
6.37187
6.09559
5.91117
5.78867
5.69552
5.61276
9.05146
8.53116
7.91974
7.3088
6.81573
6.46187
6.22164
6.06062
5.93582
5.82046
10.7112
9.97463
9.02999
8.10868
7.38071
6.8539
6.48746
6.23848
6.06113
5.9165
12.4319
11.4512
10.1042
8.84589
7.88659
7.20339
6.73284
6.41844
6.19565
6.01978
13.6084
12.2354
10.4684
8.95791
7.88028
7.14328
6.65144
6.32912
6.1174
5.96256
9.55901
8.49921
7.49645
6.81709
6.37418
6.07312
5.86608
5.72694
5.63235
5.56878
8.4917
8.46648
8.44097
8.41866
8.3994
8.38327
8.36984
8.35894
8.35011
8.34189
7.89277
7.87169
7.8565
7.84657
7.8406
7.83722
7.83536
7.83437
7.8338
7.83336
6.2333
5.96765
5.73104
5.52774
5.37523
5.27454
5.21465
5.18128
5.16084
5.14321
6.41591
6.15783
5.92316
5.70293
5.52482
5.40315
5.3317
5.29248
5.26347
5.23324
6.54221
6.28821
6.04524
5.8111
5.62358
5.49608
5.4195
5.37612
5.3448
5.30987
6.8545
6.61554
6.34355
6.06993
5.85233
5.70223
5.60719
5.5505
5.50666
5.45466
7.61108
7.32955
6.92788
6.517
6.18828
5.95055
5.78605
5.67755
5.60207
5.53365
8.471
8.13029
7.54698
6.97277
6.52605
6.20385
5.97833
5.82837
5.72181
5.63014
9.15269
8.65354
7.86236
7.15295
6.62945
6.26017
6.0045
5.83445
5.72396
5.64098
7.33851
6.93188
6.47925
6.14867
5.914
5.74348
5.61904
5.5333
5.47464
5.43608
8.27229
8.2571
8.24117
8.22601
8.21203
8.19967
8.18897
8.18003
8.17263
8.16566
7.71691
7.6983
7.68498
7.67631
7.67109
7.66811
7.6665
7.66572
7.66551
7.66549
6.0584
5.80419
5.58694
5.41029
5.28341
5.20208
5.15496
5.13005
5.11584
5.10277
6.02463
5.78844
5.58788
5.41663
5.28838
5.20652
5.16292
5.14344
5.13087
5.11401
5.89371
5.69711
5.52849
5.38067
5.27054
5.2018
5.16704
5.15472
5.14972
5.13749
5.9171
5.77441
5.62624
5.48351
5.37537
5.30646
5.26952
5.25541
5.24739
5.22698
6.21799
6.09866
5.91264
5.71748
5.56248
5.45248
5.37929
5.33609
5.31035
5.28222
6.61405
6.50661
6.2494
5.98438
5.77599
5.62452
5.51829
5.45068
5.40521
5.36111
7.00227
6.83771
6.48514
6.15328
5.90123
5.71801
5.58759
5.50157
5.4489
5.40902
6.31828
6.12786
5.90365
5.7356
5.61011
5.51395
5.44034
5.38889
5.35404
5.33233
8.05449
8.04452
8.03437
8.02422
8.01435
8.00519