/*--------------------------------*- C++ -*----------------------------------*\
| =========                 |                                                 |
| \\      /  F ield         | foam-extend: Open Source CFD                    |
|  \\    /   O peration     | Version:     4.0                                |
|   \\  /    A nd           | Web:         http://www.foam-extend.org         |
|    \\/     M anipulation  |                                                 |
\*---------------------------------------------------------------------------*/
FoamFile
{
    version     2.0;
    format      ascii;
    class       volScalarField;
    location    "450";
    object      MaU;
}
// * * * * * * * * * * * * * * * * * * * * * * * * * * * * * * * * * * * * * //

dimensions      [0 0 0 0 0 0 0];

internalField   nonuniform List<scalar> 
34480
(
0.59038
0.59169
0.592532
0.593021
0.59318
0.592983
0.59234
0.590604
0.585629
0.580691
0.591459
0.592626
0.593506
0.594072
0.594208
0.593834
0.592951
0.591196
0.585413
0.581996
0.591439
0.592662
0.593673
0.594387
0.594672
0.594607
0.594261
0.593456
0.58802
0.586229
0.590541
0.591902
0.5931
0.594053
0.594674
0.595108
0.59538
0.595583
0.591005
0.590766
0.5906
0.592128
0.593476
0.594639
0.595572
0.596478
0.597358
0.59857
0.595205
0.596367
0.590294
0.591858
0.593207
0.594413
0.595508
0.596778
0.598237
0.600467
0.598675
0.601442
0.590829
0.59241
0.593693
0.594883
0.596067
0.597631
0.599655
0.602911
0.60295
0.607173
0.590783
0.592255
0.593311
0.594231
0.595193
0.596686
0.598957
0.602968
0.604906
0.610834
0.590923
0.592473
0.59351
0.594426
0.595447
0.597068
0.599702
0.604491
0.608127
0.614363
0.587916
0.58917
0.589405
0.588924
0.588075
0.587438
0.587629
0.590165
0.593581
0.602086
0.580693
0.582421
0.583254
0.583326
0.582584
0.580781
0.57732
0.570867
0.561158
0.548272
0.582943
0.584493
0.585385
0.585599
0.584969
0.583166
0.57959
0.572783
0.561227
0.54686
0.584123
0.585676
0.586694
0.587103
0.586668
0.585137
0.581949
0.57564
0.563639
0.549097
0.584137
0.585841
0.587045
0.587695
0.587587
0.58653
0.583904
0.57833
0.566401
0.552399
0.585001
0.586861
0.588198
0.589059
0.589265
0.588698
0.586683
0.581988
0.570547
0.557471
0.585321
0.587217
0.588561
0.589489
0.589887
0.589732
0.588331
0.584615
0.57408
0.56248
0.586367
0.588262
0.58955
0.590494
0.591023
0.591225
0.590444
0.587786
0.578538
0.568611
0.586639
0.588435
0.58953
0.590263
0.590657
0.590916
0.590521
0.588781
0.58108
0.573348
0.587019
0.588841
0.589915
0.590655
0.591145
0.591619
0.591717
0.590986
0.584971
0.57848
0.584189
0.585764
0.586271
0.586
0.585157
0.584071
0.582598
0.580691
0.575299
0.572278
0.573195
0.574977
0.57574
0.575665
0.574735
0.572799
0.569556
0.564481
0.556837
0.546672
0.575768
0.577476
0.578343
0.578365
0.577447
0.575335
0.571484
0.564921
0.55404
0.539491
0.577596
0.579361
0.580371
0.58059
0.579844
0.577826
0.573856
0.566713
0.553596
0.535132
0.578252
0.580234
0.58144
0.581878
0.581381
0.579653
0.575882
0.568633
0.553806
0.531972
0.579731
0.581893
0.583231
0.583866
0.583634
0.582283
0.57888
0.571867
0.555905
0.531371
0.580549
0.58277
0.584134
0.584855
0.584807
0.58381
0.580857
0.574334
0.557816
0.531435
0.581998
0.584223
0.585551
0.586319
0.586418
0.585764
0.58333
0.577506
0.561017
0.533436
0.582555
0.584695
0.585874
0.586488
0.586508
0.58596
0.583907
0.578828
0.562899
0.534901
0.583183
0.585306
0.58646
0.58709
0.587194
0.586852
0.585267
0.581113
0.566256
0.537255
0.580572
0.582444
0.583171
0.583043
0.582165
0.580688
0.578035
0.573227
0.55913
0.531031
0.567725
0.56929
0.569915
0.569785
0.568916
0.567245
0.564665
0.561043
0.556243
0.55036
0.570095
0.571712
0.57249
0.5724
0.571396
0.569332
0.565919
0.560668
0.552921
0.543858
0.572162
0.573932
0.574865
0.574915
0.573964
0.571786
0.567891
0.561514
0.551302
0.538708
0.573209
0.575276
0.576409
0.576628
0.575804
0.573681
0.569594
0.562513
0.550008
0.533648
0.575107
0.577394
0.578658
0.579039
0.578392
0.576461
0.572413
0.564987
0.550526
0.530553
0.576293
0.57867
0.579974
0.58044
0.579932
0.578229
0.574361
0.566887
0.550907
0.527809
0.578045
0.580444
0.58173
0.582256
0.581881
0.580442
0.576883
0.569638
0.552678
0.526978
0.57884
0.581172
0.582346
0.582766
0.582345
0.580997
0.57769
0.570837
0.553509
0.525891
0.579685
0.581969
0.583117
0.583561
0.583226
0.582051
0.579043
0.572775
0.555848
0.526052
0.577304
0.57934
0.580181
0.580082
0.579062
0.577113
0.573409
0.566651
0.550152
0.519718
0.563963
0.565221
0.565698
0.565583
0.564916
0.563698
0.561931
0.559654
0.556903
0.553636
0.565837
0.567238
0.56791
0.567802
0.566913
0.565195
0.562536
0.558772
0.553732
0.548464
0.567827
0.569473
0.570314
0.570285
0.569326
0.567308
0.56396
0.558917
0.551693
0.543892
0.569022
0.571046
0.57209
0.572172
0.571215
0.569038
0.565204
0.559137
0.54966
0.538757
0.571124
0.573416
0.574593
0.574794
0.573913
0.571735
0.567642
0.560831
0.549189
0.534907
0.572517
0.574943
0.576176
0.576449
0.575643
0.573539
0.569349
0.56207
0.548496
0.530916
0.574445
0.576927
0.578161
0.578496
0.577786
0.575835
0.571719
0.564255
0.54914
0.528502
0.575402
0.577844
0.579004
0.579267
0.578527
0.576623
0.572589
0.56515
0.549043
0.525792
0.57642
0.578801
0.579935
0.580226
0.57956
0.577794
0.57393
0.566683
0.550336
0.524305
0.57425
0.576385
0.577304
0.577214
0.576079
0.573788
0.569464
0.561803
0.545464
0.517917
0.56149
0.56246
0.562806
0.562725
0.562265
0.561452
0.560325
0.558954
0.557364
0.555273
0.562813
0.563962
0.564525
0.564441
0.563742
0.56244
0.560522
0.557949
0.554705
0.551513
0.564564
0.566007
0.56674
0.566688
0.565835
0.564138
0.561488
0.557755
0.552852
0.548011
0.565744
0.567616
0.568548
0.568552
0.567602
0.5656
0.562314
0.557495
0.550716
0.543654
0.567868
0.57005
0.571113
0.571192
0.570222
0.568059
0.564312
0.558562
0.549812
0.540086
0.569325
0.571682
0.572816
0.572943
0.571979
0.569744
0.56568
0.559196
0.548528
0.535976
0.57131
0.573763
0.574919
0.575099
0.574179
0.571974
0.567771
0.5608
0.54844
0.533065
0.572345
0.574791
0.575906
0.576037
0.575083
0.572862
0.568577
0.561327
0.54769
0.529705
0.573485
0.575871
0.576964
0.577122
0.576221
0.574085
0.569846
0.562491
0.54821
0.527461
0.57149
0.57364
0.574588
0.574487
0.573269
0.570776
0.566207
0.558459
0.543888
0.521487
0.559953
0.560697
0.560943
0.560894
0.5606
0.560091
0.559408
0.558605
0.557663
0.556145
0.560788
0.561712
0.562184
0.562142
0.561638
0.560717
0.559406
0.55769
0.555552
0.553497
0.562243
0.563462
0.56409
0.56405
0.56336
0.562033
0.560053
0.557392
0.554083
0.550997
0.563322
0.56498
0.56579
0.565762
0.564913
0.563213
0.560574
0.556928
0.552193
0.547571
0.565338
0.567324
0.568257
0.568263
0.567322
0.565357
0.562161
0.557571
0.551223
0.544622
0.566742
0.568934
0.569948
0.569977
0.568977
0.566825
0.563176
0.557746
0.549718
0.540895
0.568685
0.571009
0.572062
0.57213
0.57112
0.568887
0.564943
0.558852
0.549235
0.538079
0.569714
0.572067
0.573107
0.573139
0.572078
0.569763
0.565603
0.559035
0.54811
0.534685
0.570923
0.573228
0.574253
0.574308
0.573274
0.570984
0.566762
0.559898
0.548166
0.532383
0.569059
0.571143
0.572076
0.571957
0.570711
0.568168
0.563681
0.556426
0.544235
0.527094
0.559081
0.559667
0.559843
0.559817
0.559638
0.559332
0.558929
0.558461
0.55787
0.556629
0.559537
0.560295
0.5607
0.560699
0.560362
0.559743
0.558874
0.557728
0.556242
0.554785
0.560702
0.561719
0.562256
0.562243
0.561725
0.560745
0.559327
0.557466
0.555187
0.553104
0.561656
0.563082
0.563771
0.56374
0.563039
0.561683
0.559667
0.556997
0.55369
0.550555
0.563486
0.565227
0.566023
0.565994
0.565157
0.563489
0.560911
0.557394
0.552858
0.548288
0.564757
0.566716
0.567595
0.567567
0.566623
0.564697
0.561611
0.557272
0.551382
0.545139
0.566584
0.568703
0.569633
0.569627
0.568626
0.566537
0.563064
0.558009
0.550768
0.54271
0.567535
0.56971
0.57065
0.570614
0.569541
0.567311
0.563536
0.557911
0.54949
0.539623
0.568768
0.570915
0.571847
0.571828
0.570755
0.568493
0.564569
0.55855
0.549326
0.537671
0.566988
0.56893
0.56981
0.569677
0.568458
0.566005
0.561846
0.555442
0.545707
0.533149
0.558687
0.559164
0.559293
0.559284
0.559178
0.558999
0.558763
0.558488
0.558091
0.556999
0.558871
0.559525
0.559888
0.559923
0.559711
0.559309
0.55874
0.557954
0.556841
0.555687
0.559779
0.56064
0.561104
0.561121
0.560756
0.560065
0.55908
0.557783
0.556149
0.554621
0.560625
0.561832
0.562411
0.562392
0.561848
0.560821
0.55934
0.557426
0.555079
0.552817
0.56223
0.563712
0.564375
0.564336
0.563638
0.562299
0.560313
0.557703
0.554467
0.551172
0.563324
0.565014
0.565754
0.565699
0.564868
0.563243
0.560759
0.557422
0.553157
0.548638
0.564992
0.566853
0.567651
0.567602
0.566682
0.564844
0.561942
0.557922
0.552585
0.546716
0.565804
0.56774
0.568563
0.568486
0.567476
0.565457
0.56221
0.557613
0.5513
0.544081
0.56703
0.568957
0.56978
0.569714
0.568679
0.566582
0.563132
0.558109
0.551094
0.542655
0.565287
0.567028
0.567827
0.567686
0.566546
0.564295
0.560626
0.555241
0.547746
0.53885
0.558634
0.559038
0.559136
0.559136
0.559075
0.558971
0.558833
0.558667
0.55838
0.557382
0.558642
0.559244
0.559583
0.559646
0.559522
0.559266
0.55889
0.55832
0.55741
0.556381
0.559329
0.560082
0.560491
0.560536
0.560293
0.559823
0.559151
0.558235
0.556993
0.555744
0.560104
0.561123
0.561605
0.561603
0.561203
0.560458
0.559405
0.558048
0.556329
0.55455
0.561473
0.562708
0.563246
0.563211
0.562662
0.561636
0.560163
0.558277
0.555947
0.553426
0.562374
0.563788
0.564392
0.56433
0.56364
0.562336
0.560418
0.557934
0.554864
0.551468
0.563865
0.565446
0.566108
0.566042
0.565246
0.563711
0.56139
0.558308
0.554433
0.550075
0.564494
0.566156
0.566851
0.566756
0.565859
0.564126
0.561458
0.557848
0.553218
0.547915
0.565697
0.567366
0.568068
0.567979
0.567039
0.565198
0.562301
0.558283
0.553093
0.54706
0.56395
0.565451
0.566148
0.566009
0.564988
0.563015
0.559918
0.555576
0.549981
0.543853
0.558822
0.559175
0.559252
0.559256
0.559221
0.559162
0.55908
0.558977
0.558756
0.557831
0.558735
0.559322
0.559649
0.559731
0.559665
0.559503
0.559246
0.558802
0.557992
0.55698
0.55923
0.559915
0.560284
0.560349
0.560197
0.559887
0.559431
0.558764
0.557752
0.556609
0.559976
0.56084
0.561242
0.561256
0.560976
0.560455
0.559726
0.558766
0.557451
0.555907
0.561112
0.562125
0.562554
0.562528
0.562116
0.561364
0.560309
0.558972
0.557266
0.555195
0.561824
0.562976
0.563455
0.563398
0.562854
0.561852
0.560425
0.558628
0.556419
0.553744
0.563142
0.564442
0.564975
0.564907
0.564254
0.56303
0.561246
0.558959
0.556177
0.552849
0.563557
0.564933
0.565501
0.565404
0.564648
0.563227
0.561123
0.558388
0.555055
0.551115
0.564737
0.566133
0.566711
0.566617
0.565807
0.564266
0.561934
0.558839
0.55509
0.550802
0.562952
0.564195
0.564781
0.564651
0.563776
0.56212
0.559608
0.556238
0.552175
0.548057
0.559172
0.559486
0.559547
0.559554
0.559534
0.5595
0.559451
0.559383
0.559207
0.558354
0.559062
0.559654
0.559973
0.560067
0.560038
0.559935
0.55975
0.559377
0.55861
0.557541
0.559379
0.560024
0.560361
0.560438
0.56035
0.56015
0.55984
0.559335
0.558452
0.557304
0.560136
0.560877
0.561212
0.561238
0.561051
0.5607
0.560205
0.559522
0.558466
0.557004
0.561048
0.561869
0.562206
0.562191
0.561895
0.561364
0.560633
0.559701
0.558425
0.556601
0.561587
0.562503
0.562874
0.562828
0.562417
0.561679
0.560654
0.559386
0.557793
0.555578
0.562751
0.563788
0.564203
0.564143
0.563632
0.562697
0.561375
0.559728
0.557749
0.555125
0.562931
0.56403
0.564479
0.56439
0.563781
0.562666
0.561067
0.559063
0.556705
0.553731
0.564106
0.565233
0.565693
0.565605
0.56494
0.563706
0.561901
0.559597
0.556949
0.553905
0.562252
0.56324
0.563714
0.5636
0.56288
0.561547
0.559586
0.557062
0.554186
0.551483
0.559616
0.559897
0.559946
0.559954
0.559943
0.559923
0.559893
0.559847
0.559704
0.558929
0.559556
0.560158
0.560469
0.560567
0.56056
0.560494
0.560353
0.560022
0.559267
0.558094
0.559692
0.56031
0.560618
0.560699
0.560653
0.560528
0.560316
0.559917
0.559107
0.557881
0.560496
0.561136
0.561413
0.561447
0.561328
0.561099
0.560771
0.56028
0.559396
0.557927
0.561192
0.56185
0.562109
0.562103
0.5619
0.56154
0.561049
0.560411
0.559437
0.557743
0.56158
0.562293
0.562572
0.562537
0.562241
0.561718
0.561006
0.560135
0.558982
0.55707
0.562613
0.563417
0.563731
0.563683
0.5633
0.562614
0.561669
0.560517
0.559124
0.556991
0.562544
0.563393
0.563734
0.563659
0.56319
0.56235
0.561178
0.559756
0.558116
0.555834
0.563749
0.564629
0.564982
0.564908
0.564385
0.563437
0.562091
0.560432
0.558602
0.556437
0.561798
0.56255
0.562919
0.562824
0.562257
0.561226
0.55975
0.557923
0.555937
0.554205
0.560092
0.560343
0.560381
0.560389
0.560383
0.560372
0.560353
0.560322
0.560207
0.559518
0.560163
0.560768
0.561064
0.561161
0.561166
0.561123
0.561011
0.56071
0.559957
0.558648
0.560098
0.560686
0.560962
0.56104
0.561021
0.560947
0.560801
0.560478
0.559716
0.558373
0.560979
0.561529
0.561756
0.561792
0.561721
0.561578
0.561365
0.561011
0.560255
0.558738
0.561461
0.561983
0.562178
0.562178
0.562045
0.561811
0.561494
0.561065
0.560312
0.558697
0.561726
0.562268
0.562473
0.562449
0.562245
0.561888
0.561411
0.560827
0.559995
0.558304
0.562655
0.563259
0.563489
0.563453
0.563179
0.562695
0.562042
0.561261
0.560293
0.558528
0.562325
0.562956
0.563206
0.563146
0.5628
0.562192
0.561363
0.560386
0.559266
0.557497
0.563611
0.564274
0.564536
0.564477
0.564085
0.563386
0.562417
0.56126
0.560024
0.558482
0.561528
0.562074
0.562352
0.562276
0.561847
0.561081
0.56001
0.558731
0.557393
0.556313
0.560535
0.560755
0.560783
0.560791
0.560788
0.560782
0.560771
0.560749
0.56066
0.560068
0.560834
0.561427
0.561699
0.561788
0.5618
0.561773
0.561683
0.561411
0.560668
0.559212
0.56053
0.561076
0.561314
0.561383
0.56138
0.561339
0.561242
0.560981
0.560268
0.558798
0.561516
0.561981
0.562161
0.562194
0.562155
0.562072
0.56194
0.561688
0.561042
0.559481
0.56179
0.562195
0.562336
0.562339
0.562257
0.562112
0.561917
0.561639
0.56106
0.559521
0.56196
0.562362
0.562506
0.562491
0.562356
0.562123
0.561815
0.561437
0.560844
0.559346
0.562805
0.563245
0.563406
0.56338
0.563192
0.562864
0.56243
0.561919
0.561261
0.559801
0.562205
0.562655
0.562832
0.562787
0.562541
0.562118
0.56155
0.560902
0.560153
0.558786
0.563638
0.564123
0.56431
0.564266
0.563983
0.563488
0.562816
0.562035
0.561219
0.560125
0.561374
0.561752
0.561954
0.561896
0.561584
0.561037
0.560285
0.55942
0.55854
0.557891
0.560855
0.561044
0.561064
0.56107
0.56107
0.561067
0.561061
0.561048
0.560982
0.560498
0.561525
0.562081
0.562318
0.562394
0.562409
0.562394
0.562326
0.562089
0.56138
0.559792
0.560921
0.561403
0.561595
0.561651
0.561657
0.561639
0.56158
0.56138
0.560736
0.559167
0.562042
0.562419
0.562554
0.562581
0.562563
0.562518
0.562444
0.562274
0.561743
0.560186
0.562122
0.562425
0.562523
0.562526
0.562478
0.562394
0.562281
0.56211
0.56168
0.560257
0.562231
0.562519
0.562616
0.562607
0.562521
0.562375
0.562184
0.56195
0.561538
0.560248
0.563005
0.56331
0.563418
0.563399
0.563274
0.563061
0.562784
0.562463
0.562032
0.560856
0.562129
0.562438
0.562558
0.562526
0.562358
0.562072
0.561696
0.561279
0.560789
0.55976
0.563795
0.564137
0.564266
0.564234
0.564038
0.5637
0.563249
0.562739
0.562214
0.561449
0.561254
0.561503
0.561645
0.561603
0.561385
0.561007
0.560497
0.559931
0.559363
0.558991
0.560903
0.561057
0.561069
0.561073
0.561074
0.561075
0.561074
0.561067
0.561025
0.560656
0.562193
0.562682
0.562871
0.56293
0.562945
0.562939
0.562894
0.562706
0.562071
0.560408
0.561205
0.561599
0.561741
0.56178
0.561789
0.561786
0.561757
0.561619
0.561081
0.559494
0.562488
0.562774
0.562864
0.562881
0.562873
0.562854
0.562818
0.562716
0.562315
0.56086
0.562411
0.562625
0.562688
0.56269
0.562662
0.562615
0.562553
0.562456
0.562158
0.560923
0.562501
0.562698
0.56276
0.562753
0.562699
0.562609
0.562493
0.562354
0.562083
0.561038
0.563208
0.563408
0.563474
0.563459
0.563378
0.563242
0.563069
0.562877
0.562609
0.561721
0.562082
0.562286
0.562367
0.562346
0.562234
0.562045
0.561798
0.561533
0.561216
0.560484
0.564068
0.564303
0.56439
0.564367
0.564235
0.564009
0.563714
0.563389
0.563059
0.56254
0.56104
0.561198
0.561298
0.561268
0.56112
0.560866
0.560527
0.560165
0.559799
0.559601
0.560396
0.560509
0.560514
0.560516
0.560518
0.56052
0.560524
0.560524
0.560505
0.560255
0.562812
0.563204
0.563335
0.563373
0.563383
0.563383
0.563359
0.563231
0.562723
0.56111
0.561338
0.56163
0.561722
0.561746
0.561753
0.561754
0.561741
0.561656
0.561256
0.559797
0.562773
0.562966
0.563015
0.563022
0.563016
0.563005
0.562987
0.562933
0.56267
0.561454
0.562605
0.562748
0.562786
0.562787
0.562768
0.562736
0.562696
0.562637
0.562447
0.561488
0.562726
0.562855
0.562895
0.56289
0.562854
0.562792
0.562714
0.562624
0.562453
0.561693
0.563372
0.563494
0.563533
0.563522
0.563466
0.563376
0.563262
0.563142
0.562982
0.562384
0.562116
0.562253
0.562312
0.5623
0.562225
0.562096
0.561927
0.561748
0.561531
0.561053
0.564496
0.564652
0.56471
0.564694
0.564605
0.564454
0.564259
0.564049
0.563842
0.563508
0.560498
0.560601
0.560673
0.560655
0.560555
0.560384
0.560157
0.559919
0.559671
0.559571
0.558933
0.559021
0.559026
0.559029
0.55903
0.55903
0.55903
0.559029
0.559022
0.558882
0.563423
0.563689
0.563759
0.563775
0.563775
0.56377
0.563751
0.563676
0.563345
0.562007
0.561324
0.561522
0.561585
0.561604
0.561605
0.561592
0.561563
0.561492
0.561226
0.560093
0.562782
0.562898
0.562924
0.562926
0.562914
0.562894
0.562864
0.562816
0.562658
0.561825
0.56262
0.562717
0.562748
0.562752
0.562734
0.562698
0.562647
0.56258
0.562447
0.561825
0.562815
0.562906
0.562939
0.562939
0.56291
0.562855
0.56278
0.562692
0.562561
0.562093
0.563416
0.563494
0.563523
0.563517
0.563475
0.563403
0.56331
0.563208
0.56309
0.562752
0.56233
0.562438
0.56249
0.562488
0.562435
0.562338
0.562205
0.562054
0.561871
0.561575
0.565154
0.565253
0.565294
0.565283
0.56522
0.565111
0.564971
0.564821
0.564681
0.564489
0.559296
0.559376
0.559435
0.559425
0.559356
0.559234
0.559071
0.558897
0.558703
0.558636
0.556682
0.556733
0.556753
0.556763
0.556763
0.556754
0.556735
0.556708
0.556674
0.556589
0.564021
0.564151
0.564179
0.564182
0.564172
0.564148
0.564109
0.564043
0.563874
0.563098
0.56116
0.561322
0.561395
0.561426
0.561422
0.561383
0.561307
0.561186
0.560968
0.560287
0.56243
0.562516
0.562551
0.56256
0.562545
0.562504
0.562437
0.562342
0.562195
0.561754
0.562367
0.56246
0.562506
0.562519
0.562501
0.562451
0.56237
0.562256
0.562096
0.561742
0.562654
0.562743
0.562787
0.562796
0.562771
0.562711
0.562619
0.562495
0.562333
0.562049
0.563231
0.563305
0.563343
0.563345
0.563311
0.563242
0.563142
0.56302
0.562875
0.562669
0.562677
0.56279
0.562848
0.562855
0.562813
0.562728
0.562604
0.562447
0.562245
0.562001
0.565989
0.566052
0.566087
0.566081
0.56603
0.56594
0.565821
0.56569
0.565571
0.565477
0.557504
0.557589
0.557643
0.55764
0.557586
0.557487
0.557352
0.557202
0.557028
0.556937
0.415625
0.39529
0.40174
0.441612
0.370516
0.347223
0.357293
0.413791
0.330353
0.302995
0.318734
0.396484
0.295099
0.265263
0.287268
0.387118
0.266272
0.235182
0.264671
0.379041
0.24116
0.209838
0.247479
0.371711
0.22064
0.190509
0.236231
0.368084
0.201309
0.173964
0.22792
0.365018
0.184058
0.162066
0.223867
0.365371
0.165287
0.150567
0.218947
0.359586
0.472616
0.462364
0.462434
0.471672
0.444109
0.431152
0.431654
0.443537
0.415628
0.398524
0.399789
0.4162
0.389114
0.367724
0.370031
0.391168
0.366599
0.340461
0.34287
0.36862
0.346501
0.315184
0.316971
0.347342
0.33023
0.293658
0.294521
0.329553
0.315343
0.273665
0.273287
0.312925
0.303059
0.256914
0.255108
0.299021
0.28947
0.240289
0.235081
0.28159
0.535466
0.533049
0.532417
0.533468
0.517568
0.513621
0.512718
0.514796
0.499408
0.493303
0.492171
0.496005
0.479635
0.471174
0.4699
0.475918
0.460618
0.449597
0.448199
0.456649
0.441257
0.427455
0.425894
0.436906
0.423808
0.40712
0.405358
0.418995
0.406574
0.387085
0.385072
0.401189
0.391192
0.369607
0.367238
0.385186
0.373894
0.352163
0.348755
0.366209
0.546592
0.545307
0.544882
0.545229
0.535935
0.534271
0.533642
0.533977
0.52547
0.522796
0.521873
0.522544
0.512871
0.508962
0.507767
0.508997
0.500124
0.49475
0.493308
0.495401
0.485957
0.478915
0.477243
0.480486
0.472546
0.463714
0.461841
0.466481
0.45832
0.447735
0.445699
0.451844
0.444599
0.43274
0.43053
0.437979
0.428374
0.41709
0.414391
0.421429
0.552696
0.551924
0.551656
0.551851
0.545576
0.544927
0.544613
0.544627
0.539128
0.538053
0.537499
0.53745
0.53097
0.529278
0.528433
0.528371
0.522575
0.520043
0.518897
0.518987
0.51252
0.508944
0.507507
0.50796
0.502795
0.498035
0.496342
0.497388
0.491869
0.485905
0.484016
0.485833
0.480872
0.473979
0.471957
0.474621
0.467714
0.461599
0.459297
0.461502
0.554976
0.554343
0.554138
0.554325
0.55029
0.550008
0.549848
0.549814
0.546055
0.545593
0.545295
0.545166
0.540553
0.539817
0.539315
0.539034
0.534927
0.533753
0.532998
0.532617
0.527721
0.525935
0.524906
0.52453
0.520758
0.518224
0.516932
0.516708
0.512531
0.509191
0.507684
0.507767
0.504006
0.499959
0.498338
0.498954
0.493746
0.490544
0.48874
0.488801
0.556098
0.555529
0.555351
0.555538
0.553131
0.553044
0.55296
0.552885
0.550354
0.550194
0.550037
0.549891
0.546521
0.546249
0.545963
0.545663
0.542605
0.542109
0.541648
0.541205
0.537244
0.536397
0.535725
0.535189
0.532149
0.530841
0.529948
0.5294
0.525869
0.524033
0.522945
0.522494
0.519404
0.517002
0.515814
0.515746
0.51151
0.51003
0.508724
0.507995
0.556665
0.556122
0.555958
0.55615
0.554857
0.554868
0.554816
0.554709
0.553092
0.553078
0.552989
0.552834
0.550442
0.55039
0.550217
0.549927
0.547676
0.547504
0.547214
0.546799
0.543573
0.543189
0.542754
0.542249
0.53977
0.539097
0.538503
0.537956
0.534896
0.533876
0.533135
0.532622
0.530112
0.528645
0.527826
0.527622
0.524009
0.523559
0.522684
0.521746
0.557045
0.556511
0.556354
0.55656
0.555998
0.556059
0.556019
0.555885
0.554919
0.554972
0.554912
0.554748
0.553126
0.553172
0.553053
0.552772
0.551174
0.55115
0.55095
0.550573
0.547997
0.547831
0.547534
0.547097
0.545152
0.544791
0.544388
0.543928
0.541332
0.540735
0.540235
0.539809
0.537882
0.536939
0.536396
0.536242
0.533146
0.533304
0.532753
0.531824
0.557395
0.556856
0.556705
0.556933
0.556793
0.556871
0.556829
0.556677
0.556159
0.556233
0.556181
0.556012
0.554993
0.555068
0.554969
0.554698
0.553623
0.553647
0.55349
0.553152
0.551157
0.551074
0.550851
0.550487
0.54907
0.548843
0.548554
0.548197
0.546069
0.545675
0.545329
0.545024
0.54371
0.543054
0.542699
0.542642
0.540028
0.540533
0.540202
0.539345
0.557782
0.557229
0.557084
0.557342
0.557382
0.55745
0.5574
0.557239
0.55701
0.557074
0.557017
0.556846
0.556304
0.556365
0.556267
0.556012
0.555345
0.555359
0.555219
0.554925
0.553439
0.553362
0.553178
0.55289
0.551973
0.551781
0.551558
0.551306
0.549614
0.5493
0.549051
0.548867
0.548189
0.547685
0.547451
0.547492
0.545309
0.546
0.545809
0.545033
0.558226
0.557653
0.557514
0.557809
0.557837
0.557873
0.557807
0.557647
0.557585
0.557615
0.557544
0.557379
0.557221
0.557237
0.557129
0.556901
0.556545
0.556511
0.556373
0.556136
0.55509
0.554972
0.554809
0.554605
0.554148
0.553934
0.553752
0.553606
0.552289
0.551986
0.551799
0.551732
0.551685
0.551255
0.551099
0.551224
0.549394
0.550172
0.550068
0.549364
0.558719
0.558122
0.55799
0.558324
0.558194
0.558179
0.558094
0.557945
0.55795
0.557926
0.557835
0.557685
0.557854
0.5578
0.557677
0.55749
0.557366
0.557257
0.557117
0.556951
0.556285
0.556097
0.555946
0.555838
0.555793
0.555527
0.555372
0.555337
0.554311
0.553984
0.553838
0.553883
0.554442
0.554045
0.553939
0.554133
0.552554
0.553356
0.553304
0.552666
0.559236
0.558615
0.55849
0.558864
0.55847
0.558386
0.558278
0.558152
0.558141
0.558043
0.557929
0.557807
0.558279
0.558135
0.557996
0.55787
0.557916
0.557713
0.557569
0.557495
0.557157
0.556884
0.556742
0.556744
0.557059
0.556725
0.556593
0.556673
0.555842
0.555474
0.555359
0.555511
0.556639
0.556255
0.556181
0.556431
0.554981
0.555763
0.555741
0.555166
0.559737
0.559096
0.558978
0.559388
0.558673
0.558502
0.558369
0.558281
0.558176
0.557986
0.55785
0.557774
0.558559
0.558307
0.558156
0.558116
0.558287
0.557978
0.557836
0.557873
0.557822
0.557457
0.557328
0.55745
0.558069
0.557667
0.557556
0.557751
0.55701
0.556598
0.55651
0.556757
0.558414
0.558038
0.557986
0.558275
0.55681
0.557541
0.557535
0.557023
0.560153
0.559501
0.559392
0.559826
0.55881
0.558536
0.558381
0.558351
0.55807
0.557771
0.557617
0.557616
0.558753
0.558383
0.558228
0.5583
0.558569
0.558153
0.55802
0.558185
0.558387
0.557936
0.557825
0.55807
0.558929
0.558469
0.558381
0.558683
0.557923
0.557479
0.557413
0.557739
0.559887
0.55952
0.559483
0.559796
0.558126
0.55878
0.558781
0.558338
0.560345
0.5597
0.559601
0.560044
0.55891
0.558519
0.558348
0.558406
0.557858
0.557437
0.557275
0.557383
0.558926
0.55844
0.558294
0.558504
0.558854
0.558343
0.558229
0.558529
0.55895
0.558435
0.558347
0.558704
0.559727
0.559234
0.559171
0.559555
0.55869
0.558235
0.558187
0.558564
0.561166
0.560818
0.560792
0.561107
0.558933
0.559488
0.55949
0.559121
0.560032
0.559423
0.55934
0.559764
0.55907
0.558558
0.558386
0.558565
0.557635
0.557094
0.556942
0.557193
0.559148
0.558572
0.558452
0.558806
0.559222
0.558654
0.558568
0.558982
0.559581
0.559042
0.558981
0.559415
0.560517
0.560033
0.559993
0.560416
0.559437
0.559002
0.558968
0.559353
0.562381
0.562069
0.56205
0.562343
0.559088
0.559519
0.559519
0.559232
0.558787
0.558267
0.558206
0.558569
0.559553
0.558945
0.558798
0.559124
0.55761
0.55699
0.55687
0.557264
0.559479
0.558881
0.558802
0.559259
0.559704
0.559149
0.559096
0.559559
0.560264
0.559768
0.559731
0.560168
0.561264
0.560846
0.560824
0.561215
0.560287
0.559912
0.559885
0.560222
0.563699
0.563451
0.563438
0.563675
0.558295
0.55857
0.558564
0.558377
0.556562
0.556232
0.5562
0.556422
0.560772
0.560188
0.560099
0.560515
0.558052
0.557479
0.5574
0.557827
0.559923
0.55943
0.55939
0.559811
0.560195
0.559763
0.559731
0.560108
0.560797
0.560429
0.560405
0.56073
0.561733
0.561439
0.561424
0.561693
0.561092
0.56081
0.560784
0.561014
0.565113
0.564962
0.564956
0.565097
0.556632
0.556695
0.556686
0.556642
0.562894
0.570396
0.574385
0.577227
0.58014
0.582741
0.584862
0.586549
0.587934
0.589248
0.561571
0.56418
0.571485
0.576175
0.580441
0.583638
0.586002
0.587748
0.589028
0.590107
0.563991
0.55979
0.570485
0.575699
0.580618
0.583895
0.586274
0.587992
0.589212
0.590192
0.565875
0.554973
0.568956
0.574264
0.579747
0.583011
0.585426
0.58715
0.588388
0.589366
0.568251
0.551433
0.568354
0.573575
0.579661
0.582923
0.585444
0.587203
0.588466
0.58945
0.569043
0.547098
0.566796
0.571822
0.578653
0.581993
0.584734
0.586599
0.587989
0.589095
0.570588
0.544171
0.566425
0.571119
0.578717
0.582141
0.585115
0.587065
0.588514
0.589635
0.569953
0.539887
0.564625
0.568964
0.577409
0.580933
0.584237
0.586384
0.588093
0.589459
0.569672
0.537412
0.564246
0.567469
0.57617
0.579392
0.583117
0.585607
0.587662
0.589329
0.553546
0.5224
0.551565
0.555284
0.565851
0.570738
0.576222
0.580062
0.583193
0.585627
0.507961
0.528901
0.544447
0.555395
0.56285
0.568061
0.571848
0.574706
0.576969
0.578971
0.492809
0.522022
0.54311
0.556188
0.564563
0.57024
0.574269
0.577205
0.579365
0.581024
0.48243
0.518251
0.543212
0.557107
0.565908
0.571719
0.575791
0.578714
0.580808
0.582359
0.474098
0.514764
0.542511
0.556779
0.565939
0.571797
0.575877
0.578786
0.580883
0.582431
0.469196
0.513017
0.542779
0.557202
0.56674
0.572639
0.576759
0.579667
0.581765
0.583315
0.465154
0.510823
0.542223
0.556605
0.566608
0.57259
0.576824
0.579781
0.581947
0.583582
0.463577
0.510042
0.542826
0.556987
0.56746
0.573492
0.57784
0.580821
0.583002
0.584638
0.461636
0.508079
0.542126
0.55592
0.566886
0.572945
0.577476
0.580578
0.582939
0.584767
0.460946
0.507489
0.542646
0.555332
0.566203
0.571924
0.576722
0.580106
0.58275
0.584856
0.451602
0.497807
0.533755
0.54609
0.558069
0.564918
0.570994
0.575382
0.578821
0.581389
0.5373
0.543299
0.549069
0.554099
0.558367
0.561942
0.564919
0.567409
0.569552
0.571519
0.523216
0.533816
0.543444
0.551368
0.557729
0.562718
0.566592
0.569596
0.57192
0.573719
0.510636
0.526413
0.539826
0.550012
0.557793
0.563623
0.567998
0.571293
0.573758
0.575585
0.498327
0.519179
0.536203
0.548272
0.55715
0.563529
0.568201
0.57167
0.574264
0.57618
0.488531
0.514048
0.534342
0.54792
0.557698
0.564484
0.569376
0.572958
0.575632
0.57761
0.479491
0.509065
0.532282
0.547034
0.557599
0.564717
0.56981
0.573497
0.576263
0.578338
0.473108
0.506022
0.53178
0.54736
0.558576
0.565916
0.571152
0.57489
0.577688
0.57978
0.46704
0.502522
0.530481
0.546553
0.558294
0.565758
0.571151
0.575003
0.577944
0.580193
0.462838
0.500682
0.530457
0.546256
0.557972
0.565271
0.570866
0.574944
0.578098
0.580566
0.453232
0.492287
0.523231
0.539062
0.551585
0.559715
0.566214
0.571023
0.574736
0.577442
0.546142
0.548646
0.551476
0.554238
0.556812
0.559146
0.561225
0.563074
0.564765
0.566414
0.536184
0.540718
0.54597
0.550995
0.555397
0.559091
0.562134
0.564624
0.566641
0.568245
0.526282
0.533646
0.541551
0.54859
0.554478
0.559239
0.563042
0.566056
0.568409
0.570195
0.515051
0.525883
0.536752
0.54577
0.552975
0.558581
0.562943
0.566349
0.569003
0.571017
0.504883
0.519636
0.533581
0.544469
0.552877
0.559206
0.564023
0.567719
0.570585
0.57276
0.494503
0.513328
0.530302
0.542875
0.552368
0.559311
0.564506
0.568433
0.571472
0.573793
0.486063
0.508857
0.528668
0.542648
0.553056
0.56046
0.56593
0.569999
0.573126
0.575502
0.477715
0.504156
0.526531
0.54158
0.552709
0.560431
0.566133
0.57036
0.573631
0.576149
0.471051
0.501105
0.525665
0.541113
0.552498
0.560296
0.566222
0.570649
0.574081
0.576768
0.461139
0.493517
0.519417
0.535285
0.547392
0.555844
0.562423
0.567383
0.571201
0.573961
0.551945
0.553008
0.554264
0.555569
0.556896
0.558206
0.559464
0.560664
0.561851
0.563112
0.545311
0.547195
0.549804
0.5526
0.555256
0.557642
0.559734
0.561549
0.563091
0.564354
0.538324
0.541433
0.545585
0.549845
0.55377
0.557196
0.560108
0.562545
0.564534
0.566091
0.529655
0.534506
0.540591
0.546444
0.551604
0.555959
0.559574
0.562554
0.564987
0.5669
0.521247
0.528469
0.536853
0.544432
0.550857
0.556102
0.560345
0.563773
0.566548
0.568726
0.5119
0.521959
0.53285
0.542162
0.549811
0.555864
0.560652
0.564446
0.567493
0.569889
0.503764
0.516928
0.530358
0.541275
0.550014
0.556733
0.561945
0.565997
0.569213
0.571718
0.495302
0.511628
0.527485
0.53976
0.5494
0.556631
0.562187
0.566469
0.569859
0.572512