/*--------------------------------*- C++ -*----------------------------------*\
| =========                 |                                                 |
| \\      /  F ield         | foam-extend: Open Source CFD                    |
|  \\    /   O peration     | Version:     4.0                                |
|   \\  /    A nd           | Web:         http://www.foam-extend.org         |
|    \\/     M anipulation  |                                                 |
\*---------------------------------------------------------------------------*/
FoamFile
{
    version     2.0;
    format      ascii;
    class       volScalarField;
    location    "450";
    object      mut;
}
// * * * * * * * * * * * * * * * * * * * * * * * * * * * * * * * * * * * * * //

dimensions      [1 -1 -1 0 0 0 0];

internalField   nonuniform List<scalar> 
34480
(
0.00191143
0.00190973
0.00190911
0.00190957
0.00191137
0.00191537
0.00192403
0.00194541
0.00199457
0.00208737
0.014792
0.0139093
0.0135432
0.0131364
0.0111945
0.00658378
0.00272088
0.00126705
0.00112012
0.00169391
0.0426451
0.0407493
0.03883
0.0347377
0.0247315
0.0114296
0.00400185
0.0016851
0.00139672
0.00209105
0.0469365
0.0445922
0.0424125
0.0375989
0.0257289
0.0111335
0.00378149
0.00161225
0.00140929
0.0022316
0.0461702
0.0436368
0.041689
0.0371392
0.0251328
0.0105548
0.00354946
0.00152949
0.00139507
0.00232305
0.0445008
0.0419474
0.0401377
0.0356845
0.023516
0.0094851
0.00319691
0.00143182
0.00138819
0.00242455
0.0424391
0.0400647
0.0384741
0.0342624
0.0223009
0.00878291
0.00297142
0.00136732
0.00138249
0.0025006
0.0350923
0.0334147
0.0323304
0.0291868
0.019152
0.0073551
0.00245419
0.00117895
0.00129091
0.00246745
0.0122315
0.0119251
0.0118205
0.0114965
0.0095576
0.00477215
0.0015663
0.000726565
0.000871842
0.00186227
0.00185581
0.0018535
0.0018535
0.00185552
0.00185916
0.00186397
0.00187001
0.00187812
0.00189044
0.00184047
0.00191375
0.00191152
0.00191053
0.00191072
0.00191225
0.00191563
0.00192181
0.00193284
0.00195501
0.00200699
0.0140395
0.0133051
0.0130486
0.0131914
0.0135986
0.0137649
0.0121264
0.00717202
0.00268449
0.00255775
0.039666
0.0381894
0.0374227
0.036858
0.0351101
0.0301106
0.0210664
0.0102721
0.00343923
0.0034001
0.0439181
0.0420243
0.0411174
0.040477
0.0383907
0.0324939
0.0222052
0.010304
0.00335869
0.00370889
0.0436367
0.0414888
0.0406549
0.0402284
0.0385022
0.0328868
0.0225594
0.0101947
0.0032479
0.0039457
0.0424468
0.0402152
0.0394169
0.0391098
0.0376337
0.0323124
0.0222425
0.00991839
0.00317806
0.00424917
0.0408412
0.038715
0.0380143
0.0377817
0.0365409
0.0316131
0.021975
0.00978819
0.00314946
0.00451547
0.0341661
0.0326367
0.032149
0.0320682
0.0313742
0.0278489
0.0198606
0.00884015
0.0028832
0.00450931
0.0122303
0.0119201
0.0118574
0.0119042
0.0120194
0.0118992
0.0104799
0.00536058
0.00174609
0.00300091
0.00184907
0.00184489
0.00184311
0.0018433
0.00184508
0.00184794
0.00185215
0.00185872
0.0018786
0.00191841
0.00191133
0.00190939
0.00190851
0.00190871
0.00191008
0.00191287
0.00191763
0.00192514
0.00193748
0.00195752
0.0133116
0.0127917
0.0125904
0.0127093
0.0131674
0.0139991
0.0149249
0.0144314
0.010467
0.00653504
0.0365327
0.0353374
0.0348953
0.0350835
0.0355481
0.0353162
0.0323726
0.0245957
0.0132285
0.0076951
0.0406197
0.0390803
0.0385254
0.0387692
0.039353
0.0391012
0.0354555
0.0255192
0.0121539
0.00764755
0.0407408
0.0389928
0.0384508
0.0387877
0.0396273
0.0398415
0.0365246
0.0254585
0.010924
0.00757453
0.0399942
0.0381642
0.0376183
0.0379933
0.038993
0.039634
0.0367931
0.0249313
0.00985855
0.00769161
0.0388422
0.0370779
0.0365889
0.0369468
0.037995
0.0389371
0.0366661
0.0243532
0.00903185
0.00781545
0.0329608
0.0316901
0.0313342
0.0316036
0.0324491
0.0335506
0.0325521
0.0217137
0.00774384
0.00750886
0.0121814
0.0119093
0.0118573
0.0119081
0.0120889
0.0123962
0.0126055
0.0105289
0.00443083
0.00476554
0.00183961
0.00183531
0.00183334
0.00183328
0.00183494
0.00183807
0.00184325
0.0018521
0.00187518
0.00192433
0.00190503
0.00190359
0.00190291
0.00190306
0.0019041
0.00190609
0.00190926
0.00191367
0.00192057
0.00193046
0.0128662
0.0125118
0.0123541
0.0124264
0.0127482
0.0133918
0.0144462
0.0156525
0.0159531
0.014499
0.0337105
0.032831
0.0325179
0.0327408
0.03347
0.0344866
0.0349061
0.0328552
0.0262637
0.0184364
0.0375539
0.0363843
0.0359643
0.0362537
0.0371749
0.0384262
0.0387282
0.0353683
0.0258347
0.0172435
0.0380065
0.0366643
0.0362393
0.036579
0.0376466
0.0391968
0.0398265
0.0359188
0.0243018
0.0161479
0.0376559
0.0362293
0.0357912
0.036153
0.0373042
0.0391221
0.0401698
0.0359103
0.0226532
0.0156395
0.0369147
0.0355155
0.0351205
0.0354608
0.036602
0.0385313
0.0399272
0.0354512
0.021004
0.0152873
0.0318287
0.0308112
0.0305206
0.0307643
0.031594
0.0331697
0.0347987
0.0314324
0.0181142
0.014275
0.0121634
0.0119274
0.0118836
0.0119229
0.0120648
0.012333
0.0126102
0.0126867
0.00949322
0.00875256
0.00182828
0.00182412
0.00182218
0.0018221
0.00182381
0.00182731
0.00183328
0.00184345
0.00186683
0.00191205
0.00189553
0.00189455
0.00189406
0.00189415
0.00189485
0.00189617
0.00189819
0.00190071
0.00190476
0.00191055
0.0127038
0.0124597
0.0123355
0.0123786
0.0125984
0.0130395
0.0137919
0.0148567
0.0160328
0.0169494
0.031501
0.0309215
0.0306882
0.0308123
0.0313339
0.0322959
0.0335984
0.0345509
0.0334698
0.0296032
0.0350058
0.0341797
0.0338443
0.0340176
0.0347057
0.0359429
0.0374976
0.0382217
0.0353755
0.0287649
0.0356611
0.0346792
0.034333
0.0345463
0.0353362
0.0367635
0.0385761
0.0392671
0.0350051
0.0269655
0.0356084
0.0345354
0.0341748
0.0344162
0.0352743
0.0368841
0.0390211
0.0398196
0.0342802
0.0259013
0.0351922
0.0341146
0.0337889
0.0340248
0.034884
0.0365483
0.0388673
0.0396982
0.033028
0.0250359
0.0308365
0.0300376
0.0297971
0.0299717
0.0305886
0.0318563
0.0338479
0.0349448
0.0290335
0.0230551
0.0121851
0.01198
0.0119427
0.0119704
0.0120736
0.0122679
0.0124338
0.0128219
0.0127147
0.0127982
0.00181538
0.00181144
0.00180958
0.00180953
0.00181127
0.00181496
0.00182128
0.00183163
0.00185241
0.00188819
0.00188327
0.00188265
0.0018823
0.00188234
0.00188278
0.00188361
0.00188487
0.00188638
0.00188906
0.00189312
0.0127613
0.01259
0.0124915
0.0125188
0.012676
0.0129889
0.0135183
0.0142847
0.0152597
0.0162658
0.0300063
0.0296441
0.0294678
0.0295139
0.0298201
0.0304543
0.0315304
0.0329938
0.0341368
0.0342396
0.0330947
0.0325351
0.0322683
0.0323424
0.0327616
0.0336037
0.0349967
0.0368378
0.0378081
0.0363561
0.0337943
0.0330991
0.0328221
0.03293
0.0334249
0.0343966
0.0359902
0.0380684
0.0386925
0.0356039
0.0339157
0.0331313
0.0328419
0.0329822
0.0335427
0.0346613
0.0365254
0.0389597
0.039276
0.0350124
0.0337201
0.0329128
0.032652
0.0327985
0.033379
0.0345547
0.0365507
0.0391565
0.0390441
0.0341975
0.0299988
0.0293861
0.0291928
0.0293096
0.0297342
0.0306209
0.0321955
0.0344641
0.0345811
0.0311398
0.01225
0.012072
0.0120411
0.01206
0.0121332
0.0122658
0.0123316
0.0125358
0.0130518
0.0143477
0.00180083
0.00179718
0.00179544
0.00179544
0.00179718
0.00180088
0.00180711
0.00181685
0.00183405
0.00186038
0.00186858
0.00186819
0.00186795
0.00186796
0.00186823
0.00186873
0.00186952
0.00187052
0.00187253
0.00187574
0.0129715
0.0128504
0.0127713
0.0127887
0.0129047
0.0131359
0.0135275
0.0141123
0.0149041
0.0157753
0.0291317
0.0288972
0.0287589
0.028763
0.0289347
0.0293209
0.0300339
0.0311543
0.0324084
0.033344
0.0317912
0.0314082
0.0311955
0.0312113
0.0314466
0.031949
0.0328632
0.0343618
0.036033
0.0369168
0.0324125
0.0319229
0.0317043
0.0317463
0.0320317
0.0326107
0.033645
0.0353816
0.0372811
0.0377397
0.0325989
0.0320335
0.0318066
0.031879
0.0322207
0.0329137
0.0341548
0.0362726
0.0385215
0.0386074
0.032528
0.0319349
0.0317316
0.0318149
0.032184
0.0329366
0.034292
0.0366277
0.0390142
0.0387806
0.029335
0.0288739
0.0287228
0.0287964
0.0290747
0.0296516
0.0306954
0.0325674
0.0347319
0.0351283
0.0123654
0.0122106
0.0121855
0.0121978
0.0122487
0.0123367
0.0123351
0.0123524
0.0126504
0.0136985
0.00178454
0.00178126
0.00177969
0.00177973
0.00178141
0.00178494
0.00179074
0.00179937
0.001813
0.00183182
0.00185165
0.00185142
0.00185124
0.00185123
0.00185139
0.00185169
0.00185221
0.00185295
0.00185457
0.00185725
0.0132832
0.0131985
0.0131335
0.0131432
0.0132291
0.0134031
0.0137034
0.0141794
0.0148641
0.0156707
0.0286916
0.0285261
0.0284131
0.0283981
0.0284977
0.0287431
0.0292221
0.0300218
0.0310174
0.031888
0.0309641
0.0306908
0.0305199
0.0305079
0.0306382
0.0309335
0.0314977
0.0324948
0.0338021
0.0348046
0.0314482
0.0310991
0.0309282
0.0309354
0.0310935
0.031422
0.0320284
0.0331367
0.0346661
0.0356692
0.0316281
0.0312224
0.0310482
0.0310804
0.0312805
0.0316869
0.0324252
0.0337919
0.035744
0.0369958
0.0316108
0.031181
0.0310263
0.0310693
0.0312948
0.0317513
0.0325754
0.0341132
0.0363574
0.0378505
0.0288481
0.0285065
0.0283914
0.0284351
0.0286101
0.0289678
0.0296006
0.030782
0.0327158
0.0344067
0.0125379
0.0124023
0.0123822
0.01239
0.0124248
0.0124823
0.0124425
0.0123498
0.0124284
0.0129855
0.00176646
0.00176359
0.00176222
0.00176229
0.00176386
0.00176708
0.0017722
0.00177947
0.00178992
0.00180318
0.00183259
0.00183246
0.00183234
0.00183232
0.00183241
0.00183259
0.00183294
0.00183355
0.00183494
0.00183721
0.0136658
0.0136076
0.0135523
0.0135551
0.0136173
0.0137483
0.013983
0.0143842
0.0149966
0.0157617
0.0285167
0.0283897
0.0282941
0.0282712
0.0283318
0.0284994
0.0288456
0.0294549
0.0302708
0.0310701
0.0304644
0.0302604
0.0301224
0.0300994
0.0301727
0.0303532
0.0307168
0.0313955
0.0323579
0.0331685
0.0308054
0.0305519
0.0304194
0.0304109
0.0304971
0.0306834
0.0310401
0.0317291
0.0327794
0.0335292
0.0309453
0.0306546
0.0305234
0.0305341
0.0306485
0.0308818
0.031309
0.0321267
0.0334399
0.0344027
0.0309391
0.0306309
0.0305157
0.0305352
0.0306694
0.0309388
0.0314202
0.0323334
0.0338566
0.0350998
0.0285278
0.028278
0.0281924
0.0282167
0.0283225
0.0285361
0.0289011
0.02957
0.0308456
0.0321606
0.0127732
0.0126532
0.0126374
0.0126423
0.0126661
0.0127036
0.0126465
0.0125062
0.0124649
0.0127805
0.00174654
0.00174412
0.00174295
0.00174305
0.00174444
0.00174725
0.00175158
0.00175743
0.0017652
0.0017744
0.00181149
0.00181143
0.00181133
0.00181131
0.00181137
0.00181148
0.00181172
0.00181226
0.00181349
0.00181542
0.0141054
0.014066
0.0140167
0.014013
0.0140562
0.0141541
0.0143397
0.0146834
0.0152394
0.0159629
0.0284887
0.0283855
0.0283027
0.0282767
0.0283144
0.0284349
0.0287004
0.0291954
0.0299031
0.0306623
0.030169
0.0300118
0.0299002
0.0298745
0.0299163
0.0300316
0.0302809
0.0307789
0.0315403
0.0322383
0.0303891
0.0302029
0.0301013
0.0300875
0.0301342
0.0302419
0.0304613
0.0309185
0.0316842
0.032275
0.0304831
0.0302758
0.030179
0.0301794
0.0302436
0.0303765
0.0306259
0.0311272
0.0320175
0.0327081
0.0304692
0.0302507
0.0301668
0.0301739
0.0302522
0.0304092
0.030689
0.0312287
0.0322238
0.0330862
0.0283537
0.0281733
0.0281113
0.0281236
0.0281849
0.0283079
0.0285101
0.0288754
0.029673
0.0305502
0.0130777
0.01297
0.0129577
0.0129609
0.0129772
0.0130021
0.0129422
0.0127938
0.012702
0.0129326
0.00172474
0.00172277
0.00172181
0.00172192
0.00172311
0.00172546
0.00172895
0.00173349
0.00173909
0.00174537
0.0017884
0.00178838
0.00178831
0.00178829
0.00178832
0.00178839
0.00178856
0.00178903
0.00179016
0.00179182
0.0146001
0.0145733
0.014527
0.0145174
0.0145456
0.0146182
0.0147668
0.0150633
0.0155721
0.0162479
0.0285366
0.0284498
0.0283767
0.0283498
0.028373
0.028462
0.0286728
0.029091
0.0297255
0.0304457
0.0299917
0.0298686
0.0297788
0.0297541
0.0297776
0.0298533
0.0300321
0.0304205
0.0310652
0.0316985
0.0301218
0.0299851
0.0299086
0.0298944
0.0299194
0.0299831
0.0301246
0.0304511
0.0310613
0.0315962
0.0301785
0.0300325
0.0299628
0.0299589
0.029994
0.0300693
0.0302172
0.0305411
0.0311917
0.0317748
0.0301536
0.0300012
0.0299416
0.0299427
0.0299879
0.0300789
0.0302425
0.030572
0.0312558
0.0319433
0.0282998
0.0281712
0.0281274
0.0281327
0.0281666
0.0282345
0.0283423
0.0285399
0.0290533
0.0297128
0.0134582
0.01336
0.0133507
0.0133529
0.0133643
0.0133814
0.0133281
0.0131941
0.0130918
0.0133026
0.00170105
0.0016995
0.00169875
0.00169886
0.00169983
0.0017017
0.00170442
0.0017078
0.00171174
0.00171594
0.00176336
0.00176337
0.00176332
0.0017633
0.00176332
0.00176336
0.00176349
0.00176388
0.00176492
0.00176639
0.0151556
0.0151366
0.0150919
0.0150776
0.0150944
0.015148
0.0152688
0.0155276
0.0159939
0.0166164
0.0286221
0.0285472
0.0284823
0.028456
0.0284694
0.0285359
0.0287063
0.0290673
0.0296464
0.0303202
0.0298788
0.029782
0.0297105
0.0296884
0.0297008
0.0297509
0.0298826
0.0301971
0.0307673
0.0313561
0.0299477
0.0298487
0.0297924
0.02978
0.0297929
0.0298312
0.0299259
0.0301718
0.0306894
0.0312119
0.0299797
0.0298792
0.0298306
0.0298254
0.0298438
0.0298857
0.0299745
0.0301938
0.0307023
0.0312559
0.0299483
0.0298444
0.0298033
0.029802
0.0298278
0.0298806
0.0299771
0.0301859
0.0306837
0.0313058
0.0283391
0.0282486
0.0282186
0.0282201
0.0282373
0.0282727
0.0283275
0.0284348
0.0287824
0.0293449
0.0139242
0.013833
0.013826
0.0138278
0.0138362
0.0138484
0.0138073
0.0136986
0.0136069
0.0138205
0.00167546
0.00167429
0.00167372
0.00167382
0.00167459
0.00167602
0.00167804
0.00168047
0.00168315
0.00168593
0.0017364
0.00173643
0.00173639
0.00173638
0.00173639
0.00173642
0.00173651
0.00173684
0.00173779
0.00173909
0.0157833
0.0157698
0.0157267
0.0157093
0.015718
0.0157577
0.0158577
0.016088
0.016519
0.0170817
0.028726
0.0286607
0.0286035
0.0285789
0.0285861
0.0286358
0.0287745
0.0290893
0.029624
0.0302474
0.0297998
0.0297241
0.0296681
0.0296495
0.0296553
0.0296881
0.029786
0.0300456
0.0305629
0.0311224
0.0298301
0.0297604
0.0297203
0.0297102
0.0297166
0.0297397
0.0298047
0.0299952
0.0304484
0.0309771
0.0298491
0.0297823
0.0297494
0.0297444
0.0297532
0.0297758
0.0298294
0.0299827
0.0303963
0.0309475
0.0298171
0.0297487
0.0297214
0.0297195
0.0297341
0.0297647
0.0298221
0.0299582
0.0303344
0.0309266
0.0284466
0.0283834
0.0283636
0.0283632
0.0283708
0.0283875
0.0284136
0.0284729
0.0287189
0.0292293
0.0144887
0.0144024
0.0143973
0.0143991
0.0144054
0.0144146
0.0143882
0.0143088
0.0142366
0.0144564
0.00164796
0.00164712
0.00164671
0.0016468
0.00164737
0.00164842
0.00164987
0.00165154
0.00165332
0.0016551
0.00170755
0.0017076
0.00170758
0.00170757
0.00170757
0.00170759
0.00170765
0.00170793
0.00170879
0.00170997
0.0165005
0.016493
0.0164532
0.0164349
0.0164385
0.0164682
0.0165523
0.0167599
0.0171637
0.0176726
0.0288394
0.028783
0.0287339
0.0287123
0.0287157
0.0287529
0.0288655
0.0291403
0.0296378
0.0302151
0.029739
0.0296808
0.0296384
0.0296236
0.0296254
0.0296466
0.0297191
0.0299337
0.0304076
0.0309552
0.0297471
0.0297001
0.0296727
0.029665
0.0296678
0.0296818
0.0297268
0.0298755
0.0302748
0.0308177
0.0297612
0.0297187
0.0296973
0.0296929
0.0296965
0.0297081
0.0297403
0.0298489
0.0301891
0.0307415
0.0297335
0.0296905
0.029673
0.0296713
0.0296796
0.0296974
0.0297318
0.0298218
0.0301087
0.0306713
0.0286009
0.0285571
0.0285444
0.0285431
0.0285455
0.028552
0.0285632
0.028597
0.0287756
0.029243
0.0151712
0.0150879
0.0150842
0.0150862
0.0150913
0.0150984
0.0150867
0.0150357
0.0149854
0.0152058
0.00161857
0.00161799
0.00161771
0.00161778
0.00161819
0.00161892
0.00161991
0.00162102
0.00162216
0.00162327
0.00167684
0.00167691
0.0016769
0.0016769
0.0016769
0.0016769
0.00167695
0.00167718
0.00167794
0.00167902
0.0173319
0.0173343
0.0173015
0.0172847
0.0172856
0.0173083
0.0173792
0.0175661
0.0179472
0.0184135
0.0289585
0.0289117
0.0288719
0.0288543
0.0288556
0.0288831
0.0289734
0.0292108
0.0296746
0.0302196
0.0296891
0.0296462
0.0296157
0.0296046
0.0296044
0.0296176
0.0296702
0.0298444
0.0302745
0.0308275
0.0296864
0.0296567
0.0296388
0.0296332
0.0296342
0.0296427
0.0296737
0.0297879
0.0301332
0.0306885
0.0297
0.0296745
0.029661
0.0296573
0.0296583
0.0296639
0.0296831
0.0297595
0.0300346
0.0305764
0.029679
0.0296537
0.029643
0.0296418
0.0296465
0.029657
0.0296777
0.0297367
0.0299512
0.0304672
0.0287848
0.0287539
0.028746
0.0287445
0.0287444
0.0287459
0.0287497
0.0287699
0.0288994
0.029317
0.016
0.0159182
0.0159156
0.0159178
0.0159222
0.015928
0.0159278
0.0159022
0.0158724
0.0160835
0.00158726
0.00158689
0.0015867
0.00158676
0.00158704
0.00158753
0.00158818
0.00158888
0.00158958
0.00159023
0.00164435
0.00164443
0.00164444
0.00164444
0.00164444
0.00164443
0.00164446
0.00164464
0.00164527
0.00164626
0.0183136
0.0183339
0.0183128
0.0183002
0.0183004
0.0183178
0.0183762
0.0185402
0.0188963
0.0193331
0.029082
0.0290466
0.0290169
0.0290036
0.029004
0.0290241
0.0290943
0.0292934
0.0297208
0.0302541
0.029648
0.0296187
0.0295984
0.0295907
0.0295897
0.0295975
0.0296341
0.0297692
0.0301458
0.0307111
0.0296416
0.0296244
0.0296133
0.0296095
0.0296096
0.0296148
0.0296358
0.0297197
0.0300049
0.0305558
0.029656
0.0296416
0.0296333
0.0296304
0.0296302
0.0296327
0.0296441
0.0296961
0.0299083
0.0304143
0.0296417
0.029628
0.0296219
0.0296212
0.029624
0.0296303
0.0296427
0.0296801
0.0298322
0.0302756
0.0289831
0.0289607
0.0289557
0.0289543
0.0289534
0.0289529
0.0289534
0.0289662
0.0290572
0.0294123
0.0170175
0.0169362
0.0169345
0.0169369
0.0169408
0.0169456
0.0169499
0.0169451
0.0169336
0.0171238
0.00155407
0.00155384
0.00155373
0.00155377
0.00155396
0.00155427
0.00155468
0.0015551
0.00155551
0.00155586
0.00161023
0.00161034
0.00161035
0.00161036
0.00161035
0.00161035
0.00161035
0.00161047
0.00161096
0.00161183
0.0195044
0.0195499
0.0195457
0.0195393
0.0195399
0.0195525
0.0195971
0.0197312
0.0200494
0.020465
0.02921
0.0291868
0.0291666
0.0291575
0.0291577
0.0291719
0.0292237
0.0293813
0.0297595
0.0302963
0.0296163
0.0295986
0.0295866
0.0295818
0.0295807
0.0295851
0.0296089
0.0297055
0.0300115
0.0305714
0.0296093
0.0296004
0.0295939
0.0295913
0.0295913
0.0295945
0.0296082
0.0296656
0.0298826
0.0303926
0.0296237
0.029616
0.0296109
0.0296087
0.0296082
0.0296095
0.0296161
0.0296494
0.0298
0.030234
0.029614
0.0296074
0.0296041
0.0296037
0.0296056
0.0296095
0.0296169
0.029639
0.0297375
0.0300815
0.0291808
0.0291637
0.0291605
0.0291593
0.0291584
0.0291576
0.029157
0.0291654
0.0292254
0.0295063
0.0182883
0.0182072
0.0182061
0.0182087
0.0182123
0.0182164
0.0182196
0.0182208
0.0182272
0.0183833
0.00151907
0.00151894
0.00151887
0.0015189
0.00151901
0.0015192
0.00151945
0.00151969
0.00151993
0.00152008
0.00157484
0.00157494
0.00157497
0.00157498
0.00157498
0.00157496
0.00157495
0.00157501
0.00157534
0.00157603
0.0210116
0.0210763
0.0210836
0.0210836
0.0210848
0.0210916
0.0211198
0.0212174
0.0214773
0.0218669
0.0293408
0.0293277
0.0293149
0.0293088
0.0293091
0.0293189
0.0293542
0.0294676
0.0297741
0.0303017
0.0295961
0.0295872
0.029581
0.0295784
0.0295778
0.0295804
0.0295946
0.0296557
0.0298739
0.0303738
0.0295886
0.0295842
0.0295803
0.0295787
0.0295788
0.0295812
0.0295898
0.0296252
0.0297705
0.0301861
0.0296007
0.0295964
0.0295931
0.0295916
0.0295913
0.0295923
0.0295966
0.0296161
0.0297103
0.0300341
0.0295913
0.0295885
0.0295868
0.0295867
0.0295879
0.0295905
0.029595
0.029607
0.0296626
0.0298906
0.0293603
0.0293469
0.0293444
0.0293435
0.029343
0.0293426
0.0293423
0.0293475
0.0293832
0.0295843
0.0199148
0.0198351
0.0198344
0.019837
0.0198403
0.0198437
0.019846
0.0198454
0.0198453
0.01997
0.00148246
0.00148238
0.00148234
0.00148236
0.00148243
0.00148255
0.0014827
0.00148284
0.00148298
0.00148303
0.00153854
0.00153856
0.00153857
0.00153858
0.00153858
0.00153857
0.00153857
0.0015386
0.00153877
0.00153924
0.0229881
0.0230701
0.0230845
0.0230873
0.0230887
0.023092
0.0231066
0.0231636
0.0233357
0.0236465
0.0294666
0.0294583
0.0294494
0.029445
0.0294454
0.0294522
0.0294742
0.0295443
0.0297546
0.0302097
0.0295901
0.0295858
0.0295826
0.029581
0.029581
0.0295833
0.0295917
0.0296246
0.0297505
0.0301106
0.0295809
0.029578
0.0295752
0.029574
0.0295744
0.0295766
0.0295825
0.0296022
0.0296824
0.029954
0.0295882
0.0295851
0.0295827
0.0295815
0.0295816
0.0295829
0.0295864
0.0295976
0.029647
0.0298399
0.029575
0.0295736
0.0295725
0.0295723
0.0295732
0.0295752
0.0295783
0.0295849
0.0296113
0.0297294
0.0295025
0.029492
0.0294897
0.0294888
0.0294885
0.0294888
0.0294895
0.0294936
0.0295134
0.029638
0.0220698
0.0219953
0.0219951
0.0219974
0.022
0.0220027
0.0220044
0.022003
0.0219989
0.0220962
0.00144446
0.0014444
0.00144437
0.00144438
0.00144443
0.0014445
0.00144461
0.00144471
0.00144482
0.00144486
0.00150024
0.00150025
0.00150023
0.00150022
0.00150022
0.00150023
0.00150025
0.0015003
0.00150041
0.00150068
0.025703
0.0257845
0.0257986
0.0258019
0.0258031
0.0258041
0.0258084
0.0258278
0.0258947
0.0260318
0.0295744
0.0295643
0.0295568
0.0295533
0.0295535
0.0295579
0.02957
0.0296037
0.0297079
0.0299912
0.0295986
0.0295944
0.0295915
0.0295901
0.0295904
0.0295925
0.0295979
0.0296128
0.0296644
0.0298386
0.0295884
0.0295847
0.0295821
0.029581
0.0295814
0.0295835
0.0295878
0.0295979
0.0296313
0.0297551
0.0295897
0.0295862
0.0295839
0.0295829
0.0295832
0.0295848
0.029588
0.0295949
0.0296158
0.0296984
0.0295736
0.0295717
0.0295704
0.0295701
0.0295707
0.0295724
0.0295751
0.0295796
0.0295908
0.0296351
0.029594
0.0295862
0.0295838
0.0295829
0.0295828
0.0295835
0.0295853
0.0295895
0.0296013
0.0296646
0.025078
0.0250206
0.0250204
0.0250218
0.0250236
0.0250256
0.025027
0.0250263
0.0250226
0.0250903
0.00140443
0.00140436
0.00140433
0.00140433
0.00140436
0.00140443
0.00140452
0.00140462
0.00140473
0.0014048
0.00242514
0.00244689
0.00243576
0.00239855
0.00156749
0.00158908
0.00158545
0.00158219
0.00204467
0.0020851
0.00207436
0.00204643
0.00240393
0.00245922
0.00243713
0.00238124
0.0027142
0.0027803
0.00274996
0.00267603
0.00301266
0.00308776
0.00305342
0.00297067
0.00324866
0.00332971
0.00329427
0.0032096
0.00337843
0.0034635
0.0034304
0.00334839
0.0029952
0.00307266
0.00304311
0.00297626
0.00238076
0.00239763
0.0023703
0.0022984
0.00208958
0.0020972
0.00209859
0.00209367
0.00308127
0.0031875
0.00308966
0.00286732
0.00414606
0.00428576
0.0041454
0.00385834
0.00484478
0.00503363
0.00485244
0.00448705
0.00554116
0.00578513
0.00555561
0.00508966
0.00640461
0.00671917
0.00643669
0.00585123
0.00719981
0.00757782
0.0072372
0.00653977
0.00771505
0.00815548
0.00776758
0.0069807
0.00599998
0.00637343
0.00601546
0.00535661
0.00220629
0.00223875
0.00223463
0.00220118
0.00197954
0.00198278
0.0019829
0.00198041
0.00505423
0.00510084
0.00510996
0.00516689
0.00599884
0.00605221
0.0060584
0.00612837
0.00634883
0.00642956
0.00642023
0.00642652
0.00674596
0.00684121
0.00678417
0.006665
0.00740899
0.00752357
0.00740084
0.00712765
0.0080489
0.00816382
0.00795995
0.00752842
0.00843525
0.00856514
0.00828867
0.00770691
0.00633776
0.00643304
0.00619109
0.00567127
0.00207917
0.00209682
0.00209583
0.00207932
0.00193851
0.00193968
0.00193984
0.00193902
0.0122117
0.0120372
0.012216
0.0127264
0.0137899
0.0136067
0.0139755
0.0148922
0.0127677
0.0127341
0.0131608
0.0140738
0.0120584
0.0121094
0.0125072
0.0133166
0.0119967
0.0121078
0.0124522
0.0131382
0.0120463
0.0121701
0.0124328
0.0129716
0.0118447
0.0120037
0.0121794
0.0125205
0.00832414
0.00845569
0.00850025
0.00855274
0.00199126
0.0020021
0.00200368
0.00199683
0.00191589
0.00191677
0.00191683
0.00191606
0.0175211
0.0176011
0.0176665
0.0177105
0.0270321
0.0269698
0.0272473
0.0277946
0.0246245
0.024602
0.0250556
0.0259081
0.0219483
0.0219889
0.0225392
0.0235742
0.0204472
0.0205639
0.0211631
0.0223072
0.0193376
0.0194759
0.0200536
0.0212306
0.0179401
0.0181402
0.0186446
0.0196807
0.0112718
0.0114412
0.0116237
0.0119809
0.00192945
0.00193624
0.00193821
0.00193572
0.0018972
0.0018979
0.00189789
0.00189717
0.0172014
0.0172748
0.0172935
0.0172613
0.0343318
0.0344225
0.0344989
0.0345514
0.0350962
0.0351068
0.035256
0.0354897
0.03269
0.0326205
0.0328915
0.0334125
0.0305856
0.0305106
0.0309346
0.0317721
0.0285383
0.0284563
0.0289827
0.0300893
0.0255742
0.0255925
0.0261311
0.0272465
0.0136226
0.013772
0.0138971
0.0140736
0.00188175
0.00188589
0.00188759
0.00188695
0.00187907
0.00187964
0.0018796
0.00187894
0.0166676
0.0167215
0.0167298
0.0166948
0.0340906
0.034237
0.0342807
0.0342279
0.0375526
0.0377299
0.0377872
0.0377179
0.0376927
0.037792
0.0378626
0.0378773
0.0373984
0.0373875
0.0375215
0.0377459
0.0361595
0.0360268
0.0362473
0.0367543
0.032144
0.0320711
0.0323512
0.0329468
0.013739
0.0139145
0.0139214
0.0138253
0.00184289
0.00184541
0.00184668
0.00184672
0.00185993
0.00186036
0.00186029
0.00185972
0.016546
0.0165922
0.0165967
0.0165608
0.0325979
0.0327247
0.0327508
0.0326829
0.0356099
0.0357851
0.0358158
0.0357031
0.0363366
0.0364936
0.0365194
0.0364093
0.0373579
0.0374689
0.0375034
0.0374508
0.0376002
0.0376133
0.0376582
0.0377216
0.0337636
0.0337903
0.0338579
0.0339623
0.0127867
0.0129419
0.012938
0.0128262
0.00180905
0.00181061
0.00181147
0.00181165
0.00183925
0.00183954
0.00183945
0.00183896
0.0166358
0.0166781
0.0166804
0.0166431
0.0317492
0.0318688
0.0318885
0.0318137
0.0338605
0.0340057
0.0340182
0.0338998
0.0340516
0.034164
0.0341635
0.034048
0.0347571
0.0348365
0.034833
0.0347418
0.0351533
0.0351737
0.0351649
0.0351259
0.0318841
0.0319161
0.0319166
0.0318933
0.0123527
0.012492
0.0125008
0.0124096
0.0017776
0.00177859
0.00177914
0.00177929
0.00181683
0.00181697
0.00181686
0.00181647
0.0168334
0.0168711
0.0168709
0.0168324
0.0313332
0.0314519
0.0314698
0.0313909
0.0328549
0.0329837
0.0329891
0.0328721
0.0326657
0.0327468
0.0327345
0.0326266
0.0328938
0.0329297
0.0329049
0.0328153
0.0329902
0.032967
0.0329315
0.0328826
0.030137
0.0301228
0.0300976
0.0300669
0.0124354
0.0125867
0.0126043
0.0125109
0.00174712
0.00174777
0.00174811
0.0017482
0.0017926
0.0017926
0.00179247
0.00179218
0.0171054
0.017136
0.0171323
0.0170934
0.0311056
0.0312231
0.0312391
0.0311572
0.0322551
0.032372
0.0323737
0.03226
0.0319156
0.031981
0.0319646
0.0318633
0.0318882
0.0319062
0.0318739
0.0317874
0.031806
0.0317694
0.0317251
0.0316728
0.0292763
0.0292464
0.0292132
0.0291822
0.0128047
0.0129828
0.0130088
0.0129033
0.00171686
0.00171731
0.00171752
0.00171755
0.00176658
0.00176644
0.00176628
0.00176609
0.0174477
0.0174674
0.0174589
0.0174211
0.0309539
0.0310669
0.0310796
0.0309949
0.0318457
0.0319486
0.0319455
0.0318349
0.0314782
0.0315318
0.0315119
0.0314147
0.0313395
0.03135
0.0313151
0.0312317
0.0311941
0.031161
0.0311169
0.0310629
0.0289651
0.0289398
0.0289086
0.0288781
0.013342
0.013553
0.0135877
0.0134668
0.00168635
0.00168667
0.00168679
0.00168679
0.00173879
0.00173851
0.00173834
0.00173825
0.0178705
0.0178742
0.0178595
0.0178248
0.0308331
0.0309365
0.0309436
0.0308563
0.0315317
0.0316164
0.031606
0.0314981
0.0311915
0.0312324
0.0312075
0.0311132
0.031011
0.0310155
0.0309792
0.0309007
0.0308569
0.0308308
0.0307899
0.0307377
0.0289288
0.0289137
0.0288885
0.028861
0.0139992
0.0142451
0.0142882
0.01415
0.00165523
0.00165547
0.00165554
0.00165551
0.00170926
0.00170887
0.00170869
0.00170869
0.0183989
0.0183797
0.018356
0.0183261
0.0307279
0.0308157
0.0308144
0.0307249
0.0312729
0.0313351
0.0313151
0.0312101
0.0309791
0.0310051
0.0309742
0.0308844
0.030788
0.0307855
0.0307485
0.0306791
0.0306443
0.0306245
0.0305883
0.0305422
0.0290237
0.0290188
0.0290007
0.0289783
0.014763
0.0150441
0.0150949
0.0149378
0.00162321
0.00162341
0.00162344
0.0016234
0.00167805
0.00167757
0.00167738
0.00167746
0.0190616
0.0190122
0.0189761
0.0189522
0.0306352
0.030701
0.0306885
0.0305979
0.0310495
0.0310861
0.0310552
0.0309562
0.0308006
0.0308104
0.0307743
0.0306941
0.0306124
0.0306025
0.0305669
0.0305117
0.0304806
0.0304658
0.0304358
0.0303997
0.0291757
0.0291795
0.0291685
0.0291518
0.0156414
0.0159571
0.0160143
0.0158375
0.00159007
0.00159023
0.00159025
0.00159019
0.00164521
0.00164468
0.00164449
0.00164464
0.0198911
0.0198056
0.0197551
0.019739
0.0305548
0.0305925
0.0305668
0.0304781
0.0308455
0.0308557
0.0308159
0.0307292
0.0306308
0.0306254
0.0305874
0.0305238
0.0304517
0.0304363
0.0304051
0.0303681
0.0303253
0.0303148
0.0302923
0.0302683
0.0293434
0.0293547
0.0293497
0.0293371
0.0166606
0.0170085
0.0170706
0.0168745
0.00155563
0.00155578
0.00155579
0.00155572
0.00161089
0.00161035
0.00161018
0.00161037
0.0209422
0.0208177
0.0207528
0.0207493
0.0304784
0.0304848
0.0304467
0.0303674
0.0306411
0.0306286
0.0305855
0.0305209
0.0304506
0.030434
0.0303994
0.0303585
0.0302856
0.0302684
0.0302444
0.0302258
0.0301571
0.0301505
0.0301359
0.0301236
0.0295004
0.029518
0.029517
0.0295049
0.0178676
0.0182415
0.0183067
0.0180948
0.00151985
0.00151997
0.00151998
0.00151991
0.00157538
0.0015749
0.00157475
0.00157496
0.0222916
0.0221268
0.0220507
0.0220694
0.0303839
0.0303607
0.0303159
0.0302577
0.0304132
0.0303869
0.0303495
0.0303147
0.0302457
0.0302248
0.0301984
0.0301802
0.0301019
0.030087
0.0300711
0.0300655
0.0299716
0.0299675
0.0299595
0.0299552
0.0296252
0.0296471
0.0296472
0.0296317
0.0194065
0.0198132
0.0198808
0.0196486
0.00148285
0.00148296
0.00148296
0.0014829
0.001539
0.00153861
0.00153851
0.0015387
0.0240533
0.0238487
0.0237689
0.0238237
0.0302364
0.030195
0.0301527
0.0301233
0.0301461
0.0301183
0.0300933
0.0300852
0.0300138
0.0299954
0.029978
0.0299736
0.0299034
0.0298926
0.0298821
0.0298812
0.0297865
0.0297825
0.0297773
0.0297766
0.0296947
0.0297163
0.0297145
0.0296958
0.0215064
0.0219445
0.0220094
0.0217545
0.00144485
0.00144495
0.00144496
0.00144491
0.00150088
0.00150065
0.00150061
0.00150075
0.0264162
0.0261837
0.0261152
0.0262138
0.0300042
0.0299633
0.0299282
0.0299163
0.0298621
0.0298403
0.0298245
0.0298265
0.0297883
0.0297731
0.0297597
0.0297588
0.0297282
0.0297182
0.029709
0.0297089
0.0296525
0.0296457
0.0296404
0.029642
0.0297022
0.0297133
0.0297089
0.0296961
0.0245731
0.0249898
0.0250386
0.0247877
0.00140515
0.00140527
0.00140527
0.00140519
0.00222786
0.00208718
0.00200954
0.00197216
0.00195023
0.00193616
0.00192699
0.00192119
0.00191739
0.00191476
0.00215923
0.00220071
0.0056617
0.0102864
0.0145864
0.0175249
0.0187357
0.0184877
0.0174574
0.0162375
0.00283263
0.00366055
0.00855782
0.0164552
0.0252267
0.0329162
0.0386535
0.0422024
0.0437487
0.0438115
0.0031827
0.00449761
0.00927983
0.0183519
0.028975
0.0380847
0.0445441
0.0481549
0.0492983
0.0487547
0.00340425
0.0044306
0.00926882
0.0194068
0.0316637
0.0415386
0.047764
0.050426
0.05038
0.0488002
0.00363706
0.00438609
0.00926014
0.0203435
0.0339785
0.0441226
0.0496387
0.0511061
0.0499484
0.0475849
0.0037961
0.00428255
0.0091943
0.021097
0.0358675
0.0457969
0.0502229
0.0504078
0.0483285