/*--------------------------------*- C++ -*----------------------------------*\
| =========                 |                                                 |
| \\      /  F ield         | foam-extend: Open Source CFD                    |
|  \\    /   O peration     | Version:     4.0                                |
|   \\  /    A nd           | Web:         http://www.foam-extend.org         |
|    \\/     M anipulation  |                                                 |
\*---------------------------------------------------------------------------*/
FoamFile
{
    version     2.0;
    format      ascii;
    class       surfaceScalarField;
    location    "450";
    object      phi;
}
// * * * * * * * * * * * * * * * * * * * * * * * * * * * * * * * * * * * * * //

dimensions      [1 0 -1 0 0 0 0];

internalField   nonuniform List<scalar> 
97302
(
-0.000110552
9.41864e-07
-0.00084001
0.000848483
-0.000119652
1.18685e-06
-0.000841522
0.000849435
-0.000128967
1.30764e-06
-0.000842439
0.000850447
-0.000139088
1.31784e-06
-0.000842872
0.000851675
-0.000150857
1.21098e-06
-0.000842826
0.000853384
-0.000165763
9.7163e-07
-0.000842131
0.000856065
-0.00018688
5.62997e-07
-0.000840206
0.000860761
-0.000221078
-7.56219e-08
-0.000835221
0.000869494
-0.000269025
-1.08484e-06
-0.000826132
0.000875181
-3.83324e-06
-0.000799023
-0.000349512
0.000883344
-0.00015168
1.67789e-06
-0.00112393
0.00113302
-0.000161201
2.14148e-06
-0.0011255
0.00113407
-0.000170897
2.36591e-06
-0.00112673
0.00113537
-0.000181331
2.3931e-06
-0.00112746
0.00113682
-0.000193357
2.21058e-06
-0.00112747
0.0011385
-0.000208754
1.79787e-06
-0.00112645
0.00114102
-0.000231296
1.08264e-06
-0.00112392
0.00114594
-0.000270194
-5.08721e-08
-0.00111796
0.00115684
-0.000326355
-1.93483e-06
-0.00110617
0.00116319
-6.49939e-06
-0.00106911
-0.000429859
0.00117528
-0.000192721
2.43892e-06
-0.00140843
0.00141767
-0.000202336
3.02839e-06
-0.00141031
0.00141904
-0.000212013
3.29875e-06
-0.00141199
0.00142073
-0.000222313
3.32419e-06
-0.00141304
0.00142241
-0.000234281
3.08946e-06
-0.00141315
0.00142424
-0.000250114
2.58507e-06
-0.00141225
0.0014273
-0.000274129
1.7342e-06
-0.00141022
0.00143358
-0.000317316
4.23754e-07
-0.00140512
0.00144783
-0.000380168
-1.85455e-06
-0.00139302
0.0014558
-7.63081e-06
-0.0013467
-0.000498931
0.00146659
-0.000234561
3.08347e-06
-0.00169194
0.00170162
-0.000244366
3.7745e-06
-0.00169436
0.00170342
-0.000254186
4.07932e-06
-0.00169663
0.00170567
-0.000264639
4.1123e-06
-0.00169826
0.00170793
-0.00027685
3.84588e-06
-0.001699
0.00171045
-0.000293195
3.286e-06
-0.0016989
0.00171454
-0.000318368
2.34517e-06
-0.00169786
0.00172242
-0.000364787
9.21581e-07
-0.00169412
0.00174004
-0.000432573
-1.66584e-06
-0.00168277
0.00175038
-8.58478e-06
-0.00162747
-0.000561006
0.00175686
-0.000276836
3.62345e-06
-0.00197913
0.00198919
-0.000286733
4.32968e-06
-0.00198212
0.00199146
-0.000296584
4.61835e-06
-0.00198493
0.00199425
-0.000307056
4.63031e-06
-0.00198716
0.00199711
-0.000319342
4.33699e-06
-0.00198867
0.00200046
-0.000335944
3.75748e-06
-0.00198961
0.00200574
-0.000361925
2.79478e-06
-0.00198986
0.0020154
-0.000410919
1.36016e-06
-0.00198791
0.00203646
-0.000482945
-1.38566e-06
-0.00197832
0.00205007
-9.33586e-06
-0.00191339
-0.000618178
0.00204938
-0.000319875
3.77832e-06
-0.0022667
0.00227735
-0.000329822
4.45335e-06
-0.00226997
0.00227979
-0.000339624
4.67986e-06
-0.00227289
0.00228263
-0.000349986
4.63304e-06
-0.00227539
0.00228575
-0.000362152
4.29802e-06
-0.00227752
0.00228972
-0.000378714
3.70845e-06
-0.00227959
0.0022962
-0.000405086
2.76483e-06
-0.00228149
0.00230789
-0.000455923
1.39495e-06
-0.00228182
0.00233262
-0.000531416
-1.29761e-06
-0.00227535
0.00235075
-1.00538e-05
-0.00220069
-0.000671094
0.00234109
-0.00036288
3.50001e-06
-0.00255546
0.0025666
-0.000372713
4.06746e-06
-0.00255872
0.00256894
-0.000382314
4.21119e-06
-0.00256156
0.00257163
-0.000392399
4.07338e-06
-0.00256414
0.00257479
-0.00040427
3.67602e-06
-0.00256681
0.00257931
-0.00042056
3.04659e-06
-0.0025701
0.00258706
-0.000447
2.13689e-06
-0.00257402
0.00260109
-0.000499046
9.17976e-07
-0.00257735
0.00262988
-0.00057735
-1.3257e-06
-0.00257538
0.00265371
-1.02687e-05
-0.00249081
-0.000719506
0.00263318
-0.000406884
2.59912e-06
-0.00284424
0.00285614
-0.000416741
3.02659e-06
-0.00284732
0.00285822
-0.000426258
3.01981e-06
-0.00284954
0.00286025
-0.000436147
2.69368e-06
-0.00285165
0.00286292
-0.000447678
2.11867e-06
-0.00285419
0.00286728
-0.000463448
1.31921e-06
-0.00285811
0.00287561
-0.000489384
3.32904e-07
-0.00286375
0.00289149
-0.000541475
-7.87156e-07
-0.00287015
0.00292395
-0.000621203
-2.10106e-06
-0.00287378
0.00295428
-9.92177e-06
-0.0027813
-0.000763987
0.00292374
-0.000449781
1.19748e-06
-0.00312831
0.00314035
-0.000459308
1.28452e-06
-0.00313168
0.00314295
-0.00046846
9.92536e-07
-0.00313396
0.00314514
-0.000477962
2.76382e-07
-0.00313636
0.00314827
-0.000489111
-7.11206e-07
-0.00313967
0.00315365
-0.000504459
-1.93337e-06
-0.00314505
0.00316365
-0.000530035
-3.20845e-06
-0.00315328
0.00318239
-0.000581694
-4.27396e-06
-0.00316415
0.00321929
-0.00066115
-4.39635e-06
-0.00317315
0.0032549
-8.99767e-06
-0.00307239
-0.000801105
0.00321142
-0.000492519
-0.00339382
0.00340624
-0.00050282
-0.00339615
0.00340774
-0.000512648
-0.00339578
0.0034066
-0.000522762
-0.00339352
0.00340391
-0.000534333
-0.0033906
0.00340146
-0.000549691
-0.00338871
0.00340213
-0.000574412
-0.00338932
0.00341083
-0.000623258
-0.00339454
0.00343911
-0.000696248
-0.00340546
0.00347405
-0.00331655
-0.000827922
0.00343922
1.53219e-05
9.31327e-07
-0.000832291
6.83278e-06
1.20053e-06
-0.000834234
-1.79582e-06
1.33263e-06
-0.000835143
-1.07747e-05
1.33883e-06
-0.000835232
-2.03236e-05
1.21133e-06
-0.000834488
-3.07054e-05
9.25596e-07
-0.000832675
-4.21317e-05
4.37726e-07
-0.000829218
-5.40894e-05
-3.48281e-07
-0.000822915
-6.59213e-05
-1.64968e-06
-0.000812651
-3.4107e-06
-0.000796036
-6.54967e-05
1.69902e-05
1.64868e-06
-0.00111499
7.62993e-06
2.15175e-06
-0.00111709
-1.83925e-06
2.3997e-06
-0.00111833
-1.17706e-05
2.43493e-06
-0.00111863
-2.24639e-05
2.2386e-06
-0.00111781
-3.4363e-05
1.77564e-06
-0.0011154
-4.8378e-05
9.60594e-07
-0.00111043
-6.5555e-05
-3.51179e-07
-0.00110078
-8.74476e-05
-2.58499e-06
-0.00108334
-5.68259e-06
-0.00105439
-9.98989e-05
1.88476e-05
2.40671e-06
-0.00139887
8.96537e-06
3.05546e-06
-0.00140133
-9.57374e-07
3.36611e-06
-0.00140303
-1.12975e-05
3.41558e-06
-0.00140368
-2.2459e-05
3.17449e-06
-0.00140292
-3.53043e-05
2.60948e-06
-0.00140024
-5.16589e-05
1.60937e-06
-0.00139451
-7.42463e-05
3.31301e-08
-0.00138292
-0.000107416
-2.76212e-06
-0.00135968
-6.8732e-06
-0.0013171
-0.000135816
2.00963e-05
3.04765e-06
-0.00168165
9.81802e-06
3.82869e-06
-0.00168486
-4.56711e-07
4.1926e-06
-0.00168718
-1.121e-05
4.26517e-06
-0.00168836
-2.29866e-05
4.00217e-06
-0.00168805
-3.69057e-05
3.38047e-06
-0.00168575
-5.53746e-05
2.25155e-06
-0.00168003
-8.26288e-05
4.91668e-07
-0.00166732
-0.00012668
-2.76098e-06
-0.00163873
-7.79392e-06
-0.00158119
-0.000172043
2.10371e-05
3.58699e-06
-0.00196822
1.05027e-05
4.40714e-06
-0.00197216
4.14117e-08
4.76812e-06
-0.00197505
-1.09141e-05
4.82962e-06
-0.00197676
-2.30656e-05
4.54618e-06
-0.00197706
-3.7724e-05
3.9058e-06
-0.00197547
-5.78054e-05
2.72098e-06
-0.00197025
-8.89925e-05
8.86472e-07
-0.00195711
-0.000143509
-2.65315e-06
-0.00192392
-8.46458e-06
-0.00185038
-0.000205849
2.14809e-05
3.76692e-06
-0.00225498
1.07469e-05
4.57613e-06
-0.00225941
2.14951e-07
4.88626e-06
-0.00226248
-1.07565e-05
4.89783e-06
-0.00226449
-2.30167e-05
4.57896e-06
-0.00226529
-3.80562e-05
3.93613e-06
-0.00226458
-5.92708e-05
2.76038e-06
-0.00226031
-9.36424e-05
9.53432e-07
-0.00224751
-0.000158046
-2.62622e-06
-0.00221097
-9.04282e-06
-0.00212129
-0.000236867
2.15072e-05
3.4728e-06
-0.002543
1.07725e-05
4.17743e-06
-0.00254759
3.62227e-07
4.40868e-06
-0.00255067
-1.03949e-05
4.33492e-06
-0.00255282
-2.2509e-05
3.97491e-06
-0.00255409
-3.76108e-05
3.3234e-06
-0.00255439
-5.95329e-05
2.19296e-06
-0.00255153
-9.64071e-05
4.78181e-07
-0.00254
-0.000169945
-2.75989e-06
-0.00250171
-9.4507e-06
-0.00239599
-0.000264357
2.09116e-05
2.5988e-06
-0.00283094
1.01368e-05
3.16368e-06
-0.00283553
-1.21836e-07
3.27105e-06
-0.00283815
-1.05851e-05
3.05194e-06
-0.00283991
-2.23442e-05
2.57705e-06
-0.00284103
-3.71365e-05
1.8389e-06
-0.00284184
-5.91566e-05
7.43971e-07
-0.00284028
-9.74526e-05
-8.34726e-07
-0.00283054
-0.000178778
-3.21037e-06
-0.00279201
-9.58996e-06
-0.00267169
-0.000288255
2.0328e-05
1.20878e-06
-0.00311463
9.8709e-06
1.39014e-06
-0.00311945
5.66793e-08
1.23578e-06
-0.00312211
-9.84208e-06
6.65478e-07
-0.00312407
-2.10712e-05
-1.51145e-07
-0.00312571
-3.55206e-05
-1.20714e-06
-0.00312756
-5.77068e-05
-2.45017e-06
-0.0031279
-9.72705e-05
-3.88138e-06
-0.00312154
-0.000184783
-5.09468e-06
-0.00308375
-8.80814e-06
-0.00294668
-0.000311274
1.92785e-05
-0.00337996
8.37801e-06
-0.00338386
-1.59681e-06
-0.00338457
-1.14662e-05
-0.00338298
-2.2372e-05
-0.00337984
-3.61967e-05
-0.00337609
-5.73448e-05
-0.00337062
-9.57141e-05
-0.00336005
-0.000184792
-0.00332147
-0.00318028
-0.00032987
1.27455e-05
8.97134e-07
-0.000826275
5.58547e-06
1.17099e-06
-0.000828246
-1.79943e-06
1.30049e-06
-0.000829059
-9.34377e-06
1.28998e-06
-0.000828977
-1.69448e-05
1.13363e-06
-0.000828021
-2.43881e-05
8.08938e-07
-0.00082604
-3.11526e-05
2.84854e-07
-0.000822738
-3.59521e-05
-4.9473e-07
-0.000817621
-3.69479e-05
-1.64012e-06
-0.000810015
-2.96692e-06
-0.000799645
-3.03711e-05
1.5036e-05
1.60799e-06
-0.00110726
6.54415e-06
2.12056e-06
-0.00110955
-2.11619e-06
2.36498e-06
-0.00111073
-1.10889e-05
2.3782e-06
-0.00111074
-2.04221e-05
2.14162e-06
-0.00110948
-3.00209e-05
1.61775e-06
-0.00110661
-3.95291e-05
7.28144e-07
-0.00110136
-4.78253e-05
-6.35148e-07
-0.00109235
-5.25658e-05
-2.73896e-06
-0.0010775
-5.27087e-06
-0.0010575
-4.71493e-05
1.75811e-05
2.37572e-06
-0.00139
8.12929e-06
3.04638e-06
-0.00139281
-1.44001e-06
3.36357e-06
-0.00139446
-1.1388e-05
3.39763e-06
-0.00139475
-2.18673e-05
3.11561e-06
-0.00139342
-3.30452e-05
2.46932e-06
-0.00138991
-4.5129e-05
1.33601e-06
-0.00138303
-5.77329e-05
-4.1483e-07
-0.00137053
-6.86282e-05
-3.26765e-06
-0.00134825
-6.87555e-06
-0.00131592
-6.82065e-05
1.92832e-05
3.03808e-06
-0.00167179
9.17875e-06
3.86558e-06
-0.00167557
-1.01276e-06
4.25107e-06
-0.00167788
-1.1699e-05
4.31576e-06
-0.00167859
-2.32041e-05
4.01177e-06
-0.00167744
-3.59856e-05
3.29441e-06
-0.00167379
-5.07273e-05
1.98631e-06
-0.00166594
-6.77999e-05
-6.31018e-08
-0.0016506
-8.58315e-05
-3.60371e-06
-0.00162036
-8.25611e-06
-0.00157309
-9.25515e-05
2.05908e-05
3.598e-06
-0.00195753
1.00396e-05
4.48625e-06
-0.00196223
-5.28403e-07
4.88359e-06
-0.00196511
-1.16447e-05
4.94641e-06
-0.00196628
-2.38347e-05
4.62616e-06
-0.00196549
-3.78379e-05
3.88494e-06
-0.00196206
-5.48392e-05
2.48835e-06
-0.00195375
-7.61316e-05
2.61646e-07
-0.00193615
-0.000102022
-3.82338e-06
-0.00189781
-9.42551e-06
-0.00183346
-0.000117779
2.13678e-05
3.8085e-06
-0.00224335
1.0472e-05
4.70237e-06
-0.00224873
-3.13345e-07
5.06071e-06
-0.00225187
-1.16245e-05
5.08474e-06
-0.00225332
-2.41745e-05
4.73528e-06
-0.00225285
-3.89893e-05
3.99324e-06
-0.00224987
-5.77996e-05
2.59295e-06
-0.00224161
-8.29058e-05
3.3114e-07
-0.00222248
-0.000117088
-4.02075e-06
-0.00217659
-1.04217e-05
-0.00209407
-0.000143311
2.16426e-05
3.52521e-06
-0.00253048
1.06445e-05
4.31911e-06
-0.0025362
-1.15083e-07
4.60494e-06
-0.00253945
-1.13286e-05
4.55486e-06
-0.00254108
-2.39077e-05
4.18329e-06
-0.00254096
-3.91308e-05
3.46641e-06
-0.00253864
-5.92829e-05
2.14453e-06
-0.00253093
-8.76932e-05
-4.0697e-08
-0.00251122
-0.000130218
-4.27097e-06
-0.00245894
-1.12666e-05
-0.00235776
-0.000167599
2.12319e-05
2.66662e-06
-0.00281754
1.01568e-05
3.3091e-06
-0.00282345
-4.84563e-07
3.48087e-06
-0.00282638
-1.14506e-05
3.31984e-06
-0.00282771
-2.37725e-05
2.88142e-06
-0.00282741
-3.89531e-05
2.14527e-06
-0.00282533
-5.9817e-05
9.54016e-07
-0.00281823
-9.06675e-05
-9.86858e-07
-0.00279875
-0.000140952
-4.38193e-06
-0.00274161
-1.15657e-05
-0.00262229
-0.000190049
2.06479e-05
1.30323e-06
-0.00310083
9.87356e-06
1.52659e-06
-0.0031069
-3.35586e-07
1.46018e-06
-0.00310988
-1.07317e-05
1.00691e-06
-0.00311136
-2.25069e-05
3.25571e-07
-0.00311138
-3.74192e-05
-5.87542e-07
-0.00310991
-5.8882e-05
-1.72862e-06
-0.00310375
-9.21256e-05
-3.24974e-06
-0.00308603
-0.000148989
-5.30503e-06
-0.00302597
-1.03584e-05
-0.00288607
-0.000210809
1.96061e-05
-0.00336607
8.57085e-06
-0.0033713
-1.63766e-06
-0.0033729
-1.18686e-05
-0.00337174
-2.32196e-05
-0.00336816
-3.74745e-05
-0.00336243
-5.81129e-05
-0.00335171
-9.12917e-05
-0.00333012
-0.000151152
-0.00326692
-0.00311529
-0.000226492
9.86863e-06
8.04913e-07
-0.000822025
4.31088e-06
1.07167e-06
-0.00082376
-1.51828e-06
1.19497e-06
-0.000824425
-7.36633e-06
1.17174e-06
-0.000824301
-1.2944e-05
1.00014e-06
-0.000823443
-1.7846e-05
6.64203e-07
-0.000821803
-2.14395e-05
1.49012e-07
-0.000819294
-2.26733e-05
-5.64333e-07
-0.000815823
-1.99333e-05
-1.49667e-06
-0.000811258
-2.45592e-06
-0.000805493
-1.16285e-05
1.24895e-05
1.47795e-06
-0.00110107
5.2858e-06
1.9865e-06
-0.00110326
-2.1315e-06
2.22192e-06
-0.00110434
-9.68737e-06
2.2131e-06
-0.00110423
-1.72143e-05
1.94477e-06
-0.0011029
-2.43659e-05
1.38678e-06
-0.00110018
-3.03944e-05
4.86087e-07
-0.00109567
-3.37727e-05
-8.14768e-07
-0.00108872
-3.16709e-05
-2.63135e-06
-0.00107847
-4.59412e-06
-0.00106668
-2.0347e-05
1.55537e-05
2.24163e-06
-0.00138234
7.01656e-06
2.92105e-06
-0.00138521
-1.69057e-06
3.2354e-06
-0.00138677
-1.06523e-05
3.24354e-06
-0.00138682
-1.98275e-05
2.91401e-06
-0.00138521
-2.89965e-05
2.20064e-06
-0.00138156
-3.75293e-05
9.99384e-07
-0.00137502
-4.38682e-05
-7.80316e-07
-0.00136423
-4.41245e-05
-3.41307e-06
-0.00134721
-6.41e-06
-0.00132663
-3.16005e-05
1.77117e-05
2.92485e-06
-0.00166289
8.23069e-06
3.78764e-06
-0.00166696
-1.41162e-06
4.18432e-06
-0.00166918
-1.14581e-05
4.22426e-06
-0.00166952
-2.20339e-05
3.86075e-06
-0.00166781
-3.31572e-05
3.04561e-06
-0.00166351
-4.44464e-05
1.61228e-06
-0.00165526
-5.44368e-05
-5.70142e-07
-0.00164082
-5.83945e-05
-4.02233e-06
-0.00161579
-8.11478e-06
-0.00158322
-4.656e-05
1.94382e-05
3.50952e-06
-0.00194756
9.2618e-06
4.45671e-06
-0.00195273
-1.0136e-06
4.88063e-06
-0.00195553
-1.17782e-05
4.9249e-06
-0.00195621
-2.33663e-05
4.5404e-06
-0.00195458
-3.60869e-05
3.67986e-06
-0.00194997
-4.9922e-05
2.1093e-06
-0.00194041
-6.37195e-05
-3.56791e-07
-0.00192256
-7.24751e-05
-4.54152e-06
-0.00188853
-9.71049e-06
-0.00184099
-6.33448e-05
2.06057e-05
3.76363e-06
-0.00223226
9.88707e-06
4.73411e-06
-0.00223828
-8.13156e-07
5.13209e-06
-0.00224142
-1.20186e-05
5.14954e-06
-0.00224234
-2.42666e-05
4.74141e-06
-0.0022408
-3.81861e-05
3.87348e-06
-0.00223615
-5.42315e-05
2.26672e-06
-0.00222572
-7.17657e-05
-3.22203e-07
-0.00220498
-8.62442e-05
-4.98274e-06
-0.00216167
-1.11199e-05
-0.00209717
-8.17355e-05
2.11909e-05
3.51893e-06
-0.00251834
1.02204e-05
4.3946e-06
-0.00252489
-6.05428e-07
4.72644e-06
-0.00252822
-1.18977e-05
4.68128e-06
-0.00252932
-2.44106e-05
4.26356e-06
-0.00252797
-3.90805e-05
3.43691e-06
-0.00252353
-5.69035e-05
1.91529e-06
-0.00251275
-7.79084e-05
-6.33059e-07
-0.00248991
-9.87033e-05
-5.38756e-06
-0.00243774
-1.23806e-05
-0.002355
-0.000100209
2.10331e-05
2.70226e-06
-0.00280445
9.9102e-06
3.4141e-06
-0.00281134
-8.80134e-07
3.63704e-06
-0.0028145
-1.20391e-05
3.51231e-06
-0.00281538
-2.44576e-05
3.07362e-06
-0.0028138
-3.93566e-05
2.29095e-06
-0.00280929
-5.83342e-05
9.61693e-07
-0.0027983
-8.22291e-05
-1.30802e-06
-0.00277418
-0.000109485
-5.34463e-06
-0.0027144
-1.28531e-05
-0.00261302
-0.000118285
2.05777e-05
1.38519e-06
-0.00308723
9.70133e-06
1.6452e-06
-0.00309425
-7.19295e-07
1.65203e-06
-0.00309748
-1.13826e-05
1.29266e-06
-0.00309848
-2.333e-05
7.09354e-07
-0.00309707
-3.80307e-05
-1.19618e-07
-0.0030928
-5.77518e-05
-1.23449e-06
-0.00308183
-8.46019e-05
-2.87666e-06
-0.00305761
-0.00011805
-5.44287e-06
-0.00299242
-1.12094e-05
-0.00287001
-0.000135751
1.96183e-05
-0.00335241
8.61779e-06
-0.00335866
-1.68362e-06
-0.00336094
-1.20978e-05
-0.00336004
-2.35983e-05
-0.00335595
-3.77104e-05
-0.00334843
-5.6834e-05
-0.00333382
-8.42179e-05
-0.00330562
-0.000121158
-0.00323542
-0.00309798
-0.000149681
7.23131e-06
6.89415e-07
-0.000819208
3.16737e-06
9.33146e-07
-0.00082063
-1.16315e-06
1.04493e-06
-0.00082114
-5.44648e-06
1.01434e-06
-0.000821032
-9.3509e-06
8.43782e-07
-0.000820383
-1.24794e-05
5.25648e-07
-0.0008192
-1.43354e-05
6.1402e-08
-0.000817499
-1.42914e-05
-5.43346e-07
-0.000815323
-1.16287e-05
-1.26318e-06
-0.000812658
-1.9584e-06
-0.000809127
-6.03604e-06
9.79339e-06
1.2926e-06
-0.0010964
4.02124e-06
1.77708e-06
-0.00109833
-1.98448e-06
1.99665e-06
-0.00109929
-8.00832e-06
1.97079e-06
-0.00109916
-1.37539e-05
1.68895e-06
-0.001098
-1.87831e-05
1.13352e-06
-0.00109576
-2.23865e-05
2.81934e-07
-0.00109229
-2.34381e-05
-8.74583e-07
-0.00108733
-2.02299e-05
-2.34546e-06
-0.00108059
-3.82167e-06
-0.00107349
-1.1556e-05
1.31374e-05
2.0199e-06
-0.00137607
5.80989e-06
2.69074e-06
-0.00137879
-1.73008e-06
2.99523e-06
-0.00138023
-9.39004e-06
2.97832e-06
-0.00138017
-1.69596e-05
2.61297e-06
-0.00137856
-2.40236e-05
1.86452e-06
-0.00137522
-2.97299e-05
6.64954e-07
-0.00136969
-3.25104e-05
-1.0215e-06
-0.0013613
-2.94623e-05
-3.28786e-06
-0.00134932
-5.64987e-06
-0.0013365
-1.77564e-05
1.56658e-05
2.70774e-06
-0.00165527
7.14606e-06
3.59178e-06
-0.00165934
-1.60732e-06
3.99248e-06
-0.00166143
-1.06328e-05
4.00413e-06
-0.00166152
-1.98409e-05
3.58457e-06
-0.00165957
-2.89517e-05
2.69215e-06
-0.00165523
-3.71282e-05
1.19757e-06
-0.00164762
-4.24877e-05
-9.75554e-07
-0.00163551
-4.07076e-05
-4.09951e-06
-0.00161676
-7.49103e-06
-0.00159541
-2.66686e-05
1.77926e-05
3.31202e-06
-0.00193867
8.32629e-06
4.30632e-06
-0.00194397
-1.32667e-06
4.74962e-06
-0.00194664
-1.13525e-05
4.76819e-06
-0.00194695
-2.18455e-05
4.315e-06
-0.00194481
-3.27538e-05
3.34141e-06
-0.00193972
-4.34106e-05
1.64641e-06
-0.00193021
-5.17981e-05
-9.11275e-07
-0.00191424
-5.23044e-05
-4.8677e-06
-0.00188726
-9.35205e-06
-0.00185428
-3.71546e-05
1.93587e-05
3.61538e-06
-0.00222209
9.13272e-06
4.65295e-06
-0.0022284
-1.17782e-06
5.08387e-06
-0.00223145
-1.19092e-05
5.08571e-06
-0.00223192
-2.33506e-05
4.60968e-06
-0.00222966
-3.57392e-05
3.61147e-06
-0.00222403
-4.87229e-05
1.83201e-06
-0.00221292
-6.03625e-05
-9.45127e-07
-0.0021933
-6.41711e-05
-5.52919e-06
-0.00215721
-1.10644e-05
-0.00211017
-4.9465e-05
2.02781e-05
3.43124e-06
-0.00250696
9.62411e-06
4.38174e-06
-0.00251397
-9.94984e-07
4.75414e-06
-0.00251727
-1.203e-05
4.70543e-06
-0.00251791
-2.39916e-05
4.22948e-06
-0.00251563
-3.74231e-05
3.27646e-06
-0.00250977
-5.24021e-05
1.56406e-06
-0.00249751
-6.72663e-05
-1.22985e-06
-0.00247476
-7.51752e-05
-6.08573e-06
-0.00242927
-1.26241e-05
-0.00236634
-6.22829e-05
2.04083e-05
2.67647e-06
-0.002792
9.49701e-06
3.45436e-06
-0.0027995
-1.20271e-06
3.72128e-06
-0.00280277
-1.22612e-05
3.62125e-06
-0.00280324
-2.43394e-05
3.16601e-06
-0.00280066
-3.82717e-05
2.31226e-06
-0.00279439
-5.46776e-05
8.33175e-07
-0.00278116
-7.24457e-05
-1.68868e-06
-0.00275595
-8.50573e-05
-6.00736e-06
-0.00270187
-1.32516e-05
-0.00262196
-7.54971e-05
2.0126e-05
1.43517e-06
-0.00307415
9.3816e-06
1.73048e-06
-0.00308178
-1.03883e-06
1.80119e-06
-0.00308514
-1.17162e-05
1.51878e-06
-0.0030857
-2.34755e-05
1.00887e-06
-0.00308315
-3.73805e-05
2.31177e-07
-0.00307682
-5.45816e-05
-8.92694e-07
-0.00306291
-7.52271e-05
-2.64283e-06
-0.00303601
-9.29533e-05
-5.46269e-06
-0.00297524
-1.12245e-05
-0.00287611
-8.88949e-05
1.92774e-05
-0.00333924
8.50129e-06
-0.00334615
-1.72317e-06
-0.00334892
-1.21127e-05
-0.00334813
-2.34572e-05
-0.0033436
-3.69225e-05
-0.00333474
-5.38459e-05
-0.00331779
-7.52694e-05
-0.00328683
-9.6098e-05
-0.00322006
-0.00310584
-9.94744e-05
5.07747e-06
5.74183e-07
-0.000817443
2.2405e-06
7.82788e-07
-0.000818576
-8.25454e-07
8.79037e-07
-0.000818953
-3.82472e-06
8.4626e-07
-0.000818879
-6.46058e-06
6.90441e-07
-0.000818437
-8.41388e-06
4.10836e-07
-0.000817657
-9.34901e-06
2.00101e-08
-0.000816584
-8.92761e-06
-4.64315e-07
-0.00081528
-6.87661e-06
-1.00226e-06
-0.000813706
-1.50719e-06
-0.000811236
-3.25977e-06
7.25742e-06
1.08502e-06
-0.00109304
2.8606e-06
1.52615e-06
-0.00109468
-1.75822e-06
1.72371e-06
-0.00109551
-6.32917e-06
1.68812e-06
-0.00109543
-1.05202e-05
1.41378e-06
-0.00109453
-1.39121e-05
8.95691e-07
-0.00109285
-1.59485e-05
1.36493e-07
-0.00109037
-1.59271e-05
-8.40757e-07
-0.00108698
-1.30058e-05
-1.9933e-06
-0.00108252
-3.10358e-06
-0.00107803
-6.87555e-06
1.06267e-05
1.74356e-06
-0.0013712
4.61827e-06
2.38496e-06
-0.00137364
-1.62365e-06
2.67235e-06
-0.00137494
-7.88124e-06
2.63687e-06
-0.00137486
-1.38375e-05
2.25786e-06
-0.00137345
-1.90125e-05
1.51614e-06
-0.00137067
-2.26197e-05
3.82546e-07
-0.00136633
-2.34762e-05
-1.13055e-06
-0.00136016
-1.98511e-05
-3.00097e-06
-0.00135194
-4.83208e-06
-0.00134381
-1.08171e-05
1.33689e-05
2.41269e-06
-0.00164905
6.01482e-06
3.29721e-06
-0.0016529
-1.63042e-06
3.69351e-06
-0.0016548
-9.42257e-06
3.68025e-06
-0.00165478
-1.70965e-05
3.22333e-06
-0.00165287
-2.41968e-05
2.29431e-06
-0.00164891
-2.97934e-05
8.11922e-07
-0.00164245
-3.22471e-05
-1.23986e-06
-0.00163294
-2.85403e-05
-3.93944e-06
-0.00161953
-6.67221e-06
-0.00160557
-1.65412e-05
1.58061e-05
3.0236e-06
-0.00193106
7.30196e-06
4.04469e-06
-0.00193622
-1.46915e-06
4.49796e-06
-0.00193867
-1.04848e-05
4.49049e-06
-0.00193875
-1.96137e-05
3.9814e-06
-0.00193644
-2.85305e-05
2.9285e-06
-0.00193143
-3.62926e-05
1.18149e-06
-0.00192281
-4.09025e-05
-1.33649e-06
-0.00190953
-3.78607e-05
-4.89286e-06
-0.00188935
-8.64917e-06
-0.00186686
-2.33124e-05
1.77233e-05
3.37306e-06
-0.00221309
8.25947e-06
4.4595e-06
-0.00221936
-1.39053e-06
4.91394e-06
-0.00222221
-1.13503e-05
4.89642e-06
-0.00222237
-2.1653e-05
4.35884e-06
-0.00221973
-3.21867e-05
3.25471e-06
-0.00221382
-4.21404e-05
1.36799e-06
-0.00220315
-4.93274e-05
-1.45783e-06
-0.002186
-4.78439e-05
-5.72334e-06
-0.00215786
-1.05244e-05
-0.00212449
-3.16584e-05
1.8958e-05
3.2634e-06
-0.00249662
8.89057e-06
4.27431e-06
-0.00250372
-1.2568e-06
4.67928e-06
-0.00250689
-1.17345e-05
4.62235e-06
-0.00250715
-2.27834e-05
4.09031e-06
-0.00250431
-3.45531e-05
3.02563e-06
-0.00249777
-4.64971e-05
1.17324e-06
-0.00248537
-5.6423e-05
-1.73425e-06
-0.00246456
-5.72693e-05
-6.39507e-06
-0.00242776
-1.22272e-05
-0.00238152
-4.03966e-05
1.93812e-05
2.58351e-06
-0.00278049
8.9375e-06
3.41889e-06
-0.00278821
-1.42419e-06
3.72126e-06
-0.00279145
-1.20976e-05
3.63657e-06
-0.00279158
-2.34785e-05
3.15772e-06
-0.00278835
-3.59822e-05
2.2335e-06
-0.0027811
-4.94612e-05
6.37944e-07
-0.00276715
-6.20138e-05
-2.01553e-06
-0.00274312
-6.59786e-05
-6.31605e-06
-0.00269799
-1.2913e-05
-0.0026375
-4.97663e-05
1.92901e-05
1.44499e-06
-0.00306189
8.91788e-06
1.7714e-06
-0.00306976
-1.27256e-06
1.89562e-06
-0.00307312
-1.16977e-05
1.67381e-06
-0.00307331
-2.29341e-05
1.21633e-06
-0.00306997
-3.56183e-05
4.68475e-07
-0.00306237
-4.99784e-05
-6.7158e-07
-0.00304724
-6.50011e-05
-2.47073e-06
-0.00302053
-7.27348e-05
-5.33126e-06
-0.00296849
-1.05695e-05
-0.00289185
-5.93458e-05
1.85744e-05
-0.00332681
8.22102e-06
-0.00333402
-1.7368e-06
-0.00333707
-1.18757e-05
-0.00333632
-2.27659e-05
-0.0033315
-3.51788e-05
-0.00332186
-4.95745e-05
-0.00330407
-6.55252e-05
-0.00327335
-7.57699e-05
-0.00321515
-0.00312577
-6.64273e-05
3.46173e-06
4.72975e-07
-0.000816393
1.54636e-06
6.40695e-07
-0.000817302
-5.48176e-07
7.19701e-07
-0.000817578
-2.58033e-06
6.88631e-07
-0.000817536
-4.31809e-06
5.56046e-07
-0.000817256
-5.53063e-06
3.25463e-07
-0.00081677
-6.00847e-06
1.48713e-08
-0.000816121
-5.58084e-06
-3.547e-07
-0.000815353
-4.16489e-06
-7.44997e-07
-0.000814377
-1.10909e-06
-0.000812408
-1.88384e-06
5.06767e-06
8.80616e-07
-0.00109071
1.87004e-06
1.26482e-06
-0.00109211
-1.51491e-06
1.43637e-06
-0.00109284
-4.82666e-06
1.39814e-06
-0.00109283
-7.75897e-06
1.14899e-06
-0.00109219
-9.96573e-06
6.93935e-07
-0.00109101
-1.1056e-05
5.24237e-08
-0.00108932
-1.06312e-05
-7.36705e-07
-0.00108702
-8.33959e-06
-1.61588e-06
-0.00108394
-2.45032e-06
-0.00108083
-4.18979e-06
8.24743e-06
1.44565e-06
-0.00136754
3.5219e-06
2.03788e-06
-0.00136969
-1.43287e-06
2.30151e-06
-0.00137085
-6.3399e-06
2.25579e-06
-0.00137081
-1.08441e-05
1.88717e-06
-0.00136969
-1.44848e-05
1.19176e-06
-0.00136753
-1.6637e-05
1.72736e-07
-0.0013643
-1.65278e-05
-1.12429e-06
-0.00135988
-1.32833e-05
-2.61842e-06
-0.00135418
-4.02449e-06
-0.00134876
-6.76009e-06
1.10209e-05
2.07251e-06
-0.00164417
4.90865e-06
2.93308e-06
-0.00164768
-1.52783e-06
3.31539e-06
-0.00164938
-8.01603e-06
3.28395e-06
-0.00164932
-1.41824e-05
2.81508e-06
-0.00164763
-1.95035e-05
1.8969e-06
-0.00164429
-2.31368e-05
4.94758e-07
-0.00163914
-2.38743e-05
-1.35677e-06
-0.00163197
-1.99304e-05
-3.61088e-06
-0.00162248
-5.7802e-06
-0.00161307
-1.06773e-05
1.36322e-05
2.67244e-06
-0.00192479
6.24552e-06
3.69305e-06
-0.00192959
-1.46871e-06
4.14448e-06
-0.00193179
-9.31476e-06
4.11473e-06
-0.00193173
-1.69915e-05
3.5726e-06
-0.00192952
-2.4009e-05
2.48901e-06
-0.00192501
-2.9387e-05
7.69946e-07
-0.00191771
-3.14872e-05
-1.59791e-06
-0.00190719
-2.7287e-05
-4.67744e-06
-0.00189248
-7.76168e-06
-0.00187691
-1.52628e-05
1.58072e-05
3.05718e-06
-0.0022054
7.30874e-06
4.16577e-06
-0.00221133
-1.46286e-06
4.63114e-06
-0.00221393
-1.0433e-05
4.59427e-06
-0.00221388
-1.94185e-05
4.01237e-06
-0.00221119
-2.80531e-05
2.84559e-06
-0.00220554
-3.53322e-05
9.34461e-07
-0.00219604
-3.92899e-05
-1.80706e-06
-0.00218183
-3.55216e-05
-5.61278e-06
-0.0021607
-9.67209e-06
-0.00213697
-2.11456e-05
1.72984e-05
3.02682e-06
-0.00248752
8.04699e-06
4.0752e-06
-0.00249437
-1.39115e-06
4.50139e-06
-0.00249732
-1.10614e-05
4.43412e-06
-0.00249732
-2.09573e-05
3.85762e-06
-0.00249426
-3.09047e-05
2.71567e-06
-0.00248769
-3.99994e-05
7.98903e-07
-0.00247614
-4.60862e-05
-2.08152e-06
-0.00245819
-4.33869e-05
-6.34584e-06
-0.00242973
-1.13646e-05
-0.00239604
-2.7178e-05
1.79917e-05
2.42616e-06
-0.00277012
8.24782e-06
3.30343e-06
-0.00277769
-1.53943e-06
3.63037e-06
-0.00278079
-1.15698e-05
3.55363e-06
-0.00278067
-2.19823e-05
3.05161e-06
-0.00277713
-3.28222e-05
2.0727e-06
-0.00276961
-4.34256e-05
4.14525e-07
-0.00275616
-5.16914e-05
-2.23478e-06
-0.0027347
-5.08672e-05
-6.26683e-06
-0.0026989
-1.19791e-05
-0.00265391
-3.38591e-05
1.80895e-05
1.41184e-06
-0.00305069
8.31754e-06
1.76114e-06
-0.00305845
-1.41335e-06
1.92739e-06
-0.00306169
-1.1331e-05
1.75132e-06
-0.00306159
-2.1763e-05
1.3307e-06
-0.00305782
-3.29583e-05
6.02527e-07
-0.0030497
-4.45071e-05
-5.42496e-07
-0.00303473
-5.47875e-05
-2.32091e-06
-0.00301017
-5.64912e-05
-5.04664e-06
-0.00296802
-9.48069e-06
-0.00291044
-4.04231e-05
1.75215e-05
-0.00331538
7.78323e-06
-0.00332253
-1.71287e-06
-0.00332564
-1.1377e-05
-0.0033249
-2.15502e-05
-0.00331999
-3.26284e-05
-0.00331017
-4.44373e-05
-0.0032928
-5.56967e-05
-0.00326442
-5.93689e-05
-0.00321653
-0.00314969
-4.49574e-05
2.32092e-06
3.90144e-07
-0.000815808
1.0594e-06
5.17659e-07
-0.000816558
-3.34695e-07
5.80201e-07
-0.000816764
-1.67903e-06
5.53268e-07
-0.000816745
-2.80632e-06
4.47103e-07
-0.000816575
-3.55918e-06
2.67047e-07
-0.000816284
-3.8116e-06
3.22041e-08
-0.000815901
-3.47911e-06
-2.37952e-07
-0.000815448
-2.54388e-06
-5.12998e-07
-0.0008148
-7.73436e-07
-0.000813083
-1.096e-06
3.29941e-06
6.94631e-07
-0.00108915
1.07945e-06
1.01659e-06
-0.00109039
-1.28404e-06
1.16113e-06
-0.00109106
-3.57334e-06
1.12584e-06
-0.00109111
-5.53628e-06
9.13057e-07
-0.00109069
-6.91106e-06
5.34159e-07
-0.0010899
-7.44107e-06
1.71899e-08
-0.00108877
-6.91557e-06
-5.94512e-07
-0.00108719
-5.21506e-06
-1.24782e-06
-0.00108491
-1.87202e-06
-0.00108251
-2.4415e-06
6.15227e-06
1.15343e-06
-0.00136488
2.57921e-06
1.68225e-06
-0.00136678
-1.19908e-06
1.9173e-06
-0.00136782
-4.90091e-06
1.86909e-06
-0.00136785
-8.18522e-06
1.53073e-06
-0.00136702
-1.06552e-05
9.10598e-07
-0.00136543
-1.18509e-05
3.37648e-08
-0.00136312
-1.13044e-05
-1.03686e-06
-0.00135998
-8.64464e-06
-2.20056e-06
-0.00135589
-3.26891e-06
-0.00135197
-4.03574e-06
8.79121e-06
1.72001e-06
-0.00164051
3.8902e-06
2.53305e-06
-0.00164363
-1.34166e-06
2.89199e-06
-0.00164512
-6.56447e-06
2.85003e-06
-0.00164507
-1.13634e-05
2.39461e-06
-0.00164369
-1.52259e-05
1.53e-06
-0.00164105
-1.74641e-05
2.59184e-07
-0.00163713
-1.72618e-05
-1.34923e-06
-0.00163186
-1.36971e-05
-3.18324e-06
-0.00162506
-4.88483e-06
-0.00161834
-6.81529e-06
1.14263e-05
2.29069e-06
-0.00191982
5.21449e-06
3.28062e-06
-0.00192413
-1.35824e-06
3.71726e-06
-0.00192604
-7.9775e-06
3.67124e-06
-0.00192593
-1.42421e-05
3.1229e-06
-0.00192399
-1.95996e-05
2.05967e-06
-0.00192018
-2.31645e-05
4.39582e-07
-0.00191433
-2.37148e-05
-1.6993e-06
-0.00190629
-1.94584e-05
-4.28859e-06
-0.00189564
-6.78369e-06
-0.00188442
-1.00516e-05
1.37378e-05
2.6949e-06
-0.00219905
6.3284e-06
3.79319e-06
-0.00220443
-1.41615e-06
4.25479e-06
-0.00220672
-9.26358e-06
4.20143e-06
-0.00220656
-1.68782e-05
3.59903e-06
-0.00220405
-2.37493e-05
2.42098e-06
-0.00219903
-2.88681e-05
5.67367e-07
-0.00219105
-3.0644e-05
-1.98083e-06
-0.00217977
-2.61803e-05
-5.26138e-06
-0.0021642
-8.62347e-06
-0.00214693
-1.43848e-05
1.53956e-05
2.73973e-06
-0.00247977
7.12983e-06
3.79581e-06
-0.00248611
-1.40934e-06
4.22919e-06
-0.00248876
-1.00866e-05
4.15186e-06
-0.0024886
-1.86997e-05
3.54962e-06
-0.0024856
-2.68551e-05
2.37578e-06
-0.00247949
-3.35183e-05
4.7629e-07
-0.00246938
-3.68137e-05
-2.25254e-06
-0.00245463
-3.26031e-05
-6.00252e-06
-0.0024332
-1.01894e-05
-0.00240845
-1.86411e-05
1.6311e-05
2.21342e-06
-0.00276105
7.45544e-06
3.11057e-06
-0.00276815
-1.55253e-06
3.44936e-06
-0.002771
-1.0728e-05
3.37567e-06
-0.00277071
-1.99911e-05
2.85815e-06
-0.00276717
-2.91101e-05
1.85228e-06
-0.00275997
-3.71581e-05
1.94381e-07
-0.00274783
-4.21395e-05
-2.33401e-06
-0.00272964
-3.89224e-05
-5.93373e-06
-0.00270219
-1.06611e-05
-0.00266884
-2.35376e-05
1.65749e-05
1.33748e-06
-0.00304073
7.5999e-06
1.69747e-06
-0.00304806
-1.46138e-06
1.89348e-06