/*--------------------------------*- C++ -*----------------------------------*\
| =========                 |                                                 |
| \\      /  F ield         | foam-extend: Open Source CFD                    |
|  \\    /   O peration     | Version:     4.0                                |
|   \\  /    A nd           | Web:         http://www.foam-extend.org         |
|    \\/     M anipulation  |                                                 |
\*---------------------------------------------------------------------------*/
FoamFile
{
    version     2.0;
    format      ascii;
    class       volVectorField;
    location    "450";
    object      U;
}
// * * * * * * * * * * * * * * * * * * * * * * * * * * * * * * * * * * * * * //

dimensions      [0 1 -1 0 0 0 0];

internalField   nonuniform List<vector> 
34480
(
(198.541 2.23812 3.35458)
(198.967 1.36239 1.77422)
(199.228 0.651587 0.133972)
(199.36 0.0795684 -1.64011)
(199.365 -0.373515 -3.67346)
(199.22 -0.705295 -6.1553)
(198.86 -0.88809 -9.48398)
(198.015 -0.803288 -13.9846)
(195.695 -0.228687 -21.7681)
(189.046 2.25187 -48.5884)
(198.763 3.13932 3.15493)
(199.138 2.43991 1.47743)
(199.405 1.82181 -0.198007)
(199.556 1.2773 -1.97213)
(199.548 0.78922 -3.95465)
(199.341 0.336907 -6.38093)
(198.893 -0.0944588 -9.70648)
(197.987 -0.45055 -14.6399)
(195.247 -0.58615 -23.2954)
(187.702 1.13959 -53.8635)
(198.764 3.05222 3.5191)
(199.155 2.30413 1.83565)
(199.461 1.63556 0.138472)
(199.656 1.05893 -1.62483)
(199.693 0.537492 -3.59097)
(199.579 0.0475866 -6.04963)
(199.288 -0.416393 -9.50962)
(198.627 -0.774443 -14.9713)
(195.852 -0.872326 -24.482)
(187.618 1.09304 -58.1698)
(198.487 3.77203 3.35329)
(198.916 3.05484 1.64333)
(199.276 2.40219 -0.0391699)
(199.541 1.83869 -1.78518)
(199.677 1.32788 -3.74046)
(199.711 0.852994 -6.22106)
(199.599 0.415663 -9.73704)
(199.204 0.110339 -15.5372)
(196.563 0.0831847 -25.6701)
(187.855 2.20958 -61.4393)
(198.522 3.3249 3.73397)
(199.001 2.51762 2.00274)
(199.404 1.80269 0.272988)
(199.73 1.20618 -1.51168)
(199.958 0.673123 -3.51999)
(200.131 0.192906 -6.07902)
(200.194 -0.226958 -9.6996)
(200.067 -0.479335 -15.8481)
(197.671 -0.389753 -26.6593)
(188.601 1.94578 -64.0979)
(198.434 3.95252 3.44571)
(198.917 3.13961 1.72042)
(199.315 2.42589 0.0413607)
(199.65 1.84374 -1.68871)
(199.924 1.34718 -3.63416)
(200.205 0.923649 -6.14473)
(200.442 0.580204 -9.72329)
(200.601 0.424733 -16.0295)
(198.585 0.64932 -27.3382)
(189.356 3.11529 -66.0758)
(198.622 3.02002 3.89074)
(199.107 2.10294 2.16122)
(199.48 1.31426 0.447152)
(199.805 0.677955 -1.29069)
(200.103 0.139026 -3.24982)
(200.472 -0.310967 -5.78334)
(200.878 -0.647507 -9.40837)
(201.331 -0.748267 -15.9233)
(199.778 -0.320354 -27.8258)
(190.455 2.45945 -67.697)
(198.617 3.54669 3.45077)
(199.06 2.62681 1.72995)
(199.355 1.86929 0.0807436)
(199.59 1.27443 -1.58401)
(199.816 0.809269 -3.4333)
(200.16 0.442255 -5.83017)
(200.645 0.207568 -9.28843)
(201.329 0.231234 -15.7056)
(200.311 0.951037 -27.8251)
(191.179 4.07722 -68.3363)
(198.685 2.0919 4.0522)
(199.147 1.06238 2.33886)
(199.432 0.193244 0.682277)
(199.663 -0.539276 -0.960492)
(199.905 -1.17016 -2.80084)
(200.288 -1.71577 -5.19134)
(200.884 -2.1005 -8.70233)
(201.803 -2.14997 -15.2201)
(201.257 -1.10837 -27.7394)
(192.142 2.93252 -68.2985)
(197.933 2.75931 3.55269)
(198.294 1.60994 1.75693)
(198.317 0.735116 0.0759769)
(198.1 0.0214528 -1.5893)
(197.747 -0.531649 -3.39609)
(197.416 -0.954598 -5.68136)
(197.246 -1.16299 -8.97124)
(197.487 -0.937328 -14.9785)
(196.954 0.501991 -26.6942)
(189.107 5.34249 -65.417)
(195.462 1.98846 3.02362)
(196.029 1.25569 1.69168)
(196.302 0.634516 0.269235)
(196.322 0.132144 -1.23343)
(196.071 -0.262258 -2.86)
(195.467 -0.552235 -4.64052)
(194.316 -0.738308 -6.63667)
(192.187 -0.831007 -8.83211)
(189.001 -0.904056 -10.866)
(184.671 -0.779026 -14.2674)
(196.043 2.92819 2.95325)
(196.556 2.32537 1.43758)
(196.848 1.77419 -0.0811577)
(196.912 1.27694 -1.67563)
(196.694 0.827294 -3.39466)
(196.086 0.411099 -5.31566)
(194.886 0.0048785 -7.54336)
(192.607 -0.437101 -10.338)
(188.748 -1.0505 -13.4335)
(183.528 -1.28593 -20.4973)
(196.404 2.86514 3.41121)
(196.923 2.17533 1.82539)
(197.258 1.5507 0.214985)
(197.385 1.0079 -1.4611)
(197.229 0.52191 -3.26556)
(196.705 0.0735682 -5.30866)
(195.619 -0.370504 -7.79187)
(193.456 -0.827672 -11.2677)
(189.35 -1.41458 -15.552)
(183.477 -1.30375 -26.5684)
(196.398 3.61312 3.30956)
(196.966 2.94886 1.66972)
(197.36 2.33437 0.0482238)
(197.564 1.79798 -1.64118)
(197.511 1.31354 -3.47606)
(197.132 0.86771 -5.61203)
(196.214 0.431552 -8.28017)
(194.247 0.0180546 -12.2766)
(190.063 -0.488847 -17.5243)
(183.646 -0.0123627 -32.2465)
(196.669 3.18455 3.74235)
(197.29 2.42701 2.06499)
(197.728 1.74658 0.378189)
(197.999 1.17675 -1.36892)
(198.045 0.672607 -3.28687)
(197.817 0.223485 -5.56187)
(197.083 -0.201681 -8.43687)
(195.36 -0.567089 -12.9316)
(191.226 -0.954054 -19.1295)
(184.313 -0.0316154 -37.4381)
(196.762 3.85532 3.49765)
(197.395 3.08854 1.81082)
(197.836 2.40348 0.163189)
(198.128 1.83978 -1.54123)
(198.234 1.3586 -3.41399)
(198.137 0.949378 -5.68934)
(197.593 0.586281 -8.61026)
(196.158 0.31549 -13.4035)
(192.229 0.0827413 -20.3232)
(184.976 1.39098 -41.9382)
(197.098 2.94895 3.97584)
(197.732 2.07355 2.27582)
(198.156 1.31284 0.58077)
(198.454 0.699794 -1.14177)
(198.601 0.188062 -3.04534)
(198.616 -0.233399 -5.38384)
(198.266 -0.579997 -8.41899)
(197.147 -0.795775 -13.5308)
(193.546 -0.825776 -21.224)
(186.035 0.968381 -45.9409)
(197.183 3.53064 3.56025)
(197.784 2.64699 1.86526)
(198.146 1.91131 0.239215)
(198.376 1.33106 -1.40706)
(198.482 0.881929 -3.20331)
(198.517 0.531686 -5.43817)
(198.292 0.282847 -8.37677)
(197.463 0.180648 -13.5193)
(194.31 0.446954 -21.6264)
(186.815 2.61783 -48.9075)
(197.316 2.09808 4.17578)
(197.926 1.10111 2.486)
(198.28 0.270747 0.841755)
(198.513 -0.411783 -0.781549)
(198.65 -0.977382 -2.56915)
(198.755 -1.44804 -4.81343)
(198.687 -1.77836 -7.85311)
(198.174 -1.9057 -13.2011)
(195.503 -1.32478 -21.9757)
(187.898 1.51909 -51.1466)
(196.604 2.8381 3.65347)
(197.138 1.72691 1.92102)
(197.313 0.900089 0.297601)
(197.225 0.233757 -1.30988)
(196.941 -0.263493 -3.0249)
(196.554 -0.631392 -5.143)
(195.993 -0.812161 -7.99682)
(195.122 -0.686819 -13.0006)
(192.651 0.301513 -21.5834)
(185.985 4.17471 -51.1027)
(193.104 1.53183 2.32015)
(193.681 0.985865 1.29567)
(193.928 0.500166 0.163371)
(193.902 0.0971987 -1.01826)
(193.598 -0.226953 -2.25616)
(192.967 -0.472333 -3.50943)
(191.913 -0.645691 -4.73542)
(190.275 -0.771637 -5.78907)
(187.829 -0.93445 -6.32963)
(184.583 -1.12066 -6.52407)
(193.793 2.51525 2.3691)
(194.349 2.05222 1.09659)
(194.63 1.60215 -0.187558)
(194.634 1.17644 -1.5237)
(194.33 0.77628 -2.92751)
(193.637 0.390994 -4.41605)
(192.379 0.00145878 -5.96224)
(190.246 -0.437256 -7.50799)
(186.744 -1.05946 -8.55114)
(182.032 -1.67733 -9.93122)
(194.359 2.492 2.9521)
(194.939 1.90615 1.54758)
(195.268 1.35885 0.107957)
(195.335 0.870314 -1.38929)
(195.084 0.420542 -2.98313)
(194.414 -0.00575835 -4.70865)
(193.106 -0.440713 -6.59044)
(190.758 -0.920374 -8.74293)
(186.494 -1.60218 -10.5805)
(180.387 -2.18542 -13.6845)
(194.555 3.29077 2.91644)
(195.205 2.71597 1.42345)
(195.597 2.16705 -0.0644891)
(195.733 1.67444 -1.6183)
(195.559 1.21682 -3.29655)
(194.976 0.782367 -5.18043)
(193.719 0.337574 -7.33099)
(191.306 -0.135392 -10.0347)
(186.439 -0.821783 -12.6318)
(179.04 -1.28448 -17.6439)
(195.02 2.88863 3.41065)
(195.731 2.21379 1.85112)
(196.167 1.59283 0.268346)
(196.366 1.06167 -1.37573)
(196.274 0.5809 -3.17783)
(195.805 0.141329 -5.25688)
(194.652 -0.295336 -7.7031)
(192.277 -0.732333 -10.9871)
(186.975 -1.36147 -14.4371)
(178.407 -1.57986 -21.6606)
(195.269 3.61023 3.21238)
(196 2.91796 1.62409)
(196.444 2.28552 0.0597433)
(196.671 1.75455 -1.56649)
(196.637 1.2897 -3.35614)
(196.278 0.881041 -5.4837)
(195.261 0.492995 -8.06072)
(193.013 0.130057 -11.7554)
(187.469 -0.396399 -15.9231)
(177.939 -0.363659 -25.4419)
(195.73 2.73074 3.7358)
(196.465 1.92534 2.11704)
(196.899 1.21535 0.487887)
(197.141 0.636152 -1.17755)
(197.154 0.144965 -3.02483)
(196.901 -0.266734 -5.25687)
(196.041 -0.624873 -8.02356)
(193.99 -0.9184 -12.1575)
(188.378 -1.27219 -17.1384)
(178.035 -0.88058 -29.0584)
(195.903 3.3726 3.33868)
(196.611 2.55384 1.72299)
(196.997 1.86284 0.161016)
(197.189 1.31146 -1.43411)
(197.178 0.876715 -3.18654)
(196.96 0.53287 -5.34425)
(196.222 0.269802 -8.0827)
(194.395 0.0876767 -12.3898)
(188.91 0.00414599 -17.9149)
(178.014 0.670011 -31.9811)
(196.114 1.94677 3.96426)
(196.816 1.01002 2.34819)
(197.194 0.233367 0.755371)
(197.392 -0.396404 -0.831939)
(197.407 -0.911122 -2.58837)
(197.257 -1.32783 -4.76624)
(196.666 -1.6121 -7.63663)
(195.122 -1.73743 -12.2604)
(189.91 -1.4588 -18.6165)
(178.341 -0.307075 -34.3443)
(195.464 2.74814 3.40559)
(196.088 1.71194 1.78635)
(196.33 0.94909 0.25182)
(196.288 0.339795 -1.28925)
(195.993 -0.104922 -2.95101)
(195.485 -0.418376 -4.99514)
(194.559 -0.55189 -7.69405)
(192.814 -0.417614 -12.0749)
(187.81 0.304362 -18.567)
(176.334 2.45474 -34.8784)
(191.379 1.07778 1.66101)
(191.882 0.706717 0.937659)
(192.083 0.356151 0.104429)
(192.041 0.0551841 -0.752316)
(191.76 -0.19602 -1.62157)
(191.222 -0.39454 -2.4315)
(190.393 -0.55054 -3.11985)
(189.236 -0.686678 -3.55206)
(187.711 -0.85745 -3.5151)
(185.849 -1.10189 -2.79457)
(192.012 2.05074 1.76731)
(192.533 1.73394 0.765315)
(192.783 1.39663 -0.251463)
(192.753 1.05597 -1.29656)
(192.427 0.720648 -2.35677)
(191.759 0.383792 -3.41197)
(190.659 0.0310607 -4.39431)
(188.974 -0.372484 -5.17368)
(186.508 -0.917386 -5.32659)
(183.633 -1.54314 -4.77343)
(192.656 2.03971 2.42953)
(193.23 1.57894 1.25158)
(193.532 1.12738 0.0325455)
(193.546 0.708874 -1.22493)
(193.234 0.308869 -2.53627)
(192.523 -0.0839648 -3.89517)
(191.259 -0.494493 -5.24683)
(189.198 -0.955286 -6.50808)
(185.928 -1.59006 -7.08883)
(181.905 -2.31309 -7.06222)
(192.975 2.88931 2.44711)
(193.646 2.42703 1.14799)
(194.012 1.96154 -0.156685)
(194.08 1.52692 -1.51193)
(193.806 1.10808 -2.95292)
(193.108 0.695669 -4.51155)
(191.771 0.259186 -6.15802)
(189.464 -0.22804 -7.89615)
(185.44 -0.92962 -8.95602)
(180.174 -1.70084 -9.6668)
(193.572 2.51968 3.00148)
(194.317 1.94925 1.60319)
(194.727 1.40387 0.169741)
(194.846 0.922579 -1.31306)
(194.626 0.472776 -2.91918)
(193.982 0.0473946 -4.71531)
(192.645 -0.39003 -6.70197)
(190.198 -0.857238 -9.00106)
(185.509 -1.55362 -10.6965)
(179.003 -2.25269 -12.5046)
(193.937 3.2971 2.8498)
(194.712 2.69947 1.40026)
(195.135 2.13441 -0.040414)
(195.281 1.64682 -1.53634)
(195.105 1.2067 -3.16843)
(194.53 0.805161 -5.05663)
(193.241 0.403845 -7.22845)
(190.756 -0.0156601 -9.95661)
(185.543 -0.671767 -12.2201)
(177.915 -1.2714 -15.3103)
(194.493 2.45345 3.41998)
(195.278 1.73632 1.91891)
(195.697 1.08986 0.391711)
(195.862 0.552743 -1.17051)
(195.727 0.0866861 -2.89352)
(195.233 -0.315028 -4.92679)
(194.033 -0.682743 -7.3436)
(191.593 -1.02733 -10.5545)
(186.012 -1.54967 -13.529)
(177.377 -1.93737 -18.1487)
(194.74 3.16749 3.04281)
(195.504 2.43035 1.54005)
(195.887 1.79524 0.0732939)
(196.018 1.28048 -1.43208)
(195.869 0.864958 -3.08204)
(195.404 0.528362 -5.07327)
(194.283 0.251597 -7.5124)
(191.952 0.00694015 -10.9658)
(186.213 -0.300071 -14.4687)
(176.776 -0.533615 -20.5538)
(195.019 1.75735 3.69727)
(195.767 0.896127 2.18545)
(196.142 0.178688 0.671237)
(196.281 -0.39885 -0.848354)
(196.159 -0.867777 -2.52712)
(195.75 -1.24009 -4.56112)
(194.724 -1.49531 -7.14125)
(192.566 -1.63453 -10.933)
(186.89 -1.57125 -15.3086)
(176.572 -1.46183 -22.6256)
(194.433 2.633 3.11284)
(195.104 1.68346 1.6273)
(195.381 0.987299 0.197932)
(195.348 0.434029 -1.25512)
(195.01 0.0376472 -2.82875)
(194.358 -0.2294 -4.73562)
(193.112 -0.328936 -7.17106)
(190.8 -0.20033 -10.7894)
(185.222 0.316335 -15.4301)
(174.584 1.34707 -23.2238)
(190.189 0.698119 1.13499)
(190.591 0.458711 0.654316)
(190.744 0.218622 0.0745509)
(190.707 0.00486276 -0.510721)
(190.493 -0.182423 -1.09137)
(190.103 -0.337704 -1.5943)
(189.538 -0.469321 -1.97364)
(188.813 -0.592424 -2.13787)
(187.94 -0.731864 -1.99558)
(186.905 -0.911288 -1.45817)
(190.672 1.61257 1.22467)
(191.121 1.41978 0.476985)
(191.335 1.1865 -0.282149)
(191.3 0.929527 -1.05316)
(191.014 0.662716 -1.80749)
(190.463 0.384066 -2.50879)
(189.612 0.0859677 -3.09006)
(188.412 -0.252951 -3.43872)
(186.812 -0.681265 -3.33019)
(185.145 -1.16753 -2.66597)
(191.294 1.5717 1.91807)
(191.824 1.23347 0.977593)
(192.095 0.880052 -0.00723219)
(192.084 0.536659 -1.01269)
(191.773 0.194572 -2.03289)
(191.122 -0.152615 -3.03638)
(190.044 -0.521499 -3.94845)
(188.428 -0.933125 -4.63959)
(186.127 -1.46056 -4.71919)
(183.652 -2.06035 -4.06276)
(191.662 2.45445 1.96557)
(192.314 2.11086 0.882175)
(192.65 1.73581 -0.215646)
(192.674 1.36657 -1.34699)
(192.363 0.995825 -2.52083)
(191.656 0.61804 -3.73084)
(190.417 0.208898 -4.90927)
(188.463 -0.25532 -5.94776)
(185.438 -0.883059 -6.26701)
(181.975 -1.60476 -5.7159)
(192.324 2.11179 2.56678)
(193.065 1.65546 1.35631)
(193.445 1.19416 0.0998513)
(193.507 0.770123 -1.19112)
(193.217 0.359432 -2.56105)
(192.504 -0.0424383 -4.02904)
(191.171 -0.466644 -5.54604)
(188.961 -0.931704 -7.06018)
(185.226 -1.59079 -7.79891)
(180.666 -2.34153 -7.63958)
(192.755 2.94141 2.45421)
(193.54 2.44962 1.17135)
(193.939 1.96095 -0.117281)
(194.023 1.52401 -1.45069)
(193.756 1.11651 -2.88043)
(193.063 0.731106 -4.47075)
(191.692 0.330769 -6.19228)
(189.315 -0.11238 -8.08937)
(184.946 -0.782339 -9.21386)
(179.304 -1.54832 -9.60031)
(193.366 2.1364 3.06543)
(194.172 1.51956 1.71)
(194.573 0.945442 0.3126)
(194.677 0.456763 -1.11453)
(194.439 0.0219009 -2.66739)
(193.79 -0.364736 -4.43627)
(192.433 -0.735165 -6.43285)
(189.974 -1.10915 -8.79708)
(185.078 -1.68477 -10.4788)
(178.398 -2.35628 -11.6776)
(193.664 2.92778 2.70531)
(194.458 2.28453 1.34124)
(194.834 1.7142 -0.00504045)
(194.915 1.24283 -1.39147)
(194.668 0.853223 -2.89641)
(194.034 0.5291 -4.65595)
(192.7 0.245005 -6.70978)
(190.236 -0.0426631 -9.32816)
(184.998 -0.465328 -11.4385)
(177.415 -1.08991 -13.4756)
(193.996 1.53422 3.39212)
(194.771 0.761225 2.00849)
(195.139 0.109143 0.596812)
(195.23 -0.41459 -0.826756)
(195.006 -0.838855 -2.38921)
(194.416 -1.17167 -4.22432)
(193.133 -1.40525 -6.43951)
(190.719 -1.56018 -9.36852)
(185.357 -1.64033 -12.2488)
(176.802 -2.02468 -15.0893)
(193.469 2.49514 2.78285)
(194.167 1.64174 1.44642)
(194.467 1.01594 0.137656)
(194.437 0.519233 -1.20666)
(194.065 0.16936 -2.66087)
(193.309 -0.0559661 -4.38272)
(191.881 -0.129523 -6.48745)
(189.333 -0.0140769 -9.31055)
(183.944 0.344807 -12.4307)
(174.852 0.764782 -15.5208)
(189.403 0.409018 0.75451)
(189.712 0.257958 0.451527)
(189.823 0.0982735 0.0636965)
(189.797 -0.0481486 -0.317776)
(189.65 -0.183563 -0.692447)
(189.39 -0.30074 -0.996799)
(189.031 -0.405114 -1.20566)
(188.595 -0.50478 -1.26237)
(188.09 -0.608098 -1.1345)
(187.426 -0.729205 -0.791459)
(189.719 1.24174 0.777221)
(190.085 1.14144 0.244914)
(190.264 0.993782 -0.291097)
(190.237 0.811136 -0.828775)
(190.013 0.609576 -1.3363)
(189.597 0.390804 -1.77697)
(188.986 0.153086 -2.09927)
(188.169 -0.114415 -2.22447)
(187.14 -0.434818 -2.05194)
(186.129 -0.797499 -1.52952)
(190.268 1.13497 1.46235)
(190.73 0.901048 0.742987)
(190.965 0.637226 -0.0196689)
(190.947 0.366766 -0.789887)
(190.673 0.0854291 -1.54891)
(190.128 -0.208509 -2.2548)
(189.28 -0.523786 -2.83902)
(188.089 -0.870565 -3.1897)
(186.53 -1.28556 -3.08967)
(184.996 -1.74434 -2.43889)
(190.633 2.02622 1.5112)
(191.233 1.79252 0.642301)
(191.532 1.50561 -0.245758)
(191.532 1.20367 -1.15278)
(191.225 0.886675 -2.06739)
(190.581 0.553501 -2.95919)
(189.526 0.187688 -3.75223)
(187.985 -0.227499 -4.31894)
(185.83 -0.752509 -4.30044)
(183.594 -1.34571 -3.49892)
(191.303 1.69645 2.13781)
(192.005 1.35145 1.1241)
(192.347 0.97567 0.057233)
(192.37 0.612858 -1.03037)
(192.055 0.248022 -2.15641)
(191.355 -0.12026 -3.30428)
(190.145 -0.515836 -4.40225)
(188.296 -0.952863 -5.33306)
(185.504 -1.53129 -5.57144)
(182.418 -2.19319 -4.81301)
(191.756 2.56648 2.05032)
(192.514 2.18189 0.948964)
(192.879 1.77332 -0.169911)
(192.918 1.39186 -1.32243)
(192.604 1.02379 -2.53121)
(191.877 0.664153 -3.81359)
(190.562 0.280974 -5.10504)
(188.469 -0.155485 -6.33472)
(185.059 -0.776502 -6.80637)
(181.071 -1.51602 -6.17216)
(192.385 1.79652 2.69138)
(193.177 1.2845 1.49986)
(193.55 0.787752 0.252806)
(193.606 0.352379 -1.01702)
(193.304 -0.0453274 -2.37412)
(192.583 -0.40947 -3.85527)
(191.214 -0.770769 -5.42581)
(188.949 -1.15168 -7.06527)
(184.979 -1.71318 -7.95258)
(180.073 -2.42784 -7.6712)
(192.707 2.66441 2.34187)
(193.497 2.12166 1.13476)
(193.857 1.62236 -0.0709815)
(193.897 1.19993 -1.31553)
(193.584 0.842509 -2.64718)
(192.858 0.537678 -4.14481)
(191.461 0.257703 -5.79104)
(189.097 -0.048183 -7.65633)
(184.707 -0.508775 -8.85143)
(178.95 -1.24739 -8.9678)
(193.076 1.28395 3.06051)
(193.848 0.607517 1.8229)
(194.202 0.0255912 0.533928)
(194.251 -0.442778 -0.769525)
(193.954 -0.822676 -2.18541)
(193.254 -1.11867 -3.78943)
(191.867 -1.33259 -5.62051)
(189.461 -1.49484 -7.77122)
(184.835 -1.65577 -9.56406)
(178.162 -2.21221 -10.1495)
(192.596 2.33989 2.42517)
(193.295 1.5892 1.24886)
(193.603 1.03679 0.0741325)
(193.569 0.597354 -1.14304)
(193.173 0.292607 -2.452)
(192.359 0.104815 -3.95751)
(190.867 0.0511062 -5.70488)
(188.333 0.150954 -7.804)
(183.595 0.39323 -9.76995)
(176.373 0.514885 -10.4337)
(188.912 0.20165 0.500413)
(189.149 0.104666 0.318558)
(189.228 -0.00147419 0.0642463)
(189.212 -0.0997282 -0.176256)
(189.118 -0.195619 -0.414287)
(188.956 -0.281078 -0.597576)
(188.738 -0.35927 -0.716982)
(188.483 -0.433331 -0.73788)
(188.184 -0.503389 -0.653162)
(187.701 -0.577714 -0.45292)
(189.079 0.952561 0.433272)
(189.373 0.914717 0.0700694)
(189.523 0.831691 -0.287803)
(189.509 0.710029 -0.641754)
(189.349 0.565822 -0.96384)
(189.055 0.402919 -1.22435)
(188.638 0.223622 -1.38917)
(188.094 0.023726 -1.40884)
(187.416 -0.207859 -1.24679)
(186.765 -0.473108 -0.888609)
(189.536 0.756926 1.08462)
(189.925 0.603136 0.554708)
(190.126 0.414353 -0.013778)
(190.112 0.209439 -0.581667)
(189.891 -0.0131911 -1.1257)
(189.467 -0.251732 -1.60437)
(188.835 -0.508614 -1.9641)
(187.988 -0.785947 -2.12517)
(186.937 -1.09902 -1.98186)
(185.959 -1.43603 -1.49553)
(189.872 1.63414 1.10891)
(190.402 1.49254 0.436953)
(190.66 1.2847 -0.254359)
(190.651 1.0472 -0.953829)
(190.378 0.785575 -1.63838)
(189.834 0.502684 -2.2675)
(188.991 0.189739 -2.77265)
(187.83 -0.16234 -3.04519)
(186.327 -0.581119 -2.88973)
(184.864 -1.04138 -2.18377)
(190.509 1.30043 1.73758)
(191.145 1.05478 0.914783)
(191.444 0.759855 0.0364681)
(191.445 0.458504 -0.851537)
(191.142 0.143612 -1.74733)
(190.51 -0.183065 -2.61385)
(189.484 -0.537427 -3.37584)
(188.016 -0.927606 -3.90856)
(185.996 -1.41098 -3.89643)
(183.904 -1.95004 -3.09512)
(190.947 2.19414 1.65829)
(191.649 1.90973 0.740906)
(191.974 1.57982 -0.20153)
(191.982 1.25586 -1.16743)
(191.659 0.932135 -2.156)
(190.966 0.606595 -3.15251)
(189.793 0.254623 -4.07784)
(188.053 -0.150142 -4.81715)
(185.497 -0.690396 -4.91918)
(182.703 -1.33176 -4.03398)
(191.562 1.45105 2.31476)
(192.309 1.0412 1.29526)
(192.648 0.622757 0.210609)
(192.669 0.243491 -0.88962)
(192.341 -0.112273 -2.0418)
(191.618 -0.446679 -3.24266)
(190.344 -0.786366 -4.43089)
(188.382 -1.15194 -5.50379)
(185.309 -1.66117 -5.90208)
(181.767 -2.31259 -5.11216)
(191.883 2.38971 1.96729)
(192.639 1.94804 0.92713)
(192.974 1.52266 -0.124648)
(192.983 1.15294 -1.21198)
(192.639 0.832674 -2.35512)
(191.889 0.55315 -3.58707)
(190.545 0.288008 -4.85281)
(188.426 -0.0116761 -6.10317)
(184.931 -0.454503 -6.69279)
(180.666 -1.16062 -6.02699)
(192.272 1.01535 2.7154)
(193.016 0.438662 1.63442)
(193.346 -0.0704794 0.482906)
(193.362 -0.482664 -0.682699)
(193.026 -0.818457 -1.93242)
(192.282 -1.07954 -3.29407)
(190.915 -1.27381 -4.75812)
(188.694 -1.43346 -6.2729)
(184.924 -1.62392 -7.30484)
(179.894 -2.17501 -6.8801)
(191.826 2.17446 2.05097)
(192.5 1.52938 1.04031)
(192.801 1.0521 0.00954208)
(192.763 0.670281 -1.06634)
(192.359 0.409317 -2.21218)
(191.536 0.255213 -3.48718)
(190.082 0.216607 -4.88289)
(187.733 0.300457 -6.37314)
(183.806 0.459196 -7.50828)
(178.335 0.45722 -7.07073)
(188.631 0.0557904 0.341513)
(188.818 -0.00983741 0.238678)
(188.874 -0.0824752 0.0716943)
(188.866 -0.148048 -0.0768916)
(188.808 -0.215232 -0.228752)
(188.711 -0.275727 -0.340748)
(188.583 -0.331484 -0.413795)
(188.434 -0.382863 -0.425767)
(188.246 -0.426564 -0.3786)
(187.851 -0.466983 -0.26644)
(188.683 0.741265 0.183395)
(188.924 0.742735 -0.0539741)
(189.053 0.705462 -0.278274)
(189.052 0.630813 -0.496052)
(188.945 0.533745 -0.685984)
(188.748 0.418906 -0.826839)
(188.472 0.290741 -0.898281)
(188.109 0.148706 -0.870673)
(187.638 -0.0137734 -0.73705)
(187.176 -0.208322 -0.496669)
(189.05 0.448305 0.790623)
(189.374 0.351435 0.413122)
(189.545 0.221333 0.00358278)
(189.54 0.0715866 -0.401097)
(189.375 -0.0982666 -0.778743)
(189.063 -0.284397 -1.0941)
(188.611 -0.485062 -1.30899)
(188.019 -0.69752 -1.37159)
(187.295 -0.926344 -1.23667)
(186.634 -1.16893 -0.901191)
(189.349 1.29653 0.771962)
(189.802 1.22589 0.269941)
(190.022 1.08416 -0.248175)
(190.012 0.904574 -0.767273)
(189.788 0.696156 -1.26017)
(189.355 0.4646 -1.68635)
(188.713 0.207179 -1.99097)
(187.865 -0.0789918 -2.09325)
(186.816 -0.402254 -1.89829)
(185.823 -0.749191 -1.3499)
(189.927 0.944275 1.3825)
(190.483 0.780606 0.733797)
(190.738 0.557393 0.0318188)
(190.728 0.314298 -0.671966)
(190.459 0.0502866 -1.36385)
(189.925 -0.230257 -1.9995)
(189.101 -0.536029 -2.51163)
(187.98 -0.869451 -2.79383)
(186.538 -1.25941 -2.67242)
(185.089 -1.6817 -1.99926)
(190.325 1.84342 1.29532)
(190.95 1.64597 0.553637)
(191.231 1.38888 -0.216071)
(191.222 1.1215 -1.00084)
(190.918 0.844644 -1.78386)
(190.301 0.559038 -2.53313)
(189.314 0.247941 -3.17036)
(187.93 -0.108918 -3.57903)
(186.059 -0.556986 -3.48786)
(184.083 -1.0825 -2.65158)
(190.903 1.11685 1.95186)
(191.582 0.800414 1.10257)
(191.881 0.457272 0.183395)
(191.878 0.134521 -0.74489)
(191.555 -0.176315 -1.69654)
(190.883 -0.475261 -2.64333)
(189.767 -0.78325 -3.51496)
(188.149 -1.11598 -4.18214)
(185.841 -1.55345 -4.29401)
(183.287 -2.10314 -3.43104)
(191.2 2.11688 1.59711)
(191.897 1.77115 0.725192)
(192.198 1.41912 -0.166816)
(192.186 1.10367 -1.09011)
(191.84 0.823882 -2.0418)
(191.122 0.574378 -3.02296)
(189.91 0.33251 -3.96016)
(188.108 0.0566149 -4.75143)
(185.425 -0.334892 -4.95703)
(182.299 -0.939398 -4.06873)
(191.596 0.738691 2.37111)
(192.286 0.259674 1.44956)
(192.586 -0.176679 0.443722)
(192.579 -0.533045 -0.573886)
(192.232 -0.825349 -1.64895)
(191.502 -1.05296 -2.77429)
(190.239 -1.22661 -3.911)
(188.305 -1.37572 -4.94089)
(185.356 -1.56299 -5.47507)
(181.656 -2.03056 -4.70135)
(191.169 2.00752 1.67278)
(191.794 1.46702 0.827258)
(192.077 1.06475 -0.0543009)
(192.034 0.740031 -0.980385)
(191.642 0.521175 -1.9542)
(190.851 0.397109 -2.99979)
(189.512 0.370024 -4.07261)
(187.453 0.438888 -5.0818)
(184.335 0.539037 -5.65171)
(180.345 0.497363 -4.8177)
(188.501 -0.0489616 0.249367)
(188.653 -0.0968421 0.196373)
(188.694 -0.149479 0.0835963)
(188.691 -0.193736 -0.00794527)
(188.658 -0.240913 -0.107755)
(188.601 -0.282799 -0.179226)
(188.526 -0.320911 -0.228802)
(188.438 -0.354298 -0.241469)
(188.312 -0.378647 -0.221493)
(187.965 -0.395382 -0.162816)
(188.473 0.595819 0.0104439)
(188.68 0.620969 -0.137064)
(188.795 0.61455 -0.266209)
(188.806 0.574368 -0.387963)
(188.739 0.513891 -0.487724)
(188.611 0.437721 -0.551501)
(188.431 0.35101 -0.568266)
(188.182 0.254942 -0.520495)
(187.829 0.144255 -0.413936)
(187.463 0.00050919 -0.251443)
(188.758 0.20834 0.574903)
(189.032 0.14944 0.31388)
(189.18 0.0626414 0.0273422)
(189.185 -0.0433047 -0.252819)
(189.069 -0.168652 -0.508101)
(188.849 -0.308871 -0.71131)
(188.535 -0.460062 -0.836873)
(188.123 -0.61727 -0.853051)
(187.604 -0.780626 -0.744476)
(187.119 -0.953606 -0.524692)
(189.024 1.02135 0.503361)
(189.408 1.00132 0.140745)
(189.592 0.91148 -0.233023)
(189.586 0.781041 -0.603577)
(189.412 0.620734 -0.944778)
(189.085 0.437737 -1.22157)
(188.615 0.233259 -1.39349)
(188.007 0.00835901 -1.40509)
(187.263 -0.236046 -1.21717)
(186.546 -0.494664 -0.812027)
(189.532 0.641043 1.08142)
(190.005 0.540323 0.583389)
(190.216 0.37716 0.0377331)
(190.204 0.186449 -0.504816)
(189.981 -0.0287026 -1.02518)
(189.553 -0.26222 -1.48067)
(188.919 -0.51726 -1.81679)
(188.089 -0.792012 -1.95307)
(187.061 -1.09895 -1.80176)
(186.016 -1.4232 -1.28551)
(189.875 1.52853 0.973963)
(190.414 1.40146 0.391676)
(190.65 1.20814 -0.217673)
(190.632 0.993766 -0.835744)
(190.366 0.763744 -1.43686)
(189.847 0.521025 -1.98322)
(189.055 0.255826 -2.40622)
(187.994 -0.0457334 -2.60803)
(186.641 -0.404463 -2.43477)
(185.209 -0.82008 -1.74047)
(190.404 0.808462 1.61637)
(190.999 0.572476 0.927064)
(191.254 0.298347 0.168006)
(191.238 0.0301327 -0.595005)
(190.943 -0.234859 -1.36078)
(190.353 -0.494763 -2.08928)
(189.425 -0.764542 -2.71316)
(188.142 -1.05397 -3.1099)
(186.444 -1.41471 -3.0738)
(184.583 -1.85581 -2.30871)
(190.657 1.85841 1.24576)
(191.276 1.59885 0.535379)
(191.539 1.31629 -0.198788)
(191.514 1.05442 -0.959675)
(191.19 0.816571 -1.72757)
(190.543 0.600197 -2.48467)
(189.505 0.387453 -3.15361)
(188.038 0.14567 -3.62462)
(186.032 -0.181748 -3.6091)
(183.746 -0.66501 -2.75169)
(191.051 0.464372 2.04166)
(191.668 0.0762836 1.27485)
(191.932 -0.290015 0.415893)
(191.91 -0.592401 -0.451535)
(191.577 -0.842523 -1.35383)
(190.904 -1.038 -2.26168)
(189.798 -1.18995 -3.12234)
(188.191 -1.32286 -3.8021)
(185.956 -1.48958 -4.03476)
(183.28 -1.85514 -3.23719)
(190.627 1.84835 1.3031)
(191.186 1.4076 0.616273)
(191.442 1.07808 -0.116187)
(191.397 0.80877 -0.890296)
(191.031 0.629784 -1.69206)
(190.308 0.532243 -2.5215)
(189.132 0.513967 -3.31404)
(187.408 0.56966 -3.96236)
(185.017 0.629721 -4.17171)
(182.195 0.585152 -3.28682)
(188.479 -0.129387 0.202276)
(188.608 -0.167042 0.179775)
(188.639 -0.208178 0.098909)
(188.639 -0.23898 0.0410373)
(188.62 -0.272734 -0.0287052)
(188.587 -0.301456 -0.0782648)
(188.543 -0.326619 -0.116652)
(188.49 -0.346749 -0.133144)
(188.399 -0.35762 -0.131794)
(188.081 -0.358174 -0.105953)
(188.4 0.502207 -0.104199)
(188.591 0.541569 -0.189572)
(188.698 0.555265 -0.253825)
(188.718 0.539327 -0.31069)
(188.679 0.505857 -0.351214)
(188.598 0.459045 -0.366618)
(188.479 0.403893 -0.35152)
(188.298 0.342256 -0.295339)
(188.009 0.269189 -0.208496)
(187.683 0.161971 -0.0934133)
(188.616 0.0297586 0.426123)
(188.855 -0.00514139 0.25012)
(188.985 -0.0616386 0.0539763)
(188.999 -0.134678 -0.136039)
(188.922 -0.224645 -0.305565)
(188.773 -0.327204 -0.434926)
(188.559 -0.437797 -0.507551)
(188.268 -0.551075 -0.504702)
(187.874 -0.665907 -0.424265)
(187.477 -0.789622 -0.285307)
(188.86 0.808557 0.298707)
(189.184 0.821832 0.0456458)
(189.337 0.770317 -0.213571)
(189.336 0.679429 -0.467584)
(189.209 0.560289 -0.694014)
(188.972 0.420403 -0.865167)
(188.638 0.26299 -0.952846)
(188.208 0.0909401 -0.920685)
(187.663 -0.0918152 -0.758218)
(187.098 -0.286033 -0.463552)
(189.294 0.396755 0.83631)
(189.688 0.341039 0.462836)
(189.859 0.225532 0.0492551)
(189.848 0.079676 -0.358757)
(189.672 -0.0909847 -0.741214)
(189.346 -0.27971 -1.06173)
(188.877 -0.486034 -1.27908)
(188.277 -0.705762 -1.33698)
(187.537 -0.943567 -1.19632)
(186.736 -1.19201 -0.818372)
(189.577 1.25798 0.701376)
(190.027 1.1839 0.257278)
(190.22 1.04356 -0.21024)
(190.2 0.876553 -0.682144)
(189.98 0.691 -1.12965)
(189.564 0.491274 -1.51654)
(188.954 0.272925 -1.78734)
(188.165 0.0274545 -1.86875)
(187.192 -0.252214 -1.67861)
(186.115 -0.575219 -1.13589)
(190.05 0.536826 1.31801)
(190.554 0.366287 0.772284)
(190.766 0.15261 0.161055)
(190.744 -0.0651137 -0.450523)
(190.49 -0.28541 -1.05194)
(189.999 -0.505046 -1.6009)
(189.258 -0.73373 -2.03935)
(188.277 -0.975811 -2.26659)
(187.045 -1.26443 -2.17155)
(185.663 -1.60727 -1.55325)
(190.246 1.62465 0.925018)
(190.776 1.43845 0.363011)
(190.998 1.21884 -0.222212)
(190.967 1.0077 -0.829808)
(190.681 0.811354 -1.42966)
(190.127 0.629441 -1.99556)
(189.277 0.449061 -2.45529)
(188.128 0.246216 -2.71508)
(186.659 -0.016984 -2.59)
(184.98 -0.388366 -1.86113)
(190.632 0.201675 1.7393)
(191.165 -0.105798 1.11612)
(191.389 -0.407258 0.398579)
(191.361 -0.659043 -0.323954)
(191.06 -0.869183 -1.06403)
(190.47 -1.03413 -1.78127)
(189.545 -1.16383 -2.42025)
(188.263 -1.27714 -2.85964)
(186.613 -1.41556 -2.92772)
(184.7 -1.6871 -2.24156)
(190.198 1.70596 0.953103)
(190.679 1.35695 0.413301)
(190.902 1.09581 -0.175542)
(190.857 0.87891 -0.80176)
(190.531 0.736893 -1.43934)
(189.899 0.662486 -2.07432)
(188.91 0.650967 -2.63487)
(187.524 0.695592 -3.02488)
(185.743 0.728856 -3.02193)
(183.801 0.695313 -2.23424)
(188.533 -0.197888 0.185571)
(188.646 -0.229289 0.180899)
(188.67 -0.264102 0.11745)
(188.672 -0.286749 0.0780025)
(188.661 -0.311877 0.024476)
(188.642 -0.331794 -0.0144863)
(188.616 -0.348043 -0.0486301)
(188.583 -0.359019 -0.070028)
(188.513 -0.360979 -0.0817339)
(188.219 -0.350931 -0.0770455)
(188.429 0.448074 -0.177143)
(188.615 0.496421 -0.220759)
(188.719 0.522935 -0.242556)
(188.745 0.52344 -0.257298)
(188.724 0.508974 -0.260359)
(188.673 0.483271 -0.2463)
(188.592 0.450795 -0.21288)
(188.451 0.413621 -0.15338)
(188.194 0.367134 -0.0792476)
(187.873 0.286673 0.00861073)
(188.585 -0.0973893 0.331006)
(188.803 -0.117977 0.214229)
(188.92 -0.154442 0.081151)
(188.94 -0.204143 -0.0470744)
(188.892 -0.267561 -0.159581)
(188.793 -0.341017 -0.242734)
(188.648 -0.420207 -0.285806)
(188.437 -0.500407 -0.27787)
(188.115 -0.580598 -0.221516)
(187.752 -0.670311 -0.136459)
(188.821 0.652784 0.149205)
(189.095 0.685824 -0.020945)
(189.222 0.660838 -0.193297)
(189.227 0.600182 -0.359941)
(189.138 0.514515 -0.503178)
(188.973 0.410856 -0.602459)
(188.741 0.293021 -0.638893)
(188.437 0.164218 -0.588898)
(188.02 0.0280768 -0.455709)
(187.53 -0.121015 -0.239256)
(189.181 0.211675 0.643679)
(189.503 0.185704 0.369024)
(189.64 0.106123 0.0622471)
(189.631 -0.00304112 -0.238335)