/*--------------------------------*- C++ -*----------------------------------*\
| =========                 |                                                 |
| \\      /  F ield         | foam-extend: Open Source CFD                    |
|  \\    /   O peration     | Version:     4.0                                |
|   \\  /    A nd           | Web:         http://www.foam-extend.org         |
|    \\/     M anipulation  |                                                 |
\*---------------------------------------------------------------------------*/
FoamFile
{
    version     2.0;
    format      ascii;
    class       volScalarField;
    location    "2600";
    object      divFlux;
}
// * * * * * * * * * * * * * * * * * * * * * * * * * * * * * * * * * * * * * //

dimensions      [1 -3 -1 0 0 0 0];

internalField   nonuniform List<scalar> 
34480
(
1.14657e-05
4.24882e-06
4.22863e-06
3.89785e-06
3.60468e-06
3.37272e-06
3.19551e-06
0.000306783
0.000537744
2.84885e-06
3.12175e-06
1.86845e-06
1.67527e-06
1.58277e-06
1.49222e-06
1.44915e-06
1.44961e-06
1.45024e-06
0.0032233
1.40087e-06
8.81403e-07
5.88091e-07
5.34757e-07
5.26235e-07
5.12581e-07
5.27334e-07
5.58446e-07
5.8076e-07
0.00322398
5.70038e-07
3.14072e-07
2.10616e-07
2.08401e-07
2.00269e-07
1.99429e-07
2.10043e-07
2.2482e-07
2.33068e-07
0.000774375
2.30395e-07
1.17731e-07
8.52239e-08
8.72531e-08
8.23438e-08
8.25402e-08
8.65985e-08
9.19659e-08
9.63515e-08
9.64169e-08
9.24241e-08
5.50977e-08
3.84882e-08
3.74573e-08
3.57391e-08
3.56245e-08
3.88891e-08
3.9691e-08
4.06074e-08
4.05501e-08
4.02637e-08
3.03807e-08
1.68004e-08
1.65968e-08
1.63422e-08
1.56295e-08
1.75132e-08
1.74622e-08
1.75132e-08
1.89896e-08
1.89896e-08
1.40322e-08
7.10199e-09
8.24748e-09
7.23945e-09
8.24748e-09
8.70567e-09
8.43075e-09
8.79731e-09
9.11804e-09
8.11002e-09
7.46646e-09
4.99847e-09
5.91486e-09
4.54028e-09
4.83185e-09
4.66524e-09
4.37366e-09
4.66524e-09
4.99847e-09
5.41501e-09
4.29079e-09
5.72741e-09
3.05462e-09
3.3219e-09
3.66554e-09
3.36008e-09
2.13823e-09
3.66554e-09
3.24553e-09
3.24553e-09
1.55797e-05
5.44868e-06
5.34034e-06
4.99028e-06
4.68207e-06
4.44616e-06
4.29069e-06
4.2121e-06
4.20571e-06
0.00102689
4.47091e-06
2.80144e-06
2.45663e-06
2.32724e-06
2.22518e-06
2.17582e-06
2.17406e-06
2.21309e-06
2.29083e-06
0.00338576
1.37715e-06
9.96516e-07
8.74736e-07
8.77121e-07
8.64939e-07
8.95608e-07
9.43485e-07
1.00031e-06
1.05082e-06
0.00426186
5.8257e-07
3.87297e-07
3.8964e-07
3.74164e-07
3.79772e-07
4.01709e-07
4.2219e-07
4.47605e-07
4.80297e-07
0.00148431
2.30452e-07
1.8894e-07
1.74701e-07
1.7318e-07
1.74701e-07
1.84133e-07
1.96364e-07
2.07135e-07
2.16688e-07
2.2593e-07
1.23889e-07
9.41887e-08
7.98661e-08
8.38062e-08
8.41789e-08
8.58294e-08
9.28044e-08
9.79158e-08
1.04997e-07
1.03447e-07
6.30757e-08
4.747e-08
3.99922e-08
3.9235e-08
4.18853e-08
4.19327e-08
4.57662e-08
4.75647e-08
5.13036e-08
5.24691e-08
8.33549e-08
1.87845e-08
2.38959e-08
2.11272e-08
2.17662e-08
2.24051e-08
2.46201e-08
2.48756e-08
2.65794e-08
3.00297e-08
9.08053e-09
6.38929e-09
2.48214e-08
1.09973e-08
1.54892e-08
1.45598e-08
1.53343e-08
1.62249e-08
1.84321e-08
1.7343e-08
3.19961e-07
1.64702e-08
4.28437e-08
2.52022e-09
1.62572e-08
1.06133e-08
1.31335e-08
1.22816e-08
1.3311e-08
1.41186e-08
1.41777e-05
4.14958e-06
4.15997e-06
3.88975e-06
3.65467e-06
3.49166e-06
3.40025e-06
3.39091e-06
4.0034e-05
0.000830423
3.70876e-06
2.09815e-06
1.7931e-06
1.68524e-06
1.59823e-06
1.53616e-06
1.51438e-06
1.54883e-06
7.30369e-05
0.00131995
1.11346e-06
7.27852e-07
6.06998e-07
6.10641e-07
5.77062e-07
5.62055e-07
5.73419e-07
6.07553e-07
0.000115939
0.00125906
4.7487e-07
2.48445e-07
2.561e-07
2.36334e-07
2.25115e-07
2.21221e-07
2.26897e-07
2.45706e-07
2.76295e-07
3.4413e-07
1.65958e-07
1.02502e-07
1.0369e-07
9.37342e-08
9.20937e-08
9.1924e-08
9.36777e-08
1.02163e-07
1.17295e-07
1.51282e-07
6.81071e-08
4.57852e-08
4.41518e-08
4.21224e-08
4.1083e-08
4.1182e-08
4.17759e-08
4.65772e-08
5.20714e-08
6.6964e-08
3.40963e-08
2.0327e-08
2.21749e-08
2.0107e-08
1.9711e-08
1.9755e-08
1.87871e-08
2.18229e-08
2.39348e-08
3.24457e-08
2.65635e-08
9.74112e-09
1.12854e-08
1.01371e-08
1.06915e-08
9.06795e-09
1.03351e-08
1.12458e-08
1.2315e-08
1.54333e-08
2.64576e-08
4.31979e-09
6.73167e-09
6.62367e-09
6.0477e-09
6.0837e-09
6.47968e-09
6.1557e-09
5.93971e-09
1.06892e-08
3.00569e-08
1.53442e-08
5.77472e-09
1.71592e-09
4.78476e-09
3.26684e-09
3.66282e-09
4.28979e-09
5.14775e-09
7.05134e-09
1.35771e-05
3.72618e-06
3.78517e-06
3.54427e-06
3.33177e-06
3.18845e-06
3.11292e-06
3.10832e-06
1.53526e-05
0.00034976
3.50742e-06
1.98429e-06
1.6979e-06
1.5772e-06
1.49534e-06
1.43428e-06
1.40349e-06
1.4126e-06
2.71658e-05
0.00110748
1.05812e-06
7.21289e-07
5.69367e-07
5.75478e-07
5.46102e-07
5.25819e-07
5.24678e-07
5.42716e-07
0.000116299
0.00226014
4.72761e-07
2.44215e-07
2.55504e-07
2.39e-07
2.25717e-07
2.17987e-07
2.15379e-07
2.25104e-07
0.000110051
0.00209067
1.84722e-07
1.08858e-07
1.11592e-07
9.92865e-08
9.42907e-08
9.2082e-08
9.12931e-08
9.51321e-08
4.52482e-05
0.00157156
7.32043e-08
4.89136e-08
4.55085e-08
4.32538e-08
4.0769e-08
4.15052e-08
3.86063e-08
4.10911e-08
1.12536e-05
0.000998583
3.38131e-08
2.1678e-08
2.24552e-08
1.98783e-08
1.87331e-08
1.93466e-08
1.86513e-08
1.97556e-08
2.27415e-08
0.00042563
2.12335e-08
1.02705e-08
1.11908e-08
8.94525e-09
1.06754e-08
9.93917e-09
8.31946e-09
1.01232e-08
1.18534e-08
0.000162752
2.37357e-08
4.35048e-09
7.22849e-09
6.39186e-09
6.52572e-09
5.92334e-09
5.58869e-09
6.69305e-09
7.42928e-09
8.14669e-09
1.33519e-08
1.0338e-08
5.46041e-09
3.40509e-09
4.78553e-09
3.80388e-09
4.04929e-09
4.63215e-09
3.80388e-09
7.13419e-09
1.30661e-05
3.22535e-06
3.35656e-06
3.16523e-06
2.98594e-06
2.86115e-06
2.79855e-06
2.79222e-06
2.00373e-05
0.00013202
3.25839e-06
1.82071e-06
1.58257e-06
1.45364e-06
1.37194e-06
1.31727e-06
1.28694e-06
1.27984e-06
1.01457e-05
0.000556899
9.86696e-07
7.33093e-07
5.4419e-07
5.44635e-07
5.17463e-07
4.95117e-07
4.87143e-07
4.89675e-07
7.23679e-05
0.00131848
4.70507e-07
2.24465e-07
2.34161e-07
2.24208e-07
2.132e-07
2.05272e-07
2.01622e-07
2.04331e-07
7.75839e-05
0.00141515
1.86723e-07
1.00416e-07
1.07309e-07
9.9389e-08
9.48424e-08
8.97092e-08
8.82915e-08
8.89759e-08
5.4824e-05
0.00128898
7.74352e-08
5.0605e-08
4.72257e-08
4.47446e-08
4.11086e-08
4.06808e-08
4.00392e-08
3.99964e-08
4.42653e-05
0.00103765
3.46742e-08
2.08751e-08
2.20158e-08
2.07991e-08
1.87078e-08
1.83655e-08
1.79473e-08
1.87838e-08
6.96274e-06
0.000693279
1.85459e-08
1.06771e-08
1.13958e-08
1.08482e-08
9.17136e-09
1.0198e-08
9.61624e-09
8.7607e-09
1.08617e-05
0.000529835
2.14691e-08
3.91992e-09
7.83983e-09
6.06654e-09
6.22209e-09
5.28878e-09
5.84877e-09
6.56431e-09
6.81319e-09
0.000328983
4.12619e-09
6.8443e-09
5.87469e-09
2.79476e-09
4.33472e-09
3.36511e-09
3.8214e-09
4.33472e-09
5.27582e-09
0.000435482
1.29199e-05
2.74818e-06
2.94145e-06
2.79203e-06
2.63087e-06
2.51987e-06
2.45847e-06
2.44861e-06
2.48495e-06
2.33408e-05
2.99507e-06
1.59954e-06
1.43646e-06
1.31469e-06
1.23524e-06
1.18454e-06
1.15626e-06
1.14831e-06
1.76287e-05
0.000214555
8.41885e-07
7.36546e-07
5.13407e-07
5.08984e-07
4.85824e-07
4.63809e-07
4.51593e-07
4.46089e-07
3.34489e-05
0.000712882
4.90342e-07
2.23304e-07
2.23225e-07
2.13389e-07
2.01936e-07
1.93002e-07
1.88866e-07
1.87302e-07
4.26948e-05
0.000850737
1.84784e-07
9.06685e-08
9.95763e-08
9.23046e-08
8.81234e-08
8.48966e-08
8.28515e-08
8.17607e-08
4.11807e-05
0.0008781
7.2445e-08
4.8277e-08
4.51752e-08
4.34652e-08
4.04032e-08
3.92897e-08
3.8733e-08
3.75002e-08
4.33313e-05
0.000807366
3.52605e-08
2.19513e-08
2.10676e-08
2.08555e-08
1.87346e-08
1.82398e-08
1.75328e-08
1.80277e-08
2.58656e-05
0.000628907
1.72675e-08
1.08802e-08
1.11665e-08
9.25773e-09
9.13048e-09
9.73494e-09
9.35317e-09
9.19411e-09
3.67935e-05
0.000568302
1.95872e-08
4.51174e-09
7.0279e-09
6.24702e-09
5.4083e-09
6.7676e-09
4.94556e-09
5.78428e-09
1.33785e-05
0.000490987
2.83981e-09
5.1697e-09
4.98412e-09
3.73809e-09
4.0032e-09
3.63204e-09
4.0032e-09
3.41995e-09
3.5981e-05
0.000577321
1.24532e-05
2.18759e-06
2.48575e-06
2.40494e-06
2.27133e-06
2.17317e-06
2.1174e-06
2.10221e-06
2.12306e-06
2.47693e-07
2.85362e-06
1.34134e-06
1.26939e-06
1.17328e-06
1.09775e-06
1.05024e-06
1.0223e-06
1.0125e-06
1.01972e-05
6.98578e-05
6.13637e-07
7.19796e-07
4.68556e-07
4.54745e-07
4.39957e-07
4.21088e-07
4.09377e-07
4.01599e-07
1.38787e-05
0.000378424
4.70837e-07
2.14911e-07
2.08972e-07
2.01184e-07
1.90759e-07
1.82034e-07
1.75971e-07
1.73433e-07
1.93433e-05
0.000497296
1.96234e-07
8.51759e-08
9.46822e-08
8.77954e-08
8.30212e-08
7.96834e-08
7.81202e-08
7.60499e-08
2.34201e-05
0.000559167
6.9046e-08
4.4843e-08
4.16637e-08
3.96305e-08
3.80038e-08
3.68948e-08
3.5416e-08
3.5416e-08
3.09736e-05
0.00056519
3.40146e-08
2.18198e-08
2.00781e-08
1.94538e-08
1.85336e-08
1.78436e-08
1.75478e-08
1.62991e-08
2.59559e-05
0.000477293
1.6666e-08
1.0854e-08
1.06174e-08
1.06174e-08
9.55272e-09
8.81334e-09
8.72462e-09
8.99079e-09
4.18001e-05
0.000480745
1.74024e-08
4.03295e-09
6.93667e-09
6.13008e-09
6.07631e-09
5.43104e-09
5.53859e-09
5.61924e-09
2.98623e-05
0.000459018
5.29269e-09
4.23908e-09
4.85522e-09
3.77081e-09
3.64758e-09
3.62293e-09
4.04191e-09
4.1405e-09
4.92863e-05
0.000527546
1.26139e-05
1.59854e-06
2.02353e-06
2.04126e-06
1.9369e-06
1.84349e-06
1.79015e-06
1.77395e-06
1.78724e-06
1.90825e-06
2.87203e-06
1.06158e-06
1.07274e-06
1.01734e-06
9.54521e-07
9.09671e-07
8.83724e-07
8.71248e-07
2.08648e-06
1.54491e-05
3.37726e-07
7.04587e-07
4.2973e-07
4.01109e-07
3.89039e-07
3.75072e-07
3.6226e-07
3.55387e-07
5.91241e-06
0.000183081
4.27808e-07
1.97292e-07
1.84668e-07
1.79787e-07
1.72731e-07
1.65514e-07
1.60175e-07
1.55684e-07
8.51687e-06
0.000274477
1.94525e-07
7.80435e-08
8.84126e-08
8.27175e-08
7.7965e-08
7.52156e-08
7.19556e-08
7.05416e-08
1.15475e-05
0.000336611
6.86425e-08
4.1722e-08
3.98318e-08
3.77354e-08
3.53984e-08
3.45049e-08
3.34395e-08
3.24772e-08
1.91686e-05
0.000375915
3.19868e-08
1.94596e-08
1.87264e-08
1.77183e-08
1.69851e-08
1.64658e-08
1.60687e-08
1.59465e-08
1.95307e-05
0.000334715
1.58752e-08
1.03927e-08
9.9803e-09
9.45791e-09
9.15548e-09
8.57811e-09
8.05572e-09
8.57811e-09
3.73331e-05
0.000370525
1.67873e-08
4.49901e-09
6.77351e-09
5.94869e-09
5.37382e-09
6.09866e-09
5.17386e-09
5.4488e-09
3.09106e-05
0.00035746
7.36931e-09
3.73459e-09
4.42194e-09
3.68877e-09
3.59712e-09
3.3451e-09
3.62004e-09
3.3451e-09
4.91233e-05
0.000420836
1.32842e-05
8.82351e-07
1.47524e-06
1.65247e-06
1.61541e-06
1.53735e-06
1.4782e-06
1.45488e-06
1.45912e-06
1.55326e-06
3.02756e-06
8.07004e-07
8.63075e-07
8.50008e-07
8.08857e-07
7.71445e-07
7.47515e-07
7.34671e-07
7.29687e-07
4.72998e-07
2.43019e-08
6.78447e-07
3.93972e-07
3.48502e-07
3.36591e-07
3.24527e-07
3.14559e-07
3.08118e-07
2.42251e-06
8.19534e-05
3.79346e-07
1.86008e-07
1.64517e-07
1.56721e-07
1.51524e-07
1.45475e-07
1.41322e-07
1.37935e-07
4.17539e-06
0.000141721
1.849e-07
6.75132e-08
7.6605e-08
7.37204e-08
7.03612e-08
6.66003e-08
6.52128e-08
6.29855e-08
5.54791e-06
0.000188319
6.47288e-08
3.85626e-08
3.6454e-08
3.43773e-08
3.30993e-08
3.16297e-08
3.08948e-08
1.10578e-05
1.13622e-05
0.000235619
3.05727e-08
1.92831e-08
1.71816e-08
1.70112e-08
1.5932e-08
1.5222e-08
1.47392e-08
1.46256e-08
1.26101e-05
0.000215245
1.47709e-08
9.73811e-09
9.25248e-09
8.38346e-09
8.17899e-09
8.20455e-09
7.59112e-09
7.96429e-06
2.98467e-05
0.000264984
1.48193e-08
4.46127e-09
5.97159e-09
5.11187e-09
5.48364e-09
5.0654e-09
4.57745e-09
5.4604e-09
2.57385e-05
0.000250669
8.1472e-09
3.06712e-09
4.32379e-09
3.8339e-09
3.15232e-09
3.30141e-09
3.55701e-09
3.18789e-06
4.25946e-05
0.000309391
1.59124e-05
2.05314e-07
8.68756e-07
1.24327e-06
1.34599e-06
1.32948e-06
1.27818e-06
1.23467e-06
1.20911e-06
1.23773e-06
3.1492e-06
6.25237e-07
6.81194e-07
6.91887e-07
6.71809e-07
6.45345e-07
6.23396e-07
6.11189e-07
6.0213e-07
5.70769e-07
3.13807e-07
6.27857e-07
3.59454e-07
2.97296e-07
2.83919e-07
2.75365e-07
2.65171e-07
2.60514e-07
5.45763e-07
3.31327e-05
3.1467e-07
1.72979e-07
1.4601e-07
1.35892e-07
1.30685e-07
1.25834e-07
1.22349e-07
1.19042e-07
2.07828e-06
6.8443e-05
1.76792e-07
5.89609e-08
6.63607e-08
6.41543e-08
6.11673e-08
5.8893e-08
5.64151e-08
5.48876e-08
2.67822e-06
9.88302e-05
5.87443e-08
3.32652e-08
3.2493e-08
3.10376e-08
2.95526e-08
2.77111e-08
2.69389e-08
1.55312e-05
6.79451e-06
0.000141046
2.80721e-08
1.70022e-08
1.60518e-08
1.48637e-08
1.40717e-08
1.38869e-08
1.36493e-08
1.30157e-08
7.25068e-06
0.000126572
1.40674e-08
8.29254e-09
8.50639e-09
8.29254e-09
7.24706e-09
7.36587e-09
6.558e-09
1.44274e-05
2.27699e-05
0.000179515
1.39129e-08
3.56413e-09
6.22103e-09
4.68737e-09
4.57937e-09
4.55777e-09
4.25535e-09
4.16895e-09
1.86522e-05
0.000163026
8.59057e-09
2.6335e-09
3.36612e-09
3.42552e-09
2.7919e-09
3.20772e-09
2.97011e-09
6.45329e-06
3.39575e-05
0.000214963
1.90471e-05
3.11344e-07
7.60228e-08
4.56946e-07
7.22952e-07
8.77741e-07
9.58513e-07
1.00667e-06
1.05232e-06
1.15371e-06
2.91718e-06
4.9678e-07
5.16246e-07
5.33034e-07
5.30687e-07
5.19256e-07
5.08128e-07
4.98934e-07
4.9043e-07
4.49256e-07
5.95781e-07
5.50655e-07
3.20643e-07
2.51726e-07
2.35093e-07
2.25572e-07
2.19674e-07
2.13445e-07
2.0905e-07
1.162e-05
2.3993e-07
1.51641e-07
1.28079e-07
1.15709e-07
1.09211e-07
1.05696e-07
1.02622e-07
9.98604e-08
6.99778e-07
2.98002e-05
1.61053e-07
5.27294e-08
5.58535e-08
5.54117e-08
5.25401e-08
5.06783e-08
4.90059e-08
4.71441e-08
1.24269e-06
4.88722e-05
5.34577e-08
2.89365e-08
2.7556e-08
2.68657e-08
2.54851e-08
2.46292e-08
2.37456e-08
1.45387e-05
4.14913e-06
8.23843e-05
2.39356e-08
1.54132e-08
1.35724e-08
1.33761e-08
1.26643e-08
1.2198e-08
1.17808e-08
1.1339e-08
3.50699e-06
6.77689e-05
1.26683e-08
8.17291e-09
7.62068e-09
6.86966e-09
6.75922e-09
6.73713e-09
8.12917e-07
1.55019e-05
1.71046e-05
0.000118292
1.31514e-08
3.11253e-09
4.59852e-09
4.51819e-09
4.31738e-09
4.33746e-09
4.07641e-09
4.25714e-09
1.16558e-05
9.76963e-05
7.8804e-09
2.13526e-09
3.03723e-09
3.07404e-09
2.50341e-09
2.81634e-09
2.44819e-09
6.81915e-06
2.55084e-05
0.000143057
2.30959e-05
1.30025e-06
8.47739e-07
4.41529e-07
2.86647e-07
2.51396e-07
2.49359e-07
2.38544e-07
1.97526e-07
1.19059e-07
2.38842e-06
4.55279e-07
4.12824e-07
3.93701e-07
3.85744e-07
3.77581e-07
3.70317e-07
3.70497e-07
3.7948e-07
3.6793e-07
7.37198e-07
4.47471e-07
2.73871e-07
2.097e-07
1.89576e-07
1.80459e-07
1.73559e-07
1.69082e-07
1.64667e-07
3.77207e-06
1.79707e-07
1.21582e-07
1.09227e-07
9.70091e-08
8.97022e-08
8.5544e-08
8.40381e-08
8.03247e-08
7.91953e-08
1.00034e-05
1.36797e-07
4.75817e-08
4.60856e-08
4.59096e-08
4.33868e-08
4.21254e-08
4.04239e-08
3.91039e-08
5.0791e-07
2.25587e-05
4.76356e-08
2.43336e-08
2.30502e-08
2.24855e-08
2.1356e-08
2.06117e-08
1.1156e-06
1.19943e-05
2.61206e-06
4.75924e-05
2.04967e-08
1.30737e-08
1.1796e-08
1.15222e-08
1.09975e-08
1.02901e-08
1.0062e-08
9.65129e-09
1.01339e-06
3.14559e-05
1.10611e-08
6.81751e-09
6.6943e-09
5.85238e-09
5.83184e-09
5.40062e-09
1.42875e-05
1.4269e-05
1.29158e-05
7.73883e-05
1.14815e-08
2.5575e-09
4.21894e-09
3.69624e-09
3.34155e-09
3.64024e-09
3.71491e-09
3.32288e-09
5.65104e-06
5.20283e-05
7.70872e-09
2.17325e-09
3.14865e-09
2.53261e-09
2.22459e-09
2.29304e-09
2.66951e-09
5.88178e-06
1.83397e-05
9.20504e-05
5.83678e-07
4.39303e-06
3.9213e-06
3.18369e-06
2.7389e-06
2.51208e-06
2.42047e-06
2.40545e-06
2.44096e-06
2.5362e-06
1.18321e-06
4.60158e-07
3.91459e-07
3.66404e-07
3.63111e-07
3.61226e-07
3.54664e-07
3.39511e-07
3.12093e-07
2.40519e-07
7.06143e-07
3.30004e-07
2.12144e-07
1.65814e-07
1.51496e-07
1.45655e-07
1.41894e-07
1.39355e-07
7.35184e-07
2.55376e-06
1.60442e-07
8.10201e-08
8.60788e-08
7.86657e-08
7.21274e-08
6.83254e-08
6.58596e-08
6.38075e-08
6.1978e-08
1.55547e-07
1.04674e-07
4.2352e-08
3.66796e-08
3.65705e-08
3.57251e-08
3.31889e-08
3.26162e-08
3.06527e-08
1.6619e-07
9.77699e-06
4.0001e-08
2.08794e-08
1.8183e-08
1.87795e-08
1.77057e-08
1.63456e-08
8.09143e-06
9.50054e-06
1.73328e-06
2.7655e-05
1.70063e-08
1.09872e-08
9.75698e-09
9.43882e-09
8.2298e-09
9.26913e-09
7.93285e-09
8.0389e-09
7.80558e-09
1.04115e-05
2.69224e-06
5.51694e-09
5.30695e-09
5.42149e-09
5.03969e-09
1.43929e-05
2.06441e-05
1.2346e-05
1.0023e-05
5.13084e-05
1.07476e-08
2.44696e-09
3.38409e-09
3.27997e-09
3.037e-09
3.15849e-09
2.60315e-09
3.10642e-09
9.22017e-07
2.1754e-05
6.3699e-09
1.68626e-09
2.27486e-09
2.46576e-09
2.03624e-09
2.21123e-09
1.61677e-06
4.56563e-06
1.27886e-05
5.77403e-05
7.38939e-05
5.21395e-06
5.98384e-06
6.35202e-06
6.53243e-06
6.53271e-06
6.31837e-06
5.89284e-06
5.29359e-06
4.53488e-06
2.36618e-06
7.38831e-07
4.39603e-07
2.59543e-07
1.63667e-07
1.17881e-07
1.11825e-07
1.32433e-07
1.70233e-07
1.92743e-07
5.70015e-05
6.81975e-06
9.24277e-06
6.89148e-06
5.54935e-06
4.51152e-06
3.2119e-06
9.20617e-07
2.56398e-06
4.48754e-06
2.00185e-07
4.12902e-08
5.97466e-08
6.13881e-08
5.61973e-08
5.21303e-08
4.98825e-08
4.72944e-08
4.4943e-08
3.88546e-08
6.26026e-08
3.9955e-08
2.78874e-08
2.87493e-08
2.72789e-08
2.61888e-08
2.47437e-08
2.46676e-08
8.38902e-08
4.38448e-06
9.59779e-06
1.88557e-08
1.3687e-08
1.45299e-08
1.36426e-08
6.91211e-06
1.06529e-05
7.49914e-06
1.24277e-06
1.65531e-05
1.34789e-08
8.85353e-09
7.35494e-09
7.49297e-09
7.61128e-09
6.32959e-09
6.54649e-09
6.11268e-09
6.25071e-09
5.41149e-09
5.27241e-05
4.39506e-05
3.97492e-05
3.49577e-05
3.25723e-05
2.91775e-05
2.29478e-05
1.04549e-05
8.18509e-06
3.5376e-05
9.64682e-09
1.67785e-09
3.00077e-09
2.80717e-09
2.41998e-09
2.37158e-09
2.59744e-09
2.11345e-09
2.16185e-09
2.70487e-06
4.94129e-09
1.80423e-09
1.46409e-09
1.87817e-09
1.52324e-09
1.30141e-09
4.10058e-06
3.27206e-06
8.70031e-06
3.54393e-05
0.000161465
2.66499e-05
2.82329e-05
2.74362e-05
2.577e-05
2.32252e-05
2.00167e-05
1.64337e-05
1.26454e-05
8.65314e-06
4.87348e-06
3.12757e-07
1.15876e-07
4.8256e-08
1.39447e-07
1.6207e-07
1.51986e-07
1.60936e-07
2.38187e-07
4.08761e-07
0.000198852
0.000127032
6.87594e-05
3.8747e-05
2.13263e-05
1.14693e-05
5.28704e-06
3.56814e-07
5.19051e-06
7.9721e-06
2.85058e-07
1.09573e-08
3.11808e-08
4.02821e-08
4.13544e-08
4.01308e-08
3.85635e-08
3.74774e-08
3.53465e-08
2.9338e-08
1.27686e-08
3.99482e-08
2.03394e-08
2.05515e-08
2.07401e-08
1.96088e-08
1.84304e-08
1.23545e-07
1.782e-07
2.7095e-06
3.84282e-05
2.9444e-05
1.91959e-05
1.52149e-05
1.42958e-05
1.32177e-05
1.07846e-05
5.91338e-06
9.70234e-07
1.04152e-05
1.01236e-08
7.47899e-09
5.90254e-09
5.05932e-09
5.31595e-09
5.20596e-09
5.29762e-09
4.82102e-09
4.76602e-09
4.59227e-09
0.000223382
3.9719e-05
7.64493e-05
6.65188e-05
5.06672e-05
3.61597e-05
2.31742e-05
8.8545e-06
7.1913e-06
2.61595e-05
8.81333e-09
1.40981e-09
2.05472e-09
2.35468e-09
2.12971e-09
1.97973e-09
1.87475e-09
1.67977e-09
1.90474e-09
1.60342e-09
3.02454e-09
1.59478e-09
1.33357e-09
1.25108e-09
1.37481e-09
1.38856e-09
4.15385e-06
2.06085e-06
5.60366e-06
2.07677e-05
0.00063396
8.04695e-05
8.60119e-05
7.79651e-05
6.52276e-05
5.14687e-05
3.84647e-05
2.67675e-05
1.61564e-05
5.97904e-06
1.45908e-05
3.37249e-06
2.24061e-06
1.6696e-06
1.39587e-06
1.14764e-06
7.94011e-07
2.59635e-07
5.62462e-07
1.74021e-06
0.00033801
0.00023989
0.000115525
5.92352e-05
2.88687e-05
1.30663e-05
4.23153e-06
1.8848e-06
8.75431e-06
1.26095e-05
3.34976e-07
1.23846e-08
1.54647e-08
2.20213e-08
2.59194e-08
2.67629e-08
2.74659e-08
2.86545e-08
2.90762e-08
2.12272e-08
1.81187e-05
4.279e-08
1.64105e-08
1.9215e-07
1.51165e-06
2.22883e-06
2.15194e-06
1.19961e-06
3.49243e-07
2.49203e-06
3.84805e-05
4.39191e-05
3.41624e-05
2.52447e-05
1.8814e-05
1.37822e-05
9.29141e-06
4.45489e-06
7.86017e-07
6.77749e-06
5.20507e-09
7.19131e-09
3.56157e-09
4.03872e-09
4.05576e-09
3.52749e-09
3.90239e-09
3.56157e-09
3.20371e-09
3.03953e-09
0.000492334
2.19687e-05
7.87781e-05
7.7745e-05
5.80157e-05
3.85733e-05
2.23648e-05
7.50756e-06
6.86615e-06
2.12567e-05
7.18321e-09
1.00387e-09
1.32455e-09
9.34158e-10
1.54763e-09
1.50581e-09
1.36638e-09
1.51975e-09
1.19907e-09
1.48889e-09
1.78671e-09
9.84119e-10
1.13749e-09
9.45776e-10
1.0608e-09
3.29999e-08
2.23399e-06
9.11997e-07
2.97421e-06
1.02902e-05
0.00210568
0.000212591
0.000192655
0.000142453
9.88655e-05
6.55485e-05
4.0675e-05
2.15837e-05
5.70375e-06
9.17759e-06
3.6483e-05
7.85968e-06
7.03906e-06
6.12933e-06
4.80682e-06
3.18634e-06
1.34935e-06
7.48531e-07
3.30655e-06
6.3377e-06
0.000484616
0.000362881
0.000156771
7.22958e-05
3.03677e-05
1.04729e-05
5.52929e-07
5.77112e-06
1.34203e-05
1.86329e-05
3.05443e-07
3.78305e-08
1.67291e-08
1.06577e-08
9.95665e-09
8.05562e-09
7.09322e-09
6.67737e-09
9.07743e-09
2.19805e-08
5.82788e-05
3.49493e-05
1.9999e-05
1.27243e-05
8.45659e-06
5.62953e-06
3.44361e-06
1.45918e-06
4.42438e-07
2.31932e-06
2.79186e-05
3.60032e-05
2.95911e-05
2.17413e-05
1.54198e-05
1.05112e-05
6.53006e-06
2.90227e-06
5.87258e-07
4.16268e-06
7.9304e-10
6.8754e-09
3.05749e-09
2.51887e-09
2.34461e-09
2.81986e-09
2.36045e-09
2.28124e-09
1.99608e-09
2.12927e-09
0.00084111
0.000126136
5.50613e-05
7.30084e-05
5.64778e-05
3.67969e-05
2.01789e-05
6.00918e-06
6.83513e-06
1.84318e-05
4.67752e-09
1.21839e-09
1.08877e-09
1.04989e-09
9.46195e-10
8.03618e-10
6.74002e-10
7.3881e-10
9.46195e-10
1.04467e-09
1.75773e-09
8.07939e-10
7.24768e-10
7.24768e-10
5.46547e-10
6.29717e-10
8.55464e-10
9.14515e-08
9.0185e-07
3.02323e-06
0.00562208
0.000118767
9.43856e-05
5.91479e-05
3.31267e-05
1.55492e-05
3.30239e-06
6.28025e-06
1.52708e-05
2.50617e-05
3.4226e-05
2.6485e-05
1.93968e-05
1.3118e-05
7.91544e-06
3.65287e-06
3.13137e-08
3.58248e-06
7.47776e-06
1.15951e-05
0.000550843
0.0004575
0.000176016
7.2469e-05
2.54547e-05
5.46527e-06
3.05161e-06
7.83284e-06
1.42466e-05
2.01024e-05
8.93242e-08
5.91813e-08
3.04743e-08
1.54304e-08
6.14125e-09
3.05958e-09
1.28237e-08
2.27536e-08
3.40751e-08
5.86693e-08
4.99026e-05
3.38378e-05
1.89265e-05
1.16026e-05
7.27859e-06
4.51562e-06
2.56798e-06
1.0208e-06
3.30548e-07
1.57854e-06
1.56572e-05
1.92453e-05
1.62266e-05
1.19345e-05
8.32318e-06
5.50388e-06
3.28166e-06
1.39404e-06
3.22416e-07
2.00602e-06
7.8318e-09
6.02343e-09
3.10744e-09
1.88508e-09
1.26654e-09
1.32545e-09
1.63472e-09
1.32545e-09
8.24724e-10
1.27311e-09
0.00107444
0.000222227
1.39366e-05
5.11022e-05
4.3136e-05
2.82494e-05
1.49232e-05
3.78697e-06
6.09214e-06
1.46401e-05
2.63414e-09
6.86824e-10
3.61486e-10
5.66329e-10
7.47072e-10
4.45833e-10
6.02477e-10
8.79617e-10
3.37387e-10
8.62737e-10
1.21633e-06
7.81419e-07
4.0868e-10
3.20317e-10
6.07498e-10
4.16666e-07
5.61814e-07
9.53993e-08
8.55534e-07
1.83629e-06
0.00358813
0.000657902
0.000459106
0.000311697
0.000216397
0.00014704
9.26434e-05
4.89522e-05
2.89684e-06
3.55004e-05
7.43935e-06
1.39352e-05
7.67928e-06
2.91179e-06
1.72275e-07
2.25109e-06
3.90079e-06
5.50365e-06
7.29401e-06
8.66314e-06
0.000285571
0.00037128
0.000123671
4.49107e-05
1.20273e-05
5.21522e-07
5.15075e-06
7.59766e-06
1.13708e-05
1.58856e-05
8.19657e-08
2.08342e-08
2.13784e-08
2.72313e-08
3.40904e-08
4.26541e-08
4.94209e-08
5.55613e-08
6.05208e-08
6.47703e-08
2.02696e-05
1.51093e-05
8.2019e-06
4.87833e-06
2.962e-06
1.77852e-06
9.86153e-07
3.96975e-07
1.01761e-07
5.77682e-07
5.90197e-06
5.59668e-06
4.70718e-06
3.45192e-06
2.38318e-06
1.54943e-06
9.04901e-07
3.82794e-07
7.26219e-08
5.29247e-07
1.11304e-08
2.69712e-09
1.56077e-09
9.72057e-10
7.66693e-10
9.44675e-10
4.24419e-10
7.53002e-10
5.06565e-10
6.95828e-10
0.000717981
0.000182305
1.22233e-05
1.98834e-05
1.95372e-05
1.30482e-05
6.65727e-06
1.297e-06
3.40849e-06
7.47601e-06
1.71593e-09
5.04076e-10
5.82487e-10
4.36866e-10
2.0163e-10
1.23219e-10
5.26479e-10
3.02445e-10
4.48067e-10
3.15485e-11
8.8082e-05
0.000126026
8.22911e-05
4.74181e-05
2.57652e-05
1.31322e-05
5.53745e-06
3.50998e-07
4.20802e-06
8.6808e-06
0.00458507
0.000675947
0.000505559
0.000382057
0.000287778
0.00021398
0.000155019
0.000107132
6.69523e-05
3.47315e-05
9.73442e-06
2.07647e-05
1.45447e-05
9.78811e-06
6.59577e-06
4.52368e-06
3.15655e-06
2.15117e-06
1.18215e-06
2.79827e-07
9.68539e-05
8.4199e-05
2.02323e-05
6.00557e-06
7.17977e-07
7.95263e-07
1.06539e-06
1.13758e-06
1.5735e-06
2.73494e-06
1.60366e-08
1.47767e-08
1.06625e-08
5.51741e-09
2.25278e-09
2.3196e-09
7.04472e-09
1.08153e-08
1.40226e-08
1.73827e-08
1.6674e-06
1.79628e-06
9.43534e-07
5.53334e-07
3.32812e-07
2.03061e-07
1.2165e-07
6.4998e-08
2.29424e-08
2.1306e-08
7.71506e-07
4.4953e-07
3.63705e-07
2.65079e-07
1.83836e-07
1.21536e-07
7.54444e-08
4.24688e-08
1.64663e-08
6.54357e-09
3.53932e-09
6.8729e-10
1.90914e-10
4.96376e-10
1.14548e-10
1.27276e-10
4.32738e-10
1.14548e-10
3.30917e-10
2.29097e-10
5.34201e-05
2.87316e-05
2.94863e-06
2.2056e-06
2.48871e-06
1.73404e-06
9.3043e-07
2.63862e-07
2.82602e-07
7.41448e-07
1.43976e-10
9.37213e-11
3.85299e-10
5.20674e-11
8.33078e-10
8.33078e-11
6.24809e-11
4.37366e-10
3.54058e-10
3.74885e-10
0.000260775
0.000156219
9.10586e-05
5.03305e-05
2.66328e-05
1.30958e-05
5.08921e-06
1.61618e-07
4.43375e-06
8.67439e-06
0.520567
0.415351
0.526099
0.913053
0.68058
0.619375
0.734316
1.10865
0.845398
0.788014
0.934036
1.43561
0.614334
0.591266
0.700629
1.09645
0.449652
0.448449
0.532513
0.862065
0.298477
0.295155
0.366287
0.623233
0.199201
0.190276
0.254453
0.457067
0.128904
0.118971
0.170845
0.318143
0.0887905
0.081208
0.123078
0.232884
0.0664568
0.061443
0.0996533
0.188863
0.0351232
0.00177202
8.25841e-06
0.0187706
0.077577
0.00645708
6.12481e-06
0.040599
0.135713
0.0151156
3.25041e-06
0.070083
0.124358
0.0169474
1.63469e-06
0.060159
0.110036
0.0169592
8.48524e-07
0.0488454
0.0854354
0.0142572
4.24211e-07
0.0376312
0.0647878
0.0111274
2.16418e-07
0.0306979
0.0469567
0.00843057
1.27549e-07
0.0234489
0.0361974
0.0072395
0.00105472
0.018692
0.0304393
0.00834617
0.00386977
0.015718
0.0166492
0.0131431
0.013851
0.0193384
0.0381591
0.0263357
0.0258961
0.0404216
0.0744125
0.0483897
0.0489934
0.0792891
0.0707057
0.0428913
0.0445203
0.074746
0.0650173
0.0370258
0.0395352
0.0699085
0.0521783
0.0281357
0.0307763
0.0568589
0.0408278
0.0208497
0.0234348
0.0455649
0.0304855
0.0147869
0.0169536
0.0341712
0.0240523
0.0106928
0.0126594
0.026513
0.0205798
0.00870991
0.0108153
0.0220132
0.00186819
0.00135428
0.00131027
0.00191302
0.00599428
0.0041174
0.00381998
0.00625345
0.0161217
0.0109442
0.0104257
0.0165235
0.0189686
0.0125128
0.0123591
0.0189221
0.020731
0.0131785
0.0136116
0.0207424
0.019086
0.0117036
0.0125159
0.0191346
0.0166824
0.00980677
0.0108215
0.0169236
0.0137473
0.00778615
0.0087898
0.0139355
0.0115952
0.00602721
0.00712036
0.0115444
0.0103353
0.00526711
0.00670159
0.010398
0.000596193
0.000555712
0.000587749
0.000802528
0.00222868
0.00207456
0.00233897
0.00337589
0.00605615
0.00571448
0.00637823
0.00886319
0.0072791
0.00653762
0.00704928
0.00958943
0.00841308
0.00715815
0.00765393
0.0103741
0.00823482
0.00662682
0.00710274
0.00958826
0.00762641
0.00579398
0.00628345
0.00853771
0.00672652
0.00484352
0.00531936
0.00722572
0.00611959
0.00404124
0.00463073
0.00625694
0.00588758
0.00387007
0.00476459
0.00606642
0.000116305
0.000104864
0.000105323
0.000163758
0.000756454
0.000713668
0.000838432
0.00122555
0.00244623
0.00248179
0.00297978
0.00410159
0.00302447
0.003057
0.00354662
0.00472183
0.00361486
0.00357501
0.00406111
0.00533877
0.00368188
0.00350235
0.00391822
0.00509122
0.00353279
0.00321301
0.00357038
0.0046056
0.00330627
0.00285049
0.00315399
0.00401881
0.00324234
0.00257179
0.00292613
0.00361767
0.00323283
0.00252579
0.00305131
0.00353747
1.70263e-05
1.23534e-05
7.87668e-06
2.6411e-05
0.000270166
0.000250368
0.000299951
0.000458416
0.00117422
0.00119832
0.00148063
0.00206864
0.00150183
0.0015792
0.00190392
0.00253621
0.00182506
0.00193546
0.00229672
0.00299963
0.00189171
0.0019733
0.00230006
0.00295829
0.00182138
0.00185702
0.00213708
0.0027097
0.00177147
0.0017269
0.00195493
0.00243913
0.0018217
0.00165594
0.00188962
0.00224547
0.00183098
0.00164276
0.00194822
0.00217768
6.69095e-06
2.41438e-06
2.32655e-06
2.38193e-06
7.71059e-05
6.3978e-05
7.61851e-05
0.000130146
0.000539399
0.000531225
0.000661787
0.000949529
0.000764909
0.000803316
0.0009798
0.00131269
0.000974804
0.00105239
0.00127149
0.00166461
0.00105661
0.00113901
0.00135609
0.00174534
0.0010219
0.00109898
0.0012938
0.00163138
0.00103026
0.00107274
0.00123689
0.0015329
0.00104513
0.00103842
0.00118612
0.00138615
0.00106761
0.00106078
0.00124017
0.00137123
5.39344e-06
1.90817e-06
1.82513e-06
1.91691e-06
1.3869e-05
6.81266e-06
6.59385e-06
2.09017e-05
0.000235554
0.00021191
0.000263617
0.000403016
0.000384448
0.000396863
0.000485149
0.000655672
0.000517767
0.00056032
0.000681774
0.000896273
0.000603201
0.000657521
0.000789369
0.00101909
0.000589049
0.000650235
0.000773196
0.000971334
0.00062438
0.000672519
0.000782538
0.000968008
0.000602355
0.000633621
0.000722296
0.000839978
0.000641212
0.000682846
0.000789001
0.000870933
3.95812e-06
1.25901e-06
1.22066e-06
1.2826e-06
1.07515e-06
4.96969e-07
4.85652e-07
5.35902e-07
8.94819e-05
6.14174e-05
7.44769e-05
0.000139511
0.000186732
0.000185856
0.000226352
0.000310056
0.000265641
0.000284604
0.000347374
0.000460128
0.000339149
0.000369245
0.000444736
0.000577647
0.000330245
0.0003701
0.000441872
0.000552724
0.000378033
0.000413777
0.000483404
0.000599219
0.000348635
0.000379315
0.000431475
0.000501773
0.00039172
0.000434988
0.000498144
0.000550293
4.5441e-06
1.55895e-06
1.52291e-06
1.52584e-06
1.03351e-06
3.55828e-07
3.46772e-07
3.78704e-07
2.30711e-05
1.59143e-07
1.51462e-07
2.2136e-05
8.64533e-05
8.0827e-05
9.72847e-05
0.000135825
0.000131051
0.000137187
0.000167674
0.000225171
0.000188807
0.000203216
0.000245087
0.000321742
0.000177759
0.000201155
0.000240649
0.000299069
0.000228183
0.000250434
0.000293266
0.000365922
0.00019942
0.000220754
0.000250657
0.000291683
0.000240027
0.000272588
0.000310611
0.0003431
1.39575e-06
4.31496e-07
2.95654e-07
1.62093e-07
7.77056e-07
2.69991e-07
2.70022e-07
2.94374e-07
2.95409e-07
1.05812e-07
1.05914e-07
1.17116e-07
3.65685e-05
3.06085e-05
3.57328e-05
5.10015e-05
6.07592e-05
6.098e-05
7.45154e-05
0.000102532
0.000104162
0.00010979
0.0001324
0.000176679
8.97758e-05
0.000102657
0.000122941
0.000150781
0.000138009
0.000150143
0.000176152
0.000222494
0.000108915
0.000121444
0.0001376
0.000159914
0.000145662
0.000167121
0.000190305
0.00020966
1.09063e-05
2.70225e-06
2.16028e-06
1.82713e-06
6.91029e-07
2.53376e-07
2.61144e-07
3.1663e-07
2.40515e-07
8.41969e-08