/*--------------------------------*- C++ -*----------------------------------*\
| =========                 |                                                 |
| \\      /  F ield         | foam-extend: Open Source CFD                    |
|  \\    /   O peration     | Version:     4.0                                |
|   \\  /    A nd           | Web:         http://www.foam-extend.org         |
|    \\/     M anipulation  |                                                 |
\*---------------------------------------------------------------------------*/
FoamFile
{
    version     2.0;
    format      ascii;
    class       volScalarField;
    location    "2600";
    object      epsilon;
}
// * * * * * * * * * * * * * * * * * * * * * * * * * * * * * * * * * * * * * //

dimensions      [0 2 -3 0 0 0 0];

internalField   nonuniform List<scalar> 
34480
(
4930.66
4928.63
4928.52
4930.02
4933.24
4938.4
4951.02
5004.67
5194.52
5725.83
655.451
602.151
601.233
653.206
838.75
1576.06
5099.51
22849.7
103709
382385
618.84
523.179
509.529
569.166
809.966
1829.13
7041.66
35119
172535
699243
524.861
439.449
427.409
485.111
733.83
1883.43
8219.38
44412.5
232219
1.01098e+06
456.7
384.818
377.379
433.145
684.842
1927.57
9178
52591.5
289185
1.33362e+06
392.525
332.841
326.606
378.476
628.379
1956.28
10121.4
61045.7
350635
1.6987e+06
353.285
302.789
298.391
346.413
591.489
1962.78
10725.7
67199.7
400353
2.02276e+06
321.376
282.115
277.712
317.504
534.199
1820.5
10350.4
66983.7
412652
2.16764e+06
460.057
435.973
433.363
458.771
597.094
1410.13
6840.91
43695.9
275988
1.49853e+06
5709.13
5709.36
5714.81
5726.77
5743.59
5763.67
5787.87
5823.82
5890.23
5958.89
4856.08
4853.56
4853.08
4854.57
4858.57
4865.58
4876.72
4902.84
4965.48
5186.01
512.075
479.204
473.569
487.689
532.094
648.537
1002.86
2354.53
11801.2
103648
447.068
383.995
370.295
389.701
458.495
645.771
1229.69
3567.12
21358.1
197643
399.663
338.72
325.261
344.969
416.438
620.186
1294.48
4289.55
30234.6
294758
365.886
311.152
300.613
319.823
390.775
598.917
1321.83
4812.22
38717.1
396504
326.359
278.975
269.167
286.452
352.234
554.139
1294.12
5180.43
47348.8
508567
302.553
260.855
252.676
267.939
328.932
521.456
1256.17
5361.08
54216.5
607814
283.117
249.968
242.291
253.91
301.563
456.642
1074.64
4827.97
54992.2
652022
432.852
410.962
405.859
413.323
443.443
531.68
848.129
2980.66
36399.8
467546
5591.66
5587.34
5587.85
5594.49
5606.17
5620.75
5640.12
5673.13
5740.79
5913.69
4770.95
4768.55
4767.8
4768.61
4771.24
4775.38
4780.2
4790.99
4815.06
4870.12
399.893
386.447
383.784
388.542
403.676
439.042
527.092
758.598
1516.82
5758.42
308.15
276.919
270.083
279.261
309.673
379.291
550.408
1030.16
2859.5
14988.3
290.283
256.458
248.784
259.361
294.52
378.439
597.228
1279.8
4409.2
28919.5
280.876
247.915
241.467
252.423
289.533
380.321
629.033
1481.34
6140.45
47809.7
261.348
231.093
224.602
235
270.698
361.665
625.231
1625.62
8150.82
73152.8
250.554
222.532
216.94
226.43
260.521
349.183
617.187
1724.53
10165.4
101598
243.077
220.108
214.695
222.32
249.656
322.184
549.941
1594.45
11043.2
122897
402.723
386.38
382.629
388.277
408.711
461.619
607.127
1235.55
7680.94
92096.7
5481.98
5474.89
5472.59
5476.17
5484.97
5496.96
5513.47
5544.24
5616.72
5802.13
4674.93
4673.42
4673
4673.63
4675.43
4677.72
4678.72
4681.53
4688.94
4705.05
328.462
324.341
323.521
324.616
328.697
339.05
365.06
421.603
541.209
940.358
219.316
206.062
203.211
207.254
220.646
248.937
309.074
445.236
772.131
2085.81
214.444
197.723
193.79
199.312
217.269
256.76
345.546
565.535
1169.54
4141.62
217.577
199.539
195.951
202.15
222.754
269.301
379.534
675.977
1611.22
7155.33
210.716
192.769
188.731
195.122
216.35
266.429
392.099
761.674
2117.7
11599.9
208.512
190.729
187.084
193.235
214.631
266.162
401.076
827.409
2633.57
17124
209.984
194.707
190.984
196.277
214.347
258.898
379.795
795.212
2860.91
21851.1
375.689
363.704
360.87
365.061
380.025
416.998
508.754
782.706
2181.16
16545.5
5359.99
5352.91
5350.35
5353.42
5361.69
5374.06
5391.2
5422.06
5488.87
5632.09
4569.53
4568.84
4568.7
4569.1
4570.07
4570.78
4569.47
4568.33
4568.27
4570.03
285.509
284.769
284.67
284.438
284.433
286.168
293.405
307.378
329.714
375.954
167.905
162.887
161.845
163.264
168.297
178.518
198.3
237.434
308.115
484.225
166.47
158.746
156.785
159.283
167.538
184.774
219.571
294.214
443.137
889.755
173.916
164.608
162.675
165.765
176.214
198.553
246.036
356.471
601.427
1498
173.616
163.424
160.932
164.477
176.212
202.441
261.462
410.92
783.891
2434.98
176.093
165.192
162.82
166.445
179.078
207.882
275.36
457.578
966.54
3640.77
183.353
173.474
170.904
174.284
185.61
212.178
276.682
463.598
1058.69
4746.66
351.359
342.757
340.574
343.463
354.005
379.257
438.182
581.55
1009.51
3814.39
5230.32
5223.39
5220.67
5223.25
5230.87
5242.96
5259.62
5288
5343.69
5446.04
4455.71
4455.65
4455.73
4455.95
4456.32
4455.99
4453.97
4451.88
4450.1
4449.03
259.797
259.88
259.962
259.442
258.449
258.049
259.945
263.299
268.031
275.303
139.443
137.797
137.528
137.913
139.528
142.771
148.674
159.186
175.182
203.045
137.537
134.157
133.232
134.279
137.831
144.899
157.838
182.367
222.507
303.001
145.046
140.513
139.563
140.991
145.96
156.014
175.324
215.179
286.342
458.04
147.361
141.84
140.388
142.251
148.41
161.44
187.867
247.286
364.057
701.812
151.781
145.381
143.933
145.959
153.086
168.45
200.81
278.312
444.177
1014.09
162.27
156.169
154.493
156.572
163.399
178.66
212.136
297.467
500.457
1320.6
329.48
323.584
321.977
323.929
331.269
348.549
387.055
467.616
640.001
1290.61
5092.37
5085.83
5083.13
5085.34
5092.25
5103.54
5119.03
5143.94
5187.01
5254.27
4334.2
4334.56
4334.78
4334.88
4334.86
4333.9
4332.04
4330.03
4328.21
4326.88
243.796
243.751
243.775
243.301
242.371
241.926
242.288
243.018
244.121
245.925
123.984
123.571
123.578
123.617
124.003
124.851
126.394
128.975
132.496
137.195
120.666
119.231
118.808
119.222
120.695
123.517
128.269
136.263
147.554
163.746
126.666
124.563
124.14
124.753
127.006
131.345
138.963
152.943
174.381
210.558
129.506
126.628
125.818
126.751
129.858
136.116
147.661
170.703
209.286
285.812
134.272
130.644
129.806
130.878
134.751
142.687
157.839
190.044
247.846
381.558
146.169
142.567
141.525
142.751
146.712
155.221
172.352
210.935
286.968
489.916
310.148
306.299
305.14
306.433
311.513
323.503
349.141
396.332
480.002
667.555
4945.89
4939.96
4937.42
4939.29
4945.41
4955.45
4969.2
4990.2
5022.66
5066.5
4205.5
4206.11
4206.43
4206.46
4206.21
4205.13
4203.64
4202.05
4200.62
4199.54
232.908
232.483
232.379
232.027
231.434
231.25
231.268
231.416
231.803
232.794
115.601
115.579
115.657
115.607
115.614
115.727
115.999
116.502
117.191
117.984
111.053
110.449
110.255
110.415
111.021
112.153
113.944
116.657
120.073
123.797
115.292
114.364
114.201
114.445
115.431
117.257
120.25
125.186
131.928
140.366
117.754
116.306
115.872
116.323
117.847
120.797
125.852
134.851
148.24
167.559
122.085
120.091
119.632
120.171
122.222
126.25
133.355
146.775
167.94
202.424
134.228
132.21
131.594
132.293
134.516
139.158
147.945
165.501
195.874
252.189
293.168
290.806
289.976
290.832
294.385
302.957
320.354
349.001
394.125
462.636
4790.75
4785.57
4783.29
4784.86
4790.11
4798.62
4810.31
4827.3
4851.17
4880.1
4069.95
4070.7
4071.07
4071.06
4070.69
4069.8
4068.71
4067.55
4066.52
4065.73
224.503
223.703
223.467
223.231
222.984
222.931
222.911
222.974
223.259
224.15
111.006
111.069
111.144
111.088
111.013
110.94
110.888
110.889
110.952
111.059
105.704
105.442
105.35
105.411
105.667
106.137
106.847
107.834
108.975
109.978
108.445
108.057
108.01
108.098
108.518
109.273
110.455
112.241
114.482
116.707
110.262
109.561
109.336
109.548
110.278
111.652
113.89
117.508
122.46
128.095
113.878
112.81
112.572
112.833
113.899
115.929
119.31
125.064
133.3
143.385
125.601
124.541
124.197
124.585
125.796
128.287
132.824
140.975
153.818
171.852
278.194
276.871
276.264
276.847
279.402
285.765
297.755
315.704
341.525
371.322
4626.91
4622.58
4620.64
4621.92
4626.26
4633.16
4642.68
4655.9
4672.99
4691.97
3927.95
3928.61
3929.01
3928.97
3928.61
3927.99
3927.23
3926.43
3925.73
3925.16
216.926
216.031
215.685
215.536
215.482
215.46
215.461
215.538
215.833
216.725
108.393
108.455
108.506
108.465
108.394
108.299
108.2
108.116
108.072
108.077
102.81
102.686
102.638
102.663
102.778
102.988
103.292
103.688
104.115
104.434
104.449
104.293
104.289
104.317
104.495
104.807
105.281
105.948
106.728
107.39
105.648
105.322
105.21
105.308
105.651
106.284
107.281
108.777
110.711
112.634
108.536
107.972
107.856
107.978
108.53
109.556
111.197
113.759
117.161
120.57
119.493
118.985
118.807
119.019
119.661
120.986
123.326
127.18
132.824
139.522
264.783
264.157
263.689
264.111
266.036
270.903
279.255
290.781
306.14
320.302
4454.52
4451.07
4449.49
4450.5
4453.94
4459.28
4466.74
4476.63
4488.52
4500.77
3779.62
3780.14
3780.47
3780.44
3780.21
3779.79
3779.28
3778.75
3778.29
3777.87
209.481
208.599
208.258
208.151
208.116
208.112
208.133
208.227
208.538
209.427
106.793
106.836
106.869
106.84
106.787
106.714
106.636
106.566
106.529
106.536
101.295
101.227
101.2
101.212
101.269
101.371
101.516
101.695
101.88
101.999
102.197
102.134
102.139
102.147
102.225
102.362
102.563
102.829
103.116
103.338
102.916
102.77
102.717
102.761
102.921
103.209
103.654
104.284
105.065
105.813
105.178
104.878
104.824
104.883
105.174
105.703
106.521
107.712
109.189
110.496
115.215
115.009
114.926
115.043
115.377
116.078
117.268
119.1
121.602
124.39
252.452
252.276
251.885
252.218
253.758
257.51
263.348
270.864
280.268
287.088
4273.85
4271.23
4270.02
4270.79
4273.38
4277.37
4282.97
4290.1
4298.14
4305.89
3625.1
3625.52
3625.77
3625.76
3625.62
3625.35
3625.02
3624.67
3624.38
3624.05
201.821
200.966
200.655
200.561
200.535
200.539
200.57
200.67
200.985
201.856
105.698
105.721
105.739
105.721
105.686
105.639
105.588
105.546
105.532
105.552
100.53
100.488
100.472
100.478
100.509
100.563
100.638
100.728
100.821
100.874
100.978
100.947
100.951
100.953
100.993
101.062
101.161
101.283
101.404
101.494
101.368
101.306
101.28
101.301
101.375
101.506
101.704
101.973
102.295
102.62
103.14
102.975
102.95
102.981
103.142
103.429
103.854
104.44
105.119
105.681
112.203
112.15
112.119
112.185
112.359
112.725
113.312
114.17
115.246
116.503
240.735
240.836
240.479
240.767
242.08
244.888
248.948
253.873
259.757
262.812
4085.33
4083.46
4082.59
4083.15
4084.99
4087.87
4091.92
4096.86
4102.13
4106.94
3464.59
3464.93
3465.13
3465.13
3465.05
3464.88
3464.66
3464.44
3464.25
3463.98
193.767
192.947
192.664
192.581
192.559
192.565
192.597
192.695
193.002
193.846
104.848
104.856
104.863
104.852
104.831
104.804
104.776
104.755
104.76
104.789
100.159
100.133
100.124
100.127
100.143
100.172
100.211
100.259
100.311
100.338
100.35
100.328
100.326
100.328
100.353
100.397
100.457
100.528
100.591
100.641
100.535
100.509
100.497
100.507
100.541
100.601
100.69
100.806
100.941
101.098
101.943
101.844
101.831
101.852
101.948
102.115
102.352
102.664
103.001
103.28
110.018
110.035
110.032
110.072
110.165
110.346
110.619
111.003
111.418
112.027
229.21
229.476
229.124
229.39
230.527
232.496
235.279
238.491
242.217
243.257
3889.54
3888.28
3887.71
3888.09
3889.32
3891.36
3894.16
3897.46
3900.79
3903.72
3298.38
3298.67
3298.82
3298.83
3298.78
3298.68
3298.55
3298.41
3298.28
3298.04
185.211
184.43
184.175
184.103
184.082
184.087
184.115
184.204
184.498
185.309
104.114
104.113
104.114
104.107
104.096
104.082
104.07
104.063
104.079
104.114
99.9895
99.9743
99.9703
99.9718
99.9792
99.9922
100.011
100.034
100.064
100.08
100.045
100.025
100.02
100.021
100.04
100.073
100.117
100.167
100.21
100.245
100.114
100.102
100.096
100.101
100.118
100.146
100.187
100.239
100.296
100.382
101.253
101.188
101.181
101.197
101.26
101.366
101.509
101.691
101.876
102.044
108.329
108.384
108.393
108.42
108.468
108.549
108.66
108.813
108.924
109.246
217.324
217.839
217.514
217.774
218.586
219.932
221.793
223.858
226.22
226.179
3687.21
3686.36
3686.02
3686.26
3687.09
3688.47
3690.33
3692.43
3694.44
3696.19
3126.88
3127.13
3127.24
3127.25
3127.23
3127.16
3127.08
3126.99
3126.91
3126.69
176.069
175.332
175.106
175.044
175.023
175.025
175.047
175.125
175.4
176.174
103.439
103.433
103.429
103.425
103.42
103.415
103.412
103.414
103.437
103.475
99.9214
99.9142
99.9137
99.9141
99.9159
99.9192
99.9249
99.9341
99.9505
99.9613
99.9113
99.893
99.8851
99.8866
99.9015
99.9279
99.9624
100
100.034
100.062
99.9195
99.9129
99.9091
99.9115
99.9203
99.9351
99.9549
99.9792
100.004
100.056
100.853
100.807
100.801
100.815
100.86
100.931
101.025
101.14
101.253
101.373
106.922
106.989
107.009
107.025
107.046
107.076
107.108
107.153
107.128
107.32
204.843
205.496
205.299
205.481
206.024
206.909
208.106
209.402
210.877
210.286
3479.12
3478.58
3478.36
3478.52
3479.06
3479.95
3481.12
3482.39
3483.54
3484.57
2950.62
2950.83
2950.91
2950.92
2950.91
2950.87
2950.82
2950.76
2950.7
2950.51
166.262
165.572
165.376
165.327
165.304
165.304
165.319
165.383
165.637
166.37
102.797
102.789
102.782
102.78
102.778
102.779
102.782
102.79
102.815
102.856
99.9046
99.9026
99.9041
99.9038
99.9024
99.9001
99.8985
99.8994
99.9073
99.9167
99.8648
99.8484
99.8401
99.8411
99.8525
99.8729
99.8994
99.9286
99.9547
99.9785
99.845
99.8398
99.8367
99.8378
99.8429
99.8514
99.8622
99.8747
99.8866
99.9198
100.607
100.572
100.567
100.578
100.61
100.66
100.724
100.8
100.875
100.969
105.657
105.722
105.745
105.756
105.764
105.77
105.767
105.765
105.687
105.818
191.595
192.298
192.203
192.326
192.669
193.216
193.937
194.721
195.604
194.784
3266.15
3265.82
3265.69
3265.8
3266.13
3266.66
3267.35
3268.07
3268.68
3269.26
2770.32
2770.49
2770.55
2770.56
2770.56
2770.54
2770.5
2770.46
2770.42
2770.24
155.694
155.055
154.886
154.85
154.833
154.831
154.84
154.888
155.115
155.807
102.185
102.174
102.167
102.165
102.166
102.169
102.176
102.186
102.211
102.254
99.9137
99.914
99.916
99.9154
99.9126
99.908
99.9032
99.9003
99.9033
99.913
99.861
99.8474
99.84
99.8403
99.8484
99.8629
99.882
99.9031
99.923
99.9423
99.8324
99.8276
99.825
99.8253
99.8283
99.8334
99.8395
99.8464
99.8524
99.8737
100.43
100.403
100.399
100.407
100.429
100.463
100.506
100.556
100.606
100.683
104.458
104.51
104.532
104.54
104.542
104.539
104.524
104.506
104.416
104.517
177.436
178.119
178.104
178.182
178.378
178.68
179.06
179.501
179.975
179.134
3049.37
3049.19
3049.12
3049.18
3049.36
3049.66
3050.04
3050.4
3050.69
3051
2586.98
2587.12
2587.16
2587.18
2587.17
2587.16
2587.14
2587.1
2587.06
2586.91
144.231
143.653
143.513
143.489
143.484
143.481
143.484
143.516
143.706
144.352
101.609
101.596
101.588
101.586
101.588
101.593
101.601
101.611
101.633
101.677
99.9327
99.9326
99.934
99.9331
99.9303
99.926
99.9212
99.9177
99.9184
99.929
99.8783
99.868
99.8623
99.8622
99.8672
99.8764
99.8887
99.9026
99.9166
99.9315
99.8521
99.8482
99.8461
99.8459
99.8474
99.85
99.8531
99.8563
99.8592
99.8716
100.273
100.253
100.249
100.254
100.268
100.289
100.315
100.345
100.377
100.436
103.291
103.328
103.345
103.35
103.349
103.343
103.325
103.304
103.225
103.304
162.208
162.816
162.864
162.911
162.998
163.119
163.249
163.454
163.628
162.904
2830.08
2829.99
2829.95
2829.98
2830.07
2830.22
2830.4
2830.56
2830.68
2830.83
2401.73
2401.84
2401.87
2401.88
2401.88
2401.87
2401.85
2401.83
2401.8
2401.68
131.646
131.153
131.061
131.051
131.05
131.046
131.042
131.056
131.188
131.768
101.087
101.072
101.065
101.062
101.064
101.069
101.076
101.085
101.102
101.142
99.9496
99.9477
99.9479
99.9469
99.9449
99.9421
99.9391
99.937
99.9374
99.9479
99.9084
99.9014
99.8978
99.8975
99.9002
99.9053
99.9121
99.9202
99.929
99.9392
99.89
99.8876
99.8863
99.8859
99.8862
99.887
99.8878
99.8885
99.8893
99.895
100.119
100.106
100.103
100.105
100.112
100.123
100.136
100.151
100.168
100.208
102.169
102.188
102.199
102.2
102.196
102.187
102.17
102.151
102.097
102.156
145.451
145.928
145.962
145.998
146.058
146.138
146.22
146.279
146.211
145.692
2609.71
2609.66
2609.65
2609.66
2609.69
2609.74
2609.79
2609.84
2609.87
2609.94
2215.03
2215.09
2215.1
2215.1
2215.1
2215.1
2215.09
2215.09
2215.09
2215.03
117.389
117.051
117.02
117.025
117.027
117.022
117.012
117.005
117.05
117.478
100.625
100.609
100.602
100.598
100.599
100.602
100.608
100.617
100.63
100.662
99.9659
99.9636
99.963
99.9623
99.9614
99.9603
99.9592
99.9586
99.9593
99.9664
99.9506
99.9469
99.9451
99.9449
99.9461
99.9485
99.9517
99.9556
99.9602
99.9658
99.9406
99.9395
99.9389
99.9386
99.9385
99.9383
99.938
99.9376
99.9373
99.9386
100.009
100.004
100.002
100.003
100.006
100.01
100.014
100.019
100.026
100.045
101.125
101.127
101.129
101.128
101.122
101.113
101.1
101.087
101.069
101.111
125.762
126.044
126.062
126.082
126.115
126.157
126.2
126.224
126.174
125.833
2388.98
2388.96
2388.97
2388.97
2388.97
2388.97
2388.97
2388.97
2388.95
2388.99
7183.97
7294.28
7250.54
7044.08
658916
683865
689429
697311
1.49739e+06
1.5841e+06
1.59161e+06
1.57172e+06
2.52526e+06
2.70356e+06
2.70103e+06
2.61952e+06
3.76096e+06
4.05609e+06
4.02976e+06
3.86819e+06
5.30804e+06
5.75138e+06
5.69984e+06
5.48698e+06
6.86854e+06
7.46752e+06
7.40372e+06
7.20701e+06
7.88295e+06
8.61089e+06
8.55621e+06
8.42818e+06
5.61977e+06
6.17923e+06
6.11516e+06
6.08135e+06
7903.65
8151.4
7989.04
7569.8
5749.33
5802.12
5804.65
5765.51
308552
324673
345348
377328
689324
780868
824932
861816
1.17798e+06
1.40289e+06
1.4661e+06
1.49203e+06
1.76357e+06
2.1776e+06
2.25151e+06
2.26499e+06
2.45885e+06
3.11247e+06
3.21172e+06
3.24761e+06
3.13177e+06
4.04032e+06
4.20111e+06
4.31993e+06
3.57333e+06
4.70409e+06
4.94537e+06
5.18026e+06
2.8068e+06
3.81862e+06
4.0072e+06
4.32036e+06
7126.37
7357.97
7287.01
7066.66
4937.91
4948.86
4948.01
4938.29
21661
25960.3
24597.1
19966.5
61569.9
73410
68679.1
55731.4
128749
152840
140888
114033
228361
270537
246271
199441
372380
441934
401384
326407
545331
648544
591611
485409
702807
839405
769578
636851
584459
696874
629359
524659
6344.36
6431.67
6409.35
6314.02
4716.01
4718.14
4718.69
4717.89
1594.3
1711.28
1679.86
1544.99
4698.14
5172.44
5012.62
4434.62
11230.6
12505.1
11926.4
10213.7
22554.8
25253.9
23699.7
19746.2
41691.6
46923.3
43528.3
35537.4
68295.7
76986.2
70797.3
57130.1
97161
109915
100445
80430.6
83358.7
93766.6
84200.3
67267.1
5904.03
5945.73
5942.85
5904.92
4568.01
4568.92
4569.13
4568.6
423.281
436.212
438.465
431.552
710.108
757.049
761.564
731.377
1595.03
1736.82
1729.31
1610.3
3203.61
3529.32
3458.54
3118.66
6140.12
6823.4
6583.15
5758.28
10498.3
11693.9
11109.3
9472.79
15692.2
17555.8
16464
13724.8
13860.4
15397.4
14114.1
11586.5
5578.73
5600.76
5602.25
5586.63
4444.97
4445.72
4445.79
4445.17
275.584
278.457
279.169
277.91
226.357
231.457
233.285
232.245
385.582
403.073
407.312
400.544
674.048
717.859
722.112
696.121
1215.16
1316.48
1312.65
1233.52
2023.65
2211.46
2175.77
1991.42
3046.99
3360.51
3261.99
2904.58
2929.01
3183.35
3023.48
2664.2
5318.18
5328.96
5331.1
5325.54
4322.63
4323.35
4323.4
4322.77
241.774
243.68
244.08
243.022
140.134
140.888
141.241
141.227
175.865
178.564
179.693
179.438
243.199
250.227
252.463
250.763
368.97
386.595
390.325
383.184
549.225
582.688
585.332
565.813
795.527
854.993
852.15
807.141
984.697
1029.74
1010.27
962.511
5095.79
5100.67
5102.52
5101.27
4195.51
4196.21
4196.26
4195.66
228.094
229.812
230.151
229.141
118.189
118.327
118.381
118.358
125.852
126.302
126.527
126.554
146.029
147.259
147.803
147.782
183.405
186.917
188.184
187.623
233.788
240.342
242.098
240.311
314.614
327.188
329.128
323.571
543.035
548.699
546.185
542.494
4893.67
4895.68
4896.97
4897.16
4061.96
4062.62
4062.68
4062.11
219.49
221.144
221.473
220.498
110.888
110.945
110.954
110.915
110.346
110.419
110.457
110.466
117.765
117.975
118.086
118.118
131.711
132.522
132.875
132.843
149.878
151.235
151.776
151.735
187.359
190.301
191.147
190.487
400.187
397.212
396.465
399.124
4698.46
4699.15
4699.92
4700.41
3921.66
3922.28
3922.33
3921.81
212.195
213.794
214.115
213.177
107.868
107.917
107.921
107.881
104.484
104.491
104.494
104.494
107.574
107.596
107.61
107.622
113.656
113.877
113.978
113.969
121.961
122.212
122.351
122.429
144.58
145.283
145.547
145.485
335.331
330.25
329.47
332.885
4503.81
4503.91
4504.34
4504.79
3774.64
3775.2
3775.24
3774.78
205.055
206.595
206.907
206.006
106.338
106.386
106.391
106.353
101.988
101.986
101.984
101.983
103.358
103.35
103.347
103.349
106.198
106.277
106.31
106.297
110.766
110.778
110.805
110.857
126.729
126.86
126.913
126.907
297.591
292.082
291.176
294.491
4307.11
4306.97
4307.2
4307.54
3621.09
3621.59
3621.63
3621.21
197.657
199.135
199.437
198.575
105.37
105.417
105.423
105.388
100.853
100.851
100.849
100.848
101.489
101.481
101.476
101.476
102.817
102.856
102.869
102.856
105.715
105.686
105.684
105.713
117.998
117.976
117.958
117.946
271.427
265.974
265.021
268.135
4107.12
4106.94
4107.05
4107.27
3461.31
3461.74
3461.77
3461.39
189.833
191.247
191.537
190.716
104.624
104.668
104.674
104.641
100.318
100.317
100.316
100.316
100.637
100.632
100.629
100.628
101.224
101.249
101.256
101.244
103.288
103.261
103.254
103.27
113.192
113.133
113.092
113.071
250.819
245.572
244.626
247.548
3903.26
3903.14
3903.19
3903.29
3295.66
3296.03
3296.04
3295.72
181.495
182.841
183.12
182.341
103.966
104.007
104.013
103.983
100.064
100.064
100.064
100.064
100.245
100.243
100.241
100.239
100.469
100.488
100.492
100.482
102.072
102.055
102.049
102.055
110.241
110.18
110.134
110.104
232.985
227.996
227.086
229.831
3695.34
3695.31
3695.33
3695.34
3124.61
3124.91
3124.92
3124.64
172.573
173.852
174.119
173.384
103.349
103.387
103.392
103.365
99.9513
99.9524
99.9525
99.9516
100.065
100.064
100.063
100.061
100.119
100.132
100.135
100.127
101.425
101.419
101.416
101.415
108.201
108.151
108.107
108.067
216.461
211.76
210.903
213.474
3483.46
3483.54
3483.55
3483.47
2948.76
2948.99
2948.97
2948.75
163
164.211
164.468
163.779
102.757
102.792
102.798
102.772
99.9134
99.9155
99.9157
99.9142
99.9828
99.9829
99.9821
99.9809
99.9645
99.9738
99.975
99.9684
101.04
101.043
101.042
101.035
106.605
106.574
106.534
106.484
200.394
196.012
195.223
197.614
3268
3268.19
3268.2
3268.04
2768.85
2769.01
2768.98
2768.8
152.691
153.837
154.086
153.445
102.191
102.224
102.229
102.205
99.9168
99.9199
99.9203
99.918
99.9476
99.9483
99.948
99.9471
99.9035
99.9095
99.9099
99.9049
100.761
100.771
100.771
100.761
105.208
105.199
105.166
105.106
184.224
180.217
179.514
181.7
3049.65
3049.93
3049.94
3049.73
2585.93
2586
2585.96
2585.83
141.542
142.634
142.878
142.281
101.648
101.68
101.685
101.662
99.9387
99.9428
99.9432
99.9401
99.9375
99.9385
99.9386
99.9381
99.889
99.8924
99.8923
99.8891
100.511
100.524
100.525
100.514
103.876
103.891
103.866
103.8
167.523
164.009
163.416
165.335
2829.46
2829.79
2829.81
2829.58
2401.16
2401.14
2401.08
2401.02
129.373
130.425
130.665
130.103
101.141
101.169
101.172
101.151
99.9598
99.9642
99.9645
99.9613
99.9448
99.946
99.9464
99.9462
99.9026
99.904
99.9038
99.9023
100.268
100.28
100.281
100.272
102.554
102.58
102.565
102.506
149.615
146.67
146.228
147.864
2608.74
2609.11
2609.12
2608.88
2215.02
2214.86
2214.8
2214.85
115.752
116.733
116.939
116.406
100.666
100.683
100.684
100.67
99.9738
99.9765
99.9767
99.9747
99.9697
99.9706
99.9711
99.9712
99.9404
99.9405
99.9404
99.9402
100.077
100.084
100.085
100.08
101.287
101.296
101.288
101.264
128.33
126.309
126.073
127.23
2388.2
2388.59
2388.6
2388.34
6105.83
5442.9
5173.15
5077.02
5022.21
4983.69
4958.08
4943.71
4935.73
4930.98
798398
193286
33404
11732.5
5300.85
2836.41
1749.39
1212.56
928.333
765.14
1.42407e+06
247052
44254.6
15129.6
6776.59
3637.52
2200.6
1460.51
1048.31
803.06
1.99549e+06
239540
46768.9
15018.4
6483.37
3391.27
2000.62
1297.56
912.967
688.621
2.45867e+06
252616
48935.7
14561.4
6098.46
3102.34
1792.12
1144.49
795.537
596.739
2.93041e+06
276403
51144.1
13975.1
5638.79
2768.71
1561.62
981.249
677.425
508.308
3.31264e+06
294978
52003.3
13162.8
5158.91
2467.98
1375.85
861.587
595.661
450.426
3.39661e+06
287394
47702.8
11002.6
4164.42
1946.83
1093.09
700.347
502.964
394.816
2.34168e+06
182158
27372.7
5711.5
2275.31
1237.95
858.044
671.631
568.199
506.589
6016.19
5992.97
5847.19
5822.79
5779.39
5755.09
5735.81
5725.56
5718.64
5712.69
5443.29
5175.2
5045.27
4972.7
4927.15
4897.14
4877.69
4866.14
4859.92
4855.99
180239
44895
13613.5
5322.77
2635.49
1567.22
1065.13
802.493
656.261
572.304
375678
86409.7
23467.3
8290.92
3889.12
2187.82
1383.9
956.227
710.81
565.767
595039
126246
30701.8
9651.7
4228.12
2261.61
1372.63
915.878
661.616
515.514
830509
165015
36428.1
10417.7
4317.68
2220.01
1310.4
857.659
610.424
472.025
1.1098e+06
207214
41754.1
10864.3
4247.27
2091.51
1198.79
768.924
542.106
418.495
1.38892e+06
244457
45356.8
10851.1
4055.95
1939.33
1095.75
699.62
493.251
382.964
1.56429e+06
258688
43999.7
9553.59
3395.93
1585.38
900.768
587.817
429.953
345.827
1.18226e+06
178733
26854
5250.01
1966.89
1091.44
771.679
615.22
526.611
476.297
6252.85
5952.91
5792.79
5733.96
5683.08
5652.31
5630.02
5616.41
5606.84
5598.53
4904.01
4869.18
4841.71
4818.91
4801.08
4788.17
4779.56
4774.4
4771.54
4769.48
9199.5
4175.78
2298.83
1432.77
985.406
735.868
591.224
504.969
452.256
420.444
23997.8
9564.61
4650.19
2546.86
1542.07
1010.25
712.69
538.357
431.124
364.765
45437.9
15961.9
6938.07
3411.15
1898.34
1159.05
771.546
555.704
428.543
352.75
73594.1
22902.7
9011.84
4056.13
2119.74
1232.38
791.819
556.672
421.553
343.291
112049
31041.9
11040.8
4548.47
2235.32
1237.06
767.209
526.303
393.528
318.997
156047
38869.8
12577.7
4795.19
2251.83
1206.04
734.796
500.606
373.484
303.546
191504
42872
12521.6
4385.72
1974.98
1036.77
636.289
443.073
341.777
286.189
141666
27756.2
7304.57
2547.43
1307.88
842.969
642.727
536.583
473.009
436.301
6018.34
5835.85
5711.24
5637.38
5584.28
5551.16
5528.14
5512.47
5500.88
5490.91
4712.99
4704.63
4695.45
4687.21
4680.96
4676.71
4674.05
4672.7
4672.37
4671.98
1208.04
906.482
708.867
570.475
479.263
420.776
383.195
358.483
341.799
331.525
3028.74
1919.5
1270.39
860.765
612.394
460.957
367.185
307.619
268.174
242.308
6220.98
3481.22
2057.53
1252.18
812.895
564.713
420.258
333.146
278.342
243.988
10747.1
5351.27
2878.33
1610.57
978.859
644.295
460.274
354.611
289.924
250.461
17346.6
7666.85
3761.56
1939.13
1105.25
689.182
472.664
353.787
284.446
243.625
25222.3
9947.93
4496.98
2165.96
1178.91
709.716
476.417
352.877
281.943
240.95
32104.1
11242.6
4659.42
2095.22
1100.71
652.79
441.618
333.009
272.802
238.106
23544.5
7367.36
2961.87
1443.44
906.155
663.598
542.632
472.678
427.917
401.456
5789.07
5660.54
5561.79
5497.9
5453.8
5424.92
5404.21
5389.35
5378.14
5368.66
4567.58
4566.35
4565.11
4564.14
4563.56
4563.32
4563.34
4563.72
4564.63
4565.47
412.727
382.965
356.67
334.886
318.458
306.414
297.565
290.935
285.857
282.609
637.766
512.55
411.729
334.518
279.762
241.962
216.078
198.176
185.238
176.182
1287.29
926.091
666.278
486.304
369.854
294.973
246.641
214.942
193.469
179.269
2276.15
1481.75
973.412
652.898
462.869
348.845
279.642
236.708
208.352
189.98
3814.34
2241.02
1346.93
830.66
548.863
390.264
299.441
245.701
212.123
191.242
5703.75
3044.4
1696.35
978.344
614.8
420.829
314.962
254.783
217.683
194.944
7460.63
3599.9
1861.24
1012.37
616.777
417.077
313.396
255.928
221.789
201.022
5662.39
2637.08
1436.2
904.155
665.896
539.388
466.865
421.214
389.974
371.105
5535.69
5459.63
5394.36
5347.96
5314.04
5289.79
5271.53
5257.82
5247.24
5238.43
4444.79
4444.91
4445.2
4445.68
4446.27
4446.91
4447.57
4448.37
4449.58
4451.02
277.886
274.888
271.417
267.992
264.974
262.414
260.261
258.413
256.79
255.486
225.926
210.878
194.964
180.654
169.147
160.378
153.853
148.965
145.037
142.076
373.139
321.833
273.241
233.345
203.638
182.283
167.102
156.244
148.28
142.754
613.2
488.041
382.076
302.912
248.82
212.62
188.487
172.25
160.536
152.456
1013.14
737.757
529.291
386.602
296.648
240.223
204.683
181.852
166.427
156.307
1522.14
1022.71
681.314
465.945
339.925
265.201
220.361
192.772
174.284
162.24
2045.52
1267.01
790.214
514.304
364.938
280.923
232.64
203.528
184.883
172.96
1814.4
1182.38
824.916
628.737
519.811
452.694
409.127
379.52
357.937
344.658
5303.34
5261.69
5221.85
5189.96
5164.53
5144.8
5129.22
5117.07
5107.46
5099.58
4322.52
4322.79
4323.24
4323.84
4324.53
4325.22
4325.87
4326.63
4327.77
4329.22
244.175
244.014
243.667
243.198
242.683
242.149
241.601
241.016
240.374
239.617
140.671
138.603
136.041
133.465
131.202
129.349
127.884
126.7
125.585
124.654
176.557
168.272
158.71
149.715
142.178
136.161
131.444
127.754
124.826
122.727
241.579
220.117
197.594
178.253
163.323
152.234
144.105
138.162
133.436
129.973
355.627
303.668
254.576
215.798
188
168.571
155.052
145.573
138.636
133.883
503.854
404.35
318.119
255.352
213.453
185.773
167.408
155.119
146.113
139.901
681.13
513.404
382.537
294.843
240.145
205.646
183.59
169.092
159.112
152.472
826.669
675.204
559.135
481.2
428.731
391.951
365.446
346.194
331.33
322.026
5091.78
5069.9
5046.1
5024.51
5005.82
4990.28
4977.47
4967.13
4958.74
4951.97
4195.42
4195.63
4195.97
4196.42
4196.94
4197.44
4197.91
4198.47
4199.4
4200.66
230.441
230.669
230.774
230.786
230.728
230.604
230.41
230.124
229.721
229.084
118.339
118.071
117.706
117.305
116.937
116.634
116.405
116.208
115.926
115.638
126.158
124.612
122.561
120.39
118.365
116.582
115.05
113.751
112.651
111.858
146.602
142.549
137.535
132.672
128.478
125.038
122.287
120.123
118.219
116.742
183.562
172.777
160.744
149.914
141.153
134.337
129.116
125.144
122.024
119.833
231.573
210.504
188.328
169.882
155.901
145.594
138.049
132.589
128.225
125.06
302.861
263.98
227.248
198.862
178.536
164.159
153.998
146.779
141.494
137.891
515.491
472.597
430.215
396.141
369.329
348.454
332.069
319.469
309.234
302.744
4892.53
4880.77
4866.39
4851.94
4838.52
4826.71
4816.58
4808.13
4801.1
4795.51
4061.88
4062.02
4062.23
4062.53
4062.87
4063.19
4063.46
4063.81
4064.51
4065.56
221.791
222.057
222.205
222.275
222.282
222.224
222.094
221.864
221.499
220.867
110.951
110.94
110.928
110.913
110.91
110.929
110.97
111.005
110.952
110.856
110.387
110.046
109.543
108.952
108.349
107.773
107.239
106.755
106.327
106.022
117.934
117.078
115.871
114.565
113.325
112.221
111.277
110.492
109.72
109.08
132.022
129.424
126.187
122.907
119.953
117.43
115.336
113.634
112.222
111.225
150.422
145.53
139.434
133.686
128.788
124.801