/*--------------------------------*- C++ -*----------------------------------*\
| =========                 |                                                 |
| \\      /  F ield         | foam-extend: Open Source CFD                    |
|  \\    /   O peration     | Version:     4.0                                |
|   \\  /    A nd           | Web:         http://www.foam-extend.org         |
|    \\/     M anipulation  |                                                 |
\*---------------------------------------------------------------------------*/
FoamFile
{
    version     2.0;
    format      ascii;
    class       volScalarField;
    location    "2600";
    object      k;
}
// * * * * * * * * * * * * * * * * * * * * * * * * * * * * * * * * * * * * * //

dimensions      [0 2 -2 0 0 0 0];

internalField   nonuniform List<scalar> 
34480
(
8.76721
8.7648
8.76467
8.76645
8.77026
8.77638
8.79132
8.85472
9.07726
9.68612
9.27986
8.66815
8.57545
8.85509
9.4542
10.341
11.9397
15.8518
28.7374
67.0235
15.0399
13.5705
13.1244
13.2727
13.8431
14.876
17.2095
22.9052
41.6354
101.406
14.4915
12.964
12.5138
12.7081
13.4186
14.8331
18.0052
25.4062
49.2499
127.782
13.4284
12.0126
11.6616
11.9286
12.7801
14.4902
18.2597
26.9559
55.2701
151.575
12.2196
10.9461
10.6337
10.9155
11.8071
13.7005
17.9421
27.9024
61.0604
176.657
11.3267
10.2065
9.95185
10.2269
11.1219
13.0876
17.5895
28.4198
65.5181
198.015
9.83977
9.00347
8.79863
9.01436
9.72691
11.3971
15.4914
26.1246
64.544
205.594
6.88242
6.61386
6.5652
6.67523
7.00466
7.72927
9.72985
16.2734
43.4113
149.667
9.23849
9.23874
9.24461
9.25751
9.27562
9.29723
9.32324
9.36181
9.43283
9.506
8.67858
8.67557
8.675
8.67677
8.68154
8.68989
8.70314
8.73419
8.80843
9.06734
7.92993
7.51005
7.41671
7.57442
8.02144
8.86383
10.3053
12.1078
15.4273
41.1729
12.2353
11.1726
10.8804
11.0836
11.7623
13.0234
15.2212
18.1222
23.7875
66.4124
12.1393
10.9711
10.6523
10.8955
11.7006
13.2511
16.0318
20.0141
28.3901
86.1791
11.5987
10.4648
10.198
10.4741
11.3668
13.1082
16.2969
21.0752
31.8418
104.294
10.8052
9.75485
9.49944
9.77328
10.6716
12.4984
15.968
21.4558
34.8375
123.7
10.2148
9.26264
9.04545
9.29903
10.1725
12.0008
15.6079
21.552
37.1092
140.952
9.05416
8.33226
8.14812
8.33967
9.01741
10.515
13.6622
19.285
35.7042
147.363
6.64486
6.39751
6.34331
6.41749
6.6822
7.26721
8.61406
11.5617
22.4915
102.418
9.11132
9.10663
9.10719
9.1144
9.12708
9.1429
9.16388
9.19961
9.27262
9.45787
8.57684
8.57397
8.57307
8.57405
8.57719
8.58215
8.58793
8.60085
8.62963
8.69529
6.78263
6.57101
6.51696
6.59287
6.82429
7.2713
8.06583
9.35977
11.1352
16.4366
9.69138
9.07126
8.91793
9.08553
9.60521
10.5602
12.1752
14.5697
17.5471
29.1787
9.889
9.15101
8.96565
9.17955
9.83895
11.0947
13.2872
16.6418
21.1137
40.7607
9.7596
9.00441
8.8416
9.07834
9.81685
11.2605
13.8637
17.9406
23.778
52.252
9.331
8.60357
8.43606
8.67398
9.42835
10.9742
13.8888
18.6187
26.0238
64.9005
9.016
8.3316
8.18537
8.40799
9.1495
10.7176
13.8024
18.9563
27.7477
76.9245
8.19527
7.66693
7.53767
7.70806
8.28309
9.56556
12.2712
17.1624
26.652
82.8779
6.37359
6.18136
6.14152
6.20247
6.41341
6.87615
7.92506
10.3685
16.6986
57.1061
8.99179
8.98403
8.98151
8.98543
8.99505
9.00815
9.02618
9.05974
9.13853
9.33855
8.46138
8.45956
8.45905
8.45981
8.46198
8.46475
8.46595
8.46934
8.47827
8.49768
6.00862
5.91782
5.89072
5.92156
6.02178
6.21439
6.55111
7.13251
7.99598
9.88092
7.80869
7.49604
7.42316
7.5186
7.82009
8.38294
9.334
10.821
12.6576
17.0735
8.12475
7.7073
7.60355
7.74103
8.16717
8.98949
10.4231
12.7266
15.5982
23.5538
8.24743
7.78881
7.69195
7.84977
8.34801
9.33559
11.1224
14.0847
17.8846
30.1247
8.08389
7.61546
7.50584
7.6728
8.20239
9.30153
11.3875
14.9953
19.8641
37.6352
7.97588
7.51156
7.41209
7.57361
8.11057
9.25621
11.5227
15.577
21.3677
44.9593
7.4453
7.075
6.98296
7.1114
7.53531
8.48134
10.4798
14.3819
20.6524
48.7681
6.13162
5.98465
5.95475
6.00073
6.15813
6.49612
7.22479
8.98539
12.9806
33.0376
8.85789
8.85009
8.84727
8.85065
8.85976
8.87339
8.89224
8.92614
8.99932
9.15519
8.33371
8.33288
8.33271
8.33319
8.33437
8.33523
8.33364
8.33226
8.33219
8.33433
5.53763
5.50318
5.49009
5.49997
5.53615
5.60491
5.72018
5.91162
6.17865
6.62112
6.56602
6.42833
6.39754
6.43781
6.57418
6.83249
7.27151
7.98205
8.87903
10.3566
6.87203
6.65537
6.59875
6.6695
6.89673
7.33938
8.1141
9.40817
11.0453
14.0195
7.10205
6.84231
6.78596
6.87327
7.15877
7.72692
8.75921
10.5599
12.8858
17.7757
7.0973
6.81069
6.73897
6.83947
7.16327
7.83573
9.11549
11.4644
14.6137
22.2337
7.12083
6.81803
6.74994
6.85188
7.19678
7.92875
9.37332
12.1313
15.9826
26.6475
6.81343
6.56181
6.49572
6.58179
6.86389
7.48517
8.77847
11.4746
15.6918
29.0131
5.91843
5.80755
5.7848
5.81662
5.92763
6.15995
6.63029
7.74137
10.1054
19.2393
8.71445
8.70675
8.70373
8.7066
8.71506
8.72848
8.74696
8.7784
8.83992
8.95244
8.19475
8.19468
8.19477
8.19505
8.1955
8.19509
8.19261
8.19005
8.18787
8.18656
5.27035
5.25894
5.25261
5.25486
5.26617
5.288
5.32347
5.37806
5.44749
5.53731
5.80941
5.75797
5.74826
5.76168
5.81269
5.90954
6.07211
6.3347
6.67419
7.13889
6.04299
5.9393
5.91051
5.943
6.05122
6.25971
6.61644
7.21168
7.98783
9.10663
6.2823
6.14564
6.11579
6.15943
6.30769
6.59745
7.11203
8.02112
9.23792
11.2029
6.35107
6.18549
6.14129
6.19749
6.38052
6.75302
7.44436
8.74048
10.5397
13.8037
6.44213
6.25417
6.21039
6.27053
6.47786
6.90714
7.72901
9.34058
11.6534
16.3938
6.2932
6.13031
6.0855
6.14046
6.31823
6.69918
7.46009
9.07704
11.6574
17.7686
5.73294
5.65178
5.63556
5.65689
5.73314
5.88843
6.18399
6.83622
8.10063
11.8449
8.56053
8.55321
8.55018
8.55265
8.5604
8.57304
8.59038
8.61824
8.66627
8.74103
8.04508
8.04552
8.0458
8.04593
8.0459
8.04471
8.0424
8.03992
8.03767
8.03601
5.12661
5.1232
5.11974
5.11967
5.12257
5.12896
5.13907
5.15344
5.16958
5.18565
5.37593
5.36099
5.36011
5.36298
5.378
5.4072
5.45621
5.53388
5.63282
5.75051
5.52653
5.47962
5.46567
5.47945
5.52756
5.61832
5.76705
6.00379
6.30876
6.68034
5.72718
5.65975
5.64546
5.66544
5.73714
5.87327
6.10448
6.49907
7.0314
7.75012
5.81505
5.72398
5.6981
5.72769
5.82543
6.01856
6.3606
6.98391
7.86727
9.18693
5.92897
5.8172
5.7906
5.82392
5.94242
6.17999
6.61213
7.43967
8.65435
10.6616
5.88357
5.7831
5.75427
5.78767
5.8943
6.11617
6.53635
7.4018
8.80328
11.4705
5.57813
5.52016
5.50919
5.52293
5.57397
5.67522
5.8587
6.23085
6.89041
8.32521
8.39558
8.38887
8.38599
8.38811
8.39503
8.40639
8.42194
8.44564
8.48223
8.53152
7.88502
7.88578
7.88618
7.88621
7.88591
7.88456
7.88269
7.8807
7.87891
7.87758
5.05199
5.05076
5.04851
5.048
5.04862
5.05066
5.05362
5.05744
5.061
5.0634
5.13786
5.13621
5.13825
5.13784
5.1401
5.14556
5.15601
5.17354
5.19603
5.22002
5.2196
5.19896
5.19234
5.19794
5.21873
5.25715
5.3172
5.40614
5.51476
5.62678
5.36808
5.33676
5.33077
5.33921
5.37217
5.43286
5.53107
5.68807
5.89271
6.12696
5.44707
5.39922
5.38478
5.39965
5.44975
5.54584
5.70753
5.98376
6.36788
6.8561
5.55772
5.49378
5.47854
5.496
5.56125
5.68791
5.90592
6.29791
6.86484
7.6481
5.57427
5.51556
5.49806
5.51747
5.57853
5.70232
5.92564
6.35729
7.04571
8.13536
5.45381
5.41322
5.40624
5.41483
5.44842
5.51343
5.62683
5.83778
6.18542
6.75857
8.21908
8.21316
8.21055
8.21234
8.21835
8.22809
8.24144
8.26084
8.28805
8.32096
7.71467
7.71562
7.71608
7.71606
7.7156
7.71448
7.71309
7.71163
7.71033
7.70934
5.01364
5.01275
5.01107
5.01064
5.01093
5.01192
5.01317
5.01455
5.0155
5.01564
5.01144
5.0136
5.01608
5.01507
5.01374
5.01243
5.01194
5.01303
5.01553
5.01856
5.04475
5.03553
5.03231
5.03459
5.04368
5.06023
5.085
5.11906
5.1579
5.19174
5.1454
5.13163
5.12958
5.13287
5.14748
5.17373
5.21451
5.27516
5.34997
5.42253
5.20531
5.18121
5.17349
5.18071
5.20561
5.25217
5.32728
5.44636
5.60504
5.77832
5.30062
5.26518
5.25693
5.26565
5.30063
5.36667
5.4751
5.65552
5.90512
6.19341
5.35055
5.31835
5.30842
5.31925
5.35258
5.41879
5.5342
5.74204
6.06228
6.49185
5.35788
5.32979
5.32565
5.33095
5.35294
5.39451
5.4646
5.58461
5.76939
6.02091
8.03061
8.0256
8.02335
8.02483
8.02985
8.03783
8.04884
8.06411
8.08383
8.10571
7.53417
7.53501
7.53551
7.53547
7.53501
7.53422
7.53324
7.53222
7.53133
7.5306
4.99322
4.99239
4.99108
4.99081
4.99115
4.99192
4.99283
4.99375
4.99433
4.99423
4.94616
4.94878
4.95087
4.95005
4.94827
4.94586
4.94332
4.94112
4.93966
4.93897
4.94928
4.94482
4.94313
4.94412
4.94834
4.95592
4.96686
4.98092
4.99593
5.00713
5.01295
5.00711
5.00664
5.00783
5.01425
5.02556
5.04258
5.06623
5.09365
5.11683
5.05336
5.04169
5.03771
5.04114
5.05325
5.07542
5.1101
5.16146
5.22692
5.29111
5.13022
5.11095
5.10671
5.11094
5.12947
5.16363
5.21764
5.30111
5.41039
5.51828
5.19569
5.17942
5.17427
5.18011
5.19734
5.23111
5.28881
5.38657
5.53155
5.70581
5.28668
5.26728
5.26504
5.26837
5.28292
5.30977
5.35334
5.4223
5.52054
5.64046
7.82987
7.82583
7.82398
7.82517
7.82919
7.83546
7.84418
7.85576
7.86967
7.88398
7.34328
7.34395
7.34438
7.34434
7.34404
7.3435
7.34284
7.34215
7.34156
7.34101
4.98135
4.98063
4.97967
4.97952
4.97986
4.98054
4.98135
4.98215
4.98272
4.98262
4.91315
4.91532
4.91688
4.91636
4.91498
4.91301
4.91082
4.90874
4.9072
4.90635
4.89944
4.897
4.89603
4.89651
4.89866
4.90246
4.90779
4.91428
4.92088
4.92515
4.93747
4.93492
4.93492
4.93534
4.93828
4.94342
4.95091
4.96067
4.97119
4.97929
4.96218
4.95671
4.95471
4.95634
4.96216
4.97264
4.98862
5.01099
5.03837
5.06425
5.02225
5.01175
5.00965
5.01172
5.02164
5.03952
5.06687
5.10649
5.15535
5.19849
5.09316
5.08591
5.08361
5.08667
5.09501
5.11121
5.13865
5.18313
5.2465
5.3217
5.23574
5.22221
5.22116
5.22339
5.23331
5.25107
5.27851
5.31881
5.37092
5.4318
7.6167
7.6136
7.61216
7.61307
7.61615
7.62088
7.62754
7.636
7.64554
7.65473
7.14175
7.14229
7.14263
7.14262
7.14243
7.14207
7.14164
7.14119
7.14079
7.14036
4.97347
4.97291
4.97226
4.97218
4.97249
4.97306
4.97376
4.97446
4.975
4.97486
4.89666
4.89827
4.89937
4.8991
4.8982
4.8969
4.89545
4.89407
4.89313
4.89263
4.87472
4.87323
4.87265
4.87291
4.87409
4.87614
4.87896
4.8823
4.88565
4.88753
4.89636
4.89504
4.89504
4.89522
4.89675
4.89943
4.90319
4.9078
4.91235
4.91573
4.91008
4.90757
4.90657
4.90736
4.91017
4.91514
4.92253
4.93242
4.94409
4.95558
4.95689
4.95095
4.9499
4.95103
4.95656
4.9663
4.98068
5.0004
5.02319
5.04216
5.02816
5.02567
5.02497
5.02655
5.03021
5.03731
5.04926
5.06827
5.09394
5.12882
5.20037
5.19075
5.1904
5.19206
5.19916
5.21129
5.22896
5.25309
5.28069
5.31355
7.39105
7.38879
7.38774
7.38842
7.39063
7.39411
7.39899
7.40495
7.41129
7.41709
6.92935
6.9298
6.93007
6.93007
6.92996
6.92973
6.92945
6.92915
6.9289
6.92854
4.96746
4.9671
4.9667
4.96667
4.96692
4.96737
4.96792
4.96848
4.96899
4.96874
4.88842
4.88959
4.89035
4.89024
4.88972
4.88896
4.88813
4.88736
4.88696
4.88674
4.86323
4.86231
4.86197
4.86212
4.86277
4.86388
4.86541
4.86721
4.86908
4.87002
4.87503
4.87413
4.87401
4.87413
4.8751
4.87678
4.87907
4.88172
4.88415
4.88599
4.88185
4.88068
4.88018
4.88058
4.88196
4.88436
4.88783
4.8923
4.89739
4.90306
4.91901
4.9154
4.91485
4.91558
4.9189
4.92458
4.93263
4.94317
4.95461
4.96419
4.98843
4.98821
4.98835
4.98917
4.99053
4.99313
4.99747
5.00457
5.0131
5.03088
5.17622
5.16922
5.16926
5.17066
5.17599
5.18458
5.19633
5.21124
5.2258
5.24494
7.15297
7.15142
7.15072
7.15119
7.1527
7.1552
7.15863
7.16267
7.16675
7.17034
6.70592
6.70632
6.70652
6.70653
6.70647
6.70632
6.70614
6.70595
6.70578
6.70546
4.96235
4.96222
4.96202
4.96203
4.96222
4.96253
4.96293
4.96335
4.96382
4.96346
4.88422
4.88509
4.8856
4.88559
4.88533
4.88495
4.88456
4.88421
4.88418
4.88417
4.85845
4.85792
4.85776
4.85784
4.85815
4.8587
4.85946
4.86039
4.86147
4.862
4.86459
4.86384
4.86362
4.86371
4.86442
4.86565
4.86728
4.8691
4.87071
4.87198
4.86743
4.86685
4.86658
4.86679
4.8675
4.86871
4.87039
4.87248
4.87478
4.8779
4.89783
4.89543
4.89509
4.89565
4.89783
4.90143
4.90631
4.91248
4.91882
4.92462
4.96448
4.96519
4.96573
4.96618
4.96649
4.96704
4.96787
4.96965
4.97065
4.98099
5.15952
5.15439
5.15466
5.15593
5.16005
5.16639
5.17451
5.18409
5.19163
5.20392
6.90271
6.90165
6.90122
6.90152
6.90256
6.90428
6.9066
6.90922
6.91173
6.91392
6.47141
6.47175
6.4719
6.47192
6.47189
6.4718
6.47168
6.47156
6.47144
6.47115
4.95775
4.95783
4.95779
4.95784
4.95797
4.95817
4.95842
4.95871
4.95917
4.95871
4.88198
4.88264
4.88296
4.883
4.88291
4.88279
4.88268
4.88261
4.88284
4.88298
4.85696
4.85671
4.85667
4.8567
4.8568
4.85699
4.85727
4.85768
4.85828
4.85862
4.85988
4.85922
4.85894
4.85901
4.85955
4.86051
4.86175
4.86311
4.86431
4.86531
4.86061
4.86026
4.86009
4.8602
4.86059
4.86125
4.86211
4.86315
4.86424
4.86613
4.88611
4.88438
4.88413
4.8846
4.88613
4.88857
4.89176
4.89567
4.89957
4.90373
4.94944
4.95038
4.95107
4.95134
4.95126
4.951
4.95044
4.95008
4.94804
4.95504
5.14739
5.14359
5.14401
5.1452
5.14849
5.15336
5.15921
5.16562
5.16928
5.17802
6.6405
6.63981
6.63953
6.63973
6.64042
6.64155
6.64304
6.64465
6.64612
6.64742
6.22587
6.22616
6.22627
6.22629
6.22628
6.22622
6.22615
6.22607
6.22599
6.22571
4.95346
4.95377
4.95384
4.95394
4.95401
4.95411
4.95425
4.95442
4.95492
4.95441
4.88063
4.88113
4.8813
4.88135
4.88136
4.8814
4.88147
4.88159
4.88198
4.88229
4.85702
4.85695
4.85699
4.85699
4.85697
4.85694
4.85694
4.85704
4.85735
4.85764
4.85804
4.85747
4.85719
4.85723
4.85764
4.85836
4.85929
4.86032
4.86124
4.86205
4.85775
4.85749
4.85736
4.85741
4.85764
4.85803
4.85851
4.85907
4.85962
4.86082
4.87923
4.87793
4.87772
4.8781
4.8792
4.88091
4.88308
4.88569
4.88825
4.89155
4.93854
4.93935
4.94005
4.94025
4.94009
4.93964
4.93871
4.93771
4.93472
4.94011
5.13759
5.13481
5.1353
5.13643
5.13912
5.14298
5.14736
5.15181
5.15324
5.16
6.36666
6.36624
6.36607
6.3662
6.36663
6.36732
6.36822
6.36915
6.36994
6.37071
5.96959
5.96984
5.96992
5.96994
5.96993
5.9699
5.96985
5.96979
5.96973
5.96947
4.94938
4.94989
4.95004
4.95018
4.95022
4.95024
4.95027
4.95035
4.95092
4.95047
4.87956
4.8799
4.87995
4.87999
4.88005
4.88017
4.88036
4.88059
4.88107
4.88157
4.85775
4.85776
4.85782
4.8578
4.85772
4.8576
4.85748
4.85742
4.85755
4.85786
4.85756
4.85709
4.85684
4.85686
4.85714
4.85765
4.85831
4.85904
4.85973
4.86037
4.85687
4.85666
4.85655
4.85657
4.85671
4.85693
4.85721
4.85752
4.85781
4.85858
4.87434
4.87336
4.87317
4.87345
4.87421
4.87538
4.87684
4.87855
4.88027
4.88293
4.92852
4.92907
4.92969
4.92986
4.92974
4.92935
4.9285
4.9275
4.92454
4.92896
5.12816
5.12619
5.12669
5.12776
5.12998
5.13308
5.13644
5.13959
5.13968
5.14511
6.08174
6.0815
6.0814
6.08148
6.08173
6.08212
6.08262
6.08311
6.08349
6.08391
5.70321
5.70342
5.70349
5.7035
5.7035
5.70348
5.70344
5.7034
5.70334
5.70311
4.94521
4.94586
4.94608
4.94626
4.9463
4.94626
4.94619
4.94618
4.94677
4.94657
4.87839
4.87852
4.87848
4.87848
4.87856
4.87872
4.87895
4.87923
4.87971
4.88042
4.85859
4.85858
4.85862
4.85859
4.85851
4.85838
4.85824
4.85814
4.85819
4.85854
4.85769
4.85734
4.85715
4.85714
4.85732
4.85763
4.85805
4.85853
4.85901
4.8595
4.85697
4.85681
4.85673
4.85673
4.8568
4.85691
4.85705
4.8572
4.85734
4.85779
4.8697
4.86899
4.86883
4.869
4.86947
4.87019
4.87108
4.87211
4.8732
4.87524
4.91724
4.91752
4.918
4.91814
4.91805
4.91774
4.91707
4.91626
4.91381
4.91738
5.11633
5.11505
5.11551
5.11649
5.11828
5.12072
5.12327
5.12541
5.12469
5.12892
5.78656
5.78643
5.78638
5.78642
5.78655
5.78674
5.787
5.78721
5.78737
5.78758
5.42759
5.42776
5.4278
5.42781
5.42781
5.4278
5.42778
5.42775
5.4277
5.42751
4.93954
4.94018
4.94055
4.94079
4.94084
4.94075
4.94058
4.94042
4.94078
4.94109
4.87678
4.87666
4.87656
4.87651
4.87657
4.87672
4.87695
4.87723
4.87765
4.87849
4.8591
4.85904
4.85904
4.85901
4.85895
4.85886
4.85877
4.85871
4.85874
4.85908
4.85814
4.85791
4.85779
4.85778
4.85787
4.85804
4.85827
4.85855
4.85884
4.85918
4.8576
4.85751
4.85746
4.85745
4.85746
4.8575
4.85754
4.85758
4.85762
4.85783
4.86472
4.86428
4.86417
4.86424
4.86448
4.86484
4.86527
4.86577
4.86637
4.86774
4.90353
4.90357
4.90386
4.90391
4.90378
4.90347
4.90293
4.9023
4.90068
4.90331
5.09505
5.09435
5.09474
5.09554
5.09687
5.09865
5.10044
5.10169
5.10054
5.10334
5.48212
5.48206
5.48205
5.48206
5.4821
5.48216
5.48224
5.4823
5.48235
5.48245
5.14253
5.14263
5.14264
5.14265
5.14264
5.14264
5.14264
5.14263
5.14263
5.14254
4.92471
4.92527
4.92589
4.92622
4.9263
4.92618
4.92589
4.92549
4.92508
4.92571
4.87368
4.87333
4.87313
4.87303
4.87304
4.87316
4.87336
4.87364
4.87404
4.87487
4.85937
4.8593
4.85928
4.85925
4.85922
4.85919
4.85915
4.85914
4.85916
4.85939
4.85895
4.85883
4.85877
4.85876
4.8588
4.85888
4.85899
4.85912
4.85927
4.85945
4.85863
4.85859
4.85857
4.85856
4.85856
4.85855
4.85854
4.85853
4.85853
4.85857
4.86083
4.86064
4.86059
4.86061
4.8607
4.86083
4.86098
4.86115
4.86139
4.86202
4.88685
4.88669
4.88675
4.88669
4.88651
4.8862
4.88578
4.88536
4.88479
4.88649
5.04091
5.04062
5.04087
5.04137
5.04217
5.0432
5.04422
5.04478
5.04377
5.04482
5.16848
5.16845
5.16846
5.16846
5.16847
5.16847
5.16846
5.16846
5.16843
5.16849
11.269
11.3841
11.3385
11.1222
82.8103
84.8876
85.3474
85.9967
143.138
148.611
149.081
147.836
202.8
212.237
212.105
207.816
264.482
278.144
276.939
269.486
332.778
351.058
348.958
340.215
395.161
417.813
415.43
408.038
433.168
459.441
457.494
452.919
345.682
368.259
365.71
364.36
11.4769
11.7155
11.5594
11.1514
9.71376
9.77314
9.77597
9.73198
76.0776
79.3215
80.081
80.2023
133.884
144.805
145.906
143.741
192.905
214.535
215.07
209.174
256.14
290.983
290.036
280.086
329.511
380.275
378.5
365.624
399.601
466.623
465.656
452.625
446.087
527.577
528.617
517.427
350.522
422.882
420.973
416.138
10.7115
10.9424
10.8719
10.6516
8.77684
8.78981
8.7888
8.77729
26.538
28.9548
28.2176
25.7085
49.3567
53.7629
52.0989
47.4253
74.5824
81.3419
78.2226
70.7072
103.456
112.996
107.818
96.7359
139.442
152.805
145.178
129.285
177.31
194.675
184.516
163.493
207.529
228.706
216.447
190.911
164.729
181.622
170.14
149.304
9.91284
10.0036
9.98042
9.88121
8.51189
8.51445
8.51511
8.51415
11.4729
11.7226
11.693
11.4959
21.2126
21.9399
21.8765
21.3344
31.997
33.4839
33.232
31.9164
44.5104
46.9439
46.2798
43.7578
60.6339
64.4025
63.0829
58.7668
78.0556
83.1686
80.902
74.4581
92.5756
99.1264
95.8398
87.1478
71.9352
77.0757
73.564
65.9627
9.4487
9.49313
9.49006
9.44964
8.33287
8.33397
8.33423
8.33358
7.04185
7.13341
7.15862
7.12877
11.6778
11.9741
12.0571
11.9711
16.871
17.4856
17.5861
17.3194
22.8365
23.8565
23.8924
23.2885
30.7129
32.338
32.2254
31.0367
39.2231
41.458
41.0404
39.0612
46.2615
49.1977
48.381
45.4009
34.4011
36.6199
35.4297
32.5497
9.09836
9.12229
9.12391
9.10695
8.18255
8.18347
8.18356
8.18279
5.60668
5.62097
5.6262
5.62447
7.45584
7.52579
7.55852
7.55989
9.93737
10.1211
10.1884
10.1633
12.8336
13.1794
13.2658
13.1652
16.7961
17.4126
17.5025
17.2348
21.0457
21.9425
21.966
21.4368
24.4783
25.7303
25.6289
24.6927
17.4809
18.375
18.0206
17.017
8.81282
8.82472
8.82708
8.82094
8.03171
8.0326
8.03267
8.03189
5.19692
5.20011
5.20099
5.2
5.8231
5.83892
5.84757
5.84977
6.91424
6.96715
6.99233
6.99342
8.25891
8.37118
8.41552
8.40582
10.2336
10.4613
10.5312
10.4824
12.3586
12.7064
12.7767
12.6576
14.0531
14.5728
14.6195
14.3553
10.2219
10.5581
10.4797
10.1884
8.56539
8.57086
8.57293
8.57153
7.87347
7.87434
7.87441
7.87366
5.06321
5.06438
5.06439
5.06345
5.23312
5.2355
5.23694
5.23759
5.68403
5.6964
5.70295
5.70433
6.26557
6.29593
6.31049
6.31202
7.19408
7.26969
7.30036
7.29467
8.21561
8.3366
8.37648
8.35782
9.06871
9.26924
9.31384
9.24845
7.33896
7.4517
7.44566
7.37956
8.33737
8.33965
8.34111
8.34133
7.70549
7.70632
7.70639
7.70568
5.01329
5.01422
5.01416
5.01323
5.02032
5.02044
5.0205
5.02054
5.20441
5.20675
5.20804
5.20841
5.45535
5.46197
5.46556
5.46668
5.88057
5.90357
5.91413
5.91399
6.35901
6.39484
6.41018
6.41046
6.8064
6.87771
6.90023
6.88557
6.19854
6.23248
6.23682
6.2263
8.11415
8.11494
8.11583
8.11639
7.52702
7.5278
7.52787
7.52721
4.99133
4.99219
4.99214
4.99126
4.93893
4.93883
4.93873
4.93864
5.00959
5.00982
5.00995
5.01
5.12348
5.12438
5.12496
5.12535
5.32339
5.3304
5.33373
5.33365
5.55977
5.56823
5.57286
5.57492
5.81408
5.83895
5.84804
5.84379
5.69867
5.70623
5.7089
5.70967
7.88847
7.88859
7.88909
7.88962
7.3377
7.33842
7.33848
7.33787
4.97959
4.98037
4.98032
4.97949
4.90613
4.9061
4.90602
4.9059
4.92538
4.92527
4.92522
4.92522
4.9803
4.98015
4.9801
4.98018
5.07668
5.07925
5.08037
5.08006
5.20667
5.20776
5.20884
5.21021
5.36632
5.37603
5.37937
5.37667
5.45416
5.45322
5.45381
5.4561
7.65708
7.65692
7.65719
7.65759
7.13733
7.13799
7.13803
7.13748
4.97183
4.97253
4.97246
4.97167
4.89242
4.89243
4.89237
4.89225
4.8873
4.88718
4.88713
4.88714
4.91575
4.91554
4.91541
4.9154
4.96187
4.96314
4.9636
4.96325
5.04267
5.0422
5.0423
5.04305
5.15355
5.1584
5.15955
5.15698
5.32495
5.32165
5.32115
5.32308
7.41818
7.41797
7.4181
7.41837
6.92579
6.92637
6.92641
6.92591
4.9658
4.9664
4.9663
4.96555
4.88654
4.88656
4.88651
4.88638
4.86973
4.86964
4.86961
4.86963
4.88596
4.88583
4.88574
4.8857
4.90699
4.9078
4.90805
4.90773
4.96376
4.96322
4.96311
4.96348
5.04878
5.052
5.05234
5.04977
5.25295
5.24941
5.2485
5.2498
7.17064
7.17048
7.17054
7.17068
6.70303
6.70353
6.70355
6.70311
4.96066
4.96114
4.96102
4.96031
4.88397
4.884
4.88395
4.88382
4.86175
4.8617
4.86169
4.86171
4.87203
4.87197
4.87191
4.87186
4.88064
4.8812
4.88136
4.88109
4.92485
4.92456
4.92446
4.92458
4.99617
4.99879
4.99884
4.99626
5.21089
5.20785
5.20686
5.20751
6.91368
6.91364
6.91367
6.91367
6.46905
6.46946
6.46947
6.46908
4.9561
4.95647
4.95631
4.95565
4.88285
4.88289
4.88284
4.88271
4.85849
4.85848
4.85847
4.85848
4.86542
4.8654
4.86536
4.86532
4.86809
4.8685
4.8686
4.86838
4.90484
4.90484
4.90479
4.90471
4.96894
4.97136
4.97128
4.96867
5.18475
5.18249
5.18158
5.1816
6.64681
6.64692
6.64693
6.64682
6.22399
6.22431
6.22429
6.22397
4.95205
4.95231
4.95212
4.95151
4.88233
4.88241
4.88237
4.88221
4.85766
4.85768
4.85768
4.85767
4.86219
4.86219
4.86217
4.86214
4.86222
4.86251
4.86256
4.86238
4.89336
4.89359
4.89358
4.89337
4.95328
4.9557
4.95557
4.95289
5.16679
5.16544
5.16467
5.16406
6.36982
6.37007
6.37008
6.36987
5.96819
5.96841
5.96837
5.96811
4.94846
4.94864
4.94844
4.94788
4.88193
4.88208
4.88205
4.88185
4.85805
4.85811
4.85812
4.85808
4.86054
4.86056
4.86055
4.86053
4.85952
4.85971
4.85973
4.85959
4.88512
4.8855
4.88554
4.88523
4.94148
4.94401
4.94389
4.9411
5.15201
5.15169
5.15113
5.14987
6.08284
6.08321
6.08322
6.08294
5.70235
5.70246
5.70239
5.7022
4.94521
4.94538
4.9452
4.94467
4.88123
4.88148
4.88147
4.8812
4.85887
4.85898
4.85899
4.85892
4.85969
4.85972
4.85972
4.85971
4.85835
4.85846
4.85846
4.85837
4.87745
4.87789
4.87795
4.87762
4.92868
4.93134
4.93126
4.92843
5.13572
5.1366
5.13632
5.13437
5.7864
5.78685
5.78687
5.78656
5.42738
5.42735
5.42726
5.42716
4.941
4.94139
4.94128
4.94066
4.8796
4.87994
4.87994
4.8796
4.85947
4.85959
4.8596
4.85952
4.85936
4.8594
4.85941
4.85941
4.85808
4.85813
4.85812
4.85808
4.86956
4.86995
4.87001
4.86974
4.91187
4.91428
4.91426
4.91179
5.10925
5.11164
5.11171
5.10891
5.48142
5.48193
5.48196
5.48162
5.14313
5.14289
5.1428
5.14287
4.92732
4.92821
4.92819
4.92723
4.87564
4.87587
4.87584
4.87558
4.85963
4.8597
4.85971
4.85965
4.85958
4.85961
4.85962
4.85963
4.85863
4.85863
4.85863
4.85863
4.86301
4.86323
4.86327
4.86313
4.89064
4.8918
4.89177
4.89056
5.04765
5.05117
5.05149
5.04806
5.16797
5.16853
5.16854
5.16817
10.1126
9.36666
9.05458
8.94205
8.87757
8.83212
8.80185
8.78482
8.77537
8.76974
103.674
49.1183
35.7479
29.9539
24.5569
19.9493
16.3633
13.6894
11.7815
10.4194
160.953
70.8606
51.0937
43.7433
37.192
31.426
26.5933
22.7125
19.6688
17.2942
206.427
82.5939
55.9826
46.7288
39.3628
32.7672
27.2292
22.8356
19.444
16.8562
242.066
88.9526
58.8268
47.9661
40.0781
32.737
26.6773
21.9548
18.3682
15.7227
278.039
94.6921
60.975
48.3031
39.8462
31.7877
25.353
20.4653
16.8823
14.3311
307.097
98.1602
61.6914
47.7818
39.0466
30.5203
23.9439
19.0745
15.5948
13.2106
315.21
93.7537
56.6288
42.2284
33.918
25.7873
19.9245
15.7972
13.0461
11.2292
224.475
56.1349
30.5437
21.1163
16.2835
12.2242
9.95522
8.61311
7.80413
7.27995
9.5692
9.54455
9.38915
9.363
9.31642
9.29029
9.26953
9.25848
9.25102
9.2446
9.36711
9.05697
8.90474
8.81914
8.7652
8.72957
8.70644
8.69269
8.68529
8.6806
53.1033
28.6708
22.5566
19.4496
16.6689
14.198
12.1633
10.6007
9.46092
8.66878
89.9995
46.2747
35.8008
31.0212
27.1817
23.5094
20.2908
17.6318
15.5037
13.8848
122.267
58.6125
42.8653
35.6348
30.551
25.7671
21.6966
18.4233
15.8732
13.9867
152.565
68.7685
47.8571
38.521
32.3853
26.6789
21.9779
18.2985
15.486
13.4758
186.44
78.8767
52.1459
40.4764
33.2587
26.6702
21.4546
17.4963
14.5918
12.5915
217.208
86.4762
54.7143
41.2509
33.3542
26.1783
20.6986
16.6613
13.7711
11.8536
233.199
86.7514
51.9189
37.4849
29.5789
22.5779
17.5746
14.0837
11.7636
10.2832
167.409
54.7566
29.0628
19.3798
14.695
11.2267
9.27463
8.12956
7.43363
7.00277
9.81853
9.50198
9.33081
9.26753
9.21263
9.17935
9.1552
9.14044
9.13005
9.12103
8.73773
8.69631
8.66357
8.63635
8.61504
8.59959
8.58927
8.58309
8.57966
8.5772
19.9483
16.5764
14.5028
12.6846
11.1149
9.8119
8.79761
8.04871
7.50995
7.13735
35.9208
28.7124
24.9255
21.6897
18.9141
16.5059
14.5107
12.9064
11.631
10.6692
51.038
37.9366
31.5412
26.3507
22.2597
18.8402
16.0969
13.9477
12.2882
11.0744
66.1292
45.693
36.6305
29.5942
24.3796
20.1259
16.8138
14.2907
12.3792
11.026
83.227
53.3447
41.1448
32.085
25.7359
20.662
16.8424
14.0204
11.9743
10.5808
99.1255
59.1917
44.1512
33.4589
26.3369
20.7058
16.598
13.6545
11.5707
10.1994
108.42
59.7592
42.6004
31.0011
23.7649
18.2182
14.4248
11.857
10.1704
9.09758
75.9448
36.6498
23.8687
16.273
12.2257
9.68247
8.28975
7.47149
6.96269
6.64329
9.57147
9.377
9.24303
9.16318
9.10555
9.0695
9.04442
9.02731
9.01466
9.00376
8.50933
8.49926
8.48821
8.47828
8.47074
8.46561
8.4624
8.46077
8.46037
8.4599
10.9415
10.1335
9.28432
8.43992
7.73276
7.19006
6.79126
6.50323
6.29467
6.1496
19.8679
18.0287
16.1769
14.3039
12.6882
11.36
10.2985
9.46276
8.80352
8.30897
28.4781
24.6334
21.1905
17.9887
15.4007
13.3286
11.705
10.4521
9.4936
8.79839
37.2436
30.6672
25.4316
20.8638
17.3677
14.6402
12.5635
11.0095
9.84181
9.0175
47.4707
36.9717
29.525
23.3603
18.8651
15.44
12.9155
11.0864
9.77446
8.88359
57.0697
42.0775
32.5537
25.0138
19.76
15.8316
13.027
11.0614
9.68096
8.76938
62.7995
43.2657
32.0894
23.7128
18.2357
14.3065
11.6799
9.94108
8.80281
8.06975
42.7464
26.2045
17.9728
12.7917
10.0236
8.39138
7.47314
6.91841
6.55962
6.32898
9.32682
9.18825
9.08109
9.0114
8.96315
8.93148
8.90873
8.89239
8.88006
8.86963
8.3334
8.3319
8.33039
8.32921
8.32851
8.32821
8.32824
8.3287
8.32981
8.33083
6.9988
6.7586
6.50563
6.26724
6.06892
5.91252
5.79216
5.70051
5.63116
5.5832
11.6111
10.9252
10.1514
9.37379
8.68702
8.11473
7.65552
7.29394
7.00546
6.78753
16.4401
14.9574
13.3756
11.8596
10.5721
9.52172
8.69353
8.05533
7.56705
7.21424
21.5365
18.9349
16.3583
14.0119
12.1133
10.6149
9.47267
8.62377
7.9836
7.52911
27.7681
23.4444
19.5089
16.0873
13.4439
11.4221
9.9334
8.86349
8.09575
7.57178
33.7361
27.3834
22.0661
17.6424
14.3795
11.9552
10.2306
9.03392
8.18814
7.62145
37.3947
28.7914
22.2628
17.1546
13.6364
11.1587
9.50879
8.42155
7.70019
7.22514
24.529
17.335
12.8095
9.95726
8.3637
7.40495
6.83003
6.46704
6.22051
6.05874
9.05264
8.96954
8.89791
8.84681
8.80936
8.78254
8.76231
8.74712
8.73538
8.7256
8.18337
8.18351
8.18388
8.18446
8.18519
8.18598
8.18678
8.18776
8.18925
8.19101
5.60801
5.56479
5.51343
5.46125
5.41405
5.37359
5.34009
5.31313
5.29256
5.27959
7.50458
7.3135
7.0651
6.80573
6.5705
6.37232
6.21224
6.08441
5.97779
5.89483
9.97774
9.47193
8.85068
8.22743
7.67864
7.2243
6.86233
6.57996
6.36004
6.20031
12.7362
11.7743
10.6616
9.59966
8.70701
7.99565
7.45054
7.04306
6.72809
6.50017
16.3274
14.6099
12.7535
11.061
9.6984
8.64824
7.87071
7.30842
6.8976
6.61331
19.865
17.2468
14.5836
12.268
10.4874
9.16071
8.21198
7.55017
7.06993
6.74
22.1187
18.4206
14.998
12.2243
10.2383
8.84212
7.90162
7.27198
6.84164
6.55061
14.3944
11.5386
9.42803
8.05203
7.21593
6.68001
6.33282
6.10284
5.93848
5.82918
8.79753
8.75141
8.70718
8.6717
8.64335
8.62131
8.6039
8.59031
8.57955
8.57073
8.03259
8.03293
8.03348
8.03424
8.03509
8.03594
8.03675
8.03769
8.0391
8.0409
5.19671
5.18854
5.17887
5.16821
5.15757
5.14755
5.13863
5.13123
5.12618
5.12429
5.83876
5.7928
5.73041
5.66328
5.60091
5.54738
5.50338
5.46695
5.43311
5.40493
6.95006
6.79204
6.58425
6.3681
6.17123
6.00316
5.86451
5.75206
5.661
5.59415
8.29791
7.96326
7.54441
7.13202
6.77523
6.48487
6.25686
6.08149
5.93867
5.83181
10.2207
9.55382
8.76949
8.03164
7.41932
6.93866
6.57422
6.30297
6.09723
5.95213
12.1905
11.1262
9.92521
8.84939
7.99556
7.34972
6.87717
6.53873
6.28123
6.09834
13.5197
11.9508
10.34
8.99925
8.00466
7.292
6.79593
6.45175
6.20676
6.03685
9.42637
8.38642
7.50737
6.88479
6.46192
6.16836
5.96313
5.82084
5.71382
5.64229
8.56198
8.53744
8.5107
8.48641
8.46534
8.44782
8.43336
8.42166
8.41218
8.40453
7.87436
7.87462
7.87504
7.87561
7.87625
7.87689
7.87747
7.87817
7.87933
7.88091
5.06296
5.06119
5.05922
5.05687
5.05424
5.05148
5.04889
5.04683
5.04609
5.047
5.23564
5.22717
5.21544
5.20229
5.18989
5.17938
5.17106
5.16392
5.15497
5.14622
5.69442
5.65146
5.59144
5.52541
5.46178
5.40433
5.35413
5.31109
5.27461
5.24773
6.28733
6.18741
6.05373
5.91586
5.79086
5.68441
5.59688
5.52647
5.4647
5.41641
7.22115
6.98852
6.69978
6.41673
6.17133
5.97026
5.81044
5.68574
5.58659
5.51564
8.2291
7.83677
7.3614
6.91978
6.55428
6.26681
6.04673
5.88214
5.74897
5.65087
8.98514
8.36912
7.69628
7.11401
6.66034
6.32045
6.07147
5.89051
5.75608
5.66116
7.18616
6.82362
6.46922
6.18827
5.97537
5.81563
5.69602
5.60962
5.54126
5.49571
8.33714
8.32377
8.30742
8.29095
8.27566
8.2622
8.25063
8.24097
8.23294
8.22655
7.70636
7.70654
7.70681
7.70719
7.70761
7.70801
7.70836
7.7088
7.70968
7.71102
5.01329
5.01254
5.0118
5.01096
5.00997
5.00886
5.00781
5.00712
5.00735
5.0086
5.02002
5.01895
5.01783
5.01664
5.01585
5.01578
5.01646
5.01711
5.0156
5.01305
5.20582
5.19451
5.17767
5.15772
5.13712
5.11729
5.09886
5.08211
5.06735
5.05656
5.46129
5.43457
5.39596
5.35328
5.312
5.27472
5.24247
5.21527
5.18907
5.16741
5.89252
5.81798
5.72104
5.61962
5.52586
5.44423
5.37552
5.31907
5.27213
5.23842
6.38044
6.25269
6.08407
5.9175
5.77047
5.64771
5.54823
5.47018
5.40261
5.35087
6.80415
6.58126
6.32451
6.08764
5.89037
5.73346
5.61194
5.51944
5.44803
5.39726
6.17814
6.04686
5.90093
5.77168
5.66399
5.57726
5.5082
5.45649
5.41339
5.38503
8.11413
8.10661
8.09655