/*--------------------------------*- C++ -*----------------------------------*\
| =========                 |                                                 |
| \\      /  F ield         | foam-extend: Open Source CFD                    |
|  \\    /   O peration     | Version:     4.0                                |
|   \\  /    A nd           | Web:         http://www.foam-extend.org         |
|    \\/     M anipulation  |                                                 |
\*---------------------------------------------------------------------------*/
FoamFile
{
    version     2.0;
    format      ascii;
    class       surfaceScalarField;
    location    "2600";
    object      phi;
}
// * * * * * * * * * * * * * * * * * * * * * * * * * * * * * * * * * * * * * //

dimensions      [1 0 -1 0 0 0 0];

internalField   nonuniform List<scalar> 
97302
(
-0.000109786
9.51688e-07
-0.000869496
0.000878772
-0.0001196
1.14102e-06
-0.000870499
0.000879173
-0.000129523
1.20014e-06
-0.000871024
0.000879747
-0.000140125
1.13817e-06
-0.000871063
0.000880527
-0.000152232
9.46067e-07
-0.000870611
0.000881772
-0.000167325
6.13701e-07
-0.000869444
0.000883924
-0.000188496
1.14593e-07
-0.000866957
0.000888013
-0.000222747
-5.95564e-07
-0.00086133
0.000896177
-0.000271325
-1.63915e-06
-0.000851542
0.000901759
-4.39605e-06
-0.000824042
-0.000352996
0.000910109
-0.000150901
1.6032e-06
-0.00116596
0.00117606
-0.000161173
1.96547e-06
-0.00116691
0.00117636
-0.000171518
2.084e-06
-0.0011675
0.00117696
-0.000182473
1.99204e-06
-0.00116753
0.00117763
-0.000194834
1.67458e-06
-0.00116673
0.00117836
-0.000210314
1.12037e-06
-0.00116472
0.0011797
-0.000232766
2.71804e-07
-0.00116113
0.00118342
-0.000271568
-9.6627e-07
-0.00115433
0.00119351
-0.00032835
-2.89682e-06
-0.00114203
0.00120007
-7.4597e-06
-0.00110414
-0.000432769
0.00121162
-0.000191208
1.89672e-06
-0.00146133
0.00147218
-0.000201778
2.39291e-06
-0.00146234
0.00147248
-0.000212297
2.57443e-06
-0.00146296
0.00147299
-0.000223274
2.498e-06
-0.00146276
0.00147323
-0.000235634
2.1455e-06
-0.00146141
0.0014733
-0.000251511
1.50637e-06
-0.00145874
0.00147423
-0.000275388
5.01354e-07
-0.00145486
0.00147851
-0.000318359
-9.67968e-07
-0.00144829
0.00149126
-0.000381693
-3.35337e-06
-0.00143513
0.00149892
-9.13501e-06
-0.00138641
-0.000500693
0.00150709
-0.000231437
2.08627e-06
-0.00175271
0.00176398
-0.000242301
2.72218e-06
-0.00175394
0.00176448
-0.000253115
2.98245e-06
-0.00175482
0.00176522
-0.000264406
2.94687e-06
-0.00175482
0.00176566
-0.000277164
2.58671e-06
-0.00175364
0.00176596
-0.000293713
1.89319e-06
-0.00175121
0.00176737
-0.000318864
7.64003e-07
-0.00174765
0.00177253
-0.00036497
-8.92434e-07
-0.00174142
0.00178745
-0.000432991
-3.67978e-06
-0.00172781
0.00179616
-1.0629e-05
-0.00166796
-0.000560755
0.00179722
-0.000271569
2.31899e-06
-0.00204524
0.00205669
-0.000282602
3.02421e-06
-0.00204685
0.00205758
-0.000293586
3.32225e-06
-0.00204823
0.00205887
-0.000305071
3.30293e-06
-0.0020487
0.00205983
-0.000318118
2.93527e-06
-0.00204805
0.00206075
-0.000335169
2.21016e-06
-0.00204624
0.00206298
-0.000361326
1.01102e-06
-0.00204332
0.00206923
-0.000409968
-7.46042e-07
-0.00203779
0.00208628
-0.000481932
-3.8147e-06
-0.00202453
0.00209663
-1.18636e-05
-0.00195288
-0.000615169
0.00208735
-0.000312271
2.40468e-06
-0.00233637
0.00234812
-0.000323408
3.13548e-06
-0.00233843
0.00234946
-0.000334459
3.42135e-06
-0.0023402
0.00235116
-0.000346003
3.37436e-06
-0.00234109
0.00235256
-0.00035915
2.97243e-06
-0.00234096
0.00235407
-0.000376428
2.21534e-06
-0.00233991
0.00235718
-0.000403212
9.85185e-07
-0.00233791
0.00236472
-0.000453747
-7.84238e-07
-0.00233348
0.00238406
-0.000529016
-3.91235e-06
-0.00232173
0.0023971
-1.28332e-05
-0.00223797
-0.000665773
0.0023757
-0.000352796
2.38395e-06
-0.00262733
0.0026392
-0.000363876
3.02249e-06
-0.00262998
0.00264118
-0.000374851
3.23751e-06
-0.00263232
0.00264348
-0.000386304
3.10458e-06
-0.00263367
0.0026454
-0.000399399
2.62857e-06
-0.00263412
0.00264756
-0.000416697
1.80207e-06
-0.00263388
0.00265159
-0.000443818
5.61251e-07
-0.00263302
0.00266057
-0.000495694
-1.10947e-06
-0.00263019
0.00268239
-0.000573748
-3.86113e-06
-0.0026211
0.0026991
-1.29895e-05
-0.002525
-0.00071251
0.00266392
-0.000394592
2.02493e-06
-0.00291886
0.00293116
-0.000405724
2.47424e-06
-0.00292211
0.00293379
-0.000416698
2.50287e-06
-0.00292456
0.00293627
-0.000428101
2.16408e-06
-0.00292585
0.0029382
-0.000441062
1.49401e-06
-0.0029262
0.00294029
-0.000458083
4.90727e-07
-0.00292612
0.00294445
-0.000484932
-8.17522e-07
-0.00292596
0.00295419
-0.000536998
-2.35994e-06
-0.00292457
0.00297789
-0.00061652
-4.14942e-06
-0.00291883
0.00299864
-1.21412e-05
-0.00281223
-0.000755681
0.00295055
-0.000435789
1.06842e-06
-0.00320674
0.00321918
-0.000446494
1.13588e-06
-0.00321085
0.00322289
-0.000457073
8.44942e-07
-0.00321391
0.00322615
-0.000468174
1.11352e-07
-0.00321582
0.00322898
-0.000480963
-9.48107e-07
-0.00321696
0.00323219
-0.000497828
-2.30817e-06
-0.00321788
0.00323755
-0.00052453
-3.7832e-06
-0.00321914
0.0032488
-0.000576323
-5.09812e-06
-0.00322004
0.00327457
-0.000655777
-5.50565e-06
-0.00321668
0.00329749
-1.01951e-05
-0.00309932
-0.000792426
0.00323402
-0.0004772
-0.00347532
0.00348833
-0.000488545
-0.00347892
0.0034914
-0.000499734
-0.00347963
0.00349166
-0.000511446
-0.00347707
0.00348889
-0.000524722
-0.00347191
0.00348424
-0.000541689
-0.00346522
0.00347987
-0.00056758
-0.00345815
0.00348026
-0.000616585
-0.00345221
0.00349612
-0.000689675
-0.0034486
0.00351618
-0.00333961
-0.000818675
0.00345842
1.43957e-05
8.89025e-07
-0.00086104
5.31242e-06
1.11366e-06
-0.000862529
-3.79161e-06
1.19439e-06
-0.000863115
-1.31001e-05
1.13671e-06
-0.000862891
-2.28123e-05
9.30712e-07
-0.000861829
-3.31464e-05
5.58041e-07
-0.000859668
-4.42495e-05
-1.54494e-08
-0.000855838
-5.55406e-05
-8.68551e-07
-0.000849171
-6.62354e-05
-2.19716e-06
-0.00083865
-3.96817e-06
-0.000822397
-6.39127e-05
1.54089e-05
1.51394e-06
-0.00115611
5.3905e-06
1.93017e-06
-0.00115771
-4.61743e-06
2.08387e-06
-0.00115839
-1.49323e-05
2.00464e-06
-0.00115808
-2.58192e-05
1.67061e-06
-0.00115658
-3.76409e-05
1.05948e-06
-0.0011534
-5.12337e-05
1.09514e-07
-0.00114766
-6.76412e-05
-1.29548e-06
-0.0011375
-8.82616e-05
-3.54257e-06
-0.00112007
-6.60866e-06
-0.00109112
-9.86422e-05
1.67379e-05
1.82491e-06
-0.00145028
6.00708e-06
2.38891e-06
-0.00145207
-4.63105e-06
2.61242e-06
-0.00145285
-1.55085e-05
2.55015e-06
-0.00145242
-2.69629e-05
2.169e-06
-0.00145045
-3.97282e-05
1.44532e-06
-0.00144636
-5.55498e-05
2.87144e-07
-0.00143922
-7.71567e-05
-1.42747e-06
-0.00142655
-0.000108636
-4.28337e-06
-0.00140291
-8.39573e-06
-0.00135938
-0.000133882
1.79544e-05
2.03322e-06
-0.00174097
6.73998e-06
2.75453e-06
-0.00174309
-4.38347e-06
3.06551e-06
-0.00174415
-1.58115e-05
3.04939e-06
-0.00174389
-2.79996e-05
2.65878e-06
-0.00174194
-4.19398e-05
1.8721e-06
-0.00173769
-5.99424e-05
5.56706e-07
-0.00172991
-8.613e-05
-1.40102e-06
-0.00171526
-0.000128053
-4.7943e-06
-0.00168538
-9.90563e-06
-0.00162551
-0.000168998
1.90694e-05
2.27952e-06
-0.0020331
7.56851e-06
3.07951e-06
-0.00203567
-3.83544e-06
3.43434e-06
-0.00203719
-1.55989e-05
3.44049e-06
-0.00203732
-2.83156e-05
3.04651e-06
-0.00203572
-4.31631e-05
2.23028e-06
-0.00203175
-6.29174e-05
8.20078e-07
-0.00202383
-9.29969e-05
-1.28802e-06
-0.00200782
-0.000144892
-5.07595e-06
-0.00197236
-1.10638e-05
-0.00189522
-0.000201392
1.97736e-05
2.39789e-06
-0.00232381
8.09548e-06
3.23254e-06
-0.0023269
-3.43916e-06
3.5829e-06
-0.00232882
-1.53454e-05
3.5717e-06
-0.00232932
-2.83368e-05
3.15453e-06
-0.00232808
-4.37546e-05
2.31919e-06
-0.00232458
-6.48032e-05
8.74056e-07
-0.00231692
-9.80695e-05
-1.27477e-06
-0.00230023
-0.000159356
-5.2085e-06
-0.00226031
-1.18828e-05
-0.00216571
-0.000230799
2.01859e-05
2.36893e-06
-0.0026145
8.53061e-06
3.10976e-06
-0.00261821
-2.95378e-06
3.39458e-06
-0.00262065
-1.4799e-05
3.3102e-06
-0.00262157
-2.78485e-05
2.85168e-06
-0.00262077
-4.3554e-05
1.98963e-06
-0.00261785
-6.54984e-05
5.48621e-07
-0.00261075
-0.000101308
-1.56511e-06
-0.00259409
-0.000171275
-5.24581e-06
-0.00255109
-1.22483e-05
-0.00243911
-0.000256801
1.99276e-05
2.03398e-06
-0.00290561
8.27063e-06
2.58931e-06
-0.00290993
-3.10724e-06
2.71809e-06
-0.0029125
-1.47855e-05
2.48059e-06
-0.00291335
-2.76628e-05
1.90768e-06
-0.00291238
-4.32647e-05
9.66388e-07
-0.0029095
-6.5474e-05
-4.35617e-07
-0.00290277
-0.000102751
-2.40735e-06
-0.00288645
-0.000180119
-5.22057e-06
-0.00284148
-1.1899e-05
-0.00271328
-0.000279419
1.93974e-05
1.07396e-06
-0.00319322
8.21029e-06
1.21885e-06
-0.00319829
-2.663e-06
1.05882e-06
-0.00320138
-1.38331e-05
4.74237e-07
-0.00320265
-2.63531e-05
-4.03934e-07
-0.00320212
-4.1859e-05
-1.58503e-06
-0.00319983
-6.44381e-05
-3.01062e-06
-0.00319398
-0.00010304
-4.67519e-06
-0.00317917
-0.000186368
-6.14895e-06
-0.00313242
-1.00752e-05
-0.00298565
-0.000301861
1.8242e-05
-0.00346152
6.80344e-06
-0.00346626
-4.11903e-06
-0.00346765
-1.52137e-05
-0.0034655
-2.74209e-05
-0.00346011
-4.2345e-05
-0.00345188
-6.39063e-05
-0.0034396
-0.000101289
-0.00341951
-0.000186016
-0.00337002
-0.0032157
-0.000320007
1.20259e-05
7.77669e-07
-0.000854369
4.42316e-06
1.01771e-06
-0.000855944
-3.29476e-06
1.10572e-06
-0.000856502
-1.10378e-05
1.04126e-06
-0.00085619
-1.86828e-05
8.17768e-07
-0.000855002
-2.59846e-05
4.19442e-07
-0.000852786
-3.23915e-05
-1.75733e-07
-0.000849256
-3.65993e-05
-1.00567e-06
-0.000843957
-3.67274e-05
-2.15412e-06
-0.000836367
-3.43232e-06
-0.000826722
-2.89702e-05
1.38779e-05
1.36215e-06
-0.0011476
4.8524e-06
1.80229e-06
-0.00114947
-4.23419e-06
1.96535e-06
-0.00115016
-1.34727e-05
1.87469e-06
-0.00114968
-2.28692e-05
1.5088e-06
-0.00114788
-3.22729e-05
8.43131e-07
-0.00114442
-4.1283e-05
-1.75763e-07
-0.00113865
-4.87474e-05
-1.62039e-06
-0.00112942
-5.22013e-05
-3.70581e-06
-0.00111506
-6.12793e-06
-0.00109587
-4.47545e-05
1.59824e-05
1.70844e-06
-0.00144012
5.78022e-06
2.30352e-06
-0.00144237
-4.41645e-06
2.53708e-06
-0.00144323
-1.4803e-05
2.45684e-06
-0.00144262
-2.54747e-05
2.02482e-06
-0.0014403
-3.64947e-05
1.20579e-06
-0.0014357
-4.79769e-05
-9.51029e-08
-0.00142782
-5.94528e-05
-1.97568e-06
-0.00141472
-6.8512e-05
-4.84582e-06
-0.00139271
-8.36572e-06
-0.00136071
-6.49449e-05
1.76322e-05
1.96735e-06
-0.00172977
6.64082e-06
2.73084e-06
-0.00173253
-4.34193e-06
3.05397e-06
-0.00173368
-1.56269e-05
3.01528e-06
-0.00173316
-2.746e-05
2.56069e-06
-0.00173064
-4.01708e-05
1.65252e-06
-0.00172543
-5.43202e-05
1.42764e-07
-0.001716
-7.01001e-05
-2.08922e-06
-0.00169937
-8.5801e-05
-5.7059e-06
-0.00166882
-1.03346e-05
-0.00162111
-8.82321e-05
1.90373e-05
2.25888e-06
-0.00202122
7.53705e-06
3.10783e-06
-0.00202455
-3.93399e-06
3.47883e-06
-0.00202615
-1.57946e-05
3.46361e-06
-0.00202591
-2.84701e-05
3.00327e-06
-0.00202349
-4.25424e-05
2.05589e-06
-0.00201808
-5.90246e-05
4.18322e-07
-0.00200763
-7.8906e-05
-2.05827e-06
-0.00198797
-0.000101936
-6.30165e-06
-0.00194873
-1.197e-05
-0.0018834
-0.000112116
1.99752e-05
2.42624e-06
-0.00231133
8.13819e-06
3.31424e-06
-0.00231527
-3.61589e-06
3.68538e-06
-0.00231727
-1.57999e-05
3.66025e-06
-0.00231733
-2.89967e-05
3.18245e-06
-0.00231506
-4.40384e-05
2.21861e-06
-0.0023097
-6.24245e-05
5.35445e-07
-0.00229865
-8.60491e-05
-2.03926e-06
-0.00227662
-0.000116871
-6.63811e-06
-0.00222916
-1.318e-05
-0.00214515
-0.000136227
2.05272e-05
2.42066e-06
-0.00260159
8.60965e-06
3.21476e-06
-0.00260619
-3.18682e-06
3.52627e-06
-0.00260869
-1.54208e-05
3.44133e-06
-0.00260911
-2.88415e-05
2.94672e-06
-0.00260711
-4.4491e-05
1.99627e-06
-0.00260197
-6.43532e-05
3.54421e-07
-0.00259071
-9.12584e-05
-2.20156e-06
-0.00256702
-0.000129977
-6.76602e-06
-0.00251225
-1.3949e-05
-0.00240905
-0.000159273
2.0351e-05
2.09698e-06
-0.00289221
8.4031e-06
2.70178e-06
-0.00289747
-3.3098e-06
2.87399e-06
-0.00290014
-1.54092e-05
2.67687e-06
-0.00290048
-2.87392e-05
2.1263e-06
-0.00289823
-4.4531e-05
1.17559e-06
-0.00289288
-6.52373e-05
-3.27186e-07
-0.00288138
-9.45837e-05
-2.64743e-06
-0.00285666
-0.000140685
-6.40214e-06
-0.00279575
-1.3738e-05
-0.0026736
-0.000180578
1.97379e-05
1.15077e-06
-0.0031795
8.2428e-06
1.32813e-06
-0.00318542
-2.96991e-06
1.24796e-06
-0.00318854
-1.45265e-05
7.72682e-07
-0.00318919
-2.74287e-05
2.58655e-08
-0.00318712
-4.31507e-05
-1.01348e-06
-0.00318191
-6.46506e-05
-2.33682e-06
-0.00317047
-9.64406e-05
-4.09053e-06
-0.00314594
-0.000148897
-6.37114e-06
-0.00308
-1.15129e-05
-0.00293619
-0.000200579
1.85758e-05
-0.00344765
6.99868e-06
-0.00345336
-4.10584e-06
-0.00345529
-1.54476e-05
-0.00345339
-2.79187e-05
-0.00344761
-4.30035e-05
-0.00343781
-6.37007e-05
-0.00342124
-9.54116e-05
-0.00339189
-0.00015068
-0.00332112
-0.00316254
-0.000215349
9.33366e-06
6.08764e-07
-0.000849537
3.46344e-06
8.52291e-07
-0.000850926
-2.5879e-06
9.44408e-07
-0.000851395
-8.54703e-06
8.78336e-07
-0.000851109
-1.41072e-05
6.52676e-07
-0.000850095
-1.88456e-05
2.58543e-07
-0.000848306
-2.21201e-05
-3.11002e-07
-0.00084567
-2.28922e-05
-1.05815e-06
-0.000842127
-1.95793e-05
-1.97935e-06
-0.000837701
-2.86301e-06
-0.000832856
-1.05822e-05
1.17248e-05
1.11606e-06
-0.00114077
4.10691e-06
1.56644e-06
-0.00114257
-3.63963e-06
1.7347e-06
-0.0011432
-1.13772e-05
1.63658e-06
-0.0011427
-1.88896e-05
1.25491e-06
-0.00114097
-2.57878e-05
5.71657e-07
-0.00113784
-3.13125e-05
-4.44659e-07
-0.00113299
-3.39459e-05
-1.8162e-06
-0.00112603
-3.08493e-05
-3.603e-06
-0.00111653
-5.41804e-06
-0.00110601
-1.81518e-05
1.44341e-05
1.4873e-06
-0.00143135
5.25739e-06
2.09882e-06
-0.00143372
-3.98592e-06
2.33524e-06
-0.00143458
-1.32964e-05
2.23445e-06
-0.00143391
-2.25676e-05
1.76016e-06
-0.00143153
-3.15048e-05
8.7768e-07
-0.00142707
-3.94302e-05
-4.90432e-07
-0.00141984
-4.47343e-05
-2.39695e-06
-0.00140883
-4.3491e-05
-5.03597e-06
-0.00139252
-7.89314e-06
-0.00137302
-2.87078e-05
1.65211e-05
1.79878e-06
-0.00171967
6.22575e-06
2.59133e-06
-0.00172273
-4.13283e-06
2.91824e-06
-0.00172391
-1.4692e-05
2.84906e-06
-0.00172322
-2.54967e-05
2.33014e-06
-0.00172041
-3.64584e-05
1.31952e-06
-0.00171491
-4.71093e-05
-3.18837e-07
-0.00170552
-5.58656e-05
-2.67733e-06
-0.00169033
-5.78753e-05
-6.17814e-06
-0.00166566
-1.01733e-05
-0.00163382
-4.28843e-05
1.82718e-05
2.14133e-06
-0.00201014
7.19075e-06
3.02866e-06
-0.0020139
-3.92253e-06
3.40728e-06
-0.00201552
-1.53443e-05
3.35873e-06
-0.002015
-2.73116e-05
2.82249e-06
-0.00201201
-3.99858e-05
1.74732e-06
-0.00200584
-5.32041e-05
-6.75035e-08
-0.00199466
-6.55998e-05
-2.76785e-06
-0.00197548
-7.19267e-05
-7.05471e-06
-0.00194153
-1.21923e-05
-0.00189468
-5.86282e-05
1.95043e-05
2.36889e-06
-0.0022994
7.87312e-06
3.30136e-06
-0.00230392
-3.7328e-06
3.68493e-06
-0.00230594
-1.57157e-05
3.6325e-06
-0.00230562
-2.84893e-05
3.08117e-06
-0.00230255
-4.24904e-05
1.98327e-06
-0.00229593
-5.7959e-05
9.45028e-08
-0.00228334
-7.39575e-05
-2.78321e-06
-0.00226061
-8.5526e-05
-7.60703e-06
-0.00221704
-1.37666e-05
-0.0021533
-7.58004e-05
2.02608e-05
2.40735e-06
-0.00258903
8.39408e-06
3.24745e-06
-0.00259427
-3.40146e-06
3.57678e-06
-0.00259679
-1.56063e-05
3.47569e-06
-0.00259675
-2.88218e-05
2.92174e-06
-0.00259374
-4.37448e-05
1.85714e-06
-0.00258692
-6.1076e-05
2.2133e-08
-0.0025733
-8.04485e-05
-2.86668e-06
-0.00254757
-9.78696e-05
-7.85515e-06
-0.00249458
-1.48965e-05
-0.00241266
-9.31307e-05
2.0241e-05
2.11197e-06
-0.00287906
8.2714e-06
2.75947e-06
-0.00288501
-3.5153e-06
2.96183e-06
-0.00288774
-1.56848e-05
2.78389e-06
-0.00288762
-2.89512e-05
2.22363e-06
-0.00288426
-4.42604e-05
1.22637e-06
-0.00287694
-6.284e-05
-4.01341e-07
-0.00286237
-8.50383e-05
-3.02062e-06
-0.00283431
-0.000108508
-7.33059e-06
-0.0027728
-1.48306e-05
-0.00267209
-0.00011009
1.96933e-05
1.19971e-06
-0.00316593
8.11845e-06
1.40487e-06
-0.00317249
-3.22944e-06
1.38962e-06
-0.00317562
-1.49166e-05
9.99328e-07
-0.00317571
-2.77958e-05
3.45894e-07
-0.00317236
-4.30467e-05
-6.07579e-07
-0.00316483
-6.25184e-05
-1.89513e-06
-0.00314951
-8.767e-05
-3.75198e-06
-0.00312006
-0.000117052
-6.49576e-06
-0.00305145
-1.22158e-05
-0.00292921
-0.000126646
1.8606e-05
-0.00343398
7.07058e-06
-0.00344042
-4.05821e-06
-0.00344278
-1.54504e-05
-0.00344099
-2.78757e-05
-0.00343484
-4.25532e-05
-0.00342374
-6.14333e-05
-0.00340425
-8.70674e-05
-0.00337
-0.000119682
-0.003295
-0.00315504
-0.000139404
6.84916e-06
4.23748e-07
-0.000846192
2.57469e-06
6.54331e-07
-0.000847306
-1.89888e-06
7.4502e-07
-0.000847667
-6.24116e-06
6.82685e-07
-0.000847449
-1.01075e-05
4.70857e-07
-0.000846699
-1.30929e-05
1.08633e-07
-0.000845429
-1.47038e-05
-3.95565e-07
-0.000843664
-1.43362e-05
-1.02044e-06
-0.000841474
-1.13196e-05
-1.7203e-06
-0.000838997
-2.32865e-06
-0.000836483
-5.36402e-06
9.38711e-06
8.21713e-07
-0.00113556
3.29719e-06
1.26136e-06
-0.00113708
-2.96879e-06
1.42805e-06
-0.00113762
-9.13086e-06
1.32892e-06
-0.00113718
-1.48465e-05
9.5258e-07
-0.00113573
-1.96462e-05
2.92338e-07
-0.00113322
-2.28143e-05
-6.56872e-07
-0.00112956
-2.32474e-05
-1.87319e-06
-0.00112474
-1.92824e-05
-3.31351e-06
-0.00111891
-4.63234e-06
-0.00111323
-9.76443e-06
1.24559e-05
1.18759e-06
-0.00142417
4.59115e-06
1.79571e-06
-0.00142639
-3.40656e-06
2.02867e-06
-0.00142719
-1.13543e-05
1.91233e-06
-0.00142654
-1.89771e-05
1.4157e-06
-0.00142437
-2.58026e-05
5.14227e-07
-0.00142047
-3.09546e-05
-8.38393e-07
-0.00141451
-3.28544e-05
-2.64443e-06
-0.00140616
-2.86145e-05
-4.92398e-06
-0.00139515
-7.14034e-06
-0.00138374
-1.53859e-05
1.48905e-05
1.53342e-06
-0.00171098
5.63892e-06
2.33891e-06
-0.00171402
-3.75173e-06
2.66415e-06
-0.00171515
-1.32152e-05
2.56661e-06
-0.00171441
-2.25872e-05
1.99763e-06
-0.00171162
-3.15024e-05
9.21722e-07
-0.0017064
-3.90681e-05
-7.63709e-07
-0.00169803
-4.33522e-05
-3.10082e-06
-0.00168559
-4.00334e-05
-6.26959e-06
-0.00166764
-9.53697e-06
-0.00164761
-2.38428e-05
1.69727e-05
1.91898e-06
-0.00200021
6.66642e-06
2.83258e-06
-0.00200409
-3.74493e-06
3.214e-06
-0.00200566
-1.43387e-05
3.13082e-06
-0.00200497
-2.5121e-05
2.52525e-06
-0.00200176
-3.59144e-05
1.34656e-06
-0.00199547
-4.59411e-05
-5.76078e-07
-0.00198482
-5.30691e-05
-3.34554e-06
-0.00196811
-5.16608e-05
-7.37601e-06
-0.00194183
-1.17702e-05
-0.00191047
-3.36386e-05
1.85159e-05
2.20703e-06
-0.00228843
7.42996e-06
3.17596e-06
-0.00229317
-3.70342e-06
3.56788e-06
-0.00229516
-1.51054e-05
3.48429e-06
-0.00229457
-2.69533e-05
2.85988e-06
-0.00229103
-3.93133e-05
1.64064e-06
-0.00228387
-5.1659e-05
-3.98916e-07
-0.00227118
-6.18719e-05
-3.43154e-06
-0.00225031
-6.3368e-05
-8.1216e-06
-0.00221479
-1.35877e-05
-0.00216984
-4.50068e-05
1.95093e-05
2.30268e-06
-0.00257721
8.00638e-06
3.18501e-06
-0.00258277
-3.49324e-06
3.52936e-06
-0.00258525
-1.53157e-05
3.40771e-06
-0.00258485
-2.78318e-05
2.78988e-06
-0.00258115
-4.13655e-05
1.60933e-06
-0.00257336
-5.57438e-05
-3.8892e-07
-0.00255894
-6.90373e-05
-3.47932e-06
-0.00253423
-7.42165e-05
-8.48642e-06
-0.00248903
-1.49511e-05
-0.00242865
-5.68549e-05
1.96922e-05
2.04662e-06
-0.00286651
7.98121e-06
2.73761e-06
-0.00287285
-3.61883e-06
2.96585e-06
-0.00287557
-1.55464e-05
2.79873e-06
-0.00287509
-2.8298e-05
2.2175e-06
-0.00287094
-4.2452e-05
1.15895e-06
-0.00286234
-5.83086e-05
-5.88927e-07
-0.00284632
-7.4392e-05
-3.40829e-06
-0.0028183
-8.38713e-05
-7.91059e-06
-0.0027639
-1.50075e-05
-0.00268686
-6.90451e-05
1.92697e-05
1.19973e-06
-0.00315284
7.86639e-06
1.43347e-06
-0.00315978
-3.38705e-06
1.47508e-06
-0.00316288
-1.49379e-05
1.15385e-06
-0.00316252
-2.74303e-05
5.70659e-07
-0.00315822
-4.16494e-05
-3.27209e-07
-0.00314912
-5.8393e-05
-1.60663e-06
-0.00313174
-7.72893e-05
-3.53823e-06
-0.00310103
-9.15605e-05
-6.47533e-06
-0.00303862
-1.2078e-05
-0.00294222
-8.14824e-05
1.82914e-05
-0.00342081
7.00148e-06
-0.00342769
-3.96653e-06
-0.00343033
-1.51895e-05
-0.00342862
-2.72614e-05
-0.0034222
-4.10524e-05
-0.00341027
-5.75076e-05
-0.0033894
-7.70926e-05
-0.00335396
-9.41524e-05
-0.00328442
-0.00317041
-9.08527e-05
4.81643e-06
2.50778e-07
-0.000843932
1.84256e-06
4.55454e-07
-0.000844788
-1.31467e-06
5.39806e-07
-0.00084505
-4.34629e-06
4.85271e-07
-0.000844903
-6.94563e-06
2.99255e-07
-0.000844399
-8.79005e-06
-1.32416e-08
-0.000843571
-9.55036e-06
-4.33927e-07
-0.000842469
-8.91207e-06
-9.30825e-07
-0.000841182
-6.64592e-06
-1.44753e-06
-0.000839816
-1.86602e-06
-0.000838417
-2.84597e-06
7.16923e-06
5.20537e-07
-0.00113173
2.51915e-06
9.2876e-07
-0.00113291
-2.32272e-06
1.08676e-06
-0.00113332
-7.02498e-06
9.93516e-07
-0.00113299
-1.1215e-05
6.43179e-07
-0.00113189
-1.44512e-05
4.02559e-08
-0.00113004
-1.61745e-05
-7.98713e-07
-0.00112747
-1.57043e-05
-1.82539e-06
-0.00112432
-1.22592e-05
-2.95137e-06
-0.00112085
-3.90759e-06
-0.00111779
-5.65212e-06
1.03344e-05
8.48322e-07
-0.00141854
3.86884e-06
1.42944e-06
-0.00142043
-2.77479e-06
1.65161e-06
-0.00142111
-9.29142e-06
1.52808e-06
-0.00142056
-1.53073e-05
1.03476e-06
-0.00141875
-2.03021e-05
1.61532e-07
-0.0014156
-2.34788e-05
-1.10372e-06
-0.00141103
-2.36622e-05
-2.72143e-06
-0.00140508
-1.91471e-05
-4.61233e-06
-0.001398
-6.31282e-06
-0.00139139
-9.09066e-06
1.29532e-05
1.19979e-06
-0.00170381
4.94836e-06
1.99597e-06
-0.00170658
-3.26104e-06
2.31284e-06
-0.0017076
-1.14352e-05
2.19445e-06
-0.0017069
-1.92469e-05
1.60032e-06
-0.00170437
-2.61813e-05
5.0886e-07
-0.00169982
-3.12793e-05
-1.13837e-06
-0.0016929
-3.28876e-05
-3.33043e-06
-0.00168337
-2.80245e-05
-6.0736e-06
-0.00167104
-8.68514e-06
-0.00165872
-1.45454e-05
1.52828e-05
1.60966e-06
-0.00199166
6.01546e-06
2.53026e-06
-0.00199536
-3.42934e-06
2.90833e-06
-0.00199681
-1.2932e-05
2.79547e-06
-0.00199607
-2.22881e-05
2.14067e-06
-0.00199294
-3.10799e-05
9.02816e-07
-0.00198707
-3.82934e-05
-1.0413e-06
-0.0019777
-4.18768e-05
-3.73475e-06
-0.00196412
-3.73981e-05
-7.34502e-06
-0.00194504
-1.09849e-05
-0.0019247
-2.08734e-05
1.71001e-05
1.94816e-06
-0.00227867
6.84774e-06
2.93873e-06
-0.00228333
-3.53059e-06
3.33371e-06
-0.00228521
-1.40554e-05
3.2207e-06
-0.00228447
-2.46645e-05
2.53681e-06
-0.00228082
-3.51117e-05
1.23117e-06
-0.00227375
-4.44662e-05
-8.79367e-07
-0.00226198
-5.04417e-05
-3.91214e-06
-0.00224416
-4.72132e-05
-8.23792e-06
-0.00221713
-1.29079e-05
-0.00218661
-2.85174e-05
1.83246e-05
2.10614e-06
-0.00256643
7.47599e-06
3.02138e-06
-0.00257201
-3.44805e-06
3.37707e-06
-0.00257437
-1.45843e-05
3.23514e-06
-0.00257373
-2.60514e-05
2.56168e-06
-0.00256971
-3.78169e-05
1.28906e-06
-0.00256165
-4.91489e-05
-8.08156e-07
-0.00254768
-5.7687e-05
-3.95129e-06
-0.00252565
-5.64449e-05
-8.6891e-06
-0.00248982
-1.43506e-05
-0.00244717
-3.64854e-05
1.87297e-05
1.89539e-06
-0.00285486
7.55173e-06
2.62669e-06
-0.00286128
-3.59981e-06
2.87625e-06
-0.00286392
-1.49954e-05
2.71473e-06
-0.00286317
-2.68835e-05
2.11031e-06
-0.0028586
-3.9458e-05
9.98135e-07
-0.00284947
-5.23275e-05
-8.26813e-07
-0.00283343
-6.33402e-05
-3.71002e-06
-0.00280752
-6.48619e-05
-8.09801e-06
-0.00276297
-1.44352e-05
-0.00270666
-4.49761e-05
1.84647e-05
1.14403e-06
-0.00314055
7.48914e-06
1.40476e-06
-0.00314759
-3.42721e-06
1.49473e-06
-0.00315058
-1.45709e-05
1.22797e-06
-0.00314989
-2.63524e-05
6.96213e-07
-0.00314503
-3.9157e-05
-1.64447e-07
-0.00313516
-5.29372e-05
-1.4383e-06
-0.00311735
-6.63028e-05
-3.37878e-06
-0.00308799
-7.12609e-05
-6.28894e-06
-0.00303547
-1.12878e-05
-0.00296302
-5.36124e-05
1.76239e-05
-0.00340842
6.79108e-06
-0.00341546
-3.81543e-06
-0.00341823
-1.46391e-05
-0.00341657
-2.60689e-05
-0.00341007
-3.86065e-05
-0.0033979
-5.23918e-05
-0.00337706
-6.65668e-05
-0.00334316
-7.36969e-05
-0.00328358
-0.00319582
-5.95782e-05
3.29099e-06
1.06883e-07
-0.000842408
1.28805e-06
2.78634e-07
-0.000843064
-8.66483e-07
3.53481e-07
-0.000843248
-2.92019e-06
3.08798e-07
-0.000843158
-4.63259e-06
1.54616e-07
-0.000842841
-5.77056e-06
-1.01033e-07
-0.000842332
-6.12985e-06
-4.35557e-07
-0.000841675
-5.55921e-06
-8.15668e-07
-0.000840937
-4.01133e-06
-1.18934e-06
-0.000840174
-1.47564e-06
-0.000839307
-1.64568e-06
5.24901e-06
2.44441e-07
-0.00112897
1.83115e-06
6.0564e-07
-0.00112982
-1.76731e-06
7.49138e-07
-0.00113012
-5.22961e-06
6.67113e-07
-0.00112988
-8.21496e-06
3.58205e-07
-0.00112911
-1.03601e-05
-1.6478e-07
-0.00112783
-1.12714e-05
-8.71762e-07
-0.00112613
-1.05667e-05
-1.70308e-06
-0.00112414
-7.94657e-06
-2.562e-06
-0.0011221
-3.25269e-06
-0.00112043
-3.53709e-06
8.28504e-06
5.07073e-07
-0.00141424
3.15586e-06
1.03863e-06
-0.00141573
-2.16829e-06
1.24262e-06
-0.00141628
-7.33237e-06
1.12067e-06
-0.00141585
-1.19358e-05
6.55359e-07
-0.00141444
-1.5492e-05
-1.49431e-07
-0.00141205
-1.73729e-05
-1.27777e-06
-0.00140874
-1.68205e-05
-2.66163e-06
-0.00140468
-1.29825e-05
-4.17783e-06
-0.00140023
-5.46954e-06
-0.00139638
-5.77702e-06
1.09001e-05
8.33074e-07
-0.00169809
4.20947e-06
1.59455e-06
-0.00170045
-2.72864e-06
1.89524e-06
-0.00170132
-9.56158e-06
1.76581e-06
-0.00170071
-1.58696e-05
1.17549e-06
-0.00169858
-2.10947e-05
1.19461e-07
-0.00169486
-2.4388e-05
-1.41737e-06
-0.00168946
-2.4546e-05
-3.37911e-06
-0.0016825
-1.98144e-05
-5.66778e-06
-0.00167428
-7.72309e-06
-0.00166674
-9.54042e-06
1.33485e-05
1.24209e-06
-0.00198454
5.27993e-06
2.14441e-06
-0.00198784
-3.02421e-06
2.51116e-06
-0.00198912
-1.12884e-05
2.37729e-06
-0.00198842
-1.91567e-05
1.70146e-06
-0.0019856
-2.60807e-05
4.58486e-07
-0.00198049
-3.1047e-05
-1.42139e-06
-0.00197273
-3.24057e-05
-3.92086e-06
-0.00196222
-2.72132e-05
-7.02983e-06
-0.00194887
-9.98179e-06
-0.00193583
-1.38201e-05
1.53598e-05
1.61253e-06
-0.00227027
6.15671e-06
2.60264e-06
-0.00227458
-3.24374e-06
2.99324e-06
-0.00227629
-1.26809e-05
2.85662e-06
-0.00227551
-2.18964e-05
2.13655e-06
-0.00227204
-3.04299e-05
7.93964e-07
-0.00226555
-3.72138e-05
-1.29851e-06
-0.00225532
-4.02437e-05
-4.19094e-06
-0.00224086
-3.52499e-05
-8.01257e-06
-0.00222114
-1.18944e-05
-0.0022008
-1.9155e-05
1.67724e-05
1.82947e-06
-0.00255692
6.82294e-06
2.76099e-06
-0.00256222
-3.2802e-06
3.12202e-06
-0.00256439
-1.34849e-05
2.96326e-06
-0.00256363
-2.36837e-05
2.25151e-06
-0.00255963
-3.35638e-05
9.2698e-07
-0.0025519
-4.21058e-05
-1.18828e-06
-0.00253924
-4.70695e-05
-4.23727e-06
-0.00252064
-4.28699e-05
-8.50858e-06
-0.00249353
-1.32799e-05
-0.00246409
-2.45662e-05
1.73928e-05
1.66348e-06
-0.00284436
6.99493e-06
2.42557e-06
-0.00285055
-3.46365e-06
2.69019e-06
-0.00285303
-1.40728e-05
2.5316e-06
-0.00285213
-2.48457e-05
1.90922e-06
-0.00284748
-3.56491e-05
7.64333e-07
-0.00283851
-4.56548e-05
-1.08008e-06
-0.00282353
-5.26161e-05
-3.88965e-06
-0.00280091
-4.99889e-05
-7.91752e-06
-0.00276619
-1.32843e-05
-0.00272615
-3.04918e-05
1.72974e-05
1.03258e-06
-0.00312932
6.99057e-06
1.31501e-06
-0.00313617
-3.35207e-06
1.44415e-06
-0.00313899
-1.38373e-05
1.21944e-06
-0.00313809
-2.46464e-05
7.26154e-07
-0.00313304
-3.58165e-05
-1.04198e-07
-0.00312312
-4.67385e-05
-1.35906e-06
-0.00310615
-5.55504e-05
-3.23929e-06
-0.00307983
-5.51163e-05
-5.9553e-06
-0.00303786
-1.01072e-05
-0.00298517
-3.61376e-05
1.66148e-05
-0.00339708
6.44331e-06
-0.00340397
-3.6004e-06
-0.00340674
-1.38041e-05
-0.00340514
-2.4348e-05
-0.0033988
-3.53958e-05
-0.00338695
-4.65287e-05
-0.00336728
-5.61807e-05
-0.00333675
-5.73759e-05
-0.00328834
-0.00322362
-3.96875e-05
2.21188e-06
-1.60904e-09
-0.000841366
8.93563e-07
1.3622e-07
-0.000841881
-5.4297e-07
2.00451e-07
-0.000842012
-1.90622e-06
1.65851e-07
-0.000841961
-3.02093e-06
4.40487e-08
-0.000841771
-3.72703e-06
-1.5627e-07
-0.00084147
-3.90064e-06
-4.12439e-07
-0.000841089
-3.47113e-06
-6.94929e-07
-0.000840671
-2.44937e-06
-9.61268e-07
-0.000840235
-1.15653e-06
-0.00083963
-9.69419e-07
3.69414e-06
1.27273e-08
-0.00112699
1.26089e-06
3.18864e-07
-0.00112757
-1.32606e-06
4.44353e-07
-0.00112778
-3.79931e-06
3.76549e-07
-0.00112762
-5.87774e-06
1.17179e-07
-0.0011271
-7.28496e-06
-3.16521e-07
-0.00112626
-7.75927e-06
-8.8885e-07
-0.00112518
-7.09731e-06
-1.53967e-06
-0.00112395
-5.21296e-06
-2.18133e-06
-0.00112276
-2.67461e-06
-0.00112183
-2.29044e-06
6.44965e-06
1.93454e-07
-0.00141101
2.50229e-06
6.58193e-07
-0.00141212
-1.63127e-06
8.37966e-07
-0.00141254
-5.60407e-06
7.24759e-07
-0.00141223
-9.04154e-06
3.0643e-07
-0.00141119
-1.15314e-05
-4.0287e-07
-0.00140948
-1.26146e-05
-1.36869e-06
-0.00140718
-1.18349e-05
-2.51009e-06
-0.00140449
-8.82528e-06
-3.69444e-06
-0.00140172
-4.66006e-06
-0.00139947
-3.74681e-06
8.89272e-06
4.67376e-07
-0.00169366
3.47486e-06
1.17014e-06
-0.00169554
-2.20627e-06
1.44684e-06
-0.00169624
-7.74965e-06
1.31618e-06
-0.00169576
-1.27102e-05
7.56784e-07
-0.00169407
-1.65609e-05
-2.20536e-07
-0.00169119
-1.86211e-05
-1.59688e-06
-0.00168718
-1.80877e-05
-3.28604e-06
-0.00168226
-1.40467e-05
-5.13986e-06
-0.00167688
-6.72586e-06
-0.00167227
-6.45174e-06
1.13192e-05
8.48785e-07
-0.00197877
4.50703e-06
1.70536e-06
-0.00198156
-2.57554e-06
2.05187e-06
-0.00198264
-9.55503e-06
1.90727e-06
-0.00198203
-1.59937e-05
1.24101e-06
-0.00197964
-2.13085e-05
4.60166e-08
-0.00197544
-2.46097e-05
-1.69874e-06
-0.00196933
-2.46919e-05
-3.9266e-06
-0.0019615
-1.98184e-05
-6.5174e-06
-0.00195236
-8.85836e-06
-0.00194406
-9.45597e-06
1.34189e-05
1.22772e-06
-0.00226326
5.39574e-06
2.1904e-06
-0.00226705
-2.87791e-06
2.56753e-06
-0.00226853
-1.11043e-05
2.41571e-06
-0.00226779
-1.88931e-05
1.68825e-06
-0.0022647
-2.56755e-05
3.63164e-07
-0.00225909
-3.04246e-05
-1.62918e-06
-0.00225064
-3.15583e-05
-4.27485e-06
-0.00223938
-2.63096e-05
-7.5298e-06
-0.00222538
-1.06711e-05
-0.00221196
-1.33376e-05
1.49473e-05
1.49255e-06
-0.00254878
6.07685e-06
2.41755e-06
-0.00255357
-3.0136e-06
2.77582e-06
-0.00255551
-1.21107e-05
2.60616e-06
-0.00255473
-2.0934e-05
1.87982e-06
-0.00255099
-2.89927e-05
5.5194e-07
-0.00254403
-3.5195e-05
-1.50023e-06
-0.00253317
-3.76503e-05
-4.33572e-06
-0.00251812
-3.24409e-05
-8.03349e-06
-0.00249823
-1.19118e-05
-0.00247821
-1.70763e-05
1.57521e-05
1.36374e-06
-0.00283514
6.33314e-06
2.14096e-06
-0.00284085
-3.22556e-06
2.41283e-06
-0.00284311
-1.28463e-05
2.25709e-06
-0.00284216
-2.23471e-05
1.62875e-06
-0.00283773
-3.13616e-05
4.82001e-07
-0.00282942
-3.88668e-05
-1.31974e-06
-0.00281621
-4.28115e-05
-3.9471e-06
-0.00279735
-3.83389e-05
-7.47128e-06
-0.00277122
-1.17999e-05
-0.00274329
-2.13095e-05
1.58175e-05