/*--------------------------------*- C++ -*----------------------------------*\
| =========                 |                                                 |
| \\      /  F ield         | foam-extend: Open Source CFD                    |
|  \\    /   O peration     | Version:     4.0                                |
|   \\  /    A nd           | Web:         http://www.foam-extend.org         |
|    \\/     M anipulation  |                                                 |
\*---------------------------------------------------------------------------*/
FoamFile
{
    version     2.0;
    format      ascii;
    class       volVectorField;
    location    "3150";
    object      Urel;
}
// * * * * * * * * * * * * * * * * * * * * * * * * * * * * * * * * * * * * * //

dimensions      [0 1 -1 0 0 0 0];

internalField   nonuniform List<vector> 
34480
(
(209.006 -9.79387 -19.0913)
(209.326 -9.29356 -21.5539)
(209.483 -8.56823 -23.9805)
(209.49 -7.64375 -26.414)
(209.34 -6.55891 -28.9928)
(208.998 -5.31651 -31.8924)
(208.382 -3.89687 -35.513)
(207.216 -2.18376 -40.1992)
(204.545 0.051463 -48.1214)
(197.607 4.25579 -75.292)
(209.939 -12.8026 -26.8101)
(210.198 -11.6753 -29.5941)
(210.325 -10.3937 -32.2539)
(210.298 -8.97164 -34.8571)
(210.063 -7.4459 -37.5207)
(209.56 -5.83625 -40.4523)
(208.753 -4.16165 -44.1115)
(207.46 -2.3681 -49.2403)
(204.324 -0.294153 -58.0613)
(196.165 3.65908 -88.6315)
(210.628 -17.1 -33.7471)
(210.862 -15.5488 -36.8323)
(210.956 -13.8204 -39.7795)
(210.886 -11.9089 -42.6023)
(210.59 -9.87009 -45.4281)
(210.063 -7.73814 -48.5136)
(209.311 -5.54053 -52.3873)
(208.167 -3.20758 -58.078)
(204.866 -0.572377 -67.7765)
(195.656 4.13222 -101.291)
(210.635 -20.4952 -41.1594)
(210.87 -18.4132 -44.5391)
(210.98 -16.1555 -47.7258)
(210.942 -13.7039 -50.7507)
(210.708 -11.1152 -53.7484)
(210.294 -8.42638 -57.005)
(209.677 -5.67009 -61.0515)
(208.697 -2.76747 -67.1365)
(205.371 0.454463 -77.4584)
(195.357 5.84593 -112.88)
(210.795 -24.9721 -48.0212)
(211.059 -22.4804 -51.6783)
(211.206 -19.7754 -55.1516)
(211.231 -16.8383 -58.4263)
(211.088 -13.7453 -61.6621)
(210.809 -10.5334 -65.1568)
(210.341 -7.22959 -69.4384)
(209.544 -3.74432 -75.9425)
(206.317 0.102452 -86.932)
(195.66 6.197 -123.872)
(210.68 -28.2267 -55.6175)
(210.955 -25.2351 -59.5114)
(211.122 -22.0156 -63.1532)
(211.181 -18.5473 -66.5715)
(211.106 -14.8976 -69.9185)
(210.943 -11.1092 -73.5164)
(210.628 -7.21098 -77.8772)
(210.047 -3.11588 -84.6084)
(207.067 1.37631 -96.0829)
(196.01 8.10823 -134.171)
(210.761 -33.0088 -62.4757)
(211.077 -29.628 -66.6098)
(211.273 -25.9841 -70.5012)
(211.37 -22.0659 -74.1262)
(211.354 -17.9487 -77.666)
(211.288 -13.669 -81.4439)
(211.114 -9.23126 -85.9759)
(210.749 -4.53237 -92.9912)
(208.099 0.698942 -105.044)
(196.748 8.26173 -144.125)
(210.589 -36.1792 -70.3227)
(210.909 -32.3265 -74.664)
(211.084 -28.1647 -78.6834)
(211.14 -23.7085 -82.4175)
(211.083 -19.0116 -86.0104)
(211 -14.1314 -89.7905)
(210.871 -9.06509 -94.257)
(210.663 -3.70528 -101.229)
(208.421 2.37076 -113.47)
(197.104 10.8377 -153.055)
(210.534 -41.4427 -77.152)
(210.898 -37.2229 -81.6793)
(211.104 -32.6856 -85.8818)
(211.198 -27.8697 -89.7669)
(211.192 -22.8305 -93.5202)
(211.153 -17.5978 -97.4459)
(211.093 -12.1154 -102.078)
(211.024 -6.23073 -109.204)
(209.112 0.774872 -121.818)
(197.68 10.7322 -161.342)
(209.569 -44.6439 -85.1139)
(209.843 -40.0419 -89.9224)
(209.79 -35.0029 -94.3273)
(209.431 -29.6475 -98.3967)
(208.813 -23.9894 -102.257)
(208.027 -18.0692 -106.189)
(207.158 -11.8217 -110.662)
(206.371 -5.05624 -117.278)
(204.433 2.95958 -129.041)
(194.247 14.3052 -166.631)
(205.891 1.91221 3.00056)
(206.369 1.10968 1.5439)
(206.556 0.426573 -0.0099767)
(206.473 -0.117382 -1.61008)
(206.095 -0.546497 -3.31983)
(205.333 -0.861305 -5.1516)
(203.986 -1.06591 -7.15911)
(201.62 -1.17178 -9.31733)
(198.154 -1.25686 -11.245)
(193.579 -1.15903 -14.3934)
(207.19 2.86857 2.79792)
(207.621 2.16425 1.16179)
(207.793 1.51939 -0.492267)
(207.704 0.943878 -2.18912)
(207.292 0.416504 -3.99635)
(206.437 -0.0687843 -5.97184)
(204.943 -0.527104 -8.20875)
(202.359 -0.993381 -10.9582)
(198.189 -1.58381 -14.0068)
(192.505 -1.82409 -20.5815)
(208.139 2.5776 3.30713)
(208.548 1.77153 1.54474)
(208.706 1.04486 -0.256777)
(208.606 0.422706 -2.09024)
(208.169 -0.133498 -4.02985)
(207.295 -0.636281 -6.15937)
(205.811 -1.11496 -8.66773)
(203.233 -1.58621 -12.0869)
(198.689 -2.15709 -16.3332)
(192.07 -2.07114 -26.7166)
(208.382 3.17799 3.30357)
(208.797 2.40346 1.45616)
(208.976 1.69443 -0.403409)
(208.918 1.08826 -2.29703)
(208.545 0.546434 -4.31008)
(207.773 0.0572536 -6.56894)
(206.401 -0.412402 -9.29946)
(203.916 -0.855389 -13.2587)
(199.143 -1.36354 -18.4766)
(191.71 -0.933542 -32.4541)
(208.736 2.66842 3.83842)
(209.178 1.80901 1.9358)
(209.396 1.04215 -0.0203592)
(209.403 0.408585 -2.00867)
(209.121 -0.146921 -4.14618)
(208.485 -0.635662 -6.58672)
(207.264 -1.09252 -9.57247)
(204.941 -1.48864 -14.063)
(200.089 -1.90228 -20.2309)
(191.949 -1.07298 -37.6931)
(208.771 3.39308 3.63433)
(209.228 2.5412 1.71996)
(209.472 1.78358 -0.206784)
(209.521 1.16371 -2.17561)
(209.313 0.634888 -4.29773)
(208.805 0.182693 -6.7731)
(207.75 -0.224127 -9.8435)
(205.648 -0.548019 -14.6623)
(200.884 -0.83013 -21.5476)
(192.218 0.364645 -42.21)
(208.977 2.56684 4.1601)
(209.469 1.61605 2.23759)
(209.744 0.786394 0.259126)
(209.839 0.114196 -1.74956)
(209.699 -0.45072 -3.93585)
(209.306 -0.919945 -6.51577)
(208.412 -1.31 -9.74448)
(206.556 -1.56825 -14.9178)
(201.998 -1.65622 -22.5677)
(192.908 0.0010729 -46.2451)
(208.891 3.37381 3.69578)
(209.392 2.40956 1.80354)
(209.656 1.59811 -0.0881909)
(209.725 0.950769 -2.02435)
(209.569 0.44117 -4.12039)
(209.197 0.037227 -6.62283)
(208.398 -0.263986 -9.78133)
(206.762 -0.418419 -15.0053)
(202.533 -0.208135 -23.0527)
(193.316 1.83442 -49.2174)
(208.903 2.05541 4.24517)
(209.436 0.977344 2.40201)
(209.728 0.066118 0.526007)
(209.834 -0.688958 -1.3777)
(209.735 -1.31844 -3.48069)
(209.437 -1.83477 -6.03048)
(208.759 -2.19008 -9.33541)
(207.35 -2.32164 -14.7937)
(203.46 -1.74189 -23.4886)
(193.992 1.0029 -51.498)
(207.981 2.86378 3.63697)
(208.458 1.69308 1.78959)
(208.575 0.796301 -0.0346761)
(208.362 0.0677809 -1.90546)
(207.834 -0.474207 -3.92989)
(207.026 -0.855641 -6.35387)
(205.826 -1.01331 -9.46978)
(204.024 -0.83212 -14.5641)
(200.282 0.222237 -23.038)
(191.635 4.03739 -51.3446)
(203.517 1.42791 2.33437)
(204.02 0.833566 1.21629)
(204.201 0.302534 -0.0132733)
(204.098 -0.131748 -1.26342)
(203.697 -0.482353 -2.55463)
(202.95 -0.746707 -3.83245)
(201.764 -0.934585 -5.04907)
(199.989 -1.07151 -6.0548)
(197.434 -1.24288 -6.4985)
(194.217 -1.43224 -6.5169)
(204.912 2.41428 2.31326)
(205.407 1.87194 0.946135)
(205.587 1.34565 -0.448802)
(205.464 0.855008 -1.86579)
(205 0.389919 -3.33137)
(204.112 -0.0549619 -4.84816)
(202.639 -0.492947 -6.37975)
(200.311 -0.955667 -7.86299)
(196.687 -1.55451 -8.80245)
(191.847 -2.13658 -9.81071)
(205.947 2.21204 2.9481)
(206.447 1.52884 1.39544)
(206.627 0.890633 -0.208762)
(206.502 0.327177 -1.83808)
(206.014 -0.193577 -3.53884)
(205.061 -0.68155 -5.32776)
(203.445 -1.1615 -7.21466)
(200.801 -1.66359 -9.29203)
(196.299 -2.33216 -11.0028)
(189.857 -2.91118 -13.584)
(206.344 2.89694 2.99423)
(206.866 2.22031 1.31811)
(207.072 1.57954 -0.380867)
(206.982 1.01445 -2.11237)
(206.531 0.49153 -3.94034)
(205.615 0.00103242 -5.92308)
(203.983 -0.488935 -8.10652)
(201.17 -0.995806 -10.7406)
(195.931 -1.68093 -13.2006)
(187.995 -2.16624 -17.5586)
(206.846 2.42641 3.56885)
(207.4 1.64996 1.80549)
(207.643 0.940727 -0.0195556)
(207.609 0.340525 -1.87743)
(207.228 -0.20111 -3.86953)
(206.401 -0.692678 -6.08635)
(204.828 -1.16966 -8.60264)
(201.97 -1.63809 -11.8317)
(196.184 -2.28612 -15.1301)
(186.926 -2.5777 -21.5717)
(207.012 3.20017 3.38979)
(207.585 2.41737 1.59389)
(207.855 1.7078 -0.222476)
(207.863 1.1149 -2.08443)
(207.545 0.594102 -4.09229)
(206.815 0.133072 -6.38756)
(205.342 -0.303634 -9.06306)
(202.542 -0.715575 -12.7147)
(196.409 -1.27662 -16.715)
(186.061 -1.34002 -25.333)
(207.33 2.39047 3.93885)
(207.935 1.50287 2.11669)
(208.234 0.720172 0.231305)
(208.288 0.0785527 -1.68947)
(208.032 -0.470402 -3.78536)
(207.402 -0.934998 -6.22109)
(206.047 -1.33768 -9.12172)
(203.367 -1.66925 -13.2321)
(197.06 -2.06867 -18.0275)
(185.783 -1.79923 -28.9562)
(207.337 3.23553 3.47889)
(207.95 2.33244 1.68356)
(208.243 1.56579 -0.1176)
(208.28 0.94861 -1.97011)
(208.017 0.454329 -3.98472)
(207.414 0.0566561 -6.36734)
(206.145 -0.257237 -9.26059)
(203.617 -0.487883 -13.5544)
(197.326 -0.620576 -18.8722)
(185.387 -0.0696804 -31.8726)
(207.429 1.90357 4.03281)
(208.061 0.887432 2.27503)
(208.376 0.0348987 0.472707)
(208.441 -0.660694 -1.36159)
(208.22 -1.23124 -3.38785)
(207.68 -1.68699 -5.81521)
(206.521 -1.99265 -8.87653)
(204.188 -2.12671 -13.515)
(198.029 -1.86074 -19.6421)
(185.306 -0.799301 -34.2637)
(206.573 2.76958 3.39228)
(207.153 1.67667 1.66376)
(207.338 0.850638 -0.0526472)
(207.166 0.187343 -1.82458)
(206.629 -0.293666 -3.74854)
(205.717 -0.615383 -6.03825)
(204.201 -0.726518 -8.92243)
(201.63 -0.547164 -13.3058)
(195.609 0.21759 -19.5469)
(182.828 2.30022 -34.6944)
(201.781 0.949109 1.70179)
(202.218 0.547706 0.911413)
(202.369 0.165639 0.00790178)
(202.27 -0.157868 -0.896416)
(201.922 -0.428589 -1.80008)
(201.307 -0.641165 -2.62149)
(200.395 -0.807821 -3.29566)
(199.161 -0.952066 -3.68718)
(197.602 -1.1293 -3.58049)
(195.871 -1.36488 -2.75287)
(203.103 1.90748 1.7914)
(203.57 1.532 0.718133)
(203.733 1.13483 -0.387718)
(203.602 0.741809 -1.49712)
(203.154 0.354128 -2.6017)
(202.344 -0.0309973 -3.67095)
(201.095 -0.424222 -4.62883)
(199.303 -0.848014 -5.34701)
(196.838 -1.37057 -5.40303)
(194.04 -1.93789 -4.6197)
(204.092 1.75988 2.50355)
(204.602 1.22 1.20607)
(204.778 0.690185 -0.150828)
(204.636 0.204624 -1.518)
(204.136 -0.26015 -2.91217)
(203.208 -0.712463 -4.31342)
(201.717 -1.17173 -5.65531)
(199.468 -1.66424 -6.84636)
(196.114 -2.29568 -7.29998)
(192.034 -2.99151 -6.92402)
(204.551 2.52656 2.58713)
(205.108 1.97216 1.13179)
(205.313 1.42079 -0.35457)
(205.191 0.916101 -1.86119)
(204.69 0.43287 -3.42373)
(203.723 -0.0381995 -5.05639)
(202.095 -0.526185 -6.71337)
(199.508 -1.05353 -8.37937)
(195.292 -1.75935 -9.29351)
(189.827 -2.52568 -9.54029)
(205.137 2.10098 3.20278)
(205.738 1.43197 1.62537)
(205.978 0.800219 -0.0199641)
(205.897 0.249917 -1.68742)
(205.432 -0.261453 -3.45168)
(204.489 -0.741829 -5.35628)
(202.811 -1.22417 -7.38188)
(200.008 -1.72775 -9.61126)
(195.04 -2.44205 -11.1402)
(188.235 -3.18123 -12.3679)
(205.394 2.92935 3.05272)
(206.023 2.23928 1.41841)
(206.29 1.59623 -0.24382)
(206.243 1.04564 -1.94382)
(205.817 0.548752 -3.75866)
(204.923 0.0930651 -5.7801)
(203.254 -0.359107 -8.01117)
(200.343 -0.826366 -10.6685)
(194.77 -1.50682 -12.7413)
(186.758 -2.16652 -15.1349)
(205.797 2.14605 3.6309)
(206.458 1.34318 1.94759)
(206.753 0.623346 0.194428)
(206.746 0.0242184 -1.58898)
(206.368 -0.498213 -3.52107)
(205.538 -0.95174 -5.71768)
(203.916 -1.3629 -8.22172)
(200.976 -1.74469 -11.3675)
(194.945 -2.30047 -14.1235)
(185.843 -2.77403 -17.9493)
(205.884 3.04181 3.18188)
(206.553 2.21933 1.51797)
(206.846 1.51088 -0.159332)
(206.828 0.933836 -1.88664)
(206.444 0.463286 -3.7559)
(205.631 0.0769845 -5.92617)
(204.048 -0.247019 -8.4676)
(201.147 -0.535997 -11.8565)
(194.857 -0.880738 -15.1101)
(184.869 -1.19392 -20.3181)
(206.044 1.7084 3.76453)
(206.724 0.770865 2.12357)
(207.034 -0.0164583 0.423881)
(207.039 -0.652886 -1.30799)
(206.689 -1.16975 -3.2103)
(205.919 -1.57419 -5.43811)
(204.393 -1.84577 -8.14337)
(201.582 -1.99543 -11.8892)
(195.221 -1.94755 -15.9862)
(184.257 -1.89924 -22.3805)
(205.256 2.64802 3.10259)
(205.889 1.6452 1.5147)
(206.107 0.893049 -0.0759205)
(205.943 0.293624 -1.72675)
(205.373 -0.131747 -3.51646)
(204.349 -0.403143 -5.61281)
(202.583 -0.48176 -8.16709)
(199.582 -0.316641 -11.7257)
(193.24 0.228205 -16.0578)
(181.785 1.20164 -22.863)
(200.571 0.551117 1.19394)
(200.914 0.294914 0.66611)
(201.028 0.0340522 0.0357609)
(200.953 -0.195285 -0.583089)
(200.694 -0.396659 -1.18743)
(200.256 -0.5624 -1.69751)
(199.643 -0.702068 -2.06661)
(198.881 -0.830802 -2.20479)
(198.016 -0.975079 -2.02032)
(197.164 -1.14159 -1.42912)
(201.727 1.43451 1.31136)
(202.121 1.20002 0.510254)
(202.258 0.920733 -0.321239)
(202.144 0.622165 -1.14562)
(201.771 0.313515 -1.93591)
(201.123 -0.00396376 -2.64897)
(200.178 -0.334785 -3.21066)
(198.934 -0.688755 -3.5126)
(197.411 -1.09413 -3.32757)
(195.914 -1.51128 -2.51764)
(202.577 1.29269 2.05044)
(203.048 0.890598 1.01565)
(203.209 0.470792 -0.0832931)
(203.076 0.0689784 -1.18038)
(202.623 -0.329617 -2.26758)
(201.814 -0.729633 -3.30342)
(200.583 -1.14428 -4.20336)
(198.865 -1.59107 -4.83741)
(196.582 -2.12528 -4.81326)
(194.193 -2.69421 -3.92696)
(203.017 2.11732 2.14838)
(203.559 1.69108 0.935492)
(203.755 1.23754 -0.315477)
(203.626 0.803239 -1.5742)
(203.135 0.372888 -2.84709)
(202.225 -0.0600393 -4.11447)
(200.775 -0.519677 -5.29415)
(198.642 -1.02523 -6.27061)
(195.552 -1.66463 -6.46641)
(192.083 -2.36905 -5.60753)
(203.616 1.72874 2.79426)
(204.221 1.17893 1.43095)
(204.453 0.635762 -0.00656247)
(204.349 0.145919 -1.45387)
(203.858 -0.322888 -2.95357)
(202.908 -0.776623 -4.50653)
(201.317 -1.2438 -6.04465)
(198.86 -1.74674 -7.49225)
(194.996 -2.42633 -8.08612)
(190.379 -3.19383 -7.53434)
(203.913 2.60712 2.6696)
(204.561 2.02453 1.22688)
(204.822 1.46012 -0.251855)
(204.742 0.962238 -1.75773)
(204.264 0.50078 -3.33669)
(203.308 0.0645873 -5.02976)
(201.637 -0.383726 -6.78409)
(198.952 -0.870446 -8.60572)
(194.393 -1.55925 -9.55977)
(188.652 -2.35306 -9.45945)
(204.362 1.85337 3.27562)
(205.05 1.15108 1.7611)
(205.338 0.505796 0.169074)
(205.29 -0.0419523 -1.44485)
(204.84 -0.529049 -3.16834)
(203.907 -0.962451 -5.06306)
(202.205 -1.37096 -7.11184)
(199.37 -1.77958 -9.39676)
(194.214 -2.37969 -10.8781)
(187.39 -3.09955 -11.5021)
(204.504 2.80594 2.8393)
(205.204 2.07976 1.33391)
(205.495 1.44066 -0.193546)
(205.439 0.912165 -1.76645)
(204.98 0.473517 -3.44903)
(204.044 0.10612 -5.34441)
(202.327 -0.218609 -7.4584)
(199.42 -0.543162 -9.9907)
(193.839 -0.991227 -11.8663)
(186.055 -1.65654 -13.2454)
(204.717 1.47464 3.45729)
(205.425 0.630488 1.95861)
(205.729 -0.0843286 0.386405)
(205.692 -0.659605 -1.21511)
(205.257 -1.12418 -2.95751)
(204.348 -1.48265 -4.93718)
(202.645 -1.72718 -7.22515)
(199.715 -1.8903 -10.0745)
(193.889 -1.98183 -12.6837)
(185.057 -2.39472 -14.8185)
(203.991 2.50146 2.77472)
(204.656 1.59933 1.34467)
(204.897 0.925129 -0.103764)
(204.741 0.389856 -1.61327)
(204.153 0.0174467 -3.24031)
(203.069 -0.209342 -5.10204)
(201.2 -0.264034 -7.2727)
(198.102 -0.118999 -10.0005)
(192.174 0.260004 -12.811)
(182.634 0.640323 -15.1308)
(199.739 0.251683 0.824882)
(199.993 0.0931282 0.48841)
(200.075 -0.0795515 0.0636025)
(200.023 -0.236492 -0.342711)
(199.848 -0.382079 -0.735394)
(199.56 -0.507325 -1.0465)
(199.175 -0.618476 -1.25087)
(198.724 -0.723007 -1.29412)
(198.247 -0.831646 -1.14383)
(197.791 -0.943196 -0.777497)
(200.717 1.04044 0.910871)
(201.019 0.911071 0.336734)
(201.126 0.728217 -0.260148)
(201.038 0.512471 -0.845167)
(200.755 0.277243 -1.38648)
(200.276 0.0267605 -1.84331)
(199.612 -0.237729 -2.15828)
(198.794 -0.516794 -2.25868)
(197.885 -0.815357 -2.03778)
(197.078 -1.10365 -1.43094)
(201.39 0.861561 1.63604)
(201.788 0.575027 0.842245)
(201.926 0.254803 -0.0152686)
(201.813 -0.0660644 -0.863775)
(201.436 -0.395757 -1.68088)
(200.784 -0.734765 -2.41795)
(199.839 -1.08967 -2.99864)
(198.61 -1.46915 -3.31459)
(197.136 -1.89526 -3.14387)
(195.749 -2.32526 -2.34647)
(201.758 1.71204 1.72041)
(202.246 1.40387 0.746236)
(202.423 1.04625 -0.269243)
(202.301 0.685467 -1.28316)
(201.86 0.315171 -2.28034)
(201.068 -0.0670039 -3.22108)
(199.871 -0.477724 -4.01849)
(198.23 -0.929477 -4.5453)
(196.096 -1.46851 -4.43725)
(193.955 -2.04072 -3.43905)
(202.316 1.34312 2.37751)
(202.884 0.910892 1.23665)
(203.097 0.459451 0.0179872)
(202.986 0.0359983 -1.20019)
(202.514 -0.38152 -2.43266)
(201.634 -0.795729 -3.64945)
(200.239 -1.22837 -4.76371)
(198.235 -1.69895 -5.64698)
(195.416 -2.29715 -5.77441)
(192.408 -2.96204 -4.76566)
(202.61 2.25826 2.26785)
(203.236 1.78727 1.03188)
(203.482 1.30763 -0.246568)
(203.383 0.869446 -1.54191)
(202.897 0.452073 -2.87082)
(201.964 0.0473112 -4.23245)
(200.423 -0.377644 -5.54366)
(198.122 -0.849234 -6.71201)
(194.641 -1.48312 -7.0464)
(190.724 -2.22637 -6.09534)
(203.07 1.5307 2.89456)
(203.747 0.936749 1.56775)
(204.02 0.373362 0.15681)
(203.945 -0.116327 -1.26716)
(203.464 -0.56081 -2.76058)
(202.511 -0.96513 -4.33686)
(200.874 -1.35696 -5.93766)
(198.341 -1.76596 -7.50453)
(194.246 -2.34317 -8.22478)
(189.396 -3.07469 -7.55856)
(203.24 2.54058 2.46828)
(203.937 1.92021 1.1402)
(204.218 1.35843 -0.217922)
(204.135 0.885169 -1.6153)
(203.639 0.48519 -3.08705)
(202.659 0.143992 -4.6843)
(200.957 -0.168902 -6.36136)
(198.267 -0.501245 -8.14046)
(193.685 -0.973338 -9.13445)
(187.954 -1.71694 -8.79335)
(203.488 1.21048 3.12313)
(204.196 0.469748 1.78555)
(204.487 -0.167029 0.3608)
(204.418 -0.679454 -1.08806)
(203.935 -1.09255 -2.64478)
(202.963 -1.40837 -4.35252)
(201.236 -1.62842 -6.21898)
(198.442 -1.79478 -8.27892)
(193.523 -1.95812 -9.83221)
(186.815 -2.51404 -9.91442)
(202.813 2.33617 2.41848)
(203.482 1.54218 1.15875)
(203.733 0.949059 -0.134024)
(203.582 0.478213 -1.48548)
(202.994 0.156469 -2.92838)
(201.898 -0.0308407 -4.53214)
(200.048 -0.0680793 -6.30677)
(197.093 0.0555952 -8.29696)
(191.995 0.313709 -9.98369)
(184.568 0.412593 -10.0824)
(199.165 0.0421264 0.57636)
(199.35 -0.0565754 0.36976)
(199.406 -0.170416 0.0876315)
(199.374 -0.275805 -0.172444)
(199.263 -0.379262 -0.425536)
(199.085 -0.471397 -0.616463)
(198.855 -0.556062 -0.736408)
(198.597 -0.635526 -0.752733)
(198.335 -0.712798 -0.658274)
(198.074 -0.784026 -0.451625)
(199.988 0.740699 0.59903)
(200.205 0.682377 0.200235)
(200.283 0.572068 -0.211212)
(200.22 0.423578 -0.60982)
(200.019 0.251717 -0.966815)
(199.689 0.0621724 -1.25029)
(199.247 -0.139715 -1.42133)
(198.73 -0.349583 -1.43692)
(198.196 -0.5623 -1.25227)
(197.759 -0.754277 -0.850817)
(200.485 0.495509 1.28424)
(200.799 0.296412 0.694339)
(200.909 0.0590655 0.0457521)
(200.82 -0.189347 -0.591071)
(200.528 -0.453078 -1.18891)
(200.034 -0.729396 -1.7022)
(199.348 -1.01956 -2.07147)
(198.506 -1.32479 -2.2226)
(197.579 -1.64856 -2.04286)
(196.775 -1.95761 -1.47323)
(200.757 1.34207 1.33066)
(201.169 1.13254 0.573961)
(201.319 0.86154 -0.222729)
(201.215 0.571846 -1.01233)
(200.845 0.263691 -1.76784)
(200.199 -0.061331 -2.44286)
(199.266 -0.411802 -2.96163)
(198.062 -0.792685 -3.22039)
(196.637 -1.22218 -3.01373)
(195.324 -1.65799 -2.19301)
(201.238 0.972677 1.97819)
(201.741 0.64643 1.05179)
(201.928 0.28305 0.0480951)
(201.824 -0.0725648 -0.948043)
(201.401 -0.43372 -1.93192)
(200.638 -0.799327 -2.85721)
(199.486 -1.18348 -3.63817)
(197.931 -1.59948 -4.14865)
(195.952 -2.0969 -4.06604)
(194.019 -2.62782 -3.11849)
(201.497 1.90626 1.86995)
(202.07 1.54174 0.841999)
(202.292 1.14713 -0.231717)
(202.189 0.772165 -1.31391)
(201.731 0.404852 -2.39861)
(200.88 0.0406979 -3.4575)
(199.546 -0.345506 -4.39854)
(197.675 -0.775083 -5.09977)
(195.127 -1.31993 -5.10525)
(192.504 -1.9457 -4.03103)
(201.938 1.19696 2.50642)
(202.573 0.711089 1.37481)
(202.824 0.232226 0.155134)
(202.735 -0.195348 -1.06964)
(202.262 -0.591738 -2.32911)
(201.356 -0.959309 -3.60164)
(199.882 -1.32166 -4.80837)
(197.74 -1.7068 -5.82717)
(194.631 -2.22173 -6.09922)
(191.266 -2.86458 -5.0734)
(202.11 2.25996 2.08455)
(202.774 1.74816 0.94339)
(203.037 1.26776 -0.233644)
(202.94 0.854126 -1.44321)
(202.442 0.49786 -2.69431)
(201.488 0.188599 -3.9975)
(199.91 -0.102025 -5.27599)
(197.561 -0.417644 -6.45331)
(193.978 -0.857841 -6.88315)
(189.88 -1.53913 -5.9233)
(202.378 0.926452 2.77516)
(203.058 0.293487 1.60958)
(203.331 -0.262308 0.345884)
(203.243 -0.711179 -0.935479)
(202.747 -1.07367 -2.29248)
(201.781 -1.34942 -3.72572)
(200.147 -1.54597 -5.20101)
(197.646 -1.7059 -6.629)
(193.704 -1.88954 -7.46375)
(188.79 -2.41859 -6.70008)
(201.741 2.16027 2.04526)
(202.387 1.47794 0.962291)
(202.636 0.967422 -0.165706)
(202.492 0.560751 -1.34765)
(201.924 0.287416 -2.59386)
(200.867 0.134967 -3.93394)
(199.132 0.110291 -5.33125)
(196.475 0.213102 -6.71451)
(192.319 0.384836 -7.61552)
(186.787 0.372406 -6.78109)
(198.759 -0.0985061 0.417778)
(198.896 -0.16273 0.295558)
(198.934 -0.239691 0.107031)
(198.915 -0.310324 -0.0578432)
(198.848 -0.383479 -0.222984)
(198.743 -0.450002 -0.343345)
(198.609 -0.512451 -0.420361)
(198.463 -0.570409 -0.432977)
(198.317 -0.623685 -0.383267)
(198.15 -0.668244 -0.273328)
(199.463 0.530691 0.367259)
(199.611 0.51693 0.0967151)
(199.665 0.457852 -0.176579)
(199.623 0.360798 -0.437987)
(199.489 0.240377 -0.664907)
(199.271 0.102589 -0.835111)
(198.989 -0.045367 -0.924324)
(198.671 -0.197164 -0.908709)
(198.359 -0.344802 -0.771815)
(198.117 -0.470635 -0.513378)
(199.805 0.204884 1.00206)
(200.038 0.0667054 0.574562)
(200.122 -0.106038 0.0961018)
(200.057 -0.293464 -0.370776)
(199.843 -0.498123 -0.800162)
(199.488 -0.715655 -1.15462)
(199.011 -0.943945 -1.39157)
(198.452 -1.17947 -1.46532)
(197.876 -1.41712 -1.32178)
(197.406 -1.63214 -0.946312)
(199.982 1.02643 0.994574)
(200.311 0.892904 0.424446)
(200.432 0.695099 -0.18067)
(200.349 0.469993 -0.776284)
(200.056 0.221808 -1.33176)
(199.557 -0.0450631 -1.8032)
(198.861 -0.332454 -2.13148)
(198.01 -0.639469 -2.24268)
(197.075 -0.967803 -2.02958)
(196.271 -1.28565 -1.4235)
(200.369 0.639154 1.61503)
(200.791 0.401515 0.883278)
(200.949 0.117537 0.0789896)
(200.858 -0.172804 -0.713861)
(200.502 -0.476237 -1.47949)
(199.876 -0.788507 -2.16742)
(198.969 -1.11702 -2.70374)
(197.809 -1.46803 -2.98659)
(196.453 -1.864 -2.83143)
(195.218 -2.2668 -2.08454)
(200.573 1.57167 1.49516)
(201.072 1.30159 0.664713)
(201.265 0.98723 -0.211046)
(201.168 0.675466 -1.08916)
(200.763 0.361266 -1.94901)
(200.029 0.0436668 -2.74881)
(198.93 -0.294057 -3.40237)
(197.472 -0.666046 -3.79556)
(195.657 -1.11002 -3.64697)
(193.921 -1.60338 -2.71221)
(200.977 0.870656 2.12904)
(201.546 0.485718 1.18915)
(201.769 0.089453 0.161018)
(201.677 -0.274859 -0.865973)
(201.24 -0.619887 -1.90117)
(200.428 -0.945124 -2.90243)
(199.168 -1.26871 -3.78746)
(197.434 -1.61286 -4.42103)
(195.149 -2.04659 -4.44745)
(192.849 -2.56757 -3.45688)
(201.127 1.97914 1.70436)
(201.734 1.57216 0.750243)
(201.972 1.17317 -0.242398)
(201.87 0.820967 -1.26112)
(201.401 0.511519 -2.29431)
(200.524 0.238286 -3.32552)
(199.138 -0.0225422 -4.26586)
(197.18 -0.305835 -5.00177)
(194.477 -0.683617 -5.08972)
(191.604 -1.24165 -4.02933)
(201.403 0.634421 2.42787)
(202.032 0.107765 1.43666)
(202.28 -0.367116 0.340279)
(202.184 -0.753153 -0.767084)
(201.705 -1.06636 -1.92178)
(200.799 -1.30418 -3.09464)
(199.335 -1.47734 -4.22896)
(197.207 -1.62394 -5.18397)
(194.167 -1.79831 -5.56507)
(190.666 -2.23199 -4.57255)
(200.79 1.98329 1.6678)
(201.391 1.41181 0.761361)
(201.627 0.983323 -0.198142)
(201.493 0.639594 -1.20546)
(200.962 0.412112 -2.2518)
(199.986 0.290279 -3.33739)
(198.433 0.274577 -4.39692)
(196.157 0.358301 -5.31039)
(192.901 0.468957 -5.69501)
(188.926 0.424343 -4.59117)
(198.46 -0.191764 0.321279)
(198.567 -0.236989 0.252216)
(198.593 -0.291967 0.122491)
(198.582 -0.340132 0.017026)
(198.543 -0.392372 -0.0945605)
(198.483 -0.440076 -0.174413)
(198.407 -0.485291 -0.229686)
(198.325 -0.526536 -0.245343)
(198.241 -0.562584 -0.226319)
(198.122 -0.590009 -0.173602)
(199.082 0.396293 0.199429)
(199.179 0.408965 0.0190459)
(199.215 0.384381 -0.155798)
(199.189 0.324864 -0.320389)
(199.102 0.244147 -0.458591)
(198.965 0.147898 -0.556187)
(198.789 0.0433823 -0.598977)
(198.598 -0.0628805 -0.574078)
(198.416 -0.163157 -0.477325)
(198.28 -0.244481 -0.311626)
(199.297 -0.0129546 0.78544)
(199.463 -0.111531 0.481376)
(199.523 -0.236478 0.134754)
(199.478 -0.375134 -0.202074)
(199.328 -0.529758 -0.507348)
(199.083 -0.695865 -0.75284)
(198.764 -0.869601 -0.909793)
(198.402 -1.04538 -0.952067)
(198.047 -1.21544 -0.854312)
(197.772 -1.3618 -0.621804)
(199.394 0.772713 0.717089)
(199.644 0.693812 0.299592)
(199.738 0.554528 -0.145913)
(199.675 0.385089 -0.581614)
(199.454 0.191538 -0.97861)
(199.085 -0.0201974 -1.30019)
(198.587 -0.247597 -1.50354)
(198.001 -0.486244 -1.54014)
(197.395 -0.729954 -1.35772)
(196.902 -0.955083 -0.931548)
(199.685 0.356099 1.29888)
(200.023 0.187952 0.735205)
(200.15 -0.0281477 0.106963)
(200.076 -0.258876 -0.508549)
(199.791 -0.506574 -1.09111)
(199.301 -0.764911 -1.59404)
(198.615 -1.03643 -1.95892)
(197.777 -1.32148 -2.11244)
(196.862 -1.62675 -1.9542)
(196.077 -1.92106 -1.41126)
(199.825 1.26978 1.15769)
(200.241 1.07822 0.505687)
(200.402 0.835617 -0.187849)
(200.318 0.583885 -0.879829)
(199.977 0.322911 -1.54232)
(199.375 0.054483 -2.13057)
(198.507 -0.230291 -2.57195)
(197.408 -0.539169 -2.77556)
(196.142 -0.886715 -2.57469)
(195.003 -1.25724 -1.84129)
(200.182 0.567734 1.77726)
(200.672 0.271704 1.01655)
(200.862 -0.0477135 0.171321)
(200.777 -0.350472 -0.668488)
(200.394 -0.643279 -1.49884)
(199.702 -0.923074 -2.2693)
(198.671 -1.20267 -2.90499)
(197.318 -1.497 -3.28526)
(195.677 -1.84702 -3.1966)
(194.125 -2.2454 -2.37603)
(200.294 1.71219 1.3426)
(200.826 1.40097 0.567051)
(201.034 1.07964 -0.246111)
(200.937 0.788027 -1.07971)
(200.516 0.526428 -1.90799)
(199.749 0.291533 -2.69978)
(198.585 0.0652358 -3.36782)
(197.018 -0.178088 -3.80029)
(195.032 -0.48535 -3.70297)
(193.052 -0.910368 -2.75645)
(200.569 0.346108 2.09531)
(201.13 -0.0808735 1.27276)
(201.348 -0.477964 0.342416)
(201.253 -0.803558 -0.592753)
(200.815 -1.06953 -1.55273)
(200.007 -1.27151 -2.49086)
(198.754 -1.42127 -3.34289)
(197.018 -1.5501 -3.96245)
(194.741 -1.70149 -4.08203)
(192.304 -2.03017 -3.14717)
(199.969 1.81517 1.29872)
(200.506 1.34963 0.562052)
(200.721 1.00025 -0.231129)
(200.6 0.716965 -1.06539)
(200.123 0.532282 -1.91751)
(199.258 0.437125 -2.76897)
(197.924 0.427789 -3.54129)
(196.053 0.494874 -4.1095)
(193.583 0.562944 -4.17924)
(190.809 0.519247 -3.11544)
(198.232 -0.255808 0.265844)
(198.319 -0.290747 0.229542)
(198.337 -0.333201 0.13547)
(198.332 -0.367333 0.0658014)
(198.31 -0.405658 -0.0140056)
(198.276 -0.440144 -0.0711377)
(198.233 -0.472757 -0.115479)
(198.187 -0.501789 -0.135259)
(198.137 -0.52588 -0.13599)
(198.043 -0.542323 -0.116916)
(198.8 0.320916 0.0782227)
(198.862 0.348754 -0.0402961)
(198.886 0.34666 -0.1471)
(198.87 0.31361 -0.245246)
(198.816 0.262369 -0.324154)
(198.731 0.197917 -0.375329)
(198.625 0.126623 -0.390985)
(198.511 0.054329 -0.363989)
(198.405 -0.0126132 -0.295271)
(198.326 -0.0646579 -0.18594)
(198.916 -0.167996 0.62493)
(199.028 -0.242248 0.411079)
(199.07 -0.333267 0.162494)
(199.04 -0.434586 -0.0787408)
(198.939 -0.548846 -0.295605)
(198.777 -0.672417 -0.468022)
(198.569 -0.800849 -0.577343)
(198.34 -0.928372 -0.609502)
(198.123 -1.04747 -0.5522)
(197.96 -1.14554 -0.417673)
(198.954 0.57983 0.49582)
(199.137 0.537814 0.198417)
(199.207 0.443174 -0.119642)
(199.161 0.319573 -0.428796)
(199.002 0.173349 -0.704639)
(198.739 0.0109765 -0.918876)
(198.394 -0.163041 -1.04216)
(198 -0.342762 -1.04428)
(197.611 -0.519514 -0.902057)
(197.308 -0.676254 -0.60971)
(199.156 0.129425 1.03353)
(199.416 0.0128487 0.608906)
(199.515 -0.147812 0.129491)
(199.457 -0.326556 -0.337733)
(199.239 -0.523141 -0.772491)
(198.87 -0.730481 -1.13574)
(198.37 -0.947873 -1.38416)
(197.781 -1.17191 -1.46911)
(197.172 -1.40166 -1.33823)
(196.674 -1.6114 -0.963671)
(199.235 1.00974 0.86614)
(199.568 0.879685 0.368474)
(199.697 0.698184 -0.16465)
(199.627 0.500837 -0.694161)
(199.353 0.290533 -1.19043)
(198.88 0.0708705 -1.61234)
(198.22 -0.160931 -1.90292)
(197.417 -0.408023 -1.99707)
(196.547 -0.671594 -1.79858)
(195.805 -0.940708 -1.25425)
(199.543 0.300159 1.46164)
(199.948 0.0784779 0.861095)
(200.106 -0.172556 0.183113)
(200.031 -0.417926 -0.487081)
(199.711 -0.66001 -1.13801)
(199.147 -0.893845 -1.71956)
(198.335 -1.12799 -2.16947)
(197.314 -1.37038 -2.3923)
(196.156 -1.64415 -2.2674)
(195.12 -1.93654 -1.63859)
(199.605 1.47061 1.01133)
(200.053 1.24247 0.399048)
(200.228 0.992034 -0.246681)
(200.141 0.757747 -0.908242)
(199.781 0.542978 -1.55198)
(199.139 0.346856 -2.14158)
(198.2 0.157237 -2.59941)
(196.989 -0.0438312 -2.83416)
(195.562 -0.28468 -2.65422)
(194.219 -0.594802 -1.88853)
(199.876 0.0717134 1.78969)
(200.359 -0.266197 1.12322)
(200.545 -0.591338 0.350734)
(200.458 -0.860559 -0.421496)
(200.075 -1.08225 -1.20235)
(199.386 -1.25078 -1.93802)
(198.356 -1.37756 -2.56668)
(196.99 -1.48633 -2.96)
(195.327 -1.60996 -2.94809)
(193.664 -1.84764 -2.17773)
(199.279 1.66538 0.94917)
(199.741 1.29739 0.369859)
(199.929 1.02194 -0.264848)
(199.823 0.795286 -0.933942)
(199.41 0.649784 -1.60485)
(198.672 0.577638 -2.24967)
(197.57 0.572805 -2.78836)
(196.088 0.62586 -3.11461)
(194.265 0.664534 -3.0109)
(192.377 0.633191 -2.10693)
(198.051 -0.304382 0.237552)
(198.126 -0.333759 0.220996)
(198.14 -0.369455 0.147727)
(198.137 -0.395154 0.0987503)
(198.125 -0.424547 0.0372727)
(198.106 -0.450115 -0.00769615)
(198.081 -0.473918 -0.0468941)
(198.056 -0.494364 -0.0705255)
(198.024 -0.510293 -0.0839966)
(197.945 -0.51963 -0.0851092)
(198.587 0.289411 -0.0112657)
(198.626 0.326098 -0.0878301)
(198.642 0.338379 -0.148352)
(198.632 0.323616 -0.201465)
(198.6 0.293641 -0.240951)
(198.549 0.252582 -0.261998)
(198.485 0.205669 -0.260763)
(198.418 0.157749 -0.23298)
(198.355 0.113636 -0.18174)
(198.309 0.0805354 -0.105153)
(198.625 -0.273128 0.509458)
(198.699 -0.333079 0.359349)
(198.726 -0.400738 0.18115)
(198.707 -0.474538 0.00780298)
(198.641 -0.557718 -0.147799)
(198.536 -0.647633 -0.272105)
(198.404 -0.740193 -0.353211)
(198.262 -0.830362 -0.384052)
(198.131 -0.911993 -0.357699)
(198.035 -0.97649 -0.28827)
(198.63 0.441133 0.324009)
(198.758 0.422556 0.118194)
(198.808 0.36064 -0.101758)
(198.777 0.273319 -0.3142)
(198.666 0.166389 -0.500172)
(198.486 0.0460048 -0.638973)
(198.252 -0.0829299 -0.71138)
(197.993 -0.214345 -0.699087)
(197.746 -0.339829 -0.593726)
(197.559 -0.447616 -0.395098)