/*--------------------------------*- C++ -*----------------------------------*\
| =========                 |                                                 |
| \\      /  F ield         | foam-extend: Open Source CFD                    |
|  \\    /   O peration     | Version:     4.0                                |
|   \\  /    A nd           | Web:         http://www.foam-extend.org         |
|    \\/     M anipulation  |                                                 |
\*---------------------------------------------------------------------------*/
FoamFile
{
    version     2.0;
    format      ascii;
    class       volScalarField;
    location    "4200";
    object      epsilon;
}
// * * * * * * * * * * * * * * * * * * * * * * * * * * * * * * * * * * * * * //

dimensions      [0 2 -3 0 0 0 0];

internalField   nonuniform List<scalar> 
34480
(
4843.35
4836.87
4834.49
4834.09
4837.04
4853.81
4914.55
5079.95
5443.18
6228.6
5609.48
6908.43
9583.12
15792.5
32427.2
80979
220962
581075
1.32231e+06
2.4128e+06
7330.38
8765.28
11504.9
17306.6
31909
75616.7
216555
646045
1.72726e+06
3.72261e+06
6076.78
7336.62
9666.1
14400.4
25907.7
60960.7
183541
605748
1.83005e+06
4.45448e+06
4877.81
5999.27
8049.54
12124.3
21829.5
51601.6
161916
578796
1.92696e+06
5.17589e+06
3838.86
4777.39
6515.57
10017.7
18467.2
45077.2
149516
576201
2.08243e+06
6.05774e+06
2994.4
3749.68
5177.69
8121.9
15417.3
39133.3
136943
562575
2.17607e+06
6.7578e+06
2115.74
2636.79
3641.46
5797.18
11408.3
30729.5
115332
506566
2.08841e+06
6.87429e+06
1189.35
1386.66
1774.99
2673.9
5316.78
15637.2
65112.5
310351
1.37004e+06
4.74836e+06
5631.17
5614.63
5616.98
5644.47
5704.9
5793.86
5891.8
5996.28
6182.4
6430.33
4773.91
4772.35
4780.04
4797.5
4824.25
4861.79
4922.4
5032.01
5234.85
5629.22
3020.59
3487.55
4378.63
6076.85
9652.39
18307.3
43851.8
130495
410607
1.14525e+06
4165.82
4795.92
5924.99
7968.39
11947.6
21030.7
46853.2
142452
513709
1.67023e+06
3670.12
4285.54
5370.9
7312.04
10963.6
19052
41879.6
132823
541409
1.98644e+06
3090.67
3679.31
4720.44
6567.06
10024.6
17502.3
38432.9
126389
571444
2.31175e+06
2534.06
3048.31
3974.8
5654.51
8873.22
15849.2
35599.2
123647
619730
2.73243e+06
2052.44
2480.65
3269.74
4733.72
7629.41
13999.9
32347.2
118363
649909
3.08009e+06
1511.75
1812.75
2376.17
3458.65
5680.62
10730
25836.2
101999
621827
3.17109e+06
961.758
1075.86
1289.61
1711
2630.57
4873.5
12228.8
55844.6
402914
2.30047e+06
5508.06
5484.87
5476.11
5489
5536.9
5624.18
5724.73
5806.57
6049.61
6662.17
4694.98
4693.35
4699.07
4713.71
4737.96
4772.37
4820.04
4890.5
5002.59
5183.49
1613.56
1795.35
2123.8
2707.3
3776.84
5856.96
10330.2
20991.7
47295.3
104687
2196.22
2485.61
2989.92
3837.56
5306.97
8091.49
14066.4
29331.3
73603.9
189741
2084.47
2393.36
2931.6
3849.66
5407.19
8338.86
14703.5
32151.4
90805.7
270381
1870.8
2186.79
2745.53
3703.83
5342.19
8409.43
15124.1
34640.3
109312
369626
1616.07
1906.01
2431.18
3360.1
5006.8
8138.93
15181.7
37099.4
131803
500528
1371.87
1624.58
2094.08
2945.82
4518.4
7583.68
14698.9
38322.5
152208
639465
1065.39
1249.69
1597.35
2252.58
3516.01
6076.9
12323.1
34902.8
157242
730806
786.655
860.784
1000.52
1266.52
1811.87
3012.06
6218.42
19323.7
101800
540875
5401.56
5376.24
5361.95
5364.18
5392.43
5454.6
5542.21
5618.37
5750.34
6165.41
4605.87
4604.49
4608.46
4619.11
4637.17
4663.34
4698.83
4746.99
4817.8
4937.06
907.435
972.203
1079.1
1263.43
1573.01
2100.5
3030.05
4726.58
7877.13
13281.7
1092.9
1212.68
1414.57
1738.82
2262.61
3136.54
4675.74
7615.28
13756.3
26357.3
1123.06
1264.59
1506.41
1904.17
2541.26
3614.85
5541.13
9414.72
18532.1
40678.9
1087.98
1244.8
1519.88
1979
2720.43
3985.29
6294.02
11148
23924.2
59989.9
1000.81
1153.45
1429.79
1908.96
2716.33
4135.95
6826.49
12837.2
30569.3
87583
898.507
1039.3
1301.79
1768.84
2592.92
4091.34
7049.78
14069.2
37144.2
120314
745.26
853.018
1056.44
1433.03
2130.2
3459.14
6240.54
13396.6
39874.9
146301
651.072
697.893
786.013
946.894
1257.94
1899.49
3385.69
7621.85
25399.4
107146
5279.72
5255.85
5240.99
5239.01
5255.81
5298.95
5371.54
5455.45
5554.26
5829.92
4505.05
4503.63
4505.98
4512.87
4524.59
4541.53
4564.49
4595.77
4642.54
4727.52
577.051
599.678
631.318
683.011
762.346
884.498
1073.6
1361.94
1780.1
2356.95
547.004
591.039
661.76
770.566
936.038
1188.1
1578.62
2193.19
3161.87
4676.65
598.09
656.052
751.901
903.984
1135.46
1494.38
2063.81
3001.13
4620.54
7575.16
625.524
696.364
817.892
1013.25
1313.33
1787.86
2557.13
3872.22
6362.43
11683.9
614.465
688.314
820.128
1042.32
1398.23
1984.89
2979.14
4778.11
8550.33
17866.4
585.016
657.945
792.602
1025.05
1415.54
2084.9
3270.99
5537.63
10788.1
25599.1
522.312
581.732
692.178
890.307
1239.46
1869.48
3058.48
5514.14
11887.6
32264.8
545.113
573.729
626.857
718.803
883.752
1198.38
1852.88
3350.25
7665.12
23429.1
5153.12
5131.32
5117.08
5113.18
5123.17
5152.5
5206.57
5281.71
5369.65
5549.74
4393.66
4392.23
4393.6
4398.24
4406.2
4417.58
4432.79
4453.61
4486.38
4551.67
421.056
429.826
439.481
453.88
473.443
500.081
536.169
583.01
637.325
698.599
300.921
316.098
338.887
372.477
420.618
488.239
582.653
711.494
876.72
1079.87
335.389
357.229
391.808
444.99
522.122
633.355
793.244
1020.88
1332.62
1768.07
371.222
401.022
450.328
526.287
637.573
801.872
1044.3
1402.35
1928.3
2790.2
385.506
419.003
477.049
571.47
715.641
939.629
1288.18
1835.22
2713.91
4389.55
386.567
422.301
486.661
593.372
763.687
1040
1491.3
2239.21
3549.38
6439.88
371.448
402.889
459.416
556.525
718.159
994.307
1476.08
2340.02
4024.99
8277.31
462.548
479.704
510.783
561.593
646.01
793.662
1070.32
1616.31
2784.44
6105.39
5020.4
5001.14
4988.44
4984.39
4991.28
5012.71
5052.92
5113.15
5187.27
5302.17
4273
4271.55
4272.33
4275.66
4281.54
4289.98
4301.26
4316.81
4342.2
4396
341.582
345.484
348.708
352.804
357.428
362.665
368.388
373.644
375.785
374.691
194.641
199.813
206.846
216.68
229.869
246.957
268.674
295.061
323.934
353.371
211.254
219.047
230.685
248.138
272.223
304.638
347.315
401.43
463.562
532.046
238.785
250.754
269.559
297.131
335.491
388.366
459.989
554.336
668.896
816.712
256.467
271.015
295.057
332.468
386.834
466.262
580.792
742.619
956.511
1276.96
266.623
283.5
312.631
358.443
427.65
533.465
694.021
934.235
1276.62
1872.51
273.126
289.346
316.992
361.94
431.988
544.479
726.933
1023.35
1492.19
2427.78
399.349
409.474
427.13
454.364
496.521
564.109
677.982
877.917
1224.15
1982.6
4880.68
4864.15
4853.4
4850.09
4855.81
4872.95
4904.23
4951.35
5010.23
5082.23
4144.52
4143.08
4143.52
4146.08
4150.78
4157.63
4166.86
4179.68
4201.03
4247.78
296.575
298.53
299.781
300.977
301.862
302.354
302.2
300.552
295.561
286.355
148.16
150.022
152.214
155.042
158.531
162.655
167.407
172.575
177.456
181.867
153.488
156.227
160
165.576
172.877
182.045
193.132
205.8
218.324
229.449
171.298
176.049
183.012
192.629
205.227
221.361
241.412
265.24
290.065
316.263
185.517
191.727
201.338
215.531
235.021
261.672
297.309
343.38
396.168
460.502
196.022
203.869
216.637
235.418
262.157
300.382
354.207
428.116
518.809
646.892
210.473
218.769
231.908
251.913
280.904
324.239
389.391
486.923
620.356
835.991
351.376
357.297
367.047
381.249
402.02
432.831
479.942
554.994
670.42
869.579
4733.15
4719.35
4710.62
4708.35
4713.68
4728.22
4753.56
4790.8
4835.71
4882.4
4009.28
4007.87
4008.12
4010.23
4014.23
4020.14
4028.16
4039.32
4058.02
4099.61
267.881
268.919
269.517
269.91
269.953
269.573
268.571
266.24
261.01
251.289
126.788
127.528
128.247
129.05
129.921
130.826
131.743
132.611
133.271
133.898
126.139
127.117
128.328
130.122
132.349
134.962
137.87
140.862
143.37
145.027
136.747
138.672
141.256
144.575
148.622
153.397
158.806
164.58
169.721
174.193
146.681
149.35
153.156
158.455
165.268
173.943
184.683
197.456
210.475
223.736
154.938
158.59
164.128
171.664
181.716
195.071
212.465
234.484
258.444
286.744
171.05
175.319
181.475
190.178
201.859
217.989
240.407
271.507
310.031
362.223
315.027
318.49
323.712
330.909
341.051
355.19
375.218
404.974
450.328
515.321
4577.26
4566.01
4559.17
4557.87
4562.94
4575.42
4596.19
4625.7
4659.47
4691.51
3867.98
3866.61
3866.76
3868.59
3872.14
3877.43
3884.63
3894.63
3911.3
3948.61
247.339
247.879
248.233
248.433
248.393
248.053
247.251
245.355
240.908
231.882
116.338
116.662
116.916
117.131
117.303
117.424
117.5
117.535
117.517
117.627
112.842
113.201
113.587
114.177
114.873
115.636
116.42
117.141
117.618
117.722
118.778
119.586
120.563
121.715
122.999
124.373
125.768
127.072
127.989
128.567
125.3
126.473
127.988
129.968
132.327
135.11
138.3
141.804
145.015
147.729
131.103
132.818
135.225
138.232
141.979
146.601
152.172
158.704
165.077
171.474
146.392
148.623
151.491
155.228
159.846
165.72
173.292
183.11
194.61
208.251
287.256
289.316
292.016
295.55
300.471
307.05
315.897
328.57
349.916
376.979
4412.7
4403.72
4398.49
4397.95
4402.64
4413.2
4430.02
4453.15
4478.39
4501.39
3720.99
3719.68
3719.77
3721.41
3724.63
3729.46
3736.04
3745.11
3760.06
3793.51
231.098
231.335
231.579
231.751
231.792
231.653
231.188
229.822
226.176
218.013
110.887
111.038
111.135
111.181
111.181
111.137
111.063
110.98
110.915
111.015
106.28
106.414
106.534
106.733
106.954
107.18
107.393
107.564
107.631
107.53
109.343
109.691
110.067
110.467
110.863
111.23
111.542
111.768
111.828
111.78
113.489
114.016
114.623
115.361
116.162
117.024
117.934
118.856
119.615
120.101
117.32
118.129
119.174
120.369
121.759
123.355
125.146
127.114
128.844
130.306
131.007
132.201
133.532
135.11
136.88
138.939
141.413
144.464
148.068
152.062
265.567
266.852
268.188
269.866
272.258
275.406
279.523
285.395
297.097
310.69
4239.42
4232.36
4228.45
4228.39
4232.55
4241.26
4254.64
4272.5
4291.34
4308.38
3568.56
3567.31
3567.37
3568.87
3571.82
3576.26
3582.3
3590.56
3603.95
3633.78
217.223
217.266
217.442
217.618
217.743
217.775
217.578
216.631
213.642
206.315
107.816
107.886
107.925
107.928
107.9
107.845
107.777
107.717
107.701
107.85
103.046
103.098
103.135
103.202
103.273
103.339
103.395
103.432
103.426
103.34
104.416
104.565
104.71
104.847
104.962
105.044
105.086
105.08
105.011
104.924
107.005
107.247
107.49
107.76
108.015
108.254
108.473
108.67
108.804
108.826
109.43
109.807
110.254
110.722
111.231
111.779
112.356
112.963
113.441
113.763
121.402
122.062
122.676
123.321
123.954
124.604
125.321
126.182
127.324
128.657
247.964
248.838
249.459
250.232
251.425
253.023
255.101
258.126
265.239
272.858
4057.6
4052.12
4049.22
4049.43
4052.96
4059.98
4070.43
4084.06
4098.2
4111.16
3410.89
3409.71
3409.75
3411.11
3413.83
3417.9
3423.45
3430.94
3442.88
3469.22
204.658
204.573
204.697
204.871
205.046
205.185
205.161
204.507
202.029
195.476
105.91
105.937
105.954
105.951
105.929
105.895
105.858
105.836
105.866
106.053
101.475
101.498
101.51
101.532
101.554
101.571
101.583
101.588
101.578
101.528
101.898
101.96
102.014
102.061
102.093
102.106
102.099
102.07
102.019
101.976
103.507
103.62
103.717
103.812
103.882
103.927
103.95
103.954
103.939
103.884
105.004
105.171
105.354
105.532
105.718
105.909
106.104
106.309
106.453
106.522
115.359
115.739
116.021
116.269
116.462
116.608
116.736
116.892
117.21
117.721
232.887
233.552
233.814
234.166
234.803
235.704
236.884
238.659
243.201
247.675
3867.69
3863.46
3861.31
3861.63
3864.53
3870.06
3878.12
3888.46
3899.22
3909.35
3248.19
3247.08
3247.11
3248.35
3250.83
3254.56
3259.62
3266.4
3276.94
3299.92
192.764
192.593
192.674
192.833
193.025
193.214
193.285
192.821
190.736
184.887
104.591
104.596
104.603
104.601
104.592
104.579
104.567
104.572
104.63
104.838
100.726
100.74
100.746
100.753
100.757
100.758
100.757
100.754
100.749
100.728
100.663
100.685
100.704
100.721
100.733
100.737
100.733
100.722
100.703
100.698
101.668
101.722
101.762
101.793
101.806
101.799
101.778
101.745
101.707
101.658
102.59
102.656
102.724
102.791
102.863
102.941
103.024
103.118
103.184
103.214
111.462
111.69
111.819
111.905
111.939
111.927
111.879
111.829
111.861
112.097
219.151
219.712
219.801
219.967
220.349
220.931
221.699
222.888
225.777
228.403
3670.33
3667.05
3665.45
3665.78
3668.09
3672.4
3678.59
3686.44
3694.79
3702.91
3080.74
3079.71
3079.73
3080.85
3083.11
3086.49
3091.08
3097.15
3106.37
3126.09
181.117
180.89
180.93
181.066
181.249
181.448
181.556
181.208
179.423
174.199
103.581
103.574
103.577
103.579
103.58
103.58
103.585
103.605
103.674
103.886
100.376
100.388
100.393
100.394
100.392
100.387
100.381
100.375
100.374
100.372
100.097
100.102
100.108
100.115
100.123
100.131
100.137
100.141
100.144
100.158
100.733
100.759
100.776
100.786
100.784
100.771
100.748
100.719
100.688
100.658
101.321
101.339
101.358
101.384
101.419
101.464
101.518
101.584
101.637
101.673
108.811
108.953
109.013
109.036
109.023
108.976
108.898
108.812
108.744
108.886
205.878
206.382
206.393
206.48
206.742
207.165
207.722
208.579
210.331
211.813
3466.34
3463.78
3462.57
3462.86
3464.68
3468.02
3472.77
3478.79
3485.41
3492.07
2908.94
2907.99
2908
2909.01
2911.04
2914.09
2918.21
2923.6
2931.56
2948.16
169.411
169.15
169.154
169.259
169.417
169.598
169.707
169.423
167.862
163.157
102.748
102.737
102.738
102.742
102.748
102.757
102.77
102.796
102.864
103.067
100.214
100.226
100.23
100.23
100.226
100.218
100.21
100.203
100.204
100.213
99.8714
99.8696
99.8707
99.8753
99.8826
99.8921
99.9029
99.9144
99.926
99.9468
100.276
100.289
100.297
100.3
100.297
100.288
100.273
100.255
100.234
100.218
100.676
100.674
100.674
100.686
100.709
100.744
100.789
100.845
100.894
100.939
106.848
106.939
106.966
106.967
106.949
106.909
106.845
106.774
106.676
106.789
192.425
192.886
192.864
192.919
193.117
193.447
193.876
194.461
195.457
196.225
3256.73
3254.71
3253.77
3254.01
3255.43
3258.02
3261.7
3266.4
3271.72
3277.28
2733.39
2732.52
2732.52
2733.42
2735.22
2737.93
2741.59
2746.32
2753.09
2766.73
157.408
157.13
157.103
157.175
157.297
157.442
157.527
157.276
155.888
151.592
102.031
102.02
102.02
102.025
102.034
102.046
102.062
102.088
102.148
102.329
100.136
100.146
100.151
100.15
100.145
100.138
100.129
100.122
100.123
100.14
99.8113
99.808
99.8077
99.8107
99.8168
99.8254
99.8359
99.8476
99.8599
99.8789
100.067
100.073
100.077
100.079
100.077
100.072
100.064
100.053
100.041
100.034
100.354
100.344
100.339
100.346
100.364
100.392
100.429
100.473
100.515
100.56
105.246
105.303
105.314
105.31
105.297
105.272
105.231
105.184
105.087
105.19
178.302
178.717
178.681
178.721
178.878
179.141
179.478
179.884
180.354
180.691
3042.69
3041.08
3040.34
3040.53
3041.64
3043.66
3046.54
3050.26
3054.59
3059.27
2554.91
2554.13
2554.12
2554.91
2556.49
2558.87
2562.07
2566.17
2571.83
2582.73
144.916
144.636
144.584
144.62
144.699
144.795
144.842
144.608
143.372
139.39
101.409
101.399
101.399
101.404
101.413
101.425
101.441
101.464
101.51
101.656
100.089
100.097
100.101
100.1
100.097
100.091
100.084
100.078
100.079
100.097
99.8262
99.8236
99.8231
99.8249
99.829
99.8349
99.8423
99.8507
99.8597
99.8731
99.985
99.9889
99.9911
99.9917
99.9906
99.9878
99.9829
99.9764
99.9687
99.9646
100.18
100.17
100.166
100.17
100.183
100.202
100.227
100.258
100.287
100.324
103.831
103.866
103.869
103.866
103.858
103.845
103.821
103.792
103.709
103.801
163.067
163.419
163.381
163.411
163.532
163.736
163.993
164.294
164.501
164.593
2825.65
2824.35
2823.76
2823.9
2824.77
2826.37
2828.65
2831.62
2835.15
2839.11
2374.49
2373.76
2373.76
2374.44
2375.82
2377.9
2380.68
2384.21
2388.87
2397.28
131.83
131.565
131.493
131.489
131.513
131.544
131.535
131.312
130.26
126.604
100.884
100.877
100.877
100.881
100.888
100.899
100.913
100.931
100.962
101.062
100.049
100.054
100.056
100.056
100.054
100.05
100.046
100.042
100.043
100.058
99.8719
99.8705
99.8702
99.8711
99.8731
99.8762
99.88
99.8844
99.8893
99.8966
99.9684
99.9711
99.9725
99.9727
99.9717
99.9693
99.9656
99.9606
99.955
99.9515
100.063
100.056
100.053
100.056
100.063
100.074
100.087
100.101
100.117
100.141
102.534
102.556
102.557
102.555
102.55
102.54
102.524
102.504
102.448
102.515
146.119
146.382
146.348
146.367
146.453
146.596
146.774
146.975
147.086
147.18
2607.11
2606.05
2605.57
2605.68
2606.36
2607.63
2609.47
2611.86
2614.75
2618.09
2192.39
2191.83
2191.83
2192.42
2193.61
2195.4
2197.78
2200.79
2204.57
2211
117.387
117.217
117.181
117.182
117.195
117.214
117.218
117.116
116.488
113.44
100.466
100.463
100.463
100.466
100.472
100.48
100.491
100.505
100.524
100.573
100.017
100.019
100.021
100.021
100.02
100.018
100.016
100.014
100.014
100.022
99.9313
99.9308
99.9306
99.931
99.9317
99.9328
99.9342
99.9357
99.9376
99.9403
99.9847
99.9865
99.9873
99.9873
99.9863
99.9844
99.9816
99.9779
99.9739
99.9709
99.992
99.9892
99.988
99.989
99.9919
99.9959
100
100.004
100.008
100.018
101.345
101.356
101.358
101.357
101.352
101.343
101.33
101.315
101.291
101.329
126.174
126.309
126.284
126.292
126.339
126.419
126.517
126.623
126.663
126.731
2387.88
2387
2386.6
2386.68
2387.23
2388.25
2389.74
2391.68
2394.07
2396.91
8538.5
9003.98
8766.79
7686.68
2.71896e+06
2.61874e+06
2.55753e+06
2.47541e+06
5.07809e+06
4.92439e+06
4.76457e+06
4.43143e+06
6.88265e+06
6.70478e+06
6.4267e+06
5.91473e+06
8.9251e+06
8.71332e+06
8.26546e+06
7.62e+06
1.14491e+07
1.10701e+07
1.03102e+07
9.43567e+06
1.37949e+07
1.32155e+07
1.21879e+07
1.11864e+07
1.49159e+07
1.41784e+07
1.29949e+07
1.19092e+07
1.03473e+07
9.6751e+06
8.70519e+06
7.81696e+06
9638.23
9841.99
9743.94
9573.29
6444.67
6785.29
6928.03
6756.55
1.77004e+06
1.42599e+06
1.38897e+06
1.41128e+06
2.85891e+06
2.41513e+06
2.33609e+06
2.20439e+06
3.71448e+06
3.27288e+06
3.15964e+06
2.84601e+06
4.70259e+06
4.29947e+06
4.07007e+06
3.55848e+06
5.96335e+06
5.46674e+06
4.88561e+06
4.05169e+06
7.07317e+06
6.43648e+06
5.50132e+06
4.47137e+06
7.62544e+06
6.89265e+06
5.74e+06
4.49028e+06
6.00215e+06
5.34452e+06
4.30563e+06
3.18423e+06
9233.19
9313.48
9122.6
8755.02
5639.24
5782.28
5822.83
5730.8
179408
180656
164610
132301
350161
348819
311714
239418
529114
521664
460600
348573
764743
750242
655432
492585
1.09906e+06
1.07628e+06
929113
679903
1.48393e+06
1.44827e+06
1.23781e+06
895216
1.78811e+06
1.7294e+06
1.45428e+06
1.03e+06
1.46329e+06
1.39062e+06
1.13741e+06
761769
7065.36
7152.73
7136.28
7040.79
5376.38
5441.74
5451.92
5391.96
17748.2
17958.9
16829.3
14187.4
38355.7
38453
34882
28453.6
63311.6
62268.2
55207
44109
99586.6
96552.9
84054.8
65421.5
154529
147896
126391
96230.3
224816
212844
179519
135199
289983
271619
226871
169903
232764
212101
173600
125706
6145.33
6197.99
6224.15
6229.44
5166.58
5214.43
5215.75
5166.43
2764.37
2816.79
2709.76
2480.93
5818.25
5936.77
5590.81
4932.6
9945.77
10018.1
9274.6
8028.3
16248.5
16175.2
14728.1
12466.5
26438.2
26098.1
23517.1
19686.9
40351.9
39569
35419.4
29468.5
54548.9
53222.4
47535.1
39482
43929.2
42242.7
37564.9
30534.2
5628.31
5663.8
5693.37
5717.32
4984.38
5025.02
5025.44
4983.1
761.893
761.437
749.136
729.798
1194.61
1211.76
1176.93
1104.28
2028.78
2049.63
1973.4
1832.25
3353.26
3374.92
3217.46
2944.52
5590.44
5623.2
5340.92
4860.34
8735.13
8782.24
8322.03
7540.3
12079.6
12155
11533.5
10434.7
9703.86
9704.49
9263.74
8297.12
5276.67
5296.53
5319.05
5345.61
4816.87
4853.39
4853.5
4815.74
409.646
404.903
401.834
400.997
367.065
369.204
364.686
354.696
563.102
566.864
558.601
541.108
893.898
901.343
884.177
848.221
1467.15
1486.81
1459.64
1396.25
2275.74
2317.02
2276.7
2170.8
3155.21
3230.18
3185.39
3034.33
2696.71
2760.01
2755.14
2627.7
5010.31
5020.97
5037.25
5061.8
4653.49
4686.92
4686.9
4652.59
318.72
314.511
312.936
314.032
184.527
184.666
183.626
181.518
232.967
233.37
232.265
229.841
327.52
328.975
326.757
321.216
493.189
498.361
496.226
487.27
722.915
735.114
733.762
719.131
984.491
1008.37
1011.28
991.386
1026.22
1050.83
1066.45
1055.22
4790.77
4795.91
4807.27
4828.04
4488.2
4518.73
4518.67
4487.51
283.255
279.953
278.959
280.234
135.329
135.312
134.888
134.076
145.138
145.076
144.88
144.543
175.771
175.965
175.535
174.442
229.642
230.801
230.762
229.374
301.851
304.906
305.636
303.608
394.634
401.197
403.954
401.715
553.962
562.649
570.751
573.134
4592.86
4594.71
4602.38
4619.01
4318.72
4346.32
4346.26
4318.22
263.347
260.811
260.168
261.37
118.942
118.972
118.737
118.25
117.51
117.427
117.387
117.378
128.688
128.673
128.531
128.232
148.741
148.971
149.012
148.784
174.479
175.196
175.539
175.316
215.822
217.62
218.716
218.678
386.659
389.881
393.526
396.287
4402.03
4401.97
4406.99
4419.86
4144.08
4168.68
4168.61
4143.72
248.723
246.832
246.428
247.455
112.315
112.395
112.249
111.889
107.381
107.329
107.326
107.365
111.732
111.704
111.638
111.523
120.206
120.239
120.253
120.218
130.797
130.949
131.072
131.101
153.917
154.445
154.843
154.973
311.81
313.031
314.738
316.702
4211.51
4210.39
4213.61
4223.37
3963.86
3985.38
3985.31
3963.6
236.106
234.83
234.596
235.322
109.116
109.228
109.135
108.845
103.266
103.239
103.245
103.281
104.893
104.878
104.843
104.785
108.783
108.779
108.781
108.779
113.726
113.74
113.782
113.833
129.07
129.235
129.378
129.457
270.893
271.268
272.127
273.513
4018.63
4017
4019.02
4026.3
3777.97
3796.39
3796.32
3777.78
224.271
223.707
223.598
223.82
107.261
107.393
107.333
107.089
101.506
101.494
101.501
101.524
101.974
101.969
101.949
101.915
103.836
103.829
103.829
103.83
106.395
106.378
106.392
106.434
117.742
117.797
117.846
117.878
244.385
244.35
244.811
245.855
3822.3
3820.53
3821.75
3827.12
3586.55
3602.1
3602.06
3586.39
212.641
212.54
212.485
212.429
105.971
106.112
106.075
105.865
100.737
100.735
100.741
100.752
100.712
100.713
100.702
100.681
101.627
101.623
101.623
101.624
103.097
103.076
103.081
103.113
112.017
112.037
112.051
112.055
224.478
224.221
224.478
225.323
3622.12
3620.42
3621.14
3625.02
3389.94
3402.88
3402.86
3389.86
200.88
200.959
200.925
200.746
104.933
105.075
105.054
104.87
100.402
100.406
100.41
100.411
100.179
100.183
100.177
100.163
100.642
100.641
100.641
100.641
101.586
101.571
101.574
101.597
108.799
108.812
108.813
108.8
207.598
207.217
207.362
208.083
3418.05
3416.56
3416.96
3419.71
3188.79
3199.21
3199.2
3188.74
188.524
188.697
188.678
188.447
104.016
104.155
104.143
103.982
100.258
100.266
100.268
100.261
99.9671
99.9713
99.9683
99.9588
100.212
100.213
100.213
100.211
100.883
100.874
100.877
100.892
106.73
106.747
106.743
106.717
191.959
191.524
191.603
192.229
3210.36
3209.14
3209.35
3211.25
2983.75
2991.8
2991.8
2983.73
175.397
175.549
175.539
175.357
103.164
103.296
103.29
103.148
100.193
100.205
100.205
100.192
99.8953
99.8988
99.897
99.8906
100.032
100.033
100.032
100.03
100.531
100.529
100.531
100.539
105.174
105.2
105.194
105.154
176.611
176.189
176.229
176.751
2999.64
2998.73
2998.83
3000.07
2775.86
2781.72
2781.72
2775.85
161.244
161.195
161.191
161.228
102.354
102.47
102.468
102.349
100.151
100.165
100.164
100.149
99.8841
99.8864
99.8851
99.8809
99.9637
99.964
99.9628
99.9596
100.316
100.319
100.32
100.321
103.824
103.861
103.852
103.797
161.024
160.718
160.733
161.084
2786.82
2786.2
2786.25
2787
2566.42
2570.34
2570.34
2566.42
145.542
145.024
145.024
145.539
101.58
101.668
101.667
101.579
100.102
100.114
100.113
100.1
99.9022
99.9032
99.9023
99.8999
99.9497
99.9488
99.9469
99.944
100.146
100.152
100.153
100.15
102.54
102.579
102.567
102.504
144.354
144.182
144.195
144.4
2573.17
2572.84
2572.85
2573.22
2356.1
2358.48
2358.48
2356.1
126.768
125.624
125.623
126.766
100.854
100.897
100.897
100.855
100.044
100.051
100.05
100.043
99.942
99.9421
99.9415
99.9406
99.9682
99.9667
99.965
99.963
100.026
100.03
100.032
100.029
101.309
101.323
101.309
101.27
124.916
124.913
124.925
124.955
2359.32
2359.23
2359.23
2359.33
6110.86
5480.66
5193.68
5080.52
5028.36
4984.38
4939.99
4901.19
4872.47
4854.47
1.84347e+06
554629
126984
37707.8
17978.4
10754.1
7479.48
5869.06
5170.78
5084.13
2.33615e+06
403574
87051.9
33447.7
17941.4
11689.1
8777.01
7331.81
6702.86
6689.51
2.26763e+06
258596
68984.2
27282.4
14841.7
9705.21
7282.5
6063.05
5507.7
5501.36
2.05647e+06
237316
62594.4
24596.2
13030.7
8290.63
6064.68
4943.67
4403.95
4375.11
1.97282e+06
256550
64434.6
24243.8
12149.1
7366.29
5161.72
4066.06
3520.13
3444.3
2.07719e+06
287136
65930
23374.9
11036.8
6407.98
4328.85
3316.04
2798.5
2695.74
2.09946e+06
292439
59429.4
19614.5
8696.54
4861.78
3198.55
2415.48
2019.82
1923.31
1.46838e+06
179935
29522
8926.77
3897.07
2300.12
1625.92
1315.78
1161.21
1114.34
9368.41
7010.31
6391.25
6122.13
5954.68
5844.03
5770.53
5718.6
5675.78
5645.84
5745.11
5332.88
5132.91
5022.1
4951.63
4898.29
4854.56
4819.87
4795.64
4781.51
654918
196963
61884.2
23304.1
11211.6
6609.18
4536.71
3503.65
3019.53
2870.94
808572
197584
58145
22448.5
11637.9
7406.11
5446.76
4463.02
4006.48
3911.04
844223
174705
49128
19020.6
10027.7
6430.49
4746.02
3894.94
3487.96
3412.29
888003
165500
45461.7
17533.7
9092.35
5708.22
4128.98
3334.75
2936.17
2852.25
1.01141e+06
179499
47774
17786.1
8795.84
5281.54
3669.45
2869.71
2456.86
2345.57
1.18425e+06
202329
50221
17668.6
8268.01
4762.5
3196.07
2435.88
2034.6
1909.35
1.29493e+06
210660
46910.5
15337.2
6749.7
3745.61
2450.55
1843.18
1528.3
1421.35
953295
134266
24598.8
7358.19
3233.76
1923.58
1366.59
1106.22
975.152
926.274
8139.23
6698.27
6196.65
5962.51
5818.15
5721.1
5654.51
5605.93
5564.59
5532.15
5229.64
5050.09
4952.91
4885.16
4831.5
4787.64
4752.81
4726.8
4709.57
4700.23
63144.6
27614.4
13401.4
7318.3
4460.25
3007.3
2237.08
1819.2
1616.72
1552.67
95595.2
36895.4
16982.8
8928.28
5418.95
3708.8
2821.24
2349.73
2126.97
2078.75
118362
40266.5
17390.3
8742.23
5193.52
3515.92
2662.57
2214.22
1998.19
1955.45
145603
44339.4
18255
8777.05
5032.98
3317.35
2461.9
2019.18
1795.76
1744.77
192697
54290.5
20855.7
9453.91
5131.89
3229.42
2302.9
1830.61
1585.02
1513.59
255144
66149.9
23021.5
9794.15
5026.36
3034.94
2092.52
1623.83
1374.4
1291.35
307759
72745.9
22100.6
8792.67
4258.48
2484.11
1674.28
1285.51
1083.51
1012.66
223415
44904.4
11276.2
4396.21
2227.4
1435.59
1067.14
886.307
796.413
763.745
6967.81
6309.29
5979
5799.62
5683.36
5602.98
5545
5500.29
5460.35
5427.87
4946.49
4841.07
4778.63
4731.67
4694.04
4663.98
4640.85
4624.15
4613.65
4608.77
9585.12
5913.75
3745.42
2481.35
1754.2
1336.02
1097.28
961.246
895.817
878.881
16737.9
9252.15
5435.57
3371.09
2274.59
1671.36
1333.27
1145.41
1056.75
1040.87
23396.6
11653.4
6343.78
3720.85
2428.4
1747.7
1377.34
1175.15
1078.09
1061.56
31580.2
14340.2
7288.21
4044.11
2534.31
1772.46
1369.29
1154.44
1046.59
1023.98
45262.4
19020.3
8884.01
4628.15
2740.37
1828.56
1358.28
1111.32
983.015
946.528
63659.1
24258.8
10228
5014.41
2810.28
1800.9
1295.45
1037.04
899.342
853.765
81690.7
27454.1
10133.3
4694.98
2494.96
1551.69
1095.8
870.871
754.341
714.36
61091.6
16840.7
5371.3
2605.21
1514.94
1065.71
835.271
715.518
657.043
636.439
6302.48
5946.71
5738.89
5609.67
5521.79
5457.45
5408.85
5369.84
5333.81
5304.16
4725.06
4651.5
4610.29
4580.78
4557.56
4539.04
4524.78
4514.61
4508.63
4506.6
2061.43
1574.04
1201.94
946.426
781.592
678.478
615.968
578.721
562.261
561.968
3734.19
2537.31
1736.84
1229
920.766
734.342
622.734
558.234
528.435
525.521
5731.25
3583.87
2262.93
1507.52
1081.52
836.136
694.261
613.783
575.53
570.998
8365.42
4829.29
2816.67
1768.71
1214.46
911.132
741.759
649.004
602.933
595.06
12825.2
6856.98
3659
2152.5
1393.41
996.489
780.553
663.753
603.253
587.168
18835.9
9113.26
4408.64
2444.66
1498.76
1030.17
782.765
652.738
583.378
561.071
25085.2
10577
4556.94
2407.95
1408.11
944.458
707.575
587.202
525.069
504.62
19096.8
6590.6
2700.08
1586.67
1053.5
805.001
663.952
585.943
548.895
536.029
5821.12
5629.89
5511.5
5423.36
5358.66
5307.6
5267.15
5233.6
5201.7
5175.26
4547.8
4490.08
4460.63
4440.94
4425.74
4413.65
4404.4
4398.04
4394.74
4394.41
661.544
600.631
539.394
490.461
455.764
432.774
418.512
410.079
407.989
411.972
965.307
765.841
601.381
483.313
403.525
351.57
318.895
299.524
291.232
292.1
1549.21
1143.22
828.207
624.609
495.674
415.421
366.459
337.606
324.214
323.942
2385.41
1627.55
1087.59
772.693
586.253
476.613
412.419
376.439
358.948
357.278
3844.85
2425.58
1484.82
986.082
704.217
545.577
454.788
404.216
378.173
372.212
5832.01
3331.22
1862.8
1166.21
789.423
588.317
476.519
416.097
383.8
374.05
7935.73
3975.42
2025.68
1215.91
790.822
577.726
462.439
401.933
370.888
361.418
6187.09
2711.84
1473.21
1020.38
762.828
625.385
539.18
488.259
465.079
457.01
5461.99
5365.22
5300
5240.48
5192.65
5152.15
5118.74
5090.38
5062.74
5039.8
4392.7
4343.63
4320.13
4305.22
4293.99
4285.2
4278.66
4274.44
4272.68
4273.31
362.9
360.936
352.555
343.865
337.253
333.005
330.744
329.893
331.333
335.691
333.847
297.686
263.806
237.226
217.885
204.681
196.159
191.116
189.461
190.84
501.737
421.482
348.405
295.892
259.325
235.022
219.459
209.895
205.684
206.425
761.26
594.113
456.696
367.198
309.075
272.712
250.556
237.935
232.097
232.459
1228.43
889.772
630.222
473.902
376.427
317.62
282.269
261.984
251.682
250.038
1867.83
1232.7
805.706
571.683
431.708
351.255
304.123
277.911
263.877
260.127
2561.54
1512.64
922.749
630.851
460.855
368.217
314.928
285.969
271.325
267.425
2209.89
1280.93
895.731
705.191
579.699
502.497
449.337
415.707
401.269
396.074
5181.97
5135.98
5098.84
5058.13
5022.4
4990.44
4963.21
4939.76
4916.46
4897.15
4245.35
4201.48
4181.18
4168.69
4159.48
4152.45
4147.41
4144.39
4143.48
4144.6
279.395
286.311
287.4
286.637
285.908
285.753
286.148
286.977
288.887
292.624
176.316
168.802
161.574
155.65
151.202
148.151
146.24
145.225
145.276
146.37
223.818
207.163
190.121
176.767
166.722
159.652
154.904
151.834
150.631
151.359
305.612
267.594
233.356
208.788
191.647
180.355
173.275
169.244
167.608
168.359
457.118
376.186
306.896
259.667
227.614
206.94
193.902
186.211
182.445
182.348
662.436
504
384.779
309.325
259.949
229.332
210.399
199.587
193.828
192.626
899.641
630.236
458.408
356.616
291.353
252.391
228.492
215.066
208.519
207.188
978.434
732.79
609.222
525.373
462.496
418.046
384.727
362.101
353.052
349.535
4946.76
4925.34
4902.38
4873.96
4847.11
4822.14
4800.33
4781.44
4762.4
4746.7
4097.96
4058.07
4039.94
4028.94
4020.92
4014.91
4010.73
4008.38
4007.93
4009.27
246.694
254.776
257.522
258.221
258.539
259.027
259.724
260.635
262.228
265.208
131.483
129.496
127.829
126.506
125.568
125.005
124.756
124.757
125.121
125.87
143.611
139.929
135.763
132.273
129.471
127.394
125.931
124.927
124.621
125.136
171.057
161.844
153.187
146.502
141.588
138.232
136.121
134.978
134.685
135.323
223.426
203.635
185.076
170.939
160.584
153.469
148.793
145.991