/*--------------------------------*- C++ -*----------------------------------*\
| =========                 |                                                 |
| \\      /  F ield         | foam-extend: Open Source CFD                    |
|  \\    /   O peration     | Version:     4.0                                |
|   \\  /    A nd           | Web:         http://www.foam-extend.org         |
|    \\/     M anipulation  |                                                 |
\*---------------------------------------------------------------------------*/
FoamFile
{
    version     2.0;
    format      ascii;
    class       volScalarField;
    location    "3500";
    object      divFlux;
}
// * * * * * * * * * * * * * * * * * * * * * * * * * * * * * * * * * * * * * //

dimensions      [1 -3 -1 0 0 0 0];

internalField   nonuniform List<scalar> 
34480
(
2.0356e-05
7.41345e-06
7.5574e-06
6.95044e-06
6.43643e-06
6.03543e-06
5.72818e-06
0.000298026
0.000179211
5.11076e-06
5.75974e-06
3.24103e-06
3.08811e-06
2.85958e-06
2.69899e-06
2.62516e-06
2.61789e-06
2.62212e-06
0.0034659
2.53404e-06
1.56516e-06
1.06003e-06
9.95974e-07
9.50934e-07
9.37005e-07
9.70407e-07
1.02172e-06
1.05778e-06
0.00334251
1.04459e-06
5.62375e-07
3.99124e-07
3.77398e-07
3.66631e-07
3.66898e-07
3.86333e-07
4.09586e-07
4.26387e-07
0.000801925
4.21385e-07
2.19892e-07
1.65997e-07
1.53822e-07
1.52906e-07
1.52186e-07
1.60237e-07
1.69401e-07
1.76012e-07
1.78499e-07
1.74179e-07
8.90183e-08
7.48e-08
6.56362e-08
6.7698e-08
6.66671e-08
6.99317e-08
7.44564e-08
7.60601e-08
7.70337e-08
7.54873e-08
3.67445e-08
3.49754e-08
2.95789e-08
3.18699e-08
3.0088e-08
3.2379e-08
3.31935e-08
3.40081e-08
3.47209e-08
3.44154e-08
1.70791e-08
1.97481e-08
1.39291e-08
1.58993e-08
1.45247e-08
1.51204e-08
1.63117e-08
1.6724e-08
1.6999e-08
1.7503e-08
2.2087e-08
6.24809e-09
1.18297e-08
8.74732e-09
8.33078e-09
8.33078e-09
8.53905e-09
9.24717e-09
9.28882e-09
8.74732e-09
5.39809e-09
9.35478e-09
5.57468e-09
6.49107e-09
5.5365e-09
6.22379e-09
5.49832e-09
5.72741e-09
5.95651e-09
6.33834e-09
2.79169e-05
9.41752e-06
9.57747e-06
8.94976e-06
8.39314e-06
7.98047e-06
7.70718e-06
7.56552e-06
7.55324e-06
0.00106639
8.94704e-06
4.64815e-06
4.49167e-06
4.21214e-06
4.0187e-06
3.93601e-06
3.94049e-06
4.0129e-06
4.14777e-06
0.00345728
2.76159e-06
1.75003e-06
1.64511e-06
1.58953e-06
1.58544e-06
1.64375e-06
1.7286e-06
1.82712e-06
1.92824e-06
0.00431171
1.18472e-06
7.48753e-07
7.02999e-07
6.94906e-07
7.02538e-07
7.38176e-07
7.8283e-07
8.31424e-07
8.80657e-07
0.00149832
6.71261e-07
3.40823e-07
3.1125e-07
3.26949e-07
3.21472e-07
3.44048e-07
3.62425e-07
3.84879e-07
4.07332e-07
4.19453e-07
3.54311e-07
1.81882e-07
1.30608e-07
1.69529e-07
1.4935e-07
1.67346e-07
1.72617e-07
1.84704e-07
1.94767e-07
1.98604e-07
2.57267e-07
1.26271e-07
1.94518e-08
1.10085e-07
6.5928e-08
8.3534e-08
8.68943e-08
9.11538e-08
9.75905e-08
9.77265e-08
7.3552e-08
1.35623e-07
1.81882e-08
7.13896e-08
3.29261e-08
4.59177e-08
4.68122e-08
4.90697e-08
5.17532e-08
5.2685e-08
6.41579e-08
9.68074e-10
2.54797e-08
3.51217e-08
2.69125e-08
2.84614e-08
2.98554e-08
3.05524e-08
3.27209e-08
3.43037e-08
2.89629e-07
2.74739e-08
8.69653e-09
2.91068e-08
2.16526e-08
2.08362e-08
2.31789e-08
2.38888e-08
2.58766e-08
2.71412e-08
2.62187e-05
6.98516e-06
7.44671e-06
7.00753e-06
6.58367e-06
6.2947e-06
6.13595e-06
6.11777e-06
3.05517e-05
0.000874814
7.8092e-06
3.32391e-06
3.2902e-06
3.07905e-06
2.90872e-06
2.79473e-06
2.75894e-06
2.8224e-06
8.15037e-05
0.00135387
2.15362e-06
1.21907e-06
1.15266e-06
1.08978e-06
1.04729e-06
1.02903e-06
1.04634e-06
1.11302e-06
0.000120467
0.00127453
8.04446e-07
4.92072e-07
4.56829e-07
4.40264e-07
4.23501e-07
4.17561e-07
4.25943e-07
4.57984e-07
5.13884e-07
6.43081e-07
3.43905e-07
2.11058e-07
1.87355e-07
1.8826e-07
1.78757e-07
1.7672e-07
1.7887e-07
1.93691e-07
2.19826e-07
2.79633e-07
1.36383e-07
9.99356e-08
7.73152e-08
8.52348e-08
7.85031e-08
7.78102e-08
7.86516e-08
8.54823e-08
9.86981e-08
1.2646e-07
6.866e-08
5.24894e-08
2.80706e-08
4.28099e-08
3.48903e-08
3.58582e-08
3.62542e-08
3.9818e-08
4.54058e-08
6.0706e-08
8.23144e-09
4.26471e-08
1.08895e-08
2.24521e-08
1.75419e-08
1.82547e-08
1.77795e-08
1.98782e-08
2.35608e-08
3.18814e-08
3.5411e-08
5.39973e-10
1.85031e-08
1.05835e-08
1.08715e-08
1.15194e-08
1.12674e-08
1.21314e-08
1.37153e-08
1.85998e-08
3.27174e-08
8.61258e-09
3.79481e-09
1.03945e-08
6.76467e-09
7.85361e-09
7.68862e-09
8.0516e-09
8.90956e-09
1.33334e-08
2.63192e-05
6.11437e-06
6.75649e-06
6.40288e-06
6.02231e-06
5.76865e-06
5.64168e-06
5.63618e-06
1.55612e-05
0.000374639
7.80332e-06
3.09076e-06
3.08473e-06
2.89092e-06
2.72729e-06
2.61331e-06
2.55837e-06
2.57572e-06
3.5256e-05
0.00114484
2.15652e-06
1.1768e-06
1.12655e-06
1.05734e-06
1.00514e-06
9.71094e-07
9.65425e-07
9.98298e-07
0.000121944
0.00229018
7.91145e-07
4.90455e-07
4.54349e-07
4.30912e-07
4.11433e-07
3.98855e-07
3.97567e-07
4.1496e-07
0.000113205
0.0021059
3.15383e-07
2.21502e-07
1.89002e-07
1.86688e-07
1.76433e-07
1.70964e-07
1.70964e-07
1.7859e-07
4.51576e-05
0.00157
1.19901e-07
1.09607e-07
7.99275e-08
8.48051e-08
7.86851e-08
7.68905e-08
7.54641e-08
7.91913e-08
1.0757e-05
0.000986945
5.01745e-08
5.97168e-08
3.05947e-08
4.28243e-08
3.55438e-08
3.57483e-08
3.49712e-08
3.75889e-08
4.30697e-08
0.000414805
4.42489e-09
4.19286e-08
1.26632e-08
2.19766e-08
1.79273e-08
1.84427e-08
1.81114e-08
1.89949e-08
2.20134e-08
0.000156034
4.40225e-08
3.01187e-10
1.73685e-08
1.32857e-08
1.16794e-08
1.12443e-08
1.1077e-08
1.24156e-08
1.40219e-08
1.80921e-08
1.63525e-08
1.52155e-08
2.54615e-09
1.08288e-08
6.04326e-09
8.15994e-09
7.05559e-09
8.09858e-09
9.44835e-09
1.39712e-08
2.65112e-05
5.09735e-06
5.99398e-06
5.77137e-06
5.4287e-06
5.19862e-06
5.08192e-06
5.07183e-06
2.01101e-05
0.000143908
7.62047e-06
2.81211e-06
2.83345e-06
2.66158e-06
2.51357e-06
2.41103e-06
2.35423e-06
2.34546e-06
3.3902e-06
0.000579631
2.17773e-06
1.10464e-06
1.07486e-06
1.01001e-06
9.57175e-07
9.19292e-07
8.9982e-07
9.05877e-07
7.6606e-05
0.00133492
7.88126e-07
4.72684e-07
4.4448e-07
4.19384e-07
3.98709e-07
3.83281e-07
3.76123e-07
3.80001e-07
7.89164e-05
0.00142039
2.96331e-07
2.20093e-07
1.87387e-07
1.81863e-07
1.73601e-07
1.66805e-07
1.6309e-07
1.65485e-07
5.29718e-05
0.00127944
1.08718e-07
1.10236e-07
8.04205e-08
8.34149e-08
7.79395e-08
7.49451e-08
7.43034e-08
7.45601e-08
4.00893e-05
0.00101524
3.64013e-08
6.40703e-08
3.14077e-08
4.11038e-08
3.62748e-08
3.53242e-08
3.44877e-08
3.51721e-08
5.85062e-06
0.000666115
3.47616e-09
4.05525e-08
1.4373e-08
2.17307e-08
1.81716e-08
1.8069e-08
1.75556e-08
1.82401e-08
8.59716e-06
0.000498714
4.81298e-08
1.11998e-09
1.53375e-08
1.25686e-08
1.07642e-08
1.10753e-08
1.11998e-08
1.16042e-08
1.30042e-08
0.000305422
6.41809e-09
1.83941e-08
1.99625e-09
1.07798e-08
7.04393e-09
7.81391e-09
7.92798e-09
7.87095e-09
8.98314e-09
0.000402416
2.72677e-05
3.87571e-06
5.12184e-06
5.10238e-06
4.81047e-06
4.59753e-06
4.48573e-06
4.46614e-06
4.526e-06
2.4955e-05
7.29055e-06
2.50655e-06
2.55828e-06
2.40964e-06
2.27622e-06
2.18292e-06
2.12797e-06
2.11218e-06
1.54709e-05
0.000223094
2.17287e-06
1.01698e-06
9.98722e-07
9.41171e-07
8.92528e-07
8.57247e-07
8.34437e-07
8.26229e-07
3.51062e-05
0.000718517
7.89048e-07
4.41439e-07
4.23676e-07
3.99816e-07
3.8041e-07
3.64662e-07
3.5427e-07
3.51089e-07
4.15708e-05
0.00084783
2.8885e-07
2.08742e-07
1.84382e-07
1.75383e-07
1.66657e-07
1.59931e-07
1.55932e-07
1.54568e-07
3.68325e-05
0.000863061
1.01841e-07
1.06575e-07
8.04087e-08
7.97326e-08
7.57559e-08
7.25746e-08
7.07055e-08
7.08646e-08
3.5091e-05
0.00077907
2.50366e-08
6.5041e-08
3.17075e-08
3.90953e-08
3.62321e-08
3.44293e-08
3.33335e-08
3.3687e-08
1.92422e-05
0.000593526
5.19604e-09
3.96078e-08
1.47297e-08
2.0297e-08
1.82928e-08
1.80065e-08
1.74656e-08
1.80065e-08
2.6e-05
0.000523505
4.74085e-08
4.51174e-09
1.21759e-08
1.35352e-08
1.06431e-08
1.14239e-08
1.1019e-08
1.16264e-08
9.49868e-06
0.000446276
1.37465e-09
2.1262e-08
1.19301e-09
1.12673e-08
6.1241e-09
7.31711e-09
6.89293e-09
7.7678e-09
2.5932e-05
0.000522753
2.94937e-05
2.40065e-06
4.10574e-06
4.39583e-06
4.19617e-06
3.99819e-06
3.8898e-06
3.85825e-06
3.89288e-06
1.59057e-06
6.83506e-06
2.16851e-06
2.25332e-06
2.13834e-06
2.02067e-06
1.93661e-06
1.88651e-06
1.86555e-06
1.03712e-05
7.14708e-05
2.09449e-06
9.1987e-07
9.08129e-07
8.57792e-07
8.14406e-07
7.81489e-07
7.5916e-07
7.4733e-07
1.352e-05
0.000378128
7.85775e-07
4.02589e-07
3.9278e-07
3.71733e-07
3.53495e-07
3.392e-07
3.29564e-07
3.22959e-07
1.64146e-05
0.000490202
2.88323e-07
1.91477e-07
1.74661e-07
1.66592e-07
1.58099e-07
1.52311e-07
1.46861e-07
1.44833e-07
1.74633e-05
0.000542398
1.01139e-07
9.80041e-08
7.86694e-08
7.69319e-08
7.26435e-08
6.97969e-08
6.75418e-08
6.6137e-08
2.00348e-05
0.00053601
1.83652e-08
6.20746e-08
3.26311e-08
3.72316e-08
3.42412e-08
3.33869e-08
3.2401e-08
3.1941e-08
1.57809e-05
0.000440976
6.89628e-09
3.79151e-08
1.62958e-08
1.92237e-08
1.7952e-08
1.6976e-08
1.66803e-08
1.65916e-08
2.5408e-05
0.000432362
4.30223e-08
8.54986e-09
1.01899e-08
1.36314e-08
1.05394e-08
1.06739e-08
1.08352e-08
1.05663e-08
1.92897e-05
0.000408308
8.74272e-09
2.38325e-08
4.18979e-10
1.0228e-08
6.95012e-09
7.73878e-09
7.0487e-09
7.24587e-09
3.28991e-05
0.00046804
3.43717e-05
6.65949e-07
2.89447e-06
3.62146e-06
3.57121e-06
3.40748e-06
3.30564e-06
3.27943e-06
3.31666e-06
3.54162e-06
6.32841e-06
1.82446e-06
1.93073e-06
1.85746e-06
1.75776e-06
1.6816e-06
1.63527e-06
1.61506e-06
2.82294e-06
1.47687e-05
1.96139e-06
8.17395e-07
8.09669e-07
7.66448e-07
7.27572e-07
6.96559e-07
6.76791e-07
6.64171e-07
4.89145e-06
0.000180767
7.57917e-07
3.63241e-07
3.5623e-07
3.37855e-07
3.21587e-07
3.08757e-07
2.98378e-07
2.9249e-07
5.24662e-06
0.000266823
2.88943e-07
1.71052e-07
1.61625e-07
1.52945e-07
1.45639e-07
1.40141e-07
1.35702e-07
1.3256e-07
5.71381e-06
0.000321488
1.05556e-07
8.63653e-08
7.47148e-08
7.14499e-08
6.82881e-08
6.55043e-08
6.31673e-08
6.27205e-08
7.81835e-06
0.000349582
1.55694e-08
5.64237e-08
3.33899e-08
3.42758e-08
3.27483e-08
3.1893e-08
3.07627e-08
3.01211e-08
8.67617e-06
0.000302188
7.94747e-09
3.412e-08
1.68813e-08
1.74587e-08
1.67713e-08
1.69638e-08
1.55891e-08
1.5864e-08
1.88498e-05
0.00032503
3.4361e-08
1.31721e-08
7.59832e-09
1.3472e-08
1.05477e-08
1.03727e-08
1.02727e-08
1.00478e-08
1.80093e-05
0.000311223
1.56454e-08
2.61192e-08
1.83293e-10
9.18756e-09
6.48399e-09
6.27778e-09
6.80475e-09
7.30881e-09
3.02388e-05
0.000365921
4.2721e-05
1.30996e-06
1.42924e-06
2.73998e-06
2.94109e-06
2.817e-06
2.68203e-06
2.62535e-06
2.64056e-06
2.82536e-06
5.73438e-06
1.49947e-06
1.60292e-06
1.57529e-06
1.49982e-06
1.4295e-06
1.38359e-06
1.36298e-06
1.35877e-06
3.48643e-07
1.7699e-06
7.02473e-07
6.99355e-07
6.67124e-07
6.33003e-07
6.06472e-07
5.86689e-07
5.74753e-07
1.58171e-06
7.97197e-05
7.03547e-07
3.21856e-07
3.16275e-07
3.00173e-07
2.86073e-07
2.73847e-07
2.65455e-07
2.59129e-07
1.53972e-06
0.000135514
2.81913e-07
1.5248e-07
1.45214e-07
1.38349e-07
1.31996e-07
1.2703e-07
1.22539e-07
1.19508e-07
9.39488e-07
0.000176722
1.11717e-07
7.43457e-08
6.85629e-08
6.59111e-08
6.23648e-08
5.99686e-08
5.79238e-08
1.23001e-05
1.27148e-06
0.000214465
1.70935e-08
4.96419e-08
3.18924e-08
3.12392e-08
3.07564e-08
2.92228e-08
2.81721e-08
2.78029e-08
3.41589e-06
0.000189686
5.01802e-09
2.80897e-08
1.70481e-08
1.67669e-08
1.5949e-08
1.48755e-08
1.52078e-08
1.021e-05
1.21088e-05
0.000226672
2.43587e-08
1.72874e-08
5.716e-09
1.19199e-08
9.17813e-09
9.73578e-09
9.43372e-09
9.66608e-09
1.34287e-05
0.00021362
2.46062e-08
2.81153e-08
1.06497e-10
8.11509e-09
6.60283e-09
6.62413e-09
6.62413e-09
4.85329e-06
2.4106e-05
0.000263749
5.67209e-05
3.02703e-06
9.92412e-08
1.90887e-06
2.65054e-06
2.74862e-06
2.61769e-06
2.45846e-06
2.32963e-06
2.31714e-06
4.92733e-06
1.22793e-06
1.27254e-06
1.30248e-06
1.27658e-06
1.22134e-06
1.17239e-06
1.14403e-06
1.13203e-06
1.06785e-06
1.58799e-06
5.99415e-07
5.89887e-07
5.6798e-07
5.4189e-07
5.17844e-07
4.99952e-07
4.87977e-07
1.07874e-07
3.16377e-05
6.31331e-07
2.75151e-07
2.73765e-07
2.60934e-07
2.47667e-07
2.37787e-07
2.29451e-07
2.23233e-07
4.25161e-07
6.41914e-05
2.60624e-07
1.3452e-07
1.27935e-07
1.2135e-07
1.1653e-07
1.11506e-07
1.07399e-07
1.05261e-07
4.54477e-07
9.08799e-05
1.14276e-07
6.45404e-08
6.05308e-08
5.79171e-08
5.59271e-08
5.32837e-08
5.14423e-08
1.76368e-05
1.48505e-06
0.000125301
2.18845e-08
4.09743e-08
3.02291e-08
2.87506e-08
2.68234e-08
2.59785e-08
2.57145e-08
2.46321e-08
7.0641e-07
0.000108649
1.77185e-09
2.16699e-08
1.68465e-08
1.55158e-08
1.40664e-08
1.41377e-08
1.38526e-08
1.90924e-05
7.1116e-06
0.000149593
1.14265e-08
2.08232e-08
4.75217e-09
1.08004e-08
9.24514e-09
8.70512e-09
8.1435e-09
8.44591e-09
8.64829e-06
0.000135924
3.28963e-08
2.80774e-08
1.60386e-09
6.53424e-09
6.09862e-09
5.4848e-09
5.74221e-09
1.02327e-05
1.76357e-05
0.000179717
6.97358e-05
4.76887e-06
3.15441e-06
1.20039e-06
2.522e-07
1.15479e-06
1.65901e-06
1.9481e-06
2.15467e-06
2.44956e-06
3.81312e-06
1.09293e-06
9.00621e-07
9.30717e-07
9.75917e-07
9.80528e-07
9.65176e-07
9.44716e-07
9.24726e-07
8.34117e-07
1.35047e-06
5.07537e-07
4.73543e-07
4.61858e-07
4.4644e-07
4.2963e-07
4.15714e-07
4.05111e-07
3.96055e-07
1.08121e-05
5.59534e-07
2.29265e-07
2.28805e-07
2.19527e-07
2.0933e-07
2.00218e-07
1.93315e-07
1.88253e-07
2.88629e-08
2.73237e-05
2.27332e-07
1.14421e-07
1.1035e-07
1.04702e-07
9.92109e-08
9.57713e-08
9.26473e-08
8.97442e-08
5.90437e-07
4.3879e-05
1.09705e-07
5.51395e-08
5.27097e-08
5.06113e-08
4.843e-08
4.61659e-08
4.52271e-08
1.69162e-05
2.37727e-06
7.11151e-05
2.69909e-08
3.32807e-08
2.68012e-08
2.49114e-08
2.41997e-08
2.30707e-08
2.25553e-08
2.19662e-08
2.72774e-07
5.64429e-05
1.40784e-08
1.3916e-08
1.47996e-08
1.38277e-08
1.24803e-08
1.23919e-08
9.18149e-07
2.12654e-05
3.81955e-06
9.57911e-05
2.18473e-09
2.41773e-08
3.09245e-09
9.31752e-09
7.95202e-09
7.93194e-09
7.99218e-09
8.05242e-09
4.75878e-06
7.9613e-05
3.96811e-08
2.62306e-08
2.30093e-09
5.48542e-09
5.44861e-09
5.17249e-09
4.85957e-09
1.12988e-05
1.21384e-05
0.000117302
9.52946e-05
4.50987e-06
2.26417e-06
3.66783e-07
3.71352e-07
5.17559e-07
4.61961e-07
4.00118e-07
4.15981e-07
5.43212e-07
1.7114e-06
1.52164e-06
8.29626e-07
6.31543e-07
6.32339e-07
6.49999e-07
6.61165e-07
6.78722e-07
7.10987e-07
7.26534e-07
1.09478e-06
4.70942e-07
3.83382e-07
3.62806e-07
3.51574e-07
3.38185e-07
3.25864e-07
3.17014e-07
3.07486e-07
3.37217e-06
4.85249e-07
1.8986e-07
1.85565e-07
1.79011e-07
1.71858e-07
1.6373e-07
1.57843e-07
1.53189e-07
1.48038e-07
8.91881e-06
1.932e-07
9.48701e-08
9.15552e-08
8.7243e-08
8.32827e-08
7.97918e-08
7.67116e-08
7.44528e-08
3.80067e-07
1.96863e-05
9.76549e-08
4.60746e-08
4.44319e-08
4.25067e-08
4.14287e-08
3.92982e-08
1.21663e-06
1.43555e-05
2.45659e-06
3.96713e-05
2.82545e-08
2.71742e-08
2.36149e-08
2.15386e-08
2.03065e-08
1.99871e-08
1.91657e-08
1.87094e-08
2.68456e-07
2.52682e-05
2.79396e-08
7.88531e-09
1.25877e-08
1.2752e-08
1.08012e-08
1.08423e-08
1.64814e-05
2.0409e-05
1.77719e-06
6.06607e-05
1.50879e-08
2.5463e-08
3.09887e-09
7.74717e-09
7.46715e-09
6.85111e-09
6.30974e-09
6.38441e-09
2.00745e-06
4.1374e-05
4.14805e-08
2.22117e-08
4.41495e-09
4.26094e-09
4.82564e-09
4.72297e-09
4.55185e-09
1.02349e-05
7.98353e-06
7.4006e-05
2.55086e-05
1.53359e-05
1.37188e-05
1.08039e-05
8.79343e-06
7.59904e-06
6.91325e-06
6.48113e-06
6.18143e-06
5.99566e-06
4.31462e-06
2.43879e-06
1.28111e-06
8.11553e-07
7.22547e-07
7.14076e-07
7.02121e-07
6.64037e-07
5.95505e-07
4.4753e-07
6.58679e-07
4.67832e-07
3.17596e-07
2.84972e-07
2.81726e-07
2.79035e-07
2.74167e-07
2.70196e-07
3.52855e-07
2.21703e-06
4.03939e-07
1.54961e-07
1.45591e-07
1.40914e-07
1.3568e-07
1.31051e-07
1.26979e-07
1.22381e-07
1.18372e-07
7.71102e-08
1.61935e-07
7.49954e-08
7.31683e-08
6.99503e-08
6.71414e-08
6.38688e-08
6.19053e-08
5.98054e-08
1.84843e-07
8.245e-06
8.24062e-08
3.78693e-08
3.63421e-08
3.51729e-08
3.3073e-08
3.19276e-08
8.91541e-06
1.17557e-05
2.24565e-06
2.20749e-05
2.55292e-08
2.05321e-08
2.06169e-08
1.78807e-08
1.70747e-08
1.64596e-08
1.55263e-08
1.52294e-08
1.46779e-08
7.99657e-06
2.9701e-06
2.63438e-09
8.89582e-09
1.05184e-08
9.64032e-09
1.57587e-05
2.43011e-05
1.85611e-05
5.56886e-07
3.87234e-05
2.89324e-08
2.67777e-08
3.27997e-09
5.98724e-09
6.09136e-09
5.69221e-09
5.88311e-09
5.44925e-09
2.77027e-07
1.68409e-05
3.62657e-08
1.50332e-08
5.21786e-09
3.64296e-09
3.96112e-09
3.5316e-09
1.97413e-06
8.40541e-06
5.08105e-06
4.5481e-05
0.000279625
1.92186e-05
1.96754e-05
1.91801e-05
1.88225e-05
1.80203e-05
1.65918e-05
1.46209e-05
1.22858e-05
9.64323e-06
5.51045e-06
3.87655e-06
1.86476e-06
7.71529e-07
3.33479e-07
1.87115e-07
1.71187e-07
2.12492e-07
2.46077e-07
2.01654e-07
5.79434e-05
7.10974e-06
9.47214e-06
7.11589e-06
5.82522e-06
4.87812e-06
3.70591e-06
1.4755e-06
1.75637e-06
3.98247e-06
3.12718e-07
1.35583e-07
1.14273e-07
1.07573e-07
1.02752e-07
9.76353e-08
9.27698e-08
9.02262e-08
8.55825e-08
7.26748e-08
1.33175e-07
5.84367e-08
5.66113e-08
5.45578e-08
5.17184e-08
4.97916e-08
4.76874e-08
4.61916e-08
1.13324e-07
3.54943e-06
9.76912e-06
2.97698e-08
2.8461e-08
2.74183e-08
2.64423e-08
7.39519e-06
1.19579e-05
9.659e-06
1.99082e-06
1.25095e-05
1.9486e-08
1.60113e-08
1.56169e-08
1.45127e-08
1.33493e-08
1.29352e-08
1.29549e-08
1.17916e-08
1.1969e-08
1.09818e-08
5.01863e-05
4.57137e-05
4.11281e-05
3.65452e-05
3.47782e-05
3.23999e-05
2.76788e-05
1.6716e-05
1.72336e-07
2.55241e-05
4.32864e-08
2.58615e-08
3.85583e-09
4.13009e-09
5.06582e-09
4.59796e-09
4.46889e-09
4.63022e-09
4.45276e-09
2.02868e-06
2.25134e-08
8.03029e-09
5.17606e-09
3.20916e-09
3.09085e-09
3.25353e-09
5.10793e-06
6.4488e-06
3.14271e-06
2.73078e-05
0.000493427
6.27913e-05
7.07758e-05
6.99173e-05
6.35905e-05
5.4418e-05
4.4313e-05
3.42778e-05
2.45705e-05
1.48951e-05
2.87185e-05
1.21599e-06
7.4405e-07
4.21662e-07
2.73347e-07
1.98056e-07
1.97973e-07
3.30265e-07
6.86575e-07
1.31206e-06
0.000199612
0.000128293
6.98882e-05
3.986e-05
2.24568e-05
1.26417e-05
6.51997e-06
1.57423e-06
3.77877e-06
7.09979e-06
2.13412e-07
1.18165e-07
8.61459e-08
7.84057e-08
7.68246e-08
7.47349e-08
7.29064e-08
6.8892e-08
6.50562e-08
5.53809e-08
1.07189e-07
4.37427e-08
4.12444e-08
3.9901e-08
3.90055e-08
3.66486e-08
3.55174e-08
1.67665e-07
1.56682e-07
2.09617e-06
3.93952e-05
3.00318e-05
1.96781e-05
1.57529e-05
1.50526e-05
1.43297e-05
1.23818e-05
7.99169e-06
1.7717e-06
7.33575e-06
1.19023e-08
1.12002e-08
1.24467e-08
1.12185e-08
1.05586e-08
9.71536e-09
9.42206e-09
9.60537e-09
8.57884e-09
8.43107e-09
0.000219096
4.35792e-05
8.00116e-05
7.02122e-05
5.47404e-05
4.08547e-05
2.88098e-05
1.53253e-05
6.45673e-07
1.78699e-05
5.61782e-08
2.31719e-08
3.97446e-09
3.50953e-09
3.58452e-09
3.88448e-09
3.29956e-09
3.47953e-09
3.7045e-09
3.16039e-09
3.37085e-09
1.27858e-09
4.17944e-09
2.73588e-09
2.50216e-09
2.5709e-09
5.29345e-06
4.43048e-06
1.82766e-06
1.56135e-05
0.00146949
0.000229531
0.000219538
0.000176734
0.000134731
9.90273e-05
6.98095e-05
4.57248e-05
2.48045e-05
4.92307e-06
8.36366e-06
8.20186e-06
6.00896e-06
4.69718e-06
3.75896e-06
2.80014e-06
1.65338e-06
1.79595e-07
1.84539e-06
4.56375e-06
0.000339102
0.000242173
0.00011758
6.12315e-05
3.08465e-05
1.50578e-05
6.25807e-06
1.24091e-07
6.5105e-06
1.10069e-05
7.35303e-08
1.14068e-07
7.10099e-08
5.61203e-08
5.38837e-08
5.42799e-08
5.56858e-08
5.69383e-08
5.62737e-08
3.81823e-08
1.8357e-05
3.31935e-08
2.95783e-08
2.05339e-07
1.59416e-06
2.41756e-06
2.47334e-06
1.64079e-06
2.45128e-07
1.83502e-06
3.98545e-05
4.50551e-05
3.5232e-05
2.63386e-05
2.00249e-05
1.51857e-05
1.0963e-05
6.38336e-06
1.54594e-06
4.35246e-06
6.43814e-09
6.45855e-09
8.46939e-09
8.69092e-09
7.82183e-09
7.20835e-09
6.88457e-09
6.69712e-09
6.28814e-09
5.57684e-09
0.000486565
1.63786e-05
8.41428e-05
8.31766e-05
6.36563e-05
4.45673e-05
2.89124e-05
1.44712e-05
1.01834e-06
1.35662e-05
6.56425e-08
1.8237e-08
4.7405e-09
2.55151e-09
2.37025e-09
2.71882e-09
2.80247e-09
2.70487e-09
2.20294e-09
2.95607e-09
1.48574e-08
2.00658e-09
2.59449e-09
2.08326e-09
1.85321e-09
3.58756e-08
2.92805e-06
2.20886e-06
8.65322e-07
7.51431e-06
0.00569639
0.000312475
0.000279463
0.000205406
0.000142663
9.50385e-05
5.91085e-05
3.07439e-05
6.07787e-06
1.80862e-05
8.62759e-05
2.24152e-05
1.77324e-05
1.35573e-05
9.52488e-06
5.66387e-06
1.83522e-06
2.27431e-06
7.16553e-06
1.28921e-05
0.000485627
0.000365709
0.000159376
7.48363e-05
3.28624e-05
1.29245e-05
2.93945e-06
3.5406e-06
1.1185e-05
1.72189e-05
2.05087e-08
1.1121e-07
5.82547e-08
3.50622e-08
2.77907e-08
2.56639e-08
2.62342e-08
2.94422e-08
3.61671e-08
6.03014e-08
5.89552e-05
3.53827e-05
2.04472e-05
1.31892e-05
8.95023e-06
6.1702e-06
4.04455e-06
2.11067e-06
2.92813e-07
1.61682e-06
2.9266e-05
3.71818e-05
3.07344e-05
2.28929e-05
1.66251e-05
1.181e-05
7.95947e-06
4.46123e-06
1.20301e-06
2.36459e-06
2.81147e-09
3.7387e-09
5.08526e-09
5.19615e-09
5.18031e-09
4.84763e-09
4.51495e-09
4.40406e-09
4.51495e-09
3.37795e-09
0.000834175
0.000119235
6.1797e-05
7.97616e-05
6.33272e-05
4.38243e-05
2.75052e-05
1.35305e-05
1.32839e-06
1.07904e-05
6.68249e-08
1.28579e-08
3.82367e-09
2.2942e-09
1.82758e-09
1.99608e-09
1.52947e-09
1.67204e-09
2.04793e-09
1.09804e-09
2.70209e-08
3.06541e-09
7.3665e-10
1.39013e-09
8.55464e-10
1.43766e-09
9.74279e-10
2.65051e-07
2.2867e-07
2.12788e-06
0.00796721
0.00016826
0.000138239
9.63975e-05
6.24571e-05
3.6598e-05
1.62229e-05
1.39035e-06
1.87968e-05
3.78948e-05
3.23548e-05
3.85323e-05
2.72947e-05
1.78701e-05
1.0435e-05
4.39872e-06
9.39893e-07
6.27067e-06
1.22708e-05
1.85422e-05
0.000551762
0.000460707
0.000178962
7.5316e-05
2.82885e-05
8.34216e-06
8.76255e-08
4.76519e-06
1.09221e-05
1.73592e-05
1.86639e-07
1.06003e-07
5.8607e-08
2.83536e-08
9.25606e-09
6.13021e-09
2.12403e-08
3.66597e-08
5.39679e-08
9.04903e-08
5.05968e-05
3.42914e-05
1.93825e-05
1.20634e-05
7.74913e-06
5.00068e-06
3.07593e-06
1.54956e-06
2.42993e-07
1.03469e-06
1.65633e-05
2.00187e-05
1.69878e-05
1.26996e-05
9.10685e-06
6.32185e-06
4.14828e-06
2.31216e-06
7.03019e-07
9.74426e-07
2.66868e-09
1.3549e-09
2.72454e-09
3.23999e-09
3.23999e-09
3.21053e-09
2.6509e-09
2.60672e-09
2.3269e-09
1.92831e-09
0.00106757
0.000215336
2.07308e-05
5.78891e-05
4.99526e-05
3.51316e-05
2.19265e-05
1.08633e-05
1.38659e-06
7.69139e-06
5.7679e-08
6.91644e-09
3.09673e-09
1.75923e-09
8.91666e-10
1.30135e-09
6.74774e-10
1.01216e-09
1.04831e-09
9.21667e-10
1.26148e-06
7.9052e-07
5.41225e-10
4.41817e-10
9.3886e-10
4.98005e-07
8.11374e-07
3.88445e-07
1.83763e-07
1.23068e-06
0.00395885
0.000769009
0.000552181
0.000376057
0.000258264
0.000172775
0.000106639
5.38065e-05
3.92338e-07
4.68862e-05
1.17099e-05
1.38602e-05
8.79352e-06
4.44555e-06
1.02858e-06
1.8374e-06
4.53315e-06
7.38111e-06
1.05975e-05
1.32059e-05
0.000285005
0.000372734
0.000124982
4.61237e-05
1.31609e-05
5.27979e-07
4.19218e-06
6.74576e-06
1.05916e-05
1.52958e-05
1.73478e-07
5.09098e-08
4.41122e-08
4.52725e-08
5.05607e-08
5.87136e-08
6.59938e-08
7.47526e-08
8.05438e-08
9.29822e-08
2.06511e-05
1.52992e-05
8.39051e-06
5.06784e-06
3.15031e-06
1.97e-06
1.18121e-06
5.91906e-07
1.0507e-07
3.7989e-07
6.24006e-06
5.84753e-06
4.95901e-06
3.70415e-06
2.64022e-06
1.81145e-06
1.17413e-06
6.59712e-07
2.26691e-07
2.21917e-07
2.32237e-09
2.73819e-10
7.94075e-10
1.51969e-09
1.57446e-09
1.24588e-09
1.49231e-09
9.03602e-10
1.24588e-09
1.49667e-09
0.000713818
0.000178102
8.0351e-06
2.40746e-05
2.37301e-05
1.7242e-05
1.08529e-05
5.46953e-06
8.70637e-07
3.49933e-06
4.15137e-08
1.52343e-09
1.06416e-09
6.49698e-10
8.06521e-10
5.60084e-10
9.18538e-10
8.96135e-10
3.47252e-10
4.50868e-10
9.13476e-05
0.000129296
8.5505e-05
5.06422e-05
2.89943e-05
1.63728e-05
8.8126e-06
3.59986e-06
7.19925e-07
5.4419e-06
0.00157479
0.000667339
0.000496853
0.000374289
0.000281529
0.000209482
0.000152339
0.000106314
6.81295e-05
3.79037e-05
6.18019e-07
5.73595e-06
4.31473e-06
3.33351e-06
2.82208e-06
2.67659e-06
2.78783e-06
3.07783e-06
3.42433e-06
3.21669e-06
9.77199e-05
8.40973e-05
2.00695e-05
5.82521e-06
5.40863e-07
9.50556e-07
1.19562e-06
1.2375e-06
1.67131e-06
2.93428e-06
4.53663e-08
6.49107e-10
4.78239e-09
5.62241e-09
8.46703e-09
7.207e-09
7.48382e-09
7.49337e-09
8.69612e-09
1.15503e-08
1.70308e-06
1.79194e-06
9.4229e-07
5.53055e-07
3.33368e-07
2.0352e-07
1.19785e-07
6.20197e-08
1.41713e-08
3.99119e-08
7.92241e-07
4.54399e-07
3.71852e-07
2.73269e-07
1.91969e-07
1.29483e-07
8.25034e-08
4.69934e-08
1.83277e-08
1.34451e-08
6.00431e-10
1.27276e-10
1.90914e-10
2.67279e-10
4.83648e-10
4.07283e-10
6.49107e-10
2.41824e-10
3.1819e-10
3.05462e-10
5.29431e-05
2.82193e-05
2.41767e-06
2.74534e-06
3.0308e-06
2.26786e-06
1.44724e-06
7.46797e-07
1.48031e-07
4.39338e-07
1.35396e-08
5.62328e-10
3.95712e-10
1.97856e-10
6.24809e-11
1.56202e-10
8.33078e-11
3.12404e-11
7.28944e-11
3.64472e-10
0.000264735
0.000160263
9.51394e-05
5.44353e-05
3.07402e-05
1.71857e-05
9.13957e-06
3.80677e-06
5.47827e-07
5.14839e-06
0.526014
0.418966
0.530151
0.919623
0.686152
0.623886
0.739223
1.1157
0.849604
0.791508
0.937863
1.44126
0.616667
0.593204
0.702773
1.09978
0.450521
0.44908
0.533239
0.863313
0.298435
0.294942
0.365838
0.622535
0.198662
0.189633
0.253285
0.455035
0.128236
0.118254
0.16943
0.315582
0.0885721
0.0809079
0.122137
0.231037
0.0667364
0.0615978
0.0993985
0.188128
0.0358418
0.0017973
1.48412e-05
0.0190202
0.0785231
0.00652228
1.10292e-05
0.0409502
0.136624
0.015203
5.93752e-06
0.0704223
0.12499
0.0170217
3.04245e-06
0.0603809
0.110294
0.016991
1.56259e-06
0.0489199
0.0853408
0.0142374
8.04467e-07
0.0375754
0.0644214
0.0110631
4.21778e-07
0.030525
0.0464448
0.00833787
2.39919e-07
0.0231957
0.0357322
0.00714347
0.00104066
0.0184335
0.0301108
0.00824675
0.00382191
0.0155042
0.0171159
0.0134559
0.0141335
0.0196871
0.0387228
0.0266687
0.0261796
0.0408152
0.07495
0.0486909
0.0492595
0.0796728
0.0710565
0.0430751
0.044688
0.0749982
0.0650989
0.0370628
0.0395681
0.0699589
0.0519882
0.0280394
0.0306785
0.0566913
0.0404127
0.0206543
0.0232323
0.0452017
0.0299324
0.0145381
0.0166886
0.0336743
0.0234815
0.0104544
0.0123932
0.0259855
0.0200761
0.00850529
0.0105697
0.0215276
0.00192689
0.00139151
0.0013401
0.00195216
0.00609657
0.00417533
0.00386414
0.00631626
0.0162367
0.0110094
0.0104778
0.0165952
0.019045
0.0125553
0.0123948
0.01897
0.020715
0.0131691
0.0136026
0.0207295
0.0189484
0.0116295
0.0124457
0.0190378
0.0164199
0.00967095
0.0106883
0.0167358
0.0133831
0.00760246
0.00860356
0.0136667
0.0111857
0.00583466
0.00691274
0.0112335
0.00993779
0.0050805
0.00648005
0.0100733
0.000613104
0.000571743
0.000601513
0.000819291
0.0022684
0.00210452
0.00236578
0.00340839
0.00609287
0.00574258
0.00640347
0.00889266
0.00729309
0.00654801
0.00705839
0.00959987
0.00837912
0.00713391
0.00763189
0.010348
0.00813459
0.00655823
0.0070397
0.00951348
0.00745344
0.00568122
0.00617778
0.00841107
0.00648403
0.00469124
0.00517261
0.00704775
0.00583194
0.00387208
0.00445698
0.00604387
0.00558388
0.00368873
0.00455952
0.00582406
0.000113915
0.000105621
0.000105494
0.000164839
0.000767114
0.000722167
0.000846163
0.00123498
0.00245448
0.00248859
0.0029862
0.00410891
0.0030192
0.00305281
0.00354263
0.00471728
0.00358343
0.00354966
0.00403746
0.00531234
0.00361333
0.00344819
0.00386763
0.00503476
0.00342315
0.00312909
0.0034916
0.00451773
0.00315158
0.00273588
0.00304472
0.00389655
0.00305198
0.00243855
0.00279176
0.00346866
0.00302593
0.00237996
0.00289083
0.00336652
1.13083e-05
1.03327e-05
5.71081e-06
2.45311e-05
0.000271207
0.000251771
0.000301182
0.00046007
0.0011734
0.00119792
0.00148026
0.00206825
0.00149162
0.00157084
0.0018959
0.00252731
0.00179864
0.00191303
0.0022753
0.00297625
0.00184207
0.00193102
0.00225973
0.00291449
0.00174766
0.00179473
0.00207766
0.0026456
0.00166822
0.00164139
0.00187271
0.00235025
0.00169402
0.00155415
0.0017874
0.00213737
0.00169219
0.00153092
0.00182802
0.00205503
1.25089e-05
4.48758e-06
4.31479e-06
4.45616e-06
7.52623e-05
6.32731e-05
7.55048e-05
0.000129414
0.000536218
0.000529046
0.000659696
0.000947098
0.000755074
0.00079533
0.000972115
0.00130416
0.000954405
0.00103494
0.00125469
0.00164636
0.00102021
0.00110729
0.00132552
0.00171239
0.000970516
0.00105364
0.00125007
0.00158491
0.000958351
0.00100962
0.00117566
0.00146772
0.000960511
0.000964975
0.00111267
0.00131013
0.000974658
0.000978057
0.0011529
0.00128355
9.98115e-06
3.58929e-06
3.50365e-06
3.64259e-06
1.19153e-05
6.10813e-06
5.9516e-06
2.00867e-05
0.000232639
0.000210064
0.000261849
0.000400836
0.000376785
0.000390778
0.000479294
0.000649134
0.000503234
0.000547946
0.00066983
0.000883281
0.00057715
0.000634701
0.000767303
0.000995313
0.000553554
0.000618265
0.000742216
0.000938674
0.000573763
0.000626764
0.000737962
0.000920828
0.0005472
0.000583114
0.000672067
0.000788419
0.000578457
0.000623122
0.000726912
0.000808866
6.9528e-06
2.14596e-06
2.09254e-06
2.20419e-06
2.36183e-06
9.50613e-07
9.19649e-07
1.01597e-06
8.76061e-05
6.04897e-05
7.36077e-05
0.000138263
0.000181457
0.000181834
0.000222505
0.000305701
0.000256024
0.000276535
0.000339598
0.000451618
0.000321176
0.000353593
0.000429601
0.000561267
0.000306804
0.000348745
0.000421161
0.000531029
0.000343012
0.000381707
0.000452119
0.000566097
0.000313011
0.000345673
0.000398204
0.000467718
0.000349292
0.000392958
0.000454938
0.000507161
1.03953e-05
3.60634e-06
3.38847e-06
3.47436e-06
1.90906e-06
6.43633e-07
6.24755e-07
6.93841e-07
2.21791e-05
2.96769e-07
2.9026e-07
2.17273e-05
8.31651e-05
7.84881e-05
9.50702e-05
0.000133272
0.000125067
0.000132308
0.000162982
0.000219979
0.000176653
0.000192786
0.000235028
0.000310756
0.000162973
0.000187601
0.000227516
0.000285423
0.000204183
0.00022845
0.000271825
0.000343099
0.000176874
0.000199159
0.000229408
0.000269983
0.000211573
0.000243807
0.000281223
0.000313815
5.87102e-06
1.56077e-06
1.16249e-06
8.36066e-07
1.47435e-06
5.10183e-07
5.0341e-07
5.62552e-07
5.56737e-07
2.02763e-07
1.97522e-07
2.21103e-07
3.475e-05
2.94526e-05
3.46726e-05
4.97546e-05
5.73124e-05
5.83004e-05
7.19513e-05
9.96231e-05
9.60497e-05
0.000103001
0.000125872
0.000169446
8.10257e-05
9.45757e-05
0.000115128
0.000142786
0.000121558
0.000135239
0.000161626
0.000206862
9.53694e-05
0.000108413
0.000124858
0.000146953
0.000126913
0.000147985
0.000170806
0.000190313
2.30238e-05
4.98014e-06
3.77762e-06
2.81848e-06
1.56433e-06
6.1344e-07
6.48424e-07
7.78675e-07
4.58128e-07