/*--------------------------------*- C++ -*----------------------------------*\
| =========                 |                                                 |
| \\      /  F ield         | foam-extend: Open Source CFD                    |
|  \\    /   O peration     | Version:     4.0                                |
|   \\  /    A nd           | Web:         http://www.foam-extend.org         |
|    \\/     M anipulation  |                                                 |
\*---------------------------------------------------------------------------*/
FoamFile
{
    version     2.0;
    format      ascii;
    class       volScalarField;
    location    "1450";
    object      divFlux;
}
// * * * * * * * * * * * * * * * * * * * * * * * * * * * * * * * * * * * * * //

dimensions      [1 -3 -1 0 0 0 0];

internalField   nonuniform List<scalar> 
34480
(
0.000272792
3.53993e-05
6.83435e-05
6.33923e-05
5.77256e-05
5.42822e-05
5.17084e-05
0.001111
0.0442645
4.61363e-05
6.29502e-05
2.22843e-05
3.01335e-05
2.5913e-05
2.43385e-05
2.37937e-05
2.37814e-05
2.38107e-05
0.0331368
2.29962e-05
1.7363e-05
7.40788e-06
1.04257e-05
8.28418e-06
8.62058e-06
8.88753e-06
9.3503e-06
9.68529e-06
0.0169745
9.56295e-06
4.32768e-06
4.31259e-06
3.30162e-06
3.39861e-06
3.40861e-06
3.56432e-06
3.79185e-06
3.9366e-06
0.00360148
3.9035e-06
1.722e-06
1.88821e-06
1.30369e-06
1.47355e-06
1.42138e-06
1.50294e-06
1.59386e-06
1.65061e-06
1.67437e-06
1.64216e-06
9.24433e-07
7.36488e-07
6.26751e-07
6.54987e-07
6.29557e-07
6.71425e-07
7.05675e-07
7.2784e-07
7.40784e-07
7.28871e-07
3.82038e-07
3.96337e-07
2.82043e-07
3.10299e-07
2.95076e-07
3.14473e-07
3.27354e-07
3.39165e-07
3.48634e-07
3.46496e-07
3.05569e-07
1.22108e-07
1.87584e-07
1.46301e-07
1.54778e-07
1.59039e-07
1.65728e-07
1.72647e-07
1.80482e-07
1.81811e-07
1.27596e-07
1.40124e-07
9.89281e-08
9.93862e-08
9.48876e-08
9.33464e-08
9.65121e-08
1.00511e-07
1.07134e-07
1.12299e-07
2.00564e-07
2.93625e-08
1.1199e-07
5.89542e-08
7.23563e-08
6.53689e-08
6.78889e-08
7.07145e-08
7.78928e-08
8.45748e-08
0.000330089
4.26674e-05
8.64493e-05
8.35815e-05
7.60747e-05
7.18129e-05
6.95228e-05
6.83697e-05
6.82672e-05
0.00613563
0.000125563
2.71362e-05
4.22986e-05
3.86881e-05
3.63945e-05
3.56766e-05
3.57866e-05
3.64787e-05
3.76848e-05
0.0120317
3.58959e-05
9.15951e-06
1.78178e-05
1.39912e-05
1.44768e-05
1.50875e-05
1.58352e-05
1.67283e-05
1.76772e-05
0.00969684
2.88274e-06
8.84863e-06
6.37523e-06
6.35887e-06
6.54522e-06
6.84502e-06
7.2517e-06
7.70747e-06
8.17183e-06
0.0026509
2.47643e-06
5.21323e-06
2.54099e-06
3.12296e-06
3.05633e-06
3.2129e-06
3.41085e-06
3.62875e-06
3.8559e-06
3.97309e-06
3.53962e-07
2.24179e-06
1.26423e-06
1.59445e-06
1.46922e-06
1.58891e-06
1.67325e-06
1.78165e-06
1.90129e-06
1.94937e-06
2.09218e-06
1.61124e-06
5.34949e-07
8.53183e-07
7.43571e-07
8.19438e-07
8.60235e-07
9.2285e-07
9.95877e-07
1.02468e-06
2.09761e-06
1.92956e-08
6.36714e-07
3.89108e-07
4.44183e-07
4.63266e-07
4.87119e-07
5.29331e-07
5.81809e-07
6.07957e-07
3.22889e-08
6.27196e-07
2.67924e-07
3.19658e-07
3.20432e-07
3.11023e-07
3.31507e-07
3.58923e-07
4.02719e-07
4.32361e-07
3.08894e-06
1.49236e-06
1.278e-06
1.28922e-07
3.72744e-07
2.33706e-07
2.71971e-07
2.96321e-07
3.37887e-07
3.74288e-07
0.000398611
8.65372e-06
6.12873e-05
6.6145e-05
6.05583e-05
5.68518e-05
5.53542e-05
5.53195e-05
0.00135403
0.00628886
0.000113305
1.43062e-05
3.02562e-05
2.86751e-05
2.64811e-05
2.53357e-05
2.50735e-05
2.56743e-05
0.00117803
0.00532073
3.26255e-05
3.09154e-06
1.32408e-05
9.6192e-06
9.50793e-06
9.44536e-06
9.59461e-06
1.02037e-05
0.000625887
0.00285329
3.93021e-06
5.77937e-06
4.21059e-06
3.95416e-06
3.93687e-06
3.85606e-06
3.9404e-06
4.24138e-06
4.76447e-06
5.97257e-06
3.92801e-07
3.18255e-06
1.4942e-06
1.79396e-06
1.6875e-06
1.64428e-06
1.68518e-06
1.8257e-06
2.07562e-06
2.65486e-06
8.55011e-07
1.16166e-06
6.98609e-07
8.46309e-07
7.40484e-07
7.41226e-07
7.57115e-07
8.24431e-07
9.49363e-07
1.23952e-06
1.51915e-07
7.61338e-07
2.88362e-07
4.13624e-07
3.45339e-07
3.52291e-07
3.58362e-07
3.93957e-07
4.62109e-07
6.20941e-07
7.9693e-07
1.64332e-08
2.85383e-07
1.78191e-07
1.90546e-07
1.83735e-07
1.88843e-07
2.10384e-07
2.52517e-07
3.51081e-07
5.41605e-08
3.14013e-07
8.00241e-08
1.44497e-07
1.23006e-07
1.20306e-07
1.24734e-07
1.36829e-07
1.63756e-07
2.41089e-07
8.25174e-07
2.65373e-07
2.80915e-07
1.36613e-08
1.08367e-07
7.76782e-08
8.70827e-08
9.46063e-08
1.15197e-07
1.87342e-07
0.000494443
1.09194e-05
4.61465e-05
5.91058e-05
5.61953e-05
5.25933e-05
5.09205e-05
5.08965e-05
0.000211932
0.00334593
0.000117045
1.2955e-05
2.68361e-05
2.69488e-05
2.50618e-05
2.37442e-05
2.32364e-05
2.34484e-05
0.000993037
0.00517724
3.78651e-05
7.7717e-07
1.28947e-05
9.5934e-06
9.10966e-06
8.91617e-06
8.86353e-06
9.16612e-06
0.000640109
0.00489775
4.6522e-06
5.28466e-06
4.39253e-06
3.88579e-06
3.83204e-06
3.70345e-06
3.68372e-06
3.84836e-06
0.000178719
0.00231309
7.19666e-07
3.06642e-06
1.5889e-06
1.75234e-06
1.67814e-06
1.60184e-06
1.59752e-06
1.68061e-06
0.000166654
0.000501111
9.67711e-07
1.17802e-06
7.01218e-07
8.48557e-07
7.45852e-07
7.2763e-07
7.25422e-07
7.67709e-07
0.000115547
0.00226789
2.05449e-08
7.28177e-07
3.00302e-07
4.18631e-07
3.51143e-07
3.48812e-07
3.46889e-07
3.70653e-07
4.30697e-07
0.00202299
7.53592e-07
4.22231e-08
2.79475e-07
1.89139e-07
1.91311e-07
1.85494e-07
1.84464e-07
2.00256e-07
2.37509e-07
0.00123374
3.82424e-08
2.94226e-07
1.00965e-07
1.39282e-07
1.26867e-07
1.21546e-07
1.24691e-07
1.34196e-07
1.59562e-07
2.26647e-07
7.74996e-07
2.31607e-07
2.54891e-07
3.09219e-08
1.02735e-07
8.06791e-08
8.72132e-08
9.59253e-08
1.15343e-07
1.78641e-07
0.000591207
2.26716e-05
2.97318e-05
4.95437e-05
5.10708e-05
4.84567e-05
4.64718e-05
4.59465e-05
0.000168136
0.00152977
0.000116146
1.31841e-05
2.2982e-05
2.45057e-05
2.33358e-05
2.20779e-05
2.14339e-05
2.1354e-05
0.000693719
0.00274433
4.43544e-05
1.86627e-06
1.20249e-05
9.4092e-06
8.6859e-06
8.4214e-06
8.26726e-06
8.3189e-06
0.000333162
0.00230815
5.40482e-06
4.57955e-06
4.45356e-06
3.78458e-06
3.69139e-06
3.56169e-06
3.48726e-06
3.52533e-06
0.000188975
0.000413523
8.61805e-07
2.89181e-06
1.66546e-06
1.68228e-06
1.64635e-06
1.56363e-06
1.53043e-06
1.55742e-06
0.000579086
0.00195253
9.5392e-07
1.20186e-06
6.90376e-07
8.30043e-07
7.44745e-07
7.16256e-07
7.0261e-07
7.18908e-07
0.000919489
0.00413902
8.93882e-08
7.15229e-07
3.00047e-07
4.15335e-07
3.52253e-07
3.45029e-07
3.39325e-07
3.502e-07
0.000193962
0.00487795
7.31702e-07
6.07774e-08
2.66654e-07
1.94857e-07
1.89998e-07
1.84591e-07
1.82572e-07
1.91024e-07
0.000399451
0.00555723
2.28569e-08
2.70599e-07
1.16135e-07
1.33028e-07
1.26775e-07
1.21331e-07
1.23011e-07
1.31566e-07
1.51321e-07
0.00417421
7.52258e-07
2.09949e-07
2.33362e-07
4.33187e-08
9.68754e-08
8.15612e-08
8.56963e-08
9.34817e-08
1.11505e-07
0.00588562
0.000657837
1.82509e-05
1.51465e-05
3.5726e-05
4.25808e-05
4.29891e-05
4.18266e-05
4.10843e-05
4.12895e-05
0.000298425
0.000106153
1.60533e-05
1.92948e-05
2.1316e-05
2.11021e-05
2.01586e-05
1.95048e-05
1.92843e-05
0.000169802
0.000829858
5.18998e-05
4.57644e-06
1.06638e-05
8.99082e-06
8.16685e-06
7.85418e-06
7.66626e-06
7.5958e-06
3.50752e-05
0.00055535
6.34715e-06
3.6795e-06
4.36839e-06
3.64469e-06
3.50076e-06
3.38011e-06
3.29021e-06
3.25916e-06
0.000575741
0.000913139
9.61539e-07
2.6233e-06
1.72334e-06
1.59499e-06
1.58172e-06
1.50932e-06
1.46469e-06
1.45592e-06
0.00102384
0.00283335
8.5397e-07
1.21496e-06
6.75958e-07
7.91799e-07
7.29882e-07
6.96438e-07
6.78622e-07
6.77787e-07
0.00165391
0.00504022
8.78964e-08
7.11951e-07
2.90563e-07
4.02052e-07
3.49312e-07
3.37754e-07
3.29977e-07
3.32699e-07
0.00122474
0.00616308
7.14755e-07
7.64161e-08
2.47668e-07
1.97244e-07
1.8595e-07
1.81464e-07
1.77838e-07
1.82673e-07
0.00194438
0.00775725
8.20192e-09
2.44588e-07
1.25606e-07
1.26213e-07
1.24998e-07
1.18375e-07
1.19966e-07
1.25721e-07
0.000658503
0.00769576
7.41437e-07
1.93479e-07
2.12514e-07
5.21211e-08
9.09867e-08
8.05412e-08
8.3643e-08
9.03239e-08
0.00176788
0.00940972
0.000631629
2.05887e-05
1.79612e-05
2.45664e-05
3.14589e-05
3.47155e-05
3.55956e-05
3.56802e-05
3.58788e-05
1.36958e-05
8.16916e-05
2.26978e-05
1.69276e-05
1.77909e-05
1.83056e-05
1.78577e-05
1.73608e-05
1.71204e-05
3.49334e-05
3.31239e-05
6.00545e-05
7.00643e-06
8.9257e-06
8.29885e-06
7.52127e-06
7.1821e-06
6.98753e-06
6.88221e-06
0.000230871
0.000265327
7.56336e-06
2.64657e-06
4.11292e-06
3.45283e-06
3.26281e-06
3.14254e-06
3.05556e-06
3.00063e-06
0.000762987
0.00145808
1.14058e-06
2.23861e-06
1.74953e-06
1.49679e-06
1.48593e-06
1.42775e-06
1.38191e-06
1.35846e-06
0.0012289
0.0029991
7.02546e-07
1.20122e-06
6.62701e-07
7.40927e-07
6.99411e-07
6.66842e-07
6.46879e-07
6.38487e-07
0.0020645
0.00504751
3.20277e-08
7.13447e-07
2.7761e-07
3.81057e-07
3.38863e-07
3.25653e-07
3.17931e-07
3.15499e-07
0.00181898
0.00617329
6.91604e-07
9.16528e-08
2.25332e-07
1.95609e-07
1.79727e-07
1.74906e-07
1.72452e-07
1.74078e-07
0.00287364
0.00818026
6.63609e-09
2.18156e-07
1.31528e-07
1.20263e-07
1.20047e-07
1.15074e-07
1.15342e-07
1.20854e-07
0.00181165
0.00852356
7.34395e-07
1.81147e-07
1.91498e-07
5.78684e-08
8.44858e-08
7.8423e-08
7.93842e-08
8.54224e-08
0.00282443
0.0100111
0.000325435
8.73499e-05
4.79226e-05
2.85447e-05
2.55217e-05
2.67272e-05
2.82106e-05
2.92528e-05
3.00258e-05
3.21009e-05
3.68049e-05
3.32683e-05
1.70626e-05
1.49069e-05
1.53907e-05
1.52826e-05
1.49914e-05
1.48277e-05
2.74154e-05
0.000145392
6.81059e-05
8.8258e-06
7.0387e-06
7.36807e-06
6.76013e-06
6.41912e-06
6.22353e-06
6.11581e-06
0.00022037
0.000459187
9.02834e-06
1.5842e-06
3.68776e-06
3.19663e-06
2.98529e-06
2.85925e-06
2.77409e-06
2.71732e-06
0.000686723
0.00139995
1.50567e-06
1.73011e-06
1.72595e-06
1.39316e-06
1.36547e-06
1.32002e-06
1.27619e-06
1.24881e-06
0.00110796
0.00259979
5.33098e-07
1.14633e-06
6.50919e-07
6.79032e-07
6.54424e-07
6.259e-07
6.05485e-07
5.94247e-07
0.00204776
0.00444185
6.37874e-08
7.14231e-07
2.64064e-07
3.52717e-07
3.23207e-07
3.07993e-07
2.99745e-07
2.9614e-07
0.0018821
0.00541627
6.55998e-07
1.07804e-07
2.00211e-07
1.88086e-07
1.71837e-07
1.66476e-07
1.63424e-07
1.64194e-07
0.0031635
0.00754465
1.97849e-08
1.90558e-07
1.31871e-07
1.13475e-07
1.137e-07
1.08851e-07
1.08701e-07
1.124e-07
0.00217025
0.00762432
7.26071e-07
1.68996e-07
1.70233e-07
6.20447e-08
7.7762e-08
7.46919e-08
7.50814e-08
7.96637e-08
0.00318906
0.00906034
0.000324687
0.000133324
8.24359e-05
4.57281e-05
3.01597e-05
2.45544e-05
2.31098e-05
2.32439e-05
2.39009e-05
2.56811e-05
3.05638e-05
4.61536e-05
1.96284e-05
1.3289e-05
1.30034e-05
1.28729e-05
1.2624e-05
1.24869e-05
1.2461e-05
7.76191e-05
7.51352e-05
9.87475e-06
5.25531e-06
6.28279e-06
5.92256e-06
5.61779e-06
5.41436e-06
5.30333e-06
0.00012801
0.000371625
1.05749e-05
6.3532e-07
3.13168e-06
2.86269e-06
2.68094e-06
2.54699e-06
2.45894e-06
2.40394e-06
0.000488202
0.00106415
2.1502e-06
1.1111e-06
1.63708e-06
1.28158e-06
1.23061e-06
1.18975e-06
1.15152e-06
1.12322e-06
0.00082249
0.00193189
3.83577e-07
1.03688e-06
6.35405e-07
6.13552e-07
5.96555e-07
5.72849e-07
5.53615e-07
0.000204227
0.00175693
0.00349323
1.9527e-07
7.06091e-07
2.50709e-07
3.18413e-07
3.00067e-07
2.85271e-07
2.77376e-07
2.72917e-07
0.0015511
0.00418075
6.03289e-07
1.25215e-07
1.74238e-07
1.76462e-07
1.60768e-07
1.54864e-07
1.51976e-07
0.000357833
0.00297508
0.00625204
3.00128e-08
1.65183e-07
1.2703e-07
1.06211e-07
1.05421e-07
1.01285e-07
1.01401e-07
1.0391e-07
0.00203298
0.0060126
7.14911e-07
1.57744e-07
1.48031e-07
6.41539e-08
7.09272e-08
6.94575e-08
6.94575e-08
0.00024845
0.0030666
0.00741077
0.000921584
0.000110377
7.93137e-05
5.24201e-05
3.67164e-05
2.78159e-05
2.30864e-05
2.08504e-05
1.99968e-05
2.05031e-05
0.000116125
5.92772e-05
2.34409e-05
1.247e-05
1.11966e-05
1.09696e-05
1.06481e-05
1.04039e-05
1.02869e-05
9.63872e-06
8.03854e-05
1.02598e-05
3.80152e-06
5.11685e-06
5.02212e-06
4.8265e-06
4.63128e-06
4.50235e-06
3.73272e-05
0.000220659
1.18587e-05
6.73224e-08
2.52822e-06
2.44634e-06
2.3446e-06
2.22683e-06
2.13317e-06
2.07405e-06
0.000274706
0.000693846
3.14785e-06
4.19753e-07
1.47361e-06
1.15804e-06
1.08818e-06
1.04884e-06
1.01194e-06
9.85601e-07
0.000528899
0.00128932
3.03425e-07
8.65579e-07
6.09941e-07
5.46292e-07
5.31055e-07
5.10888e-07
4.93899e-07
0.00035377
0.0014001
0.0025535
3.47841e-07
6.83706e-07
2.3877e-07
2.80669e-07
2.70874e-07
2.58729e-07
2.49938e-07
2.45344e-07
0.00107501
0.002885
5.29001e-07
1.42945e-07
1.48577e-07
1.60101e-07
1.47602e-07
1.41092e-07
1.37884e-07
0.000769133
0.00258197
0.00481741
3.35909e-08
1.4263e-07
1.18027e-07
9.81108e-08
9.57563e-08
9.31858e-08
9.19329e-08
9.39418e-08
0.00162298
0.00433765
6.96852e-07
1.44129e-07
1.23972e-07
6.37979e-08
6.36395e-08
6.35009e-08
6.34019e-08
0.000605712
0.00266576
0.00564649
0.000806243
3.33207e-05
2.63681e-05
2.52481e-05
2.44788e-05
2.26925e-05
2.07368e-05
1.92334e-05
1.83453e-05
1.84808e-05
0.000218828
7.15878e-05
2.7997e-05
1.15786e-05
9.03189e-06
8.99144e-06
8.89977e-06
8.67615e-06
8.46128e-06
7.70852e-06
8.37907e-05
1.04958e-05
2.92488e-06
3.9865e-06
4.00225e-06
3.99679e-06
3.88458e-06
3.75839e-06
3.65446e-06
9.97384e-05
1.23794e-05
4.53762e-07
2.01245e-06
1.96807e-06
1.95968e-06
1.89926e-06
1.81477e-06
1.75119e-06
9.00361e-05
0.000383733
4.51512e-06
2.81602e-07
1.24272e-06
1.01224e-06
9.40358e-07
9.03658e-07
8.68663e-07
8.41494e-07
0.000290629
0.000788759
3.44891e-07
6.35692e-07
5.66554e-07
4.80655e-07
4.60941e-07
4.44899e-07
4.28608e-07
0.000392886
0.00107702
0.00179947
5.03861e-07
6.39303e-07
2.2921e-07
2.41849e-07
2.37922e-07
2.27148e-07
2.19932e-07
2.14214e-07
0.000600733
0.00179527
4.34664e-07
1.59217e-07
1.25885e-07
1.40176e-07
1.31606e-07
1.25355e-07
1.2224e-07
0.000945331
0.00215948
0.00358149
2.81272e-08
1.23317e-07
1.05043e-07
8.86971e-08
8.56248e-08
8.29138e-08
8.13877e-08
8.23315e-08
0.0010976
0.00285733
6.70845e-07
1.28668e-07
9.89032e-08
6.20331e-08
5.67318e-08
5.63084e-08
5.58666e-08
0.0007179
0.00215432
0.00407842
0.000157627
1.45849e-06
7.37239e-06
3.90528e-06
1.99448e-06
6.08038e-06
8.32249e-06
9.50847e-06
1.01667e-05
1.08027e-05
0.000350397
8.18427e-05
3.52234e-05
1.21502e-05
6.65677e-06
6.29549e-06
6.61355e-06
6.77174e-06
6.79114e-06
6.31213e-06
8.73127e-05
1.19448e-05
2.85212e-06
3.30559e-06
2.95796e-06
3.0465e-06
3.08394e-06
3.02847e-06
2.9335e-06
3.57213e-05
1.16561e-05
6.53293e-07
1.75708e-06
1.52655e-06
1.52506e-06
1.54214e-06
1.49995e-06
1.44266e-06
1.39092e-06
0.000152454
6.186e-06
9.29663e-07
9.78535e-07
8.44297e-07
7.81989e-07
7.56908e-07
7.26956e-07
7.00408e-07
0.000127043
0.000440108
5.55756e-07
3.6005e-07
5.00763e-07
4.13414e-07
3.8985e-07
3.76375e-07
3.62283e-07
0.000383584
0.0008196
0.00124768
6.38961e-07
5.69677e-07
2.1769e-07
2.04913e-07
2.02244e-07
1.95034e-07
1.87755e-07
1.82895e-07
0.000186179
0.000963088
3.22989e-07
1.70807e-07
1.06041e-07
1.1869e-07
1.14111e-07
1.08526e-07
0.000351126
0.000998526
0.00178963
0.00263709
9.33481e-09
1.10122e-07
8.98671e-08
7.7957e-08
7.42981e-08
7.20393e-08
7.10313e-08
7.10126e-08
0.000563375
0.00166114
6.31638e-07
1.08406e-07
7.42157e-08
5.67954e-08
4.9249e-08
4.87527e-08
4.85645e-08
0.000692704
0.00164913
0.0028286
0.000707708
4.99012e-05
3.22887e-05
2.0703e-05
1.71778e-05
1.6103e-05
1.53506e-05
1.46488e-05
1.41166e-05
1.40402e-05
0.00051312
7.99853e-05
4.40902e-05
1.73592e-05
7.20263e-06
4.81995e-06
4.72741e-06
4.99772e-06
5.17604e-06
4.87427e-06
9.82919e-05
1.78705e-05
2.95614e-06
3.61911e-06
2.39046e-06
2.18635e-06
2.28455e-06
2.3376e-06
3.37079e-05
2.69193e-05
9.75469e-06
1.21702e-06
1.82008e-06
1.30105e-06
1.12011e-06
1.16105e-06
1.17577e-06
1.15146e-06
1.10743e-06
9.56536e-07
8.00376e-06
1.495e-06
7.33373e-07
6.78749e-07
6.13653e-07
6.04954e-07
5.88973e-07
5.66556e-07
3.90147e-05
0.000225045
9.58832e-07
6.06815e-08
4.1408e-07
3.44641e-07
3.17319e-07
3.08085e-07
0.000125255
0.00036175
0.000633374
0.000868917
7.17956e-07
4.6982e-07
2.02351e-07
1.70493e-07
1.6625e-07
1.61245e-07
1.55348e-07
1.5047e-07
1.46758e-07
0.000362281
2.40946e-05
1.74728e-07
9.04281e-08
9.78349e-08
9.47233e-08
0.000217568
0.000596517
0.00100313
0.00150747
0.00196923
2.45178e-08
1.01644e-07
7.38773e-08
6.62241e-08
6.30482e-08
6.04971e-08
5.91609e-08
5.94385e-08
8.13351e-05
0.000750898
5.75701e-07
8.18473e-08
5.07787e-08
4.88538e-08
4.27769e-08
4.07725e-08
3.91752e-05
0.000606573
0.00121505
0.00190523
0.000277051
9.93748e-06
3.04342e-06
1.27239e-05
1.38192e-05
1.15087e-05
8.90954e-06
6.75171e-06
4.83259e-06
2.63265e-06
0.000591781
4.36689e-05
4.1684e-05
2.32921e-05
1.05871e-05
5.16004e-06
3.44983e-06
3.10433e-06
3.08629e-06
2.73628e-06
0.000215871
3.34329e-05
1.38998e-05
2.3119e-05
3.07233e-05
4.47228e-05
6.51065e-05
7.3008e-05
0.000112
6.05582e-05
8.37398e-06
3.25412e-06
1.88095e-06
1.4171e-06
9.01596e-07
8.17981e-07
8.45813e-07
8.58339e-07
8.40474e-07
7.18038e-07
9.80296e-06
2.03841e-06
5.34626e-07
5.60764e-07
4.6217e-07
4.50786e-07
4.50685e-07
4.39505e-07
1.68368e-05
0.000116682
1.9727e-05
2.37182e-07
3.15289e-07
2.79374e-07
2.47408e-07
7.07355e-05
0.000208475
0.000343719
0.000509747
0.000624531
7.101e-07
3.44243e-07
1.80048e-07
1.3931e-07
1.31186e-07
1.2809e-07
1.23851e-07
1.19848e-07
1.15747e-07
1.09435e-07
0.000333928
0.00031476
0.000248051
0.000276443
0.000374179
0.000534836
0.000771762
0.00100514
0.00132304
0.00153401
7.38796e-08
9.66862e-08
5.85635e-08
5.44979e-08
5.08841e-08
4.89158e-08
4.8206e-08
4.75606e-08
4.83834e-08
8.81614e-05
4.95186e-07
5.0755e-08
3.12338e-08
3.91754e-08
3.51381e-08
3.34669e-08
0.000150695
0.000498773
0.000869167
0.00125497
0.000349775
0.000113019
9.96319e-05
7.43798e-05
5.94701e-05
5.19328e-05
4.67388e-05
4.13249e-05
3.48397e-05
2.70716e-05
0.000370816
5.40288e-05
5.08645e-06
1.71427e-05
1.21892e-05
7.15418e-06
4.45106e-06
3.36216e-06
3.14666e-06
3.1283e-06
0.000583752
0.000207294
0.000213429
0.000203963
0.000190925
0.000186967
0.000190659
0.000183368
0.000212047
0.000124155
1.2009e-05
8.11604e-06
1.01146e-06
1.65249e-06
9.73795e-07
6.48129e-07
5.80653e-07
5.91088e-07
5.97687e-07
5.19977e-07
1.15789e-05
2.72701e-06
3.16592e-07
5.13152e-07
3.69974e-07
3.19892e-07
3.16474e-07
3.17818e-07
4.27611e-05
8.52398e-05
0.000180711
0.000113307
8.57013e-05
9.1079e-05
0.000125811
0.000182142
0.00025813
0.000330447
0.000430494
0.000474268
5.88501e-07
2.00118e-07
1.48388e-07
1.12148e-07
9.98115e-08
9.58704e-08
9.35974e-08
9.12144e-08
8.77132e-08
8.12006e-08
0.000443909
0.000648753
0.000637956
0.000649041
0.000694144
0.000779492
0.00091699
0.00103572
0.00123734
0.00128854
1.30802e-07
9.09477e-08
4.63887e-08
4.20543e-08
3.98346e-08
3.84248e-08
3.7135e-08
3.66251e-08
3.706e-08
3.91086e-08
3.85762e-07
1.59204e-08
1.823e-08
2.85961e-08
2.751e-08
2.61077e-08
0.00017532
0.000370071
0.000587061
0.000791588
0.00208819
8.30746e-05
0.000106798
0.000130784
0.000136181
0.000124512
0.000103619
7.93453e-05
5.44092e-05
2.91361e-05
0.000488503
0.000175177
5.74855e-05
4.74424e-06
7.23019e-06
7.52958e-06
5.5862e-06
3.53037e-06
1.35151e-06
1.43912e-06
0.00104305
0.00042993
0.000384674
0.000362886
0.000338881
0.000325142
0.000319112
0.000304186
0.000326423
0.000210165
2.73513e-05
1.6118e-05
1.91295e-06
1.27965e-06
1.14061e-06
7.02034e-07
4.63264e-07
3.78068e-07
3.57529e-07
2.9282e-07
4.29535e-05
3.70976e-06
1.0738e-07
4.65519e-07
7.12356e-06
2.50935e-05
4.65674e-05
6.48482e-05
8.83839e-05
9.59667e-05
0.000248454
0.000220007
0.000198922
0.000194259
0.000206745
0.000232917
0.000271422
0.000307703
0.000367164
0.000375033
3.49606e-07
5.19921e-08
1.05143e-07
8.98743e-08
7.38046e-08
6.76699e-08
6.52671e-08
6.33074e-08
6.13988e-08
5.64382e-08
0.000414473
0.000865332
0.000930935
0.000940861
0.000954698
0.000991705
0.00106364
0.0011142
0.00124577
0.0011982
1.83093e-07
8.16621e-08
3.57908e-08
3.09109e-08
2.91959e-08
2.78714e-08
2.70487e-08
2.68396e-08
2.67141e-08
2.80157e-08
2.49949e-07
1.46468e-08
1.33303e-08
1.85321e-08
1.97591e-08
1.88133e-08
0.000105555
0.000200537
0.000326068
0.000424706
0.00229124
0.000641508
0.000632433
0.000499339
0.000364612
0.000254837
0.000170336
0.000104597
5.00465e-05
3.15784e-07
0.00168431
0.000292983
0.000143954
5.75222e-05
2.35201e-05
1.00358e-05
3.24116e-06
2.14121e-06
8.31675e-06
1.57867e-05
0.00157661
0.000651267
0.000526411
0.000487061
0.000457837
0.000441222
0.000431851
0.000416593
0.000433372
0.000302886
5.82549e-05
2.46717e-05
7.03148e-06
6.33234e-07
7.62884e-07
7.96817e-07
5.85304e-07
4.02104e-07
2.82838e-07
2.20946e-07
0.00015267
0.00010032
8.80147e-05
8.39069e-05
8.46268e-05
8.95305e-05
9.71847e-05
0.000103343
0.000115244
0.000107923
0.000235668
0.000223558
0.000210473
0.000204014
0.000206502
0.000216706
0.000233932
0.000250953
0.000284802
0.000281544
2.44899e-08
7.94631e-08
4.78585e-08
6.68688e-08
5.94072e-08
5.09635e-08
4.65594e-08
4.31534e-08
4.0888e-08
3.60741e-08
0.000259704
0.000976409
0.00113255
0.00115361
0.00115267
0.00116161
0.0011925
0.00120852
0.00129742
0.00119952
2.06462e-07
6.29674e-08
2.67916e-08
2.2268e-08
2.03367e-08
1.91702e-08
1.86647e-08
1.81333e-08
1.80944e-08
1.84994e-08
1.05036e-07
3.24245e-08
1.32716e-08
1.22735e-08
1.27013e-08
1.2832e-08
1.24042e-08
2.32888e-05
0.000102168
0.000135476
0.0190297
0.000567989
0.000468622
0.000319776
0.000210531
0.000133658
7.68434e-05
3.09543e-05
1.09102e-05
5.36671e-05
0.00303471
0.000179096
8.05052e-05
1.92863e-05
1.93852e-06
4.80673e-06
1.67056e-07
9.04838e-06
2.10836e-05
3.52686e-05
0.00189563
0.000782875
0.000561046
0.000496564
0.000465226
0.000451612
0.000445724
0.000438555
0.000452218
0.000343234
9.39766e-05
2.71328e-05
1.15547e-05
4.14714e-06
1.33403e-06
3.38023e-07
2.29966e-08
4.28783e-08
1.31772e-08
1.14984e-07
0.000148841
0.000106457
9.23848e-05
8.64178e-05
8.38209e-05
8.39278e-05
8.58697e-05
8.77506e-05
9.39658e-05
8.73375e-05
0.000155366
0.000146282
0.000140391
0.000136464
0.000136124
0.000139013
0.000144935
0.000151524
0.000167646
0.000166656
3.02378e-07
1.5577e-07
2.58463e-08
1.89392e-08
2.85561e-08
2.89537e-08
2.75988e-08
2.58905e-08
2.41085e-08
2.06146e-08
3.46336e-05
0.00089556
0.00111714
0.00115354
0.00115062
0.00114657
0.00115303
0.00115345
0.00120855
0.00111152
1.7908e-07
3.77151e-08
1.64356e-08
1.26641e-08
1.24351e-08
1.18206e-08
1.15073e-08
1.08566e-08
1.09289e-08
1.10126e-08
1.76061e-06
5.51266e-07
1.28237e-08
9.00201e-09
7.99688e-09
1.12904e-05
3.86385e-05
4.52764e-05
0.000105701
9.38338e-05
0.013991
0.00103255
0.000824285
0.000636258
0.000500342
0.000394816
0.000308692
0.000241939
0.000149182
5.05693e-05
0.00264837
0.00018033
0.00010722
5.61789e-05
2.68426e-05
8.87985e-06
3.91476e-06
1.50306e-05
2.65344e-05
3.69612e-05
0.00137444
0.000572788
0.00035313
0.000290922
0.000265155
0.000254694
0.000249461
0.000244611
0.000246063
0.000199622
9.96474e-05
1.5377e-05
7.0648e-06
2.92837e-06
1.11878e-06
3.38019e-07
1.88935e-09
1.4856e-07
2.06247e-07
2.44555e-07
7.48995e-05
4.82427e-05
4.17248e-05
3.87914e-05
3.71877e-05
3.652e-05
3.64845e-05
3.66234e-05
3.85245e-05
3.70366e-05
5.72275e-05
5.01797e-05
4.89019e-05
4.78482e-05
4.7461e-05
4.76851e-05
4.85189e-05
4.9586e-05
5.37461e-05
5.49861e-05
4.78549e-07
8.97989e-08
2.55199e-08
9.03602e-10
9.80272e-09
1.19796e-08
1.25546e-08
1.14319e-08
1.14867e-08
9.4779e-09
1.26787e-05
0.000531809
0.000699321
0.000731745
0.0007321
0.000726309
0.000721515
0.00071383
0.000730152
0.000674843
9.73274e-08
1.62648e-08
7.11307e-09
6.51938e-09
5.63445e-09
5.43282e-09
5.39921e-09
5.43282e-09
5.23119e-09
5.0275e-09
0.000630209
0.000672092
0.000619013
0.000585868
0.000565158
0.000554698
0.000553355
0.000544258
0.000580564
0.000534658
0.000860581
0.000556667
0.000427998
0.00034046
0.000270908
0.000213202
0.000164372
0.000122725
8.686e-05
5.45522e-05
0.000718068
3.21739e-05
1.64361e-05
8.65829e-06
5.96504e-06
5.88363e-06
7.21551e-06
9.41206e-06
1.21302e-05
1.33938e-05
7.82185e-05
5.76161e-05
7.70105e-06
9.60166e-07
9.50567e-07
1.73491e-06
3.41354e-06
7.20867e-06
1.48319e-05
2.65575e-05
2.65085e-05
4.42076e-06
2.06792e-06
9.35802e-07
4.24277e-07
1.98359e-07
1.00258e-07
6.23334e-08
6.14361e-08
8.82594e-08
8.71563e-06
3.35723e-06
3.09153e-06
2.9633e-06
2.82851e-06
2.67937e-06
2.49072e-06
2.20703e-06
1.80148e-06
8.97731e-07
4.85103e-06
3.32113e-06
3.4322e-06
3.44082e-06
3.392e-06
3.3011e-06
3.17415e-06
2.97886e-06
2.84319e-06
2.31986e-06
1.70842e-07
2.2426e-08
5.40922e-09
1.23458e-09
3.3219e-09
4.26374e-09
4.08556e-09
3.86919e-09
3.76737e-09
3.14371e-09
6.11634e-05
9.17464e-05
0.000119832
0.000126217
0.000126739
0.000125206
0.000122446
0.000117603
0.000112342
9.42079e-05
1.17761e-08
5.23798e-09
3.01991e-09
1.96815e-09
2.27014e-09
2.07228e-09
2.05146e-09
1.70781e-09
1.91608e-09
1.89525e-09
0.00106248
0.000970685
0.000909931
0.000872517
0.000849419
0.000834059
0.000821469
0.000805503
0.000793438
0.000727602
1.19327
0.862643
1.02792
1.72787
1.36884
1.17875
1.34306
1.98239
1.31435
1.17888
1.36282
2.07251
0.794544
0.737596
0.864206
1.36004
0.404422
0.388321
0.471551
0.787091
0.11759
0.110056
0.115412
0.217183
0.0509675
0.0501547
0.106593
0.170724
0.130625
0.120773
0.225561
0.401875
0.0883048
0.084061
0.196617
0.380011
0.0206349
0.0253023
0.115198
0.257765
0.122726
0.00545195
0.000133938
0.0494618
0.19055
0.0146539
0.000100095
0.0829304
0.234078
0.024751
5.43963e-05
0.107087
0.172875
0.0226837
2.83537e-05
0.0773633
0.0949688
0.0145143
1.4936e-05
0.0428436
0.0117238
0.00254956
7.98687e-06
0.00990018
0.0535414
0.00813686
4.49909e-06
0.0177791
0.0952048
0.0159573
2.88079e-06
0.0399349
0.0986103
0.0189459
0.00264722
0.0474042
0.0824955
0.0226244
0.0103914
0.0443317
0.0719932
0.0500054
0.0472091
0.0604062
0.102915
0.0646371
0.0585901
0.085751
0.128672
0.0789236
0.0760467
0.118335
0.0914814
0.0538089
0.0545044
0.0898491
0.0405935
0.0245284
0.0275428
0.0507829
0.0170453
0.00539742
0.00239593
0.00110999
0.0649065
0.0278653
0.0263551
0.0428672
0.0977618
0.0419483
0.0428798
0.0771746
0.106809
0.0431164
0.0468902
0.0905544
0.0994117
0.0391656
0.0459585
0.0889444
0.00931502
0.00587785
0.00501112
0.00664176
0.0172367
0.0104821
0.00871555
0.013145
0.0263381
0.0167656
0.0151005
0.0229579
0.0201497
0.013192
0.0129296
0.0196869
0.00491811
0.00454925
0.00587418
0.0103047
0.0180709
0.00806288
0.00601252
0.00612832
0.0417839
0.0202209
0.0184127
0.0240142
0.0622984
0.0303441
0.0296834
0.0412907
0.0721286
0.0331414
0.0349604
0.0511632
0.0717882
0.0331023
0.0386736
0.0557147
0.0030658
0.00247553
0.00227307
0.00279244
0.00616648
0.0049926
0.0049652
0.00654605
0.00835092
0.00747584
0.0079739
0.0107364
0.00468041
0.00463802
0.00535591
0.00761445
0.0028576
0.000831927
0.000477844
0.00196988
0.0146259
0.00893871
0.00711523
0.0071604
0.0276048
0.0170847
0.0150655
0.0169197
0.0405075
0.0247232
0.0230859
0.0270902
0.0488642
0.0282021
0.0284181
0.0341543
0.0523784
0.0308338
0.0344022
0.0400741
0.00044534
0.000375233
0.000318128
0.000456484
0.00160155
0.00134722
0.00142294
0.00193422
0.00221823
0.0023173
0.0028322
0.00393983
6.39912e-06
0.000615164
0.00126994
0.00218145
0.00404154
0.00257969
0.00165044
0.00100992
0.0103774
0.00757267
0.00638402
0.00636026
0.0174233
0.0127813
0.0113956
0.0120318
0.0253519
0.0183294
0.0169916
0.0184617
0.03153
0.0217119
0.0215238
0.0234437
0.0346361
0.0241132
0.0262228
0.0275833
6.68552e-05
1.44918e-05
2.63049e-05
5.41305e-06
0.000203933
0.000218983
0.000272415
0.000428465
0.000323692
0.000542512
0.000856295
0.00135713
0.00123181
0.000679815
0.000252932
0.00015345
0.00372206
0.00276463
0.00217676
0.00187206
0.00759456
0.00608653
0.00536617
0.00535231
0.0116233
0.00947624
0.00864974
0.00890429
0.0166515
0.0134979
0.012657
0.013329
0.0207471
0.0163031
0.0161218
0.0167785
0.0227358
0.0181228
0.0192717
0.0194446
0.000112583
4.02819e-05
3.86334e-05
3.94811e-05
0.000162595
7.14027e-05
4.49244e-05
3.12199e-05
0.000247602
5.24553e-05
0.000102338
0.000294697
0.00133754
0.000920147
0.0006764
0.000522981
0.00295164
0.00230351
0.00195354
0.00183621
0.00556621
0.00461929
0.00418318
0.0042193
0.00803007
0.00687155
0.00638285
0.00651657
0.0114412
0.00985345
0.00934678
0.00972387
0.0135421
0.0116009
0.0114436
0.0116744
0.0149714
0.0131941
0.0137877
0.0137117
8.82686e-05
3.06908e-05
2.93136e-05
2.98727e-05
0.000150018
4.69039e-05
3.30181e-05
6.16039e-05
0.000301834
0.000149399
8.15099e-05
2.73982e-05
0.0010741
0.000772845
0.000638726
0.000600821
0.00212001
0.00168671
0.00148365
0.00145931
0.00396931
0.00334078
0.00307144
0.00314023
0.00550032
0.0048238
0.00452473
0.00461086
0.0079631
0.00707641
0.00675814
0.00701014
0.00871423
0.00788701
0.00774479
0.0078464
0.00996728
0.00940355
0.00969073
0.00959941
6.62066e-05
2.16005e-05
2.06488e-05
2.11308e-05
3.4597e-05
8.54839e-06
8.28852e-06
9.13216e-06
0.000193872
8.11224e-05
5.8151e-05
6.41609e-05
0.00074146
0.000527986
0.000455549
0.000463341
0.0014039
0.00111571
0.00100122
0.00101608
0.00272552
0.00229599
0.00212899
0.00220831
0.00360439
0.00320753
0.00302389
0.00307719
0.0054575
0.00492182
0.00471613
0.00490549
0.00556594
0.00519993
0.00508264
0.0051403
0.00665922
0.00654556
0.00667532
0.00660717
6.50041e-05
2.03365e-05
1.93117e-05
1.98335e-05
1.76055e-05
6.04995e-06
5.82896e-06
6.37581e-06
7.01419e-05
2.77219e-06
2.69535e-06
1.65815e-05
0.000455178
0.000307061
0.000267998
0.000287604
0.000868282
0.000676286
0.000613616
0.000641124
0.00183485
0.00152887
0.00142422
0.00150254
0.00225621
0.00202572
0.00191445
0.00194014
0.00371046
0.00335115
0.00321661
0.00337071
0.00348641
0.00330664
0.00321729
0.00324977
0.0044196
0.00443979
0.00449995
0.00444841
3.67623e-05
1.21698e-05
1.21748e-05
1.33086e-05
1.30917e-05
4.2582e-06
4.07263e-06
4.4045e-06
5.3896e-06
2.01573e-06
1.97225e-06
2.26859e-06
0.000241802
0.000144204
0.000123067
0.000138742
0.000493313
0.000367176
0.000334673
0.000362597
0.00121867
0.000993431
0.000926906
0.000998991
0.00132428
0.00119968
0.0011346
0.00113658
0.00252645
0.00225856
0.00216989
0.00230336
0.00207354
0.00197565
0.00191186
0.00192433
0.00288596
0.00292703
0.00296181
0.00291708
4.42982e-05
1.22667e-05
1.07242e-05
1.00666e-05
1.08489e-05
3.68511e-06
3.61869e-06
4.03374e-06
4.03453e-06
1.44509e-06
1.41774e-06
1.64395e-06
9.88535e-05
4.11128e-05
2.97057e-05
3.51759e-05
0.000251738
0.000170705
0.000155399
0.000179258
0.00080582
0.000636464
0.000593227
0.00065695
0.000686862
0.000636483
0.0006014
0.000582655
0.00173471
0.0015174
0.00145848
0.00158009