/*--------------------------------*- C++ -*----------------------------------*\
| =========                 |                                                 |
| \\      /  F ield         | foam-extend: Open Source CFD                    |
|  \\    /   O peration     | Version:     4.0                                |
|   \\  /    A nd           | Web:         http://www.foam-extend.org         |
|    \\/     M anipulation  |                                                 |
\*---------------------------------------------------------------------------*/
FoamFile
{
    version     2.0;
    format      ascii;
    class       volScalarField;
    location    "1450";
    object      epsilon;
}
// * * * * * * * * * * * * * * * * * * * * * * * * * * * * * * * * * * * * * //

dimensions      [0 2 -3 0 0 0 0];

internalField   nonuniform List<scalar> 
34480
(
4930.47
4928.47
4928.37
4929.84
4933.01
4938.11
4950.7
5004.4
5194.37
5725.77
655.066
601.772
600.886
652.878
838.475
1576.11
5101.41
22860.6
103753
382489
618.751
523.151
509.557
569.209
810.042
1829.41
7042.99
35124.4
172546
699188
524.845
439.553
427.594
485.337
734.129
1883.9
8219.99
44409.8
232177
1.01066e+06
456.711
384.98
377.638
433.473
685.297
1928.24
9178.47
52584.2
289105
1.33306e+06
392.556
333.022
326.879
378.834
628.901
1957.11
10122.1
61037.7
350538
1.69801e+06
353.336
302.983
298.673
346.786
592.041
1963.69
10726.8
67192.4
400253
2.02201e+06
321.47
282.317
277.981
317.851
534.709
1821.4
10352
66982
412590
2.16709e+06
460.231
436.207
433.636
459.091
597.522
1410.91
6842.97
43702.2
275996
1.49842e+06
5708.61
5708.81
5714.23
5726.15
5742.94
5762.98
5787.19
5823.15
5889.57
5958.28
4855.8
4853.32
4852.85
4854.32
4858.29
4865.23
4876.32
4902.45
4965.14
5185.83
511.913
479.009
473.384
487.524
531.955
648.449
1002.92
2355.56
11810.7
103717
447.159
384.097
370.429
389.842
458.639
645.931
1229.97
3568.32
21368.2
197712
399.762
338.886
325.479
345.208
416.705
620.507
1294.93
4290.38
30239.1
294766
365.963
311.332
300.861
320.111
391.127
599.389
1322.53
4813.02
38716.1
396441
326.422
279.148
269.406
286.741
352.61
554.688
1295.02
5181.49
47345
508447
302.614
261.028
252.914
268.233
329.325
522.053
1257.22
5362.41
54211.3
607659
283.202
250.14
242.513
254.179
301.918
457.176
1075.61
4829.46
54990.5
651899
433.015
411.175
406.099
413.592
443.761
532.108
848.738
2981.73
36403.1
467515
5591.18
5586.85
5587.34
5593.95
5605.6
5620.14
5639.49
5672.49
5740.12
5912.98
4770.61
4768.25
4767.52
4768.32
4770.91
4774.98
4779.77
4790.57
4814.66
4869.77
399.842
386.353
383.689
388.466
403.633
439.059
527.191
758.951
1518.28
5764.81
308.293
277.058
270.241
279.425
309.84
379.466
550.628
1030.64
2861.7
15001.1
290.422
256.632
248.992
259.58
294.752
378.69
597.512
1280.18
4410.81
28931.7
280.987
248.09
241.686
252.666
289.81
380.65
629.437
1481.75
6141.32
47815.4
261.435
231.251
224.804
235.234
270.981
362.032
625.735
1626.16
8151.31
73150.1
250.63
222.683
217.137
226.664
260.815
349.583
617.779
1725.24
10165.6
101585
243.16
220.253
214.876
222.534
249.924
322.548
550.493
1595.19
11043.9
122885
402.88
386.574
382.843
388.512
408.982
461.965
607.551
1236.12
7682.15
92093.5
5481.56
5474.45
5472.13
5475.69
5484.45
5496.4
5512.9
5543.65
5616.08
5801.38
4674.55
4673.1
4672.69
4673.31
4675.07
4677.3
4678.28
4681.09
4688.5
4704.64
328.455
324.293
323.468
324.58
328.691
339.098
365.154
421.786
541.659
941.419
219.444
206.187
203.35
207.397
220.791
249.084
309.237
445.484
772.786
2088.13
214.574
197.873
193.962
199.49
217.452
256.946
345.733
565.717
1169.95
4144.3
217.687
199.689
196.131
202.344
222.965
269.531
379.778
676.155
1611.32
7157.43
210.805
192.904
188.895
195.304
216.559
266.677
392.393
761.9
2117.62
11600.8
208.591
190.858
187.243
193.418
214.849
266.434
401.428
827.726
2633.39
17122.8
210.064
194.828
191.131
196.445
214.548
259.152
380.133
795.56
2860.77
21848.6
375.843
363.882
361.06
365.266
380.256
417.282
509.067
783.027
2181.27
16543.3
5359.6
5352.51
5349.94
5352.98
5361.22
5373.56
5390.68
5421.51
5488.27
5631.38
4569.13
4568.5
4568.37
4568.76
4569.7
4570.35
4569.02
4567.89
4567.83
4569.6
285.522
284.745
284.638
284.422
284.442
286.223
293.477
307.479
329.897
376.243
168.002
162.985
161.954
163.375
168.407
178.624
198.406
237.559
308.352
484.755
166.572
158.863
156.917
159.417
167.672
184.901
219.686
294.303
443.258
890.367
174.009
164.728
162.815
165.912
176.366
198.707
246.18
356.551
601.397
1498.5
173.694
163.533
161.06
164.615
176.361
202.602
261.628
411.009
783.732
2435.22
176.166
165.297
162.946
166.585
179.235
208.063
275.563
457.712
966.306
3640.47
183.425
173.574
171.021
174.414
185.758
212.351
276.883
463.752
1058.44
4745.83
351.507
342.921
340.744
343.641
354.203
379.491
438.417
581.751
1009.45
3813.38
5229.97
5223.03
5220.3
5222.86
5230.45
5242.5
5259.14
5287.5
5343.14
5445.4
4455.31
4455.3
4455.4
4455.61
4455.95
4455.57
4453.54
4451.45
4449.67
4448.6
259.821
259.87
259.943
259.438
258.466
258.102
260.001
263.361
268.123
275.433
139.513
137.871
137.61
137.996
139.608
142.845
148.74
159.25
175.278
203.217
137.612
134.243
133.33
134.376
137.924
144.983
157.906
182.41
222.546
303.183
145.118
140.605
139.669
141.099
146.067
156.115
175.409
215.216
286.307
458.184
147.423
141.924
140.485
142.352
148.514
161.544
187.96
247.32
363.944
701.863
151.842
145.465
144.031
146.064
153.198
168.568
200.926
278.368
444.014
1013.97
162.331
156.249
154.585
156.671
163.507
178.777
212.255
297.534
500.268
1320.24
329.621
323.734
322.129
324.086
331.44
348.744
387.239
467.757
639.94
1290.13
5092.04
5085.51
5082.8
5084.98
5091.87
5103.12
5118.6
5143.49
5186.52
5253.71
4333.81
4334.21
4334.46
4334.54
4334.5
4333.51
4331.64
4329.63
4327.81
4326.47
243.827
243.752
243.766
243.305
242.394
241.972
242.333
243.062
244.176
246
124.034
123.625
123.639
123.678
124.061
124.903
126.438
129.012
132.541
137.268
120.718
119.293
118.877
119.291
120.76
123.573
128.311
136.284
147.566
163.815
126.719
124.631
124.218
124.831
127.081
131.413
139.013
152.96
174.356
210.609
129.554
126.691
125.889
126.824
129.93
136.183
147.714
170.715
209.216
285.822
134.321
130.709
129.88
130.955
134.83
142.765
157.906
190.068
247.747
381.497
146.219
142.631
141.596
142.826
146.791
155.301
172.424
210.964
286.849
489.75
310.282
306.436
305.277
306.571
311.662
323.668
349.291
396.444
479.978
667.322
4945.6
4939.67
4937.11
4938.97
4945.07
4955.08
4968.82
4989.79
5022.22
5066.02
4205.13
4205.78
4206.12
4206.13
4205.87
4204.77
4203.27
4201.68
4200.24
4199.17
232.945
232.494
232.378
232.04
231.463
231.29
231.305
231.452
231.843
232.846
115.636
115.618
115.702
115.652
115.657
115.765
116.03
116.526
117.216
118.022
111.088
110.492
110.304
110.463
111.065
112.191
113.97
116.668
120.076
123.829
115.33
114.413
114.257
114.501
115.484
117.302
120.282
125.195
131.912
140.387
117.788
116.352
115.923
116.374
117.896
120.841
125.882
134.854
148.197
167.558
122.122
120.14
119.687
120.228
122.277
126.302
133.396
146.785
167.881
202.388
134.268
132.259
131.648
132.349
134.573
139.213
147.99
165.515
195.802
252.102
293.294
290.933
290.099
290.955
294.516
303.099
320.48
349.098
394.136
462.528
4790.48
4785.3
4783.02
4784.57
4789.8
4798.3
4809.97
4826.94
4850.79
4879.69
4069.62
4070.39
4070.78
4070.75
4070.37
4069.48
4068.38
4067.22
4066.19
4065.39
224.535
223.723
223.476
223.252
223.019
222.966
222.944
223.004
223.29
224.189
111.031
111.098
111.178
111.122
111.045
110.968
110.911
110.906
110.967
111.081
105.727
105.471
105.383
105.444
105.697
106.162
106.863
107.841
108.975
109.995
108.472
108.092
108.049
108.137
108.555
109.304
110.477
112.247
114.471
116.716
110.286
109.592
109.372
109.583
110.312
111.681
113.908
117.508
122.432
128.09
113.906
112.846
112.612
112.873
113.938
115.964
119.335
125.069
133.263
143.36
125.632
124.578
124.237
124.626
125.836
128.325
132.853
140.983
153.775
171.8
278.313
276.988
276.375
276.957
279.52
285.888
297.865
315.794
341.561
371.287
4626.67
4622.34
4620.39
4621.66
4625.99
4632.87
4642.38
4655.58
4672.66
4691.62
3927.67
3928.32
3928.74
3928.69
3928.33
3927.71
3926.94
3926.14
3925.44
3924.87
216.955
216.061
215.702
215.565
215.513
215.492
215.491
215.565
215.861
216.756
108.411
108.477
108.531
108.49
108.418
108.321
108.218
108.129
108.083
108.09
102.825
102.705
102.66
102.685
102.798
103.004
103.303
103.692
104.114
104.443
104.467
104.318
104.317
104.345
104.52
104.829
105.296
105.952
106.721
107.394
105.664
105.343
105.235
105.332
105.673
106.302
107.292
108.776
110.693
112.628
108.556
107.998
107.884
108.007
108.557
109.58
111.213
113.762
117.138
120.55
119.516
119.013
118.837
119.049
119.691
121.013
123.346
127.186
132.8
139.49
264.894
264.264
263.789
264.21
266.142
271.011
279.353
290.866
306.193
320.312
4454.3
4450.85
4449.27
4450.27
4453.7
4459.03
4466.47
4476.35
4488.24
4500.48
3779.38
3779.9
3780.23
3780.2
3779.97
3779.55
3779.04
3778.5
3778.04
3777.62
209.506
208.626
208.283
208.176
208.144
208.14
208.16
208.253
208.563
209.453
106.807
106.853
106.887
106.859
106.805
106.731
106.65
106.577
106.538
106.544
101.305
101.239
101.214
101.225
101.281
101.381
101.523
101.697
101.879
102.004
102.21
102.15
102.158
102.166
102.242
102.377
102.573
102.832
103.112
103.339
102.926
102.784
102.732
102.777
102.935
103.221
103.661
104.284
105.053
105.807
105.192
104.897
104.844
104.903
105.192
105.719
106.532
107.714
109.176
110.482
115.232
115.029
114.948
115.064
115.398
116.097
117.282
119.105
121.589
124.37
252.555
252.374
251.976
252.307
253.854
257.605
263.436
270.945
280.331
287.124
4273.65
4271.04
4269.83
4270.59
4273.17
4277.15
4282.74
4289.86
4297.9
4305.64
3624.9
3625.31
3625.58
3625.57
3625.42
3625.15
3624.81
3624.47
3624.17
3623.84
201.845
200.99
200.676
200.582
200.559
200.565
200.595
200.695
201.008
201.88
105.709
105.734
105.753
105.735
105.699
105.652
105.6
105.555
105.539
105.558
100.535
100.496
100.48
100.486
100.516
100.569
100.642
100.73
100.82
100.876
100.987
100.958
100.963
100.966
101.004
101.072
101.168
101.287
101.402
101.494
101.374
101.314
101.29
101.311
101.383
101.513
101.708
101.973
102.287
102.614
103.15
102.987
102.964
102.995
103.155
103.439
103.862
104.443
105.111
105.671
112.216
112.164
112.135
112.201
112.374
112.739
113.323
114.175
115.239
116.491
240.83
240.926
240.562
240.847
242.166
244.972
249.027
253.95
259.823
262.862
4085.16
4083.29
4082.42
4082.98
4084.81
4087.69
4091.72
4096.66
4101.93
4106.74
3464.43
3464.77
3464.97
3464.97
3464.88
3464.71
3464.5
3464.28
3464.08
3463.81
193.789
192.968
192.682
192.599
192.581
192.589
192.621
192.718
193.024
193.868
104.856
104.866
104.874
104.863
104.842
104.814
104.786
104.763
104.766
104.793
100.162
100.137
100.128
100.131
100.147
100.175
100.213
100.259
100.31
100.338
100.356
100.335
100.334
100.336
100.36
100.404
100.463
100.531
100.591
100.64
100.538
100.514
100.502
100.512
100.546
100.605
100.693
100.806
100.936
101.094
101.95
101.852
101.841
101.861
101.957
102.123
102.358
102.666
102.997
103.274
110.027
110.045
110.043
110.082
110.176
110.356
110.626
111.007
111.416
112.021
229.291
229.558
229.198
229.463
230.601
232.569
235.349
238.561
242.283
243.315
3889.39
3888.13
3887.56
3887.93
3889.16
3891.2
3894
3897.29
3900.62
3903.55
3298.26
3298.55
3298.7
3298.71
3298.66
3298.55
3298.42
3298.27
3298.15
3297.91
185.231
184.45
184.19
184.117
184.102
184.108
184.137
184.225
184.518
185.328
104.121
104.122
104.123
104.116
104.104
104.091
104.077
104.07
104.085
104.117
99.9906
99.976
99.9723
99.9738
99.9811
99.9938
100.012
100.035
100.063
100.08
100.049
100.03
100.025
100.027
100.045
100.078
100.121
100.169
100.21
100.245
100.115
100.105
100.099
100.104
100.12
100.148
100.188
100.239
100.293
100.378
101.258
101.194
101.187
101.203
101.266
101.371
101.513
101.693
101.875
102.04
108.335
108.391
108.401
108.427
108.475
108.555
108.665
108.817
108.924
109.243
217.393
217.907
217.581
217.839
218.65
219.994
221.854
223.921
226.281
226.237
3687.09
3686.23
3685.89
3686.12
3686.96
3688.34
3690.19
3692.29
3694.31
3696.06
3126.79
3127.03
3127.15
3127.16
3127.13
3127.07
3126.98
3126.89
3126.81
3126.6
176.088
175.35
175.117
175.055
175.041
175.045
175.067
175.145
175.419
176.192
103.445
103.439
103.436
103.432
103.427
103.422
103.419
103.42
103.442
103.478
99.9216
99.9146
99.9142
99.9147
99.9165
99.9197
99.9252
99.934
99.9498
99.9611
99.9142
99.8962
99.8884
99.8899
99.9047
99.9309
99.9652
100.003
100.035
100.062
99.9201
99.914
99.9103
99.9127
99.9214
99.936
99.9556
99.9792
100.003
100.054
100.857
100.811
100.805
100.819
100.863
100.935
101.028
101.142
101.253
101.371
106.925
106.994
107.014
107.03
107.05
107.08
107.112
107.156
107.129
107.318
204.9
205.552
205.354
205.534
206.077
206.961
208.158
209.456
210.932
210.34
3479.02
3478.47
3478.25
3478.41
3478.95
3479.84
3481
3482.27
3483.43
3484.46
2950.55
2950.76
2950.84
2950.85
2950.84
2950.8
2950.75
2950.69
2950.63
2950.44
166.28
165.588
165.384
165.334
165.32
165.322
165.337
165.401
165.654
166.386
102.803
102.794
102.788
102.785
102.784
102.785
102.788
102.795
102.82
102.859
99.9044
99.9024
99.9039
99.9037
99.9023
99.9
99.8984
99.8992
99.9068
99.9165
99.8668
99.8505
99.8421
99.8431
99.8545
99.8749
99.9014
99.9304
99.956
99.979
99.8451
99.84
99.837
99.8381
99.8431
99.8517
99.8624
99.8747
99.8858
99.9181
100.609
100.574
100.569
100.58
100.613
100.663
100.726
100.803
100.876
100.97
105.659
105.724
105.747
105.758
105.766
105.772
105.769
105.767
105.688
105.817
191.64
192.343
192.247
192.369
192.711
193.258
193.98
194.766
195.65
194.832
3266.07
3265.74
3265.61
3265.71
3266.04
3266.57
3267.26
3267.98
3268.59
3269.18
2770.27
2770.45
2770.51
2770.52
2770.51
2770.49
2770.46
2770.42
2770.37
2770.19
155.709
155.07
154.897
154.86
154.847
154.846
154.855
154.904
155.13
155.82
102.189
102.179
102.171
102.169
102.17
102.174
102.18
102.19
102.215
102.257
99.9133
99.9136
99.9156
99.915
99.9122
99.9077
99.903
99.9001
99.903
99.9131
99.8624
99.8487
99.8413
99.8416
99.8497
99.8643
99.8834
99.9045
99.9241
99.943
99.8321
99.8274
99.8248
99.8251
99.8281
99.8332
99.8395
99.8463
99.8519
99.8725
100.432
100.405
100.4
100.408
100.431
100.465
100.508
100.558
100.608
100.684
104.458
104.511
104.533
104.541
104.543
104.54
104.525
104.507
104.417
104.515
177.471
178.153
178.137
178.215
178.411
178.713
179.093
179.537
180.012
179.173
3049.31
3049.12
3049.05
3049.11
3049.29
3049.59
3049.97
3050.33
3050.62
3050.94
2586.95
2587.09
2587.13
2587.14
2587.14
2587.13
2587.1
2587.07
2587.03
2586.88
144.243
143.666
143.525
143.501
143.496
143.494
143.496
143.529
143.718
144.363
101.612
101.599
101.592
101.59
101.592
101.597
101.604
101.614
101.636
101.678
99.9324
99.9322
99.9336
99.9328
99.93
99.9257
99.921
99.9176
99.9184
99.9295
99.8794
99.8689
99.8632
99.8631
99.8681
99.8774
99.8897
99.9037
99.9177
99.9323
99.8517
99.8479
99.8458
99.8456
99.8471
99.8498
99.8529
99.8562
99.8589
99.8709
100.274
100.254
100.25
100.255
100.269
100.29
100.316
100.347
100.379
100.438
103.291
103.327
103.345
103.35
103.349
103.342
103.325
103.304
103.224
103.302
162.234
162.841
162.888
162.935
163.023
163.143
163.273
163.481
163.656
162.935
2830.03
2829.94
2829.9
2829.93
2830.02
2830.17
2830.35
2830.51
2830.63
2830.79
2401.71
2401.82
2401.85
2401.86
2401.86
2401.85
2401.83
2401.81
2401.78
2401.66
131.655
131.162
131.07
131.06
131.059
131.055
131.051
131.065
131.197
131.777
101.09
101.074
101.067
101.065
101.067
101.071
101.078
101.088
101.104
101.143
99.9494
99.9475
99.9476
99.9467
99.9447
99.9419
99.939
99.937
99.9376
99.9486
99.9091
99.9021
99.8984
99.8981
99.9008
99.9059
99.9128
99.921
99.9298
99.94
99.8897
99.8873
99.886
99.8856
99.886
99.8868
99.8876
99.8884
99.8892
99.8946
100.12
100.107
100.104
100.106
100.113
100.124
100.137
100.152
100.169
100.209
102.168
102.187
102.198
102.199
102.196
102.186
102.17
102.15
102.096
102.155
145.47
145.946
145.98
146.015
146.075
146.156
146.238
146.298
146.23
145.713
2609.67
2609.63
2609.62
2609.63
2609.66
2609.7
2609.76
2609.8
2609.84
2609.91
2215.01
2215.08
2215.09
2215.09
2215.09
2215.09
2215.08
2215.08
2215.08
2215.02
117.394
117.056
117.025
117.029
117.031
117.027
117.017
117.01
117.056
117.485
100.627
100.611
100.603
100.6
100.601
100.604
100.61
100.619
100.632
100.662
99.9658
99.9635
99.9629
99.9622
99.9612
99.9601
99.9591
99.9586
99.9594
99.9669
99.9511
99.9473
99.9454
99.9452
99.9465
99.9489
99.9521
99.9561
99.9606
99.9663
99.9404
99.9393
99.9387
99.9384
99.9383
99.9382
99.9379
99.9375
99.9372
99.9384
100.01
100.004
100.002
100.003
100.006
100.01
100.015
100.02
100.027
100.046
101.124
101.126
101.128
101.127
101.121
101.112
101.099
101.087
101.068
101.11
125.772
126.054
126.072
126.092
126.125
126.168
126.21
126.234
126.185
125.845
2388.97
2388.94
2388.95
2388.95
2388.95
2388.95
2388.95
2388.95
2388.93
2388.97
7183.27
7293.37
7249.54
7043.15
658922
683786
689300
697151
1.49682e+06
1.58331e+06
1.59072e+06
1.5708e+06
2.52379e+06
2.70171e+06
2.69903e+06
2.61751e+06
3.75858e+06
4.05313e+06
4.02664e+06
3.86509e+06
5.30493e+06
5.74752e+06
5.69591e+06
5.48333e+06
6.86507e+06
7.46322e+06
7.39943e+06
7.20294e+06
7.88017e+06
8.60739e+06
8.5528e+06
8.42487e+06
5.61899e+06
6.17805e+06
6.11402e+06
6.08014e+06
7902.74
8150.36
7987.96
7568.81
5749.02
5801.7
5804.14
5764.98
308561
324605
345235
377160
689136
780478
824444
861248
1.17745e+06
1.40198e+06
1.46505e+06
1.4909e+06
1.76265e+06
2.17608e+06
2.24983e+06
2.26328e+06
2.45752e+06
3.11025e+06
3.20956e+06
3.24573e+06
3.13018e+06
4.03771e+06
4.19869e+06
4.31784e+06
3.57188e+06
4.70164e+06
4.94328e+06
5.1785e+06
2.80606e+06
3.81724e+06
4.00621e+06
4.31956e+06
7125.59
7357.08
7286.08
7065.72
4937.53
4948.46
4947.58
4937.86
21667.3
25962.4
24596.4
19964.4
61567.5
73389.5
68651.5
55705.7
128711
152759
140797
113954
228260
270355
246081
199280
372193
441623
401098
326176
545054
648095
591210
485085
702510
838911
769151
636505
584274
696547
629085
524423
6343.51
6430.76
6408.39
6313.06
4715.56
4717.67
4718.21
4717.41
1595.05
1711.73
1680.08
1545.15
4698.92
5171.79
5011.2
4433.36
11229
12499.5
11919.5
10207.8
22546.9
25237.7
23681.4
19731
41673.6
46890.3
43493.5
35509.6
68262.6
76929.6
70739.5
57084.2
97119.1
109842
100372
80372.4
83326.3
93712.1
84145.4
67220.4
5903.25
5944.92
5942.01
5904.09
4567.55
4568.44
4568.65
4568.11
423.43
436.294
438.508
431.601
710.242
756.974
761.374
731.219
1594.86
1736.13
1728.37
1609.48
3202.67
3527.23
3455.99
3116.47
6137.78
6818.86
6577.89
5753.84
10493.5
11685.3
11099.8
9464.84
15685.3
17543.7
16450.7
13713.8
13854.1
15387.3
14103.2
11577
5578.05
5600.07
5601.54
5585.93
4444.51
4445.25
4445.33
4444.7
275.657
278.504
279.201
277.944
226.412
231.462
233.261
232.226
385.586
402.977
407.16
400.407
673.943
717.561
721.709
695.753
1214.85
1315.82
1311.8
1232.75
2022.95
2210.14
2174.16
1989.97
3045.84
3358.48
3259.58
2902.42
2927.68
3181.4
3021.27
2662.11
5317.6
5328.38
5330.51
5324.95
4322.2
4322.91
4322.96
4322.33
241.825
243.718
244.11
243.053
140.164
140.9
141.243
141.23
175.886
178.557
179.669
179.417
243.207
250.192
252.401
250.703
368.96
386.519
390.202
383.061
549.154
582.514
585.083
565.558
795.359
854.683
851.737
806.72
984.346
1029.3
1009.75
961.975
5095.3
5100.18
5102.02
5100.77
4195.12
4195.81
4195.87
4195.27
228.134
229.845
230.18
229.17
118.208
118.337
118.387
118.364
125.869
126.308
126.527
126.555
146.046
147.263
147.798
147.776
183.427
186.926
188.18
187.614
233.801
240.34
242.075
240.275
314.603
327.161
329.074
323.495
542.918
548.572
546.036
542.332
4893.26
4895.26
4896.55
4896.74
4061.61
4062.27
4062.32
4061.76
219.523
221.174
221.5
220.525
110.9
110.953
110.959
110.92
110.358
110.427
110.462
110.47
117.777
117.983
118.09
118.122
131.729
132.538
132.887
132.851
149.893
151.25
151.784
151.736
187.367
190.313
191.151
190.478
400.153
397.181
396.43
399.083
4698.11
4698.8
4699.57
4700.06
3921.36
3921.97
3922.02
3921.51
212.224
213.82
214.14
213.201
107.875
107.922
107.925
107.885
104.492
104.497
104.499
104.499
107.582
107.602
107.615
107.627
113.668
113.89
113.989
113.978
121.969
122.224
122.361
122.433
144.587
145.298
145.559
145.489
335.339
330.262
329.482
332.897
4503.52
4503.62
4504.05
4504.5
3774.39
3774.95
3774.99
3774.52
205.08
206.619
206.93
206.029
106.342
106.389
106.393
106.355
101.993
101.991
101.988
101.987
103.362
103.354
103.351
103.353
106.206
106.287
106.319
106.304
110.77
110.786
110.812
110.861
126.735
126.872
126.925
126.914
297.624
292.117
291.213
294.53
4306.86
4306.73
4306.96
4307.3
3620.89
3621.39
3621.42
3621
197.68
199.157
199.458
198.596
105.373
105.418
105.424
105.388
100.856
100.854
100.852
100.851
101.491
101.483
101.479
101.478
102.821
102.863
102.876
102.862
105.717
105.69
105.688
105.717
118.003
117.986
117.969
117.953
271.475
266.023
265.072
268.188
4106.92
4106.74
4106.85
4107.08
3461.15
3461.58
3461.61
3461.24
189.854
191.267
191.557
190.735
104.625
104.668
104.673
104.641
100.32
100.319
100.318
100.318
100.638
100.634
100.63
100.629
101.226
101.254
101.261
101.248
103.29
103.264
103.257
103.272
113.197
113.141
113.102
113.078
250.875
245.628
244.684
247.609
3903.1
3902.98
3903.03
3903.13
3295.54
3295.91
3295.93
3295.6
181.514
182.86
183.138
182.359
103.967
104.007
104.012
103.982
100.065
100.066
100.065
100.065
100.246
100.244
100.242
100.24
100.471
100.491
100.495
100.485
102.073
102.057
102.052
102.057
110.244
110.186
110.141
110.109
233.043
228.055
227.146
229.893
3695.21
3695.19
3695.21
3695.21
3124.53
3124.84
3124.84
3124.56
172.591
173.869
174.136
173.402
103.349
103.386
103.391
103.364
99.952
99.9533
99.9534
99.9525
100.065
100.065
100.064
100.062
100.12
100.134
100.137
100.129
101.427
101.422
101.418
101.417
108.203
108.155
108.111
108.071
216.518
211.818
210.962
213.534
3483.36
3483.45
3483.45
3483.37
2948.7
2948.94
2948.93
2948.7
163.016
164.227
164.484
163.796
102.757
102.792
102.797
102.772
99.914
99.9163
99.9166
99.915
99.9834
99.9836
99.9831
99.9821
99.9651
99.9751
99.9765
99.9696
101.042
101.046
101.045
101.038
106.606
106.575
106.536
106.485
200.447
196.066
195.278
197.669
3267.92
3268.12
3268.12
3267.96
2768.82
2768.98
2768.95
2768.77
152.705
153.851
154.1
153.459
102.191
102.224
102.229
102.205
99.9175
99.9208
99.9212
99.9188
99.9485
99.9493
99.9492
99.9485
99.9037
99.9103
99.9108
99.9056
100.764
100.774
100.774
100.764
105.207
105.199
105.166
105.106
184.27
180.264
179.561
181.746
3049.6
3049.88
3049.89
3049.67
2585.91
2585.99
2585.94
2585.81
141.554
142.645
142.89
142.294
101.649
101.681
101.685
101.662
99.9397
99.9439
99.9442
99.941
99.9385
99.9397
99.94
99.9396
99.889
99.8927
99.8928
99.8894
100.514
100.527
100.528
100.517
103.874
103.889
103.865
103.798
167.559
164.047
163.454
165.372
2829.42
2829.75
2829.77
2829.54
2401.15
2401.13
2401.08
2401.01
129.383
130.435
130.675
130.113
101.141
101.169
101.173
101.152
99.9611
99.9654
99.9656
99.9622
99.9459
99.9472
99.9477
99.9476
99.9026
99.9041
99.904
99.9025
100.271
100.283
100.284
100.275
102.551
102.577
102.563
102.503
149.643
146.699
146.257
147.893
2608.71
2609.08
2609.1
2608.86
2215.01
2214.86
2214.8
2214.85
115.76
116.741
116.947
116.413
100.666
100.683
100.684
100.671
99.9749
99.9776
99.9776
99.9754
99.9705
99.9716
99.9721
99.9722
99.9404
99.9407
99.9406
99.9404
100.078
100.086
100.087
100.082
101.285
101.293
101.286
101.262
128.347
126.327
126.091
127.247
2388.19
2388.58
2388.58
2388.32
6105.51
5442.72
5172.97
5076.83
5021.99
4983.44
4957.82
4943.42
4935.46
4930.75
797973
193069
33373
11721.5
5295.86
2834.02
1748.19
1211.93
927.95
764.808
1.42303e+06
246682
44208.9
15114.5
6770.13
3634.45
2199.12
1459.85
1048.05
802.949
1.99381e+06
239091
46714.5
15001.5
6476.37
3387.87
1998.91
1296.72
912.586
688.477
2.45628e+06
252307
48878.8
14544
6091.27
3098.76
1790.26
1143.53
795.061
596.55
2.92804e+06
276103
51085.5
13957.9
5631.54
2765.11
1559.75
980.295
676.946
508.122
3.31025e+06
294681
51943.6
13145.9
5151.57
2464.36
1374
860.656
595.204
450.257
3.39464e+06
287139
47650.6
10988.7
4158.38
1944.04
1091.74
699.721
502.686
394.746
2.34067e+06
182017
27345.4
5705.55
2273.24
1237.23
857.801
671.605
568.266
506.687
6015.55
5992.15
5846.43
5822.03
5778.67
5754.41
5735.17
5724.96
5718.07
5712.16
5442.86
5174.85
5044.94
4972.36
4926.8
4896.78
4877.32
4865.76
4859.56
4855.66
180142
44876.1
13610.3
5321.54
2634.8
1566.82
1064.93
802.417
656.225
572.233
375393
86346.2
23453.7
8286.56
3887.25
2186.95
1383.55
956.179
710.908
565.899
594499
126121
30673.7
9643.41
4224.78
2260.04
1371.89
915.575
661.544
515.556
829708
164833
36386.8
10406.4
4313.25
2217.89
1309.33
857.134
610.192
471.967
1.10894e+06
207007
41706.2
10851.3
4242.18
2089.08
1197.55
768.309
541.811
418.395
1.38796e+06
244223
45303.3
10836.9
4050.36
1936.68
1094.41
698.958
492.932
382.849
1.56344e+06
258470
43950.3
9541.02
3391.12
1583.23
899.748
587.351
429.749
345.776
1.18177e+06
178607
26826.9
5244.18
1965.12
1090.85
771.499
615.228
526.703
476.397
6252
5952.08
5792.03
5733.23
5682.41
5651.69
5629.43
5615.86
5606.3
5598.05
4903.59
4868.78
4841.3
4818.48
4800.65
4787.73
4779.12
4773.96
4771.12
4769.11
9199.98
4177.24
2299.68
1433.12
985.548
735.951
591.302
505.059
452.329
420.47
23990.6
9563.65
4649.82
2546.51
1541.87
1010.2
712.753
538.502
431.311
364.949
45410.1
15953.1
6934.14
3409.16
1897.34
1158.56
771.352
555.679
428.613
352.869
73534.7
22882.6
9003.55
4052.4
2117.92
1231.45
791.356
556.467
421.493
343.325
111960
31011.3
11028.8
4543.35
2232.88
1235.82
766.582
526.003
393.4
318.982
155921
38828.5
12562.4
4788.96
2248.89
1204.58
734.053
500.245
373.32
303.507
191366
42828.2
12506.4
4379.85
1972.32
1035.52
635.702
442.815
341.674
286.181
141567
27728.6
7296.46
2544.83
1306.92
842.643
642.663
536.645
473.128
436.416
6017.47
5835.05
5710.5
5636.7
5583.66
5550.58
5527.6
5511.96
5500.39
5490.47
4712.53
4704.17
4694.99
4686.75
4680.49
4676.24
4673.59
4672.24
4671.92
4671.57
1208.42
907.012
709.24
570.699
479.405
420.883
383.291
358.579
341.883
331.573
3028.71
1919.88
1270.6
860.855
612.461
461.039
367.294
307.755
268.328
242.46
6218.71
3480.13
2056.75
1251.69
812.638
564.608
420.248
333.199
278.437
244.108
10740.3
5347.43
2875.99
1609.28
978.179
643.946
460.109
354.558
289.938
250.527
17333.7
7659.6
3757.52
1937.05
1104.18
688.635
472.391
353.668
284.412
243.654
25201
9936.81
4491.23
2163.15
1177.5
709.001
476.059
352.711
281.879
240.957
32077.2
11229.6
4653.23
2092.39
1099.36
652.156
441.325
332.89
272.767
238.127
23522.5
7358.78
2958.51
1442.16
905.672
663.461
542.651
472.778
428.056
401.582
5788.28
5659.8
5561.13
5497.29
5453.25
5424.41
5403.72
5388.89
5377.69
5368.25
4567.11
4565.89
4564.64
4563.67
4563.09
4562.85
4562.88
4563.26
4564.18
4565.05
412.851
383.142
356.814
334.993
318.542
306.487
297.636
291.01
285.93
282.658
637.827
512.71
411.839
334.587
279.822
242.027
216.155
198.268
185.342
176.289
1287
925.934
666.118
486.192
369.803
294.969
246.672
214.999
193.547
179.362
2275.01
1480.85
972.726
652.474
462.637
348.73
279.598
236.711
208.387
190.044
3811.8
2238.98
1345.54
829.869
548.44
390.048
299.34
245.667
212.129
191.283
5699.05
3040.88
1694.17
977.167
614.186
420.516
314.81
254.721
217.671
194.972
7454.06
3595.37
1858.68
1011.09
616.153
416.784
313.269
255.888
221.792
201.056
5656.57
2633.94
1434.77
903.569
665.688
539.365
466.937
421.338
390.122
371.238
5535
5458.99
5393.77
5347.42
5313.55
5289.32
5271.09
5257.4
5246.84
5238.05
4444.33
4444.46
4444.75
4445.22
4445.82
4446.46
4447.12
4447.93
4449.14
4450.6
277.946
274.967
271.486
268.05
265.026
262.464
260.311
258.468
256.847
255.532
225.956
210.937
195.009
180.69
169.183
160.418
153.9
149.022
145.103
142.148
373.101
321.815
273.209
233.323
203.637
182.3
167.132
156.287
148.335
142.82
612.991
487.816
381.872
302.777
248.747
212.59
188.485
172.268
160.571
152.508
1012.61
737.169
528.826
386.315
296.491
240.146
204.653
181.852
166.446
156.346
1521.03
1021.58
680.516
465.482
339.677
265.077
220.306
192.758
174.293
162.272
2043.8
1265.42
789.201
513.764
364.669
280.8
232.595
203.525
184.902
172.996
1812.71
1181.2
824.326
628.495
519.752
452.737
409.227
379.654
358.086
344.791
5302.76
5261.14
5221.34
5189.49
5164.09
5144.38
5128.83
5116.69
5107.1
5099.24
4322.09
4322.36
4322.81
4323.42
4324.11
4324.8
4325.45
4326.22
4327.36
4328.82
244.215
244.06
243.709
243.236
242.72
242.186
241.639
241.057
240.419
239.662
140.689
138.63
136.064
133.485
131.224
129.374
127.913
126.735
125.627
124.702
176.56
168.276
158.706
149.714
142.186
136.177
131.467
127.783
124.862
122.772
241.545
220.059
197.53
178.209
163.302
152.229
144.113
138.18
133.463
130.012
355.518
303.492
254.416
215.692
187.942
168.546
155.047
145.583
138.654
133.914
503.587
403.983
317.826
255.171
213.355
185.727
167.393
155.122
146.129
139.93
680.66
512.843
382.141
294.619
240.032
205.599
183.581
169.104
159.136
152.506
826.122
674.753
558.907
481.125
428.75
392.028
365.56
346.33
331.476
322.158
5091.29
5069.43
5045.66
5024.1
5005.43
4989.91
4977.12
4966.79
4958.41
4951.66
4195.04
4195.25
4195.58
4196.04
4196.56
4197.06
4197.53
4198.09
4199.02
4200.3
230.474
230.703
230.805
230.816
230.757
230.633
230.44
230.156
229.755
229.122
118.351
118.086
117.72
117.318
116.951
116.65
116.423
116.229
115.953
115.67
126.167
124.619
122.563
120.394
118.374
116.594
115.066
113.769
112.675
111.887
146.602
142.531
137.512
132.657
128.472
125.041
122.296
120.138
118.239
116.769
183.543
172.717
160.681
149.87
141.13
134.33
129.119
125.154
122.039
119.856
231.503
210.371
188.211
169.806
155.861
145.578
138.049
132.598
128.241
125.084
302.719
263.767
227.085
198.765
178.489
164.144
154.003
146.796
141.517
137.92
515.301
472.432
430.148
396.149
369.389
348.549
332.188
319.602
309.372
302.873
4892.12
4880.38
4866.02
4851.58
4838.18
4826.39
4816.27
4807.82
4800.8
4795.23
4061.53
4061.68
4061.89
4062.19
4062.53
4062.85
4063.12
4063.47
4064.18
4065.23
221.818
222.084
222.231
222.3
222.307
222.249
222.119
221.891
221.527
220.898
110.959
110.949
110.936
110.922
110.92
110.939
110.982
111.019
110.969
110.877
110.395
110.051
109.546
108.956
108.356
107.781
107.25
106.767
106.342
106.041
117.939
117.071
115.861
114.559
113.325
112.226
111.285
110.503
109.733
109.099
132.02
129.397
126.157
122.886
119.943
117.429
115.341
113.642
112.232
111.241
150.399
145.472
139.379
133.651
128.771
124.797
121.632
119.189