/*--------------------------------*- C++ -*----------------------------------*\
| =========                 |                                                 |
| \\      /  F ield         | foam-extend: Open Source CFD                    |
|  \\    /   O peration     | Version:     4.0                                |
|   \\  /    A nd           | Web:         http://www.foam-extend.org         |
|    \\/     M anipulation  |                                                 |
\*---------------------------------------------------------------------------*/
FoamFile
{
    version     2.0;
    format      ascii;
    class       volScalarField;
    location    "1450";
    object      k;
}
// * * * * * * * * * * * * * * * * * * * * * * * * * * * * * * * * * * * * * //

dimensions      [0 2 -2 0 0 0 0];

internalField   nonuniform List<scalar> 
34480
(
8.76703
8.76467
8.76455
8.76629
8.77005
8.77609
8.791
8.85444
9.07708
9.68599
9.27887
8.6677
8.57539
8.85492
9.45372
10.3405
11.9403
15.8568
28.7535
67.055
15.0391
13.5706
13.1255
13.274
13.8447
14.8783
17.2129
22.9116
41.6512
101.433
14.4915
12.9661
12.5175
12.7123
13.4234
14.8384
18.0104
25.4109
49.2557
127.782
13.4288
12.0159
11.6669
11.9348
12.7873
14.498
18.267
26.9602
55.2685
151.553
12.2203
10.95
10.6395
10.9225
11.8153
13.7096
17.9509
27.9072
61.0561
176.623
11.3277
10.2107
9.95798
10.2343
11.1307
13.0973
17.5993
28.4255
65.5132
197.978
9.84141
9.0075
8.80405
9.02081
9.7344
11.4055
15.5001
26.1305
64.5428
205.571
6.88347
6.61569
6.56749
6.67788
7.00766
7.7325
9.73357
16.2773
43.4158
149.669
9.23789
9.23812
9.24397
9.25683
9.27492
9.29648
9.32249
9.36106
9.4321
9.5053
8.67829
8.67534
8.67478
8.67653
8.68126
8.68952
8.70272
8.73378
8.80806
9.06711
7.93028
7.51065
7.4176
7.57525
8.022
8.86378
10.3051
12.1094
15.4353
41.2024
12.2372
11.175
10.8833
11.0866
11.7649
13.0255
15.223
18.1254
23.7975
66.4505
12.1414
10.9746
10.657
10.9005
11.7055
13.2557
16.0357
20.0169
28.3947
86.2006
11.6004
10.4688
10.2035
10.4803
11.3736
13.1151
16.3033
21.0787
31.8419
104.296
10.8066
9.75883
9.505
9.77975
10.6791
12.5067
15.9764
21.4604
34.8353
123.689
10.2162
9.26665
9.05104
9.30571
10.1804
12.01
15.6178
21.5579
37.1059
140.932
9.05569
8.33581
8.15285
8.34533
9.02421
10.5231
13.6711
19.2906
35.7015
147.348
6.6458
6.39915
6.34534
6.41983
6.6849
7.27022
8.61759
11.5645
22.4919
102.416
9.11077
9.10607
9.1066
9.11378
9.12643
9.14221
9.16319
9.1989
9.27186
9.45706
8.57648
8.57366
8.57278
8.57374
8.57685
8.58173
8.58747
8.60039
8.6292
8.69491
6.78355
6.57204
6.51818
6.59406
6.82537
7.2721
8.06671
9.36178
11.1402
16.4473
9.69443
9.07451
8.92163
9.08926
9.60872
10.5632
12.1778
14.5728
17.5536
29.198
9.8921
9.15507
8.97053
9.1846
9.84394
11.0993
13.2909
16.6438
21.116
40.7765
9.76214
9.00857
8.84688
9.08408
9.82295
11.2667
13.8691
17.9428
23.7768
52.2594
9.33304
8.60745
8.44109
8.67967
9.43478
10.9812
13.8957
18.6218
26.0204
64.8986
9.01778
8.33532
8.19028
8.41372
9.15625
10.7254
13.8107
18.9607
27.7433
76.9134
8.19685
7.67005
7.54168
7.7128
8.28875
9.57229
12.2787
17.1667
26.6474
82.8631
6.3745
6.18282
6.1433
6.20449
6.4157
6.87866
7.92788
10.3706
16.6971
57.0961
8.99128
8.98351
8.98098
8.98487
8.99446
9.00752
9.02553
9.05907
9.1378
9.3377
8.46097
8.45921
8.45871
8.45946
8.46159
8.46429
8.46547
8.46886
8.4778
8.49723
6.0096
5.91886
5.8919
5.92272
6.02287
6.21533
6.55216
7.13431
7.99957
9.88654
7.81174
7.49923
7.42672
7.52219
7.82353
8.38607
9.33683
10.824
12.6627
17.0842
8.12793
7.71114
7.60799
7.74558
8.17164
8.99361
10.4265
12.7285
15.5996
23.563
8.25016
7.79268
7.69662
7.85473
8.35316
9.34068
11.1268
14.0862
17.8827
30.1298
8.08614
7.61898
7.51017
7.67756
8.2076
9.30709
11.3927
14.9972
19.8601
37.6349
7.97784
7.5149
7.41627
7.57834
8.11598
9.26232
11.5289
15.5799
21.3626
44.9522
7.44688
7.07769
6.98631
7.11525
7.53977
8.48648
10.4853
14.3847
20.6469
48.7556
6.13252
5.98598
5.95631
6.00246
6.16003
6.49811
7.22687
8.98679
12.9784
33.0266
8.85741
8.84961
8.84677
8.85012
8.85921
8.8728
8.89163
8.92551
8.99862
9.15437
8.33327
8.33249
8.33234
8.33281
8.33395
8.33476
8.33315
8.33177
8.3317
8.33384
5.53846
5.50408
5.4911
5.50096
5.53708
5.60573
5.72103
5.91279
6.1807
6.62401
6.56857
6.43104
6.40054
6.44083
6.57707
6.83512
7.27385
7.98441
8.88262
10.3626
6.87479
6.65862
6.60244
6.67323
6.90034
7.34265
8.11671
9.40966
11.0463
14.0248
7.10455
6.84563
6.78985
6.87731
7.16284
7.7308
8.76239
10.561
12.8843
17.7789
7.09941
6.8137
6.74255
6.84329
7.1673
7.83982
9.11909
11.4655
14.6101
22.2337
7.12274
6.82091
6.7534
6.85568
7.20095
7.93322
9.37761
12.133
15.9779
26.6434
6.81491
6.56409
6.49846
6.58485
6.86729
7.48889
8.78213
11.4761
15.6866
29.0048
5.9193
5.80875
5.78617
5.8181
5.92919
6.16151
6.63177
7.74218
10.1034
19.2318
8.714
8.7063
8.70327
8.70612
8.71455
8.72793
8.74639
8.77781
8.83927
8.9517
8.1943
8.19427
8.19439
8.19465
8.19507
8.19461
8.19213
8.18956
8.18738
8.18606
5.271
5.25967
5.25341
5.25566
5.26691
5.28866
5.32409
5.37876
5.44857
5.5388
5.81135
5.76009
5.75062
5.76405
5.81492
5.91152
6.0738
6.33624
6.67632
7.14226
6.04515
5.94185
5.9134
5.94589
6.05396
6.26212
6.61828
7.21268
7.98849
9.10965
6.28436
6.14831
6.11888
6.16259
6.31078
6.60028
7.11422
8.02186
9.23688
11.2048
6.35287
6.18794
6.14413
6.20045
6.38352
6.7559
7.44671
8.74104
10.537
13.8038
6.44382
6.25655
6.21317
6.2735
6.48099
6.91031
7.73182
9.34149
11.6497
16.3914
6.29448
6.13216
6.08768
6.14283
6.32076
6.70177
7.4624
9.07769
11.6532
17.7632
5.73376
5.65285
5.63675
5.65815
5.73444
5.88967
6.18506
6.83667
8.09897
11.8401
8.56011
8.55279
8.54975
8.55221
8.55993
8.57254
8.58986
8.61769
8.66568
8.74037
8.04462
8.04511
8.04541
8.04552
8.04547
8.04425
8.04194
8.03945
8.03719
8.03553
5.1271
5.12376
5.12037
5.1203
5.12314
5.12948
5.13952
5.15388
5.17017
5.18646
5.37733
5.36257
5.3619
5.36477
5.37966
5.40864
5.45738
5.53483
5.63397
5.75232
5.52813
5.48153
5.46783
5.48159
5.52955
5.62001
5.76828
6.00438
6.30905
6.682
5.72878
5.66182
5.64783
5.66783
5.73942
5.87527
6.10595
6.49951
7.03069
7.75117
5.81647
5.72588
5.70027
5.72991
5.8276
6.02054
6.36208
6.98415
7.86543
9.18692
5.93037
5.8191
5.79279
5.82619
5.94473
6.18219
6.61392
7.44012
8.6518
10.6601
5.88462
5.78457
5.75596
5.78946
5.89614
6.11795
6.53776
7.40196
8.80013
11.4669
5.5789
5.52112
5.51023
5.524
5.57504
5.67621
5.85949
6.23113
6.88918
8.32209
8.39519
8.38848
8.38559
8.3877
8.3946
8.40593
8.42146
8.44514
8.48169
8.53094
7.88458
7.88538
7.8858
7.88582
7.88549
7.88413
7.88226
7.88026
7.87846
7.87712
5.05235
5.05119
5.04899
5.04848
5.04907
5.05106
5.05396
5.05774
5.06134
5.06388
5.13884
5.13737
5.13956
5.13916
5.14132
5.14661
5.15684
5.17415
5.19666
5.221
5.22071
5.20033
5.1939
5.19948
5.22014
5.25832
5.31801
5.40647
5.51483
5.62767
5.36926
5.3383
5.33253
5.34097
5.37381
5.43427
5.53206
5.68833
5.8922
6.12749
5.44814
5.40063
5.38639
5.40127
5.45129
5.54718
5.70845
5.98381
6.36662
6.856
5.55883
5.49525
5.48021
5.4977
5.56292
5.68943
5.90705
6.2981
6.86312
7.64706
5.57509
5.51669
5.49934
5.51879
5.57984
5.70351
5.92648
6.35722
7.04349
8.133
5.45453
5.41407
5.40714
5.41575
5.44931
5.51424
5.62745
5.838
6.18461
6.75655
8.21872
8.2128
8.21018
8.21196
8.21795
8.22766
8.241
8.26038
8.28756
8.32044
7.71426
7.71523
7.71572
7.71568
7.7152
7.71408
7.71269
7.71122
7.70992
7.70892
5.01391
5.01307
5.01143
5.01101
5.01127
5.01223
5.01343
5.01477
5.01572
5.01593
5.01212
5.01443
5.01703
5.01603
5.01463
5.0132
5.01254
5.01344
5.0159
5.0191
5.0455
5.03647
5.03338
5.03565
5.04465
5.06102
5.08554
5.11925
5.15788
5.19221
5.14625
5.13274
5.13085
5.13413
5.14865
5.17471
5.21518
5.27534
5.34962
5.42277
5.20607
5.18222
5.17464
5.18185
5.20668
5.25306
5.32785
5.44634
5.60418
5.77813
5.30146
5.26628
5.25817
5.26689
5.30182
5.36772
5.47583
5.65559
5.90396
6.19261
5.35116
5.31918
5.30935
5.3202
5.35349
5.41958
5.53469
5.74188
6.06075
6.49022
5.35853
5.33054
5.32644
5.33174
5.35369
5.39519
5.46513
5.58483
5.76893
6.01966
8.03027
8.02527
8.02301
8.02448
8.02949
8.03745
8.04845
8.0637
8.0834
8.10525
7.53381
7.53464
7.53517
7.53511
7.53465
7.53386
7.53288
7.53185
7.53095
7.53022
4.99341
4.99264
4.99136
4.9911
4.99142
4.99216
4.99303
4.99392
4.99448
4.99441
4.94662
4.94938
4.95156
4.95074
4.94892
4.94642
4.94377
4.94144
4.93989
4.93926
4.94976
4.94545
4.94385
4.94482
4.94898
4.95645
4.96721
4.98104
4.99588
5.00738
5.01354
5.00789
5.00753
5.00871
5.01506
5.02625
5.04305
5.06637
5.09341
5.11691
5.05388
5.04239
5.0385
5.04192
5.05397
5.07601
5.11046
5.16142
5.22633
5.29089
5.13084
5.11176
5.1076
5.11182
5.1303
5.16434
5.21812
5.30114
5.40963
5.51765
5.19611
5.18
5.17492
5.18076
5.19795
5.23162
5.2891
5.38641
5.53052
5.70466
5.28728
5.26795
5.26572
5.26904
5.28357
5.31036
5.3538
5.42256
5.52035
5.63975
7.82956
7.82552
7.82367
7.82485
7.82886
7.83511
7.84383
7.85539
7.86929
7.88359
7.34296
7.34363
7.34406
7.34403
7.34372
7.34318
7.34251
7.34182
7.34122
7.34068
4.98149
4.98082
4.97988
4.97974
4.98007
4.98073
4.98152
4.9823
4.98283
4.98273
4.91348
4.91575
4.91737
4.91686
4.91545
4.91343
4.91117
4.90899
4.90737
4.9065
4.89973
4.89739
4.89648
4.89696
4.89906
4.9028
4.90801
4.91436
4.92084
4.92526
4.93788
4.93546
4.93553
4.93594
4.93884
4.94389
4.95125
4.96079
4.97104
4.97929
4.96251
4.95717
4.95523
4.95685
4.96262
4.97301
4.98884
5.01096
5.03797
5.06404
5.02269
5.01231
5.01027
5.01234
5.02221
5.04
5.06719
5.10653
5.15487
5.19802
5.09344
5.0863
5.08404
5.0871
5.0954
5.11152
5.13881
5.183
5.24582
5.3209
5.23629
5.2228
5.22176
5.22397
5.23387
5.25158
5.27893
5.3191
5.37093
5.43148
7.61642
7.61331
7.61187
7.61279
7.61585
7.62057
7.62722
7.63567
7.6452
7.65439
7.14147
7.14202
7.14236
7.14234
7.14215
7.14179
7.14136
7.1409
7.14051
7.14008
4.97358
4.97306
4.97243
4.97235
4.97265
4.97322
4.9739
4.97458
4.97509
4.97493
4.89691
4.89859
4.89974
4.89948
4.89856
4.89723
4.89573
4.89428
4.89327
4.8927
4.87488
4.87347
4.87292
4.87318
4.87433
4.87634
4.8791
4.88235
4.8856
4.88758
4.89664
4.8954
4.89545
4.89562
4.89713
4.89976
4.90344
4.90791
4.91228
4.91571
4.91028
4.90785
4.90689
4.90768
4.91046
4.91537
4.92267
4.93241
4.94383
4.9554
4.95719
4.95134
4.95033
4.95145
4.95695
4.96663
4.9809
5.00044
5.02291
5.04182
5.02833
5.0259
5.02524
5.02681
5.03045
5.03749
5.04934
5.06818
5.09351
5.12827
5.20087
5.19127
5.19093
5.19258
5.19965
5.21174
5.22936
5.2534
5.28083
5.31349
7.39079
7.38853
7.38749
7.38816
7.39036
7.39384
7.39871
7.40466
7.411
7.41679
6.92911
6.92957
6.92984
6.92984
6.92972
6.92949
6.92921
6.92891
6.92865
6.9283
4.96755
4.96722
4.96683
4.96681
4.96706
4.9675
4.96804
4.96858
4.96906
4.96879
4.88861
4.88984
4.89062
4.89053
4.89
4.88922
4.88836
4.88754
4.88707
4.88678
4.86332
4.86243
4.86212
4.86227
4.8629
4.86399
4.86549
4.86723
4.86904
4.87003
4.87523
4.87437
4.87428
4.87439
4.87535
4.877
4.87925
4.88182
4.88414
4.88596
4.88196
4.88085
4.88036
4.88076
4.88213
4.88449
4.88792
4.89229
4.89723
4.90292
4.91923
4.91566
4.91513
4.91585
4.91916
4.9248
4.93279
4.94323
4.95447
4.96396
4.98851
4.98834
4.9885
4.98932
4.99065
4.99322
4.99751
5.0045
5.01283
5.0305
5.17668
5.16969
5.16972
5.17111
5.17642
5.18498
5.1967
5.21156
5.22603
5.24506
7.15274
7.15119
7.15049
7.15096
7.15246
7.15496
7.15839
7.16243
7.1665
7.17009
6.70573
6.70612
6.70633
6.70634
6.70627
6.70613
6.70595
6.70576
6.70558
6.70527
4.96244
4.96232
4.96213
4.96214
4.96233
4.96264
4.96304
4.96344
4.96388
4.96349
4.88439
4.8853
4.88582
4.88581
4.88555
4.88516
4.88475
4.88437
4.88429
4.88419
4.85849
4.85798
4.85783
4.85791
4.85822
4.85875
4.8595
4.8604
4.86144
4.86199
4.86473
4.864
4.86379
4.86388
4.86458
4.8658
4.86741
4.86919
4.87073
4.87197
4.8675
4.86694
4.86668
4.86688
4.86759
4.86878
4.87044
4.87249
4.87469
4.8778
4.89798
4.89561
4.89528
4.89583
4.898
4.90158
4.90643
4.91254
4.91876
4.92449
4.96451
4.96525
4.9658
4.96624
4.96654
4.96707
4.96788
4.96961
4.97049
4.98074
5.15994
5.1548
5.15506
5.15633
5.16043
5.16676
5.17486
5.18441
5.19191
5.20415
6.90252
6.90145
6.90102
6.90131
6.90235
6.90408
6.90639
6.90901
6.91152
6.9137
6.47126
6.4716
6.47176
6.47177
6.47173
6.47164
6.47153
6.4714
6.47129
6.471
4.95783
4.95792
4.95788
4.95794
4.95806
4.95826
4.95852
4.95879
4.95923
4.95874
4.88213
4.88281
4.88314
4.88318
4.88309
4.88296
4.88284
4.88276
4.88295
4.88301
4.85697
4.85673
4.8567
4.85672
4.85683
4.85701
4.85729
4.85768
4.85826
4.85862
4.85998
4.85933
4.85905
4.85912
4.85966
4.86061
4.86185
4.86319
4.86435
4.86531
4.86064
4.8603
4.86014
4.86024
4.86063
4.86128
4.86214
4.86316
4.86419
4.86606
4.88622
4.8845
4.88425
4.88472
4.88624
4.88867
4.89185
4.89574
4.89957
4.90368
4.94943
4.95039
4.95109
4.95136
4.95126
4.951
4.95043
4.95004
4.94793
4.95486
5.14776
5.14395
5.14436
5.14554
5.14882
5.15369
5.15953
5.16593
5.16958
5.17832
6.64033
6.63964
6.63936
6.63956
6.64025
6.64138
6.64286
6.64447
6.64594
6.64725
6.22576
6.22604
6.22616
6.22618
6.22616
6.22611
6.22603
6.22595
6.22587
6.2256
4.95354
4.95385
4.95392
4.95401
4.95409
4.95419
4.95433
4.9545
4.95497
4.95443
4.88076
4.88127
4.88145
4.8815
4.88151
4.88154
4.88161
4.88172
4.88209
4.88232
4.85702
4.85695
4.85699
4.85699
4.85697
4.85694
4.85695
4.85704
4.85733
4.85764
4.85811
4.85754
4.85726
4.8573
4.85771
4.85843
4.85936
4.86038
4.86128
4.86207
4.85775
4.8575
4.85737
4.85743
4.85766
4.85804
4.85852
4.85907
4.85959
4.86078
4.87931
4.87801
4.8778
4.87818
4.87928
4.88098
4.88315
4.88575
4.88829
4.89156
4.9385
4.93933
4.94003
4.94023
4.94006
4.93962
4.93868
4.93767
4.93465
4.93998
5.13791
5.13512
5.1356
5.13672
5.13941
5.14327
5.14764
5.1521
5.15353
5.16032
6.36652
6.36609
6.36592
6.36606
6.36649
6.36718
6.36808
6.36901
6.3698
6.37056
5.96951
5.96975
5.96984
5.96985
5.96985
5.96982
5.96977
5.96971
5.96965
5.96939
4.94945
4.94996
4.9501
4.95024
4.95029
4.95031
4.95034
4.95042
4.95096
4.95049
4.87968
4.88002
4.88007
4.88011
4.88017
4.8803
4.88048
4.8807
4.88116
4.88161
4.85775
4.85776
4.85781
4.8578
4.85772
4.8576
4.85748
4.85742
4.85755
4.85787
4.85761
4.85714
4.85689
4.85691
4.85719
4.8577
4.85836
4.85909
4.85977
4.8604
4.85686
4.85666
4.85655
4.85657
4.8567
4.85693
4.85721
4.85752
4.8578
4.85855
4.8744
4.87341
4.87323
4.8735
4.87427
4.87543
4.87689
4.87861
4.88032
4.88298
4.92847
4.92903
4.92965
4.92982
4.9297
4.92931
4.92846
4.92746
4.92449
4.92885
5.12843
5.12645
5.12694
5.128
5.13022
5.13332
5.13669
5.13984
5.13995
5.14542
6.08163
6.08138
6.08129
6.08137
6.08161
6.082
6.08251
6.08299
6.08337
6.0838
5.70315
5.70336
5.70343
5.70344
5.70344
5.70342
5.70339
5.70334
5.70328
5.70305
4.94527
4.94591
4.94613
4.94631
4.94635
4.94631
4.94625
4.94624
4.94682
4.9466
4.87849
4.87862
4.87859
4.87859
4.87866
4.87882
4.87905
4.87933
4.87979
4.88047
4.85858
4.85858
4.85862
4.85859
4.8585
4.85837
4.85824
4.85815
4.8582
4.85856
4.85773
4.85737
4.85718
4.85718
4.85735
4.85767
4.85809
4.85857
4.85905
4.85954
4.85696
4.85681
4.85673
4.85672
4.85679
4.85691
4.85705
4.8572
4.85734
4.85778
4.86974
4.86902
4.86887
4.86903
4.86951
4.87023
4.87112
4.87215
4.87325
4.8753
4.91719
4.91747
4.91795
4.91809
4.918
4.91769
4.91703
4.91621
4.91376
4.91728
5.11656
5.11526
5.11572
5.11668
5.11848
5.12092
5.12347
5.12562
5.12492
5.12921
5.78647
5.78635
5.78629
5.78634
5.78646
5.78666
5.78691
5.78712
5.78728
5.7875
5.42755
5.42772
5.42776
5.42777
5.42777
5.42776
5.42774
5.42771
5.42766
5.42748
4.93959
4.94022
4.94059
4.94082
4.94087
4.94079
4.94062
4.94047
4.94084
4.94113
4.87687
4.87675
4.87664
4.8766
4.87665
4.87681
4.87703
4.87731
4.87771
4.87852
4.8591
4.85904
4.85904
4.85901
4.85895
4.85886
4.85877
4.85871
4.85875
4.85911
4.85817
4.85794
4.85781
4.8578
4.85789
4.85807
4.8583
4.85857
4.85887
4.85921
4.85759
4.8575
4.85745
4.85744
4.85746
4.85749
4.85754
4.85758
4.85762
4.85782
4.86475
4.8643
4.86419
4.86426
4.8645
4.86487
4.8653
4.86581
4.86641
4.86779
4.90348
4.90352
4.90381
4.90386
4.90373
4.90343
4.90289
4.90225
4.90063
4.90323
5.09522
5.09451
5.09489
5.09569
5.09702
5.0988
5.10059
5.10186
5.10072
5.10357
5.48206
5.482
5.48199
5.482
5.48204
5.4821
5.48218
5.48224
5.48229
5.4824
5.14251
5.14261
5.14262
5.14262
5.14262
5.14262
5.14262
5.14261
5.14261
5.14252
4.92474
4.9253
4.92591
4.92623
4.92631
4.9262
4.92591
4.92552
4.92513
4.9258
4.87374
4.87339
4.87319
4.87309
4.8731
4.87322
4.87342
4.87369
4.87408
4.87487
4.85937
4.8593
4.85927
4.85925
4.85922
4.85918
4.85915
4.85914
4.85917
4.85942
4.85897
4.85884
4.85878
4.85877
4.85881
4.85889
4.859
4.85913
4.85929
4.85947
4.85862
4.85859
4.85856
4.85855
4.85855
4.85855
4.85854
4.85853
4.85852
4.85857
4.86085
4.86065
4.8606
4.86062
4.86071
4.86084
4.86099
4.86116
4.8614
4.86205
4.88682
4.88665
4.88671
4.88666
4.88648
4.88617
4.88575
4.88533
4.88476
4.88644
5.04102
5.04073
5.04097
5.04148
5.04227
5.0433
5.04433
5.04489
5.04389
5.04497
5.16845
5.16842
5.16843
5.16843
5.16843
5.16843
5.16843
5.16842
5.1684
5.16846
11.2682
11.383
11.3374
11.1212
82.8116
84.8822
85.3379
85.9839
143.104
148.565
149.028
147.78
202.723
212.142
212.003
207.712
264.37
278.008
276.796
269.344
332.645
350.898
348.796
340.064
395.024
417.65
415.266
407.884
433.063
459.314
457.369
452.8
345.644
368.207
365.657
364.307
11.476
11.7144
11.5583
11.1503
9.71339
9.77264
9.77539
9.73136
76.0938
79.325
80.0772
80.1911
133.879
144.773
145.862
143.69
192.858
214.45
214.972
209.072
256.053
290.846
289.887
279.939
329.396
380.095
378.322
365.466
399.472
466.426
465.467
452.459
445.987
527.414
528.47
517.301
350.485
422.806
420.905
416.08
10.7107
10.9414
10.8709
10.6506
8.77642
8.78936
8.78832
8.77681
26.5459
28.9598
28.2201
25.7097
49.3628
53.7603
52.0916
47.4179
74.5753
81.3207
78.1959
70.6832
103.431
112.951
107.768
96.6919
139.398
152.737
145.108
129.225
177.251
194.587
184.428
163.417
207.473
228.62
216.36
190.835
164.694
181.566
170.08
149.248
9.91189
10.0026
9.97935
9.88014
8.51138
8.51391
8.51457
8.51361
11.4759
11.7243
11.6938
11.4966
21.2164
21.9399
21.8745
21.3327
31.9966
33.4774
33.2228
31.9085
44.5032
46.9282
46.2609
43.7416
60.6189
64.3764
63.0535
58.7417
78.0316
83.1313
80.8614
74.4232
92.548
99.085
95.795
87.1088
71.912
77.0437
73.5291
65.9305
9.44781
9.49222
9.48912
9.44871
8.33233
8.33342
8.33367
8.33302
7.04308
7.13397
7.15879
7.12901
11.6796
11.974
12.056
11.9702
16.8711
17.4827
17.5818
17.3158
22.8339
23.8498
23.8839
23.2811
30.707
32.327
32.2122
31.025
39.2129
41.4415
41.0214
39.0441
46.2482
49.1778
48.3586
45.3804
34.3883
36.6032
35.4114
32.5321
9.09758
9.1215
9.1231
9.10614
8.18201
8.18292
8.18301
8.18225
5.60735
5.62131
5.62634
5.62463
7.45688
7.5259
7.5581
7.55954
9.9377
10.1201
10.1866
10.1617
12.8329
13.1769
13.2623
13.1621
16.7942
17.4084
17.4971
17.2298
21.0418
21.9359
21.9578
21.429
24.4725
25.7217
25.6187
24.6826
17.4745
18.3671
18.0117
17.0079
8.81213
8.82403
8.82639
8.82024
8.0312
8.03208
8.03215
8.03137
5.19733
5.20035
5.20112
5.20014
5.82377
5.83914
5.84753
5.84974
6.91471
6.967
6.99181
6.99295
8.25909
8.37059
8.41444
8.40477
10.2335
10.4603
10.5296
10.4807
12.3577
12.7045
12.7739
12.6546
14.0509
14.5697
14.6155
14.3508
10.2187
10.5545
10.4755
10.184
8.56479
8.57026
8.57233
8.57092
7.87299
7.87386
7.87393
7.87318
5.06348
5.06455
5.0645
5.06356
5.23354
5.2357
5.237
5.23765
5.68446
5.69655
5.70292
5.7043
6.26596
6.29601
6.31035
6.31185
7.19453
7.26987
7.30026
7.29444
8.21576
8.3365
8.37599
8.35703
9.06812
9.26852
9.3127
9.24684
7.33728
7.45
7.44376
7.37745
8.33686
8.33913
8.34059
8.34081
7.70506
7.70588
7.70595
7.70525
5.01346
5.01433
5.01424
5.0133
5.02056
5.02056
5.02055
5.02058
5.20472
5.20693
5.20813
5.20851
5.45567
5.46218
5.46567
5.46677
5.88102
5.90398
5.91443
5.91419
6.35931
6.39518
6.41035
6.41042
6.8063
6.87776
6.90012
6.8851
6.19761
6.23162
6.2359
6.22526
8.1137
8.11449
8.11539
8.11594
7.52664
7.52742
7.52748
7.52683
4.99144
4.99226
4.99219
4.9913
4.93904
4.93888
4.93873
4.93864
5.0098
5.00997
5.01006
5.01012
5.12369
5.12456
5.12509
5.12547
5.32371
5.33077
5.33405
5.33391
5.55998
5.56854
5.57312
5.57504
5.81407
5.83915
5.84819
5.84371
5.69819
5.70583
5.70849
5.70919
7.88808
7.8882
7.8887
7.88923
7.33737
7.3381
7.33815
7.33755
4.97965
4.98042
4.98035
4.9795
4.90616
4.90608
4.90598
4.90587
4.92551
4.92538
4.92531
4.92532
4.98042
4.98027
4.9802
4.98028
5.07689
5.07953
5.08064
5.08028
5.20678
5.20797
5.20905
5.21032
5.36633
5.37623
5.37957
5.37671
5.45399
5.45311
5.45371
5.45597
7.65674
7.65659
7.65686
7.65726
7.13706
7.13771
7.13776
7.13721
4.97187
4.97255
4.97247
4.97167
4.8924
4.89238
4.8923
4.89219
4.88738
4.88725
4.88719
4.88721
4.91581
4.91561
4.91548
4.91547
4.962
4.96333
4.9638
4.96342
5.04272
5.04234
5.04244
5.04314
5.15357
5.15857
5.15974
5.15706
5.325
5.32174
5.32125
5.32318
7.4179
7.41769
7.41782
7.41809
6.92557
6.92615
6.92619
6.92569
4.96583
4.96641
4.96631
4.96555
4.88649
4.88649
4.88642
4.8863
4.86977
4.86968
4.86965
4.86968
4.88599
4.88587
4.88578
4.88574
4.90708
4.90794
4.9082
4.90786
4.96379
4.96331
4.96322
4.96356
5.0488
5.05213
5.0525
5.04985
5.25315
5.24964
5.24875
5.25005
7.1704
7.17025
7.17031
7.17044
6.70286
6.70336
6.70338
6.70294
4.96069
4.96116
4.96103
4.96032
4.88392
4.88392
4.88386
4.88374
4.86178
4.86173
4.86172
4.86174
4.87204
4.87199
4.87193
4.87189
4.88069
4.88131
4.88147
4.88119
4.92487
4.92463
4.92455
4.92465
4.99618
4.99889
4.99895
4.99633
5.21121
5.20819
5.20722
5.20787
6.91348
6.91345
6.91347
6.91348
6.46892
6.46934
6.46935
6.46896
4.95613
4.9565
4.95633
4.95568
4.8828
4.88282
4.88277
4.88263
4.85851
4.8585
4.8585
4.85851
4.86543
4.86542
4.86539
4.86535
4.86814
4.86858
4.86868
4.86845
4.90488
4.9049
4.90487
4.90479
4.96893
4.97141
4.97135
4.96871
5.18516
5.18292
5.18202
5.18203
6.64665
6.64676
6.64677
6.64666
6.2239
6.22423
6.22422
6.22389
4.95208
4.95234
4.95215
4.95155
4.8823
4.88235
4.88231
4.88215
4.85768
4.8577
4.85771
4.8577
4.86221
4.86222
4.86221
4.86218
4.86226
4.86257
4.86263
4.86243
4.89343
4.89367
4.89368
4.89346
4.95325
4.9557
4.95559
4.95289
5.16724
5.16593
5.16517
5.16454
6.36969
6.36994
6.36995
6.36974
5.96814
5.96836
5.96832
5.96806
4.9485
4.94867
4.94848
4.94793
4.88192
4.88205
4.88202
4.88183
4.85808
4.85814
4.85815
4.85811
4.86058
4.8606
4.8606
4.86058
4.85955
4.85975
4.85978
4.85963
4.88522
4.88561
4.88565
4.88534
4.94142
4.94397
4.94386
4.94106
5.15249
5.1522
5.15165
5.15037
6.08274
6.08311
6.08312
6.08284
5.70231
5.70243
5.70236
5.70217
4.94524
4.94542
4.94525
4.94473
4.88123
4.88147
4.88146
4.8812
4.85891
4.85902
4.85903
4.85896
4.85973
4.85977
4.85978
4.85977
4.85837
4.85849
4.8585
4.8584
4.87756
4.87801
4.87807
4.87773
4.92858
4.93125
4.93118
4.92835
5.13618
5.13711
5.13683
5.13485
5.78633
5.78678
5.7868
5.78649
5.42736
5.42733
5.42725
5.42714
4.94106
4.94145
4.94134
4.94073
4.8796
4.87994
4.87994
4.87962
4.85952
4.85964
4.85964
4.85956
4.8594
4.85945
4.85947
4.85947
4.8581
4.85815
4.85815
4.8581
4.86965
4.87006
4.87012
4.86984
4.91177
4.91418
4.91416
4.91169
5.10965
5.11209
5.11216
5.10932
5.48136
5.48188
5.48191
5.48157
5.14312
5.14288
5.14279
5.14286
4.92743
4.92831
4.92829
4.92732
4.87564
4.87588
4.87586
4.87561
4.85967
4.85974
4.85975
4.85968
4.85961
4.85965
4.85967
4.85967
4.85864
4.85865
4.85865
4.85864
4.86307
4.8633
4.86334
4.8632
4.89056
4.89172
4.89169
4.89048
5.04792
5.05148
5.0518
5.04833
5.16795
5.1685
5.16852
5.16814
10.1121
9.36643
9.05438
8.94185
8.87735
8.83187
8.80158
8.78454
8.77511
8.76953
103.652
49.1071
35.7379
29.9416
24.5455
19.9406
16.3572
13.6858
11.7797
10.4183
160.895
70.8365
51.0781
43.7263
37.1771
31.4148
26.5861
22.7089
19.6675
17.2938
206.332
82.5617
55.9617
46.7081
39.344
32.7522
27.2185
22.829
19.4406
16.8549
241.929
88.9038
58.8025
47.9431
40.056
32.7182
26.6631
21.9453
18.3624
15.7201
277.905
94.6391
60.9467
48.2772
39.8204
31.7657
25.3365
20.4541
16.8755
14.328
306.966
98.1066
61.661
47.7534
39.0172
30.4955
23.9256
19.0624
15.5876
13.2076
315.109
93.7073
56.6014
42.2024
33.891
25.766
19.9097
15.7881
13.0412
11.2277
224.414
56.1065
30.5287
21.1052
16.2738
12.2179
9.95142
8.61102
7.80308
7.27994
9.56841
9.54361
9.38826
9.36213
9.31558
9.2895
9.26879
9.25778
9.25036
9.24399
9.3666
9.05658
8.90438
8.81878
8.76483
8.72919
8.70605
8.6923
8.68491
8.68026
53.0975
28.6745
22.56
19.4497
16.6675
14.1964
12.1622
10.6004
9.46138
8.6694
89.974
46.2713
35.8004
31.0182
27.1782
23.5069
20.2901
17.6329
15.5061
13.8874
122.213
58.5945
42.8554
35.6249
30.542
25.7601
21.692
18.4213
15.8732
13.9879
152.484
68.7365
47.8379
38.505
32.3707
26.6668
21.9691
18.293
15.4831
13.4752
186.348
78.8342
52.1191
40.4548
33.2392
26.6541
21.4428
17.4886
14.5872
12.5899
217.107
86.4262
54.6822
41.2246
33.3301
26.1587
20.6844
16.6522
13.7657
11.8514
233.112
86.7037
51.8875
37.4595
29.5559
22.5603
17.5625
14.0764
11.7596
10.2819
167.353
54.7259
29.0452
19.3681
14.6861
11.2211
9.27133
8.12779
7.43271
7.00271
9.81756
9.50102
9.32993
9.26669
9.21184
9.17862
9.15451
9.13979
9.12942
9.12046
8.73727
8.69588
8.66314
8.6359
8.61458
8.59912
8.58881
8.58263
8.57922
8.5768
19.9514
16.5818
14.5067
12.6866
11.116
9.81261
8.79835
8.04972
7.5112
7.13857
35.9215
28.7166
24.928
21.6904
18.9145
16.5067
14.5125
12.9091
11.6345
10.6728
51.0295
37.9324
31.536
26.3455
22.2555
18.8375
16.0958
13.9481
12.2899
11.077
66.1086
45.6778
36.6164
29.5822
24.37
20.1187
16.809
14.2882
12.3785
11.0269
83.1948
53.3192
41.1227
32.0669
25.7215
20.6512
16.835
14.0159
11.9721
10.5806
99.0819
59.1572
44.1222
33.4355
26.3182
20.6919
16.5885
13.6487
11.5676
10.1986
108.374
59.7222
42.5704
30.9775
23.7465
18.2053
14.4164
11.8522
10.168
9.09708
75.906
36.6251
23.8523
16.2621
12.2186
9.67827
8.2874
7.47032
6.96216
6.64341
9.57049
9.37607
9.24218
9.16238
9.10481
9.06882
9.04378
9.02671
9.01408
9.00323
8.50882
8.49877
8.48771
8.47777
8.47023
8.46509
8.46189
8.46027
8.45988
8.45945
10.9434
10.1368
9.28707
8.44179
7.73407
7.1911
6.79225
6.50432
6.29587
6.15078
19.8695
18.0323
16.1795
14.3056
12.6896
11.3616
10.3006
9.46546
8.80672
8.31231
28.4757
24.6321
21.1881
17.9864
15.3991
13.3279
11.7053
10.4534
9.49574
8.80118
37.2351
30.6582
25.4222
20.856
17.3619
14.6363
12.5612
11.0087
9.84225
9.01907
47.455
36.9542
29.5084
23.3472
18.8554
15.4334
12.9113
11.0842
9.77379
8.88431
57.0457
42.0514
32.5302
24.9957
19.7468
15.8226
13.0212
11.0582
9.67953
8.76953
62.7706
43.2354
32.0636
23.6937
18.2223
14.2978
11.6746
9.93828
8.8016
8.06986
42.7205
26.1843
17.9589
12.7831
10.0185
8.38851
7.47162
6.91774
6.55943
6.32927
9.32591
9.18739
9.0803
9.01067
8.96249
8.93086
8.90814
8.89183
8.87952
8.86912
8.33287
8.33138
8.32986
8.32869
8.32799
8.32769
8.32772
8.32818
8.3293
8.33036
6.9998
6.76028
6.50708
6.26832
6.06977
5.91327
5.79291
5.70134
5.63208
5.58413
11.6122
10.9274
10.1532
9.37505
8.68817
8.11606
7.65717
7.296
7.00791
6.79017
16.4393
14.9571
13.3746
11.8586
10.5716
9.52186
8.69428
8.0567
7.56899
7.21667
21.5325
18.9299
16.3528
14.0074
12.1101
10.613
9.47186
8.62387
7.98448
7.53078
27.7598
23.4334
19.4981
16.0789
13.4381
11.4184
9.93141
8.86274
8.09591
7.57285
33.7222
27.3654
22.0497
17.6301
14.3712
11.9499
10.2275
9.03245
8.18776
7.62211
37.3762
28.7689
22.2438
17.1411
13.6275
11.1533
9.50578
8.42013
7.69975
7.22558
24.5124
17.3204
12.7998
9.95144
8.36035
7.40314
6.82915
6.46676
6.22058
6.05914
9.05184
8.96878
8.8972
8.84616
8.80876
8.78197
8.76177
8.7466
8.73488
8.72513
8.18285
8.183
8.18336
8.18394
8.18467
8.18546
8.18627
8.18726
8.18875
8.19053
5.6085
5.56555
5.5141
5.46181
5.41454
5.37406
5.34058
5.31369
5.2932
5.28027
7.50512
7.31464
7.06602
6.80647
6.57127
6.37324
6.21338
6.08583
5.9795
5.89674
9.9775
9.4719
8.85027
8.22708
7.67864
7.2247
6.86308
6.58109
6.36155
6.20219
12.7344
11.7717
10.6586
9.59726
8.70551
7.99494
7.45045
7.04349
6.72901
6.50162
16.3234
14.6036
12.7472
11.0562
9.69532
8.64652
7.86996
7.30838
6.89809
6.61439
19.8574
17.2358
14.5735
12.2606
10.4827
9.15796
8.21059
7.5497
7.07009
6.74083
22.1078
18.406
14.9857
12.2158
10.2329
8.83908
7.90006
7.27138
6.84162
6.55117
14.3847
11.5296
9.42206
8.04844
7.21389
6.67896
6.3324
6.10283
5.93872
5.82964
8.79684
8.75075
8.70656
8.67112
8.6428
8.62079
8.60341
8.58983
8.57909
8.57029
8.03209
8.03243
8.03299
8.03374
8.03459
8.03544
8.03626
8.0372
8.03862
8.04043
5.19697
5.18891
5.1792
5.1685
5.15785
5.14783
5.13893
5.13158
5.12659
5.12476
5.83909
5.79337
5.73089
5.66371
5.6014
5.54797
5.5041
5.46785
5.43422
5.40623
6.95013
6.79213
6.58413
6.36806
6.17141
6.00357
5.86512
5.75289
5.66207
5.5955
8.29733
7.96206
7.54293
7.1309
6.77463
6.48472
6.25705
6.08197
5.93944
5.83295
10.2191
9.5506
8.76613
8.02916
7.41784
6.93796
6.57406
6.3032
6.09776
5.95305
12.1868
11.1201
9.91952
8.84536
7.99312
7.34843
6.87666
6.53874
6.2816
6.09914
13.5137
11.9422
10.3327
8.9943
8.00166
7.29037
6.79519
6.45158
6.20693
6.03739
9.4212
8.38138
7.50395
6.88271
6.46076
6.16782
5.96302
5.82102
5.71417
5.64279
8.56138
8.53686
8.51015
8.48589
8.46485
8.44734
8.4329
8.42123
8.41175
8.40412
7.87389
7.87416
7.87458
7.87515
7.87579
7.87643
7.87702
7.87772
7.87888
7.88047
5.06311
5.06138
5.05938
5.05703
5.0544
5.05165
5.04907
5.04704
5.04635
5.04732
5.23585
5.22747
5.21569
5.20254
5.19018
5.17974
5.17149
5.16446
5.15566
5.14707
5.69461
5.65159
5.59147
5.52548
5.46199
5.40466
5.35457
5.31165
5.27532
5.24864
6.28727
6.18691
6.05304
5.91536
5.79067
5.68447
5.59713
5.52687
5.46528
5.41725
7.22064
6.98696
6.69807
6.41549
6.17065
5.97002
5.8105
5.68601
5.58704
5.51634
8.22747
7.83357
7.35838
6.91769
6.55308
6.26627
6.04664
5.88234
5.74937
5.65155
8.98209
8.36434
7.69218
7.11124
6.65868
6.31959
6.07114
5.89052
5.75629
5.66162
7.18345
6.82087
6.46733
6.18713
5.97478
5.81545
5.69612
5.60992
5.54167
5.49623
8.33662
8.32327
8.30694
8.29049
8.27522
8.26177
8.25022
8.24057
8.23255
8.22617
7.70593
7.70612
7.70639
7.70677
7.7072
7.7076
7.70794
7.70839
7.70927
7.71061
5.01338
5.01264
5.01189
5.01105
5.01006
5.00895
5.00792
5.00724
5.00751
5.00881
5.02014
5.0191
5.01796
5.01678
5.01602
5.01598
5.0167
5.01742
5.016
5.01359
5.20601
5.19463
5.17773
5.15781
5.1373
5.11753
5.09916
5.08247
5.0678
5.05715
5.46137
5.43436
5.39564
5.35308
5.31197
5.27485
5.2427
5.21559
5.18948
5.168
5.89242
5.81719
5.72014
5.61898
5.52555
5.44418
5.37564
5.3193
5.27246
5.23892
6.37972
6.251
6.08245
5.9164
5.76988
5.64751
5.5483
5.47041
5.40296
5.35141
6.80261
6.57862
6.32222
6.08607
5.88944
5.73301
5.61181
5.51951
5.44823
5.39761
6.17672
6.04541
5.89996
5.77113
5.66378
5.57732
5.50844
5.45687
5.41384
5.38555
8.11368
8.10617
8.09613
8.08517
8.07437
8.06439