/*--------------------------------*- C++ -*----------------------------------*\
| =========                 |                                                 |
| \\      /  F ield         | foam-extend: Open Source CFD                    |
|  \\    /   O peration     | Version:     4.0                                |
|   \\  /    A nd           | Web:         http://www.foam-extend.org         |
|    \\/     M anipulation  |                                                 |
\*---------------------------------------------------------------------------*/
FoamFile
{
    version     2.0;
    format      ascii;
    class       volScalarField;
    location    "1450";
    object      MaU;
}
// * * * * * * * * * * * * * * * * * * * * * * * * * * * * * * * * * * * * * //

dimensions      [0 0 0 0 0 0 0];

internalField   nonuniform List<scalar> 
34480
(
0.623575
0.624575
0.625114
0.625231
0.62493
0.624136
0.62271
0.619971
0.613884
0.608102
0.627014
0.627845
0.62831
0.628346
0.627791
0.626501
0.6245
0.62154
0.614525
0.608979
0.629225
0.629988
0.630364
0.630274
0.629541
0.628195
0.626424
0.624134
0.617103
0.611994
0.629235
0.630019
0.630464
0.630506
0.629998
0.629057
0.627788
0.626215
0.619575
0.614943
0.629708
0.630597
0.631183
0.631445
0.631262
0.630801
0.630079
0.629278
0.623426
0.619282
0.629312
0.630261
0.630933
0.631327
0.631382
0.631328
0.631142
0.631165
0.626496
0.623173
0.629523
0.630616
0.631397
0.631933
0.632199
0.632487
0.632796
0.633636
0.630415
0.627894
0.628941
0.630076
0.630816
0.631238
0.63139
0.631632
0.632092
0.63347
0.631763
0.63043
0.628707
0.629998
0.63085
0.631407
0.631735
0.632135
0.632842
0.634713
0.634275
0.632852
0.624912
0.625945
0.625992
0.625124
0.623511
0.62153
0.619633
0.619091
0.618298
0.619107
0.613699
0.615163
0.615738
0.615493
0.614353
0.612041
0.607931
0.600666
0.589961
0.576112
0.618329
0.61964
0.620169
0.61991
0.618671
0.616079
0.611541
0.603696
0.591039
0.574882
0.621419
0.622646
0.623121
0.622828
0.621515
0.618876
0.614409
0.606726
0.593225
0.575893
0.622239
0.623478
0.624019
0.62386
0.622756
0.620462
0.616395
0.609144
0.595257
0.577509
0.62339
0.624705
0.625364
0.625413
0.624609
0.62277
0.619225
0.61262
0.598831
0.581242
0.623531
0.624891
0.625631
0.625818
0.625251
0.623828
0.62083
0.615013
0.601777
0.58498
0.624188
0.625657
0.626494
0.626827
0.626478
0.625428
0.622966
0.618004
0.605695
0.589974
0.623926
0.625425
0.626232
0.626483
0.62608
0.625092
0.622922
0.618675
0.607554
0.593524
0.623937
0.625542
0.62644
0.626805
0.62658
0.625824
0.624044
0.620541
0.610677
0.59745
0.620332
0.621753
0.622095
0.621441
0.619845
0.617456
0.614001
0.609198
0.599806
0.589703
0.606088
0.607656
0.608222
0.607904
0.606665
0.604348
0.600656
0.595091
0.58702
0.576832
0.611001
0.612537
0.613098
0.612723
0.611294
0.608546
0.603973
0.596716
0.585325
0.570162
0.61436
0.615895
0.61645
0.616072
0.614579
0.611652
0.606671
0.598508
0.584491
0.564665
0.61567
0.617268
0.6179
0.617636
0.616272
0.613487
0.608502
0.599916
0.58375
0.559825
0.617296
0.618984
0.619726
0.619644
0.618512
0.616034
0.61129
0.602687
0.585025
0.557816
0.617854
0.6196
0.620429
0.62048
0.619551
0.617397
0.612997
0.604675
0.586129
0.556554
0.618872
0.620712
0.621633
0.621831
0.621105
0.619277
0.615286
0.607439
0.588583
0.557346
0.618909
0.620775
0.621682
0.621826
0.621073
0.619332
0.615611
0.608292
0.589649
0.557574
0.619176
0.621106
0.622082
0.622316
0.621692
0.620143
0.616783
0.610126
0.592126
0.558654
0.615812
0.617572
0.618137
0.617611
0.615979
0.61324
0.608732
0.601304
0.583859
0.550801
0.600541
0.601916
0.602389
0.602082
0.600992
0.599062
0.596193
0.59229
0.587331
0.581801
0.605187
0.606654
0.607165
0.606758
0.60536
0.602825
0.598902
0.593248
0.585419
0.576486
0.60839
0.609978
0.610525
0.610086
0.608536
0.605649
0.600998
0.593956
0.58336
0.570415
0.609897
0.611622
0.612258
0.611885
0.610342
0.607357
0.602311
0.594269
0.581018
0.5638
0.611788
0.613641
0.614381
0.614143
0.612725
0.609842
0.60469
0.596059
0.58056
0.559351
0.612635
0.614572
0.6154
0.615272
0.613985
0.61127
0.606174
0.597287
0.579995
0.555312
0.613924
0.615959
0.61687
0.616871
0.615741
0.613248
0.608335
0.599449
0.580879
0.553255
0.614216
0.616277
0.617186
0.617152
0.616001
0.61356
0.60878
0.600064
0.580803
0.550924
0.614704
0.6168
0.617761
0.617801
0.616757
0.61445
0.609858
0.601475
0.582187
0.549774
0.611587
0.613529
0.614203
0.613702
0.611953
0.608832
0.603473
0.594483
0.575388
0.541775
0.596689
0.597771
0.598132
0.597896
0.597082
0.5957
0.593764
0.591344
0.588591
0.585873
0.600777
0.602019
0.602451
0.602096
0.600923
0.598879
0.595894
0.591947
0.587095
0.5823
0.603524
0.604999
0.605506
0.605088
0.603674
0.601138
0.59727
0.591851
0.584603
0.576973
0.604958
0.606654
0.607267
0.606866
0.60534
0.602501
0.597962
0.591265
0.581481
0.570426
0.606888
0.60877
0.609491
0.609174
0.607659
0.604719
0.599774
0.592116
0.579942
0.565304
0.607862
0.609873
0.610687
0.610449
0.60898
0.606035
0.600863
0.592539
0.578222
0.560105
0.609298
0.611429
0.612326
0.612192
0.610817
0.607962
0.602729
0.594004
0.577906
0.556532
0.609766
0.611937
0.612846
0.612686
0.611285
0.60842
0.603147
0.594235
0.576867
0.552651
0.610424
0.612621
0.613569
0.613469
0.612142
0.609365
0.604145
0.5952
0.5772
0.549913
0.607534
0.609591
0.610343
0.609863
0.608049
0.604709
0.598965
0.589496
0.57127
0.541904
0.594052
0.594856
0.595114
0.594952
0.594399
0.593489
0.59227
0.590835
0.589319
0.587868
0.597542
0.598501
0.598839
0.598563
0.597667
0.596154
0.594048
0.591444
0.588545
0.585958
0.599717
0.60097
0.601405
0.601048
0.599865
0.59781
0.594829
0.590938
0.586248
0.581812
0.600911
0.602447
0.603001
0.602621
0.601239
0.598754
0.594984
0.589802
0.583021
0.576176
0.602704
0.604481
0.605149
0.604807
0.603337
0.600591
0.596222
0.589927
0.581006
0.571419
0.603664
0.60562
0.606389
0.606089
0.604581
0.601675
0.596865
0.589661
0.578661
0.566191
0.605134
0.607244
0.608099
0.607874
0.606388
0.603438
0.598356
0.590469
0.577587
0.562213
0.605689
0.607865
0.608745
0.608497
0.606963
0.603932
0.598647
0.590291
0.575904
0.55779
0.606463
0.60867
0.609583
0.609379
0.607886
0.604881
0.59953
0.590876
0.57551
0.554405
0.603766
0.605847
0.606633
0.606169
0.604343
0.600944
0.595204
0.586054
0.570187
0.546869
0.59224
0.592827
0.593003
0.592902
0.592552
0.591989
0.591259
0.590438
0.589607
0.588777
0.595212
0.595902
0.596149
0.595952
0.595317
0.594268
0.592864
0.591216
0.589513
0.588107
0.596816
0.597807
0.598157
0.597877
0.596955
0.595395
0.593225
0.590554
0.587603
0.58503
0.597697
0.598998
0.599472
0.599144
0.597979
0.595944
0.592993
0.589181
0.584645
0.580445
0.599239
0.600819
0.601409
0.601083
0.599761
0.597367
0.593741
0.588836
0.58256
0.57639
0.60008
0.601879
0.602578
0.602261
0.60083
0.598164
0.593972
0.58808
0.579999
0.571629
0.601491
0.60348
0.604268
0.603996
0.602522
0.599698
0.595087
0.588368
0.578548
0.567836
0.60205
0.604133
0.604959
0.604661
0.603112
0.600136
0.595201
0.587841
0.57653
0.563492
0.602889
0.605019
0.605876
0.605608
0.604065
0.601055
0.595955
0.588139
0.57574
0.560159
0.600343
0.602364
0.603146
0.602701
0.600927
0.597631
0.592213
0.583916
0.570876
0.553366
0.590963
0.591399
0.591518
0.591458
0.591247
0.590914
0.59049
0.590027
0.589563
0.589032
0.593536
0.594007
0.594179
0.594047
0.593621
0.59293
0.592031
0.591017
0.590022
0.58924
0.59464
0.595379
0.595644
0.595439
0.594761
0.593638
0.592127
0.590352
0.588518
0.587015
0.595211
0.596252
0.596636
0.596372
0.595448
0.59387
0.591667
0.588963
0.585987
0.583415
0.596449
0.59778
0.598278
0.597992
0.596874
0.594903
0.59204
0.58837
0.584065
0.580127
0.597108
0.598682
0.59929
0.598989
0.597715
0.595409
0.591942
0.587329
0.581567
0.576024
0.598398
0.600188
0.600889
0.600607
0.599238
0.596694
0.592733
0.587269
0.580031
0.572704
0.598888
0.600796
0.601546
0.601233
0.599762
0.597013
0.592655
0.586488
0.577922
0.568763
0.599751
0.601729
0.60251
0.602214
0.600717
0.597881
0.593287
0.586596
0.576991
0.565857
0.597314
0.599199
0.599942
0.599526
0.597865
0.594807
0.589935
0.582786
0.572519
0.559891
0.590028
0.590366
0.590448
0.590416
0.590292
0.5901
0.589859
0.5896
0.589334
0.588957
0.592319
0.592627
0.592743
0.592659
0.592385
0.591947
0.591389
0.590778
0.590198
0.589755
0.593015
0.59354
0.593731
0.593588
0.593113
0.592339
0.591325
0.590177
0.589049
0.588163
0.593325
0.594118
0.594415
0.594216
0.593518
0.592349
0.590768
0.588906
0.586978
0.585401
0.594254
0.595322
0.595725
0.59549
0.594593
0.593046
0.590878
0.588222
0.585318
0.582816
0.594706
0.596021
0.59653
0.596266
0.59519
0.593292
0.590547
0.587065
0.58304
0.579404
0.595844
0.597388
0.597989
0.597723
0.596521
0.594344
0.591093
0.586818
0.581612
0.576669
0.596208
0.597887
0.598543
0.598242
0.596918
0.594505
0.590832
0.585876
0.57957
0.573256
0.597071
0.598839
0.599529
0.599235
0.59786
0.59532
0.591374
0.585892
0.578681
0.570923
0.594704
0.596395
0.597073
0.596695
0.595198
0.592478
0.588279
0.58238
0.574566
0.565741
0.589318
0.589594
0.589651
0.589635
0.589565
0.589456
0.58932
0.589175
0.589016
0.588721
0.591417
0.591614
0.59169
0.591639
0.591469
0.591199
0.590861
0.590497
0.590157
0.5899
0.591794
0.592151
0.592283
0.592187
0.591868
0.591353
0.590693
0.589967
0.589278
0.588754
0.591916
0.592495
0.592716
0.592572
0.592068
0.591234
0.590136
0.588885
0.587648
0.586679
0.592558
0.59338
0.593692
0.59351
0.592821
0.591656
0.590072
0.588204
0.586273
0.584688
0.592812
0.593864
0.594274
0.594055
0.593189
0.591692
0.5896
0.587051
0.584287
0.58192
0.593792
0.595072
0.595569
0.595337
0.59433
0.592549
0.589984
0.586751
0.583079
0.579781
0.593993
0.595411
0.595966
0.595694
0.594558
0.592532
0.589562
0.585722
0.581186
0.576904
0.594848
0.596371
0.596961
0.596689
0.595485
0.593311
0.590059
0.585737
0.580462
0.575168
0.59252
0.593977
0.594572
0.594241
0.592941
0.590615
0.587137
0.58245
0.576672
0.570664
0.588758
0.588995
0.589037
0.58903
0.58899
0.588929
0.588853
0.588771
0.588672
0.588423
0.590734
0.590857
0.590907
0.590877
0.590774
0.590611
0.59041
0.590194
0.589994
0.58984
0.59086
0.591094
0.591182
0.59112
0.590912
0.59058
0.590161
0.589711
0.589295
0.588983
0.590874
0.591281
0.59144
0.591341
0.590989
0.590415
0.589673
0.58885
0.588063
0.587466
0.591267
0.591875
0.592108
0.591972
0.591464
0.590618
0.589497
0.588216
0.586948
0.585948
0.591348
0.592157
0.592475
0.592302
0.591633
0.590498
0.588956
0.587142
0.585272
0.583742
0.592188
0.593209
0.593606
0.593414
0.592608
0.591208
0.589254
0.586882
0.584337
0.582159
0.592201
0.593353
0.593804
0.593573
0.592639
0.591008
0.588691
0.585813
0.582617
0.579756
0.593059
0.594324
0.594811
0.594575
0.593566
0.591782
0.589201
0.585908
0.582136
0.578585
0.590744
0.59195
0.592453
0.592173
0.591086
0.589172
0.586394
0.582799
0.578633
0.574636
0.588305
0.588517
0.588548
0.588546
0.588523
0.58849
0.588447
0.5884
0.588334
0.588114
0.590207
0.590285
0.590318
0.590301
0.59024
0.590143
0.590024
0.589896
0.589776
0.589679
0.590127
0.590275
0.590331
0.590292
0.59016
0.589952
0.589692
0.589418
0.589169
0.588985
0.590108
0.590386
0.590498
0.590432
0.590195
0.589811
0.589321
0.588788
0.588292
0.587923
0.590292
0.590726
0.590892
0.590795
0.590434
0.58984
0.589068
0.588209
0.587388
0.586761
0.590237
0.590837
0.591074
0.590944
0.590447
0.589616
0.588513
0.587255
0.586008
0.585027
0.590967
0.591752
0.592058
0.591908
0.591287
0.590227
0.588788
0.587094
0.585359
0.583934
0.590777
0.591677
0.592031
0.591843
0.591106
0.589842
0.588097
0.586004
0.583797
0.581912
0.591665
0.592679
0.593067
0.592873
0.592062
0.590655
0.588678
0.586246
0.583606
0.581258
0.589342
0.5903
0.590708
0.590481
0.589606
0.588089
0.585946
0.583277
0.580344
0.577742
0.587933
0.588125
0.588149
0.58815
0.588137
0.588119
0.588094
0.588067
0.588021
0.587822
0.5898
0.589851
0.589874
0.589864
0.589828
0.589771
0.5897
0.589624
0.589549
0.589484
0.589532
0.589622
0.589656
0.589631
0.58955
0.589422
0.589265
0.589101
0.588956
0.588849
0.589551
0.589736
0.589813
0.589771
0.589616
0.589365
0.589049
0.588709
0.588398
0.58817
0.589559
0.589857
0.589972
0.589905
0.589656
0.589252
0.588735
0.588171
0.587647
0.587258
0.589408
0.589837
0.590009
0.589915
0.589558
0.58897
0.588203
0.58735
0.58653
0.585907
0.59006
0.590644
0.590872
0.590759
0.590299
0.589525
0.588496
0.587318
0.586155
0.58523
0.58966
0.590335
0.590604
0.590457
0.589897
0.588953
0.58768
0.586203
0.584707
0.583484
0.59062
0.591405
0.591703
0.591552
0.590925
0.589856
0.588393
0.586649
0.584838
0.583306
0.588266
0.588994
0.589314
0.589136
0.588458
0.587299
0.585702
0.583781
0.581762
0.580105
0.587623
0.5878
0.587817
0.58782
0.587812
0.587802
0.587788
0.587772
0.587739
0.587557
0.589494
0.589529
0.589546
0.589541
0.58952
0.589486
0.589443
0.589396
0.589347
0.589299
0.58903
0.589082
0.5891
0.589084
0.589035
0.588958
0.588866
0.588771
0.58869
0.588631
0.589151
0.589273
0.589325
0.5893
0.589201
0.589041
0.58884
0.588626
0.588431
0.58829
0.589008
0.589206
0.589283
0.589237
0.589071
0.588803
0.588466
0.588105
0.587776
0.587538
0.5888
0.589097
0.589217
0.589152
0.588904
0.5885
0.587982
0.587417
0.586886
0.586495
0.589405
0.589824
0.589989
0.589908
0.589579
0.589032
0.588319
0.587521
0.586755
0.58616
0.588785
0.589272
0.589468
0.589358
0.588948
0.588267
0.587368
0.586354
0.58536
0.58458
0.589873
0.590461
0.590682
0.590569
0.590104
0.589321
0.588273
0.587058
0.585842
0.584852
0.587458
0.587988
0.58823
0.588095
0.587588
0.586736
0.585583
0.584243
0.582884
0.581854
0.587357
0.587517
0.587529
0.587532
0.587528
0.587523
0.587515
0.587505
0.587481
0.587317
0.589284
0.58931
0.589324
0.589322
0.58931
0.589289
0.589262
0.589231
0.589195
0.589156
0.588588
0.588615
0.588624
0.588613
0.588583
0.588538
0.588486
0.588434
0.588391
0.588363
0.588873
0.588952
0.588987
0.588973
0.588912
0.588811
0.588686
0.588552
0.588432
0.588343
0.588598
0.588725
0.588774
0.588744
0.588636
0.588464
0.588249
0.588023
0.58782
0.587679
0.588367
0.588567
0.588648
0.588604
0.588438
0.588169
0.587828
0.587461
0.587122
0.58688
0.588945
0.589235
0.58935
0.589293
0.589066
0.588693
0.588214
0.587687
0.587194
0.586814
0.588092
0.58843
0.588568
0.588489
0.5882
0.587725
0.587109
0.586431
0.585783
0.585298
0.589378
0.589805
0.589963
0.589882
0.58955
0.588998
0.588272
0.587449
0.58665
0.586014
0.586852
0.587219
0.587396
0.587298
0.586934
0.586328
0.585524
0.584617
0.583722
0.583102
0.587095
0.587238
0.587246
0.587248
0.587246
0.587243
0.587239
0.587233
0.587217
0.587071
0.589176
0.589199
0.589211
0.589211
0.589203
0.589189
0.589171
0.589149
0.58912
0.589082
0.588186
0.588197
0.588198
0.58819
0.588172
0.588147
0.588118
0.588092
0.588073
0.588066
0.588692
0.588743
0.588766
0.588758
0.588721
0.58866
0.588583
0.588501
0.588427
0.588371
0.588304
0.588383
0.588414
0.588395
0.588327
0.588219
0.588085
0.587946
0.587824
0.587742
0.588081
0.588211
0.588266
0.588238
0.58813
0.587955
0.587735
0.587502
0.587289
0.58714
0.588635
0.588827
0.588903
0.588864
0.588713
0.588467
0.588155
0.587818
0.587509
0.587271
0.587539
0.587764
0.587859
0.587804
0.587608
0.587287
0.586876
0.586435
0.586018
0.585726
0.589101
0.589403
0.589512
0.589456
0.589228
0.588852
0.588365
0.587823
0.587311
0.586903
0.586361
0.586604
0.586729
0.586661
0.586409
0.585993
0.585449
0.584854
0.584276
0.583918
0.586739
0.586861
0.586865
0.586867
0.586866
0.586865
0.586864
0.586861
0.586852
0.586729
0.589196
0.58922
0.58923
0.589231
0.589226
0.589216
0.589203
0.589184
0.589157
0.589116
0.587821
0.587822
0.587821
0.587815
0.587805
0.587791
0.587776
0.587764
0.587757
0.587763
0.588591
0.588623
0.588636
0.588631
0.588609
0.588572
0.588527
0.588479
0.588435
0.588402
0.58812
0.588168
0.588188
0.588176
0.588135
0.588068
0.587987
0.587902
0.587829
0.587783
0.587929
0.588013
0.588049
0.588032
0.587964
0.587853
0.587715
0.587569
0.587435
0.587343
0.588445
0.588565
0.588612
0.588586
0.588488
0.588331
0.588135
0.587926
0.587741
0.587597
0.587121
0.587268
0.587332
0.587297
0.587168
0.586957
0.586689
0.586406
0.586138
0.585967
0.589037
0.589243
0.589316
0.589278
0.589126
0.588879
0.588564
0.588217
0.587899
0.587634
0.58585
0.586002
0.58609
0.586044
0.585876
0.5856
0.585242
0.584862
0.584492
0.584299
0.586068
0.586164
0.586166
0.586167
0.586167
0.586167
0.586168
0.586169
0.586166
0.586071
0.589413
0.589439
0.589446
0.589447
0.589444
0.589436
0.589426
0.58941
0.589386
0.589337
0.587541
0.587541
0.587543
0.587542
0.587536
0.587528
0.587518
0.587509
0.587504
0.587513
0.588554
0.58857
0.588575
0.58857
0.588557
0.588536
0.588511
0.588485
0.588464
0.588447
0.588043
0.588074
0.588088
0.588082
0.588057
0.588017
0.587967
0.587915
0.587869
0.587841
0.587904
0.58796
0.587983
0.587973
0.587931
0.587862
0.587776
0.587685
0.5876
0.587541
0.58836
0.58843
0.588457
0.588438
0.588376
0.588278
0.588158
0.588033
0.587928
0.587848
0.586916
0.587015
0.587061
0.58704
0.586957
0.586821
0.586648
0.586464
0.586284
0.586179
0.589237
0.589371
0.589417
0.589391
0.589292
0.589133
0.588935
0.588721
0.588532
0.588358
0.585089
0.585183
0.585244
0.585215
0.585105
0.584925
0.584694
0.584455
0.584211
0.584118
0.584772
0.584837
0.584841
0.584843
0.584844
0.584845
0.584845
0.584844
0.584843
0.584776
0.589968
0.589984
0.589981
0.589976
0.589971
0.589967
0.589964
0.589961
0.589951
0.589905
0.58746
0.587473
0.587485
0.587491
0.58749
0.587484
0.587472
0.587457
0.587439
0.587432
0.588553
0.588555
0.588552
0.588546
0.588537
0.588525
0.588513
0.588503
0.588499
0.588499
0.588058
0.58808
0.588091
0.588089
0.588074
0.588049
0.588017
0.587983
0.587952
0.587931
0.587978
0.588015
0.588031
0.588025
0.587999
0.587955
0.587901
0.587842
0.587787
0.587746
0.588359
0.588397
0.58841
0.588397
0.588356
0.588294
0.58822
0.588146
0.588089
0.588051
0.587078
0.587155
0.587191
0.58718
0.587126
0.587036
0.586921
0.586795
0.586663
0.586576
0.589827
0.589902
0.589927
0.589907
0.58984
0.589737
0.589612
0.589483
0.589383
0.589286
0.583803
0.583867
0.583912
0.583892
0.583819
0.5837
0.583548
0.583392
0.583221
0.583175
0.582949
0.58299
0.583002
0.58301
0.583012
0.583009
0.583002
0.58299
0.582973
0.582918
0.590893
0.590864
0.590835
0.590815
0.590806
0.590807
0.590819
0.590842
0.590876
0.590889
0.587644
0.587679
0.587703
0.587715
0.587717
0.587711
0.587696
0.587672
0.587636
0.587594
0.588543
0.588534
0.588527
0.58852
0.588513
0.588506
0.5885
0.588499
0.588505
0.58852
0.588113
0.588131
0.58814
0.588138
0.588128
0.58811
0.588087
0.588063
0.588039
0.58802
0.588074
0.588101
0.588113
0.588108
0.588089
0.588058
0.588019
0.587978
0.587938
0.587907
0.588379
0.588402
0.58841
0.588399
0.588369
0.588324
0.588271
0.58822
0.588185
0.588171
0.587596
0.587668
0.587699
0.587692
0.587653
0.587586
0.587501
0.587405
0.587296
0.587197
0.590783
0.590811
0.590823
0.590804
0.590753
0.590677
0.590588
0.590504
0.590458
0.590456
0.582115
0.582172
0.582206
0.582191
0.582136
0.582047
0.581936
0.58182
0.581692
0.581651
0.439077
0.418323
0.42522
0.466167
0.391303
0.368061
0.379089
0.436316
0.348135
0.320984
0.338307
0.417221
0.310088
0.280686
0.305005
0.406325
0.278628
0.248559
0.280111
0.403934
0.251544
0.222022
0.261849
0.401096
0.229838
0.202189
0.250806
0.398481
0.20946
0.18534
0.242796
0.396405
0.191525
0.173502
0.239224
0.398056
0.172068
0.162199
0.23492
0.393575
0.499132
0.488934
0.489256
0.498965
0.468646
0.456027
0.457166
0.469838
0.437788
0.421063
0.423266
0.440833
0.408792
0.38782
0.391407
0.414121
0.384152
0.358683
0.363932
0.391992
0.362125
0.331771
0.337804
0.371125
0.344258
0.308917
0.314784
0.353202
0.327826
0.287688
0.293108
0.336517
0.314294
0.270124
0.275092
0.322895
0.29894
0.252348
0.254933
0.305267
0.566523
0.564308
0.563777
0.564907
0.548758
0.545059
0.544362
0.54666
0.528784
0.522885
0.522074
0.526407
0.506568
0.498295
0.497492
0.504324
0.485591
0.474864
0.474233
0.483965
0.464532
0.45122
0.450807
0.463548
0.445609
0.429631
0.429393
0.445082
0.426986
0.408462
0.408369
0.426824
0.410739
0.390537
0.39049
0.410868
0.391835
0.372122
0.371355
0.391258
0.578991
0.577908
0.577559
0.577908
0.569353
0.56794
0.567449
0.56781
0.5575
0.555013
0.554293
0.555192
0.542743
0.538949
0.538041
0.539766
0.528323
0.523079
0.522059
0.524913
0.512773
0.505954
0.504876
0.509123
0.498184
0.489718
0.488624
0.494464
0.482882
0.472846
0.471792
0.479302
0.468675
0.457696
0.456691
0.4655
0.450846
0.440916
0.439652
0.447999
0.585863
0.585274
0.585073
0.58526
0.580024
0.579543
0.579312
0.579321
0.572549
0.571606
0.571181
0.571253
0.562457
0.560817
0.560163
0.560431
0.552511
0.550002
0.549128
0.549761
0.541227
0.537707
0.536638
0.537819
0.530506
0.525888
0.524668
0.526581
0.518734
0.51304
0.511739
0.51453
0.50758
0.501236
0.499933
0.503507
0.49284
0.487639
0.486209
0.489229
0.588444
0.58797
0.587824
0.588008
0.584985
0.584772
0.584662
0.584654
0.579902
0.579478
0.57926
0.579244
0.572687
0.571921
0.571543
0.571537
0.565641
0.564405
0.563836
0.563894
0.557332
0.5555
0.554725
0.554925
0.549511
0.54699
0.546023
0.546474
0.540623
0.537395
0.536287
0.537109
0.532218
0.528544
0.527399
0.528626
0.520316
0.517764
0.516542
0.517101
0.589571
0.58914
0.589018
0.589204
0.587674
0.587578
0.587526
0.587518
0.584136
0.583937
0.583829
0.583811
0.578774
0.578399
0.578197
0.578162
0.573576
0.57295
0.572621
0.572576
0.56723
0.566269
0.565782
0.565745
0.561394
0.560022
0.559369
0.559383
0.554604
0.552792
0.551996
0.552132
0.548462
0.546341
0.545487
0.54581
0.538796
0.537792
0.536892
0.536451
0.589902
0.589486
0.589372
0.589561
0.589013
0.588963
0.588936
0.588932
0.58655
0.586449
0.586394
0.586384
0.58254
0.582344
0.582234
0.582211
0.578645
0.578312
0.578125
0.578084
0.573688
0.573163
0.572874
0.572813
0.569255
0.56849
0.568082
0.568012
0.563983
0.562955
0.562436
0.562391
0.55959
0.558361
0.557777
0.557798
0.551554
0.55146
0.550862
0.55008
0.589855
0.589444
0.589334
0.589524
0.589626
0.589597
0.589581
0.589579
0.587905
0.58785
0.58782
0.587816
0.584912
0.584804
0.584743
0.584729
0.581994
0.58181
0.581704
0.581676
0.578105
0.57781
0.57764
0.577593
0.574743
0.574307
0.574058
0.573993
0.570603
0.570011
0.569686
0.569617
0.567472
0.566755
0.566376
0.56632
0.560657
0.561084
0.560718
0.559863
0.589625
0.589215
0.589106
0.589297
0.589819
0.5898
0.58979
0.589789
0.588601
0.588569
0.588552
0.588551
0.586388
0.586325
0.586289
0.586282
0.584207
0.584101
0.584039
0.584023
0.581164
0.580992
0.580891
0.580861
0.578662
0.578406
0.578255
0.578209
0.575384
0.575037
0.574838
0.574781
0.573189
0.572765
0.572526
0.572468
0.567315
0.568026
0.567818
0.566983
0.58932
0.58891
0.588801
0.588994
0.589784
0.589771
0.589764
0.589764
0.588889
0.58887
0.58886
0.588861
0.587285
0.587246
0.587224
0.58722
0.585656
0.585592
0.585556
0.585547
0.583285
0.583182
0.583121
0.583102
0.581482
0.581327
0.581235
0.581204
0.578858
0.578651
0.578528
0.578489
0.577398
0.577143
0.576994
0.576951
0.572254
0.573107
0.572998
0.572211
0.588998
0.588586
0.588477
0.58867
0.589638
0.589627
0.589621
0.589621
0.588927
0.588915
0.58891
0.588911
0.587806
0.587781
0.587767
0.587765
0.58658
0.586541
0.58652
0.586515
0.584744
0.58468
0.584643
0.584631
0.58351
0.583414
0.583356
0.583337
0.581369
0.581243
0.581167
0.581142
0.580514
0.580357
0.580264
0.580237
0.575936
0.576842
0.576792
0.57606
0.588686
0.588271
0.588162
0.588358
0.589451
0.589442
0.589437
0.589436
0.588813
0.588807
0.588804
0.588807
0.588091
0.588075
0.588066
0.588064
0.587145
0.587122
0.58711
0.587107
0.58573
0.585691
0.585668
0.58566
0.584959
0.584899
0.584862
0.58485
0.583152
0.583075
0.583028
0.583012
0.582818
0.582719
0.582662
0.582646
0.578672
0.579576
0.57956
0.578885
0.588396
0.587977
0.587869
0.588068
0.58927
0.589261
0.589256
0.589255
0.588611
0.588608
0.588607
0.58861
0.588236
0.588225
0.588219
0.588218
0.58747
0.587457
0.58745
0.587449
0.586384
0.58636
0.586345
0.58634
0.585984
0.585946
0.585923
0.585916
0.584379
0.584333
0.584304
0.584293
0.584518
0.584454
0.584419
0.584411
0.580688
0.581552
0.581553
0.58094
0.588122
0.587701
0.587595
0.587797
0.589127
0.589119
0.589114
0.589112
0.588355
0.588355
0.588356
0.588358
0.588307
0.588299
0.588295
0.588294
0.58764
0.587633
0.58763
0.587629
0.586811
0.586796
0.586787
0.586784
0.586701
0.586678
0.586664
0.586659
0.58518
0.585152
0.585134
0.585126
0.585775
0.585732
0.58571
0.585709
0.582144
0.58294
0.582949
0.582401
0.587834
0.587412
0.587311
0.587517
0.589052
0.589043
0.589037
0.589034
0.588068
0.58807
0.588072
0.588074
0.588348
0.588343
0.58834
0.588338
0.587723
0.58772
0.587719
0.587718
0.587098
0.587089
0.587082
0.58708
0.587201
0.587188
0.58718
0.587177
0.585659
0.585642
0.585631
0.585625
0.586722
0.586692
0.586679
0.586683
0.583141
0.583845
0.583856
0.583381
0.587435
0.587018
0.586925
0.587134
0.589081
0.589071
0.589064
0.58906
0.587773
0.587777
0.58778
0.587781
0.58839
0.588387
0.588385
0.588384
0.587774
0.587773
0.587773
0.587771
0.587316
0.58731
0.587305
0.587303
0.587559
0.587554
0.58755
0.587549
0.585927
0.585916
0.585908
0.585903
0.587489
0.587466
0.587458
0.587466
0.583691
0.584282
0.584291
0.583897
0.5867
0.586299
0.58622
0.586431
0.589295
0.589283
0.589275
0.58927
0.587524
0.587527
0.587529
0.587528
0.588448
0.588448
0.588448
0.588448
0.587836
0.587836
0.587835
0.587833
0.58752
0.587515
0.587511
0.587509
0.587838
0.587838
0.587838
0.587837
0.586137
0.586125
0.586118
0.586114
0.588238
0.588219
0.588215
0.588227
0.583672
0.584128
0.584132
0.583829
0.585284
0.584931
0.584875
0.58507
0.589855
0.589841
0.589834
0.589834
0.587425
0.587424
0.587421
0.587416
0.588514
0.588518
0.58852
0.58852
0.587924
0.587923
0.587922
0.587919
0.587725
0.587721
0.587718
0.587716
0.588064
0.58807
0.588072
0.588071
0.58649
0.586469
0.58646
0.586461
0.589209
0.589196
0.589196
0.589211
0.582857
0.583146
0.583144
0.582949
0.583214
0.582994
0.582968
0.583092
0.590871
0.590868
0.590872
0.590884
0.58754
0.587528
0.587519
0.587511
0.58855
0.588558
0.588562
0.588564
0.588008
0.588007
0.588005
0.588003
0.587886
0.587882
0.58788
0.587879
0.588205
0.588213
0.588216
0.588214
0.587034
0.586997
0.586986
0.586998
0.590527
0.590539
0.590545
0.590549
0.581374
0.581447
0.581443
0.581399
0.595055
0.603497
0.607499
0.610604
0.61373
0.616488
0.618727
0.620476
0.621844
0.622991
0.595968
0.599297
0.606727
0.611783
0.616253
0.619645
0.622113
0.623881
0.625129
0.626072
0.59984
0.596195
0.607188
0.612909
0.618197
0.621799
0.624373
0.6262
0.627457
0.628351
0.603277
0.592347
0.606967
0.612542
0.618405
0.621957
0.624516
0.626297
0.627517
0.628383
0.607795
0.590368
0.607739
0.613038
0.619341
0.622741
0.625269
0.626965
0.628094
0.628879
0.610908
0.587739
0.607503
0.612323
0.619074
0.622286
0.624825
0.62647
0.627604
0.628431
0.614934
0.586502
0.608347
0.612447
0.619597
0.622542
0.625095
0.626682
0.627788
0.62859
0.616525
0.58347
0.60737
0.610698
0.618352
0.621096
0.62381
0.625481
0.626787
0.627825
0.618209
0.582007
0.607839
0.609834
0.617634
0.619913
0.622855
0.624671
0.626177
0.627405
0.602676
0.566153
0.594631
0.596975
0.606648
0.610508
0.615147
0.618253
0.62081
0.622829
0.537672
0.559731
0.576074
0.587698
0.595659
0.601202
0.605209
0.6082
0.610509
0.612428
0.523952
0.55449
0.576575
0.590523
0.599378
0.60537
0.609615
0.612693
0.614938
0.616602
0.5137
0.551372
0.577692
0.59271
0.602165
0.608431
0.612823
0.615969
0.618208
0.619805
0.505334
0.548361
0.577884
0.593221
0.603079
0.609421
0.613821
0.616928
0.619121
0.620675
0.500898
0.547565
0.579167
0.594553
0.604697
0.610988
0.615328
0.618336
0.620426
0.62189
0.497722
0.546513
0.579597
0.594744
0.605125
0.611291
0.615572
0.618494
0.620543
0.622009
0.497342
0.546962
0.581116
0.595735
0.606276
0.612217
0.61642
0.619242
0.62123
0.622657
0.49656
0.546028
0.581083
0.595
0.605731
0.611455
0.615684
0.618524
0.620635
0.622235
0.497065
0.546364
0.582278
0.59494
0.605469
0.610723
0.615047
0.618004
0.620281
0.622064
0.487989
0.536337
0.573003
0.585181
0.596731
0.603003
0.608517
0.612402
0.61544
0.617706
0.568799
0.57507
0.581145
0.586519
0.591102
0.594935
0.598108
0.600729
0.602921
0.604812
0.555554
0.566946
0.577133
0.585461
0.592129
0.597379
0.601475
0.604659
0.607123
0.608999
0.54248
0.559653
0.574023
0.584913
0.593224
0.599477
0.604186
0.607737
0.610394
0.612341
0.529344
0.552247
0.570599
0.583593
0.593175
0.600087
0.605148
0.608881
0.611632
0.613623
0.519441
0.547411
0.56919
0.583763
0.594261
0.601556
0.606784
0.610563
0.61331
0.615274
0.510614
0.542895
0.567611
0.583306
0.594475
0.601972
0.607279
0.611059
0.61381
0.615795
0.504601
0.540384
0.56755
0.583927
0.595548
0.603077
0.608386
0.612122
0.614844
0.616809
0.498921
0.537361
0.56659
0.583278
0.595215
0.602692
0.608029
0.611792
0.614607
0.616705
0.495227
0.536035
0.567
0.583357
0.595182
0.602376
0.607771
0.611632
0.614575
0.616822
0.485142
0.527149
0.559323
0.575624
0.588148
0.596066
0.602276
0.606799
0.610275
0.612798
0.578622
0.581029
0.583933
0.58688
0.589656
0.592169
0.59439
0.596332
0.598046
0.599604
0.569838
0.574605
0.580022
0.585166
0.589704
0.593564
0.596787
0.599443
0.6016
0.603305
0.559326
0.567406
0.575818
0.583243
0.589465
0.594535
0.598611
0.601852
0.604388
0.60632
0.547027
0.559131
0.570875
0.580556
0.588311
0.594375
0.599097
0.602756
0.605566
0.60767
0.536352
0.552746
0.567769
0.579455
0.588486
0.595296
0.600457
0.604365
0.607321
0.6095
0.52575
0.54645
0.564592
0.57798
0.588055
0.595407
0.60087
0.604939
0.607999
0.610259
0.51723
0.542052
0.563041
0.577775
0.588649
0.596345
0.601985
0.60613
0.609237
0.611521
0.508866
0.537444
0.560972
0.576689
0.588158
0.596052
0.601828
0.606065
0.609278
0.611682
0.502365
0.534571
0.5603
0.576422
0.588092
0.595968
0.601857
0.6062
0.609518
0.612041
0.49147
0.526275
0.553454
0.569965
0.582274
0.590714
0.597177
0.601991
0.605679
0.608327
0.585123
0.585884
0.587047
0.588412
0.589847
0.591263
0.592609
0.593863
0.595042
0.596194
0.579777
0.581636
0.584157
0.586883
0.589555
0.592038
0.594266
0.596213
0.59787
0.599228
0.572246
0.575652
0.579964
0.584354
0.588446
0.592073
0.595189
0.597803
0.599944
0.60164
0.562443
0.568059
0.574627
0.580885
0.586436
0.591151
0.595062
0.59825
0.600804
0.602789
0.553336
0.561627
0.570684
0.578815
0.585728
0.591377
0.595922
0.599535
0.602379
0.604548
0.543552
0.554843
0.566495
0.576408
0.584543
0.590971
0.596018
0.599955
0.603024
0.605357
0.535112
0.549587
0.563809
0.575314
0.584484
0.59151
0.596924
0.601079
0.604294
0.606714
0.526428
0.544111
0.560778
0.573616
0.583619
0.591083
0.596776
0.601119
0.604484
0.60704