/*--------------------------------*- C++ -*----------------------------------*\
| =========                 |                                                 |
| \\      /  F ield         | foam-extend: Open Source CFD                    |
|  \\    /   O peration     | Version:     4.0                                |
|   \\  /    A nd           | Web:         http://www.foam-extend.org         |
|    \\/     M anipulation  |                                                 |
\*---------------------------------------------------------------------------*/
FoamFile
{
    version     2.0;
    format      ascii;
    class       volScalarField;
    location    "1450";
    object      mut;
}
// * * * * * * * * * * * * * * * * * * * * * * * * * * * * * * * * * * * * * //

dimensions      [1 -1 -1 0 0 0 0];

internalField   nonuniform List<scalar> 
34480
(
0.00188879
0.00188754
0.00188737
0.0018882
0.0018903
0.00189419
0.00190171
0.00191996
0.00195921
0.00203043
0.0159353
0.0151291
0.0148299
0.0145582
0.0129317
0.00824399
0.00340647
0.00134869
0.000985622
0.00145598
0.0442761
0.0426189
0.0409326
0.0374878
0.0286775
0.0146854
0.00511997
0.00182942
0.00124179
0.00181295
0.0484237
0.0462683
0.0443296
0.0402917
0.0297198
0.0141686
0.00479605
0.00177636
0.00128793
0.00197828
0.0477444
0.045329
0.0435674
0.0397282
0.0288638
0.0131994
0.00441197
0.00168531
0.00129916
0.00209678
0.0459934
0.0435146
0.0418575
0.0380732
0.0268508
0.0116261
0.00386143
0.00155401
0.00130544
0.00222409
0.0438626
0.0415455
0.0400892
0.0364779
0.0252857
0.0105627
0.00349752
0.00146179
0.00131287
0.00233352
0.0364086
0.0347211
0.0336943
0.0309488
0.0214367
0.00864662
0.0028146
0.00124023
0.00123609
0.00234053
0.0124271
0.0121085
0.0120059
0.0117296
0.00993163
0.00512649
0.00167787
0.000736901
0.000834371
0.00178636
0.00180073
0.00180064
0.00180231
0.00180558
0.00181035
0.00181646
0.00182449
0.00183573
0.00185229
0.00181357
0.00188876
0.0018869
0.0018863
0.00188682
0.00188866
0.0018921
0.00189759
0.00190704
0.00192474
0.00196556
0.0149668
0.0143338
0.0141425
0.0143249
0.0147337
0.0147782
0.0129476
0.00764391
0.0024956
0.00204678
0.0407524
0.0395253
0.0388599
0.0383215
0.0367063
0.031992
0.0230075
0.0112957
0.00328258
0.00280452
0.0448274
0.0431603
0.0423586
0.0417856
0.0399416
0.0344406
0.0242113
0.0114401
0.00330117
0.0031709
0.0446595
0.0427063
0.0419632
0.0416054
0.0401215
0.0348486
0.0244607
0.0112857
0.003238
0.00345112
0.0434428
0.0413803
0.0406557
0.0404325
0.039218
0.0342217
0.0239661
0.0108513
0.00316524
0.00378148
0.0418369
0.0398575
0.0392235
0.0390848
0.0381091
0.0334781
0.0235474
0.0105561
0.00312863
0.00409744
0.0351434
0.033675
0.0332086
0.0331924
0.0326845
0.0293693
0.0211019
0.00938641
0.00285388
0.00417
0.0123652
0.0120592
0.0119987
0.0120569
0.0121871
0.012029
0.0106117
0.00545496
0.00170655
0.00280073
0.00179618
0.00179372
0.00179323
0.00179441
0.00179721
0.0018013
0.00180747
0.0018173
0.00184156
0.00188883
0.00188421
0.00188261
0.00188207
0.00188253
0.00188412
0.00188688
0.00189085
0.00189684
0.00190578
0.00191931
0.0140694
0.013655
0.0135215
0.0136713
0.0141083
0.0147453
0.0151452
0.0142165
0.0101117
0.00583825
0.0372209
0.0362546
0.035917
0.0360626
0.0363777
0.0359551
0.0330183
0.0253638
0.0133442
0.00710285
0.0410901
0.0397879
0.0393592
0.0395849
0.0400805
0.0397256
0.0362017
0.0266174
0.0125386
0.00720656
0.0413169
0.0398044
0.0393907
0.0397309
0.0405345
0.0406626
0.0373671
0.0266924
0.011417
0.00717704
0.0405734
0.0389693
0.0385359
0.0389407
0.0399697
0.0405869
0.0377038
0.0261766
0.0103018
0.00724711
0.0394657
0.0379029
0.0375127
0.0379222
0.0390547
0.0400325
0.0376586
0.0255316
0.0093778
0.00732962
0.0336218
0.0324618
0.0321545
0.0324731
0.0334153
0.0345762
0.0334195
0.0226404
0.00796584
0.00704021
0.0122583
0.0120039
0.0119603
0.0120211
0.0122169
0.0124481
0.0126039
0.0106455
0.00448714
0.00445465
0.00178888
0.00178598
0.00178511
0.001786
0.00178869
0.00179304
0.00180006
0.00181187
0.00183859
0.00189206
0.00187598
0.00187485
0.00187447
0.00187482
0.00187598
0.00187784
0.00188016
0.00188324
0.00188719
0.00189186
0.0134773
0.0132315
0.0131415
0.0132365
0.0135261
0.013979
0.014452
0.0148675
0.0145971
0.0128632
0.034048
0.0333657
0.0331711
0.0333731
0.0339379
0.0346144
0.0346377
0.0324133
0.0256872
0.0173859
0.0376527
0.036713
0.0364459
0.0367372
0.0375448
0.0385492
0.0386045
0.0352938
0.0257895
0.016725
0.0381976
0.0371076
0.0368411
0.0371981
0.0382108
0.0395897
0.0399806
0.0361437
0.0246277
0.0158815
0.0378745
0.0367012
0.0364014
0.0367981
0.0379581
0.0397006
0.0405458
0.0363494
0.0231343
0.0153325
0.0372126
0.0360404
0.0357614
0.0361511
0.0373551
0.0392943
0.0405242
0.0360593
0.0215155
0.0148415
0.0322062
0.0313273
0.0310988
0.031387
0.0322956
0.0339264
0.0354115
0.0319969
0.0185194
0.013717
0.0121923
0.0119829
0.0119509
0.0119974
0.0121463
0.0123354
0.0125427
0.0126707
0.00958455
0.00831433
0.00178
0.00177696
0.00177595
0.00177676
0.00177946
0.00178412
0.00179171
0.00180441
0.00183053
0.00187785
0.00186486
0.00186418
0.00186395
0.00186418
0.00186493
0.00186604
0.00186723
0.00186865
0.00187023
0.0018717
0.0131934
0.0130583
0.0129992
0.013058
0.0132361
0.0134939
0.0137242
0.0140133
0.0142954
0.0144177
0.0315136
0.0311138
0.0310081
0.0311329
0.0315155
0.032128
0.0328136
0.0330944
0.0316424
0.0274645
0.0347801
0.0341791
0.034011
0.0342067
0.0348017
0.0357851
0.0368836
0.0371112
0.0340944
0.0274722
0.0355212
0.0347997
0.0346248
0.0348659
0.0356093
0.0368741
0.038332
0.0385829
0.0342274
0.0263053
0.0355179
0.0347095
0.0344959
0.0347726
0.0356332
0.0371728
0.0390538
0.0394559
0.0338185
0.0253927
0.035207
0.0343656
0.0341593
0.0344366
0.0353405
0.0370117
0.0391603
0.039638
0.0328101
0.0244374
0.0309618
0.0303165
0.0301424
0.030351
0.0310215
0.0323264
0.0341967
0.0350255
0.0289158
0.0222838
0.0121741
0.0120014
0.0119784
0.01201
0.0121112
0.0122279
0.0122988
0.0126936
0.0125693
0.0122044
0.00176968
0.00176663
0.00176556
0.0017663
0.00176897
0.00177371
0.00178135
0.00179371
0.00181641
0.00185301
0.0018514
0.00185105
0.00185094
0.00185108
0.00185152
0.00185209
0.00185261
0.00185319
0.00185377
0.00185416
0.01315
0.0130858
0.0130492
0.0130873
0.0131977
0.0133339
0.0134255
0.0135407
0.0136609
0.0137531
0.0297534
0.0295611
0.0295141
0.0295739
0.0297666
0.0300939
0.0305481
0.0310986
0.0314226
0.0310622
0.0326118
0.0322722
0.0321743
0.0322815
0.0326267
0.0332484
0.0341569
0.035195
0.0354805
0.0339488
0.0333933
0.0329573
0.0328507
0.0329899
0.0334442
0.0342756
0.0355155
0.0369065
0.0369175
0.0340664
0.0335782
0.0330565
0.0329115
0.0330836
0.0336386
0.0346914
0.0363123
0.0381504
0.0378509
0.0338465
0.0335018
0.0329281
0.0327825
0.0329617
0.0335679
0.0347384
0.0365815
0.0386887
0.0379394
0.0330949
0.0299089
0.0294554
0.0293288
0.0294698
0.0299236
0.0308185
0.0322755
0.0342125
0.0337537
0.0299432
0.0122071
0.0120655
0.0120509
0.012071
0.0121342
0.0121857
0.0121382
0.0123326
0.0127422
0.0136315
0.00175779
0.00175483
0.00175375
0.00175444
0.001757
0.00176159
0.00176883
0.00178009
0.00179855
0.001825
0.00183598
0.00183586
0.00183583
0.00183591
0.00183613
0.00183635
0.00183654
0.00183674
0.00183691
0.00183696
0.0132708
0.0132541
0.0132345
0.0132603
0.0133282
0.0133899
0.0134294
0.0134718
0.0135028
0.0134931
0.0286905
0.0286145
0.0285999
0.0286249
0.0287065
0.0288398
0.0290311
0.0292952
0.029577
0.0297961
0.0311329
0.0309567
0.0309031
0.0309558
0.0311335
0.0314573
0.0319564
0.0326512
0.0333503
0.0337484
0.0318305
0.0315859
0.031526
0.0315988
0.0318489
0.0323113
0.0330452
0.0341005
0.0350931
0.0353914
0.0320847
0.0317661
0.0316725
0.0317721
0.0321026
0.0327336
0.033767
0.0353033
0.0366571
0.0367216
0.0321349
0.0317611
0.0316633
0.0317715
0.0321519
0.0328871
0.0341091
0.0359712
0.0374738
0.0371003
0.0290747
0.0287692
0.0286816
0.0287715
0.02906
0.0296196
0.030542
0.0321107
0.0335469
0.0335375
0.0122998
0.0121831
0.0121759
0.0121871
0.0122211
0.0122187
0.0120975
0.0121003
0.0122857
0.0129793
0.00174416
0.0017414
0.00174037
0.001741
0.00174337
0.00174761
0.00175415
0.00176387
0.00177827
0.00179681
0.00181882
0.00181884
0.00181886
0.0018189
0.001819
0.00181904
0.00181908
0.00181911
0.00181912
0.00181905
0.0134982
0.0135159
0.01351
0.0135276
0.0135667
0.013591
0.0136101
0.0136265
0.0136273
0.0135854
0.0281314
0.0281103
0.028111
0.0281211
0.0281513
0.0281957
0.02826
0.0283478
0.0284451
0.0285303
0.0302066
0.0301186
0.0300901
0.030115
0.0302024
0.0303592
0.0305959
0.0309246
0.0312985
0.0316333
0.0307614
0.0306312
0.0305998
0.0306355
0.0307655
0.0310018
0.0313714
0.0319165
0.0325567
0.0331309
0.0310047
0.0308185
0.0307606
0.0308156
0.0310031
0.0313555
0.0319263
0.0328128
0.0338799
0.0348212
0.0311013
0.0308667
0.0308039
0.0308659
0.0310944
0.0315279
0.0322393
0.0333882
0.0347703
0.0359093
0.0284636
0.0282661
0.0282086
0.0282629
0.0284359
0.02876
0.0292734
0.0302032
0.0314566
0.0326933
0.0124584
0.0123608
0.0123598
0.0123647
0.0123769
0.0123329
0.0121759
0.0120684
0.0120472
0.0123087
0.00172868
0.00172621
0.00172527
0.00172583
0.00172794
0.00173169
0.00173733
0.00174535
0.00175622
0.001769
0.00180004
0.00180014
0.00180019
0.00180021
0.00180023
0.00180021
0.00180018
0.00180015
0.00180011
0.0018
0.0137987
0.0138427
0.0138485
0.0138604
0.0138778
0.0138884
0.0138992
0.0139057
0.0138957
0.013843
0.0278905
0.0278932
0.0279002
0.0279046
0.0279135
0.0279254
0.0279432
0.0279663
0.0279892
0.0280043
0.0296679
0.0296233
0.0296078
0.0296198
0.0296635
0.02974
0.029851
0.029996
0.0301553
0.0302916
0.0300754
0.0300078
0.0299922
0.0300092
0.0300754
0.0301928
0.0303697
0.0306176
0.0309091
0.031178
0.03027
0.0301642
0.0301295
0.0301591
0.0302629
0.0304535
0.0307518
0.0311965
0.0317537
0.0323087
0.030365
0.0302215
0.0301826
0.0302168
0.0303505
0.0305978
0.0309893
0.0316014
0.0323893
0.033188
0.0280619
0.027939
0.0279034
0.0279345
0.0280316
0.0282039
0.0284617
0.0289307
0.0296305
0.0304892
0.0126879
0.0126041
0.0126084
0.0126089
0.0126053
0.0125322
0.0123657
0.0122112
0.0120841
0.0121421
0.00171127
0.00170914
0.00170831
0.00170879
0.00171061
0.00171379
0.00171845
0.0017248
0.00173277
0.00174143
0.00177968
0.00177981
0.00177987
0.00177988
0.00177987
0.00177983
0.00177979
0.00177974
0.00177969
0.00177957
0.0141699
0.0142233
0.0142393
0.0142472
0.0142533
0.0142602
0.0142669
0.0142687
0.0142539
0.0141957
0.0278381
0.0278479
0.0278572
0.0278596
0.0278611
0.0278633
0.0278667
0.0278703
0.0278714
0.0278671
0.0293761
0.0293522
0.0293433
0.0293495
0.0293725
0.0294122
0.0294675
0.029535
0.0296043
0.0296576
0.029661
0.0296255
0.0296177
0.029626
0.0296602
0.0297197
0.0298056
0.0299178
0.0300426
0.0301483
0.029799
0.0297397
0.0297191
0.0297351
0.0297923
0.0298949
0.0300495
0.0302657
0.0305279
0.0307767
0.029872
0.0297851
0.0297614
0.0297801
0.0298577
0.0299973
0.0302101
0.0305229
0.0309146
0.0312913
0.0278425
0.0277684
0.0277478
0.0277646
0.0278146
0.0278948
0.02801
0.0282206
0.0285469
0.0289644
0.0129925
0.0129184
0.0129271
0.0129246
0.0129092
0.0128197
0.0126604
0.012498
0.0123319
0.0123299
0.00169186
0.00169009
0.00168939
0.00168979
0.0016913
0.00169388
0.00169759
0.00170244
0.00170813
0.00171389
0.00175772
0.00175785
0.00175791
0.00175791
0.0017579
0.00175786
0.00175782
0.00175778
0.00175773
0.00175761
0.0146083
0.0146655
0.0146839
0.0146908
0.0146955
0.0147005
0.0147047
0.0147037
0.0146859
0.0146236
0.0278906
0.0279018
0.0279102
0.0279124
0.0279128
0.0279126
0.0279122
0.0279109
0.0279067
0.0278978
0.0292305
0.0292165
0.0292111
0.0292145
0.0292276
0.0292499
0.0292797
0.0293143
0.0293478
0.0293711
0.029425
0.0294053
0.029401
0.0294053
0.0294241
0.029456
0.0295004
0.0295546
0.0296107
0.0296547
0.0295147
0.0294812
0.029469
0.0294778
0.0295098
0.0295658
0.0296472
0.029754
0.0298773
0.0299895
0.029563
0.0295098
0.0294955
0.0295059
0.0295515
0.0296312
0.0297485
0.0299102
0.0301016
0.0302713
0.0277707
0.0277272
0.0277165
0.0277249
0.027747
0.0277753
0.0278176
0.0278994
0.0280327
0.0282268
0.013377
0.0133095
0.0133222
0.0133175
0.0132929
0.0131992
0.0130571
0.0129078
0.0127399
0.0127384
0.0016704
0.00166899
0.00166843
0.00166876
0.00166995
0.00167197
0.00167481
0.00167839
0.00168235
0.00168612
0.0017341
0.00173421
0.00173427
0.00173427
0.00173426
0.00173423
0.0017342
0.00173416
0.00173412
0.001734
0.0151184
0.0151793
0.015199
0.0152058
0.0152097
0.0152132
0.0152157
0.0152129
0.0151929
0.0151266
0.028
0.0280111
0.0280185
0.0280208
0.028021
0.0280205
0.0280196
0.0280175
0.0280124
0.0280025
0.0291657
0.029157
0.0291536
0.0291556
0.0291634
0.0291765
0.0291938
0.0292131
0.0292311
0.0292425
0.0292985
0.0292865
0.0292838
0.0292863
0.0292974
0.0293161
0.0293412
0.0293702
0.0293982
0.0294193
0.0293532
0.029334
0.0293266
0.0293317
0.02935
0.0293813
0.0294254
0.0294801
0.0295402
0.0295948
0.0293832
0.0293497
0.0293408
0.029347
0.0293747
0.0294216
0.0294885
0.0295756
0.0296723
0.0297541
0.0278107
0.0277859
0.0277814
0.0277849
0.0277914
0.0277946
0.0278026
0.0278255
0.0278697
0.0279676
0.0138481
0.0137849
0.0138015
0.0137951
0.0137625
0.013677
0.0135572
0.0134309
0.013279
0.0133006
0.00164689
0.00164581
0.00164538
0.00164563
0.00164654
0.00164806
0.00165016
0.00165271
0.0016554
0.00165783
0.00170872
0.00170883
0.00170888
0.00170888
0.00170887
0.00170885
0.00170883
0.0017088
0.00170877
0.00170866
0.0157117
0.0157763
0.0157972
0.015804
0.0158072
0.0158097
0.0158109
0.0158068
0.0157851
0.0157149
0.0281402
0.0281507
0.0281572
0.0281594
0.0281598
0.0281595
0.0281588
0.0281569
0.0281521
0.028142
0.0291427
0.0291372
0.0291351
0.0291363
0.029141
0.0291488
0.0291589
0.0291702
0.0291805
0.0291867
0.0292351
0.0292271
0.029225
0.0292266
0.0292338
0.0292457
0.0292613
0.0292786
0.0292945
0.0293062
0.0292672
0.0292558
0.0292513
0.0292543
0.029265
0.0292832
0.0293078
0.029337
0.0293678
0.0293968
0.0292873
0.0292654
0.0292596
0.0292638
0.0292812
0.0293103
0.0293503
0.0294
0.029452
0.0294963
0.0279308
0.0279162
0.0279155
0.0279164
0.0279145
0.0279089
0.0279033
0.0279023
0.0279092
0.0279672
0.0144168
0.014356
0.0143768
0.0143689
0.0143314
0.0142638
0.014168
0.0140675
0.0139386
0.0139892
0.0016213
0.00162051
0.0016202
0.00162038
0.00162104
0.00162215
0.00162365
0.00162541
0.00162719
0.00162873
0.00168153
0.00168162
0.00168166
0.00168166
0.00168166
0.00168165
0.00168163
0.00168161
0.00168158
0.00168148
0.0164062
0.0164749
0.0164968
0.0165034
0.0165062
0.0165078
0.0165082
0.0165032
0.0164802
0.0164058
0.0282969
0.0283067
0.0283123
0.0283143
0.0283149
0.0283149
0.0283145
0.028313
0.0283088
0.028299
0.0291397
0.0291364
0.0291351
0.0291358
0.0291385
0.0291429
0.0291487
0.0291552
0.0291614
0.0291648
0.0292057
0.0292001
0.0291983
0.0291994
0.0292042
0.0292123
0.0292227
0.0292339
0.0292439
0.0292513
0.0292243
0.0292172
0.0292144
0.0292162
0.0292227
0.0292335
0.0292477
0.0292639
0.0292805
0.0292971
0.0292418
0.0292268
0.029223
0.0292259
0.0292375
0.0292563
0.0292815
0.0293117
0.0293419
0.0293695
0.0281056
0.0280941
0.0280954
0.028095
0.0280908
0.028084
0.028075
0.0280666
0.0280601
0.0281014
0.0151127
0.015043
0.0150657
0.015056
0.015027
0.0149768
0.0149043
0.0148287
0.0147235
0.0148017
0.00159365
0.00159308
0.00159286
0.00159299
0.00159346
0.00159424
0.00159527
0.00159644
0.00159759
0.00159856
0.00165243
0.00165251
0.00165255
0.00165255
0.00165254
0.00165254
0.00165252
0.00165251
0.00165248
0.00165238
0.0172276
0.0173008
0.0173235
0.01733
0.0173324
0.0173335
0.0173333
0.0173278
0.0173039
0.0172249
0.0284619
0.028471
0.0284757
0.0284775
0.0284781
0.0284783
0.0284783
0.0284773
0.0284739
0.0284645
0.0291451
0.0291433
0.0291426
0.029143
0.0291443
0.0291466
0.0291497
0.0291533
0.0291569
0.029159
0.0291933
0.0291892
0.0291876
0.0291884
0.0291917
0.0291973
0.0292045
0.0292121
0.0292189
0.0292238
0.0292039
0.0291994
0.0291975
0.0291986
0.0292026
0.0292091
0.0292176
0.0292269
0.0292363
0.0292464
0.0292233
0.0292127
0.0292101
0.0292123
0.0292203
0.029233
0.0292494
0.0292687
0.0292875
0.0293069
0.0283122
0.0283014
0.0283025
0.0283022
0.028299
0.0282936
0.0282857
0.028277
0.0282674
0.0283011
0.0159619
0.0158847
0.0159016
0.0158954
0.015876
0.0158416
0.0157909
0.0157372
0.015654
0.0157552
0.00156392
0.00156353
0.00156338
0.00156347
0.00156379
0.00156431
0.001565
0.00156575
0.00156646
0.00156706
0.00162138
0.00162146
0.00162148
0.00162148
0.00162148
0.00162148
0.00162147
0.00162145
0.00162143
0.00162134
0.018213
0.0182913
0.0183145
0.0183206
0.0183228
0.0183235
0.0183229
0.0183173
0.018293
0.0182089
0.0286293
0.0286375
0.0286413
0.0286428
0.0286434
0.0286438
0.028644
0.0286435
0.0286411
0.0286326
0.0291531
0.0291522
0.029152
0.0291521
0.0291527
0.0291536
0.029155
0.0291567
0.0291588
0.0291604
0.0291882
0.0291852
0.0291839
0.0291843
0.0291866
0.0291904
0.0291954
0.0292006
0.0292052
0.0292088
0.029194
0.029191
0.0291897
0.0291903
0.0291927
0.0291968
0.0292019
0.0292074
0.0292129
0.0292193
0.0292167
0.0292091
0.0292073
0.029209
0.0292145
0.0292232
0.0292341
0.0292467
0.0292588
0.0292736
0.0285318
0.0285214
0.0285221
0.0285221
0.0285203
0.028517
0.0285118
0.0285053
0.0284966
0.0285258
0.0170029
0.0169201
0.016931
0.016928
0.0169172
0.0168972
0.0168662
0.0168308
0.0167673
0.0168849
0.00153213
0.00153188
0.00153178
0.00153183
0.00153204
0.00153238
0.00153282
0.00153328
0.00153372
0.00153408
0.00158844
0.00158851
0.00158853
0.00158854
0.00158854
0.00158853
0.00158852
0.00158851
0.00158849
0.0015884
0.0194166
0.0195005
0.0195235
0.0195292
0.0195312
0.0195316
0.0195308
0.0195255
0.0195015
0.0194118
0.0287929
0.0287999
0.0288027
0.0288037
0.0288043
0.0288048
0.0288053
0.0288053
0.0288038
0.028797
0.0291605
0.0291602
0.0291602
0.0291602
0.0291604
0.0291606
0.029161
0.0291616
0.0291627
0.0291641
0.0291851
0.0291829
0.0291818
0.029182
0.0291835
0.029186
0.0291893
0.0291928
0.029196
0.0291986
0.0291877
0.0291857
0.0291847
0.029185
0.0291865
0.0291889
0.029192
0.0291953
0.0291985
0.0292026
0.0292121
0.0292068
0.0292056
0.0292068
0.0292106
0.0292163
0.0292234
0.0292315
0.0292393
0.0292506
0.0287465
0.028737
0.0287373
0.0287375
0.028737
0.0287356
0.0287329
0.0287292
0.0287227
0.0287478
0.0182925
0.0182067
0.0182113
0.0182112
0.018208
0.018201
0.0181884
0.0181681
0.0181229
0.0182488
0.00149838
0.00149822
0.00149815
0.00149819
0.00149832
0.00149853
0.0014988
0.00149907
0.00149934
0.00149954
0.00155384
0.0015539
0.00155392
0.00155392
0.00155392
0.00155391
0.00155391
0.00155389
0.00155387
0.00155379
0.0209208
0.0210102
0.0210326
0.0210377
0.0210388
0.0210389
0.0210381
0.0210334
0.0210108
0.0209156
0.0289442
0.0289493
0.0289509
0.0289515
0.0289519
0.0289525
0.0289532
0.0289537
0.0289533
0.0289489
0.0291657
0.0291656
0.0291657
0.0291657
0.0291657
0.0291656
0.0291655
0.0291656
0.0291661
0.0291674
0.0291814
0.0291798
0.029179
0.029179
0.0291799
0.0291814
0.0291835
0.0291857
0.0291879
0.0291899
0.0291819
0.0291805
0.0291799
0.02918
0.0291808
0.0291822
0.0291839
0.0291858
0.0291877
0.0291902
0.0292034
0.0291999
0.029199
0.0291998
0.0292022
0.0292057
0.02921
0.0292148
0.0292196
0.0292278
0.028937
0.0289289
0.028929
0.0289293
0.0289295
0.0289293
0.0289284
0.0289268
0.0289225
0.0289432
0.0199141
0.0198288
0.0198262
0.0198282
0.0198323
0.0198377
0.0198432
0.0198362
0.0198109
0.0199334
0.00146285
0.00146275
0.00146271
0.00146273
0.00146281
0.00146294
0.0014631
0.00146326
0.00146343
0.00146354
0.00151778
0.00151781
0.00151782
0.00151782
0.00151782
0.00151782
0.00151781
0.00151781
0.0015178
0.00151775
0.0228588
0.0229506
0.0229704
0.0229744
0.0229752
0.0229751
0.0229742
0.0229703
0.0229504
0.0228524
0.0290707
0.0290733
0.0290737
0.0290737
0.0290739
0.0290744
0.0290753
0.0290763
0.029077
0.0290757
0.0291677
0.0291676
0.0291677
0.0291678
0.0291677
0.0291676
0.0291675
0.0291674
0.0291675
0.0291686
0.0291769
0.0291758
0.0291752
0.0291752
0.0291756
0.0291765
0.0291777
0.029179
0.0291805
0.0291819
0.0291762
0.0291754
0.029175
0.029175
0.0291754
0.0291761
0.029177
0.029178
0.029179
0.0291804
0.0291888
0.0291867
0.0291862
0.0291867
0.029188
0.0291899
0.0291922
0.0291947
0.0291974
0.0292026
0.029082
0.0290759
0.0290759
0.0290761
0.0290763
0.0290765
0.0290762
0.0290758
0.0290738
0.0290893
0.0220141
0.0219357
0.0219336
0.0219354
0.0219385
0.0219427
0.0219469
0.0219498
0.0219508
0.0220541
0.00142568
0.00142561
0.00142558
0.0014256
0.00142565
0.00142573
0.00142583
0.00142593
0.00142604
0.0014261
0.00147938
0.00147937
0.00147936
0.00147935
0.00147935
0.00147935
0.00147936
0.00147938
0.0014794
0.00147942
0.0254678
0.0255482
0.025562
0.0255649
0.0255654
0.0255652
0.0255641
0.0255608
0.0255461
0.025458
0.0291591
0.0291588
0.0291581
0.0291577
0.0291577
0.0291581
0.029159
0.0291603
0.0291618
0.0291635
0.0291675
0.0291675
0.0291675
0.0291676
0.0291676
0.0291676
0.0291676
0.0291675
0.0291675
0.0291679
0.0291732
0.0291725
0.0291722
0.0291722
0.0291724
0.029173
0.0291736
0.0291744
0.0291752
0.0291762
0.0291726
0.0291721
0.0291718
0.0291719
0.0291721
0.0291726
0.0291731
0.0291737
0.0291743
0.0291749
0.0291748
0.0291738
0.0291735
0.0291738
0.0291745
0.0291755
0.0291768
0.0291781
0.0291794
0.0291817
0.0291698
0.029166
0.0291656
0.0291655
0.0291655
0.0291655
0.0291654
0.0291655
0.0291657
0.0291754
0.0249093
0.0248505
0.0248494
0.0248506
0.0248526
0.0248554
0.0248582
0.02486
0.0248603
0.0249373
0.00138609
0.00138604
0.00138602
0.00138603
0.00138607
0.00138613
0.00138621
0.00138629
0.00138637
0.00138641
0.00234432
0.00236518
0.00235495
0.00232103
0.00141093
0.00143391
0.00143123
0.00142635
0.00188724
0.00192926
0.00192009
0.00189538
0.00227389
0.00233198
0.00231243
0.0022662
0.0026211
0.00269217
0.00266015
0.0025957
0.0029624
0.00304463
0.00300441
0.00293099
0.00324446
0.00333485
0.00329256
0.00321933
0.00341232
0.00350908
0.00346906
0.0034005
0.00304438
0.00313387
0.003095
0.00303934
0.00237445
0.00239108
0.00235619
0.00227494
0.00202775
0.00203346
0.00203457
0.00203154
0.00235475
0.00243489
0.00233469
0.00214264
0.00330895
0.00342309
0.0032924
0.0030544
0.00407164
0.00423967
0.00408084
0.00378286
0.00485266
0.0050882
0.00489352
0.00451791
0.00582718
0.00615279
0.00591116
0.00542666
0.00679331
0.00720664
0.00690491
0.00630723
0.00749177
0.00798953
0.00763119
0.00693651
0.00591698
0.0063535
0.00600021
0.00540363
0.00218132
0.00221364
0.00220676
0.00217099
0.00193337
0.00193542
0.00193557
0.00193432
0.00406784
0.00404321
0.00405339
0.00414442
0.00499302
0.0049739
0.00499372
0.00509818
0.00549673
0.00551592
0.00553553
0.00558564
0.00601056
0.00606421
0.00606733
0.00602613
0.0067528
0.00684918
0.00680923
0.00663168
0.00751036
0.0076335
0.00751953
0.00718199
0.00804891
0.00820918
0.0080214
0.00752283
0.00612329
0.00626295
0.00608632
0.00560535
0.00204771
0.0020648
0.00206288
0.00204512
0.00189459
0.00189482
0.00189494
0.00189498
0.0102419
0.00996305
0.0100988
0.0106136
0.0119504
0.0116155
0.0119181
0.012812
0.0114422
0.0112603
0.0116323
0.0125279
0.0110903
0.0110285
0.0114254
0.0122564
0.0112069
0.0112491
0.0116392
0.0123667
0.0114021
0.0115036
0.011842
0.0124211
0.0113518
0.011529
0.0117989
0.0121702
0.00801545
0.00820019
0.00832295
0.00836419
0.00195652
0.00196697
0.00196793
0.00195994
0.00187263
0.00187268
0.00187271
0.00187272
0.014492
0.0144316
0.0144595
0.0145689
0.0238451
0.0235208
0.0237083
0.0243356
0.0222486
0.0219558
0.0223082
0.0232356
0.0203824
0.0202023
0.0206821
0.0217904
0.0193305
0.0192999
0.0198708
0.0210698
0.0185161
0.0185911
0.019184
0.020376
0.0173276
0.0175402
0.0180952
0.0191076
0.0108763
0.0111119
0.0113532
0.0116665
0.00189333
0.00189982
0.00190127
0.00189787
0.00185457
0.00185455
0.00185454
0.00185453
0.0140873
0.0140133
0.0140036
0.0140586
0.0304061
0.0302985
0.0303241
0.0304712
0.0318001
0.0315607
0.031651
0.0320282
0.030434
0.0301464
0.0303668
0.0310258
0.0290257
0.0288079
0.0291971
0.0301268
0.027448
0.0273208
0.0278356
0.0289637
0.0247715
0.0248377
0.0253949
0.0264714
0.0131693
0.013402
0.0135775
0.0137376
0.00184545
0.00184937
0.00185064
0.00184929
0.00183726
0.00183722
0.00183719
0.00183718
0.0137853
0.0136944
0.0136766
0.013731
0.0299174
0.0299197
0.0299337
0.0299594
0.0336767
0.0336795
0.0337117
0.0337707
0.0348257
0.0347791
0.0348399
0.0349963
0.0353465
0.0352618
0.0353981
0.0357253
0.0347071
0.0345943
0.0348265
0.0353601
0.0310953
0.0311282
0.03144
0.0320038
0.0133121
0.0135896
0.0136505
0.0135423
0.00180715
0.00180954
0.00181048
0.00180997
0.00181932
0.00181927
0.00181924
0.00181923
0.0138647
0.0137674
0.0137472
0.0138027
0.0286261
0.0286189
0.0286216
0.0286345
0.0317603
0.0317861
0.0318032
0.0318121
0.0333176
0.0333627
0.0333953
0.0334169
0.0350529
0.0351261
0.0351872
0.0352383
0.0359184
0.0359833
0.0360689
0.0361764
0.0326181
0.0327772
0.0329035
0.0330006
0.0123893
0.012646
0.0126862
0.0125468
0.00177436
0.00177587
0.00177651
0.00177627
0.00180026
0.00180021
0.00180017
0.00180017
0.0141238
0.0140233
0.0140022
0.0140589
0.0280684
0.0280554
0.0280538
0.0280641
0.0303422
0.03035
0.030355
0.0303573
0.0312812
0.0313025
0.0313152
0.0313199
0.0325587
0.0326158
0.032647
0.0326541
0.0334938
0.0335728
0.0336161
0.0336287
0.0307716
0.0309402
0.0310083
0.0309839
0.0119548
0.0121797
0.0122212
0.012099
0.00174432
0.00174534
0.00174575
0.00174557
0.00177984
0.00177977
0.00177974
0.00177974
0.0144819
0.0143785
0.0143567
0.0144148
0.0279213
0.0279076
0.0279053
0.0279146
0.0296749
0.0296759
0.0296769
0.0296778
0.0301799
0.0301852
0.0301884
0.0301899
0.0308824
0.0309055
0.0309178
0.0309195
0.0314149
0.0314484
0.0314664
0.0314702
0.0290402
0.0291511
0.0291909
0.0291611
0.0120302
0.0122498
0.0122913
0.0121686
0.00171549
0.00171623
0.00171649
0.0017163
0.00175789
0.00175782
0.00175778
0.00175779
0.0149171
0.0148105
0.0147879
0.0148476
0.0279476
0.0279345
0.0279321
0.0279408
0.0293787
0.0293782
0.0293782
0.0293788
0.0296642
0.0296651
0.0296657
0.0296661
0.0300334
0.0300426
0.0300474
0.0300476
0.0303011
0.0303121
0.0303184
0.0303202
0.0281838
0.0282593
0.0282838
0.0282566
0.0123958
0.0126266
0.0126693
0.0125372
0.00168701
0.00168759
0.00168775
0.00168756
0.00173429
0.00173422
0.00173418
0.00173419
0.0154291
0.0153188
0.0152953
0.0153567
0.0280486
0.0280362
0.0280339
0.0280419
0.0292469
0.0292462
0.0292461
0.0292467
0.0294228
0.0294229
0.0294229
0.0294231
0.0296169
0.0296215
0.0296236
0.0296234
0.0297557
0.0297597
0.029762
0.0297626
0.0278878
0.0279473
0.0279648
0.0279397
0.0129376
0.0131873
0.0132328
0.0130886
0.00165832
0.0016588
0.0016589
0.0016587
0.00170896
0.00170887
0.00170884
0.00170885
0.016028
0.0159134
0.0158887
0.0159523
0.0281842
0.0281726
0.0281703
0.0281777
0.0291896
0.0291889
0.0291888
0.0291894
0.029308
0.029308
0.029308
0.029308
0.0294102
0.0294129
0.0294142
0.0294139
0.0294922
0.0294943
0.0294954
0.0294955
0.0278818
0.027933
0.0279474
0.0279242
0.0136115
0.0138842
0.0139334
0.0137758
0.00162899
0.0016294
0.00162947
0.00162926
0.00168179
0.0016817
0.00168166
0.00168168
0.0167316
0.0166116
0.0165855
0.0166516
0.0283369
0.0283261
0.0283238
0.0283305
0.0291669
0.0291663
0.0291663
0.0291668
0.0292525
0.0292524
0.0292524
0.0292524
0.0293062
0.0293081
0.0293089
0.0293087
0.0293661
0.0293679
0.0293687
0.0293684
0.0280213
0.028067
0.0280794
0.0280582
0.0144098
0.0147083
0.0147619
0.0145892
0.00159867
0.00159903
0.00159907
0.00159888
0.00165271
0.00165261
0.00165257
0.0016526
0.0175657
0.0174391
0.0174112
0.0174804
0.0284978
0.0284878
0.0284857
0.0284916
0.0291606
0.0291601
0.0291601
0.0291605
0.0292247
0.0292247
0.0292247
0.0292246
0.029253
0.0292544
0.0292549
0.0292546
0.0293059
0.0293077
0.0293083
0.0293079
0.0282309
0.0282719
0.0282828
0.0282635
0.0153469
0.0156742
0.0157325
0.0155431
0.00156709
0.00156741
0.00156744
0.00156725
0.00162168
0.00162157
0.00162154
0.00162156
0.0185676
0.0184326
0.0184024
0.0184753
0.0286607
0.0286518
0.0286498
0.028655
0.0291615
0.0291612
0.0291612
0.0291616
0.0292095
0.0292095
0.0292095
0.0292095
0.0292242
0.0292251
0.0292255
0.0292252
0.0292749
0.0292767
0.0292773
0.0292767
0.0284684
0.0285049
0.0285143
0.0284967
0.0164566
0.0168159
0.0168789
0.0166707
0.00153406
0.00153435
0.00153437
0.00153419
0.00158876
0.00158865
0.00158861
0.00158864
0.0197918
0.0196458
0.0196124
0.01969
0.0288194
0.0288116
0.0288098
0.0288143
0.0291651
0.0291649
0.0291649
0.0291652
0.0291994
0.0291994
0.0291995
0.0291995
0.0292062
0.0292069
0.0292071
0.0292068
0.0292537
0.0292554
0.0292559
0.0292552
0.0287057
0.0287378
0.0287456
0.0287294
0.017793
0.0181865
0.0182539
0.0180255
0.00149951
0.00149975
0.00149976
0.00149961
0.00155418
0.00155406
0.00155402
0.00155406
0.0213187
0.0211571
0.0211194
0.0212035
0.0289671
0.028961
0.0289596
0.028963
0.0291682
0.0291681
0.0291682
0.0291683
0.0291908
0.0291909
0.029191
0.029191
0.0291927
0.0291932
0.0291933
0.0291931
0.0292317
0.0292332
0.0292336
0.0292329
0.0289181
0.0289456
0.0289516
0.0289369
0.0194359
0.0198592
0.0199293
0.0196829
0.00146351
0.00146371
0.00146372
0.0014636
0.00151817
0.00151805
0.00151801
0.00151806
0.0232737
0.0230895
0.0230461
0.0231399
0.0290908
0.029087
0.029086
0.0290882
0.029169
0.029169
0.029169
0.029169
0.0291828
0.029183
0.0291831
0.0291832
0.0291819
0.0291822
0.0291823
0.0291821
0.029206
0.0292071
0.0292073
0.0292068
0.0290807
0.0291024
0.0291065
0.0290939
0.0215249
0.0219776
0.0220446
0.0217768
0.0014262
0.00142636
0.00142637
0.00142627
0.00147988
0.00147978
0.00147977
0.00147983
0.0258507
0.0256419
0.0255963
0.0257035
0.0291737
0.0291722
0.0291717
0.0291727
0.0291677
0.0291676
0.0291676
0.0291675
0.0291769
0.029177
0.0291771
0.0291772
0.0291755
0.0291756
0.0291756
0.0291756
0.0291833
0.0291838
0.0291839
0.0291837
0.0291775
0.0291898
0.0291917
0.029184
0.0244748
0.0249
0.0249496
0.0246898
0.00138678
0.00138692
0.00138692
0.00138682
0.00215569
0.00203918
0.00197479
0.00194226
0.00192314
0.00191076
0.00190259
0.0018974
0.00189407
0.00189179
0.00174779
0.00158438
0.00476779
0.00942655
0.0139371
0.0171248
0.0186356
0.0187877
0.0181583
0.0172201
0.00236394
0.00257636
0.00732865
0.0155584
0.0249652
0.0330885
0.0390754
0.0428797
0.044756
0.0451411
0.0027684
0.00360074
0.00829242
0.0178463
0.0291744
0.0385273
0.0450028
0.0487335
0.0501708
0.0499615
0.00307661
0.00394229
0.00871906
0.0193504
0.0320883
0.0419678
0.0481512
0.0510041
0.05132
0.0501095
0.00338815
0.0040705
0.0089393
0.0204205
0.0342672
0.0443088
0.0498853
0.0516754
0.0509014
0.0488649
0.00363016
0.00408327
0.00896844
0.0211704
0.0358942
0.04575
0.0504275
0.0510578