/*--------------------------------*- C++ -*----------------------------------*\
| =========                 |                                                 |
| \\      /  F ield         | foam-extend: Open Source CFD                    |
|  \\    /   O peration     | Version:     4.0                                |
|   \\  /    A nd           | Web:         http://www.foam-extend.org         |
|    \\/     M anipulation  |                                                 |
\*---------------------------------------------------------------------------*/
FoamFile
{
    version     2.0;
    format      ascii;
    class       surfaceScalarField;
    location    "1450";
    object      phi;
}
// * * * * * * * * * * * * * * * * * * * * * * * * * * * * * * * * * * * * * //

dimensions      [1 0 -1 0 0 0 0];

internalField   nonuniform List<scalar> 
97302
(
-0.00010979
9.51989e-07
-0.000869336
0.000878608
-0.000119602
1.14136e-06
-0.000870341
0.000879012
-0.000129523
1.20058e-06
-0.00087087
0.00087959
-0.000140124
1.13878e-06
-0.000870912
0.000880375
-0.000152232
9.46838e-07
-0.000870464
0.000881625
-0.000167326
6.14682e-07
-0.000869301
0.000883781
-0.000188499
1.15905e-07
-0.000866817
0.000887875
-0.000222755
-5.93637e-07
-0.000861194
0.000896044
-0.000271336
-1.63619e-06
-0.000851409
0.000901626
-4.3917e-06
-0.000823917
-0.000353011
0.000909983
-0.000150912
1.60171e-06
-0.00116576
0.00117585
-0.000161181
1.96393e-06
-0.00116672
0.00117616
-0.000171524
2.08272e-06
-0.00116731
0.00117677
-0.000182478
1.99126e-06
-0.00116734
0.00117744
-0.000194838
1.67444e-06
-0.00116655
0.00117818
-0.000210317
1.12103e-06
-0.00116454
0.00117951
-0.000232767
2.73483e-07
-0.00116095
0.00118324
-0.000271568
-9.63065e-07
-0.00115415
0.00119332
-0.000328345
-2.89127e-06
-0.00114184
0.00119988
-7.45125e-06
-0.00110395
-0.00043276
0.00121142
-0.000191217
1.88928e-06
-0.00146107
0.00147192
-0.000201785
2.38576e-06
-0.00146209
0.00147224
-0.000212302
2.56821e-06
-0.00146272
0.00147275
-0.000223278
2.4932e-06
-0.00146252
0.00147299
-0.000235636
2.14236e-06
-0.00146117
0.00147306
-0.000251509
1.50507e-06
-0.00145851
0.001474
-0.000275382
5.01971e-07
-0.00145463
0.00147827
-0.000318349
-9.65006e-07
-0.00144805
0.00149102
-0.000381675
-3.34714e-06
-0.00143489
0.00149867
-9.1249e-06
-0.00138617
-0.000500664
0.00150683
-0.000231435
2.07326e-06
-0.00175236
0.00176363
-0.000242295
2.71012e-06
-0.00175361
0.00176414
-0.000253107
2.97223e-06
-0.00175449
0.0017649
-0.000264397
2.93902e-06
-0.0017545
0.00176534
-0.000277153
2.58143e-06
-0.00175333
0.00176564
-0.000293699
1.89052e-06
-0.0017509
0.00176706
-0.000318847
7.63785e-07
-0.00174734
0.00177223
-0.00036495
-8.89915e-07
-0.00174113
0.00178715
-0.000432962
-3.67363e-06
-0.00172752
0.00179585
-1.06185e-05
-0.00166767
-0.000560713
0.00179692
-0.000271551
2.3024e-06
-0.00204477
0.00205622
-0.000282579
3.00931e-06
-0.0020464
0.00205713
-0.00029356
3.30997e-06
-0.0020478
0.00205844
-0.000305044
3.29368e-06
-0.00204828
0.00205941
-0.00031809
2.92911e-06
-0.00204765
0.00206034
-0.000335139
2.20692e-06
-0.00204585
0.00206258
-0.000361295
1.01032e-06
-0.00204294
0.00206885
-0.000409934
-7.4399e-07
-0.00203742
0.00208591
-0.000481888
-3.80895e-06
-0.00202418
0.00209627
-1.1853e-05
-0.00195254
-0.000615109
0.00208699
-0.000312235
2.38808e-06
-0.00233577
0.00234751
-0.000323365
3.12108e-06
-0.00233786
0.00234888
-0.000334414
3.40997e-06
-0.00233966
0.00235061
-0.000345958
3.36611e-06
-0.00234057
0.00235204
-0.000359105
2.96718e-06
-0.00234046
0.00235357
-0.000376382
2.21269e-06
-0.00233942
0.0023567
-0.000403165
9.8464e-07
-0.00233745
0.00236426
-0.000453698
-7.82406e-07
-0.00233303
0.0023836
-0.000528957
-3.90708e-06
-0.00232131
0.00239666
-1.28226e-05
-0.00223758
-0.000665697
0.00237529
-0.000352741
2.37225e-06
-0.00262658
0.00263844
-0.000363815
3.01271e-06
-0.00262928
0.00264046
-0.000374787
3.2303e-06
-0.00263166
0.00264281
-0.000386241
3.09976e-06
-0.00263304
0.00264476
-0.000399338
2.62582e-06
-0.00263352
0.00264696
-0.000416636
1.8009e-06
-0.0026333
0.00265101
-0.000443757
5.61203e-07
-0.00263246
0.00266001
-0.00049563
-1.10799e-06
-0.00262965
0.00268185
-0.000573672
-3.85692e-06
-0.00262059
0.00269858
-1.29802e-05
-0.00252454
-0.000712413
0.00266344
-0.000394523
2.02122e-06
-0.00291799
0.00293027
-0.000405648
2.47137e-06
-0.00292129
0.00293296
-0.00041662
2.50145e-06
-0.00292379
0.00293549
-0.000428025
2.16379e-06
-0.00292513
0.00293747
-0.000440988
1.4944e-06
-0.00292551
0.0029396
-0.000458012
4.91365e-07
-0.00292546
0.00294379
-0.00048486
-8.16867e-07
-0.00292531
0.00295354
-0.000536922
-2.35881e-06
-0.00292395
0.00297726
-0.000616429
-4.14658e-06
-0.00291824
0.00299804
-1.21344e-05
-0.00281171
-0.000755567
0.00295
-0.000435715
1.06841e-06
-0.00320581
0.00321823
-0.000446413
1.13638e-06
-0.00320997
0.00322201
-0.000456991
8.4632e-07
-0.00321309
0.00322533
-0.000468094
1.1334e-07
-0.00321505
0.0032282
-0.000480886
-9.45882e-07
-0.00321621
0.00323144
-0.000497752
-2.30609e-06
-0.00321716
0.00323682
-0.000524454
-3.78128e-06
-0.00321843
0.00324809
-0.000576242
-5.09611e-06
-0.00321935
0.00327388
-0.000655681
-5.50271e-06
-0.00321602
0.00329682
-1.01901e-05
-0.00309874
-0.000792307
0.00323343
-0.000477124
-0.00347433
0.00348733
-0.000488463
-0.003478
0.00349047
-0.000499649
-0.00347876
0.00349079
-0.000511363
-0.00347625
0.00348808
-0.000524641
-0.00347113
0.00348346
-0.00054161
-0.00346445
0.00347911
-0.0005675
-0.0034574
0.00347951
-0.000616499
-0.00345147
0.00349538
-0.000689575
-0.00344789
0.00351547
-0.00333901
-0.000818558
0.0034578
1.44087e-05
8.88898e-07
-0.000860883
5.3277e-06
1.1136e-06
-0.000862374
-3.77514e-06
1.19447e-06
-0.000862961
-1.30836e-05
1.13701e-06
-0.000862741
-2.27968e-05
9.31192e-07
-0.000861682
-3.31332e-05
5.58706e-07
-0.000859523
-4.42402e-05
-1.4559e-08
-0.000855696
-5.55372e-05
-8.67262e-07
-0.00084903
-6.62415e-05
-2.19518e-06
-0.00083851
-3.9651e-06
-0.000822257
-6.39362e-05
1.54218e-05
1.5119e-06
-0.00115591
5.40588e-06
1.9281e-06
-0.00115751
-4.60075e-06
2.08206e-06
-0.00115819
-1.49153e-05
2.00333e-06
-0.00115789
-2.58027e-05
1.66982e-06
-0.0011564
-3.76255e-05
1.0593e-06
-0.00115322
-5.12207e-05
1.10108e-07
-0.00114748
-6.76324e-05
-1.29362e-06
-0.00113731
-8.82608e-05
-3.53861e-06
-0.00111987
-6.60189e-06
-0.00109091
-9.86622e-05
1.6752e-05
1.817e-06
-0.00145002
6.0236e-06
2.38124e-06
-0.00145181
-4.61334e-06
2.60557e-06
-0.00145261
-1.54904e-05
2.54456e-06
-0.00145218
-2.69448e-05
2.16476e-06
-0.00145021
-3.97101e-05
1.44252e-06
-0.00144612
-5.55326e-05
2.85963e-07
-0.00143898
-7.71421e-05
-1.42644e-06
-0.00142631
-0.000108628
-4.27902e-06
-0.00140266
-8.38713e-06
-0.00135911
-0.000133898
1.79731e-05
2.01976e-06
-0.00174062
6.76273e-06
2.74185e-06
-0.00174276
-4.35887e-06
3.05447e-06
-0.00174382
-1.57863e-05
3.04048e-06
-0.00174357
-2.79746e-05
2.65202e-06
-0.00174162
-4.19154e-05
1.8675e-06
-0.00173739
-5.99195e-05
5.54313e-07
-0.00172961
-8.61108e-05
-1.40062e-06
-0.00171496
-0.000128041
-4.78996e-06
-0.00168507
-9.89619e-06
-0.00162519
-0.000169011
1.9093e-05
2.26243e-06
-0.00203264
7.59802e-06
3.06383e-06
-0.00203523
-3.8032e-06
3.42106e-06
-0.00203676
-1.5566e-05
3.42996e-06
-0.00203691
-2.82832e-05
3.03866e-06
-0.00203532
-4.3132e-05
2.22493e-06
-0.00203136
-6.28885e-05
8.17147e-07
-0.00202345
-9.29723e-05
-1.28797e-06
-0.00200745
-0.000144875
-5.0717e-06
-0.00197199
-1.1054e-05
-0.00189486
-0.000201397
1.98023e-05
2.38075e-06
-0.00232322
8.1317e-06
3.21727e-06
-0.00232634
-3.3998e-06
3.57044e-06
-0.00232828
-1.53057e-05
3.56215e-06
-0.00232879
-2.82984e-05
3.14762e-06
-0.00232758
-4.37184e-05
2.31458e-06
-0.00232409
-6.47697e-05
8.71549e-07
-0.00231645
-9.80404e-05
-1.27453e-06
-0.00229978
-0.000159334
-5.20424e-06
-0.00225988
-1.18726e-05
-0.0021653
-0.000230795
2.02187e-05
2.35667e-06
-0.00261378
8.57168e-06
3.09912e-06
-0.00261752
-2.90962e-06
3.38639e-06
-0.00261999
-1.4755e-05
3.30431e-06
-0.00262094
-2.78068e-05
2.84769e-06
-0.00262017
-4.35151e-05
1.98712e-06
-0.00261727
-6.54622e-05
5.47339e-07
-0.00261019
-0.000101275
-1.56449e-06
-0.00259355
-0.000171245
-5.24197e-06
-0.00255058
-1.22387e-05
-0.00243864
-0.000256785
1.99624e-05
2.02976e-06
-0.00290476
8.31381e-06
2.58571e-06
-0.00290913
-3.06144e-06
2.71592e-06
-0.00291175
-1.47408e-05
2.4796e-06
-0.00291263
-2.76212e-05
1.90747e-06
-0.00291169
-4.32264e-05
9.6654e-07
-0.00290883
-6.5438e-05
-4.3531e-07
-0.00290212
-0.000102716
-2.40635e-06
-0.00288583
-0.000180084
-5.21757e-06
-0.0028409
-1.18911e-05
-0.00271275
-0.00027939
1.94275e-05
1.07347e-06
-0.00319231
8.24952e-06
1.21874e-06
-0.00319743
-2.62084e-06
1.05961e-06
-0.00320057
-1.37921e-05
4.75701e-07
-0.00320187
-2.63153e-05
-4.02083e-07
-0.00320138
-4.18245e-05
-1.58314e-06
-0.0031991
-6.44053e-05
-3.00875e-06
-0.00319327
-0.000103006
-4.67314e-06
-0.00317848
-0.000186331
-6.14577e-06
-0.00313177
-1.00689e-05
-0.00298507
-0.000301824
1.82695e-05
-0.00346055
6.84029e-06
-0.00346535
-4.07927e-06
-0.00346678
-1.51755e-05
-0.00346468
-2.73861e-05
-0.00345932
-4.23132e-05
-0.00345111
-6.38752e-05
-0.00343884
-0.000101254
-0.00341877
-0.000185975
-0.00336932
-0.00321508
-0.000319967
1.2035e-05
7.76993e-07
-0.000854214
4.43409e-06
1.01711e-06
-0.00085579
-3.28291e-06
1.10529e-06
-0.00085635
-1.10262e-05
1.04107e-06
-0.000856039
-1.86724e-05
8.17794e-07
-0.000854853
-2.59767e-05
4.19653e-07
-0.000852639
-3.23872e-05
-1.75353e-07
-0.00084911
-3.66e-05
-1.00504e-06
-0.000843812
-3.67349e-05
-2.15306e-06
-0.000836222
-3.43057e-06
-0.000826575
-2.89862e-05
1.38887e-05
1.35929e-06
-0.0011474
4.86525e-06
1.7994e-06
-0.00114927
-4.22034e-06
1.96273e-06
-0.00114996
-1.3459e-05
1.87258e-06
-0.00114948
-2.28567e-05
1.5072e-06
-0.00114769
-3.22625e-05
8.42037e-07
-0.00114424
-4.1276e-05
-1.76283e-07
-0.00113846
-4.8745e-05
-1.62e-06
-0.00112923
-5.2206e-05
-3.70383e-06
-0.00111486
-6.1237e-06
-0.00109565
-4.47718e-05
1.59952e-05
1.69983e-06
-0.00143985
5.79538e-06
2.29513e-06
-0.00144211
-4.40034e-06
2.52945e-06
-0.00144298
-1.4787e-05
2.45037e-06
-0.00144237
-2.54597e-05
2.01953e-06
-0.00144005
-3.64814e-05
1.20169e-06
-0.00143546
-4.79663e-05
-9.79292e-08
-0.00142757
-5.94467e-05
-1.97675e-06
-0.00141447
-6.85133e-05
-4.84415e-06
-0.00139245
-8.36032e-06
-0.00136043
-6.49628e-05
1.76496e-05
1.95329e-06
-0.00172942
6.66208e-06
2.71742e-06
-0.00173219
-4.31909e-06
3.04205e-06
-0.00173335
-1.5604e-05
3.0053e-06
-0.00173284
-2.74382e-05
2.55262e-06
-0.00173032
-4.01512e-05
1.6463e-06
-0.00172512
-5.43042e-05
1.38431e-07
-0.00171569
-7.009e-05
-2.09118e-06
-0.00169906
-8.58007e-05
-5.70438e-06
-0.0016685
-1.03284e-05
-0.00162077
-8.82524e-05
1.90594e-05
2.24123e-06
-0.00202077
7.56472e-06
3.09138e-06
-0.00202411
-3.90383e-06
3.46456e-06
-0.00202572
-1.57641e-05
3.45189e-06
-0.0020255
-2.84408e-05
2.99397e-06
-0.00202308
-4.25158e-05
2.04883e-06
-0.00201769
-5.90022e-05
4.13423e-07
-0.00200724
-7.88904e-05
-2.06045e-06
-0.00198759
-0.000101932
-6.29991e-06
-0.00194836
-1.1963e-05
-0.00188302
-0.000112135
2.0002e-05
2.40855e-06
-0.00231075
8.17213e-06
3.29815e-06
-0.00231472
-3.57892e-06
3.67186e-06
-0.00231673
-1.57627e-05
3.64946e-06
-0.00231681
-2.89612e-05
3.17411e-06
-0.00231456
-4.4006e-05
2.2124e-06
-0.00230921
-6.23967e-05
5.31219e-07
-0.00229818
-8.60284e-05
-2.04082e-06
-0.00227616
-0.000116862
-6.63566e-06
-0.00222871
-1.31719e-05
-0.00214471
-0.000136243
2.05577e-05
2.40776e-06
-0.00260088
8.64812e-06
3.20322e-06
-0.00260551
-3.14518e-06
3.51703e-06
-0.00260804
-1.53793e-05
3.43431e-06
-0.00260849
-2.88023e-05
2.94157e-06
-0.00260651
-4.44552e-05
1.9926e-06
-0.00260139
-6.43216e-05
3.52045e-07
-0.00259014
-9.1233e-05
-2.20192e-06
-0.00256648
-0.000129962
-6.76297e-06
-0.00251172
-1.39404e-05
-0.00240855
-0.000159282
2.03831e-05
2.09201e-06
-0.00289139
8.44352e-06
2.69729e-06
-0.00289669
-3.26648e-06
2.87086e-06
-0.00289939
-1.53667e-05
2.67497e-06
-0.00289977
-2.86995e-05
2.1253e-06
-0.00289754
-4.4495e-05
1.17517e-06
-0.00289222
-6.52047e-05
-3.27209e-07
-0.00288073
-9.45556e-05
-2.64648e-06
-0.00285603
-0.000140665
-6.39894e-06
-0.00279515
-1.37298e-05
-0.00267305
-0.000180578
1.97657e-05
1.14969e-06
-0.00317862
8.27958e-06
1.32735e-06
-0.00318457
-2.92983e-06
1.24805e-06
-0.00318773
-1.44872e-05
7.73485e-07
-0.00318841
-2.73922e-05
2.71665e-08
-0.00318637
-4.31175e-05
-1.01194e-06
-0.00318119
-6.46201e-05
-2.33506e-06
-0.00316976
-9.64123e-05
-4.08831e-06
-0.00314525
-0.000148874
-6.36755e-06
-0.00307934
-1.15058e-05
-0.0029356
-0.000200573
1.86012e-05
-0.0034467
7.03319e-06
-0.00345245
-4.06808e-06
-0.00345443
-1.54108e-05
-0.00345256
-2.78848e-05
-0.00344682
-4.29725e-05
-0.00343703
-6.36713e-05
-0.00342048
-9.53817e-05
-0.00339115
-0.000150651
-0.00332041
-0.00316191
-0.000215335
9.33987e-06
6.07549e-07
-0.000849383
3.47104e-06
8.51159e-07
-0.000850772
-2.5797e-06
9.4345e-07
-0.000851242
-8.53914e-06
8.77626e-07
-0.000850957
-1.41005e-05
6.52183e-07
-0.000849944
-1.88411e-05
2.58223e-07
-0.000848156
-2.21185e-05
-3.112e-07
-0.000845521
-2.28943e-05
-1.05819e-06
-0.000841978
-1.95854e-05
-1.97913e-06
-0.000837552
-2.86236e-06
-0.000832706
-1.05924e-05
1.17338e-05
1.11238e-06
-0.00114056
4.11756e-06
1.56272e-06
-0.00114237
-3.6284e-06
1.73126e-06
-0.00114301
-1.13665e-05
1.63365e-06
-0.0011425
-1.88805e-05
1.25247e-06
-0.00114078
-2.57812e-05
5.69669e-07
-0.00113765
-3.13092e-05
-4.46219e-07
-0.0011328
-3.39466e-05
-1.81716e-06
-0.00112583
-3.08546e-05
-3.60284e-06
-0.00111633
-5.41631e-06
-0.00110579
-1.81634e-05
1.44457e-05
1.47811e-06
-0.00143108
5.27112e-06
2.08978e-06
-0.00143346
-3.97165e-06
2.32689e-06
-0.00143433
-1.32828e-05
2.22719e-06
-0.00143366
-2.25558e-05
1.75398e-06
-0.00143128
-3.14956e-05
8.72523e-07
-0.00142683
-3.94247e-05
-4.94597e-07
-0.0014196
-4.47336e-05
-2.39985e-06
-0.00140858
-4.3496e-05
-5.03686e-06
-0.00139226
-7.89116e-06
-0.00137272
-2.87227e-05
1.65373e-05
1.7843e-06
-0.00171932
6.24527e-06
2.57736e-06
-0.00172239
-4.11218e-06
2.90562e-06
-0.00172357
-1.46719e-05
2.83822e-06
-0.00172289
-2.54786e-05
2.32106e-06
-0.00172008
-3.64435e-05
1.3121e-06
-0.00171459
-4.70994e-05
-3.24669e-07
-0.00170521
-5.58624e-05
-2.68131e-06
-0.00169002
-5.78808e-05
-6.17946e-06
-0.00166534
-1.01708e-05
-0.00163347
-4.29044e-05
1.82924e-05
2.12337e-06
-0.00200969
7.21626e-06
3.01166e-06
-0.00201346
-3.89498e-06
3.39226e-06
-0.00201509
-1.53169e-05
3.34608e-06
-0.00201458
-2.72862e-05
2.81212e-06
-0.0020116
-3.99642e-05
1.73903e-06
-0.00200544
-5.31882e-05
-7.38652e-08
-0.00199427
-6.5592e-05
-2.77194e-06
-0.0019751
-7.19305e-05
-7.05563e-06
-0.00194114
-1.21888e-05
-0.00189428
-5.8651e-05
1.95292e-05
2.35088e-06
-0.00229884
7.90438e-06
3.28466e-06
-0.00230337
-3.69882e-06
3.67058e-06
-0.00230541
-1.56818e-05
3.62072e-06
-0.0023051
-2.84576e-05
3.07175e-06
-0.00230204
-4.24629e-05
1.97593e-06
-0.00229544
-5.79375e-05
8.90564e-08
-0.00228287
-7.39447e-05
-2.78628e-06
-0.00226014
-8.55266e-05
-7.60664e-06
-0.00221658
-1.37613e-05
-0.00215284
-7.58235e-05
2.02888e-05
2.39397e-06
-0.00258834
8.42953e-06
3.23518e-06
-0.0025936
-3.36296e-06
3.56662e-06
-0.00259615
-1.55681e-05
3.46769e-06
-0.00259613
-2.87861e-05
2.91564e-06
-0.00259314
-4.37133e-05
1.85263e-06
-0.00258634
-6.10501e-05
1.902e-08
-0.00257274
-8.04307e-05
-2.86783e-06
-0.00254702
-9.78653e-05
-7.85315e-06
-0.00249404
-1.48895e-05
-0.00241213
-9.31507e-05
2.02703e-05
2.10628e-06
-0.00287826
8.30865e-06
2.75413e-06
-0.00288424
-3.47507e-06
2.95779e-06
-0.002887
-1.56451e-05
2.78111e-06
-0.00288691
-2.89145e-05
2.2219e-06
-0.00288358
-4.42278e-05
1.22544e-06
-0.00287628
-6.28121e-05
-4.01581e-07
-0.00286173
-8.50171e-05
-3.01965e-06
-0.00283368
-0.000108498
-7.32729e-06
-0.00277219
-1.48227e-05
-0.0026715
-0.000110106
1.97187e-05
1.19803e-06
-0.00316507
8.15251e-06
1.40345e-06
-0.00317166
-3.19189e-06
1.38902e-06
-0.00317482
-1.48794e-05
9.99474e-07
-0.00317494
-2.77613e-05
3.46635e-07
-0.00317162
-4.30156e-05
-6.06415e-07
-0.0031641
-6.24912e-05
-1.89352e-06
-0.0031488
-8.76474e-05
-3.74965e-06
-0.00311936
-0.000117039
-6.49184e-06
-0.00305079
-1.22083e-05
-0.0029286
-0.000126657
1.86291e-05
-0.00343305
7.10255e-06
-0.00343952
-4.02279e-06
-0.00344192
-1.54155e-05
-0.00344017
-2.78433e-05
-0.00343404
-4.25238e-05
-0.00342296
-6.14063e-05
-0.00340349
-8.70426e-05
-0.00336926
-0.000119663
-0.00329429
-0.00315437
-0.000139406
6.85335e-06
4.22016e-07
-0.000846037
2.57984e-06
6.52681e-07
-0.000847152
-1.89336e-06
7.43539e-07
-0.000847513
-6.236e-06
6.81441e-07
-0.000847296
-1.01034e-05
4.69814e-07
-0.000846547
-1.30904e-05
1.07734e-07
-0.000845277
-1.47035e-05
-3.96386e-07
-0.000843512
-1.43382e-05
-1.02118e-06
-0.000841322
-1.1324e-05
-1.72085e-06
-0.000838845
-2.32888e-06
-0.000836331
-5.37025e-06
9.39482e-06
8.17267e-07
-0.00113536
3.30605e-06
1.25686e-06
-0.00113688
-2.95975e-06
1.4238e-06
-0.00113742
-9.12265e-06
1.32516e-06
-0.00113698
-1.48401e-05
9.49289e-07
-0.00113554
-1.96422e-05
2.89435e-07
-0.00113303
-2.28132e-05
-6.5946e-07
-0.00112937
-2.32493e-05
-1.87539e-06
-0.00112454
-1.92868e-05
-3.31491e-06
-0.0011187
-4.63263e-06
-0.001113
-9.77142e-06
1.24667e-05
1.17794e-06
-0.00142391
4.60351e-06
1.78613e-06
-0.00142613
-3.39415e-06
2.0197e-06
-0.00142693
-1.13431e-05
1.90435e-06
-0.00142629
-1.89682e-05
1.40871e-06
-0.00142412
-2.57969e-05
5.08133e-07
-0.00142022
-3.09529e-05
-8.43713e-07
-0.00141426
-3.28571e-05
-2.64887e-06
-0.0014059
-2.8621e-05
-4.92702e-06
-0.00139488
-7.14133e-06
-0.00138344
-1.53972e-05
1.49055e-05
1.51873e-06
-0.00171063
5.6566e-06
2.32457e-06
-0.00171368
-3.73347e-06
2.65098e-06
-0.00171481
-1.3198e-05
2.55508e-06
-0.00171408
-2.25727e-05
1.98772e-06
-0.00171129
-3.1492e-05
9.1331e-07
-0.00170608
-3.90634e-05
-7.70772e-07
-0.00169771
-4.33543e-05
-3.10648e-06
-0.00168527
-4.00426e-05
-6.27336e-06
-0.00166731
-9.53787e-06
-0.00164726
-2.38609e-05
1.69917e-05
1.90094e-06
-0.00199977
6.68957e-06
2.81528e-06
-0.00200365
-3.7203e-06
3.19845e-06
-0.00200523
-1.43148e-05
3.11746e-06
-0.00200455
-2.50998e-05
2.51402e-06
-0.00200134
-3.58979e-05
1.33729e-06
-0.00199506
-4.59312e-05
-5.836e-07
-0.00198442
-5.3068e-05
-3.35121e-06
-0.00196771
-5.16702e-05
-7.37932e-06
-0.00194143
-1.177e-05
-0.00191006
-3.36617e-05
1.85386e-05
2.18894e-06
-0.00228787
7.45831e-06
3.1589e-06
-0.00229263
-3.6728e-06
3.55293e-06
-0.00229463
-1.50753e-05
3.47173e-06
-0.00229405
-2.6926e-05
2.8496e-06
-0.00229053
-3.92909e-05
1.63241e-06
-0.00228337
-5.16438e-05
-4.053e-07
-0.00227069
-6.18664e-05
-3.43585e-06
-0.00224984
-6.33756e-05
-8.12318e-06
-0.00221433
-1.35853e-05
-0.00216937
-4.50325e-05
1.95348e-05
2.28896e-06
-0.00257653
8.03857e-06
3.17216e-06
-0.00258212
-3.45829e-06
3.51844e-06
-0.00258461
-1.52812e-05
3.39887e-06
-0.00258424
-2.78002e-05
2.78296e-06
-0.00258055
-4.13388e-05
1.60411e-06
-0.00257278
-5.57239e-05
-3.92597e-07
-0.00255837
-6.9027e-05
-3.48111e-06
-0.00253367
-7.42203e-05
-8.4855e-06
-0.00248849
-1.4946e-05
-0.00242811
-5.68803e-05
1.97187e-05
2.04024e-06
-0.00286573
8.01506e-06
2.73148e-06
-0.0028721
-3.58208e-06
2.96096e-06
-0.00287484
-1.55102e-05
2.79511e-06
-0.00287438
-2.82648e-05
2.21507e-06
-0.00287025
-4.24234e-05
1.15753e-06
-0.00286167
-5.8286e-05
-5.89394e-07
-0.00284567
-7.43778e-05
-3.40734e-06
-0.00281766
-8.38708e-05
-7.90732e-06
-0.00276328
-1.50001e-05
-0.00268625
-6.90681e-05
1.92926e-05
1.19745e-06
-0.00315199
7.89754e-06
1.4314e-06
-0.00315896
-3.35238e-06
1.47382e-06
-0.00316208
-1.49034e-05
1.15335e-06
-0.00316175
-2.73983e-05
5.70842e-07
-0.00315748
-4.16212e-05
-3.26442e-07
-0.0031484
-5.83696e-05
-1.60522e-06
-0.00313103
-7.72725e-05
-3.53591e-06
-0.00310033
-9.1556e-05
-6.47129e-06
-0.00303794
-1.20706e-05
-0.00294158
-8.15022e-05
1.83123e-05
-0.00341989
7.03076e-06
-0.00342681
-3.93374e-06
-0.00342948
-1.51569e-05
-0.00342779
-2.72311e-05
-0.0034214
-4.10252e-05
-0.00340949
-5.74838e-05
-0.00338864
-7.7073e-05
-0.00335321
-9.41417e-05
-0.00328369
-0.00316972
-9.08645e-05
4.81926e-06
2.48565e-07
-0.000843777
1.84601e-06
4.53319e-07
-0.000844632
-1.31104e-06
5.37827e-07
-0.000844893
-4.34301e-06
4.83505e-07
-0.000844747
-6.9432e-06
2.97663e-07
-0.000844244
-8.78884e-06
-1.47274e-08
-0.000843417
-9.55059e-06
-4.35376e-07
-0.000842315
-8.91379e-06
-9.32243e-07
-0.000841027
-6.64899e-06
-1.44883e-06
-0.000839661
-1.86702e-06
-0.000838263
-2.84987e-06
7.17609e-06
5.15391e-07
-0.00113153
2.52665e-06
9.23536e-07
-0.0011327
-2.31548e-06
1.08177e-06
-0.00113312
-7.01882e-06
9.88957e-07
-0.00113279
-1.12106e-05
6.39039e-07
-0.00113169
-1.44492e-05
3.64365e-08
-0.00112984
-1.6175e-05
-8.0232e-07
-0.00112727
-1.57069e-05
-1.82875e-06
-0.00112412
-1.22631e-05
-2.95413e-06
-0.00112064
-3.90942e-06
-0.00111756
-5.65684e-06
1.03445e-05
8.38334e-07
-0.00141827
3.87993e-06
1.41944e-06
-0.00142016
-2.76416e-06
1.64212e-06
-0.00142084
-9.28243e-06
1.51947e-06
-0.0014203
-1.53009e-05
1.02703e-06
-0.00141848
-2.02992e-05
1.54561e-07
-0.00141533
-2.34799e-05
-1.11009e-06
-0.00141077
-2.36672e-05
-2.7272e-06
-0.00140482
-1.91547e-05
-4.6171e-06
-0.00139773
-6.31604e-06
-0.00139109
-9.10007e-06
1.29671e-05
1.18505e-06
-0.00170346
4.96416e-06
1.98141e-06
-0.00170624
-3.24523e-06
2.29929e-06
-0.00170726
-1.1421e-05
2.18236e-06
-0.00170656
-1.92357e-05
1.58969e-06
-0.00170404
-2.61747e-05
4.99574e-07
-0.00169948
-3.12786e-05
-1.14651e-06
-0.00169257
-3.28936e-05
-3.33751e-06
-0.00168304
-2.80363e-05
-6.07936e-06
-0.0016707
-8.68874e-06
-0.00165836
-1.45623e-05
1.53003e-05
1.59176e-06
-0.00199122
6.03615e-06
2.51287e-06
-0.00199492
-3.40778e-06
2.89247e-06
-0.00199638
-1.29117e-05
2.78159e-06
-0.00199564
-2.2271e-05
2.12876e-06
-0.00199252
-3.1068e-05
8.92729e-07
-0.00198666
-3.82886e-05
-1.04982e-06
-0.0019773
-4.1881e-05
-3.74175e-06
-0.00196372
-3.74117e-05
-7.35031e-06
-0.00194463
-1.09876e-05
-0.00192427
-2.08965e-05
1.71207e-05
1.93018e-06
-0.00227812
6.87304e-06
2.92153e-06
-0.00228279
-3.50354e-06
3.31836e-06
-0.00228468
-1.40292e-05
3.20757e-06
-0.00228395
-2.46415e-05
2.52584e-06
-0.00228031
-3.50943e-05
1.22219e-06
-0.00227325
-4.44566e-05
-8.86569e-07
-0.00226149
-5.04424e-05
-3.91752e-06
-0.00224367
-4.72262e-05
-8.2412e-06
-0.00221665
-1.29081e-05
-0.00218613
-2.85444e-05
1.83475e-05
2.09222e-06
-0.00256577
7.50476e-06
3.00813e-06
-0.00257136
-3.41691e-06
3.36556e-06
-0.00257374
-1.45538e-05
3.22561e-06
-0.00257312
-2.60242e-05
2.55405e-06
-0.00256911
-3.77951e-05
1.2832e-06
-0.00256107
-4.91348e-05
-8.12389e-07
-0.0025471
-5.76834e-05
-3.95371e-06
-0.00252508
-5.64553e-05
-8.68921e-06
-0.00248927
-1.43473e-05
-0.00244661
-3.65137e-05
1.87533e-05
1.88838e-06
-0.0028541
7.58204e-06
2.61986e-06
-0.00286054
-3.56681e-06
2.87059e-06
-0.0028632
-1.49629e-05
2.71035e-06
-0.00286247
-2.68541e-05
2.1072e-06
-0.00285792
-3.94336e-05
9.962e-07
-0.00284881
-5.23101e-05
-8.27583e-07
-0.00283277
-6.33325e-05
-3.70925e-06
-0.00280688
-6.48686e-05
-8.09496e-06
-0.00276234
-1.44285e-05
-0.00270604
-4.50032e-05
1.84852e-05
1.14118e-06
-0.00313972
7.51725e-06
1.40209e-06
-0.00314678
-3.39571e-06
1.49284e-06
-0.00314979
-1.45395e-05
1.22686e-06
-0.00314912
-2.63233e-05
6.9585e-07
-0.00314428
-3.9132e-05
-1.641e-07
-0.00313443
-5.29178e-05
-1.43717e-06
-0.00311664
-6.62914e-05
-3.37663e-06
-0.00308729
-7.12626e-05
-6.28506e-06
-0.00303478
-1.12809e-05
-0.00296235
-5.36361e-05
1.76427e-05
-0.00340752
6.81757e-06
-0.00341458
-3.78554e-06
-0.00341738
-1.46092e-05
-0.00341574
-2.60412e-05
-0.00340927
-3.85822e-05
-0.00339711
-5.23715e-05
-0.00337628
-6.65522e-05
-0.0033424
-7.36924e-05
-0.00328283
-0.0031951
-5.95945e-05
3.29293e-06
1.04242e-07
-0.000842251
1.29035e-06
2.76066e-07
-0.000842905
-8.64128e-07
3.51052e-07
-0.00084309
-2.91816e-06
3.06552e-07
-0.000843
-4.63122e-06
1.5251e-07
-0.000842683
-5.77008e-06
-1.03072e-07
-0.000842175
-6.13033e-06
-4.37597e-07
-0.000841517
-5.56059e-06
-8.17722e-07
-0.000840779
-4.01346e-06
-1.19132e-06
-0.000840017
-1.47737e-06
-0.000839151
-1.6482e-06
5.25536e-06
2.38694e-07
-0.00112876
1.83761e-06
5.99795e-07
-0.00112961
-1.76148e-06
7.43485e-07
-0.00112992
-5.2251e-06
6.61834e-07
-0.00112968
-8.21233e-06
3.53277e-07
-0.0011289
-1.03596e-05
-1.69461e-07
-0.00112763
-1.12731e-05
-8.76325e-07
-0.00112592
-1.057e-05
-1.70751e-06
-0.00112393
-7.95059e-06
-2.56595e-06
-0.00112188
-3.25575e-06
-0.00112019
-3.5411e-06
8.2947e-06
4.96867e-07
-0.00141396
3.16579e-06
1.02832e-06
-0.00141546
-2.15931e-06
1.23272e-06
-0.00141601
-7.32537e-06
1.11152e-06
-0.00141558
-1.19316e-05
6.46963e-07
-0.00141417
-1.54913e-05
-1.57199e-07
-0.00141179
-1.73761e-05
-1.2851e-06
-0.00140847
-1.68271e-05
-2.66855e-06
-0.00140441
-1.2991e-05
-4.18398e-06
-0.00139995
-5.47433e-06
-0.00139607
-5.78566e-06
1.09129e-05
8.18432e-07
-0.00169774
4.22341e-06
1.57994e-06
-0.0017001
-2.71523e-06
1.88146e-06
-0.00170097
-9.55017e-06
1.7533e-06
-0.00170037
-1.58615e-05
1.16427e-06
-0.00169824
-2.10913e-05
1.09413e-07
-0.00169452
-2.43904e-05
-1.42647e-06
-0.00168913
-2.45545e-05
-3.3874e-06
-0.00168216
-1.98279e-05
-5.6751e-06
-0.00167394
-7.72862e-06
-0.00166637
-9.55638e-06
1.33643e-05
1.2245e-06
-0.00198409
5.29812e-06
2.12712e-06
-0.0019874
-3.00574e-06
2.49518e-06
-0.00198869
-1.12716e-05
2.36306e-06
-0.00198799
-1.91435e-05
1.68901e-06
-0.00198518
-2.60728e-05
4.47688e-07
-0.00198007
-3.10463e-05
-1.4308e-06
-0.00197232
-3.24135e-05
-3.92902e-06
-0.00196181
-2.72295e-05
-7.03673e-06
-0.00194845
-9.9866e-06
-0.0019354
-1.38426e-05
1.53782e-05
1.59484e-06
-0.00226973
6.17891e-06
2.5855e-06
-0.00227405
-3.22034e-06
2.97771e-06
-0.00227576
-1.26587e-05
2.84309e-06
-0.00227499
-2.18777e-05
2.12503e-06
-0.00227153
-3.0417e-05
7.84328e-07
-0.00226505
-3.72089e-05
-1.30648e-06
-0.00225483
-4.0249e-05
-4.19731e-06
-0.00224037
-3.52668e-05
-8.01732e-06
-0.00222065
-1.18967e-05
-0.0022003
-1.91822e-05
1.67927e-05
1.81551e-06
-0.00255627
6.84823e-06
2.74751e-06
-0.00256158
-3.25299e-06
3.1101e-06
-0.00256377
-1.34586e-05
2.95318e-06
-0.00256302
-2.36608e-05
2.24328e-06
-0.00255903
-3.35466e-05
9.20514e-07
-0.00255132
-4.20967e-05
-1.19311e-06
-0.00253866
-4.70711e-05
-4.24038e-06
-0.00252007
-4.28851e-05
-8.50971e-06
-0.00249296
-1.32782e-05
-0.00246352
-2.45957e-05
1.74136e-05
1.65593e-06
-0.00284361
7.02167e-06
2.41814e-06
-0.00284982
-3.43455e-06
2.68386e-06
-0.00285232
-1.40444e-05
2.52654e-06
-0.00285143
-2.48204e-05
1.90547e-06
-0.0028468
-3.5629e-05
7.61853e-07
-0.00283784
-4.56422e-05
-1.08127e-06
-0.00282287
-5.26137e-05
-3.88927e-06
-0.00280026
-5.00007e-05
-7.91495e-06
-0.00276555
-1.32785e-05
-0.00272552
-3.05208e-05
1.73156e-05
1.02924e-06
-0.00312851
7.01558e-06
1.31182e-06
-0.00313537
-3.32394e-06
1.4417e-06
-0.00313821
-1.38093e-05
1.21777e-06
-0.00313733
-2.46208e-05
7.25272e-07
-0.00313229
-3.57951e-05
-1.04291e-07
-0.00312239
-4.67231e-05
-1.3583e-06
-0.00310543
-5.55434e-05
-3.23749e-06
-0.00307912
-5.51221e-05
-5.95185e-06
-0.00303716
-1.01013e-05
-0.00298449
-3.61619e-05
1.66315e-05
-0.0033962
6.46694e-06
-0.00340311
-3.57358e-06
-0.0034059
-1.37773e-05
-0.00340432
-2.43233e-05
-0.003398
-3.53746e-05
-0.00338616
-4.65121e-05
-0.00336651
-5.61707e-05
-0.00333598
-5.7376e-05
-0.00328758
-0.00322287
-3.97053e-05
2.21324e-06
-4.60777e-09
-0.000841205
8.95107e-07
1.33288e-07
-0.00084172
-5.41468e-07
1.9764e-07
-0.000841851
-1.90503e-06
1.63192e-07
-0.000841799
-3.02026e-06
4.14962e-08
-0.00084161
-3.72701e-06
-1.58791e-07
-0.000841309
-3.90126e-06
-4.14997e-07
-0.000840928
-3.47228e-06
-6.97544e-07
-0.00084051
-2.45093e-06
-9.63851e-07
-0.000840074
-1.1589e-06
-0.000839471
-9.7115e-07
3.70019e-06
6.51413e-09
-0.00112678
1.26659e-06
3.1253e-07
-0.00112736
-1.32136e-06
4.3817e-07
-0.00112757
-3.79615e-06
3.70672e-07
-0.00112741
-5.8765e-06
1.11579e-07
-0.00112689
-7.28582e-06
-3.21952e-07
-0.00112605
-7.7621e-06
-8.94245e-07
-0.00112496
-7.10156e-06
-1.54502e-06
-0.00112374
-5.21764e-06
-2.18629e-06
-0.00112254
-2.67869e-06
-0.0011216
-2.29459e-06
6.45889e-06
1.83166e-07
-0.00141073
2.51118e-06
6.47721e-07
-0.00141185
-1.62379e-06
8.27795e-07
-0.00141226
-5.59887e-06
7.15207e-07
-0.00141195
-9.03932e-06
2.97494e-07
-0.00141092
-1.15327e-05
-4.11321e-07
-0.0014092
-1.26194e-05
-1.37683e-06
-0.00140691
-1.18429e-05
-2.51795e-06
-0.00140421
-8.83473e-06
-3.70167e-06
-0.00140144
-4.66596e-06
-0.00139917
-3.7554e-06
8.90447e-06
4.52977e-07
-0.0016933
3.487e-06
1.15562e-06
-0.00169519
-2.19513e-06
1.43299e-06
-0.00169589
-7.7408e-06
1.30341e-06
-0.00169541
-1.27049e-05
7.45114e-07
-0.00169373
-1.65601e-05
-2.31211e-07
-0.00169085
-1.86258e-05
-1.6068e-06
-0.00168683
-1.80979e-05
-3.29534e-06
-0.00168191
-1.4061e-05
-5.14839e-06
-0.00167653
-6.73272e-06
-0.0016719
-6.46678e-06
1.13334e-05
8.31652e-07
-0.00197833
4.52276e-06
1.68835e-06
-0.00198112
-2.56007e-06
2.03595e-06
-0.00198221
-9.54156e-06
1.89288e-06
-0.0019816
-1.59839e-05
1.22818e-06
-0.00197922
-2.1304e-05
3.46369e-08
-0.00197501
-2.4612e-05
-1.70893e-06
-0.00196891
-2.4702e-05
-3.93577e-06
-0.00196108
-1.98358e-05
-6.52559e-06
-0.00195194
-8.86469e-06
-0.00194363
-9.47707e-06
1.34351e-05
1.21046e-06
-0.00226272
5.41488e-06
2.1735e-06
-0.00226651
-2.8581e-06
2.55201e-06
-0.00226801
-1.1086e-05
2.40198e-06
-0.00226728
-1.88785e-05
1.67634e-06
-0.00226419
-2.56666e-05
3.52967e-07
-0.00225858
-3.04234e-05
-1.63787e-06
-0.00225014
-3.15666e-05
-4.28216e-06
-0.00223888
-2.63281e-05
-7.53582e-06
-0.00222488
-1.0675e-05
-0.00221146
-1.33634e-05
1.49651e-05
1.47868e-06
-0.00254814
6.09872e-06
2.40402e-06
-0.00255295
-2.99031e-06
2.76367e-06
-0.00255489
-1.20886e-05
2.5957e-06
-0.00255412
-2.09153e-05
1.8711e-06
-0.00255039
-2.89797e-05
5.44908e-07
-0.00254344
-3.519e-05
-1.5057e-06
-0.00253259
-3.76555e-05
-4.33962e-06
-0.00251754
-3.24585e-05
-8.03568e-06
-0.00249766
-1.19115e-05
-0.00247764
-1.7105e-05
1.57703e-05
1.35578e-06
-0.00283441
6.35633e-06
2.13308e-06
-0.00284013
-3.20039e-06
2.40598e-06
-0.0028424
-1.28219e-05
2.25146e-06
-0.00284147
-2.23259e-05
1.62442e-06
-0.00283705
-3.13456e-05
4.78963e-07
-0.00282875
-3.88582e-05
-1.32145e-06
-0.00281554
-4.2813e-05
-3.94731e-06
-0.0027967
-3.83536e-05
-7.46947e-06
-0.00277057
-1.17953e-05
-0.00274265
-2.1338e-05
1.58333e-05
8.67228e-07
-0.00311856
6.40709e-06