/*--------------------------------*- C++ -*----------------------------------*\
| =========                 |                                                 |
| \\      /  F ield         | foam-extend: Open Source CFD                    |
|  \\    /   O peration     | Version:     4.0                                |
|   \\  /    A nd           | Web:         http://www.foam-extend.org         |
|    \\/     M anipulation  |                                                 |
\*---------------------------------------------------------------------------*/
FoamFile
{
    version     2.0;
    format      ascii;
    class       volScalarField;
    location    "1450";
    object      rho;
}
// * * * * * * * * * * * * * * * * * * * * * * * * * * * * * * * * * * * * * //

dimensions      [1 -3 0 0 0 0 0];

internalField   nonuniform List<scalar> 
34480
(
1.34625
1.34553
1.34542
1.34588
1.34709
1.3494
1.3536
1.3617
1.3724
1.37686
1.34714
1.34647
1.34641
1.34687
1.34803
1.35021
1.35432
1.36246
1.37431
1.37616
1.34585
1.3452
1.34521
1.3456
1.3466
1.34849
1.35231
1.36009
1.37233
1.36893
1.34467
1.34411
1.34416
1.34452
1.34541
1.347
1.35041
1.35747
1.36948
1.36053
1.34353
1.34294
1.34303
1.34334
1.3441
1.34541
1.34842
1.35471
1.36622
1.35217
1.34335
1.34288
1.34301
1.34334
1.34403
1.34511
1.34774
1.35324
1.36393
1.34509
1.342
1.3415
1.34165
1.34195
1.34258
1.34351
1.34584
1.35066
1.36037
1.33757
1.34272
1.34239
1.34265
1.34318
1.34405
1.34519
1.34751
1.35183
1.36029
1.3336
1.34118
1.34088
1.34116
1.34172
1.34272
1.34412
1.34653
1.35054
1.35745
1.32768
1.33841
1.33833
1.33914
1.34064
1.34287
1.34584
1.3499
1.35542
1.36249
1.32887
1.35309
1.35199
1.3516
1.35183
1.35279
1.35461
1.35751
1.36184
1.36867
1.3776
1.35365
1.35241
1.35198
1.35223
1.35325
1.35524
1.35865
1.36434
1.37461
1.38942
1.3521
1.35077
1.35033
1.35049
1.35141
1.3533
1.35681
1.36321
1.37618
1.39525
1.35071
1.34933
1.34883
1.34888
1.34968
1.35136
1.3547
1.36111
1.37568
1.39764
1.34946
1.34796
1.34738
1.34729
1.34791
1.34929
1.35232
1.35837
1.37381
1.39753
1.34919
1.34769
1.34704
1.34686
1.34732
1.34842
1.35107
1.3565
1.37214
1.39638
1.34782
1.3462
1.34549
1.34517
1.34548
1.34631
1.34858
1.35334
1.36872
1.39287
1.34851
1.34695
1.34624
1.34601
1.34639
1.34724
1.34936
1.35352
1.36807
1.39119
1.347
1.34542
1.34466
1.34437
1.34468
1.34553
1.34755
1.35134
1.36447
1.38703
1.34431
1.34282
1.34241
1.34277
1.34393
1.34583
1.34889
1.35359
1.36625
1.38753
1.35782
1.35689
1.35657
1.35683
1.35772
1.35932
1.36173
1.36502
1.36916
1.37367
1.35834
1.35716
1.35678
1.3571
1.35821
1.36023
1.36335
1.36787
1.37451
1.3824
1.35664
1.35533
1.35494
1.35526
1.35644
1.35862
1.36216
1.36771
1.37703
1.3887
1.35503
1.35362
1.35317
1.35344
1.3546
1.35681
1.36059
1.36674
1.37816
1.39328
1.35357
1.35203
1.35152
1.35167
1.35273
1.35484
1.35864
1.36502
1.37805
1.39618
1.35306
1.3515
1.35092
1.351
1.35196
1.35391
1.35761
1.36392
1.37805
1.39851
1.35148
1.34981
1.34919
1.34914
1.34998
1.35174
1.35526
1.36136
1.37618
1.39851
1.352
1.35038
1.34974
1.34975
1.35062
1.35238
1.35584
1.36169
1.37659
1.39997
1.35043
1.34877
1.34808
1.34801
1.34876
1.3504
1.35372
1.35949
1.37381
1.39825
1.34772
1.34612
1.34565
1.34603
1.34733
1.34963
1.35356
1.35992
1.37402
1.39876
1.36109
1.36041
1.36017
1.36037
1.36103
1.36217
1.36375
1.36571
1.36786
1.36968
1.3619
1.3609
1.36058
1.36086
1.36179
1.36342
1.36581
1.36894
1.37283
1.37658
1.36043
1.35921
1.35884
1.35915
1.36025
1.36221
1.36521
1.36943
1.37556
1.38204
1.35884
1.35746
1.35701
1.3573
1.35848
1.36065
1.36415
1.36932
1.37764
1.38712
1.35738
1.35582
1.3553
1.35552
1.35668
1.35891
1.3627
1.36851
1.37878
1.39128
1.35676
1.35514
1.35455
1.35471
1.35583
1.35804
1.36197
1.36815
1.38007
1.39533
1.3551
1.35335
1.35272
1.35278
1.35381
1.35593
1.35988
1.36626
1.37948
1.39735
1.3555
1.35378
1.35312
1.35322
1.35428
1.35642
1.36043
1.3669
1.38089
1.40085
1.35385
1.3521
1.3514
1.35144
1.35242
1.35446
1.35838
1.36498
1.3791
1.40114
1.35112
1.34941
1.34886
1.34922
1.35058
1.35308
1.35739
1.36441
1.37854
1.40209
1.36335
1.36291
1.36276
1.36289
1.36334
1.36409
1.36508
1.36624
1.3674
1.3683
1.36451
1.36374
1.36348
1.3637
1.36442
1.36564
1.36733
1.3694
1.37169
1.37366
1.36341
1.36237
1.36205
1.36232
1.36325
1.36487
1.36721
1.37025
1.37402
1.37757
1.36198
1.36073
1.36032
1.36061
1.36168
1.36362
1.36658
1.3706
1.37613
1.38174
1.36065
1.35917
1.35869
1.35894
1.36008
1.3622
1.36561
1.37044
1.37775
1.38564
1.36002
1.35845
1.35789
1.3581
1.35927
1.36149
1.36522
1.37068
1.37967
1.38989
1.35836
1.35664
1.35602
1.35616
1.3573
1.35954
1.36345
1.36939
1.37987
1.39248
1.3587
1.35698
1.35633
1.3565
1.35768
1.35999
1.36408
1.37037
1.38199
1.39675
1.35702
1.35525
1.35457
1.3547
1.35583
1.35811
1.36223
1.36884
1.38107
1.39812
1.35431
1.35256
1.35198
1.35233
1.35371
1.3563
1.3607
1.36769
1.38017
1.39911
1.36494
1.36468
1.36459
1.36468
1.36496
1.36542
1.36601
1.36665
1.36726
1.36766
1.36637
1.36583
1.36564
1.3658
1.36631
1.36715
1.36827
1.36957
1.3709
1.37196
1.3657
1.36487
1.36461
1.36482
1.36555
1.36679
1.36851
1.37062
1.37294
1.37492
1.3645
1.36343
1.36307
1.36333
1.36424
1.36585
1.36819
1.37118
1.3748
1.37811
1.36337
1.36206
1.36163
1.36187
1.36291
1.36478
1.36764
1.37147
1.37649
1.3814
1.36283
1.36138
1.36086
1.3611
1.36221
1.36428
1.36756
1.37211
1.37858
1.38525
1.36123
1.35961
1.35903
1.35922
1.36036
1.36253
1.36613
1.37129
1.37916
1.38775
1.36157
1.35992
1.3593
1.35952
1.36072
1.36302
1.36688
1.37255
1.38163
1.39209
1.35989
1.35818
1.35753
1.35772
1.35891
1.36124
1.36522
1.37133
1.38128
1.39387
1.35724
1.35553
1.35494
1.35528
1.35664
1.35919
1.3634
1.36986
1.38023
1.39453
1.3661
1.36598
1.36593
1.36598
1.36615
1.36641
1.36675
1.36711
1.36743
1.3676
1.36771
1.36734
1.36721
1.36732
1.36766
1.36821
1.36893
1.36972
1.37049
1.37108
1.36742
1.3668
1.3666
1.36676
1.3673
1.36819
1.3694
1.3708
1.37225
1.37341
1.36645
1.3656
1.3653
1.36551
1.36624
1.3675
1.36926
1.3714
1.37378
1.37579
1.36558
1.36448
1.3641
1.36432
1.3652
1.36676
1.36904
1.37194
1.37537
1.37847
1.36517
1.3639
1.36344
1.36367
1.36467
1.36648
1.36922
1.37283
1.37742
1.38177
1.36368
1.36222
1.3617
1.3619
1.36297
1.36496
1.36807
1.37234
1.3781
1.38389
1.36408
1.36256
1.36199
1.36223
1.36338
1.36553
1.36897
1.3738
1.38066
1.38793
1.36243
1.36083
1.36023
1.36045
1.36162
1.36384
1.36748
1.37278
1.38052
1.38956
1.35988
1.35827
1.3577
1.35802
1.35931
1.3617
1.36553
1.37117
1.37938
1.38974
1.367
1.36696
1.36693
1.36696
1.36706
1.36721
1.3674
1.3676
1.36776
1.36782
1.36867
1.36844
1.36836
1.36843
1.36864
1.36899
1.36943
1.36991
1.37035
1.37067
1.36871
1.36826
1.36812
1.36823
1.36861
1.36923
1.37003
1.37095
1.37184
1.37252
1.36794
1.36729
1.36706
1.36722
1.36777
1.36871
1.36998
1.37146
1.37301
1.37426
1.36733
1.36644
1.36613
1.36631
1.36703
1.36826
1.37
1.37211
1.37444
1.37642
1.36707
1.36601
1.36562
1.36582
1.36667
1.36817
1.37036
1.37312
1.37633
1.3792
1.36573
1.36446
1.364
1.3642
1.36515
1.36686
1.36944
1.37282
1.37697
1.38089
1.36621
1.36487
1.36437
1.3646
1.36564
1.36755
1.37047
1.3744
1.37947
1.38449
1.36461
1.36316
1.36263
1.36286
1.36394
1.36596
1.3691
1.3735
1.37933
1.38566
1.36221
1.36075
1.36022
1.36052
1.36169
1.36384
1.36717
1.37187
1.37814
1.38543
1.36774
1.36774
1.36773
1.36775
1.36781
1.36789
1.36799
1.3681
1.36818
1.36819
1.36939
1.36925
1.36919
1.36924
1.36937
1.36958
1.36985
1.37013
1.37038
1.37056
1.36968
1.36937
1.36927
1.36934
1.3696
1.37001
1.37054
1.37111
1.37166
1.37205
1.36906
1.36858
1.36841
1.36852
1.36893
1.36959
1.37048
1.37148
1.37247
1.37325
1.36869
1.368
1.36776
1.3679
1.36845
1.36939
1.37066
1.37216
1.37371
1.37498
1.36857
1.36772
1.3674
1.36757
1.36826
1.36945
1.37113
1.37316
1.37538
1.37727
1.36738
1.36632
1.36594
1.36612
1.36692
1.36833
1.37038
1.37295
1.37589
1.37854
1.36798
1.36685
1.36642
1.36663
1.36753
1.36914
1.37152
1.37459
1.37825
1.38169
1.36643
1.36517
1.36472
1.36493
1.36589
1.36763
1.37024
1.37373
1.378
1.38234
1.36422
1.36294
1.36247
1.36273
1.36376
1.36561
1.36839
1.37215
1.37681
1.38182
1.36838
1.3684
1.3684
1.36841
1.36844
1.36849
1.36855
1.3686
1.36864
1.36862
1.36993
1.36985
1.36982
1.36985
1.36993
1.37005
1.37021
1.37037
1.37052
1.37062
1.37042
1.37021
1.37014
1.37019
1.37036
1.37062
1.37096
1.37131
1.37164
1.37187
1.36989
1.36955
1.36942
1.3695
1.36979
1.37025
1.37084
1.37151
1.37214
1.37262
1.36973
1.36921
1.36903
1.36914
1.36955
1.37023
1.37113
1.37216
1.37318
1.37399
1.36974
1.36908
1.36883
1.36897
1.3695
1.37041
1.37165
1.3731
1.37461
1.37584
1.36868
1.36783
1.36752
1.36767
1.36832
1.36943
1.371
1.3729
1.37494
1.37671
1.36942
1.3685
1.36814
1.36832
1.36907
1.37038
1.37224
1.37456
1.37715
1.37945
1.3679
1.36685
1.36647
1.36666
1.36747
1.36891
1.37099
1.37367
1.37673
1.37965
1.36592
1.36484
1.36444
1.36467
1.36553
1.36707
1.3693
1.3722
1.37557
1.37895
1.36895
1.36898
1.36899
1.36899
1.36901
1.36903
1.36906
1.36909
1.36911
1.36907
1.37036
1.37032
1.3703
1.37031
1.37036
1.37044
1.37053
1.37062
1.37071
1.37076
1.37099
1.37086
1.37082
1.37085
1.37096
1.37112
1.37133
1.37154
1.37174
1.37187
1.3705
1.37027
1.37018
1.37023
1.37042
1.37073
1.37113
1.37156
1.37195
1.37225
1.37052
1.37015
1.37002
1.37009
1.37038
1.37086
1.37149
1.37218
1.37284
1.37335
1.37062
1.37013
1.36995
1.37005
1.37045
1.37112
1.37201
1.37302
1.37403
1.37482
1.36967
1.36902
1.36878
1.3689
1.3694
1.37025
1.37141
1.37277
1.37416
1.37533
1.37056
1.36984
1.36955
1.3697
1.3703
1.37132
1.37273
1.37442
1.37622
1.37774
1.36907
1.36822
1.36791
1.36807
1.36872
1.36986
1.37147
1.37346
1.37561
1.37755
1.36734
1.36646
1.36614
1.36632
1.36702
1.36824
1.36998
1.37214
1.37452
1.37677
1.36947
1.36951
1.36952
1.36952
1.36953
1.36954
1.36956
1.36957
1.36958
1.36953
1.3707
1.37068
1.37066
1.37067
1.3707
1.37075
1.3708
1.37086
1.3709
1.37094
1.37146
1.37138
1.37135
1.37137
1.37144
1.37154
1.37167
1.37179
1.37191
1.37198
1.37094
1.37079
1.37073
1.37076
1.37089
1.37109
1.37135
1.37162
1.37187
1.37206
1.37111
1.37085
1.37076
1.37081
1.37102
1.37134
1.37176
1.37222
1.37264
1.37296
1.37128
1.37093
1.3708
1.37087
1.37116
1.37163
1.37225
1.37294
1.37361
1.37411
1.37042
1.36993
1.36976
1.36985
1.37022
1.37084
1.37167
1.37262
1.37355
1.37432
1.37145
1.37091
1.37069
1.37081
1.37126
1.37203
1.37306
1.37426
1.37549
1.37647
1.36995
1.36929
1.36905
1.36917
1.36969
1.37056
1.37175
1.37318
1.37466
1.37594
1.36851
1.36783
1.36757
1.36771
1.36826
1.3692
1.3705
1.37206
1.37371
1.37519
1.36995
1.36999
1.37
1.37
1.37001
1.37002
1.37003
1.37003
1.37003
1.36998
1.37096
1.37095
1.37095
1.37095
1.37097
1.371
1.37103
1.37106
1.37109
1.37112
1.37185
1.3718
1.37179
1.3718
1.37184
1.3719
1.37198
1.37205
1.37211
1.37215
1.37127
1.37117
1.37113
1.37115
1.37123
1.37136
1.37152
1.3717
1.37185
1.37197
1.37156
1.37138
1.37132
1.37136
1.37149
1.37171
1.37199
1.37228
1.37255
1.37274
1.37177
1.37153
1.37143
1.37148
1.37168
1.37201
1.37243
1.37289
1.37332
1.37364
1.37098
1.37062
1.3705
1.37056
1.37083
1.37127
1.37184
1.37249
1.3731
1.3736
1.37214
1.37175
1.37159
1.37168
1.37201
1.37257
1.3733
1.37413
1.37495
1.37557
1.3706
1.3701
1.36993
1.37002
1.3704
1.37104
1.3719
1.3729
1.3739
1.37473
1.36949
1.36897
1.36877
1.36888
1.36929
1.36999
1.37093
1.37203
1.37314
1.3741
1.37042
1.37046
1.37047
1.37047
1.37047
1.37048
1.37048
1.37048
1.37048
1.37043
1.37116
1.37116
1.37116
1.37116
1.37117
1.37118
1.37121
1.37123
1.37125
1.37127
1.37219
1.37216
1.37216
1.37217
1.37219
1.37222
1.37227
1.37231
1.37234
1.37235
1.37151
1.37144
1.37142
1.37143
1.37148
1.37156
1.37166
1.37177
1.37186
1.37195
1.37189
1.37178
1.37174
1.37177
1.37185
1.37199
1.37217
1.37235
1.37252
1.37264
1.37212
1.37195
1.37189
1.37192
1.37206
1.37227
1.37255
1.37285
1.37313
1.37333
1.37138
1.37113
1.37104
1.37109
1.37127
1.37157
1.37196
1.37239
1.37278
1.3731
1.37268
1.37241
1.37229
1.37236
1.37259
1.37298
1.37349
1.37404
1.37458
1.37496
1.37106
1.37069
1.37056
1.37063
1.3709
1.37136
1.37196
1.37264
1.37329
1.37383
1.37031
1.36993
1.36978
1.36986
1.37016
1.37066
1.37132
1.37207
1.3728
1.37342
1.37088
1.37092
1.37093
1.37093
1.37093
1.37093
1.37093
1.37093
1.37093
1.37088
1.37129
1.37129
1.37129
1.37129
1.3713
1.37131
1.37132
1.37134
1.37135
1.37137
1.3725
1.37248
1.37248
1.37249
1.3725
1.37252
1.37254
1.37256
1.37258
1.37257
1.37167
1.37163
1.37161
1.37162
1.37165
1.3717
1.37176
1.37183
1.37189
1.37194
1.37214
1.37207
1.37205
1.37206
1.37212
1.37221
1.37231
1.37243
1.37253
1.3726
1.37235
1.37224
1.3722
1.37222
1.37231
1.37245
1.37263
1.37282
1.373
1.37312
1.37166
1.3715
1.37144
1.37147
1.37159
1.37179
1.37205
1.37232
1.37257
1.37277
1.3731
1.37292
1.37284
1.37288
1.37305
1.37331
1.37365
1.37401
1.37436
1.37458
1.37135
1.37108
1.371
1.37104
1.37123
1.37154
1.37195
1.3724
1.37282
1.37317
1.37103
1.37077
1.37066
1.37072
1.37093
1.37127
1.37172
1.37221
1.37269
1.37308
1.37139
1.37142
1.37143
1.37143
1.37143
1.37143
1.37143
1.37143
1.37142
1.37138
1.37135
1.37135
1.37134
1.37134
1.37135
1.37136
1.37137
1.37138
1.37139
1.37142
1.37277
1.37276
1.37276
1.37277
1.37278
1.37279
1.3728
1.37281
1.37281
1.3728
1.37178
1.37176
1.37175
1.37175
1.37177
1.3718
1.37183
1.37188
1.37191
1.37195
1.37231
1.37226
1.37225
1.37226
1.37229
1.37234
1.37241
1.37248
1.37254
1.37258
1.37248
1.37241
1.37238
1.3724
1.37245
1.37254
1.37266
1.37278
1.37289
1.37296
1.37186
1.37176
1.37172
1.37174
1.37182
1.37195
1.37211
1.37228
1.37243
1.37256
1.37342
1.3733
1.37325
1.37328
1.37339
1.37356
1.37378
1.37401
1.37424
1.37436
1.37149
1.37131
1.37125
1.37128
1.37141
1.37161
1.37188
1.37217
1.37243
1.37266
1.37175
1.37157
1.37149
1.37153
1.37167
1.3719
1.3722
1.37251
1.37282
1.37305
1.37207
1.3721
1.37211
1.37211
1.37211
1.37211
1.3721
1.3721
1.37209
1.37204
1.37129
1.37129
1.37129
1.37128
1.37129
1.37129
1.3713
1.37132
1.37133
1.37136
1.37299
1.37299
1.37299
1.37299
1.37299
1.373
1.37301
1.37301
1.37302
1.37299
1.37185
1.37183
1.37183
1.37183
1.37184
1.37186
1.37188
1.3719
1.37192
1.37195
1.37238
1.37236
1.37235
1.37235
1.37237
1.3724
1.37244
1.37249
1.37253
1.37255
1.37251
1.37247
1.37245
1.37245
1.37249
1.37255
1.37262
1.37269
1.37277
1.37281
1.37199
1.37193
1.37191
1.37192
1.37197
1.37205
1.37215
1.37225
1.37233
1.37241
1.3736
1.37353
1.37349
1.37351
1.37358
1.37369
1.37383
1.37398
1.37414
1.3742
1.37147
1.37135
1.37131
1.37133
1.37142
1.37155
1.37171
1.3719
1.37205
1.37222
1.37259
1.37247
1.37242
1.37244
1.37253
1.37268
1.37287
1.37307
1.37327
1.37341
1.37316
1.37319
1.37319
1.3732
1.3732
1.37319
1.37319
1.37318
1.37317
1.37313
1.37104
1.37103
1.37104
1.37104
1.37104
1.37104
1.37105
1.37106
1.37107
1.3711
1.37307
1.37307
1.37306
1.37306
1.37306
1.37307
1.37308
1.37308
1.37309
1.37308
1.37188
1.37188
1.37188
1.37188
1.37189
1.3719
1.37191
1.37192
1.37192
1.37194
1.37238
1.37236
1.37235
1.37235
1.37236
1.37238
1.37241
1.37244
1.37246
1.37248
1.37245
1.37242
1.37241
1.37241
1.37243
1.37247
1.37252
1.37256
1.37261
1.37265
1.37204
1.37201
1.372
1.37201
1.37205
1.3721
1.37216
1.37221
1.37226
1.37229
1.37353
1.37347
1.37344
1.37345
1.3735
1.37357
1.37366
1.37377
1.37388
1.37392
1.37121
1.37114
1.37111
1.37113
1.37118
1.37127
1.37137
1.37148
1.37157
1.37168
1.37379
1.37372
1.37368
1.3737
1.37375
1.37385
1.37398
1.3741
1.37424
1.37432
1.37492
1.37493
1.37493
1.37493
1.37493
1.37493
1.37493
1.37493
1.37492
1.3749
1.37046
1.37046
1.37048
1.37049
1.37049
1.37049
1.37049
1.37049
1.37048
1.37049
1.3729
1.37288
1.37286
1.37285
1.37285
1.37286
1.37287
1.37289
1.37291
1.37293
1.37192
1.37192
1.37193
1.37193
1.37194
1.37195
1.37195
1.37195
1.37194
1.37194
1.37232
1.3723
1.3723
1.3723
1.37231
1.37232
1.37234
1.37236
1.37238
1.37239
1.37235
1.37233
1.37232
1.37232
1.37234
1.37236
1.37239
1.37243
1.37246
1.37248
1.37206
1.37204
1.37204
1.37204
1.37207
1.3721
1.37214
1.37218
1.37221
1.37222
1.37306
1.37301
1.37298
1.37298
1.37301
1.37307
1.37313
1.37321
1.3733
1.37336
1.37058
1.37055
1.37054
1.37055
1.37059
1.37065
1.37072
1.37079
1.37083
1.37087
1.37555
1.3755
1.37547
1.37548
1.37552
1.37559
1.37568
1.37577
1.37587
1.37592
1.37678
1.37676
1.37674
1.37674
1.37673
1.37674
1.37675
1.37676
1.37679
1.37682
1.36971
1.36977
1.36981
1.36983
1.36984
1.36983
1.36982
1.36979
1.36974
1.36966
1.37253
1.37249
1.37247
1.37246
1.37246
1.37246
1.37248
1.3725
1.37253
1.37258
1.37198
1.37199
1.372
1.372
1.37201
1.37201
1.37202
1.37202
1.37201
1.37199
1.37227
1.37226
1.37225
1.37226
1.37226
1.37227
1.37229
1.37231
1.37232
1.37234
1.37229
1.37228
1.37227
1.37227
1.37228
1.37231
1.37233
1.37236
1.37239
1.37241
1.3721
1.37208
1.37208
1.37208
1.3721
1.37214
1.37217
1.37221
1.37223
1.37224
1.37244
1.37238
1.37236
1.37236
1.37239
1.37244
1.3725
1.37256
1.37264
1.37272
1.36983
1.36982
1.36982
1.36983
1.36987
1.36992
1.36998
1.37004
1.37006
1.37002
1.37733
1.37729
1.37726
1.37728
1.37731
1.37737
1.37745
1.37753
1.37761
1.37765
1.47363
1.47922
1.47579
1.46861
1.50631
1.51205
1.50519
1.49444
1.53268
1.53773
1.52804
1.51475
1.55158
1.55549
1.54295
1.52764
1.56618
1.56868
1.55341
1.53659
1.57805
1.5791
1.56292
1.54417
1.58598
1.58539
1.56977
1.54867
1.59309
1.59076
1.57595
1.55257
1.59095
1.58674
1.57252
1.54709
1.58314
1.57792
1.56537
1.53879
1.37285
1.37254
1.37309
1.37415
1.39427
1.39563
1.39664
1.3963
1.41361
1.41632
1.41757
1.41565
1.43216
1.43607
1.43745
1.43363
1.44959
1.45435
1.4557
1.44979
1.46649
1.47177
1.47283
1.46524
1.48059
1.48614
1.4868
1.4781
1.49484
1.50046
1.5008
1.49148
1.50181
1.50743
1.50761
1.49806
1.50545
1.51156
1.51175
1.50254
1.37704
1.37749
1.37768
1.37769
1.38973
1.39072
1.39101
1.39086
1.40176
1.40335
1.40377
1.40342
1.41348
1.41573
1.41626
1.41555
1.42496
1.42786
1.42843
1.42718
1.43713
1.44065
1.44119
1.43926
1.44771
1.45175
1.45223
1.44952
1.45957
1.46401
1.46441
1.46091
1.46556
1.47033
1.47067
1.46631
1.46907
1.4746
1.47494
1.46957
1.37027
1.37023
1.37027
1.37037
1.37828
1.37852
1.37862
1.37864
1.3861
1.38665
1.38685
1.38681
1.39443
1.3954
1.39575
1.39557
1.40283
1.4043
1.40477
1.40438
1.41218
1.41418
1.41477
1.41405
1.42031
1.42284
1.42352
1.42238
1.43019
1.43319
1.43392
1.43231
1.43504
1.43848
1.43929
1.43718
1.43771
1.442
1.44294
1.44015
1.36886
1.36881
1.36881
1.36887
1.37449
1.37464
1.37471
1.3747
1.37947
1.37979
1.37991
1.37988
1.38515
1.3857
1.3859
1.38585
1.39112
1.39194
1.39224
1.39213
1.39809
1.39924
1.39965
1.39944
1.40401
1.40551
1.40602
1.40566
1.41189
1.41375
1.41436
1.41379
1.41577
1.41798
1.41876
1.41798
1.4178
1.42079
1.42176
1.42053
1.36806
1.36796
1.36795
1.36801
1.37227
1.37232
1.37235
1.37236
1.37563
1.37576
1.37582
1.37584
1.37954
1.3798
1.37992
1.37994
1.38386
1.38428
1.38447
1.38449
1.38914
1.38978
1.39005
1.39005
1.39343
1.39431
1.39467
1.39462
1.39979
1.40092
1.40137
1.40124
1.40293
1.40431
1.40493
1.40473
1.40415
1.40618
1.40696
1.40642
1.36795
1.36785
1.36782
1.36788
1.37124
1.37127
1.37129
1.37129
1.37376
1.37382
1.37385
1.37386
1.37648
1.37661
1.37668
1.3767
1.37965
1.37987
1.37999
1.38002
1.38368
1.38404
1.38422
1.38427
1.38675
1.38725
1.38751
1.38755
1.39189
1.39257
1.3929
1.39292
1.39432
1.39517
1.39562
1.39563
1.39472
1.39612
1.39668
1.3964
1.36814
1.36803
1.368
1.36806
1.37075
1.37077
1.37078
1.37078
1.3727
1.37272
1.37274
1.37275
1.37462
1.37469
1.37473
1.37475
1.37703
1.37715
1.37722
1.37725
1.3802
1.38039
1.38051
1.38055
1.38238
1.38266
1.38283
1.38289
1.38658
1.38698
1.38721
1.38727
1.38825
1.38878
1.38908
1.38913
1.38801
1.389
1.38938
1.38918
1.36849
1.36837
1.36834
1.3684
1.37061
1.37061
1.37062
1.37062
1.37215
1.37216
1.37218
1.37218
1.37346
1.37349
1.37352
1.37353
1.37532
1.37539
1.37544
1.37546
1.37784
1.37796
1.37803
1.37806
1.37937
1.37954
1.37965
1.37969
1.38286
1.3831
1.38325
1.3833
1.38381
1.38414
1.38433
1.38438
1.38315
1.38389
1.38414
1.38395
1.3689
1.36878
1.36875
1.36881
1.37065
1.37065
1.37065
1.37065
1.37192
1.37193
1.37194
1.37194
1.37274
1.37277
1.37278
1.37279
1.37419
1.37423
1.37426
1.37427
1.37619
1.37626
1.3763
1.37632
1.3772
1.3773
1.37737
1.3774
1.38015
1.3803
1.38039
1.38043
1.38052
1.38072
1.38085
1.38088
1.3796
1.38019
1.38035
1.38016
1.36935
1.36923
1.36919
1.36925
1.37078
1.37078
1.37078
1.37078
1.3719
1.3719
1.3719
1.3719
1.37233
1.37234
1.37235
1.37236
1.37347
1.37349
1.37351
1.37352
1.37504
1.37508
1.37511
1.37512
1.37563
1.37569
1.37573
1.37576
1.37816
1.37825
1.37831
1.37834
1.37807
1.3782
1.37828
1.37831
1.37705
1.37753
1.37764
1.37745
1.3698
1.36968
1.36964
1.3697
1.37095
1.37095
1.37095
1.37095
1.37199
1.37199
1.37199
1.37199
1.37211
1.37211
1.37212
1.37213
1.37303
1.37304
1.37305
1.37306
1.37425
1.37428
1.3743
1.37431
1.3745
1.37454
1.37457
1.37458
1.37673
1.37679
1.37683
1.37684
1.37626
1.37634
1.3764
1.37641
1.37525
1.37566
1.37574
1.37555
1.37024
1.37012
1.37008
1.37014
1.37112
1.37112
1.37112
1.37112
1.37216
1.37215
1.37215
1.37215
1.372
1.37201
1.37201
1.37201
1.37278
1.37279
1.37279
1.3728
1.37373
1.37375
1.37376
1.37377
1.37371
1.37373
1.37375
1.37376
1.37574
1.37577
1.3758
1.37581
1.37493
1.37499
1.37502
1.37503
1.37404
1.3744
1.37445
1.37427
1.37068
1.37055
1.37052
1.37058
1.37127
1.37126
1.37127
1.37127
1.37236
1.37236
1.37236
1.37235
1.37196
1.37196
1.37197
1.37197
1.37266
1.37266
1.37267
1.37267
1.37339
1.37341
1.37341
1.37342
1.37316
1.37318
1.37319
1.3732
1.37507
1.3751
1.37511
1.37512
1.37396
1.374
1.37402
1.37403
1.37329
1.3736
1.37364
1.37347
1.37112
1.37099
1.37096
1.37102
1.37137
1.37137
1.37137
1.37137
1.37258
1.37258
1.37258
1.37257
1.37195
1.37195
1.37196
1.37196
1.37261
1.37261
1.37261
1.37262
1.37317
1.37318
1.37318
1.37319
1.3728
1.3728
1.37281
1.37282
1.37466
1.37468
1.37468
1.37469
1.37325
1.37327
1.37329
1.37329
1.37292
1.37319
1.37321
1.37306
1.3716
1.37148
1.37145
1.37151
1.37141
1.37141
1.37141
1.37142
1.37281
1.37281
1.37281
1.3728
1.37195
1.37195
1.37195
1.37195
1.37259
1.37259
1.37259
1.37259
1.373
1.37301
1.37301
1.37302
1.37256
1.37256
1.37256
1.37257
1.37442
1.37443
1.37444
1.37444
1.37271
1.37272
1.37273
1.37274
1.37289
1.37312
1.37313
1.373
1.37225
1.37213
1.3721
1.37216
1.37135
1.37135
1.37135
1.37136
1.37301
1.37301
1.37301
1.37301
1.37193
1.37193
1.37193
1.37194
1.37256
1.37256
1.37256
1.37256
1.37285
1.37286
1.37286
1.37286
1.37239
1.37238
1.37238
1.37239
1.37426
1.37427
1.37427
1.37427
1.37223
1.37224
1.37225
1.37225
1.37325
1.37343
1.37344
1.37333
1.37331
1.37319
1.37317
1.37323
1.37109
1.37109
1.37109
1.37109
1.37312
1.37312
1.37312
1.37311
1.37191
1.37191
1.37191
1.37191
1.3725
1.3725
1.3725
1.3725
1.37268
1.37268
1.37269
1.37268
1.37225
1.37225
1.37225
1.37225
1.37401
1.37402
1.37403
1.37402
1.37167
1.37167
1.37168
1.37168
1.37419
1.37432
1.37433
1.37425
1.37505
1.37495
1.37493
1.37499
1.37044
1.37043
1.37043
1.37043
1.373
1.37301
1.37301
1.37301
1.3719
1.3719
1.3719
1.3719
1.37241
1.37241
1.37241
1.37241
1.37251
1.37251
1.37252
1.37252
1.37216
1.37215
1.37215
1.37216
1.3735
1.37352
1.37353
1.37352
1.3708
1.37078
1.37078
1.37079
1.3759
1.37598
1.37599
1.37594
1.37691
1.37686
1.37686
1.3769
1.36945
1.36941
1.3694
1.3694
1.37268
1.3727
1.37271
1.37271
1.37195
1.37194
1.37194
1.37194
1.37235
1.37235
1.37235
1.37235
1.37242
1.37242
1.37242
1.37242
1.37218
1.37217
1.37217
1.37218
1.37288
1.37292
1.37293
1.37291
1.36974
1.36967
1.36966
1.3697
1.37784
1.3779
1.3779
1.37785
1.43015
1.40566
1.38453
1.37026
1.36169
1.3564
1.35292
1.35054
1.34889
1.34769
1.44238
1.40942
1.38424
1.36944
1.3612
1.35616
1.35291
1.35072
1.34924
1.34819
1.44386
1.40731
1.37982
1.36656
1.35875
1.35396
1.35083
1.34873
1.34738
1.3466
1.44057
1.40331
1.37439
1.3635
1.35623
1.35198
1.34915
1.34728
1.34606
1.34534
1.4346
1.39828
1.36948
1.36045
1.35356
1.34985
1.34728
1.34565
1.34458
1.34404
1.42726
1.39423
1.36602
1.35881
1.35223
1.34909
1.34677
1.34536
1.3444
1.34385
1.41698
1.38906
1.3614
1.35602
1.34962
1.34705
1.34489
1.34368
1.34281
1.3424
1.409
1.38691
1.35978
1.35626
1.34997
1.34792
1.34582
1.34467
1.34379
1.3432
1.39796
1.38091
1.3549
1.35346
1.34764
1.34619
1.34415
1.34309
1.34225
1.34167
1.39484
1.38101
1.35558
1.35472
1.34802
1.3459
1.34307
1.34141
1.3401
1.33902
1.37791
1.37514
1.37181
1.36845
1.36523
1.36232
1.35982
1.35775
1.35605
1.35477
1.39555
1.38758
1.38014
1.37378
1.36851
1.36435
1.36114
1.35864
1.35669
1.35522
1.40842
1.39536
1.38419
1.37545
1.3686
1.36351
1.35977
1.35699
1.35492
1.35354
1.41798
1.40039
1.38602
1.37578
1.36804
1.36258
1.35865
1.35579
1.35366
1.35222
1.42422
1.40333
1.38627
1.37511
1.36683
1.36125
1.35728
1.35444
1.3523
1.35092
1.42895
1.40598
1.38673
1.37514
1.36657
1.36104
1.3571
1.35431
1.35219
1.35073
1.43049
1.40642
1.38532
1.37366
1.36488
1.3595
1.35559
1.35287
1.35074
1.34933
1.43274
1.40858
1.3861
1.37473
1.36589
1.36069
1.35675
1.35398
1.35179
1.35018
1.43026
1.4062
1.38337
1.37293
1.36439
1.35943
1.35544
1.35263
1.3504
1.34873
1.43065
1.40722
1.38401
1.37363
1.36442
1.35884
1.35424
1.35091
1.3483
1.34613
1.37691
1.37487
1.37232
1.36973
1.36731
1.36515
1.36326
1.36165
1.36031
1.35927
1.38904
1.3845
1.37928
1.37462
1.37077
1.36762
1.36504
1.36293
1.3612
1.35984
1.39991
1.39203
1.38367
1.37678
1.3714
1.36725
1.36402
1.36149
1.35952
1.35815
1.40969
1.39812
1.38682
1.3782
1.37169
1.36684
1.36317
1.36037
1.35821
1.35667
1.41813
1.40272
1.38867
1.37862
1.37124
1.36593
1.36199
1.35904
1.35676
1.35522
1.42619
1.40715
1.39062
1.3795
1.37147
1.36589
1.3618
1.35878
1.35645
1.3548
1.4317
1.40932
1.39056
1.37869
1.37016
1.36444
1.36025
1.35721
1.35483
1.35322
1.43797
1.41287
1.39236
1.38014
1.3713
1.36553
1.36124
1.35812
1.35568
1.35387
1.43901
1.41186
1.39077
1.37891
1.37014
1.3644
1.35999
1.35677
1.35426
1.35239
1.44015
1.41208
1.39068
1.37869
1.36941
1.3632
1.35836
1.35476
1.35199
1.34976
1.3703
1.36983
1.36903
1.36802
1.36691
1.36579
1.36471
1.36373
1.36286
1.36217
1.37832
1.37692
1.37498
1.37288
1.37082
1.36888
1.36713
1.36558
1.36424
1.36316
1.38591
1.38293
1.37915
1.37547
1.37214
1.36926
1.36682
1.36477
1.36309
1.36185
1.39377
1.38883
1.38304
1.37778
1.37325
1.36951
1.36646
1.36399
1.36199
1.3605
1.40123
1.39397
1.38602
1.37925
1.37366
1.36923
1.36571
1.36294
1.36071
1.35912
1.40909
1.39929
1.38917
1.38106
1.37458
1.36961
1.36576
1.36278
1.3604
1.35865
1.41511
1.40265
1.39039
1.38112
1.37388
1.36852
1.36441
1.36128
1.35878
1.35701
1.42239
1.40743
1.3933
1.38317
1.37537
1.36972
1.3654
1.36211
1.35951
1.35756
1.42512
1.40811
1.39299
1.38254
1.37446
1.36862
1.3641
1.36069
1.358
1.35599
1.42725
1.40868
1.39271
1.38173
1.37317
1.36696
1.36213
1.35845
1.35559
1.3533
1.36873
1.36846
1.36804
1.36751
1.36691
1.36628
1.36565
1.36507
1.36454
1.36412
1.37451
1.37388
1.37294
1.37181
1.3706
1.36939
1.36824
1.36718
1.36624
1.36545
1.37945
1.37808
1.3762
1.37414
1.3721
1.37018
1.36845
1.36692
1.3656
1.3646
1.38511
1.38276
1.37966
1.37648
1.37349
1.37081
1.36848
1.36648
1.36479
1.36348
1.39093
1.38728
1.38275
1.37837
1.37443
1.37103
1.36816
1.36577
1.36378
1.36231
1.39754
1.39235
1.38625
1.38068
1.37584
1.37182
1.3685
1.3658
1.36358
1.36189
1.40279
1.39583
1.38806
1.38133
1.37567
1.37111
1.36742
1.36448
1.36206
1.3603
1.40972
1.40095
1.39159
1.38387
1.3775
1.37249
1.36849
1.36531
1.36276
1.3608
1.413
1.40264
1.39218
1.38376
1.37687
1.37151
1.36723
1.3639
1.36123
1.35921
1.41515
1.40325
1.39178
1.3827
1.37534
1.36963
1.3651
1.36156
1.35876
1.35651
1.36789
1.36776
1.36757
1.36731
1.367
1.36667
1.36632
1.36599
1.3657
1.36548
1.37231
1.37203
1.37156
1.37096
1.37029
1.36957
1.36887
1.36819
1.36757
1.36703
1.37571
1.37511
1.37417
1.37304
1.37182
1.37059
1.36941
1.36832
1.36736
1.36661
1.3797
1.3786
1.37697
1.37512
1.37322
1.37138
1.36968
1.36816
1.36683
1.36575
1.38407
1.38228
1.37977
1.37707
1.37441
1.37194
1.36972
1.36778
1.36611
1.36484
1.38935
1.38668
1.38315
1.37952
1.37608
1.373
1.37032
1.36802
1.36608
1.36455
1.39353
1.38978
1.38508
1.38047
1.37627
1.37262
1.36951
1.36691
1.36472
1.36308
1.39962
1.39469
1.38879
1.38327
1.37835
1.37418
1.37069
1.36782
1.36546
1.3636
1.40273
1.39669
1.38977
1.38344
1.37791
1.37332
1.36952
1.36646
1.36395
1.36202
1.40424
1.39705
1.38924
1.38228
1.3763
1.37139
1.36736
1.36411
1.3615
1.35937
1.36778
1.3677
1.36759
1.36746
1.36729
1.36711
1.36693
1.36675
1.36659
1.36649
1.37126
1.37111
1.37086
1.37053
1.37014
1.36973
1.3693
1.36889
1.36849
1.36814
1.3738
1.37348
1.37297
1.37231
1.37156
1.37078
1.37001
1.36927
1.3686
1.36808
1.3766
1.37603
1.37513
1.37402
1.3728
1.37157
1.37038
1.36927
1.36827
1.36744
1.37986
1.37893
1.3775
1.37582
1.37404
1.37229
1.37065
1.36916
1.36784
1.36681
1.38399
1.38258
1.38052
1.37818
1.37579
1.37351
1.37143
1.36958
1.36797
1.36667
1.38714
1.3851
1.38226
1.37918
1.37615
1.37335
1.37084
1.36867
1.36679
1.36535
1.39228
1.38952
1.38584
1.38201
1.37834
1.37504
1.37215
1.36969
1.36762
1.36595
1.39483
1.39129
1.38679
1.38223
1.37799
1.37427
1.37107
1.3684
1.36616
1.3644
1.39557
1.39129
1.38612
1.38104
1.3764
1.37238
1.36896
1.36613
1.36379
1.36185
1.36796
1.36791
1.36785
1.36778
1.36769
1.3676
1.36749
1.3674
1.36732
1.3673
1.37076
1.37069
1.37055
1.37037
1.37015
1.36991
1.36966
1.36941
1.36917
1.36895
1.37272
1.37254
1.37225
1.37186
1.37141
1.37093
1.37043
1.36994
1.3695
1.36915
1.3747
1.37438
1.37386
1.37318
1.37241
1.37159
1.37078
1.37
1.36929
1.36868
1.37718
1.37666
1.37582
1.37475
1.37358
1.37237
1.37119
1.37009
1.36909
1.3683
1.38044
1.37965
1.37841
1.37689
1.37525
1.37362
1.37206
1.37064
1.36937
1.36832
1.38273
1.38158
1.37984
1.37779
1.37565
1.37356
1.37163
1.36989
1.36835
1.36715
1.38701
1.38543
1.38312
1.3805
1.37785
1.37533
1.37304
1.37102
1.36929
1.36785
1.38879
1.3867
1.3838
1.38062
1.37749
1.3746
1.37202
1.3698
1.36788
1.36636
1.3889
1.38637
1.38301
1.37942
1.37596
1.37281
1.37004
1.36766
1.36566
1.36396
1.3683
1.36827
1.36823
1.3682
1.36815
1.3681
1.36804
1.36799
1.36796
1.36798
1.37062
1.37057
1.3705
1.3704
1.37027
1.37014
1.36999
1.36984
1.3697
1.36957
1.37216
1.37206
1.37189
1.37166
1.37139
1.37109
1.37078
1.37047
1.37018
1.36996
1.37351
1.37332
1.37301
1.37259
1.37211
1.37158
1.37104
1.37052
1.37002
1.36959
1.37542
1.37511
1.37459
1.37392
1.37315
1.37233
1.37151
1.37072
1.37
1.36941
1.378
1.37754
1.37676
1.37577
1.37467
1.37352
1.3724
1.37134
1.37038
1.36956
1.37962
1.37894
1.37784
1.37648
1.37499
1.37349
1.37204
1.37071
1.3695
1.36854
1.38317
1.38224
1.38077
1.37901
1.37713
1.37527
1.37352
1.37194
1.37054
1.36936
1.38422
1.38298
1.38112
1.37895
1.37671
1.37454
1.37254
1.37076
1.36919
1.36791
1.3839
1.38239
1.38023
1.37776