/*--------------------------------*- C++ -*----------------------------------*\
| =========                 |                                                 |
| \\      /  F ield         | foam-extend: Open Source CFD                    |
|  \\    /   O peration     | Version:     4.0                                |
|   \\  /    A nd           | Web:         http://www.foam-extend.org         |
|    \\/     M anipulation  |                                                 |
\*---------------------------------------------------------------------------*/
FoamFile
{
    version     2.0;
    format      ascii;
    class       volScalarField;
    location    "1450";
    object      T;
}
// * * * * * * * * * * * * * * * * * * * * * * * * * * * * * * * * * * * * * //

dimensions      [0 0 0 1 0 0 0];

internalField   nonuniform List<scalar> 
34480
(
278.824
278.713
278.632
278.577
278.544
278.535
278.55
278.634
278.905
278.87
278.271
278.153
278.059
277.992
277.959
277.962
277.986
278.031
278.247
277.803
278.158
278.026
277.92
277.846
277.808
277.795
277.776
277.723
277.85
277.074
278.198
278.045
277.916
277.814
277.742
277.678
277.593
277.435
277.441
276.316
278.211
278.033
277.876
277.741
277.627
277.507
277.353
277.083
276.933
275.452
278.279
278.078
277.897
277.736
277.587
277.417
277.196
276.812
276.475
274.612
278.305
278.079
277.874
277.688
277.508
277.293
277.01
276.512
275.965
273.713
278.377
278.128
277.911
277.716
277.527
277.297
276.98
276.399
275.642
272.971
278.432
278.164
277.928
277.715
277.502
277.245
276.885
276.22
275.254
272.229
279.248
278.967
278.764
278.621
278.516
278.395
278.186
277.659
276.653
273.197
279.356
279.263
279.226
279.242
279.315
279.461
279.721
280.178
280.846
281.716
278.704
278.621
278.587
278.604
278.684
278.851
279.142
279.64
280.433
281.453
278.498
278.419
278.389
278.409
278.496
278.668
278.956
279.446
280.296
281.412
278.444
278.365
278.331
278.342
278.415
278.566
278.83
279.295
280.175
281.338
278.369
278.285
278.243
278.241
278.295
278.417
278.649
279.075
279.955
281.133
278.36
278.272
278.225
278.214
278.253
278.348
278.545
278.923
279.774
280.928
278.317
278.223
278.169
278.149
278.173
278.244
278.407
278.732
279.53
280.643
278.334
278.238
278.187
278.171
278.199
278.265
278.409
278.688
279.413
280.436
278.35
278.246
278.189
278.165
278.181
278.232
278.35
278.581
279.227
280.169
279.114
279.023
279.001
279.044
279.147
279.3
279.52
279.825
280.42
281.088
279.828
279.729
279.694
279.714
279.792
279.937
280.168
280.514
281.012
281.636
279.17
279.073
279.037
279.061
279.152
279.326
279.615
280.071
280.779
281.707
278.949
278.85
278.815
278.839
278.935
279.123
279.44
279.955
280.826
282.04
278.865
278.762
278.722
278.739
278.827
279.006
279.324
279.868
280.874
282.339
278.761
278.652
278.604
278.61
278.683
278.843
279.148
279.695
280.799
282.47
278.725
278.612
278.559
278.556
278.616
278.756
279.039
279.571
280.733
282.557
278.659
278.541
278.482
278.469
278.517
278.635
278.894
279.397
280.583
282.522
278.657
278.537
278.479
278.47
278.519
278.632
278.873
279.343
280.518
282.516
278.655
278.531
278.469
278.454
278.494
278.595
278.813
279.241
280.38
282.457
279.387
279.275
279.239
279.273
279.378
279.553
279.838
280.305
281.389
283.385
280.166
280.08
280.05
280.069
280.138
280.258
280.436
280.677
280.983
281.321
279.537
279.444
279.412
279.438
279.526
279.685
279.932
280.285
280.769
281.318
279.326
279.225
279.191
279.219
279.317
279.5
279.793
280.235
280.891
281.683
279.231
279.121
279.08
279.104
279.202
279.392
279.712
280.216
281.037
282.086
279.111
278.992
278.945
278.96
279.051
279.235
279.562
280.106
281.067
282.357
279.057
278.933
278.88
278.888
278.971
279.145
279.469
280.03
281.103
282.603
278.975
278.844
278.786
278.786
278.859
279.019
279.333
279.896
281.051
282.732
278.957
278.825
278.767
278.769
278.843
278.999
279.305
279.858
281.056
282.875
278.94
278.806
278.745
278.742
278.809
278.957
279.252
279.784
280.987
282.955
279.639
279.516
279.473
279.506
279.617
279.815
280.153
280.714
281.888
283.887
280.395
280.327
280.305
280.32
280.37
280.456
280.575
280.725
280.894
281.06
279.813
279.735
279.708
279.73
279.804
279.932
280.118
280.364
280.664
280.959
279.632
279.539
279.507
279.534
279.623
279.782
280.025
280.363
280.811
281.279
279.542
279.434
279.396
279.421
279.518
279.697
279.982
280.4
281.004
281.679
279.42
279.301
279.255
279.275
279.371
279.557
279.869
280.348
281.1
281.99
279.358
279.231
279.179
279.194
279.288
279.475
279.801
280.323
281.206
282.305
279.268
279.132
279.075
279.084
279.171
279.353
279.684
280.232
281.227
282.521
279.239
279.101
279.043
279.053
279.142
279.325
279.659
280.219
281.292
282.754
279.211
279.072
279.011
279.018
279.102
279.279
279.611
280.174
281.287
282.931
279.878
279.748
279.701
279.731
279.846
280.057
280.417
281.006
282.119
283.859
280.546
280.496
280.48
280.49
280.525
280.581
280.656
280.744
280.837
280.926
280.015
279.955
279.934
279.951
280.007
280.101
280.232
280.394
280.573
280.733
279.87
279.792
279.764
279.787
279.861
279.99
280.176
280.418
280.708
280.981
279.795
279.699
279.664
279.688
279.775
279.931
280.166
280.488
280.907
281.326
279.683
279.571
279.529
279.55
279.643
279.816
280.089
280.481
281.031
281.616
279.623
279.499
279.451
279.47
279.565
279.748
280.05
280.498
281.176
281.933
279.53
279.397
279.343
279.357
279.451
279.637
279.957
280.449
281.242
282.174
279.496
279.358
279.303
279.318
279.416
279.607
279.939
280.461
281.346
282.44
279.461
279.321
279.264
279.276
279.371
279.561
279.899
280.44
281.386
282.656
280.096
279.966
279.916
279.945
280.061
280.274
280.633
281.199
282.166
283.55
280.645
280.609
280.598
280.604
280.626
280.66
280.705
280.755
280.806
280.857
280.159
280.116
280.101
280.113
280.153
280.218
280.305
280.407
280.513
280.6
280.051
279.989
279.968
279.985
280.043
280.14
280.275
280.441
280.623
280.782
279.996
279.915
279.885
279.905
279.978
280.105
280.289
280.526
280.805
281.063
279.9
279.801
279.764
279.784
279.867
280.017
280.243
280.547
280.934
281.311
279.847
279.734
279.69
279.71
279.8
279.967
280.229
280.594
281.092
281.601
279.759
279.634
279.584
279.601
279.694
279.871
280.16
280.577
281.181
281.832
279.725
279.593
279.541
279.56
279.658
279.845
280.154
280.611
281.305
282.094
279.685
279.551
279.497
279.514
279.611
279.801
280.121
280.607
281.369
282.309
280.291
280.164
280.115
280.143
280.255
280.461
280.798
281.31
282.103
283.148
280.709
280.683
280.675
280.679
280.692
280.712
280.738
280.766
280.795
280.827
280.263
280.233
280.223
280.231
280.257
280.3
280.356
280.419
280.481
280.529
280.187
280.141
280.124
280.137
280.179
280.249
280.343
280.453
280.566
280.659
280.151
280.086
280.062
280.078
280.136
280.234
280.371
280.539
280.722
280.88
280.074
279.991
279.959
279.977
280.047
280.17
280.348
280.575
280.841
281.082
280.033
279.934
279.896
279.915
279.995
280.139
280.354
280.64
280.994
281.333
279.952
279.84
279.796
279.814
279.9
280.059
280.305
280.644
281.089
281.535
279.922
279.803
279.756
279.775
279.868
280.04
280.311
280.693
281.219
281.775
279.881
279.757
279.708
279.726
279.82
279.998
280.285
280.701
281.29
281.965
280.458
280.341
280.294
280.32
280.424
280.615
280.917
281.357
281.982
282.74
280.752
280.731
280.726
280.728
280.735
280.747
280.762
280.778
280.794
280.817
280.338
280.319
280.311
280.316
280.333
280.361
280.395
280.433
280.469
280.497
280.287
280.255
280.243
280.252
280.281
280.329
280.392
280.463
280.533
280.588
280.268
280.219
280.2
280.212
280.256
280.328
280.427
280.542
280.661
280.758
280.21
280.144
280.119
280.133
280.189
280.285
280.42
280.584
280.763
280.917
280.182
280.1
280.068
280.085
280.152
280.27
280.44
280.656
280.903
281.126
280.111
280.015
279.977
279.994
280.069
280.205
280.407
280.671
280.991
281.293
280.089
279.985
279.944
279.962
280.045
280.196
280.424
280.73
281.117
281.501
280.047
279.937
279.894
279.912
279.998
280.157
280.403
280.742
281.185
281.657
280.598
280.492
280.45
280.474
280.567
280.736
280.996
281.359
281.835
282.367
280.779
280.762
280.759
280.76
280.764
280.77
280.779
280.787
280.797
280.815
280.393
280.381
280.376
280.379
280.39
280.406
280.427
280.45
280.471
280.487
280.363
280.341
280.333
280.339
280.359
280.39
280.431
280.476
280.519
280.551
280.355
280.319
280.306
280.315
280.346
280.397
280.466
280.543
280.619
280.679
280.315
280.264
280.245
280.256
280.299
280.371
280.47
280.585
280.704
280.802
280.3
280.234
280.209
280.222
280.276
280.369
280.499
280.656
280.826
280.972
280.239
280.159
280.128
280.143
280.205
280.316
280.475
280.675
280.901
281.103
280.227
280.139
280.104
280.121
280.192
280.318
280.502
280.739
281.018
281.279
280.185
280.09
280.053
280.07
280.145
280.281
280.483
280.75
281.075
281.398
280.708
280.618
280.581
280.602
280.682
280.827
281.041
281.329
281.682
282.046
280.796
280.782
280.779
280.779
280.782
280.785
280.79
280.795
280.801
280.816
280.435
280.427
280.424
280.426
280.432
280.442
280.455
280.468
280.48
280.49
280.421
280.406
280.401
280.405
280.418
280.438
280.464
280.492
280.518
280.537
280.42
280.395
280.385
280.391
280.413
280.448
280.494
280.545
280.594
280.63
280.395
280.358
280.343
280.352
280.383
280.436
280.505
280.584
280.662
280.724
280.39
280.34
280.321
280.331
280.373
280.443
280.539
280.65
280.766
280.86
280.338
280.275
280.25
280.262
280.312
280.399
280.52
280.667
280.823
280.957
280.338
280.267
280.239
280.253
280.311
280.412
280.556
280.733
280.93
281.105
280.295
280.216
280.186
280.201
280.264
280.375
280.535
280.738
280.97
281.188
280.792
280.717
280.686
280.704
280.771
280.889
281.061
281.281
281.536
281.779
280.805
280.792
280.79
280.791
280.792
280.794
280.796
280.799
280.803
280.817
280.467
280.462
280.46
280.461
280.464
280.47
280.478
280.486
280.493
280.499
280.466
280.457
280.454
280.456
280.464
280.477
280.493
280.51
280.525
280.537
280.467
280.45
280.443
280.447
280.462
280.486
280.516
280.549
280.579
280.602
280.456
280.429
280.419
280.425
280.447
280.484
280.531
280.585
280.635
280.674
280.459
280.422
280.407
280.415
280.446
280.498
280.566
280.643
280.72
280.781
280.414
280.365
280.346
280.356
280.394
280.46
280.549
280.653
280.76
280.848
280.426
280.371
280.349
280.36
280.406
280.484
280.592
280.721
280.857
280.973
280.38
280.317
280.293
280.305
280.356
280.443
280.566
280.716
280.879
281.023
280.851
280.791
280.766
280.78
280.834
280.928
281.06
281.224
281.403
281.562
280.808
280.797
280.795
280.795
280.796
280.797
280.798
280.8
280.803
280.815
280.491
280.488
280.486
280.487
280.489
280.493
280.497
280.502
280.507
280.511
280.503
280.497
280.495
280.497
280.502
280.51
280.52
280.53
280.539
280.545
280.502
280.49
280.485
280.488
280.498
280.513
280.533
280.554
280.573
280.587
280.501
280.483
280.476
280.48
280.495
280.52
280.552
280.587
280.619
280.643
280.51
280.484
280.473
280.479
280.501
280.538
280.585
280.638
280.688
280.726
280.47
280.434
280.42
280.427
280.455
280.503
280.567
280.64
280.711
280.768
280.495
280.454
280.437
280.446
280.481
280.539
280.618
280.709
280.801
280.876
280.444
280.395
280.377
280.386
280.425
280.491
280.582
280.69
280.801
280.896
280.887
280.842
280.822
280.833
280.875
280.947
281.045
281.163
281.287
281.388
280.806
280.796
280.794
280.794
280.795
280.795
280.796
280.797
280.799
280.81
280.509
280.507
280.506
280.506
280.508
280.51
280.512
280.515
280.518
280.521
280.534
280.531
280.53
280.531
280.534
280.538
280.544
280.55
280.555
280.559
280.526
280.519
280.516
280.517
280.523
280.533
280.546
280.559
280.571
280.58
280.535
280.523
280.518
280.521
280.531
280.548
280.569
280.591
280.611
280.626
280.548
280.53
280.522
280.526
280.542
280.567
280.599
280.633
280.666
280.69
280.511
280.485
280.475
280.48
280.5
280.534
280.578
280.627
280.674
280.711
280.549
280.519
280.507
280.514
280.539
280.581
280.637
280.699
280.761
280.809
280.489
280.453
280.439
280.446
280.475
280.523
280.588
280.663
280.738
280.799
280.905
280.873
280.858
280.866
280.897
280.95
281.021
281.103
281.186
281.249
280.8
280.791
280.79
280.79
280.79
280.79
280.791
280.791
280.793
280.803
280.522
280.52
280.519
280.519
280.52
280.521
280.523
280.525
280.527
280.529
280.561
280.56
280.559
280.56
280.562
280.564
280.568
280.571
280.573
280.575
280.544
280.539
280.536
280.537
280.541
280.547
280.555
280.563
280.571
280.576
280.561
280.553
280.55
280.551
280.558
280.569
280.582
280.596
280.609
280.617
280.575
280.562
280.557
280.56
280.57
280.587
280.608
280.631
280.652
280.667
280.539
280.521
280.514
280.518
280.532
280.555
280.584
280.617
280.647
280.671
280.592
280.571
280.563
280.568
280.585
280.615
280.653
280.694
280.734
280.764
280.518
280.492
280.482
280.487
280.508
280.542
280.587
280.638
280.687
280.726
280.909
280.886
280.876
280.882
280.904
280.941
280.991
281.047
281.101
281.139
280.793
280.784
280.783
280.783
280.783
280.784
280.784
280.784
280.785
280.794
280.528
280.526
280.525
280.525
280.526
280.527
280.528
280.529
280.531
280.533
280.586
280.585
280.585
280.586
280.587
280.588
280.59
280.592
280.593
280.594
280.555
280.552
280.55
280.551
280.553
280.557
280.561
280.566
280.571
280.575
280.579
280.574
280.572
280.573
280.577
280.584
280.592
280.601
280.608
280.613
280.592
280.584
280.581
280.583
280.589
280.6
280.614
280.628
280.641
280.65
280.558
280.546
280.542
280.544
280.553
280.569
280.588
280.609
280.628
280.642
280.626
280.612
280.606
280.61
280.622
280.642
280.667
280.694
280.72
280.738
280.534
280.516
280.509
280.512
280.526
280.55
280.58
280.613
280.645
280.67
280.904
280.889
280.881
280.885
280.901
280.926
280.96
280.996
281.032
281.054
280.79
280.782
280.782
280.782
280.782
280.782
280.782
280.782
280.783
280.79
280.526
280.524
280.523
280.523
280.524
280.524
280.525
280.526
280.528
280.531
280.609
280.608
280.609
280.609
280.61
280.61
280.611
280.612
280.612
280.612
280.561
280.559
280.558
280.558
280.56
280.562
280.565
280.568
280.571
280.573
280.59
280.587
280.586
280.587
280.589
280.593
280.598
280.603
280.608
280.611
280.602
280.597
280.594
280.595
280.6
280.606
280.615
280.624
280.632
280.638
280.57
280.563
280.56
280.561
280.567
280.577
280.589
280.602
280.613
280.622
280.652
280.643
280.639
280.641
280.649
280.662
280.678
280.696
280.712
280.723
280.537
280.524
280.52
280.522
280.531
280.547
280.566
280.588
280.607
280.624
280.898
280.888
280.883
280.886
280.896
280.913
280.935
280.958
280.981
280.993
280.804
280.798
280.798
280.798
280.798
280.798
280.798
280.798
280.798
280.804
280.512
280.51
280.509
280.509
280.51
280.51
280.511
280.512
280.513
280.516
280.626
280.626
280.626
280.626
280.626
280.627
280.627
280.628
280.628
280.628
280.563
280.562
280.562
280.562
280.563
280.564
280.566
280.567
280.569
280.57
280.595
280.593
280.592
280.592
280.594
280.596
280.599
280.603
280.606
280.607
280.603
280.6
280.598
280.599
280.602
280.606
280.611
280.617
280.622
280.626
280.575
280.571
280.569
280.57
280.574
280.58
280.588
280.595
280.602
280.607
280.664
280.658
280.655
280.657
280.662
280.67
280.681
280.692
280.703
280.71
280.523
280.515
280.512
280.514
280.52
280.53
280.542
280.555
280.567
280.578
280.905
280.899
280.895
280.897
280.904
280.915
280.929
280.944
280.959
280.965
280.855
280.851
280.851
280.851
280.851
280.851
280.851
280.851
280.851
280.855
280.477
280.476
280.476
280.476
280.476
280.477
280.477
280.477
280.478
280.481
280.631
280.63
280.629
280.629
280.629
280.629
280.63
280.631
280.632
280.633
280.563
280.563
280.563
280.564
280.564
280.565
280.566
280.566
280.567
280.567
280.594
280.592
280.592
280.592
280.593
280.594
280.596
280.598
280.6
280.602
280.599
280.596
280.595
280.596
280.598
280.6
280.604
280.607
280.611
280.613
280.575
280.573
280.572
280.573
280.575
280.579
280.584
280.588
280.592
280.594
280.654
280.65
280.647
280.648
280.651
280.657
280.664
280.672
280.68
280.685
280.486
280.481
280.48
280.481
280.485
280.492
280.499
280.507
280.513
280.519
280.942
280.938
280.936
280.937
280.941
280.948
280.958
280.967
280.978
280.981
280.937
280.935
280.934
280.934
280.933
280.934
280.934
280.935
280.936
280.939
280.419
280.421
280.422
280.424
280.424
280.424
280.423
280.422
280.42
280.419
280.619
280.617
280.616
280.615
280.615
280.615
280.616
280.618
280.62
280.623
280.564
280.564
280.565
280.565
280.566
280.566
280.567
280.567
280.566
280.565
280.59
280.589
280.589
280.589
280.59
280.591
280.592
280.594
280.595
280.596
280.593
280.591
280.59
280.591
280.592
280.594
280.596
280.599
280.601
280.603
280.574
280.573
280.572
280.573
280.575
280.577
280.581
280.584
280.586
280.587
280.622
280.618
280.616
280.616
280.619
280.623
280.628
280.634
280.641
280.647
280.426
280.424
280.424
280.425
280.428
280.433
280.438
280.443
280.446
280.446
281.002
280.998
280.996
280.997
281
281.006
281.013
281.02
281.027
281.03
289.48
291.237
291.502
289.914
290.645
292.774
293.184
291.525
292.305
294.931
295.465
293.494
293.585
296.651
297.32
295.138
294.528
298.005
298.814
296.492
295.275
299.131
300.1
297.907
295.82
300.036
301.197
299.33
296.291
300.831
302.198
300.708
296.505
301.346
302.927
301.861
297.065
302.095
303.942
303.461
286.169
286.715
286.696
286.172
287.465
288.108
288.047
287.394
289.068
289.872
289.761
288.903
290.507
291.457
291.286
290.236
291.682
292.773
292.537
291.302
292.703
293.932
293.671
292.278
293.509
294.868
294.619
293.091
294.204
295.669
295.442
293.803
294.642
296.171
295.972
294.268
295.427
296.929
296.84
295.191
282.26
282.394
282.425
282.357
282.989
283.207
283.247
283.111
284.155
284.493
284.537
284.288
285.422
285.88
285.92
285.54
286.584
287.158
287.185
286.662
287.718
288.404
288.417
287.757
288.709
289.503
289.504
288.719
289.647
290.534
290.525
289.635
290.405
291.333
291.323
290.381
291.648
292.505
292.534
291.67
281.492
281.558
281.579
281.558
281.751
281.836
281.865
281.844
282.459
282.607
282.649
282.596
283.335
283.556
283.608
283.507
284.175
284.474
284.531
284.368
285.064
285.445
285.502
285.265
285.882
286.343
286.399
286.08
286.718
287.251
287.302
286.902
287.473
288.039
288.086
287.63
288.816
289.308
289.368
288.955
281.06
281.096
281.109
281.097
281.099
281.128
281.142
281.142
281.549
281.606
281.632
281.627
282.16
282.258
282.297
282.281
282.755
282.903
282.954
282.917
283.421
283.626
283.688
283.619
284.046
284.311
284.379
284.269
284.72
285.041
285.112
284.954
285.356
285.706
285.776
285.578
286.608
286.886
286.962
286.801
280.889
280.919
280.928
280.916
280.793
280.806
280.813
280.813
281.098
281.124
281.137
281.138
281.538
281.585
281.608
281.608
281.965
282.04
282.074
282.07
282.464
282.573
282.619
282.607
282.929
283.078
283.134
283.108
283.452
283.64
283.704
283.656
283.953
284.163
284.228
284.158
285.074
285.217
285.285
285.254
280.807
280.834
280.841
280.83
280.626
280.632
280.635
280.636
280.837
280.849
280.856
280.857
281.166
281.188
281.201
281.203
281.483
281.521
281.541
281.543
281.867
281.925
281.955
281.957
282.219
282.301
282.34
282.339
282.625
282.732
282.779
282.771
283.003
283.127
283.177
283.158
283.999
284.057
284.108
284.134
280.773
280.799
280.806
280.794
280.543
280.546
280.548
280.548
280.688
280.694
280.697
280.698
280.934
280.946
280.953
280.954
281.173
281.193
281.204
281.207
281.475
281.507
281.524
281.528
281.744
281.79
281.815
281.819
282.062
282.124
282.155
282.158
282.341
282.413
282.448
282.447
283.233
283.238
283.273
283.32
280.761
280.786
280.793
280.781
280.504
280.506
280.507
280.507
280.604
280.607
280.609
280.609
280.788
280.795
280.798
280.799
280.967
280.979
280.985
280.987
281.205
281.223
281.234
281.237
281.41
281.437
281.452
281.456
281.662
281.698
281.718
281.722
281.866
281.909
281.931
281.935
282.671
282.645
282.667
282.718
280.759
280.784
280.791
280.779
280.492
280.493
280.494
280.494
280.561
280.563
280.564
280.564
280.697
280.701
280.703
280.704
280.831
280.838
280.842
280.843
281.018
281.029
281.035
281.037
281.171
281.187
281.196
281.199
281.372
281.393
281.405
281.408
281.519
281.544
281.558
281.562
282.248
282.205
282.217
282.267
280.76
280.786
280.793
280.781
280.493
280.494
280.495
280.494
280.543
280.544
280.545
280.545
280.642
280.644
280.645
280.646
280.742
280.746
280.748
280.749
280.888
280.894
280.898
280.899
280.998
281.008
281.014
281.015
281.16
281.172
281.18
281.182
281.261
281.276
281.285
281.288
281.923
281.871
281.878
281.926
280.762
280.787
280.794
280.782
280.502
280.502
280.503
280.503
280.541
280.541
280.542
280.541
280.609
280.611
280.612
280.612
280.685
280.687
280.689
280.689
280.798
280.802
280.804
280.805
280.874
280.88
280.883
280.885
281.006
281.014
281.018
281.02
281.069
281.078
281.084
281.086
281.672
281.617
281.62
281.664
280.761
280.787
280.794
280.782
280.512
280.513
280.513
280.513
280.547
280.548
280.548
280.548
280.592
280.593
280.593
280.593
280.65
280.652
280.652
280.653
280.737
280.74
280.741
280.742
280.785
280.789
280.791
280.792
280.896
280.901
280.904
280.905
280.926
280.932
280.935
280.936
281.476
281.42
281.421
281.462
280.758
280.784
280.791
280.779
280.523
280.524
280.524
280.524
280.56
280.56
280.56
280.56
280.583
280.584
280.584
280.584
280.63
280.631
280.631
280.631
280.697
280.699
280.7
280.7
280.722
280.724
280.726
280.726
280.821
280.824
280.826
280.826
280.82
280.824
280.826
280.826
281.321
281.268
281.268
281.305
280.753
280.779
280.785
280.773
280.531
280.532
280.532
280.532
280.576
280.576
280.576
280.575
280.579
280.579
280.579
280.579
280.62
280.62
280.62
280.62
280.671
280.672
280.672
280.672
280.678
280.679
280.68
280.68
280.772
280.773
280.774
280.775
280.741
280.744
280.745
280.745
281.198
281.149
281.149
281.182
280.747
280.773
280.779
280.766
280.535
280.536
280.536
280.536
280.593
280.593
280.593
280.593
280.576
280.576
280.576
280.577
280.615
280.615
280.615
280.615
280.653
280.654
280.654
280.654
280.647
280.648
280.648
280.648
280.742
280.743
280.744
280.744
280.681
280.683
280.684
280.684
281.102
281.058
281.058
281.087
280.746
280.772
280.778
280.765
280.533
280.533
280.534
280.534
280.611
280.611
280.611
280.611
280.573
280.574
280.574
280.574
280.611
280.611
280.611
280.612
280.64
280.64
280.64
280.64
280.625
280.625
280.625
280.625
280.725
280.726
280.727
280.727
280.633
280.634
280.634
280.634
281.03
280.994
280.993
281.018
280.765
280.79
280.795
280.782
280.519
280.52
280.52
280.52
280.627
280.627
280.627
280.627
280.57
280.57
280.57
280.57
280.608
280.608
280.608
280.608
280.627
280.627
280.628
280.628
280.607
280.607
280.607
280.608
280.712
280.713
280.714
280.714
280.585
280.586
280.587
280.586
280.992
280.964
280.964
280.982
280.824
280.846
280.849
280.837
280.484
280.484
280.485
280.485
280.633
280.633
280.633
280.633
280.566
280.565
280.565
280.565
280.602
280.602
280.602
280.602
280.614
280.615
280.615
280.615
280.593
280.593
280.593
280.593
280.691
280.692
280.692
280.692
280.524
280.525
280.525
280.524
281
280.982
280.983
280.995
280.921
280.935
280.936
280.929
280.42
280.42
280.42
280.419
280.626
280.627
280.627
280.628
280.563
280.563
280.563
280.563
280.597
280.597
280.597
280.597
280.604
280.605
280.605
280.605
280.585
280.584
280.584
280.584
280.657
280.659
280.66
280.659
280.442
280.441
280.441
280.44
281.047
281.042
281.043
281.045
282.194
280.894
280.352
280.005
279.71
279.469
279.277
279.125
279.004
278.899
282.34
281.101
280.267
279.742
279.326
279.018
278.79
278.62
278.491
278.386
282.912
281.607
280.476
279.836
279.336
278.989
278.735
278.544
278.4
278.286
283.506
282.141
280.742
280.038
279.473
279.102
278.828
278.624
278.468
278.342
283.983
282.594
280.95
280.196
279.571
279.181
278.888
278.671
278.505
278.371
284.53
283.085
281.218
280.429
279.744
279.336
279.023
278.791
278.61
278.459
285.011
283.483
281.417
280.605
279.864
279.443
279.108
278.862
278.667
278.506
285.576
283.971
281.719
280.891
280.091
279.653
279.289
279.019
278.797
278.604
286.024
284.362
281.931
281.127
280.293
279.85
279.45
279.151
278.9
278.682
287.755
286.092
283.506
282.649
281.688
281.12
280.596
280.193
279.859
279.565
283.989
282.68
281.693
280.98
280.487
280.141
279.89
279.703
279.557
279.436
284.436
282.65
281.319
280.46
279.906
279.528
279.259
279.063
278.92
278.814
285.031
282.837
281.25
280.32
279.726
279.328
279.048
278.847
278.704
278.601
285.518
283.023
281.243
280.29
279.669
279.265
278.984
278.785
278.644
278.545
285.784
283.077
281.168
280.209
279.567
279.166
278.888
278.695
278.56
278.466
285.982
283.147
281.145
280.198
279.54
279.146
278.872
278.684
278.552
278.458
286.026
283.127
281.055
280.137
279.467
279.087
278.817
278.636
278.508
278.416
286.082
283.185
281.057
280.183
279.501
279.136
278.864
278.682
278.546
278.444
286.039
283.173
280.998
280.204
279.537
279.202
278.924
278.733
278.586
278.471
286.947
284.234
282.063
281.32
280.604
280.213
279.866
279.62
279.427
279.282
282.121
281.742
281.372
281.043
280.76
280.523
280.326
280.163
280.026
279.908
282.583
281.901
281.283
280.771
280.358
280.03
279.773
279.572
279.416
279.297
283.354
282.338
281.471
280.803
280.287
279.894
279.597
279.372
279.202
279.078
284.123
282.784
281.684
280.888
280.292
279.857
279.537
279.299
279.124
278.996
284.697
283.075
281.774
280.88
280.226
279.766
279.434
279.193
279.017
278.891
285.205
283.346
281.873
280.911
280.214
279.741
279.403
279.161
278.985
278.857
285.552
283.497
281.88
280.874
280.148
279.671
279.333
279.094
278.919
278.792
285.874
283.675
281.938
280.914
280.168
279.695
279.355
279.115
278.934
278.799
286.077
283.76
281.924
280.921
280.184
279.73
279.387
279.14
278.951
278.807
287.065
284.743
282.87
281.89
281.123
280.632
280.244
279.959
279.74
279.58
281.515
281.368
281.191
281.01
280.839
280.685
280.547
280.427
280.321
280.224
281.721
281.432
281.102
280.785
280.505
280.265
280.064
279.898
279.762
279.655
282.349
281.865
281.355
280.9
280.515
280.199
279.944
279.74
279.58
279.458
283.082
282.365
281.658
281.067
280.588
280.21
279.914
279.683
279.506
279.372
283.709
282.748
281.849
281.137
280.579
280.154
279.83
279.583
279.395
279.256
284.324
283.123
282.044
281.229
280.607
280.148
279.804
279.547
279.352
279.208
284.813
283.384
282.139
281.243
280.571
280.09
279.734
279.471
279.274
279.128
285.285
283.654
282.264
281.31
280.602
280.108
279.744
279.476
279.272
279.118
285.653
283.831
282.317
281.34
280.62
280.128
279.757
279.482
279.271
279.111
286.699
284.774
283.2
282.215
281.467
280.948
280.546
280.245
280.014
279.846
281.106
281.059
280.988
280.904
280.816
280.729
280.646
280.569
280.496
280.425
281.114
281
280.845
280.677
280.512
280.358
280.22
280.098
279.995
279.91
281.567
281.36
281.096
280.827
280.574
280.349
280.155
279.991
279.857
279.751
282.16
281.822
281.424
281.041
280.699
280.407
280.163
279.964
279.803
279.678
282.705
282.211
281.665
281.17
280.744
280.394
280.11
279.884
279.705
279.568
283.284
282.618
281.92
281.318
280.818
280.42
280.105
279.858
279.664
279.517
283.777
282.931
282.084
281.386
280.823
280.387
280.049
279.788
279.585
279.432
284.278
283.254
282.267
281.49
280.877
280.414
280.059
279.786
279.573
279.412
284.694
283.489
282.376
281.549
280.906
280.429
280.062
279.78
279.561
279.392
285.732
284.405
283.22
282.36
281.687
281.186
280.795
280.494
280.261
280.092
280.932
280.915
280.882
280.841
280.795
280.746
280.698
280.651
280.603
280.552
280.802
280.751
280.674
280.584
280.488
280.393
280.303
280.221
280.148
280.086
281.117
281.019
280.88
280.724
280.565
280.415
280.277
280.156
280.053
279.968
281.568
281.403
281.18
280.942
280.712
280.501
280.316
280.157
280.024
279.916
281.998
281.745
281.422
281.095
280.791
280.523
280.294
280.102
279.945
279.821
282.488
282.128
281.694
281.275
280.9
280.579
280.312
280.093
279.915
279.776
282.921
282.439
281.888
281.38
280.939
280.573
280.275
280.035
279.842
279.693
283.383
282.77
282.102
281.514
281.017
280.615
280.292
280.034
279.829
279.669
283.776
283.021
282.244
281.595
281.058
280.632
280.292
280.023
279.809
279.643
284.759
283.9
283.052
282.36
281.79
281.341
280.981
280.697
280.472
280.308
280.848
280.842
280.827
280.807
280.782
280.756
280.729
280.701
280.671
280.634
280.631
280.607
280.568
280.519
280.465
280.408
280.352
280.299
280.251
280.209
280.848
280.799
280.725
280.635
280.538
280.442
280.349
280.264
280.19
280.126
281.187
281.103
280.978
280.833
280.684
280.539
280.405
280.286
280.182
280.096
281.516
281.383
281.194
280.985
280.777
280.582
280.407
280.255
280.125
280.02
281.912
281.717
281.453
281.173
280.904
280.66
280.446
280.263
280.11
279.987
282.267
281.996
281.648
281.295
280.966
280.676
280.428
280.22
280.048
279.911
282.661
282.304
281.868
281.444
281.06
280.731
280.455
280.226
280.038
279.889
282.994
282.539
282.019
281.536
281.111
280.753
280.456
280.213
280.015
279.859
283.899
283.369
282.789
282.263
281.805
281.424
281.109
280.852
280.645
280.493
280.813
280.812
280.804
280.794
280.781
280.767
280.751
280.735
280.715
280.688
280.545
280.533
280.512
280.485
280.454
280.421
280.386
280.353
280.323
280.295
280.693
280.667
280.626
280.574
280.516
280.455
280.394
280.337
280.286
280.241
280.946
280.901
280.829
280.742
280.647
280.55
280.457
280.371
280.294
280.229
281.194
281.121
281.01
280.878
280.739
280.603
280.474
280.358
280.257
280.172
281.508
281.399
281.239
281.056
280.869
280.69
280.527
280.381
280.256
280.152
281.788
281.634
281.417
281.178
280.941
280.72
280.523
280.352
280.206
280.087
282.111
281.903
281.623
281.328
281.044
280.786
280.56
280.366
280.204
280.072
282.375
282.106
281.766
281.421
281.098
280.811
280.564
280.355
280.181
280.04
283.198
282.88
282.493
282.11
281.758
281.449
281.184
280.963
280.78
280.645
280.801
280.801
280.798
280.792
280.785
280.778
280.769
280.759
280.746
280.725
280.506
280.499
280.487
280.472
280.454
280.435
280.414
280.394
280.375
280.358
280.606
280.592
280.569
280.538
280.503
280.465
280.427
280.39
280.355
280.325
280.795
280.769
280.728
280.674
280.614
280.551
280.488
280.428
280.373
280.326
280.98
280.938
280.872
280.789
280.698
280.604
280.513
280.428
280.352
280.287
281.227
281.164
281.066
280.948
280.82
280.693
280.572
280.461
280.363
280.28
281.441
281.352
281.216
281.057
280.89
280.728
280.577
280.442
280.324
280.226
281.7
281.578
281.4
281.199
280.994
280.8
280.623
280.466
280.331
280.219
281.902
281.743
281.524
281.284
281.046
280.826
280.627
280.455
280.308
280.187
282.645
282.457