/*--------------------------------*- C++ -*----------------------------------*\
| =========                 |                                                 |
| \\      /  F ield         | foam-extend: Open Source CFD                    |
|  \\    /   O peration     | Version:     4.0                                |
|   \\  /    A nd           | Web:         http://www.foam-extend.org         |
|    \\/     M anipulation  |                                                 |
\*---------------------------------------------------------------------------*/
FoamFile
{
    version     2.0;
    format      ascii;
    class       volVectorField;
    location    "1450";
    object      U;
}
// * * * * * * * * * * * * * * * * * * * * * * * * * * * * * * * * * * * * * //

dimensions      [0 1 -1 0 0 0 0];

internalField   nonuniform List<vector> 
34480
(
(208.933 2.1682 3.26432)
(209.254 1.20141 1.52794)
(209.412 0.415637 -0.268912)
(209.42 -0.208507 -2.1717)
(209.273 -0.703398 -4.32093)
(208.933 -1.06517 -6.89394)
(208.319 -1.2674 -10.2924)
(207.155 -1.18699 -14.8617)
(204.487 -0.588433 -22.7726)
(197.553 1.98211 -50.0365)
(209.871 3.0822 2.87669)
(210.132 2.26092 1.05689)
(210.26 1.53582 -0.766928)
(210.235 0.901391 -2.66539)
(210.001 0.329466 -4.75866)
(209.499 -0.190911 -7.25642)
(208.694 -0.669731 -10.6201)
(207.403 -1.04382 -15.593)
(204.268 -1.14252 -24.3977)
(196.112 0.641955 -55.0913)
(210.567 2.71584 3.29337)
(210.803 1.83586 1.41062)
(210.899 1.06054 -0.494059)
(210.829 0.406564 -2.43816)
(210.535 -0.171337 -4.55269)
(210.008 -0.696352 -7.0971)
(209.257 -1.18496 -10.6022)
(208.116 -1.55619 -16.0982)
(204.817 -1.63162 -25.7765)
(195.61 0.366913 -59.4451)
(210.579 3.25791 3.24548)
(210.816 2.42574 1.3073)
(210.926 1.68227 -0.629968)
(210.89 1.05863 -2.60182)
(210.657 0.510682 -4.74727)
(210.244 0.0143532 -7.35559)
(209.63 -0.449722 -10.9607)
(208.653 -0.789081 -16.8131)
(205.329 -0.816965 -27.1117)
(195.321 1.33025 -62.7189)
(210.741 2.72296 3.75329)
(211.008 1.8171 1.77694)
(211.156 1.0231 -0.239558)
(211.183 0.374529 -2.2865)
(211.042 -0.18978 -4.52874)
(210.764 -0.691773 -7.26797)
(210.299 -1.14296 -11.0353)
(209.506 -1.438 -17.2687)
(206.282 -1.38081 -28.2319)
(195.631 0.930667 -65.3897)
(210.629 3.41338 3.52979)
(210.907 2.52383 1.55605)
(211.076 1.74596 -0.421428)
(211.137 1.11778 -2.43723)
(211.064 0.588962 -4.64934)
(210.904 0.134083 -7.38445)
(210.591 -0.257894 -11.1581)
(210.013 -0.481865 -17.5804)
(207.037 -0.319291 -29.0252)
(195.987 2.09058 -67.3625)
(210.712 2.579 4.04594)
(211.03 1.59453 2.07148)
(211.229 0.742472 0.0520207)
(211.329 0.0529749 -1.99553)
(211.315 -0.529857 -4.25898)
(211.252 -1.02288 -7.06674)
(211.081 -1.41072 -10.9384)
(210.719 -1.5698 -17.6063)
(208.074 -1.20842 -29.6255)
(196.729 1.49303 -68.9867)
(210.541 3.35825 3.57398)
(210.865 2.36114 1.63193)
(211.044 1.52785 -0.307718)
(211.102 0.864778 -2.28939)
(211.048 0.339788 -4.46443)
(210.967 -0.0826493 -7.16675)
(210.84 -0.377595 -10.8998)
(210.635 -0.414917 -17.4855)
(208.397 0.250731 -29.6891)
(197.088 3.3168 -69.5855)
(210.491 2.0438 4.11998)
(210.858 0.929288 2.23151)
(211.067 -0.0273817 0.31669)
(211.165 -0.84206 -1.64098)
(211.161 -1.5463 -3.83462)
(211.124 -2.14586 -6.57479)
(211.065 -2.56 -10.4)
(210.998 -2.6115 -17.1015)
(209.089 -1.55678 -29.6732)
(197.665 2.45986 -69.54)
(209.528 2.79009 3.53574)
(209.806 1.57359 1.60551)
(209.756 0.619716 -0.304085)
(209.4 -0.166748 -2.27108)
(208.784 -0.773446 -4.43064)
(208 -1.21494 -7.06862)
(207.132 -1.39913 -10.6613)
(206.346 -1.10862 -16.8136)
(204.411 0.41594 -28.5302)
(194.233 5.28107 -66.4955)
(205.825 1.91285 3.00199)
(206.304 1.11069 1.54613)
(206.492 0.427726 -0.00722094)
(206.409 -0.116174 -1.60695)
(206.032 -0.545338 -3.31652)
(205.272 -0.860231 -5.14831)
(203.926 -1.06492 -7.1561)
(201.562 -1.17082 -9.31493)
(198.098 -1.25578 -11.2436)
(193.524 -1.15735 -14.3945)
(207.128 2.86903 2.79938)
(207.561 2.16494 1.16421)
(207.733 1.5202 -0.489355)
(207.646 0.944814 -2.18584)
(207.235 0.417479 -3.99285)
(206.381 -0.0677894 -5.96825)
(204.889 -0.52602 -8.20522)
(202.305 -0.991913 -10.955)
(198.136 -1.58144 -14.0041)
(192.452 -1.82012 -20.5814)
(208.083 2.57567 3.31017)
(208.493 1.76982 1.54858)
(208.652 1.0433 -0.252737)
(208.553 0.421465 -2.08613)
(208.117 -0.13439 -4.02576)
(207.244 -0.63674 -6.1553)
(205.761 -1.11484 -8.66367)
(203.185 -1.58523 -12.083)
(198.641 -2.15464 -16.3297)
(192.024 -2.06658 -26.7154)
(208.329 3.17417 3.30849)
(208.746 2.40014 1.46205)
(208.926 1.69149 -0.397493)
(208.869 1.08587 -2.29123)
(208.497 0.544579 -4.30453)
(207.726 0.0559571 -6.56367)
(206.356 -0.413086 -9.29446)
(203.874 -0.855166 -13.2542)
(199.102 -1.36182 -18.4729)
(191.672 -0.929617 -32.453)
(208.685 2.66405 3.84459)
(209.129 1.80543 1.9432)
(209.348 1.03914 -0.0129092)
(209.356 0.406238 -2.00139)
(209.076 -0.148685 -4.13929)
(208.442 -0.636857 -6.58033)
(207.223 -1.09309 -9.56661)
(204.904 -1.48838 -14.0579)
(200.055 -1.90068 -20.227)
(191.919 -1.06938 -37.6919)
(208.721 3.38919 3.64135)
(209.181 2.53836 1.72843)
(209.426 1.78139 -0.198177)
(209.477 1.16209 -2.1672)
(209.271 0.63368 -4.28984)
(208.766 0.181789 -6.76593)
(207.713 -0.224742 -9.83704)
(205.614 -0.548066 -14.6568)
(200.854 -0.829063 -21.5436)
(192.193 0.367586 -42.2088)
(208.927 2.56474 4.16712)
(209.422 1.61506 2.24627)
(209.699 0.785997 0.26811)
(209.797 0.114139 -1.74077)
(209.66 -0.450651 -3.92763)
(209.269 -0.919868 -6.50839)
(208.378 -1.30987 -9.73786)
(206.525 -1.56781 -14.9121)
(201.971 -1.65503 -22.5633)
(192.887 0.00386819 -46.2434)
(208.843 3.37445 3.7019)
(209.347 2.41102 1.8116)
(209.614 1.59981 -0.0795743)
(209.686 0.952332 -2.01586)
(209.533 0.442366 -4.11247)
(209.163 0.0379449 -6.6158)
(208.366 -0.26371 -9.77504)
(206.733 -0.418278 -14.9999)
(202.508 -0.207662 -23.0481)
(193.297 1.83618 -49.2155)
(208.86 2.05767 4.24948)
(209.395 0.980319 2.40851)
(209.689 0.0692281 0.533394)
(209.798 -0.686184 -1.37031)
(209.701 -1.31621 -3.47378)
(209.406 -1.83316 -6.02438)
(208.729 -2.18898 -9.32995)
(207.323 -2.32091 -14.7888)
(203.436 -1.74116 -23.4839)
(193.975 1.00448 -51.4961)
(207.939 2.8658 3.64083)
(208.419 1.69592 1.79563)
(208.538 0.799192 -0.0276771)
(208.328 0.0702536 -1.89851)
(207.802 -0.472308 -3.92351)
(206.996 -0.854348 -6.34833)
(205.798 -1.01247 -9.46478)
(203.997 -0.831612 -14.5594)
(200.258 0.222621 -23.0329)
(191.619 4.03811 -51.342)
(203.456 1.42802 2.3354)
(203.96 0.83398 1.21788)
(204.142 0.303074 -0.0113587)
(204.039 -0.13113 -1.26128)
(203.638 -0.481746 -2.55247)
(202.892 -0.746136 -3.83046)
(201.708 -0.934066 -5.04745)
(199.933 -1.071 -6.05381)
(197.379 -1.2423 -6.49845)
(194.163 -1.43132 -6.51827)
(204.855 2.41407 2.31467)
(205.351 1.87192 0.94829)
(205.532 1.34572 -0.446345)
(205.41 0.855214 -1.86314)
(204.947 0.390179 -3.32873)
(204.059 -0.0546921 -4.84567)
(202.587 -0.492648 -6.37761)
(200.259 -0.955128 -7.86145)
(196.635 -1.55331 -8.80169)
(191.793 -2.13422 -9.81171)
(205.894 2.20985 2.95096)
(206.395 1.52684 1.39899)
(206.576 0.888741 -0.205113)
(206.452 0.325532 -1.83448)
(205.965 -0.194976 -3.53544)
(205.013 -0.682675 -5.32465)
(203.398 -1.16225 -7.21194)
(200.754 -1.66374 -9.28994)
(196.252 -2.33116 -11.0015)
(189.808 -2.90839 -13.5846)
(206.293 2.89308 2.99879)
(206.817 2.21686 1.3235)
(207.023 1.57638 -0.375512)
(206.934 1.01171 -2.10721)
(206.485 0.489174 -3.93556)
(205.57 -0.000956471 -5.9188)
(203.94 -0.490517 -8.10286)
(201.128 -0.996696 -10.7379)
(195.89 -1.68056 -13.1992)
(187.954 -2.16386 -17.5597)
(206.797 2.42207 3.57451)
(207.352 1.64626 1.8122)
(207.596 0.937487 -0.0128375)
(207.564 0.337816 -1.87094)
(207.184 -0.203375 -3.8635)
(206.359 -0.694525 -6.08098)
(204.788 -1.17104 -8.59808)
(201.932 -1.63879 -11.8283)
(196.148 -2.28564 -15.1284)
(186.892 -2.57531 -21.5727)
(206.963 3.19625 3.39613)
(207.538 2.41432 1.60151)
(207.809 1.70529 -0.21475)
(207.819 1.11286 -2.07692)
(207.503 0.592379 -4.08532)
(206.775 0.131562 -6.38138)
(205.304 -0.304936 -9.05778)
(202.507 -0.716371 -12.7107)
(196.378 -1.27635 -16.713)
(186.032 -1.33793 -25.334)
(207.281 2.3882 3.94508)
(207.888 1.50152 2.12442)
(208.189 0.71934 0.239327)
(208.246 0.0780227 -1.68162)
(207.992 -0.470825 -3.77805)
(207.364 -0.935418 -6.21462)
(206.011 -1.33804 -9.11614)
(203.334 -1.66931 -13.2277)
(197.031 -2.06794 -18.0249)
(185.757 -1.79692 -28.9568)
(207.289 3.23569 3.48424)
(207.904 2.33333 1.69067)
(208.2 1.56692 -0.109943)
(208.24 0.949666 -1.96253)
(207.978 0.455103 -3.97765)
(207.378 0.0570429 -6.36109)
(206.111 -0.257206 -9.25513)
(203.586 -0.487903 -13.55)
(197.299 -0.620177 -18.8693)
(185.364 -0.0679792 -31.8728)
(207.384 1.90528 4.03652)
(208.018 0.889796 2.28072)
(208.336 0.0374292 0.479251)
(208.403 -0.658406 -1.35498)
(208.184 -1.22937 -3.38162)
(207.646 -1.6856 -5.80971)
(206.489 -1.99164 -8.87167)
(204.158 -2.12595 -13.5109)
(198.003 -1.85988 -19.6388)
(185.286 -0.797454 -34.2637)
(206.53 2.7712 3.39556)
(207.112 1.67903 1.669)
(207.299 0.85308 -0.0464866)
(207.129 0.189453 -1.81837)
(206.595 -0.292034 -3.74277)
(205.685 -0.614262 -6.03317)
(204.17 -0.725781 -8.91789)
(201.601 -0.546689 -13.3017)
(195.584 0.218019 -19.5431)
(182.808 2.30111 -34.6934)
(201.725 0.948835 1.70261)
(202.162 0.547669 0.912582)
(202.313 0.1657 0.00923752)
(202.215 -0.15773 -0.894979)
(201.867 -0.428441 -1.79871)
(201.252 -0.641027 -2.62032)
(200.341 -0.807713 -3.29484)
(199.108 -0.95197 -3.68686)
(197.548 -1.12917 -3.58079)
(195.817 -1.36456 -2.75393)
(203.049 1.90673 1.79284)
(203.518 1.53138 0.72011)
(203.681 1.13426 -0.385614)
(203.551 0.741358 -1.49498)
(203.104 0.35373 -2.59972)
(202.294 -0.0313874 -3.66926)
(201.046 -0.424605 -4.62759)
(199.253 -0.848248 -5.34637)
(196.787 -1.37034 -5.40305)
(193.986 -1.93693 -4.62063)
(204.041 1.75754 2.50629)
(204.553 1.21778 1.20935)
(204.729 0.688019 -0.147563)
(204.588 0.202646 -1.51491)
(204.089 -0.261945 -2.90941)
(203.161 -0.714071 -4.31113)
(201.671 -1.17311 -5.65361)
(199.422 -1.66523 -6.84543)
(196.067 -2.29585 -7.29992)
(191.984 -2.99043 -6.92512)
(204.503 2.52276 2.59136)
(205.06 1.96866 1.13668)
(205.266 1.41748 -0.349796)
(205.144 0.91312 -1.8567)
(204.644 0.430171 -3.41973)
(203.679 -0.0406473 -5.05305)
(202.052 -0.52837 -6.71086)
(199.466 -1.05523 -8.378)
(195.25 -1.76013 -9.29345)
(189.783 -2.52489 -9.54198)
(205.089 2.09679 3.20794)
(205.691 1.42825 1.63139)
(205.932 0.796841 -0.0140044)
(205.852 0.246966 -1.68175)
(205.388 -0.264046 -3.44656)
(204.447 -0.744091 -5.35195)
(202.771 -1.22607 -7.37852)
(199.969 -1.72915 -9.60926)
(195.002 -2.44255 -11.1398)
(188.198 -3.18016 -12.3698)
(205.345 2.92549 3.05842)
(205.976 2.2361 1.42517)
(206.244 1.59348 -0.236995)
(206.199 1.0433 -1.93725)
(205.775 0.546671 -3.75267)
(204.882 0.0911565 -5.77496)
(203.215 -0.360858 -8.00706)
(200.307 -0.827705 -10.6659)
(194.736 -1.50728 -12.7406)
(186.725 -2.16544 -15.137)
(205.748 2.14369 3.63641)
(206.411 1.34156 1.95439)
(206.707 0.622164 0.201478)
(206.703 0.0233074 -1.58211)
(206.326 -0.49901 -3.51473)
(205.499 -0.952502 -5.7122)
(203.878 -1.36358 -8.21722)
(200.941 -1.74512 -11.3644)
(194.913 -2.3002 -14.1223)
(185.813 -2.77237 -17.951)
(205.835 3.04159 3.18655)
(206.507 2.21973 1.52417)
(206.801 1.51151 -0.152626)
(206.786 0.934432 -1.87999)
(206.404 0.463686 -3.74971)
(205.593 0.0770997 -5.92077)
(204.012 -0.247158 -8.46306)
(201.113 -0.536126 -11.8532)
(194.827 -0.880437 -15.1084)
(184.842 -1.19244 -20.3195)
(205.998 1.70963 3.76771)
(206.68 0.772679 2.1285)
(206.991 -0.0144622 0.429607)
(206.999 -0.651053 -1.30216)
(206.651 -1.16822 -3.20478)
(205.883 -1.57302 -5.43324)
(204.359 -1.84486 -8.13917)
(201.55 -1.99467 -11.8859)
(195.192 -1.9466 -15.9841)
(184.233 -1.89729 -22.3815)
(205.211 2.64927 3.10537)
(205.846 1.64712 1.5192)
(206.066 0.895073 -0.0705584)
(205.905 0.295392 -1.72127)
(205.336 -0.130372 -3.51131)
(204.314 -0.402194 -5.60825)
(202.549 -0.481133 -8.16306)
(199.55 -0.316216 -11.7223)
(193.212 0.228645 -16.055)
(181.762 1.20258 -22.863)
(200.517 0.550564 1.19464)
(200.86 0.294539 0.667018)
(200.975 0.0337476 0.0367236)
(200.9 -0.195523 -0.582105)
(200.641 -0.396879 -1.18655)
(200.203 -0.562618 -1.69682)
(199.591 -0.702309 -2.06619)
(198.829 -0.831059 -2.20472)
(197.964 -0.975335 -2.02065)
(197.112 -1.14174 -1.42984)
(201.677 1.43334 1.31287)
(202.071 1.1989 0.512116)
(202.208 0.91964 -0.319392)
(202.095 0.621158 -1.14386)
(201.722 0.312547 -1.9344)
(201.074 -0.00493689 -2.64781)
(200.13 -0.335765 -3.20994)
(198.885 -0.689642 -3.51239)
(197.361 -1.09469 -3.32786)
(195.861 -1.51132 -2.51826)
(202.528 1.29027 2.05307)
(203 0.888223 1.01867)
(203.162 0.468422 -0.0803836)
(203.029 0.0667377 -1.17774)
(202.577 -0.331725 -2.26537)
(201.768 -0.73161 -3.30177)
(200.537 -1.14612 -4.20237)
(198.82 -1.59267 -4.83719)
(196.536 -2.1263 -4.8138)
(194.143 -2.69442 -3.92804)
(202.969 2.11364 2.15228)
(203.512 1.68758 0.939897)
(203.709 1.23415 -0.311267)
(203.58 0.800097 -1.57035)
(203.09 0.369952 -2.84381)
(202.181 -0.0628011 -4.11193)
(200.731 -0.522266 -5.29253)
(198.599 -1.02749 -6.27016)
(195.509 -1.66624 -6.46717)
(192.038 -2.36953 -5.60941)
(203.568 1.72475 2.79892)
(204.174 1.17526 1.43629)
(204.406 0.632333 -0.00134836)
(204.303 0.142826 -1.44901)
(203.814 -0.325692 -2.94931)
(202.865 -0.779152 -4.50314)
(201.275 -1.24604 -6.04231)
(198.82 -1.74863 -7.49132)
(194.956 -2.42756 -8.08674)
(190.338 -3.19387 -7.53671)
(203.865 2.6034 2.67468)
(204.513 2.02132 1.23283)
(204.776 1.45724 -0.24591)
(204.697 0.959687 -1.75207)
(204.22 0.498452 -3.33163)
(203.266 0.0624119 -5.0256)
(201.597 -0.385767 -6.78105)
(198.914 -0.872155 -8.60422)
(194.356 -1.5603 -9.56007)
(188.616 -2.35287 -9.46203)
(204.313 1.85099 3.28045)
(205.001 1.14928 1.76701)
(205.291 0.504351 0.175183)
(205.245 -0.0431562 -1.43892)
(204.797 -0.53013 -3.16295)
(203.865 -0.96346 -5.05853)
(202.165 -1.37186 -7.10836)
(199.332 -1.78026 -9.39475)
(194.179 -2.37981 -10.8779)
(187.356 -3.09852 -11.5045)
(204.455 2.80541 2.84335)
(205.156 2.07973 1.33927)
(205.449 1.44084 -0.187746)
(205.395 0.912361 -1.7607)
(204.938 0.473588 -3.4437)
(204.004 0.105998 -5.33985)
(202.289 -0.218888 -7.45475)
(199.384 -0.543372 -9.98836)
(193.805 -0.991019 -11.8656)
(186.024 -1.65529 -13.2475)
(204.67 1.47546 3.46001)
(205.379 0.631816 1.96285)
(205.685 -0.0828137 0.391357)
(205.649 -0.658188 -1.21003)
(205.216 -1.12298 -2.9527)
(204.309 -1.4817 -4.93296)
(202.608 -1.7264 -7.22161)
(199.68 -1.88957 -10.072)
(193.857 -1.98084 -12.6825)
(185.028 -2.3928 -14.8201)
(203.944 2.5024 2.77705)
(204.611 1.60085 1.3485)
(204.854 0.92677 -0.0991499)
(204.7 0.391306 -1.6085)
(204.114 0.0185757 -3.23578)
(203.031 -0.208565 -5.09802)
(201.164 -0.263522 -7.26922)
(198.068 -0.118643 -9.99776)
(192.143 0.260419 -12.8092)
(182.606 0.641218 -15.1315)
(199.688 0.250932 0.825528)
(199.942 0.0925094 0.489163)
(200.023 -0.0801244 0.0643386)
(199.972 -0.237012 -0.342004)
(199.797 -0.382581 -0.734797)
(199.509 -0.507827 -1.04607)
(199.124 -0.619002 -1.25064)
(198.673 -0.723558 -1.29414)
(198.196 -0.832223 -1.14409)
(197.741 -0.943736 -0.777988)
(200.668 1.03895 0.912445)
(200.971 0.909593 0.33852)
(201.077 0.72672 -0.258484)
(200.99 0.511022 -0.843681)
(200.707 0.275808 -1.38529)
(200.229 0.0253002 -1.84249)
(199.565 -0.239212 -2.15787)
(198.745 -0.518227 -2.2587)
(197.836 -0.816536 -2.03817)
(197.026 -1.1044 -1.43144)
(201.342 0.859138 1.63857)
(201.741 0.572572 0.845032)
(201.879 0.2523 -0.012679)
(201.766 -0.0684963 -0.861522)
(201.39 -0.398104 -1.67911)
(200.738 -0.737027 -2.41677)
(199.793 -1.09186 -2.99812)
(198.564 -1.47118 -3.3148)
(197.089 -1.89688 -3.14474)
(195.699 -2.32628 -2.34754)
(201.71 1.70854 1.724)
(202.199 1.40044 0.750177)
(202.376 1.04285 -0.265563)
(202.255 0.682235 -1.27989)
(201.814 0.31208 -2.27767)
(201.023 -0.0699812 -3.21919)
(199.826 -0.480584 -4.01752)
(198.186 -0.932114 -4.54545)
(196.052 -1.47068 -4.43849)
(193.908 -2.04205 -3.44104)
(202.267 1.33939 2.38171)
(202.836 0.907336 1.24135)
(203.05 0.456045 0.0224931)
(202.94 0.0328449 -1.19607)
(202.469 -0.384445 -2.42918)
(201.59 -0.798425 -3.64684)
(200.195 -1.23084 -4.76217)
(198.192 -1.70115 -5.6468)
(195.374 -2.29888 -5.77565)
(192.366 -2.96287 -4.76827)
(202.561 2.25472 2.27235)
(203.187 1.78409 1.03705)
(203.434 1.3047 -0.241455)
(203.337 0.866772 -1.53711)
(202.852 0.449584 -2.86663)
(201.92 0.0449566 -4.22916)
(200.381 -0.37987 -5.54148)
(198.081 -0.851188 -6.71136)
(194.601 -1.48458 -7.04741)
(190.684 -2.22685 -6.09828)
(203.02 1.52837 2.89876)
(203.697 0.93484 1.57283)
(203.972 0.371735 0.162033)
(203.898 -0.117744 -1.26213)
(203.419 -0.562102 -2.75608)
(202.467 -0.966322 -4.33321)
(200.833 -1.35802 -5.93506)
(198.301 -1.76681 -7.50341)
(194.207 -2.34357 -8.22535)
(189.358 -3.07414 -7.56141)
(203.189 2.5398 2.47177)
(203.888 1.91984 1.14478)
(204.17 1.35825 -0.212968)
(204.089 0.885024 -1.6104)
(203.594 0.484975 -3.08255)
(202.617 0.143658 -4.68053)
(200.916 -0.169309 -6.3585)
(198.228 -0.501537 -8.13895)
(193.647 -0.973224 -9.13452)
(187.918 -1.71591 -8.79588)
(203.439 1.21096 3.12544)
(204.148 0.470659 1.78915)
(204.441 -0.165936 0.365028)
(204.374 -0.678409 -1.0837)
(203.892 -1.09165 -2.64066)
(202.921 -1.40763 -4.34894)
(201.196 -1.62779 -6.21608)
(198.404 -1.79413 -8.2771)
(193.487 -1.95716 -9.83167)
(186.782 -2.51224 -9.91637)
(202.764 2.33684 2.42043)
(203.435 1.54335 1.16198)
(203.687 0.950356 -0.130103)
(203.538 0.479369 -1.48139)
(202.952 0.157367 -2.92447)
(201.858 -0.0302309 -4.52868)
(200.008 -0.0676849 -6.30385)
(197.056 0.0558707 -8.29485)
(191.96 0.314065 -9.98255)
(184.535 0.413367 -10.0835)
(199.115 0.0412443 0.576982)
(199.3 -0.057362 0.37042)
(199.355 -0.171175 0.0882343)
(199.323 -0.276526 -0.1719)
(199.213 -0.379972 -0.425102)
(199.035 -0.472113 -0.616171)
(198.805 -0.556807 -0.736271)
(198.546 -0.636306 -0.752776)
(198.285 -0.713625 -0.658471)
(198.024 -0.784863 -0.451982)
(199.939 0.739001 0.600663)
(200.157 0.680646 0.20196)
(200.235 0.570284 -0.209685)
(200.172 0.421806 -0.608531)
(199.972 0.24993 -0.965852)
(199.641 0.0603403 -1.2497)
(199.199 -0.141585 -1.42113)
(198.682 -0.351438 -1.4371)
(198.147 -0.563959 -1.25276)
(197.707 -0.755547 -0.851334)
(200.437 0.493141 1.28666)
(200.751 0.293946 0.696899)
(200.862 0.0565032 0.0480531)
(200.773 -0.191892 -0.589152)
(200.481 -0.455582 -1.18749)
(199.988 -0.731855 -1.70138)
(199.302 -1.022 -2.07127)
(198.459 -1.32713 -2.22307)
(197.531 -1.65057 -2.04389)
(196.724 -1.95911 -1.47433)
(200.709 1.33877 1.33395)
(201.122 1.12923 0.577463)
(201.272 0.858193 -0.219534)
(201.168 0.568591 -1.00958)
(200.798 0.260521 -1.7657)
(200.153 -0.0644384 -2.44147)
(199.22 -0.414828 -2.96113)
(198.017 -0.795552 -3.22091)
(196.591 -1.22468 -3.01521)
(195.276 -1.65979 -2.19501)
(201.189 0.969228 1.98193)
(201.692 0.64304 1.05587)
(201.88 0.279731 0.0519451)
(201.776 -0.0757053 -0.944604)
(201.355 -0.436687 -1.92912)
(200.593 -0.802108 -2.85525)
(199.441 -1.18609 -3.63722)
(197.887 -1.60188 -4.14897)
(195.909 -2.09894 -4.06762)
(193.974 -2.62913 -3.12116)
(201.447 1.90294 1.87391)
(202.02 1.53865 0.846458)
(202.243 1.14421 -0.227372)
(202.142 0.769442 -1.3099)
(201.685 0.402276 -2.3952)
(200.835 0.0382333 -3.45494)
(199.501 -0.347848 -4.39705)
(197.632 -0.777196 -5.09971)
(195.084 -1.32165 -5.10669)
(192.461 -1.94663 -4.0341)
(201.887 1.19471 2.51005)
(202.523 0.709139 1.37913)
(202.775 0.230491 0.15954)
(202.687 -0.196906 -1.06544)
(202.215 -0.593175 -2.32542)
(201.31 -0.960631 -3.59875)
(199.837 -1.32285 -4.80649)
(197.697 -1.70779 -5.82671)
(194.59 -2.22234 -6.10029)
(191.225 -2.8644 -5.07648)
(202.058 2.25899 2.08755)
(202.723 1.74752 0.94728)
(202.987 1.26728 -0.229466)
(202.892 0.853703 -1.4391)
(202.395 0.497404 -2.69058)
(201.443 0.188076 -3.99445)
(199.866 -0.102558 -5.27381)
(197.519 -0.418032 -6.45243)
(193.938 -0.857839 -6.88375)
(189.84 -1.53831 -5.92609)
(202.328 0.926663 2.77712)
(203.009 0.294051 1.61261)
(203.283 -0.261574 0.349445)
(203.196 -0.710457 -0.931803)
(202.701 -1.07304 -2.28902)
(201.736 -1.34889 -3.72275)
(200.104 -1.54549 -5.19871)
(197.605 -1.70536 -6.62772)
(193.665 -1.88869 -7.46368)
(188.753 -2.41701 -6.70209)
(201.691 2.16072 2.04689)
(202.338 1.47881 0.964982)
(202.588 0.968413 -0.162418)
(202.446 0.561642 -1.3442)
(201.879 0.288101 -2.59055)
(200.824 0.135419 -3.93104)
(199.089 0.11057 -5.32888)
(196.435 0.213291 -6.71294)
(192.28 0.385113 -7.61493)
(186.75 0.373022 -6.78234)
(198.708 -0.0994627 0.418388)
(198.846 -0.163619 0.296159)
(198.883 -0.240566 0.107553)
(198.865 -0.311176 -0.0573959)
(198.798 -0.384327 -0.222645)
(198.693 -0.450866 -0.343129)
(198.559 -0.513351 -0.420271)
(198.413 -0.571354 -0.433024)
(198.267 -0.624694 -0.383422)
(198.1 -0.669299 -0.273612)
(199.414 0.528879 0.368926)
(199.562 0.515049 0.0983772)
(199.617 0.455893 -0.175166)
(199.575 0.358817 -0.436852)
(199.441 0.238357 -0.664113)
(199.223 0.10051 -0.834688)
(198.941 -0.0475012 -0.92427)
(198.622 -0.199311 -0.909019)
(198.31 -0.346798 -0.772395)
(198.065 -0.472275 -0.513986)
(199.756 0.202626 1.00436)
(199.99 0.0642927 0.5769)
(200.074 -0.108585 0.0981389)
(200.009 -0.29604 -0.369143)
(199.795 -0.500697 -0.79903)
(199.44 -0.718226 -1.15406)
(198.963 -0.946521 -1.3916)
(198.404 -1.18198 -1.46595)
(197.827 -1.41936 -1.3229)
(197.355 -1.63389 -0.947479)
(199.933 1.02337 0.997565)
(200.262 0.889744 0.427538)
(200.384 0.691854 -0.177915)
(200.3 0.466783 -0.77398)
(200.008 0.218634 -1.33004)
(199.509 -0.048212 -1.80221)
(198.814 -0.335549 -2.1313)
(197.962 -0.642447 -2.24341)
(197.027 -0.970478 -2.03114)
(196.222 -1.28769 -1.42545)
(200.319 0.636001 1.61833)
(200.741 0.39833 0.886804)
(200.9 0.114359 0.0822446)
(200.809 -0.175867 -0.711024)
(200.454 -0.479176 -1.47727)
(199.828 -0.791299 -2.16598)
(198.922 -1.11968 -2.70322)
(197.762 -1.47053 -2.9872)
(196.406 -1.8662 -2.83312)
(195.17 -2.26837 -2.08709)
(200.521 1.56858 1.49861)
(201.021 1.29863 0.66852)
(201.214 0.984374 -0.207396)
(201.119 0.672759 -1.08584)
(200.714 0.35867 -1.94627)
(199.982 0.0411548 -2.74686)
(198.883 -0.296455 -3.4014)
(197.425 -0.668251 -3.79586)
(195.612 -1.1119 -3.64857)
(193.875 -1.60458 -2.71516)
(200.924 0.86853 2.13215)
(201.494 0.483786 1.19279)
(201.718 0.0876751 0.164685)
(201.627 -0.276493 -0.86252)
(201.191 -0.62141 -1.8982)
(200.38 -0.946529 -2.9002)
(199.121 -1.26999 -3.78615)
(197.388 -1.61396 -4.421)
(195.103 -2.04737 -4.44876)
(192.804 -2.56767 -3.4599)
(201.074 1.97806 1.70693)
(201.681 1.57133 0.753512)
(201.92 1.17247 -0.238919)
(201.82 0.820325 -1.25772)
(201.351 0.510869 -2.29127)
(200.476 0.237604 -3.3231)
(199.091 -0.023195 -4.26426)
(197.135 -0.306335 -5.00135)
(194.432 -0.683753 -5.09061)
(191.56 -1.24106 -4.03208)
(201.35 0.634424 2.42952)
(201.98 0.108053 1.43919)
(202.229 -0.366677 0.343234)
(202.134 -0.752704 -0.764038)
(201.657 -1.06596 -1.91894)
(200.752 -1.30383 -3.09224)
(199.29 -1.47701 -4.22718)
(197.163 -1.62354 -5.18312)
(194.123 -1.79761 -5.56531)
(190.624 -2.23068 -4.57443)
(200.738 1.98356 1.66916)
(201.34 1.41243 0.763582)
(201.577 0.984052 -0.195427)
(201.444 0.640252 -1.20259)
(200.915 0.412606 -2.24906)
(199.94 0.290586 -3.33501)
(198.388 0.274747 -4.39506)
(196.113 0.358404 -5.30928)
(192.859 0.469143 -5.69482)
(188.885 0.424792 -4.59245)
(198.409 -0.192748 0.321876)
(198.516 -0.237925 0.252773)
(198.541 -0.292899 0.122959)
(198.531 -0.341053 0.0174101)
(198.492 -0.393297 -0.0942812)
(198.432 -0.441027 -0.174243)
(198.356 -0.486284 -0.229624)
(198.274 -0.527583 -0.245391)
(198.19 -0.563707 -0.22645)
(198.071 -0.591207 -0.173848)
(199.033 0.394455 0.201094)
(199.129 0.407027 0.0206319)
(199.166 0.382346 -0.154491)
(199.139 0.32278 -0.319387)
(199.053 0.242003 -0.457934)
(198.915 0.14569 -0.555896)
(198.74 0.041104 -0.599043)
(198.548 -0.065192 -0.574495)
(198.366 -0.165355 -0.478)
(198.227 -0.246354 -0.312348)
(199.248 -0.0150564 0.787599)
(199.413 -0.113834 0.483489)
(199.474 -0.238943 0.136545)
(199.429 -0.377664 -0.200693)
(199.279 -0.532316 -0.506453)
(199.034 -0.698453 -0.752479)
(198.715 -0.872213 -0.909982)
(198.353 -1.04795 -0.952818)
(197.998 -1.21777 -0.855506)
(197.719 -1.36367 -0.623047)
(199.344 0.7699 0.719787)
(199.594 0.690842 0.302301)
(199.688 0.551436 -0.143552)
(199.625 0.381986 -0.579699)
(199.404 0.188433 -0.977252)
(199.036 -0.0232993 -1.29949)
(198.538 -0.250669 -1.50357)
(197.952 -0.489225 -1.54098)
(197.346 -0.732668 -1.35927)
(196.851 -0.957198 -0.933412)
(199.633 0.35325 1.30177)
(199.972 0.185 0.738217)
(200.099 -0.0311398 0.109687)
(200.025 -0.261805 -0.506235)
(199.741 -0.509421 -1.08937)
(199.251 -0.76765 -1.59301)
(198.566 -1.03908 -1.9587)
(197.728 -1.324 -2.11319)
(196.813 -1.62902 -1.95584)
(196.027 -1.92273 -1.4136)
(199.772 1.26694 1.16068)
(200.189 1.07543 0.508908)
(200.35 0.83288 -0.184815)
(200.266 0.581249 -0.877126)
(199.926 0.320352 -1.54015)
(199.325 0.0519817 -2.12911)
(198.457 -0.232688 -2.57136)
(197.359 -0.541406 -2.77607)
(196.094 -0.888683 -2.57627)
(194.954 -1.2586 -1.84396)
(200.128 0.565755 1.7799)
(200.618 0.269835 1.01958)
(200.809 -0.0494782 0.174334)
(200.725 -0.352124 -0.665691)
(200.342 -0.644834 -1.4965)
(199.651 -0.924517 -2.26761)
(198.621 -1.20401 -2.90412)
(197.269 -1.49818 -3.28549)
(195.628 -1.84793 -3.19794)
(194.077 -2.24572 -2.37877)
(200.239 1.71104 1.34479)
(200.772 1.40001 0.569772)
(200.98 1.07878 -0.243251)
(200.884 0.787226 -1.07694)
(200.464 0.525632 -1.90555)
(199.699 0.290723 -2.6979)
(198.536 0.0644779 -3.36668)
(196.969 -0.178701 -3.80017)
(194.984 -0.485639 -3.70395)
(193.005 -0.910037 -2.75895)
(200.515 0.345961 2.0967)
(201.076 -0.0807958 1.27484)
(201.296 -0.477759 0.344828)
(201.202 -0.80333 -0.590277)
(200.764 -1.06932 -1.55044)
(199.957 -1.27133 -2.48897)
(198.705 -1.42109 -3.34157)
(196.97 -1.54984 -3.96194)
(194.694 -1.70097 -4.08243)
(192.258 -2.02917 -3.14882)
(199.915 1.81531 1.29985)
(200.453 1.35005 0.563864)
(200.668 1.00075 -0.228921)
(200.548 0.717423 -1.06306)
(200.073 0.53261 -1.9153)
(199.208 0.437306 -2.76708)
(197.875 0.427862 -3.53987)
(196.006 0.494897 -4.10875)
(193.537 0.56304 -4.17932)
(190.763 0.519537 -3.11664)
(198.18 -0.256775 0.26642)
(198.267 -0.291681 0.230057)
(198.285 -0.334139 0.135894)
(198.28 -0.36827 0.0661371)
(198.258 -0.406609 -0.0137687)
(198.223 -0.441127 -0.0710004)
(198.181 -0.473787 -0.115436)
(198.135 -0.50288 -0.135309)
(198.085 -0.527056 -0.136107)
(197.992 -0.543594 -0.117138)
(198.749 0.319127 0.0798412)
(198.811 0.346836 -0.0388067)
(198.835 0.344633 -0.145905)
(198.819 0.311514 -0.244365)
(198.765 0.260207 -0.323616)
(198.681 0.195681 -0.375146)
(198.574 0.124309 -0.391149)
(198.46 0.0519674 -0.364495)
(198.354 -0.014894 -0.29603)
(198.273 -0.0666416 -0.186771)
(198.865 -0.169918 0.626923)
(198.977 -0.244398 0.412965)
(199.019 -0.335596 0.164053)
(198.989 -0.437005 -0.0775827)
(198.888 -0.551318 -0.294904)
(198.725 -0.674938 -0.467816)
(198.517 -0.803404 -0.577646)
(198.289 -0.930895 -0.610324)
(198.072 -1.04979 -0.553429)
(197.907 -1.1474 -0.41898)
(198.902 0.577278 0.49823)
(199.085 0.53506 0.20077)
(199.155 0.440271 -0.117633)
(199.109 0.316627 -0.427212)
(198.95 0.170377 -0.70357)
(198.688 0.0079949 -0.918404)
(198.342 -0.166008 -1.04233)
(197.949 -0.345652 -1.04516)
(197.56 -0.52216 -0.903535)
(197.256 -0.678321 -0.611483)
(199.103 0.126874 1.03604)
(199.363 0.0101474 0.611455)
(199.461 -0.150587 0.13175)
(199.404 -0.329307 -0.335863)
(199.186 -0.525844 -0.771139)
(198.818 -0.733114 -1.13501)
(198.318 -0.950443 -1.38413)
(197.729 -1.17437 -1.46991)
(197.121 -1.40389 -1.33976)
(196.622 -1.61307 -0.965778)
(199.181 1.00716 0.86871)
(199.513 0.877096 0.371174)
(199.643 0.695602 -0.162153)
(199.573 0.498319 -0.691981)
(199.3 0.288063 -1.18873)
(198.827 0.0684444 -1.61127)
(198.167 -0.163273 -1.90259)
(197.365 -0.410235 -1.99765)
(196.496 -0.673576 -1.80002)
(195.753 -0.94213 -1.25659)
(199.487 0.298341 1.46387)
(199.893 0.0767082 0.863594)
(200.05 -0.174262 0.185556)
(199.977 -0.419549 -0.48485)
(199.657 -0.661552 -1.13619)
(199.093 -0.895291 -1.71831)
(198.282 -1.12934 -2.16891)
(197.261 -1.37161 -2.39266)
(196.105 -1.64515 -2.26864)
(195.069 -1.93703 -1.64095)
(199.548 1.46944 1.01318)
(199.997 1.24144 0.401292)
(200.172 0.991078 -0.244359)
(200.086 0.75684 -0.906021)
(199.727 0.542079 -1.55007)
(199.086 0.345952 -2.14015)
(198.148 0.156396 -2.59862)
(196.937 -0.044546 -2.83423)
(195.511 -0.28512 -2.65517)
(194.168 -0.594725 -1.89069)
(199.82 0.0714682 1.79083)
(200.303 -0.266271 1.12491)
(200.49 -0.591307 0.35267)
(200.403 -0.860502 -0.419522)
(200.022 -1.0822 -1.20055)
(199.333 -1.25074 -1.93657)
(198.304 -1.3775 -2.56574)
(196.938 -1.4862 -2.95973)
(195.276 -1.60962 -2.94855)
(193.614 -1.84694 -2.17913)
(199.223 1.66542 0.950098)
(199.685 1.29765 0.371318)
(199.874 1.02226 -0.263083)
(199.769 0.795576 -0.932085)
(199.357 0.649972 -1.6031)
(198.62 0.577713 -2.2482)
(197.519 0.572797 -2.78732)
(196.037 0.625814 -3.11414)
(194.215 0.664547 -3.01113)
(192.327 0.633343 -2.10799)
(197.998 -0.305297 0.238094)
(198.072 -0.334656 0.221466)
(198.086 -0.370358 0.148107)
(198.083 -0.396067 0.0990438)
(198.071 -0.425479 0.037474)
(198.052 -0.451083 -0.0075845)
(198.027 -0.474936 -0.0468659)
(198.002 -0.495447 -0.0705767)
(197.97 -0.511466 -0.0841024)
(197.892 -0.520912 -0.085312)
(198.535 0.287726 -0.00973284)
(198.573 0.32427 -0.086464)
(198.589 0.336433 -0.147279)
(198.579 0.321591 -0.200705)
(198.547 0.291543 -0.24052)
(198.496 0.250404 -0.261905)
(198.433 0.20341 -0.261003)
(198.365 0.155434 -0.233551)
(198.302 0.111375 -0.182559)
(198.254 0.0785418 -0.106072)
(198.571 -0.274856 0.511264)
(198.645 -0.335051 0.361008)
(198.673 -0.402896 0.18249)
(198.653 -0.476799 0.00876504)
(198.588 -0.56005 -0.147256)
(198.483 -0.65002 -0.272013)
(198.351 -0.742615 -0.353583)
(198.209 -0.832756 -0.3849)
(198.078 -0.914194 -0.358924)
(197.98 -0.97825 -0.289608)
(198.576 0.438843 0.326133)
(198.704 0.42003 0.120219)
(198.754 0.357954 -0.100061)
(198.723 0.27057 -0.312897)
(198.612 0.163601 -0.499335)
(198.431 0.0432012 -0.638662)
(198.198 -0.0857261 -0.711632)
(197.939 -0.217073 -0.699953)
(197.692 -0.342329 -0.5951)
(197.505 -0.449552 -0.396765)
(198.698 -0.0433306 0.819468)